/*--------------------------------*- C++ -*----------------------------------*\
| =========                 |                                                 |
| \\      /  F ield         | foam-extend: Open Source CFD                    |
|  \\    /   O peration     | Version:  3.0                                   |
|   \\  /    A nd           | Web:         http://www.extend-project.de       |
|    \\/     M anipulation  |                                                 |
\*---------------------------------------------------------------------------*/
FoamFile
{
    version     2.0;
    format      ascii;
    class       volScalarField;
    location    "39";
    object      p;
}
// * * * * * * * * * * * * * * * * * * * * * * * * * * * * * * * * * * * * * //

dimensions      [0 0 0 0 0 0 0];

internalField   nonuniform List<scalar> 
672
(
-0.2323148408
-0.1970213216
-0.1859689747
-0.1673516579
-0.1648853049
-0.1541360258
-0.1552637346
-0.1487054616
-0.1504729749
-0.1457848681
-0.145562042
-0.14049546
-0.2294113833
-0.1945604658
-0.1836466843
-0.1652634231
-0.1628282798
-0.1522149871
-0.153328945
-0.1468543122
-0.1486005055
-0.1439713147
-0.1437532579
-0.1387448747
-0.2236094547
-0.1896416619
-0.1790053357
-0.1610885851
-0.1587165421
-0.1483727329
-0.1494599072
-0.1431497813
-0.1448521978
-0.1403414141
-0.1401271272
-0.1352495309
-0.2150100564
-0.1823502543
-0.1721235853
-0.1548976811
-0.1526174708
-0.1426736475
-0.1437196909
-0.1376544615
-0.1392925389
-0.1349560251
-0.1347521566
-0.1300580032
-0.2036924516
-0.1727539404
-0.1630671394
-0.1467502178
-0.1445915524
-0.1351732268
-0.1361654299
-0.1304214749
-0.131973375
-0.127867206
-0.1276720351
-0.1232268405
-0.1898286858
-0.1609977517
-0.1519711363
-0.1367669246
-0.1347561269
-0.1259813305
-0.1269069173
-0.1215565369
-0.1230036137
-0.1191784161
-0.1189973666
-0.1148516422
-0.1735621378
-0.1472044322
-0.1389530208
-0.1250546816
-0.1232178178
-0.1151980747
-0.1160457744
-0.1111569852
-0.1124808065
-0.1089857973
-0.1088198453
-0.1050293914
-0.1551293145
-0.1315729407
-0.1241991402
-0.111779251
-0.1101388764
-0.1029735133
-0.10373237
-0.09936567048
-0.1005490998
-0.09742743885
-0.09727777204
-0.0938877966
-0.134728684
-0.1142735305
-0.1078713384
-0.09708866927
-0.09566576601
-0.0894470102
-0.09010764008
-0.08631953878
-0.08734852864
-0.08464022518
-0.08451098934
-0.08156433854
-0.1126511292
-0.09555046021
-0.09019927367
-0.08118636678
-0.07999876973
-0.07480199367
-0.07535633216
-0.07219205968
-0.073053171
-0.07079138267
-0.07068178991
-0.06821849634
-0.08913863764
-0.0756116992
-0.07137976869
-0.06425320409
-0.06331554196
-0.05920928725
-0.05964955135
-0.0571518254
-0.05783408589
-0.05604829166
-0.05596186642
-0.05400699721
-0.06452339458
-0.05473579522
-0.05167548435
-0.0465210525
-0.04584563981
-0.04287747058
-0.04319936225
-0.04139559143
-0.04189130067
-0.04060246369
-0.04053898903
-0.03912657668
-0.03907746556
-0.0331568886
-0.03130739379
-0.02819364428
-0.0277881575
-0.02599936964
-0.02619727017
-0.02511401815
-0.02541596245
-0.02464149856
-0.0246036121
-0.02374071721
-0.01315885706
-0.0111749262
-0.01055880215
-0.009520572891
-0.009390924321
-0.008799203268
-0.008872172164
-0.00851825112
-0.00862347603
-0.008371473742
-0.008357353098
-0.008066905815
0.01294494051
0.01096249471
0.01033687771
0.00928258289
0.009135684371
0.008518659942
0.008572973042
0.008189119582
0.008281988572
0.008007491254
0.007993628685
0.007719046295
0.0388671108
0.03294811431
0.03108932194
0.02796016641
0.0275378209
0.02572467673
0.02590441089
0.02479228159
0.02508237088
0.0242861117
0.02424890346
0.02340164953
0.064320047
0.05453421363
0.05146494585
0.04629641525
0.04560470636
0.04261417496
0.04291816626
0.04108803853
0.0415710763
0.04026237044
0.04019725301
0.03879745943
0.08894560766
0.07542069679
0.07118035619
0.06404152799
0.06308861861
0.05896265783
0.05938611702
0.05686510889
0.05753521556
0.05573169608
0.05564311199
0.05369885468
0.1124714441
0.09537310076
0.09001417133
0.08099132457
0.07978970161
0.07457666213
0.0751153155
0.07193181819
0.07278086937
0.07050415802
0.0703908173
0.06793453808
0.1345650533
0.1141125781
0.1077034524
0.09691348264
0.09547804908
0.08924688577
0.08989308351
0.08609037101
0.08710684651
0.08438690009
0.08425071739
0.08130601383
0.1549840864
0.1314307016
0.1240508614
0.1116265676
0.1099753543
0.1028018237
0.103548048
0.09917155621
0.1003434595
0.09721332033
0.09705610783
0.09366462296
0.1734371997
0.1470828185
0.1388263558
0.1249265425
0.1230807061
0.1150570743
0.1158938575
0.1110003354
0.112312634
0.1088126971
0.1086363404
0.1048392139
0.1897255218
0.1608981321
0.1518674136
0.1366647097
0.1346466661
0.1258724331
0.1267886859
0.121438803
0.122874495
0.1190480417
0.1188543789
0.1146973941
0.2036120239
0.1726772672
0.1629874582
0.1466746894
0.1445109197
0.1350970102
0.1360822542
0.1303431785
0.1318852574
0.1277808124
0.1275729
0.1231137403
0.2149529698
0.1822969472
0.1720681339
0.1548489407
0.1525652126
0.1426296625
0.1436701216
0.1376143401
0.139242429
0.1349109731
0.1346918265
0.1299793567
0.2235756969
0.1896116977
0.1789743515
0.1610661523
0.1586927562
0.1483599507
0.1494440035
0.1431463849
0.1448406815
0.1403369816
0.1401077785
0.1352101654
0.2294008412
0.1945534417
0.1836393635
0.1652663618
0.162831346
0.1522315933
0.1533440958
0.1468847383
0.148623946
0.1440037149
0.1437708027
0.1387405936
0.2323266394
0.1970363767
0.1859847928
0.1673784483
0.1649142457
0.154179628
0.1553081182
0.1487664128
0.1505285824
0.1458504072
0.145612917
0.1405238059
0.2323443109
0.197052631
0.186000452
0.1673940134
0.1649295933
0.1541958823
0.1553244165
0.1487839783
0.1505469759
0.1458688474
0.1456338974
0.1405395344
0.2294258319
0.1945787789
0.1836670103
0.1652947664
0.1628630766
0.152263868
0.153380129
0.1469210942
0.1486634046
0.1440444423
0.1438123191
0.1387886419
0.2236357503
0.18966917
0.1790329827
0.1611252123
0.1587547564
0.1484241197
0.1495119536
0.1432170918
0.1449156899
0.1404135733
0.1401891509
0.135288152
0.2150188646
0.1823622963
0.1721373921
0.154919856
0.1526423321
0.1427091619
0.1437569205
0.1377035435
0.1393386065
0.1350100132
0.1347954888
0.1300900752
0.2037121235
0.1727736249
0.1630866989
0.1467748395
0.1446171105
0.1352065873
0.1361992694
0.1304644943
0.1320142269
0.1279132141
0.1277121263
0.1232525977
0.1898286227
0.1610000177
0.1519746361
0.136774717
0.1347653878
0.125995756
0.126922267
0.1215774832
0.1230231959
0.1192016967
0.1190156301
0.114864716
0.1735730001
0.1472138118
0.1389618527
0.1250634223
0.1232265704
0.1152074854
0.1160552732
0.1111675279
0.1124909267
0.1089962935
0.1088290901
0.1050355349
0.1551189289
0.1315638769
0.124190597
0.1117703321
0.1101299602
0.1029633963
0.1037223351
0.09935386193
0.1005382084
0.09741520133
0.09726783807
0.09388032313
0.1347303278
0.1142721645
0.107868946
0.09708084506
0.09565693405
0.08943145686
0.0900916726
0.08629626532
0.08732651749
0.08461379323
0.08448805232
0.0815501066
0.1126310168
0.09553074379
0.09017934738
0.08116174402
0.07997266168
0.07476883684
0.0753222552
0.07214954028
0.07301333038
0.07074579595
0.07064489705
0.06819105002
0.08913250152
0.07560127866
0.07136790617
0.06423144582
0.06329192836
0.05917279718
0.05961234988
0.05710033322
0.05778571671
0.05599152498
0.0559135003
0.05397810143
0.06449608331
0.05470820562
0.051647123
0.04648484939
0.04580679097
0.04282736303
0.0431474325
0.04133051639
0.04182982056
0.04053225509
0.04048154064
0.03908328162
0.03906653508
0.03314089232
0.03128969985
0.02816333785
0.02775548082
0.02595010045
0.0261471392
0.02504540366
0.02535170931
0.02456649278
0.02454017831
0.02370344647
0.01312830701
0.01114379727
0.01052665351
0.009479205015
0.009346398415
0.008741605293
0.008812392137
0.008443324617
0.008552705523
0.008290767497
0.008291536134
0.008017658862
-0.01295673566
-0.01097949474
-0.0103556193
-0.009314380277
-0.009169973346
-0.008570069854
-0.008625382013
-0.008260485059
-0.00834903135
-0.008085372011
-0.008059770139
-0.007758088892
-0.03889630508
-0.03297775799
-0.0311198715
-0.02799928323
-0.0275798807
-0.02577886331
-0.02596059567
-0.02486247795
-0.0251484431
-0.0243612526
-0.02430952465
-0.02344611275
-0.06432860189
-0.05454745233
-0.0514797438
-0.04632237745
-0.04563283345
-0.04265672421
-0.04296168029
-0.04114732173
-0.04162694915
-0.04032705989
-0.04025232553
-0.03882979526
-0.08896913236
-0.07544413771
-0.0712042607
-0.06407147716
-0.06312065658
-0.05900335061
-0.05942829768
-0.05691726075
-0.05758438769
-0.0557871498
-0.05568781274
-0.05373136773
-0.1124732882
-0.095378559
-0.09002080827
-0.08100532097
-0.0798050912
-0.07460122247
-0.07514044604
-0.07196680461
-0.072813622
-0.07054238054
-0.07042278696
-0.06795218016
-0.1345797142
-0.1141263253
-0.1077169798
-0.09692919425
-0.09549448737
-0.08926677476
-0.08991361897
-0.0861149598
-0.08713032944
-0.08441284751
-0.08427225834
-0.08132231235
-0.1549770802
-0.1314258934
-0.1240467457
-0.1116248528
-0.109974001
-0.1028029034
-0.1035491484
-0.09917505711
-0.1003463751
-0.09721773684
-0.09705915626
-0.09366501346
-0.1734415505
-0.1470852787
-0.1388278206
-0.1249257291
-0.1230789808
-0.1150528956
-0.115889102
-0.1109931182
-0.1123059176
-0.1088045071
-0.1086302758
-0.1048355631
-0.1897092892
-0.1608825811
-0.151852102
-0.1366465908
-0.1346279087
-0.1258490613
-0.1267649341
-0.1214096275
-0.1228469141
-0.1190177745
-0.1188287147
-0.1146819666
-0.2036066638
-0.1726690495
-0.1629775927
-0.1466582487
-0.1444920829
-0.1350700724
-0.1360535764
-0.1303058352
-0.1318497666
-0.1277400702
-0.1275400619
-0.1230901583
-0.2149289745
-0.1822722795
-0.1720434084
-0.1548168878
-0.1525317593
-0.1425854988
-0.1436252847
-0.1375572924
-0.139188734
-0.1348508174
-0.1346409645
-0.1299491898
-0.223563164
-0.1895955083
-0.1789561761
-0.1610380285
-0.1586612939
-0.1483159614
-0.1493976482
-0.1430863998
-0.1447839445
-0.1402717593
-0.1400552841
-0.1351722346
-0.2293720813
-0.1945231134
-0.1836088594
-0.1652256145
-0.162788761
-0.1521743535
-0.1532859946
-0.1468099974
-0.1485534545
-0.1439241625
-0.1437029269
-0.1386994392
-0.2323109405
-0.197016581
-0.185962905
-0.1673450038
-0.1648770695
-0.15412778
-0.1552537009
-0.1486958611
-0.1504620245
-0.1457735249
-0.1455509884
-0.1404786199
)
;

boundaryField
{
    out
    {
        type            implicitExtrapolation;
    }
    in
    {
        type            implicitExtrapolation;
    }
    frontAndBack
    {
        type            empty;
    }
}


// ************************************************************************* //
