/*--------------------------------*- C++ -*----------------------------------*\
| =========                 |                                                 |
| \\      /  F ield         | OpenFOAM: The Open Source CFD Toolbox           |
|  \\    /   O peration     | Version:  2.2.0                                 |
|   \\  /    A nd           | Web:      www.OpenFOAM.org                      |
|    \\/     M anipulation  |                                                 |
\*---------------------------------------------------------------------------*/
FoamFile
{
    version     2.0;
    format      ascii;
    class       volVectorField;
    location    "6";
    object      s;
}
// * * * * * * * * * * * * * * * * * * * * * * * * * * * * * * * * * * * * * //

dimensions      [0 1 -1 0 0 0 0];

internalField   nonuniform List<vector> 
7920
(
(0.50998 0.447147 0.106022)
(0.481588 0.421959 0.166979)
(0.451892 0.395541 0.231242)
(0.418293 0.365623 0.297858)
(0.382547 0.333862 0.365156)
(0.343278 0.299296 0.430949)
(0.302353 0.264597 0.492174)
(0.250427 0.222541 0.543179)
(0.54535 0.364296 0.147543)
(0.514781 0.343529 0.20709)
(0.482963 0.321815 0.269832)
(0.446907 0.297162 0.334897)
(0.408555 0.27102 0.400789)
(0.366781 0.242921 0.465724)
(0.322316 0.214572 0.527462)
(0.271878 0.18377 0.583212)
(0.56088 0.276592 0.214311)
(0.529411 0.260912 0.270144)
(0.496882 0.244617 0.328905)
(0.459906 0.226044 0.389845)
(0.420667 0.20643 0.451683)
(0.378134 0.185584 0.513018)
(0.332818 0.164673 0.57222)
(0.283523 0.144137 0.62776)
(0.556785 0.189052 0.313428)
(0.526255 0.178635 0.360786)
(0.49494 0.167868 0.410689)
(0.459018 0.155452 0.462618)
(0.420895 0.142328 0.515611)
(0.379534 0.1284 0.568701)
(0.335506 0.114475 0.620799)
(0.288949 0.10165 0.671081)
(0.540228 0.10753 0.432937)
(0.512226 0.101989 0.466837)
(0.483678 0.0962816 0.503089)
(0.45033 0.0895565 0.541548)
(0.414738 0.082404 0.581695)
(0.375784 0.0747647 0.623057)
(0.334124 0.0671266 0.665056)
(0.290598 0.0603484 0.707338)
(0.524857 0.0344351 0.522836)
(0.499245 0.0327784 0.544972)
(0.473202 0.0310717 0.569548)
(0.442178 0.0290125 0.596758)
(0.408795 0.0268013 0.626443)
(0.371863 0.0244144 0.658488)
(0.332081 0.0220147 0.692634)
(0.290611 0.0199123 0.728764)
(0.524844 -0.0344281 0.522841)
(0.499228 -0.0327633 0.544976)
(0.473187 -0.031048 0.569552)
(0.442163 -0.0289823 0.596761)
(0.408781 -0.0267664 0.626446)
(0.37185 -0.0243773 0.658491)
(0.33207 -0.0219781 0.692637)
(0.290601 -0.0198791 0.728767)
(0.540195 -0.107519 0.432947)
(0.51218 -0.101969 0.466847)
(0.483639 -0.0962568 0.503098)
(0.45029 -0.0895266 0.541557)
(0.414701 -0.0823711 0.581704)
(0.37575 -0.0747308 0.623066)
(0.334093 -0.0670939 0.665064)
(0.290572 -0.0603195 0.707346)
(0.556742 -0.189035 0.313437)
(0.526193 -0.17861 0.360795)
(0.494888 -0.167843 0.410699)
(0.458962 -0.155424 0.462628)
(0.420843 -0.1423 0.515622)
(0.379485 -0.128372 0.568711)
(0.335462 -0.11445 0.62081)
(0.28891 -0.101629 0.671091)
(0.560838 -0.276572 0.214316)
(0.529349 -0.260884 0.27015)
(0.496828 -0.244594 0.328912)
(0.459847 -0.226021 0.389853)
(0.42061 -0.20641 0.451692)
(0.378079 -0.185567 0.513028)
(0.332768 -0.164661 0.572231)
(0.283479 -0.144128 0.627771)
(0.545314 -0.364276 0.147546)
(0.514726 -0.343503 0.207094)
(0.482912 -0.321799 0.269838)
(0.446851 -0.297148 0.334905)
(0.408498 -0.271012 0.400798)
(0.366725 -0.242918 0.465734)
(0.322264 -0.214575 0.527473)
(0.27183 -0.183774 0.583224)
(0.509964 -0.447143 0.106024)
(0.48156 -0.421955 0.166982)
(0.45186 -0.395548 0.231247)
(0.418255 -0.365634 0.297864)
(0.382506 -0.333879 0.365164)
(0.343235 -0.299317 0.430957)
(0.302312 -0.264622 0.492184)
(0.250384 -0.222569 0.54319)
(0.225876 0.197951 0.0285968)
(0.227913 0.19947 0.0517948)
(0.229573 0.200657 0.0785989)
(0.22982 0.200649 0.109075)
(0.228579 0.199476 0.143193)
(0.224904 0.196501 0.180361)
(0.21824 0.191932 0.218991)
(0.205494 0.183728 0.25614)
(0.254381 0.170007 0.0416055)
(0.255714 0.171019 0.0655895)
(0.256508 0.171755 0.0932036)
(0.255647 0.171552 0.124538)
(0.253023 0.170485 0.159657)
(0.247754 0.16825 0.198212)
(0.238921 0.16497 0.239326)
(0.225586 0.160856 0.28156)
(0.281473 0.138912 0.0650246)
(0.281619 0.139275 0.0893908)
(0.281053 0.139409 0.11734)
(0.278656 0.138855 0.148991)
(0.274335 0.137706 0.184512)
(0.267278 0.135834 0.223785)
(0.256637 0.133372 0.26645)
(0.242013 0.131116 0.311896)
(0.308739 0.104895 0.102694)
(0.307029 0.10459 0.125683)
(0.304451 0.104111 0.152072)
(0.299971 0.103188 0.182029)
(0.293543 0.101916 0.215847)
(0.28448 0.100269 0.253636)
(0.272119 0.0984055 0.295446)
(0.256586 0.0971233 0.341286)
(0.334211 0.0665264 0.150847)
(0.330144 0.0658862 0.170086)
(0.325101 0.0651383 0.192541)
(0.318186 0.0641628 0.218486)
(0.309406 0.0630273 0.248389)
(0.298202 0.0617486 0.282605)
(0.28409 0.0604478 0.321538)
(0.267467 0.0596586 0.365675)
(0.350835 0.0230035 0.188353)
(0.344942 0.0226658 0.203712)
(0.338025 0.0222916 0.222225)
(0.329314 0.0218537 0.244276)
(0.318847 0.0213765 0.270482)
(0.306147 0.0208724 0.301378)
(0.290843 0.0203875 0.337585)
(0.27344 0.0201074 0.379854)
(0.350865 -0.0230173 0.188361)
(0.344981 -0.0226959 0.203719)
(0.338058 -0.0223401 0.222231)
(0.329348 -0.0219177 0.244282)
(0.318878 -0.021454 0.270487)
(0.306176 -0.0209598 0.301383)
(0.290869 -0.0204808 0.337591)
(0.273462 -0.0202015 0.379859)
(0.334286 -0.0665493 0.150865)
(0.330242 -0.0659252 0.170103)
(0.325184 -0.065188 0.192558)
(0.318272 -0.0642249 0.218502)
(0.309487 -0.0630992 0.248404)
(0.298277 -0.0618281 0.28262)
(0.284159 -0.0605317 0.321553)
(0.267525 -0.0597429 0.365689)
(0.30883 -0.104929 0.102715)
(0.307149 -0.104639 0.125704)
(0.304556 -0.10416 0.152093)
(0.300081 -0.103245 0.18205)
(0.293647 -0.101977 0.215869)
(0.284579 -0.100334 0.253658)
(0.27221 -0.0984732 0.295467)
(0.256666 -0.0971913 0.341306)
(0.281554 -0.13895 0.0650415)
(0.281727 -0.139325 0.0894091)
(0.28115 -0.139453 0.11736)
(0.278761 -0.138903 0.149012)
(0.274437 -0.137753 0.184535)
(0.267378 -0.135881 0.223808)
(0.256731 -0.133419 0.266474)
(0.242099 -0.131163 0.311919)
(0.254443 -0.170043 0.0416162)
(0.2558 -0.171065 0.0656018)
(0.256588 -0.17179 0.093218)
(0.255736 -0.171588 0.124554)
(0.253112 -0.170518 0.159675)
(0.247846 -0.168282 0.198231)
(0.23901 -0.165 0.239346)
(0.225672 -0.160887 0.281581)
(0.225914 -0.197977 0.0286017)
(0.227967 -0.199501 0.0518011)
(0.229628 -0.200676 0.0786069)
(0.229884 -0.200667 0.109085)
(0.228647 -0.19949 0.143204)
(0.224977 -0.196513 0.180374)
(0.218313 -0.191942 0.219006)
(0.205571 -0.183737 0.256156)
(0.123628 0.108281 0.00448005)
(0.125503 0.109636 0.0144957)
(0.127443 0.111028 0.0261955)
(0.12913 0.1122 0.0397376)
(0.130452 0.113114 0.0552466)
(0.131009 0.113547 0.072663)
(0.130201 0.113379 0.0915347)
(0.127029 0.112258 0.110639)
(0.139869 0.09347 0.00613113)
(0.141499 0.0946075 0.0167929)
(0.143121 0.095791 0.0292322)
(0.144369 0.0968264 0.043643)
(0.145112 0.0977218 0.0602224)
(0.144953 0.0984014 0.0790678)
(0.143185 0.0988113 0.100122)
(0.139655 0.0995909 0.123064)
(0.155707 0.0768642 0.0100383)
(0.156892 0.0776499 0.0214243)
(0.157985 0.0784754 0.034687)
(0.158599 0.0792043 0.0500571)
(0.158611 0.0798685 0.0677987)
(0.157637 0.0804511 0.0881408)
(0.155072 0.0809686 0.11129)
(0.150835 0.0820632 0.137399)
(0.172153 0.0585171 0.0169996)
(0.172551 0.0588611 0.0287586)
(0.172776 0.0592337 0.0424516)
(0.172452 0.0595544 0.0583419)
(0.171488 0.0598671 0.0767488)
(0.169552 0.0601898 0.0980024)
(0.166175 0.0605843 0.122489)
(0.161419 0.0615404 0.150665)
(0.187768 0.0373971 0.0263004)
(0.187058 0.037391 0.0378293)
(0.186112 0.0374017 0.0513162)
(0.184586 0.0373923 0.0670597)
(0.182432 0.0374003 0.0854304)
(0.179373 0.0374498 0.106841)
(0.175058 0.0375972 0.131809)
(0.169606 0.0381351 0.160993)
(0.198047 0.0129955 0.0336797)
(0.196422 0.0129335 0.0447224)
(0.194537 0.012878 0.0577376)
(0.192075 0.0128192 0.0730531)
(0.189021 0.0127724 0.0910766)
(0.185137 0.0127486 0.112274)
(0.180141 0.0127709 0.137233)
(0.174173 0.0129366 0.166724)
(0.198051 -0.0129959 0.033667)
(0.196426 -0.0129347 0.0447101)
(0.19454 -0.0128798 0.0577254)
(0.192078 -0.0128221 0.0730414)
(0.189024 -0.0127765 0.0910656)
(0.18514 -0.012754 0.112264)
(0.180144 -0.0127774 0.137224)
(0.174176 -0.0129439 0.166716)
(0.187779 -0.0373998 0.0262716)
(0.187068 -0.0373942 0.0378007)
(0.186123 -0.037406 0.0512871)
(0.184596 -0.0373975 0.0670311)
(0.182442 -0.0374065 0.0854029)
(0.179383 -0.0374568 0.106816)
(0.175067 -0.0376048 0.131786)
(0.169614 -0.0381427 0.160973)
(0.172168 -0.058523 0.0169706)
(0.172567 -0.0588677 0.0287284)
(0.172793 -0.0592412 0.0424194)
(0.172468 -0.0595624 0.058309)
(0.171504 -0.0598756 0.0767159)
(0.169567 -0.0601983 0.0979706)
(0.16619 -0.0605924 0.12246)
(0.161431 -0.0615479 0.150639)
(0.155724 -0.076873 0.0100174)
(0.156911 -0.0776594 0.0214008)
(0.158004 -0.0784848 0.0346603)
(0.158618 -0.0792134 0.0500282)
(0.15863 -0.079877 0.0677684)
(0.157655 -0.0804588 0.0881101)
(0.155089 -0.0809747 0.11126)
(0.150849 -0.0820678 0.137371)
(0.139884 -0.0934791 0.00611823)
(0.141517 -0.0946169 0.0167772)
(0.143139 -0.0957989 0.029213)
(0.144388 -0.0968333 0.043621)
(0.145131 -0.0977273 0.0601981)
(0.144972 -0.0984055 0.0790421)
(0.143203 -0.0988134 0.100096)
(0.139672 -0.099592 0.123038)
(0.123637 -0.108287 0.00447268)
(0.125514 -0.109641 0.0144857)
(0.127456 -0.11103 0.0261822)
(0.129144 -0.1122 0.0397214)
(0.130467 -0.113113 0.0552278)
(0.131026 -0.113543 0.0726422)
(0.130217 -0.113373 0.0915127)
(0.127045 -0.11225 0.110617)
(0.0662731 0.0580398 -0.00583419)
(0.0673837 0.0588449 -0.00149203)
(0.0685761 0.0597081 0.0036315)
(0.0697262 0.0605329 0.0096431)
(0.0707799 0.0613045 0.0166427)
(0.0715696 0.0619463 0.0246703)
(0.0717454 0.062369 0.0336219)
(0.0709433 0.0625868 0.0430324)
(0.0749816 0.0501175 -0.00968215)
(0.0759811 0.0508323 -0.00498824)
(0.077027 0.0516101 0.000579423)
(0.0779717 0.0523793 0.0071628)
(0.0787504 0.05315 0.0149199)
(0.0791925 0.0539126 0.0239954)
(0.078919 0.0546342 0.0345047)
(0.0779355 0.055771 0.0464662)
(0.0834448 0.0412099 -0.0156193)
(0.0842515 0.0417535 -0.01031)
(0.0850659 0.0423537 -0.00399381)
(0.085728 0.0429609 0.00350583)
(0.0861779 0.0435969 0.0123969)
(0.0862481 0.0442722 0.0229022)
(0.0856269 0.0449982 0.0352705)
(0.0843153 0.0461576 0.0497605)
(0.092167 0.0313477 -0.0245717)
(0.0926225 0.0316542 -0.0182725)
(0.0930496 0.0320051 -0.0108227)
(0.0932904 0.032372 -0.00202707)
(0.0933025 0.0327814 0.00834613)
(0.0929412 0.0332541 0.0205566)
(0.0919709 0.0338259 0.0349153)
(0.0904356 0.0347637 0.0517966)
(0.100346 0.02 -0.0357113)
(0.10029 0.0200908 -0.0280317)
(0.100179 0.0202099 -0.0190934)
(0.0998654 0.0203445 -0.00870777)
(0.099329 0.0205162 0.00335066)
(0.0984502 0.0207434 0.0173412)
(0.0970544 0.0210573 0.0335887)
(0.0951967 0.0216101 0.0525162)
(0.105679 0.00694033 -0.0443026)
(0.105193 0.00694392 -0.0354499)
(0.104642 0.00695787 -0.0252948)
(0.103889 0.00697852 -0.0136658)
(0.102931 0.00701474 -0.000354879)
(0.101666 0.00707379 0.0148841)
(0.099953 0.00716829 0.0323725)
(0.0978508 0.00734791 0.0525503)
(0.105673 -0.00693848 -0.0443038)
(0.105185 -0.00694028 -0.0354512)
(0.104636 -0.00695209 -0.0252962)
(0.103883 -0.00697103 -0.0136673)
(0.102926 -0.00700571 -0.000356292)
(0.101661 -0.00706355 0.0148829)
(0.099949 -0.00715709 0.0323715)
(0.0978477 -0.00733601 0.0525495)
(0.100331 -0.0199962 -0.0357143)
(0.100272 -0.0200854 -0.0280349)
(0.100164 -0.0202036 -0.0190969)
(0.0998503 -0.0203369 -0.00871133)
(0.0993155 -0.0205076 0.0033472)
(0.0984383 -0.0207338 0.0173381)
(0.0970443 -0.0210468 0.0335862)
(0.0951887 -0.0215989 0.0525143)
(0.09215 -0.0313419 -0.0245748)
(0.0926026 -0.0316471 -0.0182759)
(0.0930324 -0.0319983 -0.0108265)
(0.093273 -0.0323644 -0.00203104)
(0.0932867 -0.0327733 0.00834223)
(0.092927 -0.0332453 0.0205531)
(0.0919586 -0.0338161 0.0349124)
(0.0904256 -0.0347531 0.0517944)
(0.083431 -0.0412034 -0.0156216)
(0.0842359 -0.0417459 -0.0103126)
(0.085052 -0.0423468 -0.00399684)
(0.0857138 -0.0429533 0.00350257)
(0.0861647 -0.0435889 0.0123936)
(0.0862357 -0.0442633 0.0228992)
(0.0856159 -0.0449883 0.035268)
(0.0843056 -0.0461466 0.0497587)
(0.074971 -0.0501103 -0.00968351)
(0.0759699 -0.0508241 -0.00498989)
(0.077017 -0.0516019 0.000577391)
(0.0779614 -0.05237 0.00716056)
(0.0787408 -0.0531401 0.0149176)
(0.0791833 -0.0539017 0.0239933)
(0.0789103 -0.0546222 0.0345031)
(0.0779276 -0.0557581 0.0464653)
(0.0662642 -0.058031 -0.00583464)
(0.0673744 -0.0588342 -0.00149265)
(0.0685682 -0.0596969 0.00363067)
(0.0697182 -0.0605201 0.00964216)
(0.0707725 -0.0612907 0.0166417)
(0.0715625 -0.0619314 0.0246695)
(0.0717383 -0.0623532 0.0336214)
(0.0709366 -0.0625701 0.0430324)
(0.0329644 0.0288665 -0.0108847)
(0.0335288 0.0292713 -0.0093387)
(0.0341476 0.0297159 -0.00746289)
(0.0347571 0.0301504 -0.0051912)
(0.0353365 0.0305726 -0.00244998)
(0.0358092 0.0309507 0.000825696)
(0.0360001 0.031238 0.00466556)
(0.0357561 0.0314808 0.00898227)
(0.0372827 0.0249205 -0.0174969)
(0.037793 0.0252865 -0.0157749)
(0.0383417 0.0256943 -0.0136373)
(0.0388526 0.0261064 -0.0109843)
(0.0393004 0.0265323 -0.00769446)
(0.0396061 0.0269712 -0.00363059)
(0.0395868 0.027409 0.00136)
(0.0392579 0.0280894 0.00741994)
(0.0414659 0.0204812 -0.0284306)
(0.0418868 0.0207672 -0.0261859)
(0.0423289 0.0210909 -0.0233834)
(0.0427092 0.0214258 -0.0198909)
(0.0430054 0.0217863 -0.0155483)
(0.0431399 0.0221801 -0.0101715)
(0.0429651 0.0226151 -0.00354498)
(0.0424888 0.0232849 0.00457271)
(0.0457482 0.0155633 -0.0454937)
(0.0460069 0.0157337 -0.0419855)
(0.0462713 0.0159339 -0.0377398)
(0.0464581 0.0161481 -0.0326141)
(0.0465542 0.0163919 -0.0264427)
(0.0464926 0.0166769 -0.01904)
(0.0461638 0.0170221 -0.010191)
(0.0455907 0.0175585 0.000356127)
(0.0497333 0.00991513 -0.0670595)
(0.0497542 0.00997565 -0.0613842)
(0.0497701 0.0100554 -0.054827)
(0.0497006 0.0101465 -0.0472733)
(0.0495442 0.0102614 -0.0385949)
(0.0492454 0.0104093 -0.0286504)
(0.0487243 0.0106067 -0.0172709)
(0.0480059 0.0109267 -0.00424087)
(0.0523168 0.00343705 -0.0837968)
(0.052137 0.00344526 -0.076123)
(0.0519489 0.00346049 -0.0675122)
(0.0516753 0.00348026 -0.0578905)
(0.0513237 0.00350953 -0.0471755)
(0.0508465 0.00355194 -0.0352733)
(0.0501804 0.00361392 -0.022058)
(0.0493502 0.00371913 -0.00734564)
(0.0523136 -0.0034357 -0.0837962)
(0.0521328 -0.00344228 -0.0761224)
(0.0519453 -0.00345556 -0.0675116)
(0.0516717 -0.00347357 -0.05789)
(0.0513203 -0.00350109 -0.0471751)
(0.0508433 -0.00354189 -0.0352729)
(0.0501776 -0.00360237 -0.0220576)
(0.0493478 -0.00370625 -0.00734529)
(0.0497252 -0.00991282 -0.0670581)
(0.049744 -0.00997176 -0.0613829)
(0.0497612 -0.0100504 -0.0548258)
(0.0496914 -0.01014 -0.0472722)
(0.0495356 -0.0102534 -0.0385939)
(0.0492374 -0.0104 -0.0286494)
(0.0487171 -0.0105959 -0.0172699)
(0.0479998 -0.0109145 -0.0042399)
(0.0457386 -0.0155598 -0.0454925)
(0.045995 -0.0157289 -0.0419843)
(0.0462609 -0.0159288 -0.0377386)
(0.0464471 -0.0161418 -0.0326129)
(0.0465438 -0.0163847 -0.0264415)
(0.0464827 -0.0166684 -0.0190388)
(0.0461547 -0.0170123 -0.0101897)
(0.0455827 -0.0175473 0.000357537)
(0.0414577 -0.0204772 -0.0284298)
(0.041877 -0.0207621 -0.0261851)
(0.04232 -0.0210859 -0.0233826)
(0.0426997 -0.0214198 -0.0198899)
(0.0429962 -0.0217796 -0.0155473)
(0.0431307 -0.0221721 -0.0101703)
(0.0429564 -0.0226058 -0.00354352)
(0.0424805 -0.0232742 0.00457441)
(0.0372758 -0.0249158 -0.0174964)
(0.0377854 -0.0252808 -0.0157744)
(0.0383347 -0.0256885 -0.0136366)
(0.0388451 -0.0260995 -0.0109835)
(0.039293 -0.0265246 -0.00769345)
(0.0395986 -0.0269624 -0.00362931)
(0.0395792 -0.0273989 0.00136161)
(0.0392504 -0.028078 0.0074219)
(0.0329583 -0.0288605 -0.0108843)
(0.0335221 -0.0292639 -0.00933817)
(0.0341417 -0.0297082 -0.00746217)
(0.034751 -0.0301415 -0.00519028)
(0.0353304 -0.0305627 -0.00244879)
(0.0358028 -0.0309398 0.000827184)
(0.0359934 -0.0312259 0.0046674)
(0.035749 -0.0314676 0.00898448)
(0.0156835 0.0137336 -0.0134677)
(0.0159543 0.0139275 -0.0133518)
(0.0162541 0.0141431 -0.013137)
(0.0165514 0.0143553 -0.0127808)
(0.0168379 0.0145645 -0.0122258)
(0.0170781 0.0147567 -0.0114001)
(0.01719 0.0149098 -0.0102152)
(0.0171037 0.0150536 -0.00856661)
(0.0177369 0.0118562 -0.0215042)
(0.0179821 0.012033 -0.0213068)
(0.0182491 0.0122321 -0.0209296)
(0.0184998 0.0124347 -0.0202975)
(0.0187245 0.0126466 -0.0193113)
(0.018886 0.0128677 -0.0178451)
(0.0189003 0.0130928 -0.0157392)
(0.0187735 0.0134381 -0.0128009)
(0.0197249 0.00974351 -0.0350161)
(0.0199289 0.00988319 -0.0343492)
(0.0201469 0.010043 -0.0333573)
(0.0203375 0.0102095 -0.0319349)
(0.0204926 0.0103906 -0.0299511)
(0.0205756 0.01059 -0.02725)
(0.0205194 0.0108127 -0.0236468)
(0.0203264 0.0111492 -0.0189283)
(0.0217511 0.00740044 -0.0562589)
(0.0218804 0.0074854 -0.0541927)
(0.0220169 0.00758635 -0.0516058)
(0.0221189 0.00769495 -0.048387)
(0.0221823 0.00781944 -0.0444099)
(0.0221759 0.00796528 -0.0395364)
(0.0220499 0.00814216 -0.033615)
(0.0218135 0.00841067 -0.0264788)
(0.0236278 0.00471127 -0.0831836)
(0.0236475 0.00474336 -0.0785503)
(0.0236698 0.0047858 -0.0732354)
(0.023654 0.00483429 -0.067167)
(0.0236017 0.00489516 -0.0602725)
(0.0234868 0.00497287 -0.0524811)
(0.0232733 0.00507544 -0.0437187)
(0.0229712 0.00523662 -0.0338992)
(0.0248401 0.00163221 -0.104099)
(0.0247671 0.00163753 -0.0970467)
(0.0246956 0.00164661 -0.0892531)
(0.0245859 0.00165808 -0.080699)
(0.0244439 0.00167442 -0.0713729)
(0.0242473 0.00169738 -0.0612687)
(0.0239676 0.00173007 -0.0503763)
(0.0236146 0.0017834 -0.038666)
(0.0248384 -0.00163143 -0.104098)
(0.024765 -0.00163573 -0.0970461)
(0.0246937 -0.00164361 -0.0892524)
(0.024584 -0.00165394 -0.0806984)
(0.0244421 -0.00166913 -0.0713723)
(0.0242456 -0.00169095 -0.0612682)
(0.023966 -0.00172253 -0.0503758)
(0.0236133 -0.0017748 -0.0386656)
(0.0236237 -0.00470999 -0.0831823)
(0.0236422 -0.00474111 -0.0785489)
(0.0236651 -0.00478276 -0.073234)
(0.0236491 -0.00483025 -0.0671656)
(0.023597 -0.00489016 -0.0602711)
(0.0234824 -0.00496683 -0.0524798)
(0.0232693 -0.00506833 -0.0437175)
(0.0229678 -0.00522845 -0.033898)
(0.021746 -0.00739855 -0.0562576)
(0.021874 -0.00748263 -0.0541913)
(0.0220112 -0.00758327 -0.0516043)
(0.0221129 -0.00769107 -0.0483854)
(0.0221765 -0.00781482 -0.0444083)
(0.0221704 -0.00795973 -0.0395348)
(0.0220447 -0.0081356 -0.0336135)
(0.0218089 -0.00840306 -0.0264773)
(0.0197203 -0.00974123 -0.0350153)
(0.0199234 -0.00988019 -0.0343482)
(0.0201418 -0.0100399 -0.0333562)
(0.0203322 -0.0102058 -0.0319336)
(0.0204873 -0.0103862 -0.0299497)
(0.0205704 -0.0105847 -0.0272484)
(0.0205143 -0.0108065 -0.0236451)
(0.0203216 -0.0111419 -0.0189265)
(0.0177329 -0.0118534 -0.0215036)
(0.0179776 -0.0120295 -0.0213062)
(0.0182449 -0.0122285 -0.0209287)
(0.0184954 -0.0124303 -0.0202964)
(0.0187201 -0.0126416 -0.01931)
(0.0188815 -0.0128619 -0.0178436)
(0.0188958 -0.0130861 -0.0157375)
(0.0187689 -0.0134304 -0.012799)
(0.0156797 -0.0137299 -0.0134673)
(0.0159502 -0.013923 -0.0133512)
(0.0162505 -0.0141384 -0.0131362)
(0.0165476 -0.0143497 -0.0127798)
(0.0168341 -0.0145583 -0.0122246)
(0.0170742 -0.0147498 -0.0113986)
(0.0171859 -0.014902 -0.0102134)
(0.0170993 -0.0150449 -0.00856456)
(0.00695299 0.00608839 -0.0147012)
(0.00707291 0.00617397 -0.015268)
(0.00720721 0.00627037 -0.0158458)
(0.00734019 0.00636501 -0.0164034)
(0.00746907 0.00645884 -0.0168914)
(0.00757798 0.00654554 -0.0172353)
(0.00763113 0.00661544 -0.0173197)
(0.00759711 0.0066831 -0.0169495)
(0.00786375 0.00525654 -0.0234216)
(0.00797226 0.00533486 -0.0239535)
(0.00809205 0.00542419 -0.0244178)
(0.00820445 0.00551487 -0.0247516)
(0.00830598 0.00561013 -0.0248666)
(0.00837997 0.00570971 -0.024643)
(0.0083902 0.00581179 -0.0239195)
(0.00833785 0.00596698 -0.0224813)
(0.00874536 0.00432006 -0.0381732)
(0.00883579 0.00438225 -0.0382626)
(0.00893429 0.00445432 -0.0381383)
(0.00902047 0.00452924 -0.0377076)
(0.00909165 0.00461102 -0.0368539)
(0.0091315 0.00470114 -0.0354358)
(0.0091111 0.0048022 -0.0332847)
(0.00903054 0.00495319 -0.0302038)
(0.00964117 0.00328039 -0.0614257)
(0.00969904 0.00331851 -0.0600522)
(0.00976213 0.00336444 -0.0582619)
(0.00980967 0.00341369 -0.0559587)
(0.00984097 0.00347026 -0.0530353)
(0.0098419 0.00353641 -0.0493773)
(0.00979113 0.00361663 -0.0448654)
(0.00969169 0.00373697 -0.0393759)
(0.0104685 0.0020875 -0.0909251)
(0.0104786 0.00210224 -0.086794)
(0.010492 0.00212202 -0.0820775)
(0.0104883 0.00214444 -0.0767242)
(0.0104692 0.00217251 -0.0706886)
(0.010423 0.00220811 -0.0639346)
(0.0103341 0.00225489 -0.0564351)
(0.0102063 0.00232739 -0.0481688)
(0.0110016 0.000722976 -0.113846)
(0.0109713 0.000725599 -0.107095)
(0.0109439 0.000730055 -0.0996973)
(0.0108993 0.000735551 -0.0916592)
(0.0108412 0.000743263 -0.0830037)
(0.0107594 0.000753924 -0.073768)
(0.0106418 0.000768947 -0.0639987)
(0.0104919 0.000793033 -0.0537432)
(0.0110008 -0.000722559 -0.113846)
(0.0109702 -0.000724605 -0.107095)
(0.0109429 -0.000728388 -0.0996968)
(0.0108983 -0.000733228 -0.0916587)
(0.0108403 -0.000740265 -0.0830032)
(0.0107585 -0.000750254 -0.0737676)
(0.010641 -0.000764594 -0.0639984)
(0.0104912 -0.000788005 -0.0537429)
(0.0104664 -0.00208682 -0.0909244)
(0.0104758 -0.00210101 -0.0867932)
(0.0104896 -0.00212032 -0.0820765)
(0.0104857 -0.00214216 -0.0767232)
(0.0104668 -0.00216966 -0.0706876)
(0.0104207 -0.00220464 -0.0639337)
(0.010332 -0.00225076 -0.0564343)
(0.0102044 -0.00232259 -0.0481682)
(0.0096385 -0.00327938 -0.0614249)
(0.00969573 -0.00331701 -0.0600513)
(0.00975916 -0.00336272 -0.0582609)
(0.00980653 -0.0034115 -0.0559576)
(0.00983795 -0.0034676 -0.0530343)
(0.00983899 -0.00353318 -0.0493764)
(0.00978838 -0.00361277 -0.0448645)
(0.00968923 -0.00373246 -0.0393751)
(0.00874289 -0.00431882 -0.0381727)
(0.00883287 -0.0043806 -0.038262)
(0.0089316 -0.00445256 -0.0381376)
(0.00901761 -0.00452708 -0.0377068)
(0.00908883 -0.00460846 -0.0368531)
(0.0091287 -0.00469806 -0.0354349)
(0.00910835 -0.00479852 -0.0332838)
(0.00902793 -0.00494886 -0.0302029)
(0.00786152 -0.00525498 -0.0234213)
(0.00796981 -0.00533292 -0.0239531)
(0.00808976 -0.00542211 -0.0244173)
(0.00820203 -0.00551238 -0.024751)
(0.00830357 -0.00560725 -0.0248659)
(0.00837752 -0.00570635 -0.0246423)
(0.00838772 -0.00580787 -0.0239186)
(0.00833537 -0.00596247 -0.0224804)
(0.00695088 -0.00608634 -0.014701)
(0.00707067 -0.00617145 -0.0152677)
(0.00720518 -0.00626765 -0.0158453)
(0.00733809 -0.00636185 -0.0164028)
(0.00746697 -0.00645528 -0.0168907)
(0.0075758 -0.00654152 -0.0172345)
(0.00762884 -0.00661094 -0.0173187)
(0.00759465 -0.00667803 -0.0169484)
(0.00288846 0.00252931 -0.0152714)
(0.0029381 0.00256477 -0.0161538)
(0.00299427 0.00260522 -0.0170981)
(0.00304972 0.00264481 -0.0180783)
(0.00310363 0.00268419 -0.0190486)
(0.00314931 0.00272069 -0.0199335)
(0.00317216 0.00275039 -0.0206055)
(0.00315876 0.00277963 -0.0208274)
(0.00326746 0.00218421 -0.0243068)
(0.00331231 0.00221674 -0.0251759)
(0.00336245 0.00225429 -0.0260292)
(0.00340932 0.0022923 -0.0268097)
(0.00345183 0.00233233 -0.027434)
(0.0034829 0.00237416 -0.0277855)
(0.00348792 0.00241727 -0.0277022)
(0.00346648 0.00248205 -0.0269599)
(0.00363456 0.00179549 -0.0396286)
(0.00367194 0.00182139 -0.0400675)
(0.00371333 0.00185177 -0.0403444)
(0.00374941 0.00188326 -0.0403724)
(0.00377943 0.00191771 -0.0400417)
(0.00379647 0.00195565 -0.0392179)
(0.00378883 0.00199831 -0.0377402)
(0.00375596 0.00206133 -0.03542)
(0.00400663 0.00136331 -0.063803)
(0.00403058 0.00137926 -0.06275)
(0.00405745 0.00139872 -0.0613285)
(0.00407763 0.0014195 -0.0594494)
(0.00409123 0.0014434 -0.0570146)
(0.00409224 0.00147128 -0.0539209)
(0.004072 0.00150508 -0.0500638)
(0.00403123 0.00155527 -0.0453409)
(0.00434933 0.000867341 -0.0944804)
(0.00435362 0.000873591 -0.0905829)
(0.00436009 0.000882112 -0.0861448)
(0.00435921 0.00089169 -0.0811245)
(0.00435211 0.000903659 -0.075489)
(0.00433375 0.000918761 -0.0692184)
(0.00429783 0.000938545 -0.0623079)
(0.00424539 0.000968878 -0.0547666)
(0.00456962 0.000300325 -0.118317)
(0.00455731 0.000301492 -0.111709)
(0.00454705 0.000303484 -0.104497)
(0.0045294 0.000305894 -0.096701)
(0.00450629 0.000309239 -0.08836)
(0.00447333 0.00031381 -0.0795312)
(0.00442556 0.000320204 -0.0702876)
(0.0043641 0.000330324 -0.0607129)
(0.0045692 -0.000300115 -0.118317)
(0.00455677 -0.000300982 -0.111708)
(0.00454658 -0.000302626 -0.104496)
(0.00452891 -0.000304691 -0.0967006)
(0.00450582 -0.000307679 -0.0883596)
(0.00447289 -0.000311887 -0.0795308)
(0.00442516 -0.000317907 -0.0702874)
(0.00436376 -0.000327646 -0.0607128)
(0.00434825 -0.000867 -0.09448)
(0.00435226 -0.000872964 -0.0905824)
(0.00435888 -0.000881233 -0.0861442)
(0.00435795 -0.000890507 -0.0811238)
(0.0043509 -0.000902163 -0.0754882)
(0.0043326 -0.000916927 -0.0692178)
(0.00429677 -0.000936348 -0.0623074)
(0.00424447 -0.000966306 -0.0547663)
(0.00400529 -0.0013628 -0.0638026)
(0.00402894 -0.00137849 -0.0627495)
(0.00405595 -0.00139782 -0.0613279)
(0.00407606 -0.00141835 -0.0594488)
(0.00408972 -0.00144198 -0.057014)
(0.00409078 -0.00146956 -0.0539204)
(0.00407063 -0.00150301 -0.0500635)
(0.00403 -0.00155284 -0.0453407)
(0.0036333 -0.00179484 -0.0396283)
(0.00367045 -0.00182054 -0.0400672)
(0.00371196 -0.00185083 -0.040344)
(0.00374796 -0.0018821 -0.040372)
(0.00377799 -0.00191633 -0.0400413)
(0.00379504 -0.00195398 -0.0392175)
(0.00378744 -0.00199631 -0.0377399)
(0.00375464 -0.00205898 -0.0354198)
(0.00326629 -0.00218338 -0.0243067)
(0.00331103 -0.00221572 -0.0251757)
(0.00336125 -0.00225318 -0.026029)
(0.00340808 -0.00229097 -0.0268094)
(0.00345059 -0.00233078 -0.0274337)
(0.00348164 -0.00237235 -0.0277852)
(0.00348664 -0.00241515 -0.0277019)
(0.00346522 -0.0024796 -0.0269597)
(0.00288734 -0.00252823 -0.0152713)
(0.00293692 -0.00256344 -0.0161537)
(0.00299319 -0.00260377 -0.0170979)
(0.00304862 -0.00264312 -0.018078)
(0.00310253 -0.00268229 -0.0190483)
(0.00314817 -0.00271854 -0.0199332)
(0.00317097 -0.00274797 -0.0206052)
(0.00315749 -0.00277689 -0.0208271)
(0.0010682 0.000935427 -0.0155124)
(0.00108648 0.000948565 -0.0165284)
(0.00110741 0.000963763 -0.0176275)
(0.001128 0.000978604 -0.0187862)
(0.00114806 0.000993416 -0.0199604)
(0.00116507 0.00100719 -0.0210738)
(0.00117376 0.00101851 -0.0219939)
(0.00116898 0.0010298 -0.0224659)
(0.00120862 0.000807982 -0.024681)
(0.00122511 0.000820074 -0.0256925)
(0.00124381 0.000834208 -0.0267103)
(0.00126122 0.000848478 -0.0276794)
(0.00127705 0.000863538 -0.0285189)
(0.00128861 0.000879263 -0.0291133)
(0.00129067 0.000895541 -0.0293004)
(0.00128266 0.000919598 -0.0288522)
(0.00134472 0.000664346 -0.040243)
(0.00135847 0.000674003 -0.0408298)
(0.00137398 0.00068547 -0.0412762)
(0.00138744 0.000697329 -0.0414981)
(0.00139869 0.000710319 -0.0413884)
(0.00140512 0.000724605 -0.0408157)
(0.00140252 0.000740697 -0.0396226)
(0.00139036 0.000764118 -0.0376239)
(0.00148225 0.000504398 -0.0648052)
(0.00149108 0.000510377 -0.0638878)
(0.0015013 0.000517775 -0.0626224)
(0.00150895 0.000525643 -0.0609228)
(0.00151419 0.000534683 -0.0586947)
(0.00151474 0.000545196 -0.0558396)
(0.00150746 0.000557919 -0.0522596)
(0.00149234 0.000576563 -0.0478609)
(0.00160851 0.000320802 -0.0959768)
(0.00161015 0.000323192 -0.0921786)
(0.00161294 0.000326499 -0.0878589)
(0.0016129 0.000330184 -0.0829799)
(0.00161058 0.000334765 -0.0775141)
(0.00160405 0.000340504 -0.0714486)
(0.00159102 0.000347984 -0.0647876)
(0.00157163 0.000359298 -0.0575535)
(0.00168942 0.000111053 -0.120197)
(0.00168501 0.000111531 -0.11365)
(0.00168171 0.000112343 -0.106518)
(0.00167555 0.000113304 -0.0988254)
(0.00166739 0.000114615 -0.0906185)
(0.00165554 0.00011638 -0.0819627)
(0.00163817 0.000118821 -0.0729425)
(0.0016155 0.000122621 -0.0636565)
(0.00168921 -0.000110949 -0.120197)
(0.00168475 -0.000111276 -0.11365)
(0.00168148 -0.000111914 -0.106517)
(0.00167531 -0.0001127 -0.0988251)
(0.00166717 -0.000113829 -0.0906182)
(0.00165533 -0.000115406 -0.0819625)
(0.00163798 -0.000117651 -0.0729423)
(0.00161533 -0.000121248 -0.0636564)
(0.00160798 -0.000320633 -0.0959767)
(0.0016095 -0.00032288 -0.0921784)
(0.00161235 -0.000326057 -0.0878585)
(0.00161229 -0.000329587 -0.0829793)
(0.00160999 -0.000334007 -0.0775136)
(0.00160349 -0.00033957 -0.0714481)
(0.0015905 -0.000346859 -0.0647874)
(0.00157118 -0.000357974 -0.0575534)
(0.00148159 -0.000504141 -0.0648051)
(0.00149028 -0.000509993 -0.0638876)
(0.00150057 -0.000517315 -0.062622)
(0.00150818 -0.000525053 -0.0609224)
(0.00151345 -0.000533959 -0.0586943)
(0.00151402 -0.000544311 -0.0558393)
(0.00150679 -0.000556852 -0.0522595)
(0.00149174 -0.000575303 -0.047861)
(0.00134408 -0.000664018 -0.040243)
(0.00135773 -0.000673567 -0.0408296)
(0.00137329 -0.000684986 -0.041276)
(0.00138672 -0.000696732 -0.0414979)
(0.00139798 -0.000709603 -0.0413883)
(0.00140441 -0.000723739 -0.0408157)
(0.00140182 -0.000739656 -0.0396226)
(0.00138971 -0.000762891 -0.0376241)
(0.00120802 -0.000807562 -0.0246809)
(0.00122447 -0.00081955 -0.0256924)
(0.00124321 -0.000833632 -0.0267102)
(0.0012606 -0.000847791 -0.0276793)
(0.00127642 -0.000862738 -0.0285188)
(0.00128797 -0.000878323 -0.0291133)
(0.00129003 -0.00089444 -0.0293005)
(0.00128203 -0.000918327 -0.0288523)
(0.00106763 -0.00093487 -0.0155124)
(0.00108588 -0.000947885 -0.0165283)
(0.00110685 -0.000963019 -0.0176275)
(0.00112744 -0.000977739 -0.0187861)
(0.00114749 -0.000992437 -0.0199603)
(0.00116449 -0.00100607 -0.0210737)
(0.00117316 -0.00101725 -0.0219939)
(0.00116834 -0.00102838 -0.0224659)
(0.000211403 0.000185165 -0.015596)
(0.000215092 0.00018791 -0.0166583)
(0.000219382 0.000191144 -0.0178113)
(0.000223649 0.000194359 -0.019032)
(0.000227811 0.000197584 -0.020277)
(0.000231401 0.000200647 -0.0214698)
(0.000233439 0.000203289 -0.0224762)
(0.000232821 0.000206064 -0.0230351)
(0.000239468 0.000160141 -0.0248104)
(0.000242802 0.000162696 -0.0258713)
(0.000246655 0.000165732 -0.0269462)
(0.000250291 0.000168845 -0.0279809)
(0.000253598 0.000172128 -0.0288951)
(0.000256065 0.000175565 -0.029574)
(0.000256749 0.000179176 -0.0298551)
(0.000255229 0.000184148 -0.0295093)
(0.000266747 0.000131833 -0.0404548)
(0.000269574 0.000133909 -0.0410928)