/*--------------------------------*- C++ -*----------------------------------*\
| =========                 |                                                 |
| \\      /  F ield         | OpenFOAM: The Open Source CFD Toolbox           |
|  \\    /   O peration     | Version:  2.2.0                                 |
|   \\  /    A nd           | Web:      www.OpenFOAM.org                      |
|    \\/     M anipulation  |                                                 |
\*---------------------------------------------------------------------------*/
FoamFile
{
    version     2.0;
    format      ascii;
    class       volScalarField;
    location    "6";
    object      Theta;
}
// * * * * * * * * * * * * * * * * * * * * * * * * * * * * * * * * * * * * * //

dimensions      [0 2 -2 0 0 0 0];

internalField   nonuniform List<scalar> 
7920
(
3.00908
2.84542
3.17354
3.2786
3.48604
3.72814
3.78704
4.63036
2.99365
2.80135
3.11794
3.19799
3.38452
3.5577
3.67638
4.03746
2.97363
2.75365
3.06557
3.12928
3.30397
3.44852
3.59314
3.78898
2.95003
2.69713
3.0041
3.04953
3.2078
3.32803
3.46159
3.56794
2.92739
2.64702
2.9543
2.98877
3.13892
3.24944
3.37675
3.45383
2.91298
2.61523
2.92395
2.95255
3.0987
3.20467
3.32742
3.3926
2.91405
2.61533
2.92436
2.95282
3.09896
3.20487
3.32759
3.39271
2.93024
2.64725
2.95538
2.98948
3.13961
3.25
3.3772
3.45415
2.95399
2.69742
3.00561
3.05052
3.20876
3.32881
3.4622
3.56842
2.97783
2.7539
3.06717
3.13031
3.30499
3.44938
3.5938
3.78962
2.99751
2.80154
3.11937
3.19887
3.38537
3.55841
3.67682
4.03806
3.01112
2.84563
3.17435
3.27911
3.4865
3.72856
3.78728
4.63099
2.38263
2.34599
2.43249
2.46707
2.5306
2.60395
2.65083
2.86393
2.38407
2.34658
2.42695
2.45553
2.51269
2.56504
2.63295
2.6891
2.38561
2.34974
2.42285
2.4463
2.49599
2.53633
2.59729
2.61038
2.38975
2.35763
2.423
2.4424
2.48554
2.51839
2.57177
2.56847
2.39543
2.3686
2.4264
2.44281
2.48058
2.50848
2.55397
2.54524
2.39905
2.37696
2.42938
2.44423
2.47887
2.50434
2.54536
2.53634
2.39702
2.37696
2.42865
2.44383
2.47846
2.50402
2.54509
2.53618
2.39034
2.36863
2.42455
2.44178
2.47953
2.50764
2.55326
2.54476
2.38349
2.35769
2.42069
2.44111
2.48419
2.51729
2.57083
2.56775
2.37987
2.34986
2.42069
2.44508
2.49469
2.53521
2.59633
2.60942
2.3794
2.3467
2.42517
2.45453
2.51161
2.56409
2.63223
2.68819
2.37968
2.34606
2.43132
2.46637
2.52983
2.60323
2.65027
2.86305
2.18608
2.18229
2.21381
2.23225
2.2615
2.29238
2.33067
2.37722
2.18936
2.18298
2.21175
2.22647
2.25159
2.27347
2.31514
2.30415
2.1937
2.18522
2.21084
2.22198
2.24236
2.2587
2.29024
2.27457
2.20053
2.19085
2.21374
2.22229
2.23945
2.25304
2.27924
2.26768
2.20876
2.19816
2.21846
2.22474
2.23915
2.25043
2.27177
2.26329
2.21484
2.20364
2.22227
2.22718
2.24002
2.25013
2.26901
2.26306
2.21497
2.20363
2.22233
2.22721
2.24005
2.25015
2.26903
2.26308
2.209
2.19814
2.21856
2.22479
2.23921
2.25047
2.27181
2.26333
2.20059
2.19085
2.2138
2.22232
2.2395
2.25308
2.27928
2.26772
2.19348
2.18524
2.21082
2.22197
2.24237
2.25872
2.29027
2.27456
2.18903
2.18301
2.21168
2.22646
2.25159
2.27348
2.31521
2.30412
2.18606
2.18229
2.21385
2.23227
2.26153
2.2924
2.33075
2.37714
2.09737
2.09661
2.10977
2.1184
2.13168
2.14515
2.16722
2.17704
2.0993
2.0972
2.10916
2.11603
2.12721
2.13676
2.15856
2.14513
2.10187
2.09862
2.10926
2.11443
2.12333
2.1305
2.14608
2.13436
2.10583
2.10188
2.11157
2.11567
2.1233
2.12958
2.14243
2.13555
2.11057
2.10588
2.11469
2.1178
2.1243
2.1297
2.1402
2.13616
2.11413
2.10881
2.1171
2.11957
2.12545
2.13041
2.13979
2.13755
2.11444
2.10877
2.1172
2.11961
2.12549
2.13044
2.13981
2.13756
2.11127
2.10579
2.11492
2.11788
2.12439
2.12977
2.14025
2.13618
2.10655
2.10176
2.11181
2.11575
2.1234
2.12965
2.14248
2.13558
2.10234
2.0985
2.10942
2.11447
2.1234
2.13055
2.14613
2.13438
2.09954
2.0971
2.10925
2.11603
2.12725
2.13679
2.15859
2.14513
2.09764
2.09652
2.10988
2.11843
2.13173
2.14519
2.16727
2.17705
2.04899
2.04745
2.05348
2.05705
2.06277
2.06837
2.07876
2.08026
2.04998
2.04773
2.0532
2.05589
2.06056
2.06435
2.07408
2.06556
2.05128
2.04844
2.05331
2.0552
2.05879
2.06152
2.06812
2.06118
2.05327
2.05004
2.05452
2.05592
2.05894
2.0613
2.06658
2.06242
2.05564
2.05198
2.05611
2.05705
2.05958
2.06156
2.06576
2.06318
2.05743
2.05339
2.05734
2.05798
2.06023
2.06201
2.06571
2.06407
2.05762
2.05337
2.0574
2.058
2.06026
2.06203
2.06573
2.06407
2.05608
2.05193
2.05626
2.05711
2.05965
2.06161
2.06581
2.0632
2.05374
2.04996
2.05468
2.05598
2.05902
2.06135
2.06664
2.06244
2.05161
2.04836
2.05343
2.05524
2.05885
2.06157
2.06817
2.06121
2.05017
2.04765
2.05327
2.05591
2.06059
2.06438
2.07411
2.06559
2.04918
2.04738
2.05356
2.05707
2.06282
2.06842
2.0788
2.08031
2.02352
2.02253
2.02547
2.02714
2.02984
2.03249
2.03745
2.03794
2.02399
2.02267
2.02535
2.02661
2.02881
2.03065
2.03516
2.03131
2.02462
2.02303
2.02544
2.02634
2.02806
2.02942
2.03251
2.0295
2.02556
2.02379
2.02603
2.02671
2.02818
2.02938
2.03188
2.03019
2.02668
2.0247
2.0268
2.02728
2.02853
2.02956
2.03159
2.03064
2.02753
2.02537
2.02739
2.02772
2.02885
2.0298
2.03161
2.03109
2.02763
2.02536
2.02742
2.02774
2.02887
2.02981
2.03162
2.03109
2.02692
2.02468
2.02688
2.02731
2.02856
2.02959
2.03161
2.03065
2.02581
2.02375
2.02612
2.02675
2.02822
2.02941
2.03191
2.0302
2.02479
2.02298
2.0255
2.02636
2.02809
2.02945
2.03254
2.02952
2.0241
2.02263
2.02539
2.02662
2.02883
2.03067
2.03518
2.03132
2.02362
2.0225
2.02551
2.02715
2.02986
2.03252
2.03748
2.03797
2.01063
2.00998
2.01132
2.01201
2.01317
2.01431
2.01643
2.01659
2.01085
2.01004
2.01127
2.01178
2.01272
2.01351
2.01538
2.01374
2.01113
2.0102
2.01132
2.01168
2.01241
2.01299
2.01427
2.013
2.01155
2.01054
2.01159
2.01185
2.01247
2.01298
2.01401
2.01329
2.01205
2.01094
2.01193
2.0121
2.01263
2.01307
2.0139
2.0135
2.01244
2.01124
2.01219
2.0123
2.01278
2.01317
2.01392
2.01369
2.01248
2.01123
2.01221
2.01231
2.01279
2.01318
2.01392
2.01369
2.01217
2.01094
2.01197
2.01212
2.01265
2.01308
2.01391
2.0135
2.01168
2.01052
2.01163
2.01187
2.01249
2.01299
2.01402
2.0133
2.01122
2.01018
2.01135
2.01169
2.01242
2.01301
2.01429
2.01301
2.0109
2.01002
2.01129
2.01179
2.01273
2.01352
2.0154
2.01375
2.01068
2.00996
2.01134
2.01202
2.01318
2.01432
2.01645
2.01661
2.0045
2.00415
2.00474
2.00502
2.00551
2.00599
2.00686
2.00695
2.0046
2.00418
2.00472
2.00493
2.00532
2.00566
2.00642
2.00581
2.00471
2.00425
2.00475
2.0049
2.00521
2.00546
2.00599
2.00552
2.00489
2.00439
2.00486
2.00497
2.00523
2.00546
2.00588
2.00564
2.0051
2.00456
2.005
2.00508
2.00531
2.0055
2.00585
2.00572
2.00526
2.00468
2.00511
2.00516
2.00537
2.00555
2.00586
2.0058
2.00529
2.00468
2.00512
2.00517
2.00537
2.00555
2.00586
2.0058
2.00516
2.00455
2.00502
2.00509
2.00531
2.00551
2.00585
2.00572
2.00495
2.00438
2.00488
2.00498
2.00525
2.00547
2.00589
2.00564
2.00476
2.00424
2.00476
2.0049
2.00521
2.00547
2.00599
2.00553
2.00462
2.00417
2.00473
2.00494
2.00533
2.00567
2.00642
2.00581
2.00453
2.00414
2.00475
2.00503
2.00551
2.00599
2.00687
2.00696
2.0017
2.00154
2.00177
2.00187
2.00205
2.00223
2.00255
2.00259
2.00174
2.00155
2.00176
2.00184
2.00199
2.00212
2.00239
2.00219
2.00179
2.00158
2.00178
2.00183
2.00195
2.00205
2.00224
2.00209
2.00185
2.00163
2.00182
2.00186
2.00196
2.00205
2.0022
2.00213
2.00193
2.0017
2.00187
2.0019
2.00199
2.00207
2.00219
2.00216
2.00199
2.00174
2.00191
2.00193
2.00201
2.00208
2.0022
2.00219
2.002
2.00174
2.00192
2.00194
2.00201
2.00208
2.0022
2.00219
2.00196
2.00169
2.00188
2.00191
2.00199
2.00207
2.0022
2.00216
2.00188
2.00163
2.00183
2.00187
2.00197
2.00205
2.00221
2.00213
2.00181
2.00158
2.00178
2.00184
2.00195
2.00205
2.00224
2.0021
2.00175
2.00155
2.00177
2.00184
2.00199
2.00212
2.00239
2.00219
2.00172
2.00154
2.00177
2.00188
2.00206
2.00224
2.00255
2.0026
2.00035
2.00032
2.00036
2.00038
2.00041
2.00044
2.0005
2.00051
2.00036
2.00032
2.00036
2.00037
2.0004
2.00043
2.00047
2.00045
2.00037
2.00033
2.00036
2.00037
2.0004
2.00042
2.00045
2.00043
2.00038
2.00034
2.00037
2.00038
2.0004
2.00042
2.00044
2.00044
2.0004
2.00035
2.00038
2.00039
2.00041
2.00042
2.00044
2.00045
2.00041
2.00036
2.00039
2.0004
2.00041
2.00043
2.00045
2.00045
2.00042
2.00036
2.00039
2.0004
2.00041
2.00043
2.00045
2.00045
2.00041
2.00035
2.00039
2.00039
2.00041
2.00042
2.00045
2.00045
2.0004
2.00034
2.00037
2.00038
2.0004
2.00042
2.00045
2.00044
2.00038
2.00032
2.00036
2.00038
2.0004
2.00042
2.00045
2.00044
2.00037
2.00032
2.00036
2.00037
2.0004
2.00043
2.00047
2.00045
2.00036
2.00031
2.00036
2.00038
2.00041
2.00044
2.0005
2.00051
1.99929
1.99943
1.9993
1.99928
1.99921
1.99915
1.99902
1.99902
1.99927
1.99943
1.9993
1.9993
1.99924
1.99921
1.99909
1.99923
1.99925
1.99942
1.9993
1.99931
1.99927
1.99925
1.99917
1.9993
1.99922
1.9994
1.99929
1.9993
1.99927
1.99926
1.9992
1.99928
1.99919
1.99938
1.99927
1.99929
1.99926
1.99925
1.99921
1.99927
1.99917
1.99936
1.99925
1.99928
1.99926
1.99925
1.99922
1.99926
1.99918
1.99936
1.99925
1.99928
1.99926
1.99925
1.99922
1.99926
1.99921
1.99938
1.99927
1.99929
1.99927
1.99926
1.99921
1.99927
1.99924
1.9994
1.99929
1.99931
1.99927
1.99926
1.9992
1.99928
1.99927
1.99942
1.99931
1.99931
1.99927
1.99925
1.99918
1.9993
1.99928
1.99942
1.9993
1.9993
1.99924
1.99921
1.99909
1.99924
1.9993
1.99942
1.9993
1.99928
1.99921
1.99915
1.99902
1.99902
1.99716
1.99756
1.99695
1.99679
1.99637
1.99599
1.99531
1.99508
1.9971
1.99755
1.99697
1.99686
1.9965
1.99621
1.99558
1.99591
1.99702
1.99752
1.99695
1.9969
1.99659
1.99636
1.99589
1.99615
1.99689
1.99744
1.99688
1.99686
1.99658
1.99637
1.99598
1.99609
1.99676
1.99733
1.9968
1.9968
1.99655
1.99636
1.99602
1.99605
1.99668
1.99726
1.99674
1.99675
1.99651
1.99634
1.99602
1.996
1.9967
1.99725
1.99674
1.99675
1.99652
1.99634
1.99603
1.996
1.99681
1.99733
1.99681
1.9968
1.99655
1.99636
1.99602
1.99605
1.99694
1.99743
1.9969
1.99686
1.99659
1.99638
1.99598
1.99609
1.99705
1.99751
1.99697
1.9969
1.9966
1.99637
1.9959
1.99615
1.99712
1.99754
1.99697
1.99686
1.9965
1.99622
1.99558
1.99592
1.99718
1.99755
1.99696
1.99679
1.99637
1.99599
1.99531
1.99508
1.99074
1.9939
1.99146
1.99173
1.99074
1.99013
1.98874
1.98853
1.99056
1.99387
1.9915
1.99192
1.99109
1.99076
1.98941
1.99099
1.99029
1.99378
1.99147
1.99202
1.99137
1.99121
1.99035
1.99176
1.9899
1.99354
1.99126
1.99191
1.99135
1.99126
1.99062
1.99162
1.98949
1.99324
1.99101
1.99174
1.99126
1.99123
1.99076
1.99152
1.98923
1.99302
1.99083
1.9916
1.99117
1.99117
1.99079
1.99139
1.98929
1.99302
1.99085
1.99161
1.99118
1.99117
1.99079
1.9914
1.98963
1.99323
1.99106
1.99176
1.99128
1.99125
1.99078
1.99153
1.99005
1.99352
1.99132
1.99194
1.99138
1.99128
1.99063
1.99163
1.9904
1.99376
1.99151
1.99204
1.99139
1.99123
1.99037
1.99178
1.99063
1.99385
1.99153
1.99192
1.99111
1.99078
1.98943
1.991
1.9908
1.99389
1.99149
1.99174
1.99076
1.99015
1.98875
1.98854
1.96146
1.97505
1.9591
1.95869
1.95035
1.94393
1.93438
1.92612
1.96095
1.97482
1.95929
1.95939
1.95171
1.94647
1.93688
1.9367
1.9602
1.97431
1.95924
1.95983
1.95284
1.94834
1.94047
1.94056
1.95908
1.97324
1.95855
1.95946
1.95291
1.94873
1.94173
1.94081
1.95781
1.97194
1.95765
1.95883
1.95266
1.94875
1.94252
1.94089
1.95692
1.97098
1.95697
1.95831
1.95235
1.94858
1.94272
1.9406
1.95695
1.97098
1.95698
1.95832
1.95236
1.94859
1.94273
1.9406
1.95788
1.97193
1.95768
1.95884
1.95267
1.94876
1.94253
1.94089
1.95916
1.97323
1.95858
1.95947
1.95293
1.94874
1.94175
1.94082
1.96025
1.9743
1.95926
1.95983
1.95286
1.94835
1.94048
1.94057
1.96097
1.97481
1.95931
1.95939
1.95172
1.94647
1.93689
1.9367
1.96149
1.97504
1.95911
1.9587
1.95036
1.94394
1.93439
1.92613
1.7174
2.00808
1.85739
1.91262
1.88696
1.88835
1.87701
1.87235
1.71703
2.008
1.85788
1.91353
1.88898
1.89075
1.8813
1.88315
1.71654
2.00771
1.85815
1.91424
1.89052
1.89274
1.88523
1.88757
1.71578
2.00694
1.85789
1.91427
1.89111
1.89356
1.88736
1.88867
1.71483
2.00596
1.85737
1.91401
1.89127
1.89395
1.88862
1.88915
1.71408
2.00522
1.8569
1.9137
1.89119
1.89398
1.88909
1.88912
1.71398
2.00523
1.85686
1.91368
1.89117
1.89397
1.88908
1.88912
1.71458
2.00597
1.85728
1.91397
1.89123
1.89391
1.88859
1.88913
1.71552
2.00696
1.85779
1.91423
1.89106
1.89352
1.88732
1.88864
1.71636
2.00774
1.85808
1.91421
1.89048
1.89271
1.8852
1.88754
1.71692
2.00803
1.85783
1.91352
1.88895
1.89072
1.88127
1.88313
1.7173
2.00811
1.85735
1.9126
1.88693
1.88832
1.87698
1.87234
3.0308
2.90078
3.2315
3.35311
3.57351
3.82899
3.90262
4.74973
3.02345
2.87475
3.19315
3.29313
3.49492
3.68196
3.82562
4.17146
3.0151
2.85094
3.1613
3.2468
3.43512
3.59061
3.75221
3.92492
3.00717
2.82636
3.12755
3.19759
3.36846
3.49878
3.64357
3.7309
3.0014
2.80953
3.10558
3.16647
3.32703
3.44569
3.57693
3.6381
2.99818
2.79938
3.09261
3.14814
3.30267
3.415
3.53685
3.58827
2.99768
2.79652
3.08966
3.14408
3.29773
3.40898
3.53004
3.57951
2.99977
2.80067
3.09638
3.1538
3.31155
3.42666
3.55533
3.60942
3.00409
2.81098
3.11156
3.17567
3.34183
3.46606
3.60744
3.68092
3.00967
2.82747
3.13626
3.2124
3.39289
3.53737
3.69295
3.83343
3.01469
2.84315
3.16005
3.24874
3.44219
3.61648
3.76278
4.05938
3.01603
2.85638
3.18295
3.28767
3.49389
3.72632
3.79582
4.54668
2.36274
2.31539
2.40636
2.43904
2.50244
2.57741
2.6177
2.85673
2.35781
2.30654
2.39336
2.41997
2.47707
2.53227
2.58665
2.68153
2.35075
2.29809
2.38203
2.40535
2.45872
2.50562
2.56245
2.61416
2.34402
2.28982
2.37083
2.39088
2.4401
2.4803
2.53445
2.55871
2.33902
2.28422
2.36329
2.3814
2.42802
2.46449
2.51601
2.52614
2.33674
2.28193
2.35987
2.37703
2.42228
2.45694
2.50669
2.51068
2.33755
2.28354
2.36128
2.37866
2.42399
2.45888
2.50845
2.51353
2.34153
2.28926
2.36774
2.38664
2.43364
2.47104
2.52217
2.53672
2.34843
2.29856
2.37847
2.39982
2.44952
2.49128
2.54364
2.57705
2.35761
2.31166
2.39446
2.42035
2.47525
2.52644
2.58154
2.65723
2.36779
2.32437
2.4087
2.4374
2.49432
2.55324
2.59577
2.72672
2.3774
2.34107
2.43038
2.46775
2.53398
2.61922
2.65254
2.96103
2.16546
2.16185
2.19426
2.21366
2.24374
2.27771
2.31197
2.3845
2.1631
2.15692
2.18691
2.20284
2.22867
2.2542
2.28679
2.30946
2.15969
2.15256
2.181
2.19522
2.2189
2.24165
2.27161
2.28818
2.15651
2.14866
2.17566
2.1884
2.21022
2.23064
2.25859
2.27016
2.15429
2.14618
2.17222
2.18408
2.20475
2.22375
2.2504
2.25868
2.15355
2.14545
2.17095
2.18239
2.20248
2.22079
2.2467
2.25354
2.15457
2.14675
2.17217
2.18369
2.2038
2.22223
2.24788
2.25582
2.15743
2.15017
2.17605
2.18819
2.20901
2.22856
2.25449
2.26706
2.16202
2.15546
2.18217
2.19532
2.21727
2.23861
2.26447
2.28482
2.16799
2.16277
2.19119
2.20642
2.23087
2.25636
2.28386
2.32136
2.17468
2.16981
2.19917
2.21528
2.24039
2.26778
2.28981
2.34252
2.18148
2.17981
2.21277
2.23379
2.26533
2.3055
2.33401
2.45838
2.08403
2.08349
2.09631
2.105
2.11808
2.13259
2.15191
2.17578
2.08292
2.08116
2.09279
2.09981
2.11068
2.12143
2.13792
2.14215
2.08133
2.07922
2.09015
2.09643
2.10629
2.11605
2.13031
2.13508
2.07994
2.07766
2.08803
2.09378
2.10294
2.11196
2.12513
2.12969
2.07908
2.07681
2.08682
2.09228
2.10106
2.10963
2.12221
2.12628
2.07897
2.07681
2.08664
2.09201
2.10064
2.10905
2.12136
2.12535
2.07974
2.07776
2.08762
2.09308
2.10179
2.11035
2.12257
2.1274
2.08145
2.0797
2.08981
2.09559
2.10464
2.11375
2.1261
2.13321
2.08402
2.08253
2.09307
2.09929
2.10887
2.11878
2.13111
2.14162
2.08731
2.08631
2.09769
2.10484
2.11558
2.12731
2.14066
2.15832
2.09097
2.08999
2.10187
2.10937
2.12043
2.1327
2.14403
2.16609
2.09475
2.09528
2.10915
2.1192
2.13381
2.15227
2.16959
2.22269
2.04149
2.0403
2.04604
2.04965
2.05526
2.06131
2.07043
2.0786
2.04099
2.03921
2.04437
2.04717
2.05169
2.05602
2.06338
2.06314
2.04027
2.03832
2.04315
2.0456
2.04963
2.05352
2.05962
2.06029
2.03969
2.03766
2.04225
2.04446
2.04819
2.0518
2.05732
2.05839
2.03938
2.03735
2.0418
2.04389
2.04745
2.0509
2.05612
2.05725
2.03944
2.03746
2.04185
2.04391
2.04742
2.05081
2.05592
2.05718
2.03993
2.03801
2.04243
2.04454
2.0481
2.05158
2.05665
2.05838
2.04086
2.03903
2.04358
2.04583
2.04955
2.05328
2.05841
2.06119
2.0422
2.04046
2.04522
2.04767
2.05165
2.05573
2.06089
2.06512
2.04387
2.04233
2.04749
2.05036
2.05486
2.05974
2.06545
2.07266
2.04573
2.04418
2.04959
2.05263
2.05732
2.0624
2.0674
2.07603
2.04765
2.04678
2.05316
2.05741
2.06383
2.07179
2.08016
2.10252
2.01966
2.01892
2.02165
2.02332
2.02594
2.02875
2.03313
2.03651
2.01945
2.01843
2.02091
2.02221
2.02432
2.02636
2.02986
2.02961
2.01914
2.01804
2.02037
2.02151
2.02339
2.02524
2.02812
2.02841
2.01889
2.01777
2.01999
2.02103
2.02279
2.02452
2.02714
2.02771
2.01878
2.01766
2.01983
2.02082
2.02252
2.02418
2.02667
2.02733
2.01885
2.01775
2.0199
2.02088
2.02256
2.02422
2.02665
2.02741
2.01912
2.01804
2.02021
2.02122
2.02293
2.02463
2.02705
2.02804
2.01958
2.01854
2.02077
2.02185
2.02363
2.02545
2.02791
2.02937
2.02024
2.01923
2.02157
2.02273
2.02463
2.02661
2.0291
2.03119
2.02105
2.02011
2.02263
2.02398
2.02612
2.02844
2.0312
2.03454
2.02195
2.02099
2.02364
2.02508
2.02732
2.02973
2.03225
2.03612
2.02287
2.0222
2.02529
2.02728
2.03031
2.034
2.03817
2.04804
2.00881
2.0083
2.00953
2.01022
2.01134
2.01253
2.01442
2.01575
2.00872
2.0081
2.00921
2.00975
2.01064
2.01151
2.01299
2.01282
2.00859
2.00793
2.00898
2.00944
2.01024
2.01102
2.01223
2.0123
2.00849
2.00782
2.00883
2.00925
2.00999
2.01072
2.01182
2.01203
2.00845
2.00778
2.00877
2.00917
2.00988
2.01059
2.01162
2.01189
2.00849
2.00783
2.00881
2.00921
2.00992
2.01062
2.01164
2.01195
2.00862
2.00797
2.00896
2.00937
2.01009
2.01081
2.01183
2.01225
2.00884
2.0082
2.00922
2.00965
2.01041
2.01118
2.01222
2.01284
2.00914
2.00851
2.00958
2.01005
2.01087
2.01171
2.01277
2.01364
2.00951
2.0089
2.01005
2.0106
2.01152
2.0125
2.01368
2.01507
2.00992
2.0093
2.01051
2.01111
2.01207
2.0131
2.01421
2.0158
2.01034
2.00982
2.01123
2.01206
2.01336
2.01493
2.01677
2.02087
2.00371
2.00343
2.00397
2.00425
2.00471
2.00521
2.00599
2.00653
2.00367
2.00335
2.00384
2.00406
2.00444
2.0048
2.00541
2.00537
2.00362
2.00329
2.00375
2.00394
2.00428
2.00461
2.00511
2.00516
2.00358
2.00325
2.00369
2.00386
2.00418
2.00449
2.00495
2.00506
2.00357
2.00323
2.00367
2.00384
2.00414
2.00444
2.00487
2.00501
2.00359
2.00326
2.00369
2.00386
2.00416
2.00446
2.00488
2.00504
2.00365
2.00331
2.00375
2.00392
2.00423
2.00454
2.00497
2.00517
2.00374
2.00341
2.00386
2.00405
2.00437
2.0047
2.00513
2.00541
2.00387
2.00354
2.00401
2.00421
2.00456
2.00492
2.00536
2.00574
2.00403
2.0037
2.00421
2.00444
2.00482
2.00524
2.00574
2.00631
2.0042
2.00387
2.0044
2.00465
2.00506
2.0055
2.00598
2.00663
2.00438
2.00408
2.0047
2.00503
2.00558
2.00622
2.007
2.00863
2.0014
2.00127
2.00148
2.00158
2.00175
2.00193
2.00222
2.00241
2.00139
2.00124
2.00143
2.00151
2.00165
2.00179
2.00201
2.00201
2.00137
2.00122
2.0014
2.00147
2.0016
2.00172
2.00191
2.00194
2.00136
2.00121
2.00138
2.00144
2.00156
2.00168
2.00185
2.0019
2.00135
2.0012
2.00137
2.00144
2.00155
2.00166
2.00183
2.00189
2.00136
2.00121
2.00138
2.00144
2.00156
2.00167
2.00183
2.0019
2.00138
2.00123
2.00141
2.00147
2.00159
2.0017
2.00186
2.00195
2.00142
2.00127
2.00145
2.00151
2.00164
2.00176
2.00192
2.00203
2.00147
2.00132
2.0015
2.00158
2.00171
2.00184
2.00201
2.00215
2.00152
2.00138
2.00157
2.00166
2.0018
2.00196
2.00214
2.00235
2.00159
2.00144
2.00165
2.00174
2.00189
2.00206
2.00224
2.00248
2.00166
2.00152
2.00175
2.00187
2.00207
2.00231
2.0026
2.00317
2.00029
2.00026
2.00029
2.00032
2.00035
2.00038
2.00043
2.00046
2.00029
2.00026
2.00029
2.00031
2.00033
2.00036
2.0004
2.0004
2.00029
2.00025
2.00028
2.0003
2.00032
2.00035
2.00038
2.00039
2.00028
2.00025
2.00028
2.00029
2.00032
2.00034
2.00037
2.00039
2.00028
2.00025
2.00028
2.00029
2.00031
2.00034
2.00037
2.00038
2.00028
2.00025
2.00028
2.0003
2.00032
2.00034
2.00037
2.00039
2.00029
2.00026
2.00029
2.0003
2.00032
2.00035
2.00038
2.0004
2.00029
2.00026
2.00029
2.00031
2.00033
2.00036
2.00039
2.00041
2.0003
2.00027
2.0003
2.00032
2.00035
2.00037
2.0004
2.00043
2.00031
2.00028
2.00032
2.00034
2.00036
2.00039
2.00043
2.00046
2.00033
2.0003
2.00033
2.00035
2.00038
2.00041
2.00045
2.00049
2.00034
2.00031
2.00035
2.00037
2.00041
2.00045
2.00051
2.00059
1.99941
1.99952
1.99941
1.99939
1.99932
1.99926
1.99914
1.99906
1.99942
1.99954
1.99943
1.99943
1.99937
1.99933
1.99924
1.99928
1.99943
1.99955
1.99945
1.99945
1.9994
1.99937
1.9993
1.99932
1.99944
1.99956
1.99946
1.99946
1.99942
1.99939
1.99933
1.99935
1.99944
1.99956
1.99947
1.99947
1.99943
1.9994
1.99935
1.99936
1.99944
1.99956
1.99946
1.99947
1.99943
1.9994
1.99935
1.99936
1.99943
1.99955
1.99945
1.99946
1.99942
1.99939
1.99934
1.99934
1.99941
1.99954
1.99944
1.99944
1.9994
1.99936
1.99931
1.9993
1.99938
1.99952
1.99941
1.99941
1.99937
1.99933
1.99928
1.99924
1.99936
1.99949
1.99938
1.99937
1.99932
1.99927
1.99921
1.99914
1.99933
1.99947
1.99935
1.99934
1.99928
1.99923
1.99918
1.99909
1.9993
1.99943
1.9993
1.99927
1.99919
1.9991
1.999
1.99871
1.99764
1.99794
1.99739
1.99722
1.99681
1.99641
1.9958
1.99525
1.99768
1.998
1.99748
1.99736
1.99701
1.9967
1.9962
1.99611
1.99772
1.99805
1.99755
1.99744
1.99712
1.99684
1.9964
1.99627
1.99775
1.99808
1.99759
1.9975
1.9972
1.99693
1.99652
1.99636
1.99775
1.99809
1.99761
1.99753
1.99723
1.99697
1.99658
1.99641
1.99774
1.99809
1.9976
1.99752
1.99723
1.99696
1.99658
1.99641
1.9977
1.99806
1.99756
1.99748
1.99718
1.99692
1.99654
1.99633
1.99763
1.998
1.9975
1.99741
1.9971
1.99682
1.99644
1.99618
1.99754
1.99793
1.9974
1.9973
1.99698
1.99669
1.9963
1.99597
1.99744
1.99783
1.99728
1.99716
1.99681
1.99647
1.99605
1.99556
1.99732
1.99773
1.99716
1.99703
1.99667
1.99632
1.99593
1.99537
1.99722
1.99759
1.99696
1.99677
1.99631
1.9958
1.99523
1.9939
1.99215
1.99501
1.99271
1.99293
1.99196
1.99126
1.99007
1.9888
1.99227
1.99519
1.99299
1.99333
1.99254
1.99211
1.99116
1.99139
1.9924
1.99533
1.99318
1.99358
1.99286
1.9925
1.99173
1.9919
1.99249
1.99543
1.99332
1.99376
1.9931
1.99279
1.99211
1.99226
1.99253
1.99548
1.99339
1.99385
1.99321
1.99293
1.99231
1.99246
1.99249
1.99547
1.99337
1.99384
1.99321
1.99294
1.99234
1.99247
1.99238
1.99538
1.99326
1.99373
1.99309
1.99281
1.99222
1.99227
1.99218
1.99522
1.99307
1.99352
1.99285
1.99253
1.99193
1.99181
1.99192
1.99499
1.99279
1.99322
1.99251
1.99213
1.99153
1.99116
1.9916
1.99469
1.99242
1.99278
1.99199
1.99147
1.99078
1.98987
1.99126
1.9944
1.99208
1.99242
1.99161
1.99107
1.99054
1.98931
1.99094
1.99399
1.9915
1.99166
1.99056
1.98956
1.98853
1.98492
1.96488
1.97897
1.96287
1.96256
1.95426
1.94759
1.93883
1.92678
1.96517
1.97966
1.9639
1.96409
1.95649
1.95093
1.94294
1.93776
1.96551
1.98022
1.96463
1.96506
1.95777
1.95254
1.9451
1.94044
1.96579
1.98068
1.96522
1.96585
1.95879
1.95382
1.94677
1.9425
1.96593
1.98092
1.96554
1.96628
1.95935
1.95453
1.9477
1.94369
1.96589
1.98092
1.96557
1.96635
1.95948
1.95472
1.948
1.94406
1.96566
1.98065
1.96529
1.96605
1.95915
1.95435
1.94765
1.94348
1.96521
1.98008
1.96467
1.96532
1.95832
1.95335
1.94658
1.94172
1.96458
1.97926
1.96377
1.96425
1.95709
1.95187
1.94507
1.93911
1.96379
1.97814
1.96247
1.96263
1.95509
1.94928
1.94212
1.93371
1.96292
1.97706
1.96132
1.96133
1.9537
1.94768
1.94124
1.93082
1.96205
1.97548
1.95924
1.95846
1.94974
1.94186
1.93378
1.91294
1.71994
2.01154
1.86039
1.91568
1.88994
1.89097
1.88031
1.8718
1.72014
2.01223
1.86152
1.91723
1.89259
1.89393
1.88583
1.88287
1.72044
2.01284
1.86236
1.91828
1.89412
1.89555
1.88831
1.88621
1.7207
2.01334
1.86307
1.9192
1.89541
1.89704
1.89068
1.88893
1.72086
2.01364
1.86351
1.91976
1.89618
1.89793
1.89199
1.89038
1.72088
2.01368
1.86362
1.91992
1.89642
1.89824
1.89251
1.89095
1.72074
2.01343
1.86339
1.91967
1.89616
1.89795
1.89225
1.89047
1.72042
2.0129
1.86282
1.91899
1.89535
1.89699
1.89113
1.88874
1.71994
2.01209
1.86192
1.91792
1.89407
1.8955
1.8894
1.88613
1.71932
2.011
1.86062
1.91631
1.89198
1.89294
1.88601
1.88059
1.71864
2.00994
1.85947
1.91503
1.89043
1.89142
1.88477
1.87722
1.71791
2.00846
1.85746
1.91234
1.88631
1.88636
1.87636
1.86031
3.03106
2.90127
3.23195
3.35359
3.57399
3.82903
3.90328
4.74504
3.02423
2.8767
3.19534
3.29604
3.49859
3.68621
3.83237
4.1747
3.0164
2.85413
3.16473
3.25123
3.44043
3.59662
3.76002
3.92983
3.00908
2.83116
3.13274
3.20435
3.37658
3.50829
3.65529
3.7418
3.00403
2.81619
3.11278
3.17586
3.33828
3.45896
3.59275
3.65447
3.00166
2.80834
3.10232
3.16084
3.31791
3.43311
3.5581
3.61166
3.00222
2.80836
3.10253
3.16097
3.31804
3.43321
3.55819
3.61171
3.00564
2.81623
3.11339
3.17624
3.33866
3.45927
3.593
3.65465
3.01165
2.83122
3.13371
3.20494
3.37718
3.50878
3.65567
3.74209
3.01944
2.85416
3.16586
3.2519
3.44112
3.5972
3.76046
3.9303
3.02722
2.8767
3.19639
3.2966
3.49914
3.68665
3.83261
4.17513
3.03252
2.90139
3.23254
3.35388
3.57421
3.82923
3.90337
4.74554
2.36252
2.31526
2.40635
2.4392
2.50275
2.57834
2.61801
2.86166
2.35724
2.30581
2.39283
2.41952
2.47668
2.53235
2.58573
2.68446
2.34977
2.29678
2.38111
2.40457
2.45819
2.50565
2.56223
2.61702
2.34251
2.28767
2.36917
2.38928
2.43873
2.47932
2.5333
2.55959
2.33686
2.28108
2.36077
2.37886
2.42572
2.46252
2.51406
2.52568
2.33376
2.27753
2.35622
2.37323
2.41866
2.45351
2.50338
2.50821
2.33352
2.27751
2.35612
2.37317
2.41859
2.45346
2.50333
2.50818
2.33616
2.28105
2.3605
2.37869
2.42554
2.46237
2.51393
2.52559
2.34134
2.28763
2.36872
2.389
2.43845
2.47909
2.53311
2.55944
2.34837
2.29676
2.38057
2.40426
2.45787
2.50538
2.56201
2.61679
2.35584
2.30582
2.39231
2.41924
2.4764
2.53211
2.58558
2.68421
2.36184
2.31525
2.4061
2.43906
2.50262
2.57822
2.61798
2.86148
2.1653
2.16181
2.19436
2.21395
2.24422
2.27884
2.31253
2.39017
2.16253
2.15647
2.18659
2.20269
2.22864
2.25471
2.28625
2.31353
2.15864
2.15172
2.18042
2.19497
2.21901
2.24249
2.2723
2.29276
2.15485
2.1472
2.17448
2.18755
2.20974
2.2308
2.25877
2.27309
2.15185
2.14394
2.1703
2.18251
2.2036
2.22325
2.2502
2.26066
2.15014
2.14221
2.16804
2.17983
2.20034
2.21925
2.24565
2.25398
2.14994
2.14223
2.16797
2.1798
2.20031
2.21922
2.24562
2.25397
2.15129
2.14398
2.1701
2.18242
2.2035
2.22317
2.25013
2.26061
2.15398
2.14726
2.17418
2.18741
2.20958
2.23068
2.25867
2.27301
2.15765
2.1518
2.18008
2.19481
2.21884
2.24234
2.27219
2.29261
2.16161
2.15654
2.18627
2.20254
2.22848
2.25457
2.28619
2.31335
2.16487
2.16185
2.19423
2.21387
2.24413
2.27875
2.3125
2.38999
2.08392
2.08346
2.09638
2.10521
2.11844
2.13343
2.15237
2.18026
2.08249
2.08078
2.09248
2.0996
2.11053
2.12163
2.13729
2.14512
2.08052
2.07851
2.08958
2.09605
2.10612
2.11634
2.13042
2.13816
2.07866
2.07645
2.08693
2.09284
2.10217
2.11153
2.12459
2.13112
2.0772
2.07498
2.08508
2.09068
2.09959
2.10845
2.12104
2.12652
2.07636
2.0742
2.08409
2.08954
2.09825
2.10684
2.11923
2.124
2.07625
2.07421
2.08405
2.08952
2.09823
2.10682
2.11922
2.124
2.07689
2.075
2.08498
2.09062
2.09953
2.1084
2.121
2.12649
2.0782
2.07648
2.08677
2.09275
2.10208
2.11145
2.12452
2.13106
2.07999
2.07855
2.0894
2.09595
2.10601
2.11624
2.13035
2.13807
2.08197
2.0808
2.0923
2.0995
2.11043
2.12154
2.13724
2.14501
2.08367
2.08346
2.09629
2.10515
2.11838
2.13338
2.15235
2.18017
2.04142
2.04028
2.04608
2.04978
2.05548
2.06183
2.07075
2.08144
2.04071
2.03897
2.04417
2.04704
2.0516
2.05614
2.06302
2.06504
2.03974
2.03787
2.04278
2.04534
2.0495
2.05368
2.05968
2.06222
2.03885
2.03688
2.04154
2.04384
2.04767
2.05148
2.05695
2.05923
2.03815
2.03618
2.04068
2.04285
2.04649
2.0501
2.05534
2.05729
2.03776
2.03582
2.04022
2.04233
2.04589
2.04938
2.05452
2.05622
2.03771
2.03582
2.0402
2.04232
2.04588
2.04937
2.05452
2.05622
2.03801
2.03619
2.04062
2.04282
2.04646
2.05007
2.05531
2.05727
2.03862
2.03689
2.04146
2.0438
2.04762
2.05144
2.05692
2.0592
2.03948
2.03787
2.04269
2.04529
2.04945
2.05363
2.05965
2.06217
2.04044
2.03896
2.04408
2.04698
2.05155
2.05609
2.06299
2.06498
2.04128
2.04028
2.04604
2.04975
2.05546
2.06181
2.07074
2.0814
2.01962
2.0189
2.02167
2.02339
2.02606
2.02902
2.03332
2.03805
2.01929
2.01829
2.02079
2.02213
2.02427
2.02642
2.02967
2.03064
2.01883
2.01778
2.02014
2.02134
2.0233
2.02529
2.02813
2.02941
2.01841
2.01732
2.01957
2.02066
2.02247
2.0243
2.0269
2.02809
2.01808
2.017
2.01918
2.02021
2.02194
2.02368
2.02617
2.02724
2.0179
2.01683
2.01897
2.01997
2.02167
2.02336
2.0258
2.02677
2.01787
2.01683
2.01896
2.01997
2.02166
2.02335
2.0258
2.02677
2.01801
2.017
2.01915
2.02019
2.02192
2.02367
2.02615
2.02723
2.0183
2.01732
2.01954
2.02064
2.02245
2.02428
2.02688
2.02808
2.0187
2.01778
2.0201
2.02131
2.02327
2.02527
2.02811
2.02938
2.01915
2.01828
2.02074
2.02209
2.02424
2.02639
2.02965
2.03061
2.01955
2.0189
2.02165
2.02337
2.02604
2.02901
2.03331
2.03804
2.00879
2.00829
2.00954
2.01025
2.01139
2.01266
2.01451
2.01649
2.00864
2.00803
2.00915
2.00971
2.01062
2.01153
2.01291
2.01332
2.00843
2.0078
2.00887
2.00936
2.01019
2.01103
2.01223
2.01276
2.00824
2.0076
2.00862
2.00906
2.00982
2.0106
2.01169
2.01219
2.0081
2.00745
2.00844
2.00886
2.00959
2.01032
2.01136
2.01181
2.00801
2.00738
2.00835
2.00875
2.00947
2.01018
2.0112
2.01161
2.008
2.00738
2.00834
2.00875
2.00946
2.01018
2.0112
2.01161
2.00806
2.00745
2.00843
2.00885
2.00958
2.01032
2.01136
2.01181
2.00819
2.00759
2.0086
2.00904
2.00981
2.01059
2.01168
2.01218
2.00837
2.00779
2.00884
2.00934
2.01017
2.01102
2.01222
2.01275
2.00857
2.00802
2.00913
2.00969
2.0106
2.01152
2.0129
2.0133
2.00875
2.00829
2.00953
2.01024
2.01139
2.01265
2.01451
2.01648
2.0037
2.00343
2.00397
2.00426
2.00474
2.00526
2.00603
2.00684
2.00364
2.00332
2.00381
2.00404
2.00443
2.00481
2.00538
2.00558
2.00355
2.00323
2.0037
2.0039
2.00425
2.00461
2.0051
2.00535
2.00347
2.00314
2.00359
2.00378
2.0041
2.00443
2.00488
2.00512
2.00341
2.00309
2.00352
2.00369
2.004
2.00432
2.00475
2.00496
2.00337
2.00305
2.00348
2.00365
2.00395
2.00426
2.00468
2.00488
2.00337
2.00305
2.00348
2.00365
2.00395
2.00426
2.00468
2.00488
2.00339
2.00308
2.00351
2.00369
2.004
2.00431
2.00475
2.00496
2.00345
2.00314
2.00358
2.00377
2.00409
2.00443
2.00488
2.00511
2.00352
2.00323
2.00369
2.00389
2.00424
2.0046
2.0051
2.00534
2.00361
2.00332
2.0038
2.00403
2.00442
2.00481
2.00538
2.00557
2.00368
2.00343
2.00396
2.00426
2.00473
2.00526
2.00603
2.00684
2.0014
2.00127
2.00148
2.00158
2.00176
2.00195
2.00224
2.00253
2.00137
2.00123
2.00142
2.00151
2.00165
2.0018
2.00201
2.00209
2.00134
2.0012
2.00138
2.00145
2.00158
2.00172
2.0019
2.002
2.00131
2.00117
2.00134
2.00141
2.00153
2.00166
2.00182
2.00192
2.00129
2.00114
2.00131
2.00138
2.0015
2.00161
2.00178
2.00186
2.00127
2.00113
2.0013
2.00136
2.00148
2.00159