/*--------------------------------*- C++ -*----------------------------------*\
| =========                 |                                                 |
| \\      /  F ield         | foam-extend: Open Source CFD                    |
|  \\    /   O peration     | Version:  3.0                                   |
|   \\  /    A nd           | Web:         http://www.extend-project.de       |
|    \\/     M anipulation  |                                                 |
\*---------------------------------------------------------------------------*/
FoamFile
{
    version     2.0;
    format      ascii;
    class       volScalarField;
    location    "7";
    object      p;
}
// * * * * * * * * * * * * * * * * * * * * * * * * * * * * * * * * * * * * * //

dimensions      [0 0 0 0 0 0 0];

internalField   nonuniform List<scalar> 
400
(
2.00345
1.52253
1.51607
1.28902
1.26891
1.17997
1.15539
1.12235
1.09482
1.05462
-3.23723
-2.30261
-1.6556
-0.992389
-0.790298
-0.534501
-0.530192
-0.430767
-0.465594
-0.398913
2.02267
1.53747
1.52975
1.30056
1.2799
1.18968
1.16482
1.13099
1.1032
1.06253
-2.88466
-1.9173
-1.38653
-0.864047
-0.680545
-0.494244
-0.489701
-0.424414
-0.458279
-0.39757
2.22839
1.66636
1.57638
1.34622
1.31112
1.22368
1.20356
1.1718
1.1504
1.10798
-2.16919
-1.40576
-1.0272
-0.677144
-0.533293
-0.435254
-0.435204
-0.427012
-0.459474
-0.409803
2.3016
1.77865
1.64745
1.41729
1.3753
1.28212
1.27235
1.23566
1.22313
1.17677
-1.68783
-1.08079
-0.805812
-0.542572
-0.443751
-0.385532
-0.392347
-0.404945
-0.42701
-0.382457
2.40103
1.8965
1.75243
1.51061
1.47133
1.35648
1.35456
1.2977
1.28597
1.23421
-1.47987
-0.936688
-0.73243
-0.493536
-0.432795
-0.356991
-0.359505
-0.340218
-0.334177
-0.285844
2.55659
2.03712
1.89009
1.62414
1.58723
1.43801
1.43075
1.34199
1.31769
1.26057
-1.44132
-0.921278
-0.760368
-0.512786
-0.470371
-0.347153
-0.326705
-0.25383
-0.211461
-0.156529
2.75044
2.19532
2.04238
1.74586
1.70192
1.51653
1.4905
1.37134
1.32816
1.267
-1.49033
-0.972459
-0.828386
-0.559643
-0.511405
-0.34257
-0.291434
-0.177618
-0.108801
-0.049954
2.94695
2.34818
2.18132
1.85472
1.79343
1.58071
1.53266
1.39554
1.33804
1.27458
-1.56691
-1.03832
-0.888562
-0.597805
-0.528427
-0.332543
-0.259638
-0.129853
-0.0533431
0.00577806
3.11037
2.47111
2.28382
1.93263
1.85011
1.62348
1.56034
1.41931
1.35712
1.29266
-1.63485
-1.09064
-0.921873
-0.613687
-0.521889
-0.317733
-0.238376
-0.111172
-0.0413928
0.0160981
3.21797
2.54947
2.34168
1.97423
1.87438
1.64469
1.5759
1.43928
1.37951
1.31481
-1.68197
-1.12384
-0.93564
-0.616333
-0.509752
-0.306874
-0.230392
-0.111412
-0.0519845
0.00394427
3.26202
2.58013
2.35995
1.98548
1.87661
1.64851
1.57933
1.44781
1.39162
1.32708
-1.7097
-1.14355
-0.946617
-0.622298
-0.510577
-0.308647
-0.234464
-0.118975
-0.0640179
-0.00841415
3.24306
2.56546
2.34649
1.97413
1.86572
1.63887
1.56994
1.4392
1.38329
1.31922
-1.7194
-1.15279
-0.962176
-0.638713
-0.531223
-0.325906
-0.248925
-0.128436
-0.0684613
-0.0116205
3.16297
2.50689
2.30263
1.94128
1.84277
1.61672
1.54864
1.41432
1.35534
1.29199
-1.70609
-1.14574
-0.972379
-0.656279
-0.562744
-0.353932
-0.273628
-0.14354
-0.0727216
-0.0134943
3.02474
2.40481
2.22302
1.88132
1.80088
1.5799
1.51787
1.38041
1.31945
1.2571
-1.66504
-1.11423
-0.958156
-0.656485
-0.58471
-0.382379
-0.308174
-0.174386
-0.0964518
-0.0349373
2.83913
2.26467
2.10476
1.79008
1.73141
1.5258
1.47913
1.34647
1.29052
1.22972
-1.60581
-1.06183
-0.910343
-0.628749
-0.577686
-0.401216
-0.348558
-0.229982
-0.159502
-0.0978334
2.63099
2.10278
1.95758
1.67423
1.63322
1.45564
1.43113
1.31687
1.27538
1.21716
-1.56281
-1.0154
-0.84673
-0.585633
-0.540257
-0.408942
-0.386911
-0.308954
-0.264851
-0.206936
2.43715
1.94459
1.80534
1.55255
1.51859
1.37712
1.37139
1.28746
1.26482
1.21061
-1.59537
-1.02626
-0.814723
-0.563009
-0.499484
-0.415915
-0.416944
-0.392729
-0.385046
-0.333849
2.29321
1.81296
1.67595
1.44603
1.40945
1.30158
1.30106
1.24852
1.23828
1.18914
-1.7859
-1.15687
-0.875888
-0.601793
-0.50065
-0.4358
-0.441373
-0.449695
-0.470356
-0.423338
2.2159
1.71223
1.58661
1.36595
1.32614
1.23854
1.22991
1.19667
1.18534
1.14106
-2.24017
-1.46074
-1.07811
-0.720223
-0.574698
-0.471874
-0.470949
-0.459638
-0.491096
-0.43963
2.17322
1.62365
1.53719
1.31312
1.27943
1.19564
1.17628
1.14678
1.12616
1.08508
-2.92221
-1.94627
-1.4133
-0.886571
-0.702196
-0.513425
-0.508491
-0.441626
-0.475013
-0.413378
)
;

boundaryField
{
    up
    {
        type            implicitExtrapolation;
    }
    hole
    {
        type            implicitExtrapolation;
    }
    frontAndBack
    {
        type            empty;
    }
}


// ************************************************************************* //
