/*--------------------------------*- C++ -*----------------------------------*\
| =========                 |                                                 |
| \\      /  F ield         | foam-extend: Open Source CFD                    |
|  \\    /   O peration     | Version:  3.0                                   |
|   \\  /    A nd           | Web:         http://www.extend-project.de       |
|    \\/     M anipulation  |                                                 |
\*---------------------------------------------------------------------------*/
FoamFile
{
    version     2.0;
    format      ascii;
    class       volSymmTensorField;
    location    "28";
    object      sigma;
}
// * * * * * * * * * * * * * * * * * * * * * * * * * * * * * * * * * * * * * //

dimensions      [0 0 0 0 0 0 0];

internalField   nonuniform List<symmTensor> 
168
(
(-0.142238 -0.0193783 -1.15254e-18 0.142241 -3.07797e-19 -2.86619e-06)
(-0.114731 -0.0209579 1.92586e-19 0.114738 2.13162e-18 -7.545e-06)
(-0.0794483 -0.0177389 7.81619e-19 0.0794607 -1.71654e-19 -1.23852e-05)
(-0.0507321 -0.0141951 -1.06382e-18 0.0507464 4.13777e-18 -1.43013e-05)
(-0.0270687 -0.011119 1.97623e-18 0.0270837 1.07291e-18 -1.49334e-05)
(-0.0129797 -0.00957083 -4.61168e-19 0.0129876 -3.68247e-18 -7.83604e-06)
(-0.129717 -0.0551774 7.54604e-19 0.129719 5.29114e-19 -2.73511e-06)
(-0.0960236 -0.0571089 1.48224e-18 0.0960307 -4.61931e-18 -7.15724e-06)
(-0.0613484 -0.0470983 1.7949e-18 0.0613601 -2.66768e-18 -1.17225e-05)
(-0.0346876 -0.0366825 3.97354e-18 0.0347011 -4.10031e-18 -1.34825e-05)
(-0.0130113 -0.0276751 -5.85444e-18 0.0130254 -1.14079e-18 -1.41518e-05)
(0.00018829 -0.0227792 -1.53512e-19 -0.000180877 4.84768e-18 -7.41291e-06)
(-0.107657 -0.0833894 3.85196e-19 0.10766 -6.73537e-18 -2.44386e-06)
(-0.0652161 -0.0787992 -5.63815e-18 0.0652225 6.08261e-19 -6.40175e-06)
(-0.0322534 -0.0614683 -3.7875e-19 0.0322639 -4.31193e-19 -1.05415e-05)
(-0.00936078 -0.0452777 -8.06806e-19 0.00937298 6.76746e-19 -1.21985e-05)
(0.00875146 -0.0315355 1.11457e-17 -0.00873867 6.84517e-18 -1.27938e-05)
(0.0202218 -0.0237604 1.6811e-18 -0.020215 -7.12904e-18 -6.7169e-06)
(-0.0808476 -0.101758 2.13697e-18 0.0808497 3.27965e-18 -2.04754e-06)
(-0.0326909 -0.0829268 3.58303e-18 0.0326963 6.23878e-18 -5.38726e-06)
(-0.00323268 -0.0579447 2.83486e-19 0.00324154 -2.23948e-18 -8.86157e-06)
(0.0148113 -0.0374702 -2.19837e-19 -0.014801 4.61635e-18 -1.03206e-05)
(0.0285375 -0.0205676 -5.26432e-18 -0.0285267 -1.27233e-17 -1.08004e-05)
(0.0377256 -0.010556 5.19754e-20 -0.0377199 3.36386e-18 -5.6587e-06)
(-0.054011 -0.110991 -4.70921e-18 0.0540126 1.24024e-18 -1.61023e-06)
(-0.00821145 -0.0732079 6.34114e-19 0.00821568 -4.86101e-18 -4.2226e-06)
(0.015401 -0.0409759 -1.60896e-18 -0.0153941 1.71773e-18 -6.87742e-06)
(0.0281694 -0.0177353 2.83816e-18 -0.0281613 -1.82483e-18 -8.05579e-06)
(0.0374381 0.000844376 1.51923e-18 -0.0374298 4.75183e-18 -8.38547e-06)
(0.0440533 0.0123625 -4.2485e-18 -0.0440489 2.09111e-18 -4.3902e-06)
(-0.0301321 -0.114026 1.61794e-18 0.0301332 1.07861e-18 -1.09791e-06)
(0.00305988 -0.0583013 -1.05493e-18 -0.00305703 2.08436e-18 -2.85205e-06)
(0.0184396 -0.0203022 -9.34913e-19 -0.018435 -8.3437e-20 -4.56918e-06)
(0.0259608 0.00445884 -1.51334e-18 -0.0259555 -1.95845e-19 -5.37776e-06)
(0.0311853 0.0236724 -2.06289e-18 -0.0311798 -2.54357e-18 -5.52468e-06)
(0.0351331 0.0361156 2.31225e-18 -0.0351302 -2.70447e-19 -2.8666e-06)
(-0.00957335 -0.114375 -1.38411e-19 0.00957392 -7.7693e-19 -5.7309e-07)
(0.00257265 -0.0477549 6.50197e-20 -0.00257124 -1.36095e-18 -1.40744e-06)
(0.00792088 -0.00654433 9.78323e-19 -0.00791875 1.94632e-19 -2.12569e-06)
(0.0104042 0.0188538 -1.06906e-19 -0.0104017 -8.79466e-19 -2.51707e-06)
(0.0120697 0.0382056 3.12252e-19 -0.0120672 2.43542e-18 -2.46532e-06)
(0.0134146 0.0510525 -8.44608e-19 -0.0134133 -1.19587e-19 -1.24539e-06)
(0.00958269 -0.11437 -2.02558e-19 -0.00958268 1.0182e-18 -1.45017e-08)
(-0.00256158 -0.0477549 2.10577e-19 0.00256147 1.12698e-18 1.04675e-07)
(-0.00791018 -0.00654352 -6.98452e-20 0.00790976 -1.06954e-18 4.19083e-07)
(-0.0103771 0.0188507 1.32029e-18 0.0103766 -7.15342e-19 4.71491e-07)
(-0.012045 0.0381976 -3.00038e-19 0.0120443 -2.22941e-18 7.30533e-07)
(-0.0133467 0.0510403 -4.6108e-19 0.0133463 -5.7988e-20 4.53556e-07)
(0.0301412 -0.114018 1.62702e-18 -0.0301417 -8.94455e-19 5.10049e-07)
(-0.00304717 -0.0582979 -2.03184e-18 0.00304562 -1.99876e-18 1.55111e-06)
(-0.0184294 -0.0203015 -1.21915e-18 0.0184265 -2.3325e-19 2.86331e-06)
(-0.0259359 0.00446646 -1.88613e-18 0.0259325 -2.39433e-18 3.35745e-06)
(-0.0311688 0.0236671 -3.97172e-19 0.0311649 3.71248e-18 3.8243e-06)
(-0.0350928 0.0361279 2.95117e-18 0.0350907 -2.17552e-21 2.09819e-06)
(0.0540101 -0.110987 -4.66065e-18 -0.0540111 -4.73879e-19 1.01075e-06)
(0.00821823 -0.0732116 4.57692e-19 -0.00822114 4.80014e-18 2.90704e-06)
(-0.0153911 -0.0409776 -9.46959e-19 0.0153859 -5.4248e-19 5.15197e-06)
(-0.0281498 -0.0177393 1.60332e-19 0.0281437 8.95006e-19 6.06918e-06)
(-0.0374056 0.000841255 4.75952e-18 0.0373989 -7.57934e-18 6.73632e-06)
(-0.0439934 0.0123745 -4.54999e-18 0.0439898 -1.32369e-18 3.64854e-06)
(0.0808439 -0.10175 2.47613e-18 -0.0808453 -3.07518e-18 1.42496e-06)
(0.0326966 -0.0829231 6.16522e-18 -0.0327007 -3.53734e-18 4.05327e-06)
(0.00323834 -0.0579451 -2.73406e-18 -0.00324544 -2.26826e-19 7.09957e-06)
(-0.0147954 -0.0374662 3.56433e-18 0.014787 1.58058e-18 8.39201e-06)
(-0.0285135 -0.0205792 -1.23547e-17 0.0285043 5.64407e-18 9.23058e-06)
(-0.0376873 -0.010577 3.08626e-18 0.0376823 2.4215e-19 4.97139e-06)
(0.107661 -0.0833905 2.02267e-18 -0.107663 6.28628e-18 1.76408e-06)
(0.065225 -0.0788058 -6.20032e-18 -0.06523 -3.42374e-19 4.97685e-06)
(0.0322714 -0.0614682 1.50314e-18 -0.03228 3.36508e-18 8.67721e-06)
(0.00937866 -0.0452876 -3.2552e-18 -0.00938896 -3.38396e-18 1.02962e-05)
(-0.00872361 -0.0315355 5.54534e-18 0.00871231 -1.23235e-18 1.13014e-05)
(-0.020195 -0.0237619 2.08994e-18 0.0201889 4.53801e-18 6.08817e-06)
(0.129714 -0.0551816 4.19345e-19 -0.129716 -8.52576e-19 1.97719e-06)
(0.0960279 -0.0571161 2.80512e-18 -0.0960335 2.48845e-18 5.58366e-06)
(0.0613542 -0.0471044 1.59352e-18 -0.0613639 3.70597e-18 9.73361e-06)
(0.0347036 -0.036691 -1.97942e-18 -0.0347152 3.80884e-18 1.15989e-05)
(0.013031 -0.0276821 -7.4134e-19 -0.0130437 2.22015e-18 1.27169e-05)
(-0.000135567 -0.0227913 -1.45432e-18 0.000128725 -2.05363e-18 6.8417e-06)
(0.142242 -0.0193725 -5.75176e-19 -0.142244 -3.16907e-19 2.08279e-06)
(0.114738 -0.0209638 -6.70554e-19 -0.114744 -2.75781e-18 5.88416e-06)
(0.0794624 -0.0177281 9.62205e-19 -0.0794727 -1.32118e-18 1.02801e-05)
(0.0507475 -0.0142049 -1.02519e-18 -0.0507598 -2.21717e-18 1.23141e-05)
(0.027093 -0.0111207 1.72209e-18 -0.0271065 7.64771e-19 1.35244e-05)
(0.0130212 -0.00959603 -6.64824e-22 -0.0130285 -4.37063e-19 7.29449e-06)
(0.142264 0.0192849 -1.15106e-18 -0.142266 -3.07686e-19 2.04446e-06)
(0.11478 0.0207758 1.92068e-19 -0.114786 2.13116e-18 5.81987e-06)
(0.0795174 0.0174515 7.78979e-19 -0.0795276 -1.72373e-19 1.02251e-05)
(0.0508546 0.0137206 -1.06334e-18 -0.050867 4.13676e-18 1.23362e-05)
(0.0272276 0.0104278 1.97143e-18 -0.0272412 1.07165e-18 1.35967e-05)
(0.0132363 0.00847822 -4.60326e-19 -0.0132437 -3.68182e-18 7.35347e-06)
(0.129767 0.0550996 7.5431e-19 -0.129769 5.28801e-19 1.89218e-06)
(0.0961303 0.0569572 1.48152e-18 -0.0961357 -4.61989e-18 5.42934e-06)
(0.0615212 0.046868 1.79891e-18 -0.0615308 -2.66544e-18 9.62049e-06)
(0.0349749 0.0362884 3.9729e-18 -0.0349866 -4.10454e-18 1.17068e-05)
(0.0134431 0.0271209 -5.84689e-18 -0.013456 -1.13791e-18 1.29706e-05)
(0.000494077 0.0218923 -1.55876e-19 -0.000501127 4.84272e-18 7.04932e-06)
(0.107739 0.0833392 3.86375e-19 -0.107741 -6.73488e-18 1.60529e-06)
(0.0653736 0.0787069 -5.63952e-18 -0.0653783 6.10073e-19 4.6929e-06)
(0.0325005 0.0613247 -3.83569e-19 -0.032509 -4.31164e-19 8.43946e-06)
(0.00977871 0.0450441 -8.09384e-19 -0.00978911 6.82192e-19 1.04012e-05)
(-0.00814815 0.0311955 1.11427e-17 0.00813653 6.84102e-18 1.16219e-05)
(-0.0192531 0.0232156 1.68518e-18 0.0192467 -7.13301e-18 6.34803e-06)
(0.0809441 0.101739 2.13539e-18 -0.0809454 3.27951e-18 1.22477e-06)
(0.0328607 0.0829031 3.58332e-18 -0.0328644 6.23813e-18 3.68291e-06)
(0.00351001 0.0579184 2.85677e-19 -0.0035168 -2.2357e-18 6.79276e-06)
(-0.0143568 0.0374221 -2.1966e-19 0.0143483 4.61326e-18 8.53312e-06)
(-0.0278755 0.0205246 -5.26371e-18 0.0278658 -1.2719e-17 9.67587e-06)
(-0.0366698 0.0104656 4.76072e-20 0.0366645 3.36605e-18 5.34271e-06)
(0.0541052 0.111016 -4.70929e-18 -0.054106 1.24127e-18 7.43802e-07)
(0.00837004 0.0732577 6.34929e-19 -0.00837245 -4.86122e-18 2.41318e-06)
(-0.0151469 0.0410637 -1.61267e-18 0.0151422 1.71524e-18 4.7042e-06)
(-0.0277515 0.0178841 2.84086e-18 0.0277454 -1.82429e-18 6.13065e-06)
(-0.0368348 -0.000615701 1.51265e-18 0.0368277 4.74991e-18 7.13597e-06)
(-0.0430793 -0.0119917 -4.245e-18 0.0430753 2.09137e-18 3.99325e-06)
(0.0302045 0.114091 1.61806e-18 -0.0302047 1.07795e-18 2.12601e-07)
(-0.00295167 0.0584051 -1.05471e-18 0.00295069 2.08459e-18 9.86837e-07)
(-0.0182607 0.0204858 -9.32571e-19 0.0182584 -7.99946e-20 2.34142e-06)
(-0.0256739 -0.00416264 -1.51455e-18 0.0256705 -1.96801e-19 3.38933e-06)
(-0.0307739 -0.0232274 -2.06135e-18 0.0307696 -2.5379e-18 4.24259e-06)
(-0.034459 -0.0353966 2.31061e-18 0.0344565 -2.72218e-19 2.47433e-06)
(0.00960611 0.114465 -1.38015e-19 -0.00960575 -7.76118e-19 -3.64491e-07)
(-0.00252661 0.0478963 6.61113e-20 0.00252717 -1.36067e-18 -5.55633e-07)
(-0.00784945 0.00678467 9.79768e-19 0.00784968 1.90933e-19 -2.29655e-07)
(-0.0102889 -0.0184638 -1.04924e-19 0.0102886 -8.78504e-19 3.81166e-07)
(-0.0119133 -0.0376285 3.10115e-19 0.0119123 2.42985e-18 1.03423e-06)
(-0.0131539 -0.0501134 -8.41253e-19 0.0131531 -1.17915e-19 7.64141e-07)
(-0.00960182 0.114463 -2.02083e-19 0.00960275 1.01692e-18 -9.33027e-07)
(0.00253338 0.0478907 2.1083e-19 -0.00253128 1.12642e-18 -2.09705e-06)
(0.00786204 0.00678233 -6.86366e-20 -0.00785922 -1.06681e-18 -2.81708e-06)
(0.010292 -0.0184703 1.32133e-18 -0.0102893 -7.15919e-19 -2.66605e-06)
(0.0119266 -0.0376324 -2.98961e-19 -0.0119244 -2.22396e-18 -2.22108e-06)
(0.0131381 -0.0501187 -4.62202e-19 -0.0131371 -5.9581e-20 -9.62044e-07)
(-0.0302026 0.114091 1.62678e-18 0.0302041 -8.93828e-19 -1.48247e-06)
(0.00295332 0.0584066 -2.03295e-18 -0.00294974 -1.99927e-18 -3.58287e-06)
(0.0182683 0.0204878 -1.21819e-18 -0.0182629 -2.37288e-19 -5.32865e-06)
(0.0256762 -0.00416486 -1.88699e-18 -0.0256706 -2.39442e-18 -5.6488e-06)
(0.0307809 -0.0232245 -3.92137e-19 -0.0307755 3.70887e-18 -5.437e-06)
(0.0344604 -0.0353979 2.95011e-18 -0.0344577 -8.40808e-22 -2.68302e-06)
(-0.0541002 0.111014 -4.66063e-18 0.0541022 -4.74838e-19 -1.96311e-06)
(-0.0083577 0.073258 4.56968e-19 0.0083626 4.79894e-18 -4.90544e-06)
(0.0151582 0.0410694 -9.51054e-19 -0.0151506 -5.40348e-19 -7.58422e-06)
(0.0277651 0.0178783 1.58179e-19 -0.0277567 8.90838e-19 -8.35635e-06)
(0.0368517 -0.000610052 4.75978e-18 -0.0368433 -7.57553e-18 -8.37171e-06)
(0.0430847 -0.0120159 -4.54902e-18 -0.0430805 -1.3238e-18 -4.25561e-06)
(-0.0809408 0.101737 2.47417e-18 0.0809432 -3.07427e-18 -2.3676e-06)
(-0.0328524 0.0829039 6.16462e-18 0.0328584 -3.53679e-18 -6.02007e-06)
(-0.00350092 0.0579182 -2.73192e-18 0.00351041 -2.28627e-19 -9.49722e-06)
(0.0143712 0.0374226 3.56382e-18 -0.0143605 1.58193e-18 -1.0689e-05)
(0.0278886 0.0205206 -1.23526e-17 -0.0278777 5.64198e-18 -1.09264e-05)
(0.0366767 0.0104687 3.07929e-18 -0.0366711 2.34634e-19 -5.6448e-06)
(-0.107734 0.0833343 2.02327e-18 0.107737 6.28616e-18 -2.66059e-06)
(-0.0653608 0.0787106 -6.2002e-18 0.0653676 -3.43316e-19 -6.85474e-06)
(-0.0324958 0.061328 1.4987e-18 0.0325068 3.36725e-18 -1.09408e-05)
(-0.00975782 0.0450432 -3.25501e-18 0.00977031 -3.38687e-18 -1.24913e-05)
(0.00816019 0.0312071 5.53824e-18 -0.00814729 -1.23003e-18 -1.29062e-05)
(0.0192832 0.0232165 2.09424e-18 -0.0192765 4.53807e-18 -6.73533e-06)
(-0.129765 0.0550957 4.18526e-19 0.129768 -8.5166e-19 -2.85609e-06)
(-0.096121 0.0569647 2.80557e-18 0.0961284 2.48924e-18 -7.40823e-06)
(-0.0615133 0.0468644 1.59682e-18 0.0615252 3.70696e-18 -1.18995e-05)
(-0.0349598 0.0362995 -1.98004e-18 0.0349735 3.80972e-18 -1.37107e-05)
(-0.0134189 0.0271206 -7.36622e-19 0.0134332 2.21796e-18 -1.42432e-05)
(-0.000464083 0.0218926 -1.45481e-18 0.00047157 -2.0526e-18 -7.48766e-06)
(-0.142254 0.0192837 -5.74513e-19 0.142257 -3.16644e-19 -2.9463e-06)
(-0.114766 0.0207843 -6.69439e-19 0.114773 -2.75734e-18 -7.62761e-06)
(-0.0795085 0.0174514 9.58265e-19 0.0795208 -1.31884e-18 -1.23873e-05)
(-0.0508294 0.0137279 -1.02353e-18 0.0508436 -2.21718e-18 -1.42741e-05)
(-0.0272155 0.0104349 1.71449e-18 0.0272305 7.66458e-19 -1.49684e-05)
(-0.0132097 0.00848727 2.77614e-21 0.0132176 -4.38306e-19 -7.85172e-06)
)
;

boundaryField
{
    out
    {
        type            mySigma;
    }
    in
    {
        type            mySigma;
    }
    frontAndBack
    {
        type            empty;
    }
}


// ************************************************************************* //
