/*--------------------------------*- C++ -*----------------------------------*\
| =========                 |                                                 |
| \\      /  F ield         | foam-extend: Open Source CFD                    |
|  \\    /   O peration     | Version:  3.0                                   |
|   \\  /    A nd           | Web:         http://www.extend-project.de       |
|    \\/     M anipulation  |                                                 |
\*---------------------------------------------------------------------------*/
FoamFile
{
    version     2.0;
    format      ascii;
    class       volSymmTensorField;
    location    "10";
    object      sigma;
}
// * * * * * * * * * * * * * * * * * * * * * * * * * * * * * * * * * * * * * //

dimensions      [0 0 0 0 0 0 0];

internalField   nonuniform List<symmTensor> 
2688
(
(-0.1772116566 -0.004802870283 4.363247928e-20 0.1775077089 1.001829912e-21 -0.000296052214)
(-0.1734630705 -0.00570613391 6.571342121e-20 0.1742686293 6.467691073e-21 -0.0008055588601)
(-0.1658226998 -0.006109926447 1.250140822e-20 0.1670858208 4.972677245e-20 -0.001263121024)
(-0.1562558888 -0.006216229455 -9.354697833e-23 0.1579316999 6.36439794e-20 -0.001675811106)
(-0.1458677601 -0.006144643401 2.236583977e-20 0.1479161138 8.144799311e-20 -0.002048353712)
(-0.1352724107 -0.005967360681 3.898913244e-20 0.1376557992 6.224061614e-20 -0.002383388484)
(-0.1248221253 -0.005729293116 4.929907189e-20 0.1275046046 7.631527834e-20 -0.002682479312)
(-0.114707185 -0.005458550785 2.187035602e-20 0.1176530047 4.189609474e-20 -0.002945819727)
(-0.1050328211 -0.005173126564 -4.380954413e-21 0.1082058914 3.587109457e-20 -0.003173070342)
(-0.09584862426 -0.004884660596 7.6848143e-21 0.09921151509 4.932666897e-21 -0.003362890825)
(-0.08717647082 -0.004600636512 2.232580863e-20 0.09069010715 5.141650481e-20 -0.003513636332)
(-0.07902101665 -0.004326123857 3.213789075e-20 0.08264385157 7.02138891e-20 -0.003622834922)
(-0.07137877185 -0.004064324728 6.244312505e-20 0.07506660735 5.183915894e-20 -0.003687835507)
(-0.06424455308 -0.003817704513 3.32067107e-20 0.06794985013 6.760852084e-20 -0.003705297054)
(-0.05761124221 -0.003587745906 -3.413820618e-20 0.06128300505 8.702929958e-20 -0.003671762839)
(-0.051477287 -0.003376008618 -3.375877776e-21 0.05506054681 9.316499838e-20 -0.003583259813)
(-0.04584060974 -0.003183403713 2.587377276e-20 0.04927633497 7.904547394e-20 -0.003435725233)
(-0.04070908155 -0.003011380642 -9.174121399e-21 0.04393388699 1.209060071e-19 -0.003224805439)
(-0.03608965162 -0.002860795522 -9.8633394e-22 0.03903571978 8.868950551e-20 -0.002946068168)
(-0.03200274338 -0.002733362868 3.575793459e-20 0.03459776417 1.002361472e-19 -0.002595020789)
(-0.02846668631 -0.002630207113 4.384116615e-20 0.03063381869 1.504276321e-20 -0.002167132378)
(-0.02551707521 -0.002553667398 1.887424255e-20 0.02717510248 2.828662707e-20 -0.001658027276)
(-0.02318630979 -0.002505639934 2.909927537e-21 0.02424973722 -4.925221168e-21 -0.001063427434)
(-0.0215263948 -0.002489380282 5.094736821e-22 0.02190586589 -5.627112527e-20 -0.0003794710894)
(-0.1767313266 -0.01440008311 3.809906237e-20 0.1770264538 -9.624494366e-22 -0.0002951271641)
(-0.1725477206 -0.01706946335 7.473868673e-20 0.1733507295 3.300825276e-21 -0.000803008889)
(-0.1646587347 -0.0182567226 3.738293099e-20 0.1659179056 2.290484022e-20 -0.001259170938)
(-0.1549572815 -0.01856146481 5.954944521e-21 0.1566278281 5.012521892e-20 -0.001670546635)
(-0.1445061547 -0.0183389962 1.544083192e-20 0.1465480964 7.030323211e-20 -0.002041941681)
(-0.1338925981 -0.01780351374 3.675923315e-20 0.1362685065 4.762990547e-20 -0.002375908427)
(-0.1234524464 -0.01708827608 4.002282198e-20 0.126126497 8.091817845e-20 -0.002674050551)
(-0.1133651598 -0.01627670983 -5.074990897e-21 0.1163017142 3.019768557e-20 -0.002936554418)
(-0.1037288805 -0.01542213178 -3.521175805e-20 0.1068919631 5.873185094e-20 -0.003163082681)
(-0.09458846737 -0.01455903126 1.135782759e-20 0.09794076943 1.336212453e-20 -0.003352302058)
(-0.0859626656 -0.01370959039 5.735306736e-20 0.08946524074 3.102942147e-20 -0.003502575141)
(-0.07785390115 -0.01288883693 3.752459713e-20 0.08146533969 1.947011301e-20 -0.003611438541)
(-0.0702572048 -0.01210625525 5.870488289e-20 0.07393345263 3.195155289e-21 -0.003676247836)
(-0.06316622303 -0.01136915122 7.0039399e-20 0.0668598929 4.309105869e-20 -0.003693669864)
(-0.05657308905 -0.01068190821 3.228192411e-20 0.06023334389 7.155176768e-20 -0.003660254845)
(-0.05047551783 -0.01004913437 2.527204939e-20 0.05404755561 1.361137769e-19 -0.003572037774)
(-0.04487098006 -0.009473484523 8.49784769e-20 0.04829594618 2.408727429e-20 -0.003424966122)
(-0.03976673642 -0.008959230242 3.267905922e-20 0.04298143715 1.730394186e-19 -0.003214700724)
(-0.03516937769 -0.008508923399 2.103788968e-20 0.03810620547 1.845273898e-19 -0.002936827787)
(-0.03109872597 -0.008127736901 3.413901077e-20 0.03368560186 4.045994344e-20 -0.002586875883)
(-0.02757280097 -0.007819029121 -3.396472884e-20 0.02973313181 3.326965186e-20 -0.002160330838)
(-0.02462646884 -0.007589661527 1.623008743e-20 0.02627929437 1.397835334e-19 -0.001652825534)
(-0.02229148168 -0.007445280593 -7.039176133e-20 0.02335157246 9.332389736e-20 -0.001060090784)
(-0.02061885527 -0.007395710254 3.517526304e-20 0.02099713505 -5.359652568e-20 -0.0003782797854)
(-0.1757700024 -0.02397137091 2.628314583e-20 0.1760632499 2.677057076e-20 -0.0002932474659)
(-0.1707306783 -0.02828642385 6.061872402e-20 0.1715285607 3.460686471e-21 -0.0007978824026)
(-0.1623524184 -0.03018500242 4.057234891e-20 0.1636035371 -3.088241036e-20 -0.001251118666)
(-0.1523869832 -0.03064603879 2.79149071e-20 0.1540468625 1.627122434e-20 -0.001659879279)
(-0.1418125383 -0.03024935873 1.684690643e-20 0.143841472 6.174846667e-20 -0.002028933645)
(-0.1311642552 -0.02934447589 4.212531551e-20 0.1335250544 5.392663837e-20 -0.002360799194)
(-0.1207450489 -0.02814862245 4.845523471e-20 0.1234021311 9.182730983e-20 -0.002657082205)
(-0.1107130686 -0.02679772795 -6.406622106e-21 0.1136310274 9.014746345e-20 -0.002917958727)
(-0.1011525783 -0.02537859746 -1.531276644e-20 0.1042956677 9.922633561e-20 -0.003143089343)
(-0.09209915001 -0.02394731425 -3.968172746e-20 0.09543029588 9.868515349e-20 -0.003331145872)
(-0.08356536 -0.02253991782 1.119430052e-20 0.08704585852 1.156793835e-19 -0.003480498516)
(-0.07554923559 -0.02118078633 2.43140265e-21 0.07913793181 3.902399459e-20 -0.003588696219)
(-0.06804288869 -0.01988528159 7.502487445e-20 0.07169599831 -1.403645881e-20 -0.003653109624)
(-0.06103765336 -0.01866522592 1.138320907e-19 0.06470807897 1.017807457e-20 -0.003670425601)
(-0.05452418338 -0.01752769529 7.316403607e-20 0.05816140102 7.327594922e-20 -0.003637217638)
(-0.0484987482 -0.01648014755 1.177751638e-20 0.05204829545 9.530385377e-20 -0.00354954725)
(-0.04295794029 -0.01552686569 5.464932072e-20 0.04636133144 6.328018282e-20 -0.003403391151)
(-0.03790783898 -0.01467479031 2.735149608e-19 0.0411022804 1.683730666e-20 -0.003194441415)
(-0.033354349 -0.01392807632 -2.563884633e-20 0.03627266385 6.425237915e-20 -0.00291831485)
(-0.02931609042 -0.01329518494 -1.088716851e-19 0.03188666027 5.344598463e-20 -0.00257056985)
(-0.02581039685 -0.01278162869 1.761053235e-19 0.02795711464 2.542701413e-20 -0.00214671779)
(-0.02287069101 -0.01239862918 2.184416906e-19 0.02451310527 -2.025244334e-20 -0.001642414262)
(-0.02052755778 -0.01215545275 -1.545948588e-19 0.02158097269 1.348058925e-19 -0.001053414901)
(-0.01883004761 -0.01206821706 -2.381391557e-20 0.01920594667 -5.761880941e-20 -0.0003758990584)
(-0.1743264381 -0.03349895544 -5.262174603e-23 0.1746168726 4.401879027e-20 -0.0002904345702)
(-0.1680380706 -0.03926301075 2.610548963e-20 0.1688283103 -3.422804246e-20 -0.0007902396815)
(-0.1589468518 -0.04175503846 4.285363143e-20 0.1601859874 -8.616923314e-20 -0.001239135611)
(-0.148597996 -0.04230342041 5.715789355e-20 0.1502419899 2.580923408e-21 -0.001643993945)
(-0.1378458239 -0.04169451089 4.437725504e-20 0.1398553707 3.742785732e-20 -0.002009546781)
(-0.1271491903 -0.04040197148 5.238878189e-20 0.1294874591 6.606622434e-20 -0.002338268799)
(-0.1167628373 -0.03871992691 8.932365413e-20 0.1193945953 7.916746221e-20 -0.002631757994)
(-0.1068138432 -0.03683222175 4.903745646e-21 0.1097040277 1.35956334e-19 -0.002890184509)
(-0.09736620492 -0.03485612738 1.966867418e-21 0.100479413 6.195345156e-20 -0.003113208108)
(-0.08844189084 -0.03286726829 5.264102988e-20 0.09174140086 4.768396032e-20 -0.003299510029)
(-0.08004444018 -0.03091416391 4.040369837e-20 0.08349191287 6.696020936e-20 -0.003447472695)
(-0.07216544768 -0.02902955541 -7.496583021e-20 0.07572011344 1.102702165e-20 -0.00355466576)
(-0.06479276546 -0.02723402087 -2.331247451e-20 0.06841124807 6.65228076e-20 -0.003618482601)
(-0.05791435445 -0.02554337462 1.549001718e-19 0.06154999511 1.271500959e-20 -0.003635640652)
(-0.05151871 -0.0239670446 1.201883587e-19 0.0551214567 1.905708737e-19 -0.0036027467)
(-0.0455999903 -0.02251501239 8.945428504e-20 0.04911589111 -8.096157609e-21 -0.003515900811)
(-0.04015350781 -0.02119299154 2.361791159e-20 0.04352462904 -7.287452582e-20 -0.003371121228)
(-0.03518362334 -0.02001033852 7.612679829e-20 0.03834776769 -1.359717911e-19 -0.003164144358)
(-0.03069524109 -0.01897266476 1.861531973e-19 0.03358587276 -1.056585376e-19 -0.002890631667)
(-0.02670520986 -0.01809146167 5.488808e-21 0.02925139521 -6.342027952e-21 -0.00254618535)
(-0.02322981914 -0.017374251 -1.438233967e-19 0.02535617695 1.158608977e-20 -0.002126357805)
(-0.0203003979 -0.01683634067 2.256321056e-19 0.02192723983 -3.079734389e-20 -0.001626841928)
(-0.01794588746 -0.01649039906 6.88946082e-20 0.01898931709 1.317831993e-19 -0.001043429636)
(-0.01621240162 -0.01635843616 -1.665067581e-20 0.01658473785 -2.889361349e-20 -0.0003723362339)
(-0.1723988703 -0.04296421358 -4.448571281e-20 0.1726855774 5.772746191e-20 -0.0002867071314)
(-0.1645084794 -0.04991010364 -4.999414096e-20 0.1652885884 -2.168812383e-20 -0.0007801090314)
(-0.1545051886 -0.05283556778 2.989540057e-20 0.1557284471 -5.857994056e-20 -0.001223258424)
(-0.1436681441 -0.05337779176 9.095630808e-20 0.1452910844 2.039945462e-20 -0.001622940357)
(-0.1326921632 -0.05250516573 5.849728057e-20 0.1346760017 4.002105634e-20 -0.001983838493)
(-0.1219378825 -0.05080034581 7.741179953e-20 0.1242462638 4.76490236e-20 -0.00230838124)
(-0.1115980557 -0.0486247172 1.368331589e-19 0.1141962065 3.368356046e-20 -0.00259815077)
(-0.1017598268 -0.04620379167 2.390899592e-20 0.1046131386 1.301693429e-19 -0.00285331182)
(-0.09246113078 -0.04368120273 -7.027244071e-20 0.09553465604 3.646451184e-20 -0.003073525255)
(-0.08370643856 -0.04114932619 -2.807369351e-20 0.08696392419 2.856047827e-20 -0.003257485629)
(-0.07548766732 -0.03866729351 4.646374945e-20 0.07889126062 -5.897822442e-21 -0.003403593304)
(-0.06778815009 -0.03627486445 7.084685552e-21 0.071297596 1.231236997e-20 -0.003509445906)
(-0.06059027308 -0.0339969371 2.970376137e-20 0.06416274112 1.093089274e-19 -0.003572468043)
(-0.05387767039 -0.03185260462 1.852717339e-19 0.05746708757 4.725519272e-20 -0.003589417181)
(-0.04763606949 -0.02985318817 1.770855244e-19 0.05119301309 6.407140991e-20 -0.003556943599)
(-0.04185691697 -0.02801075091 -1.524540483e-19 0.04532811455 -2.682988659e-19 -0.003471197581)
(-0.03653388359 -0.02633216983 -8.526843698e-20 0.03986213447 -1.37953457e-19 -0.003328250876)
(-0.03166912358 -0.0248288675 9.871020917e-20 0.03479302142 4.132327754e-20 -0.003123897845)
(-0.02726625845 -0.02350770728 3.875146392e-20 0.03012011692 6.420800538e-20 -0.002853858477)
(-0.0233398552 -0.02238286335 1.05948055e-19 0.02585364877 2.723418688e-20 -0.002513793573)
(-0.01990484571 -0.02146367489 9.627491913e-20 0.02200415647 1.649042588e-19 -0.002099310766)
(-0.01698985284 -0.0207691607 2.8004658e-19 0.01859600736 1.697757238e-19 -0.001606154516)
(-0.01462170006 -0.02031508454 1.205056359e-19 0.01565186477 -1.122137038e-20 -0.001030164713)
(-0.0128427151 -0.02012879956 -1.223023729e-19 0.01321031942 2.879654787e-19 -0.0003676043201)
(-0.16998523 -0.05234756544 -5.271515746e-20 0.1702673094 1.617899132e-20 -0.0002820793716)
(-0.16019188 -0.06014547211 -1.066555284e-19 0.1609594063 1.825730011e-20 -0.0007675262421)
(-0.1491089721 -0.06330700075 1.15657487e-20 0.1503125099 -2.734197338e-20 -0.00120353781)
(-0.1376978174 -0.06372787338 1.027474848e-19 0.1392946042 3.764666033e-20 -0.001596786835)
(-0.1264627128 -0.062528242 7.955060588e-20 0.128414605 1.029913535e-20 -0.001951892244)
(-0.1156470771 -0.06038102145 5.619947654e-20 0.1179183099 5.406603862e-21 -0.002271232714)
(-0.1053697055 -0.05770296921 1.782365853e-19 0.1079260739 1.041690312e-20 -0.00255636834)
(-0.09567012202 -0.05475353918 1.543970238e-19 0.09847758073 -4.541519905e-20 -0.002807458705)
(-0.08655519172 -0.05169765177 1.650628196e-20 0.08957935862 -1.599445891e-19 -0.0030241669)
(-0.07800852985 -0.04864098918 -5.04335041e-20 0.08121373551 1.279349188e-19 -0.003205205665)
(-0.07000821125 -0.04565098716 -3.635316344e-21 0.0733572094 5.681532938e-20 -0.003348998156)
(-0.06252773671 -0.04277276659 1.301173807e-20 0.06598091494 5.698779292e-20 -0.003453178226)
(-0.05554299495 -0.04003443738 3.640134756e-22 0.05905820418 1.145218919e-19 -0.00351520923)
(-0.04903247716 -0.03745749204 6.724671058e-20 0.05256437613 1.412398132e-19 -0.003531898974)
(-0.04297862362 -0.03505457611 4.388482834e-21 0.04647857465 -7.187200177e-21 -0.003499951031)
(-0.03736965652 -0.03283928884 -2.525028812e-19 0.04078523389 7.409450875e-20 -0.003415577373)
(-0.03219729669 -0.03081933852 4.894757608e-20 0.03547221189 3.248225205e-19 -0.003274915197)
(-0.02746107041 -0.02900778547 1.990753544e-19 0.03053489981 2.19474622e-19 -0.003073829397)
(-0.02316307044 -0.02741249598 1.282970384e-19 0.02597118278 2.117892058e-19 -0.002808112344)
(-0.01931513164 -0.02604990167 3.313469925e-20 0.02178862907 2.327301104e-19 -0.002473497432)
(-0.01593055793 -0.02493091828 1.352365826e-20 0.01799622074 3.180192855e-19 -0.002065662808)
(-0.01303473288 -0.02407779866 6.140809117e-20 0.01461515122 4.692870149e-19 -0.001580418341)
(-0.01065192899 -0.02350903037 3.890456422e-19 0.01166559343 3.54637459e-19 -0.001013664442)
(-0.008819939909 -0.02325664656 -1.518002807e-20 0.009181660276 4.243418436e-19 -0.0003617203672)
(-0.1670834057 -0.06162815997 -2.401365618e-20 0.1673599735 -2.758220066e-20 -0.000276567824)
(-0.1551483399 -0.06989537836 -1.145377641e-19 0.1559008755 4.040108494e-21 -0.0007525355599)
(-0.1428559903 -0.07306417779 -2.54252073e-20 0.1440360307 -3.710654833e-21 -0.001180040325)
(-0.130807305 -0.07323038574 1.376906706e-19 0.1323729258 -3.897086841e-20 -0.00156562081)
(-0.1192906209 -0.07163072408 1.02704217e-19 0.121204436 -8.564366297e-20 -0.001913815082)
(-0.1084165886 -0.06900659012 2.051654152e-20 0.1106435355 7.558990916e-20 -0.002226946892)
(-0.09822026738 -0.06581629723 9.897370082e-20 0.1007268169 5.61995757e-21 -0.002506549496)
(-0.08868730503 -0.0623442686 4.698267522e-20 0.09144008192 -2.214436337e-19 -0.002752776887)
(-0.07978942508 -0.05877081483 4.267272437e-20 0.08275472124 -7.807200245e-20 -0.002965296162)
(-0.07148667384 -0.05521092237 2.179091248e-19 0.07462951623 4.922179985e-20 -0.00314284239)
(-0.0637414927 -0.0517376524 -4.368316636e-21 0.06702536 -6.987045129e-21 -0.003283867298)
(-0.05651629275 -0.04839956171 2.540942781e-20 0.0599023409 1.383846123e-19 -0.003386048148)
(-0.0497796405 -0.04522668751 7.817179793e-20 0.05322653583 2.29314612e-19 -0.003446895332)
(-0.04350423484 -0.04224190018 1.059190454e-19 0.0469675112 1.827347022e-19 -0.00346327636)
(-0.03766881697 -0.03945851096 1.983681181e-19 0.04110077474 1.083402865e-20 -0.003431957762)
(-0.0322579743 -0.03689101968 9.613389043e-21 0.03560719896 2.524579715e-19 -0.003349224655)
(-0.0272612316 -0.03454758138 5.165521281e-20 0.03047252209 7.915323796e-20 -0.003211290497)
(-0.02267514469 -0.03244239422 6.614464115e-20 0.02568924835 1.139620933e-21 -0.003014103666)
(-0.01850007793 -0.03058404209 2.227229908e-19 0.02125361949 -1.389967824e-20 -0.002753541561)
(-0.01474476484 -0.02899071847 3.527215944e-19 0.01717018901 5.37029829e-20 -0.00242542417)
(-0.01142065646 -0.02767463831 5.944440703e-19 0.01344617131 -6.282299132e-21 -0.002025514849)
(-0.00854945012 -0.02666072814 4.451841486e-19 0.01009915288 3.915437159e-19 -0.001549702765)
(-0.006152499991 -0.02596976377 4.191814463e-19 0.007146463489 2.855062636e-19 -0.0009939634986)
(-0.004262440184 -0.02563767601 -1.109361322e-19 0.004617128957 -3.925834142e-20 -0.0003546887732)
(-0.1636914884 -0.07078374401 -1.132757174e-20 0.1639616779 -6.11053293e-21 -0.0002701894933)
(-0.1494465074 -0.07909599315 -8.290736979e-20 0.1501816919 -1.899117058e-20 -0.0007351845425)
(-0.1358576755 -0.0820187505 -3.429767511e-20 0.1370105149 -7.863786105e-20 -0.0011528394)
(-0.1231335497 -0.08178300615 7.496792423e-20 0.1246630889 -9.915314122e-20 -0.001529539159)
(-0.1113273965 -0.07970295242 1.80694462e-19 0.1131971218 -5.963377131e-20 -0.001869725286)
(-0.1004054646 -0.07656427212 1.156194915e-19 0.1025811254 1.001508578e-19 -0.002175660871)
(-0.09031178877 -0.07285149194 -1.761834396e-20 0.09276063632 -8.354689277e-21 -0.00244884755)
(-0.08097350255 -0.06886403814 1.578101359e-20 0.08366293639 -1.154997191e-19 -0.002689433838)
(-0.07232418686 -0.06479106469 2.895802626e-20 0.07522127891 1.260924688e-19 -0.002897092048)
(-0.0642983324 -0.0607524197 7.891817766e-20 0.06736891682 3.37368199e-20 -0.003070584421)
(-0.05684144745 -0.05682381663 8.626499033e-20 0.06004984363 7.934689045e-20 -0.003208396177)
(-0.0499039465 -0.05305511336 2.380684513e-19 0.05321220259 1.136853537e-19 -0.003308256095)
(-0.04344648673 -0.04947684909 1.073895356e-19 0.0468142159 1.630337889e-19 -0.003367729164)
(-0.03743551242 -0.04611214005 -6.073797887e-20 0.04081926503 6.293668122e-20 -0.003383752606)
(-0.03184577633 -0.04297423133 5.666567294e-20 0.03519894205 5.760042065e-20 -0.003353165719)
(-0.02665793789 -0.04007781927 5.282637135e-20 0.02993027546 4.885412085e-20 -0.003272337565)
(-0.0218591503 -0.03743107776 -7.535222897e-20 0.02499671983 -4.324550583e-20 -0.003137569529)
(-0.01744274651 -0.03504879042 1.211481321e-19 0.02038765157 -8.651231128e-20 -0.002944905069)
(-0.01340721375 -0.03293994321 1.413198898e-19 0.01609753338 -1.223213955e-19 -0.002690319635)
(-0.009757904443 -0.03112394372 -1.843970395e-21 0.01212763739 -1.137751591e-19 -0.002369732948)
(-0.006504243034 -0.02961399482 3.604991789e-19 0.008483250595 1.268932421e-21 -0.001979007561)
(-0.003663890569 -0.02843707108 9.011757234e-19 0.005178015877 -4.260012042e-20 -0.001514125308)
(-0.001254996214 -0.02761575139 6.517018007e-19 0.002226145418 -3.327101885e-19 -0.0009711492039)
(0.0006954594487 -0.02718899731 3.166512968e-20 -0.0003489077375 -1.792414728e-19 -0.0003465517112)
(-0.1598081163 -0.07979050131 4.803920955e-20 0.1600710806 -8.791766873e-20 -0.0002629642064)
(-0.1431619035 -0.08769452579 -7.489877884e-20 0.1438774311 -9.66910017e-20 -0.0007155275961)
(-0.1282361629 -0.09010108291 -2.42691461e-20 0.1293581833 -1.91494283e-19 -0.001122020435)
(-0.1148264618 -0.08930673645 -5.195537649e-21 0.1163151169 5.224778298e-20 -0.001488655086)
(-0.1027387883 -0.08666125691 1.78505265e-19 0.1045585501 2.884248069e-20 -0.001819761799)
(-0.09178762746 -0.08296869384 2.077583697e-19 0.09390516396 2.716723368e-20 -0.002117536499)
(-0.08182141605 -0.07872335364 -1.505931556e-20 0.08420486105 -3.820839909e-20 -0.002383444999)
(-0.0727059047 -0.07422899757 -2.067799809e-20 0.07532353469 4.021781403e-21 -0.002617629986)
(-0.06433469446 -0.06967661464 1.460052252e-19 0.06715446521 1.071091313e-19 -0.00281977075)
(-0.05661552987 -0.06518616166 6.592921436e-20 0.05960419061 1.759207824e-19 -0.002988660744)
(-0.04947621801 -0.06083282416 1.803383725e-20 0.05259904232 5.335089833e-20 -0.003122824309)
(-0.04285465599 -0.05666547865 1.631039814e-19 0.04607470472 8.039604101e-20 -0.003220048734)
(-0.03670326075 -0.05271364368 2.804863422e-19 0.03998122238 1.213764457e-19 -0.003277961628)
(-0.03098196592 -0.04899947109 8.138714882e-20 0.03427554499 8.343603209e-20 -0.003293579072)
(-0.02566137939 -0.04553535879 1.144207863e-19 0.02892520158 1.573675623e-19 -0.003263822187)
(-0.02071806731 -0.0423354452 3.229694186e-20 0.02390322246 1.183834992e-19 -0.003185155149)
(-0.01613671348 -0.03940746616 -1.345825923e-19 0.01919069074 3.311578481e-20 -0.003053977261)
(-0.01190727398 -0.03676619788 -2.560199233e-19 0.0147737139 1.295516262e-19 -0.002866439913)
(-0.008026265239 -0.03442069273 3.268576211e-20 0.01064489372 2.223164783e-19 -0.002618628485)
(-0.004495476361 -0.03239098648 1.859689299e-19 0.006802052647 2.465409701e-19 -0.002306576287)
(-0.001322184464 -0.03069093829 9.60375156e-20 0.00324844356 2.421905212e-19 -0.001926259096)
(0.001480227269 -0.02934889887 -4.812043027e-20 -6.462341176e-06 -5.280322462e-20 -0.001473764928)
(0.003897018968 -0.02838872947 4.333925936e-19 -0.00295175992 -2.594057971e-19 -0.0009452590481)
(0.005907210042 -0.02785149272 3.018812182e-19 -0.005569900359 -3.40088229e-19 -0.0003373096827)
(-0.1554327952 -0.08862300321 8.669362037e-20 0.1556877091 -7.751619519e-20 -0.000254913937)
(-0.1363750582 -0.09565005937 -4.909978101e-21 0.1370686838 -1.772053336e-19 -0.0006936255976)
(-0.1201210747 -0.09726163503 -8.027110691e-20 0.121208754 -3.53614636e-21 -0.001087679369)
(-0.1060448915 -0.09574761287 5.226502757e-20 0.1074879876 1.459695085e-19 -0.001443096089)
(-0.09370028562 -0.0924498561 9.587102259e-20 0.09546436627 3.941948643e-20 -0.001764080645)
(-0.08274712624 -0.0881638828 2.43833531e-19 0.08479988164 -3.658759694e-20 -0.002052755394)
(-0.07293654159 -0.08337673076 4.318244359e-20 0.07524708742 -4.581793359e-20 -0.002310545828)
(-0.0640718959 -0.07838543153 3.342070134e-22 0.06660948479 3.123794973e-20 -0.002537588884)
(-0.05600620319 -0.0733755443 1.658327818e-19 0.0587397752 1.164219975e-19 -0.002733572008)
(-0.04862010741 -0.06846220862 1.367269037e-19 0.05151743186 1.410753673e-19 -0.002897324446)
(-0.04182350981 -0.06371678848 -2.194951923e-20 0.04485092424 4.934491355e-20 -0.003027414429)
(-0.03554167299 -0.05918481608 1.896250417e-19 0.03866336854 1.149557754e-19 -0.003121695548)
(-0.02971871504 -0.05489321385 3.171888527e-19 0.03289658061 -3.335780324e-20 -0.003177865568)
(-0.02430801772 -0.05086191783 2.238392828e-19 0.02750104677 -1.723154186e-19 -0.003193029051)
(-0.01927602825 -0.04710167048 2.830193237e-19 0.022440227 -8.229791355e-20 -0.003164198748)
(-0.01459518853 -0.04362527253 1.845596244e-19 0.0176831326 -9.478185741e-20 -0.003087944073)
(-0.01024769726 -0.04043954786 5.772717761e-20 0.01320847091 -4.115101868e-20 -0.002960773642)
(-0.006220084531 -0.03755865163 2.723127434e-19 0.008999041933 -3.487118634e-20 -0.002778957402)
(-0.002506861789 -0.03499135306 -6.751243551e-20 0.005045564761 2.401800652e-19 -0.002538702973)
(0.0008938266681 -0.03275770896 -1.477668836e-20 0.001342342644 1.867240741e-19 -0.002236169312)
(0.003976913208 -0.03087188927 1.672361155e-19 -0.002109455275 3.216115454e-19 -0.001867457933)
(0.006733420477 -0.02936292246 -1.779354778e-19 -0.005304644207 2.804898412e-19 -0.00142877627)
(0.00915212844 -0.0282554072 -4.445518734e-19 -0.008235725395 -2.152796754e-19 -0.0009164030451)
(0.01121824043 -0.0275915327 1.732411315e-19 -0.01089122762 -1.079498351e-19 -0.0003270128161)
(-0.1505662784 -0.09725419427 3.687279417e-20 0.1508123426 -4.980707901e-21 -0.0002460642025)
(-0.1291695434 -0.1029340737 -7.813392815e-21 0.1298390911 -4.803794753e-20 -0.0006695477121)
(-0.1116461314 -0.1034718051 -6.601280001e-20 0.1126960563 1.771080226e-19 -0.001049924962)
(-0.09695238128 -0.1010777397 4.699476904e-20 0.0983453879 8.230949581e-20 -0.001393006621)
(-0.0843923723 -0.09704199938 2.332540807e-20 0.08609523114 5.50437007e-21 -0.001702858834)
(-0.07347312118 -0.09212446791 2.715316761e-19 0.07545464497 -1.099989549e-19 -0.001981523793)
(-0.0638496685 -0.08678774023 1.508220338e-19 0.06608005106 -8.456674279e-20 -0.002230382569)
(-0.05526389845 -0.08131097984 1.589796276e-19 0.05771346446 -1.261607106e-19 -0.002449566007)
(-0.04752888755 -0.07586700396 3.230273594e-19 0.05016765884 -3.952418063e-20 -0.002638771298)
(-0.04049868233 -0.07056118157 3.553769084e-19 0.04329554958 -9.082694705e-20 -0.002796867246)
(-0.03406564734 -0.06545774388 2.975609654e-20 0.03698811852 -3.287580801e-20 -0.002922471176)
(-0.02814270941 -0.06059650568 3.05125723e-20 0.03115621898 1.807825737e-20 -0.003013509567)
(-0.02266590564 -0.05600021196 9.241489895e-20 0.02573366344 -7.603602052e-20 -0.003067757804)
(-0.01758224696 -0.05168532695 2.271230842e-20 0.02066466486 -9.125300923e-20 -0.003082417899)
(-0.01285414714 -0.04766012783 8.440736016e-20 0.01590875023 2.024228371e-19 -0.003054603089)
(-0.008450030847 -0.04393529406 6.122304343e-20 0.01143103036 1.931466656e-19 -0.002980999509)
(-0.004349679532 -0.04051626295 -1.078641371e-19 0.007207914924 -6.492479815e-20 -0.002858235392)
(-0.0005362546431 -0.03741595045 1.130920766e-19 0.003218966865 -1.876931844e-20 -0.002682712222)
(0.002997711825 -0.03464249131 5.064514338e-19 -0.0005469403274 3.743658761e-19 -0.002450771498)
(0.006257698794 -0.03221535044 2.563703554e-19 -0.004098988273 2.161600709e-19 -0.002158710521)
(0.009240854872 -0.03014866069 6.302143333e-19 -0.007438086198 6.509385182e-20 -0.001802768674)
(0.01194261849 -0.02847142293 2.177610104e-19 -0.01056333466 -4.525141661e-19 -0.001379283831)
(0.01435531262 -0.02720842397 -4.945349394e-19 -0.01347065277 -4.586900197e-19 -0.0008846598509)
(0.01647035183 -0.02640199807 -9.180150603e-20 -0.01615466616 2.863266991e-20 -0.000315685664)
(-0.1452109185 -0.1056554635 2.078192586e-20 0.145447361 5.584475891e-20 -0.000236442486)
(-0.1216299543 -0.1095306301 -8.246189658e-21 0.1222733236 7.397923456e-20 -0.0006433693344)
(-0.1029456759 -0.1087241865 -5.412791294e-20 0.1039545517 1.831582941e-19 -0.001008875864)
(-0.08771281303 -0.1052955872 4.094505361e-20 0.08905135742 1.270129964e-20 -0.001338544393)
(-0.07499566603 -0.1004402871 -6.615146508e-20 0.07663195533 -4.912467597e-20 -0.001636289301)
(-0.06415475344 -0.09485600795 1.104114181e-19 0.0660588198 -5.292011734e-20 -0.001904066364)
(-0.05475316486 -0.08896409954 1.082636092e-19 0.0568963728 -8.256363069e-20 -0.002143207935)
(-0.0464741091 -0.08301496662 -6.796424349e-20 0.04882794786 -6.772377643e-20 -0.002353838761)
(-0.03909262525 -0.07716153995 1.418891428e-19 0.04162829211 5.793193238e-21 -0.002535666861)
(-0.03243751614 -0.07149458088 3.216261283e-19 0.03512512096 7.124358693e-21 -0.002687604818)
(-0.02638455076 -0.06606795778 2.916168049e-19 0.02919287433 -1.503840104e-20 -0.002808323571)
(-0.0208350288 -0.06091345459 1.198635119e-19 0.02373085856 9.566732838e-20 -0.002895829752)
(-0.01571740073 -0.05604809898 7.61064944e-20 0.01866538441 9.014292596e-20 -0.00294798368)
(-0.0109727057 -0.0514836608 2.287440579e-19 0.01393479945 8.907681784e-20 -0.002962093758)
(-0.006559594182 -0.04722516396 4.354665312e-19 0.009494977414 2.800782238e-19 -0.002935383232)
(-0.002442717542 -0.04328040416 3.204187502e-19 0.005307381824 -1.876365289e-19 -0.002864664282)
(0.001400407776 -0.03965296963 -9.52824209e-20 0.001346287939 -3.330622148e-19 -0.002746695715)
(0.004989823937 -0.03635393416 1.274677541e-19 -0.002411803603 3.503184643e-20 -0.002578020334)
(0.008334891174 -0.03339045406 5.805587042e-19 -0.005979765952 -1.055646506e-19 -0.002355125222)
(0.01144458702 -0.03078080134 1.422992554e-19 -0.009370129902 -4.08938229e-19 -0.002074457117)
(0.01431822561 -0.02853872952 -5.63364523e-21 -0.01258582056 -4.898167797e-19 -0.00173240505)
(0.01695555634 -0.02669251926 2.061948024e-19 -0.01563010691 -6.295787044e-19 -0.001325449437)
(0.01935237493 -0.02526660407 -2.584402664e-19 -0.01850224471 -7.637314103e-20 -0.0008501302261)
(0.02150616638 -0.0243024933 4.704829982e-20 -0.02120280338 1.8719413e-19 -0.0003033630061)
(-0.1393710342 -0.113796774 1.384247968e-20 0.1395971136 8.320500149e-20 -0.0002260794752)
(-0.1138398925 -0.1154362299 5.204727281e-20 0.1144550661 7.329883496e-20 -0.0006151735411)
(-0.09415120688 -0.1130322548 -5.099253686e-20 0.09511586938 1.473401892e-19 -0.0009646625037)
(-0.07848606712 -0.1084255727 9.14428101e-20 0.07976594978 -1.138628919e-19 -0.001279882659)
(-0.065686069 -0.1026761873 -5.690533301e-20 0.06725065326 -6.729935885e-20 -0.001564584261)
(-0.05497602294 -0.0963944721 2.230417258e-20 0.05679665341 5.324171996e-20 -0.001820630473)
(-0.04583402111 -0.08994458618 1.610424489e-19 0.0478833221 -8.494183254e-21 -0.00204930099)
(-0.03788923494 -0.08353785148 3.911554485e-20 0.04013994903 2.854199865e-20 -0.002250714088)
(-0.03088177334 -0.07730054278 7.384587712e-21 0.03330636328 1.366796833e-19 -0.002424589943)
(-0.02461737127 -0.07130423709 9.795282674e-20 0.02718725957 1.442437038e-19 -0.002569888303)
(-0.01895669379 -0.06558938559 1.959663158e-19 0.02164203212 2.820087116e-20 -0.002685338322)
(-0.01379052066 -0.06017755758 2.822603787e-19 0.0165595536 7.869126044e-20 -0.002769032936)
(-0.009040474783 -0.05507861112 2.291260218e-19 0.01185939911 -2.089076371e-19 -0.002818924328)
(-0.004642235224 -0.05029846955 -4.670774522e-20 0.007474671507 -5.072651163e-20 -0.002832436283)
(-0.0005510955745 -0.04583816225 3.445273894e-19 0.003358006396 -2.110030537e-19 -0.002806910822)
(0.00327169087 -0.04170188187 1.10402147e-19 -0.0005323932712 -3.986535996e-19 -0.002739297599)
(0.006850641058 -0.03789093261 2.10118854e-20 -0.004224145124 -2.100211909e-19 -0.002626495934)
(0.01020873355 -0.03441397528 -9.50701269e-20 -0.007743531968 -6.480915651e-20 -0.00246520158)
(0.0133570752 -0.03127686208 1.384375018e-19 -0.01110501764 5.522368859e-20 -0.002252057565)
(0.01630791678 -0.0284960999 2.800582912e-19 -0.01432424615 -1.619988771e-19 -0.001983670632)
(0.01906263189 -0.02608473527 -9.416273395e-20 -0.01740604173 4.420625089e-21 -0.001656590156)
(0.0216250627 -0.02406966697 -3.249920449e-20 -0.02035761376 3.222376269e-21 -0.001267448937)