/*--------------------------------*- C++ -*----------------------------------*\
| =========                 |                                                 |
| \\      /  F ield         | OpenFOAM: The Open Source CFD Toolbox           |
|  \\    /   O peration     | Version:  2.2.0                                 |
|   \\  /    A nd           | Web:      www.OpenFOAM.org                      |
|    \\/     M anipulation  |                                                 |
\*---------------------------------------------------------------------------*/
FoamFile
{
    version     2.0;
    format      ascii;
    class       volScalarField;
    location    "4";
    object      Theta;
}
// * * * * * * * * * * * * * * * * * * * * * * * * * * * * * * * * * * * * * //

dimensions      [0 2 -2 0 0 0 0];

internalField   nonuniform List<scalar> 
7920
(
2.70085
2.84403
2.98179
3.13223
3.29343
3.48083
3.5997
4.17879
2.67628
2.80499
2.92807
3.0595
3.19786
3.3404
3.4638
3.70028
2.6421
2.7604
2.87218
2.99078
3.11507
3.23754
3.36242
3.48357
2.59966
2.70915
2.8095
2.91586
3.02572
3.13081
3.23777
3.30249
2.55544
2.66229
2.75541
2.85545
2.95805
3.05602
3.15368
3.20416
2.52484
2.63235
2.72193
2.81951
2.91915
3.01444
3.10751
3.15391
2.52484
2.63235
2.72193
2.81951
2.91914
3.01444
3.10751
3.15391
2.55544
2.66229
2.7554
2.85544
2.95803
3.05601
3.15367
3.20416
2.59966
2.70915
2.80949
2.91584
3.0257
3.13079
3.23777
3.3025
2.6421
2.76039
2.87216
2.99076
3.11504
3.23752
3.36242
3.48358
2.67627
2.805
2.92806
3.05948
3.19781
3.34035
3.46377
3.70024
2.70087
2.84401
2.9818
3.13225
3.29347
3.48085
3.59972
4.17878
2.25856
2.36356
2.39216
2.45732
2.52177
2.60003
2.67326
2.85295
2.27232
2.36561
2.39191
2.4501
2.50676
2.56999
2.64301
2.71183
2.29141
2.37079
2.39581
2.44749
2.49738
2.55087
2.61578
2.65071
2.31983
2.3811
2.40545
2.45022
2.49338
2.53867
2.5939
2.61324
2.35281
2.39483
2.41906
2.45759
2.49516
2.53432
2.58149
2.59441
2.37685
2.40531
2.42949
2.46392
2.49802
2.53359
2.57599
2.58673
2.37685
2.40531
2.42949
2.46392
2.49802
2.53359
2.57599
2.58672
2.35281
2.39483
2.41906
2.45759
2.49516
2.53432
2.58148
2.5944
2.31983
2.3811
2.40545
2.45022
2.49337
2.53866
2.5939
2.61323
2.29141
2.37079
2.39581
2.44748
2.49736
2.55085
2.61577
2.65069
2.27232
2.36561
2.39191
2.45008
2.50674
2.56995
2.64298
2.7118
2.25857
2.36356
2.39216
2.45733
2.5218
2.60005
2.67328
2.85293
2.16478
2.17489
2.19443
2.21412
2.23816
2.26556
2.3
2.33563
2.16494
2.17553
2.19172
2.20839
2.22828
2.24929
2.27965
2.27929
2.16532
2.17764
2.19034
2.20441
2.22068
2.2374
2.26094
2.25682
2.16715
2.18229
2.19158
2.20361
2.21712
2.23104
2.25036
2.24774
2.1703
2.18837
2.19453
2.20487
2.21615
2.22795
2.24402
2.24279
2.1731
2.19296
2.19709
2.20638
2.21634
2.22695
2.24128
2.24115
2.1731
2.19296
2.19709
2.20638
2.21634
2.22695
2.24127
2.24114
2.1703
2.18837
2.19453
2.20487
2.21616
2.22795
2.24401
2.24278
2.16715
2.18229
2.19159
2.20361
2.21712
2.23103
2.25035
2.24772
2.16532
2.17764
2.19034
2.20441
2.22068
2.23739
2.26093
2.2568
2.16493
2.17553
2.19172
2.20838
2.22827
2.24926
2.27962
2.27926
2.16478
2.17488
2.19444
2.21413
2.23818
2.26557
2.30001
2.33562
2.07434
2.09002
2.09545
2.10586
2.11732
2.13068
2.14919
2.16058
2.07735
2.09132
2.09585
2.10478
2.11434
2.12486
2.14052
2.13847
2.08156
2.09369
2.09747
2.10508
2.11306
2.1217
2.13382
2.13232
2.08743
2.09758
2.1008
2.10736
2.11419
2.12169
2.13193
2.13245
2.09394
2.10208
2.1048
2.11038
2.11623
2.12274
2.13151
2.13309
2.09853
2.10528
2.10764
2.11259
2.11782
2.12375
2.13171
2.13388
2.09853
2.10528
2.10765
2.11259
2.11782
2.12375
2.13171
2.13387
2.09394
2.10208
2.1048
2.11038
2.11623
2.12274
2.13151
2.13308
2.08743
2.09758
2.10081
2.10736
2.11419
2.12168
2.13192
2.13244
2.08157
2.09369
2.09747
2.10508
2.11305
2.1217
2.13381
2.13231
2.07735
2.09132
2.09585
2.10477
2.11433
2.12485
2.1405
2.13845
2.07435
2.09001
2.09545
2.10587
2.11734
2.1307
2.1492
2.16059
2.03989
2.04368
2.04694
2.05106
2.05595
2.06155
2.06981
2.07284
2.04029
2.04399
2.04666
2.05015
2.05417
2.05851
2.06522
2.06293
2.0409
2.04471
2.04683
2.04982
2.05314
2.0567
2.06178
2.06034
2.04197
2.04605
2.04771
2.05035
2.05325
2.05639
2.06073
2.06063
2.04337
2.04766
2.0489
2.05124
2.05378
2.05659
2.06037
2.06102
2.04444
2.04883
2.0498
2.05194
2.05426
2.05688
2.06037
2.06141
2.04444
2.04883
2.0498
2.05194
2.05426
2.05688
2.06037
2.06141
2.04337
2.04766
2.04891
2.05124
2.05378
2.05659
2.06037
2.06102
2.04198
2.04605
2.04771
2.05035
2.05325
2.05639
2.06072
2.06063
2.0409
2.04471
2.04683
2.04982
2.05314
2.05669
2.06177
2.06033
2.04029
2.04399
2.04666
2.05015
2.05416
2.0585
2.0652
2.06292
2.03989
2.04367
2.04694
2.05107
2.05596
2.06156
2.06981
2.07285
2.01666
2.01967
2.02078
2.02272
2.02492
2.02748
2.03118
2.03257
2.01721
2.01997
2.02087
2.02253
2.02434
2.02634
2.02932
2.02855
2.01796
2.0205
2.02122
2.02264
2.02416
2.02582
2.02811
2.02776
2.019
2.02132
2.02191
2.02316
2.02448
2.02596
2.02792
2.02814
2.02014
2.02224
2.02271
2.0238
2.02496
2.02627
2.028
2.0285
2.02094
2.02289
2.02326
2.02425
2.02531
2.02652
2.02812
2.02876
2.02094
2.02289
2.02327
2.02426
2.02531
2.02652
2.02812
2.02876
2.02014
2.02225
2.02271
2.0238
2.02496
2.02627
2.028
2.0285
2.019
2.02132
2.02191
2.02316
2.02448
2.02595
2.02792
2.02813
2.01796
2.0205
2.02122
2.02264
2.02416
2.02582
2.02811
2.02775
2.01721
2.01997
2.02087
2.02253
2.02434
2.02634
2.02931
2.02854
2.01666
2.01967
2.02078
2.02273
2.02493
2.02748
2.03119
2.03258
2.00759
2.00855
2.00911
2.00991
2.01084
2.01192
2.01347
2.01401
2.00771
2.00864
2.0091
2.00979
2.01057
2.01143
2.01267
2.01241
2.00789
2.00881
2.00919
2.00979
2.01046
2.01119
2.01216
2.0121
2.00816
2.00909
2.00941
2.00995
2.01055
2.01121
2.01207
2.01226
2.00848
2.00942
2.00967
2.01016
2.0107
2.01131
2.01209
2.01241
2.00872
2.00965
2.00986
2.01032
2.01082
2.01139
2.01213
2.01251
2.00872
2.00965
2.00986
2.01032
2.01082
2.01139
2.01213
2.01251
2.00848
2.00942
2.00967
2.01017
2.0107
2.01131
2.01209
2.0124
2.00816
2.00909
2.00941
2.00995
2.01055
2.01121
2.01207
2.01226
2.00789
2.00881
2.00919
2.00979
2.01046
2.01119
2.01216
2.0121
2.00771
2.00864
2.0091
2.00979
2.01057
2.01142
2.01267
2.0124
2.00759
2.00855
2.00911
2.00991
2.01084
2.01192
2.01347
2.01401
2.00277
2.00329
2.00349
2.00382
2.00419
2.00462
2.00523
2.00548
2.00286
2.00335
2.00351
2.0038
2.00411
2.00446
2.00495
2.00491
2.00297
2.00344
2.00357
2.00383
2.0041
2.0044
2.00479
2.00483
2.00312
2.00357
2.00369
2.00392
2.00416
2.00444
2.00479
2.00491
2.00329
2.00372
2.00381
2.00402
2.00424
2.0045
2.00482
2.00498
2.00341
2.00383
2.0039
2.00409
2.0043
2.00454
2.00484
2.00503
2.00341
2.00383
2.0039
2.00409
2.0043
2.00454
2.00484
2.00503
2.00329
2.00372
2.00382
2.00402
2.00424
2.0045
2.00482
2.00498
2.00312
2.00357
2.00369
2.00392
2.00416
2.00444
2.00479
2.00491
2.00297
2.00344
2.00357
2.00383
2.0041
2.0044
2.00479
2.00483
2.00286
2.00335
2.00351
2.0038
2.00411
2.00446
2.00495
2.00491
2.00277
2.00329
2.00349
2.00382
2.00419
2.00463
2.00523
2.00548
2.00105
2.0012
2.00127
2.00139
2.00152
2.00167
2.00188
2.00197
2.00108
2.00121
2.00128
2.00138
2.00149
2.00162
2.00179
2.00179
2.00111
2.00124
2.0013
2.00139
2.00149
2.0016
2.00174
2.00177
2.00115
2.00129
2.00134
2.00142
2.00151
2.00162
2.00175
2.00181
2.0012
2.00134
2.00138
2.00146
2.00154
2.00164
2.00176
2.00183
2.00124
2.00137
2.00141
2.00148
2.00156
2.00165
2.00177
2.00185
2.00124
2.00137
2.00141
2.00148
2.00156
2.00165
2.00177
2.00185
2.0012
2.00134
2.00138
2.00146
2.00154
2.00164
2.00176
2.00183
2.00115
2.00129
2.00134
2.00142
2.00151
2.00162
2.00175
2.00181
2.00111
2.00124
2.0013
2.00139
2.00149
2.0016
2.00174
2.00177
2.00108
2.00121
2.00128
2.00138
2.00149
2.00162
2.00179
2.00179
2.00105
2.0012
2.00127
2.00139
2.00152
2.00167
2.00188
2.00197
2.00001
2.00011
2.00012
2.00014
2.00016
2.00019
2.00023
2.00026
2.00001
2.00011
2.00011
2.00013
2.00016
2.00018
2.00022
2.00022
2
2.00011
2.00011
2.00013
2.00015
2.00018
2.0002
2.00022
1.99999
2.00011
2.00011
2.00013
2.00015
2.00017
2.0002
2.00022
1.99999
2.00012
2.00011
2.00013
2.00015
2.00017
2.0002
2.00022
1.99998
2.00012
2.00011
2.00013
2.00015
2.00017
2.0002
2.00022
1.99998
2.00012
2.00011
2.00013
2.00015
2.00017
2.0002
2.00022
1.99999
2.00012
2.00011
2.00013
2.00015
2.00017
2.0002
2.00022
1.99999
2.00011
2.00011
2.00013
2.00015
2.00017
2.0002
2.00022
2
2.00011
2.00011
2.00013
2.00015
2.00018
2.0002
2.00022
2.00001
2.00011
2.00011
2.00013
2.00016
2.00018
2.00021
2.00022
2.00001
2.00011
2.00012
2.00014
2.00016
2.00019
2.00023
2.00026
2.00011
1.99977
1.99979
1.99973
1.99968
1.99961
1.99951
1.99947
2.00013
1.99978
1.99981
1.99976
1.99971
1.99966
1.99959
1.99961
2.00016
1.99979
1.99983
1.99978
1.99974
1.9997
1.99964
1.99966
2.00019
1.99979
1.99984
1.9998
1.99976
1.99972
1.99967
1.99967
2.00022
1.99979
1.99985
1.99981
1.99977
1.99973
1.99969
1.99967
2.00024
1.99979
1.99985
1.99981
1.99978
1.99974
1.99969
1.99967
2.00024
1.99979
1.99985
1.99981
1.99978
1.99974
1.99969
1.99967
2.00022
1.99979
1.99985
1.99981
1.99977
1.99973
1.99969
1.99967
2.00019
1.99979
1.99984
1.9998
1.99976
1.99972
1.99967
1.99967
2.00016
1.99979
1.99983
1.99978
1.99974
1.9997
1.99964
1.99966
2.00013
1.99978
1.99981
1.99976
1.99971
1.99966
1.99959
1.99961
2.00011
1.99977
1.99979
1.99973
1.99968
1.99961
1.99951
1.99947
1.99645
1.99699
1.99664
1.99641
1.99611
1.99576
1.99528
1.99506
1.99633
1.99694
1.99659
1.99639
1.99612
1.99583
1.99543
1.99538
1.99615
1.99685
1.9965
1.99633
1.99609
1.99583
1.9955
1.9954
1.99592
1.99672
1.99637
1.99622
1.996
1.99576
1.99546
1.99531
1.99568
1.99657
1.99623
1.9961
1.99591
1.99569
1.99542
1.99524
1.99551
1.99648
1.99613
1.99602
1.99584
1.99564
1.99538
1.9952
1.99551
1.99648
1.99613
1.99602
1.99584
1.99564
1.99538
1.9952
1.99568
1.99657
1.99623
1.9961
1.99591
1.99569
1.99542
1.99524
1.99592
1.99672
1.99637
1.99622
1.996
1.99576
1.99546
1.99531
1.99615
1.99685
1.9965
1.99633
1.99609
1.99583
1.9955
1.9954
1.99633
1.99694
1.99659
1.99639
1.99612
1.99583
1.99543
1.99538
1.99645
1.997
1.99664
1.99641
1.99611
1.99576
1.99528
1.99506
2.00019
1.99608
1.99669
1.99607
1.99559
1.99499
1.99404
1.99381
2.00029
1.99607
1.99682
1.99629
1.99595
1.99555
1.99482
1.99553
2.00044
1.99602
1.99691
1.99644
1.99621
1.99594
1.99545
1.99607
2.00061
1.9959
1.99692
1.99649
1.99632
1.9961
1.99573
1.99614
2.00077
1.99575
1.9969
1.99649
1.99636
1.99618
1.99588
1.99615
2.00086
1.99564
1.99688
1.99647
1.99636
1.9962
1.99594
1.99613
2.00086
1.99564
1.99688
1.99647
1.99636
1.9962
1.99594
1.99613
2.00077
1.99575
1.9969
1.99648
1.99636
1.99618
1.99588
1.99615
2.00061
1.9959
1.99692
1.99649
1.99632
1.9961
1.99573
1.99614
2.00044
1.99602
1.99691
1.99644
1.99621
1.99594
1.99546
1.99607
2.00029
1.99607
1.99682
1.99629
1.99595
1.99555
1.99482
1.99553
2.00019
1.99608
1.99669
1.99607
1.99558
1.99499
1.99404
1.99381
1.96529
1.96542
1.95936
1.95402
1.94755
1.94033
1.9313
1.92357
1.96437
1.96501
1.95922
1.95433
1.94845
1.94212
1.93396
1.93089
1.96304
1.96426
1.9587
1.95425
1.94888
1.94318
1.93615
1.93328
1.9611
1.963
1.9576
1.95352
1.94854
1.94325
1.93687
1.93357
1.95885
1.96151
1.95626
1.95253
1.94789
1.94295
1.9371
1.93354
1.95722
1.96043
1.95529
1.95179
1.94737
1.94264
1.93709
1.93335
1.95722
1.96043
1.95529
1.95179
1.94737
1.94264
1.93709
1.93335
1.95885
1.96151
1.95626
1.95253
1.94789
1.94295
1.9371
1.93354
1.9611
1.963
1.9576
1.95352
1.94854
1.94325
1.93687
1.93357
1.96304
1.96426
1.9587
1.95425
1.94888
1.94319
1.93615
1.93328
1.96437
1.96501
1.95922
1.95433
1.94845
1.94213
1.93397
1.9309
1.96529
1.96543
1.95936
1.95402
1.94754
1.94032
1.9313
1.92357
1.97592
1.97165
1.96779
1.96324
1.95807
1.95232
1.94512
1.93909
1.97539
1.97141
1.96791
1.96382
1.95925
1.9544
1.94799
1.9467
1.97462
1.97091
1.96776
1.96409
1.96005
1.95583
1.9505
1.94947
1.97346
1.96999
1.96714
1.96381
1.96016
1.95633
1.95164
1.95016
1.97208
1.96888
1.96629
1.96327
1.95994
1.95642
1.95222
1.95043
1.97106
1.96806
1.96566
1.96283
1.9597
1.95636
1.95242
1.95041
1.97106
1.96806
1.96566
1.96283
1.9597
1.95636
1.95242
1.95041
1.97208
1.96888
1.96629
1.96327
1.95994
1.95642
1.95222
1.95043
1.97346
1.96999
1.96714
1.96381
1.96016
1.95633
1.95164
1.95016
1.97462
1.97091
1.96776
1.96409
1.96005
1.95583
1.9505
1.94947
1.97539
1.97141
1.96791
1.96382
1.95925
1.95441
1.94799
1.9467
1.97592
1.97165
1.96779
1.96324
1.95807
1.95231
1.94511
1.93909
2.74136
2.89383
3.04221
3.20355
3.37625
3.57465
3.70517
4.28854
2.73258
2.87125
3.00676
3.15014
3.3008
3.45401
3.59186
3.8192
2.72154
2.84963
2.9755
3.10624
3.24206
3.37292
3.50696
3.61271
2.71114
2.82869
2.94489
3.06303
3.18323
3.29436
3.4052
3.45407
2.70304
2.81389
2.92396
3.03433
3.14509
3.24596
3.34158
3.37591
2.69798
2.80519
2.91188
3.01803
3.12367
3.2192
3.30603
3.33595
2.69606
2.80269
2.90875
3.01421
3.11909
3.21382
3.29992
3.32877
2.69712
2.80618
2.91429
3.02251
3.13091
3.22924
3.32253
3.35312
2.70082
2.81519
2.92793
3.04228
3.15831
3.2649
3.37177
3.41293
2.706
2.82919
2.94974
3.07458
3.20383
3.32715
3.45468
3.54281
2.71094
2.84307
2.97157
3.10726
3.24962
3.39338
3.52661
3.72529
2.71116
2.85468
2.99322
3.14364
3.30404
3.48693
3.60691
4.13165
2.20848
2.33172
2.35405
2.42111
2.48537
2.56456
2.63617
2.82862
2.20446
2.32407
2.3428
2.40477
2.46245
2.52846
2.5985
2.69042
2.19802
2.31586
2.33201
2.39076
2.44445
2.50422
2.57198
2.63207
2.19247
2.30827
2.322
2.37766
2.42743
2.48181
2.54426
2.58511
2.1886
2.30301
2.31521
2.36888
2.41614
2.46732
2.52589
2.55723
2.18764
2.30096
2.31251
2.36513
2.41109
2.46066
2.51698
2.54417
2.19006
2.3026
2.3145
2.36709
2.41314
2.46279
2.51908
2.54679
2.19603
2.30808
2.32137
2.37502
2.42259
2.47412
2.53263
2.56608
2.20547
2.31718
2.33287
2.38855
2.43893
2.49406
2.55627
2.60214
2.21755
2.32937
2.34865
2.40768
2.46268
2.52436
2.59233
2.66579
2.23185
2.34261
2.36542
2.4273
2.48602
2.55377
2.62007
2.734
2.24616
2.35744
2.38592
2.45371
2.52082
2.60522
2.67681
2.91406
2.15283
2.15621
2.17855
2.19818
2.2229
2.25156
2.28456
2.33485
2.15099
2.15243
2.17286
2.18989
2.21112
2.23421
2.26175
2.28176
2.14852
2.14863
2.16782
2.18323
2.20249
2.22318
2.24786
2.26372
2.14644
2.14537
2.16356
2.17766
2.19538
2.21419
2.23677
2.24949
2.14502
2.14324
2.16076
2.17402
2.19072
2.20831
2.22954
2.23997
2.14465
2.14264
2.15979
2.17263
2.18882
2.20579
2.22629
2.23559
2.14549
2.14381
2.16088
2.17378
2.19
2.20704
2.22747
2.23733
2.14758
2.14681
2.16413
2.1776
2.19443
2.21228
2.23335
2.24595
2.15082
2.15156
2.16941
2.18391
2.2019
2.22127
2.24345
2.26113
2.15478
2.15775
2.17652
2.1927
2.21263
2.23471
2.25915
2.28695
2.15927
2.16452
2.18402
2.2017
2.22319
2.24737
2.27143
2.30989
2.16305
2.17223
2.19364
2.21484
2.24103
2.27324
2.30604
2.3898
2.05919
2.07651
2.08122
2.09155
2.10282
2.1164
2.13393
2.15267
2.05841
2.0749
2.07877
2.08797
2.09767
2.10884
2.12309
2.13086
2.0573
2.07335
2.07672
2.08529
2.09421
2.10448
2.11721
2.12524
2.05644
2.07215
2.07519
2.08335
2.09177
2.10148
2.11347
2.12143
2.05602
2.07151
2.07436
2.08227
2.0904
2.09976
2.11133
2.11889
2.05623
2.07159
2.07439
2.0822
2.09022
2.09943
2.11081
2.11819
2.05719
2.07251
2.07539
2.08326
2.09136
2.10066
2.11207
2.11985
2.05893
2.07431
2.07742
2.08552
2.0939
2.10357
2.11524
2.12425
2.0614
2.07693
2.08042
2.08892
2.09778
2.10807
2.12018
2.13123
2.06443
2.08024
2.0843
2.09344
2.10309
2.11444
2.12749
2.14216
2.06795
2.08393
2.08859
2.09832
2.10866
2.12084
2.13403
2.15159
2.07139
2.0881
2.094
2.1053
2.11789
2.13369
2.15201
2.1875
2.0349
2.03752
2.04097
2.04493
2.04973
2.05539
2.06314
2.06969
2.03457
2.03682
2.03989
2.04333
2.04741
2.05199
2.05803
2.06028
2.03413
2.03617
2.03901
2.04217
2.04589
2.05008
2.05534
2.05811
2.03381
2.03572
2.03842
2.04141
2.04493
2.0489
2.05383
2.05686
2.03368
2.03551
2.03814
2.04104
2.04444
2.04828
2.05304
2.05604
2.0338
2.03563
2.03822
2.0411
2.04446
2.04825
2.05295
2.05594
2.03419
2.0361
2.03871
2.04163
2.04503
2.04887
2.05359
2.0568
2.03487
2.03695
2.03962
2.04265
2.04618
2.05018
2.05502
2.05878
2.03581
2.03813
2.04093
2.04414
2.04788
2.05216
2.0572
2.06181
2.03692
2.0396
2.04258
2.04607
2.05016
2.05489
2.06035
2.06638
2.03816
2.04122
2.04439
2.04818
2.05258
2.05768
2.06333
2.07029
2.03923
2.043
2.04662
2.05114
2.05658
2.06331
2.07156
2.086
2.01329
2.0163
2.01733
2.01921
2.02134
2.02389
2.02738
2.03019
2.01317
2.01602
2.01689
2.01855
2.02037
2.02247
2.02521
2.02628
2.01299
2.01576
2.01654
2.01808
2.01976
2.02169
2.0241
2.02547
2.01288
2.0156
2.01632
2.01781
2.01941
2.02126
2.02355
2.02508
2.01285
2.01555
2.01625
2.01771
2.01927
2.02108
2.02331
2.02486
2.01295
2.01565
2.01635
2.01779
2.01935
2.02115
2.02337
2.02493
2.0132
2.01591
2.01662
2.01809
2.01967
2.0215
2.02373
2.0254
2.01359
2.01633
2.01709
2.0186
2.02024
2.02214
2.02443
2.02633
2.01411
2.01691
2.01773
2.01932
2.02105
2.02306
2.02544
2.02768
2.01473
2.01761
2.01852
2.02023
2.0221
2.02429
2.02685
2.02962
2.01543
2.0184
2.01941
2.02124
2.02325
2.0256
2.02827
2.03135
2.0161
2.01925
2.02048
2.02261
2.02505
2.02808
2.03188
2.03797
2.00643
2.00721
2.00777
2.00853
2.00942
2.01049
2.01194
2.01305
2.00638
2.0071
2.0076
2.00827
2.00905
2.00993
2.01108
2.01155
2.00632
2.007
2.00746
2.0081
2.00881
2.00963
2.01065
2.01126
2.00628
2.00695
2.00739
2.008
2.00869
2.00948
2.01046
2.01114
2.00627
2.00694
2.00737
2.00797
2.00865
2.00943
2.01038
2.01108
2.00632
2.00698
2.00742
2.00802
2.00869
2.00947
2.01042
2.01113
2.00641
2.00709
2.00753
2.00814
2.00883
2.00962
2.01058
2.01133
2.00656
2.00727
2.00772
2.00835
2.00906
2.00988
2.01086
2.01171
2.00675
2.0075
2.00797
2.00863
2.00938
2.01024
2.01126
2.01224
2.00697
2.00778
2.00828
2.00899
2.00979
2.01072
2.01181
2.01299
2.00722
2.00809
2.00863
2.00938
2.01024
2.01124
2.01238
2.01367
2.00744
2.00841
2.00903
2.0099
2.01093
2.0122
2.0138
2.01625
2.00222
2.00271
2.00289
2.00321
2.00356
2.00399
2.00456
2.00501
2.0022
2.00267
2.00283
2.00311
2.00343
2.00379
2.00425
2.00447
2.00218
2.00264
2.00279
2.00305
2.00335
2.00369
2.0041
2.00438
2.00217
2.00262
2.00276
2.00302
2.00331
2.00364
2.00404
2.00435
2.00217
2.00262
2.00276
2.00302
2.0033
2.00363
2.00402
2.00434
2.00219
2.00264
2.00279
2.00304
2.00332
2.00365
2.00405
2.00437
2.00223
2.00269
2.00284
2.0031
2.00338
2.00371
2.00411
2.00445
2.0023
2.00276
2.00291
2.00318
2.00348
2.00382
2.00423
2.0046
2.00238
2.00286
2.00302
2.00329
2.0036
2.00396
2.00439
2.00481
2.00248
2.00297
2.00314
2.00344
2.00376
2.00415
2.0046
2.00508
2.00259
2.00309
2.00328
2.00359
2.00394
2.00435
2.00482
2.00534
2.00269
2.00322
2.00344
2.0038
2.00421
2.00471
2.00535
2.00629
2.00088
2.001
2.00107
2.00118
2.00131
2.00146
2.00165
2.00181
2.00087
2.00099
2.00105
2.00115
2.00127
2.0014
2.00156
2.00164
2.00087
2.00098
2.00104
2.00114
2.00124
2.00136
2.00151
2.00162
2.00086
2.00097
2.00104
2.00113
2.00123
2.00135
2.0015
2.00162
2.00086
2.00097
2.00104
2.00113
2.00123
2.00135
2.0015
2.00162
2.00087
2.00098
2.00105
2.00114
2.00124
2.00136
2.00151
2.00163
2.00089
2.001
2.00106
2.00116
2.00126
2.00138
2.00153
2.00166
2.00091
2.00102
2.00109
2.00119
2.00129
2.00142
2.00157
2.00171
2.00093
2.00105
2.00112
2.00122
2.00133
2.00147
2.00162
2.00178
2.00096
2.00109
2.00116
2.00127
2.00139
2.00152
2.00169
2.00186
2.001
2.00113
2.00121
2.00132
2.00144
2.00159
2.00176
2.00194
2.00103
2.00117
2.00126
2.00138
2.00153
2.0017
2.00192
2.00224
2
2.00009
2.00009
2.00012
2.00014
2.00017
2.0002
2.00024
2
2.00009
2.00009
2.00011
2.00013
2.00016
2.00019
2.00021
2
2.00008
2.00009
2.00011
2.00013
2.00015
2.00018
2.00021
2
2.00008
2.00009
2.00011
2.00013
2.00015
2.00018
2.00021
2
2.00008
2.00009
2.00011
2.00013
2.00015
2.00018
2.00021
2
2.00009
2.00009
2.00011
2.00013
2.00015
2.00018
2.00021
2
2.00009
2.00009
2.00011
2.00013
2.00016
2.00019
2.00021
2
2.00009
2.00009
2.00011
2.00014
2.00016
2.00019
2.00022
2
2.0001
2.0001
2.00012
2.00014
2.00017
2.0002
2.00023
2.00001
2.0001
2.0001
2.00013
2.00015
2.00018
2.00021
2.00024
2.00001
2.00011
2.00011
2.00013
2.00016
2.00019
2.00022
2.00026
2.00001
2.00011
2.00012
2.00014
2.00017
2.0002
2.00024
2.0003
2.0001
1.99982
1.99983
1.99977
1.99972
1.99965
1.99956
1.99948
2.0001
1.99982
1.99984
1.99979
1.99975
1.99969
1.99962
1.9996
2.00011
1.99983
1.99985
1.99981
1.99977
1.99972
1.99966
1.99963
2.00011
1.99984
1.99986
1.99982
1.99978
1.99973
1.99968
1.99965
2.00011
1.99984
1.99986
1.99982
1.99978
1.99974
1.99969
1.99966
2.00011
1.99984
1.99986
1.99982
1.99979
1.99974
1.9997
1.99967
2.00011
1.99983
1.99986
1.99982
1.99978
1.99974
1.99969
1.99966
2.00011
1.99982
1.99985
1.99981
1.99977
1.99972
1.99967
1.99963
2.00011
1.99981
1.99984
1.99979
1.99975
1.9997
1.99965
1.9996
2.0001
1.9998
1.99982
1.99977
1.99973
1.99967
1.99961
1.99954
2.0001
1.99979
1.9998
1.99975
1.9997
1.99964
1.99958
1.99949
2.0001
1.99977
1.99979
1.99972
1.99966
1.99958
1.99948
1.99931
1.99701
1.99743
1.99711
1.99689
1.99659
1.99625
1.99579
1.99544
1.99702
1.99746
1.99716
1.99695
1.99668
1.99638
1.99599
1.99577
1.99704
1.99748
1.99719
1.99699
1.99673
1.99644
1.99609
1.99582
1.99705
1.9975
1.99721
1.99701
1.99676
1.99647
1.99612
1.99582
1.99705
1.9975
1.99721
1.99701
1.99676
1.99648
1.99613
1.99583
1.99704
1.99749
1.99719
1.997
1.99675
1.99646
1.99611
1.9958
1.997
1.99746
1.99716
1.99696
1.99671
1.99642
1.99607
1.99575
1.99695
1.99741
1.9971
1.9969
1.99664
1.99635
1.99599
1.99565
1.99687
1.99734
1.99703
1.99682
1.99655
1.99625
1.99589
1.99552
1.99678
1.99726
1.99693
1.99672
1.99644
1.99612
1.99575
1.99534
1.99667
1.99716
1.99683
1.9966
1.99631
1.99598
1.9956
1.99518
1.99656
1.99706
1.9967
1.99645
1.99612
1.99573
1.99523
1.99457
2.00033
1.99685
1.99729
1.99672
1.99623
1.99562
1.99477
1.9939
2.00036
1.99694
1.99745
1.99696
1.9966
1.99617
1.99556
1.9955
2.00039
1.99703
1.99757
1.99714
1.99684
1.99648
1.99599
1.99592
2.00041
1.99708
1.99766
1.99725
1.99699
1.99668
1.99626
1.9962
2.00042
1.99711
1.9977
1.99731
1.99708
1.99679
1.99641
1.99637
2.0004
1.99709
1.99769
1.99731
1.99708
1.99681
1.99644
1.99641
2.00038
1.99702
1.99763
1.99724
1.99701
1.99673
1.99636
1.99629
2.00034
1.99691
1.99752
1.99711
1.99686
1.99654
1.99615
1.99598
2.00028
1.99676
1.99736
1.99692
1.99662
1.99626
1.99583
1.9955
2.00023
1.99657
1.99716
1.99666
1.99631
1.99586
1.99535
1.99474
2.00017
1.99637
1.99694
1.99639
1.99599
1.99548
1.99496
1.99412
2.00015
1.99614
1.99666
1.99599
1.99542
1.99464
1.99373
1.99159
1.97012
1.96956
1.9638
1.95847
1.95208
1.94482
1.93611
1.92638
1.97041
1.97006
1.96456
1.95957
1.95366
1.94716
1.9395
1.9335
1.9708
1.97055
1.96521
1.96042
1.95477
1.94857
1.94139
1.93559
1.97111
1.97092
1.9657
1.96104
1.95555
1.94955
1.94263
1.93699
1.97127
1.97113
1.96596
1.96139
1.956
1.95012
1.94337
1.93789
1.97121
1.9711
1.96596
1.96141
1.95606
1.95024
1.94356
1.93815
1.97091
1.97083
1.96565
1.96109
1.95572
1.94987
1.94318
1.93765
1.97034
1.97028
1.96503
1.9604
1.95493
1.94896
1.94218
1.93627
1.96953
1.96948
1.96409
1.95934
1.95372
1.94755
1.94059
1.93401
1.96852
1.96846
1.96287
1.95792
1.95204
1.94552
1.93824
1.93036
1.96737
1.96732
1.96153
1.95639
1.95029
1.94348
1.93617
1.92706
1.96621
1.96602
1.95982
1.9542
1.94739
1.93941
1.93049
1.91525
1.97941
1.97518
1.97128
1.96669
1.96146
1.95554
1.94857
1.94021
1.97965
1.97567
1.97203
1.96779
1.96305
1.9579
1.95188
1.94745
1.97998
1.97614
1.97268
1.96865
1.96419
1.95936
1.95382
1.94976
1.98024
1.97651
1.97318
1.96931
1.96504
1.96044
1.9552
1.95141
1.98037
1.97672
1.97347
1.96969
1.96554
1.9611
1.95604
1.95247
1.98034
1.97671
1.9735
1.96977
1.96568
1.96129
1.95634
1.95286
1.9801
1.97647
1.97324
1.9695
1.96539
1.96099
1.95604
1.95244
1.97967
1.97597
1.97269
1.96887
1.96468
1.96016
1.95511
1.95112
1.97903
1.97523
1.97185
1.9679
1.96354
1.95882
1.95359
1.94891
1.97826
1.9743
1.97074
1.96659
1.96197
1.95687
1.95131
1.94527
1.97737
1.97327
1.96956
1.96521
1.96037
1.95499
1.94942
1.94203
1.97654
1.97211
1.96805
1.96323
1.95771
1.95119
1.94413
1.93059
2.74176
2.89427
3.04272
3.20409
3.37681
3.57506
3.70573
4.28637
2.73391
2.87285
3.00873
3.15251
3.30362
3.45725
3.59616
3.82196
2.72382
2.85237
2.97886
3.11022
3.24673
3.3782
3.51321
3.61788
2.71454
2.83282
2.94996
3.06907
3.19032
3.3025
3.41465
3.46349
2.70774
2.81965
2.93105
3.04279
3.15504
3.25745
3.35477
3.38988
2.70426
2.81295
2.92146
3.0295
3.1372
3.23487
3.32394
3.35554
2.70426
2.81295
2.92146
3.0295
3.1372
3.23487
3.32394
3.35554
2.70774
2.81965
2.93105
3.04279
3.15504
3.25744
3.35477
3.38988
2.71454
2.83282
2.94996
3.06906
3.19031
3.30249
3.41465
3.46349
2.72383
2.85236
2.97884
3.11019
3.24669
3.37817
3.5132
3.61788
2.7339
2.87286
3.00876
3.15252
3.3036
3.45719
3.5961
3.82188
2.74179
2.89426
3.04276
3.2042
3.37694
3.57517
3.70581
4.2864
2.20802
2.33154
2.3539
2.42111
2.48553
2.56508
2.63661
2.83217
2.203
2.32329
2.34194
2.40411
2.46195
2.52827
2.59802
2.69259
2.19544
2.31445
2.33043
2.38951
2.44346
2.50366
2.57155
2.63385
2.18857
2.30604
2.31943
2.37549
2.42552
2.48032
2.54298
2.58543
2.18312
2.29978
2.31145
2.36559
2.4131
2.4647
2.5236
2.55626
2.18024
2.29645
2.30723
2.36036
2.40655
2.45652
2.51325
2.54146
2.18024
2.29645
2.30723
2.36036
2.40655
2.45652
2.51325
2.54146
2.18312
2.29978
2.31145
2.36559
2.4131
2.4647
2.5236
2.55626
2.18857
2.30604
2.31943
2.37549
2.42551
2.48031
2.54297
2.58543
2.19544
2.31445
2.33042
2.38949
2.44343
2.50363
2.57154
2.63384
2.20299
2.3233
2.34195
2.40412
2.46193
2.52823
2.59798
2.69255
2.20805
2.33153
2.35392
2.42117
2.48561
2.56514
2.63666
2.83219
2.15274
2.15614
2.17861
2.19836
2.22326
2.25227
2.28524
2.33868
2.1507
2.15202
2.17267
2.18984
2.21126
2.23469
2.262
2.28486
2.14793
2.14782
2.16735
2.18297
2.20255
2.2237
2.24857
2.26681
2.14546
2.144
2.16261
2.17694
2.19498
2.21425
2.23711
2.2516
2.14352
2.14116
2.15919
2.17267
2.18973
2.20779
2.2294
2.24131
2.14249
2.13965
2.15739
2.17043
2.18699
2.20442
2.22538
2.23585
2.14249
2.13965
2.15739
2.17043
2.18699
2.20442
2.22538
2.23585
2.14352
2.14116
2.15919
2.17267
2.18973
2.20778
2.2294
2.2413
2.14545
2.144
2.16261
2.17693
2.19498
2.21424
2.2371
2.25159
2.14793
2.14781
2.16734
2.18296
2.20254
2.22368
2.24856
2.2668
2.1507
2.15202
2.17268
2.18984
2.21125
2.23466
2.26197
2.28482
2.15276
2.15613
2.17862
2.1984
2.22331
2.25232
2.28528
2.33871
2.05903
2.07643
2.0812
2.09162
2.10302
2.11684
2.13441
2.15537
2.05788
2.07451
2.07844
2.08775
2.09757
2.10895
2.12309
2.13285
2.0563
2.07258
2.07602
2.08473
2.09382
2.10437
2.11721
2.12685
2.05489
2.07088
2.07396
2.08225
2.09082
2.10075
2.11287
2.12195
2.05381
2.06962
2.07247
2.08049
2.08874
2.09828
2.10998
2.11837
2.05322
2.06895
2.07169
2.07957
2.08766
2.097
2.1085
2.11642
2.05322
2.06895
2.07169
2.07957
2.08766
2.097
2.1085
2.11641
2.05381
2.06962
2.07247
2.08049
2.08874
2.09828
2.10998
2.11837
2.05489
2.07088
2.07396
2.08224
2.09082
2.10075
2.11286
2.12194
2.05631
2.07258
2.07601
2.08473
2.09381
2.10436
2.1172
2.12685
2.05787
2.07452
2.07845
2.08775
2.09756
2.10893
2.12307
2.13283
2.05904
2.07643
2.08121
2.09165
2.10306
2.11688
2.13444
2.15541
2.03484
2.03748
2.04098
2.04499
2.04987
2.05567
2.06346
2.07134
2.03436
2.03662
2.03974
2.04326
2.04741
2.05213
2.05813
2.06157
2.03372
2.03576
2.03868
2.04192
2.04575
2.05009
2.05544
2.05916
2.03316
2.03502
2.0378
2.04086
2.04447
2.04857
2.05359
2.05726
2.03273
2.03447
2.03717
2.04012
2.0436
2.04753
2.05238
2.05582
2.0325
2.03419
2.03685
2.03974
2.04315
2.047
2.05176
2.05503
2.0325
2.03419
2.03685
2.03974
2.04315
2.047
2.05176
2.05503
2.03273
2.03447
2.03717
2.04012
2.0436
2.04753
2.05238
2.05582
2.03316
2.03502
2.0378
2.04086
2.04447
2.04857
2.05359
2.05726
2.03372
2.03576
2.03867
2.04192
2.04574
2.05009
2.05543
2.05916
2.03435
2.03662
2.03975
2.04326
2.04741
2.05212
2.05812
2.06155
2.03484
2.03748
2.04098
2.04501
2.04989
2.0557
2.06348
2.07136
2.01325
2.01627
2.01733
2.01923
2.0214
2.02403
2.02755
2.03103
2.01301
2.01589
2.01679
2.01848
2.02035
2.02251
2.02525
2.02692
2.0127
2.0155
2.01631
2.0179
2.01963
2.02164
2.0241
2.02593
2.01243
2.01518
2.01593
2.01744
2.01909
2.021
2.02333
2.02516
2.01222
2.01493
2.01565
2.01712
2.01871
2.02056
2.02282
2.02457
2.0121
2.0148
2.0155
2.01695
2.01852
2.02033
2.02256
2.02424
2.0121
2.0148
2.0155
2.01695
2.01852
2.02033
2.02256
2.02424
2.01222
2.01493
2.01565
2.01712
2.01871
2.02056
2.02282
2.02457
2.01243
2.01517
2.01593
2.01744
2.01908
2.021
2.02333
2.02516
2.0127
2.0155
2.01631
2.0179
2.01963
2.02163
2.0241
2.02593
2.01301
2.01589
2.01679
2.01848
2.02035
2.02251
2.02524
2.02691
2.01325
2.01627
2.01733
2.01924
2.02142
2.02404
2.02756
2.03104
2.00641
2.00719
2.00777
2.00854
2.00945
2.01055
2.01202
2.01343
2.00632
2.00704
2.00755
2.00825
2.00904
2.00996
2.01111
2.01185
2.0062
2.00689
2.00737
2.00802
2.00876
2.00962
2.01066
2.01147
2.0061
2.00676
2.00722
2.00784
2.00855
2.00937
2.01036
2.01118
2.00602
2.00666
2.00711
2.00771
2.0084
2.0092
2.01017
2.01095
2.00597
2.00661
2.00705
2.00765
2.00833
2.00911
2.01006
2.01082
2.00597
2.00661
2.00705
2.00765
2.00833
2.00911
2.01006
2.01082
2.00602
2.00666
2.00711
2.00771
2.0084
2.0092
2.01017
2.01095
2.0061
2.00676
2.00722
2.00784
2.00855
2.00937
2.01036
2.01118
2.0062
2.00689
2.00737
2.00802
2.00876
2.00962
2.01066
2.01147
2.00632
2.00704
2.00756
2.00825
2.00904
2.00996
2.01111
2.01185
2.00641
2.00719
2.00777
2.00855
2.00946
2.01056
2.01203
2.01344
2.00221
2.0027
2.00289
2.00321
2.00357
2.00402
2.0046
2.00517
2.00217
2.00264
2.00281
2.0031
2.00343
2.0038
2.00427
2.00459
2.00213
2.00258
2.00274
2.00301
2.00332
2.00367
2.0041
2.00445
2.00208
2.00253
2.00268
2.00295
2.00324
2.00358
2.00399
2.00435
2.00205
2.0025
2.00264
2.0029
2.00319
2.00352
2.00392
2.00427
2.00203
2.00247
2.00262
2.00287
2.00316
2.00349
2.00388
2.00422
2.00203
2.00247
2.00262
2.00287
2.00316
2.00349
2.00388
2.00422
2.00205
2.0025
2.00264
2.0029
2.00319
2.00352
2.00392
2.00426
2.00208
2.00253
2.00268
2.00295
2.00324
2.00358
2.00399
2.00435
2.00213
2.00258
2.00274
2.00301
2.00332
2.00367
2.0041
2.00445
2.00217
2.00264
2.00281
2.0031
2.00342
2.0038
2.00426
2.00459
2.00221
2.0027
2.00289
2.00321
2.00358
2.00402
2.0046
2.00517
2.00087
2.00099
2.00107
2.00118
2.00131
2.00146
2.00167
2.00186
2.00086
2.00098
2.00105
2.00115
2.00126
2.0014
2.00156
2.00169
2.00085
2.00096
2.00103
2.00112
2.00123
2.00136
2.00151
2.00165
2.00083
2.00094
2.00101
2.0011
2.00121
2.00133
2.00148
2.00162
2.00082
2.00093
2.00099
2.00109
2.00119
2.00131
2.00146
2.00159
2.00082
2.00092
2.00099
2.00108
2.00118
2.0013
2.00145
2.00158
2.00082
2.00092
2.00099
2.00108
2.00118