/*--------------------------------*- C++ -*----------------------------------*\
| =========                 |                                                 |
| \\      /  F ield         | foam-extend: Open Source CFD                    |
|  \\    /   O peration     | Version:  3.0                                   |
|   \\  /    A nd           | Web:         http://www.extend-project.de       |
|    \\/     M anipulation  |                                                 |
\*---------------------------------------------------------------------------*/
FoamFile
{
    version     2.0;
    format      ascii;
    class       volVectorField;
    location    "4";
    object      s;
}
// * * * * * * * * * * * * * * * * * * * * * * * * * * * * * * * * * * * * * //

dimensions      [0 1 -1 0 0 0 0];

internalField   nonuniform List<vector> 
3012
(
(0.175588 -0.0291872 0)
(-0.0310464 -0.169836 0)
(-0.172674 0.0312491 0)
(0.0337548 0.17974 0)
(-0.0496142 0.328824 0)
(0.325477 0.0496781 0)
(0.0476894 -0.314095 0)
(-0.315361 -0.0466553 0)
(0.123589 -0.120927 0)
(-0.123276 -0.121876 0)
(0.132176 0.132361 0)
(-0.124964 0.126563 0)
(-0.00750463 -0.117545 0)
(0.122633 -0.00550641 0)
(-0.120143 0.00657875 0)
(0.00842437 0.124628 0)
(-0.0763363 0.31982 0)
(0.317085 0.0750254 0)
(0.0722656 -0.302959 0)
(-0.304253 -0.0710303 0)
(-0.042509 0.0901397 0)
(0.0977286 0.0466565 0)
(-0.0921 -0.04283 0)
(0.0413382 -0.0865028 0)
(-0.193201 0.00524344 0)
(-0.0048957 -0.190486 0)
(0.0065674 0.200513 0)
(0.198311 -0.00278481 0)
(0.108005 -0.0584787 0)
(-0.108555 0.060168 0)
(0.0641453 0.11451 0)
(-0.0597347 -0.106952 0)
(0.0545381 0.114698 0)
(-0.10884 0.0511732 0)
(0.108518 -0.0498448 0)
(-0.0509954 -0.107427 0)
(-0.0107068 -0.204003 0)
(-0.206503 0.0113113 0)
(0.211584 -0.00873533 0)
(0.0124818 0.214371 0)
(-0.00626751 -0.107568 0)
(-0.110085 0.00543765 0)
(0.00696778 0.114081 0)
(0.112281 -0.00464179 0)
(0.0469715 0.118384 0)
(-0.0439792 -0.11109 0)
(0.1126 -0.0427237 0)
(-0.112561 0.0438823 0)
(-0.0375052 -0.0985985 0)
(-0.0991753 0.0372565 0)
(0.098974 -0.0367377 0)
(0.0397871 0.104673 0)
(0.171136 -0.026099 0)
(-0.0279484 -0.165503 0)
(0.0304859 0.174998 0)
(-0.168192 0.0279784 0)
(0.145454 -0.24976 0)
(0.270521 0.153594 0)
(-0.16093 0.278436 0)
(-0.251217 -0.143712 0)
(0.131521 -0.275979 0)
(0.295735 0.138386 0)
(-0.144556 0.302618 0)
(-0.277327 -0.129855 0)
(-0.000106137 -0.120709 0)
(0.126751 0.00222338 0)
(-0.123684 -0.000904454 0)
(0.000750053 0.127777 0)
(-0.108695 -0.0185691 0)
(-0.0174162 0.110324 0)
(0.0171056 -0.10465 0)
(0.112522 0.0200272 0)
(-0.086598 0.0688382 0)
(-0.0680222 -0.085131 0)
(0.0736768 0.0918064 0)
(0.0852508 -0.0669857 0)
(0.087919 -0.0546032 0)
(-0.0891586 0.0559662 0)
(-0.0553325 -0.087987 0)
(0.0596628 0.0941492 0)
(0.00157272 -0.129621 0)
(0.13624 0.00407291 0)
(-0.00087282 0.136943 0)
(-0.13258 -0.00253005 0)
(-0.105147 -0.00603044 0)
(-0.00507332 0.107633 0)
(0.00509846 -0.101952 0)
(0.108112 0.00671187 0)
(0.0512459 0.104661 0)
(-0.0992332 0.0481102 0)
(0.0985898 -0.0469884 0)
(-0.0478649 -0.0983929 0)
(-0.130854 -0.120757 0)
(0.122425 -0.128455 0)
(0.140271 0.131284 0)
(-0.123952 0.134625 0)
(0.212328 0.0854892 0)
(-0.0818169 0.208953 0)
(0.0802312 -0.197821 0)
(-0.200215 -0.0789767 0)
(-0.106262 -0.0199918 0)
(-0.018892 0.107544 0)
(0.0184457 -0.102043 0)
(0.109937 0.021366 0)
(-0.0837513 0.0689371 0)
(0.0738013 0.0887933 0)
(-0.0680935 -0.0823167 0)
(0.0823587 -0.0671515 0)
(-0.0862604 -0.0481485 0)
(0.0472411 -0.0822418 0)
(0.0923845 0.052506 0)
(-0.048522 0.0854047 0)
(0.115588 -0.0312247 0)
(-0.11505 0.032138 0)
(-0.0325692 -0.113471 0)
(0.0346579 0.120734 0)
(-0.0674832 -0.0664755 0)
(0.074777 0.0735889 0)
(-0.0679595 0.0688919 0)
(0.0674187 -0.068451 0)
(0.0954791 0.0283757 0)
(0.0256723 -0.0871349 0)
(-0.0267126 0.0911377 0)
(-0.0944861 -0.0279591 0)
(-0.0767206 -0.228453 0)
(0.233365 -0.0749081 0)
(-0.232658 0.0793799 0)
(0.0808779 0.241805 0)
(-0.164749 -0.262955 0)
(0.174021 0.281686 0)
(-0.276875 0.179396 0)
(0.267021 -0.164064 0)
(-0.0630151 -0.251764 0)
(0.257503 -0.0615003 0)
(0.0668244 0.264984 0)
(-0.255529 0.0656449 0)
(-0.191606 -0.250356 0)
(-0.270456 0.215118 0)
(0.204346 0.270378 0)
(0.253738 -0.190816 0)
(-0.190896 0.0140684 0)
(0.0157327 0.197994 0)
(0.195683 -0.0117203 0)
(-0.013778 -0.188176 0)
(-0.220855 0.243783 0)
(0.22945 0.214518 0)
(0.199749 -0.211249 0)
(-0.212821 -0.197271 0)
(-0.22991 0.215919 0)
(0.206981 0.22946 0)
(0.214215 -0.191636 0)
(-0.193094 -0.211513 0)
(0.0292485 0.102771 0)
(0.0972103 -0.0272728 0)
(-0.0277016 -0.0970505 0)
(-0.0975009 0.027495 0)
(-0.0412216 -0.10019 0)
(-0.100906 0.0410746 0)
(0.100643 -0.0403359 0)
(0.0438467 0.106409 0)
(-0.0828171 -0.0523364 0)
(0.0892292 0.0571419 0)
(-0.0529537 0.0827201 0)
(0.0517244 -0.0799411 0)
(0.242334 0.00230437 0)
(0.000879363 -0.233807 0)
(-0.235884 0.000500564 0)
(0.000622653 0.24488 0)
(0.0583991 0.113068 0)
(-0.107209 0.0547589 0)
(0.106763 -0.0533532 0)
(-0.0544888 -0.10581 0)
(-0.192415 0.243826 0)
(-0.216796 -0.172964 0)
(0.175315 -0.214875 0)
(0.234179 0.188164 0)
(0.204027 -0.165086 0)
(-0.21328 0.181089 0)
(0.178311 0.21729 0)
(-0.166843 -0.201196 0)
(0.252812 -0.00704644 0)
(-0.00879484 -0.245331 0)
(-0.247443 0.0100965 0)
(0.0106433 0.256468 0)
(-0.0616451 0.11759 0)
(0.123615 0.0668643 0)
(0.0609042 -0.112529 0)
(-0.116144 -0.060909 0)
(0.071129 -0.106573 0)
(-0.109832 -0.0707977 0)
(-0.0720362 0.111147 0)
(0.11741 0.0775666 0)
(-0.0854812 -0.0509759 0)
(0.0918494 0.055684 0)
(-0.0515746 0.0850959 0)
(0.0503646 -0.0820755 0)
(-0.0656828 -0.114 0)
(-0.115957 0.0662582 0)
(0.115481 -0.0641792 0)
(0.0704623 0.122314 0)
(0.00251683 -0.118645 0)
(0.12506 0.00489034 0)
(-0.00204848 0.125428 0)
(-0.121658 -0.00365361 0)
(-0.0105843 -0.119568 0)
(-0.122088 0.00973952 0)
(0.124425 -0.00859832 0)
(0.0116633 0.126835 0)
(-0.0206685 -0.0950178 0)
(-0.095783 0.0207132 0)
(0.0218719 0.101036 0)
(0.0952484 -0.0208335 0)
(0.0270909 -0.0892834 0)
(0.098215 0.030248 0)
(-0.0955024 -0.0297364 0)
(-0.0280381 0.0934957 0)
(-0.132341 -0.00692339 0)
(-0.00538235 0.136406 0)
(0.00598425 -0.129191 0)
(0.136341 0.00874847 0)
(-0.0700454 -0.0670618 0)
(0.0676612 -0.0702807 0)
(0.0768869 0.074027 0)
(-0.06879 0.0710762 0)
(0.0657511 0.111197 0)
(0.104547 -0.0599209 0)
(-0.0611748 -0.103668 0)
(-0.105266 0.0616821 0)
(0.0290089 -0.0910111 0)
(0.100317 0.0329928 0)
(-0.0299573 0.0954092 0)
(-0.0968082 -0.0309443 0)
(0.0790892 0.0746031 0)
(-0.0694205 0.0733323 0)
(0.068326 -0.0717967 0)
(-0.0723415 -0.067896 0)
(-0.113035 0.0701535 0)
(-0.0694416 -0.111028 0)
(0.0746347 0.119398 0)
(0.112364 -0.0678889 0)
(-0.0414067 0.0931626 0)
(0.100251 0.0456514 0)
(-0.0947397 -0.04183 0)
(0.0403181 -0.0892701 0)
(0.0458553 -0.0855206 0)
(-0.0901512 -0.0467707 0)
(-0.0470574 0.088978 0)
(0.0961853 0.0511402 0)
(-0.0650305 0.119334 0)
(0.125344 0.0703923 0)
(0.0642787 -0.114194 0)
(-0.117679 -0.0641493 0)
(0.0707741 -0.110996 0)
(-0.0716367 0.115878 0)
(-0.114297 -0.0704237 0)
(0.122034 0.0771937 0)
(-0.175871 -0.0894336 0)
(0.0906188 -0.173291 0)
(0.187432 0.0973934 0)
(-0.0920497 0.182413 0)
(0.0476013 0.0961871 0)
(0.0903407 -0.0439968 0)
(-0.0446589 -0.0907137 0)
(-0.0910079 0.0448086 0)
(-0.00517096 -0.0994931 0)
(-0.101824 0.00472232 0)
(0.00571707 0.105122 0)
(0.104034 -0.00426095 0)
(-0.0746052 0.120655 0)
(0.0737581 -0.11549 0)
(0.126738 0.0802929 0)
(-0.118757 -0.0732433 0)
(-0.0066727 -0.109378 0)
(-0.111943 0.00576344 0)
(0.00748069 0.115992 0)
(0.114188 -0.00489393 0)
(-0.00431589 -0.117446 0)
(0.122961 -0.0022095 0)
(-0.120232 0.00335564 0)
(0.00514241 0.124393 0)
(0.189215 -0.0201099 0)
(-0.021935 -0.182699 0)
(0.0243549 0.192988 0)
(-0.185634 0.0222532 0)
(0.0270323 0.10245 0)
(-0.0972437 0.0254302 0)
(0.0968988 -0.0252099 0)
(-0.0256841 -0.0967765 0)
(-0.023707 -0.273247 0)
(0.280937 -0.0223041 0)
(0.0256635 0.285958 0)
(-0.276096 0.0256053 0)
(-0.00753273 -0.290852 0)
(0.00881095 0.303714 0)
(0.299377 -0.00616216 0)
(-0.293011 0.00932655 0)
(0.0446645 0.116987 0)
(0.111295 -0.0406796 0)
(-0.0418625 -0.109887 0)
(-0.111238 0.0417257 0)
(-0.0792541 0.121393 0)
(0.0783748 -0.116243 0)
(0.127523 0.0851331 0)
(-0.119376 -0.0777158 0)
(-0.0350134 -0.110579 0)
(0.112304 -0.0338397 0)
(-0.111975 0.0346729 0)
(0.0372232 0.117656 0)
(0.187918 -0.0194229 0)
(-0.0212255 -0.181062 0)
(0.0234608 0.190834 0)
(-0.183817 0.0214705 0)
(-0.174347 -0.0783178 0)
(0.079292 -0.171714 0)
(0.185425 0.085227 0)
(-0.0801651 0.180521 0)
(-0.0945625 -0.0716801 0)
(-0.0730888 0.0953164 0)
(0.0720299 -0.0918663 0)
(0.101726 0.0785003 0)
(0.0022344 -0.103193 0)
(-0.106176 -0.00309769 0)
(0.109029 0.00375967 0)
(-0.00204919 0.109034 0)
(0.0472746 -0.105527 0)
(0.116199 0.052636 0)
(-0.0479878 0.110413 0)
(-0.109873 -0.0479373 0)
(0.203282 0.0754119 0)
(-0.0712659 0.199619 0)
(0.0705003 -0.189529 0)
(-0.191985 -0.0693273 0)
(-0.107676 -0.0087708 0)
(0.00766205 -0.10432 0)
(-0.00767123 0.110126 0)
(0.110841 0.00967568 0)
(-0.0901888 0.059564 0)
(0.0889274 -0.0581033 0)
(-0.0589575 -0.0888995 0)
(0.063624 0.0952608 0)
(-0.0913469 0.0537725 0)
(0.0903465 -0.0525431 0)
(-0.0532773 -0.0904106 0)
(0.0572598 0.0964956 0)
(0.0648832 0.0881207 0)
(-0.0833194 0.060694 0)
(0.0819023 -0.0593624 0)
(-0.0600356 -0.0820562 0)
(0.0117671 -0.0985191 0)
(-0.102195 -0.0128778 0)
(-0.0121434 0.103871 0)
(0.105326 0.0136351 0)
(-0.0190081 -0.0949452 0)
(-0.0961727 0.0188414 0)
(0.0203875 0.101438 0)
(0.095737 -0.0180887 0)
(0.0315286 0.0980683 0)
(0.0924293 -0.0295431 0)
(-0.092769 0.0296829 0)
(-0.0297891 -0.0926017 0)
(0.0668049 0.0889362 0)
(-0.0840337 0.0624626 0)
(-0.0617717 -0.0827411 0)
(0.0826683 -0.0609817 0)
(0.0128771 -0.0998779 0)
(-0.103601 -0.0141274 0)
(0.106859 0.0150425 0)
(-0.0131927 0.105307 0)
(0.107258 -0.0886397 0)
(-0.0906926 -0.106046 0)
(0.0975247 0.114957 0)
(-0.108238 0.0920646 0)
(0.115227 -0.0865054 0)
(-0.0885141 -0.1138 0)
(-0.116108 0.089856 0)
(0.0951199 0.123088 0)
(-0.118489 -0.042686 0)
(-0.0424247 0.119876 0)
(0.124707 0.0468079 0)
(0.0419637 -0.114323 0)
(0.101612 0.089335 0)
(0.0824417 -0.0919772 0)
(-0.0835309 0.0954339 0)
(-0.0943436 -0.0818418 0)
(0.0459191 0.121929 0)
(0.116254 -0.0416121 0)
(-0.116022 0.0428328 0)
(-0.0429856 -0.114426 0)
(-0.0791903 0.135474 0)
(0.141424 0.0850657 0)
(0.0784495 -0.129544 0)
(-0.132679 -0.0777481 0)
(-0.0806456 0.142182 0)
(0.148096 0.0865786 0)
(0.0800353 -0.135887 0)
(-0.138856 -0.0792459 0)
(0.10074 0.0609382 0)
(-0.0563067 0.0940424 0)
(0.055272 -0.0904185 0)
(-0.0941838 -0.0555405 0)
(-0.0269597 0.141295 0)
(0.0271714 -0.134404 0)
(0.14388 0.0309319 0)
(-0.13781 -0.0277343 0)
(-0.0175958 -0.117055 0)
(0.120773 -0.0158036 0)
(0.0189265 0.124339 0)
(-0.119204 0.0168006 0)
(-0.0930044 -0.194188 0)
(0.198072 -0.0909001 0)
(-0.198785 0.096059 0)
(0.0987132 0.207381 0)
(-0.021061 0.147275 0)
(0.149226 0.02495 0)
(0.0214767 -0.140056 0)
(-0.143256 -0.0220095 0)
(0.120307 0.264042 0)
(-0.255316 0.120226 0)
(0.252806 -0.113055 0)
(-0.114295 -0.248214 0)
(0.0801314 0.0851432 0)
(0.0786315 -0.0726792 0)
(-0.0736889 -0.0784917 0)
(-0.0800256 0.0746029 0)
(-0.0411715 -0.0884643 0)
(0.0870518 -0.0403275 0)
(0.0431787 0.0926789 0)
(-0.0874373 0.040643 0)
(0.0993023 -0.00676586 0)
(-0.0971664 0.00677215 0)
(0.00730336 0.100919 0)
(-0.00675015 -0.0951232 0)
(0.109814 0.028866 0)
(0.0251851 -0.101032 0)
(-0.0257757 0.106268 0)
(-0.105825 -0.02687 0)
(0.158016 0.0579203 0)
(-0.0531049 0.153604 0)
(-0.149614 -0.0528176 0)
(0.0529908 -0.146413 0)
(0.161595 0.0522077 0)
(-0.0476131 0.157643 0)
(-0.153464 -0.0475406 0)
(0.0476223 -0.150312 0)
(-0.0671453 -0.0689124 0)
(0.0731707 0.0755313 0)
(-0.0699737 0.0687264 0)
(0.0693679 -0.0669388 0)
(-0.165573 -0.0502171 0)
(-0.0508015 0.170944 0)
(0.174347 0.0551268 0)
(0.0506645 -0.162612 0)
(-0.0255232 0.0935672 0)
(0.0241863 -0.0891214 0)
(0.0972512 0.0268732 0)
(-0.0950765 -0.0252677 0)
(0.35698 0.210954 0)
(0.197574 -0.324341 0)
(-0.262599 0.416645 0)
(-0.324501 -0.196157 0)
(-0.116683 -0.0398641 0)
(-0.0394569 0.117826 0)
(0.0389589 -0.112361 0)
(0.122641 0.0437377 0)
(-0.0934447 0.0282737 0)
(0.0299783 0.0986644 0)
(-0.0283952 -0.0932176 0)
(0.0930321 -0.0281123 0)
(0.134248 0.215563 0)
(-0.207863 0.132706 0)
(0.204419 -0.124223 0)
(-0.126135 -0.200925 0)
(-0.0437778 0.165778 0)
(-0.161106 -0.0437431 0)
(0.169381 0.0482089 0)
(0.0439811 -0.158065 0)
(-0.0603212 0.0945369 0)
(0.101172 0.0651407 0)
(0.0592948 -0.0909898 0)
(-0.0944034 -0.0593659 0)
(0.0978836 0.0889213 0)
(0.0820339 -0.0885708 0)
(-0.0831952 0.0917274 0)
(-0.0907575 -0.0815208 0)
(-0.00197541 -0.12486 0)
(0.130981 0.000335721 0)
(0.00273453 0.132124 0)
(-0.127802 0.000979313 0)
(0.319496 0.144886 0)
(0.138539 -0.298596 0)
(-0.154487 0.329138 0)
(-0.299865 -0.137278 0)
(-0.0916142 -0.0732989 0)
(-0.0747633 0.0923837 0)
(0.0736906 -0.0891841 0)
(0.0987213 0.0801998 0)
(0.0437967 -0.10525 0)
(0.115778 0.0489514 0)
(-0.0445453 0.110196 0)
(-0.109781 -0.0446549 0)
(0.0592787 0.143922 0)
(-0.137158 0.0557195 0)
(-0.0553788 -0.13478 0)
(0.137537 -0.0537149 0)
(0.0520546 0.106858 0)
(-0.101283 0.0488234 0)
(0.100751 -0.0476573 0)
(-0.0486648 -0.100291 0)
(0.294628 0.0211093 0)
(-0.019084 0.297517 0)
(0.019156 -0.2846 0)
(-0.286459 -0.0178278 0)
(0.0390432 -0.0848362 0)
(-0.0906325 -0.0409032 0)
(-0.0402667 0.0883771 0)
(0.096173 0.0443371 0)
(-0.138694 0.0618999 0)
(0.0656696 0.145638 0)
(-0.0613749 -0.136237 0)
(0.138924 -0.0596628 0)
(0.057754 -0.0765779 0)
(-0.0786559 -0.0583034 0)
(0.0850218 0.063601 0)
(-0.0589808 0.0788704 0)
(0.0583077 -0.0786127 0)
(-0.0808973 -0.0586786 0)
(0.0873658 0.0641403 0)
(-0.0594904 0.0811018 0)
(-0.128617 0.0270854 0)
(0.0295996 0.134361 0)
(0.129956 -0.0259125 0)
(-0.0276139 -0.126436 0)
(-0.118377 -0.310781 0)
(0.124472 0.327938 0)
(0.316592 -0.118093 0)
(-0.318994 0.125235 0)
(-0.0875962 0.0859458 0)
(-0.0849683 -0.0858119 0)
(0.0863777 -0.083204 0)
(0.091802 0.093293 0)
(-0.1236 0.0465711 0)
(0.0498576 0.129818 0)
(-0.0465978 -0.12172 0)
(0.123929 -0.0451182 0)
(0.0334853 0.136371 0)
(-0.0312557 -0.128307 0)
(0.131802 -0.0295758 0)
(-0.130468 0.0308502 0)
(0.0309366 0.103607 0)
(0.098105 -0.0287509 0)
(-0.0982996 0.029018 0)
(-0.0292851 -0.0977323 0)
(-0.0910313 0.086096 0)
(-0.085092 -0.0892235 0)
(0.0918807 0.0969179 0)
(0.0898806 -0.083272 0)
(0.0317468 -0.113383 0)
(-0.0320937 0.119126 0)
(0.12291 0.0359301 0)
(-0.117616 -0.032875 0)
(0.0302543 -0.116537 0)
(-0.0304871 0.122484 0)
(0.126018 0.0343504 0)
(-0.120604 -0.0313081 0)
(0.0347103 0.14069 0)
(0.136119 -0.0306067 0)
(-0.0323626 -0.13237 0)
(-0.134677 0.0319974 0)
(-0.0707899 -0.0787627 0)
(0.0787947 -0.0699152 0)
(0.0769249 0.085227 0)
(-0.0802215 0.0717055 0)
(-0.125131 0.0490577 0)
(-0.0489969 -0.123152 0)
(0.0524741 0.131378 0)
(0.125431 -0.0474539 0)
(-0.0146757 -0.116124 0)
(0.120207 -0.0128756 0)
(0.0158771 0.123289 0)
(-0.118356 0.0138532 0)
(0.10824 0.0257951 0)
(0.0225087 -0.0998886 0)
(-0.0230961 0.105174 0)
(-0.104547 -0.0241981 0)
(0.386798 -0.0887467 0)
(-0.0883803 -0.37919 0)
(0.0919291 0.395601 0)
(-0.383393 0.0910284 0)
(0.0311746 0.145102 0)
(-0.0289594 -0.136665 0)
(0.140888 -0.0271551 0)
(-0.139109 0.0285339 0)
(-0.126134 0.0625736 0)
(-0.062081 -0.123964 0)
(0.125975 -0.0604584 0)
(0.0664914 0.132712 0)
(0.124463 0.128303 0)
(-0.120945 0.118739 0)
(0.119715 -0.113678 0)
(-0.116029 -0.118139 0)
(-0.10148 -0.297101 0)
(0.106451 0.313159 0)
(0.303012 -0.100638 0)
(-0.303777 0.10651 0)
(0.267983 0.0312775 0)
(0.0293256 -0.257068 0)
(-0.259196 -0.0280506 0)
(-0.0292418 0.269554 0)
(0.136161 -0.0712168 0)
(-0.0730652 -0.133813 0)
(-0.136377 0.0740215 0)
(0.0782466 0.143611 0)
(0.0534927 0.117699 0)
(-0.111789 0.0501399 0)
(-0.0500092 -0.110267 0)
(0.111616 -0.0487588 0)
(0.17337 -0.0728656 0)
(-0.0748179 -0.169655 0)
(0.079599 0.181125 0)
(-0.173084 0.0763259 0)
(-0.023893 -0.0978708 0)
(0.0983367 -0.0234475 0)
(0.0252233 0.103711 0)
(-0.0985381 0.0236747 0)
(-0.0399002 -0.089957 0)
(0.0891131 -0.0393767 0)
(-0.0895197 0.0397278 0)
(0.0424058 0.0947571 0)
(0.173695 -0.0803273 0)
(-0.0823877 -0.17029 0)
(-0.173918 0.0842571 0)
(0.087706 0.182129 0)
(-0.0228711 -0.0992481 0)
(-0.100173 0.022476 0)
(0.100055 -0.0221717 0)
(0.0240863 0.105435 0)
(0.0994994 -0.00868284 0)
(0.0096112 0.102624 0)
(-0.0983778 0.00868021 0)
(-0.00882493 -0.0963782 0)
(-0.125369 0.0591439 0)
(0.0628692 0.131711 0)
(-0.0587802 -0.123279 0)
(0.125377 -0.0572379 0)
(-0.10062 0.251493 0)
(-0.237301 -0.0942907 0)
(0.251799 0.101318 0)
(0.0956955 -0.235314 0)
(0.133054 -0.0689394 0)
(-0.070716 -0.130827 0)
(0.075751 0.140363 0)
(-0.133273 0.0715229 0)
(-0.0273136 0.223734 0)
(0.223833 0.0306546 0)
(0.0279364 -0.213146 0)
(-0.215633 -0.0270726 0)
(0.280465 0.179056 0)
(0.16734 -0.257741 0)
(-0.190055 0.295088 0)
(-0.259172 -0.165417 0)
(-0.213102 0.114319 0)
(0.116411 0.2217 0)
(-0.109725 -0.207391 0)
(0.211335 -0.10793 0)
(0.105122 0.242114 0)
(0.232016 -0.0978894 0)
(-0.233229 0.103797 0)
(-0.0994762 -0.227506 0)
(0.0168543 -0.207793 0)
(-0.0157956 0.218006 0)
(-0.210109 -0.0160596 0)
(0.217286 0.0189516 0)
(0.0435151 0.0991145 0)
(0.0933328 -0.0403496 0)
(-0.0410347 -0.0935998 0)
(-0.0937348 0.040831 0)
(0.045893 0.0998044 0)
(-0.0944436 0.0431417 0)
(0.0939645 -0.0424083 0)
(-0.0431377 -0.094151 0)
(0.18409 -0.338716 0)
(0.364969 0.193369 0)
(-0.221582 0.39575 0)
(-0.339278 -0.183039 0)
(0.113092 -0.0582452 0)
(-0.113508 0.0600536 0)
(0.0639515 0.119682 0)
(-0.0596418 -0.111727 0)
(-0.142826 0.0505719 0)
(0.143667 -0.0486259 0)
(-0.0504439 -0.140318 0)
(0.0539939 0.149527 0)
(-0.0255496 0.0987499 0)
(0.024711 -0.0938586 0)
(0.102271 0.0279956 0)
(-0.0991365 -0.0265359 0)
(-0.0996036 -0.0293171 0)
(-0.0282861 0.0988093 0)
(0.103033 0.0311995 0)
(0.0274458 -0.0940926 0)
(-0.0742352 0.0710911 0)
(-0.07002 -0.0727926 0)
(0.0727625 -0.0694572 0)
(0.076307 0.0790276 0)
(-0.114628 -0.376845 0)
(0.383561 -0.115241 0)
(0.12001 0.394776 0)
(-0.383323 0.118585 0)
(-0.0384306 -0.0963484 0)
(-0.0967289 0.0381396 0)
(0.0964307 -0.0377611 0)
(0.040719 0.102154 0)
(-0.0730232 0.0734443 0)
(0.0717317 -0.0718512 0)
(0.0790759 0.0780564 0)
(-0.0724331 -0.071558 0)
(-0.0929955 0.0216359 0)
(0.0229139 0.0980758 0)
(-0.0218486 -0.0932124 0)
(0.092012 -0.0212838 0)
(-0.0730853 0.0691942 0)
(-0.0679894 -0.0718633 0)
(0.0717503 -0.0675458 0)
(0.0740322 0.0779102 0)
(-0.0243717 0.0965909 0)
(0.0999467 0.0262522 0)
(0.0233839 -0.0917708 0)
(-0.0972804 -0.0250633 0)
(0.0485167 -0.0880732 0)
(-0.0924622 -0.0492255 0)
(-0.0496308 0.0916742 0)
(0.0986706 0.0539195 0)
(0.253207 0.0185436 0)
(0.0166316 -0.243035 0)
(-0.245303 -0.0153352 0)
(-0.0158906 0.254778 0)
(0.040688 0.161439 0)
(-0.154738 0.0377337 0)
(-0.0378171 -0.152076 0)
(0.15662 -0.0359167 0)
(0.19554 -0.0340149 0)
(-0.0358133 -0.1894 0)
(-0.192336 0.0364757 0)
(0.0386541 0.200249 0)
(0.159681 0.118401 0)
(0.110185 -0.146536 0)
(-0.149127 -0.108782 0)
(-0.111819 0.154058 0)
(-0.0337706 -0.19725 0)
(0.203209 -0.0320393 0)
(-0.19992 0.0346553 0)
(0.0366221 0.207881 0)
(-0.0195452 -0.206832 0)
(0.213443 -0.0177385 0)
(-0.209192 0.0204232 0)
(0.0217644 0.21734 0)
(0.0979502 0.184982 0)
(-0.0920758 -0.172817 0)
(-0.176717 0.0944657 0)
(0.176178 -0.0898813 0)
(-0.0874952 0.0728262 0)
(0.0861731 -0.0708178 0)
(-0.0720063 -0.0859575 0)
(0.0779833 0.0928426 0)
(-0.127815 -0.0444275 0)
(-0.0443224 0.130077 0)
(0.0439965 -0.124027 0)
(0.134691 0.0488118 0)
(0.172717 0.115026 0)
(0.107024 -0.158924 0)
(-0.161437 -0.105616 0)
(-0.108809 0.16728 0)
(-0.0913622 0.101347 0)
(0.0903463 -0.0975274 0)
(0.107464 0.0975577 0)
(-0.0999238 -0.0895074 0)
(0.146725 0.0680141 0)
(-0.0627594 0.141371 0)
(-0.13825 -0.062028 0)
(0.0623234 -0.135011 0)
(-0.11138 -0.0216687 0)
(0.0201982 -0.107199 0)
(-0.020502 0.112926 0)
(0.115529 0.0234846 0)
(-0.157501 0.0454062 0)
(0.048534 0.164449 0)
(-0.0452621 -0.154733 0)
(0.159059 -0.0432648 0)
(-0.141345 0.0454081 0)
(-0.0454696 -0.138865 0)
(0.142296 -0.0436523 0)
(0.0486675 0.147823 0)
(0.0396486 -0.129352 0)
(-0.0398248 0.135749 0)
(0.13973 0.0441958 0)
(-0.132995 -0.0401128 0)
(0.0897463 -0.0307448 0)
(0.0327327 0.0954076 0)
(-0.0900884 0.030923 0)
(-0.0309372 -0.0900869 0)
(-0.0166513 -0.0934452 0)
(0.0180207 0.101367 0)
(-0.0948183 0.0167556 0)
(0.0922226 -0.0162295 0)
(-0.0986095 -0.0958292 0)
(0.0967681 -0.0963652 0)
(0.106068 0.104234 0)
(-0.0978435 0.100092 0)
(-0.0659019 0.135862 0)
(0.141455 0.0712519 0)
(-0.133113 -0.065062 0)
(0.0654135 -0.129823 0)
(0.0421716 0.134335 0)
(-0.128267 0.0392217 0)
(-0.0394523 -0.126243 0)
(0.129093 -0.0378704 0)
(0.118717 -0.0338395 0)
(-0.118063 0.034865 0)
(-0.0352493 -0.116391 0)
(0.0376088 0.123822 0)
(-0.12523 0.00979602 0)
(0.127617 -0.008473 0)
(-0.0105489 -0.12263 0)
(0.0117425 0.130007 0)
(0.0892054 -0.10093 0)
(-0.103505 -0.0884043 0)
(-0.0902342 0.105014 0)
(0.111227 0.0963558 0)
(0.0377388 -0.101909 0)
(-0.0385038 0.106839 0)
(-0.106786 -0.0389514 0)
(0.11207 0.04264 0)
(0.0723583 -0.0587764 0)
(0.0638138 0.0781794 0)
(-0.0733835 0.0597714 0)
(-0.0593574 -0.0728929 0)
(-0.19041 0.179022 0)
(0.183271 -0.164947 0)
(0.179021 0.1955 0)
(-0.167091 -0.180681 0)
(0.0919562 0.080137 0)
(-0.0747977 0.085771 0)
(-0.0850464 -0.0732756 0)
(0.0736835 -0.0830599 0)
(0.224769 0.155095 0)
(-0.208913 -0.143199 0)
(-0.152951 0.224121 0)
(0.14494 -0.206593 0)
(-0.191553 0.135475 0)
(0.137838 0.199362 0)
(0.188226 -0.12726 0)
(-0.129286 -0.185219 0)
(-0.0928701 -0.0165793 0)
(0.0156804 -0.0887426 0)
(0.0960068 0.0171943 0)
(-0.0165131 0.0936913 0)
(0.027606 0.269054 0)
(0.264733 -0.0238314 0)
(-0.02553 -0.25722 0)
(-0.259857 0.0270449 0)
(-0.176963 0.223596 0)
(0.220473 0.177665 0)
(0.165623 -0.202781 0)
(-0.204899 -0.163583 0)
(0.235525 0.148553 0)
(-0.146783 0.235125 0)
(-0.219416 -0.137388 0)
(0.139221 -0.217158 0)
(0.15002 -0.0758623 0)
(-0.0777693 -0.147177 0)
(-0.15013 0.0790203 0)
(0.0830832 0.157788 0)
(0.0819051 -0.0553292 0)
(0.0603037 0.0880642 0)
(-0.0833444 0.0565367 0)
(-0.0559035 -0.0821229 0)
(-0.00864752 0.102307 0)
(0.103313 0.00974143 0)
(-0.100413 -0.0092289 0)
(0.00835898 -0.0970017 0)
(0.215755 -0.0514556 0)
(-0.0532874 -0.210582 0)
(-0.213881 0.0548465 0)
(0.0568264 0.222526 0)
(-0.102257 -0.0438881 0)
(-0.0437192 0.101814 0)
(0.107934 0.0480574 0)
(0.0428171 -0.097343 0)
(-0.068076 0.0877232 0)
(0.094087 0.0732082 0)
(0.0670267 -0.0848282 0)
(-0.0872123 -0.0667794 0)
(0.220304 -0.0700088 0)
(-0.0718003 -0.215398 0)
(0.076106 0.228097 0)
(-0.219235 0.0740437 0)
(0.0255677 -0.130745 0)
(0.140067 0.0293051 0)
(-0.0254097 0.137481 0)
(-0.134273 -0.0262985 0)
(0.14798 0.054954 0)
(-0.0501396 0.143461 0)
(-0.14018 -0.0499224 0)
(0.0499107 -0.136768 0)
(0.10469 -0.0855446 0)
(-0.1057 0.0886855 0)
(0.0941653 0.112227 0)
(-0.0874837 -0.1036 0)
(-0.105355 -0.0424819 0)
(-0.0422335 0.105278 0)
(0.0414029 -0.100535 0)
(0.110966 0.0465429 0)
(0.0945337 0.0769467 0)
(-0.0875941 -0.0702488 0)
(0.0705943 -0.0853284 0)
(-0.071663 0.0882258 0)
(-0.0646189 0.164929 0)
(0.169543 0.0697188 0)
(0.064431 -0.15728 0)
(-0.160201 -0.0638519 0)
(-0.0831987 0.0755519 0)
(0.0810535 0.0884603 0)
(0.0818575 -0.0734785 0)
(-0.0746895 -0.0816105 0)
(0.000139963 -0.10645 0)
(0.11218 0.00182019 0)
(-0.109381 -0.00105116 0)
(0.000214836 0.112599 0)
(-0.134809 0.008039 0)
(0.137762 -0.00673935 0)
(0.0100578 0.139806 0)
(-0.00880259 -0.132109 0)
(0.143766 0.0578447 0)
(-0.0529338 0.138848 0)
(0.0525957 -0.132479 0)
(-0.135894 -0.052602 0)
(-0.0832699 0.0790186 0)
(0.08472 0.0886331 0)
(0.0819683 -0.0767393 0)
(-0.0781718 -0.0816105 0)
(-0.0332139 -0.102354 0)
(0.0351618 0.108715 0)
(-0.103223 0.0328497 0)
(0.103189 -0.032383 0)
(0.0734775 -0.104149 0)
(0.114803 0.0800118 0)
(-0.10724 -0.0730526 0)
(-0.0744171 0.108496 0)
(0.0371387 0.10585 0)
(-0.0350398 -0.0997123 0)
(-0.100395 0.0347773 0)
(0.100268 -0.0343376 0)
(-0.0250398 0.109868 0)
(0.113208 0.0282709 0)
(0.0245799 -0.104422 0)
(-0.108969 -0.0261338 0)
(0.156071 -0.0742797 0)
(-0.0762753 -0.152968 0)
(0.0814701 0.163908 0)
(-0.156103 0.0775946 0)
(-0.128726 -0.0473697 0)
(-0.0473981 0.13096 0)
(0.0470293 -0.124979 0)
(0.135927 0.0520711 0)
(0.0744691 0.11342 0)
(-0.0692377 -0.105417 0)
(-0.107269 0.0699444 0)
(0.106479 -0.0677381 0)
(-0.0570772 0.118974 0)
(0.124819 0.0621262 0)
(0.0564079 -0.113778 0)
(-0.11753 -0.0565725 0)
(0.0841563 -0.0544592 0)
(-0.0855171 0.0556742 0)
(0.0593039 0.090328 0)
(-0.0550471 -0.0844004 0)
(-0.0992444 -0.0989457 0)
(0.0999893 -0.0969696 0)
(0.106728 0.107563 0)
(-0.10104 0.100835 0)
(-0.038368 0.139166 0)
(0.143007 0.0427556 0)
(0.0383058 -0.132566 0)
(-0.136112 -0.0387066 0)
(-0.0281006 0.111597 0)
(0.115275 0.031633 0)
(0.0276531 -0.10615 0)
(-0.110691 -0.0290964 0)
(-0.0952534 0.0534831 0)
(-0.0530581 -0.0942571 0)
(0.0569861 0.100593 0)
(0.0943371 -0.0521973 0)
(0.104841 0.00792693 0)
(-0.101931 -0.00741691 0)
(-0.00677549 0.104155 0)
(0.00660736 -0.0987095 0)
(-0.127147 -0.00964781 0)
(-0.00818762 0.130796 0)
(0.00858578 -0.12388 0)
(0.131123 0.0113903 0)
(-0.169665 -0.153718 0)
(0.155717 -0.167141 0)
(0.181913 0.166914 0)
(-0.161065 0.179315 0)
(-0.177372 -0.16845 0)
(0.190085 0.183069 0)
(0.170527 -0.174989 0)
(-0.178061 0.189459 0)
(-0.132374 -0.0179054 0)
(0.017039 -0.129019 0)
(-0.01671 0.135939 0)
(0.13727 0.0203048 0)
(-0.0285474 -0.106681 0)
(-0.107911 0.0280112 0)
(0.0301635 0.113396 0)
(0.108211 -0.0274729 0)
(0.0648647 -0.07518 0)
(0.0831099 0.0710126 0)
(-0.0766779 -0.0648065 0)
(-0.0659633 0.0771642 0)
(-0.0407777 -0.102422 0)
(0.103183 -0.0398036 0)
(-0.103333 0.0406105 0)
(0.0434297 0.108839 0)
(0.216474 -0.0473448 0)
(-0.214002 0.0503981 0)
(-0.0490143 -0.211042 0)
(0.0522836 0.222249 0)
(-0.0465393 -0.244984 0)
(0.0494993 0.257163 0)
(0.251281 -0.0449245 0)
(-0.247934 0.0483938 0)
(-0.0443923 -0.104648 0)
(-0.105763 0.0443815 0)
(0.0474055 0.111332 0)
(0.105588 -0.0433536 0)
(-0.0328197 0.0969482 0)
(0.102485 0.0364082 0)
(0.0318506 -0.0925945 0)
(-0.0982921 -0.0336749 0)
(0.100473 0.0388851 0)
(-0.0350892 0.0940999 0)
(-0.095781 -0.0359319 0)
(0.0340484 -0.0900053 0)
(0.0682838 -0.0746451 0)
(-0.0758244 -0.0679314 0)
(-0.0693643 0.0765352 0)
(0.0824264 0.074583 0)
(0.0376991 0.132714 0)
(-0.126769 0.0349304 0)
(-0.0352847 -0.124779 0)
(0.127758 -0.0336739 0)
(0.0885902 -0.0493512 0)
(-0.0895921 0.0504216 0)
(0.0536195 0.0946704 0)
(-0.0499974 -0.0888531 0)
(0.148953 0.260082 0)
(-0.140496 -0.243083 0)
(0.247194 -0.139284 0)
(-0.252767 0.15009 0)
(0.0913795 -0.0466568 0)
(0.0506474 0.097335 0)
(-0.0921275 0.0476352 0)
(-0.0473192 -0.0916091 0)
(-0.0915268 -0.0531908 0)
(0.052791 -0.0877101 0)
(0.0979775 0.0583185 0)
(-0.0539127 0.0911612 0)
(-0.0896775 0.072929 0)
(0.0884404 -0.0708302 0)
(-0.0721044 -0.0880993 0)
(0.0780628 0.0951639 0)
(-0.0854145 -0.0459807 0)
(0.0446744 -0.0812026 0)
(-0.0460381 0.0842986 0)
(0.091514 0.0499316 0)
(-0.103111 -0.000934966 0)
(-8.67121e-05 0.105994 0)
(0.105778 0.00144376 0)
(0.000261548 -0.10031 0)
(0.00369853 0.107202 0)
(-0.103981 0.00266828 0)
(-0.0033284 -0.101417 0)
(0.10644 -0.002175 0)
(-0.113319 -0.0206941 0)
(0.117559 0.0226316 0)
(0.0193212 -0.109291 0)
(-0.019499 0.11514 0)
(-0.0812087 -0.0521342 0)
(0.0876556 0.0567978 0)
(-0.0526471 0.0812174 0)
(0.0513284 -0.0786103 0)
(0.103623 -0.00870593 0)
(-0.00975494 -0.100242 0)
(0.0107219 0.106608 0)
(-0.102334 0.00936456 0)
(-0.00744771 -0.101486 0)
(-0.103729 0.0069695 0)
(0.00828603 0.107623 0)
(0.105526 -0.00631425 0)
(-0.136155 0.0126808 0)
(0.138874 -0.011221 0)
(0.0147472 0.14146 0)
(-0.013349 -0.133566 0)
(-0.0790741 -0.106047 0)
(0.0850803 0.114486 0)
(-0.108088 0.0800575 0)
(0.107149 -0.077392 0)
(0.14454 -0.127837 0)
(0.139261 0.154362 0)
(-0.130084 -0.142417 0)
(-0.146489 0.134317 0)
(0.0560085 -0.0975962 0)
(-0.101488 -0.0562639 0)
(-0.0569257 0.101735 0)
(0.10822 0.0617681 0)
(0.0864359 -0.0489197 0)
(-0.0875969 0.0500004 0)
(-0.0494774 -0.0868441 0)
(0.0530844 0.0925739 0)
(0.103838 0.00170121 0)
(-0.101159 -0.00134929 0)
(0.000846753 -0.0982925 0)
(-0.000798904 0.103859 0)
(0.155913 -0.124293 0)
(-0.157936 0.130887 0)
(0.135397 0.165984 0)
(-0.126571 -0.153497 0)
(0.0544767 -0.101528 0)
(-0.10554 -0.0547902 0)
(-0.0553194 0.105967 0)
(0.11227 0.0601784 0)
(-0.0872076 -0.0604544 0)
(0.0938723 0.066246 0)
(-0.0614643 0.0873682 0)
(0.0603709 -0.0843789 0)
(-0.171549 -0.0470438 0)
(-0.0474397 0.177436 0)
(0.180418 0.051784 0)
(0.0476219 -0.168741 0)
(-0.121675 0.0670096 0)
(-0.0664087 -0.11956 0)
(0.12135 -0.0647806 0)
(0.0711842 0.128255 0)
(-0.109595 0.244276 0)
(-0.229669 -0.10256 0)
(0.245107 0.110406 0)
(0.10411 -0.227814 0)
(-0.106514 0.0211583 0)
(-0.0217247 -0.105108 0)
(0.0230058 0.11182 0)
(0.106897 -0.0206447 0)
(0.0198543 -0.127641 0)
(-0.131129 -0.0207025 0)
(-0.0196008 0.134364 0)
(0.136346 0.0232824 0)
(0.0165044 0.115391 0)
(0.11178 -0.0138464 0)
(-0.0153487 -0.108486 0)
(-0.110532 0.0146522 0)
(-0.0809258 -0.103614 0)
(0.0871452 0.112043 0)
(-0.105652 0.0819276 0)
(0.104654 -0.0791471 0)
(0.0139868 0.118075 0)
(0.115031 -0.01115 0)
(-0.0129046 -0.111128 0)
(-0.113354 0.0121162 0)
(0.147703 0.0206154 0)
(-0.0168198 0.14627 0)
(0.0173635 -0.139027 0)
(-0.14216 -0.0179285 0)
(-0.117131 0.0853184 0)
(0.0904364 0.124061 0)
(0.116398 -0.0823192 0)
(-0.0842011 -0.114887 0)
(-0.0465964 -0.103843 0)
(0.0497921 0.110635 0)
(-0.104948 0.0466381 0)
(0.104652 -0.0455222 0)
(0.10519 0.19184 0)
(-0.183435 0.101937 0)
(-0.0989534 -0.179121 0)
(0.182525 -0.0968262 0)
(-0.177027 -0.138168 0)
(0.189975 0.150223 0)
(-0.144553 0.186385 0)
(0.13996 -0.174505 0)
(-0.113505 0.00862833 0)
(0.0104703 0.117881 0)
(-0.00951001 -0.111113 0)
(0.115579 -0.00767257 0)
(-0.180783 0.125685 0)
(0.128806 0.18879 0)
(-0.120802 -0.175423 0)
(0.178427 -0.118651 0)
(0.0626847 0.0806343 0)
(-0.0759159 0.0589768 0)
(0.0746934 -0.0577376 0)
(-0.0582046 -0.0751358 0)
(0.0351977 0.100607 0)
(-0.0951806 0.0331097 0)
(-0.033254 -0.0949045 0)
(0.0949589 -0.0328316 0)
(0.0376143 0.100724 0)
(-0.0952783 0.0353386 0)
(0.095029 -0.0350502 0)
(-0.0355388 -0.095055 0)
(-0.0999871 0.0174483 0)
(-0.017703 -0.0985428 0)
(0.0189746 0.105426 0)
(0.0996152 -0.0168665 0)