/*--------------------------------*- C++ -*----------------------------------*\
| =========                 |                                                 |
| \\      /  F ield         | foam-extend: Open Source CFD                    |
|  \\    /   O peration     | Version:  3.0                                   |
|   \\  /    A nd           | Web:         http://www.extend-project.de       |
|    \\/     M anipulation  |                                                 |
\*---------------------------------------------------------------------------*/
FoamFile
{
    version     2.0;
    format      ascii;
    class       volSymmTensorField;
    location    "17";
    object      sigma;
}
// * * * * * * * * * * * * * * * * * * * * * * * * * * * * * * * * * * * * * //

dimensions      [0 0 0 0 0 0 0];

internalField   nonuniform List<symmTensor> 
480
(
(-0.164172 -0.0121191 2.35729e-20 0.164169 -3.6987e-21 3.50665e-06)
(-0.146857 -0.0137442 1.05746e-19 0.146848 -3.35951e-20 8.44856e-06)
(-0.124431 -0.0131394 1.04797e-19 0.124419 1.7456e-19 1.28029e-05)
(-0.10237 -0.0118193 -7.14676e-20 0.102353 1.20949e-19 1.69825e-05)
(-0.0823486 -0.0103458 1.18489e-19 0.0823275 -2.03918e-19 2.10975e-05)
(-0.0647723 -0.00895232 4.02218e-19 0.0647474 -8.75625e-20 2.48563e-05)
(-0.0497045 -0.00772795 3.90164e-19 0.0496769 -1.86014e-19 2.76327e-05)
(-0.0372972 -0.00674898 4.74473e-20 0.0372692 -4.51921e-20 2.80311e-05)
(-0.0276492 -0.00604179 4.85945e-19 0.0276252 -7.28542e-19 2.39749e-05)
(-0.0213178 -0.00570849 5.30971e-20 0.021306 -1.84396e-19 1.1791e-05)
(-0.159908 -0.0360416 1.35674e-21 0.159903 -1.31981e-20 4.22149e-06)
(-0.140128 -0.040245 1.58204e-19 0.140117 -1.14494e-19 1.02121e-05)
(-0.117233 -0.0382088 3.48025e-19 0.117217 -1.86252e-19 1.54054e-05)
(-0.0954386 -0.0342002 -2.50411e-20 0.0954184 -1.63535e-19 2.02007e-05)
(-0.0759388 -0.0297955 -2.12978e-19 0.0759141 -1.97607e-19 2.47041e-05)
(-0.0589232 -0.025645 2.2189e-19 0.0588946 -1.85365e-20 2.85798e-05)
(-0.0443702 -0.0219926 3.34888e-19 0.044339 -2.27605e-19 3.11775e-05)
(-0.032364 -0.0190485 7.86397e-20 0.0323329 -1.82455e-19 3.10462e-05)
(-0.022985 -0.0168802 -5.33513e-19 0.0229589 -5.14804e-19 2.60902e-05)
(-0.0167386 -0.0157221 1.4602e-19 0.016726 2.90808e-19 1.25969e-05)
(-0.151652 -0.0585102 -5.19347e-20 0.151647 -4.5954e-20 4.8666e-06)
(-0.127416 -0.0636611 -4.2184e-21 0.127404 -2.4584e-19 1.17758e-05)
(-0.103726 -0.0597477 1.96862e-20 0.103708 -2.14016e-19 1.76568e-05)
(-0.0824832 -0.0530586 -1.4524e-19 0.0824603 -2.22239e-20 2.29163e-05)
(-0.0639943 -0.0459012 -1.89302e-19 0.0639667 3.53873e-19 2.76523e-05)
(-0.0480552 -0.0392135 3.67808e-19 0.0480237 1.37342e-19 3.15183e-05)
(-0.0344894 -0.0333432 9.33413e-20 0.0344555 -3.79321e-20 3.38499e-05)
(-0.0232564 -0.0285938 -1.75887e-19 0.0232232 -1.30012e-19 3.31971e-05)
(-0.0144042 -0.0250644 -1.38392e-19 0.0143767 6.1316e-19 2.74833e-05)
(-0.00834909 -0.0230957 6.45961e-19 0.00833603 -4.78677e-19 1.30611e-05)
(-0.139964 -0.0787226 -1.6079e-19 0.139959 -1.26744e-20 5.39165e-06)
(-0.110129 -0.0824006 -4.1834e-19 0.110116 2.29944e-19 1.30399e-05)
(-0.08557 -0.0759583 2.4554e-20 0.0855506 3.29813e-19 1.94513e-05)
(-0.0651838 -0.0666133 2.3404e-19 0.0651588 2.90742e-19 2.50282e-05)
(-0.0481263 -0.05698 8.48816e-20 0.0480964 4.09801e-19 2.98659e-05)
(-0.033687 -0.0480927 1.39188e-19 0.0336534 -1.06915e-19 3.36153e-05)
(-0.0214899 -0.0403261 2.62912e-19 0.0214543 -8.60747e-20 3.5622e-05)
(-0.0113345 -0.0340173 3.62541e-19 0.0113 -1.34633e-20 3.44699e-05)
(-0.00322569 -0.0292819 1.95919e-19 0.00319753 -6.27285e-19 2.81602e-05)
(0.00253329 -0.0265306 -8.82635e-19 -0.00254648 9.41443e-20 1.31945e-05)
(-0.125591 -0.096108 3.1871e-20 0.125585 -1.60377e-20 5.79554e-06)
(-0.0901205 -0.0954987 -3.34444e-19 0.0901065 5.56679e-19 1.40059e-05)
(-0.0649439 -0.0857898 -2.55362e-19 0.0649231 5.97112e-19 2.07927e-05)
(-0.0457419 -0.0738425 -2.31596e-20 0.0457154 4.0828e-19 2.65477e-05)
(-0.0304447 -0.0620801 4.1551e-19 0.0304133 -1.3025e-19 3.1363e-05)
(-0.0178058 -0.0514084 3.56767e-20 0.0177709 -5.47018e-19 3.48974e-05)
(-0.00723926 -0.0421397 4.86726e-19 0.00720274 -8.97873e-19 3.65244e-05)
(0.00162459 -0.0345736 -2.63633e-19 -0.00165949 -7.58578e-19 3.49016e-05)
(0.00882761 -0.0288251 -1.80494e-19 -0.00885576 -7.11653e-19 2.8152e-05)
(0.0141888 -0.0253325 5.22901e-19 -0.0142018 3.24574e-19 1.30112e-05)
(-0.109367 -0.11037 6.86484e-20 0.109361 1.6757e-19 6.08127e-06)
(-0.0694156 -0.102732 3.48625e-19 0.069401 3.81822e-19 1.46821e-05)
(-0.044221 -0.0890739 3.21202e-19 0.0441993 3.06062e-19 2.16987e-05)
(-0.0265532 -0.074622 2.01321e-19 0.0265257 -6.39573e-20 2.75034e-05)
(-0.0132423 -0.0611133 -6.1983e-20 0.0132101 -7.5038e-19 3.21866e-05)
(-0.0025685 -0.0491028 -5.53816e-19 0.00253308 -1.10365e-18 3.54228e-05)
(0.00623747 -0.0387513 -1.13877e-18 -0.0062741 -5.47846e-19 3.6631e-05)
(0.0136953 -0.0302514 9.45408e-20 -0.0137299 -4.79413e-19 3.4572e-05)
(0.0198906 -0.0236994 -1.11962e-18 -0.0199182 -2.77866e-19 2.75327e-05)
(0.0247574 -0.0195206 5.07758e-19 -0.0247699 -3.87374e-19 1.25492e-05)
(-0.0921158 -0.121494 -3.79508e-20 0.0921096 2.32552e-19 6.2552e-06)
(-0.0499242 -0.104622 5.93543e-19 0.0499091 4.92461e-20 1.50868e-05)
(-0.0256229 -0.0865279 8.21866e-19 0.0256007 -2.81093e-19 2.22011e-05)
(-0.00985215 -0.0697272 6.42502e-19 0.00982421 -7.60023e-19 2.79448e-05)
(0.00134717 -0.0548567 -4.00765e-19 -0.00137957 -9.05001e-19 3.2405e-05)
(0.0100213 -0.0419352 -1.02031e-18 -0.0100566 -5.59303e-19 3.52786e-05)
(0.0170629 -0.0308986 -1.24938e-18 -0.0170989 2.2745e-19 3.60422e-05)
(0.0230958 -0.0217746 -6.94492e-19 -0.0231294 -3.67727e-19 3.35847e-05)
(0.0282397 -0.0146249 -1.60047e-18 -0.0282661 3.2489e-19 2.63892e-05)
(0.0325224 -0.00982813 2.41468e-19 -0.0325342 -1.21428e-19 1.18488e-05)
(-0.0745454 -0.129707 9.58228e-20 0.0745391 -1.49397e-20 6.32514e-06)
(-0.0331692 -0.102328 2.71104e-19 0.033154 -2.06811e-19 1.52423e-05)
(-0.0108969 -0.0796242 1.93784e-19 0.0108746 -3.96241e-19 2.2339e-05)
(0.00261596 -0.0607002 -1.14172e-19 -0.00264389 -4.96659e-19 2.79299e-05)
(0.0116652 -0.0448238 -6.61551e-19 -0.0116973 -2.38797e-19 3.20975e-05)
(0.018413 -0.0313603 -6.55204e-19 -0.0184476 4.80287e-20 3.45643e-05)
(0.0237896 -0.0199743 -5.29145e-19 -0.0238245 1.56602e-19 3.48733e-05)
(0.0284574 -0.0104914 -5.74268e-19 -0.0284895 1.75973e-19 3.20577e-05)
(0.0325552 -0.00292807 -3.35101e-19 -0.03258 -7.5577e-20 2.48219e-05)
(0.0361732 0.00240598 -1.10941e-18 -0.0361842 1.42068e-19 1.09577e-05)
(-0.0571784 -0.135414 -3.08077e-20 0.0571721 -6.50171e-20 6.30168e-06)
(-0.02008 -0.0974449 -2.57421e-19 0.0200648 -1.51073e-19 1.5176e-05)
(-0.00106805 -0.0703481 -4.81028e-19 0.00104589 -1.03338e-19 2.21579e-05)
(0.00984735 -0.0496012 -4.09074e-19 -0.00987488 4.6036e-20 2.7525e-05)
(0.0167717 -0.0330249 -2.64694e-20 -0.016803 3.16003e-20 3.1352e-05)
(0.0217389 -0.019301 -4.02432e-19 -0.0217723 3.2111e-20 3.33888e-05)
(0.0256174 -0.00781092 -3.39805e-19 -0.0256507 6.6246e-20 3.3248e-05)
(0.0290324 0.00183091 -3.21777e-19 -0.0290625 1.93914e-19 3.01177e-05)
(0.0321232 0.00965828 -5.61694e-20 -0.0321461 -8.22931e-20 2.29384e-05)
(0.0350071 0.0154374 -5.72168e-19 -0.035017 3.17666e-19 9.92748e-06)
(-0.0403075 -0.139105 -5.00267e-20 0.0403013 -4.73103e-20 6.19463e-06)
(-0.0108787 -0.0917388 -1.38291e-19 0.0108637 -1.62594e-19 1.49152e-05)
(0.0036956 -0.060879 -6.85648e-19 -0.0037173 -2.90261e-20 2.17036e-05)
(0.0117172 -0.0386834 -6.28827e-19 -0.011744 1.46607e-19 2.67954e-05)
(0.0165771 -0.0216533 -4.30662e-19 -0.0166073 2.00737e-19 3.02546e-05)
(0.0199392 -0.00785033 -5.72907e-20 -0.019971 1.37348e-19 3.18571e-05)
(0.0225114 0.00360021 -3.44516e-19 -0.0225427 1.42346e-19 3.12855e-05)
(0.0248065 0.0132754 -1.01864e-20 -0.0248343 3.34779e-19 2.78847e-05)
(0.0269455 0.0212568 5.58713e-19 -0.0269663 3.12149e-20 2.08392e-05)
(0.0290391 0.0273791 -1.09075e-19 -0.0290479 -1.61527e-20 8.80457e-06)
(-0.0239923 -0.141258 -5.76774e-20 0.0239863 -3.10173e-20 6.01567e-06)
(-0.00507676 -0.0868613 -1.01022e-19 0.00506228 -1.07913e-19 1.44889e-05)
(0.004086 -0.0532456 -3.64683e-19 -0.00410702 -1.23418e-20 2.10223e-05)
(0.0089821 -0.0300405 -2.68591e-19 -0.00900791 1.18509e-19 2.58061e-05)
(0.0118448 -0.0127442 -2.76307e-19 -0.0118737 1.22606e-19 2.88894e-05)
(0.0137639 0.00105108 -4.45267e-19 -0.013794 9.93815e-20 3.00711e-05)
(0.0152036 0.0124144 -4.12458e-19 -0.0152327 1.85206e-19 2.91003e-05)
(0.0165008 0.0220676 -1.10746e-19 -0.0165262 2.99694e-19 2.54758e-05)
(0.0177414 0.0301303 4.09889e-19 -0.01776 5.36585e-20 1.8624e-05)
(0.0190031 0.0364861 -3.72939e-20 -0.0190107 -1.98752e-20 7.63779e-06)
(-0.00809384 -0.142245 -7.83595e-20 0.00808807 -1.6078e-20 5.77403e-06)
(-0.00158247 -0.0840837 -1.43312e-19 0.00156854 -7.38259e-20 1.39217e-05)
(0.00152548 -0.0490072 -2.87393e-19 -0.00154563 -1.2417e-20 2.01536e-05)
(0.00314724 -0.0252805 -3.81209e-19 -0.00317185 1.12585e-19 2.46117e-05)
(0.00406254 -0.00786036 -3.721e-19 -0.00408986 1.06266e-19 2.73261e-05)
(0.00465121 0.00591374 -3.4923e-19 -0.00467933 8.76181e-20 2.81143e-05)
(0.00507771 0.0172161 -1.65317e-19 -0.0051045 1.64947e-19 2.67856e-05)
(0.00546116 0.0268459 -1.09974e-19 -0.00548414 2.62147e-19 2.29842e-05)
(0.00584011 0.0349459 2.90532e-19 -0.00585648 9.79005e-20 1.63703e-05)
(0.00624456 0.04142 1.57197e-19 -0.00625102 -2.44816e-20 6.46264e-06)
(0.00765889 -0.142269 -7.57789e-20 -0.00766437 -4.79905e-21 5.4791e-06)
(0.00109926 -0.0840949 -2.09518e-19 -0.00111249 -6.19382e-20 1.32358e-05)
(-0.00207525 -0.0490093 -1.76797e-19 0.00205612 -2.31025e-20 1.91313e-05)
(-0.00378129 -0.0252758 -3.19116e-19 0.00375803 1.09094e-19 2.3258e-05)
(-0.00479688 -0.00784996 -4.24989e-19 0.00477126 1.04302e-19 2.56221e-05)
(-0.00549989 0.00592867 -3.05045e-19 0.00547384 6.41419e-20 2.6055e-05)
(-0.00604572 0.0172358 -2.3832e-20 0.0060213 1.15198e-19 2.4418e-05)
(-0.00654734 0.02687 -1.61059e-19 0.00652685 2.1566e-19 2.04885e-05)
(-0.00701929 0.0349775 6.91461e-20 0.00700514 8.44963e-20 1.41464e-05)
(-0.00748075 0.041452 1.73429e-19 0.00747544 -2.6542e-20 5.31386e-06)
(0.0235808 -0.141324 -9.01403e-20 -0.023586 9.81188e-21 5.1368e-06)
(0.00460411 -0.0868922 -2.49543e-19 -0.00461656 -5.3726e-20 1.24458e-05)
(-0.00463401 -0.0532515 -2.64647e-20 0.00461603 -4.18539e-20 1.79775e-05)
(-0.0096209 -0.0300277 -4.87479e-20 0.00959912 1.04887e-19 2.17734e-05)
(-0.0125893 -0.0127158 -5.2888e-19 0.0125655 9.67979e-20 2.38123e-05)
(-0.0146271 0.00109203 -3.30934e-19 0.0146031 4.96854e-20 2.3934e-05)
(-0.0161908 0.0124686 -2.45803e-19 0.0161687 4.01766e-20 2.20427e-05)
(-0.0176102 0.0221337 1.92891e-19 0.0175922 1.68073e-19 1.80343e-05)
(-0.018951 0.0302171 -4.10578e-19 0.0189391 7.16968e-20 1.19911e-05)
(-0.0202699 0.0365742 7.61561e-20 0.0202657 -1.38097e-20 4.20967e-06)
(0.0399366 -0.139197 -3.73518e-20 -0.0399414 4.37784e-20 4.75204e-06)
(0.0104244 -0.0917818 -2.79811e-19 -0.010436 -1.58139e-20 1.15616e-05)
(-0.00424041 -0.0608876 -3.88903e-19 0.00422371 -9.20766e-20 1.67051e-05)
(-0.0123641 -0.038666 -2.85089e-19 0.0123439 1.15424e-20 2.01733e-05)
(-0.0173391 -0.0216142 -3.93696e-19 0.0173172 6.61889e-20 2.19142e-05)
(-0.0208274 -0.00779385 -1.07013e-19 0.0208056 5.74076e-20 2.17711e-05)
(-0.0235318 0.0036752 -1.80842e-19 0.0235121 5.39349e-20 1.96822e-05)
(-0.0259564 0.0133671 -5.5756e-20 0.0259408 6.76614e-20 1.56466e-05)
(-0.0282083 0.021377 -1.80128e-19 0.0281983 -6.19487e-20 9.92836e-06)
(-0.0303593 0.0275017 3.57405e-19 0.0303561 1.38559e-20 3.16459e-06)
(0.0568545 -0.135508 -4.43624e-20 -0.0568588 5.38496e-20 4.32631e-06)
(0.0196473 -0.0974897 -4.48232e-19 -0.0196579 -5.30651e-20 1.05854e-05)
(0.000527225 -0.0703578 -1.35808e-19 -0.00054254 -1.10693e-19 1.53148e-05)
(-0.0105034 -0.0495842 1.15954e-19 0.0104849 -2.08027e-20 1.84554e-05)
(-0.0175538 -0.0329854 1.50678e-19 0.0175339 2.07321e-19 1.99222e-05)
(-0.0226561 -0.0192433 -2.84013e-19 0.0226366 1.66019e-19 1.95583e-05)
(-0.0266763 -0.00773393 -2.94493e-19 0.026659 -9.34888e-20 1.73279e-05)
(-0.0302294 0.00192542 7.60909e-21 0.0302161 -1.18101e-19 1.33183e-05)
(-0.033448 0.00978223 2.30892e-20 0.03344 1.93718e-20 7.95432e-06)
(-0.0363899 0.0155649 -6.92601e-19 0.0363878 7.97988e-20 2.17804e-06)
(0.0742622 -0.12978 4.87707e-20 -0.0742661 -3.3629e-20 3.85998e-06)
(0.0327556 -0.102364 2.22311e-19 -0.0327652 9.67828e-20 9.5148e-06)
(0.0103601 -0.0796334 1.65219e-19 -0.0103739 1.1303e-19 1.37992e-05)
(-0.00327942 -0.0606883 4.14502e-20 0.00326281 9.64692e-20 1.66058e-05)
(-0.0124645 -0.0447939 4.64675e-20 0.0124467 1.72832e-19 1.78157e-05)
(-0.0193553 -0.0313156 -5.65444e-19 0.0193381 2.23295e-19 1.72697e-05)
(-0.0248821 -0.019914 -7.97639e-19 0.0248672 -3.12593e-19 1.49514e-05)
(-0.0296961 -0.0104168 -4.44499e-19 0.0296851 1.90938e-19 1.10231e-05)
(-0.033935 -0.00283021 -1.43946e-18 0.033929 -6.14517e-19 6.05078e-06)
(-0.0376121 0.00250844 9.08546e-19 0.0376108 2.13526e-20 1.24479e-06)
(0.0918564 -0.121529 -1.0727e-19 -0.0918597 -2.97596e-19 3.35125e-06)
(0.0495227 -0.104642 4.92609e-19 -0.049531 -1.33197e-19 8.3426e-06)
(0.0250896 -0.0865351 5.39863e-19 -0.0251018 5.70874e-20 1.21432e-05)
(0.0091853 -0.0697236 3.71248e-19 -0.0091999 3.65108e-19 1.45993e-05)
(-0.00215588 -0.0548435 -4.94213e-19 0.00214032 3.30089e-19 1.55589e-05)
(-0.0109781 -0.0419138 -8.67102e-19 0.0109632 5.09962e-19 1.48607e-05)
(-0.0181755 -0.0308687 -1.50276e-18 0.018163 -7.56027e-21 1.25032e-05)
(-0.0243599 -0.0217366 -1.83113e-19 0.0243512 -7.55725e-20 8.71355e-06)
(-0.0296537 -0.0145753 -1.18373e-18 0.0296495 2.58476e-19 4.18081e-06)
(-0.0339969 -0.00977298 -4.24404e-19 0.0339965 -6.44656e-19 3.49757e-07)
(0.109108 -0.110361 -3.36929e-20 -0.109111 -1.94374e-19 2.79802e-06)
(0.0690162 -0.102733 2.47616e-20 -0.0690233 -4.24848e-19 7.05999e-06)
(0.04369 -0.0890783 -5.98019e-20 -0.0437003 -5.00339e-19 1.03283e-05)
(0.0258882 -0.0746276 -1.26879e-19 -0.0259006 -1.82176e-19 1.24057e-05)
(0.0124346 -0.0611192 -5.69356e-19 -0.0124477 2.88049e-19 1.31097e-05)
(0.00161161 -0.0491083 -4.6488e-19 -0.00162389 4.43466e-19 1.22784e-05)
(-0.0073516 -0.0387568 1.55821e-19 0.00734167 7.69735e-19 9.92414e-06)
(-0.0149626 -0.0302564 -3.84872e-19 0.0149562 4.46905e-19 6.33204e-06)
(-0.0213097 -0.0237066 -4.2936e-19 0.0213074 1.05558e-18 2.29927e-06)
(-0.0262391 -0.0195217 -5.06053e-19 0.0262396 -6.37825e-19 -5.25488e-07)
(0.125309 -0.096061 -1.30425e-20 -0.125312 2.57902e-20 2.19793e-06)
(0.0897133 -0.0954822 -5.13439e-19 -0.0897189 -3.07896e-19 5.65782e-06)
(0.064414 -0.0857911 -8.3003e-19 -0.0644223 -6.35449e-19 8.33565e-06)
(0.0450839 -0.0738553 -5.75076e-19 -0.0450939 -5.36397e-19 9.99386e-06)
(0.0296484 -0.0621019 7.87043e-20 -0.0296588 1.60962e-19 1.04237e-05)
(0.0168632 -0.0514367 4.81854e-19 -0.0168727 3.47101e-19 9.46693e-06)
(0.00614242 -0.0421756 5.78239e-19 -0.00614957 4.55206e-19 7.15104e-06)
(-0.0028724 -0.0346158 4.0471e-19 0.00286858 3.59729e-19 3.81638e-06)
(-0.0102225 -0.0288819 4.59764e-19 0.0102221 1.20067e-18 3.56658e-07)
(-0.0156487 -0.0253832 -9.77153e-19 0.0156501 1.06037e-19 -1.40178e-06)
(0.139644 -0.0786556 -1.47513e-19 -0.139646 3.70114e-20 1.5497e-06)
(0.109707 -0.0823742 -5.32696e-19 -0.109711 1.00415e-19 4.12951e-06)
(0.0850401 -0.075957 -5.90242e-19 -0.0850463 -1.37361e-19 6.15008e-06)
(0.0645363 -0.0666292 1.52761e-19 -0.0645436 -2.27661e-19 7.33744e-06)
(0.0473487 -0.0570098 7.68349e-19 -0.0473562 -4.7917e-21 7.462e-06)
(0.0327693 -0.048133 3.37576e-19 -0.0327756 2.68423e-19 6.37583e-06)
(0.0204241 -0.0403786 2.82207e-19 -0.0204282 2.13885e-21 4.12552e-06)
(0.0101227 -0.0340805 6.51911e-19 -0.0101238 2.3341e-19 1.1078e-06)
(0.00187687 -0.0293676 3.54258e-19 -0.00187518 4.65466e-19 -1.69509e-06)
(-0.0039499 -0.0266108 2.7279e-19 0.0039522 6.9673e-19 -2.30015e-06)
(0.151288 -0.0584467 -2.51812e-20 -0.151288 1.162e-19 8.5382e-07)
(0.126975 -0.0636347 -1.57109e-19 -0.126978 4.50925e-19 2.47321e-06)
(0.103195 -0.0597449 -3.04345e-19 -0.103199 4.933e-19 3.76405e-06)
(0.0818472 -0.0530723 1.16788e-19 -0.0818517 2.56389e-19 4.42012e-06)
(0.063238 -0.0459285 2.60626e-19 -0.0632422 -2.24613e-19 4.19818e-06)
(0.0471659 -0.0392514 4.5528e-19 -0.0471689 -2.38532e-19 2.96857e-06)
(0.0334595 -0.0333936 2.43578e-19 -0.0334603 -2.09703e-19 8.03733e-07)
(0.0220869 -0.0286557 1.09456e-18 -0.0220851 -3.02322e-19 -1.83886e-06)
(0.0131098 -0.0251499 9.16157e-19 -0.0131059 9.41669e-20 -3.89311e-06)
(0.00698428 -0.0231772 -7.67005e-20 -0.00698105 2.15603e-19 -3.23644e-06)
(0.159507 -0.0360049 2.17426e-20 -0.159507 8.28627e-20 1.13156e-07)
(0.139672 -0.0402287 1.59652e-20 -0.139673 2.41692e-19 6.9354e-07)
(0.116701 -0.0382058 7.53583e-20 -0.116703 4.8399e-19 1.18029e-06)
(0.0948122 -0.0342065 2.81119e-19 -0.0948135 2.87719e-19 1.23959e-06)
(0.0752005 -0.0298101 1.09454e-19 -0.0752011 1.1248e-19 6.22614e-07)
(0.0580582 -0.0256663 -1.38442e-19 -0.0580574 -1.24718e-19 -7.7255e-07)
(0.0433714 -0.0220226 2.19534e-19 -0.0433686 2.06169e-20 -2.83921e-06)
(0.0312309 -0.0190869 6.39198e-19 -0.0312259 -3.4008e-19 -5.05196e-06)
(0.0217379 -0.0169367 5.41734e-19 -0.0217316 -3.8696e-19 -6.26306e-06)
(0.0154188 -0.0157763 7.23047e-20 -0.0154146 9.1613e-20 -4.22306e-06)
(0.163753 -0.0121258 2.96322e-20 -0.163753 3.0384e-20 -6.66048e-07)
(0.146394 -0.0137453 5.60573e-20 -0.146392 4.69908e-20 -1.19621e-06)
(0.1239 -0.0131373 2.4473e-20 -0.123898 2.30498e-19 -1.58453e-06)
(0.101749 -0.0118151 3.14162e-20 -0.101747 1.03189e-20 -2.18749e-06)
(0.0816204 -0.0103407 1.59825e-19 -0.0816171 -9.40437e-20 -3.25061e-06)
(0.063921 -0.00894694 2.78027e-19 -0.0639161 1.30148e-19 -4.83792e-06)
(0.0487231 -0.00772419 3.93282e-19 -0.0487163 2.21222e-19 -6.79892e-06)
(0.0361846 -0.00674783 4.34205e-19 -0.0361761 -1.23866e-19 -8.53173e-06)
(0.0264286 -0.0060478 6.08323e-19 -0.0264198 -2.69258e-19 -8.80758e-06)
(0.0200229 -0.00571435 7.20624e-20 -0.0200176 1.61416e-19 -5.26133e-06)
(0.163734 0.0122463 2.37005e-20 -0.163733 -3.67923e-21 -1.47447e-06)
(0.146383 0.0138103 1.06181e-19 -0.146379 -3.36702e-20 -3.17398e-06)
(0.123894 0.0131647 1.05036e-19 -0.12389 1.74993e-19 -4.49954e-06)
(0.101748 0.0118105 -7.15652e-20 -0.101742 1.2092e-19 -5.82493e-06)
(0.0816238 0.0103036 1.19232e-19 -0.0816164 -2.05206e-19 -7.38327e-06)
(0.063929 0.00887274 4.04029e-19 -0.0639198 -8.8075e-20 -9.19054e-06)
(0.0487367 0.00760374 3.91023e-19 -0.0487257 -1.85795e-19 -1.10428e-05)
(0.0362054 0.00656766 4.76851e-20 -0.0361931 -4.53986e-20 -1.22527e-05)
(0.0264592 0.00578676 4.88375e-19 -0.0264477 -7.32337e-19 -1.1511e-05)
(0.0200738 0.00529224 5.19797e-20 -0.0200674 -1.84461e-19 -6.34649e-06)
(0.159452 0.0361151 1.44058e-21 -0.15945 -1.33107e-20 -2.29873e-06)
(0.13964 0.0402872 1.58752e-19 -0.139635 -1.14849e-19 -5.20747e-06)
(0.116685 0.0382294 3.48447e-19 -0.116678 -1.86189e-19 -7.5173e-06)
(0.0948095 0.0342005 -2.57111e-20 -0.0947999 -1.63572e-19 -9.61378e-06)
(0.0752104 0.0297741 -2.12968e-19 -0.0751987 -1.99288e-19 -1.17086e-05)
(0.0580817 0.0255958 2.22878e-19 -0.0580679 -1.92678e-20 -1.37602e-05)
(0.0434113 0.0219091 3.36376e-19 -0.0433958 -2.29063e-19 -1.55024e-05)
(0.0312916 0.0189179 7.61816e-20 -0.0312755 -1.81828e-19 -1.61548e-05)
(0.0218272 0.0166927 -5.34581e-19 -0.0218129 -5.21146e-19 -1.43291e-05)
(0.0155676 0.0153824 1.47123e-19 -0.0155601 2.91706e-19 -7.46002e-06)
(0.151201 0.0585368 -5.19578e-20 -0.151198 -4.60805e-20 -3.1226e-06)
(0.126925 0.0636806 -3.88787e-21 -0.126918 -2.46498e-19 -7.25588e-06)
(0.10317 0.0597613 2.02293e-20 -0.10316 -2.15038e-19 -1.05764e-05)
(0.0818433 0.0530637 -1.45331e-19 -0.0818298 -2.29317e-20 -1.34756e-05)
(0.0632539 0.0458945 -1.88975e-19 -0.0632378 3.53835e-19 -1.61353e-05)
(0.0472033 0.039188 3.68107e-19 -0.0471848 1.38062e-19 -1.84487e-05)
(0.0335227 0.0332935 9.28414e-20 -0.0335026 -3.83028e-20 -2.00801e-05)
(0.0221828 0.0285081 -1.77977e-19 -0.0221626 -1.31593e-19 -2.01512e-05)
(0.0132507 0.0249385 -1.37337e-19 -0.0132335 6.13326e-19 -1.71984e-05)
(0.00721941 0.0228376 6.43916e-19 -0.00721083 -4.75562e-19 -8.57694e-06)
(0.139532 0.0787176 -1.60879e-19 -0.139528 -1.28262e-20 -3.92631e-06)
(0.109643 0.0824025 -4.17739e-19 -0.109634 2.29061e-19 -9.26952e-06)
(0.0850089 0.0759634 2.53134e-20 -0.0849953 3.29704e-19 -1.3601e-05)
(0.064532 0.066617 2.34247e-19 -0.0645146 2.91521e-19 -1.7312e-05)
(0.0473699 0.0569785 8.42e-20 -0.0473494 4.11362e-19 -2.05471e-05)
(0.032818 0.0480794 1.38702e-19 -0.0327948 -1.07226e-19 -2.31285e-05)
(0.0205058 0.0402971 2.62765e-19 -0.0204811 -8.65857e-20 -2.46464e-05)
(0.0102464 0.0339627 3.61681e-19 -0.0102223 -1.33594e-20 -2.41237e-05)
(0.00205813 0.0292015 1.90558e-19 -0.0020381 -6.26387e-19 -2.00295e-05)
(-0.00364651 0.0263473 -8.79324e-19 0.00365617 8.80126e-20 -9.65967e-06)
(0.125181 0.0960891 3.17554e-20 -0.125176 -1.59217e-20 -4.68843e-06)
(0.0896407 0.0954895 -3.34371e-19 -0.0896295 5.5689e-19 -1.11933e-05)
(0.0643794 0.0857855 -2.54948e-19 -0.0643629 5.97185e-19 -1.65061e-05)
(0.0450802 0.0738388 -2.25341e-20 -0.0450592 4.08158e-19 -2.10114e-05)
(0.0296739 0.0620739 4.15146e-19 -0.0296491 -1.2977e-19 -2.48108e-05)
(0.0169201 0.0513949 3.51457e-20 -0.0168924 -5.48354e-19 -2.76523e-05)
(0.00623683 0.0421163 4.87019e-19 -0.00620777 -9.00155e-19 -2.90512e-05)
(-0.00273014 0.0345338 -2.66031e-19 0.00275808 -7.61963e-19 -2.79356e-05)
(-0.0100149 0.0287703 -1.73938e-19 0.0100376 -7.21546e-19 -2.272e-05)
(-0.0153002 0.0252116 5.20834e-19 0.0153109 3.28235e-19 -1.06666e-05)
(0.108972 0.110352 6.89893e-20 -0.108967 1.67326e-19 -5.3856e-06)
(0.0689412 0.102717 3.48521e-19 -0.0689282 3.82352e-19 -1.29675e-05)
(0.0436555 0.0890597 3.21042e-19 -0.0436363 3.06632e-19 -1.91988e-05)
(0.0258863 0.0746065 2.00975e-19 -0.0258619 -6.36147e-20 -2.44513e-05)
(0.0124633 0.0610949 -6.17297e-20 -0.0124345 -7.51488e-19 -2.87789e-05)
(0.00167308 0.0490793 -5.54002e-19 -0.00164123 -1.10601e-18 -3.18561e-05)
(-0.00725107 0.0387217 -1.13475e-18 0.0072842 -5.53765e-19 -3.31258e-05)
(-0.0148122 0.0302134 9.39568e-20 0.0148437 -4.80504e-19 -3.14317e-05)
(-0.0210916 0.0236542 -1.11715e-18 0.0211168 -2.81409e-19 -2.51515e-05)
(-0.0258717 0.0194508 5.09268e-19 0.0258832 -3.88663e-19 -1.15481e-05)
(0.0917231 0.121482 -3.75167e-20 -0.0917171 2.32243e-19 -5.99489e-06)
(0.0494513 0.104604 5.93709e-19 -0.0494367 4.92696e-20 -1.45322e-05)
(0.0250586 0.0865037 8.2176e-19 -0.025037 -2.80955e-19 -2.15854e-05)
(0.00918637 0.0696981 6.42212e-19 -0.00915886 -7.59887e-19 -2.7507e-05)
(-0.00212511 0.054823 -3.99485e-19 0.00215741 -9.06225e-19 -3.23011e-05)
(-0.0109157 0.0418978 -1.01809e-18 0.0109513 -5.61686e-19 -3.55722e-05)
(-0.0180757 0.030858 -1.24756e-18 0.0181124 2.26004e-19 -3.66979e-05)
(-0.0242123 0.0217328 -6.92856e-19 0.0242467 -3.68792e-19 -3.44536e-05)
(-0.0294412 0.0145824 -1.59678e-18 0.0294684 3.23145e-19 -2.72045e-05)
(-0.033638 0.00980426 2.39785e-19 0.0336503 -1.22311e-19 -1.22554e-05)
(0.0741413 0.129697 9.59727e-20 -0.0741348 -1.49426e-20 -6.49367e-06)
(0.0326937 0.102305 2.71742e-19 -0.0326779 -2.07036e-19 -1.58289e-05)
(0.0103358 0.0795903 1.94748e-19 -0.0103123 -3.96831e-19 -2.35741e-05)
(-0.00327441 0.0606589 -1.12764e-19 0.00330447 -4.98107e-19 -3.00563e-05)
(-0.0124329 0.0447771 -6.59004e-19 0.0124681 -2.41299e-19 -3.52293e-05)
(-0.0192956 0.031312 -6.53083e-19 0.0193342 4.59069e-20 -3.86346e-05)
(-0.0247894 0.0199262 -5.28054e-19 0.024829 1.56104e-19 -3.95962e-05)
(-0.0295614 0.0104498 -5.7274e-19 0.0295982 1.74394e-19 -3.68436e-05)
(-0.0337435 0.00289283 -3.37929e-19 0.0337723 -7.00343e-20 -2.87589e-05)
(-0.0372881 -0.00238087 -1.10774e-18 0.0373009 1.38886e-19 -1.27386e-05)
(0.0567547 0.135393 -3.03228e-20 -0.0567478 -6.51654e-20 -6.86219e-06)
(0.0195999 0.0974116 -2.55985e-19 -0.0195831 -1.51498e-19 -1.68053e-05)
(0.000512335 0.070305 -4.79172e-19 -0.000487253 -1.04411e-19 -2.50823e-05)
(-0.0104938 0.0495519 -4.07709e-19 0.0105258 4.36625e-20 -3.19885e-05)
(-0.0175225 0.0329723 -2.64814e-20 0.0175599 2.96435e-20 -3.74291e-05)
(-0.0226024 0.0192507 -4.00822e-19 0.0226433 3.08488e-20 -4.08931e-05)
(-0.0265966 0.00776616 -3.38798e-19 0.0266382 6.54862e-20 -4.1666e-05)
(-0.0301169 -0.00186055 -3.20457e-19 0.0301553 1.91767e-19 -3.84598e-05)
(-0.033291 -0.00967163 -5.38029e-20 0.0333207 -8.18277e-20 -2.97083e-05)
(-0.0361247 -0.0153535 -5.68839e-19 0.0361376 3.15328e-19 -1.29547e-05)
(0.0398655 0.139057 -4.95249e-20 -0.0398584 -4.74978e-20 -7.08338e-06)
(0.0103956 0.0916896 -1.37103e-19 -0.0103782 -1.62751e-19 -1.74168e-05)
(-0.00424399 0.0608277 -6.83182e-19 0.00427003 -2.99847e-20 -2.60393e-05)
(-0.0123496 0.0386322 -6.26609e-19 0.0123828 1.445e-19 -3.32088e-05)
(-0.0173094 0.0216045 -4.29908e-19 0.0173482 1.98261e-19 -3.87855e-05)
(-0.0207826 0.00781019 -5.83576e-20 0.0208249 1.36247e-19 -4.22188e-05)
(-0.0234701 -0.00362711 -3.44539e-19 0.0235128 1.40851e-19 -4.27748e-05)
(-0.0258736 -0.0132772 -1.28787e-20 0.0259127 3.30356e-19 -3.9181e-05)
(-0.0280968 -0.021229 5.53548e-19 0.0281268 3.20603e-20 -2.99613e-05)
(-0.030172 -0.0272247 -1.08959e-19 0.0301848 -1.37881e-20 -1.28666e-05)
(0.0235443 0.141165 -5.72741e-20 -0.0235371 -3.12157e-20 -7.14526e-06)
(0.00459681 0.086791 -1.00237e-19 -0.00457918 -1.0816e-19 -1.76305e-05)
(-0.00462522 0.0531878 -3.63075e-19 0.00465162 -1.31326e-20 -2.63928e-05)
(-0.00960178 0.0299935 -2.67524e-19 0.00963543 1.17173e-19 -3.36467e-05)
(-0.0125625 0.0127089 -2.75695e-19 0.0126018 1.21794e-19 -3.92126e-05)
(-0.0145938 -0.00106928 -4.44327e-19 0.0146363 9.89601e-20 -4.25163e-05)
(-0.0161509 -0.0124098 -4.10913e-19 0.0161938 1.83426e-19 -4.28255e-05)
(-0.0175628 -0.0220273 -1.12054e-19 0.0176017 2.95492e-19 -3.89197e-05)
(-0.0188931 -0.0300445 4.05209e-19 0.0189225 5.28287e-20 -2.94542e-05)
(-0.0201744 -0.0362537 -3.61766e-20 0.0201868 -1.94506e-20 -1.245e-05)
(0.00766082 0.142101 -7.8063e-20 -0.00765378 -1.62198e-20 -7.04035e-06)
(0.00111486 0.0839903 -1.42853e-19 -0.00109744 -7.40658e-20 -1.74266e-05)
(-0.002054 0.048945 -2.86366e-19 0.00208011 -1.28597e-20 -2.61103e-05)
(-0.00375826 0.0252426 -3.80424e-19 0.00379152 1.11786e-19 -3.32584e-05)
(-0.00477447 0.00784522 -3.71824e-19 0.00481312 1.05224e-19 -3.86578e-05)
(-0.00548005 -0.00590256 -3.48079e-19 0.00552178 8.60184e-20 -4.17272e-05)
(-0.00603038 -0.017172 -1.64086e-19 0.00607214 1.63092e-19 -4.17597e-05)
(-0.00653868 -0.0267564 -1.10347e-19 0.0065763 2.58942e-19 -3.76247e-05)
(-0.00701938 -0.0347945 2.86482e-19 0.00704753 9.55078e-20 -2.81506e-05)
(-0.00748464 -0.0411129 1.56883e-19 0.00749633 -2.27041e-20 -1.16918e-05)
(-0.0080516 0.142077 -7.56312e-20 0.00805836 -4.87421e-21 -6.76763e-06)
(-0.00154395 0.0839815 -2.09249e-19 0.00156075 -6.22266e-20 -1.68003e-05)
(0.00155841 0.0489454 -1.76234e-19 -0.00153323 -2.34268e-20 -2.51834e-05)
(0.00317302 0.0252493 -3.18317e-19 -0.00314099 1.08861e-19 -3.2032e-05)
(0.00407934 0.00785666 -4.2514e-19 -0.00404224 1.03393e-19 -3.71067e-05)
(0.00465629 -0.00588769 -3.05307e-19 -0.00461645 6.21702e-20 -3.98375e-05)
(0.0050673 -0.0171536 -2.58675e-20 -0.00502773 1.13871e-19 -3.9566e-05)
(0.00542988 -0.0267352 -1.61053e-19 -0.00539459 2.14815e-19 -3.52897e-05)
(0.00578097 -0.0347675 6.26021e-20 -0.00575492 8.17269e-20 -2.60505e-05)
(0.00614006 -0.0410881 1.70143e-19 -0.00612947 -2.51772e-20 -1.05954e-05)
(-0.0239104 0.141101 -9.01124e-20 0.0239167 9.77914e-21 -6.33139e-06)
(-0.00501673 0.0867673 -2.4956e-19 0.00503249 -5.41072e-20 -1.57619e-05)
(0.00412906 0.0531892 -2.7261e-20 -0.00410543 -4.2453e-20 -2.36274e-05)
(0.00900924 0.0300118 -4.9699e-20 -0.00897926 1.05112e-19 -2.99874e-05)
(0.0118549 0.0127401 -5.28524e-19 -0.0118203 9.70075e-20 -3.45845e-05)
(0.0137537 -0.0010288 -3.30625e-19 -0.0137168 4.86643e-20 -3.68775e-05)
(0.0151677 -0.0123596 -2.47032e-19 -0.0151314 3.83521e-20 -3.62792e-05)
(0.0164308 -0.0219695 1.89471e-19 -0.0163989 1.69328e-19 -3.19516e-05)
(0.0176258 -0.0299711 -4.12146e-19 -0.0176026 7.34963e-20 -2.31869e-05)
(0.0188033 -0.0361867 7.77467e-20 -0.0187941 -1.50016e-20 -9.17783e-06)
(-0.040189 0.138969 -3.75084e-20 0.0401948 4.3812e-20 -5.74257e-06)
(-0.0107999 0.0916582 -2.80129e-19 0.0108142 -1.59222e-20 -1.43376e-05)
(0.00374659 0.0608304 -3.89037e-19 -0.00372511 -9.22112e-20 -2.14818e-05)
(0.0117442 0.0386575 -2.84873e-19 -0.011717 1.18725e-20 -2.71771e-05)
(0.0165799 0.021647 -3.9148e-19 -0.0165487 6.63971e-20 -3.11559e-05)
(0.0199141 0.00786498 -1.06869e-19 -0.0198812 5.64036e-20 -3.29224e-05)
(0.0224518 -0.0035595 -1.81219e-19 -0.0224198 5.3925e-20 -3.19822e-05)
(0.0247015 -0.0131996 -5.73348e-20 -0.0246738 6.97129e-20 -2.76934e-05)
(0.0267796 -0.0211305 -1.74547e-19 -0.0267599 -6.21682e-20 -1.96298e-05)
(0.0287553 -0.0271354 3.49918e-19 -0.0287479 1.16042e-20 -7.47303e-06)
(-0.0570291 0.135308 -4.44632e-20 0.0570341 5.40031e-20 -5.01688e-06)
(-0.0199864 0.0973821 -4.47532e-19 0.019999 -5.27505e-20 -1.2567e-05)
(-0.00101176 0.070309 -1.3521e-19 0.00103057 -1.10937e-19 -1.88084e-05)
(0.00987283 0.0495777 1.15927e-19 -0.00984914 -2.15289e-20 -2.36832e-05)
(0.0167671 0.0330145 1.5099e-19 -0.0167401 2.0687e-19 -2.6922e-05)
(0.0217005 0.0193043 -2.84546e-19 -0.0216724 1.65609e-19 -2.80891e-05)
(0.0255374 0.00783181 -2.94896e-19 -0.0255106 -9.37912e-20 -2.68007e-05)
(0.0288984 -0.00178568 6.04795e-21 -0.0288758 -1.187e-19 -2.26377e-05)
(0.0319163 -0.00957683 1.66303e-20 -0.0319009 2.00031e-20 -1.54792e-05)
(0.0346562 -0.015269 -6.89182e-19 -0.0346506 8.15423e-20 -5.52716e-06)
(-0.0743735 0.129639 4.86429e-20 0.0743776 -3.35897e-20 -4.17566e-06)
(-0.0330659 0.102287 2.22625e-19 0.0330764 9.69171e-20 -1.05032e-05)
(-0.0108382 0.0795956 1.65683e-19 0.0108539 1.12944e-19 -1.56883e-05)
(0.00263879 0.0606786 4.16914e-20 -0.00261918 9.57945e-20 -1.96136e-05)
(0.0116538 0.0448072 4.45761e-20 -0.0116318 1.71143e-19 -2.20151e-05)
(0.0183637 0.031349 -5.67184e-19 -0.0183412 2.22921e-19 -2.25293e-05)
(0.0236941 0.0199705 -8.00003e-19 -0.0236732 -3.12877e-19 -2.08981e-05)
(0.0283025 0.0104993 -4.48111e-19 -0.0282855 1.93276e-19 -1.69433e-05)
(0.0323196 0.00295524 -1.43474e-18 -0.0323088 -6.11648e-19 -1.08646e-05)
(0.0357762 -0.00232795 9.1069e-19 -0.0357728 2.31597e-20 -3.39965e-06)
(-0.0919315 0.121469 -1.07228e-19 0.0919347 -2.97593e-19 -3.24339e-06)