/*--------------------------------*- C++ -*----------------------------------*\
| =========                 |                                                 |
| \\      /  F ield         | foam-extend: Open Source CFD                    |
|  \\    /   O peration     | Version:  3.0                                   |
|   \\  /    A nd           | Web:         http://www.extend-project.de       |
|    \\/     M anipulation  |                                                 |
\*---------------------------------------------------------------------------*/
FoamFile
{
    version     2.0;
    format      ascii;
    class       volScalarField;
    location    "4";
    object      p;
}
// * * * * * * * * * * * * * * * * * * * * * * * * * * * * * * * * * * * * * //

dimensions      [0 0 0 0 0 0 0];

internalField   nonuniform List<scalar> 
400
(
0.98547
0.90077
1.04568
0.987609
1.04718
1.0074
1.01889
0.976656
0.959748
0.935858
-1.84221
-1.22927
-0.917055
-0.737277
-0.669058
-0.590964
-0.524963
-0.419996
-0.341007
-0.262385
1.00671
0.917528
1.06184
1.00038
1.06078
1.01782
1.03065
0.985981
0.969763
0.945
-1.49222
-1.08553
-0.875749
-0.697555
-0.646033
-0.560383
-0.501862
-0.382272
-0.307796
-0.227735
1.44329
1.16573
1.20674
1.10886
1.14732
1.08761
1.0921
1.03821
1.01694
0.98827
-1.27552
-0.889121
-0.773509
-0.616947
-0.586629
-0.471522
-0.419569
-0.279328
-0.214203
-0.135803
1.7386
1.41186
1.39311
1.26369
1.27603
1.19437
1.18608
1.12426
1.09849
1.065
-1.09891
-0.723408
-0.647734
-0.487678
-0.44532
-0.309141
-0.25648
-0.129759
-0.0798666
-0.0125866
1.96738
1.62078
1.5671
1.40911
1.39851
1.30009
1.28542
1.22246
1.19912
1.16216
-0.922424
-0.563163
-0.472793
-0.296664
-0.229825
-0.0997271
-0.0512936
0.0400301
0.0735662
0.1262
2.14215
1.7779
1.69812
1.51616
1.49183
1.38371
1.37226
1.30964
1.29283
1.25387
-0.717962
-0.374808
-0.255529
-0.074274
0.00349743
0.111849
0.152666
0.212962
0.238483
0.278824
2.26209
1.883
1.78519
1.58696
1.55894
1.44299
1.43791
1.3708
1.35847
1.31837
-0.497167
-0.173127
-0.040126
0.131493
0.206996
0.294864
0.334346
0.377757
0.406085
0.43756
2.33676
1.94969
1.84333
1.63521
1.60791
1.48177
1.47923
1.40255
1.39026
1.34968
-0.298481
0.00304253
0.133174
0.289795
0.361816
0.438205
0.485446
0.522944
0.55995
0.58502
2.38134
1.9926
1.88439
1.66959
1.64169
1.5035
1.49804
1.41058
1.39538
1.355
-0.154616
0.126383
0.247858
0.393016
0.466471
0.539772
0.598898
0.635821
0.681413
0.701918
2.40455
2.01773
1.91016
1.69075
1.6597
1.51129
1.50021
1.40467
1.38608
1.34642
-0.078227
0.190217
0.305332
0.445648
0.523118
0.59801
0.666541
0.704844
0.75574
0.773623
2.40646
2.02328
1.91655
1.69583
1.66151
1.50854
1.49285
1.39417
1.37324
1.3345
-0.0680687
0.19905
0.312427
0.453724
0.532745
0.610721
0.681925
0.722401
0.774588
0.792134
2.38502
2.00646
1.90031
1.68302
1.64788
1.49811
1.4811
1.38486
1.36326
1.32539
-0.120606
0.157021
0.27329
0.420371
0.496203
0.577412
0.643304
0.686423
0.73595
0.755562
2.34232
1.96894
1.86305
1.65356
1.62015
1.48102
1.46613
1.37768
1.35712
1.31999
-0.235249
0.0632253
0.186897
0.344927
0.415276
0.500594
0.554709
0.600793
0.643787
0.667579
2.28446
1.91664
1.81104
1.6117
1.58011
1.45638
1.44496
1.36852
1.35027
1.31383
-0.409504
-0.0839138
0.0492456
0.223585
0.291349
0.384279
0.424649
0.474754
0.5082
0.537793
2.21474
1.85404
1.75096
1.56231
1.53035
1.42241
1.41236
1.34956
1.3334
1.29779
-0.627728
-0.275385
-0.138827
0.0536225
0.124142
0.231459
0.262906
0.321138
0.34531
0.382099
2.1269
1.77705
1.68286
1.50622
1.47301
1.37722
1.3638
1.31207
1.29543
1.26084
-0.855253
-0.482349
-0.359339
-0.156191
-0.0836386
0.0451661
0.0775827
0.15347
0.174658
0.220584
2.007
1.67203
1.59587
1.43548
1.40595
1.318
1.29818
1.25093
1.2298
1.19634
-1.05292
-0.665408
-0.571512
-0.374585
-0.312699
-0.163152
-0.122674
-0.0165157
0.0129312
0.0708759
1.84546
1.52534
1.47493
1.33641
1.32111
1.24087
1.21865
1.16956
1.14231
1.11032
-1.20976
-0.810251
-0.731626
-0.553923
-0.515786
-0.363085
-0.317187
-0.177852
-0.131429
-0.059631
1.64181
1.33614
1.32004
1.20607
1.21469
1.14744
1.13317
1.08233
1.05346
1.02391
-1.35599
-0.952028
-0.83432
-0.664975
-0.637754
-0.510688
-0.463667
-0.31428
-0.251685
-0.170002
1.38122
1.11712
1.15988
1.0719
1.10797
1.0575
1.05814
1.01129
0.988031
0.961885
-1.53512
-1.11854
-0.907579
-0.722722
-0.672825
-0.580948
-0.525035
-0.400656
-0.327516
-0.245726
)
;

boundaryField
{
    up
    {
        type            implicitExtrapolation;
    }
    hole
    {
        type            implicitExtrapolation;
    }
    frontAndBack
    {
        type            empty;
    }
}


// ************************************************************************* //
