/*--------------------------------*- C++ -*----------------------------------*\
| =========                 |                                                 |
| \\      /  F ield         | foam-extend: Open Source CFD                    |
|  \\    /   O peration     | Version:  3.0                                   |
|   \\  /    A nd           | Web:         http://www.extend-project.de       |
|    \\/     M anipulation  |                                                 |
\*---------------------------------------------------------------------------*/
FoamFile
{
    version     2.0;
    format      ascii;
    class       volSymmTensorField;
    location    "4";
    object      sigma;
}
// * * * * * * * * * * * * * * * * * * * * * * * * * * * * * * * * * * * * * //

dimensions      [0 0 0 0 0 0 0];

internalField   nonuniform List<symmTensor> 
400
(
(0.211456 0.0778738 -7.10252e-18 0.602124 -4.16529e-18 3.64572e-34)
(0.0870239 0.0639323 -1.75144e-18 0.485072 -2.63047e-18 2.94472e-34)
(0.0569066 0.0248317 -1.11203e-19 0.372993 -1.44642e-18 3.44712e-34)
(0.0506479 0.012064 -3.61588e-19 0.295423 -3.13466e-18 3.22006e-34)
(0.0593148 0.00490474 -1.30306e-19 0.233701 -1.22164e-18 3.37873e-34)
(0.0696379 0.00296757 -7.11143e-19 0.189262 -1.25702e-18 3.15539e-34)
(0.0823554 0.00260027 -1.68051e-18 0.15455 -1.05949e-19 3.04523e-34)
(0.0923079 0.00321308 -3.32869e-18 0.130713 2.90654e-19 2.93142e-34)
(0.101065 0.00415831 -3.59079e-18 0.114605 1.28762e-19 3.10979e-34)
(0.104352 0.00534996 -4.40461e-18 0.107965 1.92801e-18 3.44746e-34)
(0.367425 -0.120722 -5.55293e-18 0.773836 4.07042e-20 3.38859e-34)
(0.120422 -0.126047 1.56881e-18 0.514009 -9.6218e-19 2.24684e-34)
(0.0670528 -0.111166 4.44844e-19 0.381941 -1.94228e-18 3.10042e-34)
(0.0688449 -0.090638 -6.13865e-19 0.286472 -2.58281e-19 3.3293e-34)
(0.0743707 -0.0769796 2.39551e-18 0.223741 -1.22076e-18 4.52843e-34)
(0.0866704 -0.0650755 5.11464e-19 0.175119 -2.71562e-18 4.91713e-34)
(0.0969609 -0.05715 -3.15969e-18 0.140971 6.21715e-18 5.57635e-34)
(0.106374 -0.0513088 -4.2705e-18 0.114698 -1.27864e-18 4.84273e-34)
(0.114463 -0.0480096 -6.11862e-18 0.0984965 4.98099e-19 6.18017e-34)
(0.119677 -0.0477721 -7.97639e-18 0.0890643 1.01276e-17 9.08669e-34)
(0.375886 -0.220267 -9.67828e-18 0.426887 -9.62548e-19 3.71438e-34)
(0.250972 -0.227088 -3.70504e-18 0.310068 -1.37881e-18 2.98081e-34)
(0.17701 -0.178811 1.97205e-18 0.241193 -2.42357e-18 3.75302e-34)
(0.149256 -0.149098 -1.70656e-18 0.184292 2.43037e-18 5.22824e-34)
(0.140618 -0.122241 -3.23461e-18 0.138964 -8.32504e-19 5.4922e-34)
(0.14113 -0.104457 8.04321e-18 0.103437 7.64006e-18 6.32966e-34)
(0.146752 -0.090104 -3.87261e-18 0.0749804 3.38309e-18 1.01481e-33)
(0.153335 -0.0814502 -1.71249e-17 0.0538409 -5.53402e-18 -2.33386e-35)
(0.160672 -0.0759549 3.16876e-18 0.0386629 3.39652e-18 3.0165e-34)
(0.166945 -0.0771453 -1.35685e-17 0.0288032 -2.45618e-18 9.49622e-34)
(0.344406 -0.153128 -1.56973e-18 0.238003 -6.11477e-18 3.68696e-34)
(0.282688 -0.196591 -1.48137e-18 0.175791 -4.03619e-18 3.95905e-34)
(0.237342 -0.181861 6.63209e-19 0.124327 1.81502e-18 3.74804e-34)
(0.210259 -0.156854 4.83559e-18 0.087197 -7.02994e-19 4.33177e-34)
(0.197986 -0.134869 2.8835e-18 0.0542318 4.59875e-18 3.47577e-34)
(0.193755 -0.114499 -3.48731e-18 0.0271369 1.1942e-17 6.20074e-35)
(0.19489 -0.0999676 -4.83795e-18 0.00467785 -3.30515e-18 2.49733e-34)
(0.197572 -0.0885614 -1.20415e-17 -0.0135302 3.39588e-18 -1.66105e-34)
(0.202697 -0.0817043 -6.89222e-18 -0.0261441 -5.43156e-18 -2.23757e-34)
(0.207603 -0.079068 -6.5766e-18 -0.0349719 -6.48736e-18 -4.84358e-34)
(0.325213 -0.128343 3.70215e-18 0.104516 -6.52694e-18 4.85542e-34)
(0.322729 -0.144933 3.51147e-18 0.0388551 6.58085e-19 5.28024e-34)
(0.29078 -0.133813 2.08616e-19 0.00514018 3.27319e-18 5.16098e-34)
(0.265717 -0.117127 2.38199e-19 -0.0197676 3.43855e-19 7.09714e-34)
(0.249729 -0.0978213 1.04722e-17 -0.0408022 1.15444e-17 -2.88698e-35)
(0.242542 -0.0812443 4.5176e-18 -0.059774 6.41616e-18 7.16307e-34)
(0.241413 -0.0663537 -5.0971e-20 -0.0764212 8.94584e-19 9.59652e-34)
(0.244597 -0.0558296 -1.53654e-17 -0.0912843 -1.13052e-17 1.41719e-33)
(0.250644 -0.0482376 -1.00998e-17 -0.103654 -1.34604e-17 4.21224e-34)
(0.262744 -0.0467755 4.33834e-19 -0.118662 -1.18185e-17 1.7238e-34)
(0.275499 -0.0677115 -4.30102e-18 0.0393604 2.85597e-18 4.29653e-34)
(0.301809 -0.0710401 -5.01247e-19 -0.0272275 4.11953e-18 6.0814e-34)
(0.296168 -0.0653923 6.51317e-18 -0.065588 -7.97329e-20 5.92435e-34)
(0.281012 -0.052999 -2.57462e-18 -0.0866082 7.78408e-18 5.01105e-34)
(0.270338 -0.0401128 -1.03539e-18 -0.106107 7.64743e-18 4.87241e-34)
(0.262266 -0.0261521 2.36645e-18 -0.120962 2.95636e-20 8.21698e-34)
(0.26033 -0.0141872 4.78886e-19 -0.134823 -1.78378e-18 1.13616e-33)
(0.260572 -0.0034743 -5.288e-19 -0.145771 -5.70723e-18 1.46108e-33)
(0.264705 0.00434257 -5.95129e-18 -0.154741 -1.17642e-17 1.3303e-33)
(0.270574 0.00927696 1.83863e-17 -0.16304 -1.94058e-17 1.93102e-33)
(0.242147 -0.0192099 -9.36204e-18 -0.0162249 -5.44859e-18 1.16577e-33)
(0.274125 0.00267531 -6.11434e-18 -0.0741816 -6.65784e-18 7.82964e-34)
(0.273217 0.0129477 2.76658e-18 -0.105434 2.35205e-18 7.75545e-34)
(0.265124 0.0241155 3.86543e-18 -0.126087 1.07712e-17 1.78945e-34)
(0.257247 0.0360239 4.11008e-18 -0.141925 4.04675e-18 5.17968e-34)
(0.252825 0.0483429 2.66294e-18 -0.155295 -7.7927e-19 9.36929e-34)
(0.251711 0.0607603 9.34321e-18 -0.166472 3.03976e-18 1.28468e-33)
(0.254612 0.0718562 -4.05499e-18 -0.17762 -5.37121e-18 1.71675e-33)
(0.2605 0.0818436 -1.12846e-17 -0.188006 -3.08822e-17 -1.92427e-33)
(0.275199 0.0920245 9.56597e-18 -0.204766 -1.00622e-17 7.66661e-34)
(0.179439 0.0291562 -4.1683e-18 -0.0273351 -3.04935e-18 1.09644e-33)
(0.210457 0.0654962 -1.89213e-19 -0.0762434 -1.72044e-18 7.76238e-34)
(0.218847 0.0824129 -4.28253e-18 -0.109169 4.23666e-18 7.83831e-34)
(0.215339 0.0951119 6.74114e-18 -0.129037 -2.6565e-18 8.45694e-34)
(0.211994 0.105991 3.32408e-18 -0.146977 -4.29111e-18 4.02068e-34)
(0.208123 0.116911 5.07502e-18 -0.159272 -6.39029e-18 1.93746e-34)
(0.20807 0.127926 1.06576e-17 -0.169975 2.377e-18 1.21479e-33)
(0.209099 0.138629 3.1772e-18 -0.177146 1.16512e-18 3.85726e-34)
(0.212857 0.148132 -2.5838e-18 -0.1834 -1.75754e-17 -9.99109e-34)
(0.218165 0.156979 -6.26262e-18 -0.189854 3.84362e-18 -8.60653e-34)
(0.122824 0.0673558 -5.39661e-18 -0.0312293 -1.17474e-17 1.26724e-33)
(0.141963 0.11274 -1.89277e-18 -0.064326 -6.88352e-18 8.2487e-34)
(0.146674 0.13286 -2.48059e-18 -0.0886712 -4.17216e-18 7.60308e-34)
(0.145958 0.148488 3.44668e-18 -0.107032 -2.14632e-18 9.71837e-34)
(0.143539 0.161284 -3.14615e-20 -0.121048 5.58746e-18 5.48466e-34)
(0.141732 0.174056 -1.08372e-18 -0.131995 -3.6261e-18 4.97457e-34)
(0.140924 0.186765 -1.39917e-18 -0.140181 9.82562e-18 3.89564e-34)
(0.142427 0.20007 -3.05519e-18 -0.147878 -5.95496e-18 4.76407e-34)
(0.145674 0.213838 -7.93521e-18 -0.154701 -1.32854e-17 -2.56699e-34)
(0.154442 0.233717 -1.35745e-17 -0.165107 2.78999e-18 -2.91223e-34)
(0.0463288 0.0845078 6.73685e-18 -0.00834877 -2.68522e-18 9.94709e-34)
(0.0549656 0.135361 6.04128e-19 -0.0287771 -2.11179e-20 9.6673e-34)
(0.0588305 0.161822 -6.41647e-19 -0.0506728 -1.14906e-18 9.92674e-34)
(0.0575647 0.179279 -4.75685e-18 -0.0673558 -5.15641e-19 1.01269e-33)
(0.0567611 0.193741 2.13778e-19 -0.0828516 -9.27874e-19 9.76649e-34)
(0.0549331 0.20657 3.22877e-20 -0.0931549 -2.06214e-18 9.57068e-34)
(0.0546776 0.219565 -4.04018e-18 -0.101087 -2.30455e-19 9.61565e-34)
(0.0542671 0.231703 1.86931e-18 -0.105279 -2.46882e-18 9.60422e-34)
(0.0550861 0.242966 -1.08301e-17 -0.108434 -2.28107e-18 8.59452e-34)
(0.0558872 0.254478 -1.03803e-17 -0.110322 -3.56816e-18 8.3191e-34)
(-0.015929 0.0871477 -4.79296e-18 0.0106497 -5.4698e-18 9.28995e-34)
(-0.0196281 0.136694 1.17123e-18 0.00388718 2.26735e-19 1.09883e-33)
(-0.020739 0.162696 4.41881e-18 -0.00986621 1.46634e-18 1.1022e-33)
(-0.023069 0.182885 -1.34206e-18 -0.0224721 -2.98725e-18 1.15294e-33)
(-0.0258138 0.198478 5.02469e-18 -0.0328815 -1.97686e-18 1.23669e-33)
(-0.0288735 0.21325 2.12693e-18 -0.0405164 -3.3796e-19 1.42309e-33)
(-0.0321322 0.227199 -4.29862e-18 -0.0453289 -1.60253e-18 1.60876e-33)
(-0.0351669 0.242034 2.98437e-18 -0.0480867 3.83825e-19 1.82204e-33)
(-0.0383242 0.257389 -1.42377e-17 -0.0485801 1.83432e-19 1.82081e-33)
(-0.0420886 0.27995 -1.8122e-17 -0.0465104 -5.55032e-18 1.93856e-33)
(-0.0805545 0.061793 3.86782e-18 0.0343419 -6.08933e-18 1.02692e-33)
(-0.0951004 0.109808 5.52634e-18 0.038418 -6.85692e-18 1.28997e-33)
(-0.100865 0.139889 3.84638e-18 0.0287913 1.00663e-18 1.25816e-33)
(-0.105582 0.161517 1.0475e-19 0.0182004 -2.62604e-18 1.28087e-33)
(-0.109234 0.180084 1.01911e-17 0.00800476 -6.07909e-18 1.45684e-33)
(-0.113592 0.195741 1.03687e-17 0.00142771 9.6425e-18 1.92384e-33)
(-0.117721 0.210662 -1.18997e-17 -0.00285255 -1.58695e-17 2.24314e-33)
(-0.122339 0.22349 -1.68953e-18 -0.0039996 4.24142e-18 3.41301e-33)
(-0.126321 0.234849 -1.6021e-17 -0.00395633 2.10277e-17 2.51849e-33)
(-0.131368 0.245221 -4.43089e-17 -0.000846975 -1.5962e-17 3.7094e-33)
(-0.116899 0.0325937 5.01483e-18 0.0405224 -2.04409e-18 6.56625e-34)
(-0.140073 0.0740671 3.70668e-18 0.0541353 1.74653e-18 1.28069e-33)
(-0.149973 0.101591 -6.66035e-18 0.0510701 1.5214e-18 1.26731e-33)
(-0.158002 0.124394 1.33886e-17 0.0456787 -1.73414e-18 1.17056e-33)
(-0.164789 0.142561 -3.04985e-18 0.0401537 -2.5158e-17 1.32704e-33)
(-0.172171 0.158983 -5.9856e-18 0.0368918 2.49164e-17 2.72131e-33)
(-0.180022 0.173331 -1.70537e-18 0.0360509 8.38933e-18 3.49055e-33)
(-0.188862 0.186976 1.70365e-17 0.0384268 -2.4071e-17 3.06014e-34)
(-0.198626 0.199402 -1.85442e-17 0.043885 4.00344e-17 1.11389e-33)
(-0.213212 0.215117 -2.02005e-17 0.0564495 -1.02433e-17 4.5961e-33)
(-0.140502 -0.0167116 2.05184e-17 0.0330048 5.69817e-18 4.8873e-34)
(-0.171266 0.0192676 5.70669e-18 0.0535508 3.2723e-18 1.26564e-33)
(-0.187747 0.0486835 3.82225e-18 0.055993 -6.21011e-18 1.38341e-33)
(-0.199861 0.0726086 6.06237e-18 0.053861 1.2262e-17 2.55734e-33)
(-0.210463 0.0935362 -7.91274e-18 0.0510026 3.30858e-18 2.72462e-33)
(-0.220758 0.110724 -1.23517e-17 0.0495656 -2.7997e-17 -4.35993e-34)
(-0.230946 0.126029 1.9174e-17 0.049524 -1.48859e-17 1.11204e-33)
(-0.240662 0.138002 -1.46485e-17 0.0513278 -5.03618e-18 1.49356e-33)
(-0.249231 0.147655 -1.44919e-17 0.0539843 5.28289e-17 -6.17448e-33)
(-0.257954 0.154031 2.43843e-17 0.0597674 1.42389e-17 -5.49564e-34)
(-0.13601 -0.0486799 7.83833e-18 0.00890004 1.67223e-17 1.73418e-33)
(-0.170451 -0.0212913 -1.04457e-17 0.0340174 1.18076e-17 1.5987e-33)
(-0.190185 0.00431459 5.27704e-18 0.0414361 7.52389e-18 1.55381e-33)
(-0.206845 0.0273976 -7.57677e-18 0.0448523 -8.73605e-18 2.13092e-33)
(-0.220976 0.0466015 -6.37984e-18 0.046255 3.16925e-17 3.41423e-34)
(-0.23499 0.0629446 -1.38985e-17 0.0487215 1.14466e-17 1.323e-33)
(-0.248316 0.0759718 -3.46675e-18 0.0521568 1.3915e-17 1.34371e-33)
(-0.261714 0.0861033 2.22461e-17 0.058029 -1.39395e-17 1.4572e-33)
(-0.274734 0.0930692 3.5423e-17 0.0659182 -1.82314e-19 -2.27285e-33)
(-0.292059 0.0978252 5.96217e-17 0.080826 5.13347e-17 -2.97168e-33)
(-0.114832 -0.0854032 -2.98932e-17 -0.0348241 -1.47372e-17 1.3854e-33)
(-0.152867 -0.0643948 -1.17275e-17 -0.00680181 -7.53303e-19 1.67798e-33)
(-0.180026 -0.0400103 1.42102e-18 0.0068685 1.14632e-17 1.48066e-33)
(-0.202311 -0.0177168 -1.05614e-17 0.0148868 -6.03977e-18 1.25247e-33)
(-0.222427 0.00199395 -5.11904e-18 0.0207046 -8.14199e-18 9.00668e-34)
(-0.240501 0.0179903 2.46817e-18 0.025542 7.7966e-18 1.26345e-33)
(-0.257379 0.0314284 1.81571e-17 0.0302209 -6.46989e-20 1.42501e-33)
(-0.271687 0.0410459 5.55708e-18 0.0348123 2.3969e-17 1.22018e-33)
(-0.283417 0.0479003 2.55481e-17 0.03921 4.44578e-18 1.76927e-33)
(-0.292462 0.0501344 5.37984e-17 0.0446145 5.44081e-17 3.80271e-33)
(-0.0839189 -0.0903015 7.14006e-18 -0.0766433 -9.44018e-18 3.48765e-33)
(-0.121279 -0.0767969 1.49067e-17 -0.0484382 -1.01565e-17 1.92065e-33)
(-0.150598 -0.0573006 -4.31762e-18 -0.0313147 -9.3279e-19 1.66548e-33)
(-0.177278 -0.0384665 -1.80665e-17 -0.0182015 8.97498e-18 2.13226e-34)
(-0.200389 -0.0223393 -1.15712e-17 -0.00853966 5.69471e-18 8.57025e-34)
(-0.22155 -0.00937858 6.5418e-18 7.3654e-05 4.55149e-18 1.59854e-33)
(-0.239838 0.000233538 1.97153e-18 0.00739292 2.44656e-17 2.47626e-33)
(-0.255601 0.00616617 1.69924e-18 0.0146775 -9.48217e-18 3.7934e-33)
(-0.268401 0.00851728 6.87962e-17 0.0216368 -1.73643e-17 -4.45444e-33)
(-0.281155 0.00569784 2.55831e-17 0.0316398 1.13615e-17 1.16913e-34)
(-0.0438172 -0.0887952 -4.90266e-18 -0.131347 -4.65972e-19 2.81512e-33)
(-0.0821324 -0.0804814 -1.36227e-18 -0.102771 1.87292e-18 1.54108e-33)
(-0.117674 -0.0656199 -7.93124e-18 -0.0806429 -6.86362e-18 1.24977e-33)
(-0.149659 -0.0505879 4.46928e-18 -0.0633538 1.07143e-17 9.62888e-34)
(-0.178842 -0.0371386 1.5762e-17 -0.0494882 4.67613e-18 -3.05141e-34)
(-0.204178 -0.0262037 3.22146e-17 -0.0385866 1.1583e-18 -1.6392e-33)
(-0.226671 -0.017395 -5.04651e-18 -0.0295621 1.5141e-17 2.36336e-33)
(-0.244236 -0.0114607 -1.82664e-17 -0.0226867 1.14593e-17 -1.11822e-33)
(-0.257502 -0.00769713 5.1101e-17 -0.0174117 -1.85571e-17 -4.83338e-33)
(-0.264836 -0.00754263 -1.80211e-17 -0.0140365 -2.63157e-17 -3.43688e-33)
(-0.018775 -0.0596703 1.9032e-17 -0.15964 -4.20898e-18 2.45737e-33)
(-0.0545555 -0.0561596 1.41265e-17 -0.132797 -2.18137e-18 1.27159e-33)
(-0.0904521 -0.0471127 8.48159e-18 -0.109027 -3.70679e-18 9.01e-34)
(-0.124604 -0.037944 6.29355e-18 -0.0886506 5.67637e-18 9.46043e-34)
(-0.154498 -0.029891 -4.3365e-18 -0.0725995 -1.92205e-18 -1.16789e-34)
(-0.180592 -0.0237017 1.10553e-17 -0.0596057 -8.2105e-18 -5.41286e-34)
(-0.201991 -0.0192839 -1.8488e-17 -0.0497448 -1.91844e-17 -7.68598e-34)
(-0.218434 -0.0171085 8.81629e-18 -0.0423134 -8.70302e-18 -1.28023e-33)
(-0.229741 -0.0170208 2.10914e-17 -0.0372528 -2.78134e-17 -2.83225e-33)
(-0.23637 -0.0207194 -1.45858e-17 -0.0335587 -5.29035e-17 -3.26554e-33)
(0.00522197 -0.0240657 2.97989e-18 -0.19069 1.17943e-17 1.56637e-33)
(-0.0309138 -0.0243002 1.00469e-18 -0.164011 7.84547e-19 1.26846e-33)
(-0.0700027 -0.0219325 4.5562e-18 -0.138274 -1.83863e-18 1.03491e-33)
(-0.106953 -0.0188504 2.80988e-18 -0.1162 -8.84826e-18 8.32032e-34)
(-0.140853 -0.0159898 4.256e-18 -0.0980599 -2.54825e-18 5.04861e-34)
(-0.169981 -0.0135186 6.66032e-18 -0.0837711 -4.92167e-18 2.28854e-34)
(-0.195183 -0.0115894 8.35593e-19 -0.0723862 -1.34821e-17 3.37888e-35)
(-0.214146 -0.0102305 3.31298e-18 -0.0642907 -3.17548e-18 -2.14139e-34)
(-0.227796 -0.00937218 1.96086e-18 -0.0586887 -2.63231e-17 -5.61663e-34)
(-0.23388 -0.00900918 -8.11168e-19 -0.0565853 -2.53885e-17 -7.16698e-34)
(-0.000493784 0.0175782 5.76729e-18 -0.18105 -7.42917e-18 1.20198e-33)
(-0.0345525 0.0143524 9.59892e-19 -0.155679 4.84827e-19 1.26199e-33)
(-0.0713863 0.0107093 1.76115e-20 -0.130668 6.45468e-18 1.05048e-33)
(-0.106808 0.0072876 6.31107e-18 -0.10876 -4.66712e-18 9.3438e-34)
(-0.137942 0.00455616 4.99043e-18 -0.0912326 5.43379e-18 8.30146e-34)
(-0.164786 0.00235333 3.10035e-18 -0.077333 -1.09544e-18 9.10897e-34)
(-0.18657 0.000783002 3.31975e-18 -0.0669649 -1.10367e-17 1.02331e-33)
(-0.202775 -0.000278387 -1.05026e-18 -0.0597193 4.9636e-19 1.21062e-33)
(-0.213306 -0.000914867 -1.67574e-18 -0.055411 -2.65549e-17 1.07671e-33)
(-0.217707 -0.00114066 3.01043e-18 -0.053926 -3.09187e-17 1.16378e-33)
(-0.0102775 0.0582294 1.0441e-17 -0.17118 4.98363e-18 1.14275e-33)
(-0.0452454 0.0513637 1.27541e-17 -0.145403 5.84628e-18 1.38718e-33)
(-0.0818826 0.0411263 6.19361e-19 -0.121708 3.4602e-18 1.16588e-33)
(-0.116529 0.0313552 4.96064e-18 -0.101469 -6.27097e-19 1.07218e-33)
(-0.148399 0.022702 1.24848e-17 -0.0848979 1.0645e-17 1.08828e-33)
(-0.176006 0.0158724 -1.12811e-17 -0.0716414 9.05539e-18 1.55951e-33)
(-0.199995 0.0104139 2.49689e-17 -0.0609828 -1.66211e-17 1.8633e-33)
(-0.21831 0.00697559 -6.49529e-18 -0.053103 -9.19824e-18 3.64873e-33)
(-0.231685 0.00500482 -3.43858e-17 -0.0474303 -2.47738e-17 2.05624e-33)
(-0.238569 0.00596453 1.72766e-17 -0.0443553 -5.74232e-17 3.50649e-33)
(-0.0444063 0.0792692 2.89785e-18 -0.1263 2.79661e-18 4.81552e-34)
(-0.0780564 0.069192 -4.0567e-19 -0.101084 2.50343e-18 1.19338e-33)
(-0.109722 0.0541382 4.85699e-19 -0.0806005 -1.09039e-17 1.05097e-33)
(-0.139564 0.0395507 3.23296e-18 -0.0634319 1.78425e-17 8.04223e-34)
(-0.165817 0.0272437 3.47214e-17 -0.0498521 -7.67716e-18 8.80399e-34)
(-0.189042 0.017515 -2.80754e-17 -0.0386545 -1.1545e-17 2.52567e-33)
(-0.208413 0.010446 -1.25358e-17 -0.029844 -8.59007e-19 3.36339e-33)
(-0.223723 0.00621807 2.94118e-17 -0.0228106 1.37691e-17 -6.71714e-34)
(-0.23464 0.00458632 -5.20976e-17 -0.0176169 -2.50596e-17 3.42758e-34)
(-0.242078 0.00686111 5.28642e-18 -0.0128512 -2.07939e-17 4.71735e-33)
(-0.0761421 0.0944879 -1.48075e-18 -0.0879153 1.5533e-17 1.68596e-34)
(-0.110546 0.0792071 -2.97474e-18 -0.0624675 2.92576e-18 1.0339e-33)
(-0.139652 0.0591116 8.49439e-18 -0.0454508 3.80336e-18 1.07577e-33)
(-0.165757 0.0400277 -1.19897e-17 -0.0325618 4.21433e-18 2.41307e-33)
(-0.189763 0.023077 -2.49634e-18 -0.0224714 -8.56167e-18 2.53818e-33)
(-0.211175 0.00931156 3.43183e-17 -0.0140856 -1.38184e-17 -1.5111e-33)
(-0.230477 -0.00198442 1.71549e-17 -0.00691042 2.17656e-17 3.03205e-34)
(-0.246206 -0.00972791 3.8814e-18 -0.000698566 -2.16125e-17 8.0252e-34)
(-0.258536 -0.014784 -6.77496e-17 0.00456882 -2.12575e-17 -8.9036e-33)
(-0.267469 -0.0152023 -2.17772e-17 0.0100023 3.54655e-17 -1.82699e-33)
(-0.110506 0.0765191 -1.96575e-17 -0.036448 -3.68237e-19 1.59444e-33)
(-0.14278 0.056747 -1.32824e-17 -0.0123762 -1.52434e-17 1.31339e-33)
(-0.165247 0.0343835 -8.4711e-18 -0.000182739 5.06901e-18 1.15812e-33)
(-0.185254 0.0134604 1.07703e-17 0.0084854 -1.14401e-17 1.72432e-33)
(-0.202831 -0.00414749 -3.37163e-17 0.0149269 -5.94148e-18 -2.79441e-34)
(-0.219503 -0.0186447 -1.3393e-17 0.0211635 -1.41782e-17 3.42819e-34)
(-0.234405 -0.0297184 -1.67616e-17 0.0270076 -4.65584e-18 1.1653e-34)
(-0.247865 -0.0373895 1.18886e-17 0.0334396 2.09462e-17 -1.63382e-34)
(-0.259267 -0.0416879 -1.68618e-18 0.0400421 3.35398e-17 -4.41556e-33)
(-0.271793 -0.0421434 -5.34708e-17 0.0503392 6.37716e-17 -5.29637e-33)
(-0.133778 0.0580587 1.40258e-17 -0.000648735 -2.50206e-17 1.05289e-33)
(-0.164451 0.0312793 4.07925e-19 0.0212376 -1.3195e-17 1.26812e-33)
(-0.183361 0.00559115 -1.04502e-17 0.0291336 -1.17403e-19 9.87172e-34)
(-0.198563 -0.0170322 5.64472e-18 0.0327918 -1.12405e-17 6.97872e-34)
(-0.212473 -0.0369729 5.86652e-18 0.0348899 -5.67947e-18 1.72226e-34)
(-0.225706 -0.0536062 -1.10375e-17 0.0371371 2.26221e-18 2.60074e-34)
(-0.238457 -0.0679792 -1.97691e-18 0.0396339 1.71775e-17 1.33476e-34)
(-0.250019 -0.078897 -2.63117e-17 0.0430747 5.18046e-18 -3.92222e-34)
(-0.259933 -0.0871128 -6.54492e-18 0.0468718 2.19247e-17 -1.06151e-34)
(-0.269601 -0.0914478 -4.58401e-17 0.0534971 4.85079e-17 1.51677e-33)
(-0.136089 0.0124402 1.29739e-17 0.0245454 8.48223e-18 2.75871e-33)
(-0.161977 -0.0192142 8.7495e-18 0.0424248 1.30361e-17 1.38137e-33)
(-0.174403 -0.0442111 1.28633e-18 0.0455371 -5.96163e-18 1.06887e-33)
(-0.184384 -0.0660829 -9.76704e-18 0.0457396 -1.60807e-17 -2.89579e-34)
(-0.193157 -0.0841873 -7.48715e-18 0.0452761 -9.9911e-18 1.12884e-34)
(-0.202558 -0.100189 -7.63293e-18 0.0462755 4.72689e-18 6.10216e-34)
(-0.212037 -0.113445 -2.17946e-17 0.0486505 7.98894e-19 1.19566e-33)
(-0.222113 -0.124651 5.05772e-18 0.0533359 2.57174e-18 2.24335e-33)
(-0.232247 -0.133349 1.42371e-17 0.0598818 5.70269e-17 -5.06421e-33)
(-0.246464 -0.141951 5.48881e-19 0.0724483 1.54577e-17 -1.62302e-33)
(-0.126816 -0.0201898 -2.61401e-18 0.0332539 -1.60041e-18 2.09852e-33)
(-0.146898 -0.058594 -2.73736e-18 0.0446346 -7.04344e-19 9.99319e-34)
(-0.155449 -0.0857971 4.81288e-18 0.0429906 -8.33727e-18 6.73229e-34)
(-0.161377 -0.107275 -1.13647e-17 0.0389828 3.14061e-18 3.57377e-34)
(-0.16664 -0.125958 -5.71189e-18 0.0347654 1.18013e-17 -7.85047e-34)
(-0.172523 -0.142098 -3.39957e-18 0.0321549 2.28889e-17 -1.87403e-33)
(-0.178635 -0.156965 -1.19315e-17 0.0304903 -5.72651e-18 1.03206e-33)
(-0.185051 -0.169524 -1.23337e-17 0.0307246 -1.24542e-17 -1.73003e-33)
(-0.190886 -0.180102 1.43182e-17 0.0318069 3.71845e-17 -4.76027e-33)
(-0.197981 -0.188993 2.58395e-17 0.0365203 -1.85479e-17 -3.82314e-33)
(-0.0858036 -0.0602653 3.08051e-18 0.0204881 1.28455e-17 1.69674e-33)
(-0.0979033 -0.10164 2.52404e-20 0.0247088 9.69711e-18 7.11284e-34)
(-0.101658 -0.126081 1.05814e-18 0.0197702 4.91478e-18 3.31155e-34)
(-0.104351 -0.145838 -5.78619e-18 0.0139831 3.40655e-18 2.58506e-34)
(-0.106938 -0.16173 -3.41924e-19 0.00914164 -4.12733e-18 -6.6279e-34)
(-0.110243 -0.176919 4.79169e-18 0.00611812 7.80865e-18 -1.08179e-33)
(-0.114294 -0.190786 1.31429e-17 0.00514563 -1.43946e-17 -1.34169e-33)
(-0.119144 -0.204659 3.18996e-18 0.00635746 6.708e-18 -1.84338e-33)
(-0.124808 -0.217806 2.03785e-17 0.00973035 1.43871e-17 -3.09766e-33)
(-0.133445 -0.235563 3.83059e-17 0.0173343 -1.3721e-17 -3.47744e-33)
(-0.0451682 -0.0762458 -1.29372e-17 0.00364132 3.91003e-19 9.42788e-34)
(-0.0476633 -0.120915 -2.95273e-18 -0.00254029 -1.14199e-19 6.26491e-34)
(-0.0471067 -0.146657 -1.32884e-18 -0.0132709 2.01738e-18 3.77887e-34)
(-0.0470927 -0.165195 4.63253e-18 -0.0224513 9.99313e-19 1.15509e-34)
(-0.0467073 -0.181028 -2.06909e-20 -0.0306443 2.3377e-18 -2.42982e-34)
(-0.0473208 -0.195314 2.44363e-18 -0.0361953 4.6504e-18 -5.69707e-34)
(-0.0477266 -0.209152 8.20346e-18 -0.0408244 3.33132e-19 -8.24314e-34)
(-0.0487599 -0.221808 3.61203e-19 -0.0435517 2.74667e-18 -1.10378e-33)
(-0.0494284 -0.233056 1.64389e-17 -0.0457646 1.51937e-18 -1.42104e-33)
(-0.0509955 -0.244365 1.53538e-17 -0.0456595 -2.73074e-18 -1.56768e-33)
(0.0201241 -0.0806589 5.10454e-20 -0.0279788 3.17679e-18 6.35896e-34)
(0.0273497 -0.124061 -3.20229e-18 -0.0431653 -1.89246e-19 5.49441e-34)
(0.0307188 -0.146342 -5.74802e-18 -0.0554885 -7.57784e-19 3.37103e-34)
(0.0325862 -0.163813 3.26317e-19 -0.0655059 2.94359e-18 1.42287e-34)
(0.033409 -0.17765 -3.32456e-18 -0.072777 2.4864e-18 -4.53065e-35)
(0.0343511 -0.191355 9.53327e-19 -0.0785868 2.71198e-18 -1.56412e-34)
(0.0351255 -0.204714 6.22323e-18 -0.0826665 2.67507e-18 -2.27679e-34)
(0.0365581 -0.219031 1.28278e-18 -0.0862573 1.34495e-18 -2.49089e-34)
(0.0380611 -0.233879 1.29172e-17 -0.0889228 8.62807e-19 -3.81531e-34)
(0.0412245 -0.255315 1.52249e-17 -0.0925752 8.68561e-19 -3.80002e-34)
(0.0672579 -0.0626078 -7.28232e-18 -0.0440921 3.28863e-18 5.50321e-34)
(0.0853017 -0.103794 -5.83826e-18 -0.0709864 5.42064e-18 5.38009e-34)
(0.0935489 -0.125713 -3.92678e-18 -0.0905631 -5.24993e-19 3.41571e-34)
(0.0968928 -0.141543 -8.29434e-19 -0.10388 2.21158e-18 1.99926e-34)
(0.100336 -0.154642 -4.06535e-18 -0.115238 4.99394e-18 1.21252e-34)
(0.103016 -0.167062 -3.07652e-18 -0.123011 -4.16611e-18 1.97157e-34)
(0.107013 -0.179161 1.01639e-17 -0.129966 1.32365e-17 2.53432e-34)
(0.11076 -0.190622 5.89089e-18 -0.135121 2.02668e-19 9.36542e-34)
(0.115084 -0.200631 9.80472e-18 -0.140201 -1.08279e-17 1.92227e-34)
(0.119537 -0.210736 2.42709e-17 -0.145041 9.46839e-18 7.89665e-34)
(0.121836 -0.0275587 -7.5183e-18 -0.0585964 1.10249e-18 1.17417e-34)
(0.148115 -0.0621719 -4.02851e-18 -0.0937388 4.01848e-19 3.81752e-34)
(0.157347 -0.0803019 2.04008e-18 -0.113821 -1.57603e-18 2.61099e-34)
(0.162479 -0.0956598 -6.98474e-18 -0.128619 1.83774e-18 1.74374e-34)
(0.165475 -0.108444 3.57284e-18 -0.138915 1.51498e-17 1.18412e-34)
(0.169248 -0.120899 1.21137e-17 -0.147618 -1.32622e-17 5.88567e-34)
(0.173771 -0.133013 1.16064e-18 -0.154837 -2.17687e-18 1.0047e-33)
(0.18046 -0.145067 -3.22753e-18 -0.163022 2.21395e-17 -1.06303e-33)
(0.188687 -0.157211 1.0299e-17 -0.171763 -1.77787e-17 -5.16423e-34)
(0.203401 -0.173218 -9.41381e-19 -0.186643 8.27608e-18 1.20228e-33)
(0.147057 0.0143749 -1.5092e-17 -0.043115 -2.47174e-18 -6.65931e-35)
(0.182054 -0.0118722 -5.58345e-18 -0.0883663 3.15693e-19 2.32803e-34)
(0.195786 -0.0266325 -1.61792e-18 -0.116259 2.92162e-18 1.7372e-34)
(0.200622 -0.0399077 -1.39545e-18 -0.133967 -5.73203e-18 5.51416e-34)
(0.204846 -0.0505852 4.44208e-18 -0.148853 -2.38173e-18 4.47405e-34)
(0.208726 -0.0614836 1.18e-17 -0.15932 1.20174e-17 -1.15575e-33)
(0.215107 -0.0714896 -7.77348e-18 -0.168719 7.40434e-18 -5.62781e-34)
(0.221838 -0.0809644 1.0868e-17 -0.17592 9.45164e-18 -7.57595e-34)
(0.229449 -0.0884171 2.94837e-18 -0.18285 -1.26391e-17 -3.53064e-33)
(0.237385 -0.0945221 -1.95709e-17 -0.190403 -1.33653e-18 -1.79634e-33)
(0.168826 0.0639749 -6.25811e-18 -0.015462 -5.33296e-18 3.07599e-34)
(0.205981 0.0488303 3.4394e-18 -0.0651371 -6.14425e-18 2.81011e-34)
(0.216826 0.0380549 -6.96465e-19 -0.0919846 -2.26477e-18 2.28708e-34)
(0.222373 0.0258254 4.00287e-18 -0.111846 3.16293e-18 4.37799e-34)
(0.226074 0.0140615 8.72437e-18 -0.126702 -1.44485e-17 -6.00343e-34)
(0.231154 0.00272376 5.61953e-18 -0.139345 -7.16639e-18 -2.79562e-34)
(0.237781 -0.00789515 1.11377e-18 -0.150128 -3.61994e-18 -3.40793e-34)
(0.246728 -0.0164407 -1.08338e-17 -0.161406 1.32504e-17 -3.49589e-34)
(0.257634 -0.0233727 -1.28245e-17 -0.173067 8.1828e-18 -2.07939e-33)
(0.276227 -0.0282032 -1.84209e-17 -0.191923 -4.3159e-18 -2.51452e-33)
(0.164961 0.099158 9.22151e-18 0.0431939 8.18977e-18 1.67313e-34)
(0.202124 0.0989987 6.10099e-18 -0.0105556 -4.56519e-19 2.59082e-34)
(0.213593 0.0946018 1.46485e-19 -0.0432569 -6.30666e-18 1.70613e-34)
(0.216275 0.0833231 7.48144e-18 -0.0649871 2.33781e-18 1.1313e-35)
(0.218609 0.0736811 6.55787e-18 -0.0838087 -1.78184e-18 -2.26563e-34)
(0.221599 0.0628284 -1.09007e-18 -0.0982557 -6.81808e-18 -2.18009e-34)
(0.227893 0.0541505 -2.52912e-18 -0.11092 -3.0304e-18 -2.5156e-34)
(0.234988 0.0462361 -6.33008e-18 -0.120655 -3.31736e-18 -3.2282e-34)
(0.243143 0.0412547 -8.87149e-18 -0.12875 3.45105e-18 -7.30068e-34)
(0.250396 0.0390217 -1.5232e-17 -0.135904 -9.74066e-18 -5.44255e-34)
(0.164213 0.133936 -2.7594e-18 0.110658 5.92869e-18 5.90205e-34)
(0.190108 0.144848 -4.49236e-18 0.0599187 3.26435e-18 3.19626e-34)
(0.191028 0.139989 4.40717e-18 0.0297311 -2.35336e-18 2.24232e-34)
(0.190401 0.128394 7.42791e-18 0.00539836 -5.42072e-18 -2.82432e-34)
(0.191858 0.11575 1.16414e-18 -0.0155804 -6.14443e-18 -2.2568e-34)
(0.196472 0.104346 1.65473e-19 -0.03387 -6.30837e-18 -8.24829e-35)
(0.203833 0.0944831 3.39651e-18 -0.0496909 -6.41667e-18 -6.90124e-35)
(0.212475 0.0883115 -7.3472e-18 -0.0635208 -7.04974e-19 8.01309e-35)
(0.222164 0.0850305 -1.95786e-17 -0.0754772 8.27792e-18 -2.65604e-33)
(0.235735 0.088812 3.49123e-19 -0.0900207 4.42544e-18 -1.18687e-33)
(0.156335 0.136239 -6.13435e-18 0.199174 3.84712e-19 4.62169e-34)
(0.157505 0.161928 -2.7448e-18 0.15867 8.20175e-20 3.05306e-34)
(0.150982 0.161194 4.384e-18 0.123596 2.64928e-18 2.47844e-34)
(0.146943 0.14688 -2.23682e-18 0.0946064 -7.2195e-18 2.68693e-34)
(0.147265 0.134635 -7.30215e-19 0.0675963 -3.94877e-18 -4.75305e-35)
(0.150888 0.121721 3.24441e-18 0.0444646 -7.30173e-18 1.78526e-35)
(0.157409 0.112959 1.59877e-18 0.0253292 -6.96032e-18 -2.33837e-34)
(0.164268 0.105589 -6.75007e-18 0.0103038 -3.57331e-18 -2.49726e-34)
(0.171559 0.101808 -3.57365e-18 2.99604e-05 -1.56393e-18 -9.20582e-34)
(0.176034 0.100449 3.05628e-18 -0.00597165 6.28069e-18 -1.30283e-33)
(0.161172 0.14955 -8.59163e-18 0.299927 -8.34333e-19 4.91611e-34)
(0.131275 0.170147 -2.74342e-18 0.262399 1.45342e-19 3.07749e-34)
(0.110362 0.15433 -1.42337e-18 0.219499 4.70399e-19 2.14121e-34)
(0.101913 0.135929 -2.4536e-19 0.180401 -2.3609e-18 2.72288e-34)
(0.103494 0.119146 4.09104e-18 0.144485 -1.75929e-18 1.77295e-35)
(0.109683 0.10719 -1.24333e-18 0.11478 -2.0847e-18 -3.56395e-35)
(0.119209 0.0983799 4.1546e-18 0.0899399 -4.84383e-18 -1.96436e-34)
(0.128065 0.0937676 -4.96972e-18 0.0713721 -2.4428e-18 -9.09545e-35)
(0.136602 0.0919069 -7.27752e-18 0.0579471 6.15795e-19 -5.13103e-34)
(0.142754 0.0967605 5.05498e-19 0.0495879 -1.56323e-18 -4.89236e-34)
(0.191103 0.106429 -7.19495e-18 0.412638 -1.69972e-18 3.7026e-34)
(0.0957148 0.117136 -2.10596e-18 0.384581 -7.23706e-19 3.10656e-34)
(0.0642086 0.101673 -3.00082e-19 0.320519 -1.83533e-18 3.27668e-34)
(0.0587189 0.0833238 -1.552e-19 0.263437 8.63454e-19 2.79015e-34)
(0.063174 0.0720186 2.41807e-20 0.215574 -2.33784e-18 2.16296e-34)
(0.0734389 0.0628071 -8.56153e-19 0.175786 -2.05415e-18 1.40665e-34)
(0.0836961 0.057774 -7.28015e-19 0.145889 -1.00223e-18 7.84502e-35)
(0.0927996 0.0538208 -2.99605e-18 0.122603 -4.23315e-18 4.44838e-35)
(0.10068 0.0519545 -2.96837e-18 0.108215 8.79685e-19 -2.18941e-35)
(0.104677 0.05005 -2.76288e-18 0.100781 2.32677e-19 -3.87602e-35)
)
;

boundaryField
{
    up
    {
        type            zeroGradient;
    }
    hole
    {
        type            mySigma;
    }
    frontAndBack
    {
        type            empty;
    }
}


// ************************************************************************* //
