/*--------------------------------*- C++ -*----------------------------------*\
| =========                 |                                                 |
| \\      /  F ield         | foam-extend: Open Source CFD                    |
|  \\    /   O peration     | Version:  3.0                                   |
|   \\  /    A nd           | Web:         http://www.extend-project.de       |
|    \\/     M anipulation  |                                                 |
\*---------------------------------------------------------------------------*/
FoamFile
{
    version     2.0;
    format      ascii;
    class       volVectorField;
    location    "1.8";
    object      s;
}
// * * * * * * * * * * * * * * * * * * * * * * * * * * * * * * * * * * * * * //

dimensions      [0 0 0 0 0 0 0];

internalField   nonuniform List<vector> 
400
(
(-0.00134905 -4.44951e-05 3.92936e-318)
(-0.00163009 0.000726889 7.03069e-318)
(-0.00240108 0.00121422 8.15177e-318)
(-0.00311293 0.00170072 8.31821e-318)
(-0.00402824 0.00175916 7.95086e-318)
(-0.00488638 0.00166198 7.3239e-318)
(-0.0057082 0.00130335 6.42557e-318)
(-0.00637744 0.000813123 5.52028e-318)
(-0.00685728 0.000192197 4.49277e-318)
(-0.00709776 -0.000491167 3.59204e-318)
(-0.00707327 -0.00121271 2.65747e-318)
(-0.00677779 -0.00192037 1.90534e-318)
(-0.00621192 -0.00258779 1.14421e-318)
(-0.00541812 -0.00314376 5.6735e-319)
(-0.00440831 -0.00358251 -2.58199e-320)
(-0.00330361 -0.0037786 -4.56927e-319)
(-0.00205367 -0.00382407 -8.68133e-319)
(-0.000951599 -0.00344944 -1.14917e-318)
(0.000266037 -0.00290895 -1.14956e-318)
(0.000825655 -0.00150916 -7.87136e-319)
(-0.00147486 0.000947918 3.72919e-318)
(-0.00207311 0.0024992 8.11998e-318)
(-0.00370723 0.00343629 1.04226e-317)
(-0.00491648 0.00397533 1.1507e-317)
(-0.00638128 0.00397697 1.15878e-317)
(-0.00757061 0.00364401 1.11499e-317)
(-0.00866637 0.00297019 1.01571e-317)
(-0.00949527 0.00206988 9.00054e-318)
(-0.0100708 0.000986422 7.56753e-318)
(-0.0103343 -0.00020518 6.2007e-318)
(-0.0102704 -0.00144828 4.73384e-318)
(-0.00987223 -0.00267481 3.45779e-318)
(-0.00913232 -0.00382335 2.15997e-318)
(-0.00810183 -0.00481069 1.09441e-318)
(-0.00675665 -0.00558014 2.55432e-320)
(-0.00528236 -0.00600513 -8.03736e-319)
(-0.00351693 -0.00606049 -1.58884e-318)
(-0.00203042 -0.00550282 -2.07055e-318)
(-0.000215569 -0.0043127 -2.16109e-318)
(0.00048127 -0.00199485 -1.41181e-318)
(-0.0012544 0.00241932 3.23331e-318)
(-0.00188935 0.00562986 7.54094e-318)
(-0.00370533 0.00742761 1.00412e-317)
(-0.00511707 0.00825678 1.131e-317)
(-0.00680736 0.00813757 1.15795e-317)
(-0.00812361 0.00738965 1.12385e-317)
(-0.00931709 0.0060786 1.03481e-317)
(-0.0101798 0.00439332 9.21964e-318)
(-0.0107755 0.00241753 7.82455e-318)
(-0.0110466 0.000271024 6.42092e-318)
(-0.0109945 -0.00196083 4.92581e-318)
(-0.0106114 -0.00417188 3.55066e-318)
(-0.00987142 -0.00626587 2.17393e-318)
(-0.00882365 -0.00810013 9.78932e-319)
(-0.00739321 -0.0095587 -1.66989e-319)
(-0.00580238 -0.0104055 -1.07674e-318)
(-0.00381936 -0.010521 -1.82686e-318)
(-0.00213877 -0.00950137 -2.18965e-318)
(-0.000127478 -0.00723566 -2.04622e-318)
(0.000659006 -0.00312562 -1.06432e-318)
(-0.00126833 0.00342406 2.13889e-318)
(-0.00181787 0.00792179 5.60386e-318)
(-0.00361967 0.0102835 7.95779e-318)
(-0.00489547 0.011218 9.35982e-318)
(-0.00645251 0.0108956 9.90057e-318)
(-0.00755942 0.00977717 9.81846e-318)
(-0.00856311 0.00800312 9.21727e-318)
(-0.00924415 0.00581002 8.29952e-318)
(-0.00971956 0.00330356 7.13025e-318)
(-0.00993792 0.000611256 5.86728e-318)
(-0.00991691 -0.00217885 4.53298e-318)
(-0.00964852 -0.00495995 3.24583e-318)
(-0.00908811 -0.0076291 1.99675e-318)
(-0.00827722 -0.0100239 8.82925e-319)
(-0.00708106 -0.0119944 -1.13235e-319)
(-0.00573051 -0.0132293 -8.875e-319)
(-0.00388306 -0.0135264 -1.4347e-318)
(-0.00230897 -0.0123138 -1.61756e-318)
(-0.000227341 -0.00939349 -1.38205e-318)
(0.00059264 -0.00397704 -6.13882e-319)
(-0.00126101 0.00477361 2.05004e-318)
(-0.00168337 0.0107035 5.08028e-318)
(-0.00343962 0.0136108 7.0823e-318)
(-0.00451995 0.0145917 8.24631e-318)
(-0.00590136 0.0139828 8.70472e-318)
(-0.00676209 0.0124241 8.62287e-318)
(-0.00755903 0.0101223 8.10719e-318)
(-0.00805117 0.00737318 7.30414e-318)
(-0.00841061 0.00429533 6.28015e-318)
(-0.00858675 0.00102298 5.15107e-318)
(-0.00861239 -0.00236337 3.95066e-318)
(-0.00847884 -0.00576201 2.76607e-318)
(-0.00811922 -0.00907407 1.60725e-318)
(-0.00757199 -0.0121194 5.45122e-319)
(-0.00663055 -0.0147232 -4.14081e-319)
(-0.00554828 -0.0164836 -1.19503e-318)
(-0.00384003 -0.01712 -1.75782e-318)
(-0.00239299 -0.0158298 -1.99707e-318)
(-0.000220556 -0.0122902 -1.78702e-318)
(0.00057401 -0.00531854 -9.15321e-319)
(-0.00135725 0.00597035 1.50178e-318)
(-0.00162055 0.0131282 3.96522e-318)
(-0.00325935 0.0163616 5.73044e-318)
(-0.00399457 0.0172441 6.83698e-318)
(-0.00505398 0.016282 7.33717e-318)
(-0.00552785 0.0143089 7.35184e-318)
(-0.00600692 0.0115829 6.97084e-318)
(-0.0062268 0.00844242 6.30577e-318)
(-0.00641769 0.0050013 5.43451e-318)
(-0.00652681 0.00138123 4.44448e-318)
(-0.0066022 -0.00236258 3.38837e-318)
(-0.00663574 -0.00615371 2.33148e-318)
(-0.00653937 -0.00991751 1.30883e-318)
(-0.00635363 -0.0134802 3.74941e-319)
(-0.00579256 -0.0166644 -4.36324e-319)
(-0.00513672 -0.0189962 -1.06249e-318)
(-0.00371746 -0.0201262 -1.45768e-318)
(-0.00254947 -0.0189772 -1.53531e-318)
(-0.000326526 -0.0150701 -1.24413e-318)
(0.000428533 -0.00663104 -5.24703e-319)
(-0.00153462 0.00736509 1.64386e-318)
(-0.00148909 0.015593 3.92487e-318)
(-0.00295067 0.0189677 5.41307e-318)
(-0.00320054 0.0196021 6.27017e-318)
(-0.00385247 0.0182313 6.62253e-318)
(-0.00385963 0.015846 6.56238e-318)
(-0.00397214 0.0127508 6.1801e-318)
(-0.0038842 0.00930284 5.55772e-318)
(-0.00388432 0.00560324 4.76193e-318)
(-0.00391151 0.00174906 3.85899e-318)
(-0.0040289 -0.0022364 2.89746e-318)
(-0.00423137 -0.00631298 1.92748e-318)
(-0.00441312 -0.0104392 9.83042e-319)
(-0.00462792 -0.0144666 1.05246e-319)
(-0.00450758 -0.0182271 -6.73204e-319)
(-0.00438643 -0.0212047 -1.30859e-318)
(-0.00336073 -0.0229799 -1.74436e-318)
(-0.00265395 -0.0222144 -1.91313e-318)
(-0.000410762 -0.0181701 -1.68744e-318)
(0.000118655 -0.00831953 -8.74639e-319)
(-0.00172928 0.00868097 1.33368e-318)
(-0.00123272 0.0176228 3.33041e-318)
(-0.00237028 0.0209336 4.69837e-318)
(-0.00200258 0.0211878 5.51986e-318)
(-0.00214599 0.0194127 5.8665e-318)
(-0.00161913 0.0166787 5.83233e-318)
(-0.00131709 0.0133396 5.49483e-318)
(-0.000889459 0.00973628 4.93193e-318)
(-0.000673316 0.00595382 4.20832e-318)
(-0.000597293 0.00205135 3.384e-318)
(-0.000738702 -0.00198372 2.50707e-318)
(-0.00109779 -0.00615785 1.62339e-318)
(-0.00155873 -0.0104695 7.69295e-319)
(-0.0021957 -0.0148183 -1.48269e-320)
(-0.00257063 -0.0190548 -6.92235e-319)
(-0.00308106 -0.0226724 -1.21677e-318)
(-0.00258412 -0.0251726 -1.53977e-318)
(-0.00252554 -0.0250294 -1.58919e-318)
(-0.000405405 -0.0211217 -1.30067e-318)
(-0.000264617 -0.0101284 -5.84909e-319)
(-0.00186489 0.00988826 1.48806e-318)
(-0.000722848 0.0191106 3.42985e-318)
(-0.00139429 0.022232 4.63205e-318)
(-0.000312913 0.022024 5.28072e-318)
(0.000102684 0.0199148 5.5106e-318)
(0.00117897 0.0169176 5.40297e-318)
(0.0019021 0.0134631 5.03946e-318)
(0.00266939 0.00983454 4.48406e-318)
(0.00311082 0.00611075 3.79339e-318)
(0.00330869 0.00230316 3.01715e-318)
(0.0031742 -0.00163132 2.19791e-318)
(0.00269983 -0.00575151 1.37427e-318)
(0.00200064 -0.0100922 5.78966e-319)
(0.000976768 -0.0146227 -1.565e-319)
(0.000111761 -0.0192056 -8.01533e-319)
(-0.00106602 -0.0234139 -1.32417e-318)
(-0.00118877 -0.0266301 -1.67569e-318)
(-0.00196792 -0.0273154 -1.80621e-318)
(-0.00013698 -0.0237587 -1.59196e-318)
(-0.000702495 -0.0120698 -8.44314e-319)
(-0.00175599 0.0107196 1.27976e-318)
(7.47628e-05 0.0197768 3.07712e-318)
(6.50472e-05 0.022662 4.23905e-318)
(0.00184527 0.02199 4.88584e-318)
(0.00284226 0.0196721 5.10902e-318)
(0.00442451 0.0165266 5.00568e-318)
(0.00554981 0.0130978 4.65269e-318)
(0.00663152 0.00957593 4.11877e-318)
(0.00729634 0.00604748 3.46101e-318)
(0.00763071 0.00247143 2.72814e-318)
(0.00753949 -0.00121783 1.96119e-318)
(0.00700805 -0.00513158 1.19652e-318)
(0.00613674 -0.00933376 4.67035e-319)
(0.00480687 -0.0138791 -1.96692e-319)
(0.00350129 -0.0186289 -7.62244e-319)
(0.00170739 -0.0233075 -1.19393e-318)
(0.000906789 -0.0271277 -1.45295e-318)
(-0.000759955 -0.0287461 -1.48482e-318)
(0.000500568 -0.0256754 -1.22667e-318)
(-0.000883698 -0.0138037 -5.84603e-319)
(-0.00136825 0.010941 1.39847e-318)
(0.00110584 0.0194589 3.18909e-318)
(0.00189534 0.022174 4.25267e-318)
(0.00430413 0.0211164 4.78296e-318)
(0.00586999 0.0187587 4.92186e-318)
(0.0078867 0.0155901 4.75967e-318)
(0.00937601 0.012319 4.37924e-318)
(0.0107303 0.00901264 3.84171e-318)
(0.0116066 0.00578544 3.20054e-318)
(0.0120875 0.00254259 2.49817e-318)
(0.0120798 -0.000791919 1.77265e-318)
(0.0115637 -0.00437813 1.05576e-318)
(0.0106101 -0.00829616 3.77535e-319)
(0.00909315 -0.0126952 -2.35289e-319)
(0.00743878 -0.0174124 -7.56503e-319)
(0.00513631 -0.0223904 -1.16193e-318)
(0.00364574 -0.0265992 -1.41464e-318)
(0.00108534 -0.0291381 -1.49001e-318)
(0.00151969 -0.0265301 -1.29488e-318)
(-0.000826737 -0.0150342 -6.9771e-319)
(-0.000617225 0.0105691 1.24623e-318)
(0.00221253 0.0183527 2.9686e-318)
(0.0039611 0.0209215 4.02457e-318)
(0.0068207 0.0195934 4.55964e-318)
(0.00893586 0.0173266 4.68472e-318)
(0.0112781 0.0142462 4.51186e-318)
(0.0130807 0.0112327 4.12676e-318)
(0.0146478 0.00822481 3.59622e-318)
(0.0157111 0.00537166 2.97403e-318)
(0.0163376 0.00253097 2.30239e-318)
(0.0164463 -0.000375159 1.61713e-318)
(0.0160164 -0.00354479 9.4951e-319)
(0.0150758 -0.007064 3.26686e-319)
(0.0135136 -0.0111718 -2.2189e-319)
(0.0116281 -0.0156695 -6.6938e-319)
(0.00900321 -0.020752 -9.87168e-319)
(0.00683966 -0.0251264 -1.14548e-318)
(0.00358287 -0.0284817 -1.11554e-318)
(0.00283715 -0.0263614 -8.71354e-319)
(-0.000186731 -0.0156584 -3.95732e-319)
(0.000212862 0.00941871 1.33249e-318)
(0.00315722 0.0164204 3.07212e-318)
(0.00588449 0.0189034 4.05303e-318)
(0.00906751 0.0174712 4.48921e-318)
(0.0117008 0.0154232 4.53927e-318)
(0.0142802 0.012546 4.3142e-318)
(0.0163396 0.00987416 3.90452e-318)
(0.0180554 0.00723002 3.37163e-318)
(0.0192696 0.00479767 2.76502e-318)
(0.0200282 0.00239922 2.12273e-318)
(0.0202751 -3.72109e-05 1.47635e-318)
(0.0199925 -0.0027323 8.54857e-319)
(0.0191568 -0.00576776 2.8265e-319)
(0.017688 -0.0094537 -2.13481e-319)
(0.0156991 -0.0135503 -6.08111e-319)
(0.0129306 -0.0184989 -8.80277e-319)
(0.0101407 -0.0227487 -1.00166e-318)
(0.00632069 -0.0266547 -9.70686e-319)
(0.00420244 -0.0248516 -7.52605e-319)
(0.000556131 -0.0152252 -3.49789e-319)
(0.00109005 0.00811196 1.24691e-318)
(0.00378041 0.0143009 2.95372e-318)
(0.00751145 0.0165458 3.9049e-318)
(0.0108243 0.0151064 4.31125e-318)
(0.0139221 0.013304 4.32334e-318)
(0.0166145 0.010708 4.07495e-318)
(0.0188473 0.00841891 3.65681e-318)
(0.0206249 0.00617443 3.13264e-318)
(0.0219324 0.00417584 2.54923e-318)
(0.0227899 0.0022259 1.94218e-318)
(0.0231773 0.000262062 1.33854e-318)
(0.023084 -0.00194072 7.65703e-319)
(0.0224345 -0.00445441 2.47631e-319)
(0.0211966 -0.00763124 -1.90393e-319)
(0.0192543 -0.0112067 -5.20612e-319)
(0.0165883 -0.0158232 -7.17028e-319)
(0.0132847 -0.019784 -7.53608e-319)
(0.00927852 -0.0240332 -6.19222e-319)
(0.00554122 -0.0227444 -3.39418e-319)
(0.0018799 -0.0145437 -2.40314e-320)
(0.00158962 0.00633692 1.3481e-318)
(0.00400096 0.0117851 3.04439e-318)
(0.00851995 0.0137193 3.88025e-318)
(0.0119012 0.0124335 4.16221e-318)
(0.0153623 0.0109265 4.09405e-318)
(0.0180728 0.00871131 3.80172e-318)
(0.0203772 0.00684274 3.37331e-318)
(0.0221258 0.00502642 2.86353e-318)
(0.0234528 0.00345724 2.31116e-318)
(0.0243589 0.00194218 1.74618e-318)
(0.0248679 0.000428944 1.19213e-318)
(0.0249759 -0.00128935 6.71776e-319)
(0.0245684 -0.00327322 2.0688e-319)
(0.0236546 -0.00587144 -1.79252e-319)
(0.021894 -0.00882153 -4.6122e-319)
(0.0194943 -0.0128587 -6.1732e-319)
(0.0158341 -0.0162771 -6.21737e-319)
(0.0117578 -0.0203951 -4.81077e-319)
(0.00655179 -0.019333 -2.15279e-319)
(0.00264528 -0.0124301 6.02118e-320)
(0.00171012 0.00500808 1.39709e-318)
(0.00373024 0.00955383 2.98479e-318)
(0.00886355 0.0109988 3.6921e-318)
(0.0121558 0.0098659 3.87946e-318)
(0.0158046 0.00863043 3.75261e-318)
(0.018373 0.00683279 3.44126e-318)
(0.0205988 0.00538469 3.02184e-318)
(0.0222026 0.00399036 2.5429e-318)
(0.0234542 0.00282106 2.03624e-318)
(0.024342 0.00170006 1.52542e-318)
(0.0249315 0.00059067 1.03026e-318)
(0.0252267 -0.000685627 5.69589e-319)
(0.0250936 -0.00217094 1.62607e-319)
(0.0245812 -0.00418376 -1.698e-319)
(0.023163 -0.00648405 -4.01848e-319)
(0.021279 -0.00982491 -5.09688e-319)
(0.017562 -0.0126537 -4.69303e-319)
(0.0139557 -0.0165178 -2.72556e-319)
(0.00738295 -0.0160573 2.14622e-320)
(0.00419479 -0.0111758 2.59039e-319)
(0.00168024 0.00366991 1.44772e-318)
(0.00328784 0.00718219 2.86591e-318)
(0.00856447 0.00804723 3.39094e-318)
(0.0116385 0.00721605 3.44701e-318)
(0.0152058 0.00628558 3.26901e-318)
(0.0174873 0.00498056 2.95569e-318)
(0.0194737 0.00395215 2.57017e-318)
(0.0208253 0.00297049 2.14561e-318)
(0.0219065 0.00215878 1.706e-318)
(0.0226964 0.00138234 1.26827e-318)
(0.0233066 0.000614637 8.47392e-319)
(0.0237254 -0.000275406 4.583e-319)
(0.0238499 -0.0013198 1.1652e-319)
(0.0237108 -0.00275716 -1.60201e-319)
(0.0227257 -0.00441133 -3.51261e-319)
(0.0213967 -0.00688583 -4.36858e-319)
(0.0179352 -0.00896967 -3.98172e-319)
(0.0147775 -0.0119566 -2.38392e-319)
(0.00764983 -0.0115613 -5.73116e-321)
(0.00434755 -0.0076106 1.98728e-319)
(0.000497771 0.0025605 1.67573e-318)
(0.00232067 0.0052439 2.72065e-318)
(0.00745532 0.0056096 2.98141e-318)
(0.0101762 0.00497929 2.90217e-318)
(0.0133648 0.00433129 2.67957e-318)
(0.0151648 0.00346973 2.37987e-318)
(0.0167334 0.00282302 2.0438e-318)
(0.0177314 0.00219861 1.68936e-318)
(0.0185483 0.00169474 1.33081e-318)
(0.0191794 0.00119933 9.7909e-319)
(0.0197319 0.000718245 6.43486e-319)
(0.0202187 0.000144476 3.34838e-319)
(0.0205381 -0.000514941 6.34133e-320)
(0.0207653 -0.00144922 -1.55843e-319)
(0.0202754 -0.00250248 -3.05975e-319)
(0.0197009 -0.00417628 -3.69072e-319)
(0.0168547 -0.00555638 -3.28509e-319)
(0.0148788 -0.0079138 -1.75215e-319)
(0.0074863 -0.00794149 2.997e-320)
(0.00607732 -0.00651648 1.99197e-319)
(0.000731045 0.0022718 1.03798e-318)
(0.00129478 0.00301626 1.74286e-318)
(0.00532649 0.00305369 1.91162e-318)
(0.00714194 0.00281735 1.85032e-318)
(0.00941243 0.00251317 1.70768e-318)
(0.0105737 0.00213116 1.51555e-318)
(0.0115732 0.00181561 1.30161e-318)
(0.0121679 0.00150536 1.07553e-318)
(0.0126717 0.00124013 8.46774e-319)
(0.0130557 0.000970582 6.22162e-319)
(0.0134715 0.000700991 4.07762e-319)
(0.0138285 0.000380551 2.10586e-319)
(0.0142084 8.37708e-06 3.77021e-320)
(0.0144748 -0.000488848 -1.01259e-319)
(0.0144101 -0.00106375 -1.95882e-319)
(0.0141814 -0.00188512 -2.36702e-319)
(0.0124295 -0.00261716 -2.16371e-319)
(0.0110982 -0.00357005 -1.40898e-319)
(0.00579401 -0.00355168 -5.22425e-320)
(0.00427425 -0.00156 1.75789e-320)
(-0.000874364 0.00103738 1.42944e-318)
(0.00086758 0.00219944 1.41651e-318)
(0.00362357 0.00175576 1.24687e-318)
(0.00452216 0.00158118 1.06166e-318)
(0.0057982 0.00141662 9.07712e-319)
(0.00614012 0.00125221 7.63998e-319)
(0.00654834 0.00118205 6.3109e-319)
(0.00669223 0.00107972 5.04881e-319)
(0.00685818 0.00103283 3.84966e-319)
(0.00702909 0.000946998 2.71351e-319)
(0.00720828 0.000900691 1.64672e-319)
(0.00751862 0.000797435 6.60269e-320)
(0.00775534 0.000734893 -2.25245e-320)
(0.00823651 0.000568282 -9.73754e-320)
(0.00831523 0.000474274 -1.53852e-319)
(0.00886951 0.000128646 -1.8521e-319)
(0.007869 2.3248e-05 -1.83575e-319)
(0.00834307 -0.000824956 -1.40344e-319)
(0.00389016 -0.000747776 -7.86058e-320)
(0.00557951 -0.00213239 -7.99892e-321)
)
;

boundaryField
{
    cavity
    {
        type            myHeatFlux;
        ThetaWall       uniform 0;
        value           nonuniform List<vector> 
60
(
(0.001 0 0)
(0.001 0 0)
(0.001 0 0)
(0.001 0 0)
(0.001 0 0)
(0.001 0 0)
(0.001 0 0)
(0.001 0 0)
(0.001 0 0)
(0.001 0 0)
(0.001 0 0)
(0.001 0 0)
(0.001 0 0)
(0.001 0 0)
(0.001 0 0)
(0.001 0 0)
(0.001 0 0)
(0.001 0 0)
(0.001 0 0)
(0.001 0 0)
(0 -0.001 0)
(0 -0.001 0)
(0 -0.001 0)
(0 -0.001 0)
(0 -0.001 0)
(0 -0.001 0)
(0 -0.001 0)
(0 -0.001 0)
(0 -0.001 0)
(0 -0.001 0)
(0 -0.001 0)
(0 -0.001 0)
(0 -0.001 0)
(0 -0.001 0)
(0 -0.001 0)
(0 -0.001 0)
(0 -0.001 0)
(0 -0.001 0)
(0 -0.001 0)
(0 -0.001 0)
(-0.001 0 0)
(-0.001 0 0)
(-0.001 0 0)
(-0.001 0 0)
(-0.001 0 0)
(-0.001 0 0)
(-0.001 0 0)
(-0.001 0 0)
(-0.001 0 0)
(-0.001 0 0)
(-0.001 0 0)
(-0.001 0 0)
(-0.001 0 0)
(-0.001 0 0)
(-0.001 0 0)
(-0.001 0 0)
(-0.001 0 0)
(-0.001 0 0)
(-0.001 0 0)
(-0.001 0 0)
)
;
    }
    lid
    {
        type            myHeatFlux;
        ThetaWall       uniform 0;
        value           nonuniform List<vector> 
20
(
(0.000135815 0.0009 0)
(0.000135815 0.0009 0)
(0.000135815 0.0009 0)
(0.000135815 0.0009 0)
(0.000135815 0.0009 0)
(0.000135815 0.0009 0)
(0.000135815 0.0009 0)
(0.000135815 0.0009 0)
(0.000135815 0.0009 0)
(0.000135815 0.0009 0)
(0.000135815 0.0009 0)
(0.000135815 0.0009 0)
(0.000135815 0.0009 0)
(0.000135815 0.0009 0)
(0.000135815 0.0009 0)
(0.000135815 0.0009 0)
(0.000135815 0.0009 0)
(0.000135815 0.0009 0)
(0.000135815 0.0009 0)
(0.000135815 0.0009 0)
)
;
    }
    frontAndBack
    {
        type            empty;
    }
}


// ************************************************************************* //
