/*--------------------------------*- C++ -*----------------------------------*\
| =========                 |                                                 |
| \\      /  F ield         | foam-extend: Open Source CFD                    |
|  \\    /   O peration     | Version:  3.0                                   |
|   \\  /    A nd           | Web:         http://www.extend-project.de       |
|    \\/     M anipulation  |                                                 |
\*---------------------------------------------------------------------------*/
FoamFile
{
    version     2.0;
    format      ascii;
    class       volVectorField;
    location    "1.8";
    object      u;
}
// * * * * * * * * * * * * * * * * * * * * * * * * * * * * * * * * * * * * * //

dimensions      [0 0 0 0 0 0 0];

internalField   nonuniform List<vector> 
400
(
(0.00681476 -0.00967061 6.69569e-316)
(-0.0775937 0.0514204 6.00271e-316)
(-0.108376 0.0526908 4.65976e-316)
(-0.184403 0.0763648 4.46101e-316)
(-0.231218 0.0677745 3.00915e-316)
(-0.290361 0.0652375 3.14582e-316)
(-0.330941 0.0512832 1.83881e-316)
(-0.368456 0.0381705 2.19306e-316)
(-0.391608 0.0226202 1.05637e-316)
(-0.405316 0.00632915 1.56377e-316)
(-0.40643 -0.00959593 5.49071e-317)
(-0.39544 -0.026487 1.14988e-316)
(-0.373798 -0.0429806 2.01257e-317)
(-0.337779 -0.0576514 8.4277e-317)
(-0.296923 -0.0730663 -8.38493e-318)
(-0.237322 -0.0772741 5.46978e-317)
(-0.188504 -0.0866593 -3.59868e-317)
(-0.110548 -0.0631457 1.4329e-317)
(-0.0778658 -0.06067 -5.48123e-317)
(0.00798421 0.00457391 -4.56967e-317)
(-0.0329355 0.088791 2.06464e-316)
(-0.0843122 0.105887 2.67406e-316)
(-0.129786 0.0945515 2.5733e-316)
(-0.176483 0.10089 2.59705e-316)
(-0.211268 0.084995 2.22212e-316)
(-0.247481 0.0803805 2.07567e-316)
(-0.273575 0.0618931 1.63641e-316)
(-0.296684 0.0497353 1.49125e-316)
(-0.311265 0.0293043 1.09011e-316)
(-0.319665 0.0131778 1.00213e-316)
(-0.320081 -0.00837563 6.61999e-317)
(-0.313009 -0.0249738 6.30489e-317)
(-0.298956 -0.0467136 3.37296e-317)
(-0.276761 -0.0599566 3.41181e-317)
(-0.250547 -0.0805565 7.18814e-318)
(-0.214505 -0.0859613 8.5393e-318)
(-0.179215 -0.103739 -1.80492e-317)
(-0.131758 -0.0967352 -2.12435e-317)
(-0.0860645 -0.108496 -4.85064e-317)
(-0.0333128 -0.0884223 -7.92341e-317)
(-0.0219201 0.138597 3.58064e-316)
(-0.0850977 0.168766 3.1768e-316)
(-0.135275 0.164974 2.72154e-316)
(-0.190514 0.174086 2.4139e-316)
(-0.235891 0.152204 1.96067e-316)
(-0.276259 0.139505 1.75943e-316)
(-0.309781 0.10883 1.36395e-316)
(-0.334283 0.0822495 1.23576e-316)
(-0.352455 0.0478976 8.99359e-317)
(-0.361747 0.0147103 8.23486e-317)
(-0.362914 -0.0211156 5.27791e-317)
(-0.357103 -0.0552166 4.78943e-317)
(-0.340589 -0.0913189 1.93552e-317)
(-0.31857 -0.120061 1.33636e-317)
(-0.285012 -0.15359 -1.88226e-317)
(-0.245077 -0.168049 -3.27337e-317)
(-0.198003 -0.192355 -7.56046e-317)
(-0.140497 -0.182543 -1.12381e-316)
(-0.0886236 -0.186097 -1.73047e-316)
(-0.0216224 -0.152491 -2.61224e-316)
(-0.0270841 0.215247 4.15245e-317)
(-0.090236 0.243637 1.05555e-316)
(-0.143438 0.223818 1.23957e-316)
(-0.18803 0.225593 1.35923e-316)
(-0.230569 0.190823 1.29194e-316)
(-0.258337 0.171454 1.20376e-316)
(-0.287331 0.132612 1.03902e-316)
(-0.302635 0.100947 9.00348e-317)
(-0.31785 0.0612166 7.22203e-317)
(-0.323688 0.023556 5.88221e-317)
(-0.324951 -0.0171828 4.22816e-317)
(-0.322213 -0.0561502 3.03316e-317)
(-0.308802 -0.0989332 1.50963e-317)
(-0.29605 -0.133748 4.35549e-318)
(-0.266964 -0.178115 -9.44136e-318)
(-0.240112 -0.200159 -1.74864e-317)
(-0.195496 -0.241043 -2.68809e-317)
(-0.148703 -0.238099 -2.45186e-317)
(-0.0937024 -0.260547 -2.12993e-317)
(-0.0253953 -0.225678 9.94331e-318)
(-0.0325577 0.274842 2.94089e-316)
(-0.103609 0.3051 2.3261e-316)
(-0.169778 0.277329 1.95799e-316)
(-0.217026 0.273503 1.61575e-316)
(-0.270229 0.230494 1.35184e-316)
(-0.297749 0.201473 1.14105e-316)
(-0.333681 0.156219 9.37819e-317)
(-0.348451 0.113668 7.79405e-317)
(-0.367469 0.0692367 6.09431e-317)
(-0.374217 0.0203422 4.75338e-317)
(-0.376753 -0.0243184 3.20254e-317)
(-0.376928 -0.0749895 1.91373e-317)
(-0.361676 -0.122257 2.96197e-318)
(-0.352901 -0.169213 -1.22332e-317)
(-0.317111 -0.220091 -3.27974e-317)
(-0.292599 -0.253112 -5.60411e-317)
(-0.235045 -0.303269 -8.77366e-317)
(-0.184584 -0.305508 -1.32336e-316)
(-0.112771 -0.337148 -1.84952e-316)
(-0.0313053 -0.296068 -2.72972e-316)
(-0.041162 0.370493 2.78009e-317)
(-0.106901 0.401941 7.54049e-317)
(-0.18147 0.353 8.92904e-317)
(-0.214605 0.339454 9.76647e-317)
(-0.268619 0.280985 9.34976e-317)
(-0.281947 0.240841 8.56814e-317)
(-0.315564 0.187657 7.42743e-317)
(-0.320432 0.136023 6.23369e-317)
(-0.337659 0.0882953 4.94577e-317)
(-0.340509 0.0315563 3.72005e-317)
(-0.343546 -0.0153609 2.44704e-317)
(-0.346685 -0.0749452 1.24e-317)
(-0.334055 -0.127334 -2.40368e-319)
(-0.335527 -0.186395 -1.21854e-317)
(-0.302154 -0.249609 -2.42426e-317)
(-0.294032 -0.297658 -3.38836e-317)
(-0.2341 -0.370831 -4.14067e-317)
(-0.200599 -0.384221 -3.85409e-317)
(-0.116881 -0.445133 -3.15165e-317)
(-0.0409507 -0.396115 7.26894e-318)
(-0.0621016 0.439936 2.79211e-316)
(-0.124534 0.462881 2.04716e-316)
(-0.221033 0.395972 1.65776e-316)
(-0.243322 0.368172 1.30153e-316)
(-0.307216 0.301917 1.06782e-316)
(-0.310913 0.249148 8.72434e-317)
(-0.348676 0.195166 7.09786e-317)
(-0.34808 0.134157 5.67096e-317)
(-0.367603 0.0893081 4.33372e-317)
(-0.370077 0.0249866 3.0866e-317)
(-0.375146 -0.0172939 1.83385e-317)
(-0.383536 -0.0851041 5.86179e-318)
(-0.372008 -0.132889 -7.66941e-318)
(-0.384601 -0.203375 -2.2471e-317)
(-0.34808 -0.265272 -4.00526e-317)
(-0.355665 -0.329199 -6.21853e-317)
(-0.281967 -0.410335 -9.0045e-317)
(-0.262727 -0.439916 -1.32871e-316)
(-0.146571 -0.523009 -1.82101e-316)
(-0.0685664 -0.476632 -2.71657e-316)
(-0.0886168 0.571077 3.4278e-317)
(-0.120779 0.573031 7.52215e-317)
(-0.232686 0.478448 8.34387e-317)
(-0.226462 0.42816 8.74043e-317)
(-0.289851 0.349262 8.10194e-317)
(-0.273816 0.27973 7.18755e-317)
(-0.307121 0.223227 6.06819e-317)
(-0.29463 0.151579 4.90821e-317)
(-0.311197 0.109377 3.73668e-317)
(-0.308309 0.0372703 2.58568e-317)
(-0.313982 -0.000899939 1.43412e-317)
(-0.323848 -0.0781957 2.83149e-318)
(-0.316457 -0.124278 -8.96615e-318)
(-0.339793 -0.210788 -2.08901e-317)
(-0.308272 -0.279041 -3.28392e-317)
(-0.33998 -0.368692 -4.34119e-317)
(-0.264274 -0.472688 -5.19724e-317)
(-0.284517 -0.533362 -5.09121e-317)
(-0.142594 -0.661592 -4.57127e-317)
(-0.106147 -0.632775 -6.46699e-318)
(-0.130029 0.659168 2.70253e-316)
(-0.129275 0.613759 1.91001e-316)
(-0.27003 0.504748 1.51663e-316)
(-0.236854 0.424623 1.16293e-316)
(-0.306634 0.347937 9.38845e-317)
(-0.274 0.262706 7.52433e-317)
(-0.307107 0.213744 6.00745e-317)
(-0.286157 0.135093 4.66494e-317)
(-0.302837 0.102398 3.43482e-317)
(-0.298273 0.0270599 2.27003e-317)
(-0.306802 0.000334175 1.12518e-317)
(-0.322165 -0.080816 -3.4551e-319)
(-0.319918 -0.112896 -1.26391e-317)
(-0.358103 -0.208987 -2.62486e-317)
(-0.329602 -0.261864 -4.20908e-317)
(-0.3888 -0.373466 -6.22841e-317)
(-0.301728 -0.468415 -8.76268e-317)
(-0.362971 -0.56902 -1.28223e-316)
(-0.169489 -0.715101 -1.75453e-316)
(-0.172237 -0.740358 -2.68015e-316)
(-0.166057 0.827289 4.23138e-317)
(-0.0996765 0.708931 8.1925e-317)
(-0.253056 0.581168 8.62047e-317)
(-0.183926 0.45825 8.66615e-317)
(-0.246932 0.380758 7.76964e-317)
(-0.196699 0.27374 6.68009e-317)
(-0.221362 0.23079 5.4811e-317)
(-0.19071 0.142693 4.29431e-317)
(-0.202632 0.119215 3.14373e-317)
(-0.191761 0.0393931 2.0329e-317)
(-0.200579 0.0235064 9.41863e-318)
(-0.212465 -0.0640951 -1.47655e-318)
(-0.215883 -0.0854124 -1.26293e-317)
(-0.256964 -0.198186 -2.41313e-317)
(-0.238084 -0.244351 -3.58917e-317)
(-0.316847 -0.393552 -4.69678e-317)
(-0.234534 -0.495846 -5.66993e-317)
(-0.352038 -0.664605 -5.7929e-317)
(-0.12815 -0.853346 -5.5778e-317)
(-0.237064 -0.974369 -1.85606e-317)
(-0.202875 0.913779 2.62547e-316)
(-0.0843226 0.696309 1.82706e-316)
(-0.256904 0.583795 1.44504e-316)
(-0.16003 0.415707 1.10199e-316)
(-0.219877 0.357645 8.83494e-317)
(-0.155823 0.234914 7.005e-317)
(-0.174079 0.206234 5.51075e-317)
(-0.136467 0.115243 4.1926e-317)
(-0.14585 0.103554 3.00159e-317)
(-0.132548 0.0254786 1.88672e-317)
(-0.144822 0.0226363 8.10665e-318)
(-0.159123 -0.0634711 -2.64211e-318)
(-0.172252 -0.0660382 -1.38543e-317)
(-0.22372 -0.183787 -2.61128e-317)
(-0.217625 -0.200175 -4.01827e-317)
(-0.321817 -0.373774 -5.81109e-317)
(-0.240561 -0.432988 -8.06754e-317)
(-0.410298 -0.670911 -1.185e-316)
(-0.134004 -0.828191 -1.63262e-316)
(-0.3232 -1.09148 -2.59844e-316)
(-0.191174 1.08353 5.00896e-317)
(-0.0177685 0.751367 9.19605e-317)
(-0.168744 0.644213 9.29644e-317)
(-0.0584518 0.417802 9.0138e-317)
(-0.0981284 0.371788 7.83929e-317)
(-0.0318412 0.226611 6.55556e-317)
(-0.0372597 0.209663 5.24593e-317)
(0.00274254 0.113568 4.00988e-317)
(-0.000620076 0.114311 2.85759e-317)
(0.0186559 0.0374507 1.77742e-317)
(0.00675781 0.0487068 7.42252e-318)
(0.00328336 -0.03769 -2.75252e-318)
(-0.0158097 -0.0235155 -1.30435e-317)
(-0.0525643 -0.153491 -2.36316e-317)
(-0.0612032 -0.150556 -3.45555e-317)
(-0.155327 -0.368244 -4.51408e-317)
(-0.0966358 -0.410336 -5.48064e-317)
(-0.29266 -0.756919 -5.71905e-317)
(-0.0261483 -0.927659 -5.66427e-317)
(-0.342425 -1.38377 -2.19236e-317)
(-0.172659 1.09702 2.56768e-316)
(0.0108351 0.676613 1.80113e-316)
(-0.116366 0.618026 1.42815e-316)
(-0.00195462 0.352304 1.09073e-316)
(-0.0192807 0.333149 8.68135e-317)
(0.0501813 0.180041 6.81061e-317)
(0.0591494 0.175779 5.28076e-317)
(0.101875 0.0827724 3.95338e-317)
(0.103698 0.0911449 2.77779e-317)
(0.125594 0.020539 1.70445e-317)
(0.110113 0.0395626 6.9485e-318)
(0.109071 -0.0402045 -2.89305e-318)
(0.0761522 -0.0122325 -1.28899e-317)
(0.0396479 -0.139304 -2.35418e-317)
(0.00452587 -0.105398 -3.54147e-317)
(-0.0971242 -0.338359 -5.03181e-317)
(-0.0709697 -0.310774 -6.87808e-317)
(-0.293502 -0.730162 -1.01686e-316)
(-0.0265563 -0.787427 -1.40531e-316)
(-0.389189 -1.41247 -2.37511e-316)
(-0.0478532 1.21173 6.26775e-317)
(0.0928194 0.698318 1.0883e-316)
(0.0583708 0.649483 1.04383e-316)
(0.139122 0.332658 9.66218e-317)
(0.159471 0.325298 8.10588e-317)
(0.211738 0.158398 6.57246e-317)
(0.235649 0.165191 5.1281e-317)
(0.2727 0.0748669 3.83922e-317)
(0.28001 0.0945963 2.68481e-317)
(0.306282 0.0319932 1.64181e-317)
(0.291926 0.0638949 6.70173e-318)
(0.307249 -0.00800633 -2.59983e-318)
(0.270354 0.0367397 -1.17794e-317)
(0.267156 -0.0911686 -2.10322e-317)
(0.215094 -0.0338452 -3.0351e-317)
(0.169496 -0.301328 -3.91864e-317)
(0.146966 -0.243622 -4.66861e-317)
(-0.00824288 -0.786335 -4.71195e-317)
(0.142677 -0.84057 -4.32386e-317)
(-0.23523 -1.71276 -3.33205e-318)
(0.0234011 1.0712 2.64203e-316)
(0.108562 0.595561 1.87962e-316)
(0.15714 0.582849 1.47422e-316)
(0.220128 0.271971 1.11266e-316)
(0.285789 0.276129 8.69178e-317)
(0.333855 0.119086 6.69439e-317)
(0.378268 0.128577 5.09662e-317)
(0.414411 0.0480574 3.7533e-317)
(0.428016 0.0671737 2.6015e-317)
(0.456335 0.0134229 1.57879e-317)
(0.439051 0.043491 6.44394e-318)
(0.460397 -0.0186373 -2.39269e-318)
(0.408709 0.026086 -1.10997e-317)
(0.415348 -0.0894663 -1.9999e-317)
(0.324739 -0.0210078 -2.93886e-317)
(0.290642 -0.278351 -4.05931e-317)
(0.188784 -0.166214 -5.35068e-317)
(0.0436098 -0.723794 -7.8181e-317)
(0.0907097 -0.614308 -1.05549e-316)
(-0.258084 -1.49532 -1.89694e-316)
(0.239859 1.11215 1.10219e-316)
(0.174329 0.595144 1.43546e-316)
(0.375557 0.56461 1.245e-316)
(0.377497 0.234632 1.06004e-316)
(0.484643 0.239897 8.45113e-317)
(0.506611 0.0879788 6.58713e-317)
(0.560609 0.105163 4.99682e-317)
(0.586539 0.0370297 3.66181e-317)
(0.60223 0.0643485 2.52046e-317)
(0.632459 0.0242526 1.5242e-317)
(0.616812 0.0631535 6.23603e-318)
(0.654684 0.0164688 -2.16346e-318)
(0.604113 0.0736009 -1.02477e-317)
(0.651932 -0.025837 -1.81129e-317)
(0.552117 0.0623909 -2.55961e-317)
(0.608942 -0.196878 -3.20344e-317)
(0.4485 -0.0570915 -3.59184e-317)
(0.490499 -0.707558 -3.10351e-317)
(0.299342 -0.609948 -1.83773e-317)
(0.197667 -1.81811 4.24744e-317)
(0.354503 0.80028 2.9792e-316)
(0.223772 0.503537 1.97429e-316)
(0.532172 0.444856 1.49358e-316)
(0.523761 0.194074 1.08407e-316)
(0.681232 0.186096 8.25494e-317)
(0.69947 0.0641471 6.21987e-317)
(0.770334 0.0731373 4.65895e-317)
(0.792039 0.0187444 3.38823e-317)
(0.811659 0.0375272 2.32453e-317)
(0.840987 0.00566771 1.40412e-317)
(0.824594 0.0333765 5.77182e-318)
(0.867237 -0.0041638 -1.89478e-318)
(0.808717 0.0368297 -9.21884e-318)
(0.866961 -0.0445875 -1.64209e-317)
(0.733732 0.0209237 -2.34896e-317)
(0.80253 -0.196313 -3.11806e-317)
(0.537644 -0.0713967 -3.87572e-317)
(0.57575 -0.615621 -5.40121e-317)
(0.19501 -0.411085 -6.86979e-317)
(0.00804467 -1.18012 -1.27442e-316)
(0.387893 0.732578 2.76375e-316)
(0.269271 0.476085 2.2617e-316)
(0.69126 0.367457 1.69695e-316)
(0.662353 0.135287 1.26913e-316)
(0.837295 0.124282 9.45284e-317)
(0.833479 0.0278502 7.00616e-317)
(0.900669 0.044135 5.14152e-317)
(0.912541 0.00889901 3.67569e-317)
(0.928456 0.0330339 2.48212e-317)
(0.960017 0.0163104 1.47108e-317)
(0.943829 0.0484635 5.75806e-318)
(1.003 0.0292819 -2.46504e-318)
(0.949817 0.0779375 -1.03119e-317)
(1.05077 0.0269998 -1.77773e-317)
(0.923955 0.109299 -2.46012e-317)
(1.09771 -0.0648963 -2.97291e-317)
(0.795127 0.0945609 -3.08676e-317)
(1.11923 -0.479032 -1.98452e-317)
(0.405719 -0.234848 3.91964e-318)
(0.96284 -1.65383 9.60901e-317)
(0.974091 0.407921 2.07356e-316)
(0.532088 0.32034 1.02676e-316)
(0.963072 0.20552 7.88649e-317)
(0.923724 0.100848 5.61657e-317)
(1.08287 0.078866 4.43678e-317)
(1.07996 0.021686 3.43311e-317)
(1.13972 0.0234555 2.65044e-317)
(1.14197 0.000530811 1.97265e-317)
(1.15763 0.0099793 1.38459e-317)
(1.1737 -0.0016637 8.59877e-318)
(1.16555 0.012153 3.81586e-318)
(1.20284 -0.00182939 -6.31154e-319)
(1.16636 0.0171354 -4.78175e-318)
(1.23076 -0.0182261 -8.71302e-318)
(1.12743 0.00731156 -1.23663e-317)
(1.22739 -0.103055 -1.62689e-317)
(0.952802 -0.0635065 -2.03224e-317)
(1.08096 -0.367383 -3.08173e-317)
(0.500886 -0.298226 -4.47706e-317)
(0.213582 -0.392095 -9.77583e-317)
(-0.205128 -0.128994 8.1211e-316)
(0.684783 0.470786 5.07424e-316)
(1.25232 0.13688 3.45622e-316)
(1.3052 0.0626275 2.36317e-316)
(1.54302 0.0317567 1.68435e-316)
(1.50041 -0.00737743 1.21003e-316)
(1.56133 0.00689085 8.69151e-317)
(1.55211 -0.00295426 6.09767e-317)
(1.55366 0.0146364 4.03885e-317)
(1.59832 0.0118722 2.3159e-317)
(1.57456 0.0333176 7.95468e-318)
(1.68849 0.0308956 -6.15612e-318)
(1.63637 0.0650161 -1.98769e-317)
(1.85307 0.0531338 -3.33961e-317)
(1.71694 0.114662 -4.62815e-317)
(2.10032 0.0402934 -5.67854e-317)
(1.62756 0.179161 -6.03585e-317)
(2.349 -0.209754 -4.51261e-317)
(0.595098 0.257277 -1.80177e-318)
(2.32792 -1.17949 1.38879e-316)
)
;

boundaryField
{
    cavity
    {
        type            myImplicitVelocity;
    }
    lid
    {
        type            fixedValue;
        value           uniform (1 0 0);
    }
    frontAndBack
    {
        type            empty;
    }
}


// ************************************************************************* //
