/*--------------------------------*- C++ -*----------------------------------*\
| =========                 |                                                 |
| \\      /  F ield         | OpenFOAM: The Open Source CFD Toolbox           |
|  \\    /   O peration     | Version:  2.2.0                                 |
|   \\  /    A nd           | Web:      www.OpenFOAM.org                      |
|    \\/     M anipulation  |                                                 |
\*---------------------------------------------------------------------------*/
FoamFile
{
    version     2.0;
    format      ascii;
    class       volVectorField;
    location    "2";
    object      s;
}
// * * * * * * * * * * * * * * * * * * * * * * * * * * * * * * * * * * * * * //

dimensions      [0 1 -1 0 0 0 0];

internalField   nonuniform List<vector> 
7920
(
(0.454268 0.398454 0.108305)
(0.424324 0.372282 0.170462)
(0.39343 0.345247 0.236208)
(0.359606 0.315632 0.304516)
(0.323704 0.284264 0.373804)
(0.285844 0.251466 0.441851)
(0.246101 0.217909 0.50543)
(0.20195 0.183092 0.559325)
(0.487262 0.325712 0.149788)
(0.454898 0.304276 0.210213)
(0.42157 0.282158 0.274108)
(0.385016 0.257877 0.34054)
(0.346151 0.232153 0.408126)
(0.305094 0.205341 0.475068)
(0.261894 0.178153 0.539098)
(0.21602 0.151815 0.597519)
(0.50316 0.248344 0.214838)
(0.46967 0.232176 0.271221)
(0.435296 0.215546 0.330843)
(0.397525 0.19725 0.392909)
(0.357355 0.177888 0.456281)
(0.31497 0.157812 0.51957)
(0.270632 0.137749 0.581193)
(0.22493 0.119372 0.63961)
(0.503252 0.171065 0.307318)
(0.470278 0.160262 0.35543)
(0.436535 0.149173 0.406478)
(0.399265 0.136885 0.459902)
(0.359507 0.123829 0.514889)
(0.317464 0.110262 0.570485)
(0.273579 0.096743 0.625668)
(0.228848 0.0845538 0.679576)
(0.493164 0.0982812 0.412686)
(0.461979 0.0923886 0.448929)
(0.430111 0.0863373 0.487954)
(0.39458 0.0795474 0.529536)
(0.356417 0.072271 0.573263)
(0.315804 0.064656 0.618634)
(0.273291 0.0570473 0.665105)
(0.230008 0.0501994 0.712272)
(0.483307 0.0317496 0.487976)
(0.453786 0.029935 0.514619)
(0.423612 0.0280678 0.544078)
(0.389661 0.0259469 0.576402)
(0.352941 0.0236537 0.611483)
(0.313608 0.0212346 0.649131)
(0.272249 0.0188045 0.689094)
(0.230023 0.0166078 0.731203)
(0.483273 -0.0317434 0.487983)
(0.453755 -0.029923 0.514624)
(0.423584 -0.0280508 0.544082)
(0.389637 -0.0259263 0.576407)
(0.35292 -0.0236314 0.611489)
(0.31359 -0.0212133 0.649137)
(0.272235 -0.018787 0.689101)
(0.230013 -0.0165964 0.731209)
(0.493076 -0.0982605 0.412701)
(0.461895 -0.092364 0.448942)
(0.430036 -0.0863104 0.487967)
(0.394513 -0.0795192 0.52955)
(0.356358 -0.0722432 0.573281)
(0.315755 -0.0646309 0.618654)
(0.273251 -0.0570277 0.665126)
(0.229979 -0.0501875 0.712291)
(0.503134 -0.171023 0.307334)
(0.470163 -0.160219 0.355447)
(0.43643 -0.149131 0.406496)
(0.399171 -0.136845 0.459923)
(0.359424 -0.123792 0.514915)
(0.317393 -0.110231 0.570515)
(0.273521 -0.0967211 0.625698)
(0.228805 -0.0845428 0.679601)
(0.503041 -0.248286 0.21485)
(0.469551 -0.23212 0.271235)
(0.435185 -0.215495 0.330859)
(0.397423 -0.197205 0.392929)
(0.357264 -0.17785 0.456306)
(0.314891 -0.157783 0.519597)
(0.270568 -0.137731 0.58122)
(0.224882 -0.119367 0.639633)
(0.487173 -0.325657 0.149797)
(0.454806 -0.304227 0.210224)
(0.421482 -0.282119 0.274123)
(0.384934 -0.257848 0.340559)
(0.346077 -0.232134 0.408148)
(0.305029 -0.205331 0.475092)
(0.261839 -0.178154 0.539122)
(0.215974 -0.151824 0.597541)
(0.454212 -0.398414 0.108311)
(0.424262 -0.372251 0.17047)
(0.393367 -0.345227 0.236219)
(0.359544 -0.315622 0.30453)
(0.323644 -0.284263 0.37382)
(0.28579 -0.251475 0.441868)
(0.246054 -0.217926 0.505449)
(0.201908 -0.183117 0.559345)
(0.1981 0.173639 0.0245444)
(0.199835 0.175001 0.0455887)
(0.201234 0.176095 0.069814)
(0.201405 0.176185 0.0973161)
(0.200053 0.175102 0.127997)
(0.196588 0.172522 0.161308)
(0.190227 0.168224 0.195868)
(0.179537 0.162184 0.228587)
(0.224989 0.15043 0.0351846)
(0.225967 0.151347 0.0569551)
(0.226441 0.152051 0.0819432)
(0.225431 0.151966 0.110276)
(0.2226 0.151008 0.14195)
(0.217308 0.149014 0.176652)
(0.208749 0.145983 0.213604)
(0.196155 0.142541 0.251329)
(0.251637 0.124248 0.0535003)
(0.25142 0.124545 0.0756993)
(0.250546 0.124678 0.101114)
(0.248004 0.124232 0.129912)
(0.243472 0.123184 0.162187)
(0.236341 0.121474 0.197846)
(0.225916 0.11921 0.236552)
(0.211771 0.117078 0.277692)
(0.278635 0.094709 0.0808694)
(0.276613 0.0943682 0.102338)
(0.273801 0.0939096 0.126935)
(0.269215 0.0930684 0.154876)
(0.262582 0.0918592 0.186359)
(0.253366 0.0902813 0.221476)
(0.241013 0.0884665 0.260222)
(0.225303 0.0869584 0.302538)
(0.303386 0.0604136 0.112789)
(0.299167 0.0597797 0.132227)
(0.294077 0.0590793 0.154683)
(0.287191 0.0581747 0.180443)
(0.278304 0.0570931 0.20982)
(0.266963 0.0558554 0.243083)
(0.252743 0.0545659 0.28048)
(0.23554 0.053563 0.32234)
(0.319139 0.0209316 0.135794)
(0.313285 0.0206052 0.153273)
(0.30653 0.0202588 0.17371)
(0.298004 0.0198522 0.197453)
(0.287551 0.0193988 0.2249)
(0.274775 0.01891 0.256436)
(0.259327 0.0184254 0.292463)
(0.241151 0.0180592 0.333512)
(0.319213 -0.0209507 0.135797)
(0.31336 -0.0206487 0.153276)
(0.306599 -0.0203254 0.173713)
(0.298069 -0.0199395 0.197455)
(0.287609 -0.0195034 0.224903)
(0.274827 -0.0190276 0.25644)
(0.259371 -0.0185512 0.292467)
(0.241187 -0.0181868 0.333514)
(0.303571 -0.0604604 0.112797)
(0.299356 -0.059845 0.132234)
(0.294254 -0.0591598 0.15469)
(0.287358 -0.0582691 0.180452)
(0.278457 -0.057199 0.209831)
(0.267101 -0.0559698 0.243094)
(0.252863 -0.0546852 0.28049)
(0.235639 -0.0536823 0.322348)
(0.278852 -0.0947865 0.0808793)
(0.276839 -0.0944566 0.102348)
(0.274019 -0.0940031 0.126947)
(0.269424 -0.093167 0.154889)
(0.262779 -0.0919617 0.186374)
(0.253547 -0.0903865 0.221492)
(0.241173 -0.0885726 0.260235)
(0.225439 -0.0870625 0.302547)
(0.251824 -0.124339 0.0535103)
(0.251623 -0.124642 0.0757108)
(0.250747 -0.124772 0.101128)
(0.248204 -0.124325 0.129927)
(0.243666 -0.123275 0.162204)
(0.236524 -0.121564 0.197862)
(0.226082 -0.119298 0.236564)
(0.211917 -0.117162 0.277699)
(0.225137 -0.150523 0.0351905)
(0.226132 -0.151442 0.0569625)
(0.226609 -0.15214 0.0819519)
(0.225602 -0.15205 0.110286)
(0.222771 -0.151087 0.14196)
(0.217473 -0.149087 0.176661)
(0.208904 -0.14605 0.213609)
(0.196294 -0.142605 0.251331)
(0.198179 -0.173699 0.0245462)
(0.199931 -0.175061 0.0455913)
(0.201338 -0.176147 0.0698172)
(0.201518 -0.176231 0.0973199)
(0.200172 -0.175143 0.128001)
(0.196711 -0.17256 0.161311)
(0.190348 -0.16826 0.195868)
(0.179653 -0.162219 0.228584)
(0.0983389 0.0861744 0.00266077)
(0.100037 0.0875334 0.0117966)
(0.101841 0.0889915 0.0224717)
(0.103481 0.0903375 0.0348467)
(0.104818 0.0914993 0.0490296)
(0.105574 0.0923438 0.0649723)
(0.105302 0.0927396 0.0822791)
(0.103327 0.0927808 0.0997448)
(0.112139 0.0750122 0.0029633)
(0.113625 0.0762106 0.0126579)
(0.115145 0.0775106 0.0239925)
(0.116388 0.0787499 0.0371678)
(0.117184 0.0798962 0.0523684)
(0.117219 0.0808894 0.069705)
(0.116036 0.0817142 0.0891423)
(0.11316 0.0826611 0.110393)
(0.12596 0.0622507 0.00398358)
(0.127107 0.0631393 0.0143795)
(0.128221 0.0641159 0.0265411)
(0.128965 0.0650627 0.0407112)
(0.129166 0.0659724 0.057146)
(0.128513 0.066826 0.0760855)
(0.12659 0.0676551 0.0977358)
(0.123008 0.0687164 0.122266)
(0.139898 0.0476086 0.00540316)
(0.140469 0.0480947 0.0164454)
(0.140942 0.0486446 0.0293601)
(0.140974 0.0491826 0.0444209)
(0.140405 0.049717 0.0619347)
(0.13895 0.0502525 0.0822278)
(0.136247 0.0508371 0.105656)
(0.131979 0.0516709 0.13265)
(0.152481 0.0304056 0.00661483)
(0.152285 0.0305555 0.0181722)
(0.15194 0.0307437 0.0316698)
(0.151113 0.0309305 0.0473995)
(0.149666 0.0311288 0.065699)
(0.147346 0.0313511 0.0869475)
(0.143845 0.0316389 0.111592)
(0.138898 0.0321209 0.140221)
(0.160367 0.0105359 0.00719674)
(0.159573 0.0105474 0.0190664)
(0.158607 0.0105719 0.0329044)
(0.157144 0.0105974 0.0490101)
(0.155066 0.0106301 0.0677351)
(0.152144 0.0106762 0.0894838)
(0.148103 0.0107519 0.114748)
(0.142706 0.0109024 0.144192)
(0.16038 -0.0105369 0.00718558)
(0.159584 -0.0105496 0.0190547)
(0.158617 -0.0105754 0.0328923)
(0.157154 -0.0106023 0.0489981)
(0.155075 -0.0106365 0.0677236)
(0.152153 -0.0106843 0.089473)
(0.14811 -0.010762 0.114738)
(0.142712 -0.0109137 0.144183)
(0.152518 -0.0304136 0.00658798)
(0.152317 -0.0305644 0.0181434)
(0.151971 -0.0307538 0.0316396)
(0.151142 -0.0309415 0.047369)
(0.149693 -0.0311405 0.0656691)
(0.147371 -0.0313636 0.0869188)
(0.143867 -0.031652 0.111565)
(0.138917 -0.0321339 0.140195)
(0.139954 -0.0476283 0.00537357)
(0.14052 -0.0481145 0.0164123)
(0.14099 -0.0486647 0.029324)
(0.14102 -0.0492023 0.0443832)
(0.140448 -0.0497358 0.0618966)
(0.138989 -0.0502702 0.0821899)
(0.136281 -0.0508535 0.105619)
(0.132008 -0.0516854 0.132614)
(0.126021 -0.0622813 0.00396029)
(0.127166 -0.0631689 0.0143516)
(0.128278 -0.0641441 0.0265091)
(0.12902 -0.0650886 0.0406762)
(0.129218 -0.0659955 0.057109)
(0.128561 -0.066846 0.0760471)
(0.126633 -0.0676719 0.0976965)
(0.123045 -0.0687298 0.122227)
(0.112201 -0.0750523 0.00294767)
(0.113686 -0.0762478 0.0126376)
(0.115206 -0.0775446 0.0239676)
(0.116447 -0.0787796 0.0371391)
(0.11724 -0.0799207 0.0523365)
(0.117271 -0.0809081 0.0696705)
(0.116082 -0.0817271 0.0891059)
(0.113199 -0.0826695 0.110356)
(0.0983662 -0.0861946 0.00265136)
(0.100066 -0.0875487 0.0117829)
(0.101872 -0.0890022 0.0224538)
(0.103514 -0.0903435 0.034825)
(0.104853 -0.091501 0.0490044)
(0.105608 -0.0923418 0.0649441)
(0.105334 -0.0927347 0.0822484)
(0.103358 -0.0927748 0.0997122)
(0.0478568 0.0419402 -0.00698332)
(0.048857 0.0427606 -0.00321706)
(0.0499521 0.043668 0.00123758)
(0.0510485 0.0445927 0.00648206)
(0.0520897 0.0455107 0.0126089)
(0.0529616 0.0463768 0.0196651)
(0.0534637 0.0471446 0.0275746)
(0.0532946 0.0478933 0.0359484)
(0.054562 0.0365163 -0.011485)
(0.0554811 0.0372708 -0.00737918)
(0.0564647 0.0381137 -0.00249022)
(0.0574003 0.0389932 0.00331841)
(0.0582173 0.0399028 0.0101949)
(0.0587836 0.040828 0.0182834)
(0.058893 0.0417715 0.0277015)
(0.0583092 0.0428673 0.0385091)
(0.0612387 0.0302894 -0.0185693)
(0.0620373 0.0308932 -0.0138253)
(0.0628746 0.0315754 -0.00815988)
(0.0636262 0.0322992 -0.00140304)
(0.0642182 0.0330671 0.00663985)
(0.0645185 0.033879 0.0161829)
(0.0643354 0.0347538 0.0274591)
(0.0634562 0.0357958 0.0407308)
(0.0678293 0.0231069 -0.0291795)
(0.0684165 0.0234989 -0.0233553)
(0.0690193 0.023951 -0.0164595)
(0.0695088 0.02444 -0.00830621)
(0.0698155 0.0249734 0.00131837)
(0.0698159 0.0255585 0.0126563)
(0.0693382 0.026219 0.0259882)
(0.0681946 0.0270347 0.0416632)
(0.0736178 0.0146978 -0.0419709)
(0.0739155 0.0148859 -0.0346553)
(0.074212 0.0151116 -0.0261529)
(0.074379 0.015363 -0.0162869)
(0.0743556 0.0156478 -0.00485424)
(0.0740299 0.0159743 0.00837963)
(0.0732496 0.0163617 0.0236984)
(0.0718472 0.0168625 0.0414796)
(0.0771631 0.00507721 -0.051475)
(0.0772332 0.00512811 -0.0429406)
(0.0772948 0.00519201 -0.0331674)
(0.0772215 0.00526523 -0.0219968)
(0.0769593 0.00535098 -0.00924513)
(0.0764053 0.00545274 0.00530455)
(0.0754193 0.00557796 0.021926)
(0.073846 0.00574524 0.0410018)
(0.0771534 -0.00507355 -0.0514756)
(0.0772228 -0.0051193 -0.0429412)
(0.0772852 -0.00517794 -0.0331681)
(0.0772125 -0.00524587 -0.0219976)
(0.0769512 -0.00532663 -0.00924615)
(0.0763981 -0.00542412 0.0053033)
(0.075413 -0.00554594 0.0219245)
(0.0738407 -0.00571031 0.0410001)
(0.073597 -0.0146917 -0.0419727)
(0.0738925 -0.0148757 -0.0346573)
(0.0741901 -0.0150977 -0.0261552)
(0.0743583 -0.015345 -0.0162897)
(0.0743364 -0.0156256 -0.00485757)
(0.0740125 -0.0159483 0.00837567)
(0.0732339 -0.0163324 0.0236939)
(0.0718337 -0.0168302 0.0414748)
(0.0678121 -0.0231002 -0.0291821)
(0.0683954 -0.0234892 -0.0233585)
(0.0689984 -0.023939 -0.0164633)
(0.0694879 -0.024425 -0.00831072)
(0.0697952 -0.0249549 0.00131311)
(0.0697965 -0.0255366 0.0126504)
(0.0693198 -0.0261938 0.0259817)
(0.0681781 -0.0270065 0.0416566)
(0.0612316 -0.0302858 -0.0185718)
(0.0620261 -0.0308868 -0.0138285)
(0.0628625 -0.0315671 -0.00816381)
(0.063613 -0.0322881 -0.00140766)
(0.0642043 -0.0330528 0.00663461)
(0.0645039 -0.0338612 0.0161772)
(0.0643201 -0.0347326 0.0274529)
(0.063441 -0.0357713 0.0407244)
(0.0545667 -0.0365192 -0.0114868)
(0.0554818 -0.0372703 -0.00738175)
(0.0564639 -0.0381109 -0.00249347)
(0.0573975 -0.038987 0.0033146)
(0.0582122 -0.0398924 0.0101906)
(0.0587757 -0.0408128 0.0182788)
(0.058882 -0.0417517 0.0276966)
(0.0582962 -0.0428437 0.0385041)
(0.0478461 -0.0419296 -0.00698421)
(0.0488446 -0.042746 -0.0032185)
(0.0499395 -0.0436507 0.00123565)
(0.0510354 -0.0445723 0.00647977)
(0.0520764 -0.0454873 0.0126064)
(0.0529478 -0.0463509 0.0196624)
(0.053449 -0.0471167 0.0275715)
(0.0532799 -0.0478648 0.035945)
(0.0212727 0.0186454 -0.0114363)
(0.0217818 0.0190723 -0.0101681)
(0.0223468 0.0195509 -0.00861579)
(0.0229304 0.020054 -0.00671806)
(0.0235101 0.0205734 -0.00440701)
(0.0240391 0.0210927 -0.00161857)
(0.0244319 0.0215949 0.00168358)
(0.0245562 0.0221182 0.00545163)
(0.024248 0.016235 -0.0181934)
(0.024727 0.016632 -0.0167153)
(0.0252497 0.0170808 -0.0148678)
(0.0257703 0.0175619 -0.0125592)
(0.0262603 0.0180743 -0.00967946)
(0.0266647 0.0186142 -0.0061023)
(0.0268952 0.0191847 -0.00168858)
(0.0268411 0.0198389 0.00371139)
(0.0272077 0.0134653 -0.0290704)
(0.0276433 0.0137908 -0.0270215)
(0.0281129 0.0141625 -0.0244693)
(0.0285656 0.0145663 -0.0212948)
(0.0289708 0.0150049 -0.0173573)
(0.0292734 0.0154798 -0.0124932)
(0.0293901 0.0159997 -0.00651437)
(0.0292179 0.0166039 0.000801269)
(0.0300928 0.010259 -0.0452279)
(0.0304499 0.0104819 -0.0419424)
(0.030833 0.0107406 -0.0379938)
(0.0311885 0.0110263 -0.0332569)
(0.0314878 0.0113432 -0.0275889)
(0.0316786 0.0116955 -0.020829)
(0.0316851 0.0120933 -0.0127932)
(0.0314137 0.0125674 -0.003259)
(0.0325837 0.00651091 -0.0643648)
(0.0328312 0.00662901 -0.059188)
(0.033099 0.00676976 -0.0532196)
(0.0333334 0.00692859 -0.0463573)
(0.0335088 0.00710937 -0.0384896)
(0.0335776 0.0073162 -0.0294929)
(0.0334709 0.00755732 -0.019223)
(0.0331037 0.00785323 -0.00749199)
(0.0340862 0.00224524 -0.0783804)
(0.034247 0.00228131 -0.0716075)
(0.0344262 0.00232528 -0.0639843)
(0.03457 0.00237573 -0.0554387)
(0.0346556 0.00243417 -0.0458943)
(0.0346387 0.00250223 -0.0352654)
(0.034455 0.00258303 -0.0234437)
(0.0340248 0.00268403 -0.0102711)
(0.0340772 -0.00224216 -0.0783788)
(0.0342378 -0.00227366 -0.0716057)
(0.0344175 -0.00231279 -0.0639824)
(0.0345618 -0.00235814 -0.0554368)
(0.0346481 -0.00241148 -0.0458927)
(0.0346318 -0.0024747 -0.0352641)
(0.0344488 -0.0025511 -0.0234427)
(0.0340194 -0.00264793 -0.0102703)
(0.0325624 -0.0065048 -0.0643612)
(0.0328089 -0.00661916 -0.0591839)
(0.0330777 -0.00675614 -0.0532152)
(0.0333131 -0.00691077 -0.0463532)
(0.0334897 -0.00708718 -0.0384861)
(0.0335599 -0.00728971 -0.0294903)
(0.0334546 -0.00752675 -0.0192209)
(0.0330893 -0.00781877 -0.00749)
(0.0300697 -0.0102501 -0.0452242)
(0.0304248 -0.0104702 -0.0419382)
(0.0308083 -0.0107263 -0.0379894)
(0.0311643 -0.0110087 -0.0332527)
(0.0314643 -0.0113221 -0.0275854)
(0.0316561 -0.0116707 -0.0208261)
(0.0316637 -0.012065 -0.0127904)
(0.0313941 -0.0125356 -0.0032558)
(0.0271892 -0.0134557 -0.0290676)
(0.0276224 -0.0137788 -0.0270182)
(0.0280918 -0.0141486 -0.0244656)
(0.028544 -0.0145499 -0.0212911)
(0.0289491 -0.0149855 -0.0173536)
(0.0292517 -0.0154573 -0.0124893)
(0.0293686 -0.015974 -0.00651007)
(0.0291971 -0.016575 0.000806216)
(0.0242373 -0.0162276 -0.0181916)
(0.0247137 -0.0166221 -0.0167129)
(0.0252353 -0.0170692 -0.0148649)
(0.0257548 -0.0175477 -0.0125558)
(0.0262435 -0.018057 -0.00967549)
(0.0266464 -0.0185935 -0.00609765)
(0.0268755 -0.0191604 -0.00168316)
(0.0268206 -0.0198115 0.00371748)
(0.0212534 -0.0186279 -0.011435)
(0.0217611 -0.0190524 -0.0101661)
(0.0223258 -0.0195294 -0.00861318)
(0.0229091 -0.0200305 -0.00671471)
(0.0234886 -0.020548 -0.00440282)
(0.0240174 -0.0210656 -0.00161352)
(0.02441 -0.0215663 0.0016894)
(0.0245346 -0.0220889 0.00545794)
(0.00858104 0.00752241 -0.0135604)
(0.0088152 0.0077225 -0.0134965)
(0.00907723 0.00794857 -0.0133456)
(0.00935193 0.00818965 -0.013068)
(0.00963072 0.00844294 -0.0126117)
(0.00989514 0.00870236 -0.0119104)
(0.0101111 0.00896148 -0.0108825)
(0.0102237 0.00923484 -0.0094217)
(0.00979111 0.00655794 -0.0213747)
(0.0100151 0.00674401 -0.0211662)
(0.0102623 0.00695581 -0.0207916)
(0.0105142 0.00718553 -0.0201842)
(0.0107596 0.00743336 -0.0192574)
(0.010977 0.00769814 -0.0179016)
(0.0111305 0.00798112 -0.0159792)
(0.0111725 0.00830092 -0.0133151)
(0.011002 0.00544773 -0.0340026)
(0.0112109 0.00560155 -0.0332633)
(0.0114396 0.00577817 -0.032229)
(0.0116674 0.00597204 -0.0308101)
(0.0118823 0.00618455 -0.0288977)
(0.0120622 0.00641659 -0.0263621)
(0.0121733 0.00667144 -0.0230505)
(0.01217 0.00696251 -0.0187803)
(0.012176 0.00415344 -0.0526651)
(0.0123565 0.00426128 -0.0506313)
(0.0125541 0.00438683 -0.048142)
(0.0127469 0.00452655 -0.0451064)
(0.0129235 0.00468242 -0.0414229)
(0.0130629 0.00485625 -0.0369795)
(0.0131336 0.00505198 -0.0316532)
(0.0130937 0.00528039 -0.0253031)
(0.0131784 0.00263514 -0.0746058)
(0.0133187 0.0026948 -0.0705184)
(0.0134743 0.00276571 -0.0658441)
(0.0136229 0.002846 -0.0605213)
(0.0137544 0.00293738 -0.0544894)
(0.0138494 0.00304158 -0.0476882)
(0.0138787 0.00316176 -0.0400544)
(0.0138039 0.00330547 -0.0315117)
(0.013776 0.000908238 -0.0905846)
(0.0138845 0.000927414 -0.0847474)
(0.0140078 0.000950536 -0.078263)
(0.0141234 0.000977025 -0.0711053)
(0.0142223 0.00100753 -0.0632561)
(0.014286 0.0010427 -0.0547021)
(0.0142873 0.00108376 -0.0454283)
(0.0141896 0.0011335 -0.0354045)
(0.0137701 -0.000906344 -0.0905836)
(0.0138786 -0.000922659 -0.084746)
(0.0140023 -0.000942686 -0.0782613)
(0.0141182 -0.000965844 -0.0711036)
(0.0142175 -0.000992895 -0.0632547)
(0.0142816 -0.00102465 -0.0547011)
(0.0142833 -0.00106241 -0.0454275)
(0.0141861 -0.00110887 -0.0354037)
(0.0131639 -0.00263104 -0.0746032)
(0.0133039 -0.00268831 -0.0705152)
(0.0134601 -0.00275671 -0.0658404)
(0.0136095 -0.00283418 -0.0605178)
(0.0137418 -0.00292256 -0.0544867)
(0.0138376 -0.00302369 -0.0476863)
(0.0138679 -0.00314085 -0.0400528)
(0.0137941 -0.00328152 -0.0315099)
(0.0121587 -0.00414678 -0.0526624)
(0.0123385 -0.00425274 -0.0506278)
(0.0125365 -0.00437645 -0.0481382)
(0.0127298 -0.00451398 -0.045103)
(0.012907 -0.00466741 -0.0414202)
(0.0130472 -0.00483868 -0.0369774)
(0.0131187 -0.0050318 -0.031651)
(0.0130801 -0.00525762 -0.0252999)
(0.010986 -0.00543939 -0.0340003)
(0.0111939 -0.00559169 -0.0332605)
(0.0114227 -0.00576697 -0.0322258)
(0.0116505 -0.00595911 -0.0308069)
(0.0118656 -0.00616965 -0.0288947)
(0.0120458 -0.00639956 -0.0263589)
(0.0121573 -0.00665221 -0.0230465)
(0.0121548 -0.00694106 -0.0187752)
(0.00977876 -0.00654944 -0.0213731)
(0.0100015 -0.00673409 -0.0211641)
(0.0102483 -0.00694475 -0.020789)
(0.0104998 -0.00717294 -0.0201812)
(0.0107449 -0.00741889 -0.0192539)
(0.0109617 -0.00768153 -0.0178974)
(0.0111148 -0.0079623 -0.0159739)
(0.0111567 -0.00828005 -0.0133087)
(0.00856383 -0.007507 -0.0135592)
(0.00879744 -0.00770589 -0.0134948)
(0.00905944 -0.00793107 -0.0133433)
(0.00933416 -0.00817111 -0.013065)
(0.00961308 -0.00842337 -0.012608)
(0.00987769 -0.0086818 -0.0119058)
(0.0100938 -0.00894008 -0.0108769)
(0.010207 -0.00921288 -0.00941542)
(0.0030991 0.00271726 -0.014522)
(0.00319671 0.00280205 -0.0150103)
(0.00330659 0.00289838 -0.015502)
(0.00342292 0.00300202 -0.0159685)
(0.00354263 0.00311207 -0.0163656)
(0.00365901 0.00322635 -0.0166274)
(0.0037595 0.00334245 -0.0166533)
(0.00382325 0.00346489 -0.0162692)
(0.00354317 0.0023741 -0.0228016)
(0.00363793 0.00245267 -0.023175)
(0.00374339 0.00254252 -0.0234765)
(0.0038525 0.00264068 -0.0236516)
(0.0039613 0.00274736 -0.0236257)
(0.00406184 0.00286218 -0.0232985)
(0.00414095 0.00298549 -0.0225359)
(0.0041799 0.00312295 -0.0211553)
(0.00399227 0.00197784 -0.0361856)
(0.00408235 0.00204301 -0.0360486)
(0.0041821 0.00211812 -0.0357141)
(0.00428355 0.00220105 -0.0351069)
(0.00438242 0.00229241 -0.0341344)
(0.00447058 0.00239255 -0.0326844)
(0.00453531 0.00250256 -0.0306234)
(0.00455856 0.00262645 -0.0277914)
(0.004427 0.00151106 -0.055904)
(0.00450768 0.00155742 -0.0544532)
(0.00459724 0.0016115 -0.0526456)
(0.00468718 0.00167193 -0.0504069)
(0.0047734 0.00173951 -0.0476561)
(0.00484808 0.00181491 -0.044306)
(0.00489922 0.00189948 -0.0402645)
(0.00490997 0.00199668 -0.035432)
(0.0047952 0.000959521 -0.0789998)
(0.00486231 0.000985906 -0.0754349)
(0.00493779 0.0010172 -0.0713813)
(0.00501293 0.00105266 -0.066797)
(0.00508405 0.00109295 -0.0616464)
(0.00514381 0.00113873 -0.0559)
(0.00518098 0.00119109 -0.0495345)
(0.00517987 0.00125257 -0.0425285)
(0.00501232 0.000330785 -0.0957748)
(0.00506876 0.000339568 -0.0904023)
(0.00513344 0.000350085 -0.0844804)
(0.00519754 0.000362103 -0.0780052)
(0.00525773 0.000375869 -0.0709863)
(0.00530705 0.000391623 -0.0634451)
(0.00533478 0.000409792 -0.0554118)
(0.00532599 0.000431338 -0.0469181)
(0.00500885 -0.000329759 -0.0957744)
(0.00506534 -0.000337 -0.0904015)
(0.00513021 -0.000345831 -0.0844793)
(0.00519453 -0.000356012 -0.0780042)
(0.00525494 -0.000367844 -0.0709855)
(0.0053045 -0.000381637 -0.0634447)
(0.00533246 -0.000397853 -0.0554116)
(0.00532393 -0.000417406 -0.0469179)
(0.0047863 -0.000957093 -0.0789988)
(0.00485346 -0.000982178 -0.0754332)
(0.00492937 -0.00101208 -0.071379)
(0.00500497 -0.00104597 -0.066795)
(0.00507661 -0.00108457 -0.0616453)
(0.00513691 -0.00112859 -0.0558998)
(0.00517464 -0.00117918 -0.0495345)
(0.00517418 -0.00123883 -0.0425281)
(0.00441581 -0.0015068 -0.0559029)
(0.00449636 -0.00155214 -0.0544515)
(0.00458626 -0.00160519 -0.0526435)
(0.00467659 -0.00166439 -0.0504054)
(0.0047633 -0.0017306 -0.0476556)
(0.00483853 -0.00180455 -0.0443063)
(0.00489027 -0.00188762 -0.0402644)
(0.00490179 -0.00198328 -0.0354308)
(0.00398113 -0.00197206 -0.0361846)
(0.00407092 -0.00203643 -0.0360472)
(0.00417083 -0.00211079 -0.0357126)
(0.00427248 -0.00219278 -0.0351058)
(0.00437164 -0.00228307 -0.0341337)
(0.00446016 -0.00238205 -0.0326837)
(0.00452531 -0.00249083 -0.0306219)
(0.00454915 -0.00261345 -0.0277884)
(0.00353359 -0.00236753 -0.0228009)
(0.00362789 -0.0024454 -0.0231741)
(0.00373329 -0.00253466 -0.0234753)
(0.00384236 -0.00263205 -0.0236503)
(0.00395113 -0.00273778 -0.0236242)
(0.00405164 -0.00285151 -0.0232966)
(0.00413077 -0.00297368 -0.022533)
(0.00416995 -0.00311003 -0.0211512)
(0.0030873 -0.00270675 -0.0145215)
(0.00318475 -0.00279102 -0.0150094)
(0.0032947 -0.00288693 -0.0155009)
(0.00341115 -0.0029901 -0.0159671)
(0.00353109 -0.00309968 -0.0163637)
(0.00364773 -0.0032135 -0.0166249)
(0.00374855 -0.00332919 -0.01665)
(0.00381277 -0.00345132 -0.0162652)
(0.000987995 0.00086647 -0.0149249)
(0.00102438 0.000898571 -0.0156484)
(0.00106554 0.0009352 -0.0164142)
(0.00110945 0.000974879 -0.0171983)
(0.00115513 0.00101734 -0.0179602)
(0.00120036 0.00106186 -0.0186347)
(0.001241 0.00110759 -0.0191133)
(0.00126991 0.00115566 -0.0191939)
(0.00113271 0.000759337 -0.0233923)
(0.00116851 0.000788955 -0.0240136)
(0.00120865 0.000822953 -0.0246034)
(0.00125067 0.000860298 -0.0251128)
(0.00129331 0.000901099 -0.0254727)
(0.00133396 0.000945243 -0.0255874)
(0.00136826 0.000992786 -0.0253249)
(0.00138967 0.00104519 -0.0245004)
(0.00128109 0.00063508 -0.0370752)
(0.00131568 0.000659694 -0.0371955)
(0.00135434 0.000688155 -0.0371607)
(0.0013943 0.00071971 -0.036902)
(0.00143418 0.000754599 -0.0363341)
(0.0014713 0.000792946 -0.0353531)
(0.00150138 0.000835052 -0.0338345)
(0.00151805 0.000881962 -0.0316291)
(0.0014248 0.000486689 -0.0572007)
(0.00145667 0.000504411 -0.0560021)
(0.0014924 0.000525114 -0.0544899)
(0.00152905 0.000548307 -0.0525975)
(0.00156527 0.000574281 -0.050253)
(0.00159846 0.000603267 -0.0473804)
(0.00162452 0.000635671 -0.0439015)
(0.00163744 0.000672478 -0.0397354)
(0.0015457 0.000309565 -0.0807313)
(0.00157349 0.000319879 -0.0773986)
(0.00160505 0.00033209 -0.0736205)
(0.00163729 0.000345928 -0.0693642)
(0.00166904 0.00036163 -0.0646046)
(0.0016978 0.00037941 -0.0593262)
(0.00171968 0.000399617 -0.0535232)
(0.00172903 0.000423011 -0.0471981)
(0.00161615 0.000106795 -0.0978013)
(0.00164075 0.000110337 -0.0926413)
(0.0016691 0.000114556 -0.0869757)
(0.00169807 0.000119363 -0.08081)
(0.00172658 0.000124846 -0.0741658)
(0.00175224 0.00013108 -0.06708)
(0.00177132 0.000138202 -0.0596022)
(0.00177838 0.000146508 -0.0517912)
(0.00161427 -0.00010629 -0.0978012)
(0.00163891 -0.000109088 -0.0926409)
(0.00166737 -0.000112489 -0.0869749)
(0.00169647 -0.000116402 -0.0808093)
(0.0017251 -0.000120934 -0.0741654)
(0.00175089 -0.000126193 -0.0670799)
(0.0017701 -0.000132327 -0.0596023)
(0.0017773 -0.000139617 -0.0517913)
(0.00154077 -0.000308263 -0.0807311)
(0.00156866 -0.000317951 -0.0773977)
(0.00160047 -0.000329484 -0.0736191)
(0.00163299 -0.00034256 -0.0693632)
(0.00166503 -0.000357435 -0.0646046)
(0.0016941 -0.000374348 -0.0593271)
(0.00171631 -0.000393663 -0.0535243)
(0.00172602 -0.000416135 -0.0471987)
(0.00141839 -0.000484277 -0.0572005)
(0.00145029 -0.000501517 -0.0560013)
(0.00148626 -0.00052172 -0.054489)
(0.00152317 -0.000544326 -0.0525973)
(0.00155971 -0.000569645 -0.050254)
(0.00159325 -0.000597929 -0.0473822)
(0.00161969 -0.000629598 -0.043903)
(0.00163306 -0.000665641 -0.0397356)
(0.00127446 -0.000631658 -0.0370751)
(0.00130901 -0.000655912 -0.0371951)
(0.00134782 -0.000684026 -0.0371604)
(0.00138796 -0.00071515 -0.0369022)
(0.00142808 -0.000749548 -0.036335)
(0.00146547 -0.000787354 -0.0353542)
(0.00149586 -0.000828883 -0.0338348)
(0.00151292 -0.000875183 -0.0316278)
(0.00112673 -0.000755254 -0.0233923)
(0.0011624 -0.000784578 -0.0240134)
(0.00120257 -0.000818325 -0.0246032)
(0.00124464 -0.000855338 -0.0251128)
(0.00128737 -0.000895733 -0.0254728)
(0.00132812 -0.000939405 -0.0255871)
(0.00136255 -0.000986447 -0.0253238)
(0.0013842 -0.00103835 -0.0244981)
(0.000981276 -0.000860508 -0.0149248)
(0.00101763 -0.000892413 -0.0156481)
(0.00105885 -0.000928885 -0.0164139)
(0.00110286 -0.000968383 -0.0171979)
(0.0011487 -0.00101066 -0.0179597)
(0.00119412 -0.001055 -0.0186337)
(0.001235 -0.00110057 -0.0191117)
(0.00126422 -0.00114849 -0.0191916)
(0.000258307 0.000226609 -0.015075)
(0.000269579 0.000236707 -0.0158879)
(0.000282382 0.00024827 -0.0167582)
(0.00029613 0.000260867 -0.0176634)
(0.000310563 0.000274435 -0.0185647)
(0.000325074 0.00028877 -0.019397)
(0.000338515 0.000303618 -0.0200493)
(0.000348857 0.000319159 -0.0203088)
(0.000297091 0.00019929 -0.0236095)
(0.000308331 0.000208578 -0.024325)
(0.000321003 0.000219271 -0.0250247)
(0.000334406 0.00023107 -0.0256617)
(0.000348208 0.00024402 -0.0261693)
(0.000361695 0.00025809 -0.0264535)
(0.000373665 0.000273279 -0.0263835)
(0.000382241 0.000289879 -0.0257739)
(0.000337479 0.000167444 -0.0373969)
(0.000348502 0.000175188 -0.0376155)
(0.000360912 0.000184162 -0.0376953)
(0.000373912 0.000194148 -0.0375703)
(0.000387139 0.000205224 -0.037158)
(0.000399858 0.000217425 -0.036358)
(0.000410876 0.000230824 -0.0350493)
(0.000418344 0.000245631 -0.0330871)
(0.000376634 0.000128785 -0.0576612)
(0.000387033 0.000134432 -0.0565601)
(0.000398788 0.000141033 -0.0551624)
(0.000411043 0.000148443 -0.0534044)
(0.000423446 0.000156753 -0.0512178)
(0.000435273 0.000166026 -0.0485312)
(0.000445367 0.000176368 -0.0452719)
(0.00045196 0.00018801 -0.0413664)
(0.000409308 8.20791e-05 -0.0813369)
(0.00041872 8.54434e-05 -0.078096)
(0.00042948 8.94173e-05 -0.0744269)
(0.000440692 9.39193e-05 -0.0703002)
(0.000452035 9.90199e-05 -0.0656952)
(0.000462817 0.000104779 -0.0606016)
(0.000471925 0.000111288 -0.0550205)
(0.000477676 0.000118738 -0.0489638)
(0.000428008 2.83446e-05 -0.0985037)
(0.000436647 2.95514e-05 -0.0934298)
(0.000446646 3.09787e-05 -0.0878676)
(0.000457084 3.25998e-05 -0.0818264)
(0.000467665 3.4439e-05 -0.0753324)
(0.000477723 3.65172e-05 -0.0684283)
(0.000486175 3.88691e-05 -0.0611715)
(0.0004914 4.15715e-05 -0.0536312)
(0.000427049 -2.81089e-05 -0.0985037)
(0.000435721 -2.89747e-05 -0.0934296)
(0.000445777 -3.00278e-05 -0.0878671)
(0.000456275 -3.12405e-05 -0.0818258)
(0.000466921 -3.26448e-05 -0.0753322)
(0.000477047 -3.42723e-05 -0.0684285)
(0.000485568 -3.61641e-05 -0.0611719)
(0.000490867 -3.83934e-05 -0.0536316)
(0.000406773 -8.14268e-05 -0.0813371)
(0.000416256 -8.4506e-05 -0.0780955)
(0.000427148 -8.81704e-05 -0.074426)
(0.000438503 -9.23269e-05 -0.0702997)
(0.000450004 -9.70523e-05 -0.0656957)
(0.000460955 -0.000102415 -0.060603)
(0.000470237 -0.000108513 -0.0550221)
(0.00047618 -0.000115538 -0.048965)
(0.000373267 -0.000127532 -0.0576615)
(0.00038372 -0.000132966 -0.0565599)
(0.00039561 -0.000139343 -0.055162)
(0.000408016 -0.000146495 -0.0534048)
(0.000420595 -0.000154514 -0.0512195)
(0.000432618 -0.000163475 -0.0485339)
(0.000442926 -0.000173486 -0.0452743)
(0.000449764 -0.000184781 -0.0413674)
(0.000333935 -0.000165625 -0.0373972)
(0.000344976 -0.000173218 -0.0376156)
(0.000357481 -0.000182045 -0.0376956)
(0.000370595 -0.00019185 -0.0375712)
(0.000383964 -0.000202719 -0.0371597)
(0.000396848 -0.00021469 -0.03636)
(0.000408057 -0.000227838 -0.0350506)
(0.000415752 -0.000242378 -0.0330868)
(0.000293812 -0.00019706 -0.0236098)
(0.000305022 -0.000206234 -0.0243252)
(0.000317732 -0.000216829 -0.025025)
(0.00033119 -0.0002285 -0.0256624)
(0.000345065 -0.000241292 -0.0261701)
(0.000358644 -0.000255179 -0.0264541)
(0.000370732 -0.00027017 -0.0263833)
(0.000379472 -0.000286565 -0.0257725)
(0.000254902 -0.000223598 -0.0150751)
(0.000266169 -0.000233629 -0.015888)
(0.000279008 -0.000245139 -0.0167583)
(0.000292811 -0.000257674 -0.0176636)
(0.000307324 -0.000271177 -0.0185649)
(0.000321939 -0.000285445 -0.0193969)
(0.000335511 -0.000300228 -0.0200487)
(0.000346018 -0.000315708 -0.0203075)
(-1.29443e-05 -1.13295e-05 -0.0151134)
(-1.25707e-05 -1.09525e-05 -0.0159501)
(-1.21836e-05 -1.05588e-05 -0.0168482)
(-1.17105e-05 -1.00856e-05 -0.0177858)
(-1.11455e-05 -9.53218e-06 -0.0187245)
(-1.04736e-05 -8.89568e-06 -0.0195992)
(-9.67879e-06 -8.1878e-06 -0.0202985)
(-8.76785e-06 -7.48883e-06 -0.0206065)