/*--------------------------------*- C++ -*----------------------------------*\
| =========                 |                                                 |
| \\      /  F ield         | foam-extend: Open Source CFD                    |
|  \\    /   O peration     | Version:  3.0                                   |
|   \\  /    A nd           | Web:         http://www.extend-project.de       |
|    \\/     M anipulation  |                                                 |
\*---------------------------------------------------------------------------*/
FoamFile
{
    version     2.0;
    format      ascii;
    class       volScalarField;
    location    "35";
    object      p;
}
// * * * * * * * * * * * * * * * * * * * * * * * * * * * * * * * * * * * * * //

dimensions      [0 0 0 0 0 0 0];

internalField   nonuniform List<scalar> 
2688
(
-0.2348095542
-0.2155187949
-0.2040543725
-0.1908758394
-0.1837212357
-0.1744090553
-0.1700072688
-0.1633106429
-0.160737403
-0.1558808366
-0.1545338906
-0.1509912149
-0.150439561
-0.1478212884
-0.147723436
-0.1457135973
-0.1457688066
-0.1440851579
-0.1440007393
-0.1423662199
-0.1418325218
-0.1399516959
-0.1386201068
-0.1361565417
-0.2340606674
-0.2148296786
-0.203398986
-0.1902605882
-0.1831272171
-0.1738436604
-0.169454528
-0.1627782584
-0.1602119751
-0.15536993
-0.1540262154
-0.1504940122
-0.1499431498
-0.1473325806
-0.1472341047
-0.145230196
-0.1452843491
-0.1436057471
-0.1435208518
-0.1418913579
-0.1413588654
-0.1394840197
-0.1381567704
-0.135701325
-0.2325561427
-0.2134472181
-0.2020891493
-0.1890344243
-0.1819461697
-0.1727215424
-0.1683599762
-0.1617259793
-0.1591756762
-0.1543642076
-0.1530288161
-0.1495188531
-0.1489714519
-0.1463772475
-0.1462794921
-0.1442880585
-0.1443420039
-0.1426737893
-0.1425895177
-0.1409700932
-0.1404409245
-0.1385778592
-0.1372589202
-0.1348202065
-0.2303366563
-0.2114081928
-0.2001567998
-0.1872247312
-0.1802027813
-0.1710646052
-0.1667435539
-0.1601715176
-0.1576445684
-0.1528778676
-0.1515542643
-0.1480768512
-0.1475337086
-0.1449635292
-0.1448657567
-0.1428927942
-0.1429453331
-0.1412926407
-0.1412083864
-0.1396040703
-0.1390793794
-0.1372337667
-0.1359272833
-0.1335116954
-0.2273765561
-0.208689941
-0.1975820885
-0.1848153999
-0.1778828606
-0.1688614168
-0.1645952273
-0.1581070641
-0.1556121049
-0.15090617
-0.1495993148
-0.1461661615
-0.145629975
-0.1430924261
-0.1429960781
-0.1410480732
-0.1411001946
-0.1394683024
-0.1393853229
-0.1378010403
-0.1372829952
-0.1354603403
-0.1341699629
-0.1317853483
-0.2237161626
-0.205328256
-0.1943975719
-0.1818344569
-0.1750121927
-0.1661343314
-0.1619357026
-0.1555505823
-0.1530947759
-0.1484634061
-0.1471766005
-0.1437977398
-0.1432691999
-0.1407717633
-0.1406760286
-0.1387588826
-0.1388093475
-0.1372034107
-0.1371211373
-0.1355621088
-0.1350520068
-0.1332583181
-0.1319885123
-0.1296417787
-0.219337544
-0.2013081206
-0.1905902487
-0.178272129
-0.1715825171
-0.1628777004
-0.1587605736
-0.1524998451
-0.1500916448
-0.1455504364
-0.1442885985
-0.1409754373
-0.1404572787
-0.1380083165
-0.1379147225
-0.1360347265
-0.136084645
-0.1345098212
-0.1344296785
-0.1329008628
-0.1324011116
-0.1306419737
-0.1293966306
-0.127094187
-0.2142824071
-0.1966663037
-0.1861937696
-0.1741575798
-0.1676207765
-0.1591148938
-0.1550914918
-0.148973614
-0.1466198542
-0.1421820903
-0.1409482992
-0.1377105116
-0.1372032746
-0.1348100231
-0.1347176363
-0.1328805092
-0.1329285025
-0.1313898009
-0.1313110111
-0.1298175678
-0.1293291022
-0.1276107888
-0.1263937862
-0.1241436132
-0.2085401772
-0.191394637
-0.1812015747
-0.169486912
-0.163124381
-0.1548456591
-0.150929402
-0.1449748503
-0.1426837291
-0.1383643646
-0.1371634562
-0.1340119528
-0.1335183891
-0.1311888044
-0.1310992063
-0.1293108885
-0.1293581113
-0.1278603891
-0.1277844468
-0.1263311707
-0.1258568659
-0.124185195
-0.1230023634
-0.1208115815
-0.2021539722
-0.1855312101
-0.1756485379
-0.1642906235
-0.15812149
-0.1500945721
-0.1462970055
-0.1405233358
-0.1383012413
-0.1341129195
-0.1329476807
-0.1298916926
-0.1294121468
-0.127153141
-0.1270652345
-0.1253311389
-0.1253759847
-0.1239238222
-0.1238494981
-0.1224407935
-0.1219806268
-0.1203607431
-0.1192140873
-0.1170906784
-0.195120222
-0.1790741735
-0.169534129
-0.1585702378
-0.152614819
-0.1448663088
-0.1412001956
-0.1356267162
-0.1334815189
-0.1294383299
-0.1283134869
-0.1253632662
-0.1249005059
-0.122719516
-0.1226349368
-0.1209605416
-0.1210041507
-0.1196018312
-0.1195303695
-0.1181700161
-0.1177260389
-0.1161619187
-0.1150552331
-0.1130043378
-0.1874833662
-0.1720629811
-0.1628944673
-0.152357649
-0.1466337748
-0.139186777
-0.1356628157
-0.1303059863
-0.1282435224
-0.1243573407
-0.1232753323
-0.1204395779
-0.1199937453
-0.1178973028
-0.1178148412
-0.1162052469
-0.1162459168
-0.1148976778
-0.11482769
-0.1135195701
-0.1130915437
-0.1115875728
-0.1105228578
-0.1085525912
-0.1792464307
-0.1645016686
-0.1557346259
-0.1456593854
-0.1401859813
-0.1330651328
-0.1296952844
-0.1245729858
-0.1226007201
-0.1188845826
-0.117849991
-0.1151381789
-0.1147120604
-0.1127070437
-0.1126284493
-0.1110887314
-0.1111277572
-0.1098375389
-0.109770382
-0.1085178535
-0.1081077286
-0.1066673115
-0.1056477677
-0.1037628938
-0.1704550795
-0.1564309823
-0.1480919336
-0.1385087051
-0.1333020755
-0.1265286509
-0.1233226226
-0.1184500189
-0.1165731525
-0.113038022
-0.1120529077
-0.1094731022
-0.1090666619
-0.1071591735
-0.1070832218
-0.1056182348
-0.1056540417
-0.1044260525
-0.1043606054
-0.1031678071
-0.1027757396
-0.1014036225
-0.1004316582
-0.09863886398
-0.1611184281
-0.1478603852
-0.1399765984
-0.1309167126
-0.1259941543
-0.1195905217
-0.1165593237
-0.1119526433
-0.11017814
-0.1068358405
-0.1059045782
-0.1034653802
-0.1030813907
-0.1012777143
-0.101206295
-0.09982077208
-0.09985496272
-0.09869306542
-0.09863118779
-0.09750172373
-0.09713031159
-0.0958303461
-0.09490964195
-0.09321301975
-0.1512832541
-0.1388317968
-0.1314270797
-0.12291794
-0.1182940274
-0.1122793485
-0.1094315757
-0.1051044854
-0.10343685
-0.1002972774
-0.09942153171
-0.09713024378
-0.09676849927
-0.09507421021
-0.0950061056
-0.09370460458
-0.09373577456
-0.09264418245
-0.09258511142
-0.09152354235
-0.09117347281
-0.08995105254
-0.08908445945
-0.08748951692
-0.140964191
-0.1293596041
-0.1224582126
-0.1145276127
-0.1102177926
-0.1046119028
-0.1019574646
-0.09792434572
-0.09636992876
-0.09344355277
-0.09262739479
-0.09049163439
-0.09015480251
-0.08857549028
-0.08851263316
-0.0872994307
-0.08732937458
-0.08631172328
-0.08625768766
-0.08526764603
-0.08494205048
-0.08380113965
-0.08299279267
-0.08150239996
-0.1302089885
-0.1194867467
-0.1131094692
-0.1057814067
-0.1017983446
-0.0966180297
-0.09416431295
-0.09043714203
-0.08899971283
-0.08629520628
-0.08553989384
-0.08356605792
-0.08325373983
-0.08179429188
-0.08173537771
-0.08061450687
-0.08064174494
-0.07970187863
-0.07965198167
-0.07873785923
-0.0784371889
-0.07738328235
-0.07663567609
-0.07525584925
-0.1190371834
-0.1092319928
-0.1033997739
-0.09669818438
-0.09305527635
-0.08831761009
-0.0860732777
-0.08266442307
-0.08134960164
-0.07887595474
-0.07818514818
-0.07637975893
-0.0760943965
-0.07475956807
-0.07470639192
-0.07368144146
-0.07370764106
-0.07284854181
-0.07280485039
-0.07196954947
-0.07169679626
-0.0707329724
-0.07005032958
-0.06878269023
-0.1074973046
-0.09863910867
-0.09336945254
-0.0873145994
-0.08402245254
-0.07974161339
-0.07771277416
-0.07463235146
-0.07344315424
-0.07120768213
-0.07058223846
-0.06895066366
-0.06869165505
-0.06748549341
-0.06743657659
-0.06651079805
-0.06653413425
-0.06575878781
-0.06571967499
-0.06496656947
-0.06472094286
-0.0638519378
-0.06323524949
-0.0620884727
-0.09561316417
-0.0877306793
-0.08304096083
-0.07765264504
-0.07472242623
-0.07091253222
-0.06910646971
-0.06636469627
-0.06530590745
-0.06331601988
-0.0627591001
-0.06130668269
-0.06107615515
-0.06000248822
-0.0599593625
-0.05913551412
-0.05915730518
-0.05846778228
-0.05843477879
-0.05776557663
-0.0575494616
-0.05677677845
-0.05623016696
-0.05520386585
-0.08343382075
-0.07655105822
-0.0724552747
-0.06774975105
-0.06518989045
-0.06186231912
-0.06028381769
-0.0578888107
-0.05696269807
-0.05522425549
-0.05473635368
-0.05346736503
-0.0532645748
-0.05232655619
-0.05228764421
-0.05156811809
-0.05158625942
-0.05098449195
-0.05095522382
-0.05037179962
-0.05018288777
-0.04950974178
-0.04903185627
-0.04813797184
-0.0709867244
-0.06512607251
-0.06163781424
-0.05763051904
-0.05544980294
-0.05261555692
-0.05127040766
-0.04923012302
-0.04844055144
-0.04695931145
-0.04654303568
-0.04546160361
-0.04528834376
-0.04448888319
-0.04445547819
-0.04384228508
-0.04385783906
-0.04334520506
-0.04332086471
-0.04282416619
-0.04266456353
-0.04209137376
-0.04168666723
-0.0409221112
-0.05832115643
-0.05350037355
-0.05062995562
-0.04733291696
-0.04553750948
-0.04320501416
-0.04209664944
-0.04041710411
-0.03976561149
-0.03854592143
-0.03820146587
-0.037310756
-0.03716626842
-0.03650768513
-0.03647835826
-0.03597319382
-0.03598423456
-0.03556190815
-0.03554011314
-0.0351308612
-0.03499754252
-0.0345257819
-0.03419040152
-0.03356636925
-0.04546758134
-0.04170246193
-0.03945951951
-0.03688362849
-0.03547981327
-0.03365683004
-0.03278945753
-0.03147626014
-0.03096572907
-0.0300116443
-0.02974103539
-0.02904395395
-0.02892972022
-0.02841407159
-0.02838999049
-0.02799432231
-0.02800193338
-0.02767107576
-0.02765321652
-0.0273325738
-0.02722821612
-0.02685890508
-0.0265987034
-0.02611261413
-0.03247512868
-0.02977694212
-0.02816798131
-0.02632087959
-0.025312494
-0.0240043874
-0.02338007293
-0.02243707004
-0.02206832969
-0.02138265011
-0.02118584043
-0.02068445701
-0.02059982419
-0.02022867942
-0.02020880947
-0.01992388147
-0.01992682498
-0.01968846783
-0.01967314556
-0.01944197992
-0.01936454017
-0.01909866841
-0.01890950758
-0.01856515576
-0.01937668013
-0.01775444041
-0.01678501815
-0.01567292266
-0.01506365634
-0.0142748545
-0.01389615236
-0.01332654016
-0.01310143997
-0.01268647558
-0.01256487975
-0.01226085956
-0.01220699166
-0.01198156549
-0.01196696771
-0.01179374057
-0.01179313304
-0.01164825423
-0.0116368788
-0.01149660587
-0.01144828001
-0.01128797307
-0.01117372415
-0.01097178547
-0.006220775135
-0.00567911132
-0.005351846684
-0.004977912398
-0.004769241694
-0.004501980911
-0.004369585224
-0.00417499612
-0.004093670397
-0.003950648384
-0.003904004866
-0.003798310037
-0.003774699779
-0.00369581179
-0.003685910042
-0.00362521108
-0.003620660629
-0.003570346304
-0.00356311045
-0.003515488747
-0.003497788375
-0.003445607982
-0.003410303013
-0.00335099441
0.006957842656
0.006416803696
0.006100506305
0.005734812817
0.005541851216
0.005286533319
0.005171771422
0.004990600056
0.004927379153
0.004797936958
0.004768871154
0.004675867394
0.004668440259
0.0046005065
0.004604894766
0.004552826929
0.004560505643
0.004516066624
0.00451860407
0.004473534769
0.004461308208
0.004405583953
0.004366292753
0.0042823785
0.0201117356
0.0184900674
0.01753150433
0.01642755503
0.01583385398
0.01505687599
0.0146956308
0.01413929891
0.01393208587
0.01353054198
0.01342624551
0.01313472033
0.01309665523
0.01288191852
0.01288105024
0.01271606744
0.01272683181
0.01258726033
0.01258444245
0.0124460407
0.01240196813
0.01223832432
0.01212032158
0.01190001571
0.03320479131
0.03050727895
0.02890922246
0.02707032257
0.02607752411
0.02478125938
0.02417441114
0.023244664
0.02289379762
0.02222145196
0.02204187313
0.02155279961
0.02148377977
0.02112297858
0.02111641116
0.02083912775
0.02085262514
0.02061861294
0.02061060027
0.02037994636
0.02030564086
0.02003526969
0.01984317763
0.01948221947
0.04619126084
0.0424266539
0.04019429434
0.03762632292
0.03623767066
0.03442617814
0.03357575575
0.03227541595
0.0317821344
0.03084093734
0.03058678399
0.02990149367
0.02980185933
0.0292959047
0.02928370566
0.02889479454
0.02891086043
0.02858305486
0.02856943865
0.02824750996
0.02814221159
0.02776740343
0.02750001912
0.02700676407
0.0590340778
0.05421401733
0.05135427716
0.04806527668
0.04628508242
0.04396412741
0.04287274627
0.04120603689
0.04057180495
0.03936488786
0.0390368404
0.03815767662
0.03802761063
0.03737829067
0.03736042147
0.03686133057
0.03688003143
0.03645977587
0.03644116001
0.03602941071
0.03589483319
0.03541684897
0.03507745335
0.0344489521
0.07168984875
0.06582964371
0.06235153563
0.05835181259
0.05618562508
0.05336235094
0.05203336739
0.05000529364
0.04923202189
0.04776289428
0.04736189424
0.04629132039
0.04613112426
0.04534021304
0.04531658239
0.04470872934
0.04472979239
0.04421852436
0.04419466748
0.0436950443
0.04353121821
0.0429531477
0.04254242092
0.04178449677
0.08412087629
0.07723888655
0.0731534059
0.06845564875
0.06591040497
0.06259390824
0.06103164993
0.05864887475
0.05773914539
0.0560127491
0.05554020645
0.05428192252
0.05409226498
0.05316257459
0.05313348543
0.05241907895
0.05244281011
0.05184236362
0.05181394226
0.05122804032
0.05103629841
0.05035943864
0.04987931949
0.04899192613
0.09628686472
0.08840475354
0.08372461436
0.07834341886
0.07542689918
0.07162731057
0.06983641936
0.06710606021
0.06606243612
0.06408378451
0.06354086893
0.06209841741
0.06187956064
0.0608136544
0.06077884004
0.05995989524
0.05998583241
0.05929810361
0.05926480982
0.05859487294
0.05837552843
0.05760297327
0.05705517465
0.05604311001
0.1081497067
0.09929233866
0.09403248175
0.08798503475
0.08470672104
0.08043636539
0.07842283081
0.07535391884
0.07418006833
0.07195586383
0.07134469095
0.06972309034
0.06947615695
0.06827783418
0.06823787819
0.06731732913
0.06734591669
0.06657323906
0.06653573069
0.06578365794
0.06553783182
0.06467116197
0.06405728682
0.06292204789
0.1196730186
0.109868119
0.1040447905
0.09734978158
0.09371958549
0.0889914447
0.0867611375
0.08336280372
0.08206191368
0.07959859741
0.07892055437
0.07712435945
0.07684956931
0.07552211028
0.07547656208
0.07445692307
0.07448746809
0.07363204118
0.073589784
0.07275787703
0.07248558266
0.07152766685
0.07084871567
0.06959489885
0.1308184028
0.1200970498
0.1137289587
0.1064078709
0.1024377034
0.09726718552
0.09482768069
0.09111121984
0.08968799351
0.08699395321
0.0862518254
0.08428732044
0.08398622223
0.08253438353
0.08248409067
0.0813690352
0.08140214828
0.08046693921
0.08042076025
0.0795116414
0.07921446979
0.07816796573
0.07742704656
0.07605745964
0.1415542522
0.1299498608
0.123056571
0.1151319384
0.1108337162
0.1052364819
0.1025948085
0.0985712417
0.09702945548
0.09411246813
0.09330784857
0.09118052865
0.09085330329
0.08928102543
0.08922537056
0.0880178827
0.08805268445
0.08704025081
0.08698951138
0.08600583209
0.08568385808
0.08455218936
0.08375058402
0.08227100614
0.1518419064
0.139391404
0.1319951678
0.1234925139
0.1188804275
0.1128747822
0.1100399994
0.1057227483
0.1040680709
0.1009381097
0.1000744066
0.09779175197
0.0974403458
0.09575330079
0.09569338734
0.09439786452
0.09443514668
0.09334907879
0.09329477343
0.09223978058
0.09189478568
0.09068123808
0.08982222061
0.08823536609
0.1616554335
0.1483974743
0.140520916
0.1314663206
0.1265541418
0.1201582189
0.1171384316
0.112540262
0.1107770208
0.1074430935
0.1065220952
0.1040904639
0.1037150262
0.1019177593
0.1018528235
0.1004726879
0.1005114215
0.09935463923
0.09929609941
0.09817283423
0.09780513398
0.09651364008
0.09559918366
0.09391148439
0.1709558514
0.1569327801
0.1486014258
0.1390241465
0.1338281636
0.1270629418
0.1238685672
0.1190048603
0.1171396015
0.1136131417
0.112638818
0.1100667946
0.1096696287
0.1077686626
0.1077000394
0.1062403622
0.1062815028
0.1050581466
0.1049964986
0.1038086591
0.1034201165
0.1020543493
0.1010876518
0.0993024767
0.1797238083
0.1649789992
0.1562182378
0.1461475561
0.1406832247
0.1335690745
0.1302092012
0.1250943036
0.1231318635
0.1194229942
0.1183973199
0.1156920435
0.1152732779
0.1132737033
0.1132005022
0.111665098
0.1117074833
0.1104207849
0.110355323
0.1091062413
0.1086973424
0.1072615042
0.1062450281
0.1043686945
0.1879198832
0.1725005994
0.1633389186
0.1528074726
0.147092967
0.1396532791
0.1361395345
0.1307905894
0.128738286
0.1248597501
0.1237871795
0.1209582236
0.1205204617
0.1184295651
0.1183533081
0.1167478572
0.1167925654
0.1154471703
0.1153791052
0.1140729165
0.1136455669
0.1121437981
0.1110807369
0.1091177739
0.1955321799
0.1794859344
0.1699511576
0.1589910464
0.1530433165
0.1453004379
0.1416427929
0.1360755478
0.1339386837
0.1299015955
0.1287842839
0.1258394831
0.1253828487
0.1232062084
0.123125905
0.1214545749
0.1215003391
0.1200997592
0.1200283729
0.1186686574
0.118223528
0.1166602289
0.1155535177
0.1135100252
0.2025206808
0.1858990985
0.1760223248
0.16466917
0.1585080371
0.1504874754
0.1466985995
0.1409317349
0.1387182768
0.1345365138
0.1333793077
0.1303290874
0.1298564117
0.127601971
0.1275192734
0.1257882766
0.1258362544
0.1243856063
0.124312169
0.1229035417
0.1224425922
0.1208225146
0.1196754266
0.1175571931
0.2088817582
0.1917358562
0.1815469849
0.1698352855
0.1634789888
0.1552047847
0.151295424
0.145345896
0.14306157
0.1387471069
0.1375523403
0.1344051427
0.1339165667
0.131590334
0.1315041834
0.1297180084
0.1297668643
0.1282699387
0.1281937655
0.1267400984
0.1262642574
0.1245920775
0.1234081272
0.1212209666
0.214574638
0.1969597895
0.1864921456
0.1744600698
0.1679298153
0.1594292693
0.1554129492
0.1493007265
0.1469540113
0.1425216645
0.1412944708
0.1380614159
0.1375599149
0.1351703625
0.1350824727
0.1332477636
0.1332986828
0.1317610003
0.1316833956
0.1301897702
0.1297010655
0.1279822188
0.1267648072
0.1245159846
0.2196046645
0.2015747139
0.1908598901
0.1785438913
0.1718589895
0.163157536
0.1590456661
0.1527887112
0.1503857145
0.1458481845
0.1445910797
0.1412811283
0.140766886
0.1383203934
0.1382296664
0.1363511953
0.1364027888
0.1348284138
0.1347487253
0.1332193721
0.1327190095
0.1309586112
0.1297119674
0.1274069739
0.223930173
0.2055435804
0.1946167129
0.1820570358
0.1752397954
0.1663661777
0.1621729402
0.1557922413
0.1533418073
0.1487146366
0.1474329279
0.1440577212
0.1435337646
0.1410391859
0.1409473173
0.1390320259
0.1390854326
0.1374801529
0.137399647
0.1358399572
0.1353299626
0.1335339813
0.1322615623
0.1299091918
0.2275660402
0.2088787666
0.1977727401
0.185007325
0.1780778999
0.169058633
0.1647959856
0.1583103026
0.1558188809
0.1511153598
0.1498117545
0.1463806852
0.1458472759
0.1433113027
0.1432171871
0.1412700803
0.141323853
0.1396919517
0.1396099373
0.1380244639
0.1375062113
0.1356803054
0.1343871132
0.1319933256
0.2304696379
0.2115425261
0.2002938489
0.1873645176
0.1803460223
0.1712109227
0.1668934959
0.1603245531
0.1578012016
0.1530373752
0.1517172389
0.1482422873
0.1477024116
0.1451341248
0.1450393592
0.1430675292
0.1431226814
0.1414700416
0.1413876504
0.1397818317
0.1392571928
0.1374073958
0.1360966559
0.13367055
0.2326657456
0.213556142
0.2021985761
0.1891442743
0.18205747
0.17283381
0.1684739903
0.1618411313
0.1592926036
0.1544822161
0.1531484658
0.1496393759
0.1490934255
0.1464997798
0.1464033117
0.1444119451
0.144466994
0.142797999
0.1427144153
0.1410928396
0.1405630666
0.1386952438
0.137372197
0.1349216414
0.2341107972
0.2148811873
0.2034521544
0.1903157592
0.1831842593
0.1739025438
0.1695151977
0.1628405903
0.1602760057
0.1554353766
0.1540933244
0.1505622345
0.1500130722
0.1474032312
0.1473065039
0.1453027335
0.1453585525
0.1436791067
0.1435954
0.1419634904
0.141430592
0.1395505664
0.1382189437
0.1357519941
0.2348396236
0.2155479951
0.2040817116
0.190902682
0.183747612
0.1744355406
0.1700333599
0.1633367129
0.1607630902
0.1559062813
0.1545590778
0.1510160083
0.150464227
0.1478453789
0.1477474922
0.145736677
0.1457918412
0.1441063805
0.1440215687
0.142383722
0.1418481677
0.1399613337
0.1386241321
0.1361491713
0.2348078677
0.2155175824
0.2040519114
0.1908736423
0.1837188028
0.1744071754
0.1700050496
0.1633086776
0.1607350485
0.1558784251
0.1545312231
0.1509882939
0.1504365615
0.1478178231
0.1477200355
0.1457092812
0.1457645625
0.1440790695
0.1439943628
0.1423563347
0.1418209401
0.1399337696
0.138597075
0.1361219331
0.2340603068
0.2148292505
0.2033984362
0.1902604051
0.1831270369
0.173843645
0.1694544414
0.1627781944
0.1602117978
0.1553695981
0.1540258015
0.1504932328
0.1499424155
0.1473311867
0.1472328742
0.145227752
0.1452819779
0.1436010961
0.1435156903
0.1418821108
0.1413473458
0.1394656651
0.1381321615
0.1356665259
0.2325520915
0.2134437152
0.2020855834
0.1890311561
0.1819429351
0.1727184771
0.1683568995
0.1617229422
0.1591725799
0.154360988
0.1530254908
0.1495152081
0.1489677091
0.1463729223
0.1462751082
0.1442825818
0.1443363698
0.1426660246
0.1425811061
0.1409577892
0.1404265443
0.1385568155
0.1372324741
0.1347826227
0.2303375666
0.2114089199
0.2001573162
0.1872254957
0.1802035245
0.1710655454
0.1667444975
0.1601725909
0.1576456643
0.1528789434
0.151555406
0.1480777367
0.1475347458
0.1449639648
0.1448663901
0.1428922298
0.1429447893
0.1412898471
0.141204992
0.139596813
0.1390699445
0.1372181893
0.1359061432
0.1334816431
0.2273718493
0.2086856766
0.1975779101
0.1848114846
0.1778790071
0.1688577101
0.1645915101
0.1581033777
0.1556083255
0.1509022569
0.1495952219
0.1461617225
0.1456253058
0.1430871308
0.14299051
0.1410413895
0.1410930765
0.1394592031
0.1393753805
0.1377878688
0.1372679868
0.1354403062
0.1341458713
0.1317528864
0.2237181895
0.2053299901
0.1943990875
0.1818360995
0.1750138235
0.1661361679
0.1619376067
0.1555526827
0.1530969952
0.1484657021
0.1471790669
0.1438000587
0.1432717465
0.1407738233
0.1406782983
0.1387601106
0.1388105491
0.1372027211
0.1371198824
0.1355579347
0.1350461832
0.1332483364
0.1319748035
0.1296215437
0.2193322992
0.2013033141
0.190585594
0.1782677113
0.1715781518
0.1628734612
0.1587562839
0.1524955704
0.1500872042
0.1455458547
0.1442837316
0.1409702366
0.1404516945
0.1380021502
0.1379080542
0.136027049
0.1360762241
0.1344997127
0.134418445
0.1328871991
0.1323857336
0.130623509
0.1293755784
0.12706884
0.2142853929
0.196668884
0.1861961434
0.1741599743
0.1676231853
0.1591174966
0.1550942218
0.1489765829
0.1466230256
0.1421854258
0.1409519035
0.1377141058
0.1372071894
0.1348136476
0.134721522
0.1328836182
0.1329315613
0.1313913375
0.1313119346
0.1298161483
0.1293263242
0.1276050533
0.1263860473
0.124132818
0.2085345588
0.1913894789
0.181196585
0.1694821479
0.163119634
0.1548410215
0.1509246515
0.1449701045
0.1426787315
0.1383592449
0.1371579487
0.1340061913
0.1335121288
0.1311821289
0.1310918885
0.1293028164
0.1293490903
0.1278499626
0.1277725649
0.1263169799
0.1258404693
0.1241657073
0.1229798405
0.1207873768
0.2021577763
0.185534499
0.1756516228
0.1642936366
0.1581245401
0.1500977872
0.1463003997
0.1405269921
0.1383051793
0.1341171075
0.1329522492
0.1298964335
0.1294173625
0.1271583895
0.1270709465
0.1253365532
0.1253815734
0.123928424
0.1238536421
0.1224428172
0.1219811485
0.1203578154
0.1192083712
0.1170828231
0.1951144296
0.1790688551
0.1695289707
0.1585652955
0.152609848
0.1448614321
0.1411951372
0.1356216609
0.1334761274
0.1294328623
0.1283075522
0.125357227
0.1248939385
0.1227128639
0.1226277287
0.1209531722
0.1209960999
0.1195932486
0.1195208089
0.1181590938
0.1177135206
0.1161469319
0.1150377543
0.1129864779
0.1874878321
0.1720668386
0.1628981136
0.1523611465
0.1466373255
0.1391904551
0.1356667151
0.1303101547
0.1282480412
0.1243621862
0.1232806689
0.1204452971
0.1200001428
0.1179041869
0.1178225889
0.1162135447
0.1162551366
0.1149073062
0.1148381001
0.1135298237
0.1131020076
0.1115966993
0.1105309608
0.1085594463
0.1792406865
0.1644963905
0.155729489
0.1456544516
0.1401809758
0.133060209
0.1296901158
0.1245678224
0.1225951419
0.1188789781
0.1178438515
0.1151321026
0.1147054737
0.1127007938
0.1126218994
0.1110829337
0.1111220243
0.1098330414
0.1097664645
0.1085155761
0.1081064326
0.1066674154
0.1056486307
0.1037640324
0.1704600282
0.1564352525
0.1480959852
0.1385125488
0.1333059856
0.1265326498
0.1233268728
0.1184545264
0.1165780497
0.1130432859
0.1120587196
0.109479455
0.1090738268
0.1071672425
0.10709252
0.105629027
0.1056666458
0.1044409932
0.1043781585
0.1031887093
0.1027999754
0.101431387
0.100462545
0.09866972372
0.1611129575
0.1478553475
0.1399716821
0.1309119833
0.1259893239
0.119585765
0.1165542743
0.1119475984
0.110172606
0.1068303007
0.1058984088
0.1034593616
0.1030747929
0.1012717294
0.1012000943
0.09981605292
0.09985081349
0.09869183322
0.0986319066
0.09750742975
0.09713975177
0.09584621474
0.09493048991
0.0932361722
0.1512884876
0.1388363074
0.1314313732
0.1229219865
0.1182981565
0.1122835333
0.1094360305
0.1051091683
0.1034419204
0.1003026928
0.09942744951
0.09713671256
0.09677569398
0.09508242579
0.09501548482
0.09371588631
0.09374899793
0.0926608357
0.092605066
0.09154926539
0.09120437759
0.08998958853
0.08912971524
0.087538121
0.140959207
0.1293549962
0.1224537131
0.1145232848
0.1102133583
0.1046075444
0.1019527955
0.09791968253
0.09636472023
0.09343831954
0.09262140321
0.0904857401
0.09014808559
0.08856930879
0.0885058389
0.08729409692
0.08732407218
0.08630960425
0.08625703328
0.08527301299
0.08495135278
0.08381946834
0.08301825332
0.0815355068
0.1302142986
0.119491316
0.1131138388
0.1057855135
0.1018025605
0.09662228339
0.09416885455
0.0904418799
0.08900481215
0.08630058126
0.08554564415
0.08357221339
0.0832603093
0.08180160573
0.08174323682
0.08062380977
0.08065192694
0.07971485319
0.07966676309
0.07875779665
0.07846100695
0.07741523112
0.0766750902
0.07530476218
0.1190328741
0.1092279844
0.1033958741
0.09669444661
0.09305146139
0.0883138947
0.08606928457
0.0826604617
0.08134509756
0.07887141013
0.07817975464
0.07637433437
0.07608784705
0.07475320105
0.07469869109
0.07367446013
0.07369925501
0.07284201239
0.0727974261
0.07196618339
0.07169454916
0.07073850944
0.07006185561
0.06880932609
0.1075024803
0.09864355334
0.09337373536
0.08731862965
0.08402663531
0.07974584245
0.07771732756
0.07463709516
0.07344825811
0.07121300788
0.07058783965
0.06895649745
0.06869758772
0.06749174508
0.06744262736
0.06651738911
0.06654009256
0.06576582499
0.06572595069
0.06497519078
0.06473017579
0.0638665357
0.06325541255
0.06212360599
0.09560968186
0.08772741076
0.08303781743
0.07764966514
0.07471943916
0.07090970052
0.06910346335
0.06636180245
0.06530258482
0.06331272061
0.06275502872
0.06130255238
0.06107083536
0.05999709333
0.05995222263
0.05912836308
0.05914765214
0.0584583878
0.0584223285
0.05775428866
0.05753607923
0.05676788741
0.05622429416
0.0552177271
0.08343865355
0.07655519897
0.07245931112
0.06775357147
0.06519392651
0.0618664431
0.06028833626
0.05789356557
0.05696788565
0.05522970043
0.05474212991
0.0534733565
0.05327065466
0.05233279334
0.05229349379
0.05157402986
0.05159097872
0.05098920468
0.05095799531
0.05037484494
0.05018464759
0.04951398807
0.04903955371
0.04816051349
0.07098417377
0.0651236438
0.06163554217
0.0576284242
0.05544780874
0.05261380848
0.05126866098
0.04922863998
0.04843889043
0.04695787072
0.04654115471
0.04545988184
0.04528584493
0.04448649915
0.04445182418
0.04383868165
0.04385221129
0.04333957574
0.04331248483
0.04281603264
0.04265398184
0.04208328533
0.04167957995
0.04093162075
0.05832544536
0.05350403816
0.05063358789
0.04733639173
0.04554127645
0.04320893911
0.04210107015
0.04042186075
0.03977095578
0.03855167042
0.0382077983
0.03731751808
0.03717353552
0.03651541293
0.03648638319
0.03598170212
0.03599263925
0.03557089011
0.03554869858
0.03514046451
0.03500744802
0.03453819042
0.03420639765
0.03359117962
0.04546601047
0.04170092237
0.03945817644
0.03688248469
0.03547890098
0.0336562767
0.03278913283
0.03147640267
0.03096604889
0.03001249231
0.02974198645
0.02904550577
0.02893132906
0.02841642037
0.02839236674
0.02799763871
0.02800522699
0.02767565324
0.02765785973
0.02733922559
0.02723536062
0.02686932337
0.02661057102
0.0261306092
0.03247868587
0.02977996876
0.0281710524
0.02632386404
0.02531584502
0.02400797669
0.02338426371
0.02244171838
0.0220737539
0.02138868139
0.02119280644
0.02069218989
0.02060870709
0.02023857107
0.02022014346
0.01993656305
0.01994131828
0.01970487177
0.01969194828
0.01946374462
0.01938955987
0.01912759293
0.01894260006
0.01859893399
0.01937607529
0.0177537821
0.01678459414
0.0156727195
0.0150638145
0.01427548321
0.01389724173
0.01332830422
0.01310375561
0.01268964428
0.01256873918
0.01226579745
0.01221290363
0.01198889381
0.01197574967
0.01180438583
0.01180592235
0.01166354094
0.01165525393
0.01151843152
0.01147404462
0.01131725556
0.01120669525
0.01100074914
0.006223433188
0.005681353845
0.005354203366
0.004980252774
0.004771999933
0.004505041585
0.004373317297
0.004179277816
0.004098866103
0.003956606168
0.003911172822
0.003806496983
0.003784542629
0.003707027975
0.003699412248
0.003640479183
0.003638971367
0.003590783458
0.003587271567
0.003541953745
0.003527517799
0.003476123063
0.003440242229
0.003372435923
-0.006957556686
-0.006416646609
-0.00610009052
-0.005734165564
-0.005540740651
-0.005284870581
-0.005169462533
-0.004987462044
-0.004923394469
-0.004792865497
-0.004762665223
-0.004668273468
-0.004659237128
-0.004589547557
-0.004591635884
-0.004537497404
-0.004542051317
-0.004495466232
-0.004494161324
-0.004447466511
-0.00443183484
-0.004377419207
-0.004338414327
-0.004267771654
-0.02011011411
-0.0184887312
-0.01753000248
-0.01642601214
-0.01583188401
-0.01505457984
-0.01469266581
-0.01413576725
-0.01392762441
-0.01352529308
-0.01341972466
-0.01312715506
-0.01308731663
-0.01287124684
-0.01286796615
-0.01270152173
-0.01270928401
-0.01256861743
-0.01256268296
-0.01242455497
-0.0123790702
-0.01221925943
-0.01210559034
-0.01189670422
-0.03320374488
-0.03050642446
-0.0289081073
-0.02706898464
-0.02607566989
-0.02477882316
-0.02417122896
-0.02324059113
-0.02288872941
-0.02221521722
-0.02203431138
-0.02154379147
-0.021472961
-0.02111046817
-0.02110149789
-0.02082255795
-0.02083316865
-0.02059822204
-0.02058736423
-0.02035775634
-0.02028232326
-0.02001740264
-0.01982934139
-0.0194830135
-0.04619077222
-0.04242631175
-0.04019376046
-0.03762571236
-0.03623667601
-0.03442488761
-0.03357388897
-0.03227306062
-0.03177898435
-0.03083712686
-0.03058188811
-0.02989575771
-0.02979463035
-0.02928769789
-0.02927356331
-0.0288838383
-0.02889775767
-0.02857000945
-0.02855470371
-0.02823487299
-0.02813004295
-0.02776104917
-0.0274992713
-0.02701634427
-0.05903244481
-0.05421262406
-0.05135264752
-0.04806345561
-0.04628275081