/*--------------------------------*- C++ -*----------------------------------*\
| =========                 |                                                 |
| \\      /  F ield         | foam-extend: Open Source CFD                    |
|  \\    /   O peration     | Version:  3.0                                   |
|   \\  /    A nd           | Web:         http://www.extend-project.de       |
|    \\/     M anipulation  |                                                 |
\*---------------------------------------------------------------------------*/
FoamFile
{
    version     2.0;
    format      ascii;
    class       volVectorField;
    location    "35";
    object      u;
}
// * * * * * * * * * * * * * * * * * * * * * * * * * * * * * * * * * * * * * //

dimensions      [0 0 0 0 0 0 0];

internalField   nonuniform List<vector> 
2688
(
(0.2172719977 -0.05593429751 5.795946281e-17)
(0.2201912424 -0.04397428091 -5.15745748e-17)
(0.5078395444 -0.03980135198 1.249190804e-16)
(0.4741480128 -0.030725104 -2.040140705e-17)
(0.6805411142 -0.02940434701 5.559003605e-17)
(0.6360303275 -0.02287959079 -3.69995452e-18)
(0.7913387443 -0.02240508804 -5.493261114e-18)
(0.7432053297 -0.01792634309 4.618329434e-17)
(0.8665234236 -0.01757012355 -5.131930892e-17)
(0.8162468366 -0.01461202063 5.459196259e-17)
(0.9195606536 -0.01414704136 -1.223875873e-17)
(0.8670234945 -0.0122965813 3.068350003e-17)
(0.9579677481 -0.01164793443 2.584578386e-17)
(0.9025931777 -0.01062889639 -7.647384908e-17)
(0.9862400552 -0.009757307744 8.074933088e-17)
(0.9272781955 -0.009393458554 -8.214522305e-17)
(1.007169513 -0.008276692646 8.1583662e-17)
(0.9438213587 -0.008437722472 -5.078407372e-17)
(1.022482698 -0.007091056053 1.047447737e-17)
(0.9540679868 -0.007618502502 1.983546758e-17)
(1.03314419 -0.006172489486 -2.012755611e-17)
(0.9594245894 -0.006694834988 -1.246614213e-19)
(1.039447542 -0.005807200486 -1.887218201e-17)
(0.9612061035 -0.006265622365 -3.698500516e-18)
(0.2292829171 -0.1609294671 -1.869686726e-16)
(0.2295108701 -0.1253993764 -8.681704885e-18)
(0.516243381 -0.1130180336 -3.144139437e-16)
(0.4805083703 -0.08584764591 2.868774254e-17)
(0.6866057248 -0.08188039766 -1.427780487e-16)
(0.6406170604 -0.06222447716 -2.025492007e-17)
(0.7958109526 -0.06070528612 -9.896538324e-18)
(0.7466509231 -0.0471089707 -1.095613318e-16)
(0.8698771368 -0.04588499771 5.34482992e-17)
(0.8189106264 -0.03679227426 -8.120795166e-17)
(0.9221033885 -0.03520039307 -2.89856966e-17)
(0.8691238162 -0.02938619096 -7.262842399e-17)
(0.9598997341 -0.02720974213 9.261389465e-18)
(0.9042697241 -0.02385479624 2.671006459e-17)
(0.9876911966 -0.02098224108 -4.270306851e-17)
(0.9286227363 -0.01955636111 7.399163379e-17)
(1.008225699 -0.01593334911 -7.867567209e-17)
(0.9448957178 -0.01603194445 1.626055789e-17)
(1.023205444 -0.01173108247 7.170994266e-17)
(0.9549140172 -0.01286995679 -1.050369792e-16)
(1.033587271 -0.008285894657 8.168926976e-17)
(0.9600485031 -0.009521910064 -2.437149996e-18)
(1.039702505 -0.005955598357 2.762967844e-17)
(0.9615721769 -0.006192492978 3.607809565e-17)
(0.2529747567 -0.26393174 3.531630297e-16)
(0.2478890292 -0.205261448 9.910897065e-17)
(0.5327940836 -0.1847932653 3.889327995e-16)
(0.4929768162 -0.1398803281 -1.122686582e-17)
(0.6984939663 -0.1332888794 1.616534103e-16)
(0.6495466301 -0.1007628978 1.009731673e-16)
(0.8045231181 -0.09821403507 -3.40771894e-17)
(0.7533121371 -0.07566760883 2.012928631e-16)
(0.8763608114 -0.0736051655 -6.131100339e-17)
(0.8240194173 -0.05848054881 1.738632303e-16)
(0.9269766778 -0.05580141921 4.571937508e-17)
(0.8731142484 -0.04608492194 9.688665999e-17)
(0.9635663263 -0.04242745571 -1.278828717e-17)
(0.907421402 -0.03676943219 -6.066957482e-17)
(0.99041544 -0.03195141972 7.006541404e-17)
(0.9311195342 -0.02947597973 -1.796172065e-16)
(1.010182546 -0.02341386169 2.130370894e-16)
(0.9468535941 -0.02344877954 -1.539873021e-16)
(1.024509732 -0.01627019884 -1.570201552e-17)
(0.9563961394 -0.01801735371 6.569531315e-17)
(1.034307171 -0.01034316794 -4.984284179e-17)
(0.9610815879 -0.01236355723 -4.506311273e-17)
(1.039893948 -0.005977184136 -6.477037841e-17)
(0.9621885475 -0.006360818396 4.4369227e-17)
(0.2880435349 -0.3636311698 -3.864481499e-16)
(0.2750990139 -0.2825780928 -2.280226101e-16)
(0.5572731652 -0.2543090672 -5.165859493e-16)
(0.5114333322 -0.1922088561 5.114789954e-17)
(0.7160760466 -0.1831069117 -2.815295222e-16)
(0.6627657437 -0.1381069082 -3.188845635e-17)
(0.8174009561 -0.1345709787 -6.840789858e-17)
(0.7631629524 -0.1033606989 -1.381403653e-16)
(0.8859309055 -0.1004787102 -8.934640395e-17)
(0.8315539861 -0.07952499878 -1.202590671e-16)
(0.934144767 -0.07577816645 -1.177154829e-16)
(0.8789691731 -0.06229652585 -1.023976148e-16)
(0.9689193395 -0.05718873728 8.00506176e-17)
(0.9120045769 -0.04931252356 1.651287568e-18)
(0.9943343252 -0.04259401918 3.987706019e-17)
(0.934697989 -0.03910796501 1.025268964e-16)
(1.012918903 -0.03066855941 -1.278562792e-16)
(0.9495983318 -0.03062631588 9.922816961e-17)
(1.026243239 -0.02066943005 1.624608628e-17)
(0.9583984637 -0.02291956302 -8.532545917e-17)
(1.035209908 -0.01238888498 8.278313365e-17)
(0.9623084643 -0.01487548318 9.028336394e-17)
(1.040230522 -0.006243408868 -4.4270842e-17)
(0.9624468597 -0.006123120655 1.280147681e-16)
(0.3340563233 -0.4587888257 4.251633839e-16)
(0.3107937249 -0.3563535974 1.891532622e-16)
(0.5893737198 -0.3206156283 6.26947331e-16)
(0.5356229676 -0.2421201793 -8.468287291e-17)
(0.7391068691 -0.2305968152 2.631568369e-16)
(0.6800562417 -0.173701242 1.078930986e-16)
(0.8342439494 -0.1692141417 1.152740405e-17)
(0.7760178292 -0.1297319299 1.610834795e-16)
(0.8984223754 -0.1260733142 1.57245067e-16)
(0.8413635968 -0.09954371431 1.395120062e-16)
(0.9434804625 -0.09479043298 -8.225766519e-18)
(0.8865757121 -0.07769848208 1.897773625e-16)
(0.975879072 -0.07122144488 -1.709678945e-16)
(0.9179494106 -0.06120941887 1.09511399e-16)
(0.9994289963 -0.05269605206 -1.841635401e-16)
(0.9393364719 -0.04822678455 -1.125909339e-16)
(1.016488257 -0.03754961634 8.349079756e-17)
(0.9531531928 -0.03741991031 -8.83281138e-17)
(1.028515851 -0.0248535768 1.325664997e-17)
(0.9609883533 -0.02761063743 4.257582134e-17)
(1.036328667 -0.01429087174 -1.29038279e-16)
(0.9639744217 -0.01748978576 4.692614567e-17)
(1.040314915 -0.006164351594 -2.208942969e-16)
(0.9631188777 -0.006349302986 1.677226463e-16)
(0.390438347 -0.5481886271 -3.388790492e-16)
(0.3545233444 -0.4256830411 -1.411711973e-16)
(0.6287157779 -0.3829445692 -4.904183594e-16)
(0.5652607878 -0.2890347906 3.923383887e-17)
(0.7673394495 -0.2752565656 -1.754238909e-16)
(0.7012550398 -0.2071739596 -2.017513833e-16)
(0.8548961279 -0.201800772 5.470123824e-17)
(0.7917881456 -0.1545469348 -2.187728291e-16)
(0.9137422055 -0.1501540906 -3.174345498e-16)
(0.8534000353 -0.1183951918 8.695260361e-17)
(0.9549275869 -0.1126847471 -6.214740029e-17)
(0.895903358 -0.09221594514 -6.234676083e-17)
(0.9844011455 -0.08443732029 8.600089697e-18)
(0.9252255717 -0.07243655785 9.128863221e-17)
(1.005643546 -0.06221698921 8.286516944e-18)
(0.944990158 -0.056837539 2.142257964e-16)
(1.020806606 -0.04403119271 4.79525833e-17)
(0.9574478004 -0.04380294463 1.877991807e-17)
(1.031241229 -0.02878387532 4.183433282e-17)
(0.9640298575 -0.03187693619 -3.747932195e-17)
(1.037770317 -0.01615868307 1.703647949e-16)
(0.9656668506 -0.01951683808 -2.807391889e-18)
(1.040872434 -0.006479354127 1.988011015e-16)
(0.9632735178 -0.006084834664 -1.112761508e-16)
(0.4564695918 -0.6307308994 -6.887080854e-17)
(0.4057471043 -0.4896730379 1.808195048e-17)
(0.6747647051 -0.4404594072 5.208505483e-16)
(0.5999551501 -0.3323210185 -1.315030101e-16)
(0.8003610498 -0.3164476897 5.798652408e-17)
(0.7260370541 -0.2380389806 2.505588785e-16)
(0.8790259721 -0.2318436096 1.503417877e-17)
(0.8101922063 -0.1774088931 -4.810756947e-17)
(0.9316151075 -0.1723426276 4.659910055e-16)
(0.8674193632 -0.1357426019 -2.597436669e-16)
(0.9682575024 -0.1291582607 -5.64369242e-17)
(0.9067444512 -0.105553107 2.330422353e-16)
(0.99430414 -0.09658617668 -1.738565914e-16)
(0.9336626265 -0.08272686987 1.472068108e-16)
(1.012850805 -0.0709526364 -2.655435148e-16)
(0.9515302597 -0.06471088467 5.010791063e-17)
(1.025810328 -0.04997531095 -2.511389282e-16)
(0.962408619 -0.04965385588 8.912322582e-17)
(1.034392605 -0.03239333673 -1.061093071e-16)
(0.9675770339 -0.03592666989 7.277320465e-18)
(1.039327604 -0.01773454849 -1.683563567e-16)
(0.9678125702 -0.02187717698 -1.408034616e-16)
(1.041090701 -0.006167299764 5.274248407e-17)
(0.9637137479 -0.006392035084 -3.702101749e-16)
(0.5313332003 -0.7053483251 5.844485853e-16)
(0.4638096516 -0.5475356288 -2.932742524e-16)
(0.7269929187 -0.4924743517 2.40010635e-17)
(0.6392952711 -0.371466892 -2.68988229e-16)
(0.8378291732 -0.353707654 1.977387472e-16)
(0.7541596962 -0.265959436 -3.512933854e-16)
(0.9064210005 -0.2590219218 1.374509938e-16)
(0.8310977126 -0.1980986712 1.967247394e-19)
(0.9519224992 -0.1924176215 -1.285014425e-16)
(0.8833606346 -0.1514517122 1.569350404e-16)
(0.9834170522 -0.1440657107 1.372659711e-16)
(0.9190846324 -0.1176422238 -1.972704218e-16)
(1.005577541 -0.1075840764 5.079266147e-17)
(0.9432757848 -0.09206653788 -1.256956145e-16)
(1.021063946 -0.07886035442 2.643468458e-16)
(0.9589828283 -0.07186113811 -2.229199175e-16)
(1.031520406 -0.05533824685 3.475799914e-16)
(0.968029461 -0.05493245605 -2.554950084e-16)
(1.038019057 -0.03561996027 2.313188312e-16)
(0.9714666724 -0.03941472597 -2.084323635e-16)
(1.041252577 -0.01923271645 4.55239421e-16)
(0.9699046104 -0.02348624404 -2.052075113e-16)
(1.041639253 -0.006322808915 1.682925214e-16)
(0.9640117816 -0.006177315386 1.874215799e-17)
(0.6140795945 -0.7711344202 -8.921449361e-16)
(0.5279942925 -0.5985330027 3.29988078e-16)
(0.7846901674 -0.5383136843 -3.629508192e-16)
(0.6827556585 -0.4059593774 3.595859351e-16)
(0.8791917815 -0.3865342228 -2.948091916e-17)
(0.7851921097 -0.2905490492 3.371065392e-17)
(0.9366322197 -0.282958708 -1.369563005e-16)
(0.8541308067 -0.2163062876 -1.905695528e-17)
(0.9742845262 -0.2100893512 -1.199078601e-16)
(0.900890633 -0.165260206 -4.478132661e-17)
(1.000076887 -0.1571775534 -3.088339772e-16)
(0.9326219578 -0.1282508631 4.031924448e-16)
(1.017932282 -0.1172445677 -2.850801363e-16)
(0.953788967 -0.1002451289 3.605859186e-16)
(1.030029952 -0.08579467991 -3.079724818e-16)
(0.9671040197 -0.0781170775 3.821248011e-16)
(1.037725823 -0.06003021039 -3.691176511e-16)
(0.9741407088 -0.05959612066 3.787507866e-16)
(1.041964731 -0.03839028932 -1.251210744e-16)
(0.9757037923 -0.04269813106 5.583220645e-17)
(1.04343874 -0.02024563234 -1.306546411e-16)
(0.9721507344 -0.0254998777 -1.646590743e-16)
(1.042504185 -0.005688634693 3.214338946e-16)
(0.9640384049 -0.00656788004 -6.86486283e-16)
(0.7036705527 -0.8272286722 9.299007286e-16)
(0.5974801645 -0.6420236233 -9.300006395e-16)
(0.847184666 -0.5774045327 1.079919953e-15)
(0.7298265994 -0.4353697263 -7.116189724e-16)
(0.9240172892 -0.4145239003 3.694917161e-16)
(0.8188307156 -0.3115135806 -1.443573724e-16)
(0.9693981508 -0.303362482 2.375791011e-16)
(0.8791262521 -0.2318297627 1.411477289e-16)
(0.9985635214 -0.2251470982 2.937150056e-16)
(0.9199403876 -0.1770349194 4.086110879e-17)
(1.018190331 -0.1683444597 2.502438294e-16)
(0.9473579512 -0.1373001392 -1.974332523e-16)
(1.031389972 -0.1254653571 6.386740345e-17)
(0.9652578718 -0.1072248586 -3.326117092e-16)
(1.039819635 -0.09168190663 1.672433945e-16)
(0.9759877316 -0.08345857121 -5.345495134e-16)
(1.044510767 -0.06397826111 3.902722499e-16)
(0.9808500744 -0.06358401521 -5.843190144e-16)
(1.046232568 -0.04064900741 2.842336208e-16)
(0.9803959167 -0.04549772227 -2.858908294e-16)
(1.045633263 -0.02104836216 3.912047573e-16)
(0.9747318959 -0.02700749593 -1.888881865e-16)
(1.043077851 -0.005530455543 1.722119347e-16)
(0.9642815388 -0.006160004649 2.192413056e-16)
(0.7989859957 -0.8729583277 -4.504520925e-16)
(0.6714108151 -0.6774722499 5.69702323e-16)
(0.9136423552 -0.6092695502 -4.05723436e-16)
(0.7798786031 -0.4593401779 6.470901408e-17)
(0.9716521128 -0.4373393982 2.278268258e-17)
(0.8545621109 -0.3285956812 -2.354707512e-16)
(1.004181096 -0.3199928609 -1.487989535e-16)
(0.9056382211 -0.2444705001 -4.084971461e-16)
(1.024298672 -0.2374162967 -2.789713908e-16)
(0.9401078034 -0.1866122744 -2.398393937e-16)
(1.037350555 -0.1774377387 -2.547327164e-16)
(0.962920744 -0.144648201 3.20104723e-16)
(1.045583553 -0.1321535911 -2.770822318e-16)
(0.9773331956 -0.112881123 5.62652089e-16)
(1.050097261 -0.09646817291 -1.953820259e-16)
(0.9853104146 -0.08778303509 6.874216907e-16)
(1.051572756 -0.06718994213 -3.850078752e-16)
(0.9878885396 -0.06682395693 6.502260968e-16)
(1.050578407 -0.04249132825 -2.29650505e-16)
(0.9853810941 -0.04780340519 1.385902121e-16)
(1.047716533 -0.02168928107 -6.968628579e-17)
(0.9775639525 -0.02832859823 -3.4236255e-16)
(1.043473574 -0.005247342794 2.781346174e-16)
(0.9644694932 -0.006143888043 -5.37566539e-16)
(0.8988144142 -0.9077162081 3.28045851e-16)
(0.7488345193 -0.7044071139 -4.475066699e-16)
(0.9832700608 -0.6334739512 4.132834188e-16)
(0.8323188613 -0.4775370111 -1.829469293e-16)
(1.02158796 -0.4546525829 1.477381333e-16)
(0.8920302347 -0.3415497092 2.451926217e-16)
(1.040676042 -0.3325954849 9.140288715e-17)
(0.9334717975 -0.254045602 5.569239603e-16)
(1.051333362 -0.2466974578 2.668878027e-16)
(0.9613127993 -0.1938580569 2.81298119e-16)
(1.057510542 -0.1842998206 6.61354828e-17)
(0.9793147335 -0.1501993775 -1.243134267e-16)
(1.060548004 -0.1371827886 1.59711825e-16)
(0.9900811273 -0.1171448463 -4.051359047e-16)
(1.060959089 -0.1000458977 1.02125285e-16)
(0.9951759253 -0.09102850956 -6.906433677e-16)
(1.05905044 -0.06956505322 1.996132899e-16)
(0.995359657 -0.06923140239 -4.070086068e-16)
(1.055158606 -0.04382875671 6.534325741e-17)
(0.9907176405 -0.04947414245 -2.752374001e-16)
(1.049806525 -0.02214975331 3.190752418e-16)
(0.9807001128 -0.02918087838 -1.181119144e-16)
(1.043650095 -0.005124565881 2.162517206e-16)
(0.9648477926 -0.005742028428 7.323059486e-17)
(1.00192127 -0.9310951728 -4.605733675e-17)
(0.8288091226 -0.7225295078 2.191442644e-18)
(1.055160421 -0.6497659802 7.638138625e-17)
(0.8864585624 -0.4897834999 -2.436713837e-16)
(1.073111889 -0.4663121661 1.261760439e-17)
(0.9306745442 -0.3502675169 -1.02874984e-16)
(1.078292187 -0.3410849131 -1.606468798e-16)
(0.9621387033 -0.2604850045 -4.416906654e-16)
(1.079156727 -0.2529482236 -1.433718927e-16)
(0.9831118247 -0.1987223265 -1.312787232e-16)
(1.078215997 -0.1889169556 -1.528054386e-16)
(0.9961279338 -0.1539134761 2.779382443e-16)
(1.075875145 -0.1405596675 -5.057223179e-16)
(1.003117363 -0.1199818829 6.978298256e-16)
(1.07204316 -0.1024405436 -4.331281802e-16)
(1.005231371 -0.09316952448 7.266786191e-16)
(1.066640515 -0.0711526709 -2.318762281e-16)
(1.002948166 -0.07079203336 3.51664156e-16)
(1.059760028 -0.04474464229 7.727872984e-17)
(0.9961238115 -0.05049971626 2.01642762e-17)
(1.051823651 -0.02254256818 -1.297968927e-17)
(0.9838918901 -0.02961616689 -8.84201003e-17)
(1.043650578 -0.005138727845 7.306239788e-17)
(0.9652873578 -0.005486722729 -3.167750193e-16)
(1.106984065 -0.9427726302 7.428376329e-18)
(0.9102860645 -0.7315557227 2.378572332e-17)
(1.128430095 -0.657868161 -1.277478946e-16)
(0.9416369018 -0.4958517678 1.215627751e-16)
(1.125654044 -0.4720779277 3.631297989e-17)
(0.9700931085 -0.3545583853 -7.936362984e-17)
(1.116686817 -0.3452507773 1.808816577e-16)
(0.9914158916 -0.2636277061 1.623277584e-16)
(1.107593509 -0.2559827072 1.112947777e-16)
(1.005411504 -0.2010711497 -4.444844529e-17)
(1.099415802 -0.1911246422 2.313210624e-16)
(1.01336235 -0.1556828638 -2.643835414e-16)
(1.091603737 -0.1421396892 3.530887566e-16)
(1.016510014 -0.1213091168 -4.298166948e-16)
(1.083447796 -0.103526277 3.23891347e-16)
(1.015579461 -0.09414154396 -4.219294521e-16)
(1.074475049 -0.07184319219 8.011322299e-17)
(1.010751665 -0.07144989915 -8.806973126e-17)
(1.064537217 -0.04513636612 -1.804129496e-16)
(1.001648471 -0.05083196058 1.085944939e-16)
(1.053945513 -0.02273614463 -6.390428494e-18)
(0.9871422989 -0.02961138358 1.613543425e-17)
(1.043622261 -0.005122476085 7.171214494e-17)
(0.9658463213 -0.00523982607 1.314160713e-18)
(1.212713691 -0.9426273842 2.648544979e-17)
(0.9922997747 -0.731442305 -6.034658554e-17)
(1.202153197 -0.6577686298 -5.180052049e-17)
(0.9971554693 -0.4957592135 1.703894238e-16)
(1.178489319 -0.4719954991 -6.093425076e-17)
(1.009718488 -0.3544737233 2.19871459e-16)
(1.155255832 -0.3451725563 -1.7652974e-16)
(1.020806103 -0.2635420108 1.560622555e-16)
(1.136115496 -0.2559009954 -2.757316516e-17)
(1.027754332 -0.2009774655 6.486661413e-17)
(1.120633185 -0.1910332527 -2.806449564e-16)
(1.030586251 -0.1555745973 1.873819007e-16)
(1.107300374 -0.142033005 -1.607026763e-16)
(1.029851687 -0.1211788637 1.738705676e-16)
(1.094790613 -0.1034010453 -3.04168769e-16)
(1.025846955 -0.09397885878 2.683109768e-16)
(1.082246364 -0.07170741577 -1.248964187e-16)
(1.018445413 -0.07123319312 1.911001024e-17)
(1.069296526 -0.04502796466 6.039357569e-17)
(1.007015398 -0.05052873489 -1.301792229e-16)
(1.056137846 -0.0226985636 -1.363439374e-17)
(0.9902046008 -0.02928065634 4.430302505e-17)
(1.043687231 -0.005021872726 -2.089453198e-16)
(0.9663336939 -0.005157835905 2.593412963e-16)
(1.317744984 -0.9306370226 -1.314454943e-16)
(1.073741919 -0.7221057095 2.288854078e-16)
(1.275390223 -0.6493606421 -1.677393129e-16)
(1.052303062 -0.4893926506 -1.579707261e-16)
(1.231002135 -0.4659223957 2.340304752e-17)
(1.049109892 -0.3498834821 -3.163543535e-16)
(1.193624615 -0.3406892956 1.508406064e-16)
(1.050059072 -0.2600906699 -3.924016284e-16)
(1.164529761 -0.252531388 -5.953341474e-17)
(1.05003289 -0.1983058862 -2.389193748e-16)
(1.141814472 -0.1884678355 3.561393703e-16)
(1.047803225 -0.1534661147 -2.120608007e-16)
(1.123016076 -0.1400719507 2.144316192e-16)
(1.043230054 -0.1194947706 -1.500315076e-16)
(1.106191783 -0.1019175732 2.521390213e-16)
(1.036176544 -0.09262471329 2.623686881e-18)
(1.090100508 -0.0706268007 4.232846357e-17)
(1.026194435 -0.07013448896 1.785979399e-16)
(1.074159185 -0.04431378255 -1.239989987e-16)
(1.012382387 -0.04963445104 2.613587924e-16)
(1.058457466 -0.02228752123 -1.026848178e-16)
(0.9932143064 -0.02869464164 7.833029297e-17)
(1.043838044 -0.004660118944 3.70522907e-17)
(0.9669002746 -0.005247846324 -1.940468775e-16)
(1.420797339 -0.9069734618 6.988965804e-17)
(1.153687489 -0.7037602404 -1.657274341e-16)
(1.347254257 -0.6328720454 9.446955245e-17)
(1.10642242 -0.4769636021 1.5424105e-16)
(1.282505366 -0.4540997292 -9.159056216e-18)
(1.087735608 -0.3409986529 3.087664616e-16)
(1.231218801 -0.3320457522 -2.518459334e-17)
(1.078705579 -0.2534830706 3.970536612e-16)
(1.192326499 -0.2461211087 1.130206383e-16)
(1.071806192 -0.1932596106 3.139519017e-16)
(1.162485594 -0.1836742877 -1.658004375e-16)
(1.064580763 -0.1495445459 4.877582727e-17)
(1.138299224 -0.1364904582 -8.412013815e-17)
(1.056213384 -0.1164125922 5.414332011e-17)
(1.117226136 -0.09927910756 -2.846768551e-16)
(1.046145533 -0.09018884367 -8.396448303e-17)
(1.09766257 -0.06874890389 -5.305084649e-17)
(1.033616064 -0.06822228844 -2.616710538e-16)
(1.078840474 -0.04306076165 1.433264503e-16)
(1.017453443 -0.04822266041 -2.236842768e-16)
(1.060758916 -0.02148769663 4.602772036e-17)
(0.9959531704 -0.0279702073 9.45004971e-17)
(1.044131998 -0.004003500366 -2.24088098e-16)
(0.9672025274 -0.005538072527 4.724383485e-16)
(1.520531997 -0.8719145476 -1.811759838e-16)
(1.231008521 -0.6765281896 3.878125699e-16)
(1.416785104 -0.6083743745 -3.048493352e-16)
(1.158771685 -0.4584802337 4.061844624e-17)
(1.332353929 -0.4364908667 -2.823623201e-17)
(1.125122678 -0.3277554205 -3.357832269e-16)
(1.267636128 -0.3191357024 9.649313365e-17)
(1.106465884 -0.2436072394 -4.334664702e-16)
(1.219292275 -0.2365118988 1.33094023e-17)
(1.092946007 -0.1856958222 -4.305746799e-16)
(1.182586687 -0.176456394 2.433422638e-16)
(1.080919823 -0.1436552184 -1.925409149e-16)
(1.153218339 -0.1310724105 1.940854211e-16)
(1.06891791 -0.1117909504 -2.282809478e-16)
(1.128062402 -0.09527415017 4.638831687e-16)
(1.055970561 -0.0865729626 -2.359968708e-17)
(1.105150771 -0.06589159475 1.804214983e-16)
(1.041006567 -0.06546397507 1.248726264e-16)
(1.083511549 -0.04112187044 -5.20605966e-17)
(1.02258334 -0.04631465877 1.433822985e-16)
(1.063040893 -0.02017041603 -1.65744147e-16)
(0.9988182715 -0.02710070392 6.784816974e-17)
(1.044353964 -0.0029821315 -1.60693012e-16)
(0.9677657538 -0.005912394156 -4.987669666e-17)
(1.615741099 -0.8259176165 2.405875517e-16)
(1.304881966 -0.6408678005 -3.266118489e-16)
(1.483191144 -0.5763201169 4.009769306e-16)
(1.20878356 -0.4343345607 -1.712629266e-16)
(1.379948338 -0.41351711 6.512807188e-17)
(1.160818201 -0.3105124799 1.20741387e-16)
(1.302377065 -0.3023572209 1.205249109e-17)
(1.132939965 -0.2308065047 2.992584942e-16)
(1.244977617 -0.2240934364 -1.012066647e-16)
(1.113067677 -0.17595013 3.844015502e-16)
(1.201683146 -0.1672042607 -1.064091898e-16)
(1.096421829 -0.1361228456 -3.623285119e-17)
(1.167327924 -0.1242063368 5.580467672e-17)
(1.080907661 -0.1059277678 6.960817115e-17)
(1.13823219 -0.09027480801 -2.9493781e-16)
(1.065169134 -0.08202162387 2.419080991e-17)
(1.112087532 -0.06238717708 -1.218316711e-16)
(1.047863609 -0.06202720247 -1.881078058e-16)
(1.087738953 -0.03877655312 8.96865609e-17)
(1.027321374 -0.04400532006 -9.773532204e-17)
(1.065022945 -0.01858486128 1.154788968e-16)
(1.001402007 -0.02614241559 5.710032257e-17)
(1.044590386 -0.00182176512 3.659344331e-17)
(0.9677605162 -0.006373483711 7.637618808e-17)
(1.705179178 -0.7695458194 -3.591561165e-16)
(1.374202568 -0.597105442 3.149211431e-16)
(1.545528009 -0.5369606825 -3.884904747e-16)
(1.255707268 -0.4046608472 2.72052547e-16)
(1.424631074 -0.3852552994 -1.573527447e-16)
(1.194323568 -0.2892795787 4.891267355e-18)
(1.335014041 -0.2816672261 4.398367136e-17)
(1.157811848 -0.2149996634 -2.853625125e-16)
(1.269138444 -0.2087248743 1.401891364e-16)
(1.132003334 -0.1638695084 -2.529409113e-16)
(1.219689686 -0.1556918381 5.586477801e-17)
(1.111057199 -0.1267399924 -2.102654696e-17)
(1.180693525 -0.1155945987 4.873684e-17)
(1.09229775 -0.09858620147 -1.473198576e-16)
(1.147947012 -0.08393452683 2.012548626e-16)
(1.07401207 -0.07630534747 -1.56018072e-17)
(1.118798835 -0.05787691597 7.320213225e-17)
(1.054611684 -0.05772621489 1.158081102e-16)
(1.091851643 -0.03570285083 -1.048607739e-16)
(1.03222747 -0.04114431719 1.001405068e-16)
(1.066800322 -0.01650366903 -1.835234516e-16)
(1.004456608 -0.02488163447 5.677243501e-17)
(1.044373163 -0.000488124355 -1.467379388e-16)
(0.9686203875 -0.006553639008 1.042397337e-17)
(1.787772097 -0.70352039 2.411352362e-16)
(1.43830361 -0.5459146126 -1.857086176e-16)
(1.603150007 -0.4909438008 1.544480271e-16)
(1.299108483 -0.3700045126 -1.474528962e-16)
(1.465935069 -0.3522770542 1.094160461e-16)
(1.225304581 -0.2645374768 -9.281942445e-17)
(1.36516611 -0.257589408 -8.864105893e-18)
(1.180793659 -0.1966417517 1.940200238e-16)
(1.291433178 -0.190916108 -1.858613158e-16)
(1.149475653 -0.1499085115 1.927972261e-16)
(1.236265663 -0.1424441685 -4.284295434e-18)
(1.124522986 -0.1159745628 -8.11375814e-17)
(1.192935671 -0.1057975654 7.071096517e-17)
(1.102716679 -0.09024560044 4.152102484e-17)
(1.156750314 -0.07685612853 -3.420499072e-17)
(1.082015196 -0.06988743032 -4.990358273e-17)
(1.124737924 -0.05299778289 5.91919904e-17)
(1.060632443 -0.05294456934 -9.000980814e-17)
(1.095288417 -0.03256224501 8.750028308e-17)
(1.036558545 -0.03794958709 -7.124448565e-17)
(1.068085609 -0.0146126248 1.565585308e-16)
(1.006956936 -0.02338755501 1.852057969e-17)
(1.044338804 0.0004749229975 1.198963371e-16)
(0.9681453068 -0.006718453339 3.490340819e-17)
(1.862429307 -0.6286600986 -1.097886735e-16)
(1.496146199 -0.4878163733 2.119615269e-16)
(1.655166197 -0.4386962968 -1.106959347e-16)
(1.33825206 -0.3306288656 1.263447225e-16)
(1.503210038 -0.3147805437 -1.00009483e-16)
(1.253245806 -0.236380534 1.293999058e-16)
(1.39238358 -0.230158904 -3.694067434e-18)
(1.201525334 -0.175697854 -7.536437307e-17)
(1.311571909 -0.1705618291 1.86345877e-16)
(1.165248274 -0.1339178388 -1.560048855e-16)
(1.251263328 -0.1272184379 7.474219222e-17)
(1.136703239 -0.1035671104 1.00009796e-17)
(1.20405701 -0.09442861396 -7.520364675e-17)
(1.112192473 -0.08054303062 -4.327271112e-18)
(1.164824526 -0.06850698611 -4.082725559e-17)
(1.089395196 -0.06232891362 6.221988541e-17)
(1.13029195 -0.0470982075 -1.122581214e-16)
(1.066373978 -0.04723216938 6.957415835e-17)
(1.098568114 -0.02867356687 -7.136543442e-17)
(1.041045265 -0.03403500545 3.194784567e-17)
(1.069091013 -0.01236468098 -9.898641447e-17)
(1.010308634 -0.02127187164 -3.533382478e-17)
(1.043228313 0.001194311621 -6.431564101e-17)
(0.9697636514 -0.006009849484 -6.360389876e-17)
(1.928265603 -0.5459153105 -2.489713287e-17)
(1.547263567 -0.4236577536 -1.449494477e-16)
(1.701117358 -0.3810193327 -4.929552946e-17)
(1.372869392 -0.2871937095 -1.760231818e-17)
(1.536155747 -0.2734444418 -2.512885896e-17)
(1.277962378 -0.2053719606 -7.224279294e-17)
(1.416439429 -0.1999799018 1.883308993e-17)
(1.219867794 -0.1526928066 -3.04349166e-18)
(1.329365668 -0.1482440977 -1.370759487e-16)
(1.179204313 -0.1164282313 5.994085138e-17)
(1.264500982 -0.110625958 -2.413847175e-17)
(1.147473823 -0.09009247363 -3.375948999e-17)
(1.213840358 -0.08217954677 1.081145467e-16)
(1.120543933 -0.07012490796 -4.07501491e-17)
(1.171853339 -0.05970323428 6.549920314e-17)
(1.095830697 -0.05433712202 -2.942834869e-17)
(1.134979672 -0.04113036172 5.425972572e-17)
(1.071250746 -0.04125244224 -1.523037552e-17)
(1.101117986 -0.02507213815 9.556048707e-18)
(1.044606797 -0.02981316555 2.728919115e-17)
(1.069835756 -0.01071473887 -4.744904861e-18)
(1.012198305 -0.01875746788 1.168461294e-16)
(1.043440077 0.001331471972 -3.243871684e-17)
(0.9685186235 -0.005628994729 1.259878512e-16)
(1.984398433 -0.4563180065 5.779084431e-17)
(1.590726887 -0.3541368489 1.87623206e-16)
(1.740204506 -0.3185038984 3.002510618e-17)
(1.402269669 -0.240091355 5.809413975e-17)
(1.564154067 -0.2285951548 2.389677984e-17)
(1.298937908 -0.1717050248 7.155713198e-17)
(1.43687236 -0.1671881075 -1.494530049e-17)
(1.235417519 -0.1276665929 -2.256877715e-18)
(1.344469906 -0.1239321662 1.201909803e-16)
(1.191015821 -0.09733761954 -5.896193959e-17)
(1.27572938 -0.09246418786 8.189795663e-17)
(1.156569724 -0.07529590533 -3.482636719e-17)
(1.2221409 -0.06864807304 -2.312638332e-17)
(1.127590025 -0.05856587045 -1.382228741e-17)
(1.177852964 -0.04980913781 -3.313142328e-17)
(1.101298679 -0.04532948394 2.996399043e-17)
(1.139087817 -0.03423509439 -3.708637996e-17)
(1.07554836 -0.03438524354 1.165178515e-17)
(1.10349213 -0.02081203274 -1.435627219e-17)
(1.048219564 -0.024863599 -5.463629833e-18)
(1.070186016 -0.008975790159 -1.366975938e-17)
(1.015608292 -0.01550076423 -5.987213207e-17)
(1.041295507 0.0005918870616 1.40377554e-17)
(0.9710734184 -0.00375060409 -5.052654499e-17)
(2.030177796 -0.3610015098 -5.779813888e-17)
(1.626299167 -0.2802231683 -1.386051019e-16)
(1.772181804 -0.2520539285 -6.12893648e-17)
(1.426368378 -0.1900490073 -3.003966989e-17)
(1.58709022 -0.1809661517 -2.010593839e-17)
(1.316151008 -0.1359757227 -7.041107865e-17)
(1.453626459 -0.1324096229 1.340550278e-17)
(1.248200971 -0.1011542154 -2.305235415e-17)
(1.356872345 -0.09820644579 -4.695311339e-17)
(1.200756721 -0.07717467832 -8.331460495e-19)
(1.284970819 -0.07332930037 -3.605028689e-17)
(1.1641087 -0.05975235923 -1.781886126e-19)
(1.228990329 -0.05451207055 3.71587882e-17)
(1.133461538 -0.04653484076 -2.589865177e-17)
(1.182790512 -0.03964285989 5.240834502e-17)
(1.105833293 -0.03607203273 -3.030082687e-17)
(1.142377256 -0.02736605433 9.189889528e-18)
(1.078907874 -0.02736361907 1.359119696e-17)
(1.105291236 -0.01680220061 -6.954519562e-18)
(1.050317806 -0.01962972304 2.848508135e-17)
(1.071047618 -0.007504196238 -1.91706971e-17)
(1.015805471 -0.01194720843 6.322228005e-17)
(1.04267003 0.0001531379118 -3.556864923e-17)
(0.969179966 -0.00291127459 4.430731334e-17)
(2.064971306 -0.261157745 6.96362085e-17)
(1.653203807 -0.2027652219 1.001086245e-16)
(1.796380838 -0.1824051164 4.168155146e-17)
(1.444552346 -0.1375821179 4.178550945e-17)
(1.604410329 -0.131014024 1.842200165e-17)
(1.329111686 -0.09848877449 4.358991734e-17)
(1.466254182 -0.09590396612 1.270059525e-17)
(1.257792921 -0.07330570211 3.938016107e-19)
(1.36619009 -0.07116371354 5.113478793e-17)
(1.208019307 -0.05595340696 -2.378679848e-17)
(1.291873393 -0.05315945026 5.564838533e-17)
(1.169667001 -0.04333396363 -2.255715539e-17)
(1.234061102 -0.03953136276 -5.63982572e-19)
(1.137720005 -0.03374665455 3.49449246e-18)
(1.18642787 -0.02876083069 -1.414288867e-17)
(1.109086585 -0.02614301158 7.187509468e-18)
(1.144886006 -0.01990266094 -7.617850097e-18)
(1.081451173 -0.0197827373 -5.359573186e-18)
(1.10682387 -0.01242640591 4.753724286e-19)
(1.052674452 -0.01401521295 -1.294760662e-17)
(1.071090616 -0.006169502693 4.518631068e-19)
(1.01886271 -0.008046666317 -3.146176412e-17)
(1.040072197 -0.001252728053 2.015058134e-17)
(0.9719565404 -0.0009871815326 -3.792921472e-17)
(2.088399257 -0.158047479 -5.580006862e-17)
(1.671447988 -0.1227986412 -5.49121111e-17)
(1.812780606 -0.110509754 -5.843615669e-17)
(1.456923241 -0.08343623769 -2.221860278e-17)
(1.616184959 -0.0794735932 -1.90704687e-17)
(1.337955183 -0.05982239466 -3.429675287e-17)
(1.474862358 -0.05825948813 7.512582634e-19)
(1.264370095 -0.04460320872 -2.336005025e-17)
(1.372572066 -0.04330258339 -8.777478684e-18)
(1.213045195 -0.03410774354 -1.111748196e-17)
(1.296643521 -0.03241022364 -1.302337973e-17)
(1.17357654 -0.02646524823 -4.330493994e-18)
(1.237616782 -0.02415841088 1.248725338e-17)
(1.140783651 -0.02064697891 -1.247148869e-17)
(1.189012975 -0.01763330997 1.827177638e-17)
(1.111431568 -0.01600998538 -6.924256804e-18)
(1.146640006 -0.01228364186 2.48136744e-18)
(1.082983604 -0.01206196638 3.639229664e-18)
(1.107953088 -0.007878689376 1.048316306e-18)
(1.052893771 -0.008270078215 5.367455767e-18)