/*--------------------------------*- C++ -*----------------------------------*\
| =========                 |                                                 |
| \\      /  F ield         | foam-extend: Open Source CFD                    |
|  \\    /   O peration     | Version:  3.0                                   |
|   \\  /    A nd           | Web:         http://www.extend-project.de       |
|    \\/     M anipulation  |                                                 |
\*---------------------------------------------------------------------------*/
FoamFile
{
    version     2.0;
    format      ascii;
    class       volVectorField;
    location    "7.9";
    object      s;
}
// * * * * * * * * * * * * * * * * * * * * * * * * * * * * * * * * * * * * * //

dimensions      [0 0 0 0 0 0 0];

internalField   nonuniform List<vector> 
400
(
(-0.0201238 0.0394098 1.13912e-317)
(-0.0337556 0.0565577 2.01342e-317)
(-0.0741502 0.0582875 2.29612e-317)
(-0.0952028 0.0481155 2.31614e-317)
(-0.125208 0.0407569 2.22391e-317)
(-0.142457 0.0301377 2.08461e-317)
(-0.161246 0.0228077 1.92987e-317)
(-0.171996 0.0143187 1.77588e-317)
(-0.180754 0.00761715 1.62699e-317)
(-0.18422 0.000155607 1.48952e-317)
(-0.183556 -0.0067192 1.36056e-317)
(-0.17916 -0.0144676 1.24383e-317)
(-0.168817 -0.0220972 1.13511e-317)
(-0.156219 -0.030804 1.03573e-317)
(-0.13571 -0.0388191 9.42007e-318)
(-0.115804 -0.0480067 8.5116e-318)
(-0.0857053 -0.0542372 7.57715e-318)
(-0.0626628 -0.0603522 6.50123e-318)
(-0.026951 -0.056147 5.01749e-318)
(-0.0129024 -0.0367056 2.56059e-318)
(-0.0221072 0.0231369 1.49604e-317)
(-0.0504058 0.0518304 2.93689e-317)
(-0.0955709 0.0634482 3.54437e-317)
(-0.128457 0.0623242 3.70846e-317)
(-0.166429 0.0554674 3.64882e-317)
(-0.193517 0.0449059 3.48258e-317)
(-0.219617 0.0335535 3.26797e-317)
(-0.236677 0.0214658 3.04146e-317)
(-0.249583 0.00955491 2.81332e-317)
(-0.255014 -0.00249901 2.59753e-317)
(-0.254307 -0.014498 2.39047e-317)
(-0.247388 -0.0265049 2.19907e-317)
(-0.232809 -0.0383531 2.01581e-317)
(-0.213594 -0.0495551 1.84337e-317)
(-0.185656 -0.0594618 1.6725e-317)
(-0.156104 -0.0666321 1.49957e-317)
(-0.117759 -0.0692822 1.30982e-317)
(-0.0838229 -0.064385 1.086e-317)
(-0.04251 -0.0482834 7.88342e-318)
(-0.0159119 -0.0185114 3.54992e-318)
(-0.0217779 0.0697732 1.38736e-317)
(-0.048302 0.123874 2.81467e-317)
(-0.0929118 0.14003 3.48323e-317)
(-0.124268 0.132037 3.72187e-317)
(-0.160267 0.116482 3.72698e-317)
(-0.186165 0.0941341 3.61116e-317)
(-0.210905 0.0715433 3.43285e-317)
(-0.227674 0.0472381 3.23083e-317)
(-0.24042 0.0235834 3.01844e-317)
(-0.246482 -0.000767108 2.81098e-317)
(-0.246661 -0.0250093 2.60711e-317)
(-0.241007 -0.0497566 2.41385e-317)
(-0.227896 -0.0743194 2.22457e-317)
(-0.21006 -0.0983178 2.04099e-317)
(-0.183501 -0.12004 1.85257e-317)
(-0.154784 -0.13782 1.65355e-317)
(-0.116923 -0.147461 1.42594e-317)
(-0.0828333 -0.145184 1.15088e-317)
(-0.04068 -0.12094 7.9525e-318)
(-0.0144478 -0.0628658 3.18784e-318)
(-0.0142739 0.0684018 1.09137e-317)
(-0.0369267 0.130673 2.27663e-317)
(-0.0678542 0.152732 2.88497e-317)
(-0.0929445 0.147653 3.15396e-317)
(-0.12035 0.131858 3.22495e-317)
(-0.141637 0.108122 3.18605e-317)
(-0.161876 0.0825664 3.08234e-317)
(-0.176476 0.0549569 2.94763e-317)
(-0.187928 0.0271788 2.794e-317)
(-0.194298 -0.00144502 2.63599e-317)
(-0.195868 -0.0304923 2.47396e-317)
(-0.19284 -0.0600203 2.31456e-317)
(-0.183446 -0.0896953 2.15274e-317)
(-0.17015 -0.118107 1.98949e-317)
(-0.149205 -0.144015 1.81491e-317)
(-0.126054 -0.163426 1.6217e-317)
(-0.0952947 -0.172967 1.39237e-317)
(-0.0663972 -0.164678 1.10608e-317)
(-0.0331733 -0.130954 7.39975e-318)
(-0.0094649 -0.0594803 2.67697e-318)
(-0.0117686 0.0847422 7.40901e-318)
(-0.0272164 0.158886 1.62233e-317)
(-0.0511092 0.183817 2.1336e-317)
(-0.0689633 0.178014 2.41533e-317)
(-0.0898656 0.159374 2.54655e-317)
(-0.105795 0.131621 2.58569e-317)
(-0.121775 0.101525 2.56201e-317)
(-0.133737 0.0687914 2.5017e-317)
(-0.14383 0.0356207 2.41507e-317)
(-0.150555 0.00104315 2.31532e-317)
(-0.153733 -0.0343931 2.20448e-317)
(-0.15394 -0.0709709 2.08941e-317)
(-0.148641 -0.108253 1.96738e-317)
(-0.14082 -0.144667 1.84009e-317)
(-0.125198 -0.178709 1.70018e-317)
(-0.108453 -0.205246 1.54152e-317)
(-0.0821637 -0.220395 1.34889e-317)
(-0.0589995 -0.213025 1.10228e-317)
(-0.0274972 -0.174538 7.72949e-318)
(-0.00897167 -0.0840558 3.17236e-318)
(-0.00701254 0.0829704 3.78979e-318)
(-0.0173199 0.158671 9.533e-318)
(-0.030821 0.185974 1.36347e-317)
(-0.0420082 0.18148 1.65152e-317)
(-0.0551877 0.163834 1.83712e-317)
(-0.0660532 0.136329 1.94965e-317)
(-0.0774408 0.106181 2.00332e-317)
(-0.08687 0.0728997 2.01654e-317)
(-0.0954938 0.038812 1.99756e-317)
(-0.10255 0.00277887 1.95781e-317)
(-0.107327 -0.0347033 1.90089e-317)
(-0.110788 -0.0740485 1.83349e-317)
(-0.109876 -0.114949 1.75541e-317)
(-0.107817 -0.155623 1.66882e-317)
(-0.0984172 -0.19463 1.56898e-317)
(-0.0886551 -0.225465 1.45065e-317)
(-0.0684581 -0.244089 1.30008e-317)
(-0.051387 -0.23552 1.09608e-317)
(-0.0235035 -0.191559 8.01815e-318)
(-0.00861374 -0.0872103 3.54869e-318)
(-0.00450235 0.0850953 8.30574e-319)
(-0.00946555 0.163167 3.98252e-318)
(-0.0162158 0.191541 7.17038e-318)
(-0.0215806 0.187955 1.00232e-317)
(-0.0288855 0.170762 1.22612e-317)
(-0.0352356 0.14335 1.39365e-317)
(-0.0427094 0.113123 1.50707e-317)
(-0.0496964 0.0793315 1.57794e-317)
(-0.0568391 0.0445281 1.61277e-317)
(-0.0639896 0.00714069 1.62132e-317)
(-0.0699878 -0.0321887 1.60816e-317)
(-0.0763935 -0.0744637 1.57992e-317)
(-0.0793265 -0.119181 1.53817e-317)
(-0.0829587 -0.16522 1.48563e-317)
(-0.0790221 -0.2105 1.41984e-317)
(-0.0766265 -0.248792 1.33671e-317)
(-0.0608037 -0.274268 1.22411e-317)
(-0.0504816 -0.270617 1.06078e-317)
(-0.0217638 -0.225696 8.03206e-318)
(-0.0118395 -0.108233 3.76692e-318)
(-0.00123511 0.0805714 -1.4618e-318)
(-0.00259633 0.15529 -3.8045e-319)
(-0.00181041 0.183818 2.01405e-318)
(-0.00223178 0.181189 4.74915e-318)
(-0.00341951 0.166009 7.21254e-318)
(-0.00560337 0.140432 9.26727e-318)
(-0.00895016 0.112298 1.08426e-317)
(-0.0133581 0.0802559 1.19955e-317)
(-0.0185864 0.0471188 1.27713e-317)
(-0.0252581 0.0108621 1.32507e-317)
(-0.0318587 -0.027816 1.34825e-317)
(-0.040357 -0.0704747 1.353e-317)
(-0.0466724 -0.116668 1.34192e-317)
(-0.0551576 -0.165907 1.31811e-317)
(-0.0569837 -0.216008 1.28021e-317)
(-0.0614012 -0.260723 1.2252e-317)
(-0.0515784 -0.293321 1.14178e-317)
(-0.0475571 -0.294525 1.01017e-317)
(-0.0207645 -0.249683 7.8398e-318)
(-0.0139994 -0.119206 3.84336e-318)
(0.00145821 0.0764393 -2.81491e-318)
(0.00326965 0.148082 -3.16668e-318)
(0.01001 0.17592 -1.44318e-318)
(0.0135643 0.174501 1.06163e-318)
(0.0174403 0.161037 3.55471e-318)
(0.0188617 0.137548 5.77246e-318)
(0.019316 0.111603 7.58371e-318)
(0.0175418 0.0816617 8.99701e-318)
(0.0145739 0.0506263 1.00395e-317)
(0.00898598 0.0160695 1.07729e-317)
(0.00265541 -0.0211538 1.12429e-317)
(-0.00706057 -0.063432 1.15046e-317)
(-0.0156491 -0.110003 1.1587e-317)
(-0.0284619 -0.161937 1.15167e-317)
(-0.0351235 -0.215945 1.12869e-317)
(-0.0471092 -0.268218 1.08682e-317)
(-0.0425534 -0.308395 1.01585e-317)
(-0.0474398 -0.319651 8.98534e-318)
(-0.0201429 -0.2777 6.92865e-318)
(-0.0203518 -0.140351 3.34148e-318)
(0.00378806 0.0689068 -3.50671e-318)
(0.00802337 0.134515 -4.79393e-318)
(0.0202533 0.161293 -3.62954e-318)
(0.0273907 0.160861 -1.42829e-318)
(0.0361476 0.14975 9.58344e-319)
(0.0411354 0.128955 3.19146e-318)
(0.0455495 0.106077 5.09922e-318)
(0.0468066 0.0792019 6.65215e-318)
(0.0466895 0.0513445 7.85653e-318)
(0.0431482 0.0197802 8.75625e-318)
(0.0381141 -0.0146234 9.38967e-318)
(0.0287867 -0.0548244 9.80248e-318)
(0.0190889 -0.10018 1.00207e-317)
(0.0041013 -0.152863 1.00666e-317)
(-0.0070028 -0.209651 9.92973e-318)
(-0.0241609 -0.268099 9.58251e-318)
(-0.0269541 -0.316932 8.92662e-318)
(-0.0382753 -0.338424 7.82025e-318)
(-0.0172238 -0.303352 5.92393e-318)
(-0.020388 -0.158686 2.76524e-318)
(0.00651117 0.0623025 -3.59822e-318)
(0.0119873 0.121933 -5.39865e-318)
(0.0289693 0.146608 -4.68996e-318)
(0.0385052 0.147208 -2.83997e-318)
(0.0513858 0.137862 -6.67754e-319)
(0.0592758 0.119804 1.4529e-318)
(0.0673525 0.0998028 3.33065e-318)
(0.071569 0.0761276 4.90558e-318)
(0.0745939 0.0516343 6.16691e-318)
(0.0736289 0.0234836 7.13996e-318)
(0.0708508 -0.00736293 7.85263e-318)
(0.0629132 -0.044531 8.33849e-318)
(0.0536484 -0.087041 8.61844e-318)
(0.0373117 -0.138916 8.70459e-318)
(0.0234299 -0.195681 8.58386e-318)
(0.000136453 -0.258993 8.22374e-318)
(-0.00872366 -0.312867 7.53713e-318)
(-0.0314198 -0.346422 6.40841e-318)
(-0.0134792 -0.316024 4.61356e-318)
(-0.0284984 -0.172842 1.91444e-318)
(0.00766748 0.052442 -3.3034e-318)
(0.0148801 0.105386 -5.32262e-318)
(0.0351511 0.128325 -4.98561e-318)
(0.0473073 0.1299 -3.49852e-318)
(0.0637407 0.122585 -1.59832e-318)
(0.0746608 0.107293 3.38806e-319)
(0.0862679 0.0903489 2.11048e-318)
(0.0937315 0.0700627 3.63694e-318)
(0.100206 0.0491729 4.88975e-318)
(0.102645 0.0248809 5.87864e-318)
(0.103033 -0.00192237 6.62164e-318)
(0.0983121 -0.0350789 7.14228e-318)
(0.0909615 -0.0738118 7.45421e-318)
(0.0765548 -0.123057 7.56438e-318)
(0.0610648 -0.17879 7.45405e-318)
(0.0366868 -0.244744 7.09206e-318)
(0.0197141 -0.305048 6.39938e-318)
(-0.00730352 -0.3508 5.2845e-318)
(-0.00428629 -0.33369 3.62391e-318)
(-0.0205483 -0.195839 1.32793e-318)
(0.00969212 0.0456197 -2.989e-318)
(0.0164113 0.0912556 -5.04106e-318)
(0.0395195 0.11114 -4.94737e-318)
(0.0527171 0.113156 -3.75968e-318)
(0.0719202 0.107091 -2.1183e-318)
(0.0848773 0.0943245 -3.82614e-319)
(0.0993849 0.0800477 1.24982e-318)
(0.109516 0.0630058 2.68541e-318)
(0.119189 0.0455731 3.88725e-318)
(0.124901 0.0251676 4.852e-318)
(0.128874 0.0026786 5.58798e-318)
(0.12774 -0.0258909 6.10943e-318)
(0.123708 -0.0595259 6.42392e-318)
(0.111685 -0.104356 6.5322e-318)
(0.0970894 -0.155463 6.41532e-318)
(0.0702329 -0.22055 6.04024e-318)
(0.048636 -0.279733 5.34611e-318)
(0.00966104 -0.333432 4.25975e-318)
(0.00541369 -0.318611 2.74179e-318)
(-0.0294591 -0.190006 8.16626e-319)
(0.00944813 0.0350198 -2.34541e-318)
(0.0172342 0.0747165 -4.29377e-318)
(0.0413491 0.092308 -4.4183e-318)
(0.0562967 0.095004 -3.5346e-318)
(0.0775316 0.0902583 -2.17878e-318)
(0.0925859 0.079827 -6.79637e-319)
(0.1095 0.0680913 7.6973e-319)
(0.122156 0.0540885 2.07148e-318)
(0.134761 0.0399009 3.17862e-318)
(0.143963 0.0232405 4.07947e-318)
(0.151777 0.0048984 4.77368e-318)
(0.155552 -0.0188754 5.26962e-318)
(0.155908 -0.0472425 5.57086e-318)
(0.149852 -0.0865108 5.67578e-318)
(0.137592 -0.13248 5.56647e-318)
(0.115884 -0.194524 5.21574e-318)
(0.0879873 -0.254476 4.57595e-318)
(0.0511955 -0.317425 3.5939e-318)
(0.0225887 -0.319596 2.27255e-318)
(-0.00698836 -0.215053 6.54084e-319)
(0.00971482 0.0293836 -2.32196e-318)
(0.0156374 0.0613742 -4.05092e-318)
(0.0400412 0.0753706 -4.18857e-318)
(0.0548244 0.077654 -3.44299e-318)
(0.0768906 0.073631 -2.27118e-318)
(0.0926083 0.0652192 -9.5245e-319)
(0.110641 0.0556901 3.41128e-319)
(0.124546 0.0444794 1.51705e-318)
(0.138943 0.0331847 2.52847e-318)
(0.15044 0.0199632 3.35888e-318)
(0.161381 0.00547693 4.00515e-318)
(0.168965 -0.0135507 4.47009e-318)
(0.174038 -0.0362871 4.75519e-318)
(0.172757 -0.0687943 4.85611e-318)
(0.165407 -0.106896 4.75924e-318)
(0.145834 -0.161215 4.4414e-318)
(0.11851 -0.212716 3.87386e-318)
(0.0725675 -0.272588 3.01855e-318)
(0.0374125 -0.270155 1.89999e-318)
(-0.0177068 -0.175119 5.55399e-319)
(0.00804285 0.0201338 -1.4364e-318)
(0.0142108 0.0473117 -3.00377e-318)
(0.0380134 0.0584466 -3.29399e-318)
(0.0535095 0.0608751 -2.8052e-318)
(0.0760612 0.0575282 -1.89317e-318)
(0.0922188 0.0509341 -8.17565e-319)
(0.110819 0.0434348 2.67255e-319)
(0.125365 0.0346801 1.26827e-318)
(0.14089 0.0259936 2.13832e-318)
(0.154253 0.0157979 2.85701e-318)
(0.167807 0.00478815 3.41887e-318)
(0.179673 -0.009897 3.82401e-318)
(0.189472 -0.0273185 4.07202e-318)
(0.195921 -0.0531367 4.16031e-318)
(0.194092 -0.0835075 4.07893e-318)
(0.1857 -0.129896 3.8132e-318)
(0.15699 -0.175402 3.34397e-318)
(0.124386 -0.238287 2.64852e-318)
(0.0598635 -0.251816 1.74539e-318)
(0.026089 -0.202427 6.27009e-319)
(0.00568059 0.0163202 -1.88745e-318)
(0.00925446 0.0354985 -3.03575e-318)
(0.0303452 0.0429109 -3.14991e-318)
(0.0442619 0.0442784 -2.6551e-318)
(0.0647126 0.0415614 -1.85649e-318)
(0.0794094 0.0367188 -9.34614e-319)
(0.0961588 0.0311128 -1.32755e-320)
(0.109468 0.0247003 8.37066e-319)
(0.12387 0.0181809 1.57857e-318)
(0.136738 0.0106253 2.19367e-318)
(0.150642 0.00235492 2.67727e-318)
(0.163472 -0.00846811 3.02932e-318)
(0.17615 -0.0213827 3.24868e-318)
(0.185651 -0.0401543 3.33311e-318)
(0.190178 -0.0624344 3.27599e-318)
(0.185593 -0.0960464 3.06835e-318)
(0.165463 -0.128925 2.70421e-318)
(0.128566 -0.173086 2.17255e-318)
(0.0709229 -0.174213 1.48506e-318)
(0.0068111 -0.11683 6.06861e-319)
(0.00285487 0.0101359 -5.12934e-319)
(0.00644169 0.0252348 -1.67601e-318)
(0.0265917 0.0296206 -1.97317e-318)
(0.0395481 0.0307525 -1.75674e-318)
(0.0589598 0.028478 -1.2131e-318)
(0.0715982 0.025028 -5.4863e-319)
(0.0868476 0.0211705 1.40744e-319)
(0.0982016 0.0166557 7.82338e-319)
(0.111344 0.0123182 1.34524e-318)
(0.123318 0.00703367 1.81188e-318)
(0.137025 0.0016263 2.17827e-318)
(0.151184 -0.00586676 2.44351e-318)
(0.165825 -0.0141118 2.60813e-318)
(0.180951 -0.0271367 2.67095e-318)
(0.190456 -0.0412282 2.62734e-318)
(0.199109 -0.0661744 2.47356e-318)
(0.18283 -0.0882849 2.20623e-318)
(0.171496 -0.132306 1.82216e-318)
(0.0891034 -0.142996 1.32087e-318)
(0.0769188 -0.15368 6.35003e-319)
(-0.00108582 0.00754022 -1.31999e-318)
(-0.000216999 0.0136778 -1.7769e-318)
(0.0126208 0.0152328 -1.7668e-318)
(0.0212324 0.0155033 -1.47243e-318)
(0.0333647 0.014322 -1.05635e-318)
(0.0416724 0.0127497 -5.87044e-319)
(0.0507969 0.0105784 -1.2491e-319)
(0.0580323 0.00819218 3.01207e-319)
(0.0660239 0.00539889 6.72399e-319)
(0.0735663 0.0022161 9.80725e-319)
(0.0826898 -0.00152655 1.22409e-318)
(0.0917486 -0.00610094 1.40285e-318)
(0.103004 -0.0116745 1.5162e-318)
(0.112884 -0.0187766 1.5642e-318)
(0.123475 -0.0275301 1.54486e-318)
(0.12823 -0.0383619 1.45642e-318)
(0.125621 -0.05058 1.30355e-318)
(0.109243 -0.0609182 1.08909e-318)
(0.0676871 -0.0600252 8.105e-319)
(0.0216996 -0.0167156 4.18276e-319)
(-0.00234628 0.00394539 3.79477e-319)
(0.000405504 0.00813369 -2.73031e-319)
(0.0113869 0.0078745 -4.36018e-319)
(0.0161608 0.00795004 -4.29719e-319)
(0.0254814 0.00708554 -2.67877e-319)
(0.0289711 0.00611885 -7.33342e-320)
(0.035438 0.00547223 1.33413e-319)
(0.0385937 0.00437375 3.22111e-319)
(0.0439309 0.00388671 4.86551e-319)
(0.0482572 0.00270553 6.21115e-319)
(0.0542755 0.00226179 7.25901e-319)
(0.0612508 0.000650745 8.01888e-319)
(0.0690239 0.00015702 8.49333e-319)
(0.079819 -0.00277187 8.68884e-319)
(0.0880487 -0.00330016 8.59126e-319)
(0.102461 -0.010298 8.19072e-319)
(0.100882 -0.0102443 7.4926e-319)
(0.116402 -0.0319065 6.51598e-319)
(0.0641012 -0.0288379 5.32889e-319)
(0.101286 -0.0916988 3.5635e-319)
)
;

boundaryField
{
    cavity
    {
        type            myHeatFlux;
        ThetaWall       uniform 0;
        value           nonuniform List<vector> 
60
(
(0.001 0 0)
(0.001 0 0)
(0.001 0 0)
(0.001 0 0)
(0.001 0 0)
(0.001 0 0)
(0.001 0 0)
(0.001 0 0)
(0.001 0 0)
(0.001 0 0)
(0.001 0 0)
(0.001 0 0)
(0.001 0 0)
(0.001 0 0)
(0.001 0 0)
(0.001 0 0)
(0.001 0 0)
(0.001 0 0)
(0.001 0 0)
(0.001 0 0)
(0 -0.001 0)
(0 -0.001 0)
(0 -0.001 0)
(0 -0.001 0)
(0 -0.001 0)
(0 -0.001 0)
(0 -0.001 0)
(0 -0.001 0)
(0 -0.001 0)
(0 -0.001 0)
(0 -0.001 0)
(0 -0.001 0)
(0 -0.001 0)
(0 -0.001 0)
(0 -0.001 0)
(0 -0.001 0)
(0 -0.001 0)
(0 -0.001 0)
(0 -0.001 0)
(0 -0.001 0)
(-0.001 0 0)
(-0.001 0 0)
(-0.001 0 0)
(-0.001 0 0)
(-0.001 0 0)
(-0.001 0 0)
(-0.001 0 0)
(-0.001 0 0)
(-0.001 0 0)
(-0.001 0 0)
(-0.001 0 0)
(-0.001 0 0)
(-0.001 0 0)
(-0.001 0 0)
(-0.001 0 0)
(-0.001 0 0)
(-0.001 0 0)
(-0.001 0 0)
(-0.001 0 0)
(-0.001 0 0)
)
;
    }
    lid
    {
        type            myHeatFlux;
        ThetaWall       uniform 0;
        value           nonuniform List<vector> 
20
(
(0.000135815 0.0009 0)
(0.000135815 0.0009 0)
(0.000135815 0.0009 0)
(0.000135815 0.0009 0)
(0.000135815 0.0009 0)
(0.000135815 0.0009 0)
(0.000135815 0.0009 0)
(0.000135815 0.0009 0)
(0.000135815 0.0009 0)
(0.000135815 0.0009 0)
(0.000135815 0.0009 0)
(0.000135815 0.0009 0)
(0.000135815 0.0009 0)
(0.000135815 0.0009 0)
(0.000135815 0.0009 0)
(0.000135815 0.0009 0)
(0.000135815 0.0009 0)
(0.000135815 0.0009 0)
(0.000135815 0.0009 0)
(0.000135815 0.0009 0)
)
;
    }
    frontAndBack
    {
        type            empty;
    }
}


// ************************************************************************* //
