/*--------------------------------*- C++ -*----------------------------------*\
| =========                 |                                                 |
| \\      /  F ield         | foam-extend: Open Source CFD                    |
|  \\    /   O peration     | Version:  3.0                                   |
|   \\  /    A nd           | Web:         http://www.extend-project.de       |
|    \\/     M anipulation  |                                                 |
\*---------------------------------------------------------------------------*/
FoamFile
{
    version     2.0;
    format      ascii;
    class       volSymmTensorField;
    location    "7.9";
    object      sigma;
}
// * * * * * * * * * * * * * * * * * * * * * * * * * * * * * * * * * * * * * //

dimensions      [0 0 0 0 0 0 0];

internalField   nonuniform List<symmTensor> 
400
(
(0.782193 0.357489 2.7851e-316 -1.07546 3.10766e-316 0.293269)
(1.43075 -0.0326106 2.77033e-316 -0.949626 3.27308e-316 -0.481128)
(1.70757 -0.526385 2.62152e-316 -0.871375 3.14931e-316 -0.836195)
(1.62797 -0.857518 2.43969e-316 -0.708092 2.9084e-316 -0.919878)
(1.50422 -1.22084 2.22605e-316 -0.616873 2.61248e-316 -0.887351)
(1.24617 -1.45867 2.02519e-316 -0.476302 2.3278e-316 -0.769871)
(1.01273 -1.67713 1.82672e-316 -0.385566 2.04186e-316 -0.627164)
(0.722119 -1.81783 1.64839e-316 -0.26408 1.79949e-316 -0.458039)
(0.456282 -1.91834 1.48198e-316 -0.171401 1.56378e-316 -0.284881)
(0.15491 -1.96725 1.3325e-316 -0.0553798 1.37533e-316 -0.0995297)
(-0.134196 -1.96712 1.19642e-316 0.0464402 1.19007e-316 0.0877557)
(-0.451091 -1.92519 1.07142e-316 0.168348 1.04723e-316 0.282742)
(-0.757034 -1.82554 9.58957e-317 0.282563 9.02644e-317 0.474471)
(-1.07504 -1.68966 8.49866e-317 0.413701 7.93079e-317 0.661337)
(-1.35244 -1.48065 7.52209e-317 0.531445 6.78881e-317 0.820997)
(-1.60332 -1.25242 6.48363e-317 0.663334 5.91177e-317 0.939982)
(-1.72521 -0.922151 5.55491e-317 0.758208 4.99563e-317 0.966999)
(-1.73341 -0.615977 4.48827e-317 0.86911 4.24636e-317 0.864296)
(-1.41204 -0.180099 3.5547e-317 0.902496 3.47283e-317 0.509542)
(-0.725049 0.179319 2.53816e-317 0.942159 2.65653e-317 -0.21711)
(0.487884 0.300407 1.67462e-316 -1.20623 2.18145e-316 0.718343)
(1.0075 0.0861058 1.75034e-316 -1.18192 2.66376e-316 0.174416)
(1.1977 -0.195953 1.71677e-316 -1.06753 2.74066e-316 -0.130174)
(1.2185 -0.422075 1.64541e-316 -0.945778 2.6165e-316 -0.272718)
(1.12836 -0.654121 1.54564e-316 -0.80789 2.39284e-316 -0.32047)
(0.971474 -0.821775 1.44312e-316 -0.663006 2.14901e-316 -0.308467)
(0.793389 -0.969663 1.33685e-316 -0.5279 1.89335e-316 -0.265489)
(0.57972 -1.06078 1.23593e-316 -0.377488 1.66803e-316 -0.202232)
(0.370613 -1.12482 1.13822e-316 -0.240684 1.44986e-316 -0.12993)
(0.135177 -1.14059 1.04638e-316 -0.08486 1.27137e-316 -0.050317)
(-0.0922346 -1.12851 9.59781e-317 0.0612126 1.10003e-316 0.031022)
(-0.338447 -1.07656 8.77378e-317 0.224797 9.65902e-317 0.11365)
(-0.574348 -0.998259 8.00893e-317 0.383101 8.3529e-317 0.191247)
(-0.809306 -0.892251 7.25331e-317 0.549311 7.36444e-317 0.259995)
(-1.01977 -0.761022 6.55675e-317 0.712151 6.38497e-317 0.307621)
(-1.18065 -0.623518 5.81545e-317 0.858979 5.65307e-317 0.321674)
(-1.27696 -0.455837 5.11806e-317 1.00101 4.91537e-317 0.275957)
(-1.22242 -0.317954 4.31063e-317 1.0829 4.30026e-317 0.139526)
(-1.00659 -0.135267 3.50538e-317 1.14875 3.60631e-317 -0.142164)
(-0.465388 -0.035344 2.61108e-317 1.0966 2.74242e-317 -0.631209)
(0.451793 0.683565 7.28288e-317 -1.30859 1.40518e-316 0.856795)
(0.830658 0.44521 8.79535e-317 -1.21091 2.11003e-316 0.380249)
(0.965466 0.211591 9.47806e-317 -1.07904 2.32802e-316 0.113576)
(0.950956 -0.00177912 9.7849e-317 -0.923367 2.293e-316 -0.0275894)
(0.88346 -0.202204 9.77658e-317 -0.787928 2.13378e-316 -0.0955314)
(0.76155 -0.352844 9.61417e-317 -0.644076 1.93308e-316 -0.117475)
(0.638102 -0.480572 9.30749e-317 -0.524185 1.71476e-316 -0.113917)
(0.484731 -0.555494 8.93492e-317 -0.391029 1.51417e-316 -0.0937023)
(0.338927 -0.601859 8.49919e-317 -0.273235 1.32129e-316 -0.0656921)
(0.167697 -0.600432 8.03757e-317 -0.135627 1.15815e-316 -0.0320691)
(-0.000907789 -0.57199 7.55913e-317 -0.00113311 1.00505e-316 0.0020409)
(-0.190977 -0.505649 7.07127e-317 0.15509 8.80608e-317 0.0358864)
(-0.384658 -0.422025 6.59434e-317 0.320709 7.63821e-317 0.0639492)
(-0.582867 -0.316751 6.10445e-317 0.499268 6.71972e-317 0.083599)
(-0.780474 -0.210419 5.63705e-317 0.695025 5.86496e-317 0.0854489)
(-0.936516 -0.104893 5.12923e-317 0.87549 5.22295e-317 0.061026)
(-1.05838 -0.0121924 4.6221e-317 1.06675 4.64974e-317 -0.00836984)
(-1.04321 0.0597797 4.01455e-317 1.18826 4.21727e-317 -0.145046)
(-0.894497 0.121273 3.30433e-317 1.28466 3.73207e-317 -0.390159)
(-0.437115 0.162718 2.39784e-317 1.24282 2.93043e-317 -0.805706)
(0.249838 0.819223 -2.45825e-317 -0.938242 5.93574e-317 0.688404)
(0.53214 0.616059 -7.45614e-319 -0.899324 1.49404e-316 0.367184)
(0.633164 0.412259 1.78052e-317 -0.799529 1.83948e-316 0.166365)
(0.653977 0.221549 3.17126e-317 -0.703714 1.89615e-316 0.0497365)
(0.615064 0.0522016 4.19804e-317 -0.601391 1.80796e-316 -0.0136728)
(0.551131 -0.0745437 4.9028e-317 -0.508451 1.66197e-316 -0.04268)
(0.477794 -0.174766 5.35591e-317 -0.425967 1.48914e-316 -0.0518274)
(0.387747 -0.22391 5.60571e-317 -0.339681 1.32333e-316 -0.0480664)
(0.301224 -0.248503 5.69765e-317 -0.263049 1.16095e-316 -0.0381745)
(0.193871 -0.221023 5.67027e-317 -0.16953 1.02058e-316 -0.0243405)
(0.0878313 -0.177281 5.5566e-317 -0.0770858 8.8873e-317 -0.0107455)
(-0.0428309 -0.087264 5.38032e-317 0.0413573 7.80006e-317 0.00147357)
(-0.179124 0.000793891 5.17264e-317 0.171336 6.79178e-317 0.0077879)
(-0.332118 0.119621 4.94327e-317 0.326538 6.00012e-317 0.00558068)
(-0.492959 0.206307 4.73226e-317 0.505701 5.2899e-317 -0.0127419)
(-0.629491 0.296108 4.53686e-317 0.683967 4.79773e-317 -0.054476)
(-0.753874 0.3212 4.41574e-317 0.88825 4.42285e-317 -0.134377)
(-0.748971 0.313378 4.33487e-317 1.01852 4.29338e-317 -0.269549)
(-0.658714 0.238859 4.35841e-317 1.14527 4.2801e-317 -0.486553)
(-0.285981 0.103025 4.20525e-317 1.09671 4.33908e-317 -0.810725)
(0.240341 1.01202 -8.68038e-317 -0.873835 -1.99156e-318 0.633494)
(0.438861 0.808172 -5.93705e-317 -0.778058 9.39192e-317 0.339197)
(0.510682 0.628343 -3.38271e-317 -0.678367 1.35688e-316 0.167685)
(0.505812 0.425607 -1.29634e-317 -0.575032 1.48484e-316 0.0692197)
(0.491045 0.263829 3.84349e-318 -0.504989 1.46242e-316 0.0139446)
(0.446251 0.128461 1.65404e-317 -0.432211 1.3717e-316 -0.0140393)
(0.419045 0.0324995 2.58776e-317 -0.392337 1.24803e-316 -0.0267076)
(0.3692 -0.0195848 3.24326e-317 -0.339867 1.1204e-316 -0.0293333)
(0.335626 -0.0366816 3.67731e-317 -0.307879 9.92154e-317 -0.0277468)
(0.274125 -0.00530699 3.94212e-317 -0.250712 8.76265e-317 -0.0234134)
(0.216621 0.0523487 4.08077e-317 -0.196174 7.66569e-317 -0.020447)
(0.122656 0.155591 4.12792e-317 -0.10315 6.71407e-317 -0.0195054)
(0.0157298 0.263349 4.1228e-317 0.00971314 5.82346e-317 -0.0254429)
(-0.12789 0.405831 4.08491e-317 0.16824 5.0638e-317 -0.0403499)
(-0.296738 0.50805 4.06302e-317 0.369202 4.35757e-317 -0.0724647)
(-0.468375 0.625564 4.06404e-317 0.597152 3.77318e-317 -0.128776)
(-0.648494 0.634859 4.16095e-317 0.874264 3.26999e-317 -0.22577)
(-0.718229 0.636732 4.3296e-317 1.10088 2.94922e-317 -0.38265)
(-0.700798 0.479368 4.65368e-317 1.33574 2.92137e-317 -0.63494)
(-0.351974 0.303432 4.90793e-317 1.38565 3.6018e-317 -1.03368)
(0.126962 1.17503 -1.34315e-316 -0.625317 -5.14138e-317 0.498355)
(0.23697 0.932487 -1.05494e-316 -0.509275 4.42221e-317 0.272305)
(0.293444 0.719404 -7.52548e-317 -0.430809 8.98248e-317 0.137365)
(0.29247 0.502889 -4.94013e-317 -0.351931 1.0836e-316 0.0594609)
(0.304331 0.326308 -2.7603e-317 -0.320208 1.12058e-316 0.0158767)
(0.293898 0.19185 -1.05808e-317 -0.287105 1.0843e-316 -0.00679289)
(0.307249 0.0929026 2.57334e-318 -0.289621 1.00845e-316 -0.017628)
(0.304314 0.0504081 1.22871e-317 -0.283008 9.20043e-317 -0.021306)
(0.320088 0.0382099 1.92884e-317 -0.298024 8.24953e-317 -0.022064)
(0.311216 0.0883898 2.40902e-317 -0.289578 7.34936e-317 -0.0216379)
(0.310064 0.160588 2.72002e-317 -0.286927 6.46944e-317 -0.0231364)
(0.266002 0.296779 2.90031e-317 -0.23802 5.67871e-317 -0.0279816)
(0.215811 0.432012 2.98708e-317 -0.175452 4.92017e-317 -0.0403588)
(0.102375 0.623918 3.00742e-317 -0.03873 4.24679e-317 -0.0636453)
(-0.0249901 0.761579 2.99564e-317 0.131093 3.60136e-317 -0.106103)
(-0.211879 0.930937 2.97329e-317 0.389204 3.03823e-317 -0.177325)
(-0.387593 0.95613 2.98372e-317 0.683836 2.53282e-317 -0.296243)
(-0.535123 0.965385 3.0367e-317 1.02374 2.19027e-317 -0.488612)
(-0.558045 0.754412 3.18777e-317 1.35644 2.13591e-317 -0.798392)
(-0.310532 0.4784 3.3741e-317 1.59544 2.68026e-317 -1.28491)
(0.0998514 1.29791 -1.44999e-316 -0.480551 -7.7038e-317 0.3807)
(0.146847 1.03255 -1.19947e-316 -0.34167 6.90612e-318 0.194823)
(0.190206 0.79607 -9.07379e-317 -0.282752 5.11705e-317 0.0925459)
(0.180671 0.562039 -6.47365e-317 -0.21694 7.26983e-317 0.0362682)
(0.21712 0.369409 -4.23192e-317 -0.222973 8.08541e-317 0.00585233)
(0.225344 0.219999 -2.43567e-317 -0.21587 8.1763e-317 -0.00947424)
(0.275849 0.109963 -1.0229e-317 -0.259041 7.84537e-317 -0.016808)
(0.304601 0.0526747 5.22781e-319 -0.2852 7.32112e-317 -0.0194007)
(0.364387 0.0348448 8.51683e-318 -0.343552 6.68461e-317 -0.0208345)
(0.394246 0.0733169 1.42829e-317 -0.372144 6.03085e-317 -0.022102)
(0.439986 0.151492 1.82904e-317 -0.413509 5.36171e-317 -0.0264769)
(0.432271 0.287921 2.09106e-317 -0.39735 4.72391e-317 -0.0349207)
(0.419584 0.450915 2.25028e-317 -0.367088 4.09042e-317 -0.0524952)
(0.320045 0.66843 2.32756e-317 -0.237538 3.48791e-317 -0.082507)
(0.195266 0.863115 2.35692e-317 -0.0598788 2.88206e-317 -0.135387)
(-0.0309811 1.09563 2.34534e-317 0.253251 2.29447e-317 -0.22227)
(-0.269267 1.19772 2.33958e-317 0.637358 1.7168e-317 -0.368091)
(-0.521975 1.3066 2.33955e-317 1.12883 1.21956e-317 -0.606856)
(-0.645588 1.15834 2.42745e-317 1.64905 9.87361e-318 -1.00346)
(-0.429311 1.00027 2.64103e-317 2.09034 1.48681e-317 -1.66103)
(0.0112004 1.4106 -1.45288e-316 -0.204022 -8.97936e-317 0.192822)
(-0.00821377 1.08677 -1.2467e-316 -0.0798587 -1.92854e-317 0.0880724)
(0.01479 0.797373 -9.81011e-317 -0.0470758 2.12382e-317 0.0322858)
(0.0110109 0.546195 -7.34813e-317 -0.0143179 4.38341e-317 0.00330693)
(0.0596309 0.326106 -5.16255e-317 -0.0489863 5.49219e-317 -0.0106447)
(0.0924463 0.17223 -3.37521e-317 -0.0758495 5.92578e-317 -0.0165968)
(0.165217 0.0456957 -1.93824e-317 -0.146861 5.92946e-317 -0.0183563)
(0.227643 -0.0138339 -8.27439e-318 -0.2094 5.69973e-317 -0.0182431)
(0.319317 -0.0412139 1.40863e-319 -0.301127 5.32008e-317 -0.01819)
(0.391955 0.00144097 6.28195e-318 -0.372545 4.87753e-317 -0.0194109)
(0.482782 0.0837692 1.05673e-317 -0.458633 4.38838e-317 -0.0241481)
(0.524018 0.244368 1.33071e-317 -0.489767 3.89492e-317 -0.0342505)
(0.569568 0.439634 1.47583e-317 -0.515438 3.38481e-317 -0.05413)
(0.509941 0.719233 1.50888e-317 -0.421144 2.8794e-317 -0.0887967)
(0.445732 0.988281 1.44203e-317 -0.296734 2.3548e-317 -0.148998)
(0.21509 1.32882 1.28192e-317 0.0345409 1.822e-317 -0.249631)
(0.0128823 1.53911 1.03403e-317 0.406689 1.26737e-317 -0.419571)
(-0.330338 1.76768 7.1957e-318 1.03325 7.18074e-318 -0.702917)
(-0.469174 1.69924 3.70941e-318 1.64801 2.65504e-318 -1.17884)
(-0.387915 1.56503 1.88388e-318 2.35481 5.91085e-319 -1.96689)
(-0.0455809 1.43817 -1.23302e-316 0.0645543 -8.67422e-317 -0.0189734)
(-0.110158 1.10281 -1.0953e-316 0.145716 -3.42234e-317 -0.0355577)
(-0.0952533 0.78904 -8.89429e-317 0.133129 -4.81368e-320 -0.0378756)
(-0.0909795 0.528826 -6.87117e-317 0.126407 2.15253e-317 -0.0354273)
(-0.027736 0.291553 -5.02186e-317 0.0587961 3.3994e-317 -0.03106)
(0.0221749 0.123368 -3.4604e-317 0.00430372 4.0564e-317 -0.0264787)
(0.115668 -0.0205055 -2.18185e-317 -0.0933791 4.30932e-317 -0.0222894)
(0.200783 -0.103004 -1.16839e-317 -0.18195 4.31293e-317 -0.0188327)
(0.32249 -0.147939 -3.86178e-318 -0.30535 4.14803e-317 -0.0171403)
(0.42709 -0.133784 1.98748e-318 -0.409539 3.88908e-317 -0.0175515)
(0.560705 -0.0604134 6.17082e-318 -0.53829 3.56377e-317 -0.0224147)
(0.642491 0.0763673 8.92776e-318 -0.609452 3.20843e-317 -0.0330389)
(0.738275 0.290728 1.04663e-317 -0.683606 2.82451e-317 -0.054669)
(0.713213 0.572382 1.08648e-317 -0.62114 2.42761e-317 -0.092073)
(0.680671 0.918548 1.02266e-317 -0.522605 2.00572e-317 -0.158067)
(0.438833 1.32248 8.45528e-318 -0.170155 1.5576e-317 -0.268678)
(0.195735 1.69554 5.57245e-318 0.262949 1.06829e-317 -0.458684)
(-0.254708 2.09576 1.58477e-318 1.03486 5.17434e-318 -0.780155)
(-0.527749 2.26679 -3.31704e-318 1.8633 -6.91939e-319 -1.33555)
(-0.533454 2.45512 -6.81958e-318 2.83405 -6.58358e-318 -2.30059)
(-0.121738 1.42078 -1.03021e-316 0.38278 -7.81844e-317 -0.261042)
(-0.236132 1.05894 -9.4432e-317 0.407065 -4.02798e-317 -0.170933)
(-0.251874 0.719877 -7.9045e-317 0.364405 -1.26982e-317 -0.112531)
(-0.237032 0.462078 -6.2841e-317 0.312831 6.69667e-318 -0.0757992)
(-0.178864 0.21014 -4.73805e-317 0.230646 1.92041e-317 -0.0517821)
(-0.112676 0.0400695 -3.39629e-317 0.148833 2.68085e-317 -0.036157)
(-0.017535 -0.121161 -2.26889e-317 0.0428907 3.07839e-317 -0.0253556)
(0.0870458 -0.215285 -1.36149e-317 -0.0688922 3.23209e-317 -0.0181536)
(0.21793 -0.279871 -6.50023e-318 -0.204114 3.21284e-317 -0.0138158)
(0.35165 -0.279645 -1.14667e-318 -0.338967 3.08557e-317 -0.012683)
(0.50836 -0.218392 2.6722e-318 -0.492337 2.88168e-317 -0.0160227)
(0.634795 -0.0804459 5.11974e-318 -0.608941 2.63548e-317 -0.0258539)
(0.775702 0.151532 6.30994e-318 -0.729208 2.3566e-317 -0.0464935)
(0.807546 0.481079 6.29559e-318 -0.723494 2.06144e-317 -0.0840512)
(0.845392 0.911033 5.01959e-318 -0.694696 1.74733e-317 -0.150696)
(0.643837 1.45065 2.44019e-318 -0.378688 1.41335e-317 -0.265149)
(0.482895 2.00448 -1.73837e-318 -0.019434 1.04151e-317 -0.463461)
(-0.00616228 2.63421 -7.33218e-318 0.810816 5.82852e-318 -0.804654)
(-0.228325 3.03457 -1.47295e-317 1.62592 -5.48561e-319 -1.3976)
(-0.38716 3.39492 -2.14019e-317 2.79922 -1.16076e-317 -2.41206)
(-0.199422 1.33222 -7.46026e-317 0.711938 -6.41998e-317 -0.512516)
(-0.335202 0.993629 -7.16284e-317 0.641631 -4.1017e-317 -0.306429)
(-0.359764 0.663945 -6.24528e-317 0.545147 -2.02453e-317 -0.185383)
(-0.328953 0.41128 -5.1203e-317 0.443364 -3.78915e-318 -0.114411)
(-0.271565 0.158132 -3.98235e-317 0.343069 8.0133e-318 -0.0715039)
(-0.194938 -0.0220774 -2.94118e-317 0.240344 1.5968e-317 -0.0454067)
(-0.0979335 -0.196936 -2.04111e-317 0.126624 2.08379e-317 -0.028691)
(0.0169833 -0.315066 -1.29304e-317 0.000941645 2.34482e-317 -0.017925)
(0.159302 -0.402302 -6.93398e-318 -0.147962 2.43866e-317 -0.0113394)
(0.312012 -0.43897 -2.30537e-318 -0.303623 2.42004e-317 -0.00838883)
(0.497797 -0.401662 1.07972e-318 -0.487511 2.32174e-317 -0.0102861)
(0.660275 -0.30916 3.32822e-318 -0.641867 2.17586e-317 -0.0184082)
(0.853929 -0.0817479 4.53237e-318 -0.816465 1.99804e-317 -0.0374634)
(0.938939 0.211134 4.71213e-318 -0.866175 1.80541e-317 -0.072764)
(1.04093 0.701657 3.87104e-318 -0.903693 1.60285e-317 -0.137234)
(0.87689 1.25803 1.92098e-318 -0.628259 1.38995e-317 -0.248631)
(0.727092 2.00826 -1.29529e-318 -0.282071 1.15035e-317 -0.445022)
(0.165805 2.80004 -5.76334e-318 0.621528 8.20469e-318 -0.787333)
(-0.207883 3.57537 -1.18381e-317 1.60844 2.58442e-318 -1.40056)
(-0.555211 4.39798 -1.80477e-317 3.07484 -8.73812e-318 -2.51963)
(-0.250295 1.16437 -5.67757e-317 0.981755 -4.9901e-317 -0.73146)
(-0.433283 0.857107 -5.60324e-317 0.859333 -3.59972e-317 -0.42605)
(-0.493812 0.553946 -5.01918e-317 0.742178 -2.12506e-317 -0.248365)
(-0.457423 0.328844 -4.20992e-317 0.604132 -8.19725e-318 -0.146709)
(-0.414072 0.0851209 -3.34137e-317 0.501248 2.03368e-318 -0.0871768)
(-0.330436 -0.0917701 -2.52533e-317 0.382577 9.4449e-318 -0.0521406)
(-0.244963 -0.275486 -1.79737e-317 0.27517 1.43689e-317 -0.0302074)
(-0.124733 -0.408021 -1.18236e-317 0.141084 1.7328e-317 -0.0163513)
(0.00584137 -0.51565 -6.79364e-318 0.00144395 1.87784e-317 -0.00728532)
(0.169033 -0.577331 -2.86809e-318 -0.166667 1.91641e-317 -0.00236552)
(0.348024 -0.564642 2.35472e-320 -0.346221 1.87929e-317 -0.00180318)
(0.539328 -0.495644 1.93878e-318 -0.531935 1.79558e-317 -0.00739323)
(0.744535 -0.277373 2.91624e-318 -0.721925 1.68344e-317 -0.0226093)
(0.892353 0.0270563 2.99322e-318 -0.839041 1.5609e-317 -0.0533117)
(1.0443 0.573029 2.10746e-318 -0.934048 1.43829e-317 -0.110249)
(0.976434 1.24609 3.05698e-319 -0.765158 1.32038e-317 -0.211276)
(0.934651 2.1939 -2.67089e-318 -0.544524 1.19388e-317 -0.390127)
(0.450619 3.28161 -6.58818e-318 0.255134 1.00467e-317 -0.705754)
(0.226054 4.40526 -1.19855e-317 1.04331 5.69641e-318 -1.26936)
(-0.209125 5.54845 -1.81802e-317 2.46485 -5.34919e-318 -2.25572)
(-0.330601 1.00342 -3.92005e-317 1.26372 -3.99335e-317 -0.93312)
(-0.503472 0.73821 -4.01319e-317 1.02737 -3.41785e-317 -0.523903)
(-0.5765 0.474901 -3.71733e-317 0.873151 -2.36888e-317 -0.296651)
(-0.525482 0.26284 -3.19632e-317 0.695689 -1.29755e-317 -0.170207)
(-0.495426 0.0347037 -2.60368e-317 0.593488 -3.71152e-318 -0.0980624)
(-0.409735 -0.14473 -2.0159e-317 0.466233 3.4396e-318 -0.0564979)
(-0.335395 -0.331252 -1.47392e-317 0.366401 8.51156e-318 -0.0310059)
(-0.217107 -0.477566 -9.9789e-318 0.232 1.18358e-317 -0.0148931)
(-0.0927806 -0.601938 -5.97018e-318 0.0968942 1.37743e-317 -0.00411354)
(0.0712464 -0.692709 -2.73871e-318 -0.0738782 1.47115e-317 0.00263176)
(0.256811 -0.709983 -2.74305e-319 -0.262077 1.49357e-317 0.00526632)
(0.465507 -0.691451 1.45271e-318 -0.468145 1.47163e-317 0.00263712)
(0.707327 -0.506005 2.48793e-318 -0.698704 1.42417e-317 -0.00862312)
(0.907902 -0.271683 2.87514e-318 -0.874841 1.36905e-317 -0.0330617)
(1.14084 0.281089 2.66393e-318 -1.06032 1.31792e-317 -0.0805131)
(1.15541 0.889986 1.91237e-318 -0.990197 1.27716e-317 -0.165218)
(1.19574 1.98194 6.43698e-319 -0.878939 1.23532e-317 -0.316798)
(0.702741 3.10023 -1.05214e-318 -0.117313 1.14914e-317 -0.585428)
(0.350878 4.6165 -3.29377e-318 0.73021 8.60476e-318 -1.08109)
(-0.428424 6.1624 -6.71234e-318 2.47619 8.38237e-319 -2.04777)
(-0.347339 0.728901 -3.14724e-317 1.39795 -2.70029e-317 -1.05061)
(-0.575395 0.548242 -3.07471e-317 1.15904 -2.54499e-317 -0.583641)
(-0.675215 0.360788 -2.76195e-317 0.999331 -1.91507e-317 -0.324116)
(-0.628615 0.191097 -2.38583e-317 0.810633 -1.13814e-317 -0.182017)
(-0.606842 -0.00460944 -1.96362e-317 0.709312 -3.99386e-318 -0.102469)
(-0.520054 -0.174868 -1.5507e-317 0.577481 1.97621e-318 -0.0574275)
(-0.458791 -0.354647 -1.15271e-317 0.488793 6.34335e-318 -0.0300021)
(-0.345625 -0.507658 -7.93177e-318 0.358288 9.28406e-318 -0.0126631)
(-0.246486 -0.640441 -4.79562e-318 0.247003 1.10669e-317 -0.000517103)
(-0.0919653 -0.751713 -2.20491e-318 0.0842413 1.19968e-317 0.00772403)
(0.0578435 -0.792907 -1.86712e-319 -0.0705655 1.23185e-317 0.0127221)
(0.267994 -0.809006 1.25728e-318 -0.281142 1.22582e-317 0.013148)
(0.475165 -0.657108 2.14046e-318 -0.482085 1.19887e-317 0.00691956)
(0.720849 -0.452743 2.52516e-318 -0.71051 1.16703e-317 -0.0103386)
(0.946403 0.0962002 2.42689e-318 -0.901146 1.14223e-317 -0.0452578)
(1.09518 0.754263 2.01373e-318 -0.985619 1.13275e-317 -0.109562)
(1.20627 1.97908 1.27081e-318 -0.98354 1.12952e-317 -0.222729)
(0.9556 3.37997 4.67426e-319 -0.534754 1.10866e-317 -0.420846)
(0.824576 5.28209 -4.91057e-319 -0.0546854 9.39296e-318 -0.769891)
(0.202319 7.30213 -2.63421e-318 1.15953 4.11565e-318 -1.36185)
(-0.406793 0.570447 -2.3504e-317 1.53409 -3.05251e-317 -1.1273)
(-0.586872 0.410876 -2.2259e-317 1.19254 -3.11689e-317 -0.605665)
(-0.70172 0.261433 -1.94867e-317 1.03068 -2.45544e-317 -0.328964)
(-0.646092 0.102609 -1.7072e-317 0.827532 -1.61272e-317 -0.18144)
(-0.641076 -0.0727468 -1.44587e-317 0.741598 -8.50436e-318 -0.100522)
(-0.558547 -0.233328 -1.17903e-317 0.613915 -2.38421e-318 -0.0553685)
(-0.511591 -0.402651 -9.05679e-318 0.539658 2.07267e-318 -0.028067)
(-0.409293 -0.549211 -6.41835e-318 0.419939 5.17966e-318 -0.0106463)
(-0.327423 -0.683267 -4.00732e-318 0.32551 7.20628e-318 0.0019132)
(-0.189848 -0.801519 -1.92524e-318 0.17871 8.4595e-318 0.0111382)
(-0.0563716 -0.865392 -2.30388e-319 0.0386026 9.16152e-318 0.017769)
(0.142662 -0.916232 1.06517e-318 -0.163637 9.51435e-318 0.0209744)
(0.355045 -0.816324 1.98918e-318 -0.374087 9.66639e-318 0.0190418)
(0.624564 -0.691168 2.61152e-318 -0.633532 9.75267e-318 0.00896794)
(0.916838 -0.209547 3.0399e-318 -0.902764 9.85989e-318 -0.0140732)
(1.15436 0.307724 3.41966e-318 -1.09744 1.00499e-317 -0.0569231)
(1.41153 1.52927 3.96625e-318 -1.28118 1.02283e-317 -0.130345)
(1.20757 2.72644 4.74813e-318 -0.956122 1.02276e-317 -0.251443)
(1.05632 4.84705 6.06692e-318 -0.594685 9.30354e-318 -0.461635)
(-0.146521 6.8566 6.357e-318 1.06581 6.96393e-318 -0.919285)
(-0.394922 0.266002 -1.05282e-317 1.48809 -1.23955e-317 -1.09317)
(-0.63864 0.21927 -9.74824e-318 1.21775 -1.75383e-317 -0.57911)
(-0.749222 0.181467 -8.56627e-318 1.05838 -1.47353e-317 -0.309158)
(-0.701978 0.0644883 -8.61967e-318 0.87011 -9.16753e-318 -0.168132)
(-0.68691 -0.057509 -8.21694e-318 0.779002 -3.79702e-318 -0.0920922)
(-0.601922 -0.201957 -7.29745e-318 0.652122 5.49668e-319 -0.0501995)
(-0.562387 -0.342292 -5.87862e-318 0.587221 3.69608e-318 -0.0248333)
(-0.469549 -0.479055 -4.21451e-318 0.478039 5.84694e-318 -0.00849032)
(-0.417848 -0.59827 -2.52473e-318 0.414039 7.20285e-318 0.00380904)
(-0.304687 -0.716495 -9.73112e-319 0.291347 7.98281e-318 0.0133406)
(-0.225209 -0.786201 3.36192e-319 0.203998 8.353e-318 0.0212107)
(-0.0544332 -0.857396 1.36408e-318 0.0278954 8.46165e-318 0.0265378)
(0.0825239 -0.795445 2.10675e-318 -0.111123 8.4251e-318 0.0285993)
(0.356048 -0.717188 2.63177e-318 -0.380874 8.3461e-318 0.0248263)
(0.563678 -0.302393 2.99674e-318 -0.576901 8.29517e-318 0.0132225)
(0.927218 0.178815 3.38596e-318 -0.91723 8.32573e-318 -0.00998763)
(1.1338 1.3855 3.90138e-318 -1.0895 8.35584e-318 -0.0443064)
(1.34806 2.75293 4.71931e-318 -1.26219 8.31762e-318 -0.0858629)
(1.34979 5.15361 5.97161e-318 -1.24536 7.78447e-318 -0.104424)
(0.851051 7.85413 6.49932e-318 -0.874417 6.78011e-318 0.023365)
(-0.398395 0.173638 -2.30011e-318 1.39481 -3.25191e-317 -0.996415)
(-0.547759 0.0842844 -3.71327e-318 1.05693 -3.27722e-317 -0.509172)
(-0.669183 0.0330744 -4.3602e-318 0.935766 -2.51372e-317 -0.266583)
(-0.620622 -0.0780005 -5.58139e-318 0.764046 -1.60771e-317 -0.143424)
(-0.619248 -0.195668 -6.03734e-318 0.697371 -9.58185e-318 -0.078123)
(-0.546539 -0.312682 -5.76015e-318 0.589047 -4.72179e-318 -0.0425083)
(-0.518186 -0.435662 -4.89373e-318 0.539022 -1.39995e-318 -0.0208359)
(-0.443209 -0.543762 -3.69203e-318 0.449856 9.55785e-319 -0.00664677)
(-0.40885 -0.649392 -2.39376e-318 0.404414 2.57939e-318 0.00443619)
(-0.323232 -0.750951 -1.14921e-318 0.30973 3.7135e-318 0.0135025)
(-0.268498 -0.82838 -5.87296e-320 0.246901 4.49552e-318 0.0215972)
(-0.133639 -0.909971 8.47016e-319 0.105515 5.04269e-318 0.028124)
(-0.017697 -0.901035 1.58203e-318 -0.0150015 5.43352e-318 0.0326985)
(0.227354 -0.887455 2.2131e-318 -0.261044 5.73564e-318 0.0336901)
(0.45965 -0.602476 2.85149e-318 -0.490085 5.98017e-318 0.0304351)
(0.839135 -0.297537 3.61716e-318 -0.861549 6.18956e-318 0.0224144)
(1.20811 0.696182 4.72797e-318 -1.22495 6.2989e-318 0.0168371)
(1.42146 1.61809 6.1238e-318 -1.45597 6.24095e-318 0.0345122)
(1.64345 3.82261 8.09807e-318 -1.78032 5.99023e-318 0.136863)
(0.194669 5.6078 9.5734e-318 -0.561959 6.24448e-318 0.36729)
(-0.36347 -0.0948729 2.79885e-317 1.15207 8.04754e-318 -0.7886)
(-0.582956 -0.0605951 1.8587e-317 0.97818 -4.52779e-318 -0.395224)
(-0.644812 0.0359932 9.20454e-318 0.848999 -4.734e-318 -0.204187)
(-0.596318 -0.0388411 3.32152e-318 0.705639 -1.8296e-318 -0.10932)
(-0.567046 -0.0683303 -2.81944e-319 0.626622 9.39584e-319 -0.0595758)
(-0.484277 -0.162531 -1.66972e-318 0.516917 3.0655e-318 -0.0326392)
(-0.461514 -0.224552 -1.93194e-318 0.477517 4.57406e-318 -0.0160029)
(-0.394404 -0.306774 -1.47629e-318 0.399327 5.57709e-318 -0.00492317)
(-0.390386 -0.366987 -7.50451e-319 0.386235 6.19656e-318 0.0041505)
(-0.332446 -0.43945 5.06516e-320 0.320578 6.52574e-318 0.0118682)
(-0.334336 -0.488242 7.80569e-319 0.315061 6.64488e-318 0.019275)
(-0.244163 -0.544609 1.39142e-318 0.218373 6.61989e-318 0.02579)
(-0.221924 -0.54203 1.86717e-318 0.190389 6.50565e-318 0.0315343)
(-0.018933 -0.528411 2.25701e-318 -0.0162918 6.34832e-318 0.0352248)
(0.0658013 -0.328252 2.61027e-318 -0.103256 6.17114e-318 0.0374545)
(0.505106 -0.077271 3.05866e-318 -0.543853 5.98909e-318 0.0387472)
(0.650039 0.719337 3.66204e-318 -0.700568 5.7359e-318 0.0505295)
(1.39052 1.64155 4.47043e-318 -1.4939 5.36426e-318 0.103377)
(1.4138 3.77945 5.44647e-318 -1.73176 4.89342e-318 0.31796)
(1.66223 6.6123 6.1348e-318 -2.79705 4.75293e-318 1.13482)
(-0.238153 -0.0858041 1.46699e-317 0.74897 -3.29254e-317 -0.510817)
(-0.289678 -0.189269 7.91527e-318 0.538913 -2.62952e-317 -0.249235)
(-0.361726 -0.229955 2.29998e-318 0.4894 -1.87517e-317 -0.127674)
(-0.330795 -0.291962 -7.68895e-319 0.399318 -1.1769e-317 -0.0685236)
(-0.322976 -0.370437 -2.20485e-318 0.360614 -8.12844e-318 -0.0376381)
(-0.278767 -0.417127 -2.61563e-318 0.299746 -5.61135e-318 -0.0209784)
(-0.264466 -0.481997 -2.44498e-318 0.274894 -3.99791e-318 -0.0104273)
(-0.227769 -0.524136 -1.96921e-318 0.231027 -2.77637e-318 -0.00325817)
(-0.22447 -0.578522 -1.37985e-318 0.221554 -1.84412e-318 0.00291621)
(-0.193687 -0.629335 -7.80021e-319 0.185329 -1.08476e-318 0.0083573)
(-0.1944 -0.683319 -2.3435e-319 0.180537 -4.61497e-319 0.0138634)
(-0.144724 -0.747918 2.42186e-319 0.125711 5.91298e-320 0.0190126)
(-0.12485 -0.789165 6.58422e-319 0.100799 4.88255e-319 0.024051)
(-0.00323559 -0.843314 1.0551e-318 -0.0249446 8.36646e-319 0.0281802)
(0.0855288 -0.789699 1.50131e-318 -0.117689 1.10673e-318 0.0321605)
(0.358488 -0.736287 2.04281e-318 -0.395171 1.29755e-318 0.0366837)
(0.612271 -0.318709 2.79289e-318 -0.663532 1.41872e-318 0.0512606)
(0.975124 0.0280471 3.61363e-318 -1.07607 1.474e-318 0.100943)
(1.54788 1.36285 4.5458e-318 -1.82749 1.62867e-318 0.279612)
(0.204198 1.88597 5.32188e-318 -0.972081 2.45324e-318 0.767883)
(-0.119348 -0.354372 4.28463e-317 0.287414 3.62889e-317 -0.168067)
(-0.297215 -0.247526 2.78603e-317 0.381841 1.4031e-317 -0.0846254)
(-0.24599 -0.0409992 1.22362e-317 0.289722 8.57757e-318 -0.0437323)
(-0.201783 -0.0570846 5.9259e-318 0.225663 6.38177e-318 -0.0238807)
(-0.168315 0.0423179 2.17838e-318 0.181702 6.46681e-318 -0.0133866)
(-0.107064 0.0135739 8.76705e-319 0.114803 6.76539e-318 -0.00773951)
(-0.108168 0.06576 3.21449e-319 0.112142 7.24449e-318 -0.00397451)
(-0.0739906 0.0515812 2.90763e-319 0.0753571 7.58301e-318 -0.00136647)
(-0.100718 0.0864721 4.08978e-319 0.0996712 7.8094e-318 0.00104697)
(-0.0875961 0.0956907 5.98017e-319 0.084368 7.88722e-318 0.00322804)
(-0.135623 0.125601 7.69932e-319 0.130057 7.84938e-318 0.00556679)
(-0.122609 0.170023 9.06008e-319 0.114769 7.7135e-318 0.0078397)
(-0.188806 0.204737 9.90616e-319 0.178561 7.50443e-318 0.0102458)
(-0.128285 0.309299 1.04591e-318 0.115853 7.24286e-318 0.0124322)
(-0.20538 0.368441 1.07992e-318 0.190547 6.92268e-318 0.0148334)
(0.0379942 0.579832 1.16073e-318 -0.055545 6.54018e-318 0.0175509)
(-0.0517441 0.724745 1.2933e-318 0.0271762 6.04086e-318 0.0245679)
(0.761285 1.12836 1.49616e-318 -0.807939 5.36808e-318 0.0466535)
(0.501228 1.63334 1.6565e-318 -0.649953 4.60088e-318 0.148725)
(2.14965 3.48106 1.72888e-318 -2.93544 3.66999e-318 0.785789)
)
;

boundaryField
{
    cavity
    {
        type            mySigma;
    }
    lid
    {
        type            fixedValue;
        value           uniform (0.1 -0.3 0 -0.1 0 0);
    }
    frontAndBack
    {
        type            empty;
    }
}


// ************************************************************************* //
