/*--------------------------------*- C++ -*----------------------------------*\
| =========                 |                                                 |
| \\      /  F ield         | foam-extend: Open Source CFD                    |
|  \\    /   O peration     | Version:  3.0                                   |
|   \\  /    A nd           | Web:         http://www.extend-project.de       |
|    \\/     M anipulation  |                                                 |
\*---------------------------------------------------------------------------*/
FoamFile
{
    version     2.0;
    format      ascii;
    class       volScalarField;
    location    "7.9";
    object      Theta;
}
// * * * * * * * * * * * * * * * * * * * * * * * * * * * * * * * * * * * * * //

dimensions      [0 0 0 0 0 0 0];

internalField   nonuniform List<scalar> 
400
(
0.336927
-0.165173
-0.205511
-0.291967
-0.210913
-0.182304
-0.0850889
-0.0271046
0.063767
0.127917
0.214234
0.276534
0.361632
0.410336
0.487493
0.493211
0.532049
0.420425
0.334856
-0.114402
1.00547
0.595868
0.493977
0.330388
0.319539
0.246964
0.251379
0.210954
0.211667
0.179588
0.173696
0.136938
0.12468
0.0712674
0.0506541
-0.0386084
-0.0820402
-0.250527
-0.37279
-0.728084
0.78091
0.39537
0.335244
0.211199
0.220152
0.177296
0.194939
0.177037
0.191346
0.179827
0.191503
0.178004
0.188965
0.163791
0.170692
0.112807
0.0970638
-0.0435726
-0.138365
-0.48455
0.774616
0.523379
0.44705
0.340133
0.324465
0.27116
0.266108
0.231033
0.225476
0.196696
0.191909
0.164023
0.162727
0.128162
0.126996
0.0669037
0.0440001
-0.084682
-0.189315
-0.455579
0.55711
0.328887
0.295183
0.214928
0.222529
0.190723
0.203078
0.187915
0.20077
0.193496
0.212162
0.210032
0.240322
0.236294
0.276235
0.24604
0.270558
0.152073
0.085162
-0.24681
0.473004
0.325757
0.29671
0.239539
0.240401
0.211924
0.215819
0.197838
0.204035
0.194121
0.210438
0.209985
0.245172
0.250518
0.305323
0.292787
0.340489
0.237452
0.184649
-0.172637
0.323346
0.214488
0.211318
0.174513
0.18424
0.166731
0.175664
0.166366
0.179439
0.179749
0.208562
0.223095
0.281318
0.308838
0.40342
0.416883
0.523189
0.423457
0.421974
-0.0624985
0.226912
0.19367
0.197758
0.182638
0.185701
0.171292
0.170901
0.158355
0.162667
0.158827
0.181524
0.195514
0.253724
0.289887
0.395517
0.431108
0.561325
0.485897
0.501398
-0.0252161
0.113144
0.146352
0.159561
0.163524
0.161107
0.150911
0.14385
0.130858
0.130003
0.124823
0.145991
0.161333
0.227373
0.272612
0.406882
0.462082
0.656016
0.590814
0.693627
0.0373054
0.0138337
0.125578
0.147339
0.170662
0.160366
0.151036
0.132185
0.112579
0.0976227
0.0820408
0.0870254
0.0920706
0.141629
0.18427
0.305936
0.378568
0.567368
0.547093
0.641061
0.028932
-0.0737361
0.117905
0.134164
0.175851
0.152105
0.144186
0.112419
0.0867072
0.0579376
0.0311334
0.0210914
0.0125123
0.0506793
0.0836391
0.213046
0.290978
0.539492
0.542475
0.784545
0.104839
-0.162856
0.0926293
0.123562
0.180579
0.152991
0.144863
0.102155
0.0673698
0.0208776
-0.022674
-0.0589539
-0.0897799
-0.0880895
-0.0748994
0.00695519
0.0891793
0.277827
0.351398
0.516068
0.0564552
-0.214896
0.108118
0.123314
0.197051
0.155861
0.149523
0.0934838
0.0502329
-0.0141882
-0.0758734
-0.137217
-0.195316
-0.223721
-0.242342
-0.179525
-0.116708
0.117094
0.220883
0.614757
0.203079
-0.272213
0.0838094
0.121308
0.20509
0.167256
0.160776
0.0971668
0.0440396
-0.038656
-0.120973
-0.214288
-0.304227
-0.38445
-0.440792
-0.459258
-0.412948
-0.306604
-0.114966
0.0793955
0.117673
-0.269354
0.118644
0.137049
0.234651
0.188281
0.184918
0.110751
0.0488421
-0.0518702
-0.155243
-0.277803
-0.403646
-0.526654
-0.634979
-0.698716
-0.705602
-0.581025
-0.374143
0.131379
0.355265
-0.26397
0.121656
0.164374
0.265967
0.227282
0.222985
0.143826
0.0720368
-0.0448339
-0.168916
-0.322242
-0.483239
-0.661819
-0.820924
-0.984324
-1.03524
-1.09481
-0.814669
-0.675862
0.210344
-0.178513
0.187119
0.214172
0.324566
0.282124
0.279952
0.192364
0.111848
-0.0203939
-0.163963
-0.343668
-0.54077
-0.764234
-0.986274
-1.21338
-1.35333
-1.43792
-1.19474
-0.720603
0.450228
-0.0666253
0.264722
0.306367
0.411854
0.372047
0.363469
0.269802
0.178527
0.0345884
-0.125667
-0.32642
-0.553084
-0.81935
-1.09493
-1.41174
-1.62888
-1.90858
-1.67912
-1.72179
0.15128
0.128269
0.385244
0.417396
0.522342
0.476779
0.463607
0.360488
0.259569
0.104656
-0.0696092
-0.287119
-0.540517
-0.840766
-1.17432
-1.55708
-1.8861
-2.24828
-2.14464
-2.02088
0.105809
0.407355
0.608286
0.627857
0.707634
0.645761
0.609129
0.496336
0.37963
0.222455
0.0375177
-0.179371
-0.449025
-0.756301
-1.13472
-1.55365
-2.00139
-2.47466
-2.61493
-2.90613
-0.679059
)
;

boundaryField
{
    cavity
    {
        type            implicitExtrapolation;
    }
    lid
    {
        type            implicitExtrapolation;
    }
    frontAndBack
    {
        type            empty;
    }
}


// ************************************************************************* //
