/*--------------------------------*- C++ -*----------------------------------*\
| =========                 |                                                 |
| \\      /  F ield         | foam-extend: Open Source CFD                    |
|  \\    /   O peration     | Version:  3.0                                   |
|   \\  /    A nd           | Web:         http://www.extend-project.de       |
|    \\/     M anipulation  |                                                 |
\*---------------------------------------------------------------------------*/
FoamFile
{
    version     2.0;
    format      ascii;
    class       volScalarField;
    location    "14";
    object      p;
}
// * * * * * * * * * * * * * * * * * * * * * * * * * * * * * * * * * * * * * //

dimensions      [0 0 0 0 0 0 0];

internalField   nonuniform List<scalar> 
7680
(
-0.232018
-0.219855
-0.210785
-0.201259
-0.19426
-0.186681
-0.18122
-0.175123
-0.170835
-0.16589
-0.162513
-0.158482
-0.155822
-0.152523
-0.150433
-0.147726
-0.146089
-0.143862
-0.142583
-0.140744
-0.139744
-0.138214
-0.137424
-0.136134
-0.135492
-0.134379
-0.133828
-0.132832
-0.132316
-0.13138
-0.130842
-0.129908
-0.129291
-0.128297
-0.127538
-0.12642
-0.125452
-0.124137
-0.122885
-0.121292
-0.231799
-0.219649
-0.210589
-0.201072
-0.19408
-0.186508
-0.181053
-0.174962
-0.170679
-0.165739
-0.162366
-0.158339
-0.155683
-0.152388
-0.1503
-0.147597
-0.145961
-0.143737
-0.14246
-0.140623
-0.139625
-0.138097
-0.137309
-0.13602
-0.13538
-0.134268
-0.133719
-0.132725
-0.132209
-0.131275
-0.130738
-0.129805
-0.129188
-0.128195
-0.127437
-0.126319
-0.125352
-0.124038
-0.122786
-0.121193
-0.231291
-0.219169
-0.21013
-0.200636
-0.19366
-0.186107
-0.180665
-0.174588
-0.170315
-0.165388
-0.162023
-0.158006
-0.155356
-0.152069
-0.149987
-0.147291
-0.14566
-0.143442
-0.142168
-0.140337
-0.139341
-0.137817
-0.137032
-0.135747
-0.135109
-0.134
-0.133453
-0.132461
-0.131948
-0.131016
-0.130481
-0.12955
-0.128935
-0.127944
-0.127188
-0.126072
-0.125107
-0.123795
-0.122546
-0.120956
-0.230576
-0.218493
-0.209482
-0.200017
-0.193064
-0.185534
-0.18011
-0.174052
-0.169793
-0.164882
-0.161528
-0.157524
-0.154883
-0.151607
-0.149531
-0.146844
-0.145219
-0.143008
-0.141739
-0.139913
-0.138922
-0.137403
-0.136621
-0.13534
-0.134705
-0.1336
-0.133054
-0.132066
-0.131554
-0.130625
-0.130092
-0.129164
-0.128551
-0.127563
-0.126809
-0.125696
-0.124734
-0.123426
-0.122181
-0.120597
-0.229574
-0.217544
-0.208574
-0.199152
-0.19223
-0.184734
-0.179334
-0.173304
-0.169064
-0.164175
-0.160837
-0.156851
-0.154223
-0.150962
-0.148896
-0.146221
-0.144604
-0.142404
-0.141141
-0.139324
-0.138338
-0.136826
-0.136048
-0.134774
-0.134142
-0.133042
-0.132499
-0.131516
-0.131007
-0.130082
-0.129551
-0.128627
-0.128017
-0.127033
-0.126282
-0.125175
-0.124217
-0.122915
-0.121676
-0.120101
-0.228365
-0.2164
-0.207478
-0.198105
-0.19122
-0.183765
-0.178394
-0.172396
-0.168179
-0.163316
-0.159996
-0.156032
-0.153417
-0.150174
-0.14812
-0.145459
-0.143851
-0.141663
-0.140407
-0.1386
-0.13762
-0.136116
-0.135342
-0.134075
-0.133446
-0.132353
-0.131813
-0.130835
-0.130328
-0.129408
-0.12888
-0.127961
-0.127353
-0.126375
-0.125628
-0.124527
-0.123573
-0.12228
-0.121048
-0.119484
-0.226872
-0.214986
-0.206123
-0.196814
-0.189975
-0.182569
-0.177234
-0.171277
-0.167088
-0.162258
-0.15896
-0.155023
-0.152427
-0.149205
-0.147165
-0.144523
-0.142926
-0.140753
-0.139506
-0.137712
-0.136738
-0.135245
-0.134477
-0.133218
-0.132594
-0.131508
-0.130972
-0.13
-0.129497
-0.128583
-0.128058
-0.127145
-0.126542
-0.12557
-0.124827
-0.123734
-0.122787
-0.121503
-0.12028
-0.118729
-0.225176
-0.213379
-0.204584
-0.195344
-0.188557
-0.181207
-0.175912
-0.17
-0.165843
-0.16105
-0.157777
-0.153869
-0.151293
-0.148096
-0.146072
-0.143449
-0.141865
-0.139708
-0.138471
-0.13669
-0.135724
-0.134242
-0.133479
-0.13223
-0.131611
-0.130533
-0.130001
-0.129037
-0.128537
-0.12763
-0.127109
-0.126202
-0.125603
-0.124638
-0.123901
-0.122816
-0.121877
-0.120604
-0.119392
-0.117856
-0.223198
-0.211507
-0.202789
-0.193632
-0.186906
-0.179621
-0.174374
-0.168515
-0.164395
-0.159645
-0.156401
-0.152529
-0.149976
-0.146808
-0.144802
-0.142203
-0.140633
-0.138496
-0.13727
-0.135506
-0.134548
-0.13308
-0.132325
-0.131087
-0.130473
-0.129405
-0.128877
-0.127922
-0.127426
-0.126527
-0.12601
-0.125112
-0.124518
-0.123562
-0.122831
-0.121757
-0.120826
-0.119566
-0.118366
-0.116847
-0.221022
-0.209445
-0.200813
-0.191746
-0.185085
-0.177872
-0.172676
-0.166874
-0.162796
-0.158092
-0.15488
-0.151046
-0.148518
-0.145381
-0.143395
-0.140822
-0.139268
-0.137152
-0.135938
-0.134191
-0.133243
-0.131789
-0.131041
-0.129815
-0.129207
-0.128149
-0.127627
-0.12668
-0.126189
-0.125299
-0.124787
-0.123897
-0.123308
-0.122362
-0.121638
-0.120575
-0.119654
-0.118408
-0.117221
-0.115721
-0.218568
-0.207121
-0.198586
-0.18962
-0.183035
-0.175903
-0.170766
-0.165029
-0.160996
-0.156345
-0.15317
-0.14938
-0.14688
-0.143779
-0.141816
-0.139272
-0.137735
-0.135643
-0.134443
-0.132716
-0.131779
-0.130341
-0.129602
-0.12839
-0.127789
-0.126743
-0.126226
-0.12529
-0.124805
-0.123924
-0.123417
-0.122538
-0.121955
-0.12102
-0.120304
-0.119254
-0.118344
-0.117113
-0.115942
-0.114461
-0.215921
-0.204613
-0.196181
-0.187325
-0.180819
-0.173774
-0.1687
-0.163033
-0.159049
-0.154455
-0.151319
-0.147574
-0.145105
-0.142042
-0.140102
-0.13759
-0.136071
-0.134005
-0.13282
-0.131113
-0.130187
-0.128768
-0.128037
-0.126839
-0.126246
-0.125212
-0.124701
-0.123777
-0.123297
-0.122427
-0.121926
-0.121057
-0.120481
-0.119557
-0.118851
-0.117814
-0.116915
-0.115701
-0.114546
-0.113087
-0.213002
-0.201848
-0.193531
-0.184795
-0.178379
-0.17143
-0.166425
-0.160835
-0.156906
-0.152375
-0.149282
-0.145589
-0.143153
-0.140132
-0.138219
-0.135741
-0.134244
-0.132206
-0.131037
-0.129354
-0.128441
-0.127041
-0.12632
-0.125139
-0.124553
-0.123534
-0.12303
-0.122118
-0.121645
-0.120786
-0.120292
-0.119435
-0.118867
-0.117956
-0.117259
-0.116237
-0.115352
-0.114157
-0.113018
-0.111582
-0.209894
-0.198903
-0.190709
-0.182101
-0.175778
-0.168931
-0.163999
-0.158492
-0.15462
-0.150155
-0.147107
-0.143468
-0.141069
-0.138092
-0.136207
-0.133765
-0.13229
-0.130282
-0.12913
-0.127471
-0.126572
-0.125192
-0.124481
-0.123318
-0.12274
-0.121735
-0.121239
-0.12034
-0.119873
-0.119027
-0.11854
-0.117695
-0.117135
-0.116238
-0.115552
-0.114546
-0.113674
-0.112498
-0.111378
-0.109966
-0.206522
-0.195709
-0.187647
-0.179178
-0.172958
-0.166221
-0.16137
-0.155951
-0.152143
-0.14775
-0.144752
-0.141172
-0.138812
-0.135883
-0.134029
-0.131627
-0.130176
-0.1282
-0.127068
-0.125436
-0.124551
-0.123193
-0.122495
-0.12135
-0.120782
-0.119793
-0.119304
-0.11842
-0.117961
-0.117129
-0.116649
-0.115818
-0.115268
-0.114386
-0.113711
-0.112722
-0.111865
-0.110709
-0.109609
-0.108222
-0.202968
-0.192342
-0.184419
-0.176096
-0.169983
-0.163363
-0.158595
-0.15327
-0.149527
-0.145211
-0.142264
-0.138746
-0.136426
-0.133548
-0.131726
-0.129366
-0.12794
-0.125998
-0.124885
-0.123281
-0.122411
-0.121077
-0.12039
-0.119265
-0.118706
-0.117735
-0.117254
-0.116385
-0.115933
-0.115115
-0.114644
-0.113828
-0.113287
-0.11242
-0.111757
-0.110786
-0.109945
-0.108811
-0.107731
-0.106371
-0.199158
-0.188731
-0.180958
-0.172792
-0.166795
-0.1603
-0.155622
-0.150398
-0.146726
-0.142491
-0.139601
-0.136149
-0.133874
-0.13105
-0.129263
-0.126947
-0.125548
-0.123643
-0.122551
-0.120978
-0.120125
-0.118816
-0.118142
-0.117038
-0.11649
-0.115537
-0.115066
-0.114213
-0.113769
-0.112967
-0.112505
-0.111704
-0.111174
-0.110324
-0.109674
-0.108722
-0.107898
-0.106787
-0.105729
-0.104396
-0.195173
-0.184956
-0.177338
-0.169336
-0.163459
-0.157094
-0.15251
-0.147391
-0.143793
-0.139643
-0.13681
-0.133428
-0.131198
-0.128431
-0.12668
-0.12441
-0.123039
-0.121173
-0.120103
-0.118561
-0.117725
-0.116442
-0.115781
-0.114699
-0.114162
-0.113228
-0.112766
-0.11193
-0.111495
-0.110709
-0.110256
-0.109472
-0.108952
-0.10812
-0.107483
-0.106551
-0.105744
-0.104656
-0.103621
-0.102317
-0.19094
-0.180945
-0.173493
-0.165666
-0.159917
-0.153691
-0.149207
-0.1442
-0.14068
-0.136621
-0.13385
-0.130542
-0.128361
-0.125655
-0.123942
-0.121722
-0.120381
-0.118555
-0.117508
-0.116001
-0.115183
-0.113928
-0.113282
-0.112223
-0.111698
-0.110784
-0.110332
-0.109515
-0.10909
-0.108321
-0.107878
-0.107111
-0.106603
-0.10579
-0.105167
-0.104257
-0.103468
-0.102405
-0.101394
-0.10012
-0.186541
-0.176777
-0.169498
-0.161851
-0.156234
-0.150152
-0.145772
-0.14088
-0.137441
-0.133476
-0.130769
-0.127537
-0.125407
-0.122763
-0.121089
-0.118921
-0.117611
-0.115827
-0.114804
-0.113331
-0.112532
-0.111306
-0.110675
-0.109641
-0.109127
-0.108235
-0.107793
-0.106994
-0.106579
-0.105828
-0.105395
-0.104647
-0.10415
-0.103356
-0.102749
-0.10186
-0.10109
-0.100053
-0.099066
-0.0978228
-0.181903
-0.172383
-0.165285
-0.157829
-0.152353
-0.146423
-0.142152
-0.137382
-0.13403
-0.130164
-0.127525
-0.124374
-0.122297
-0.119719
-0.118088
-0.115974
-0.114697
-0.112958
-0.111961
-0.110525
-0.109745
-0.10855
-0.107935
-0.106927
-0.106427
-0.105556
-0.105126
-0.104347
-0.103943
-0.103211
-0.102789
-0.102059
-0.101576
-0.100802
-0.10021
-0.0993442
-0.0985947
-0.0975845
-0.0966232
-0.0954122
-0.17711
-0.167841
-0.16093
-0.153671
-0.14834
-0.142566
-0.138408
-0.133764
-0.1305
-0.126736
-0.124167
-0.121099
-0.119077
-0.116567
-0.114979
-0.11292
-0.111677
-0.109984
-0.109013
-0.107615
-0.106856
-0.105693
-0.105093
-0.104112
-0.103625
-0.102777
-0.102358
-0.1016
-0.101206
-0.100494
-0.100083
-0.099373
-0.0989025
-0.0981497
-0.0975741
-0.0967316
-0.0960026
-0.09502
-0.094085
-0.0929072
-0.172088
-0.163082
-0.156368
-0.149316
-0.144136
-0.138527
-0.134487
-0.129976
-0.126805
-0.123148
-0.120653
-0.117672
-0.115708
-0.11327
-0.111727
-0.109728
-0.10852
-0.106875
-0.105932
-0.104574
-0.103837
-0.102707
-0.102125
-0.101172
-0.100699
-0.0998756
-0.0994684
-0.0987322
-0.0983499
-0.0976581
-0.0972596
-0.09657
-0.0961133
-0.0953825
-0.0948239
-0.0940061
-0.0932985
-0.0923447
-0.0914372
-0.0902939
-0.166921
-0.158185
-0.151674
-0.144833
-0.139809
-0.134368
-0.13045
-0.126075
-0.123
-0.119452
-0.117032
-0.114141
-0.112236
-0.109871
-0.108375
-0.106435
-0.105264
-0.103669
-0.102754
-0.101437
-0.100722
-0.0996258
-0.0990612
-0.0981366
-0.0976776
-0.0968794
-0.0964845
-0.0957705
-0.0953997
-0.0947289
-0.0943425
-0.093674
-0.0932314
-0.092523
-0.0919816
-0.091189
-0.0905034
-0.0895791
-0.0886997
-0.0875916
-0.161535
-0.153082
-0.146781
-0.140162
-0.135301
-0.130037
-0.126246
-0.122012
-0.119037
-0.115605
-0.113263
-0.110466
-0.108623
-0.106335
-0.104887
-0.103011
-0.101877
-0.100334
-0.0994495
-0.098175
-0.0974837
-0.0964232
-0.0958772
-0.0949827
-0.0945388
-0.0937668
-0.0933849
-0.0926944
-0.0923359
-0.0916872
-0.0913137
-0.0906673
-0.0902395
-0.0895545
-0.0890313
-0.088265
-0.0876022
-0.0867085
-0.0858583
-0.0847869
-0.156016
-0.147852
-0.141767
-0.135374
-0.130679
-0.125595
-0.121934
-0.117845
-0.114971
-0.111657
-0.109395
-0.106694
-0.104914
-0.102704
-0.101306
-0.0994936
-0.0983993
-0.0969088
-0.0960545
-0.0948235
-0.0941559
-0.0931317
-0.0926044
-0.0917405
-0.0913119
-0.0905663
-0.0901976
-0.0895308
-0.0891847
-0.0885585
-0.0881979
-0.0875739
-0.0871611
-0.0865
-0.0859951
-0.0852556
-0.0846161
-0.0837536
-0.0829332
-0.0818992
-0.15029
-0.142427
-0.136565
-0.130408
-0.125886
-0.120989
-0.117463
-0.113525
-0.110757
-0.107565
-0.105387
-0.102786
-0.101071
-0.0989434
-0.0975971
-0.0958518
-0.0947981
-0.0933627
-0.0925402
-0.0913549
-0.0907121
-0.0897259
-0.0892184
-0.0883866
-0.0879741
-0.0872563
-0.0869015
-0.0862596
-0.0859266
-0.0853238
-0.084977
-0.0843764
-0.0839793
-0.0833431
-0.0828573
-0.0821456
-0.0815303
-0.0807002
-0.0799106
-0.0789152
-0.144443
-0.136886
-0.131252
-0.125335
-0.120989
-0.116283
-0.112894
-0.109109
-0.10645
-0.103382
-0.101289
-0.0987888
-0.0971414
-0.0950964
-0.0938026
-0.0921254
-0.0911128
-0.0897334
-0.088943
-0.0878039
-0.0871862
-0.0862385
-0.0857508
-0.0849515
-0.0845551
-0.0838654
-0.0835245
-0.0829078
-0.082588
-0.0820089
-0.0816759
-0.081099
-0.0807177
-0.0801067
-0.0796403
-0.0789568
-0.0783659
-0.0775688
-0.0768106
-0.0758546
-0.138401
-0.131161
-0.125764
-0.120095
-0.115932
-0.111423
-0.108177
-0.104551
-0.102003
-0.0990645
-0.0970595
-0.0946646
-0.0930866
-0.0911278
-0.0898886
-0.0882821
-0.0873123
-0.0859912
-0.0852342
-0.0841433
-0.0835519
-0.0826443
-0.0821774
-0.081412
-0.0810326
-0.0803722
-0.080046
-0.0794556
-0.0791496
-0.0785953
-0.0782766
-0.0777244
-0.0773596
-0.0767747
-0.0763284
-0.0756741
-0.0751087
-0.0743455
-0.0736196
-0.0727042
-0.132251
-0.125333
-0.120176
-0.114759
-0.110781
-0.106473
-0.103371
-0.0999066
-0.0974725
-0.0946645
-0.0927488
-0.0904605
-0.0889528
-0.0870812
-0.0858973
-0.0843624
-0.0834358
-0.0821736
-0.0814504
-0.0804081
-0.0798431
-0.078976
-0.07853
-0.0777988
-0.0774364
-0.0768056
-0.0764941
-0.0759301
-0.0756379
-0.0751085
-0.0748043
-0.0742771
-0.0739288
-0.0733703
-0.0729443
-0.0723196
-0.0717798
-0.0710511
-0.0703581
-0.069484
-0.12592
-0.119333
-0.114424
-0.109267
-0.105481
-0.10138
-0.098427
-0.0951291
-0.0928122
-0.0901393
-0.088316
-0.0861379
-0.0847031
-0.0829217
-0.081795
-0.0803341
-0.0794525
-0.0782512
-0.0775632
-0.0765713
-0.0760339
-0.0752088
-0.0747846
-0.0740889
-0.0737443
-0.0731442
-0.0728481
-0.0723116
-0.072034
-0.0715304
-0.0712413
-0.0707398
-0.0704088
-0.0698777
-0.0694726
-0.0688785
-0.0683651
-0.0676719
-0.0670126
-0.066181
-0.119493
-0.113243
-0.108585
-0.103691
-0.100098
-0.0962066
-0.0934051
-0.0902758
-0.0880774
-0.0855412
-0.0838112
-0.0817446
-0.0803832
-0.078693
-0.0776241
-0.076238
-0.0754016
-0.0742618
-0.0736091
-0.072668
-0.0721582
-0.0713755
-0.0709731
-0.0703132
-0.0699864
-0.0694171
-0.0691364
-0.0686276
-0.0683644
-0.0678868
-0.0676128
-0.0671373
-0.0668235
-0.06632
-0.065936
-0.0653727
-0.064886
-0.0642287
-0.0636037
-0.0628151
-0.112899
-0.106995
-0.102594
-0.0979715
-0.0945777
-0.0909017
-0.0882556
-0.0852997
-0.0832234
-0.0808279
-0.0791941
-0.0772422
-0.0759566
-0.0743604
-0.0733511
-0.0720421
-0.0712524
-0.0701762
-0.0695601
-0.0686715
-0.0681904
-0.0674514
-0.0670718
-0.0664488
-0.0661406
-0.0656033
-0.0653386
-0.0648584
-0.0646103
-0.0641597
-0.0639013
-0.0634526
-0.0631568
-0.0626816
-0.0623194
-0.0617877
-0.0613285
-0.0607081
-0.0601182
-0.0593736
-0.106223
-0.100668
-0.0965284
-0.0921794
-0.0889866
-0.0855283
-0.083039
-0.0802583
-0.0783052
-0.0760517
-0.0745148
-0.0726786
-0.0714694
-0.0699678
-0.0690185
-0.0677872
-0.0670445
-0.0660322
-0.0654528
-0.0646171
-0.0641646
-0.0634696
-0.0631127
-0.0625268
-0.0622371
-0.0617319
-0.0614831
-0.0610317
-0.0607985
-0.0603749
-0.0601322
-0.0597105
-0.0594325
-0.0589858
-0.0586456
-0.0581458
-0.0577143
-0.0571311
-0.0565766
-0.0558767
-0.0993946
-0.0941976
-0.0903248
-0.0862563
-0.0832696
-0.0800345
-0.0777061
-0.075105
-0.0732782
-0.0711704
-0.0697331
-0.0680158
-0.066885
-0.0654807
-0.0645931
-0.0634417
-0.0627475
-0.0618009
-0.0612594
-0.060478
-0.0600553
-0.0594056
-0.0590722
-0.0585246
-0.0582542
-0.057782
-0.0575498
-0.057128
-0.0569104
-0.0565147
-0.0562882
-0.0558941
-0.0556346
-0.0552173
-0.0548995
-0.0544325
-0.0540294
-0.0534843
-0.052966
-0.0523117
-0.0924986
-0.0876626
-0.0840589
-0.0802731
-0.0774941
-0.0744839
-0.0723175
-0.0698973
-0.0681977
-0.0662365
-0.0648994
-0.0633016
-0.0622497
-0.0609432
-0.0601176
-0.0590465
-0.0584007
-0.0575202
-0.0570166
-0.0562898
-0.0558967
-0.0552924
-0.0549825
-0.0544733
-0.0542219
-0.0537829
-0.0535672
-0.053175
-0.0529729
-0.052605
-0.0523946
-0.0520284
-0.0517873
-0.0513995
-0.0511042
-0.0506702
-0.0502955
-0.0497888
-0.0493071
-0.0486988
-0.0854646
-0.0809973
-0.0776687
-0.0741718
-0.0716051
-0.0688248
-0.0668241
-0.0645889
-0.0630194
-0.0612083
-0.0599737
-0.0584983
-0.0575272
-0.056321
-0.0555589
-0.05457
-0.0539741
-0.0531613
-0.0526968
-0.052026
-0.0516635
-0.0511059
-0.0508203
-0.0503505
-0.0501189
-0.0497139
-0.0495152
-0.0491536
-0.0489675
-0.0486282
-0.0484345
-0.0480968
-0.0478747
-0.047517
-0.0472449
-0.0468445
-0.046499
-0.0460315
-0.0455871
-0.0450257
-0.078378
-0.0742817
-0.0712296
-0.0680232
-0.0656699
-0.0631208
-0.0612865
-0.0592372
-0.0577985
-0.0561381
-0.0550064
-0.0536539
-0.0527638
-0.0516581
-0.0509597
-0.0500533
-0.0495073
-0.0487623
-0.0483367
-0.047722
-0.0473901
-0.0468792
-0.0466176
-0.0461872
-0.0459752
-0.0456043
-0.0454226
-0.0450914
-0.0449211
-0.0446105
-0.0444333
-0.0441241
-0.043921
-0.0435935
-0.0433445
-0.0429779
-0.0426616
-0.0422336
-0.0418267
-0.0413125
-0.0711686
-0.0674503
-0.0646801
-0.0617698
-0.0596341
-0.0573205
-0.0556561
-0.0537964
-0.052491
-0.0509844
-0.0499578
-0.0487307
-0.0479235
-0.0469204
-0.0462872
-0.0454651
-0.0449702
-0.0442947
-0.0439091
-0.0433518
-0.0430512
-0.0425881
-0.0423514
-0.0419614
-0.0417697
-0.0414337
-0.0412694
-0.0409694
-0.0408156
-0.0405343
-0.0403742
-0.0400941
-0.0399104
-0.0396138
-0.0393884
-0.0390563
-0.0387699
-0.0383819
-0.0380132
-0.0375471
-0.063922
-0.060583
-0.0580956
-0.0554824
-0.0535649
-0.0514877
-0.0499935
-0.0483239
-0.0471521
-0.0457997
-0.0448783
-0.0437768
-0.0430525
-0.0421522
-0.0415841
-0.0408464
-0.0404025
-0.0397964
-0.0394506
-0.0389507
-0.0386813
-0.0382659
-0.0380539
-0.0377041
-0.0375325
-0.0372313
-0.0370843
-0.0368154
-0.0366779
-0.0364258
-0.0362825
-0.0360317
-0.0358673
-0.0356015
-0.0353998
-0.0351022
-0.0348456
-0.0344979
-0.0341675
-0.0337497
-0.0565681
-0.0536146
-0.0514147
-0.0491036
-0.047408
-0.0455712
-0.0442501
-0.0427739
-0.0417382
-0.0405426
-0.0397285
-0.0387549
-0.0381151
-0.0373195
-0.0368179
-0.0361662
-0.0357744
-0.0352391
-0.0349341
-0.0344927
-0.0342553
-0.0338887
-0.033702
-0.0333935
-0.0332425
-0.0329768
-0.0328477
-0.0326107
-0.0324898
-0.0322676
-0.0321417
-0.0319206
-0.031776
-0.0315417
-0.031364
-0.0311015
-0.0308754
-0.0305686
-0.0302771
-0.0299082
-0.0491925
-0.0466251
-0.0447131
-0.0427043
-0.0412309
-0.0396345
-0.0384868
-0.0372041
-0.0363044
-0.0352657
-0.0345586
-0.033713
-0.0331574
-0.0324665
-0.0320312
-0.0314653
-0.0311255
-0.0306608
-0.0303964
-0.0300134
-0.0298077
-0.0294897
-0.0293281
-0.0290605
-0.02893
-0.0286998
-0.0285882
-0.0283828
-0.0282785
-0.028086
-0.0279773
-0.0277858
-0.0276608
-0.0274579
-0.0273042
-0.0270769
-0.0268811
-0.0266152
-0.0263627
-0.026043
-0.0417255
-0.0395496
-0.0379295
-0.0362274
-0.0349794
-0.0336271
-0.0326552
-0.0315688
-0.0308073
-0.0299278
-0.0293296
-0.0286138
-0.0281441
-0.0275595
-0.0271917
-0.0267131
-0.0264261
-0.0260334
-0.0258104
-0.0254868
-0.0253136
-0.0250451
-0.0249092
-0.0246835
-0.024574
-0.0243798
-0.0242863
-0.0241133
-0.0240258
-0.0238637
-0.0237726
-0.0236113
-0.0235064
-0.0233354
-0.0232061
-0.0230144
-0.0228494
-0.0226251
-0.022412
-0.022142
-0.0342526
-0.0324679
-0.0311395
-0.0297438
-0.0287208
-0.0276122
-0.0268159
-0.0259256
-0.0253018
-0.0245813
-0.0240916
-0.0235054
-0.0231211
-0.0226426
-0.0223419
-0.0219503
-0.021716
-0.0213948
-0.0212129
-0.0209485
-0.0208074
-0.0205882
-0.0204777
-0.0202936
-0.0202047
-0.0200464
-0.0199707
-0.0198297
-0.019759
-0.0196271
-0.0195533
-0.019422
-0.019337
-0.0191977
-0.0190928
-0.0189366
-0.0188024
-0.0186195
-0.0184459
-0.0182257
-0.0267045
-0.0253155
-0.0242823
-0.0231966
-0.0224014
-0.0215395
-0.0209209
-0.0202291
-0.019745
-0.0191855
-0.0188058
-0.0183509
-0.0180533
-0.0176823
-0.0174498
-0.0171465
-0.0169656
-0.0167171
-0.0165771
-0.0163727
-0.0162645
-0.0160953
-0.0160108
-0.0158689
-0.0158013
-0.0156795
-0.015622
-0.0155137
-0.0154601
-0.0153588
-0.0153028
-0.015202
-0.0151372
-0.0150302
-0.0149499
-0.0148297
-0.0147267
-0.0145857
-0.014452
-0.014282
-0.0191664
-0.0181721
-0.0174331
-0.0166565
-0.0160883
-0.0154723
-0.0150307
-0.0145367
-0.0141917
-0.0137925
-0.0135223
-0.0131981
-0.0129867
-0.0127226
-0.0125579
-0.0123423
-0.0122146
-0.0120382
-0.0119397
-0.011795
-0.0117192
-0.0115996
-0.0115408
-0.0114408
-0.011394
-0.0113084
-0.0112689
-0.0111929
-0.0111562
-0.0110852
-0.0110468
-0.0109762
-0.0109315
-0.0108565
-0.0108007
-0.0107163
-0.0106443
-0.0105452
-0.0104513
-0.0103314
-0.0115694
-0.0109734
-0.0105315
-0.0100669
-0.00972798
-0.00936023
-0.00909765
-0.0088034
-0.00859889
-0.00836174
-0.00820226
-0.00801025
-0.00788614
-0.00773025
-0.00763415
-0.00750739
-0.0074335
-0.00733028
-0.0072739
-0.00718965
-0.00714685
-0.00707768
-0.00704506
-0.00698757
-0.0069621
-0.00691322
-0.00689208
-0.00684895
-0.00682943
-0.00678929
-0.00676872
-0.00672879
-0.00670444
-0.0066619
-0.0066309
-0.00658276
-0.00654205
-0.0064851
-0.00643133
-0.00636204
-0.00399849
-0.00379896
-0.0036525
-0.00349841
-0.00338751
-0.00326671
-0.00318199
-0.00308638
-0.00302151
-0.00294541
-0.00289588
-0.00283515
-0.00279763
-0.00274916
-0.0027211
-0.00268248
-0.00266189
-0.0026312
-0.00261647
-0.00259214
-0.00258192
-0.00256262
-0.00255576
-0.00254035
-0.00253582
-0.00252327
-0.00252014
-0.0025095
-0.00250688
-0.00249723
-0.00249424
-0.00248469
-0.00248045
-0.00247008
-0.00246365
-0.0024515
-0.00244191
-0.00242695
-0.00241313
-0.00239424
0.00361499
0.00341528
0.00326402
0.00310538
0.00298649
0.00285845
0.00276386
0.00265925
0.00258327
0.00249698
0.00243553
0.00236382
0.00231388
0.00225392
0.00221318
0.00216278
0.00212941
0.00208681
0.00205931
0.00202305
0.00200017
0.00196899
0.00194963
0.00192243
0.00190559
0.00188134
0.00186606
0.0018438
0.00182917
0.00180794
0.00179302
0.00177186
0.00175569
0.00173358
0.00171515
0.00169103
0.00166923
0.00164193
0.00161554
0.00158379
0.0111862
0.01059
0.0101432
0.00967403
0.00932711
0.0089521
0.00867963
0.00837636
0.00816073
0.00791338
0.00774197
0.00753896
0.00740243
0.00723504
0.00712625
0.00698771
0.00690103
0.0067859
0.00671675
0.00662057
0.00656511
0.00648406
0.00643895
0.00636966
0.00633187
0.0062713
0.00623801
0.00618327
0.00615175
0.00610003
0.00606754
0.006016
0.00597974
0.00592547
0.00588248
0.00582238
0.00576946
0.00570018
0.00563386
0.00555172
0.0187836
0.017789
0.017045
0.0162638
0.0156876
0.0150642
0.0146128
0.0141097
0.0137535
0.0133441
0.013062
0.0127268
0.012503
0.0122274
0.01205
0.0118226
0.011682
0.0114938
0.0113825
0.0112258
0.0111374
0.0110059
0.0109347
0.0108229
0.0107637
0.0106665
0.0106148
0.0105272
0.0104785
0.010396
0.0103456
0.0102634
0.0102068
0.0101202
0.0100524
0.00995608
0.00987185
0.00976041
0.00965397
0.00952131
0.0263225
0.0249331
0.0238948
0.0228044
0.0220011
0.0211318
0.0205033
0.0198024
0.0193071
0.0187373
0.0183457
0.0178798
0.0175697
0.0171872
0.0169419
0.0166268
0.0164332
0.0161727
0.0160199
0.0158036
0.0156827
0.0155016
0.0154047
0.015251
0.015171
0.0150376
0.014968
0.0148481
0.0147825
0.0146697
0.0146018
0.0144894
0.0144128
0.0142941
0.0142019
0.0140697
0.0139545
0.0138013
0.0136551
0.0134723
0.0338714
0.032086
0.0307526
0.029352
0.0283208
0.0272048
0.0263984
0.025499
0.0248641
0.0241332
0.0236315
0.0230343
0.0226375
0.0221474
0.021834
0.0214306
0.0211835
0.0208503
0.0206557
0.0203793
0.0202255
0.0199944
0.0198715
0.0196755
0.0195744
0.0194044
0.0193166
0.0191641
0.0190815
0.018938
0.0188524
0.0187095
0.0186127
0.0184618
0.0183449
0.0181769
0.0180306
0.0178354
0.0176494
0.0174164
0.0413457
0.0391689
0.0375436
0.0358365
0.0345801
0.0332203
0.0322383
0.0311427
0.0303699
0.0294801
0.0288698
0.0281429
0.0276607
0.0270645
0.0266839
0.0261935
0.0258937
0.0254889
0.0252532
0.0249176
0.0247317
0.0244514
0.024303
0.0240655
0.0239437
0.0237379
0.0236323
0.0234478
0.0233484
0.0231749
0.0230719
0.0228991
0.0227825
0.0225998
0.0224587
0.0222552
0.0220782
0.0218416
0.0216161
0.0213334
0.0488139
0.0462453
0.0443279
0.0423139
0.0408321
0.0392281
0.0380702
0.0367782
0.0358672
0.034818
0.0340989
0.0332421
0.032674
0.0319715
0.0315234
0.0309456
0.0305929
0.0301163
0.0298391
0.0294441
0.0292257
0.0288958
0.0287218
0.0284425
0.0282997
0.0280578
0.0279342
0.0277173
0.0276011
0.0273973
0.0272768
0.0270738
0.0269372
0.0267227
0.0265573
0.0263181
0.0261103
0.0258324
0.0255675
0.0252351
0.0561915
0.0532365
0.051031
0.0487144
0.0470104
0.0451657
0.0438344
0.0423488
0.0413017
0.0400956
0.0392693
0.0382845
0.0376321
0.0368248
0.0363104
0.0356467
0.0352421
0.0346947
0.034377
0.0339236
0.0336735
0.033295
0.0330958
0.0327755
0.0326123
0.0323351
0.0321939
0.0319454
0.0318127
0.0315792
0.0314416
0.0312091
0.0310528
0.0308071
0.0306177
0.0303435
0.0301054
0.0297866
0.0294828
0.0291013
0.0635469
0.0602061
0.0577128
0.055094
0.0531679
0.0510827
0.0495782
0.0478991
0.0467159
0.0453528
0.0444193
0.0433065
0.0425696
0.0416576
0.0410766
0.0403269
0.0398701
0.039252
0.0388934
0.0383814
0.0380993
0.0376721
0.0374476
0.0370861
0.0369023
0.0365895
0.0364305
0.0361503
0.0360009
0.0357376
0.0355827
0.0353205
0.0351446
0.0348675
0.0346541
0.0343449
0.0340765
0.0337168
0.0333742
0.0329439
0.0707962
0.0670756
0.0642993
0.0613831
0.0592386
0.0569169
0.055242
0.0533726
0.0520557
0.0505384
0.0494995
0.0482611
0.0474412
0.0464263
0.0457802
0.0449461
0.0444382
0.0437506
0.0433522
0.0427828
0.0424695
0.0419945
0.0417454
0.0413436
0.0411398
0.0407922
0.040616
0.0403046
0.0401391
0.0398466
0.0396749
0.0393837
0.0391885
0.0388806
0.0386437
0.0383001
0.038002
0.0376021
0.0372213
0.0367427
0.0780075
0.0739086
0.0708502
0.0676376
0.0652754
0.0627178
0.0608731
0.058814
0.0573636
0.0556924
0.0545484
0.0531845
0.0522817
0.0511641
0.0504528
0.0495343
0.0489754
0.0482183
0.0477798
0.0471531
0.0468084
0.0462856
0.0460116
0.0455695
0.0453454
0.0449629
0.0447693
0.0444268
0.044245
0.0439232
0.0437345
0.0434142
0.0431998
0.0428611
0.0426007
0.0422227
0.0418949
0.0414551
0.0410362
0.0405097
0.0850973
0.0806269
0.0772917
0.0737882
0.0712124
0.0684235
0.0664122
0.064167
0.0625858
0.0607638
0.0595168
0.0580299
0.057046
0.0558278
0.0550527
0.0540517
0.0534428
0.0526178
0.0521404
0.0514575
0.0510823
0.0505128
0.0502147
0.0497332
0.0494894
0.049073
0.0488625
0.0484896
0.048292
0.0479416
0.0477366
0.0473878
0.0471546
0.0467858
0.0465025
0.0460908
0.0457339
0.0452547
0.0447985
0.0442249
0.0921337
0.0872942
0.0836836
0.079891
0.0771026
0.0740837
0.0719065
0.0694762
0.0677648
0.0657926
0.064443
0.0628336
0.0617689
0.0604504
0.0596118
0.0585284
0.0578696
0.0569769
0.0564603
0.0557214
0.0553157
0.0546995
0.0543771
0.0538562
0.0535927
0.0531423
0.0529147
0.0525114
0.0522978
0.051919
0.0516974
0.0513203
0.0510682
0.0506694
0.0503631
0.049918
0.049532
0.0490139
0.0485205
0.0479001
0.0990336
0.0938325
0.0899525
0.0858768
0.0828806
0.0796365
0.0772971
0.0746857
0.072847
0.070728
0.0692782
0.0675491
0.0664054
0.064989
0.0640883
0.0629247
0.0622173
0.0612584
0.0607039
0.0599104
0.059475
0.0588133
0.0584675
0.0579082
0.0576256
0.0571421
0.0568982
0.0564653
0.0562363
0.0558297
0.0555921
0.0551873
0.0549169
0.0544889
0.0541602
0.0536823
0.0532681
0.0527117
0.052182
0.0515157
0.105865
0.100306
0.0961582
0.0918017
0.0885991
0.0851316
0.0826313
0.0798401
0.077875
0.0756102
0.0740607
0.0722127
0.0709905
0.0694768
0.0685143
0.0672707
0.0665148
0.0654902
0.0648978
0.0640498
0.0635847
0.0628777
0.0625083
0.0619108
0.061609
0.0610925
0.060832
0.0603696
0.0601251
0.0596908
0.0594371
0.0590048
0.0587161
0.0582589
0.057908
0.0573976
0.0569552
0.0563609
0.0557952
0.0550835
0.112545
0.106636
0.102228
0.097597
0.0941932
0.0905076
0.0878503
0.0848838
0.0827954
0.0803884
0.0787419
0.076778
0.0754794
0.0738708
0.0728483
0.0715269
0.0707241
0.0696354
0.0690062
0.0681054
0.0676115
0.0668605
0.0664684
0.0658338
0.0655135
0.0649649
0.0646886
0.0641975
0.0639382
0.063477
0.0632078
0.0627487
0.0624423
0.0619568
0.0615842
0.0610421
0.0605723
0.059941
0.05934
0.0585839
0.119143
0.112887
0.108221
0.103319
0.0997157
0.0958144
0.0930015
0.0898614
0.0876509
0.0851031
0.0833603
0.0812816
0.0799071
0.0782045
0.0771224
0.0757238
0.0748741
0.0737218
0.073056
0.0721027
0.07158
0.0707853
0.0703704
0.0696988
0.0693601
0.0687795
0.0684872
0.0679676
0.0676933
0.0672054
0.0669207
0.066435
0.0661109
0.0655972
0.0652031
0.0646296
0.0641326
0.0634647
0.062829
0.0620291
0.125575
0.118982
0.114064
0.108899
0.105102
0.100991
0.0980266
0.0947176
0.0923884
0.0897037
0.0878675
0.0856772
0.0842292
0.0824353
0.0812953
0.0798218
0.0789268
0.0777129
0.0770117
0.0760075
0.0754572
0.07462
0.0741833
0.073476
0.0731194
0.0725081
0.0722005
0.0716533
0.0713646
0.0708508
0.0705512
0.0700397
0.0696986
0.0691576
0.0687427
0.0681386
0.0676152
0.0669118
0.0662421
0.0653995
0.13191
0.124985
0.119819
0.114393
0.110405
0.106086
0.102973
0.0994971
0.0970506
0.0942307
0.0923021
0.0900015
0.0884806
0.0865964
0.0853991
0.0838515
0.0829115
0.0816366
0.0809002
0.0798455
0.0792676
0.0783884
0.0779298
0.077187
0.0768126
0.0761706
0.0758477
0.0752731
0.0749701
0.0744305
0.0741161
0.073579
0.0732209
0.0726529
0.0722173
0.0715831
0.0710336
0.070295
0.069592
0.0687072
0.138066
0.130818
0.125412
0.119733
0.11556
0.11104
0.107782
0.104145
0.101585
0.098634
0.0966159
0.0942086
0.0926172
0.0906457
0.089393
0.0877737
0.0867904
0.0854565
0.0846863
0.0835828
0.0829784
0.0820587
0.0815792
0.0808022
0.0804108
0.0797392
0.0794017
0.0788007
0.078484
0.0779196
0.0775909
0.0770292
0.0766547
0.0760607
0.0756051
0.0749417
0.0743669
0.0735942
0.0728588
0.0719331
0.144112
0.136547
0.130904
0.124977
0.12062
0.115903
0.112503
0.108706
0.106034
0.102954
0.100848
0.0983351
0.0966743
0.0946165
0.0933092
0.0916191
0.0905929
0.0892007
0.0883969
0.0872452
0.0866145
0.0856546
0.0851543
0.0843433
0.0839349
0.0832341
0.0828819
0.0822548
0.0819244
0.0813355
0.0809925
0.0804064
0.0800157
0.0793959
0.0789206
0.0782284
0.0776287
0.0768226
0.0760552
0.0750894
0.149966
0.142094
0.136222
0.130055
0.125522
0.120614
0.117076
0.113126
0.110346
0.107141
0.10495
0.102336
0.100608
0.0984669
0.097107
0.0953487
0.0942813
0.0928331
0.091997
0.0907991
0.0901432
0.0891447
0.0886245
0.087781
0.0873564
0.0866276
0.0862614
0.0856092
0.0852657
0.0846533
0.0842968
0.0836872
0.083281
0.0826364
0.0821421
0.0814221
0.0807985
0.0799599
0.0791617
0.078157
0.155697
0.147524
0.141428
0.135025
0.130319
0.125223
0.12155
0.117449
0.114563
0.111236
0.108961
0.106247
0.104453
0.102231
0.100819
0.0989934
0.0978853
0.0963818
0.0955139
0.0942703
0.0935894
0.0925529
0.0920128
0.0911373
0.0906965
0.0899399
0.0895599
0.0888829
0.0885264
0.0878907
0.0875207
0.086888
0.0864664
0.0857973
0.0852844
0.0845371
0.0838898
0.0830195
0.0821911
0.0811484
0.161223
0.152761
0.146449
0.139819