/*--------------------------------*- C++ -*----------------------------------*\
| =========                 |                                                 |
| \\      /  F ield         | foam-extend: Open Source CFD                    |
|  \\    /   O peration     | Version:  3.0                                   |
|   \\  /    A nd           | Web:         http://www.extend-project.de       |
|    \\/     M anipulation  |                                                 |
\*---------------------------------------------------------------------------*/
FoamFile
{
    version     2.0;
    format      ascii;
    class       volSymmTensorField;
    location    "14";
    object      sigma;
}
// * * * * * * * * * * * * * * * * * * * * * * * * * * * * * * * * * * * * * //

dimensions      [0 0 0 0 0 0 0];

internalField   nonuniform List<symmTensor> 
7680
(
(-0.179485 -0.00276674 3.79572e-22 0.179494 -1.12227e-21 -8.93671e-06)
(-0.178848 -0.00313418 6.20226e-22 0.178873 -2.30555e-21 -2.52525e-05)
(-0.176154 -0.00336425 1.32716e-22 0.176194 -5.61789e-21 -4.0492e-05)
(-0.172088 -0.00349498 -4.02518e-22 0.172143 -6.28314e-21 -5.47445e-05)
(-0.167124 -0.00355344 -5.6539e-22 0.167192 -5.85746e-21 -6.80811e-05)
(-0.161592 -0.00355913 -1.28273e-21 0.161673 -3.78184e-21 -8.05525e-05)
(-0.155724 -0.00352625 -1.04642e-21 0.155816 -2.466e-21 -9.21991e-05)
(-0.149681 -0.00346522 -1.44342e-21 0.149784 -1.38936e-21 -0.000103047)
(-0.14358 -0.00338379 -1.49815e-21 0.143693 9.46479e-22 -0.000113118)
(-0.137501 -0.00328771 -7.2621e-22 0.137623 -4.66734e-22 -0.000122421)
(-0.131499 -0.00318129 -9.1593e-22 0.13163 -2.58022e-21 -0.000130965)
(-0.125615 -0.00306779 -8.69599e-22 0.125754 -3.2928e-21 -0.000138751)
(-0.119873 -0.00294965 -1.56979e-21 0.120019 -3.09811e-21 -0.000145776)
(-0.114293 -0.00282872 -3.53797e-21 0.114445 4.84677e-23 -0.000152033)
(-0.108883 -0.00270642 -7.41631e-21 0.109041 2.15913e-21 -0.000157516)
(-0.103651 -0.0025838 -8.11704e-21 0.103813 3.93726e-21 -0.00016221)
(-0.0985996 -0.00246168 -8.44678e-21 0.0987657 7.23782e-21 -0.000166105)
(-0.0937292 -0.00234067 -9.56878e-21 0.0938984 1.00954e-20 -0.000169183)
(-0.0890391 -0.00222124 -1.2957e-20 0.0892105 1.16256e-20 -0.000171431)
(-0.0845275 -0.00210374 -1.56293e-20 0.0847003 1.24583e-20 -0.000172829)
(-0.0801921 -0.00198846 -2.23009e-20 0.0803655 1.15954e-20 -0.000173362)
(-0.0760303 -0.0018756 -2.35565e-20 0.0762033 1.24217e-20 -0.000173008)
(-0.0720394 -0.00176535 -2.414e-20 0.0722112 1.45757e-20 -0.000171753)
(-0.0682171 -0.00165786 -2.35248e-20 0.0683866 1.6743e-20 -0.000169578)
(-0.064561 -0.00155327 -2.33035e-20 0.0647275 1.76206e-20 -0.000166468)
(-0.0610695 -0.0014517 -2.30516e-20 0.0612319 2.16948e-20 -0.000162406)
(-0.0577412 -0.0013533 -2.10741e-20 0.0578986 2.45737e-20 -0.000157383)
(-0.0545753 -0.00125822 -1.67894e-20 0.0547267 2.36775e-20 -0.000151387)
(-0.0515718 -0.00116661 -1.7346e-20 0.0517162 1.99838e-20 -0.000144415)
(-0.048731 -0.00107867 -1.96242e-20 0.0488674 1.6109e-20 -0.000136463)
(-0.0460541 -0.000994623 -1.91997e-20 0.0461817 1.30858e-20 -0.000127537)
(-0.0435433 -0.000914726 -1.37632e-20 0.0436609 1.02963e-20 -0.000117644)
(-0.0412011 -0.000839267 -5.71673e-21 0.0413079 7.06919e-21 -0.000106806)
(-0.0390314 -0.000768594 -2.42512e-21 0.0391264 8.13e-21 -9.50447e-05)
(-0.0370387 -0.000703083 -1.09218e-20 0.0371211 8.57136e-21 -8.24008e-05)
(-0.0352287 -0.000643163 -1.635e-20 0.0352976 7.39193e-21 -6.89184e-05)
(-0.0336082 -0.000589245 -1.62851e-20 0.0336629 2.95808e-21 -5.46622e-05)
(-0.0321854 -0.000541619 -6.34081e-21 0.0322251 3.28776e-21 -3.97055e-05)
(-0.0309694 -0.000499939 -3.80454e-21 0.0309935 8.05638e-22 -2.41455e-05)
(-0.029971 -0.000461626 -1.01727e-21 0.0299791 -1.41697e-21 -8.0926e-06)
(-0.17934 -0.00820407 1.06894e-21 0.179349 -1.66997e-21 -8.94057e-06)
(-0.178597 -0.00938186 1.51093e-21 0.178622 -2.91162e-21 -2.52628e-05)
(-0.175827 -0.0101384 7.17344e-22 0.175867 -5.98368e-21 -4.05087e-05)
(-0.171708 -0.0105905 1.04504e-21 0.171762 -6.14351e-21 -5.47677e-05)
(-0.166706 -0.0108211 1.94471e-21 0.166775 -6.26914e-21 -6.81104e-05)
(-0.161149 -0.0108901 1.74584e-21 0.16123 -3.7276e-21 -8.0588e-05)
(-0.155265 -0.0108409 1.44449e-21 0.155357 -2.4506e-21 -9.22404e-05)
(-0.149214 -0.0107056 1.27136e-21 0.149317 -3.75074e-22 -0.000103095)
(-0.143109 -0.0105078 9.99093e-22 0.143222 2.97607e-21 -0.000113171)
(-0.13703 -0.0102652 -9.18135e-22 0.137153 8.79126e-22 -0.000122481)
(-0.131032 -0.00999106 -1.53034e-21 0.131163 -2.1227e-21 -0.000131031)
(-0.125153 -0.00969549 -7.59525e-22 0.125292 -2.15522e-21 -0.000138822)
(-0.119419 -0.00938603 -7.16212e-22 0.119565 -3.78287e-22 -0.000145854)
(-0.113847 -0.00906845 -2.20071e-21 0.113999 2.926e-21 -0.000152118)
(-0.108446 -0.00874712 -5.85593e-21 0.108604 7.07457e-21 -0.000157606)
(-0.103224 -0.0084254 -6.44673e-21 0.103387 9.79665e-21 -0.000162307)
(-0.0981829 -0.00810584 -6.36099e-21 0.0983491 1.45342e-20 -0.000166208)
(-0.0933228 -0.00779041 -5.59999e-21 0.0934921 1.32221e-20 -0.000169293)
(-0.0886431 -0.00748059 -9.34212e-21 0.0888146 1.46565e-20 -0.000171547)
(-0.0841418 -0.00717756 -1.50642e-20 0.0843148 1.30111e-20 -0.000172951)
(-0.0798166 -0.00688219 -2.25125e-20 0.0799901 1.32707e-20 -0.000173489)
(-0.0756647 -0.0065952 -2.21803e-20 0.0758379 1.41372e-20 -0.00017314)
(-0.0716836 -0.00631715 -2.07815e-20 0.0718555 1.71198e-20 -0.000171891)
(-0.0678706 -0.0060485 -2.022e-20 0.0680403 1.83546e-20 -0.000169719)
(-0.0642236 -0.00578965 -2.3834e-20 0.0643902 2.45942e-20 -0.000166613)
(-0.0607407 -0.00554095 -1.62292e-20 0.0609033 2.93216e-20 -0.000162554)
(-0.0574207 -0.00530275 -1.47505e-20 0.0575782 3.26451e-20 -0.000157533)
(-0.0542627 -0.00507538 -1.54337e-20 0.0544143 2.80824e-20 -0.000151538)
(-0.0512666 -0.00485919 -1.90201e-20 0.0514112 2.41389e-20 -0.000144566)
(-0.0484328 -0.00465457 -2.05041e-20 0.0485694 2.12857e-20 -0.000136612)
(-0.0457625 -0.00446194 -2.10008e-20 0.0458902 2.03531e-20 -0.000127682)
(-0.0432578 -0.00428177 -2.09903e-20 0.0433755 1.91062e-20 -0.000117785)
(-0.0409212 -0.00411458 -1.11526e-20 0.0410282 1.10433e-20 -0.00010694)
(-0.0387566 -0.00396096 2.08832e-21 0.0388518 4.04711e-21 -9.51697e-05)
(-0.0367686 -0.00382154 -6.22865e-21 0.0368511 1.02784e-20 -8.25144e-05)
(-0.0349628 -0.00369704 -1.34454e-20 0.0350318 1.18311e-20 -6.90181e-05)
(-0.0333459 -0.00358817 -2.01946e-20 0.0334007 1.14154e-20 -5.47453e-05)
(-0.0319261 -0.00349558 -6.73549e-21 0.0319659 1.21889e-20 -3.97688e-05)
(-0.0307127 -0.00341936 -7.49783e-21 0.0307369 7.50421e-21 -2.41859e-05)
(-0.0297164 -0.00335768 -5.151e-21 0.0297245 3.24611e-21 -8.10689e-06)
(-0.17906 -0.0136401 1.70357e-21 0.179069 -2.28112e-21 -8.9304e-06)
(-0.178103 -0.0156111 2.40452e-21 0.178128 -4.24293e-21 -2.52333e-05)
(-0.17518 -0.0168816 1.24553e-21 0.175221 -5.70758e-21 -4.04614e-05)
(-0.170952 -0.0176459 2.83151e-21 0.171007 -6.69778e-21 -5.4704e-05)
(-0.165876 -0.0180422 3.00777e-21 0.165944 -5.8769e-21 -6.80321e-05)
(-0.160268 -0.0181697 4.12297e-21 0.160349 -3.82366e-21 -8.04967e-05)
(-0.154351 -0.018101 3.64766e-21 0.154443 -2.84134e-21 -9.21379e-05)
(-0.148282 -0.0178891 5.02025e-21 0.148385 -7.21474e-22 -0.000102982)
(-0.142169 -0.0175736 5.90579e-21 0.142282 1.1613e-21 -0.000113051)
(-0.13609 -0.0171838 -2.36038e-22 0.136213 -3.43486e-22 -0.000122354)
(-0.130098 -0.0167418 -3.36793e-21 0.130229 -1.06184e-21 -0.000130899)
(-0.12423 -0.0162643 2.43603e-22 0.124369 -6.29484e-22 -0.000138687)
(-0.11851 -0.015764 3.43928e-21 0.118656 1.1224e-21 -0.000145716)
(-0.112954 -0.0152504 1.32124e-21 0.113106 7.77681e-21 -0.000151979)
(-0.107572 -0.0147309 -4.07682e-21 0.107729 1.67644e-20 -0.000157468)
(-0.102369 -0.014211 -5.05837e-21 0.102531 1.97722e-20 -0.00016217)
(-0.097347 -0.013695 7.33811e-22 0.0975131 1.96341e-20 -0.000166074)
(-0.0925071 -0.0131862 -9.5976e-21 0.0926763 1.74397e-20 -0.000169162)
(-0.0878477 -0.0126871 -5.77983e-21 0.0880191 1.33757e-20 -0.000171421)
(-0.0833667 -0.0121996 -1.68801e-20 0.0835395 1.53876e-20 -0.000172831)
(-0.0790613 -0.0117252 -2.0466e-20 0.0792347 1.57167e-20 -0.000173375)
(-0.074929 -0.0112652 -2.20907e-20 0.075102 1.90662e-20 -0.000173034)
(-0.0709668 -0.0108204 -1.89698e-20 0.0711386 2.22769e-20 -0.000171793)
(-0.0671722 -0.0103917 -2.18341e-20 0.0673418 2.77352e-20 -0.00016963)
(-0.0635428 -0.00997957 -1.08022e-20 0.0637093 3.5102e-20 -0.000166533)
(-0.0600769 -0.00958471 -1.1484e-20 0.0602394 4.05637e-20 -0.000162483)
(-0.056773 -0.00920762 -1.1639e-20 0.0569304 4.30279e-20 -0.000157472)
(-0.0536302 -0.00884884 -2.07365e-20 0.0537817 3.73366e-20 -0.000151487)
(-0.0506485 -0.00850889 -1.9542e-20 0.050793 3.16837e-20 -0.000144524)
(-0.0478282 -0.00818835 -1.90524e-20 0.0479648 2.84125e-20 -0.000136579)
(-0.0451705 -0.00788783 -1.52161e-20 0.0452981 2.92232e-20 -0.000127659)
(-0.0426773 -0.00760802 -1.67117e-20 0.042795 3.42682e-20 -0.00011777)
(-0.0403513 -0.00734964 -2.39408e-20 0.0404582 2.50045e-20 -0.000106932)
(-0.0381962 -0.00711354 -1.20846e-20 0.0382914 7.88373e-21 -9.51687e-05)
(-0.0362166 -0.00690061 1.01224e-21 0.0362991 1.99739e-20 -8.25188e-05)
(-0.0344181 -0.00671184 -9.1867e-21 0.0344871 1.97897e-20 -6.90263e-05)
(-0.0328073 -0.00654825 -1.19289e-20 0.032862 2.15478e-20 -5.47557e-05)
(-0.0313923 -0.00641081 -2.17691e-21 0.031432 2.22811e-20 -3.97795e-05)
(-0.0301822 -0.00630008 -5.26843e-21 0.0302064 1.1044e-20 -2.41946e-05)
(-0.0291879 -0.00621494 -9.99872e-22 0.029196 3.55549e-21 -8.11089e-06)
(-0.178644 -0.0190746 2.36171e-21 0.178653 -3.08809e-21 -8.91058e-06)
(-0.177368 -0.0218103 3.95476e-21 0.177394 -6.03722e-21 -2.51773e-05)
(-0.174217 -0.0235739 2.42763e-21 0.174258 -5.34212e-21 -4.03717e-05)
(-0.169827 -0.0246352 3.668e-21 0.169882 -6.95811e-21 -5.45833e-05)
(-0.164638 -0.025186 4.72206e-21 0.164706 -3.6599e-21 -6.78828e-05)
(-0.158954 -0.0253643 6.15268e-21 0.159035 -3.76971e-21 -8.03215e-05)
(-0.152989 -0.0252706 5.03857e-21 0.153081 -2.91953e-21 -9.1939e-05)
(-0.146892 -0.0249785 5.97717e-21 0.146995 -7.85201e-22 -0.000102762)
(-0.140768 -0.024543 4.82843e-21 0.14088 1.59826e-22 -0.000112811)
(-0.134689 -0.0240048 -2.72774e-21 0.134811 1.48972e-21 -0.000122098)
(-0.128706 -0.0233945 -3.78799e-21 0.128836 2.96425e-21 -0.000130628)
(-0.122853 -0.0227354 -6.33304e-22 0.122991 2.55809e-21 -0.000138404)
(-0.117153 -0.0220449 5.01828e-21 0.117299 2.1412e-21 -0.000145423)
(-0.111621 -0.0213363 1.07297e-20 0.111773 1.16818e-20 -0.000151678)
(-0.106266 -0.0206199 1.16235e-20 0.106423 2.11821e-20 -0.000157161)
(-0.101091 -0.0199033 2.79118e-21 0.101253 2.42757e-20 -0.000161859)
(-0.0960989 -0.0191925 4.3394e-21 0.0962647 1.45903e-20 -0.000165761)
(-0.091289 -0.0184921 -5.07081e-21 0.0914578 1.81813e-20 -0.00016885)
(-0.0866597 -0.0178055 -1.48661e-20 0.0868308 1.69108e-20 -0.00017111)
(-0.0822086 -0.0171353 -1.16373e-20 0.0823811 2.03508e-20 -0.000172524)
(-0.0779328 -0.0164838 -2.29771e-20 0.0781059 2.32662e-20 -0.000173074)
(-0.0738294 -0.0158525 -1.76426e-20 0.0740021 2.77275e-20 -0.00017274)
(-0.0698953 -0.0152427 -1.3811e-20 0.0700668 3.04186e-20 -0.000171507)
(-0.0661279 -0.0146555 -4.79438e-21 0.0662972 3.39911e-20 -0.000169355)
(-0.0625247 -0.0140918 -5.39151e-22 0.0626909 3.7793e-20 -0.000166269)
(-0.0590838 -0.0135523 6.84489e-21 0.059246 4.28337e-20 -0.000162233)
(-0.0558037 -0.0130378 1.59971e-21 0.0559609 4.71251e-20 -0.000157237)
(-0.0526836 -0.012549 -1.62393e-20 0.0528348 4.5743e-20 -0.000151267)
(-0.0497231 -0.0120866 -2.17415e-20 0.0498674 4.0432e-20 -0.000144321)
(-0.0469227 -0.0116513 -2.21428e-20 0.047059 4.20893e-20 -0.000136394)
(-0.0442834 -0.011244 -8.06419e-21 0.0444109 3.69714e-20 -0.000127492)
(-0.0418071 -0.0108655 5.06129e-21 0.0419247 3.26369e-20 -0.000117621)
(-0.0394966 -0.0105168 -2.33047e-20 0.0396034 3.44955e-20 -0.000106803)
(-0.0373553 -0.0101989 -2.84341e-20 0.0374504 2.80622e-20 -9.50587e-05)
(-0.0353878 -0.009913 1.87419e-20 0.0354703 3.21351e-20 -8.24281e-05)
(-0.0335997 -0.00966037 -1.27713e-21 0.0336686 2.43554e-20 -6.89548e-05)
(-0.0319974 -0.0094423 -3.45011e-21 0.0320521 2.28192e-20 -5.47026e-05)
(-0.0305888 -0.00926011 6.02535e-21 0.0306286 1.80505e-20 -3.9744e-05)
(-0.029383 -0.00911475 -1.44459e-20 0.0294072 5.05331e-22 -2.41752e-05)
(-0.0283908 -0.0090058 -5.98562e-21 0.0283989 -6.49201e-21 -8.10557e-06)
(-0.178091 -0.0245072 2.55203e-21 0.1781 -2.93458e-21 -8.88152e-06)
(-0.176395 -0.027968 4.61607e-21 0.17642 -4.76887e-21 -2.50951e-05)
(-0.172942 -0.0301957 4.58463e-21 0.172983 -6.23366e-21 -4.02397e-05)
(-0.168339 -0.0315328 2.56493e-21 0.168393 -1.17307e-21 -5.44052e-05)
(-0.163001 -0.0322229 6.4642e-21 0.163069 -8.63739e-23 -6.7662e-05)
(-0.157217 -0.032441 6.65283e-21 0.157297 -3.62912e-21 -8.00613e-05)
(-0.151188 -0.0323145 6.41526e-21 0.15128 -2.38765e-21 -9.16427e-05)
(-0.145055 -0.0319373 8.29694e-21 0.145157 2.09554e-22 -0.000102433)
(-0.138915 -0.0313786 6.9926e-21 0.139027 2.76098e-21 -0.000112452)
(-0.132836 -0.0306903 -1.28225e-21 0.132958 8.23404e-21 -0.000121712)
(-0.126865 -0.0299112 -3.78848e-21 0.126995 9.46585e-21 -0.000130219)
(-0.121033 -0.0290707 -4.02933e-21 0.121171 9.69328e-21 -0.000137973)
(-0.11536 -0.028191 3.49821e-21 0.115505 6.23984e-21 -0.000144974)
(-0.10986 -0.0272889 2.18889e-20 0.110011 9.36797e-21 -0.000151214)
(-0.10454 -0.0263774 2.13614e-20 0.104696 1.52357e-20 -0.000156685)
(-0.0994023 -0.0254662 1.10786e-20 0.0995636 1.48231e-20 -0.000161374)
(-0.0944489 -0.0245628 -6.01972e-21 0.0946142 1.00102e-20 -0.000165269)
(-0.0896785 -0.0236731 7.59608e-22 0.0898469 1.66575e-20 -0.000168354)
(-0.085089 -0.0228014 -5.04191e-21 0.0852596 2.05606e-20 -0.000170614)
(-0.0806774 -0.0219511 -7.57411e-21 0.0808494 2.45452e-20 -0.000172029)
(-0.0764406 -0.0211249 -1.83477e-20 0.0766132 3.69477e-20 -0.000172583)
(-0.0723753 -0.0203247 -1.4998e-20 0.0725476 3.82436e-20 -0.000172257)
(-0.0684783 -0.0195523 -3.62932e-21 0.0686494 2.79044e-20 -0.000171034)
(-0.0647468 -0.018809 -3.02053e-21 0.0649157 2.92575e-20 -0.000168893)
(-0.0611781 -0.0180959 1.08642e-21 0.0613439 4.201e-20 -0.000165823)
(-0.0577702 -0.0174139 9.23012e-21 0.057932 4.19515e-20 -0.000161804)
(-0.0545216 -0.016764 1.82799e-20 0.0546784 3.79495e-20 -0.000156826)
(-0.0514312 -0.016147 -4.77842e-21 0.0515821 4.4435e-20 -0.000150878)
(-0.0484987 -0.0155639 -1.4077e-20 0.0486427 4.48123e-20 -0.000143956)
(-0.0457244 -0.0150155 3.20348e-22 0.0458605 3.95702e-20 -0.000136055)
(-0.0431094 -0.0145028 2.66427e-22 0.0432366 1.7821e-20 -0.00012718)
(-0.0406554 -0.0140269 6.81045e-21 0.0407727 6.52531e-21 -0.000117339)
(-0.038365 -0.0135889 9.01526e-21 0.0384716 1.46997e-20 -0.000106552)
(-0.0362418 -0.0131902 -4.84753e-21 0.0363367 2.37845e-20 -9.48399e-05)
(-0.0342901 -0.0128321 2.77996e-20 0.0343723 1.63929e-20 -8.22427e-05)
(-0.0325153 -0.0125161 1.09862e-20 0.0325841 -6.98712e-21 -6.88036e-05)
(-0.0309239 -0.0122439 1.36317e-20 0.0309785 -1.43633e-20 -5.45862e-05)
(-0.0295235 -0.012017 7.71839e-21 0.0295631 -1.67615e-20 -3.96623e-05)
(-0.0283229 -0.0118368 -3.01434e-20 0.028347 -2.16647e-20 -2.41276e-05)
(-0.0273328 -0.0117034 -1.74418e-20 0.0273409 -1.10108e-20 -8.09079e-06)
(-0.1774 -0.0299372 3.1482e-21 0.177408 -1.75344e-21 -8.84292e-06)
(-0.175186 -0.0340729 4.5074e-21 0.175211 -1.73565e-22 -2.49861e-05)
(-0.171362 -0.0367278 4.88701e-21 0.171402 -1.54169e-21 -4.00651e-05)
(-0.166496 -0.0383139 7.82601e-21 0.16655 2.8338e-21 -5.41696e-05)
(-0.160975 -0.0391237 5.66511e-21 0.161043 3.70003e-21 -6.73697e-05)
(-0.155068 -0.0393677 1.24836e-21 0.155148 3.25639e-21 -7.97164e-05)
(-0.148961 -0.039199 5.17724e-21 0.149053 2.26278e-21 -9.12493e-05)
(-0.142784 -0.03873 1.05161e-20 0.142886 1.43868e-21 -0.000101995)
(-0.136625 -0.0380442 1.35502e-20 0.136737 2.46728e-21 -0.000111974)
(-0.130546 -0.0372036 5.48763e-21 0.130668 1.25045e-20 -0.000121196)
(-0.12459 -0.036255 -3.20557e-21 0.12472 1.69513e-20 -0.00012967)
(-0.118784 -0.0352335 -3.57827e-21 0.118921 1.70119e-20 -0.000137395)
(-0.113145 -0.0341657 -2.06866e-21 0.113289 1.14609e-20 -0.00014437)
(-0.107684 -0.033072 1.92441e-20 0.107835 5.7756e-21 -0.000150588)
(-0.102407 -0.0319676 3.08624e-20 0.102563 2.58429e-21 -0.000156041)
(-0.097316 -0.0308644 1.35059e-20 0.0974767 1.00284e-21 -0.000160715)
(-0.0924107 -0.0297714 -6.3772e-22 0.0925753 8.95559e-21 -0.000164599)
(-0.0876892 -0.0286953 1.17433e-20 0.0878569 1.02164e-20 -0.000167677)
(-0.0831488 -0.0276416 6.77341e-21 0.0833188 1.00916e-20 -0.000169933)
(-0.0787861 -0.0266143 1.22223e-20 0.0789575 1.63315e-20 -0.000171347)
(-0.0745975 -0.0256164 1.5056e-20 0.0747694 2.88992e-20 -0.000171905)
(-0.0705793 -0.0246505 2.1594e-21 0.0707509 2.44843e-20 -0.000171586)
(-0.0667282 -0.0237185 -1.86519e-20 0.0668986 1.83015e-20 -0.000170373)
(-0.063041 -0.022822 6.09334e-21 0.0632092 2.48635e-20 -0.000168247)
(-0.0595149 -0.0219622 3.61813e-20 0.0596801 3.04158e-20 -0.000165194)
(-0.0561479 -0.0211404 1.97392e-20 0.0563091 3.12228e-20 -0.000161196)
(-0.052938 -0.0203577 2.17285e-20 0.0530943 1.68265e-20 -0.000156243)
(-0.0498844 -0.0196149 2.14437e-20 0.0500347 2.87067e-20 -0.000150322)
(-0.0469864 -0.0189133 -3.071e-21 0.0471299 3.59974e-20 -0.000143431)
(-0.0442444 -0.0182537 -1.41008e-20 0.04438 1.85737e-20 -0.000135564)
(-0.0416592 -0.0176375 -3.00551e-20 0.041786 -1.03404e-20 -0.000126726)
(-0.0392327 -0.0170658 -9.27943e-21 0.0393496 -8.99576e-21 -0.000116925)
(-0.0369671 -0.01654 1.20201e-20 0.0370733 -1.27283e-20 -0.00010618)
(-0.0348661 -0.0160615 6.33505e-21 0.0349606 -4.7563e-21 -9.45135e-05)
(-0.0329337 -0.0156321 2.59289e-20 0.0330156 -2.96319e-20 -8.19636e-05)
(-0.0311753 -0.0152534 -3.12546e-20 0.0312438 -4.29743e-20 -6.85739e-05)
(-0.029597 -0.0149274 -1.87709e-20 0.0296514 -4.36703e-20 -5.44073e-05)
(-0.0282064 -0.0146558 4.36448e-21 0.0282459 -5.07663e-20 -3.95353e-05)
(-0.027012 -0.0144405 -2.49475e-20 0.027036 -4.69731e-20 -2.40525e-05)
(-0.0260243 -0.0142821 -1.51625e-20 0.0260324 -8.01298e-21 -8.06682e-06)
(-0.176568 -0.035364 4.51414e-21 0.176576 -1.37011e-22 -8.79508e-06)
(-0.173744 -0.040114 7.8369e-21 0.173769 -3.96565e-22 -2.48508e-05)
(-0.169485 -0.0431518 6.4779e-21 0.169525 1.96447e-21 -3.98483e-05)
(-0.16431 -0.0449545 8.95238e-21 0.164364 6.20207e-21 -5.38767e-05)
(-0.158575 -0.0458607 9.16754e-21 0.158642 5.29527e-21 -6.70059e-05)
(-0.152523 -0.0461139 6.43792e-21 0.152603 4.69864e-21 -7.92869e-05)
(-0.146325 -0.0458912 6.67812e-21 0.146416 2.54828e-21 -9.07589e-05)
(-0.140095 -0.0453228 8.21861e-21 0.140197 2.83682e-21 -0.000101448)
(-0.133915 -0.044505 1.41824e-20 0.134026 3.21915e-21 -0.000111376)
(-0.127837 -0.0435096 1.96603e-20 0.127958 8.80109e-21 -0.000120551)
(-0.121899 -0.0423906 1.20353e-20 0.122028 1.16212e-20 -0.000128983)
(-0.116123 -0.0411885 2.27218e-21 0.11626 1.48176e-20 -0.00013667)
(-0.110525 -0.0399342 -8.15279e-21 0.110668 1.53859e-20 -0.000143612)
(-0.105111 -0.0386509 6.12334e-21 0.105261 9.01505e-21 -0.0001498)
(-0.0998855 -0.0373564 2.35191e-20 0.100041 -8.00803e-21 -0.000155228)
(-0.0948495 -0.0360644 1.62654e-20 0.0950093 -8.5048e-21 -0.000159883)
(-0.0900011 -0.034785 1.63582e-20 0.0901649 -4.96086e-21 -0.000163752)
(-0.0853376 -0.0335263 1.56447e-20 0.0855045 -7.65743e-21 -0.000166818)
(-0.0808555 -0.0322943 1.49627e-20 0.0810246 -1.60365e-20 -0.000169067)
(-0.0765507 -0.0310936 2.41581e-20 0.0767212 -9.2276e-21 -0.00017048)
(-0.0724192 -0.0299279 2.58284e-20 0.0725902 7.49884e-22 -0.00017104)
(-0.0684569 -0.0287999 -1.50718e-21 0.0686276 2.69075e-21 -0.000170727)
(-0.06466 -0.0277119 -1.46939e-20 0.0648296 1.65953e-20 -0.000169526)
(-0.0610253 -0.0266657 8.76796e-21 0.0611928 1.49149e-20 -0.000167416)
(-0.0575498 -0.0256627 3.22163e-20 0.0577142 2.97538e-21 -0.000164383)
(-0.054231 -0.0247043 3.41894e-20 0.0543914 -9.14316e-23 -0.00016041)
(-0.0510672 -0.0237917 1.44159e-20 0.0512227 -9.84135e-21 -0.000155486)
(-0.048057 -0.022926 4.35769e-20 0.0482066 5.37711e-22 -0.0001496)
(-0.0451999 -0.0221084 4.82763e-21 0.0453427 3.48137e-20 -0.000142746)
(-0.0424961 -0.0213402 -3.63474e-20 0.042631 2.16668e-20 -0.000134921)
(-0.0399462 -0.0206226 -8.26968e-20 0.0400723 2.02786e-20 -0.00012613)
(-0.037552 -0.019957 -2.4072e-20 0.0376684 1.27191e-20 -0.00011638)
(-0.0353158 -0.019345 -1.27882e-20 0.0354215 -5.96638e-21 -0.000105689)
(-0.0332409 -0.0187882 -2.22698e-20 0.033335 6.02177e-21 -9.40803e-05)
(-0.0313313 -0.0182885 -3.81729e-20 0.0314129 -2.35499e-20 -8.15917e-05)
(-0.0295921 -0.0178479 -4.01204e-20 0.0296604 -2.68799e-20 -6.82662e-05)
(-0.0280293 -0.0174685 -3.96899e-20 0.0280835 -2.30988e-20 -5.41664e-05)
(-0.0266502 -0.0171524 -4.80701e-20 0.0266895 -3.4078e-20 -3.9363e-05)
(-0.0254629 -0.0169016 -5.56224e-20 0.0254869 -2.5056e-20 -2.39498e-05)
(-0.024478 -0.0167173 3.6902e-21 0.0244861 6.7403e-21 -8.03356e-06)
(-0.175593 -0.0407865 4.75949e-21 0.175602 1.70499e-21 -8.73784e-06)
(-0.172076 -0.0460806 9.64825e-21 0.1721 -7.86626e-22 -2.46891e-05)
(-0.16732 -0.0494501 9.95973e-21 0.167359 2.60407e-21 -3.95891e-05)
(-0.161793 -0.0514319 1.34412e-20 0.161847 4.80655e-21 -5.35266e-05)
(-0.155814 -0.0524073 1.20712e-20 0.15588 6.87706e-23 -6.65711e-05)
(-0.149599 -0.0526503 6.97142e-21 0.149678 -2.19787e-22 -7.87733e-05)
(-0.143297 -0.0523603 4.33239e-21 0.143387 2.67658e-21 -9.01721e-05)
(-0.13701 -0.0516834 1.01061e-20 0.13711 2.91842e-21 -0.000100794)
(-0.130805 -0.050728 1.41232e-20 0.130916 4.98598e-21 -0.000110659)
(-0.12473 -0.0495748 1.95612e-20 0.124849 4.61353e-21 -0.000119778)
(-0.118813 -0.0482844 6.27893e-21 0.118941 1.0767e-20 -0.000128158)
(-0.113073 -0.0469023 8.27173e-21 0.113209 1.08031e-20 -0.000135799)
(-0.10752 -0.0454631 -4.18408e-21 0.107663 1.68174e-20 -0.000142699)
(-0.102161 -0.0439929 2.4874e-21 0.10231 9.12294e-21 -0.000148852)
(-0.0969954 -0.0425115 2.4318e-21 0.0971497 -7.58942e-21 -0.00015425)
(-0.0920227 -0.0410342 8.54457e-21 0.0921816 -9.15937e-21 -0.000158879)
(-0.08724 -0.0395726 2.33588e-21 0.0874027 -1.17988e-20 -0.000162727)
(-0.0826433 -0.0381353 6.25806e-21 0.0828091 -2.00184e-20 -0.000165779)
(-0.0782282 -0.0367293 -1.28329e-20 0.0783962 -2.55297e-20 -0.000168019)
(-0.0739901 -0.0353597 1.35061e-20 0.0741595 -1.67342e-20 -0.000169427)
(-0.0699242 -0.0340304 3.16619e-20 0.0700941 -1.20948e-20 -0.000169989)
(-0.0660261 -0.0327446 1.00985e-20 0.0661958 -4.17666e-21 -0.000169683)
(-0.0622917 -0.0315048 4.74568e-21 0.0624602 1.03428e-20 -0.000168494)
(-0.0587174 -0.0303129 -7.98495e-21 0.0588838 1.03309e-20 -0.000166402)
(-0.0552999 -0.0291706 6.65733e-21 0.0554633 -5.34585e-21 -0.000163392)
(-0.0520366 -0.0280793 2.0506e-20 0.0521961 -2.28763e-20 -0.000159448)
(-0.0489256 -0.0270403 -9.44718e-21 0.0490801 -1.05683e-20 -0.000154559)
(-0.0459654 -0.026055 3.81421e-20 0.0461141 1.88538e-21 -0.000148712)
(-0.0431553 -0.0251246 8.10997e-20 0.0432972 2.27238e-20 -0.000141904)
(-0.0404952 -0.0242505 2.1131e-21 0.0406294 8.68175e-21 -0.000134129)
(-0.037986 -0.023434 -3.1822e-20 0.0381114 3.18951e-20 -0.000125394)
(-0.035629 -0.0226768 -4.31664e-20 0.0357447 2.74859e-20 -0.000115704)
(-0.0334265 -0.0219805 -3.49282e-20 0.0335316 2.41865e-20 -0.00010508)
(-0.0313815 -0.021347 1.7004e-20 0.0314751 1.95727e-20 -9.35418e-05)
(-0.029498 -0.0207783 -5.11225e-20 0.0295791 1.198e-20 -8.11284e-05)
(-0.0277808 -0.0202766 -6.81122e-20 0.0278487 1.44205e-20 -6.78821e-05)
(-0.0262358 -0.0198443 -5.45362e-20 0.0262896 2.9202e-20 -5.38647e-05)
(-0.0248697 -0.0194837 -4.91941e-20 0.0249088 1.49998e-20 -3.91466e-05)
(-0.0236907 -0.0191972 -3.25092e-20 0.0237145 -3.91881e-22 -2.38203e-05)
(-0.0227091 -0.0189861 1.1006e-20 0.0227171 9.98655e-21 -7.99135e-06)
(-0.174474 -0.0462032 3.82893e-21 0.174482 4.26822e-21 -8.67143e-06)
(-0.170184 -0.0519624 9.78688e-21 0.170209 9.88337e-22 -2.45014e-05)
(-0.164877 -0.0556057 1.27192e-20 0.164916 9.15212e-22 -3.92881e-05)
(-0.158961 -0.0577245 1.51516e-20 0.159014 -9.39598e-24 -5.31199e-05)
(-0.152711 -0.0587386 7.32141e-21 0.152777 1.0324e-21 -6.60657e-05)
(-0.146315 -0.0589497 3.44996e-21 0.146393 4.1532e-21 -7.81759e-05)
(-0.139899 -0.0585771 7.33758e-21 0.139989 2.3453e-21 -8.94894e-05)
(-0.133549 -0.0577816 9.42934e-21 0.133649 2.1923e-21 -0.000100032)
(-0.127319 -0.0566824 1.36159e-20 0.127429 7.22282e-21 -0.000109824)
(-0.121247 -0.0553682 1.70099e-20 0.121366 1.06583e-20 -0.000118876)
(-0.115355 -0.0539053 6.65377e-21 0.115482 2.31177e-20 -0.000127196)
(-0.109656 -0.0523438 -3.70622e-21 0.109791 2.29529e-20 -0.000134782)
(-0.104156 -0.0507216 -6.27808e-21 0.104298 2.2631e-20 -0.000141634)
(-0.0988582 -0.0490673 -1.58063e-20 0.0990059 1.77263e-20 -0.000147744)
(-0.0937601 -0.0474026 -1.61622e-20 0.0939132 6.80912e-21 -0.000153105)
(-0.0888589 -0.0457443 5.75206e-21 0.0890166 -3.92725e-21 -0.000157703)
(-0.0841501 -0.0441047 -4.97373e-21 0.0843116 -4.62425e-21 -0.000161527)
(-0.0796286 -0.0424937 -5.22625e-21 0.0797932 -1.90061e-20 -0.000164561)
(-0.075289 -0.0409186 -2.32671e-20 0.0754557 -9.89783e-21 -0.000166788)
(-0.0711257 -0.0393849 1.67627e-22 0.0712939 1.942e-21 -0.000168191)
(-0.0671337 -0.037897 1.71216e-20 0.0673024 -1.81935e-21 -0.000168753)
(-0.0633078 -0.0364582 8.1233e-21 0.0634762 1.89108e-21 -0.000168454)
(-0.0596436 -0.0350713 1.9254e-20 0.0598109 -1.6649e-23 -0.000167278)
(-0.0561371 -0.0337383 3.81068e-21 0.0563023 6.66799e-21 -0.000165206)
(-0.0527848 -0.032461 -1.74098e-20 0.0529471 1.18448e-21 -0.000162222)
(-0.049584 -0.031241 -5.42745e-21 0.0497423 -1.85556e-20 -0.000158311)
(-0.0465323 -0.0300797 -8.37651e-22 0.0466857 1.69696e-20 -0.000153461)
(-0.0436282 -0.0289785 1.26069e-20 0.0437759 4.14053e-20 -0.00014766)
(-0.0408709 -0.0279387 4.06364e-20 0.0410118 3.19085e-20 -0.000140904)
(-0.0382601 -0.0269618 -2.94007e-20 0.0383933 1.61983e-20 -0.000133189)
(-0.0357965 -0.0260493 -8.22123e-21 0.035921 1.55082e-20 -0.000124519)
(-0.0334812 -0.0252029 -4.29736e-21 0.0335961 8.95189e-21 -0.000114901)
(-0.0313165 -0.0244245 -1.13886e-20 0.0314209 1.30183e-20 -0.000104354)
(-0.0293052 -0.0237161 1.48763e-20 0.0293981 -2.05539e-20 -9.28993e-05)
(-0.027451 -0.0230798 -1.47419e-20 0.0275316 1.36377e-20 -8.05746e-05)
(-0.0257585 -0.0225181 -1.50522e-20 0.0258259 1.96693e-20 -6.74221e-05)
(-0.0242333 -0.0220335 5.76483e-21 0.0242868 2.55769e-20 -5.35029e-05)
(-0.022882 -0.0216287 -5.3971e-20 0.0229208 8.99593e-21 -3.88864e-05)
(-0.0217124 -0.0213062 -9.56285e-20 0.021736 2.26284e-20 -2.36641e-05)
(-0.0207347 -0.0210674 1.60401e-20 0.0207427 2.08333e-20 -7.94011e-06)
(-0.173206 -0.0516125 5.4583e-21 0.173215 -2.31061e-22 -8.59577e-06)
(-0.168076 -0.0577497 1.18435e-20 0.168101 -4.47631e-21 -2.42876e-05)
(-0.162169 -0.061603 1.17123e-20 0.162208 1.23032e-21 -3.89454e-05)
(-0.155829 -0.0638122 1.18496e-20 0.155881 6.0719e-21 -5.26567e-05)
(-0.149286 -0.0648314 9.13143e-21 0.149351 6.15839e-21 -6.54901e-05)
(-0.142694 -0.0649866 1.26427e-20 0.142772 -2.64879e-21 -7.74956e-05)
(-0.136156 -0.0645148 6.40457e-21 0.136245 -1.67112e-21 -8.87115e-05)
(-0.129738 -0.0635897 9.99158e-21 0.129837 1.37293e-21 -9.9164e-05)
(-0.123482 -0.0623398 1.30388e-20 0.123591 1.36855e-20 -0.000108873)
(-0.117415 -0.0608607 1.74688e-20 0.117533 2.54245e-20 -0.000117848)
(-0.111552 -0.0592242 2.37327e-20 0.111678 2.9877e-20 -0.000126098)
(-0.105899 -0.0574841 1.00586e-20 0.106033 2.8071e-20 -0.000133621)
(-0.100459 -0.055681 -4.74999e-21 0.100599 2.89455e-20 -0.000140417)
(-0.0952288 -0.0538459 -4.21317e-21 0.0953753 1.93731e-20 -0.000146478)
(-0.0902056 -0.052002 -2.11626e-20 0.0903574 1.30621e-20 -0.000151796)
(-0.0853836 -0.0501671 -1.54623e-20 0.08554 6.92236e-21 -0.000156358)
(-0.0807567 -0.0483547 -6.87144e-21 0.0809169 1.61588e-21 -0.000160154)
(-0.0763184 -0.0465751 -2.05501e-20 0.0764815 -9.60068e-21 -0.000163165)
(-0.0720622 -0.0448362 -1.62998e-20 0.0722276 6.21991e-21 -0.000165378)
(-0.0679818 -0.0431438 3.22441e-21 0.0681486 2.30528e-20 -0.000166773)
(-0.0640713 -0.0415027 3.75939e-21 0.0642386 2.27192e-20 -0.000167334)
(-0.0603251 -0.0399164 2.0419e-21 0.0604922 1.46642e-20 -0.000167042)
(-0.0567385 -0.0383875 3.01106e-21 0.0569044 -2.63664e-21 -0.000165881)
(-0.0533069 -0.0369185 1.77691e-20 0.0534707 -3.09072e-21 -0.00016383)
(-0.0500266 -0.0355112 -7.154e-21 0.0501875 5.94609e-22 -0.000160875)
(-0.0468947 -0.0341671 -3.19581e-20 0.0470517 3.80385e-21 -0.000157001)
(-0.0439085 -0.0328878 4.15678e-20 0.0440607 3.5492e-20 -0.000152195)
(-0.0410664 -0.0316748 8.50743e-20 0.0412128 4.17715e-20 -0.000146446)
(-0.0383673 -0.0305294 8.68072e-20 0.038507 3.23134e-20 -0.00013975)
(-0.0358109 -0.0294532 -9.07608e-21 0.035943 2.17568e-20 -0.000132102)
(-0.0333976 -0.0284479 -3.03943e-20 0.0335211 -8.0585e-22 -0.000123507)
(-0.0311285 -0.0275152 -3.32272e-20 0.0312424 -1.72723e-20 -0.000113971)
(-0.0290055 -0.026657 -9.12974e-21 0.029109 -3.29282e-20 -0.000103513)
(-0.0270313 -0.0258757 -3.62624e-20 0.0271234 -3.08127e-20 -9.21544e-05)
(-0.0252094 -0.0251734 2.94013e-20 0.0252893 5.01655e-21 -7.99321e-05)
(-0.0235442 -0.0245529 -3.07423e-20 0.0236111 -3.03727e-21 -6.68879e-05)
(-0.022041 -0.0240168 -6.89585e-21 0.022094 8.91904e-21 -5.30822e-05)
(-0.020706 -0.023568 -3.62376e-20 0.0207446 3.15339e-20 -3.85835e-05)
(-0.0195469 -0.0232092 -1.74459e-20 0.0195704 5.91357e-20 -2.3482e-05)
(-0.018574 -0.022942 2.03165e-20 0.0185819 1.96859e-20 -7.88019e-06)
(-0.171788 -0.0570122 9.70955e-21 0.171797 -1.15065e-20 -8.51103e-06)
(-0.165758 -0.063433 1.59353e-20 0.165782 -1.17978e-20 -2.40481e-05)
(-0.159208 -0.0674273 1.86147e-20 0.159247 -2.25877e-21 -3.85613e-05)
(-0.152415 -0.0696767 2.55796e-20 0.152467 -5.2973e-21 -5.21377e-05)
(-0.14556 -0.0706645 1.40659e-20 0.145625 -3.86886e-21 -6.4845e-05)
(-0.138761 -0.0707379 1.24442e-21 0.138837 -2.78273e-21 -7.67328e-05)
(-0.132093 -0.0701488 2.5281e-21 0.132181 1.30583e-21 -8.78393e-05)
(-0.125604 -0.0690821 -1.38265e-21 0.125703 1.74086e-20 -9.81902e-05)
(-0.119323 -0.0676741 1.32614e-20 0.119431 2.94545e-20 -0.000107805)
(-0.113264 -0.0660264 3.86994e-20 0.11338 2.20245e-20 -0.000116694)
(-0.107433 -0.064215 3.63432e-20 0.107558 1.90626e-20 -0.000124865)
(-0.101832 -0.0622971 1.38932e-20 0.101964 2.40926e-20 -0.000132317)