/*--------------------------------*- C++ -*----------------------------------*\
| =========                 |                                                 |
| \\      /  F ield         | foam-extend: Open Source CFD                    |
|  \\    /   O peration     | Version:  3.0                                   |
|   \\  /    A nd           | Web:         http://www.extend-project.de       |
|    \\/     M anipulation  |                                                 |
\*---------------------------------------------------------------------------*/
FoamFile
{
    version     2.0;
    format      ascii;
    class       volVectorField;
    location    "14";
    object      u;
}
// * * * * * * * * * * * * * * * * * * * * * * * * * * * * * * * * * * * * * //

dimensions      [0 0 0 0 0 0 0];

internalField   nonuniform List<vector> 
7680
(
(0.0732481 -0.031275 1.9154e-19)
(0.192423 -0.0275364 2.15056e-19)
(0.293364 -0.024343 1.00154e-19)
(0.379106 -0.0215961 1.69571e-19)
(0.452829 -0.0192262 7.32479e-20)
(0.516248 -0.0171675 2.03307e-19)
(0.571468 -0.0153741 1.19286e-19)
(0.619463 -0.0138016 2.05137e-19)
(0.661706 -0.0124192 3.32988e-19)
(0.698734 -0.0111964 1.41364e-19)
(0.731627 -0.0101121 8.96285e-20)
(0.760657 -0.00914536 1.01268e-19)
(0.786652 -0.00828128 5.84684e-20)
(0.809715 -0.00750523 -1.08121e-19)
(0.830512 -0.00680659 2.31297e-19)
(0.849033 -0.00617524 3.38091e-19)
(0.865835 -0.00560321 3.05375e-19)
(0.880833 -0.00508368 1.44532e-19)
(0.894509 -0.0046104 1.80158e-19)
(0.906725 -0.00417904 -2.65559e-19)
(0.917912 -0.00378437 7.24324e-20)
(0.927896 -0.00342405 1.29236e-19)
(0.937069 -0.00309343 2.3678e-19)
(0.94523 -0.00279179 1.61082e-19)
(0.952748 -0.00251475 1.97038e-19)
(0.959397 -0.002263 4.36728e-19)
(0.96553 -0.00203218 5.99302e-19)
(0.970902 -0.00182428 2.07163e-19)
(0.975856 -0.00163473 4.32984e-20)
(0.980131 -0.00146674 1.87334e-19)
(0.984064 -0.00131539 3.51763e-19)
(0.987377 -0.00118502 3.10127e-19)
(0.990405 -0.00107021 7.99363e-20)
(0.992855 -0.000976312 -4.69213e-19)
(0.995063 -0.00089704 -1.32537e-19)
(0.99672 -0.00083794 8.13244e-20)
(0.998164 -0.000788964 6.12662e-19)
(0.999074 -0.000746018 2.03939e-19)
(0.99979 -0.000662519 9.88904e-20)
(0.999983 -0.000416546 1.37196e-19)
(0.0774069 -0.0950573 1.49664e-19)
(0.19609 -0.0838144 -9.38521e-20)
(0.296613 -0.0742589 1.27214e-19)
(0.381999 -0.0660709 2.43963e-19)
(0.455415 -0.0590244 3.03808e-20)
(0.518568 -0.0529152 1.2097e-20)
(0.573557 -0.0476003 1.45665e-20)
(0.621351 -0.0429448 1.95334e-19)
(0.663417 -0.0388549 5.51645e-20)
(0.700289 -0.0352391 3.26461e-20)
(0.733044 -0.0320341 1.2037e-19)
(0.761951 -0.0291765 1.95032e-19)
(0.787837 -0.0266222 2.50467e-19)
(0.810801 -0.0243271 1.63591e-19)
(0.83151 -0.0222595 4.30003e-19)
(0.849951 -0.0203884 5.81478e-19)
(0.86668 -0.0186903 5.08564e-19)
(0.881612 -0.0171436 -6.75858e-20)
(0.895227 -0.0157301 -1.92883e-19)
(0.907388 -0.0144349 -3.3542e-19)
(0.918524 -0.0132433 2.30959e-19)
(0.928461 -0.0121456 3.00073e-19)
(0.937591 -0.0111292 2.18624e-19)
(0.945711 -0.0101885 5.46324e-20)
(0.95319 -0.00931184 1.00431e-18)
(0.959803 -0.00849726 5.17107e-19)
(0.965902 -0.00773339 2.54634e-19)
(0.971242 -0.00702117 2.45984e-22)
(0.976165 -0.00634912 1.70126e-19)
(0.980411 -0.00572066 3.00066e-19)
(0.984315 -0.00512383 4.60112e-19)
(0.9876 -0.00456414 9.3044e-19)
(0.990602 -0.00402884 7.96922e-19)
(0.993026 -0.00352514 -5.41941e-19)
(0.995209 -0.00303917 -2.3189e-19)
(0.996841 -0.00257892 -2.83736e-19)
(0.998261 -0.0021271 1.0692e-18)
(0.999147 -0.00168345 2.76268e-19)
(0.999839 -0.00119837 2.71996e-19)
(1 -0.000568244 8.17446e-19)
(0.0857277 -0.158431 2.99052e-19)
(0.203429 -0.139731 -1.54387e-19)
(0.30312 -0.123855 4.34861e-19)
(0.387793 -0.110261 4.52625e-20)
(0.460597 -0.098568 4.34058e-19)
(0.523221 -0.0884345 6.58036e-20)
(0.577749 -0.0796207 8.6617e-20)
(0.62514 -0.0719021 6.03792e-20)
(0.666853 -0.0651222 -7.97296e-19)
(0.703412 -0.0591289 -3.95082e-19)
(0.735891 -0.0538168 4.29828e-19)
(0.76455 -0.0490805 3.18946e-19)
(0.790216 -0.044847 2.10509e-20)
(0.812983 -0.0410425 2.5766e-19)
(0.833513 -0.0376148 7.79984e-19)
(0.851793 -0.0345118 1.08846e-18)
(0.868376 -0.0316949 -4.67201e-19)
(0.883174 -0.0291275 5.43877e-19)
(0.896667 -0.0267796 -6.11331e-19)
(0.908716 -0.0246261 8.26862e-20)
(0.919748 -0.0226425 1.9325e-19)
(0.929589 -0.0208122 6.75905e-19)
(0.938629 -0.0191141 3.68269e-19)
(0.946666 -0.0175383 1.35673e-18)
(0.954067 -0.0160656 4.12991e-19)
(0.960607 -0.0146916 6.94572e-19)
(0.966636 -0.0133978 1.26335e-19)
(0.97191 -0.0121842 6.87264e-19)
(0.97677 -0.0110324 4.13049e-19)
(0.980956 -0.00994613 5.0373e-19)
(0.984802 -0.00890635 4.1871e-19)
(0.988031 -0.00791981 1.89456e-19)
(0.990978 -0.00696646 1.00801e-18)
(0.993349 -0.00605549 1.32025e-18)
(0.99548 -0.00516545 2.2497e-20)
(0.997063 -0.00430692 8.19323e-20)
(0.998434 -0.00345535 8.0191e-19)
(0.999273 -0.0026145 -1.42583e-19)
(0.999918 -0.0017313 -1.02164e-19)
(1.00003 -0.000720052 -2.70573e-19)
(0.0981751 -0.221123 3.20736e-19)
(0.214409 -0.195048 -2.43064e-19)
(0.312856 -0.172919 2.66666e-19)
(0.396465 -0.153977 3.70124e-19)
(0.468355 -0.137688 5.99013e-19)
(0.530186 -0.123573 -1.93921e-20)
(0.584026 -0.111299 1.77084e-19)
(0.630815 -0.10055 2.84771e-19)
(0.671998 -0.0911092 -1.88037e-19)
(0.70809 -0.082764 4.73072e-19)
(0.740154 -0.0753673 7.14175e-19)
(0.768445 -0.0687726 6.0866e-19)
(0.793781 -0.0628779 5.65566e-19)
(0.816251 -0.0575803 1.9688e-19)
(0.836514 -0.052807 -8.16146e-19)
(0.854552 -0.0484854 -2.61986e-19)
(0.870914 -0.0445615 -1.03936e-18)
(0.885512 -0.0409844 -5.87875e-19)
(0.898821 -0.0377121 8.9622e-19)
(0.910702 -0.0347093 -2.22759e-19)
(0.921578 -0.0319421 1.02673e-18)
(0.931275 -0.0293867 7.06398e-19)
(0.940181 -0.0270141 6.77522e-19)
(0.948093 -0.0248098 -2.83824e-20)
(0.955376 -0.0227473 1.10202e-19)
(0.961805 -0.0208196 -5.57197e-19)
(0.967729 -0.0190013 -1.06712e-18)
(0.972904 -0.0172914 -8.90385e-20)
(0.977669 -0.0156648 4.98456e-19)
(0.981764 -0.0141253 1.2111e-18)
(0.985522 -0.0126471 7.7595e-19)
(0.988667 -0.0112382 -1.71229e-18)
(0.991532 -0.00987127 -3.43682e-19)
(0.993824 -0.00855765 3.32397e-18)
(0.995878 -0.00726835 -1.01101e-18)
(0.997386 -0.00601681 -4.24754e-19)
(0.998685 -0.00477104 4.05376e-19)
(0.999453 -0.00353907 -1.61482e-18)
(1.00003 -0.00226328 -3.06732e-19)
(1.00007 -0.000874459 1.55175e-19)
(0.114696 -0.282866 7.49282e-19)
(0.228984 -0.249527 6.41299e-19)
(0.325781 -0.22124 -5.2388e-20)
(0.407978 -0.197032 1.69232e-18)
(0.478654 -0.176216 5.87486e-19)
(0.539435 -0.158181 1.18703e-19)
(0.592361 -0.142498 3.01518e-19)
(0.63835 -0.128765 2.54944e-19)
(0.678831 -0.116704 -1.12299e-19)
(0.714302 -0.106042 5.09844e-19)
(0.745817 -0.0965927 7.23009e-19)
(0.773617 -0.0881677 9.76945e-19)
(0.798515 -0.0806369 1.39719e-18)
(0.820591 -0.0738688 -4.68985e-19)
(0.840499 -0.0677702 -1.31577e-18)
(0.858215 -0.0622484 -1.90411e-18)
(0.874286 -0.0572344 6.81426e-19)
(0.888617 -0.0526626 -4.32717e-19)
(0.901682 -0.0484799 -7.34882e-20)
(0.913338 -0.0446406 -1.22876e-19)
(0.924007 -0.0411015 9.998e-19)
(0.933512 -0.0378319 7.60052e-19)
(0.942239 -0.0347949 -5.51405e-19)
(0.949985 -0.0319714 2.85581e-19)
(0.957111 -0.0293277 7.42101e-19)
(0.963393 -0.0268545 4.37783e-19)
(0.969178 -0.0245194 -1.6973e-18)
(0.97422 -0.0223205 -7.22602e-19)
(0.978859 -0.020226 5.09767e-19)
(0.982832 -0.0182401 -1.46074e-18)
(0.986474 -0.01633 -1.32609e-18)
(0.989507 -0.0145053 -1.1015e-18)
(0.992263 -0.0127313 -2.6035e-18)
(0.994451 -0.0110218 5.76003e-19)
(0.996402 -0.00934014 -2.5782e-18)
(0.99781 -0.00770313 -2.07769e-18)
(0.999013 -0.00607103 -1.93084e-18)
(0.999687 -0.00445637 -3.1864e-18)
(1.00017 -0.00279546 -1.9167e-19)
(1.00012 -0.00103326 1.77136e-18)
(0.135219 -0.343396 9.81017e-19)
(0.24709 -0.302935 9.58373e-19)
(0.341838 -0.268611 1.44184e-18)
(0.422282 -0.239241 4.15316e-19)
(0.491451 -0.213988 4.13618e-19)
(0.550927 -0.19211 1.57225e-18)
(0.602719 -0.173085 1.06314e-18)
(0.647714 -0.156427 3.75009e-19)
(0.687323 -0.141797 -5.06105e-19)
(0.722023 -0.128864 -2.75279e-19)
(0.752854 -0.117403 7.58442e-19)
(0.780045 -0.107183 3.31107e-19)
(0.804398 -0.0980485 1.62712e-18)
(0.825985 -0.0898387 4.40599e-19)
(0.845452 -0.082441 -2.17707e-18)
(0.862768 -0.0757425 -1.72481e-18)
(0.878476 -0.0696596 4.77387e-19)
(0.892476 -0.0641127 -1.36116e-18)
(0.905237 -0.0590373 -8.64853e-19)
(0.916614 -0.0543778 -1.06422e-18)
(0.927025 -0.0500818 -2.4397e-18)
(0.936291 -0.046112 -2.70965e-18)
(0.944796 -0.0424233 9.42063e-19)
(0.952334 -0.0389926 8.78863e-19)
(0.959266 -0.035779 -2.56482e-18)
(0.965364 -0.0327707 -1.43505e-18)
(0.970975 -0.0299287 -1.13143e-18)
(0.975853 -0.0272503 -2.26933e-18)
(0.980335 -0.0246969 -9.97953e-19)
(0.984158 -0.0222733 -1.62125e-18)
(0.987655 -0.0199398 8.61014e-19)
(0.990549 -0.0177076 1.07028e-18)
(0.99317 -0.015535 -1.16511e-18)
(0.995227 -0.0134382 9.28579e-20)
(0.997051 -0.0113733 -4.22105e-18)
(0.998337 -0.00936034 5.13311e-19)
(0.99942 -0.00735187 1.55722e-18)
(0.999979 -0.00536502 -2.08677e-18)
(1.00035 -0.00332819 -1.54438e-20)
(1.00018 -0.0011976 1.91234e-18)
(0.159657 -0.402452 1.23899e-18)
(0.268651 -0.355044 -3.50651e-19)
(0.360959 -0.314831 8.83671e-19)
(0.439316 -0.280423 8.62815e-19)
(0.506691 -0.250841 -1.55897e-19)
(0.564613 -0.225213 -3.44983e-19)
(0.615054 -0.202929 -5.64055e-20)
(0.658866 -0.183417 6.29802e-19)
(0.697437 -0.16628 6.18379e-19)
(0.731219 -0.151132 -1.5145e-18)
(0.761237 -0.137707 -1.57658e-18)
(0.787702 -0.125737 -1.20029e-18)
(0.811406 -0.115038 1.34982e-18)
(0.83241 -0.105421 1.3908e-18)
(0.851351 -0.0967557 -9.03166e-19)
(0.868192 -0.0889091 -9.5893e-19)
(0.883466 -0.0817833 -1.4457e-18)
(0.897071 -0.075285 -1.93503e-18)
(0.909471 -0.0693385 -1.47369e-18)
(0.920515 -0.0638787 -1.34464e-18)
(0.930619 -0.058844 -2.75288e-18)
(0.9396 -0.0541908 -1.14708e-18)
(0.947841 -0.0498662 9.90428e-19)
(0.955131 -0.0458428 3.55314e-19)
(0.961831 -0.042073 -1.10665e-18)
(0.967711 -0.0385425 -3.19184e-18)
(0.973115 -0.0352058 3.39443e-19)
(0.977797 -0.0320594 -2.3561e-18)
(0.982092 -0.0290582 -1.18615e-18)
(0.985737 -0.0262075 -9.01288e-19)
(0.989062 -0.0234611 5.71475e-18)
(0.99179 -0.0208318 1.84469e-18)
(0.994251 -0.0182708 1.23518e-18)
(0.996153 -0.0157974 1.24661e-18)
(0.997827 -0.0133598 2.02959e-18)
(0.998967 -0.0109824 1.56693e-18)
(0.999908 -0.0086094 1.50032e-18)
(1.00033 -0.00626264 1.44326e-18)
(1.00056 -0.00386073 5.0931e-18)
(1.00026 -0.00136771 1.01644e-18)
(0.187906 -0.459783 1.44792e-18)
(0.293574 -0.40563 1.09303e-19)
(0.383061 -0.3597 6.96395e-19)
(0.459007 -0.320403 -3.41887e-19)
(0.524309 -0.286618 -1.02798e-18)
(0.580434 -0.257351 -4.67713e-19)
(0.629314 -0.231901 6.81112e-19)
(0.67176 -0.209619 2.15893e-19)
(0.709129 -0.190049 7.6698e-19)
(0.74185 -0.172751 -7.29255e-19)
(0.770927 -0.15742 8.32976e-19)
(0.796554 -0.14375 -1.00981e-18)
(0.819509 -0.131531 4.26965e-19)
(0.839838 -0.12055 -2.07788e-19)
(0.858172 -0.110654 1.08466e-18)
(0.874461 -0.101692 -1.35497e-20)
(0.889236 -0.093554 7.20273e-19)
(0.902384 -0.086132 -1.30375e-18)
(0.914365 -0.0793397 2.25826e-18)
(0.925025 -0.0731028 1.54409e-18)
(0.934774 -0.067351 -1.65544e-18)
(0.943426 -0.0620341 -6.60082e-19)
(0.95136 -0.057092 -1.13278e-18)
(0.958365 -0.0524932 9.13254e-19)
(0.964796 -0.0481831 8.72252e-19)
(0.970424 -0.0441455 -1.77117e-18)
(0.975589 -0.0403283 3.09902e-18)
(0.980045 -0.0367275 2.78028e-18)
(0.984123 -0.0332915 -6.53192e-18)
(0.987562 -0.0300264 -3.56273e-18)
(0.990689 -0.0268792 -1.59931e-18)
(0.993227 -0.0238649 5.10417e-19)
(0.995503 -0.0209276 3.54993e-18)
(0.997227 -0.0180897 -3.58245e-18)
(0.998727 -0.015292 2.19117e-19)
(0.999699 -0.0125633 3.06615e-18)
(1.00048 -0.00983911 2.48338e-18)
(1.00074 -0.00714619 9.38856e-19)
(1.00081 -0.00439145 2.27758e-18)
(1.00035 -0.00154317 -1.18957e-18)
(0.219843 -0.515143 1.51261e-18)
(0.321751 -0.454478 5.65689e-19)
(0.408051 -0.403027 4.73555e-19)
(0.48127 -0.359008 -6.63135e-19)
(0.544228 -0.321166 6.26764e-19)
(0.598324 -0.288384 1.13473e-18)
(0.645438 -0.259879 7.45143e-20)
(0.686338 -0.234921 3.88644e-19)
(0.722351 -0.213002 8.80208e-19)
(0.753872 -0.193627 5.80003e-19)
(0.781886 -0.176455 9.15962e-19)
(0.806564 -0.161145 1.50286e-18)
(0.828671 -0.147459 6.73474e-19)
(0.848238 -0.135159 1.28385e-18)
(0.865884 -0.124074 2.64065e-18)
(0.881551 -0.114037 -1.76996e-19)
(0.89576 -0.104921 5.47388e-19)
(0.908392 -0.0966066 -6.03999e-19)
(0.9199 -0.0889976 2.82319e-18)
(0.930124 -0.0820102 2.52811e-18)
(0.939472 -0.0755658 4.81087e-19)
(0.947752 -0.069608 8.31023e-19)
(0.95534 -0.0640694 -1.34654e-18)
(0.962021 -0.0589147 -1.32158e-18)
(0.968149 -0.0540829 9.88568e-19)
(0.973492 -0.0495555 1.40888e-18)
(0.978388 -0.0452742 2.18107e-18)
(0.982588 -0.0412346 4.68514e-18)
(0.986422 -0.0373787 -1.38148e-18)
(0.989629 -0.0337135 2.86114e-18)
(0.992531 -0.0301797 -3.22906e-19)
(0.994855 -0.0267941 -2.0924e-18)
(0.996922 -0.0234942 -8.11009e-19)
(0.998446 -0.0203057 -2.38756e-18)
(0.99975 -0.017162 -1.40918e-18)
(1.00053 -0.0140964 -4.89121e-19)
(1.00113 -0.0110359 -4.33709e-18)
(1.00121 -0.00801182 -2.3553e-18)
(1.0011 -0.00491778 7.88442e-18)
(1.00045 -0.00172278 -8.49115e-19)
(0.255332 -0.568295 -8.99474e-20)
(0.353063 -0.501377 -6.67766e-19)
(0.435821 -0.444626 1.055e-18)
(0.50601 -0.396074 1.20056e-18)
(0.566364 -0.354336 5.63459e-19)
(0.618204 -0.31818 -1.6122e-18)
(0.663357 -0.286741 -9.24467e-20)
(0.70254 -0.259215 4.99094e-19)
(0.737044 -0.23504 1.43013e-18)
(0.767233 -0.213672 1.6988e-18)
(0.794064 -0.194733 -1.10642e-18)
(0.817689 -0.177847 -1.19465e-18)
(0.838853 -0.162753 1.26385e-19)
(0.857574 -0.149186 -1.73569e-18)
(0.874456 -0.136961 8.84386e-19)
(0.889431 -0.12589 1.74887e-18)
(0.903011 -0.115835 -3.8256e-19)
(0.915069 -0.106664 1.06234e-18)
(0.926051 -0.0982712 2.1688e-18)
(0.935792 -0.0905631 1.24249e-18)
(0.944693 -0.0834535 1.12318e-18)
(0.95256 -0.0768802 2.76301e-19)
(0.959763 -0.0707688 8.77684e-19)
(0.966086 -0.0650803 -1.68901e-18)
(0.971877 -0.0597474 -1.78717e-18)
(0.976904 -0.0547495 4.84701e-18)
(0.981499 -0.0500226 3.25927e-19)
(0.985416 -0.0455616 -2.49816e-18)
(0.988979 -0.0413026 -7.44379e-18)
(0.991928 -0.0372535 -2.30428e-18)
(0.994582 -0.0333487 -6.66273e-19)
(0.996668 -0.0296073 8.82024e-19)
(0.998505 -0.0259601 -2.55745e-18)
(0.999807 -0.0224363 4.9697e-18)
(1.00089 -0.018962 -3.67383e-18)
(1.00147 -0.0155753 1.99662e-18)
(1.00186 -0.0121944 8.01318e-20)
(1.00174 -0.0088552 1.54897e-18)
(1.00143 -0.00543658 1.36903e-18)
(1.00057 -0.00190491 -3.22927e-18)
(0.294221 -0.619011 -1.05049e-18)
(0.387375 -0.546127 -6.03842e-19)
(0.466252 -0.484318 1.09416e-19)
(0.533122 -0.431442 -2.52906e-18)
(0.590622 -0.385986 -1.91317e-18)
(0.63999 -0.346611 1.03067e-18)
(0.682995 -0.312373 1.04918e-18)
(0.720296 -0.282396 3.48161e-18)
(0.753147 -0.256069 2.44126e-18)
(0.781875 -0.232799 -1.4885e-18)
(0.807411 -0.212174 -2.57391e-18)
(0.829881 -0.193785 -8.02807e-19)
(0.850013 -0.177347 -6.67743e-19)
(0.867805 -0.162572 6.50708e-19)
(0.88385 -0.149258 2.27117e-18)
(0.898067 -0.137201 1.90029e-18)
(0.910958 -0.12625 5.64564e-19)
(0.922387 -0.116262 3.25313e-18)
(0.932793 -0.10712 3.60564e-18)
(0.942004 -0.0987245 -2.20385e-19)
(0.950416 -0.0909801 -1.69428e-18)
(0.95783 -0.0838194 -1.39881e-18)
(0.964611 -0.0771613 1.67397e-18)
(0.970541 -0.0709633 -3.37871e-20)
(0.975963 -0.0651521 -2.54705e-18)
(0.980644 -0.0597054 1.46292e-18)
(0.984911 -0.0545532 -1.86506e-18)
(0.988518 -0.0496901 1.65687e-18)
(0.991785 -0.0450465 -7.43852e-18)
(0.994452 -0.0406314 -6.32314e-18)
(0.996835 -0.0363729 -1.89898e-18)
(0.998661 -0.0322926 -1.37908e-19)
(1.00025 -0.0283148 1.29417e-18)
(1.00131 -0.0244723 3.42322e-18)
(1.00216 -0.0206842 -4.07374e-18)
(1.0025 -0.0169932 3.6767e-18)
(1.00267 -0.013309 4.86562e-19)
(1.00233 -0.00967155 -1.50997e-18)
(1.0018 -0.00594413 2.12997e-18)
(1.0007 -0.00208752 -1.84076e-18)
(0.336344 -0.667074 3.56214e-18)
(0.42454 -0.588536 2.28242e-18)
(0.499214 -0.521935 1.1306e-18)
(0.562488 -0.46496 3.24491e-19)
(0.616898 -0.415982 -1.482e-18)
(0.663589 -0.373555 8.72942e-19)
(0.704266 -0.336665 1.29096e-18)
(0.739529 -0.304366 3.52887e-19)
(0.77059 -0.275999 -8.00961e-19)
(0.797735 -0.250926 1.90716e-18)
(0.821869 -0.228703 2.43126e-19)
(0.843088 -0.20889 2.9554e-19)
(0.862102 -0.191178 -2.38575e-18)
(0.878888 -0.175259 -1.2435e-18)
(0.894027 -0.160913 9.64233e-19)
(0.907423 -0.147921 -1.17581e-18)
(0.919567 -0.136121 -1.24726e-18)
(0.930314 -0.125358 -1.03541e-18)
(0.940096 -0.115507 4.69229e-19)
(0.948734 -0.10646 1.22356e-18)
(0.956616 -0.0981136 -1.90933e-18)
(0.96354 -0.0903961 -1.53244e-18)
(0.969865 -0.0832198 2.55962e-18)
(0.975369 -0.0765389 2.86277e-18)
(0.980392 -0.0702742 -6.7313e-19)
(0.984697 -0.064402 5.48045e-18)
(0.98861 -0.0588467 -1.44059e-18)
(0.991881 -0.0536027 4.99816e-19)
(0.994828 -0.0485947 -6.81575e-19)
(0.997191 -0.0438329 1.87205e-18)
(0.99928 -0.0392396 -2.13093e-18)
(1.00083 -0.0348387 -1.25778e-18)
(1.00214 -0.0305484 5.42717e-18)
(1.00294 -0.0264051 5.77825e-18)
(1.00353 -0.022321 -4.44241e-18)
(1.00363 -0.0183436 -2.30643e-19)
(1.00355 -0.014374 1.09434e-18)
(1.00298 -0.0104559 -2.80325e-18)
(1.0022 -0.00643654 -7.56144e-18)
(1.00085 -0.00226844 -1.78744e-18)
(0.38152 -0.712279 3.43585e-18)
(0.4644 -0.628423 2.40074e-18)
(0.534566 -0.557315 1.17152e-18)
(0.593984 -0.496485 6.77904e-19)
(0.64508 -0.444194 3.05947e-19)
(0.6889 -0.398898 -1.43915e-18)
(0.72708 -0.359512 2.20423e-18)
(0.760158 -0.32503 1.26185e-18)
(0.789299 -0.294745 -2.06723e-20)
(0.814747 -0.267976 1.65612e-18)
(0.837377 -0.244251 2.8942e-19)
(0.857254 -0.223097 -3.10221e-18)
(0.875068 -0.204188 -6.1417e-19)
(0.890776 -0.187192 -2.12932e-18)
(0.904942 -0.171875 -1.70528e-18)
(0.917457 -0.158004 -1.68921e-18)
(0.928801 -0.145406 7.97837e-19)
(0.938818 -0.133915 1.85179e-18)
(0.947931 -0.123396 2.16901e-18)
(0.955953 -0.113735 -2.44815e-18)
(0.963268 -0.104823 -1.01956e-18)
(0.969666 -0.096582 -1.14154e-18)
(0.975501 -0.0889182 -1.92523e-18)
(0.980549 -0.081783 1.24567e-18)
(0.985144 -0.0750918 1.37711e-18)
(0.989047 -0.0688194 5.44309e-18)
(0.99258 -0.0628849 2.84758e-20)
(0.995492 -0.0572826 2.5151e-18)
(0.998096 -0.0519321 2.18585e-18)
(1.00013 -0.0468444 -1.34482e-18)
(1.00191 -0.0419366 9.98116e-19)
(1.00316 -0.0372348 -8.78453e-19)
(1.00418 -0.0326514 -6.32048e-19)
(1.0047 -0.0282262 5.8372e-18)
(1.00502 -0.023865 8.09774e-18)
(1.00485 -0.0196199 -1.06476e-18)
(1.00451 -0.0153837 4.3743e-19)
(1.00368 -0.0112034 -2.89074e-18)
(1.00264 -0.00690979 4.45605e-18)
(1.00101 -0.00244539 -3.55223e-19)
(0.429556 -0.754432 -1.41235e-19)
(0.506783 -0.665618 1.68899e-18)
(0.572156 -0.590306 1.0557e-18)
(0.627474 -0.525882 1.0411e-18)
(0.675046 -0.470501 3.54944e-18)
(0.715813 -0.42253 7.71404e-19)
(0.751339 -0.380818 1.24184e-18)
(0.782093 -0.344299 5.54377e-19)
(0.809193 -0.312225 -2.47011e-18)
(0.832837 -0.283876 -9.22403e-19)
(0.853867 -0.258749 -4.08772e-19)
(0.872318 -0.236346 -2.03223e-19)
(0.888856 -0.21632 -6.74281e-19)
(0.903417 -0.19832 -4.78352e-19)
(0.91655 -0.182099 -5.04573e-19)
(0.928128 -0.167408 3.88315e-18)
(0.938621 -0.154065 -2.31755e-19)
(0.947861 -0.141894 5.72102e-18)
(0.956262 -0.130753 4.2739e-18)
(0.963631 -0.120521 1.85114e-18)
(0.970341 -0.111081 7.36889e-19)
(0.976181 -0.102351 -4.0186e-19)
(0.981496 -0.0942323 -1.80742e-18)
(0.98606 -0.0866735 2.31496e-18)
(0.990199 -0.0795845 2.10233e-19)
(0.993676 -0.0729388 -2.19398e-18)
(0.996805 -0.0666508 3.61528e-18)
(0.999336 -0.0607145 -1.11263e-18)
(1.00158 -0.0550446 3.76246e-19)
(1.00327 -0.0496534 -1.94339e-18)
(1.00471 -0.0444527 -7.08572e-19)
(1.00564 -0.0394708 -3.22227e-18)
(1.00635 -0.0346147 4.58307e-18)
(1.00657 -0.0299276 3.91254e-18)
(1.00661 -0.0253093 2.23106e-18)
(1.00616 -0.0208159 6.52196e-18)
(1.00554 -0.0163326 -3.35623e-18)
(1.00444 -0.011909 3.9763e-19)
(1.00312 -0.00735997 -5.83041e-18)
(1.00118 -0.00261623 -7.00486e-18)
(0.480245 -0.793353 4.29279e-19)
(0.551507 -0.69996 1.65144e-18)
(0.611823 -0.620768 8.04033e-19)
(0.662815 -0.553024 1.55847e-18)
(0.706668 -0.494792 2.28211e-18)
(0.744215 -0.44435 1.94107e-18)
(0.77694 -0.40049 8.20967e-19)
(0.805241 -0.362091 -9.47862e-19)
(0.830187 -0.328366 -3.38931e-18)
(0.851927 -0.298557 5.94828e-19)
(0.871269 -0.272137 -1.04223e-18)
(0.888215 -0.24858 -8.5824e-19)
(0.903407 -0.227522 -5.27824e-18)
(0.916758 -0.208595 -2.83852e-18)
(0.9288 -0.191539 -2.45538e-18)
(0.93939 -0.176091 -4.89242e-19)
(0.948984 -0.162061 -2.39574e-19)
(0.957405 -0.149262 -7.63498e-19)
(0.965056 -0.137547 -1.022e-19)
(0.971734 -0.126786 -2.53219e-18)
(0.977808 -0.116859 2.70701e-18)
(0.983058 -0.107678 7.02801e-19)
(0.987824 -0.0991394 1.754e-18)
(0.991877 -0.0911893 7.02853e-19)
(0.995537 -0.0837331 -1.23104e-19)
(0.998564 -0.0767428 -9.94678e-19)
(1.00127 -0.0701282 6.71463e-19)
(1.0034 -0.0638837 -1.65164e-18)
(1.00525 -0.0579191 2.97328e-18)
(1.00658 -0.0522478 2.91951e-18)
(1.00767 -0.046777 1.55091e-18)
(1.00827 -0.0415371 9.81135e-21)
(1.00865 -0.0364299 1.73532e-18)
(1.00856 -0.0315019 -4.11893e-18)
(1.00829 -0.0266471 -1.9259e-20)
(1.00755 -0.0219257 -2.03018e-18)
(1.00664 -0.0172155 -5.98073e-18)
(1.00525 -0.0125683 -2.71063e-18)
(1.00363 -0.00778337 -6.16414e-18)
(1.00137 -0.00277891 -1.77542e-18)
(0.533372 -0.828874 3.33168e-18)
(0.598382 -0.731303 2.19774e-18)
(0.653397 -0.648569 1.11374e-19)
(0.699856 -0.577797 2.15574e-18)
(0.739812 -0.516961 1.48645e-18)
(0.773982 -0.464265 3.65116e-18)
(0.803772 -0.418445 2.63223e-18)
(0.829503 -0.37833 1.52191e-18)
(0.852192 -0.343098 4.82568e-22)
(0.871935 -0.311957 1.01823e-18)
(0.889509 -0.284356 -7.23107e-19)
(0.904877 -0.259746 1.01385e-18)
(0.918659 -0.237748 1.0849e-18)
(0.930741 -0.217975 -5.95932e-19)
(0.94164 -0.200155 -2.05769e-18)
(0.951194 -0.184017 -4.24494e-18)
(0.959848 -0.169359 -3.89058e-18)
(0.967409 -0.155988 -4.49217e-19)
(0.974273 -0.143748 -6.4487e-18)
(0.980229 -0.132505 -1.21458e-18)
(0.985635 -0.122133 2.54725e-18)
(0.990267 -0.11254 -3.66876e-19)
(0.99446 -0.103619 -7.82372e-19)
(0.997977 -0.0953115 -1.00467e-18)
(1.00113 -0.0875199 -6.25521e-19)
(1.00369 -0.0802151 -2.72725e-18)
(1.00595 -0.0733027 1.50813e-18)
(1.00766 -0.0667769 -9.44299e-19)
(1.00911 -0.0605434 2.04712e-18)
(1.01006 -0.0546168 2.05241e-18)
(1.01078 -0.0488998 5.52218e-18)
(1.01103 -0.0434248 5.02444e-19)
(1.01108 -0.038089 -5.7849e-19)
(1.01066 -0.0329419 -6.83667e-18)
(1.01007 -0.0278721 4.79695e-18)
(1.00902 -0.0229437 -8.41796e-18)
(1.0078 -0.0180273 -1.62354e-18)
(1.0061 -0.0131768 1.22132e-18)
(1.00417 -0.00817656 -1.14461e-18)
(1.00157 -0.00293162 2.66599e-18)
(0.588707 -0.860844 3.0353e-18)
(0.647206 -0.759512 3.09857e-18)
(0.696701 -0.673591 -9.18032e-19)
(0.738437 -0.600093 2.77316e-18)
(0.774334 -0.536914 1.56984e-18)
(0.804988 -0.482189 1.33405e-18)
(0.831721 -0.434606 1.11226e-18)
(0.854775 -0.392946 6.49429e-19)
(0.875112 -0.356358 -1.37191e-18)
(0.892777 -0.324018 2.88928e-18)
(0.908508 -0.295354 1.54831e-18)
(0.922233 -0.269797 7.57349e-20)
(0.934546 -0.246952 -2.72228e-18)
(0.945307 -0.226417 -6.12604e-18)
(0.955016 -0.207912 -1.3956e-18)
(0.963491 -0.191152 1.29346e-18)
(0.971164 -0.175929 1.26788e-18)
(0.977831 -0.162042 -1.4294e-18)
(0.983876 -0.14933 -2.5918e-18)
(0.989078 -0.137654 5.94581e-19)
(0.99379 -0.126881 2.12328e-21)
(0.997779 -0.116918 -3.35814e-18)
(1.00137 -0.107651 -3.89716e-18)
(1.00433 -0.0990223 -3.89998e-18)
(1.00697 -0.090929 7.36165e-19)
(1.00903 -0.0833411 -3.0897e-18)
(1.01083 -0.0761606 1.05924e-19)
(1.0121 -0.0693817 3.14655e-18)
(1.01314 -0.0629065 4.95543e-18)
(1.01369 -0.0567503 -1.59181e-18)
(1.01403 -0.0508119 3.75648e-18)
(1.01391 -0.0451258 -1.64142e-18)
(1.0136 -0.0395848 3.90506e-18)
(1.01285 -0.0342411 4.05504e-18)
(1.01192 -0.0289787 4.99028e-18)
(1.01055 -0.0238648 -5.66039e-18)
(1.00901 -0.0187637 4.95716e-18)
(1.007 -0.0137308 -7.2664e-18)
(1.00474 -0.00853649 -5.50049e-18)
(1.00179 -0.00307275 2.17187e-18)
(0.646016 -0.889127 3.62553e-18)
(0.697771 -0.784468 7.73446e-19)
(0.741548 -0.695727 1.65202e-19)
(0.778394 -0.619817 4.15387e-18)
(0.810087 -0.554566 1.45836e-18)
(0.8371 -0.498046 -9.38764e-19)
(0.860666 -0.448902 -2.03279e-18)
(0.880948 -0.405876 5.28194e-19)
(0.89885 -0.368089 1.52655e-18)
(0.914363 -0.334688 4.22791e-19)
(0.928185 -0.305085 2.44512e-18)
(0.940208 -0.27869 3.59725e-20)
(0.951 -0.255095 1.03421e-18)
(0.960393 -0.233887 1.35305e-18)
(0.968869 -0.214775 3.9338e-18)
(0.976227 -0.197465 1.28044e-18)
(0.982885 -0.181742 1.03314e-18)
(0.988625 -0.167399 1.90951e-19)
(0.993822 -0.15427 1.35829e-18)
(0.998245 -0.14221 -2.66221e-18)
(1.00224 -0.131082 -2.90884e-19)
(1.00556 -0.120791 -1.05693e-18)
(1.00854 -0.111219 -3.18437e-19)
(1.01092 -0.102306 -4.43218e-18)
(1.01301 -0.0939458 1.35875e-18)
(1.01457 -0.0861076 -2.68142e-18)
(1.01588 -0.0786899 -2.24921e-18)
(1.0167 -0.0716872 6.69554e-19)
(1.01731 -0.0649982 1.37113e-18)
(1.01745 -0.0586391 -5.31271e-19)
(1.0174 -0.0525053 -2.97813e-18)
(1.0169 -0.0466328 1.20799e-18)
(1.01623 -0.0409107 -3.21322e-18)
(1.01512 -0.0353937 -1.5305e-18)
(1.01385 -0.0299616 4.86168e-18)
(1.01215 -0.0246842 7.37162e-18)
(1.01028 -0.0194205 7.70217e-18)
(1.00794 -0.0142267 1.96219e-18)
(1.00533 -0.00886044 -4.19231e-18)
(1.00201 -0.00320092 -1.78914e-19)
(0.705051 -0.913601 3.30648e-18)
(0.749859 -0.806062 1.391e-18)
(0.787747 -0.714881 1.63053e-18)
(0.819556 -0.636885 1.77151e-18)
(0.846918 -0.569841 -2.0685e-18)
(0.87018 -0.511768 -1.98016e-18)
(0.890485 -0.461274 1.5044e-19)
(0.90791 -0.417066 1.02486e-18)
(0.923304 -0.37824 2.84003e-19)
(0.936599 -0.343923 1.84812e-18)
(0.948456 -0.313506 2.38185e-18)
(0.958726 -0.286386 -1.72839e-18)
(0.96795 -0.262143 1.66765e-18)
(0.975935 -0.240352 4.60625e-19)
(0.98314 -0.220714 -1.71491e-18)
(0.989347 -0.202929 -6.72407e-21)
(0.99496 -0.186773 1.48737e-18)
(0.999746 -0.172036 5.61054e-19)
(1.00407 -0.158546 2.05093e-18)
(1.00769 -0.146153 -3.70446e-18)
(1.01094 -0.134719 1.55778e-18)
(1.01358 -0.124144 -4.81419e-20)
(1.01592 -0.114308 -3.10064e-19)
(1.0177 -0.105149 1.29107e-18)
(1.01924 -0.0965576 3.00687e-18)
(1.02028 -0.0885027 1.63817e-18)
(1.0211 -0.0808799 3.28603e-19)
(1.02145 -0.0736837 4.2393e-19)
(1.02161 -0.0668098 1.16545e-18)
(1.02133 -0.0602753 2.0243e-18)
(1.02087 -0.0539726 -1.25649e-18)
(1.01999 -0.0479392 -3.45092e-18)
(1.01894 -0.0420609 -1.28395e-18)
(1.01747 -0.0363945 3.56617e-18)
(1.01584 -0.0308161 -8.82661e-18)
(1.0138 -0.025398 -9.6231e-18)
(1.01158 -0.0199942 5.07312e-18)
(1.0089 -0.0146614 -3.03027e-18)
(1.00595 -0.00914611 -1.03497e-18)
(1.00224 -0.003315 3.09258e-19)
(0.76556 -0.93416 2.74337e-18)
(0.803249 -0.824204 2.41018e-18)
(0.8351 -0.730973 6.31626e-19)
(0.861745 -0.651224 1.57416e-18)
(0.884669 -0.582673 1.5366e-18)
(0.904087 -0.523296 -5.26351e-19)
(0.921048 -0.471668 -6.66219e-19)
(0.935547 -0.426467 5.68826e-19)
(0.94837 -0.38677 1.4979e-18)
(0.959392 -0.351681 2.23142e-18)
(0.969234 -0.320582 1.5565e-18)
(0.977707 -0.292853 3.04207e-18)
(0.985325 -0.268065 1.59206e-18)
(0.991866 -0.245785 -3.21561e-18)
(0.997769 -0.225706 -3.02554e-18)
(1.0028 -0.207521 -1.50105e-18)
(1.00734 -0.191002 -3.70967e-18)
(1.01115 -0.175934 -6.34516e-19)
(1.01457 -0.162139 1.28237e-18)
(1.01737 -0.149468 1.62202e-18)
(1.01986 -0.137776 1.19085e-18)
(1.0218 -0.126963 7.93475e-20)
(1.02348 -0.116905 -2.15469e-18)
(1.02466 -0.107539 -7.92619e-19)
(1.02563 -0.0987534 -6.5033e-20)
(1.02613 -0.0905164 -1.41557e-18)
(1.02645 -0.0827213 1.81756e-18)
(1.02632 -0.0753625 -6.57788e-19)
(1.02603 -0.0683335 9.54574e-19)
(1.02531 -0.0616519 -7.27285e-18)
(1.02444 -0.0552075 -9.7617e-19)
(1.02316 -0.0490393 2.46729e-18)
(1.02172 -0.0430302 -4.17874e-18)
(1.01988 -0.0372388 -3.73903e-18)
(1.01789 -0.0315381 -4.99389e-18)
(1.01549 -0.0260025 -9.43028e-20)
(1.01293 -0.0204815 -2.7103e-18)
(1.0099 -0.0150324 -3.62657e-18)
(1.00658 -0.00939149 2.31858e-18)
(1.00248 -0.00341403 3.36041e-18)
(0.827285 -0.950719 -1.20818e-19)
(0.857711 -0.838814 -1.04998e-18)
(0.883405 -0.743932 -3.0088e-19)
(0.904783 -0.662772 1.71647e-18)
(0.923179 -0.593009 -6.70289e-19)
(0.938675 -0.532581 2.41564e-19)
(0.952226 -0.48004 -2.20682e-18)
(0.963738 -0.43404 -1.525e-18)
(0.973939 -0.39364 1.23107e-18)
(0.982643 -0.357931 3.60987e-18)
(0.990429 -0.326282 3.22486e-18)
(0.99707 -0.298063 -3.73249e-19)
(1.00305 -0.272837 -3.27688e-18)
(1.00812 -0.250162 -3.31602e-18)
(1.01269 -0.229728 -2.24473e-18)
(1.01652 -0.211221 2.7629e-18)
(1.01997 -0.19441 1.2836e-18)
(1.02278 -0.179074 -1.32753e-18)
(1.02529 -0.165035 1.8123e-18)
(1.02725 -0.152139 1.12532e-18)
(1.02897 -0.14024 1.8326e-18)
(1.03019 -0.129235 1.41452e-18)
(1.0312 -0.118998 -7.85255e-18)
(1.03176 -0.109466 -2.80381e-18)
(1.03215 -0.100524 6.84214e-18)
(1.0321 -0.0921403 -1.20936e-18)
(1.0319 -0.0842063 1.56503e-18)
(1.03129 -0.0767168 2.21578e-18)
(1.03053 -0.0695629 -4.66263e-18)
(1.02938 -0.062763 -2.02701e-18)
(1.02808 -0.0562048 1.00617e-18)
(1.02639 -0.0499283 5.12708e-18)
(1.02457 -0.0438143 1.8423e-18)
(1.02235 -0.0379228 6.87045e-18)
(1.01999 -0.0321243 7.16913e-18)
(1.01723 -0.0264946 2.24391e-18)
(1.0143 -0.02088 3.59955e-18)
(1.01092 -0.0153375 1.73416e-18)
(1.00723 -0.00959503 -5.44414e-18)
(1.00272 -0.00349727 2.07124e-18)
(0.88996 -0.963205 -3.10611e-19)
(0.913012 -0.849831 -9.68107e-19)
(0.932453 -0.753704 -5.42412e-20)
(0.948483 -0.67148 2.695e-20)
(0.962282 -0.600802 -2.39827e-18)
(0.973796 -0.539582 -9.58858e-19)
(0.983884 -0.486353 -3.10894e-19)
(0.992365 -0.439751 -1.53164e-18)
(0.999902 -0.398822 -6.31489e-19)
(1.00625 -0.362646 3.45734e-20)
(1.01195 -0.330582 1.94906e-19)
(1.01673 -0.301993 -4.13444e-18)
(1.02105 -0.276437 -3.53627e-18)
(1.02462 -0.253465 2.32329e-18)
(1.02785 -0.232763 -9.79873e-19)
(1.03045 -0.214013 1.10321e-18)
(1.03279 -0.196982 6.1545e-19)
(1.03459 -0.181445 8.73804e-19)
(1.03617 -0.167222 5.58353e-18)
(1.03728 -0.154156 2.09423e-19)
(1.03821 -0.142101 4.3175e-18)
(1.0387 -0.130951 3.89988e-18)
(1.03905 -0.120579 -5.23273e-18)
(1.03898 -0.110921 -3.65181e-18)
(1.03877 -0.101861 1.05574e-18)
(1.03817 -0.0933673 -3.28225e-18)
(1.03745 -0.0853288 3.68574e-18)
(1.03634 -0.0777406 6.67897e-18)
(1.03511 -0.0704927 -5.93043e-18)