/*--------------------------------*- C++ -*----------------------------------*\
| =========                 |                                                 |
| \\      /  F ield         | foam-extend: Open Source CFD                    |
|  \\    /   O peration     | Version:  3.0                                   |
|   \\  /    A nd           | Web:         http://www.extend-project.de       |
|    \\/     M anipulation  |                                                 |
\*---------------------------------------------------------------------------*/
FoamFile
{
    version     2.0;
    format      ascii;
    class       volVectorField;
    location    "5";
    object      s;
}
// * * * * * * * * * * * * * * * * * * * * * * * * * * * * * * * * * * * * * //

dimensions      [0 1 -1 0 0 0 0];

internalField   nonuniform List<vector> 
3012
(
(0.254253 -0.0461979 1.02723e-19)
(-0.0461184 -0.254739 -1.04037e-19)
(-0.254961 0.0456869 1.02409e-21)
(0.0459171 0.25432 3.25033e-19)
(-0.0635999 0.472152 -2.30872e-19)
(0.471501 0.0633374 -2.23862e-19)
(0.0632321 -0.47423 -1.20437e-19)
(-0.473978 -0.0641364 7.49531e-20)
(0.183374 -0.182788 1.84318e-20)
(-0.18287 -0.183786 -4.13673e-20)
(0.182117 0.182977 2.33129e-19)
(-0.183765 0.182466 1.43309e-19)
(-0.0103058 -0.173296 -2.35579e-20)
(0.172798 -0.0102449 9.35475e-21)
(-0.173451 0.0100064 8.22925e-20)
(0.00999386 0.172911 2.63551e-20)
(-0.104378 0.454595 -2.98066e-19)
(0.453834 0.104067 -1.40755e-19)
(0.104289 -0.456395 -1.14154e-19)
(-0.456151 -0.105026 -3.24568e-21)
(-0.0631843 0.132024 -4.51044e-21)
(0.131746 0.0628258 -2.39138e-20)
(-0.132478 -0.0631744 4.07902e-20)
(0.0629302 -0.132321 1.34576e-19)
(-0.29007 0.0087889 4.57349e-20)
(-0.00933826 -0.289971 5.00734e-20)
(0.0088707 0.289484 1.8144e-19)
(0.289048 -0.00931347 4.85705e-20)
(0.157374 -0.0859281 -4.36013e-20)
(-0.157849 0.0858016 4.13574e-20)
(0.0855542 0.157196 1.91605e-19)
(-0.0860728 -0.157849 1.21564e-19)
(0.0733673 0.157492 2.11017e-19)
(-0.158122 0.0736642 6.82882e-20)
(0.157615 -0.0737847 -5.83973e-20)
(-0.0739086 -0.158097 2.41027e-19)
(-0.0159571 -0.306609 -2.16136e-20)
(-0.306414 0.01551 1.08057e-19)
(0.305335 -0.015963 1.19535e-19)
(0.0154602 0.305991 1.84678e-19)
(-0.00857807 -0.157894 1.1083e-20)
(-0.158045 0.00829732 3.94647e-20)
(0.008241 0.15752 3.90041e-21)
(0.157391 -0.00851942 3.50148e-20)
(0.0633202 0.164151 -1.37304e-21)
(-0.0637324 -0.164775 -2.66426e-20)
(0.164232 -0.0635875 -1.7343e-20)
(-0.164833 0.0635055 1.60065e-20)
(-0.0537537 -0.144402 4.96637e-20)
(-0.144457 0.0535068 1.44698e-20)
(0.143915 -0.0536274 5.42845e-21)
(0.053389 0.143894 4.56694e-22)
(0.246215 -0.0412365 1.24095e-19)
(-0.0411433 -0.24684 -1.43215e-20)
(0.0409179 0.246215 2.25869e-19)
(-0.246908 0.0406946 -1.15155e-19)
(0.209918 -0.379942 1.49712e-20)
(0.378571 0.209131 2.49145e-20)
(-0.210318 0.37931 -7.35026e-20)
(-0.379886 -0.210304 -2.00503e-19)
(0.184877 -0.415575 -9.45616e-20)
(0.413885 0.184207 -1.35451e-19)
(-0.18532 0.414849 1.16022e-20)
(-0.415519 -0.185348 -2.92038e-19)
(-0.000209014 -0.179453 2.95203e-21)
(0.178789 -0.000225384 1.1713e-20)
(-0.179672 -0.000101532 3.81656e-20)
(-0.000160133 0.179132 1.53138e-20)
(-0.157261 -0.0269002 9.73628e-20)
(-0.0269027 0.156765 -4.39118e-20)
(0.0266666 -0.157173 -3.28685e-20)
(0.156582 0.0265911 -9.8265e-21)
(-0.125149 0.0987729 2.91569e-20)
(-0.0990193 -0.125224 -2.43359e-20)
(0.0984765 0.124618 7.74522e-20)
(0.124751 -0.0988752 -5.39319e-20)
(0.128379 -0.0807399 1.01731e-19)
(-0.12881 0.080555 -5.56666e-20)
(-0.0809018 -0.128804 3.2043e-20)
(0.0804007 0.128239 9.5208e-21)
(0.00262446 -0.193781 3.66621e-20)
(0.193032 0.00253537 5.23976e-20)
(-0.00311937 0.193345 -7.91048e-20)
(-0.193939 -0.0030579 -2.85457e-20)
(-0.151728 -0.00922532 1.49765e-19)
(-0.00923527 0.15113 6.96807e-20)
(0.00904309 -0.151673 -4.54766e-20)
(0.150963 0.00897926 -9.65287e-20)
(0.0683769 0.142176 5.78038e-20)
(-0.142836 0.0685907 7.45065e-20)
(0.14224 -0.0685943 1.88481e-19)
(-0.0687895 -0.142805 -1.21861e-19)
(-0.19515 -0.180947 -5.13866e-21)
(0.180531 -0.195088 1.51956e-20)
(0.194284 0.180209 2.59837e-19)
(-0.180917 0.194718 1.49617e-19)
(0.300325 0.114973 1.94926e-19)
(-0.115537 0.3008 2.47263e-19)
(0.115206 -0.301385 3.25968e-19)
(-0.301468 -0.115568 1.2952e-19)
(-0.152626 -0.0287794 1.02025e-19)
(-0.0287751 0.152142 -3.84329e-20)
(0.0285387 -0.152556 2.21633e-20)
(0.151944 0.0284714 -2.1341e-19)
(-0.120185 0.0982065 2.14772e-20)
(0.0979099 0.119665 6.16155e-20)
(-0.098453 -0.120218 -8.76611e-21)
(0.11981 -0.0983134 -3.04322e-20)
(-0.125105 -0.0707032 1.88574e-19)
(0.0704684 -0.124974 1.06114e-19)
(0.1244 0.0703419 1.37462e-19)
(-0.070718 0.124695 1.4139e-19)
(0.167153 -0.0470059 3.64388e-19)
(-0.167727 0.0469091 2.91976e-20)
(-0.0471396 -0.167687 2.01733e-19)
(0.0467339 0.167129 3.15315e-19)
(-0.096472 -0.0957623 -1.8883e-21)
(0.0959273 0.0952774 5.36135e-21)
(-0.0957225 0.0961951 -1.7135e-21)
(0.0954449 -0.0963425 -4.04276e-21)
(0.129615 0.0384454 2.50729e-20)
(0.0385246 -0.130193 -2.33947e-20)
(-0.0387267 0.129855 3.76896e-20)
(-0.130269 -0.0387497 4.93493e-20)
(-0.118888 -0.345244 -3.16327e-19)
(0.344299 -0.118612 -4.74827e-20)
(-0.344957 0.118422 -3.73421e-19)
(0.118043 0.344401 8.99922e-20)
(-0.246917 -0.395579 -4.37816e-20)
(0.246122 0.394646 2.06213e-20)
(-0.395677 0.246518 -9.8439e-20)
(0.39502 -0.246766 -9.12771e-20)
(-0.0990632 -0.374698 -3.03243e-19)
(0.373593 -0.0988756 -1.43307e-19)
(0.0984121 0.373685 -1.81084e-19)
(-0.374344 0.0987616 -1.38139e-19)
(-0.291821 -0.375166 -2.84838e-19)
(-0.375223 0.291401 -4.19348e-20)
(0.290845 0.374464 -2.68451e-19)
(0.374641 -0.291743 -4.19318e-20)
(-0.281049 0.0179114 1.94949e-20)
(0.0179818 0.280423 1.76101e-19)
(0.280178 -0.018328 9.78294e-20)
(-0.0183678 -0.280964 5.1608e-20)
(-0.301521 0.325009 6.61307e-20)
(0.324452 0.300948 -1.98842e-19)
(0.300932 -0.324971 2.79684e-19)
(-0.325525 -0.301593 -2.29101e-19)
(-0.32105 0.291365 2.95465e-20)
(0.290831 0.320295 -1.45136e-19)
(0.320264 -0.291419 7.53388e-20)
(-0.291808 -0.321066 -3.5481e-19)
(0.0396093 0.140952 1.79816e-19)
(0.140977 -0.0398453 2.10368e-19)
(-0.0399535 -0.141484 2.22325e-19)
(-0.141485 0.0397583 1.43941e-19)
(-0.0587827 -0.146342 1.43661e-19)
(-0.146384 0.0585213 1.05987e-19)
(0.145803 -0.0586063 6.30914e-20)
(0.0583998 0.145752 7.29654e-20)
(-0.120472 -0.0774992 8.1562e-20)
(0.119833 0.077063 3.66681e-20)
(-0.0774576 0.12013 4.64028e-20)
(0.0772064 -0.120367 -1.21156e-20)
(0.354112 -0.00102807 1.41435e-19)
(-0.00079955 -0.355617 8.35746e-20)
(-0.355326 0.000701659 1.86612e-21)
(0.00053963 0.354496 1.01747e-19)
(0.0784922 0.154527 2.00025e-19)
(-0.155126 0.0787422 8.487e-20)
(0.154699 -0.0789185 -1.46831e-19)
(-0.0790399 -0.155162 1.7517e-20)
(-0.261529 0.328878 7.87391e-20)
(-0.329451 -0.261589 -1.54335e-19)
(0.261051 -0.328877 2.41536e-19)
(0.328252 0.260731 -2.80292e-19)
(0.303393 -0.253309 -9.37728e-20)
(-0.304199 0.253309 4.94712e-20)
(0.252796 0.303215 1.24668e-20)
(-0.25367 -0.304161 -8.41015e-20)
(0.364461 -0.0206559 4.36972e-20)
(-0.0208059 -0.366133 1.82837e-19)
(-0.36561 0.0204232 2.62705e-19)
(0.0203136 0.364653 3.62381e-19)
(-0.0908209 0.169185 2.16566e-19)
(0.168834 0.0903604 2.69715e-19)
(0.0905352 -0.169522 7.99496e-20)
(-0.169612 -0.0908611 1.12487e-19)
(0.104331 -0.161434 -1.87141e-21)
(-0.161577 -0.104619 -4.48225e-20)
(-0.10462 0.161135 7.43444e-20)
(0.160753 0.104088 4.57733e-20)
(-0.124031 -0.0753771 1.27837e-19)
(0.123383 0.0749631 9.29013e-20)
(-0.0753528 0.123683 8.30764e-20)
(0.0751071 -0.123929 -1.67254e-20)
(-0.0957685 -0.169403 2.42494e-19)
(-0.1694 0.0954828 1.55886e-20)
(0.168911 -0.0956154 -5.10318e-20)
(0.0952156 0.168737 2.6259e-19)
(0.00500845 -0.17698 3.46047e-20)
(0.176281 0.00497227 3.52079e-20)
(-0.00541577 0.176558 2.87537e-20)
(-0.177046 -0.00542588 3.01949e-20)
(-0.0147825 -0.177033 -5.27557e-20)
(-0.177173 0.0145236 -1.73559e-19)
(0.1765 -0.0147166 -1.6121e-20)
(0.0144447 0.176664 -2.43829e-19)
(-0.0302925 -0.138816 2.14184e-19)
(-0.138781 0.0301399 1.12725e-19)
(0.0300181 0.138263 1.74616e-19)
(0.138255 -0.0302389 2.01907e-19)
(0.0420084 -0.132157 -5.61306e-20)
(0.131573 0.0419205 7.2152e-20)
(-0.132236 -0.0422381 2.0627e-20)
(-0.0422137 0.131826 7.53603e-20)
(-0.193882 -0.0100422 3.16586e-20)
(-0.0100854 0.193291 -1.64169e-19)
(0.0096559 -0.193713 3.40472e-20)
(0.19295 0.0096437 1.24459e-19)
(-0.100493 -0.0958094 -4.23177e-21)
(0.0954951 -0.100366 -8.00644e-21)
(0.0999317 0.0953221 6.9282e-21)
(-0.0957666 0.100206 -5.35095e-21)
(0.0889497 0.152307 6.07662e-20)
(0.15241 -0.0893277 -5.20895e-20)
(-0.0894754 -0.152876 -1.89121e-20)
(-0.152863 0.089204 -6.47434e-20)
(0.0448841 -0.137543 -1.48272e-19)
(0.136942 0.0447921 -1.95234e-19)
(-0.0451145 0.137193 -2.16953e-19)
(-0.137624 -0.0451246 -1.72588e-19)
(0.10504 0.0986836 1.84456e-20)
(-0.0991427 0.10532 -1.45784e-20)
(0.0988333 -0.105491 -2.17955e-20)
(-0.105616 -0.0991533 -1.16071e-20)
(-0.165126 0.101797 1.82152e-20)
(-0.102069 -0.165114 1.69105e-19)
(0.101517 0.164489 2.92923e-19)
(0.164638 -0.101919 -7.38486e-20)
(-0.0617937 0.135961 -5.78049e-20)
(0.135667 0.0614579 -8.50303e-20)
(-0.136367 -0.0618387 -1.09057e-20)
(0.0615392 -0.136249 1.12823e-19)
(0.0688406 -0.130169 1.65584e-19)
(-0.130313 -0.0690725 1.55789e-19)
(-0.0691041 0.129886 1.27219e-19)
(0.129609 0.0687327 1.06146e-19)
(-0.0959287 0.17236 2.33349e-19)
(0.171994 0.0954503 2.08977e-19)
(0.0956365 -0.172691 1.13063e-19)
(-0.172792 -0.0959609 1.05764e-19)
(0.104541 -0.168386 2.13911e-19)
(-0.104834 0.168069 3.33244e-19)
(-0.168536 -0.104824 2.02987e-19)
(0.167674 0.104301 1.38812e-19)
(-0.25974 -0.133182 -9.72665e-20)
(0.132752 -0.259669 1.58956e-19)
(0.258667 0.132462 1.59033e-19)
(-0.13308 0.25912 1.66921e-19)
(0.0640266 0.131137 -1.31194e-20)
(0.131237 -0.0642764 -1.15319e-19)
(-0.0644379 -0.131667 -1.48426e-19)
(-0.131682 0.0642106 -1.04399e-20)
(-0.00671942 -0.146237 4.68765e-20)
(-0.146278 0.00649433 7.44247e-20)
(0.0064274 0.145774 2.64798e-20)
(0.145642 -0.00666634 3.13896e-21)
(-0.109619 0.174499 5.62609e-20)
(0.109305 -0.174826 -1.23117e-19)
(0.174098 0.109069 2.07025e-19)
(-0.175046 -0.109524 -9.24133e-20)
(-0.00882192 -0.162058 4.68171e-21)
(-0.162237 0.00851195 2.7136e-20)
(0.00852831 0.161647 -1.69173e-20)
(0.161602 -0.00877505 3.48374e-20)
(-0.00501946 -0.173549 -8.87167e-21)
(0.172968 -0.00497538 1.13795e-20)
(-0.173737 0.0047471 2.03754e-20)
(0.00475186 0.173157 -1.56612e-20)
(0.271973 -0.0366791 1.16368e-19)
(-0.0365929 -0.272449 -2.07808e-20)
(0.0363149 0.27222 2.09627e-19)
(-0.272725 0.0361914 1.57134e-19)
(0.036491 0.140635 1.29903e-19)
(-0.141165 0.0366311 8.86342e-20)
(0.140648 -0.0367222 1.57864e-19)
(-0.0368219 -0.141168 1.57145e-19)
(-0.040098 -0.417678 4.25527e-20)
(0.416757 -0.0400026 -3.2921e-20)
(0.0394402 0.416551 -1.8948e-19)
(-0.417916 0.0397863 -2.09386e-20)
(-0.014273 -0.44441 1.99387e-20)
(0.0137405 0.443152 -8.28812e-20)
(0.443264 -0.0141954 -3.44847e-20)
(-0.44457 0.0139646 -5.78815e-21)
(0.0602448 0.161203 -1.79924e-20)
(0.161348 -0.0604734 -8.12743e-20)
(-0.0606288 -0.161834 -9.79612e-20)
(-0.16191 0.0604076 9.5926e-20)
(-0.117186 0.175767 1.27819e-19)
(0.116868 -0.176095 -1.41513e-19)
(0.175377 0.116643 2.1714e-19)
(-0.176327 -0.117104 -1.04059e-19)
(-0.0500023 -0.163039 -2.01449e-19)
(0.162493 -0.0498609 -2.38971e-20)
(-0.16306 0.0497803 5.40364e-20)
(0.0495967 0.162496 -7.45233e-20)
(0.270984 -0.029126 1.57274e-19)
(-0.0290477 -0.2717 2.51077e-20)
(0.0287746 0.271206 1.75492e-19)
(-0.271806 0.0286037 1.67347e-19)
(-0.257304 -0.118112 1.07618e-19)
(0.117687 -0.257228 4.03275e-19)
(0.256155 0.117345 1.24509e-19)
(-0.117826 0.25666 1.84605e-19)
(-0.138737 -0.105865 8.45932e-20)
(-0.105819 0.138375 5.47609e-20)
(0.105538 -0.138616 5.3822e-21)
(0.13805 0.105342 8.51178e-20)
(0.0044147 -0.152625 -2.00953e-20)
(-0.152685 -0.0046207 8.52732e-20)
(0.151984 0.00439858 -5.35249e-20)
(-0.00464083 0.152139 3.36043e-20)
(0.0708684 -0.159421 1.28315e-19)
(0.158764 0.0707151 1.18033e-19)
(-0.0711321 0.159089 6.70073e-20)
(-0.159513 -0.0711532 4.29793e-20)
(0.28517 0.103107 1.50129e-19)
(-0.103602 0.285681 2.41044e-19)
(0.103504 -0.286148 1.95865e-19)
(-0.286283 -0.10369 6.59183e-20)
(-0.155704 -0.012546 1.34396e-19)
(0.0123419 -0.155611 -2.65548e-20)
(-0.0125457 0.155087 3.65326e-20)
(0.154909 0.0122816 -7.64571e-20)
(-0.130679 0.0853377 4.09535e-21)
(0.130223 -0.0855255 1.40444e-19)
(-0.0857058 -0.130718 -1.01724e-19)
(0.0851842 0.130114 4.8695e-20)
(-0.131796 0.076938 1.67567e-19)
(0.131426 -0.0771292 6.06104e-20)
(-0.0772975 -0.131865 -1.98769e-19)
(0.0767236 0.131256 -3.4385e-20)
(0.0859353 0.118987 3.13061e-20)
(-0.119541 0.0861215 3.59779e-21)
(0.119142 -0.086298 2.89516e-20)
(-0.0864392 -0.119529 1.5669e-20)
(0.0183362 -0.146217 -8.31542e-21)
(-0.146284 -0.0185328 1.40293e-20)
(-0.0185077 0.1457 -6.37126e-20)
(0.145509 0.018247 -1.34723e-19)
(-0.0271185 -0.139198 2.95724e-19)
(-0.139173 0.0269582 1.20292e-19)
(0.0268456 0.138658 2.24976e-19)
(0.138636 -0.0270627 2.65692e-19)
(0.0429867 0.134515 -1.0516e-20)
(0.134552 -0.043223 9.49977e-21)
(-0.135041 0.0431912 -1.65665e-20)
(-0.0433324 -0.135035 3.64948e-21)
(0.088978 0.121045 4.5492e-20)
(-0.121592 0.0891819 9.60675e-21)
(-0.0894882 -0.121593 2.93986e-20)
(0.121204 -0.0893514 1.9872e-20)
(0.0200221 -0.14949 -8.54982e-21)
(-0.149547 -0.020223 5.75331e-20)
(0.148786 0.0199282 -1.75147e-19)
(-0.0201972 0.148984 -2.73905e-22)
(0.158935 -0.134183 3.29878e-21)
(-0.134329 -0.159375 -2.15453e-19)
(0.133681 0.15873 -4.3701e-20)
(-0.159344 0.134 -6.41076e-20)
(0.169441 -0.132035 -2.19983e-20)
(-0.132181 -0.169908 -2.14747e-19)
(-0.169865 0.131844 -1.21299e-19)
(0.131549 0.169248 -3.10001e-20)
(-0.1728 -0.0632001 3.01393e-19)
(-0.0631762 0.17233 -1.49199e-20)
(0.172035 0.0626907 9.87002e-21)
(0.0629101 -0.172712 3.18963e-19)
(0.137692 0.120964 2.45401e-19)
(0.121182 -0.138214 5.73925e-20)
(-0.121496 0.138029 1.61545e-19)
(-0.13838 -0.121539 1.5904e-20)
(0.0617542 0.169217 4.12812e-20)
(0.169307 -0.0620069 5.1633e-20)
(-0.169876 0.0618949 4.04475e-20)
(-0.0621513 -0.169859 3.4251e-20)
(-0.115698 0.195052 8.74966e-20)
(0.19469 0.115179 2.09103e-19)
(0.115497 -0.195486 6.02409e-21)
(-0.195698 -0.115702 -2.63073e-20)
(-0.118738 0.204698 1.46664e-19)
(0.204347 0.118234 1.79071e-19)
(0.118677 -0.20523 2.86456e-19)
(-0.205359 -0.118929 3.73297e-20)
(0.136516 0.0815091 -7.56927e-20)
(-0.0819333 0.13682 1.63237e-20)
(0.0816746 -0.137102 -3.89416e-20)
(-0.137199 -0.0819748 8.8051e-20)
(-0.0413463 0.203545 1.97306e-19)
(0.0410289 -0.204046 2.74456e-19)
(0.203283 0.0409651 2.17166e-20)
(-0.204135 -0.0413434 1.73157e-19)
(-0.0252662 -0.173111 -7.61838e-20)
(0.172489 -0.0251404 7.81169e-20)
(0.0248717 0.172625 -1.48337e-19)
(-0.17318 0.0249273 -6.01308e-20)
(-0.142405 -0.291426 -1.87644e-19)
(0.290789 -0.141982 5.32774e-20)
(-0.291508 0.142009 -8.49965e-21)
(0.14168 0.290793 2.2221e-19)
(-0.0344066 0.211613 2.55462e-19)
(0.21138 0.0340524 8.34461e-20)
(0.0340728 -0.212154 2.94147e-19)
(-0.212224 -0.0343851 -8.10279e-20)
(0.175124 0.372966 7.74569e-20)
(-0.373664 0.175315 3.70037e-20)
(0.372934 -0.175553 1.05452e-20)
(-0.175747 -0.373641 -1.05927e-19)
(0.106528 0.113745 6.10035e-20)
(0.113885 -0.106897 -2.86895e-20)
(-0.107059 -0.114285 -7.31507e-21)
(-0.114271 0.106767 2.25736e-20)
(-0.0572524 -0.125433 7.41615e-21)
(0.125024 -0.0570585 1.30356e-20)
(0.0568581 0.124934 -7.01115e-21)
(-0.125474 0.0570108 5.11475e-20)
(0.136841 -0.0100312 7.86916e-20)
(-0.137422 0.0098862 2.93468e-20)
(0.00982513 0.136931 1.98002e-20)
(-0.0100912 -0.137401 1.94538e-20)
(0.150885 0.0388207 -1.75437e-19)
(0.0388921 -0.151464 -7.91326e-20)
(-0.0391265 0.151071 -1.66784e-19)
(-0.151537 -0.0391398 -2.28547e-20)
(0.219025 0.0791037 2.42951e-19)
(-0.0794828 0.219541 -6.11359e-20)
(-0.220029 -0.0796576 8.23008e-20)
(0.0793193 -0.219927 1.80744e-19)
(0.224957 0.0704702 2.40337e-19)
(-0.0708314 0.225375 -7.77258e-20)
(-0.225989 -0.0710112 1.25404e-19)
(0.0706664 -0.225881 2.45732e-19)
(-0.0952477 -0.0998765 -1.77464e-21)
(0.0947092 0.0993814 1.06687e-20)
(-0.0998394 0.0949747 7.25071e-23)
(0.099549 -0.0951157 -4.96959e-21)
(-0.245626 -0.0752787 8.813e-20)
(-0.075418 0.245273 1.86588e-19)
(0.244516 0.0747147 1.65081e-19)
(0.0750254 -0.245452 2.59592e-19)
(-0.0356815 0.132864 -9.36567e-20)
(0.0354738 -0.133219 -1.52119e-19)
(0.132632 0.0354039 -1.32938e-19)
(-0.133292 -0.0356993 5.94385e-21)
(0.488436 0.300658 -8.86315e-20)
(0.301476 -0.489611 6.11376e-20)
(-0.301693 0.488968 -8.55047e-20)
(-0.48973 -0.301975 -1.10709e-19)
(-0.169172 -0.0593529 2.93596e-19)
(-0.0593486 0.168703 4.10956e-20)
(0.0590736 -0.169087 2.68915e-19)
(0.1684 0.0589074 -4.8002e-20)
(-0.135969 0.0406475 -2.06777e-20)
(0.040496 0.135447 -1.03178e-20)
(-0.0408335 -0.135968 6.81894e-21)
(0.135476 -0.0407266 7.87791e-21)
(0.190296 0.301219 2.43539e-19)
(-0.302034 0.190501 4.91703e-20)
(0.301402 -0.190567 -2.3988e-20)
(-0.190867 -0.301972 -4.12696e-19)
(-0.0668463 0.237207 2.21094e-19)
(-0.237821 -0.066963 1.46875e-19)
(0.236754 0.0664371 2.31766e-20)
(0.0667113 -0.23767 2.40863e-19)
(-0.0875823 0.136822 3.98143e-20)
(0.136516 0.0871439 2.10662e-19)
(0.0873199 -0.137099 2.20791e-19)
(-0.137195 -0.0876247 8.47117e-20)
(0.132548 0.119512 1.88245e-19)
(0.119676 -0.133076 5.48441e-20)
(-0.120042 0.13288 1.42752e-19)
(-0.133221 -0.120086 1.04293e-20)
(-0.00229151 -0.1867 -1.9793e-20)
(0.186036 -0.00236863 -1.20288e-20)
(0.0018249 0.18636 2.46393e-20)
(-0.186955 0.00188329 6.07264e-20)
(0.457018 0.196039 -1.3168e-19)
(0.196279 -0.458252 -6.59509e-20)
(-0.196618 0.457408 -3.105e-19)
(-0.458397 -0.196834 -1.95119e-19)
(-0.133988 -0.108011 1.5776e-19)
(-0.107964 0.133637 1.98797e-19)
(0.107676 -0.133862 1.52673e-19)
(0.133315 0.107479 1.22338e-19)
(0.0655898 -0.158921 1.01587e-19)
(0.158263 0.0654455 -6.88826e-20)
(-0.0659269 0.158579 -2.02477e-19)
(-0.15901 -0.0658675 2.66808e-19)
(0.0820455 0.200505 2.46878e-19)
(-0.201367 0.0822098 1.91924e-19)
(-0.0825005 -0.20131 2.01479e-19)
(0.200692 -0.0824109 1.3801e-19)
(0.0701075 0.146469 2.72089e-19)
(-0.147069 0.0703463 2.67765e-19)
(0.146501 -0.070409 1.67339e-20)
(-0.0706104 -0.147079 1.2063e-19)
(0.430439 0.0241222 -1.99593e-19)
(-0.0242916 0.430542 -1.90462e-21)
(0.0237802 -0.43216 1.46237e-20)
(-0.432172 -0.0244984 1.73056e-19)
(0.0599116 -0.129808 2.20851e-21)
(-0.129937 -0.0601425 2.748e-20)
(-0.0601442 0.129512 -2.7542e-20)
(0.129219 0.0597972 -4.14202e-20)
(-0.202956 0.0906958 -9.42952e-21)
(0.0904838 0.202193 4.2284e-19)
(-0.0909954 -0.202943 -1.82112e-20)
(0.202323 -0.0908726 -6.17937e-20)
(0.085236 -0.114636 -4.21729e-20)
(-0.114745 -0.0855747 -1.88825e-20)
(0.11413 0.0851111 -1.92888e-21)
(-0.0855271 0.114423 -4.283e-20)
(0.0863239 -0.118071 -6.80662e-20)
(-0.118176 -0.0866678 -4.07238e-20)
(0.11755 0.0861998 -9.56654e-21)
(-0.0866208 0.117848 -7.60485e-20)
(-0.186917 0.0397561 -3.58921e-20)
(0.0396818 0.186289 2.25514e-19)
(0.186121 -0.0399789 -7.90329e-20)
(-0.0400879 -0.186785 -8.77618e-20)
(-0.188735 -0.466063 6.9976e-21)
(0.188041 0.465295 -4.07697e-20)
(0.465371 -0.188596 -5.8776e-20)
(-0.466199 0.1884 -7.32749e-20)
(-0.127235 0.1233 1.04356e-19)
(-0.123617 -0.127222 -4.15556e-20)
(0.126827 -0.123476 -1.07644e-20)
(0.122986 0.12665 1.20545e-19)
(-0.180236 0.0677037 8.21257e-20)
(0.0675584 0.179552 2.03377e-19)
(-0.0679793 -0.180226 2.14918e-19)
(0.179633 -0.0678502 1.57309e-19)
(0.0447862 0.189799 2.38695e-19)
(-0.0451669 -0.190372 1.01077e-19)
(0.189734 -0.0450733 1.3578e-19)
(-0.19044 0.0448774 -2.55481e-20)
(0.0417061 0.143198 2.02202e-19)
(0.143207 -0.0419581 2.42577e-19)
(-0.143741 0.0418646 2.48401e-20)
(-0.0420674 -0.143717 2.74746e-19)
(-0.132431 0.124202 1.1955e-19)
(-0.124528 -0.132459 -8.06372e-20)
(0.123897 0.131871 1.1802e-19)
(0.132072 -0.124369 -1.00653e-20)
(0.0472293 -0.170795 2.29861e-20)
(-0.0474808 0.170375 -9.73305e-20)
(0.170124 0.0470458 2.12346e-20)
(-0.17087 -0.0474961 9.97679e-22)
(0.0455303 -0.175814 9.0876e-20)
(-0.0457897 0.175383 -6.52815e-20)
(0.175125 0.0453535 1.71502e-20)
(-0.17589 -0.0457992 3.28823e-20)
(0.0464495 0.196874 8.90985e-20)
(0.196819 -0.0467232 1.14058e-19)
(-0.0468245 -0.197429 6.75701e-20)
(-0.197548 0.046488 -5.74042e-20)
(-0.102231 -0.11493 -6.45869e-21)
(0.114535 -0.10209 -2.509e-20)
(0.101681 0.114397 5.49656e-20)
(-0.1149 0.101949 1.88268e-20)
(-0.183349 0.072242 1.28797e-19)
(-0.0725279 -0.183333 1.28304e-19)
(0.0721035 0.182532 1.89181e-19)
(0.182743 -0.0723885 1.73739e-19)
(-0.02029 -0.171853 -7.26859e-20)
(0.171282 -0.0202218 2.42361e-20)
(0.0199313 0.171381 -1.32161e-19)
(-0.171885 0.0200016 -4.85293e-20)
(0.149135 0.0342941 -2.06423e-19)
(0.0343714 -0.149733 1.42144e-19)
(-0.0346044 0.149335 6.68196e-20)
(-0.149805 -0.0346142 1.76826e-19)
(0.571962 -0.130597 6.94748e-20)
(-0.130988 -0.572803 -7.71091e-20)
(0.130071 0.572157 5.72559e-20)
(-0.573037 0.130447 8.72726e-21)
(0.0413191 0.203226 8.11522e-20)
(-0.0416854 -0.203762 5.9537e-20)
(0.203116 -0.0416244 8.57206e-20)
(-0.203898 0.0413252 -1.09633e-19)
(-0.184804 0.0921467 1.13883e-19)
(-0.0924372 -0.184806 -1.21785e-19)
(0.184225 -0.0922983 -4.43478e-20)
(0.0918757 0.184016 3.89339e-19)
(0.171714 0.175697 2.05372e-19)
(-0.176389 0.172034 2.40907e-20)
(0.176 -0.172348 5.21821e-20)
(-0.172424 -0.176422 -1.41554e-19)
(-0.158519 -0.445188 -1.21984e-20)
(0.157763 0.444274 6.99548e-20)
(0.444529 -0.15826 7.71053e-20)
(-0.445394 0.158081 6.49997e-20)
(0.392382 0.0384053 1.87166e-19)
(0.0383867 -0.393743 1.25292e-19)
(-0.393946 -0.0389076 -8.96238e-20)
(-0.0386801 0.392469 -8.2065e-20)
(0.199658 -0.109458 1.24487e-19)
(-0.109616 -0.200198 6.62018e-20)
(-0.200191 0.109305 1.23446e-19)
(0.109043 0.199497 3.93521e-19)
(0.0720546 0.162487 -6.1832e-20)
(-0.163196 0.0723447 6.83506e-20)
(-0.0725625 -0.163137 2.38624e-19)
(0.162626 -0.0724209 -8.14431e-21)
(0.254926 -0.112004 1.31106e-19)
(-0.11231 -0.255564 -3.23832e-19)
(0.111697 0.254865 4.33693e-19)
(-0.255632 0.111945 1.79829e-20)
(-0.0339502 -0.143133 8.50137e-20)
(0.142573 -0.0338858 1.03811e-19)
(0.0336569 0.142573 7.1369e-20)
(-0.143105 0.0337896 1.48013e-20)
(-0.0552291 -0.128868 -2.33479e-21)
(0.12844 -0.0550548 3.67474e-21)
(-0.128947 0.0549843 2.32826e-20)
(0.0548428 0.128367 -7.6448e-20)
(0.253236 -0.123953 3.09343e-19)
(-0.124342 -0.253865 -1.018e-19)
(-0.253906 0.123989 4.87255e-20)
(0.123722 0.253136 4.15246e-19)
(-0.0328217 -0.146146 7.97722e-20)
(-0.14609 0.0326546 2.72097e-20)
(0.145551 -0.0327681 1.29623e-19)
(0.032532 0.145552 9.07029e-20)
(0.138967 -0.0135218 1.65366e-19)
(0.0133137 0.139054 4.80482e-20)
(-0.139546 0.0133837 1.03565e-19)
(-0.0135912 -0.13953 8.45502e-20)
(-0.184163 0.0857763 1.41881e-19)
(0.0855204 0.183232 2.93449e-19)
(-0.0860638 -0.184151 1.16165e-19)
(0.183576 -0.0859315 7.55536e-20)
(-0.136293 0.35657 1.36449e-19)
(-0.35716 -0.136274 -1.09587e-19)
(0.355766 0.135561 9.02836e-20)
(0.135645 -0.357022 1.23983e-19)
(0.193896 -0.105013 5.25629e-20)
(-0.105168 -0.194427 8.85346e-20)
(0.104607 0.19373 3.27378e-19)
(-0.194421 0.104857 1.71633e-19)
(-0.039588 0.320191 1.77836e-20)
(0.319664 0.0393586 -1.38034e-19)
(0.0392381 -0.320605 2.0195e-19)
(-0.320956 -0.039679 -6.35996e-20)
(0.378821 0.246088 -3.7935e-19)
(0.246724 -0.379853 1.01734e-19)
(-0.247004 0.379346 -7.80184e-20)
(-0.380016 -0.247169 -1.73251e-19)
(-0.31196 0.164107 2.8228e-20)
(0.16389 0.311312 2.73728e-19)
(-0.164482 -0.311863 -1.26132e-19)
(0.311264 -0.1642 5.68739e-21)
(0.153597 0.342005 -5.27349e-20)
(0.341905 -0.154102 -8.86199e-21)
(-0.342637 0.153846 4.28887e-20)
(-0.154277 -0.342572 -1.17531e-19)
(0.021603 -0.313711 8.57682e-20)
(-0.0219965 0.31305 2.28018e-19)
(-0.313629 -0.021952 -3.325e-19)
(0.312437 0.0212829 1.08477e-19)
(0.0572349 0.13503 -1.80942e-19)
(0.135087 -0.0574388 -5.72642e-20)
(-0.0576121 -0.135522 -9.06741e-20)
(-0.135631 0.0572984 -5.12215e-20)
(0.0609997 0.13555 -3.55719e-20)
(-0.136122 0.0611473 1.03359e-19)
(0.135619 -0.061211 -1.1076e-19)
(-0.0613836 -0.136044 -1.85804e-19)
(0.262226 -0.512035 4.01028e-20)
(0.510943 0.261656 -1.08831e-19)
(-0.262421 0.511197 -1.61919e-19)
(-0.512163 -0.262736 -1.18272e-19)
(0.165496 -0.0875944 -9.74704e-20)
(-0.165984 0.0874655 -3.10815e-20)
(0.08718 0.165301 1.80646e-19)
(-0.0877399 -0.165989 2.25729e-19)
(-0.210254 0.0741723 2.15785e-19)
(0.209578 -0.0743416 1.32072e-19)
(-0.0746468 -0.210117 1.96719e-19)
(0.0742056 0.209369 3.2321e-19)
(-0.0374421 0.140477 -5.01129e-20)
(0.0372212 -0.140846 8.30158e-20)
(0.140242 0.0371512 -1.36546e-19)
(-0.140921 -0.0374573 9.95675e-20)
(-0.141328 -0.0417814 -1.37903e-19)
(-0.0417594 0.14089 -2.64903e-19)
(0.140642 0.041458 -1.59474e-19)
(0.0415418 -0.14125 -1.49296e-19)
(-0.10569 0.100181 2.84547e-21)
(-0.100462 -0.105725 -4.88794e-21)
(0.105384 -0.100329 -1.5253e-20)
(0.0999135 0.105211 3.05448e-20)
(-0.182164 -0.557474 -3.45179e-20)
(0.556655 -0.181983 1.37012e-20)
(0.181417 0.556634 1.25254e-20)
(-0.557583 0.181818 -1.79449e-20)
(-0.0541324 -0.140053 -3.75279e-20)
(-0.140135 0.053819 -2.08621e-20)
(0.139576 -0.0540067 -4.90445e-20)
(0.0537708 0.139537 -5.94636e-20)
(-0.103991 0.104174 -2.69752e-21)
(0.103669 -0.104332 -2.0093e-20)
(0.103901 0.103513 3.09765e-20)
(-0.104461 -0.104002 -7.6856e-21)
(-0.135324 0.0317173 1.1755e-20)
(0.0315919 0.134813 3.28827e-20)
(-0.0318919 -0.135326 4.66786e-20)
(0.134813 -0.0318112 4.29152e-20)
(-0.103989 0.096553 1.95492e-21)
(-0.0968289 -0.104025 -2.69344e-21)
(0.103689 -0.096696 -8.89984e-21)
(0.0962868 0.103518 2.13023e-20)
(-0.0350769 0.137248 -1.08958e-19)
(0.137015 0.0347954 -1.88967e-19)
(0.0348606 -0.137614 1.21749e-19)
(-0.137687 -0.035091 1.13635e-19)
(0.0724504 -0.133624 2.35061e-19)
(-0.133746 -0.0727296 2.07529e-19)
(-0.0727104 0.133358 2.10723e-19)
(0.133078 0.072333 1.70166e-19)
(0.366198 0.0230586 2.22543e-19)
(0.0233177 -0.367293 1.96491e-19)
(-0.367491 -0.0235385 4.72605e-20)
(-0.0236086 0.366461 -4.76634e-20)
(0.0563014 0.227415 9.83809e-20)
(-0.22815 0.0560306 -2.27976e-19)
(-0.0566131 -0.228025 -1.4435e-20)
(0.227475 -0.0563616 7.82455e-20)
(0.285524 -0.0529184 2.01799e-19)
(-0.0528778 -0.286135 -2.80848e-20)
(-0.286276 0.0525636 -1.36438e-19)
(0.0525485 0.285754 1.35318e-19)
(0.22217 0.160518 8.40676e-20)
(0.160912 -0.223005 1.07022e-19)
(-0.223118 -0.161324 -1.24617e-19)
(-0.161253 0.222616 -1.39488e-20)
(-0.0516462 -0.299518 2.62694e-19)
(0.298385 -0.0517787 2.17652e-19)
(-0.299321 0.0514012 1.54626e-19)
(0.0514052 0.298596 2.32432e-19)
(-0.0331454 -0.3125 1.02607e-19)
(0.311041 -0.0332583 1.35765e-19)
(-0.312073 0.0329051 5.00486e-20)
(0.0328156 0.31151 2.20008e-19)
(0.137221 0.257715 4.49539e-19)
(-0.137877 -0.258477 -5.82231e-20)
(-0.258496 0.137514 9.08481e-20)
(0.257811 -0.137332 3.56414e-19)
(-0.125434 0.104323 3.91011e-20)
(0.125032 -0.104463 -6.28704e-20)
(-0.104633 -0.125518 -1.33815e-20)
(0.104044 0.124896 8.60463e-20)
(-0.187471 -0.0661609 5.9477e-20)
(-0.0661916 0.186975 -3.3866e-20)
(0.0659162 -0.187394 1.75741e-19)
(0.186711 0.0657392 3.51153e-20)
(0.238474 0.157987 1.52027e-20)
(0.158347 -0.239389 1.77891e-19)
(-0.239484 -0.158775 1.11067e-19)
(-0.158704 0.238946 2.57971e-19)
(-0.13298 0.146793 -2.92456e-20)
(0.132716 -0.147018 -8.59287e-20)
(0.146437 0.132387 1.50906e-19)
(-0.147155 -0.133026 -9.83306e-20)
(0.202445 0.0920015 2.15505e-19)
(-0.0924836 0.202816 -5.1065e-20)
(-0.203347 -0.0925365 6.4972e-20)
(0.0922868 -0.203309 -1.11722e-21)
(-0.160195 -0.0316661 6.63165e-20)
(0.0314253 -0.160099 -7.08685e-20)
(-0.0316645 0.159699 -6.35033e-20)
(0.159509 0.0313357 -1.05627e-19)
(-0.232157 0.0666192 6.33328e-20)
(0.0667912 0.231352 5.42596e-19)
(-0.0671492 -0.231977 6.05714e-20)
(0.231449 -0.0668008 8.21037e-20)
(-0.206483 0.0669175 1.02619e-19)
(-0.0674244 -0.206314 -1.77322e-20)
(0.205803 -0.0671 1.36542e-19)
(0.0669855 0.205556 2.7133e-19)
(0.0595097 -0.194657 2.76963e-19)
(-0.059792 0.194211 3.55611e-20)
(0.193912 0.0594012 8.49292e-20)
(-0.194718 -0.0597676 8.1172e-20)
(0.130898 -0.0442558 2.16768e-20)
(0.0440208 0.130855 -1.99117e-20)
(-0.131375 0.0442507 -9.84957e-21)
(-0.0443662 -0.131368 4.18849e-21)
(-0.0242922 -0.136373 2.16925e-19)
(0.0239951 0.135851 2.74308e-19)
(-0.136357 0.0241007 3.30576e-19)
(0.135823 -0.0242077 2.06814e-19)
(-0.144757 -0.142298 -1.82095e-19)
(0.14191 -0.144634 2.5574e-20)
(0.144052 0.141647 1.51564e-19)
(-0.142257 0.144406 -1.96313e-20)
(-0.0965403 0.195171 -6.93278e-21)
(0.194796 0.0960546 2.64853e-19)
(-0.195695 -0.0965843 4.40385e-20)
(0.0963789 -0.195635 4.55553e-20)
(0.0568071 0.1858 5.45896e-20)
(-0.186511 0.0569388 8.42199e-20)
(-0.0572233 -0.186472 3.93706e-20)
(0.185866 -0.0570962 1.13455e-19)
(0.171813 -0.0505713 2.03381e-19)
(-0.172372 0.050425 2.91779e-20)
(-0.050706 -0.172351 1.02907e-19)
(0.0503371 0.171733 2.02374e-19)
(-0.183059 0.0150507 -2.14855e-19)
(0.182268 -0.0151805 -6.82135e-20)
(-0.0152564 -0.182881 -6.69717e-20)
(0.0149601 0.18245 -2.67447e-19)
(0.130067 -0.152263 -4.65841e-20)
(-0.152414 -0.130385 -1.27162e-19)
(-0.130337 0.152033 -5.84813e-20)
(0.151707 0.129678 2.44721e-19)
(0.0573934 -0.154098 4.3775e-20)
(-0.0577452 0.153817 -1.89479e-19)
(-0.154183 -0.057657 1.1118e-19)
(0.153459 0.0572755 -2.28618e-20)
(0.104894 -0.0842051 1.95496e-21)
(0.0838437 0.104737 5.2307e-21)
(-0.10521 0.0840873 6.51223e-22)
(-0.0843434 -0.105244 2.52089e-22)
(-0.273579 0.248997 2.15269e-20)
(0.272884 -0.248958 3.06556e-20)
(0.248471 0.272665 2.92241e-19)
(-0.249626 -0.273705 -1.79244e-19)
(0.12392 0.107246 1.166e-19)
(-0.107733 0.124229 5.17446e-20)
(-0.124556 -0.107773 6.65638e-20)
(0.107435 -0.124431 2.11957e-20)
(0.308592 0.210359 -2.57459e-20)
(-0.309743 -0.211052 -2.52263e-19)
(-0.211152 0.309102 1.77328e-19)
(0.210343 -0.308969 -1.05476e-20)
(-0.277603 0.19543 2.36556e-20)
(0.195075 0.276784 1.98048e-19)
(0.277029 -0.195466 -4.6286e-20)
(-0.195846 -0.277625 -3.15172e-19)
(-0.132766 -0.0235742 -3.02794e-19)
(0.0233595 -0.1327 -2.38571e-19)
(0.132121 0.0233199 -1.96449e-19)
(-0.0235727 0.132321 -1.56321e-19)
(0.0393541 0.388097 7.31013e-20)
(0.388182 -0.0397875 2.31399e-21)
(-0.0400942 -0.389363 9.02158e-20)
(-0.38928 0.0395509 -4.36445e-20)
(-0.242738 0.307462 1.71835e-19)
(0.306899 0.241878 9.02395e-20)