/*--------------------------------*- C++ -*----------------------------------*\
| =========                 |                                                 |
| \\      /  F ield         | foam-extend: Open Source CFD                    |
|  \\    /   O peration     | Version:  3.0                                   |
|   \\  /    A nd           | Web:         http://www.extend-project.de       |
|    \\/     M anipulation  |                                                 |
\*---------------------------------------------------------------------------*/
FoamFile
{
    version     2.0;
    format      ascii;
    class       volVectorField;
    location    "20";
    object      u;
}
// * * * * * * * * * * * * * * * * * * * * * * * * * * * * * * * * * * * * * //

dimensions      [0 0 0 0 0 0 0];

internalField   nonuniform List<vector> 
2688
(
(0.1246992883 -0.05282933706 1.01993709e-18)
(0.298009455 -0.0432276633 -4.14028135e-18)
(0.4364037049 -0.03587386419 -1.440558036e-18)
(0.5396741553 -0.03001405381 2.087605283e-18)
(0.6261703494 -0.02540329579 -8.96102601e-19)
(0.6914257005 -0.0216248041 -3.672159729e-19)
(0.7485587066 -0.01857110122 -1.647301384e-18)
(0.7915462824 -0.01601048185 -4.126796172e-18)
(0.8308963085 -0.01388787691 -3.256646414e-18)
(0.8599848542 -0.0120755465 -1.531376184e-18)
(0.8879390593 -0.01053232353 -1.158413359e-18)
(0.9078596336 -0.009197995542 -1.069304894e-18)
(0.9281456898 -0.008026403385 -6.825018812e-19)
(0.9417049376 -0.007006410199 -5.975283453e-18)
(0.9565980751 -0.006077002455 1.602347584e-18)
(0.9655216069 -0.005267367916 3.201093456e-18)
(0.9764590743 -0.004495615148 1.71153143e-18)
(0.9818329232 -0.003827437989 8.038107558e-19)
(0.9897454556 -0.003155450398 3.727275087e-18)
(0.9922598043 -0.002581125882 2.429370787e-18)
(0.9977588149 -0.00196775878 -5.604561127e-19)
(0.997847426 -0.001451690794 -1.648854363e-18)
(1.001328547 -0.0008784689131 -3.922852638e-19)
(0.9992928904 -0.0003160347759 -2.40320168e-18)
(0.1365304665 -0.1578297483 3.480330852e-18)
(0.3076889804 -0.1291471219 -3.068715822e-19)
(0.4444365538 -0.1071750962 -1.000755337e-17)
(0.5463954125 -0.08967082209 -2.225413855e-18)
(0.6318591034 -0.07589625027 -2.948298255e-18)
(0.6962683048 -0.06460794685 5.523010388e-19)
(0.752717619 -0.0554859724 -2.224804915e-18)
(0.7951318713 -0.04783548484 -1.258624112e-18)
(0.8340066679 -0.04149435456 4.30730247e-18)
(0.8626893214 -0.0360794689 4.925003719e-18)
(0.8902979365 -0.03146951628 -2.281391174e-18)
(0.9099196239 -0.02748291189 -4.220121244e-18)
(0.9299433269 -0.02398322386 -3.6665317e-20)
(0.9432741068 -0.02093573824 -2.689933674e-18)
(0.9579591509 -0.01815949734 -2.817858084e-18)
(0.9667013371 -0.01574042851 -4.835205822e-20)
(0.977466042 -0.01343507026 -4.61071982e-18)
(0.9826902803 -0.01143875154 -4.667957608e-18)
(0.9904524586 -0.009431751658 6.741916023e-18)
(0.9928381978 -0.007716137403 -1.311335547e-17)
(0.9981998159 -0.005884012396 6.269798721e-18)
(0.9981728399 -0.0043422303 5.496878065e-19)
(1.001525692 -0.002630230381 5.184991555e-18)
(0.9993640888 -0.0009501612443 5.099075038e-18)
(0.1600433626 -0.2608449927 6.815731066e-18)
(0.3269283215 -0.2134415154 -2.068804866e-18)
(0.4604035203 -0.177129213 -5.22129977e-18)
(0.5597547659 -0.1481999763 -1.188885956e-18)
(0.6431662048 -0.125434531 -2.985169462e-18)
(0.7058935918 -0.1067785726 4.854114178e-18)
(0.7609840598 -0.09170310983 -5.517872403e-18)
(0.8022586546 -0.07905893141 6.278214314e-18)
(0.8401888398 -0.06857889189 -6.215950642e-18)
(0.868064746 -0.05962944363 8.556084887e-18)
(0.894986543 -0.05201073361 5.68641048e-18)
(0.9140142435 -0.04542203012 3.320206978e-18)
(0.9335165468 -0.03963834177 4.380457359e-18)
(0.9463932772 -0.03460176102 -6.937518641e-18)
(0.9606647228 -0.03001368405 4.464738663e-18)
(0.9690465208 -0.02601566911 -1.104499098e-17)
(0.9794678298 -0.0222057368 2.146513159e-17)
(0.9843947236 -0.01890632491 -1.796139841e-17)
(0.9918579516 -0.01558940361 -1.418447716e-17)
(0.9939880702 -0.01275395334 1.305619633e-17)
(0.9990766651 -0.00972621705 3.211894965e-18)
(0.9988199751 -0.007178225805 -2.068157176e-17)
(1.001917839 -0.004348924711 -8.39760734e-18)
(0.9995059416 -0.001572359111 1.170181993e-17)
(0.1949419433 -0.3605804529 -1.852556228e-19)
(0.3554848707 -0.2950524306 -6.158314454e-18)
(0.4841021179 -0.2448557726 -6.544521286e-18)
(0.5795825448 -0.2048653801 3.001164596e-19)
(0.6599482215 -0.1733954998 -8.211093845e-18)
(0.7201795433 -0.1476064324 4.302109256e-18)
(0.7732531746 -0.1267671472 -7.080429445e-18)
(0.8128361343 -0.1092883106 -1.485456605e-18)
(0.8493642525 -0.09480115277 -3.395291583e-18)
(0.8760428044 -0.08242964982 -6.209047067e-18)
(0.9019453145 -0.07189792199 -1.676762587e-17)
(0.9200914764 -0.0627899136 -6.202201433e-18)
(0.9388199721 -0.05479488684 1.219973246e-17)
(0.9510227956 -0.04783251106 1.499351177e-18)
(0.9646803876 -0.04149027275 2.452647107e-18)
(0.9725272383 -0.03596361662 -9.0851235e-18)
(0.9824388426 -0.03069707175 -1.354859671e-17)
(0.986924304 -0.02613612983 5.920951806e-18)
(0.9939438271 -0.02155103474 -3.497469338e-18)
(0.9956945832 -0.01763137737 -2.013296855e-17)
(1.000378134 -0.01344603135 1.046679893e-17)
(0.9997805067 -0.009923886684 1.9391793e-17)
(1.00249991 -0.006012885496 -2.025058457e-17)
(0.9997165019 -0.002174748193 2.325424825e-17)
(0.2407879079 -0.4557807805 -5.588377765e-19)
(0.3929993015 -0.3729523411 6.489065346e-18)
(0.515234461 -0.3095030907 1.179190438e-17)
(0.6056303199 -0.2589542874 7.99690588e-19)
(0.6819947442 -0.2191756948 -1.081355497e-18)
(0.738947145 -0.1865778726 1.004700139e-18)
(0.7893712627 -0.1602368195 -5.843326567e-18)
(0.8267318644 -0.1381431348 -6.234924185e-18)
(0.8614180125 -0.1198310345 -1.083096628e-18)
(0.8865235402 -0.1041930591 1.506167468e-17)
(0.9110869889 -0.09088077855 -9.051612792e-19)
(0.928075082 -0.07936802992 6.434012412e-18)
(0.9457870555 -0.06926224254 -5.367786839e-18)
(0.9571046303 -0.06046165053 1.017396554e-17)
(0.969955854 -0.05244503081 -2.901975294e-17)
(0.9771000201 -0.04545923983 -9.466008845e-18)
(0.9863420374 -0.03880231317 2.216796854e-17)
(0.9902476088 -0.0330371814 1.656377755e-18)
(0.9966841704 -0.02724155213 1.147249774e-17)
(0.9979365355 -0.02228697863 9.820376325e-18)
(1.002087954 -0.01699665982 -1.728979142e-18)
(1.001042487 -0.01254465178 5.973292916e-18)
(1.003264653 -0.007601164342 -3.211536005e-17)
(0.9999932094 -0.002749734051 3.517692759e-17)
(0.2970048202 -0.5452499244 -1.834203696e-17)
(0.439000162 -0.4461626248 -6.027809977e-20)
(0.5534093 -0.37025834 2.688680392e-18)
(0.6375702492 -0.3097869209 -5.806897338e-19)
(0.7090283964 -0.262199881 -1.211376677e-17)
(0.7619601264 -0.2232032265 1.35843689e-18)
(0.8091354022 -0.1916916772 2.618644401e-18)
(0.8437709052 -0.1652609818 -2.928494037e-17)
(0.8761984261 -0.1433542368 -1.852275899e-17)
(0.8993751085 -0.1246464338 2.900509099e-18)
(0.9222966154 -0.108720985 -1.626329343e-18)
(0.9378646802 -0.09494824543 2.783781053e-18)
(0.9543301971 -0.08285875199 -4.887425137e-19)
(0.9645622545 -0.07233060091 1.609304704e-17)
(0.9764247014 -0.06274040259 -1.015790804e-17)
(0.9827071939 -0.05438334008 3.778471631e-17)
(0.9911281572 -0.04641975781 1.506125441e-17)
(0.9943226231 -0.03952296024 7.292290891e-20)
(1.000044368 -0.03258967987 -1.026318387e-17)
(1.000685596 -0.02666250194 1.159985962e-18)
(1.004184538 -0.02033372365 4.428335133e-18)
(1.002589946 -0.01500781106 2.251383204e-17)
(1.004202434 -0.009093979842 1.735940253e-17)
(1.00033258 -0.003290258631 -3.027522409e-17)
(0.3628854347 -0.6278617274 -8.814892731e-18)
(0.4929084811 -0.5137616579 -7.800494177e-18)
(0.5981463735 -0.4263571111 1.553424259e-17)
(0.675000831 -0.3567235044 -1.293612431e-17)
(0.7407092333 -0.3019264676 -1.004624736e-17)
(0.7889291667 -0.2570213769 1.141174888e-17)
(0.8322970608 -0.2207355863 6.84745221e-19)
(0.8637389932 -0.1903002722 -7.26284418e-18)
(0.8935195804 -0.1650743807 3.790037238e-17)
(0.9144358173 -0.1435320358 -2.445903938e-17)
(0.9354331103 -0.1251937081 -6.79071711e-18)
(0.9493370445 -0.1093341988 1.232698823e-17)
(0.9643418476 -0.09541304637 -3.401557728e-18)
(0.9733018189 -0.08328974313 -1.502733954e-19)
(0.9840055389 -0.07224657375 -1.783278427e-17)
(0.9892782804 -0.06262333224 -1.628297114e-17)
(0.9967370562 -0.05345324366 -2.431415388e-17)
(0.9990982146 -0.04551151019 -4.644169228e-18)
(1.003982247 -0.03752777734 -5.467552996e-18)
(1.003907312 -0.03070253056 -9.465794245e-18)
(1.006641579 -0.02341489614 -2.702591141e-17)
(1.004403472 -0.01728206049 -2.970531114e-17)
(1.005301438 -0.01047226842 -2.068875977e-17)
(1.000730307 -0.003789252977 -4.414516578e-17)
(0.4376015763 -0.7025782512 -1.885951432e-18)
(0.5540467393 -0.5749002566 -9.954278759e-18)
(0.648883376 -0.4770944292 -7.86470419e-18)
(0.7174513698 -0.3991743835 4.013044316e-18)
(0.7766389488 -0.3378564298 7.182372318e-18)
(0.8195151316 -0.2876076021 -1.70962052e-17)
(0.858565064 -0.2470038792 -2.800015735e-18)
(0.8863851271 -0.2129466768 7.589428687e-18)
(0.9131638241 -0.1847188739 1.367628983e-18)
(0.9315164659 -0.1606128807 9.181435878e-18)
(0.9503315004 -0.1400922776 1.013038046e-17)
(0.9623481164 -0.1223454193 -8.397082687e-18)
(0.9756963086 -0.1067676575 -1.685453115e-17)
(0.9832135709 -0.09320164673 3.374730113e-18)
(0.9926031615 -0.0808443684 2.216992569e-17)
(0.9967307007 -0.0700759646 -6.390429967e-18)
(1.003098247 -0.05981468477 2.288728946e-17)
(1.004514302 -0.05092790129 3.096090091e-18)
(1.00844828 -0.04199412275 2.411080173e-18)
(1.00756111 -0.03435664668 3.636281868e-18)
(1.009428171 -0.02620177842 5.533969303e-17)
(1.006460236 -0.01933912978 -2.35577006e-17)
(1.006547884 -0.01171898148 -1.117863677e-17)
(1.00118144 -0.004240703375 -2.498460171e-17)
(0.5202133196 -0.7684590016 -2.277724149e-17)
(0.6216457197 -0.628808724 -1.844524858e-17)
(0.7049819858 -0.5218317017 3.158568164e-18)
(0.7643879243 -0.4366051021 1.775540995e-17)
(0.8163655229 -0.3695373655 1.320341627e-17)
(0.8533332707 -0.3145767046 -1.538250024e-17)
(0.8876088921 -0.2701656611 -9.303209677e-18)
(0.9114243442 -0.2329148807 1.465620738e-17)
(0.9348838963 -0.202040161 -4.30565676e-18)
(0.9504020308 -0.1756736977 -4.274994287e-18)
(0.9668041838 -0.1532288928 -8.98309276e-18)
(0.9767340483 -0.1338178861 2.292068225e-17)
(0.9882505726 -0.1167794223 -1.654252242e-17)
(0.994172693 -0.1019413129 -1.619802162e-18)
(1.002109296 -0.08842532309 -9.99206132e-18)
(1.004970652 -0.07664716749 -6.047275128e-18)
(1.01013166 -0.06542372972 -1.474264885e-17)
(1.010502778 -0.05570364295 2.177261197e-17)
(1.013386298 -0.04593218035 2.008352459e-17)
(1.011601084 -0.03757853179 -3.845615079e-18)
(1.01250927 -0.02865899886 -1.25744338e-17)
(1.00873439 -0.02115284443 8.548563271e-18)
(1.007926052 -0.01281818473 3.480714839e-17)
(1.001680248 -0.004638699761 -5.284345242e-17)
(0.6096821482 -0.8246763022 1.199694639e-17)
(0.6948556939 -0.6748099005 -2.533750268e-17)
(0.7657370412 -0.5600068726 4.563578383e-17)
(0.8152203981 -0.468545514 -1.628295939e-17)
(0.8593895948 -0.396571373 1.141604741e-17)
(0.8899584589 -0.33759003 -1.359054376e-17)
(0.9190635313 -0.2899301422 -6.4948896e-18)
(0.9385419738 -0.249954218 2.266796261e-18)
(0.9584069138 -0.2168208448 9.599935124e-18)
(0.9708552635 -0.1885254683 -1.668036012e-17)
(0.9846442722 -0.1644387111 8.047220434e-18)
(0.9923141649 -0.1436076449 3.51534419e-18)
(1.001846988 -0.1253227419 -1.967485947e-17)
(1.006041543 -0.1093991254 -1.195233562e-17)
(1.012404555 -0.09489439211 -4.972538678e-18)
(1.013894602 -0.08225460197 -2.447909641e-17)
(1.01774893 -0.07021013938 1.043945948e-17)
(1.016988345 -0.05977898914 -3.695482367e-17)
(1.018734228 -0.04929272052 -4.193830105e-18)
(1.015976403 -0.04032796843 -3.187387696e-19)
(1.015846144 -0.03075592925 2.379738042e-17)
(1.011197328 -0.02270066143 -3.17660713e-17)
(1.009418664 -0.01375627816 3.126136192e-17)
(1.002220521 -0.004978444225 2.577422028e-17)
(0.7048825358 -0.8705224621 1.236238546e-17)
(0.7727556448 -0.712324618 9.805006915e-18)
(0.8303841705 -0.5911393801 1.612146894e-17)
(0.8693093196 -0.4945934481 -1.565939674e-17)
(0.9051698331 -0.4186180509 1.047811207e-17)
(0.9289299043 -0.356357758 -7.536118075e-18)
(0.9525331539 -0.3060483859 -1.436103988e-17)
(0.9673967604 -0.2638500631 -1.181392404e-17)
(0.9834367859 -0.2288747225 -1.352242315e-17)
(0.9926187017 -0.1990062928 -3.144118595e-17)
(1.003627152 -0.1735804988 -1.451153749e-17)
(1.008892306 -0.1515913568 1.346228578e-17)
(1.016314347 -0.1322899608 -2.666629614e-19)
(1.018670686 -0.1154810942 2.869539782e-17)
(1.023359301 -0.1001700183 2.652852436e-17)
(1.023390219 -0.0868275396 2.046649065e-17)
(1.025854158 -0.0741135072 -6.49277444e-18)
(1.023889409 -0.06310245249 5.87738578e-17)
(1.024424772 -0.05203324441 -1.720631399e-17)
(1.02063206 -0.04257012064 -5.86634399e-18)
(1.019396811 -0.0324659641 -1.97758775e-17)
(1.013818085 -0.02396288637 -7.53705233e-17)
(1.011006899 -0.0145212774 1.915533048e-17)
(1.002795408 -0.005255488897 -1.004604709e-17)
(0.8046177191 -0.9054215685 9.930357312e-18)
(0.8543662945 -0.7408816784 -3.293103393e-18)
(0.898110743 -0.6148381247 7.895084013e-18)
(0.9259747245 -0.5144217391 -1.67774518e-17)
(0.9531308133 -0.4354004805 5.138359806e-18)
(0.9697577394 -0.3706441849 2.184865598e-17)
(0.9875971362 -0.3183179727 -5.904052285e-18)
(0.997626073 -0.274427903 3.22656436e-17)
(1.009659018 -0.2380504203 3.030399987e-17)
(1.015418897 -0.2069845349 1.961716357e-17)
(1.023514354 -0.180539443 -1.086770472e-17)
(1.026260209 -0.1576687405 1.303656286e-18)
(1.031470928 -0.1375935788 -8.189204624e-18)
(1.03190147 -0.1201108438 3.595071042e-20)
(1.034835934 -0.1041859775 -3.368712576e-17)
(1.033338195 -0.0903086113 -6.38846581e-17)
(1.034345521 -0.07708490057 -1.239854482e-17)
(1.031119217 -0.06563242735 -3.266720309e-18)
(1.03038641 -0.05411947923 -2.888644326e-17)
(1.025509492 -0.04427700506 -3.352801194e-17)
(1.023116639 -0.03376778933 3.824398793e-17)
(1.016563697 -0.02492383964 -1.733726788e-18)
(1.012670836 -0.01510371735 4.176819665e-17)
(1.003397736 -0.005466498788 8.647137151e-19)
(0.9076330439 -0.9289342231 7.574558637e-18)
(0.9386610002 -0.7601214853 -1.0426471e-17)
(0.9680647159 -0.6308047564 1.110873317e-18)
(0.9845037756 -0.5277807198 -2.083263443e-17)
(1.002669121 -0.4467073743 5.687921913e-19)
(1.011928328 -0.3802694356 9.854169448e-18)
(1.02381428 -0.3265844305 -1.088253386e-17)
(1.028849563 -0.2815545778 -1.797093341e-17)
(1.036743622 -0.2442324343 2.351640817e-18)
(1.03896893 -0.2123597873 -2.124517833e-19)
(1.044055579 -0.185227966 7.114828868e-18)
(1.044199291 -0.1617633306 -3.967552857e-18)
(1.047125954 -0.141166858 -3.772949834e-17)
(1.045567377 -0.1232301147 3.767952132e-17)
(1.046689991 -0.1068917142 -1.388823216e-17)
(1.043613339 -0.09265396759 3.641422426e-17)
(1.043116138 -0.07908686214 8.371655214e-18)
(1.038586817 -0.06733697122 2.973398932e-17)
(1.036544121 -0.0555250555 3.403344265e-17)
(1.030547369 -0.0454269867 1.269427373e-18)
(1.026958822 -0.03464487738 4.287278834e-18)
(1.019399638 -0.02557126887 7.229317807e-18)
(1.014389499 -0.01549614147 -2.135597117e-19)
(1.004019877 -0.005608688533 -3.112985114e-17)
(1.012633411 -0.9407651721 1.046380981e-18)
(1.024580005 -0.769802468 -6.000910334e-18)
(1.039366686 -0.6388387194 -2.065312673e-17)
(1.044160649 -0.5345026081 9.299447862e-18)
(1.053162036 -0.4523966783 9.222840925e-19)
(1.054911528 -0.3851125832 -2.048515223e-18)
(1.06072935 -0.330743877 3.471809469e-18)
(1.060674735 -0.2851405053 1.018369284e-17)
(1.064350178 -0.2473430347 -5.506683506e-19)
(1.062972791 -0.2150644323 -1.414709926e-17)
(1.06499267 -0.1875870746 -3.558285831e-18)
(1.062484083 -0.1638235804 -9.736283955e-18)
(1.063082692 -0.1429648117 1.307675202e-17)
(1.059496656 -0.1247996289 -1.406409374e-17)
(1.058772521 -0.1082531691 1.005892448e-17)
(1.054086516 -0.09383410911 -1.579111002e-17)
(1.052055809 -0.08009423795 -6.020803768e-18)
(1.046198336 -0.06819471973 -2.976400485e-18)
(1.042820526 -0.05623238621 -3.31502706e-17)
(1.035682335 -0.04600573804 1.284546214e-17)
(1.030875075 -0.03508632091 8.198857365e-19)
(1.022290245 -0.02589717391 2.022213101e-18)
(1.016141324 -0.01569372092 2.044961141e-18)
(1.004654056 -0.005680382039 1.421415474e-19)
(1.118298024 -0.9407652937 -2.631199654e-18)
(1.111042575 -0.7698026053 -2.417235773e-18)
(1.111119723 -0.6388388415 -2.378328017e-17)
(1.104194952 -0.5345027452 1.214480246e-17)
(1.103974374 -0.4523967958 1.402498178e-18)
(1.098166672 -0.3851126883 4.287041904e-18)
(1.097877955 -0.3307440163 -3.282547244e-18)
(1.092701267 -0.2851406283 8.596989311e-18)
(1.092131389 -0.2473431682 -4.457545785e-18)
(1.08712853 -0.2150645471 -1.595049932e-17)
(1.086062225 -0.187587202 -1.831375738e-17)
(1.080884571 -0.1638236998 5.846542724e-18)
(1.079140382 -0.1429649439 1.721391541e-17)
(1.073514066 -0.1247997609 -2.156122784e-17)
(1.070931483 -0.108253314 -1.686768888e-17)
(1.064625955 -0.09383425536 1.492545222e-17)
(1.061052023 -0.08009438986 -2.377519814e-18)
(1.053858017 -0.0681948608 -9.110855658e-19)
(1.049136626 -0.05623252747 -6.642561137e-18)
(1.040849802 -0.04600587548 -1.680524957e-17)
(1.034816096 -0.03508646611 -5.838514466e-18)
(1.025199152 -0.02589732384 -3.063235063e-18)
(1.017904217 -0.01569387051 -2.812321774e-17)
(1.005292239 -0.005680566304 2.570369636e-17)
(1.223298442 -0.9289348231 -6.3043324e-18)
(1.196961613 -0.7601220717 6.500525719e-18)
(1.18242171 -0.630805179 -1.618214155e-17)
(1.163851843 -0.5277811789 -6.48012582e-18)
(1.154467292 -0.4467077027 -1.482712331e-18)
(1.141149872 -0.3802697176 -4.836299284e-18)
(1.134793028 -0.3265847689 2.869438023e-18)
(1.12452644 -0.2815548488 -2.074918807e-17)
(1.119737946 -0.2442327098 -2.151325454e-17)
(1.11113239 -0.2123599865 3.933381866e-19)
(1.106999317 -0.185228189 2.595875067e-17)
(1.099169364 -0.1617635129 1.023790475e-18)
(1.095097126 -0.1411670782 3.708137309e-18)
(1.087443355 -0.1232303354 -2.888952687e-18)
(1.08301403 -0.1068919877 1.062993024e-18)
(1.075099158 -0.09265427716 2.005780944e-17)
(1.069991727 -0.07908721934 4.627170381e-18)
(1.061469576 -0.06733735743 1.745969463e-17)
(1.055413076 -0.05552547551 7.639732331e-18)
(1.045984819 -0.04542746502 3.02241627e-17)
(1.038732405 -0.03464538759 4.151324595e-18)
(1.028089815 -0.02557183759 1.591284302e-17)
(1.019656099 -0.01549668492 -6.143791985e-18)
(1.005926482 -0.005609357013 -1.658917317e-17)
(1.326313912 -0.9054223794 -4.56569332e-18)
(1.281256466 -0.7408825026 8.523091702e-18)
(1.252375816 -0.614838771 -6.54337911e-18)
(1.22238103 -0.5144224509 3.392147164e-18)
(1.20400572 -0.4354010281 -5.677153493e-19)
(1.183320577 -0.370644662 1.634602127e-18)
(1.171010304 -0.318318573 1.013966531e-17)
(1.155750061 -0.2744284031 1.244265574e-17)
(1.146822686 -0.238050945 1.75316035e-17)
(1.134682552 -0.2069849459 1.955034714e-17)
(1.127540672 -0.1805399023 5.540986018e-18)
(1.117108565 -0.1576691432 -1.10590085e-17)
(1.110752268 -0.1375940462 1.326499556e-19)
(1.101109368 -0.1201113121 -7.919289886e-18)
(1.09486819 -0.1041865265 -1.961704871e-17)
(1.085374396 -0.09030920128 -1.909716603e-17)
(1.078762432 -0.07708555383 -8.522564506e-18)
(1.068937252 -0.06563309235 -3.245646772e-17)
(1.061570854 -0.054120185 7.903464374e-18)
(1.051022761 -0.04427776381 -2.73903442e-17)
(1.042574649 -0.03376859749 -2.197757207e-18)
(1.030925828 -0.02492471281 2.653694698e-18)
(1.021374828 -0.01510456364 -2.230210507e-17)
(1.006548715 -0.00546753422 4.844340389e-17)
(1.426049183 -0.8705237419 -1.554281706e-18)
(1.36286718 -0.7123259014 1.473907932e-17)
(1.320102431 -0.5911403443 2.975546731e-18)
(1.279046485 -0.4945944996 -2.792195112e-19)
(1.251966708 -0.4186188368 -3.747087337e-18)
(1.224148413 -0.3563584462 -1.572986425e-17)
(1.206074295 -0.3060492221 5.871412979e-18)
(1.185979378 -0.2638507502 -9.725294324e-18)
(1.173044925 -0.2288754255 -1.100435167e-17)
(1.157482743 -0.1990068227 -1.156190167e-17)
(1.147427877 -0.173581082 5.63070911e-18)
(1.134476467 -0.1515918474 -1.213339512e-17)
(1.125908862 -0.1322905317 2.052321467e-18)
(1.114340174 -0.1154816589 -1.063236728e-17)
(1.106344862 -0.1001706898 4.328187803e-17)
(1.09532243 -0.08682827448 1.996893279e-17)
(1.087253867 -0.07411433419 1.701676865e-17)
(1.076167149 -0.06310332263 -1.40212886e-18)
(1.067532595 -0.0520341847 4.482590963e-18)
(1.055900315 -0.04257117111 -4.67486938e-18)
(1.046294613 -0.03246708761 -1.637521663e-17)
(1.033671582 -0.02396413138 -6.425563447e-18)
(1.023038906 -0.01452247753 -4.236383439e-17)
(1.007151205 -0.005256976495 -1.10390538e-19)
(1.521249871 -0.8246777305 -2.9445632e-18)
(1.440767421 -0.6748113716 1.325710818e-18)
(1.384749817 -0.5600080205 1.439284773e-17)
(1.333135656 -0.4685467599 -4.751271135e-18)
(1.297747157 -0.3965723272 -7.852769171e-18)
(1.263120056 -0.3375908652 -4.078637619e-18)
(1.239544145 -0.2899311889 6.762329876e-18)
(1.214834392 -0.2499550815 -3.85118549e-18)
(1.198075037 -0.2168217377 -8.217584165e-18)
(1.179246408 -0.1885261486 2.112992811e-17)
(1.166410985 -0.1644394659 -6.622040646e-18)
(1.151054821 -0.1436082908 -1.497238357e-17)
(1.14037643 -0.125323495 2.147152356e-17)
(1.12696951 -0.1093998736 1.141311074e-18)
(1.1172998 -0.09489527814 -2.141055787e-17)
(1.104818226 -0.08225556161 8.151026202e-18)
(1.095359273 -0.07021121945 -1.664016359e-17)
(1.083068373 -0.05978011084 -2.846837396e-17)
(1.073223298 -0.04929393704 1.995582291e-19)
(1.060556133 -0.04032929616 1.53205195e-18)
(1.049845447 -0.03075734882 1.261916624e-17)
(1.036292521 -0.02270220297 2.297451449e-17)
(1.024627324 -0.01375777169 3.536137076e-18)
(1.007726324 -0.004980276105 -1.606670039e-17)
(1.610718886 -0.7684608761 -1.047992433e-17)
(1.513977525 -0.6288106462 2.10790699e-18)
(1.445504971 -0.5218331762 -3.474105958e-18)
(1.383968237 -0.4366066929 6.768945012e-18)
(1.340771255 -0.3695385846 -5.702798366e-18)
(1.299745251 -0.3145777945 1.942855827e-18)
(1.270998802 -0.2701669925 5.726221571e-18)
(1.24195203 -0.2329159843 -7.390336411e-18)
(1.221598067 -0.202041278 -5.356425015e-19)
(1.199699635 -0.1756745412 4.564151913e-18)
(1.184251077 -0.1532298044 -7.129796038e-18)
(1.166634932 -0.1338186498 1.158047226e-18)
(1.153972855 -0.116780295 3.021193215e-18)
(1.138838378 -0.1019421671 -1.122462629e-17)
(1.127595096 -0.08842632505 3.490236557e-18)
(1.113742237 -0.07664825765 4.4541947e-18)
(1.102976618 -0.06542495908 1.068994688e-17)
(1.089554041 -0.05570494436 6.602286296e-18)
(1.078571345 -0.04593359715 -9.733675367e-18)
(1.064931603 -0.03758009868 -2.175878185e-18)
(1.053182483 -0.0286606639 -1.178701427e-17)
(1.03875564 -0.02115468036 5.62760634e-18)
(1.026120109 -0.0128199549 -7.395310015e-18)
(1.00826681 -0.004640906949 3.148622789e-18)
(1.69333103 -0.7025801818 1.227684328e-18)
(1.581576903 -0.5749022656 1.462642906e-18)
(1.50160394 -0.4770960246 -4.26310873e-18)
(1.430905132 -0.3991760718 -4.725616223e-19)
(1.380498096 -0.3378577364 -4.486971949e-20)
(1.333563626 -0.287608767 -5.064678764e-18)
(1.300042901 -0.2470053439 2.556830436e-18)
(1.266991517 -0.212947877 7.370224894e-18)
(1.243318425 -0.1847200873 -7.671474574e-18)
(1.21858547 -0.1606137761 6.914141371e-18)
(1.200724034 -0.140093254 4.165064e-18)
(1.181021118 -0.1223462299 -1.156226236e-17)
(1.166527372 -0.1067686014 1.674023411e-18)
(1.14979774 -0.09320257277 1.004328153e-17)
(1.137101476 -0.08084547633 6.821941583e-19)
(1.121982428 -0.07007718023 -1.35159162e-18)
(1.110010282 -0.05981608689 1.089327775e-17)
(1.095542758 -0.05092939765 1.49029752e-18)
(1.083509622 -0.04199577138 2.775126135e-19)
(1.068971844 -0.03435844188 -3.465759895e-18)
(1.056263866 -0.0262036872 2.261086214e-17)
(1.041030093 -0.01934120956 1.69773794e-17)
(1.027498579 -0.01172099643 2.634430045e-17)
(1.008765984 -0.004243192017 -3.952283254e-18)
(1.768047419 -0.6278640794 3.51404692e-19)
(1.642715332 -0.5137641013 2.601266912e-18)
(1.552341118 -0.4263590187 -2.770450445e-18)
(1.473355886 -0.3567255073 -1.505515416e-18)
(1.416427903 -0.3019280369 -3.88417567e-18)
(1.36414965 -0.2570228228 5.672960082e-18)
(1.326310967 -0.220737371 2.746148286e-18)
(1.289637695 -0.1903017572 4.967256474e-18)
(1.262962715 -0.1650758518 6.474020569e-18)
(1.235666135 -0.1435331284 -2.251496695e-18)
(1.215622449 -0.1251948629 6.410433157e-18)
(1.194032199 -0.1093351512 1.509078705e-18)
(1.177881861 -0.09541412502 -9.216027561e-18)
(1.159709528 -0.08329079408 -5.84435587e-19)
(1.145699161 -0.07224781293 -6.171925932e-18)
(1.129434938 -0.06262470351 1.524880217e-18)
(1.116371584 -0.05345482414 -1.748297549e-17)
(1.100958985 -0.0455132192 -1.349062173e-18)
(1.087975807 -0.03752963374 -1.589377282e-18)
(1.072625826 -0.03070453546 -2.260273381e-18)
(1.059050642 -0.02341699984 -7.614978576e-18)
(1.043087062 -0.01728437273 -7.407124601e-18)
(1.028745213 -0.0104744976 -7.166393157e-18)
(1.009217361 -0.003792041414 -2.572045354e-18)
(1.8339285 -0.5452522253 -1.315915365e-18)
(1.696624129 -0.4461650527 7.303090327e-19)
(1.597078629 -0.3702603411 -4.050437959e-18)
(1.510786887 -0.3097889255 2.394804024e-18)
(1.448109063 -0.262201456 -3.053772401e-18)
(1.391118957 -0.2232046852 1.787550969e-18)
(1.349472918 -0.1916935273 2.595006708e-18)
(1.309606065 -0.1652624956 -4.577431014e-18)
(1.280284164 -0.1433557163 -6.189571523e-18)
(1.250727117 -0.1246474833 -9.455527464e-19)
(1.228759223 -0.1087221015 2.199935591e-18)
(1.205504825 -0.09494914316 1.000785481e-18)
(1.187893779 -0.0828598009 7.350427408e-18)
(1.168449354 -0.07233162475 -2.474187361e-18)
(1.153280276 -0.06274165271 3.896924592e-18)
(1.136006308 -0.05438474602 5.039444178e-18)
(1.121980783 -0.04642142515 1.390838235e-18)
(1.105734873 -0.03952477403 -1.343952682e-19)
(1.091914003 -0.03259165499 -3.911525457e-18)
(1.075847867 -0.02666460659 3.90434121e-21)
(1.061508028 -0.02033594933 -3.641224476e-18)
(1.044900948 -0.01501026021 1.670316488e-17)
(1.02984458 -0.009096359516 2.018810587e-18)
(1.009615525 -0.003293229578 8.224589934e-18)
(1.890145674 -0.455783446 2.873986648e-18)
(1.742625151 -0.3729551686 3.675348465e-18)
(1.635253661 -0.3095053405 6.496399118e-19)
(1.542727164 -0.2589565114 1.689120362e-18)
(1.475142919 -0.2191774637 3.250833331e-18)
(1.414132109 -0.1865795738 4.284483227e-19)
(1.369237212 -0.1602389635 -2.383353114e-18)
(1.326645221 -0.1381449227 -7.876851049e-19)
(1.29506468 -0.1198327475 3.20079809e-18)
(1.263578738 -0.1041942881 6.231843291e-19)
(1.239968907 -0.09088204741 4.57595473e-18)
(1.215294463 -0.07936905455 -1.501608555e-18)
(1.19643699 -0.06926340995 -7.132749397e-19)
(1.175907067 -0.06046279369 -4.498451491e-18)
(1.159749254 -0.05244640813 1.189996831e-18)
(1.14161365 -0.04546080378 3.929353128e-18)
(1.126767097 -0.03880415595 2.324816867e-19)
(1.109810105 -0.03303919419 5.690940106e-19)
(1.095274419 -0.02724369752 2.553414485e-18)
(1.07859718 -0.02228924518 2.409442456e-18)
(1.063604849 -0.01699902908 -1.420854633e-18)
(1.046448665 -0.01254728048 -4.593465427e-18)
(1.030782593 -0.007603713637 2.428578722e-18)
(1.009955198 -0.002752943358 2.618868014e-18)
(1.935992112 -0.3605829429 2.711946798e-18)
(1.780140144 -0.2950551517 -1.29666577e-18)
(1.666386382 -0.244858153 -5.875169109e-19)
(1.568775324 -0.204867561 1.070410164e-18)
(1.49718977 -0.1733972033 2.138346983e-18)
(1.432899995 -0.1476081068 -2.111263699e-18)
(1.385355577 -0.1267693047 1.621473613e-19)
(1.340541176 -0.109290082 -1.47059624e-19)
(1.30711865 -0.09480281007 8.766176126e-19)
(1.274059647 -0.08243077489 -1.758654905e-18)
(1.249110765 -0.07189909654 -1.452197931e-18)
(1.223278239 -0.06279084269 9.655215237e-19)
(1.203404265 -0.05479599222 3.168028128e-19)
(1.181989097 -0.04783359908 -9.467628331e-19)
(1.165024942 -0.04149162569 4.131921285e-18)
(1.146186665 -0.03596516198 -3.13786501e-18)
(1.130670543 -0.03069892078 -3.534939903e-18)
(1.113133657 -0.02613813894 2.142533546e-18)
(1.098015024 -0.02155317499 2.787601385e-19)
(1.080839425 -0.01763361574 3.845557173e-19)
(1.065314977 -0.0134483921 -1.855184976e-18)
(1.047710995 -0.009926547532 3.697712748e-18)
(1.031547694 -0.006015489684 -3.722898672e-18)
(1.01023235 -0.002178037752 -3.388440044e-18)
(1.970891123 -0.2608478296 2.843501658e-18)
(1.808697084 -0.2134445995 -9.187677938e-20)
(1.690085023 -0.1771316648 -3.301631461e-19)
(1.588603511 -0.148202245 7.231068425e-19)
(1.51397209 -0.1254363193 1.220593937e-18)
(1.447186306 -0.10678036 2.907167172e-19)
(1.397625044 -0.09170540816 9.073031937e-19)
(1.351118903 -0.07906083784 -5.204492146e-19)
(1.316294242 -0.06858064099 5.757782533e-19)
(1.282037796 -0.05963063245 -6.108901127e-19)
(1.256069626 -0.05201194441 2.236937669e-18)
(1.229355549 -0.04542298431 1.923738321e-19)
(1.208707816 -0.03963945401 1.097272221e-19)
(1.186618786 -0.03460285424 1.912007016e-18)
(1.169040847 -0.03001503116 1.506200549e-18)
(1.149667683 -0.02601722247 -4.019805187e-19)
(1.133641887 -0.02220759176 -8.328229215e-19)
(1.115663573 -0.01890835927 -4.026127947e-19)
(1.100101198 -0.01559155657 9.445737276e-19)
(1.082546237 -0.01275619378 -8.979868775e-19)
(1.066616736 -0.00972856474 -1.558446086e-18)
(1.048671883 -0.007180932898 -1.35184984e-18)
(1.032130083 -0.004351548328 1.190679659e-18)
(1.010443314 -0.001575713251 -2.683999625e-18)
(1.994403989 -0.1578324028 1.620991328e-18)
(1.827937111 -0.1291498303 4.021151186e-19)
(1.706051825 -0.1071776423 -7.03870131e-19)
(1.601962662 -0.08967316709 1.556444606e-19)
(1.52527911 -0.07589799035 8.9290096e-19)
(1.456811671 -0.06460975499 3.924530116e-19)
(1.405891582 -0.05548824446 6.617684028e-19)
(1.358245645 -0.04783732309 -1.399498609e-19)
(1.3224763 -0.04149601202 1.094713061e-18)
(1.28741308 -0.03608057127 1.917061248e-20)
(1.260758163 -0.03147069762 5.40264803e-19)
(1.233450142 -0.02748388168 6.822923805e-19)
(1.212281087 -0.02398441432 3.091212395e-19)
(1.189738046 -0.02093693381 2.899543946e-19)
(1.17174657 -0.01816096655 1.070747882e-18)
(1.152013036 -0.01574207177 -6.995313645e-20)
(1.135643846 -0.01343697664 -9.823635857e-19)
(1.117368131 -0.01144076706 -5.352479186e-19)
(1.101506787 -0.009433861463 3.08465347e-19)
(1.083696248 -0.007718336249 -1.420198735e-18)
(1.067493849 -0.005886403096 -1.37153754e-19)
(1.049319351 -0.004345004882 -4.43053656e-19)