/*--------------------------------*- C++ -*----------------------------------*\
| =========                 |                                                 |
| \\      /  F ield         | foam-extend: Open Source CFD                    |
|  \\    /   O peration     | Version:  3.0                                   |
|   \\  /    A nd           | Web:         http://www.extend-project.de       |
|    \\/     M anipulation  |                                                 |
\*---------------------------------------------------------------------------*/
FoamFile
{
    version     2.0;
    format      ascii;
    class       volScalarField;
    location    "37";
    object      Theta;
}
// * * * * * * * * * * * * * * * * * * * * * * * * * * * * * * * * * * * * * //

dimensions      [0 2 -2 0 0 0 0];

internalField   nonuniform List<scalar> 
3012
(
-2.50215
1.79402
4.05251
-0.362261
28.4548
10.7209
-22.0979
-4.9868
-2.65263
3.46661
-2.99426
3.45254
1.01646
-0.701336
2.5065
0.825912
-21.792
-25.0099
19.0506
23.9414
1.07909
0.0387209
1.70417
0.951375
3.81143
-1.89569
4.86279
-1.62617
-1.51309
3.84588
-0.121341
2.34417
0.480633
2.82978
-0.864014
1.43531
1.5745
7.78123
-5.97083
-0.445065
0.978785
3.11881
1.13605
-1.01114
1.00188
1.00919
-1.136
3.12294
0.501223
1.29279
0.491336
1.17276
-4.15942
1.72867
1.35109
6.86603
-3.8832
-14.7292
1.15296
12.1567
-15.1495
13.6583
22.8494
-5.6316
0.948538
-1.70034
4.09315
1.40414
1.78677
0.972529
1.08517
0.219173
2.23714
1.04564
0.125167
-0.421439
-0.732502
2.72915
1.7417
0.276512
0.910133
-1.47956
1.146
3.5169
2.85033
0.735191
1.10118
-0.803277
-0.331797
4.00683
-1.71142
2.68321
2.99121
-1.65843
-0.0134666
4.04202
-6.02294
4.09871
-3.67156
6.16591
4.10762
2.07965
0.292929
-1.78862
3.38634
-0.960367
3.18476
-1.07163
2.14245
0.907947
-0.296213
1.07788
-1.03813
3.29993
1.12911
1.15006
2.453
0.0917828
2.36296
0.185674
-0.765209
-0.0978087
0.943305
2.59503
5.5086
-9.72466
7.07944
-8.30938
29.0833
-31.447
3.65008
-4.90032
-3.86732
2.55141
11.7722
4.54222
-16.2004
12.6167
25.1427
-7.57329
9.3964
-2.17379
-5.41828
5.10238
7.00235
9.4247
-4.5599
-3.18678
5.31382
-25.5788
-5.99465
22.5615
0.236582
-0.637031
1.74543
2.73402
2.46139
3.50551
-1.32478
-0.228501
2.51779
-0.398607
1.95246
0.108638
-1.63154
-8.33591
3.73542
10.6034
0.465352
3.0178
-1.08687
1.42539
9.76409
9.97623
-9.34822
-10.4202
-7.99634
11.5453
17.324
-10.8278
-8.6561
4.1382
8.71275
-3.7003
3.43138
-1.60043
-1.12922
4.1275
-0.161412
2.6401
2.12802
-0.743707
2.3234
-0.213848
2.0653
0.00447881
2.12761
3.10405
-1.01862
0.024583
0.875224
-0.454781
0.788992
2.09308
1.19803
4.50593
-2.11743
1.35288
1.39826
1.17395
1.18153
0.3091
1.14034
1.76045
-0.0750029
0.99189
3.07091
1.35479
0.498157
-1.06733
0.178375
1.05754
0.889229
0.352967
0.156008
-0.261334
1.38392
1.94896
0.927272
1.92822
0.992905
-0.438665
0.993131
-0.133385
1.35407
0.145304
2.88678
2.26863
-0.408396
-1.09369
2.33039
-0.928472
3.15742
-0.107243
-0.27388
3.26459
2.53007
-0.818788
1.60035
-1.72853
0.610829
3.99182
-1.89644
4.15533
3.82341
-1.45649
5.93753
2.02928
-1.78609
1.24506
1.21961
2.19055
-0.0427125
-0.682508
0.705216
-0.0509987
0.631037
1.5985
2.14637
-0.470561
-1.03655
2.76599
1.3184
4.16602
0.990822
-1.8341
1.54716
-1.20667
3.21115
0.374686
-5.3834
2.47603
0.325519
8.52452
0.896969
1.49298
0.18629
1.04596
19.5327
-18.0071
-22.4898
15.6141
-20.0382
26.6982
7.1584
-1.41418
-0.456154
-1.94948
2.78191
4.30975
3.01613
-0.696105
-1.71137
4.2714
2.0142
-1.3187
3.41341
-0.131958
-0.891991
-1.22727
1.49885
0.815572
5.58134
-1.38107
-3.91738
2.60167
3.30157
3.69586
-1.10988
-0.779948
0.489037
1.38712
0.388555
1.40987
0.00390006
-0.8661
2.07638
3.05194
-4.32988
-0.46725
3.45542
8.9159
2.5048
0.372781
1.6418
-0.544751
2.01649
0.0610655
2.18249
-0.174379
1.19716
0.633165
1.38603
0.172424
-0.21931
3.51085
-1.27006
2.07053
1.1199
3.49672
1.24101
-1.1379
0.787451
1.88499
-0.20907
0.0450972
0.770067
0.241045
1.83054
1.19142
-0.637831
2.53538
2.8274
-0.369843
0.169425
3.28637
-1.18039
1.92482
0.122417
2.37057
-1.69801
0.801886
-2.97897
3.94304
6.31437
-0.241249
1.96676
2.06592
-0.261124
-0.172266
-0.401035
0.510949
0.883963
1.68881
-0.0908712
-1.46488
3.62642
2.11698
4.03838
-1.94186
-1.14072
5.19175
3.20854
-1.95625
-2.18504
2.75791
-1.11532
2.35427
-0.239316
3.23359
2.336
-1.00358
-0.833342
1.95684
0.907374
-1.15418
1.4116
3.37952
-2.52468
-4.7946
10.1159
9.3003
1.68495
-3.05901
1.3973
6.39806
-12.6614
8.85256
-11.3003
9.75838
-0.941313
-0.533509
3.46358
2.86049
1.56814
-0.293731
0.693773
1.79343
-0.25758
2.49333
0.753377
0.997837
-1.55665
-0.118382
2.34481
3.84023
-2.09631
1.3584
3.84874
0.184564
-2.61938
2.6242
4.53664
-0.490611
-0.103693
-0.210952
1.81207
-0.113145
5.98769
0.494492
-3.72676
1.44707
1.25301
1.28831
1.32685
0.685908
-33.4939
6.0059
-9.33343
31.0594
5.58977
2.29432
0.345384
-2.63628
1.21424
1.11201
0.566607
0.507121
10.7325
9.18375
-5.15373
-4.85721
2.73637
5.41975
-2.32258
-0.180941
1.83868
0.30646
0.18881
1.58698
-1.4798
-2.24151
4.93863
4.18947
0.974964
-1.5357
0.876593
3.60287
-22.3847
11.9743
-12.7862
23.2159
1.82934
2.05779
-0.418718
-0.243829
0.804219
-0.709465
1.073
2.62364
-0.643625
2.36421
1.88951
-1.11797
0.253686
3.31789
-1.0271
1.71179
-24.4762
-23.4335
19.6247
21.9649
0.0114833
2.91033
2.38107
-0.678277
5.74976
0.0579714
3.20306
-2.8264
-0.318411
2.47657
-0.365636
2.48901
-0.0428601
2.16811
-0.177425
1.94873
2.94705
0.552728
-1.1109
1.46995
24.4749
-23.5317
-5.50447
6.39098
4.35516
3.39132
-1.84846
-1.0704
4.46616
0.581678
1.74078
-2.24522
0.206805
2.40045
-2.77858
5.51405
0.954901
-1.13612
3.11266
1.32843
2.35401
2.76102
-0.780425
-0.439513
0.533786
1.84043
-2.32518
4.81442
0.0265243
2.19074
-0.958319
3.02889
0.146332
-1.05018
1.34528
2.54871
1.0555
-0.279666
0.0545968
2.08892
3.58971
2.51215
-0.387512
-1.49896
1.19632
-0.524692
0.336208
2.23135
0.260101
0.981348
1.03439
1.72185
-19.2218
30.239
-32.8968
16.4018
0.68371
1.97145
-2.38301
5.16534
3.91836
2.21184
-1.69214
0.13974
-0.385576
5.74891
-2.17277
4.7056
-15.9465
20.5388
-10.4077
13.7308
5.98929
-20.2636
-0.776521
26.2277
-1.98042
2.11816
3.64904
-0.567161
-0.353367
3.3373
2.31143
-1.13791
-4.00496
3.75305
-1.68067
6.16902
1.43687
-0.815627
0.230576
2.96071
0.187275
1.56641
0.456218
1.14524
-3.01949
2.55188
3.92514
-1.59652
1.59731
2.84484
-0.837123
0.912079
1.11963
0.946469
0.489574
0.907929
2.72155
0.0441102
1.58187
-1.12743
17.0848
-0.315531
7.3182
-10.2662
-2.74804
3.65948
-0.474352
5.57068
-2.90228
-3.99984
6.09038
7.87026
-5.45192
6.44659
-3.4616
11.007
3.45745
-15.5308
12.4516
-5.33229
13.1981
-1.93747
8.5249
-5.01079
-5.43885
5.84809
4.63569
-4.18484
1.29857
1.38745
0.123208
0.206449
-0.420517
5.32618
-2.64727
3.10876
-24.2385
-3.73323
24.039
4.28749
-1.56087
3.60111
-0.379309
2.44389
5.55827
-2.7376
3.1317
-0.329996
0.697448
1.31478
1.0356
0.71869
4.48628
2.1367
-1.99982
0.305276
1.39908
0.0921711
0.222963
0.517238
-17.5965
-20.3336
18.2103
20.5439
2.12231
4.10343
-1.61162
0.18298
3.62263
-1.14769
-0.813872
3.63434
2.90835
0.617878
1.52416
-0.380785
3.44366
2.86857
-1.1591
-0.747591
1.81321
-1.13873
0.59396
3.60795
0.404062
2.21609
1.68068
-0.330705
-11.381
15.0573
12.4993
-14.781
0.4522
3.96019
1.12034
-2.72294
-2.87263
2.80305
5.21979
-0.171483
-2.28649
-4.03821
2.99327
4.94881
2.21757
-6.3737
9.10122
0.376712
0.113409
-2.87886
4.42365
1.87941
0.727532
3.2541
7.48086
-3.99305
2.13508
-0.0662165
2.53814
-0.305682
2.70335
2.11179
-0.218099
-0.7442
-1.88386
1.61666
6.42591
1.84021
1.83215
-0.324242
-0.558584
2.04298
-2.41812
3.16385
5.80347
-0.213275
2.91864
0.0904909
1.67722
-0.958699
4.87671
0.450941
2.27433
-2.27703
3.77934
1.18982
-2.06255
0.767342
0.0789996
2.15279
-1.99245
4.24729
-0.42797
0.619378
2.63113
1.43207
1.47917
1.74757
2.7482
-0.354064
3.90255
-1.00964
-1.43297
3.34861
2.19599
-1.26765
2.6069
-0.723617
0.876811
4.6333
1.50826
-2.16946
-1.2992
3.19765
2.56832
-0.59939
3.14395
-1.24732
1.35676
0.332415
-1.11004
3.08338
3.29062
-0.752701
0.805446
1.53491
3.38035
-1.17601
-0.455906
0.152315
2.40373
2.13695
0.683347
1.25798
-14.3982
16.0133
-0.419856
3.15949
2.27836
-1.08492
-4.46514
5.29902
6.34747
-5.71867
3.56707
-10.4173
-2.73917
10.4252
2.77863
0.652543
-0.549755
1.32894
10.6588
2.87474
-3.51236
3.82728
2.50027
0.671255
2.52848
6.76696
-0.232706
9.23132
2.43372
-7.58863
-2.82983
3.50133
5.34738
-1.01202
0.865336
0.46764
0.834363
1.18554
1.11604
0.669348
0.991573
0.507683
-5.7582
0.934475
5.92087
-0.423737
2.47794
1.84782
-0.575433
0.325599
1.61775
-0.310653
0.035292
2.01402
-2.5006
0.108472
6.80896
8.79405
1.48602
-3.87761
1.57771
7.21426
-1.94855
3.11527
4.71482
-0.499583
-3.67948
6.8201
-0.624854
3.98794
3.11355
2.01316
0.0710526
-0.941503
-0.573949
2.93525
-0.66898
3.00655
1.50668
-3.88276
0.199813
5.71446
2.69533
-0.0970488
-0.852498
1.61335
1.07742
-1.19673
3.41961
0.865696
4.49792
-2.23422
0.853241
1.33731
-1.32658
0.800181
0.308183
2.36979
2.94537
-0.780807
-0.707827
2.85056
1.52264
0.643308
3.30587
-1.0404
0.0248331
-0.973942
2.59752
1.52481
0.381903
1.5508
2.23875
-0.28781
1.24877
-0.358504
1.06906
2.48237
-2.41091
3.97698
-1.86599
4.4971
2.98694
1.0841
0.535369
-1.1653
-1.32617
3.40757
2.74156
-0.61185
2.03774
-0.818182
-0.241115
2.54057
-0.624622
2.77416
-0.0411749
1.91166
3.68982
-1.59377
-1.45519
3.7663
3.09634
-2.27342
-0.48835
4.89353
1.8697
-1.30612
0.194357
3.53195
3.25031
2.10418
0.0680205
-1.1199
-0.75945
2.90642
1.28942
0.983106
3.77013
2.19336
-0.112252
-1.75184
10.6429
1.94785
-5.3052
2.25802
-0.729686
0.699266
-10.7243
10.6146
5.06389
0.618001
1.71788
-2.78628
1.09172
2.20265
0.581333
-0.486544
0.817619
-0.411525
2.30832
0.938148
1.42355
-0.879326
3.07806
0.65192
-4.33405
5.74184
4.02267
-2.56826
4.36561
-6.39219
-10.8906
8.94868
1.11812
2.1114
0.640109
-0.352344
1.08563
-1.39455
1.24207
3.657
0.43284
2.5121
1.53761
-0.475111
-1.17544
2.2338
3.51393
-0.0340958
-0.42246
2.79894
2.28509
-1.05088
-0.192264
2.24989
-0.102316
2.06756
18.5784
-10.4669
-4.96284
10.6146
-1.18662
0.165952
3.49182
2.1217
2.67636
-0.251355
-0.429498
2.42626
3.80098
-1.53503
3.22723
-1.26457
3.11745
-0.607577
2.93716
-0.626102
2.62935
1.29781
-0.652987
0.653789
1.10653
3.34654
1.10806
-1.12499
4.17658
-1.69864
0.407262
2.24288
3.34591
-1.00463
2.56289
-0.302877
-0.0131071
1.1387
0.661231
1.81149
1.17609
3.9676
1.19554
-1.64677
3.54834
-1.38645
0.542798
1.59897
3.2686
-0.904478
4.31798
-1.95968
-3.61392
-2.95514
4.21942
4.90973
-0.577763
3.79738
2.83051
-1.55406
-0.151686
2.19038
1.64159
0.248214
-0.190509
2.26601
0.86827
1.16726
-0.514821
3.59654
-1.77995
5.56533
0.450663
2.17568
1.35279
-0.276141
2.99853
-0.774069
2.52711
-0.209757
5.52675
3.32006
-3.27035
-0.985236
4.30459
3.18306
-2.04633
-0.978242
-4.14952
11.3898
-13.079
1.87298
3.43234
1.62063
0.547295
-1.17023
0.422282
0.48421
0.640937
0.614846
0.373176
0.299071
0.97816
1.20379
0.589194
0.303126
0.281604
0.676487
1.16147
-1.50699
1.10311
3.8309
-0.922746
0.348987
0.596711
1.90328
1.59092
-0.0612058
-0.74661
0.855535
1.58812
0.333127
2.72657
-0.738309
-6.52468
3.05734
7.04516
-2.09827
2.70093
-3.29573
8.32309
-8.34928
1.9231
0.590536
1.13387
-0.108748
5.42978
0.0298862
3.51202
-2.62715
0.227275
1.64327
0.308942
1.32505
0.455663
3.02126
1.7336
-0.930715
0.80548
1.11846
0.691767
0.922774
2.96476
1.4007
0.821746
-0.986577
1.56654
0.525419
0.274204
0.982782
-0.58509
-2.38339
3.24288
5.15357
3.37643
-2.22243
3.50266
-2.08756
1.50824
0.748234
0.281252
1.06552
1.33033
5.46201
1.32282
-2.77815
1.82756
-0.699579
-0.00826571
2.63847
2.215
-1.82883
0.708546
5.12042
-1.61931
-0.687551
4.18419
5.76464
-0.519325
2.39752
0.652278
1.47253
2.19259
-0.0378255
2.05736
-0.0706342
5.14129
-0.837988
4.31333
-1.24769
2.82696
4.95692
-4.24132
-6.77674
4.75853
-2.32464
2.74213
-0.354634
2.00294
-0.762168
0.142733
2.71515
3.09132
0.637987
1.73777
-0.868503
2.5181
0.531418
1.45392
-0.641629
2.17697
0.0883539
-0.177271
1.96554
-1.22843
2.05676
3.62916
0.283728
-17.4896
16.9334
16.1021
-18.1378
3.40655
-0.557926
-1.33857
2.95014
1.98842
-2.3995
-0.791197
3.46179
0.743401
0.91207
1.03649
0.654899
-0.55707
1.02164
-1.44388
2.11177
4.57981
-1.42458
-1.7239
4.56373
-0.085005
2.7239
-0.651667
2.10539
5.3951
0.36841
2.21787
-2.68647
0.146103
1.64015
0.198487
1.31931
2.99766
-0.643849
-2.05116
1.76068
1.76828
-0.819058
2.70181
0.142096
-1.85397
4.18475
-0.476273
2.78429
0.247957
1.35999
0.116185
1.32695
-1.35861
4.79161
-2.02732
4.22309
1.56854
0.637207
1.22344
0.376727
0.177597
1.92482
2.52536
-0.584095
1.29792
1.84906
0.601254
0.0876346
-0.971344
1.01516
0.680912
2.89506
-0.76888
-1.61099
4.04071
3.09982
-0.119813
-0.123643
1.48058
1.59839
0.0526535
1.20551
1.51426
0.332302
2.02979
-0.199712
0.315317
0.969039
-1.77155
0.558672
0.0486628
2.48611
2.75703
5.32989
-2.2008
0.484507
19.1172
-12.4311
11.3042
-6.16666
2.25301
0.83876
-0.381572
0.516625
10.5726
-19.8861
26.7697
-4.5033
-5.03217
-1.0031
9.04584
4.89335
3.02823
-2.54785
-0.128035
5.08526
1.36368
0.284326
-1.00219
2.69952
1.04354
1.04618
-0.458471
2.61258
0.00873495
1.47028
1.92409
-0.250737
0.589065
0.448598
1.43368
1.25792
1.55842
0.843543
0.143909
0.884804
1.99005
0.0824491
5.26587
-1.98088
1.62401
1.94502
-0.0610944
-0.264483
3.3093
-1.03552
-0.915674
3.38252
9.20894
21.3853
-14.9811
-3.39264
-2.12827
3.58453
3.83117
-2.33196
-22.9557
11.1909
20.5678
-15.2837
5.00984
2.54432
1.88495
7.31146
3.06543
-0.697317
2.76759
-0.810285
0.267557
-2.44661
2.72832
5.26919
1.75749
-1.26305
2.34994
-0.645507
1.70638
-0.761523
2.85633
0.559651
-1.14055
3.47937
0.40315
1.82231
0.115528
1.31424
0.440687
1.19891
-1.49951
4.36212
-1.88987
4.53834
0.017961
0.492006
1.31964
1.0767
-1.9069
4.00656
-1.4721
4.64168
1.97769
-0.583734
2.56827
0.146641
1.99159
-1.90077
4.33974
0.305899
3.353
3.77967
-1.14478
-1.51528
-0.395169
0.604398
2.48796
1.41195
0.917962
0.479362
-0.836031
2.27534
4.84166
1.96411
-2.92199
0.244782
3.17103
1.33742
-1.09092
0.720382
2.50162
-1.96542
3.3669
-0.800465
5.71833
-4.39438
0.0722218
1.24927
3.47415
0.607557
1.58591
-1.50681
1.55854
-0.668618
-2.26715
3.37419
0.196939
-0.225345
1.83072
2.30593
-23.1279
-3.91521
20.3531
2.73036
2.63342
-0.476777
2.12826
-0.0706131
1.00386
0.665459
1.81371
-0.0468048
0.335918
0.0585337
1.4354
1.6929
0.900717
-0.44306
2.60589
1.14447
1.95364
0.314998
2.54814
-0.449775
0.382684
0.739615
1.27435
1.32018
-21.4868
16.0535
-13.0948
21.9807
0.415507
0.322596
1.32016
1.09369
1.4466
-0.0959256
-0.181299
1.86344
1.43862
0.253029
1.69858
0.738349
0.204514
0.565773
1.30906
0.805239
0.32735
2.01447
1.82795
0.16287
-0.182811
1.39242
2.1239
0.418163
-0.752001
2.35907
3.07261
-0.198286
0.465786
0.330722
0.855725
1.07093
1.07081
0.810699
2.89381
-0.767511
-1.6664
-2.27349
6.28828
6.69842
-0.63512
-0.129828
2.25665
2.7456
0.985575
-2.14746
4.73974
1.18357
-1.31523
0.193374
2.0159
3.37508
-0.0857103
1.85153
0.232612
1.11214
-0.971274
3.16094
0.807348
1.53836
1.81131
-0.163477
0.787577
0.654877
-0.394051
2.91056
-1.12633
2.10372
1.77101
-0.000202693
-1.10874
2.99848
-0.476525
3.44501
-0.991009
2.81251
-2.28724
0.854378
1.61775
4.7857
-5.4445
-24.7822
5.93248
26.3862
0.124843
-0.138505
5.12858
4.83014
3.89122
-1.7093
-0.290589
2.14775
5.3184
2.39007
0.669567
-2.68974
3.16153
3.6292
-0.932413
-1.43884
-1.02918
2.85633
2.34657
5.67017
2.97596
-3.42732
5.08646
-1.49777
0.215004
2.58615
-2.16646
5.40088
-0.827738
-0.452209
2.75286
0.760017
1.88946
0.698059
1.29632
0.202711
-1.6068
1.40713
-0.588766
2.26475
-2.64627
1.7276
1.17196
6.06688
-0.627046
2.29624
0.775815
0.874885
3.39184
2.96303
-1.28704
-1.00938
-0.82672
3.11123
1.95085
0.408852
1.85321
-4.14368
-0.541357
5.44786
-1.48903
-0.533092
3.55272
2.88864
2.43537
-0.0973749
2.06178
-0.439867
2.25805
-0.713996
2.86257
-0.492207
-0.589377
1.7287
0.694254
2.92292
1.78838
-0.75828
0.210882
2.73611
3.66265
-1.56688
0.508792
1.53909
5.2858
-1.57699
-1.48319
4.88686
-0.313296
-0.370428
2.31283
2.44821
1.64478
-0.717762
2.86347
0.350004
-1.1503
1.80885
3.57641
0.482618
-1.01846
-2.11654
3.32801
4.50589
-1.01705
0.998605
3.25312
1.14799
1.83216
-1.07516
1.30632
-1.33786
-0.617211
-2.33245
4.50183
5.65627
1.89033
0.929235
-3.0374
5.94911
1.17201
-0.256397
2.36965
-0.221232
3.47897
-1.40325
3.57249
-1.59399
-0.164044
1.14371
2.1115
0.746631
4.19278
-2.1355
1.40927
0.439629
3.54565
-1.44448
1.93908
0.524773
-5.3528
-4.58663
7.03238
6.06522
4.34999
-2.13177
1.53116
0.595452
0.377725
-1.86352
3.21001
1.29159
-3.42897
7.60602
-4.55162
6.34569
-0.608712
3.73895
-1.62916
2.31265
2.35327
5.40462
-2.39871
0.435576
-1.74175
4.09235
1.31781
0.792248
-13.1994
7.77213
-9.04412
13.3733
2.48184
0.948068
0.955307
-0.446501
-0.250291
1.68756
2.2662
0.39801
0.441931
0.50792
1.31444
1.19078
0.906708
0.935721
1.79039
0.0303489
3.03517
-1.75411
2.1371
-1.12573
-0.0425136
2.15791
3.14165
-0.871643
-2.03982
4.12671
2.43845
0.0967032
-1.043
3.14404
2.25741
-0.295263
1.01298
1.91426
-0.165154
0.732796
-0.590963
1.6672
3.34342
-2.15824
2.75259
-0.459837
4.87872
1.9557
2.63595
-0.647173
2.77951
-0.478216
0.173714
3.07633
1.66418
-0.579027
1.67099
1.02263
0.571056
3.50864
-0.902998
1.90186
0.520148
3.17178
2.48432
0.826928
-0.563751
1.49856
-0.118633
2.05285
-0.0225921
2.34355
0.481052
-0.718196
1.59348
2.79095
3.35477
-1.54853
0.606046
0.994571
2.13736
-0.0550131
0.574404
1.33677
-0.425437
-0.784419
2.90305
2.56022
1.96516
0.258531
0.125448
1.84154
4.24591
-2.76704
3.6835
-3.20889
2.23074
3.10011
-0.00857035
-1.06938
6.32105
0.538233
3.14298
-1.36442
2.18414
-0.425144
-5.05734
6.49489
-2.2431
2.82671
-0.654563
4.6588
-0.756746
2.92513
2.71821
-1.02636
3.66794
1.30501
0.625671
-1.77718
1.29039
3.1255
-1.3006
0.397423
-6.13239
3.22054
-1.8784
7.63512
2.84441
-1.78922
4.90232
-0.292499
5.68168
1.18854
1.59026
-2.75938
-3.905
1.90322
1.39531
7.12255
1.74854
-0.00928831
5.10888
3.15149
0.207989
2.60441
1.38723
-1.00484
1.4199
-2.03322
3.72125
0.237683
-0.664718
1.09214
2.81818
1.02798
3.20108
-0.313009
2.59354
-0.972641
-1.35429
1.42522
3.62024
0.773455
0.386486
2.59115
-0.506109
1.8345
0.473167
1.94254
-0.0278739
1.83811
-3.01812
10.9976
4.86516
-8.49312
0.558092
1.9353
1.39871
0.0203529
0.488799
0.270549
1.48599
1.70279
0.326584
1.68844
2.55715
-0.502131
-0.140728
2.08173
2.17305
-0.0150215
1.88641
1.83564
-0.130877
-0.139474
1.40507
-0.55832
2.2803
0.346951
-0.313441
2.15339
2.30102
-0.219555
-3.29668
2.8615
0.272716
6.50859
5.88411
-1.3478
5.45212
-2.26836
3.45014
-0.627419
0.963596
-2.83796
1.61216
0.10464
-1.50482
3.47188
0.782517
0.269599
1.51891
0.858076
0.563042
1.42232
1.29051
0.395987
2.4936
1.30572
0.197566
-0.926424
-1.33441
5.98003
-2.73573
4.81459
-0.0907523
2.17577
3.22608
-1.24111
0.12212
0.0902908
5.58612
-4.67703
2.83691
1.46948
6.52812
-2.31725
-2.8671
2.70674
0.69495
6.415
-1.11441
1.58697
3.37273
-2.82732
-13.9304
24.4127
11.606
-26.8726
-1.13004
4.22362
4.08113
7.56941
-0.970755
3.31949
3.45108
-1.19926
0.641981
4.63965
0.125958
-3.47236
-1.25118
3.23184
1.33098
0.449813
3.00415
-3.46372
5.03931
-1.77312
3.84205
-0.881402
-2.11315
2.19019
2.76389
-0.524073
2.23467
-1.14528
3.0438
1.63312
-0.969423
0.428002
2.568
-0.623005
-0.984056
3.08918
0.873984
-5.88345
5.95064
-1.0273
1.29604
-0.366623
0.713526
2.22248
-0.227421
1.69009
-0.283472
1.49724
-0.714301
0.928824
0.410353
1.93361
0.0246972
-0.313852
2.32885
2.52001
-0.0395093
1.95126
2.15357
0.0473059
1.67656
2.61303
-0.545117
0.271171
4.83044
-2.50305
1.08741
1.18593
-5.63648
-10.3213
10.3551
5.80593
0.0114835
-1.70048
4.12698
2.35867
0.321952
3.71406
2.52861
-1.37235
-4.96431
5.07186
-4.5425
5.75432
2.04735
1.2177
-0.421708
1.05182
2.1632
-0.0986864
0.479459
1.60177
-1.50545
3.25461
-2.1473
2.63924
0.836246
15.3406
3.27936
-10.4354
-20.4609
5.70657
-4.52918
20.8087
-1.46635
-1.01349
2.68809
3.26133
5.08748
0.519123
2.25805
-1.69993
0.85733
-3.34092
6.53632
2.22763
8.26098
-0.888716
1.94768
-7.4417
3.6428
-4.44129
-3.30914
5.00382
-0.90404
1.83464
2.88678
0.0427541
0.818667
0.652681
0.18353
1.45762
0.0487031
2.54911
1.82637
-0.491904
4.12402
1.5136
0.346496
-2.42051
-0.314924
2.48173
-0.227803
2.54463
0.903721
-0.542539
1.24561
2.56398
2.39777
-1.42563
3.43623
-0.462704
3.48283
-1.56132
4.05742
-1.10023
0.32292
2.16033
1.49919
-0.304704
-27.887
9.34973
-11.9357
26.1703
2.2848
-0.310725
2.25083
-0.220325
0.30884
3.52447
-1.76332
1.5137
2.70711
-0.523693
1.39658
0.773817
7.33164
3.54907
-3.36121
0.486673
0.869948
-0.177816
2.13635
1.11968
1.95309
0.20141
0.0554407
1.56639
1.97121
-0.937245
2.97717
0.019902
2.84611
-0.92006
2.16373
-0.258525
-9.64861
12.304
15.2692
-3.90507
-2.3779
4.03424
-0.904269
2.71715
5.24687
-1.94521
3.75284
-1.01054
5.41973
1.01116
-3.48405
1.5487
2.27461
-3.82528
-0.878684
5.43542
-6.57285
-25.1217
4.87693
21.9675
-2.08521
2.14019
4.16879
0.338932
-3.62946
-3.16213
4.39749
3.97531
-4.60016
-0.58477
3.44298
8.67054
1.60873
0.322593
1.40526
0.391662
-4.37717
4.32281
-4.19355
3.94849
-1.24391
2.60699
2.40143
-0.889237
0.671953
0.307756
1.4453
0.844965
0.433201
-1.94851
4.44226
2.01879
-1.12206
3.97548
3.2519
-1.56484
-2.90988
3.14907
-0.915676
4.96154
2.6824
3.57705
-0.501497
-1.41571
3.07829
3.65217
-0.866589
-1.26284
-0.137887
3.81864
-1.84832
1.95984
1.70826
0.0249545
0.821094
1.11092
0.0857949
-1.56038
3.92966
2.06314
-2.58918
1.3288
1.08221
4.55359
-1.27981
-0.86647
3.57882
3.86328
8.42775
0.33567
3.13027
-3.91852
2.34219
4.19071
-1.87789
0.269703
2.62834
1.87529
0.0199175
-0.677233
0.574366
1.04854
3.06641
-1.29803
-0.615979
2.25628
2.8577
-0.172259
-0.582446
2.63726
2.80683
-0.299707
2.12241
26.6031
4.39239
-19.7665
3.23053
0.0271895
1.90312
-1.34628
3.10606
-2.86521
5.81265
-0.878503
0.606696
4.27156
1.5142
-1.83164
-0.751456
5.92686
-2.641
3.751
0.453418
1.29504
0.529887
1.4523
1.64419
0.148242
1.07723
0.666727
-1.70165
1.76408
-1.73126
2.06936
5.4332
-1.30853
4.78889
-1.26555
4.14891
-1.87407
-0.225123
2.54559
4.78689
1.35514
-4.06452
-1.02269
4.96789
-0.817844
-2.37238
3.20692
2.68243
6.43149
-1.52939
-4.2004
-1.88917
1.90636
3.85046
-0.0257894
7.01415
-5.08876
-1.7657
3.91902
0.186515
3.64031
-1.64034
1.62889
2.70846
-1.50529
-4.78717
5.96438
-2.59624
1.31838
6.15852
2.05637
12.7218
-17.1961
-12.2507
18.3627
-0.738596
11.3132
5.72431
-1.45682
2.46654
-0.3236
2.03774
-0.649554
2.7653
1.39254
-0.744206
0.525243
1.76036
4.24602
-3.63297
-1.36085
4.37202
4.98695
-0.97479
-0.725783
-0.444731
3.59373
-2.14476
1.76891
2.5581
5.35437
0.580327
-2.38423
5.89602
-0.3832
1.98386
-3.83736
-4.66344
3.14979
6.34256
-1.54028
3.5236
1.7627
0.537008
-1.57941
0.349676
2.59726
1.8021
-0.461817
-0.31767
1.97237
0.169903
2.48302
6.05348
1.09222
2.63088
-2.3167
17.2687
-24.1366
21.877
-19.693
0.855526
-1.13934
3.50632
1.52449
1.73378
0.164903
2.30775
-0.128326
2.62842
1.40867
0.990177
-0.417876
-0.635921
2.96131
2.89761
-0.687973
1.89724
-1.53346
0.279884
3.67192
0.376798
1.20769
-1.29578
3.28551
-0.892243
0.554089
3.02969
1.58958
1.82563
0.547002
0.066182
1.82446
1.85021
-0.00112634
1.97847
0.09243
2.49846
-0.00917377
-0.375286
2.13831
-1.17583
4.35822
3.42575
-1.91527
2.87685
2.13008
-1.1596
-2.25651
-24.824
9.58716
-8.4958
25.4637
2.20211
-2.40113
4.50143
0.058856
0.532505
1.26376
-1.59268
3.63695
0.357574
-1.27831
3.37423
1.834
1.66811
0.525185
-1.74637
3.97025
-0.488594
1.07054
2.59769
0.525405
-1.01345
3.01802
1.45362
0.524671
3.64214
-1.51449
0.807261
1.5474
1.35845
-0.222484
3.47086
-2.42797
-1.26471
0.45941
1.94495
3.48003
-1.80917
2.8431
-0.581452
4.18113
2.70888
-0.71091
3.15989
-1.00317
2.88588
-0.0299339
-0.758115
2.04048
0.514242
2.1445
-2.89424
5.6552
8.32279
1.69408
-5.83336
1.4018
5.88023
-3.16431
4.84039
-3.99431
-2.31967
-1.19413
4.92269
3.89499
-1.55422
3.64569
2.76337
-0.628353
4.63981
15.2009
-10.4392
-0.426558
5.31571
7.77748
-2.72419
-3.85456
-5.02535
4.78909
6.03836
-4.38059
0.0371074
0.118233
1.92922
1.85037
-0.44454
2.31667
1.44383
0.450832
0.257151
1.87217
4.11692
-1.84245
-2.53157
1.09624
5.18111
1.66003
-2.88208
-0.361313
3.06648
5.61679
-2.50012
2.62717
4.31523
-1.01764
2.18673
3.8546
-0.105467
-1.78264
4.72342
1.16964
1.21788
-2.33754
2.17983
-3.71994
3.29366
9.29613
-1.03353
0.727224
3.03511
1.24035
2.06277
2.325
-0.336549
0.0991834
-0.821028
2.79971
1.2392
0.551367
3.88667
-2.31922
-2.89304
3.06149
-1.4175
-0.198776
1.91372
3.31007
1.95387
-0.208891
-0.301923
1.93937
0.418159
2.21619
-0.312626
1.61919
5.15781
1.20366
2.11825
-2.06016
2.00409
0.822781
-0.0769126
1.03981
-0.463847
1.68136
2.45224
0.178027
-19.1839
-17.7002
14.4812
17.6211
0.749329
-0.343854
2.05805
0.914506
-1.73027
0.489434
1.70084
4.17192
-1.33794
2.97399
-0.755029
3.4417
-1.57723
3.05435
4.3811
-0.57955
4.53009
-2.66057
-2.76069
4.59399
5.90864
-0.498404
-2.24713
3.45195
6.01364
0.792717
2.33093
-2.21796
3.07164
-1.1946
3.63527
-0.707497
0.492523
1.34223
2.7104
-0.742768
1.4356
-0.429215
0.52311
2.44159
1.68753
2.40596
-0.295402
-0.446653
1.63657
0.295808
0.0668338
1.43331
1.96185
-4.57726
-0.523668
6.84551
0.274867
0.691137
1.02493
1.38556
1.10063
0.745931
0.0951614
0.445168
4.61562
-1.74722
-2.55084
5.46492
0.223489
0.782477
1.07306
0.446403
6.40338
0.169383
2.69783
-3.48081
-27.2693
2.0117
24.2634
-4.5881
-0.0897749
2.38025
2.02613
-0.411505
4.44333
3.49232
-1.67171
-0.0996278
2.50429
-0.518356
0.115835
1.85994
2.97184
0.466601
1.32488
-1.039
0.888067
3.28412
0.675917
-1.56835
4.93595
0.0690648
-2.45763
2.39874
7.90862
1.96419
0.455449
-4.36113
4.09791
-1.58313
3.84658
-1.5287
2.76647
-4.05292
-0.670694
5.89366
2.5196
1.32979
-0.480179
0.843208
2.54613
0.157566
-1.06852
1.33934
1.08786
-1.82312
3.22458
0.499133
-2.663
3.45397
3.46578
-2.07393
4.33071
-0.993695
3.40156
-1.78261
-1.76294
4.0435
1.9358
0.197915
4.1669
-2.0595
1.38078
0.715951
0.87797
2.03858
-0.4593
0.800333
5.29433
3.64256
-0.615501
-1.73006
-2.03817
0.428613
1.76404
4.34824
3.7765
-1.38809
-0.867845
3.0675
0.0553083
-4.05555
7.05891
2.2573
0.622362
1.3306
2.6654
-0.697965
-3.80402
4.92551
4.24984
-4.36873
0.559583
0.767304
1.18443
0.639052
0.03535
1.25565
1.76866
0.543972
-0.0412043
2.33027
-2.28805
4.52432
0.748954
1.09985
-0.771479
2.6558
-7.09271
5.29463
9.42089
-1.59503
6.47332
-5.40573
9.10542
-2.3081
2.98778
5.02174
-0.409843
-2.52627
6.14211
-0.111376
1.24228
-4.35771
9.08834
-5.21578
2.3005
1.03089
2.67357
2.44368
-1.36531
-0.796375
-2.65967
6.67107
4.15637
-5.40584
4.86771
-3.17281
-1.35125
7.28952
-1.18122
-1.46466
3.53581
3.85748
4.49457
-1.98942
-1.3516
3.87749
3.25218
-1.93405
-1.30403
3.79502
0.690638
0.734774
1.28276
0.053976
1.31084
1.01393
0.497389
0.264922
-0.0512512
2.17876
-1.41683
3.73951
-0.891224
3.12371
-0.67891
2.89077
-3.96011
-3.62474
4.75904
4.67171
2.29412
-0.0316965
-0.491491
1.68087
2.53133
0.556782
1.59403
-0.496638
2.28293
-0.379637
1.68155
0.223431
2.03958
-0.242978
2.27255
-0.490963
3.50878
-1.23439
3.06431
-1.5964
5.68378
-1.32582
4.70608
-2.91917
-6.38681
8.16326
-5.81443
6.46901
0.377438
1.86896
-2.6872
5.13877
)
;

boundaryField
{
    insideCircle
    {
        type            myTemperature;
        value           nonuniform List<scalar> 
24
(
5.00985
2.15982
1.25213
7.57138
-2.6853
-1.00544
6.89077
5.55428
0.358777
-0.536597
5.24895
4.81705
-1.08718
2.38793
2.97036
6.04683
3.31567
0.0817366
5.55841
1.96225
1.7298
-0.0953781
5.2255
3.28498
)
;
    }
    outsideCircle
    {
        type            myTemperature;
        value           nonuniform List<scalar> 
124
(
2.453
0.318973
1.63105
-0.295576
0.649811
1.60073
2.0258
1.7519
1.25447
0.293675
0.435097
2.43243
-0.0896407
1.88936
1.16921
1.20012
2.24678
1.01971
1.27962
-0.719488
-0.447151
0.690824
2.50178
1.5154
1.11806
-0.507583
2.52717
-0.737261
-0.136214
-0.270657
2.45059
1.76936
2.45971
0.798527
-0.439897
1.37059
0.876223
0.0536225
2.20484
1.12589
-0.467515
1.05167
2.49829
1.07503
0.234068
-0.375931
1.89037
2.61622
0.887125
-0.704846
2.75612
1.20868
1.92605
0.0966864
2.25033
-0.194169
0.487622
1.99906
2.01325
-0.24209
-1.92769
-1.60276
4.19735
0.327354
2.64015
0.586199
-0.241533
1.3942
-0.424463
2.17062
-0.01348
2.5601
2.27685
-0.247526
0.63189
1.56761
1.86978
-0.0468879
0.0689159
1.91063
-0.743754
0.823746
2.84716
1.34967
-0.0257965
2.56376
-0.402318
2.15537
-0.0882113
-0.16202
1.87928
2.3301
1.92862
2.58739
-0.322589
0.417216
2.46316
0.679191
0.0703452
1.03854
2.0512
-0.0764983
0.561407
1.44062
2.42105
-0.493018
1.34829
0.714724
0.174065
2.51831
1.90927
-0.34152
-0.274373
2.0727
-0.0190909
2.47323
2.25078
0.143683
2.39146
-0.412084
2.65122
1.08888
0.63472
-0.652106
)
;
    }
    topAndBottom
    {
        type            empty;
    }
}


// ************************************************************************* //
