/*--------------------------------*- C++ -*----------------------------------*\
| =========                 |                                                 |
| \\      /  F ield         | foam-extend: Open Source CFD                    |
|  \\    /   O peration     | Version:  3.0                                   |
|   \\  /    A nd           | Web:         http://www.extend-project.de       |
|    \\/     M anipulation  |                                                 |
\*---------------------------------------------------------------------------*/
FoamFile
{
    version     2.0;
    format      ascii;
    class       volScalarField;
    location    "0.3";
    object      p;
}
// * * * * * * * * * * * * * * * * * * * * * * * * * * * * * * * * * * * * * //

dimensions      [0 0 0 0 0 0 0];

internalField   nonuniform List<scalar> 
400
(
0.999023
0.99899
0.998954
0.998959
0.998993
0.999053
0.999133
0.999224
0.999323
0.999427
0.999535
0.999646
0.999763
0.999876
0.999992
1.00009
1.00018
1.00023
1.00026
1.00024
0.998839
0.998827
0.99883
0.998863
0.998926
0.999006
0.999104
0.999207
0.999318
0.99943
0.999548
0.999667
0.999795
0.999917
1.00005
1.00016
1.00027
1.00033
1.00039
1.00036
0.99753
0.997497
0.997538
0.997629
0.997796
0.997984
0.998203
0.998424
0.998648
0.998873
0.9991
0.999339
0.999586
0.999845
1.00012
1.00036
1.00061
1.00076
1.0009
1.00085
0.995817
0.995769
0.995899
0.996089
0.996426
0.996772
0.997172
0.997552
0.997939
0.998313
0.998697
0.999092
0.99952
0.999963
1.00045
1.0009
1.00138
1.00167
1.00195
1.00188
0.991727
0.991679
0.992102
0.992572
0.993328
0.994046
0.994826
0.995546
0.996231
0.996905
0.997549
0.99826
0.998981
0.999818
1.00069
1.0016
1.00253
1.00318
1.00382
1.00373
0.987133
0.987102
0.987977
0.988831
0.990172
0.991359
0.992643
0.993769
0.994846
0.995864
0.99686
0.997936
0.999079
1.00039
1.00184
1.00334
1.005
1.00616
1.00741
1.0073
0.976397
0.976482
0.978548
0.980364
0.983007
0.985245
0.9875
0.989445
0.991162
0.992824
0.994309
0.99607
0.997775
1.00004
1.00235
1.00514
1.00804
1.01043
1.01294
1.01293
0.9669
0.967177
0.970744
0.973668
0.977801
0.981108
0.98441
0.987126
0.989527
0.991769
0.99381
0.996193
0.998593
1.00178
1.00521
1.0094
1.01401
1.01793
1.02231
1.02251
0.944052
0.944866
0.951847
0.957336
0.964525
0.970171
0.975376
0.979657
0.983096
0.986432
0.989131
0.992688
0.99584
1.00088
1.0057
1.0128
1.02002
1.02726
1.03509
1.03598
0.928769
0.930381
0.940941
0.948907
0.958884
0.966379
0.973155
0.978517
0.982796
0.986839
0.990123
0.99446
0.998361
1.00478
1.01107
1.02073
1.03089
1.04173
1.05394
1.05603
0.890408
0.893797
0.911587
0.924824
0.940077
0.951572
0.96107
0.968729
0.974209
0.97968
0.983512
0.989406
0.993839
1.00303
1.01072
1.02543
1.03943
1.05726
1.07655
1.08139
0.871903
0.878066
0.902057
0.919553
0.938343
0.952116
0.963101
0.971766
0.97784
0.983861
0.98798
0.994532
0.999275
1.00993
1.01854
1.0367
1.05383
1.07814
1.10478
1.11415
0.823081
0.83453
0.869542
0.895104
0.92006
0.938776
0.952289
0.963405
0.970305
0.977705
0.981897
0.990002
0.994481
1.00823
1.01697
1.04158
1.06167
1.09702
1.13365
1.15168
0.807737
0.827557
0.869548
0.900304
0.927444
0.947745
0.961621
0.973107
0.979955
0.98749
0.991465
0.999834
1.0038
1.01845
1.02642
1.05402
1.07464
1.11822
1.16208
1.19329
0.763865
0.797051
0.849597
0.888658
0.919467
0.943625
0.958424
0.971593
0.978457
0.986896
0.990362
0.999836
1.00256
1.01965
1.02545
1.05868
1.07785
1.13369
1.18456
1.23752
0.760001
0.811127
0.866023
0.908295
0.937666
0.961548
0.975145
0.987842
0.994054
1.00223
1.00514
1.01448
1.0161
1.03324
1.03652
1.07075
1.08565
1.14757
1.19777
1.27847
0.737938
0.812645
0.870696
0.91709
0.94527
0.970207
0.982799
0.995949
1.00151
1.00999
1.01211
1.02195
1.02191
1.04026
1.03985
1.07704
1.08517
1.1559
1.2017
1.32299
0.759176
0.85124
0.90292
0.947067
0.97093
0.993919
1.0047
1.01702
1.02186
1.02999
1.03162
1.04122
1.04023
1.05817
1.05521
1.09151
1.09305
1.16386
1.19645
1.35173
0.77194
0.882531
0.929036
0.970889
0.990691
1.01242
1.02155
1.0335
1.03765
1.0457
1.04675
1.05641
1.05425
1.07242
1.06651
1.10329
1.09743
1.17109
1.18806
1.39189
0.85811
0.932447
0.970144
1.00437
1.02089
1.04072
1.04894
1.06045
1.06434
1.07232
1.07325
1.0829
1.08052
1.09851
1.0919
1.12743
1.11903
1.18676
1.18995
1.3762
)
;

boundaryField
{
    cavity
    {
        type            implicitExtrapolation;
    }
    lid
    {
        type            implicitExtrapolation;
    }
    frontAndBack
    {
        type            empty;
    }
}


// ************************************************************************* //
