/*--------------------------------*- C++ -*----------------------------------*\
| =========                 |                                                 |
| \\      /  F ield         | foam-extend: Open Source CFD                    |
|  \\    /   O peration     | Version:  3.0                                   |
|   \\  /    A nd           | Web:         http://www.extend-project.de       |
|    \\/     M anipulation  |                                                 |
\*---------------------------------------------------------------------------*/
FoamFile
{
    version     2.0;
    format      ascii;
    class       volVectorField;
    location    "0.3";
    object      s;
}
// * * * * * * * * * * * * * * * * * * * * * * * * * * * * * * * * * * * * * //

dimensions      [0 0 0 0 0 0 0];

internalField   nonuniform List<vector> 
400
(
(-0.000898019 -0.000532819 4.73854e-318)
(-0.000677068 -0.000637168 6.50822e-318)
(-0.00047316 -0.00057176 6.36903e-318)
(-0.000353473 -0.000497049 5.56478e-318)
(-0.000278194 -0.000463403 4.77716e-318)
(-0.000234004 -0.000465529 4.18922e-318)
(-0.000204555 -0.00049304 3.75147e-318)
(-0.000182209 -0.000535829 3.45964e-318)
(-0.000162341 -0.000587062 3.22213e-318)
(-0.000142224 -0.000642486 3.04154e-318)
(-0.000119329 -0.000699701 2.83993e-318)
(-9.04401e-05 -0.000757362 2.62823e-318)
(-5.11209e-05 -0.000814641 2.33256e-318)
(4.40644e-06 -0.000870944 1.97066e-318)
(8.36476e-05 -0.000925897 1.48942e-318)
(0.000194576 -0.00097933 9.6118e-319)
(0.000348733 -0.00102869 4.43078e-319)
(0.000545378 -0.00106331 1.76278e-319)
(0.000797877 -0.00101524 2.88312e-319)
(0.00098946 -0.000699707 3.64927e-319)
(-0.000820466 -0.000106629 3.00983e-318)
(-0.000633206 5.39981e-05 6.62517e-318)
(-0.000537984 0.000248623 7.86981e-318)
(-0.000475654 0.000387333 7.9297e-318)
(-0.00043068 0.000440274 7.33174e-318)
(-0.000393704 0.000419185 6.67329e-318)
(-0.000359056 0.000343328 5.96482e-318)
(-0.000324403 0.000231535 5.44383e-318)
(-0.000288572 9.77914e-05 4.92274e-318)
(-0.000250297 -4.87394e-05 4.54469e-318)
(-0.000207025 -0.000202571 4.08288e-318)
(-0.000154283 -0.000360311 3.67021e-318)
(-8.57249e-05 -0.00051886 3.08565e-318)
(5.89351e-06 -0.000674052 2.48702e-318)
(0.000127127 -0.000819142 1.70744e-318)
(0.00028031 -0.000943462 9.945e-319)
(0.000460917 -0.00102888 3.04374e-319)
(0.00065092 -0.00104378 -7.14419e-321)
(0.000820145 -0.000915446 -6.87838e-320)
(0.000950489 -0.000512949 1.80981e-319)
(-0.000747522 0.000356947 4.08713e-318)
(-0.000517687 0.000925149 7.57597e-318)
(-0.000445779 0.00131853 8.66473e-318)
(-0.000428947 0.00153272 8.56589e-318)
(-0.000426422 0.00158702 7.8546e-318)
(-0.000418132 0.00151673 7.06189e-318)
(-0.000398116 0.00135858 6.21881e-318)
(-0.000367787 0.0011439 5.54675e-318)
(-0.000331102 0.000894822 4.89124e-318)
(-0.000291019 0.000625012 4.37165e-318)
(-0.000247601 0.000341908 3.78263e-318)
(-0.000196915 4.98791e-05 3.22276e-318)
(-0.000131413 -0.000246068 2.48615e-318)
(-4.14987e-05 -0.000537045 1.69011e-318)
(8.18483e-05 -0.000806764 6.69963e-319)
(0.000242171 -0.00102879 -3.88123e-319)
(0.000434263 -0.00116415 -1.5456e-318)
(0.00063723 -0.00115829 -2.46959e-318)
(0.000820389 -0.000941954 -2.93202e-318)
(0.000955638 -0.000428341 -2.1293e-318)
(-0.000653069 0.00081759 2.3314e-318)
(-0.000349971 0.00195815 5.67514e-318)
(-0.000280118 0.00265057 7.21126e-318)
(-0.000295461 0.00297672 7.51836e-318)
(-0.000325875 0.00302025 7.09538e-318)
(-0.000337458 0.00286439 6.37234e-318)
(-0.000323327 0.00257882 5.57003e-318)
(-0.000290026 0.00221606 4.8233e-318)
(-0.000249008 0.00180975 4.13811e-318)
(-0.000209659 0.00137799 3.5164e-318)
(-0.000176103 0.000928518 2.89034e-318)
(-0.000145095 0.00046416 2.22895e-318)
(-0.000106468 -1.00426e-05 1.4611e-318)
(-4.5087e-05 -0.00048166 5.79643e-319)
(5.55293e-05 -0.000923843 -4.27307e-319)
(0.000206153 -0.00129197 -1.46209e-318)
(0.000406959 -0.00152122 -2.37442e-318)
(0.000634972 -0.00152857 -2.84918e-318)
(0.000852297 -0.00122784 -2.54836e-318)
(0.000988025 -0.000536423 -1.06407e-318)
(-0.000529226 0.00139544 3.45986e-318)
(-0.000120727 0.00326854 6.34595e-318)
(-3.43464e-05 0.00433661 7.33461e-318)
(-5.72358e-05 0.00478661 7.22298e-318)
(-9.04856e-05 0.00478843 6.57818e-318)
(-8.76509e-05 0.00449559 5.7278e-318)
(-4.53757e-05 0.00402591 4.85129e-318)
(2.03572e-05 0.00346172 4.04178e-318)
(8.63759e-05 0.00285096 3.31013e-318)
(0.00013403 0.0022152 2.63871e-318)
(0.000153456 0.00155927 1.97443e-318)
(0.000147392 0.000880234 1.26876e-318)
(0.000130413 0.000179118 4.63952e-319)
(0.000127182 -0.000530866 -4.67184e-319)
(0.000167433 -0.00121207 -1.5304e-318)
(0.000275903 -0.00179669 -2.66359e-318)
(0.00046431 -0.00218163 -3.73332e-318)
(0.000707042 -0.00223285 -4.47571e-318)
(0.000950892 -0.00181285 -4.39731e-318)
(0.00105577 -0.000794611 -2.73934e-318)
(-0.000361928 0.00213816 2.18281e-318)
(0.000207004 0.00492494 5.12217e-318)
(0.000350449 0.00642629 6.36471e-318)
(0.000371979 0.0069818 6.4733e-318)
(0.000397347 0.00688334 5.92675e-318)
(0.000481303 0.00638304 5.10019e-318)
(0.000615433 0.00566296 4.21517e-318)
(0.000767584 0.00484239 3.38116e-318)
(0.000897487 0.00398442 2.62481e-318)
(0.000973936 0.0031107 1.92762e-318)
(0.000979545 0.00221805 1.2434e-318)
(0.000916398 0.00129101 5.19999e-319)
(0.000804792 0.000320746 -2.92961e-319)
(0.000682258 -0.000684566 -1.22106e-318)
(0.000597289 -0.00167766 -2.25059e-318)
(0.000595974 -0.00256394 -3.2925e-318)
(0.000710226 -0.00318623 -4.15027e-318)
(0.000915843 -0.00332939 -4.47981e-318)
(0.00114518 -0.00275782 -3.83121e-318)
(0.00116337 -0.00123415 -1.66994e-318)
(-0.000146524 0.00306214 3.15658e-318)
(0.000671869 0.00692587 5.73953e-318)
(0.000953201 0.00887643 6.56592e-318)
(0.00111923 0.00947884 6.35203e-318)
(0.00131196 0.00919461 5.63211e-318)
(0.00158643 0.00840549 4.71314e-318)
(0.00191085 0.00737147 3.77616e-318)
(0.00222982 0.00625201 2.90886e-318)
(0.00248087 0.00512241 2.1299e-318)
(0.00261799 0.00399851 1.41634e-318)
(0.00261476 0.002862 7.21267e-319)
(0.00247245 0.00167701 -1.00345e-320)
(0.00221694 0.000416774 -8.27244e-319)
(0.00190048 -0.000923628 -1.75956e-318)
(0.00159397 -0.00229259 -2.79857e-318)
(0.00137189 -0.00356846 -3.87216e-318)
(0.00129796 -0.00452636 -4.81695e-318)
(0.0013583 -0.00483566 -5.34622e-318)
(0.00148463 -0.00410317 -4.94305e-318)
(0.00131906 -0.0018873 -2.88694e-318)
(0.000125233 0.00419371 2.20437e-318)
(0.00132908 0.00926502 4.97342e-318)
(0.00188986 0.0116204 6.02778e-318)
(0.00236619 0.0121635 5.98153e-318)
(0.00289234 0.0115837 5.31994e-318)
(0.00351097 0.0104221 4.40902e-318)
(0.00415497 0.00902418 3.46227e-318)
(0.00474092 0.00758593 2.58183e-318)
(0.00518266 0.00618776 1.79213e-318)
(0.00541988 0.00483087 1.07203e-318)
(0.00541746 0.00347438 3.74764e-319)
(0.00517542 0.00205319 -3.54299e-319)
(0.00472333 0.00051468 -1.16372e-318)
(0.00412639 -0.00117054 -2.08003e-318)
(0.003477 -0.00295541 -3.08718e-318)
(0.00288114 -0.00469964 -4.09539e-318)
(0.0024451 -0.00610379 -4.90323e-318)
(0.0021788 -0.00669169 -5.15788e-318)
(0.0020434 -0.00584262 -4.37814e-318)
(0.00153672 -0.00277784 -1.95917e-318)
(0.000446752 0.0055032 2.99222e-318)
(0.00223715 0.0118171 5.47513e-318)
(0.00329097 0.0144517 6.24619e-318)
(0.00431489 0.0147866 5.98159e-318)
(0.005393 0.0137969 5.20928e-318)
(0.00654265 0.0122012 4.24133e-318)
(0.00765208 0.0104248 3.26486e-318)
(0.00861174 0.00868753 2.3685e-318)
(0.00931576 0.00706266 1.57186e-318)
(0.0096947 0.0055274 8.50727e-319)
(0.00970713 0.00401157 1.57528e-319)
(0.00935215 0.00241507 -5.6284e-319)
(0.00865857 0.000652329 -1.36065e-318)
(0.00769869 -0.00134117 -2.26427e-318)
(0.0065781 -0.00353721 -3.26332e-318)
(0.00542902 -0.00579408 -4.2822e-318)
(0.00440492 -0.00774689 -5.14975e-318)
(0.0035505 -0.00875881 -5.57138e-318)
(0.00290639 -0.00791201 -5.03284e-318)
(0.00181541 -0.00391823 -2.85252e-318)
(0.000827125 0.00698115 2.28929e-318)
(0.00347249 0.0144598 5.00474e-318)
(0.00530964 0.0171618 5.96166e-318)
(0.0071792 0.0171111 5.81772e-318)
(0.00905812 0.0156139 5.07785e-318)
(0.0109291 0.0135615 4.1093e-318)
(0.0126373 0.0114375 3.12506e-318)
(0.0140586 0.00946285 2.22384e-318)
(0.0150802 0.00768924 1.428e-318)
(0.0156338 0.00606092 7.12882e-319)
(0.0156773 0.00447572 3.11014e-320)
(0.0152097 0.00279627 -6.72898e-319)
(0.0142531 0.000902146 -1.44936e-318)
(0.0128762 -0.00131555 -2.32679e-318)
(0.0111806 -0.00386203 -3.29322e-318)
(0.00930707 -0.00662166 -4.26485e-318)
(0.00744517 -0.00919165 -5.04926e-318)
(0.00567581 -0.0107894 -5.30141e-318)
(0.00417939 -0.0101515 -4.53261e-318)
(0.00216407 -0.00528769 -2.09033e-318)
(0.00123859 0.00856367 2.91305e-318)
(0.00509371 0.0169611 5.39733e-318)
(0.00806536 0.0194452 6.15378e-318)
(0.0111029 0.0188362 5.85235e-318)
(0.0140146 0.0167849 5.03344e-318)
(0.0167572 0.0143167 4.02596e-318)
(0.019149 0.0119334 3.02495e-318)
(0.0210759 0.00982757 2.12032e-318)
(0.0224377 0.00801429 1.33043e-318)
(0.0231815 0.00640053 6.28694e-319)
(0.023272 0.00485397 -3.38534e-320)
(0.0227099 0.00320507 -7.13297e-319)
(0.0215046 0.00130179 -1.46074e-318)
(0.0197083 -0.00101073 -2.30678e-318)
(0.0173953 -0.00378433 -3.24496e-318)
(0.0146835 -0.00695948 -4.20554e-318)
(0.0117667 -0.010143 -5.0233e-318)
(0.0087367 -0.0124631 -5.40978e-318)
(0.00596481 -0.0123075 -4.86328e-318)
(0.00256651 -0.00683 -2.72767e-318)
(0.00170549 0.0101675 2.41321e-318)
(0.00715398 0.0190456 5.1277e-318)
(0.0116263 0.0209979 6.00537e-318)
(0.0161115 0.0197146 5.7665e-318)
(0.0202111 0.0171468 4.94943e-318)
(0.0238842 0.0143774 3.93278e-318)
(0.0269602 0.011874 2.92879e-318)
(0.0293677 0.00977196 2.0304e-318)
(0.0310439 0.00804035 1.25549e-318)
(0.0319665 0.00655043 5.75685e-319)
(0.0321153 0.00514802 -5.88333e-320)
(0.0314951 0.00364197 -7.0392e-319)
(0.0300983 0.00185937 -1.41068e-318)
(0.0279496 -0.000394227 -2.21155e-318)
(0.0250709 -0.00322098 -3.09973e-318)
(0.0215181 -0.00664168 -4.0069e-318)
(0.0174328 -0.0103284 -4.76173e-318)
(0.0128637 -0.0134192 -5.04596e-318)
(0.00836909 -0.0140239 -4.3842e-318)
(0.00306223 -0.00842884 -2.09878e-318)
(0.00220466 0.0116468 2.91346e-318)
(0.00965318 0.0203767 5.4305e-318)
(0.0159382 0.0215339 6.13441e-318)
(0.0220193 0.0195655 5.75293e-318)
(0.0273122 0.0166224 4.86649e-318)
(0.031838 0.0137354 3.82263e-318)
(0.0354892 0.0112862 2.81755e-318)
(0.0382737 0.00933289 1.93456e-318)
(0.0401871 0.00779764 1.18482e-318)
(0.0412488 0.00652536 5.37089e-319)
(0.0414592 0.00535243 -5.93817e-320)
(0.0408307 0.00408199 -6.59588e-319)
(0.0393379 0.00253495 -1.31497e-318)
(0.0369734 0.00049377 -2.05811e-318)
(0.0336899 -0.00218642 -2.88808e-318)
(0.0294454 -0.00561361 -3.74948e-318)
(0.0242599 -0.00956994 -4.49891e-318)
(0.0180526 -0.0133293 -4.87748e-318)
(0.0114607 -0.0148615 -4.42111e-318)
(0.00369177 -0.00986517 -2.50537e-318)
(0.00286731 0.0127378 2.58548e-318)
(0.0125236 0.0205275 5.27215e-318)
(0.020765 0.0207802 5.99682e-318)
(0.0283583 0.0182824 5.6086e-318)
(0.0346552 0.0152163 4.70082e-318)
(0.039801 0.0124453 3.65463e-318)
(0.0438105 0.0102322 2.66716e-318)
(0.0467965 0.00855658 1.81554e-318)
(0.048825 0.00730501 1.10476e-318)
(0.0499605 0.00631179 5.012e-319)
(0.0502256 0.00541881 -4.60519e-320)
(0.0496422 0.00444007 -5.91362e-319)
(0.0481723 0.00320714 -1.18332e-318)
(0.0457799 0.00150153 -1.85379e-318)
(0.0423468 -0.000843626 -2.60469e-318)
(0.0377159 -0.00400501 -3.38484e-318)
(0.0317213 -0.00788749 -4.05766e-318)
(0.0240741 -0.012011 -4.35738e-318)
(0.0152313 -0.0143914 -3.86568e-318)
(0.00467364 -0.0108192 -1.94043e-318)
(0.00373268 0.0130233 3.00023e-318)
(0.0155583 0.0191378 5.44151e-318)
(0.0256283 0.0186464 5.94952e-318)
(0.0343515 0.0159397 5.41092e-318)
(0.0412438 0.0130724 4.45129e-318)
(0.0466321 0.0106541 3.4114e-318)
(0.0506962 0.00883048 2.46163e-318)
(0.0536602 0.00752179 1.66118e-318)
(0.0556553 0.00659969 1.00612e-318)
(0.0567837 0.00590668 4.59693e-319)
(0.0570861 0.00530358 -2.79147e-320)
(0.0565946 0.00462967 -5.07435e-319)
(0.0552667 0.00374085 -1.02548e-318)
(0.0530505 0.00244087 -1.6115e-318)
(0.0497765 0.000568561 -2.2697e-318)
(0.0451829 -0.00208103 -2.96059e-318)
(0.03889 -0.00550046 -3.57519e-318)
(0.0303595 -0.00950421 -3.91022e-318)
(0.0194776 -0.0122857 -3.58812e-318)
(0.00619706 -0.0107642 -2.09963e-318)
(0.00505636 0.0121278 2.79185e-318)
(0.01834 0.0160669 5.20788e-318)
(0.0297274 0.0152402 5.60156e-318)
(0.0388768 0.0127626 5.01349e-318)
(0.0457842 0.0104174 4.0562e-318)
(0.0509502 0.00854264 3.06437e-318)
(0.054731 0.00720283 2.18572e-318)
(0.0574393 0.00629494 1.46253e-318)
(0.0592505 0.00570117 8.82347e-319)
(0.0602877 0.00528924 4.06819e-319)
(0.0606014 0.00494836 -1.03951e-320)
(0.0602315 0.00455179 -4.15633e-319)
(0.0591417 0.00398793 -8.50173e-319)
(0.0572797 0.00309998 -1.34041e-318)
(0.054461 0.00175902 -1.89031e-318)
(0.0503597 -0.000218355 -2.46599e-318)
(0.0444107 -0.00284218 -2.9702e-318)
(0.0358882 -0.00616952 -3.20823e-318)
(0.0236726 -0.00861498 -2.86948e-318)
(0.00863218 -0.00927897 -1.49281e-318)
(0.00649539 0.00933087 3.06307e-318)
(0.0201082 0.011439 5.01037e-318)
(0.0319131 0.0109176 5.12424e-318)
(0.0405717 0.00912123 4.42822e-318)
(0.0468214 0.00753121 3.50131e-318)
(0.0512892 0.00629339 2.6016e-318)
(0.0544691 0.00545098 1.83261e-318)
(0.0567166 0.00491753 1.21573e-318)
(0.0582148 0.00460735 7.30768e-319)
(0.0590864 0.00442413 3.40737e-319)
(0.0593805 0.00428909 3.03356e-321)
(0.0591394 0.00411157 -3.20525e-319)
(0.0583428 0.00381385 -6.64839e-319)
(0.0569499 0.00328535 -1.0521e-318)
(0.0548079 0.00244551 -1.48569e-318)
(0.0515787 0.00117057 -1.93989e-318)
(0.0466116 -0.00049191 -2.3394e-318)
(0.0391261 -0.00268536 -2.54745e-318)
(0.0267401 -0.00394595 -2.30582e-318)
(0.0116723 -0.00581086 -1.36389e-318)
(0.00782717 0.00558097 2.72801e-318)
(0.0198505 0.00643553 4.28602e-318)
(0.0306842 0.00656174 4.22612e-318)
(0.0378086 0.00566663 3.55723e-318)
(0.0427426 0.00487474 2.75301e-318)
(0.0461128 0.0042394 2.0125e-318)
(0.0484528 0.00382639 1.40041e-318)
(0.0500955 0.00359015 9.21398e-319)
(0.0511915 0.0034876 5.51985e-319)
(0.0518419 0.00346002 2.59636e-319)
(0.052085 0.00345897 1.00641e-320)
(0.0519572 0.00342642 -2.26307e-319)
(0.0514608 0.00331512 -4.75415e-319)
(0.0505667 0.00305619 -7.5475e-319)
(0.049196 0.00262037 -1.06626e-318)
(0.0470471 0.00194944 -1.38854e-318)
(0.043539 0.00118471 -1.66009e-318)
(0.0380335 0.00023636 -1.75827e-318)
(0.0271037 0.0005023 -1.48492e-318)
(0.0148274 -0.00130849 -6.60472e-319)
(0.00715255 0.000245002 2.36572e-318)
(0.0163591 0.00192611 3.20498e-318)
(0.0247662 0.00277794 2.9762e-318)
(0.0295341 0.00275956 2.40126e-318)
(0.0326652 0.00258595 1.81063e-318)
(0.0347 0.00238968 1.30084e-318)
(0.0360791 0.00226671 8.94531e-319)
(0.0370521 0.00221325 5.83694e-319)
(0.0377045 0.00222347 3.48213e-319)
(0.038102 0.00226773 1.64944e-319)
(0.0382665 0.00232313 1.0326e-320)
(0.0382194 0.00235574 -1.34455e-319)
(0.0379848 0.00234418 -2.86e-319)
(0.0375358 0.00224567 -4.55272e-319)
(0.036887 0.00207111 -6.43535e-319)
(0.0357943 0.00179566 -8.37036e-319)
(0.0339097 0.00161149 -9.97682e-319)
(0.0308003 0.00161755 -1.05564e-318)
(0.0227849 0.00295155 -8.63404e-319)
(0.0151302 0.00383695 -3.79828e-319)
(0.00292941 -0.00134576 1.43074e-318)
(0.00711777 3.93523e-05 1.53581e-318)
(0.0105041 0.00079994 1.27618e-318)
(0.0121107 0.0011002 9.66264e-319)
(0.0131556 0.00122055 6.99523e-319)
(0.0138083 0.00124604 4.88764e-319)
(0.0142677 0.00126634 3.30026e-319)
(0.0145944 0.00128604 2.127e-319)
(0.0148216 0.00132119 1.26086e-319)
(0.0149653 0.00136176 6.01476e-320)
(0.0150257 0.00140504 5.50883e-321)
(0.0150287 0.00143764 -4.5128e-320)
(0.014957 0.00145986 -9.77212e-320)
(0.0148595 0.00144712 -1.56115e-319)
(0.0146804 0.00143638 -2.20279e-319)
(0.0144662 0.00138742 -2.83806e-319)
(0.0139257 0.0014927 -3.28657e-319)
(0.0133244 0.0017491 -3.14596e-319)
(0.0101758 0.00297601 -1.69677e-319)
(0.00987306 0.00413222 1.58417e-319)
)
;

boundaryField
{
    cavity
    {
        type            myHeatFlux;
        ThetaWall       uniform 0;
        value           nonuniform List<vector> 
60
(
(0.001 0 0)
(0.001 0 0)
(0.001 0 0)
(0.001 0 0)
(0.001 0 0)
(0.001 0 0)
(0.001 0 0)
(0.001 0 0)
(0.001 0 0)
(0.001 0 0)
(0.001 0 0)
(0.001 0 0)
(0.001 0 0)
(0.001 0 0)
(0.001 0 0)
(0.001 0 0)
(0.001 0 0)
(0.001 0 0)
(0.001 0 0)
(0.001 0 0)
(0 -0.001 0)
(0 -0.001 0)
(0 -0.001 0)
(0 -0.001 0)
(0 -0.001 0)
(0 -0.001 0)
(0 -0.001 0)
(0 -0.001 0)
(0 -0.001 0)
(0 -0.001 0)
(0 -0.001 0)
(0 -0.001 0)
(0 -0.001 0)
(0 -0.001 0)
(0 -0.001 0)
(0 -0.001 0)
(0 -0.001 0)
(0 -0.001 0)
(0 -0.001 0)
(0 -0.001 0)
(-0.001 0 0)
(-0.001 0 0)
(-0.001 0 0)
(-0.001 0 0)
(-0.001 0 0)
(-0.001 0 0)
(-0.001 0 0)
(-0.001 0 0)
(-0.001 0 0)
(-0.001 0 0)
(-0.001 0 0)
(-0.001 0 0)
(-0.001 0 0)
(-0.001 0 0)
(-0.001 0 0)
(-0.001 0 0)
(-0.001 0 0)
(-0.001 0 0)
(-0.001 0 0)
(-0.001 0 0)
)
;
    }
    lid
    {
        type            myHeatFlux;
        ThetaWall       uniform 0;
        value           nonuniform List<vector> 
20
(
(0.000135815 0.0009 0)
(0.000135815 0.0009 0)
(0.000135815 0.0009 0)
(0.000135815 0.0009 0)
(0.000135815 0.0009 0)
(0.000135815 0.0009 0)
(0.000135815 0.0009 0)
(0.000135815 0.0009 0)
(0.000135815 0.0009 0)
(0.000135815 0.0009 0)
(0.000135815 0.0009 0)
(0.000135815 0.0009 0)
(0.000135815 0.0009 0)
(0.000135815 0.0009 0)
(0.000135815 0.0009 0)
(0.000135815 0.0009 0)
(0.000135815 0.0009 0)
(0.000135815 0.0009 0)
(0.000135815 0.0009 0)
(0.000135815 0.0009 0)
)
;
    }
    frontAndBack
    {
        type            empty;
    }
}


// ************************************************************************* //
