/*--------------------------------*- C++ -*----------------------------------*\
| =========                 |                                                 |
| \\      /  F ield         | foam-extend: Open Source CFD                    |
|  \\    /   O peration     | Version:  3.0                                   |
|   \\  /    A nd           | Web:         http://www.extend-project.de       |
|    \\/     M anipulation  |                                                 |
\*---------------------------------------------------------------------------*/
FoamFile
{
    version     2.0;
    format      ascii;
    class       volVectorField;
    location    "0.3";
    object      u;
}
// * * * * * * * * * * * * * * * * * * * * * * * * * * * * * * * * * * * * * //

dimensions      [0 0 0 0 0 0 0];

internalField   nonuniform List<vector> 
400
(
(8.17675e-05 0.000480469 1.54662e-316)
(6.477e-05 0.000663266 1.28796e-316)
(2.56192e-05 0.000731886 3.91608e-317)
(-4.03971e-05 0.000745123 8.87026e-317)
(-9.14974e-05 0.000710601 1.62683e-317)
(-0.000131571 0.000656156 7.8023e-317)
(-0.000156162 0.000586642 1.10971e-317)
(-0.000171009 0.00051553 7.5478e-317)
(-0.000181017 0.000441966 9.73723e-318)
(-0.000190906 0.000370088 7.46018e-317)
(-0.000202248 0.000294926 8.94663e-318)
(-0.000217166 0.000218323 7.35748e-317)
(-0.00022949 0.000133428 7.30122e-318)
(-0.000240338 4.69821e-05 7.07345e-317)
(-0.000235309 -4.82158e-05 2.30806e-318)
(-0.000219543 -0.000132696 6.20892e-317)
(-0.000176051 -0.000214174 -1.21829e-317)
(-0.000121016 -0.000254686 3.97812e-317)
(-5.21708e-05 -0.000267904 -4.3584e-317)
(2.76271e-06 -0.000199234 7.4468e-318)
(3.60194e-05 0.00116279 -1.99853e-318)
(1.11367e-05 0.00136968 2.83969e-317)
(-3.19373e-05 0.0014351 3.40374e-317)
(-8.82331e-05 0.00142518 2.91486e-317)
(-0.000130262 0.00134404 2.89275e-317)
(-0.000158738 0.00123512 2.35182e-317)
(-0.000174197 0.00110414 2.46325e-317)
(-0.000180893 0.000970516 2.05847e-317)
(-0.000185883 0.000836511 2.26715e-317)
(-0.000193652 0.000702214 1.91839e-317)
(-0.000205587 0.000567666 2.14763e-317)
(-0.000224936 0.000424522 1.78836e-317)
(-0.000242764 0.000274589 1.97525e-317)
(-0.00026293 0.000112953 1.54003e-317)
(-0.000264906 -5.52523e-05 1.61866e-317)
(-0.000258595 -0.000215112 1.06257e-317)
(-0.000217225 -0.000364927 1.07643e-317)
(-0.000163695 -0.000451174 7.27426e-318)
(-8.44958e-05 -0.000496395 1.44252e-317)
(-1.45922e-05 -0.000404202 4.35501e-317)
(7.4521e-05 0.00243385 1.33326e-316)
(-6.31993e-06 0.00280744 7.02954e-317)
(-0.0001136 0.00289911 4.39121e-317)
(-0.000221118 0.00284892 3.10973e-317)
(-0.000294582 0.00265485 2.1919e-317)
(-0.000323531 0.00241818 1.89708e-317)
(-0.000330609 0.00213883 1.48817e-317)
(-0.000317249 0.0018657 1.47564e-317)
(-0.000309912 0.00159133 1.22422e-317)
(-0.000311115 0.00132471 1.29417e-317)
(-0.000332272 0.00105194 1.07446e-317)
(-0.000372071 0.000768323 1.13702e-317)
(-0.000420698 0.000458097 8.67881e-318)
(-0.000477778 0.000130505 8.28511e-318)
(-0.000504141 -0.000231264 3.80918e-318)
(-0.000517184 -0.000567592 3.15426e-319)
(-0.000447725 -0.00090811 -9.65608e-318)
(-0.000355492 -0.00110247 -2.37243e-317)
(-0.000182372 -0.00122872 -5.26077e-317)
(-3.16184e-05 -0.00104135 -1.19995e-316)
(0.000102312 0.00498553 -1.8331e-317)
(-6.80074e-05 0.00561076 1.62625e-317)
(-0.000261309 0.00562006 1.98839e-317)
(-0.000420729 0.00541319 1.83718e-317)
(-0.000514253 0.00494179 1.51934e-317)
(-0.00051634 0.00443467 1.24156e-317)
(-0.000487424 0.00388226 1.02683e-317)
(-0.000426885 0.00336343 8.80992e-318)
(-0.000388055 0.00287438 7.7135e-318)
(-0.000376383 0.00239906 6.92957e-318)
(-0.000409199 0.00193866 6.12967e-318)
(-0.000491019 0.00143377 5.28804e-318)
(-0.000595402 0.00090432 4.07883e-318)
(-0.000732671 0.000289514 2.44119e-318)
(-0.000817543 -0.000365938 3.09137e-320)
(-0.000890501 -0.00104965 -3.10455e-318)
(-0.000804464 -0.00172669 -6.76913e-318)
(-0.000669854 -0.00218171 -8.95916e-318)
(-0.000362142 -0.00250533 -6.33995e-318)
(-6.56018e-05 -0.00217779 2.51737e-317)
(8.12023e-05 0.00830478 1.30314e-316)
(-0.000316237 0.00928859 6.12969e-317)
(-0.000713503 0.00913264 3.64118e-317)
(-0.000923851 0.00867329 2.25152e-317)
(-0.00102342 0.0077657 1.49894e-317)
(-0.000905472 0.00686583 1.05914e-317)
(-0.000764041 0.00590941 7.84595e-318)
(-0.000564176 0.00505649 6.12991e-318)
(-0.000440459 0.00426085 4.9267e-318)
(-0.000374538 0.00351542 4.0643e-318)
(-0.000429712 0.00278385 3.22809e-318)
(-0.000577712 0.00199329 2.32756e-318)
(-0.000814828 0.00112724 1.03971e-318)
(-0.00111709 0.000122967 -8.13578e-319)
(-0.0013613 -0.00101487 -3.78505e-318)
(-0.00160186 -0.0022048 -8.5368e-318)
(-0.00151913 -0.00347374 -1.66444e-317)
(-0.00137811 -0.00434486 -3.15088e-317)
(-0.000768816 -0.00506005 -5.81177e-317)
(-0.000200952 -0.00451002 -1.2893e-316)
(1.98096e-05 0.0158372 -1.90021e-317)
(-0.000673383 0.0172601 1.6498e-317)
(-0.00128672 0.0164241 1.83805e-317)
(-0.00147596 0.0152542 1.56612e-317)
(-0.00149315 0.0133663 1.17834e-317)
(-0.00113348 0.0116277 8.55572e-318)
(-0.000778731 0.00992587 6.18369e-318)
(-0.000351543 0.00845369 4.53155e-318)
(-8.45408e-05 0.00718428 3.35615e-318)
(5.53198e-05 0.00598711 2.46001e-318)
(-2.37561e-05 0.00489843 1.63454e-318)
(-0.000296128 0.00362829 7.1516e-319)
(-0.000733018 0.00232377 -5.08621e-319)
(-0.00133319 0.000599582 -2.2476e-318)
(-0.00185822 -0.00124634 -4.73561e-318)
(-0.0024345 -0.00348412 -8.12934e-318)
(-0.00245873 -0.00577846 -1.21941e-317)
(-0.00239426 -0.00766193 -1.50889e-317)
(-0.00142073 -0.00927287 -1.31543e-317)
(-0.000422479 -0.00851424 2.18314e-317)
(-0.000354121 0.0236094 1.29219e-316)
(-0.00174498 0.0254743 5.74805e-317)
(-0.00288809 0.0236254 3.33596e-317)
(-0.00284989 0.0215162 1.99326e-317)
(-0.00261446 0.0183747 1.26616e-317)
(-0.00161899 0.0156665 8.28474e-318)
(-0.000759653 0.0130859 5.5346e-318)
(0.00019407 0.0109643 3.74524e-318)
(0.000777977 0.0091639 2.51736e-318)
(0.00112756 0.00752852 1.5882e-318)
(0.00100547 0.00603115 7.54641e-319)
(0.000578302 0.00429532 -1.87108e-319)
(-0.000279549 0.00244056 -1.4415e-318)
(-0.00139212 -4.68735e-05 -3.29055e-318)
(-0.00255225 -0.00285975 -6.13641e-318)
(-0.00385205 -0.00634578 -1.06718e-317)
(-0.00418941 -0.0101605 -1.82284e-317)
(-0.00454092 -0.0134399 -3.21896e-317)
(-0.00277392 -0.0165597 -5.73991e-317)
(-0.00110765 -0.015627 -1.30147e-316)
(-0.000883458 0.0417786 -1.84116e-317)
(-0.00288824 0.0437663 1.87024e-317)
(-0.00434052 0.0391723 1.91143e-317)
(-0.00367818 0.0347498 1.54299e-317)
(-0.00285101 0.0290598 1.10131e-317)
(-0.000904515 0.0243549 7.50564e-318)
(0.000672929 0.0202771 4.98917e-318)
(0.0023053 0.0169778 3.25336e-318)
(0.00329702 0.0144414 2.0344e-318)
(0.00387424 0.0120946 1.10704e-318)
(0.00371681 0.0101671 2.69132e-319)
(0.00303227 0.00767156 -6.59405e-319)
(0.00166232 0.00526643 -1.88954e-318)
(-0.000213934 0.0014041 -3.63925e-318)
(-0.00226811 -0.00258247 -6.17778e-318)
(-0.00472199 -0.00854813 -9.7227e-318)
(-0.00578287 -0.0146793 -1.41514e-317)
(-0.00702278 -0.021094 -1.77528e-317)
(-0.0045841 -0.0272418 -1.68737e-317)
(-0.00216128 -0.0267363 2.064e-317)
(-0.0026105 0.0564615 1.28231e-316)
(-0.00599078 0.0580447 5.46379e-317)
(-0.00842858 0.0501488 3.16777e-317)
(-0.00618954 0.0432277 1.88928e-317)
(-0.00412369 0.0349737 1.18925e-317)
(-0.00015238 0.0285087 7.58996e-318)
(0.00290197 0.0231091 4.83841e-318)
(0.00587647 0.0189338 3.02927e-318)
(0.00767136 0.0158102 1.78416e-318)
(0.00877795 0.0130109 8.48187e-319)
(0.00855308 0.0107368 5.72622e-321)
(0.00763763 0.00775007 -9.20247e-319)
(0.00527392 0.00482008 -2.15238e-318)
(0.00230205 -0.000113142 -3.9522e-318)
(-0.00154367 -0.0053678 -6.70488e-318)
(-0.0060567 -0.0136866 -1.10436e-317)
(-0.00862653 -0.0226183 -1.81546e-317)
(-0.0120633 -0.0327497 -3.127e-317)
(-0.00808891 -0.0431876 -5.51206e-317)
(-0.00493987 -0.0439736 -1.2982e-316)
(-0.00466863 0.0921184 -1.72893e-317)
(-0.00818549 0.0913289 2.13476e-317)
(-0.010419 0.07599 2.03622e-317)
(-0.00552848 0.06339 1.58331e-317)
(-0.00148623 0.0503941 1.09861e-317)
(0.00486792 0.0403534 7.27059e-318)
(0.00953976 0.0328983 4.65819e-318)
(0.0138634 0.027106 2.8749e-318)
(0.0164357 0.0232912 1.63936e-318)
(0.017988 0.0197369 7.0936e-319)
(0.0177228 0.0172808 -1.21985e-319)
(0.0164644 0.0134729 -1.03804e-318)
(0.0131617 0.0103407 -2.23188e-318)
(0.00887977 0.00348427 -3.9612e-318)
(0.00303409 -0.00278941 -6.50442e-318)
(-0.00411207 -0.0155877 -1.01392e-317)
(-0.00912725 -0.0280234 -1.48853e-317)
(-0.0160469 -0.0458094 -1.92363e-317)
(-0.0116414 -0.0637225 -1.96978e-317)
(-0.00888526 -0.0688701 1.96411e-317)
(-0.0104827 0.114259 1.27325e-316)
(-0.014488 0.109028 5.24176e-317)
(-0.0175641 0.0865906 3.07017e-317)
(-0.00731469 0.0691089 1.84927e-317)
(0.000380193 0.0527626 1.16818e-317)
(0.0111755 0.0406084 7.40869e-318)
(0.0189452 0.0321081 4.63526e-318)
(0.0256476 0.025699 2.81017e-318)
(0.029669 0.0216955 1.56244e-318)
(0.0321438 0.0180071 6.32261e-319)
(0.0317866 0.0156089 -1.74692e-319)
(0.0304099 0.0116237 -1.07148e-318)
(0.0253616 0.00852114 -2.2463e-318)
(0.0196065 0.000788142 -3.96886e-318)
(0.0100528 -0.00606016 -6.60401e-318)
(-0.00100582 -0.0219555 -1.07362e-317)
(-0.0104768 -0.0373691 -1.74681e-317)
(-0.0240512 -0.0627211 -2.98298e-317)
(-0.0181329 -0.0891054 -5.23742e-317)
(-0.0180601 -0.102352 -1.28897e-316)
(-0.0162708 0.170912 -1.5556e-317)
(-0.0156022 0.154159 2.44016e-317)
(-0.0157888 0.117672 2.19163e-317)
(0.00116608 0.0896722 1.65101e-317)
(0.0131902 0.0677633 1.1209e-317)
(0.0278845 0.0511855 7.27463e-318)
(0.0380994 0.0412954 4.56944e-318)
(0.0464973 0.033554 2.74764e-318)
(0.0514692 0.0295018 1.51476e-318)
(0.054488 0.0254575 6.09158e-319)
(0.0540873 0.02347 -1.86381e-319)
(0.0525257 0.0190542 -1.04096e-318)
(0.0463067 0.0166992 -2.16079e-318)
(0.0393102 0.00726322 -3.79847e-318)
(0.0266577 0.00107609 -6.25824e-318)
(0.011904 -0.0205289 -9.86347e-318)
(-0.00302935 -0.0380487 -1.48013e-317)
(-0.0247388 -0.0776864 -1.98419e-317)
(-0.0212501 -0.116325 -2.18237e-317)
(-0.0292729 -0.148245 1.85884e-317)
(-0.0317554 0.197363 1.27141e-316)
(-0.0233576 0.164308 5.12754e-317)
(-0.021138 0.118712 3.05173e-317)
(0.00771834 0.084225 1.85733e-317)
(0.0273514 0.0608916 1.17366e-317)
(0.0486279 0.0433561 7.37387e-318)
(0.0634965 0.0339693 4.55009e-318)
(0.0746533 0.0265479 2.7113e-318)
(0.0814475 0.0230969 1.47823e-318)
(0.085546 0.0194683 5.89564e-319)
(0.0850203 0.0180685 -1.67172e-319)
(0.0838191 0.0140298 -9.74782e-319)
(0.0753627 0.0125832 -2.03292e-318)
(0.0676784 0.00321759 -3.5975e-318)
(0.0494283 -0.00151119 -6.01626e-318)
(0.0304717 -0.0252142 -9.85098e-318)
(0.00627118 -0.0422518 -1.61145e-317)
(-0.0281009 -0.0927125 -2.77147e-317)
(-0.0272981 -0.14023 -4.90622e-317)
(-0.0524331 -0.200187 -1.27526e-316)
(-0.0407008 0.270708 -1.21752e-317)
(-0.0135193 0.201508 2.85842e-317)
(-0.00119673 0.139733 2.40323e-317)
(0.0377118 0.0915734 1.73993e-317)
(0.0634279 0.0664963 1.14832e-317)
(0.0880284 0.0463177 7.2762e-318)
(0.104949 0.0379593 4.47072e-318)
(0.116987 0.0305747 2.64274e-318)
(0.124306 0.0280763 1.43501e-318)
(0.128701 0.0248368 5.81115e-319)
(0.12811 0.024363 -1.26945e-319)
(0.127194 0.0206422 -8.74412e-319)
(0.117914 0.0208768 -1.84665e-318)
(0.110429 0.0111988 -3.26773e-318)
(0.0892217 0.00996983 -5.45737e-318)
(0.0686567 -0.0177115 -8.78031e-318)
(0.0364171 -0.0302599 -1.35799e-317)
(-0.00794142 -0.0996456 -1.90128e-317)
(-0.0184302 -0.155132 -2.25184e-317)
(-0.0712041 -0.270002 1.78003e-317)
(-0.0684893 0.29113 1.29916e-316)
(-0.0127979 0.185472 5.24136e-317)
(0.0132689 0.122426 3.13861e-317)
(0.0685943 0.0708846 1.89737e-317)
(0.10549 0.0497014 1.17666e-317)
(0.135494 0.0313966 7.22567e-318)
(0.157017 0.0254388 4.35402e-318)
(0.170564 0.019394 2.54356e-318)
(0.179292 0.0180012 1.37371e-318)
(0.184409 0.0155037 5.67064e-319)
(0.18364 0.0157549 -8.367e-320)
(0.183791 0.0127587 -7.49705e-319)
(0.172531 0.0142243 -1.61349e-318)
(0.166761 0.00576388 -2.88202e-318)
(0.139666 0.00770953 -4.88371e-318)
(0.119425 -0.0188298 -8.12251e-318)
(0.0733965 -0.0242472 -1.35578e-317)
(0.0174096 -0.101527 -2.40203e-317)
(-0.0100989 -0.151367 -4.39276e-317)
(-0.10729 -0.327944 -1.25013e-316)
(-0.0516726 0.367935 -3.23874e-318)
(0.0335366 0.182121 3.5279e-317)
(0.0799323 0.115726 2.6801e-317)
(0.138853 0.055707 1.81636e-317)
(0.179 0.0411565 1.14151e-317)
(0.20757 0.0251875 6.9572e-318)
(0.228667 0.0228229 4.14498e-318)
(0.2411 0.0185973 2.39396e-318)
(0.249358 0.0186412 1.28786e-318)
(0.25424 0.0171288 5.43561e-319)
(0.253354 0.018195 -3.41202e-320)
(0.254254 0.0161483 -6.05591e-319)
(0.243027 0.0191103 -1.34822e-318)
(0.239702 0.0122668 -2.41566e-318)
(0.211829 0.018873 -4.08118e-318)
(0.196625 -0.00627538 -6.68553e-318)
(0.144453 0.00121883 -1.06382e-317)
(0.0915039 -0.0894745 -1.55232e-317)
(0.0385476 -0.121813 -1.95709e-317)
(-0.0954 -0.40929 1.94179e-317)
(-0.0668635 0.343852 1.42339e-316)
(0.0634363 0.132754 5.68924e-317)
(0.147552 0.083393 3.27476e-317)
(0.215079 0.0310737 1.88829e-317)
(0.265219 0.0235987 1.11666e-317)
(0.293009 0.0115302 6.57009e-318)
(0.316003 0.0113431 3.8283e-318)
(0.32745 0.00837206 2.18476e-318)
(0.335952 0.00904793 1.1767e-318)
(0.340848 0.00800714 5.10859e-319)
(0.339737 0.00932366 1.06718e-320)
(0.342083 0.00779147 -4.66319e-319)
(0.329881 0.0111287 -1.05752e-318)
(0.330788 0.00572021 -1.907e-318)
(0.299264 0.0139796 -3.23825e-318)
(0.293151 -0.00693154 -5.41868e-318)
(0.227019 0.00871665 -9.20473e-318)
(0.182764 -0.0760805 -1.72423e-317)
(0.0833448 -0.0756648 -3.38085e-317)
(-0.0983694 -0.419567 -1.17103e-316)
(0.081994 0.395465 2.1727e-317)
(0.186586 0.0716497 4.42833e-317)
(0.280517 0.0441381 2.87433e-317)
(0.328656 0.00380604 1.75285e-317)
(0.371034 0.00831874 1.02638e-317)
(0.390873 0.00382738 5.93328e-318)
(0.410066 0.00702137 3.40367e-318)
(0.418803 0.00658706 1.91205e-318)
(0.425995 0.00805812 1.02336e-318)
(0.430255 0.00799529 4.60731e-319)
(0.428991 0.00939626 5.01822e-320)
(0.432037 0.00890496 -3.18544e-319)
(0.420601 0.012218 -7.6094e-319)
(0.424689 0.00954093 -1.3798e-318)
(0.395359 0.0192196 -2.2885e-318)
(0.399875 0.00594886 -3.66703e-318)
(0.336576 0.0329916 -5.70421e-318)
(0.325743 -0.0418081 -7.95696e-318)
(0.201827 0.00961237 -8.75308e-318)
(0.0800156 -0.465203 3.18348e-317)
(0.177967 0.217383 1.65636e-316)
(0.326493 0.0409738 5.78567e-317)
(0.485814 0.0237209 3.02296e-317)
(0.52312 -0.000458977 1.58957e-317)
(0.565056 0.00316943 8.79939e-318)
(0.577599 -0.000470563 4.94107e-318)
(0.594404 0.00163276 2.78245e-318)
(0.600532 0.000865897 1.54991e-318)
(0.606765 0.00181629 8.23775e-319)
(0.610465 0.00153682 3.76404e-319)
(0.609071 0.00253173 6.93125e-320)
(0.613017 0.0019619 -1.97493e-319)
(0.602093 0.00436555 -4.88196e-319)
(0.60989 0.00205713 -8.70845e-319)
(0.581528 0.00898863 -1.39998e-318)
(0.59796 -0.00103281 -2.18145e-318)
(0.530289 0.0194452 -3.44934e-318)
(0.552269 -0.0339325 -6.96366e-318)
(0.346645 0.030269 -1.53603e-317)
(0.232502 -0.297775 -9.13266e-317)
(0.366544 0.135015 1.15522e-316)
(0.341208 -0.0700262 6.19001e-317)
(0.367463 -0.0401554 3.21137e-317)
(0.354925 -0.0168235 1.68232e-317)
(0.377059 -0.00530279 9.02902e-318)
(0.380877 -0.00104157 4.91815e-318)
(0.395444 0.00137961 2.70119e-318)
(0.400132 0.00204779 1.47113e-318)
(0.406182 0.00265019 7.81721e-319)
(0.409872 0.00273245 3.83464e-319)
(0.408246 0.00313484 1.11021e-319)
(0.413033 0.00305076 -8.55277e-320)
(0.401408 0.00405535 -2.62171e-319)
(0.412272 0.00377566 -4.33968e-319)
(0.382903 0.00739082 -5.187e-319)
(0.411161 0.00705211 -3.205e-319)
(0.347446 0.0248119 8.0629e-319)
(0.435707 0.023553 4.98232e-318)
(0.267592 0.143033 1.77269e-317)
(0.680209 -0.177769 7.97584e-317)
)
;

boundaryField
{
    cavity
    {
        type            myImplicitVelocity;
    }
    lid
    {
        type            fixedValue;
        value           uniform (1 0 0);
    }
    frontAndBack
    {
        type            empty;
    }
}


// ************************************************************************* //
