/*--------------------------------*- C++ -*----------------------------------*\
| =========                 |                                                 |
| \\      /  F ield         | foam-extend: Open Source CFD                    |
|  \\    /   O peration     | Version:  3.0                                   |
|   \\  /    A nd           | Web:         http://www.extend-project.de       |
|    \\/     M anipulation  |                                                 |
\*---------------------------------------------------------------------------*/
FoamFile
{
    version     2.0;
    format      ascii;
    class       volSymmTensorField;
    location    "7";
    object      sigma;
}
// * * * * * * * * * * * * * * * * * * * * * * * * * * * * * * * * * * * * * //

dimensions      [0 0 0 0 0 0 0];

internalField   nonuniform List<symmTensor> 
168
(
(-0.143675 -0.0202554 -5.84859e-19 0.142263 1.73081e-19 0.00141203)
(-0.112027 -0.0206082 2.90843e-19 0.108896 2.7649e-19 0.00313089)
(-0.0799168 -0.0176227 6.97103e-19 0.0756229 -4.33966e-19 0.00429391)
(-0.0510774 -0.014463 -5.4529e-19 0.0463325 2.64903e-18 0.00474498)
(-0.0280241 -0.0117566 4.16688e-19 0.023846 4.58171e-19 0.00417807)
(-0.0149054 -0.0118046 -2.27355e-19 0.0129 -1.27308e-18 0.00200543)
(-0.12988 -0.0571816 -5.88299e-20 0.128561 -2.59664e-19 0.00131865)
(-0.0933319 -0.0558375 2.46408e-19 0.0904069 -3.25841e-18 0.00292502)
(-0.0618947 -0.0463298 1.99468e-18 0.0578829 -2.21656e-18 0.00401186)
(-0.0347215 -0.0363869 2.92956e-18 0.0302873 -3.21452e-18 0.00443419)
(-0.013696 -0.0276464 -2.83783e-18 0.00979328 3.84796e-19 0.00390276)
(-0.000427902 -0.0251153 -3.07016e-19 -0.00144398 2.37415e-18 0.00187188)
(-0.105892 -0.0853813 1.21013e-18 0.10473 -5.09103e-18 0.00116171)
(-0.0626483 -0.0766301 -4.00729e-18 0.0600714 4.61192e-19 0.0025769)
(-0.0330263 -0.0602934 -7.63394e-19 0.0294916 -7.80567e-19 0.0035347)
(-0.00915246 -0.044365 -2.91157e-19 0.00524651 1.0601e-18 0.00390595)
(0.00810712 -0.0309441 7.7631e-18 -0.011544 3.32111e-18 0.00343686)
(0.0208831 -0.0255321 1.25757e-18 -0.0225305 -3.7923e-18 0.00164742)
(-0.0773828 -0.102423 1.00935e-18 0.0764375 2.21533e-18 0.000945302)
(-0.0303825 -0.0799085 2.69775e-18 0.0282851 4.6352e-18 0.00209738)
(-0.0041839 -0.056685 3.93315e-19 0.00130709 -4.93282e-19 0.00287681)
(0.0151877 -0.0359548 1.23687e-19 -0.0183651 2.52804e-18 0.00317741)
(0.027867 -0.0196581 -2.63643e-18 -0.0306603 -7.14728e-18 0.00279326)
(0.0392904 -0.011233 -6.8008e-19 -0.0406269 1.04253e-18 0.00133649)
(-0.0498799 -0.109436 -3.44317e-18 0.0491982 1.88766e-18 0.000681772)
(-0.00630881 -0.06945 7.59543e-19 0.00479638 -2.81011e-18 0.00151243)
(0.0144837 -0.0398824 -1.38213e-18 -0.016558 5.1409e-19 0.00207429)
(0.0286091 -0.0156955 2.14781e-18 -0.030899 -7.49266e-19 0.00228988)
(0.0368117 0.00183451 -3.19192e-19 -0.0388232 1.52589e-18 0.0020115)
(0.0458773 0.0130454 -1.79258e-18 -0.0468384 1.66055e-18 0.000961038)
(-0.0267597 -0.110192 8.21405e-19 0.026377 1.41838e-19 0.000382678)
(0.00438944 -0.0539748 -8.01246e-19 -0.0052386 6.15069e-19 0.000849164)
(0.0178421 -0.0194649 -9.05888e-19 -0.0190063 4.7278e-19 0.00116415)
(0.0263804 0.00689246 -1.03688e-18 -0.0276634 -6.85435e-19 0.00128306)
(0.0307981 0.0246083 -1.08732e-18 -0.0319214 -1.72331e-19 0.0011233)
(0.0365701 0.0379756 1.02468e-18 -0.0371031 -1.11638e-19 0.000533073)
(-0.00815726 -0.109093 1.69823e-19 0.00809315 -4.48931e-20 6.411e-05)
(0.00320424 -0.0430945 -2.98747e-20 -0.00334676 -2.2321e-19 0.000142516)
(0.00787566 -0.00587396 8.58315e-19 -0.00807102 -3.99194e-19 0.000195364)
(0.0107344 0.0214903 -3.81346e-20 -0.0109473 -5.86325e-19 0.000212862)
(0.0120953 0.0390617 -1.68857e-19 -0.012277 4.40215e-19 0.000181743)
(0.0139711 0.0535473 1.6847e-19 -0.0140527 5.60525e-21 8.15869e-05)
(0.00856289 -0.10906 1.46084e-19 -0.0083042 1.9339e-19 -0.000258688)
(-0.0026979 -0.0430688 -8.45846e-20 0.00327102 9.48384e-20 -0.000573124)
(-0.00733073 -0.00587248 2.62912e-19 0.00811668 -5.7069e-19 -0.000785945)
(-0.0101583 0.0214591 7.35622e-19 0.0110299 -8.12734e-19 -0.000871516)
(-0.0115437 0.0390299 3.08468e-20 0.0123172 -3.8641e-19 -0.000773422)
(-0.0137436 0.0534504 -2.68689e-19 0.0141212 -5.57722e-20 -0.000377633)
(0.0271232 -0.11009 8.27369e-19 -0.0265546 6.44631e-20 -0.000568581)
(-0.00397358 -0.0538825 -1.75393e-18 0.00523379 -5.67195e-19 -0.00126021)
(-0.0173849 -0.0194322 -1.11566e-18 0.0191123 -8.46387e-19 -0.00172735)
(-0.0258453 0.00685518 -1.53367e-18 0.0277559 -1.63606e-18 -0.00191061)
(-0.030249 0.0245672 7.77556e-19 0.0319357 8.315e-19 -0.00168664)
(-0.0360643 0.0378659 1.22393e-18 0.036879 5.94093e-20 -0.000814701)
(0.0501878 -0.109272 -3.43971e-18 -0.0493373 -1.24675e-18 -0.000850478)
(0.00663094 -0.0693255 7.86596e-19 -0.00474585 2.99212e-18 -0.0018851)
(-0.0141035 -0.0398566 -1.19611e-18 0.0166874 2.07085e-19 -0.0025839)
(-0.028091 -0.0157694 2.2766e-20 0.0309475 2.83459e-19 -0.00285645)
(-0.0361946 0.00171678 2.15509e-18 0.0387134 -4.51326e-18 -0.00251877)
(-0.0450997 0.0129298 -2.05884e-18 0.0463133 -9.38097e-19 -0.00121358)
(0.0776155 -0.102215 1.57916e-18 -0.0765259 -1.94153e-18 -0.0010896)
(0.0305593 -0.0798326 4.51636e-18 -0.0281441 -2.59391e-18 -0.00241522)
(0.00441807 -0.0567412 -1.22318e-18 -0.00110777 -4.10986e-19 -0.0033103)
(-0.0147837 -0.0360686 2.13637e-18 0.0184419 1.25434e-18 -0.00365817)
(-0.0272601 -0.0198805 -7.53343e-18 0.0304835 3.55416e-18 -0.00322331)
(-0.0384031 -0.0109738 1.37572e-19 0.0399532 -4.7508e-19 -0.00155005)
(0.106015 -0.0851149 2.24596e-18 -0.104741 4.78911e-18 -0.00127403)
(0.0626819 -0.0765746 -3.77727e-18 -0.0598577 -9.39767e-20 -0.00282414)
(0.0331274 -0.0603987 6.35664e-20 -0.0292566 2.73083e-18 -0.00387079)
(0.0093961 -0.0445682 -1.83049e-18 -0.00511906 -2.31475e-18 -0.00427705)
(-0.00750472 -0.0311806 2.30532e-18 0.0112723 -2.4996e-19 -0.00376755)
(-0.0201174 -0.0253164 2.23115e-18 0.0219277 3.0775e-18 -0.00181024)
(0.129911 -0.0568519 4.71559e-20 -0.128516 -1.54234e-19 -0.00139437)
(0.0932941 -0.0557995 1.07945e-18 -0.0902033 1.37011e-18 -0.0030908)
(0.0619006 -0.0464683 1.81168e-18 -0.0576644 3.39172e-18 -0.00423616)
(0.0347836 -0.0366047 -2.04105e-18 -0.0301032 2.47522e-18 -0.00468042)
(0.0142672 -0.0279719 1.07612e-19 -0.0101445 1.58739e-18 -0.00412271)
(0.0012929 -0.0249486 -6.98652e-19 0.000687364 -9.10098e-19 -0.00198026)
(0.143616 -0.0199022 -5.2769e-19 -0.142172 -7.28633e-19 -0.00144421)
(0.111959 -0.0205879 7.27314e-20 -0.108758 -8.97866e-19 -0.00320107)
(0.0799028 -0.0176948 5.05801e-19 -0.0755165 -1.16645e-18 -0.00438634)
(0.0510292 -0.0147841 -7.80274e-19 -0.0461845 -2.54341e-19 -0.00484471)
(0.0284495 -0.0120262 1.03307e-18 -0.0241844 3.54239e-19 -0.00426509)
(0.0153735 -0.012152 -1.12493e-20 -0.0133265 -6.47875e-19 -0.002047)
(0.143615 0.0203691 -5.83414e-19 -0.142193 1.74399e-19 -0.00142171)
(0.112077 0.0202783 2.93626e-19 -0.108926 2.73594e-19 -0.00315052)
(0.0800916 0.0168149 7.01104e-19 -0.0757759 -4.31145e-19 -0.0043157)
(0.0515246 0.0126524 -5.47181e-19 -0.0467604 2.64152e-18 -0.00476422)
(0.0287308 0.00893439 4.03995e-19 -0.0245397 4.68424e-19 -0.00419105)
(0.0162132 0.00657187 -2.26687e-19 -0.0142031 -1.27425e-18 -0.00201008)
(0.1299 0.0573231 -6.15831e-20 -0.128573 -2.62891e-19 -0.00132731)
(0.093646 0.0556151 2.36981e-19 -0.0907051 -3.25073e-18 -0.00294086)
(0.0625031 0.0457014 1.99292e-18 -0.0584765 -2.2191e-18 -0.00402659)
(0.0359324 0.0349383 2.92531e-18 -0.0314906 -3.19419e-18 -0.00444182)
(0.0153527 0.0252977 -2.80304e-18 -0.0114499 3.88432e-19 -0.00390283)
(0.00340887 0.0207325 -3.12841e-19 -0.00153987 2.34813e-18 -0.001869)
(0.105943 0.0855448 1.21401e-18 -0.104776 -5.08264e-18 -0.00116714)
(0.0631037 0.0765287 -3.99414e-18 -0.0605184 4.57359e-19 -0.00258528)
(0.0339208 0.0599239 -7.62182e-19 -0.0303822 -7.77904e-19 -0.00353861)
(0.0108475 0.0435749 -2.88293e-19 -0.00694598 1.04375e-18 -0.00390155)
(-0.00578267 0.0294247 7.70818e-18 0.00920872 3.2984e-18 -0.00342605)
(-0.0165259 0.0231185 1.24085e-18 0.0181659 -3.73217e-18 -0.00164002)
(0.077432 0.102609 9.98988e-19 -0.0764839 2.20651e-18 -0.000948048)
(0.0308804 0.0800133 2.69072e-18 -0.0287805 4.62558e-18 -0.00209986)
(0.00519878 0.0567398 3.84e-19 -0.00232586 -4.81689e-19 -0.00287292)
(-0.0134255 0.0359705 1.28804e-19 0.016591 2.52209e-18 -0.00316547)
(-0.0253017 0.0193831 -2.58878e-18 0.0280782 -7.07241e-18 -0.00277645)
(-0.034776 0.011197 -6.54599e-19 0.0361026 9.91377e-19 -0.00132662)
(0.0499287 0.109618 -3.43535e-18 -0.0492461 1.88894e-18 -0.000682574)
(0.00678691 0.0697205 7.58816e-19 -0.0052755 -2.79128e-18 -0.0015114)
(-0.0135395 0.0403473 -1.3706e-18 0.0156068 5.10672e-19 -0.00206728)
(-0.0270635 0.016455 2.14131e-18 0.02934 -7.42431e-19 -0.00227653)
(-0.0344882 -0.00076487 -3.32654e-19 0.0364839 1.49055e-18 -0.00199568)
(-0.0420316 -0.0106536 -1.76178e-18 0.0429841 1.64895e-18 -0.000952579)
(0.0267741 0.110357 8.20832e-19 -0.0263916 1.41157e-19 -0.000382429)
(-0.00406797 0.0543765 -7.95842e-19 0.00491468 6.07528e-19 -0.000846711)
(-0.0171989 0.0202761 -8.96188e-19 0.0183557 4.67492e-19 -0.0011568)
(-0.0253659 -0.00552723 -1.02653e-18 0.0266371 -6.7619e-19 -0.0012712)
(-0.0292249 -0.0224169 -1.07464e-18 0.0303352 -1.63175e-19 -0.00111027)
(-0.0341795 -0.0338416 1.00062e-18 0.0347057 -1.03347e-19 -0.000526196)
(0.0081438 0.109262 1.70085e-19 -0.00807968 -4.25299e-20 -6.41192e-05)
(-0.00308367 0.0435979 -3.0076e-20 0.00322492 -2.18988e-19 -0.000141258)
(-0.00765031 0.00690546 8.52286e-19 0.00784132 -3.9579e-19 -0.000191014)
(-0.0104069 -0.0197645 -3.77649e-20 0.0106124 -5.82598e-19 -0.000205424)
(-0.0116221 -0.0361749 -1.69573e-19 0.0117958 4.24974e-19 -0.000173699)
(-0.0133923 -0.0484891 1.69824e-19 0.0134695 9.60731e-21 -7.71849e-05)
(-0.00861375 0.109205 1.4816e-19 0.00835581 1.92116e-19 0.000257935)
(0.0026001 0.043544 -8.48123e-20 -0.00317213 9.18448e-20 0.000572026)
(0.00710569 0.00689286 2.65228e-19 -0.00789177 -5.70832e-19 0.000786084)
(0.00974794 -0.0197254 7.29535e-19 -0.0106213 -8.07254e-19 0.000873398)
(0.0108079 -0.0360593 3.37804e-20 -0.011584 -3.75428e-19 0.000776034)
(0.0123543 -0.0483369 -2.71876e-19 -0.0127336 -5.66236e-20 0.000379318)
(-0.0272225 0.11022 8.24234e-19 0.0266563 6.59646e-20 0.000566234)
(0.00363766 0.0542602 -1.74559e-18 -0.00489303 -5.60597e-19 0.00125537)
(0.0167146 0.0202532 -1.11344e-18 -0.0184365 -8.44129e-19 0.00172186)
(0.0247555 -0.00543818 -1.51966e-18 -0.0266617 -1.6283e-18 0.00190616)
(0.0284414 -0.0221091 7.76309e-19 -0.0301249 8.10699e-19 0.00168348)
(0.0330658 -0.0335272 1.20067e-18 -0.0338796 5.89251e-20 0.000813778)
(-0.0503087 0.109382 -3.4326e-18 0.0494622 -1.25001e-18 0.000846496)
(-0.00708653 0.0695423 7.84241e-19 0.00521031 2.97813e-18 0.00187622)
(0.0131816 0.0403213 -1.19028e-18 -0.0157542 2.02407e-19 0.00257251)
(0.0265832 0.0165722 2.03632e-20 -0.0294285 2.81561e-19 0.00284524)
(0.033745 -0.000310357 2.1253e-18 -0.0362543 -4.47103e-18 0.00250934)
(0.0409173 -0.0102875 -2.03281e-18 -0.042127 -9.33545e-19 0.00120971)
(-0.077757 0.102299 1.56976e-18 0.0766734 -1.9311e-18 0.00108358)
(-0.0310837 0.079811 4.50227e-18 0.0286818 -2.58869e-18 0.00240188)
(-0.00545618 0.0567161 -1.21854e-18 0.00216341 -4.03509e-19 0.00329277)
(0.0131001 0.0360976 2.12055e-18 -0.0167405 1.23996e-18 0.00364038)
(0.0246227 0.0199358 -7.45582e-18 -0.0278307 3.518e-18 0.00320792)
(0.0337788 0.0117145 1.45862e-19 -0.0353226 -4.45758e-19 0.00154375)
(-0.106182 0.0851986 2.24573e-18 0.104916 4.78114e-18 0.00126623)
(-0.063193 0.076385 -3.7594e-18 0.0603861 -9.23604e-20 0.00280685)
(-0.0340789 0.0599534 5.88336e-20 0.0302307 2.72399e-18 0.00384822)
(-0.0109528 0.0437802 -1.82025e-18 0.00669882 -2.30387e-18 0.00425399)
(0.00525891 0.0299732 2.26866e-18 -0.00900634 -2.34123e-19 0.00374743)
(0.0158923 0.0236403 2.2012e-18 -0.0176941 3.01847e-18 0.00180183)
(-0.130069 0.0569444 4.62276e-20 0.128684 -1.52516e-19 0.00138475)
(-0.0936739 0.0554923 1.07084e-18 0.0906039 1.36666e-18 0.00307001)
(-0.0625858 0.0457064 1.80268e-18 0.0583763 3.38149e-18 0.00420958)
(-0.0359373 0.0352279 -2.03451e-18 0.0312841 2.46554e-18 0.00465324)
(-0.0156397 0.0256738 1.13274e-19 0.0115408 1.57565e-18 0.00409887)
(-0.00389598 0.0212942 -6.92156e-19 0.00192642 -8.9531e-19 0.00196956)
(-0.14374 0.019992 -5.25365e-19 0.142307 -7.28592e-19 0.00143294)
(-0.112138 0.0202191 7.71451e-20 0.108959 -8.9766e-19 0.00317825)
(-0.0801549 0.016853 5.05347e-19 0.0757958 -1.16085e-18 0.00435918)
(-0.0515053 0.012991 -7.80317e-19 0.0466868 -2.56324e-19 0.00481853)
(-0.0287145 0.00923016 1.01245e-18 0.0244711 3.60803e-19 0.00424339)
(-0.0161439 0.00690612 -5.10776e-21 0.0141061 -6.52397e-19 0.00203777)
)
;

boundaryField
{
    out
    {
        type            mySigma;
    }
    in
    {
        type            mySigma;
    }
    frontAndBack
    {
        type            empty;
    }
}


// ************************************************************************* //
