/*--------------------------------*- C++ -*----------------------------------*\
| =========                 |                                                 |
| \\      /  F ield         | foam-extend: Open Source CFD                    |
|  \\    /   O peration     | Version:  3.0                                   |
|   \\  /    A nd           | Web:         http://www.extend-project.de       |
|    \\/     M anipulation  |                                                 |
\*---------------------------------------------------------------------------*/
FoamFile
{
    version     2.0;
    format      ascii;
    class       volVectorField;
    location    "7";
    object      u;
}
// * * * * * * * * * * * * * * * * * * * * * * * * * * * * * * * * * * * * * //

dimensions      [0 0 0 0 0 0 0];

internalField   nonuniform List<vector> 
168
(
(0.605313 -0.141742 -1.02688e-17)
(0.596161 -0.0757841 4.55147e-17)
(1.01588 -0.0488472 -6.75837e-17)
(0.842915 -0.0269402 8.25351e-17)
(1.13125 -0.00711678 -5.04326e-17)
(0.878122 -0.00749439 6.44952e-17)
(0.729661 -0.401178 -6.23905e-17)
(0.663902 -0.217122 -1.04467e-16)
(1.05877 -0.13768 1.6318e-17)
(0.86675 -0.0759539 -2.13582e-16)
(1.1369 -0.0179495 4.7127e-17)
(0.88075 -0.00937521 1.75279e-17)
(0.953716 -0.580896 -2.26242e-16)
(0.78557 -0.313563 3.04304e-16)
(1.13509 -0.1984 -6.49913e-19)
(0.909353 -0.109221 3.31192e-16)
(1.14631 -0.0252233 -1.24246e-16)
(0.884319 -0.0101966 -1.11505e-16)
(1.23401 -0.64541 5.18888e-16)
(0.938142 -0.349161 -3.38684e-16)
(1.23131 -0.220433 2.55326e-17)
(0.962588 -0.12141 -2.3849e-16)
(1.15856 -0.027707 7.53641e-18)
(0.887909 -0.00965899 2.22939e-16)
(1.51418 -0.581981 -1.98703e-16)
(1.0899 -0.314037 1.38062e-16)
(1.32653 -0.198476 1.11273e-16)
(1.01553 -0.108892 6.57037e-17)
(1.17036 -0.0249759 5.30656e-17)
(0.891361 -0.00752387 -1.12437e-16)
(1.73948 -0.40294 2.21435e-17)
(1.21279 -0.217325 -4.53875e-17)
(1.40403 -0.137083 -5.93259e-17)
(1.05844 -0.0750862 -2.26275e-17)
(1.18048 -0.0170366 5.4771e-19)
(0.893656 -0.00441644 2.14779e-17)
(1.86458 -0.143961 -1.19765e-17)
(1.28028 -0.076692 2.30513e-17)
(1.44628 -0.048941 9.67033e-18)
(1.08187 -0.0261219 1.81395e-17)
(1.18599 -0.00637441 1.32184e-17)
(0.894532 -0.000652391 -2.01319e-17)
(1.86518 0.143987 7.351e-18)
(1.281 0.0794702 -3.653e-17)
(1.44684 0.0502355 -1.23795e-17)
(1.08233 0.0286082 -2.7548e-17)
(1.18677 0.00680609 1.33401e-17)
(0.894749 0.00316582 -9.77878e-18)
(1.74083 0.403657 -2.90321e-17)
(1.21358 0.219825 6.05656e-17)
(1.4044 0.137806 -3.55582e-18)
(1.05873 0.0765922 8.0811e-17)
(1.18187 0.0172246 -1.52321e-17)
(0.892877 0.00449892 -1.4022e-17)
(1.51607 0.583667 2.06163e-16)
(1.09092 0.31779 -2.18232e-16)
(1.32683 0.200824 -8.64945e-18)
(1.01599 0.112132 -2.18787e-16)
(1.17153 0.026508 6.809e-17)
(0.893582 0.0102775 7.38774e-17)
(1.23597 0.648997 -5.17562e-16)
(0.940068 0.352944 3.50698e-16)
(1.23208 0.222367 -2.0599e-17)
(0.963571 0.122665 2.51964e-16)
(1.1589 0.0302179 -2.73297e-17)
(0.890841 0.00519403 -2.23304e-16)
(0.955129 0.585297 2.22888e-16)
(0.786027 0.317868 -1.61515e-16)
(1.13451 0.200974 -1.65558e-16)
(0.910236 0.113783 -7.81285e-17)
(1.1445 0.0242474 -9.89773e-17)
(0.890298 0.0175502 1.97847e-16)
(0.729913 0.40784 8.03787e-17)
(0.66462 0.222806 4.58675e-17)
(1.05709 0.141544 1.92917e-16)
(0.866793 0.0780712 3.93388e-18)
(1.13111 0.0213983 3.76637e-17)
(0.884871 0.00727054 -3.9248e-17)
(0.604523 0.148766 6.85226e-18)
(0.59627 0.0812653 -2.87143e-17)
(1.01415 0.0519397 -1.44183e-17)
(0.844013 0.0357056 -9.00795e-19)
(1.12404 0.00384358 -4.17706e-17)
(0.883688 0.0144809 8.44024e-17)
(0.604586 -0.137786 1.03525e-17)
(0.595272 -0.0726789 -4.49406e-17)
(1.0145 -0.0450951 6.78941e-17)
(0.841108 -0.0199476 -8.17838e-17)
(1.13122 -0.00544781 5.03841e-17)
(0.874907 0.00187951 -6.49812e-17)
(0.729171 -0.397528 6.25118e-17)
(0.663725 -0.214182 1.03431e-16)
(1.05952 -0.133335 -1.66145e-17)
(0.865246 -0.0678759 2.12401e-16)
(1.13989 -0.0167662 -4.70748e-17)
(0.876362 0.0072009 -1.61493e-17)
(0.953905 -0.577327 2.25588e-16)
(0.784245 -0.311896 -3.02543e-16)
(1.1347 -0.195042 4.74289e-19)
(0.905289 -0.104605 -3.29153e-16)
(1.15035 -0.0223933 1.23706e-16)
(0.871615 0.000136167 1.09149e-16)
(1.23416 -0.642126 -5.18017e-16)
(0.93614 -0.346756 3.36713e-16)
(1.23055 -0.216003 -2.55543e-17)
(0.959268 -0.117938 2.3685e-16)
(1.16014 -0.0226153 -8.06655e-18)
(0.872928 -0.000767488 -2.18831e-16)
(1.5148 -0.57948 1.98439e-16)
(1.0881 -0.313345 -1.36945e-16)
(1.32516 -0.196253 -1.10122e-16)
(1.01152 -0.107507 -6.51425e-17)
(1.1687 -0.0221139 -5.1886e-17)
(0.87449 -0.00259622 1.09504e-16)
(1.73968 -0.4008 -2.22581e-17)
(1.2088 -0.216447 4.47785e-17)
(1.40093 -0.135159 5.83321e-17)
(1.05368 -0.0745563 2.21328e-17)
(1.17562 -0.0144768 -8.52197e-19)
(0.878845 -0.00402017 -2.06146e-17)
(1.86527 -0.142716 1.20814e-17)
(1.27737 -0.0765985 -2.26038e-17)
(1.4439 -0.0479776 -9.14851e-18)
(1.0774 -0.0261105 -1.7854e-17)
(1.18 -0.00544088 -1.2711e-17)
(0.880919 -0.00131948 1.91527e-17)
(1.86551 0.144503 -7.41281e-18)
(1.27647 0.0786488 3.60429e-17)
(1.4433 0.0494826 1.19996e-17)
(1.07709 0.0273363 2.70262e-17)
(1.17979 0.00558136 -1.33925e-17)
(0.882417 0.000474118 1.021e-17)
(1.74171 0.403287 2.88336e-17)
(1.21009 0.219208 -5.97719e-17)
(1.40166 0.13746 3.71389e-18)
(1.05404 0.0761315 -7.98827e-17)
(1.17533 0.0157504 1.5211e-17)
(0.881361 0.00250121 1.31884e-17)
(1.51704 0.582622 -2.05536e-16)
(1.08785 0.315832 2.16742e-16)
(1.32481 0.198053 8.65097e-18)
(1.01181 0.109382 2.16902e-16)
(1.16655 0.0228497 -6.7934e-17)
(0.879793 0.00293769 -7.19928e-17)
(1.23728 0.647058 5.16606e-16)
(0.937065 0.351289 -3.48801e-16)
(1.23013 0.220101 2.06812e-17)
(0.959722 0.121569 -2.50168e-16)
(1.15578 0.0254868 2.78549e-17)
(0.877863 0.00219389 2.19652e-16)
(0.956627 0.583301 -2.22511e-16)
(0.785005 0.316099 1.60471e-16)
(1.13451 0.197793 1.64435e-16)
(0.907275 0.109157 7.7655e-17)
(1.14458 0.0226518 9.76695e-17)
(0.876497 0.000392246 -1.94771e-16)
(0.731528 0.404736 -8.0273e-17)
(0.663814 0.220073 -4.52758e-17)
(1.05832 0.137373 -1.9186e-16)
(0.865632 0.0757855 -3.40936e-18)
(1.13578 0.0154598 -3.7288e-17)
(0.875957 -0.00212688 3.84216e-17)
(0.606141 0.145606 -7.00003e-18)
(0.596157 0.079046 2.82195e-17)
(1.01582 0.0484981 1.37322e-17)
(0.842515 0.0267185 6.88192e-19)
(1.13095 0.00453209 4.10898e-17)
(0.876449 -0.00485252 -8.30765e-17)
)
;

boundaryField
{
    out
    {
        type            fixedValue;
        value           uniform (1 0 0);
    }
    in
    {
        type            myVelocity;
    }
    frontAndBack
    {
        type            empty;
    }
}


// ************************************************************************* //
