/*--------------------------------*- C++ -*----------------------------------*\
| =========                 |                                                 |
| \\      /  F ield         | foam-extend: Open Source CFD                    |
|  \\    /   O peration     | Version:  3.0                                   |
|   \\  /    A nd           | Web:         http://www.extend-project.de       |
|    \\/     M anipulation  |                                                 |
\*---------------------------------------------------------------------------*/
FoamFile
{
    version     2.0;
    format      ascii;
    class       volScalarField;
    location    "34";
    object      p;
}
// * * * * * * * * * * * * * * * * * * * * * * * * * * * * * * * * * * * * * //

dimensions      [0 0 0 0 0 0 0];

internalField   nonuniform List<scalar> 
7680
(
-0.236218
-0.224056
-0.215041
-0.205514
-0.198609
-0.191026
-0.18569
-0.179587
-0.175445
-0.170491
-0.167274
-0.16323
-0.160739
-0.157422
-0.155504
-0.152771
-0.151305
-0.149042
-0.147928
-0.146039
-0.145192
-0.143596
-0.142939
-0.141563
-0.141026
-0.139802
-0.139318
-0.138182
-0.137684
-0.136577
-0.135997
-0.134866
-0.134143
-0.13295
-0.132037
-0.130787
-0.129687
-0.12847
-0.127284
-0.126285
-0.236515
-0.224326
-0.215293
-0.205746
-0.19883
-0.191234
-0.185891
-0.179779
-0.175633
-0.170674
-0.167456
-0.163409
-0.160918
-0.157601
-0.155684
-0.152953
-0.151488
-0.149229
-0.148116
-0.146233
-0.145386
-0.143797
-0.143141
-0.141771
-0.141235
-0.140017
-0.139531
-0.138399
-0.137895
-0.136785
-0.136192
-0.135042
-0.134289
-0.133055
-0.132083
-0.130762
-0.129569
-0.128298
-0.127072
-0.126276
-0.235425
-0.223299
-0.214312
-0.204813
-0.197931
-0.190372
-0.185055
-0.178971
-0.174844
-0.169908
-0.166704
-0.162674
-0.160195
-0.15689
-0.154982
-0.152261
-0.150804
-0.148552
-0.147446
-0.145568
-0.144729
-0.143143
-0.142495
-0.141128
-0.1406
-0.139384
-0.138906
-0.137775
-0.137278
-0.136165
-0.135572
-0.134412
-0.133641
-0.132376
-0.131341
-0.129952
-0.128588
-0.127205
-0.125623
-0.12504
-0.235279
-0.223146
-0.214158
-0.204657
-0.197777
-0.19022
-0.184905
-0.178825
-0.174702
-0.169771
-0.166572
-0.162549
-0.160074
-0.156777
-0.154874
-0.152162
-0.15071
-0.148467
-0.147367
-0.1455
-0.144666
-0.143093
-0.14245
-0.141097
-0.140576
-0.139374
-0.138905
-0.137789
-0.137302
-0.136203
-0.135622
-0.134473
-0.133714
-0.13245
-0.131421
-0.13001
-0.128635
-0.127181
-0.12554
-0.124775
-0.233626
-0.221586
-0.212665
-0.203236
-0.196407
-0.188905
-0.183629
-0.177592
-0.173498
-0.1686
-0.165423
-0.161426
-0.158968
-0.155691
-0.153801
-0.151104
-0.149663
-0.147433
-0.146341
-0.144484
-0.143659
-0.142094
-0.141462
-0.140117
-0.139608
-0.138417
-0.137965
-0.136861
-0.136399
-0.135318
-0.134774
-0.133649
-0.132947
-0.131715
-0.130781
-0.129405
-0.128202
-0.126739
-0.125366
-0.124077
-0.233035
-0.221011
-0.212106
-0.202693
-0.195878
-0.188392
-0.183129
-0.177107
-0.173025
-0.168143
-0.164976
-0.160994
-0.158546
-0.155284
-0.153404
-0.150721
-0.149289
-0.147073
-0.145991
-0.144149
-0.143334
-0.141785
-0.141163
-0.139836
-0.13934
-0.138168
-0.137733
-0.136653
-0.136214
-0.135161
-0.13465
-0.13356
-0.132906
-0.131715
-0.130847
-0.129499
-0.128359
-0.12682
-0.125371
-0.123577
-0.230825
-0.218925
-0.210109
-0.200791
-0.194044
-0.186631
-0.181419
-0.175455
-0.171411
-0.166574
-0.163436
-0.159489
-0.157063
-0.153828
-0.151964
-0.149303
-0.147884
-0.145685
-0.144614
-0.142786
-0.14198
-0.140444
-0.139833
-0.138518
-0.138036
-0.136879
-0.136465
-0.135404
-0.134997
-0.133972
-0.133512
-0.132459
-0.131885
-0.130738
-0.129989
-0.128666
-0.127675
-0.126031
-0.124645
-0.122235
-0.229793
-0.21793
-0.209147
-0.199862
-0.193142
-0.185759
-0.18057
-0.174633
-0.17061
-0.165796
-0.162676
-0.158751
-0.156341
-0.153127
-0.151277
-0.148636
-0.147229
-0.145049
-0.14399
-0.14218
-0.141387
-0.139869
-0.13927
-0.137976
-0.137508
-0.136373
-0.135975
-0.13494
-0.134555
-0.13356
-0.133129
-0.13211
-0.131573
-0.130456
-0.129743
-0.128418
-0.12742
-0.125661
-0.124126
-0.121341
-0.227037
-0.215328
-0.206656
-0.197489
-0.190852
-0.183561
-0.178435
-0.17257
-0.168594
-0.163837
-0.160752
-0.156872
-0.154488
-0.151309
-0.149478
-0.146864
-0.145472
-0.143314
-0.142266
-0.140474
-0.139689
-0.138187
-0.137598
-0.136317
-0.135861
-0.13474
-0.13436
-0.133342
-0.132982
-0.132008
-0.131615
-0.130621
-0.130135
-0.129037
-0.128379
-0.127041
-0.126074
-0.124212
-0.12261
-0.119587
-0.225567
-0.213917
-0.205293
-0.196178
-0.189581
-0.182333
-0.177241
-0.171413
-0.167465
-0.162741
-0.159681
-0.15583
-0.153467
-0.150314
-0.148502
-0.145912
-0.144536
-0.1424
-0.141366
-0.139595
-0.138824
-0.137341
-0.136764
-0.135503
-0.135059
-0.133958
-0.133589
-0.132591
-0.132243
-0.131289
-0.130905
-0.129927
-0.129444
-0.128351
-0.127677
-0.126316
-0.125287
-0.123359
-0.121637
-0.118561
-0.222277
-0.21081
-0.20232
-0.193344
-0.186847
-0.179708
-0.174691
-0.168949
-0.165057
-0.160401
-0.157383
-0.153585
-0.151253
-0.148142
-0.146352
-0.143796
-0.142436
-0.140326
-0.139303
-0.137553
-0.136789
-0.135323
-0.134753
-0.133505
-0.133067
-0.131978
-0.131617
-0.13063
-0.130292
-0.129347
-0.128976
-0.128005
-0.127534
-0.12644
-0.125769
-0.124394
-0.123351
-0.121409
-0.119667
-0.116673
-0.220373
-0.208989
-0.200562
-0.191655
-0.18521
-0.178129
-0.173155
-0.167461
-0.163606
-0.158991
-0.156003
-0.152242
-0.149935
-0.146857
-0.145089
-0.142561
-0.141219
-0.139135
-0.138127
-0.1364
-0.13565
-0.134204
-0.133645
-0.132415
-0.131985
-0.130912
-0.130555
-0.129581
-0.129241
-0.128305
-0.127924
-0.126954
-0.126461
-0.12536
-0.124651
-0.123267
-0.122174
-0.120256
-0.118497
-0.115663
-0.216566
-0.205392
-0.19712
-0.188374
-0.182044
-0.17509
-0.170202
-0.164608
-0.160817
-0.156282
-0.153342
-0.149643
-0.147372
-0.144342
-0.1426
-0.14011
-0.138786
-0.136732
-0.135736
-0.134032
-0.133289
-0.131861
-0.131304
-0.130088
-0.129658
-0.128594
-0.128235
-0.127265
-0.126921
-0.125985
-0.125597
-0.124624
-0.124118
-0.123015
-0.12229
-0.120919
-0.119824
-0.11798
-0.116283
-0.113687
-0.214236
-0.203166
-0.194974
-0.186314
-0.180049
-0.173165
-0.16833
-0.162795
-0.159048
-0.154563
-0.151659
-0.148003
-0.145762
-0.14277
-0.141052
-0.138595
-0.137291
-0.135266
-0.134287
-0.132608
-0.131878
-0.130471
-0.129924
-0.128725
-0.1283
-0.127248
-0.126888
-0.125926
-0.125573
-0.124638
-0.124229
-0.123252
-0.122715
-0.121609
-0.120848
-0.119495
-0.118383
-0.116626
-0.114989
-0.112645
-0.209928
-0.199096
-0.191078
-0.182601
-0.176466
-0.169725
-0.164988
-0.159566
-0.155892
-0.151496
-0.148647
-0.145062
-0.142861
-0.139925
-0.138236
-0.135823
-0.134539
-0.132548
-0.131581
-0.129927
-0.129204
-0.127816
-0.12727
-0.126084
-0.125656
-0.124612
-0.124244
-0.123284
-0.122919
-0.121981
-0.121556
-0.120575
-0.120019
-0.118917
-0.118143
-0.116827
-0.115734
-0.114098
-0.112568
-0.110517
-0.207181
-0.196475
-0.188553
-0.180178
-0.174119
-0.167462
-0.162786
-0.157435
-0.153811
-0.149474
-0.146666
-0.143131
-0.140964
-0.13807
-0.136409
-0.134033
-0.132772
-0.130812
-0.129864
-0.128237
-0.127527
-0.126162
-0.125625
-0.124457
-0.124033
-0.123001
-0.122631
-0.121677
-0.121301
-0.120365
-0.11992
-0.118938
-0.118355
-0.117258
-0.116461
-0.11518
-0.114093
-0.112569
-0.111128
-0.109343
-0.202391
-0.19195
-0.184221
-0.176049
-0.170135
-0.163637
-0.159071
-0.153845
-0.150303
-0.146066
-0.143319
-0.139863
-0.137741
-0.13491
-0.133281
-0.130954
-0.129715
-0.127793
-0.126858
-0.125261
-0.124558
-0.123214
-0.122679
-0.121526
-0.121098
-0.120076
-0.119697
-0.118748
-0.118359
-0.117424
-0.116963
-0.115984
-0.115386
-0.114304
-0.113504
-0.112273
-0.111217
-0.109822
-0.108494
-0.106986
-0.199238
-0.188944
-0.181325
-0.173272
-0.167446
-0.161045
-0.156549
-0.151402
-0.147918
-0.143747
-0.141047
-0.137647
-0.135563
-0.13278
-0.131182
-0.128895
-0.127681
-0.125794
-0.124879
-0.123311
-0.122624
-0.121304
-0.12078
-0.119646
-0.119225
-0.118217
-0.117839
-0.1169
-0.116506
-0.115578
-0.115106
-0.114133
-0.113521
-0.112454
-0.111647
-0.110456
-0.109419
-0.108124
-0.10688
-0.105591
-0.193988
-0.183983
-0.176577
-0.168747
-0.16308
-0.156853
-0.152476
-0.147468
-0.144074
-0.140012
-0.13738
-0.134067
-0.132033
-0.129319
-0.127757
-0.125525
-0.124335
-0.122491
-0.121592
-0.120057
-0.119379
-0.118085
-0.117563
-0.116449
-0.116026
-0.115033
-0.11465
-0.113722
-0.113321
-0.112404
-0.111924
-0.110965
-0.11035
-0.109308
-0.10851
-0.107371
-0.106371
-0.105182
-0.104032
-0.102946
-0.190441
-0.180604
-0.173323
-0.165627
-0.160059
-0.153941
-0.149643
-0.144724
-0.141394
-0.137407
-0.134825
-0.131575
-0.129582
-0.126921
-0.125392
-0.123205
-0.122042
-0.120236
-0.119359
-0.117856
-0.117195
-0.115928
-0.11542
-0.114329
-0.113916
-0.112943
-0.112567
-0.111657
-0.11126
-0.110358
-0.109883
-0.10894
-0.108329
-0.10731
-0.106521
-0.105419
-0.104445
-0.103323
-0.102231
-0.101268
-0.184755
-0.175231
-0.16818
-0.160725
-0.155329
-0.1494
-0.145232
-0.140463
-0.137231
-0.133363
-0.130855
-0.1277
-0.125762
-0.123177
-0.121687
-0.119561
-0.118426
-0.116668
-0.115808
-0.114344
-0.113694
-0.112458
-0.111955
-0.11089
-0.110479
-0.109527
-0.109153
-0.108262
-0.107868
-0.106988
-0.106519
-0.105602
-0.105005
-0.10402
-0.103255
-0.102201
-0.101265
-0.100209
-0.0991787
-0.0983101
-0.180828
-0.171491
-0.16458
-0.157274
-0.151988
-0.14618
-0.142099
-0.137429
-0.134266
-0.13048
-0.128028
-0.124941
-0.123047
-0.120519
-0.119066
-0.116988
-0.115882
-0.114165
-0.113329
-0.1119
-0.111269
-0.110064
-0.109578
-0.108539
-0.108143
-0.107217
-0.106857
-0.105992
-0.105614
-0.10476
-0.104309
-0.103421
-0.102847
-0.101892
-0.101156
-0.100131
-0.0992257
-0.0981927
-0.0971863
-0.0963233
-0.174731
-0.16573
-0.159064
-0.152017
-0.146915
-0.14131
-0.137369
-0.13286
-0.129803
-0.126145
-0.123773
-0.120789
-0.118955
-0.11651
-0.1151
-0.113088
-0.112012
-0.110349
-0.109534
-0.108148
-0.107531
-0.106361
-0.105885
-0.104877
-0.104488
-0.10359
-0.103239
-0.102403
-0.102037
-0.101216
-0.100785
-0.0999356
-0.0993917
-0.09848
-0.0977827
-0.0967997
-0.0959355
-0.0949265
-0.0939462
-0.093061
-0.170441
-0.161646
-0.155133
-0.14825
-0.143268
-0.137795
-0.133948
-0.129547
-0.126565
-0.122996
-0.120684
-0.117773
-0.115987
-0.113603
-0.112231
-0.110271
-0.109226
-0.107607
-0.106817
-0.105469
-0.104873
-0.103737
-0.103279
-0.102302
-0.101932
-0.101064
-0.100733
-0.0999286
-0.0995884
-0.0988016
-0.0984041
-0.0975921
-0.0970894
-0.0962153
-0.0955637
-0.0946057
-0.0937778
-0.0927538
-0.0917691
-0.0907814
-0.163959
-0.15552
-0.149269
-0.142661
-0.137875
-0.132618
-0.12892
-0.12469
-0.121821
-0.11839
-0.116163
-0.113364
-0.111641
-0.109346
-0.108022
-0.106133
-0.105123
-0.103562
-0.102796
-0.101496
-0.100916
-0.0998204
-0.0993749
-0.0984335
-0.0980743
-0.0972411
-0.0969232
-0.0961549
-0.095834
-0.0950886
-0.0947206
-0.0939569
-0.0934963
-0.0926742
-0.0920746
-0.0911582
-0.0903773
-0.0893489
-0.0883674
-0.0872656
-0.159323
-0.151108
-0.145023
-0.138592
-0.133936
-0.128821
-0.125226
-0.121111
-0.118323
-0.114986
-0.112824
-0.110102
-0.10843
-0.106201
-0.104917
-0.103083
-0.102105
-0.10059
-0.0998505
-0.0985899
-0.0980325
-0.0969719
-0.0965465
-0.0956376
-0.0952988
-0.0944978
-0.0942033
-0.0934692
-0.0931783
-0.0924713
-0.0921433
-0.0914228
-0.0910143
-0.090236
-0.0896968
-0.088808
-0.0880767
-0.0870174
-0.0860249
-0.0847514
-0.152485
-0.144645
-0.138836
-0.132695
-0.128246
-0.123359
-0.119921
-0.115989
-0.11332
-0.11013
-0.108058
-0.105454
-0.103851
-0.101717
-0.100484
-0.0987272
-0.0977865
-0.0963343
-0.0956217
-0.0944133
-0.093875
-0.0928586
-0.0924476
-0.091578
-0.0912521
-0.0904886
-0.0902088
-0.0895139
-0.0892435
-0.088581
-0.0882838
-0.0876155
-0.087252
-0.0865317
-0.0860514
-0.0852124
-0.0845396
-0.0834781
-0.0824946
-0.0810697
-0.147523
-0.139923
-0.134292
-0.128341
-0.124031
-0.119297
-0.115967
-0.112158
-0.109575
-0.106485
-0.104481
-0.10196
-0.100411
-0.0983448
-0.097154
-0.0954546
-0.0945471
-0.0931429
-0.0924571
-0.0912895
-0.0907734
-0.0897927
-0.0894012
-0.0885642
-0.0882574
-0.0875254
-0.0872672
-0.0866047
-0.0863617
-0.085735
-0.0854748
-0.0848476
-0.0845348
-0.0838597
-0.0834452
-0.0826439
-0.0820403
-0.0809679
-0.0800062
-0.0784116
-0.140358
-0.133151
-0.127809
-0.122161
-0.118069
-0.113573
-0.11041
-0.106791
-0.104335
-0.101399
-0.0994913
-0.0970945
-0.095618
-0.0936531
-0.0925171
-0.0908999
-0.0900329
-0.0886962
-0.0880397
-0.0869281
-0.0864332
-0.0854999
-0.0851242
-0.0843285
-0.0840346
-0.0833408
-0.0830952
-0.0824707
-0.082243
-0.0816571
-0.0814186
-0.0808383
-0.0805583
-0.079939
-0.0795734
-0.0788337
-0.0782951
-0.0772617
-0.0763506
-0.0746652
-0.13509
-0.12814
-0.122987
-0.117541
-0.113595
-0.109262
-0.106213
-0.102725
-0.100358
-0.0975284
-0.0956916
-0.0933821
-0.091961
-0.0900678
-0.0889751
-0.0874173
-0.0865841
-0.0852967
-0.0846668
-0.0835967
-0.0831229
-0.082225
-0.0818669
-0.0811023
-0.0808242
-0.0801587
-0.0799289
-0.0793314
-0.0791216
-0.0785628
-0.0783473
-0.0777964
-0.0775489
-0.0769643
-0.0766481
-0.0759515
-0.0754875
-0.0744952
-0.0736703
-0.0719365
-0.12763
-0.121088
-0.116234
-0.111105
-0.107386
-0.103302
-0.100426
-0.0971369
-0.0949033
-0.092234
-0.0904989
-0.0883196
-0.086976
-0.085189
-0.0841549
-0.082684
-0.0818944
-0.0806786
-0.0800807
-0.07907
-0.0786194
-0.0777715
-0.0774301
-0.0767083
-0.0764424
-0.0758145
-0.0755938
-0.0750304
-0.0748275
-0.0743011
-0.0740906
-0.0735728
-0.0733299
-0.0727844
-0.0724779
-0.0718391
-0.0714065
-0.0705114
-0.069768
-0.068159
-0.12208
-0.115807
-0.111154
-0.106238
-0.102673
-0.0987585
-0.0960027
-0.0928512
-0.0907116
-0.0881536
-0.086492
-0.0844036
-0.0831172
-0.0814047
-0.0804148
-0.0790051
-0.0782495
-0.0770841
-0.0765121
-0.0755431
-0.0751123
-0.0742991
-0.0739727
-0.0732802
-0.0730258
-0.0724225
-0.0722107
-0.0716678
-0.0714714
-0.0709613
-0.0707548
-0.0702494
-0.0700084
-0.0694746
-0.0691736
-0.06856
-0.0681583
-0.0673437
-0.0667113
-0.0653008
-0.114356
-0.108505
-0.104162
-0.0995725
-0.0962427
-0.0925867
-0.0900108
-0.087066
-0.0850648
-0.0826739
-0.0811186
-0.0791662
-0.0779614
-0.07636
-0.0754322
-0.0741138
-0.0734049
-0.0723151
-0.0717778
-0.0708716
-0.0704662
-0.0697057
-0.0693975
-0.0687496
-0.0685077
-0.0679423
-0.0677378
-0.0672269
-0.0670319
-0.0665478
-0.0663337
-0.065848
-0.0655849
-0.0650667
-0.0647224
-0.0641362
-0.0636755
-0.0629691
-0.0623347
-0.0613557
-0.108546
-0.102978
-0.098845
-0.0944782
-0.0913097
-0.0878314
-0.0853808
-0.0825791
-0.0806754
-0.0784005
-0.0769211
-0.075063
-0.0739168
-0.0723923
-0.0715094
-0.0702538
-0.0695789
-0.0685402
-0.0680282
-0.0671638
-0.0667767
-0.0660504
-0.065755
-0.065135
-0.0649015
-0.0643586
-0.0641583
-0.0636646
-0.063469
-0.0629963
-0.062775
-0.0622934
-0.0620129
-0.0614915
-0.0611166
-0.0605309
-0.0600394
-0.0594001
-0.0588296
-0.0582097
-0.100592
-0.0954569
-0.0916428
-0.0876122
-0.0846861
-0.0814739
-0.0792092
-0.0766209
-0.0748607
-0.0727586
-0.07139
-0.0696729
-0.068612
-0.0672033
-0.0663858
-0.0652257
-0.0646006
-0.0636413
-0.0631668
-0.0623687
-0.0620097
-0.0613392
-0.0610647
-0.0604921
-0.0602738
-0.0597714
-0.0595816
-0.0591225
-0.0589323
-0.0584886
-0.0582656
-0.0578071
-0.0575124
-0.057008
-0.0565939
-0.0560233
-0.0554426
-0.0548561
-0.0541421
-0.0539624
-0.0945483
-0.0897079
-0.0861116
-0.0823128
-0.0795542
-0.0765266
-0.0743917
-0.0719518
-0.0702923
-0.0683102
-0.0670196
-0.0653997
-0.0643988
-0.063069
-0.062297
-0.061201
-0.0606097
-0.0597022
-0.0592523
-0.0584963
-0.0581544
-0.057518
-0.057255
-0.0567101
-0.0564986
-0.0560191
-0.0558325
-0.0553924
-0.0552026
-0.0547752
-0.0545502
-0.0541071
-0.0538085
-0.0533227
-0.0529055
-0.0523671
-0.0517928
-0.0512812
-0.0506137
-0.0506387
-0.0863974
-0.081999
-0.0787295
-0.0752749
-0.0727648
-0.0700101
-0.0680663
-0.0658456
-0.064334
-0.0625298
-0.0613538
-0.0598795
-0.0589675
-0.0577575
-0.0570542
-0.0560575
-0.055519
-0.0546945
-0.0542852
-0.0535988
-0.0532883
-0.0527112
-0.0524726
-0.051979
-0.0517875
-0.0513532
-0.0511842
-0.0507857
-0.0506135
-0.0502268
-0.0500235
-0.0496248
-0.0493601
-0.0489312
-0.0485793
-0.0481276
-0.0476951
-0.047316
-0.0469336
-0.0469332
-0.0801456
-0.0760525
-0.0730082
-0.0697932
-0.0674562
-0.0648921
-0.0630821
-0.0610144
-0.0596064
-0.0579255
-0.0568295
-0.055455
-0.0546039
-0.0534747
-0.0528172
-0.0518856
-0.0513809
-0.0506088
-0.0502234
-0.0495794
-0.0492852
-0.0487424
-0.0485144
-0.0480491
-0.0478642
-0.0474543
-0.04729
-0.0469145
-0.0467476
-0.0463859
-0.0461924
-0.0458262
-0.0455823
-0.0452016
-0.0448921
-0.0445124
-0.0441512
-0.0438495
-0.0435249
-0.0434736
-0.0718322
-0.0681886
-0.0654773
-0.0626128
-0.0605295
-0.0582437
-0.0566292
-0.0547856
-0.0535292
-0.0520306
-0.0510526
-0.0498275
-0.0490684
-0.0480627
-0.0474768
-0.046648
-0.046199
-0.0455132
-0.0451714
-0.0446004
-0.0443407
-0.0438608
-0.0436611
-0.043251
-0.0430911
-0.0427316
-0.0425921
-0.0422651
-0.0421272
-0.0418161
-0.0416623
-0.041354
-0.0411712
-0.0408617
-0.0406494
-0.0403533
-0.0401376
-0.0398907
-0.0397192
-0.0394878
-0.0654001
-0.0620705
-0.0595908
-0.0569727
-0.0550672
-0.0529772
-0.0515
-0.0498133
-0.0486629
-0.0472907
-0.0463941
-0.045271
-0.0445738
-0.0436502
-0.0431105
-0.0423477
-0.0419322
-0.0412994
-0.040981
-0.0404526
-0.0402084
-0.039763
-0.0395731
-0.0391918
-0.0390382
-0.0387042
-0.03857
-0.0382684
-0.038138
-0.0378559
-0.0377157
-0.0374444
-0.0372859
-0.037024
-0.0368489
-0.0366054
-0.0364287
-0.0362055
-0.0360304
-0.0357167
-0.0569591
-0.0540845
-0.0519424
-0.0496797
-0.0480319
-0.0462246
-0.0449464
-0.0434875
-0.042492
-0.0413055
-0.0405298
-0.0395594
-0.0389569
-0.0381598
-0.0376943
-0.0370373
-0.0366802
-0.0361364
-0.0358643
-0.0354119
-0.0352052
-0.0348256
-0.0346674
-0.0343446
-0.0342198
-0.0339398
-0.0338351
-0.0335856
-0.0334893
-0.0332608
-0.0331641
-0.0329501
-0.0328492
-0.0326477
-0.0325449
-0.0323538
-0.0322512
-0.0320428
-0.0319042
-0.0315332
-0.0503749
-0.0478217
-0.0459166
-0.043906
-0.0424398
-0.0408328
-0.0396947
-0.0383961
-0.0375086
-0.0364509
-0.035758
-0.0348913
-0.0343513
-0.0336376
-0.0332184
-0.0326282
-0.0323043
-0.031814
-0.0315647
-0.0311549
-0.0309629
-0.0306177
-0.0304683
-0.030174
-0.0300545
-0.0297997
-0.0296991
-0.0294744
-0.0293835
-0.0291819
-0.0290944
-0.0289114
-0.0288241
-0.0286565
-0.0285678
-0.0284055
-0.0283051
-0.0281069
-0.027945
-0.0275859
-0.0418416
-0.0397469
-0.0381827
-0.0365307
-0.0353252
-0.0340038
-0.0330673
-0.0319995
-0.0312692
-0.0303999
-0.0298302
-0.0291187
-0.0286756
-0.0280909
-0.0277481
-0.0272661
-0.0270027
-0.0266039
-0.0264032
-0.0260717
-0.0259196
-0.0256425
-0.0255272
-0.0252935
-0.0252051
-0.0250059
-0.0249363
-0.0247645
-0.0247076
-0.0245578
-0.0245097
-0.0243783
-0.0243366
-0.0242177
-0.0241772
-0.0240546
-0.0239952
-0.0238229
-0.023687
-0.0233703
-0.0351345
-0.0333671
-0.0320441
-0.0306488
-0.0296282
-0.0285106
-0.0277165
-0.0268116
-0.0261909
-0.0254525
-0.0249665
-0.0243602
-0.0239801
-0.0234797
-0.0231834
-0.0227686
-0.0225383
-0.022193
-0.0220145
-0.0217255
-0.0215872
-0.021344
-0.0212364
-0.0210304
-0.0209455
-0.0207702
-0.020702
-0.0205523
-0.0204966
-0.0203694
-0.0203238
-0.0202165
-0.0201788
-0.0200857
-0.0200492
-0.0199526
-0.0198958
-0.0197525
-0.0196252
-0.0193677
-0.0265443
-0.0252371
-0.0242567
-0.0232218
-0.0224636
-0.0216334
-0.0210427
-0.0203703
-0.0199085
-0.0193602
-0.0189991
-0.0185498
-0.0182683
-0.0178987
-0.0176804
-0.0173756
-0.0172076
-0.0169555
-0.0168274
-0.0166185
-0.0165218
-0.0163483
-0.0162762
-0.0161321
-0.0160792
-0.0159599
-0.0159225
-0.0158248
-0.0158008
-0.0157228
-0.0157112
-0.015651
-0.0156504
-0.0156024
-0.0156064
-0.0155541
-0.0155416
-0.0154475
-0.0153731
-0.0151833
-0.0197443
-0.0187686
-0.0180328
-0.0172579
-0.0166871
-0.0160633
-0.0156168
-0.0151094
-0.0147583
-0.0143424
-0.0140657
-0.0137226
-0.0135045
-0.0132199
-0.0130481
-0.012811
-0.0126757
-0.0124772
-0.0123708
-0.0122042
-0.0121205
-0.0119803
-0.0119146
-0.011797
-0.0117459
-0.0116485
-0.0116098
-0.0115313
-0.0115045
-0.0114448
-0.0114301
-0.0113893
-0.0113872
-0.0113624
-0.0113697
-0.0113496
-0.0113527
-0.0113081
-0.0112741
-0.0111541
-0.0111328
-0.0106171
-0.0102242
-0.00980995
-0.00950208
-0.00916623
-0.00892389
-0.00864965
-0.0084585
-0.00823347
-0.0080828
-0.00789756
-0.0077792
-0.00762642
-0.00753394
-0.00740781
-0.00733616
-0.00723211
-0.0071773
-0.00709181
-0.00705081
-0.00698133
-0.00695203
-0.00689691
-0.00687807
-0.00683659
-0.00682796
-0.0068003
-0.00680267
-0.00678985
-0.00680493
-0.00680818
-0.00683799
-0.00685714
-0.00690213
-0.00693176
-0.00698625
-0.00700701
-0.00704782
-0.00700635
-0.00427006
-0.00408883
-0.00394271
-0.00379088
-0.00367197
-0.00354434
-0.00344728
-0.00333944
-0.00325981
-0.0031682
-0.00310244
-0.00302416
-0.00296941
-0.0029021
-0.00285605
-0.00279785
-0.00275871
-0.00270826
-0.00267476
-0.00263126
-0.00260267
-0.00256596
-0.00254217
-0.00251269
-0.00249423
-0.00247317
-0.00246129
-0.00245059
-0.00244732
-0.00244971
-0.00245798
-0.00247691
-0.00250062
-0.00253996
-0.00258403
-0.00264679
-0.00271616
-0.00279765
-0.00288805
-0.0029447
0.00432711
0.00405047
0.00385484
0.00364734
0.00350383
0.00334424
0.00323728
0.00311231
0.00303194
0.00293269
0.00287216
0.00279239
0.00274692
0.00268211
0.00264816
0.0025949
0.00256969
0.00252518
0.0025063
0.00246804
0.00245321
0.00241874
0.00240561
0.00237236
0.00235842
0.0023236
0.00230603
0.0022665
0.00224212
0.00219424
0.00215922
0.00209846
0.00204765
0.00196771
0.00189293
0.0017842
0.00167166
0.00152342
0.00135879
0.0011937
0.0112218
0.0106092
0.0101657
0.00969456
0.00936123
0.00899249
0.00873963
0.00844755
0.00825524
0.00802204
0.00787637
0.00768926
0.00758009
0.00742956
0.00734922
0.00722791
0.00717031
0.00707222
0.00703224
0.00695213
0.00692517
0.00685823
0.00683994
0.00678151
0.00676759
0.00671301
0.00669913
0.00664356
0.0066253
0.00656351
0.00653616
0.0064619
0.00641976
0.00632404
0.00625822
0.00612503
0.00601793
0.005817
0.00563383
0.00532342
0.0197692
0.0187026
0.0179199
0.0170923
0.0164983
0.0158443
0.0153885
0.0148651
0.0145135
0.0140904
0.0138188
0.0134743
0.0132651
0.0129828
0.0128224
0.0125899
0.0124677
0.0122747
0.0121821
0.0120201
0.0119494
0.0118112
0.0117557
0.0116344
0.0115878
0.0114771
0.0114337
0.0113276
0.0112817
0.011174
0.0111202
0.011004
0.0109361
0.0108015
0.0107102
0.0105384
0.0104025
0.0101499
0.00991312
0.0094896
0.0266649
0.0252624
0.0242317
0.0231404
0.0223564
0.0214932
0.0208915
0.0202009
0.0197373
0.0191802
0.0188235
0.0183717
0.0180987
0.0177307
0.017524
0.0172234
0.0170688
0.0168223
0.0167085
0.0165047
0.0164218
0.0162511
0.0161902
0.0160436
0.0159965
0.0158658
0.0158248
0.015702
0.01566
0.0155371
0.0154869
0.0153552
0.0152901
0.0151382
0.01505
0.0148583
0.014733
0.0144526
0.0142427
0.0137036
0.0351273
0.0332766
0.0319107
0.030467
0.0294253
0.0282801
0.0274776
0.026558
0.0259367
0.0251917
0.0247101
0.0241024
0.0237301
0.0232317
0.0229453
0.0225344
0.0223156
0.0219748
0.0218085
0.0215235
0.0213969
0.0211552
0.021057
0.0208476
0.0207676
0.0205805
0.0205094
0.0203351
0.020264
0.0200931
0.0200138
0.0198362
0.01974
0.019543
0.0194204
0.0191827
0.0190179
0.0186899
0.0184346
0.0178478
0.0419931
0.0398078
0.0381949
0.0364886
0.0352576
0.0339039
0.032956
0.0318698
0.0311369
0.0302583
0.0296919
0.0289771
0.0285412
0.0279572
0.0276245
0.0271457
0.0268945
0.0265001
0.0263125
0.0259856
0.0258463
0.0255719
0.0254676
0.0252325
0.0251508
0.0249428
0.0248721
0.0246795
0.0246085
0.0244195
0.0243367
0.0241382
0.0240308
0.0238066
0.0236576
0.0233823
0.0231631
0.0227883
0.022437
0.0218743
0.0503358
0.0477096
0.0457669
0.0437139
0.0422292
0.040598
0.0394522
0.0381408
0.0372523
0.0361887
0.0354992
0.034631
0.0340971
0.0333846
0.0329734
0.0323859
0.0320712
0.0315841
0.0313446
0.0309375
0.0307551
0.0304106
0.0302693
0.029972
0.0298575
0.0295933
0.0294921
0.0292475
0.0291465
0.0289079
0.0287935
0.028546
0.0284029
0.0281282
0.027937
0.0276094
0.0273416
0.0269236
0.0265368
0.0259877
0.0571409
0.054183
0.0519952
0.0496817
0.0480092
0.046171
0.0448809
0.043404
0.0424048
0.0412085
0.0404346
0.0394599
0.0388628
0.0380651
0.0376077
0.0369524
0.0366053
0.0360646
0.0358035
0.0353543
0.0351588
0.0347812
0.0346331
0.0343095
0.0341921
0.0339062
0.0338036
0.0335395
0.0334358
0.0331775
0.0330558
0.0327857
0.0326264
0.0323239
0.0321026
0.0317431
0.0314286
0.0309886
0.0305525
0.0300512
0.0653294
0.0619397
0.0594288
0.0567758
0.0548546
0.0527446
0.0512608
0.0495631
0.0484115
0.047034
0.0461396
0.0450145
0.0443215
0.043398
0.0428638
0.0421021
0.041693
0.0410615
0.0407498
0.0402222
0.0399845
0.0395384
0.0393543
0.0389698
0.0388205
0.0384793
0.0383471
0.0380318
0.037899
0.037592
0.0374401
0.0371225
0.0369307
0.0365817
0.0363258
0.0359236
0.0355773
0.0351086
0.0346572
0.034157
0.0720434
0.0683261
0.0655731
0.0626627
0.060556
0.0582415
0.0566149
0.0547537
0.0534924
0.0519835
0.0510055
0.0497749
0.0490191
0.048011
0.0474307
0.0466017
0.0461599
0.0454749
0.0451413
0.0445715
0.0443202
0.0438408
0.0436489
0.0432378
0.0430845
0.0427214
0.0425866
0.0422518
0.0421155
0.0417893
0.0416305
0.0412925
0.0410882
0.0407173
0.0404425
0.0400191
0.0396506
0.0391677
0.0386992
0.0381922
0.080044
0.0759057
0.0728376
0.0695962
0.067247
0.0646675
0.062852
0.0607757
0.059366
0.0576805
0.0565851
0.0552083
0.0543591
0.0532287
0.0525738
0.0516415
0.0511396
0.0503666
0.0499841
0.0493384
0.0490466
0.0485008
0.0482746
0.0478047
0.0476211
0.0472048
0.0470423
0.0466585
0.0464956
0.0461236
0.0459382
0.0455571
0.0453263
0.0449153
0.0446157
0.0441575
0.0437692
0.0432578
0.0427749
0.0422309
0.0866368
0.0821765
0.0788703
0.0753756
0.0728438
0.0700631
0.068107
0.0658696
0.0643517
0.0625368
0.0613588
0.0598777
0.0589664
0.0577523
0.0570515
0.0560523
0.0555177
0.0546914
0.0542865
0.0535987
0.0532925
0.0527133
0.0524786
0.0519819
0.0517937
0.0513552
0.0511897
0.0507866
0.0506206
0.0502305
0.0500402
0.0496411
0.0494023
0.0489732
0.0486626
0.048186
0.0477842
0.0472515
0.0467498
0.0461641
0.0944164
0.0895474
0.0859355
0.0821196
0.0793527
0.0763149
0.0741757
0.0717297
0.0700681
0.0680822
0.0667907
0.0651681
0.0641667
0.0628344
0.0620619
0.060963
0.0603709
0.0594599
0.0590084
0.0582477
0.0579033
0.0572607
0.0569937
0.0564409
0.0562247
0.0557359
0.0555451
0.0550962
0.0549063
0.0544739
0.0542606
0.0538221
0.0535611
0.0530955
0.0527636
0.0522529
0.0518301
0.0512617
0.0507332
0.0500956
0.100859
0.0956744
0.0918294
0.0877656
0.0848197
0.0815848
0.0793076
0.0767037
0.0749359
0.0728227
0.0714499
0.0697248
0.0686619
0.0672471
0.066429
0.0652639
0.0646389
0.063675
0.0632008
0.0623979
0.0620385
0.0613623
0.0610862
0.0605063
0.0602848
0.0597737
0.0595796
0.0591115
0.0589187
0.0584687
0.0582514
0.0577958
0.0575286
0.057045
0.0567033
0.0561717
0.0557333
0.0551358
0.0545801
0.0538944
0.108385
0.102806
0.0986659
0.094292
0.0911192
0.0876363
0.0851827
0.0823778
0.0804716
0.0781939
0.076712
0.0748509
0.0737017
0.0721736
0.071287
0.0700267
0.0693471
0.0683025
0.0677844
0.0669123
0.0665173
0.0657811
0.0654753
0.0648428
0.0645957
0.0640376
0.0638209
0.0633101
0.0630962
0.0626069
0.0623692
0.0618769
0.0615891
0.0610703
0.0607068
0.0601396
0.0596755
0.0590378
0.058447
0.0577102
0.114648
0.108762
0.104395
0.0997791
0.0964318
0.0927566
0.0901683
0.0872091
0.085199
0.0827969
0.0812352
0.0792736
0.0780638
0.0764546
0.0755228
0.0741971
0.0734847
0.0723875
0.0718463
0.0709322
0.0705216
0.0697516
0.0694359
0.068776
0.0685229
0.0679421
0.0677214
0.0671911
0.0669739
0.0664668
0.0662248
0.0657147
0.0654202
0.0648819
0.0645071
0.063916
0.0634329
0.0627628
0.0621412
0.0613591
0.12189
0.115625
0.110974
0.106061
0.102496
0.0985826
0.0958253
0.0926735
0.0905311
0.0879716
0.0863059
0.0842145
0.0829229
0.0812057
0.0802093
0.0787932
0.0780296
0.0768562
0.0762743
0.0752951
0.0748518
0.0740258
0.0736832
0.0729744
0.0726985
0.0720743
0.0718335
0.0712638
0.0710279
0.0704842
0.0702237
0.0696788
0.0693646
0.0687917
0.0683942
0.0677666
0.0672552
0.0665439
0.0658848
0.0650545
0.127947
0.121383
0.116512
0.111364
0.10763
0.10353
0.100642
0.0973403
0.0950967
0.092416
0.0906724
0.0884829
0.0871318
0.0853351
0.084294
0.0828137
0.0820172
0.0807918
0.0801864
0.0791654
0.0787058
0.0778459
0.0774925
0.0767559
0.076473
0.0758255
0.0755798
0.0749899
0.0747496
0.0741872
0.0739213
0.0733575
0.0730351
0.0724412
0.0720306
0.0713774
0.0708453
0.070101
0.0694107
0.0685381
0.134874
0.127948
0.122806
0.117374
0.113433
0.109106
0.106057
0.102572
0.100203
0.0973728
0.0955309
0.0932183
0.0917901
0.0898916
0.08879
0.0872247
0.0863808
0.0850841
0.0844414
0.0833599
0.0828708
0.0819592
0.081582
0.0808004
0.0804977
0.0798104
0.0795472
0.0789211
0.0786643
0.0780681
0.0777853
0.0771886
0.0768472
0.0762198
0.0757864
0.0750971
0.0745361
0.0737512
0.0730235
0.0721041
0.140697
0.133484
0.128129
0.122471
0.118366
0.113859
0.110684
0.107054
0.104586
0.101639
0.0997208
0.097313
0.0958265
0.0938505
0.0927049
0.0910766
0.0901999
0.0888519
0.0881854
0.0870622
0.0865562
0.0856105
0.0852216
0.0844118
0.0841008
0.0833896
0.0831203
0.082473
0.0822106
0.0815944
0.0813048
0.0806878
0.0803369
0.0796871
0.0792394
0.0785236
0.0779413
0.0771236
0.0763655
0.0754056
0.14728
0.139723
0.134112
0.128185
0.123883
0.119162
0.115834
0.112031
0.109445
0.106357
0.104347
0.101823
0.100265
0.0981934
0.0969918
0.0952844
0.0943643
0.0929504
0.0922503
0.0910716
0.0905395
0.0895465
0.089137
0.0882864
0.0879585
0.0872113
0.0869271
0.0862471
0.0859703
0.0853231
0.0850181
0.0843704
0.0840015
0.0833197
0.0828496
0.0820989
0.081488
0.0806307
0.0798358
0.0788296
0.152845
0.145012
0.139197
0.133053
0.128594
0.123699
0.12025
0.116307
0.113627
0.110425
0.108341
0.105726
0.104111
0.101964
0.100719
0.0989501
0.0979975
0.0965331
0.0958089
0.0945888
0.0940391
0.093012
0.0925898
0.0917106
0.0913733
0.0906014
0.0903097
0.0896075
0.0893236
0.0886553
0.088342
0.0876727
0.0872929
0.0865875
0.0861022
0.0853245
0.0846923
0.0838029
0.0829785
0.0819331
0.159056
0.150899
0.144843
0.138445
0.133802
0.128705
0.125114
0.121008
0.118218
0.114884
0.112715
0.109991
0.10831
0.106075
0.104779
0.102937
0.101945
0.100421
0.0996666
0.0983962
0.0978239
0.0967544
0.0963148
0.0953992
0.095048
0.0942441
0.0939401
0.0932087
0.0929125
0.0922161
0.0918891
0.0911914
0.0907944
0.0900589
0.0895518
0.0887405
0.0880803
0.0871524
0.086292
0.0852008
0.164338
0.155918
0.149667
0.143062
0.138269
0.133007
0.129299
0.12506