/*--------------------------------*- C++ -*----------------------------------*\
| =========                 |                                                 |
| \\      /  F ield         | foam-extend: Open Source CFD                    |
|  \\    /   O peration     | Version:  3.0                                   |
|   \\  /    A nd           | Web:         http://www.extend-project.de       |
|    \\/     M anipulation  |                                                 |
\*---------------------------------------------------------------------------*/
FoamFile
{
    version     2.0;
    format      ascii;
    class       volVectorField;
    location    "34";
    object      u;
}
// * * * * * * * * * * * * * * * * * * * * * * * * * * * * * * * * * * * * * //

dimensions      [0 0 0 0 0 0 0];

internalField   nonuniform List<vector> 
7680
(
(0.11356 -0.0328488 4.04505e-17)
(0.160284 -0.0272667 4.44293e-17)
(0.325978 -0.026095 -3.60721e-17)
(0.352224 -0.0224061 3.35316e-17)
(0.478572 -0.0218268 -1.62941e-17)
(0.493049 -0.0190639 1.74709e-17)
(0.591983 -0.018714 -6.93404e-18)
(0.598655 -0.016676 -1.01825e-17)
(0.678418 -0.0164439 -1.70319e-17)
(0.679486 -0.0149457 -1.48743e-17)
(0.74557 -0.0148135 -1.71873e-17)
(0.742484 -0.0137079 2.29236e-17)
(0.798567 -0.0136676 -3.13556e-17)
(0.792337 -0.0128548 2.47648e-17)
(0.84096 -0.0128911 -1.0403e-17)
(0.832278 -0.0123018 3.67891e-17)
(0.875268 -0.0123973 -3.09484e-17)
(0.864601 -0.0119788 5.27087e-17)
(0.903309 -0.012121 -3.49455e-17)
(0.890967 -0.01183 3.86342e-17)
(0.926418 -0.0120138 -3.72131e-17)
(0.912609 -0.0118112 3.81332e-17)
(0.945591 -0.0120366 -3.28747e-17)
(0.930459 -0.0118849 4.93045e-17)
(0.961583 -0.0121526 -3.65189e-17)
(0.945246 -0.0120181 3.70589e-17)
(0.974979 -0.0123209 -1.8113e-17)
(0.95756 -0.0121861 2.57508e-17)
(0.986254 -0.0124937 -1.89833e-17)
(0.967918 -0.0123927 1.22499e-17)
(0.995856 -0.0126118 -1.08749e-17)
(0.976859 -0.0126945 8.32746e-18)
(1.00435 -0.0125632 -7.98206e-18)
(0.985121 -0.0132128 4.37139e-18)
(1.01263 -0.0118873 6.46191e-18)
(0.993857 -0.0140469 -4.61888e-18)
(1.02193 -0.00833949 1.53678e-17)
(1.00446 -0.0134576 -1.59578e-17)
(1.02863 0.00316083 1.74291e-17)
(1.02663 0.0230143 -1.7314e-17)
(0.117842 -0.0984823 -5.04285e-17)
(0.164136 -0.0846871 -6.80519e-17)
(0.329907 -0.079546 3.87956e-17)
(0.355764 -0.0675745 -4.31602e-17)
(0.482202 -0.0644407 -1.05776e-17)
(0.496369 -0.0552646 4.96019e-18)
(0.595375 -0.0530125 1.07884e-17)
(0.601804 -0.046125 3.29796e-17)
(0.681625 -0.0443629 4.40045e-17)
(0.682497 -0.0391579 4.90137e-17)
(0.748627 -0.0377601 1.53333e-17)
(0.745373 -0.0337639 -1.98168e-18)
(0.801488 -0.0326612 1.75105e-17)
(0.795102 -0.029556 -4.74855e-18)
(0.843741 -0.0286857 -2.82336e-17)
(0.834905 -0.0262643 -3.71318e-17)
(0.87789 -0.0255696 4.13062e-17)
(0.867063 -0.0236882 -8.96484e-17)
(0.905743 -0.0231233 7.2128e-17)
(0.893226 -0.0216725 -7.89097e-17)
(0.928624 -0.0212055 5.509e-17)
(0.914614 -0.0200965 -6.44929e-17)
(0.947511 -0.0197129 4.25978e-17)
(0.932139 -0.0188725 -8.15719e-17)
(0.963132 -0.0185767 3.9247e-17)
(0.946495 -0.0179474 -4.77063e-17)
(0.976019 -0.0177598 1.91393e-18)
(0.958208 -0.0173087 -2.59457e-17)
(0.986539 -0.0172487 -4.60807e-18)
(0.967661 -0.0169988 1.03241e-18)
(0.994889 -0.0170436 -2.19639e-18)
(0.975089 -0.0171393 4.93093e-18)
(1.00106 -0.0171164 3.84812e-18)
(0.980619 -0.0178952 -8.14418e-18)
(1.00483 -0.0170085 -4.64939e-20)
(0.984754 -0.0189501 -1.2536e-17)
(1.00628 -0.0142956 1.92994e-17)
(0.991017 -0.0128417 -3.62364e-18)
(1.00549 -0.0160004 -7.92967e-18)
(1.01657 0.0847391 3.31482e-17)
(0.126335 -0.162222 5.54464e-17)
(0.171123 -0.136604 6.13412e-17)
(0.336102 -0.127849 -7.70581e-17)
(0.360799 -0.10808 9.83003e-17)
(0.486704 -0.102871 -8.14813e-18)
(0.499983 -0.0878279 -1.57097e-17)
(0.598592 -0.0841057 -5.09541e-17)
(0.60435 -0.0728271 -1.73544e-17)
(0.683852 -0.069899 -8.60843e-17)
(0.684214 -0.0613753 -7.02548e-17)
(0.750085 -0.0590253 -2.85408e-17)
(0.74644 -0.0524785 -3.85739e-18)
(0.802346 -0.050584 -7.41107e-18)
(0.795662 -0.0454954 -8.8671e-18)
(0.844138 -0.0439398 6.86752e-17)
(0.835076 -0.0399688 5.24884e-17)
(0.877937 -0.0386475 -4.02946e-17)
(0.866939 -0.0355573 1.21635e-16)
(0.905531 -0.0343903 -1.11568e-16)
(0.89288 -0.0320025 9.84978e-17)
(0.928224 -0.0309363 -6.4368e-17)
(0.914106 -0.0291051 1.02464e-16)
(0.946988 -0.0281102 -7.40093e-17)
(0.93152 -0.0267045 1.25051e-16)
(0.962547 -0.0257705 -4.51089e-17)
(0.945816 -0.0246608 8.91912e-17)
(0.975438 -0.0237901 -1.45965e-17)
(0.957524 -0.0228443 4.94973e-17)
(0.986033 -0.0220356 7.86666e-18)
(0.967044 -0.0211264 2.34306e-18)
(0.994547 -0.0203389 -2.69871e-18)
(0.974683 -0.019373 1.21534e-17)
(1.001 -0.0185134 -3.82934e-18)
(0.980732 -0.017527 5.51288e-18)
(1.00502 -0.0166045 1.73157e-18)
(0.985917 -0.0161247 -8.0225e-18)
(1.00495 -0.0163761 7.80532e-18)
(0.995975 -0.0127011 -1.78282e-17)
(0.987558 -0.0338954 2.25473e-17)
(1.05802 0.0554868 -2.97403e-17)
(0.139092 -0.226729 -2.84307e-17)
(0.182228 -0.192855 -1.1383e-16)
(0.346751 -0.180147 2.27611e-16)
(0.369994 -0.15225 -2.36209e-16)
(0.495664 -0.144518 6.58552e-17)
(0.507815 -0.123187 2.87993e-17)
(0.606255 -0.117588 8.17603e-17)
(0.611151 -0.101553 2.7757e-17)
(0.690514 -0.0971168 4.77334e-17)
(0.690204 -0.0849592 5.46847e-17)
(0.755957 -0.0813645 8.9289e-17)
(0.75177 -0.0719898 -3.30199e-17)
(0.80757 -0.0690539 1.05224e-17)
(0.80043 -0.0617312 4.83726e-18)
(0.848802 -0.0592888 -8.37062e-17)
(0.839345 -0.053541 -8.70258e-18)
(0.882099 -0.0514461 3.84788e-21)
(0.870748 -0.0469457 -1.27999e-16)
(0.909228 -0.0450831 1.47492e-16)
(0.896255 -0.0415884 -1.33187e-16)
(0.931481 -0.0398781 7.58534e-17)
(0.917053 -0.0371987 -1.2414e-16)
(0.949815 -0.0355966 7.18053e-17)
(0.934032 -0.033572 -9.07413e-17)
(0.964943 -0.0320713 -1.35932e-17)
(0.947866 -0.0305553 -5.91648e-17)
(0.977395 -0.0291851 -3.18992e-17)
(0.959073 -0.0280356 -1.59544e-17)
(0.987549 -0.0268539 -4.90058e-17)
(0.968052 -0.0259362 2.23412e-17)
(0.995642 -0.0250196 -7.51693e-18)
(0.975105 -0.0241931 -4.46816e-18)
(1.00173 -0.0236614 -4.6328e-17)
(0.98049 -0.0225466 9.89978e-17)
(1.00549 -0.022784 -7.71536e-17)
(0.984631 -0.0190362 3.93789e-17)
(1.00564 -0.0260309 2.32282e-17)
(0.990627 0.00836517 -2.63316e-17)
(0.995848 -0.094573 1.60223e-17)
(1.03751 0.142699 -2.81227e-17)
(0.155897 -0.288863 1.80616e-18)
(0.196126 -0.243613 3.0854e-17)
(0.359412 -0.227405 -3.70836e-16)
(0.380476 -0.191901 3.36329e-16)
(0.505342 -0.182148 -8.04668e-17)
(0.515829 -0.155086 -8.79792e-17)
(0.613674 -0.148054 -1.30477e-16)
(0.617321 -0.12773 9.07675e-18)
(0.696211 -0.122153 -2.3842e-17)
(0.694957 -0.106753 -3.55964e-17)
(0.760325 -0.102222 -1.0344e-16)
(0.755414 -0.0903502 1.60402e-17)
(0.810901 -0.0866288 5.22198e-17)
(0.803203 -0.0773586 -3.45583e-17)
(0.851318 -0.0742305 1.1954e-16)
(0.841427 -0.0669571 -7.38192e-17)
(0.883968 -0.0642309 7.01757e-17)
(0.872274 -0.0585386 2.32943e-17)
(0.910573 -0.0560645 -4.39074e-17)
(0.897321 -0.0516467 4.55829e-17)
(0.932396 -0.0493194 9.94338e-18)
(0.917725 -0.0459314 1.31388e-16)
(0.950367 -0.0436854 -6.96683e-17)
(0.934349 -0.0411147 6.13265e-17)
(0.965178 -0.0389206 4.88196e-17)
(0.947832 -0.0369616 6.28576e-17)
(0.97733 -0.0348224 1.21187e-17)
(0.958638 -0.0332564 1.75578e-17)
(0.987159 -0.0311957 9.64436e-17)
(0.967068 -0.0297778 -2.97729e-17)
(0.99483 -0.0278243 3.68497e-17)
(0.973244 -0.0262465 1.74456e-17)
(1.00033 -0.0245333 -3.58024e-17)
(0.977144 -0.0222448 2.76719e-17)
(1.00359 -0.0217659 3.88733e-18)
(0.979004 -0.0167996 -2.63095e-17)
(1.00614 -0.0265628 -3.33827e-19)
(0.979487 0.00534954 -3.3096e-17)
(1.02023 -0.10178 3.84403e-17)
(0.981885 0.0928764 3.28428e-17)
(0.176919 -0.351147 5.21544e-17)
(0.214295 -0.297772 1.05491e-16)
(0.376594 -0.277706 4.16509e-16)
(0.395166 -0.234355 -2.61564e-16)
(0.519469 -0.22215 6.2458e-17)
(0.528033 -0.189027 1.14501e-16)
(0.625472 -0.180177 1.84131e-16)
(0.627653 -0.155271 -5.77956e-17)
(0.706212 -0.148236 -5.05248e-18)
(0.703824 -0.129337 8.76532e-18)
(0.768912 -0.123604 2.42061e-16)
(0.763099 -0.109015 -1.19155e-16)
(0.818345 -0.10429 7.30809e-17)
(0.809909 -0.0928779 -1.17715e-16)
(0.85781 -0.088894 -4.04789e-17)
(0.847303 -0.0799226 -8.04097e-17)
(0.889645 -0.0764443 1.32349e-16)
(0.87743 -0.0694109 -1.31339e-16)
(0.915541 -0.0662521 1.25493e-16)
(0.901839 -0.0607904 -6.76956e-17)
(0.936735 -0.0578169 1.00313e-17)
(0.921669 -0.0536435 -1.4352e-16)
(0.954149 -0.0507694 3.50813e-17)
(0.937769 -0.0476487 2.27844e-17)
(0.96848 -0.0448327 -1.27788e-16)
(0.950785 -0.0425487 2.51294e-17)
(0.980268 -0.0397864 -7.40236e-17)
(0.961223 -0.0381228 3.1527e-18)
(0.989961 -0.0354257 -1.29821e-16)
(0.969508 -0.0341573 3.95679e-18)
(0.997994 -0.0315216 -1.22367e-16)
(0.976061 -0.0303889 5.97628e-17)
(1.00496 -0.0278482 -1.00001e-16)
(0.981443 -0.0263641 9.08829e-17)
(1.01193 -0.0245787 -1.55244e-16)
(0.986378 -0.0207199 7.70971e-17)
(1.02168 -0.0276806 1.64577e-17)
(0.987552 0.00476211 -4.47659e-17)
(1.04779 -0.104642 -1.19871e-17)
(0.963865 0.133212 -5.2059e-17)
(0.201746 -0.410605 -5.58572e-17)
(0.234878 -0.346459 -2.36814e-16)
(0.395506 -0.323062 -3.00261e-16)
(0.410912 -0.272431 9.0439e-17)
(0.534152 -0.258297 -3.18361e-17)
(0.540306 -0.219683 2.7238e-17)
(0.636963 -0.209459 -2.07979e-16)
(0.637337 -0.180441 1.29369e-16)
(0.715276 -0.17231 4.18087e-17)
(0.711522 -0.1503 -8.77063e-17)
(0.776106 -0.143663 -2.07722e-16)
(0.769246 -0.126675 6.0948e-17)
(0.824076 -0.121187 2.51779e-17)
(0.814827 -0.107902 1.6946e-16)
(0.862376 -0.103248 4.48444e-17)
(0.851233 -0.0928084 2.12527e-18)
(0.893269 -0.0887103 -4.45485e-17)
(0.880549 -0.0805316 -9.82529e-19)
(0.918386 -0.076769 -6.7739e-17)
(0.904273 -0.0704262 -8.72103e-18)
(0.938918 -0.0668371 -2.13693e-17)
(0.923502 -0.0620024 6.25523e-17)
(0.955749 -0.0584762 2.50247e-17)
(0.939041 -0.0548801 -2.96096e-17)
(0.969539 -0.051351 7.45257e-17)
(0.951488 -0.0487567 -6.02986e-17)
(0.980786 -0.0451955 1.01512e-16)
(0.961279 -0.0433896 -5.5622e-17)
(0.989883 -0.039783 2.05055e-16)
(0.968737 -0.0386025 -3.90972e-17)
(0.997192 -0.0349237 2.41967e-16)
(0.974113 -0.0343149 -5.90634e-17)
(1.00319 -0.0305998 5.45557e-17)
(0.977663 -0.0305878 -2.6485e-18)
(1.00879 -0.0275278 8.94489e-17)
(0.979567 -0.0272598 -6.01764e-17)
(1.01659 -0.0315585 5.54574e-17)
(0.974931 -0.00980794 -7.34933e-17)
(1.04445 -0.0975448 1.7638e-16)
(0.924403 0.100931 -2.693e-17)
(0.230667 -0.469603 1.72383e-16)
(0.259783 -0.397639 1.16361e-16)
(0.418919 -0.370551 3.557e-16)
(0.430841 -0.312483 1.34812e-16)
(0.553205 -0.296012 -8.20468e-18)
(0.556673 -0.251662 -2.52252e-16)
(0.652695 -0.23971 2.11048e-16)
(0.65103 -0.206361 -2.34801e-16)
(0.728453 -0.196845 2.73912e-17)
(0.723127 -0.171531 -2.04863e-17)
(0.78728 -0.163755 2.62245e-16)
(0.77918 -0.144202 -2.80417e-16)
(0.833643 -0.137762 1.11105e-16)
(0.823394 -0.122458 -3.42966e-16)
(0.870624 -0.116989 4.48112e-17)
(0.858663 -0.104953 -1.01581e-16)
(0.90041 -0.100132 1.25703e-16)
(0.887017 -0.0906955 -1.2662e-16)
(0.924584 -0.0862652 1.26758e-16)
(0.909916 -0.0789494 9.00668e-18)
(0.944307 -0.0747152 -2.08197e-17)
(0.928428 -0.0691574 -2.09365e-18)
(0.960443 -0.0649804 -5.3036e-17)
(0.943347 -0.0608927 9.0414e-17)
(0.973657 -0.0566767 -6.95181e-17)
(0.955273 -0.0538197 2.73314e-17)
(0.984473 -0.0494924 -8.92582e-17)
(0.964668 -0.0476723 1.03165e-16)
(0.993348 -0.0431429 -3.38089e-16)
(0.9719 -0.0422553 3.72657e-17)
(1.00074 -0.037339 -2.21088e-16)
(0.977266 -0.0374578 6.02465e-17)
(1.0072 -0.0318584 -1.51295e-17)
(0.980923 -0.0332415 -7.07988e-18)
(1.01348 -0.0269444 -7.16674e-17)
(0.982388 -0.0292384 6.91159e-17)
(1.02107 -0.0266426 1.57338e-17)
(0.974745 -0.0134332 -3.64128e-17)
(1.04575 -0.074303 6.86046e-18)
(0.910518 0.084767 -2.12223e-16)
(0.263101 -0.52536 -1.88464e-16)
(0.286719 -0.443383 -1.62261e-16)
(0.443765 -0.413187 -3.25201e-16)
(0.451587 -0.348296 -5.2575e-16)
(0.572642 -0.330021 -5.80678e-17)
(0.572994 -0.280517 4.18286e-16)
(0.668057 -0.267275 -1.54627e-16)
(0.664056 -0.230064 2.87332e-16)
(0.740717 -0.219517 6.47121e-17)
(0.733628 -0.191277 -1.17224e-16)
(0.797159 -0.182647 -8.11425e-17)
(0.787704 -0.160838 2.13876e-16)
(0.841651 -0.153674 -1.89651e-17)
(0.830348 -0.136608 2.43095e-16)
(0.877137 -0.1305 1.7883e-16)
(0.86435 -0.117082 -1.0421e-16)
(0.905706 -0.11167 1.47543e-16)
(0.89166 -0.101158 -8.76722e-17)
(0.928866 -0.0961491 1.00891e-16)
(0.913677 -0.0880134 -4.9635e-17)
(0.947721 -0.083186 -1.57416e-17)
(0.931418 -0.0770295 3.46128e-17)
(0.963089 -0.0722192 -5.38339e-17)
(0.945629 -0.0677376 -3.04334e-17)
(0.975587 -0.0628222 1.77253e-17)
(0.95686 -0.0597839 3.76348e-17)
(0.985692 -0.0546611 -7.19288e-17)
(0.965515 -0.0529231 2.52896e-16)
(0.993803 -0.0474577 9.82198e-18)
(0.971892 -0.047047 1.80732e-16)
(1.0003 -0.0409679 6.03302e-17)
(0.976194 -0.042237 -4.4123e-17)
(1.00563 -0.0350538 5.20285e-17)
(0.978451 -0.0387331 -7.44793e-17)
(1.01038 -0.029921 6.51576e-17)
(0.978075 -0.036413 -6.45782e-17)
(1.01568 -0.0277843 5.58852e-17)
(0.968838 -0.0261346 -1.77434e-16)
(1.03576 -0.054218 3.20878e-16)
(0.904338 0.0456192 -9.75051e-17)
(0.299424 -0.580065 4.58538e-16)
(0.317915 -0.490743 2.13438e-16)
(0.472998 -0.457093 4.38697e-16)
(0.476405 -0.3853 7.85199e-16)
(0.596293 -0.364841 2.59253e-16)
(0.593246 -0.310024 -4.36135e-16)
(0.687461 -0.295173 6.71927e-17)
(0.680883 -0.253951 -3.59856e-16)
(0.756859 -0.242116 -1.79738e-16)
(0.74779 -0.210819 3.02879e-16)
(0.810751 -0.20113 3.36798e-17)
(0.799743 -0.176949 -1.18178e-16)
(0.853207 -0.168899 9.39608e-17)
(0.840664 -0.149966 -3.23335e-16)
(0.887033 -0.143098 -5.42885e-17)
(0.873244 -0.128204 1.84041e-17)
(0.914223 -0.122111 -1.34065e-16)
(0.899367 -0.110438 -1.53128e-17)
(0.936221 -0.104791 -7.71092e-17)
(0.920381 -0.0957583 7.42026e-17)
(0.954086 -0.0903027 3.61896e-17)
(0.937267 -0.0834809 3.1512e-17)
(0.968609 -0.0780187 2.28649e-17)
(0.95075 -0.0730863 1.05503e-16)
(0.980389 -0.0674551 -1.77694e-16)
(0.961365 -0.0641801 2.42102e-16)
(0.989897 -0.0582177 -1.64226e-16)
(0.969507 -0.0564806 8.90102e-18)
(0.997509 -0.0499494 -2.70868e-16)
(0.975444 -0.0498448 1.33729e-16)
(1.00354 -0.0422844 -2.21635e-16)
(0.979291 -0.044304 2.17012e-16)
(1.00824 -0.0348765 -2.67611e-16)
(0.980836 -0.0399954 3.25888e-16)
(1.01176 -0.0275799 -2.91148e-16)
(0.979086 -0.036754 1.9733e-16)
(1.01434 -0.0213159 -1.21119e-16)
(0.968706 -0.0294468 4.99445e-17)
(1.02699 -0.0288494 -5.13151e-17)
(0.911894 0.00985792 -2.67705e-16)
(0.338916 -0.631156 -8.14169e-16)
(0.350761 -0.532727 -4.72401e-16)
(0.503363 -0.496241 -3.80465e-16)
(0.501804 -0.418203 -9.3818e-16)
(0.620152 -0.396097 -3.14276e-16)
(0.613332 -0.336554 2.29974e-16)
(0.706424 -0.320522 -5.49935e-17)
(0.697019 -0.275755 4.53019e-16)
(0.772102 -0.262973 2.64568e-16)
(0.760898 -0.228991 -3.3785e-16)
(0.823127 -0.218514 -1.24568e-16)
(0.810479 -0.192261 -1.01127e-16)
(0.863335 -0.183542 -1.07455e-17)
(0.849515 -0.162989 9.57156e-17)
(0.895362 -0.155529 1.00172e-16)
(0.880574 -0.139366 -5.05356e-17)
(0.921085 -0.132724 1.88599e-16)
(0.905447 -0.120065 -2.28323e-17)
(0.941862 -0.113881 2.43053e-16)
(0.925412 -0.1041 -2.54209e-16)
(0.958685 -0.0980947 3.7545e-17)
(0.941396 -0.0907358 -1.00944e-16)
(0.972293 -0.0846862 -3.65811e-17)
(0.954076 -0.0794179 -9.1879e-18)
(0.983237 -0.0731356 -1.11847e-16)
(0.963949 -0.0697403 1.12342e-16)
(0.99194 -0.063028 -2.08495e-16)
(0.971372 -0.0614348 3.34476e-16)
(0.998728 -0.053994 -1.35143e-16)
(0.97659 -0.0544016 6.27992e-18)
(1.00385 -0.0456455 3.96866e-17)
(0.97971 -0.0487305 -4.01724e-18)
(1.0075 -0.0375615 -1.37915e-17)
(0.980562 -0.0445562 -5.2295e-18)
(1.00977 -0.0293281 1.17673e-17)
(0.978376 -0.0415791 1.79368e-18)
(1.01071 -0.0203328 1.10749e-16)
(0.969715 -0.0376494 -1.47701e-16)
(1.01719 -0.00924649 2.99567e-16)
(0.927345 -0.0281345 -2.90582e-17)
(0.382018 -0.680634 7.18479e-16)
(0.387697 -0.575491 4.70142e-16)
(0.537909 -0.535851 3.4742e-16)
(0.53108 -0.451561 7.90962e-16)
(0.647996 -0.427464 1.8017e-16)
(0.637127 -0.363116 2.00523e-16)
(0.729176 -0.34562 -8.00421e-17)
(0.716706 -0.29723 -2.12198e-16)
(0.790949 -0.283277 -3.671e-16)
(0.777395 -0.246533 3.71415e-16)
(0.838928 -0.235095 -2.47872e-19)
(0.824443 -0.206698 4.05351e-16)
(0.87671 -0.197174 -3.95026e-17)
(0.861431 -0.174935 8.58992e-17)
(0.906767 -0.166781 4.60561e-17)
(0.890812 -0.149283 1.20759e-16)
(0.930861 -0.142017 -2.32162e-16)
(0.914291 -0.128306 9.33363e-17)
(0.95027 -0.121533 -2.2056e-16)
(0.933087 -0.110936 3.35596e-16)
(0.965933 -0.104343 -8.80814e-17)
(0.948082 -0.0963726 1.00575e-16)
(0.978544 -0.0897072 2.66358e-17)
(0.959923 -0.0840125 1.83797e-16)
(0.988623 -0.0770479 -1.72331e-16)
(0.969082 -0.0734037 1.79285e-16)
(0.996557 -0.0658896 -1.28039e-16)
(0.975891 -0.0642376 -4.54218e-18)
(1.00261 -0.0557895 -1.29561e-16)
(0.98056 -0.0563716 1.63868e-16)
(1.00695 -0.0462597 -1.47124e-16)
(0.983139 -0.0498472 3.08631e-17)
(1.00957 -0.0367412 -1.84332e-17)
(0.983395 -0.044736 1.92651e-16)
(1.01039 -0.0266787 -3.08266e-16)
(0.980656 -0.0408369 1.98895e-16)
(1.00916 -0.0148696 -1.82466e-16)
(0.973596 -0.0396459 1.01366e-16)
(1.0085 0.00951453 -2.30133e-16)
(0.948745 -0.0599035 -1.655e-16)
(0.427896 -0.726175 -2.01736e-16)
(0.425909 -0.612963 -2.54146e-16)
(0.573281 -0.570809 -3.21864e-16)
(0.560703 -0.48096 -5.13562e-16)
(0.675869 -0.455403 -3.43597e-16)
(0.660631 -0.386841 -3.96877e-16)
(0.751407 -0.368295 7.25557e-17)
(0.735665 -0.316742 1.27576e-16)
(0.808895 -0.301946 6.78913e-17)
(0.792869 -0.262803 -7.34917e-18)
(0.853573 -0.250662 -9.58054e-17)
(0.837189 -0.220413 -4.91435e-16)
(0.888765 -0.210289 -9.31176e-17)
(0.872009 -0.186601 -3.31089e-16)
(0.91675 -0.177917 -5.2099e-17)
(0.899642 -0.159283 -3.78471e-16)
(0.939157 -0.151525 3.31658e-16)
(0.921693 -0.136931 -3.5366e-16)
(0.957167 -0.129678 3.08703e-16)
(0.939302 -0.118411 -5.05264e-16)
(0.971647 -0.11133 1.62265e-16)
(0.953295 -0.102876 -1.50487e-16)
(0.983234 -0.0956944 -4.46199e-17)
(0.964276 -0.0896913 -1.28987e-17)
(0.992402 -0.0821608 -7.98716e-17)
(0.972688 -0.0783874 2.53162e-16)
(0.999497 -0.0702284 -1.90436e-16)
(0.978851 -0.0686457 2.1305e-16)
(1.00475 -0.0594229 5.0442e-17)
(0.98299 -0.0603181 -5.69698e-17)
(1.00829 -0.0492022 1.25656e-16)
(0.985215 -0.0534201 -1.39188e-17)
(1.01012 -0.0389058 -1.6901e-17)
(0.985431 -0.0479384 -1.0462e-16)
(1.01017 -0.0277983 3.02938e-16)
(0.983282 -0.0435713 -3.01623e-16)
(1.00807 -0.0139087 2.94142e-16)
(0.979379 -0.0441627 -2.58661e-16)
(1.00124 0.0223518 3.4017e-16)
(0.972822 -0.0857078 3.13069e-17)
(0.477037 -0.769579 7.55544e-17)
(0.467938 -0.650428 1.98745e-16)
(0.612541 -0.605479 2.42193e-16)
(0.593932 -0.510135 3.89892e-16)
(0.707432 -0.482812 4.92226e-16)
(0.687567 -0.410035 3.69054e-16)
(0.777129 -0.390192 7.11385e-18)
(0.757888 -0.335462 1.77789e-16)
(0.830141 -0.31963 -4.00995e-17)
(0.811439 -0.278066 2.58502e-17)
(0.871333 -0.265074 9.28876e-17)
(0.852862 -0.232946 4.79949e-16)
(0.903755 -0.222111 3.50161e-16)
(0.885348 -0.196943 4.70712e-16)
(0.929495 -0.187645 4.52428e-17)
(0.911073 -0.167837 5.54615e-16)
(0.950049 -0.159526 -4.63159e-16)
(0.931544 -0.144003 5.88542e-16)
(0.966508 -0.136228 -2.53195e-16)
(0.947833 -0.124233 4.34581e-16)
(0.979671 -0.116633 -1.18053e-16)
(0.960713 -0.107622 1.4137e-16)
(0.990125 -0.0998997 -8.60473e-17)
(0.970753 -0.0934869 8.2895e-17)
(0.998301 -0.0853693 2.2052e-17)
(0.978365 -0.081315 -2.71688e-16)
(1.0045 -0.0724915 2.30456e-16)
(0.983854 -0.0707495 -2.76355e-16)
(1.00891 -0.0607428 5.86493e-17)
(0.987432 -0.0616047 -1.76537e-16)
(1.01158 -0.0495224 7.58054e-17)
(0.989229 -0.0538662 -2.01502e-16)
(1.01244 -0.0381171 1.41575e-16)
(0.989222 -0.0475055 9.89783e-18)
(1.01142 -0.0258144 -1.44553e-16)
(0.987312 -0.0423517 2.65339e-16)
(1.00806 -0.0105664 -2.29301e-16)
(0.986017 -0.0444586 1.91377e-16)
(0.995326 0.0321525 -1.35412e-16)
(0.99748 -0.103194 -2.15445e-16)
(0.52852 -0.80878 -5.037e-16)
(0.510877 -0.682716 -3.22474e-19)
(0.652324 -0.635619 -3.64314e-16)
(0.627278 -0.5355 -2.64494e-16)
(0.738842 -0.506933 -4.55546e-16)
(0.714085 -0.430528 -3.28491e-16)
(0.802241 -0.409788 -2.24765e-16)
(0.779335 -0.352332 -1.16815e-16)
(0.850471 -0.335777 -5.03183e-16)
(0.829 -0.292144 2.69962e-16)
(0.887979 -0.278549 -3.46e-16)
(0.867381 -0.244821 -2.72521e-16)
(0.917511 -0.233469 -7.25692e-16)
(0.897452 -0.207049 -4.52042e-16)
(0.940943 -0.197294 -2.19983e-16)
(0.921235 -0.176502 -2.86175e-16)
(0.959623 -0.167767 3.74643e-16)
(0.940126 -0.151477 -5.47228e-16)
(0.974534 -0.143291 4.0019e-16)
(0.955113 -0.130709 -5.21711e-16)
(0.986399 -0.122697 2.77152e-16)
(0.966912 -0.113252 -2.44558e-16)
(0.995749 -0.105104 1.71846e-16)
(0.976049 -0.0983937 -9.51791e-17)
(1.00297 -0.0898239 7.83698e-17)
(0.982919 -0.0855973 8.72006e-17)
(1.00834 -0.0762835 2.50252e-17)
(0.987821 -0.0744816 2.09954e-17)
(1.01201 -0.0639266 1.95752e-16)
(0.991008 -0.0648334 -3.25354e-17)
(1.01402 -0.0521095 1.67425e-16)
(0.992691 -0.0565935 -9.78182e-17)
(1.01432 -0.0400637 1.88512e-16)
(0.992989 -0.0496641 -1.71026e-16)
(1.0129 -0.0270288 1.72772e-16)
(0.992033 -0.0438177 -2.145e-16)
(1.00916 -0.0107788 1.16094e-16)
(0.993634 -0.0460427 -1.69386e-16)
(0.991549 0.0365742 4.84984e-17)
(1.02047 -0.112503 -1.03198e-18)
(0.582852 -0.845371 6.65441e-16)
(0.557267 -0.714272 9.06188e-18)
(0.695619 -0.664788 2.44565e-16)
(0.663889 -0.560022 4.40285e-16)
(0.773585 -0.529943 2.81979e-16)
(0.743706 -0.449981 5.31069e-16)
(0.830502 -0.428133 1.10921e-16)
(0.803728 -0.367997 2.97298e-16)
(0.87377 -0.350558 4.1549e-16)
(0.849344 -0.304883 -1.00263e-16)
(0.907418 -0.290562 1.56877e-16)
(0.884519 -0.255249 3.95382e-16)
(0.933885 -0.243292 6.80942e-16)
(0.912009 -0.215621 5.77845e-16)
(0.954835 -0.205344 2.36806e-16)
(0.933685 -0.183559 1.17955e-16)
(0.97147 -0.174356 -4.15056e-16)
(0.950835 -0.157274 4.81794e-16)
(0.984671 -0.148649 -4.0431e-16)
(0.964368 -0.135439 2.37976e-16)
(0.995085 -0.126997 6.52705e-18)
(0.974943 -0.117059 2.37457e-17)
(1.00319 -0.108473 6.82498e-17)
(0.983045 -0.101377 -1.12708e-16)
(1.00932 -0.0923544 9.55118e-17)
(0.98904 -0.0878216 -3.07096e-16)
(1.01372 -0.078035 1.93767e-16)
(0.99322 -0.0759815 -3.13265e-16)
(1.0165 -0.0649375 5.11343e-17)
(0.995846 -0.0656186 -1.96652e-16)
(1.01769 -0.0524017 9.60922e-17)
(0.997185 -0.0566632 -1.80981e-16)
(1.0172 -0.0396694 1.18573e-16)
(0.997464 -0.0490262 -3.48206e-16)
(1.01508 -0.02608 2.78738e-16)
(0.997007 -0.0425472 -1.21001e-16)
(1.01072 -0.00966344 1.85586e-17)
(1.00069 -0.044662 1.97722e-16)
(0.989569 0.0376004 -1.01146e-16)
(1.04039 -0.113947 1.93463e-16)
(0.639063 -0.87755 -6.99827e-16)
(0.604209 -0.740791 2.5833e-16)
(0.739139 -0.689565 -5.73426e-16)
(0.700393 -0.580894 -2.12227e-16)
(0.807997 -0.549811 -6.09873e-16)
(0.772781 -0.466872 -2.33982e-16)
(0.85806 -0.444298 -1.36101e-16)
(0.827288 -0.381923 -3.29782e-17)
(0.896124 -0.363898 -6.98036e-16)
(0.868677 -0.316521 4.03101e-16)
(0.925763 -0.301708 -2.91256e-16)
(0.900545 -0.265076 -3.13944e-16)
(0.949089 -0.252697 -5.84428e-16)
(0.925411 -0.223991 -6.90241e-16)
(0.967532 -0.21334 -2.79855e-16)
(0.944982 -0.190738 -6.70801e-17)
(0.982136 -0.181189 3.37571e-16)
(0.960426 -0.163467 -3.40326e-16)
(0.993668 -0.15451 2.46587e-16)
(0.972561 -0.140803 -1.95229e-16)
(1.00269 -0.132032 1.47384e-16)
(0.981987 -0.121715 -2.08571e-16)
(1.00963 -0.112803 5.94038e-17)
(0.989147 -0.105423 -8.32832e-17)
(1.01478 -0.0960734 2.09063e-16)
(0.994385 -0.0913313 -2.44688e-17)
(1.01835 -0.0812247 1.68854e-16)
(0.997993 -0.0790037 1.59098e-17)
(1.02045 -0.0676597 3.24596e-16)
(1.00026 -0.0681744 -1.93808e-16)
(1.02107 -0.0547048 3.96617e-16)
(1.00153 -0.05874 -2.63859e-16)
(1.02018 -0.0415961 3.54288e-16)
(1.00213 -0.0505734 -7.54733e-17)
(1.01784 -0.0277048 2.56935e-16)
(1.00246 -0.0434257 -4.62798e-16)
(1.01338 -0.0112627 3.83121e-16)
(1.00777 -0.044151 -4.29355e-16)
(0.990061 0.0343266 1.17021e-16)
(1.05569 -0.108382 -1.08822e-16)
(0.697651 -0.906703 7.22738e-16)
(0.654156 -0.765926 6.57845e-17)
(0.785726 -0.712762 1.88309e-16)
(0.739757 -0.60037 5.93671e-16)
(0.84533 -0.568053 6.39063e-16)
(0.804589 -0.482275 2.87132e-16)
(0.888389 -0.458797 -1.19407e-16)
(0.853446 -0.394283 1.39082e-16)
(0.921095 -0.375537 4.88567e-16)
(0.890464 -0.32653 -2.93347e-16)
(0.946568 -0.311129 2.41269e-16)
(0.918874 -0.273232 3.25666e-16)
(0.966589 -0.260361 4.93536e-16)
(0.940958 -0.230657 4.42225e-16)
(0.982359 -0.219586 4.37238e-16)
(0.95826 -0.196188 -4.96001e-18)
(0.99476 -0.186265 -1.89965e-16)
(0.971827 -0.167905 1.23448e-16)
(1.00445 -0.158602 -1.49642e-17)
(0.982397 -0.144383 -1.60416e-17)
(1.01191 -0.135282 7.49097e-17)
(0.9905 -0.124551 -9.40015e-17)
(1.01751 -0.115316 2.36043e-16)
(0.996538 -0.107595 -3.54432e-16)
(1.0215 -0.097936 1.58052e-16)
(1.00083 -0.0928933 -3.49327e-16)
(1.02405 -0.082505 5.91094e-17)
(1.00365 -0.0799904 -2.49596e-16)
(1.02525 -0.0684286 -2.28708e-17)
(1.00531 -0.068611 -1.40146e-16)
(1.0251 -0.0550472 -1.85833e-16)
(1.0062 -0.0586565 5.4151e-17)
(1.02354 -0.0416416 -1.63372e-16)
(1.00672 -0.0500137 -1.9512e-16)
(1.02071 -0.0277024 6.2145e-17)
(1.00736 -0.0424154 2.08804e-16)
(1.01606 -0.0119333 -1.0062e-16)
(1.01341 -0.0417217 2.69485e-16)
(0.992561 0.0284756 -1.65708e-16)
(1.06585 -0.0975756 2.42738e-16)
(0.757631 -0.931299 -7.3347e-16)
(0.70431 -0.786193 -3.89901e-16)
(0.832247 -0.731728 -3.08569e-16)
(0.778799 -0.61637 -2.25453e-16)
(0.882156 -0.58331 -1.0447e-15)
(0.835722 -0.49526 -1.25251e-16)
(0.917915 -0.471243 -1.00913e-16)
(0.878708 -0.405017 -1.94415e-18)
(0.945079 -0.385834 -4.18572e-16)
(0.911226 -0.335523 2.22723e-16)
(0.966284 -0.319751 -2.36931e-17)
(0.936115 -0.28084 -5.33724e-16)
(0.982961 -0.267651 -2.2586e-16)
(0.955409 -0.237148 -3.47478e-16)
(0.996066 -0.225792 -2.27456e-16)
(0.970475 -0.20176 -5.98037e-17)
(1.00631 -0.191574 3.73966e-16)
(0.982232 -0.172712 -2.75698e-16)
(1.01424 -0.163158 3.15219e-16)
(0.991325 -0.148543 -3.91693e-16)
(1.02025 -0.139199 2.4124e-16)
(0.99822 -0.128157 -1.37251e-16)
(1.02463 -0.11869 2.93613e-17)
(1.00327 -0.110721 7.09499e-17)
(1.02761 -0.100847 1.98551e-16)
(1.00677 -0.0955941 1.08455e-16)
(1.02933 -0.0850305 1.09075e-16)
(1.00898 -0.0823082 1.15337e-16)
(1.02986 -0.0706444 9.40643e-17)
(1.01022 -0.0705729 1.63295e-16)
(1.02918 -0.0570408 1.80348e-16)
(1.01092 -0.0602762 -4.0986e-17)
(1.02725 -0.0435298 1.75889e-16)
(1.01153 -0.0512896 2.05123e-16)
(1.02421 -0.0296662 7.27437e-17)
(1.01248 -0.0432211 -3.83716e-16)
(1.01966 -0.0145637 3.71196e-16)
(1.01849 -0.0402965 -3.29995e-16)
(0.997346 0.0199968 1.3973e-16)
(1.07021 -0.0830004 -1.96869e-16)
(0.819464 -0.952519 9.58875e-16)
(0.756949 -0.804503 8.55756e-16)
(0.881322 -0.748581 2.45044e-16)
(0.820243 -0.63049 2.63436e-16)
(0.921444 -0.596493 8.39509e-16)
(0.869179 -0.506366 9.75528e-17)
(0.949804 -0.481663 1.82532e-16)
(0.906197 -0.413872 1.37562e-16)
(0.971309 -0.394144 1.71662e-16)
(0.934101 -0.342641 -1.48936e-16)
(0.988119 -0.326425 -4.25626e-17)
(0.955341 -0.28659 3.95538e-16)
(1.00131 -0.273033 2.86233e-16)
(0.971701 -0.241799 2.42849e-16)
(1.0116 -0.230132 4.11428e-17)
(0.984374 -0.205517 -1.43562e-18)
(1.01952 -0.195058 -3.4986e-16)
(0.994154 -0.175726 1.13042e-16)
(1.0255 -0.165925 -3.49216e-17)
(1.00159 -0.150929 1.0074e-16)
(1.02986 -0.141357 3.18461e-17)
(1.00708 -0.13 -4.85762e-17)
(1.03283 -0.120323 1.43183e-16)
(1.01093 -0.112083 -1.94746e-16)
(1.03459 -0.102028 -2.08757e-17)
(1.0134 -0.0965243 -3.11499e-16)
(1.03525 -0.0858288 1.2848e-16)
(1.01473 -0.0828429 -3.09085e-16)
(1.03485 -0.0711422 1.16458e-16)
(1.01525 -0.0707529 -3.44242e-16)
(1.03339 -0.0573519 -7.70966e-17)
(1.01542 -0.0601618 -4.85831e-17)
(1.03082 -0.0438266 -2.21349e-16)
(1.01572 -0.0509625 -2.13115e-16)
(1.02735 -0.0302393 -1.89456e-16)
(1.01655 -0.0427037 1.7559e-16)
(1.02287 -0.0162712 -2.18829e-16)
(1.02176 -0.0378939 1.27457e-16)
(1.00368 0.0105406 -7.32599e-17)
(1.06931 -0.0670722 2.98622e-16)
(0.882188 -0.969101 -1.1026e-15)
(0.809464 -0.818144 -8.57289e-16)
(0.930055 -0.761388 -5.15485e-16)
(0.861159 -0.641323 5.9315e-17)
(0.960056 -0.606861 -7.39598e-16)
(0.901837 -0.51521 1.35821e-16)
(0.980789 -0.490167 -4.09847e-16)
(0.932722 -0.421224 -1.17455e-16)
(0.996506 -0.401216 -2.93461e-18)
(0.955926 -0.348831 2.03438e-16)
(1.00885 -0.332376 8.6076e-17)
(0.973489 -0.29185 -2.03387e-16)
(1.01855 -0.278083 -1.26566e-16)
(0.986934 -0.246301 -4.69163e-16)
(1.02606 -0.234444 1.18885e-16)
(0.99727 -0.209389 -2.06677e-18)
(1.03173 -0.198752 3.41562e-16)
(1.00516 -0.179067 -2.69151e-16)
(1.03588 -0.169098 1.55759e-16)
(1.01106 -0.153817 -1.9865e-16)
(1.03873 -0.144085 5.68726e-17)
(1.01529 -0.132498 -6.0659e-18)
(1.04045 -0.122672 -1.66402e-16)
(1.01812 -0.114242 1.75476e-17)
(1.04117 -0.104062 2.79992e-16)
(1.01974 -0.0983876 1.41884e-17)
(1.04098 -0.0876142 6.82679e-17)
(1.02039 -0.0844552 1.40062e-16)
(1.03989 -0.0727575 2.09317e-17)
(1.02038 -0.0721617 1.69679e-16)
(1.03788 -0.0589048 7.60711e-17)
(1.02016 -0.061423 2.2539e-16)
(1.03487 -0.045472 7.95213e-17)
(1.02019 -0.0521451 3.695e-16)
(1.0311 -0.0322099 2.00182e-16)
(1.02076 -0.0437617 -5.9405e-17)
(1.02675 -0.0192527 1.63386e-16)
(1.0244 -0.0368575 -1.35483e-17)
(1.0114 0.000434836 -8.20282e-17)
(1.06352 -0.0513821 -1.04324e-16)
(0.9462 -0.982032 1.11884e-15)
(0.863888 -0.829339 8.01499e-16)
(0.980777 -0.771631 4.2373e-16)
(0.903976 -0.649865 1.13605e-16)
(1.00063 -0.614778 3.21343e-16)
(0.936378 -0.521842 -8.84114e-18)
(1.0137 -0.496341 3.48391e-16)
(0.961084 -0.426431 8.36045e-17)
(1.02356 -0.406061 -1.13855e-16)
(0.979512 -0.352941 -1.68059e-16)
(1.03136 -0.336193 1.09422e-16)
(0.993302 -0.295098 -6.40022e-17)
(1.03746 -0.281093 -5.6699e-17)
(1.00371 -0.24886 6.65635e-16)
(1.04205 -0.236804 -3.7969e-16)
(1.01158 -0.21139 1.16918e-16)
(1.04532 -0.200586 -1.39638e-16)
(1.01742 -0.18061 6.68436e-18)
(1.04746 -0.170494 1.99634e-16)
(1.0216 -0.154976 -1.05726e-16)
(1.04861 -0.145116 8.97723e-17)
(1.02437 -0.13333 6.13496e-17)
(1.04886 -0.123398 9.93722e-17)
(1.02592 -0.114794 -1.77038e-16)
(1.0483 -0.104534 1.15763e-16)
(1.02644 -0.0986978 -2.66779e-16)
(1.04699 -0.0878864 3.40371e-17)
(1.02611 -0.0845587 3.7278e-17)
(1.04494 -0.0728992 -3.40572e-16)
(1.02524 -0.0721064 7.86588e-17)
(1.04207 -0.0590142 -1.8859e-16)