/*--------------------------------*- C++ -*----------------------------------*\
| =========                 |                                                 |
| \\      /  F ield         | foam-extend: Open Source CFD                    |
|  \\    /   O peration     | Version:  3.0                                   |
|   \\  /    A nd           | Web:         http://www.extend-project.de       |
|    \\/     M anipulation  |                                                 |
\*---------------------------------------------------------------------------*/
FoamFile
{
    version     2.0;
    format      ascii;
    class       volScalarField;
    location    "3";
    object      p;
}
// * * * * * * * * * * * * * * * * * * * * * * * * * * * * * * * * * * * * * //

dimensions      [0 0 0 0 0 0 0];

internalField   nonuniform List<scalar> 
672
(
-0.2402297217
-0.205146468
-0.1953726392
-0.1776715423
-0.176538272
-0.16673487
-0.1684569037
-0.1628132618
-0.1638159872
-0.1603908311
-0.1591442962
-0.1556180855
-0.2376756947
-0.2030369701
-0.1933854031
-0.1758932465
-0.1747596379
-0.1650501174
-0.1667228808
-0.1611067912
-0.1620596916
-0.1586375179
-0.1573705108
-0.1539028313
-0.2320232164
-0.1982407692
-0.1887526284
-0.1716108847
-0.1703615553
-0.160737534
-0.1621591288
-0.1564790758
-0.1571507671
-0.1536323842
-0.1521689856
-0.148775682
-0.2233749773
-0.1908872094
-0.1816907421
-0.1651263098
-0.1638012567
-0.1544068647
-0.155614621
-0.1499815647
-0.1504611175
-0.146925415
-0.1453807285
-0.1420273474
-0.2118187558
-0.1810267824
-0.1721867446
-0.1563570548
-0.1548832892
-0.1457475475
-0.1465968923
-0.1409665862
-0.1410813711
-0.1374643319
-0.1356898823
-0.1323773804
-0.1975690633
-0.1688639481
-0.1604921269
-0.1455974868
-0.1440007816
-0.1352439929
-0.1357414099
-0.1301962566
-0.1299813575
-0.1263452011
-0.1244346134
-0.1211675824
-0.180769518
-0.1545167812
-0.1467048362
-0.1329211649
-0.1311979303
-0.1229107859
-0.1230286443
-0.1176224323
-0.1170690904
-0.1134505787
-0.1114061551
-0.1082383914
-0.1617289441
-0.1382496345
-0.131087204
-0.1185773959
-0.116734518
-0.1090028636
-0.1086984343
-0.1034582953
-0.1024754517
-0.09884903676
-0.09653543229
-0.0935040723
-0.1406263577
-0.120232471
-0.1138338188
-0.102781547
-0.1008800194
-0.09383966171
-0.09317933734
-0.08822299093
-0.08692247324
-0.08339399441
-0.08097991728
-0.07813326585
-0.1178506434
-0.1007772539
-0.09520885314
-0.08573805698
-0.08378480728
-0.07751178125
-0.07648115094
-0.07186533176
-0.07024293055
-0.06686591618
-0.06437194408
-0.0617661517
-0.09359952668
-0.08008817958
-0.07547636719
-0.06776315848
-0.06586609037
-0.06051699095
-0.05922883996
-0.05508615392
-0.05325099193
-0.05010585505
-0.04760815564
-0.04524841864
-0.06831713151
-0.05850650069
-0.05489102242
-0.04901372956
-0.04717833481
-0.04281215043
-0.04127282629
-0.03767263364
-0.03567469239
-0.03285887616
-0.03047569167
-0.02845245598
-0.04220984823
-0.03625703212
-0.03376349619
-0.02987717422
-0.02824886253
-0.02503781824
-0.02342026223
-0.02053319615
-0.018549981
-0.01618241737
-0.01403269863
-0.0123797329
-0.01574486735
-0.01368763578
-0.01232474782
-0.01045385013
-0.009022646034
-0.006984140966
-0.005261553434
-0.003104047304
-0.00109635242
0.0007956665516
0.002739712371
0.003925780751
0.01086824962
0.008968150648
0.009092704188
0.008832749067
0.009905365197
0.01060564765
0.01221381199
0.01344750621
0.01521365898
0.01646265044
0.0179513784
0.01863450015
0.03717208529
0.031375492
0.03028318184
0.02792050522
0.02865451938
0.02803501648
0.02956856318
0.02989562623
0.03149158084
0.03209945748
0.03320021352
0.03329788632
0.06295808274
0.05330556763
0.0509268967
0.04640836753
0.04666476569
0.04460966961
0.04587406292
0.04514745578
0.04634528742
0.04619006462
0.04670225296
0.04620539923
0.08780747584
0.07445090597
0.07083360511
0.06423330254
0.06402847952
0.06057476043
0.06158055567
0.05981511657
0.06064098566
0.05972663457
0.059711797
0.0585824498
0.111516866
0.09460000689
0.08972858437
0.08107105634
0.08031902828
0.07543027412
0.07605923284
0.07319446999
0.07352629536
0.07179902982
0.07114584988
0.06940443477
0.1337292585
0.1134847434
0.1074318686
0.09683482646
0.09554978329
0.08928097503
0.08950595752
0.08553903198
0.08529414944
0.08269379177
0.08125748808
0.07889156657
0.1542506935
0.1309193326
0.1237299546
0.1112978486
0.1094554621
0.1018533408
0.1016407568
0.09660860127
0.09580606646
0.09239483364
0.09028610498
0.08734610928
0.1728010617
0.1466841804
0.1384567946
0.1243535295
0.1219883933
0.1131569162
0.1125256851
0.1065003604
0.1051698416
0.1009964709
0.0982540688
0.09475879624
0.189203094
0.1606264498
0.1514652262
0.1358676512
0.1330074349
0.1230541378
0.1219990103
0.115044419
0.1131714546
0.1082711658
0.1048879677
0.1008730307
0.2032579718
0.1725761504
0.1625988704
0.1457072063
0.1424011942
0.1314705527
0.1300481168
0.1223024075
0.1200180194
0.1145415421
0.1107412814
0.1062906671
0.2148172644
0.1824250755
0.1717926052
0.1538517891
0.1501896406
0.1384585649
0.1367243488
0.1283032291
0.1256235143
0.1196119409
0.1153544231
0.1105223008
0.2237595091
0.1900472067
0.1788850586
0.1601119156
0.1561282142
0.1437376172
0.1416909229
0.1326931227
0.129606863
0.1231265591
0.1183932931
0.1132890836
0.2299775408
0.1953888662
0.18390575
0.1646048351
0.1604613583
0.1476744827
0.1454987263
0.1361677513
0.1329188992
0.1261721735
0.1212472424
0.1159491004
0.2334218973
0.1983663257
0.1866907079
0.1670858903
0.1628051807
0.149756941
0.1474152746
0.1378301101
0.134344832
0.1273831215
0.1221999773
0.1168330971
0.2340344627
0.1989789838
0.1873437045
0.1677703687
0.1635500605
0.1505477238
0.1482776179
0.1387360429
0.1353243587
0.1283894952
0.1232663549
0.1179019845
0.2318325768
0.1971906788
0.1857268264
0.1664133233
0.1622849288
0.1494758144
0.1472722987
0.1378851093
0.1345469878
0.127736267
0.1227006264
0.1174715701
0.2268145821
0.1930479983
0.1819826885
0.1632578962
0.1594049343
0.14708117
0.145140005
0.1361690585
0.133121093
0.1266234868
0.1218701596
0.1168384654
0.2190537653
0.1865639988
0.1760249028
0.1581113601
0.1545734439
0.1428881775
0.1412428494
0.1328311085
0.1301758396
0.1241538639
0.1198832354
0.1151796517
0.2086187469
0.1778348291
0.1680195841
0.1512107492
0.1481331537
0.1373339064
0.1361208999
0.1284707685
0.1263252623
0.1208945699
0.1171598594
0.1128294156
0.1956214589
0.1669159433
0.1579371222
0.142431125
0.1398350648
0.1300416577
0.1292501102
0.122444874
0.1208079725
0.1160406571
0.1128785855
0.1090261026
0.1802160687
0.1539602562
0.1459681952
0.1320013205
0.1299864491
0.1213935818
0.1211360006
0.1153543453
0.1143811791
0.1104183032
0.1079964942
0.1046746922
0.1625385627
0.1390606054
0.1321475601
0.119885209
0.1184536011
0.1111428235
0.1113639227
0.1066238221
0.1062026431
0.1030117995
0.1011721226
0.09841636164
0.1428340322
0.122425186
0.11667663
0.106272686
0.1054496381
0.09952377041
0.1002551851
0.0966530417
0.09688000032
0.09456664826
0.0934788096
0.09131505477
0.121257176
0.1041873689
0.09967730278
0.09126713162
0.09106299617
0.08659787313
0.08783379461
0.08541646949
0.08630748591
0.08490963888
0.08464161737
0.08306573838
0.0981370383
0.08460090284
0.0813399045
0.0749775545
0.07531719916
0.07228471586
0.07389095895
0.07257752463
0.07395254963
0.073372353
0.07372479268
0.0727321517
0.07364661795
0.06384157222
0.06188346003
0.05766926222
0.05857321432
0.05704026875
0.05905252123
0.0588992119
0.06083604449
0.06111021311
0.06217465087
0.06173308848
0.04818520385
0.04220191739
0.04149117241
0.03938867392
0.04070892795
0.04054930835
0.04273813623
0.04356376372
0.04577563581
0.04674353443
0.04827024879
0.04838895391
0.02194180101
0.01989122588
0.02045472225
0.02051675968
0.02226618832
0.0235134192
0.02590496506
0.02773163102
0.03026344686
0.03192223654
0.03393956928
0.03455745802
-0.004632012827
-0.002762560487
-0.001025457277
0.001098554498
0.003105286597
0.005590412186
0.007957507437
0.01059477624
0.01320738444
0.01542333977
0.01776398882
0.01888458191
-0.03133598676
-0.02553257111
-0.02262661288
-0.0184439699
-0.01618524215
-0.01247673378
-0.0101433814
-0.006731491009
-0.004069316326
-0.001362254844
0.001234047706
0.0027732153
-0.05769082387
-0.04806399593
-0.04411372966
-0.03801940189
-0.03567284182
-0.03092327949
-0.02881880479
-0.02481158875
-0.0222862831
-0.0192004076
-0.01646853089
-0.01451742683
-0.08349018934
-0.07012756125
-0.06516771133
-0.05721883924
-0.05479752201
-0.04905492904
-0.04718973377
-0.04264594621
-0.04028993668
-0.03690566417
-0.0341064934
-0.03183583514
-0.1082579357
-0.09135853434
-0.0855189354
-0.07588880239
-0.07353162663
-0.06697952977
-0.06552677431
-0.06063214242
-0.05864912403
-0.05510576243
-0.0524160471
-0.04984697526
-0.1317886183
-0.1115400459
-0.1048816671
-0.09367488711
-0.09139148861
-0.08409166024
-0.08302551716
-0.07781030393
-0.07613870835
-0.07243962475
-0.06977056521
-0.06694147248
-0.1536413538
-0.1303177272
-0.1229573285
-0.1103514014
-0.1082267621
-0.1003308592
-0.09976074997
-0.09437783876
-0.09319260481
-0.08948116546
-0.08704845227
-0.08398394144
-0.1736237161
-0.1475055151
-0.1395292763
-0.1256756008
-0.1237282818
-0.1153271878
-0.1152424868
-0.1097452732
-0.1090319074
-0.1053397777
-0.1031594371
-0.09987713066
-0.191358045
-0.162778892
-0.1542767877
-0.1393365039
-0.1375666672
-0.1287365098
-0.1290975321
-0.1235101804
-0.123213582
-0.1195353696
-0.117547907
-0.1140826427
-0.206682266
-0.1760014333
-0.1670814682
-0.1512479056
-0.1496894461
-0.1405582124
-0.1413933721
-0.1358199697
-0.1360128212
-0.1324396934
-0.1307589539
-0.1271650633
-0.2193028228
-0.186898965
-0.177624912
-0.1610410673
-0.1596210066
-0.1502024167
-0.151359013
-0.1457345333
-0.1462230559
-0.1426779697
-0.1411476989
-0.1374939896
-0.2291073496
-0.1953971374
-0.1858896695
-0.168774728
-0.1675254637
-0.1579548855
-0.1594448513
-0.1538601946
-0.1546725435
-0.151210515
-0.1498640383
-0.1461776092
-0.2358984825
-0.2012923023
-0.1916001251
-0.1740906572
-0.1729039107
-0.1631753727
-0.1648211569
-0.1592084153
-0.1601776777
-0.1567554159
-0.1555183444
-0.1518780611
-0.2396315849
-0.2045786405
-0.1948271312
-0.1771539545
-0.176054746
-0.1662940786
-0.1680725761
-0.1624798238
-0.1635508221
-0.1601502134
-0.1589511077
-0.1553374642
)
;

boundaryField
{
    out
    {
        type            implicitExtrapolation;
    }
    in
    {
        type            implicitExtrapolation;
    }
    frontAndBack
    {
        type            empty;
    }
}


// ************************************************************************* //
