/*--------------------------------*- C++ -*----------------------------------*\
| =========                 |                                                 |
| \\      /  F ield         | foam-extend: Open Source CFD                    |
|  \\    /   O peration     | Version:  3.0                                   |
|   \\  /    A nd           | Web:         http://www.extend-project.de       |
|    \\/     M anipulation  |                                                 |
\*---------------------------------------------------------------------------*/
FoamFile
{
    version     2.0;
    format      ascii;
    class       volSymmTensorField;
    location    "3";
    object      sigma;
}
// * * * * * * * * * * * * * * * * * * * * * * * * * * * * * * * * * * * * * //

dimensions      [0 0 0 0 0 0 0];

internalField   nonuniform List<symmTensor> 
672
(
(-0.1634159451 -0.01073039635 -1.175968401e-19 0.1625297835 -2.475748301e-20 0.0008861616359)
(-0.1509700081 -0.01228517777 -2.705806333e-19 0.1486468926 -1.613971852e-20 0.002323115576)
(-0.1331940818 -0.01225254048 -1.766804846e-19 0.1295848631 -6.434273045e-21 0.003609218676)
(-0.1146829088 -0.01164993759 -6.325407702e-20 0.1099077053 8.494128153e-22 0.00477520356)
(-0.09713286404 -0.01091207056 -2.747741242e-19 0.09132221203 -2.828535734e-20 0.005810652007)
(-0.08102276822 -0.01022723088 -2.598574227e-19 0.07431827926 -1.3231925e-19 0.006704488959)
(-0.06648638073 -0.009698601049 -4.090473468e-19 0.0591433723 -1.359753386e-19 0.00734300843)
(-0.05355259852 -0.00938208274 -5.104127816e-19 0.04585714678 -3.704209861e-19 0.007695451749)
(-0.04209690325 -0.009317887554 -5.415142998e-19 0.03462643124 -2.382074852e-19 0.007470472015)
(-0.03235249915 -0.009555896282 -3.138281715e-19 0.02567026686 4.576221821e-21 0.006682232291)
(-0.02413844731 -0.01011397481 -9.932365981e-20 0.01930763398 1.196312857e-19 0.004830813331)
(-0.01805235957 -0.01109184597 -8.013385516e-20 0.01607600539 -1.65024063e-19 0.001976354189)
(-0.1605288644 -0.0304953665 -9.614851056e-20 0.1596594382 1.331510392e-21 0.0008694261999)
(-0.1462349299 -0.03471769019 -2.54375433e-19 0.1439534685 4.649495294e-20 0.002281461433)
(-0.1278818794 -0.03420554831 -2.021709307e-19 0.1243325549 1.253863792e-19 0.003549324448)
(-0.1093298802 -0.03193132583 -2.949956746e-20 0.1046273763 -5.930826918e-20 0.004702503896)
(-0.09195316731 -0.02915338295 -2.587806214e-19 0.08622253578 8.239846293e-21 0.005730631526)
(-0.07608599508 -0.02640327724 -2.508576045e-19 0.06946413505 -2.401958926e-19 0.006621860031)
(-0.06178681374 -0.02395131086 -4.803999207e-19 0.05452322036 -3.543873226e-19 0.007263593385)
(-0.04904648351 -0.02193042951 -8.127360726e-19 0.04142299609 -5.247412185e-19 0.007623487423)
(-0.03772043634 -0.02041301347 -4.48377536e-19 0.03030793067 -6.345812996e-20 0.007412505669)
(-0.02801764668 -0.01950606528 -9.548587731e-20 0.02137716334 -9.177707845e-20 0.006640483333)
(-0.0197469793 -0.01923335703 -2.922753976e-19 0.01493678645 -1.180054655e-19 0.004810192848)
(-0.01347451351 -0.01967586703 -2.184423238e-19 0.0115018113 -1.393175675e-19 0.001972702204)
(-0.1549430228 -0.04950431335 -2.640982013e-20 0.154091734 -5.979179002e-20 0.0008512888508)
(-0.1372160977 -0.05535749933 -1.90813367e-19 0.1349804557 1.087440566e-19 0.002235641904)
(-0.1178396351 -0.05398387413 -2.462360214e-19 0.1143571646 2.191109113e-19 0.003482470538)
(-0.09928104771 -0.04994032576 -1.910067255e-19 0.09465974626 4.662542654e-20 0.004621301452)
(-0.08230809454 -0.04514649651 -2.965245831e-19 0.07666615126 2.417250992e-20 0.005641943284)
(-0.06698304679 -0.04040281412 -6.193885701e-19 0.06045139878 -1.783746136e-19 0.006531648002)
(-0.05322451825 -0.03610703874 -9.0530511e-19 0.04604554829 -6.628298469e-20 0.007178969954)
(-0.04095189295 -0.03244913103 -8.557767558e-19 0.03340251478 -8.415418949e-20 0.007549378166)
(-0.02998626476 -0.02952157957 -2.818857837e-19 0.02262954366 6.026632124e-21 0.0073567211)
(-0.02049461803 -0.02747854035 -4.749901037e-19 0.01389059959 -2.354547331e-19 0.006604018441)
(-0.01227859764 -0.02635207091 -3.249960542e-19 0.007481475793 -2.108238036e-19 0.00479712185)
(-0.005911248396 -0.02621490838 -1.430551199e-19 0.003938187187 -1.501904931e-19 0.001973061209)
(-0.1468926057 -0.0673067862 5.80518617e-20 0.1460622175 -6.609139245e-20 0.0008303881832)
(-0.1246113633 -0.07320049843 -9.447356748e-21 0.122428827 1.290757262e-19 0.002182536253)
(-0.1039436771 -0.07038605571 -1.563490695e-19 0.1005384165 2.150877168e-19 0.003405260621)
(-0.08546632533 -0.06443384027 -1.723481257e-19 0.08093847344 1.351090644e-19 0.00452785189)
(-0.06912535755 -0.05767369382 -2.045301583e-19 0.06358481014 -7.260594695e-20 0.005540547411)
(-0.05461541843 -0.05106133384 -4.073246053e-19 0.04818620139 6.105384149e-20 0.006429217033)
(-0.04166838748 -0.04506359663 -5.338104435e-19 0.03458363375 2.966141322e-19 0.007084753723)
(-0.03010685273 -0.03989896116 -1.154949229e-18 0.02263784216 2.741718012e-19 0.007469010575)
(-0.01970966628 -0.03566518481 -6.155668298e-19 0.01240799784 7.911392096e-20 0.007301668445)
(-0.01058675672 -0.03254599049 -8.000311483e-19 0.004012166895 5.187653024e-19 0.006574589821)
(-0.002536296333 -0.0305748434 -6.244222452e-19 -0.002263616825 1.8238811e-19 0.004799913158)
(0.003832173219 -0.02984727006 -2.810182792e-19 -0.005819862025 2.101607781e-19 0.001987688806)
(-0.136698374 -0.08354123719 7.009478674e-21 0.1358930951 1.167992365e-19 0.0008052788723)
(-0.1093767458 -0.08752005731 8.333195455e-20 0.1072582184 1.837202891e-19 0.002118527466)
(-0.08739271676 -0.08256489177 -1.391842352e-19 0.0840812168 2.602538959e-19 0.00331149996)
(-0.06915478211 -0.07454899026 -2.580102034e-19 0.06474158531 1.027689107e-19 0.004413196797)
(-0.05366890155 -0.06590116589 -3.660343567e-19 0.04825476835 -4.577415966e-20 0.0054141332)
(-0.04021149311 -0.05759113589 -2.925892372e-19 0.03391285023 1.77363148e-19 0.006298642882)
(-0.02830413379 -0.05008249392 -1.271443195e-19 0.02134388707 2.402901853e-19 0.006960246715)
(-0.01765981461 -0.04358491444 -8.823692832e-19 0.01030294747 3.731594483e-19 0.007356867143)
(-0.008008356085 -0.03818313114 -3.642819714e-19 0.0007931500432 3.77686244e-19 0.007215206042)
(0.000614079104 -0.03406862808 3.858380185e-19 -0.007129209922 3.318769951e-19 0.006515130818)
(0.008421151992 -0.03126787966 -5.922343593e-19 -0.01319935732 3.712771574e-19 0.004778205331)
(0.01475850232 -0.02996424082 -2.180599593e-19 -0.01674794733 1.597070203e-19 0.001989445012)
(-0.1247489716 -0.09794041002 1.183323583e-20 0.1239739397 1.532641599e-19 0.0007750318561)
(-0.09262455925 -0.09792163746 1.180789443e-19 0.09058399886 2.53486065e-19 0.00204056039)
(-0.0695743704 -0.09009523202 8.584732189e-20 0.06637831403 1.79319305e-19 0.003196056372)
(-0.05181105043 -0.07987032456 -2.90321367e-19 0.04754101921 9.59862683e-20 0.004270031215)
(-0.03739261061 -0.06943779588 -1.632398208e-19 0.03213925096 -1.642105911e-19 0.005253359648)
(-0.02517595484 -0.05962839716 -2.253960398e-19 0.01904750115 1.604673441e-19 0.006128453694)
(-0.01447328608 -0.0508248876 4.238591217e-19 0.007680815228 -2.618628789e-20 0.006792470852)
(-0.004886525421 -0.04319114489 -3.271103128e-19 -0.002312127361 9.951874115e-21 0.007198652783)
(0.003902925925 -0.03678843247 -8.204471808e-19 -0.01098647209 5.224441472e-20 0.007083546162)
(0.01193506435 -0.03180705324 -2.066848165e-19 -0.01834875315 3.425580702e-19 0.006413688796)
(0.01941446656 -0.02826401039 7.948469411e-19 -0.02413990825 -2.834458409e-21 0.004725441693)
(0.0256449215 -0.02647689468 -3.864207099e-19 -0.02762305193 -2.39905395e-20 0.001978130434)
(-0.1114506995 -0.1103557967 6.246075541e-20 0.110712958 8.427273478e-20 0.000737741532)
(-0.07550024203 -0.1043814377 1.180462109e-19 0.0735562017 2.363154149e-19 0.001944040331)
(-0.05190945513 -0.09302370206 2.595254213e-19 0.04885785612 2.632424508e-20 0.003051599009)
(-0.03492858421 -0.08048838834 -1.219247129e-19 0.03084036066 -1.52605687e-19 0.004088223558)
(-0.02177335228 -0.0684054131 -6.245107526e-19 0.01672821747 -1.494444756e-19 0.005045134803)
(-0.01093215865 -0.05732081896 -3.853671061e-19 0.005029290753 8.09943922e-20 0.005902867895)
(-0.001536050823 -0.04746212513 -1.059369295e-19 -0.00502707626 -5.497614976e-20 0.006563127083)
(0.006908018464 -0.03890957998 7.216227876e-20 -0.01388277893 1.287761388e-19 0.006974760466)
(0.01475701571 -0.03167924522 -9.824078713e-20 -0.02164398422 3.321287884e-19 0.006886968509)
(0.022124252 -0.02593973653 4.460831481e-20 -0.02837719051 2.0826123e-19 0.006252938514)
(0.02920542703 -0.02169942358 -3.640832501e-19 -0.03383499555 -2.113230695e-19 0.004629568515)
(0.03548045258 -0.01941131358 -4.002506991e-20 -0.03742960416 3.520753408e-19 0.001949151576)
(-0.09721325741 -0.120745199 4.021968184e-20 0.09652143659 9.55059174e-20 0.0006918208195)
(-0.05907127501 -0.1072271349 1.487570831e-19 0.05724650934 1.497681666e-19 0.001824765669)
(-0.03570947676 -0.09184072906 1.444596642e-19 0.03283814242 -2.560848925e-21 0.002871334341)
(-0.01988176525 -0.07696244656 2.975053839e-20 0.01602345716 -1.2729294e-19 0.003858308088)
(-0.008171874329 -0.06338817076 -5.45103747e-19 0.003394571345 1.356761931e-19 0.004777302984)
(0.001201456572 -0.05125622172 -6.044996222e-19 -0.006808547648 1.543733032e-19 0.005607091076)
(0.009234752341 -0.04057678619 -6.719290808e-19 -0.01548971568 3.802127668e-19 0.006254963341)
(0.01649307562 -0.03131464763 -7.444384484e-20 -0.02315882584 3.262079074e-19 0.006665750216)
(0.02335885323 -0.02342217214 -1.687095133e-19 -0.02996271884 3.258026857e-19 0.006603865604)
(0.03001380087 -0.0170247067 -1.662683793e-19 -0.03602384963 5.393163226e-19 0.006010048759)
(0.03663037957 -0.01212033911 5.225345003e-19 -0.04109761152 4.185576365e-19 0.004467231952)
(0.0427762813 -0.009189020891 -7.607346228e-20 -0.0446637115 1.63212963e-19 0.0018874302)
(-0.08239367453 -0.129165603 -3.805885866e-20 0.08175777117 1.321874914e-19 0.0006359033611)
(-0.04420703086 -0.1070910728 1.629287564e-19 0.0425280668 8.842402759e-20 0.001678964067)
(-0.02202355202 -0.08741945243 1.892198346e-19 0.01937437871 -6.232830601e-20 0.002649173317)
(-0.007756036184 -0.07025577008 -9.307270392e-20 0.004184154799 1.231144142e-19 0.003571881385)
(0.002351966333 -0.05536967939 1.281379934e-19 -0.00679126346 1.653641773e-19 0.004439297127)
(0.0102146651 -0.04240459161 -4.626528093e-19 -0.01544356746 2.914384257e-19 0.005228902361)
(0.01688235386 -0.03111035334 -2.175913663e-19 -0.02273756759 3.277898984e-19 0.005855213729)
(0.02295370447 -0.0213131046 -2.622660107e-19 -0.02921394115 4.552021532e-19 0.006260236683)
(0.02881090227 -0.01289695902 3.898082818e-19 -0.03503841196 7.532736218e-19 0.006227509687)
(0.03468988922 -0.005936131499 7.894119364e-19 -0.04037583614 3.087034565e-19 0.005685946915)
(0.04075304553 -0.000429210186 3.029575041e-19 -0.04500291762 -1.842249334e-19 0.004249872093)
(0.0467160691 0.003140070897 3.833282831e-19 -0.04852257554 -3.738187289e-20 0.001806506438)
(-0.06729470264 -0.1357509186 -1.125372423e-19 0.06672648521 1.096821698e-19 0.0005682174305)
(-0.03150348578 -0.1048276612 -5.662687745e-21 0.03000094489 4.309652098e-20 0.001502540891)
(-0.0115426018 -0.0809095745 -2.232320305e-19 0.009163964236 1.149093378e-19 0.00237863756)
(0.0007485015747 -0.06162401447 -8.983143534e-20 -0.003968510807 2.575627441e-19 0.003220009232)
(0.009124723098 -0.04562767654 4.090813338e-20 -0.01314428866 3.002156269e-19 0.004019565564)
(0.01547419073 -0.03203046759 3.16238691e-19 -0.02022847304 2.336667253e-19 0.004754282315)
(0.02081776053 -0.02030513572 -9.818865179e-20 -0.02616528045 1.443890605e-19 0.00534751992)
(0.02574454694 -0.01012536121 1.453680449e-19 -0.03148488538 4.681811652e-19 0.005740338443)
(0.03060919327 -0.00130230117 8.030231967e-19 -0.03634842787 2.95373528e-19 0.0057392346)
(0.0356747667 0.006162245815 8.036107454e-19 -0.04093796469 -3.284950551e-19 0.005263197989)
(0.04107673316 0.01227454023 -1.044332562e-19 -0.04503994192 -2.056142996e-19 0.00396320876)
(0.0466910568 0.01656904159 1.701965598e-19 -0.04839063129 -6.441349767e-20 0.001699574495)
(-0.05212729519 -0.1406771781 -7.331500019e-20 0.05163893095 4.128379161e-20 0.0004883642445)
(-0.02122170373 -0.1014022546 -5.327233628e-20 0.01992799995 3.560002228e-20 0.001293703776)
(-0.004523794446 -0.07359298025 -9.995372333e-20 0.002467187279 1.402258728e-19 0.002056607168)
(0.005397895597 -0.05245655629 3.587382987e-20 -0.008195964933 1.908416651e-19 0.002798069336)
(0.01194083243 -0.0355661254 -8.795296787e-20 -0.0154526982 3.077419615e-19 0.003511865772)
(0.01679993661 -0.02151354611 3.429834725e-19 -0.02097490935 1.969679967e-19 0.00417497274)
(0.02087981395 -0.009505818633 1.058668755e-19 -0.02560091668 1.587658218e-19 0.00472110273)
(0.02471075264 0.0009346637852 3.705096344e-19 -0.02980254853 2.222119247e-19 0.005091795891)
(0.02859558571 0.01006699172 4.117826111e-19 -0.03371554184 -6.250703726e-20 0.005119956129)
(0.03279707388 0.01797858334 4.795667071e-20 -0.03751467465 -2.247873934e-19 0.004717600776)
(0.03742060142 0.0246851952 -1.505808868e-19 -0.04099970208 -4.822641989e-20 0.003579100666)
(0.04251523282 0.02979205677 -6.001020734e-21 -0.04406289872 -3.471541187e-20 0.001547665892)
(-0.03702235346 -0.1441400954 8.491941269e-20 0.0366274178 -3.209485533e-20 0.0003949356684)
(-0.0132783734 -0.09778033101 -3.725828804e-20 0.01222858221 -1.261638803e-20 0.001049791186)
(-0.0007781711446 -0.06674175595 -1.712029704e-19 -0.0009008082325 9.90664043e-20 0.001678979377)
(0.006435767787 -0.04412696159 -2.087152511e-19 -0.008736181079 1.967646072e-19 0.002300413292)
(0.0110731338 -0.02656927903 -1.205242395e-19 -0.01398178789 3.04071863e-19 0.002908654095)
(0.01447944415 -0.01221014569 1.727084895e-19 -0.01796107283 1.862245304e-19 0.003481628677)
(0.01736374025 -2.72130649e-05 -2.349096069e-19 -0.02132843476 2.588114813e-19 0.003964694507)
(0.02015046463 0.01059368333 5.069514572e-19 -0.0244527565 2.235659918e-19 0.004302291863)
(0.02307139326 0.0199733042 3.26588682e-19 -0.02742870727 -1.032365459e-19 0.004357314011)
(0.02635964125 0.02828701845 -5.731849295e-20 -0.03039874235 -2.325871165e-19 0.004039101096)
(0.03008630574 0.03554445704 -6.027950689e-19 -0.03317907544 -4.942457857e-20 0.003092769701)
(0.03444821536 0.04147562745 1.579971798e-19 -0.03579943706 -1.231415731e-20 0.001351221699)
(-0.02202568483 -0.1463122095 6.669510425e-20 0.02173688354 -2.598113525e-20 0.0002888012895)
(-0.007269846117 -0.09480359759 -3.142776361e-20 0.006497924739 -1.165843479e-20 0.0007719213781)
(0.0002950205467 -0.06145862403 -1.483208234e-19 -0.001542191461 8.353149378e-20 0.001247170914)
(0.004545345352 -0.03782023961 -1.105815459e-19 -0.006273909734 1.808105395e-19 0.001728564382)
(0.007234361189 -0.01982626433 1.276223791e-20 -0.009445963751 2.577605484e-19 0.002211602561)
(0.009231154708 -0.005283322123 6.360511607e-20 -0.01190683057 2.256639898e-19 0.002675675865)
(0.01098501963 0.006999852903 4.904577626e-20 -0.01406437433 2.607837764e-19 0.003079354698)
(0.01277443448 0.01774249071 2.523504557e-19 -0.01614611043 1.461074422e-19 0.003371675945)
(0.01473983188 0.02731258883 -5.121797985e-20 -0.01818938857 -6.55779746e-20 0.00344955669)
(0.0170516733 0.03596305344 -1.454537008e-19 -0.02027541242 -1.543331251e-19 0.00322373912)
(0.01974424479 0.04369487968 -4.420146033e-19 -0.0222428433 -5.599264809e-20 0.002498598508)
(0.0230954617 0.05048064594 -4.491257421e-20 -0.02420189481 -2.713913092e-20 0.001106433111)
(-0.007119212151 -0.1473272666 6.03354359e-20 0.006949809189 -1.03405766e-20 0.000169402962)
(-0.002531262243 -0.09309807879 -1.837488073e-20 0.002071307381 6.736183398e-21 0.0004599548622)
(-0.0003670748981 -0.05856026262 -1.458598945e-19 -0.0003940815005 7.082797405e-20 0.0007611563986)
(0.0007679324014 -0.03441204347 -1.09622362e-20 -0.001850441894 1.507673834e-19 0.001082509492)
(0.001493518505 -0.01621587068 -2.166261322e-20 -0.002913752542 2.25974944e-19 0.001420234037)
(0.002116891399 -0.001595210464 5.048205242e-20 -0.003873094881 2.317919057e-19 0.001756203481)
(0.002785722485 0.01073172313 6.661759244e-20 -0.004848718113 2.441336654e-19 0.002062995629)
(0.003603865953 0.02154816373 -2.6341473e-20 -0.005900762547 1.52957758e-19 0.002296896594)
(0.004607480054 0.03125192275 -1.277074185e-19 -0.006998730445 -7.493559306e-21 0.002391250391)
(0.00587708486 0.0401537131 -2.601232676e-19 -0.008141167255 -9.739707684e-20 0.002264082395)
(0.007409763923 0.0482395184 -2.922948126e-19 -0.009195529611 -5.059727251e-20 0.001785765688)
(0.009416623172 0.05568179581 -9.754948778e-20 -0.01022037205 -3.134060818e-20 0.0008037488798)
(0.007755211182 -0.1472530476 5.706647878e-20 -0.007794160934 5.713809861e-21 3.894975165e-05)
(0.001765417745 -0.09299416506 1.530097933e-21 -0.001883742432 2.742740421e-20 0.0001183246878)
(-0.001620273527 -0.05847389849 -1.267798868e-19 0.001392642857 5.775823698e-20 0.0002276306695)
(-0.003638388298 -0.03435476647 6.674175088e-20 0.003267282789 1.238710025e-19 0.0003711055094)
(-0.004869041923 -0.01618489704 1.710782602e-20 0.004323084949 2.010166346e-19 0.0005459569746)
(-0.005600238914 -0.001576178565 4.423331108e-20 0.004863051747 2.193433235e-19 0.0007371871669)
(-0.006001747731 0.01075528032 3.114152988e-20 0.005068646985 2.521916431e-19 0.0009331007454)
(-0.006156425113 0.02160572916 -1.009091409e-19 0.005057305758 1.84578489e-19 0.001099119356)
(-0.006135713925 0.03137708614 -2.724363431e-19 0.004926580494 3.069743994e-20 0.001209133431)
(-0.005960123442 0.04040627617 -3.328144151e-19 0.004768375186 -6.077375092e-20 0.001191748256)
(-0.00566698541 0.04866796857 -1.95945225e-19 0.004677013121 -1.824680115e-20 0.0009899722885)
(-0.005195332836 0.05652072048 -1.531660422e-19 0.004727000731 -4.515493723e-20 0.0004683321048)
(0.02267041228 -0.1460852307 6.726886756e-20 -0.02256846198 1.682323456e-20 -0.0001019503054)
(0.006510217054 -0.09449152075 3.219172314e-20 -0.006260217341 3.860748845e-20 -0.0002499997132)
(-0.002240593811 -0.06119429886 -6.991028126e-20 0.002589068188 5.407415965e-20 -0.0003484743767)
(-0.007329638577 -0.03763612009 9.904886586e-20 0.007728492355 9.867137941e-20 -0.0003988537773)
(-0.01048308189 -0.01971459438 1.133306799e-19 0.01088615861 1.837184682e-19 -0.0004030767261)
(-0.01256155116 -0.005203884635 6.562876756e-20 0.01293343336 1.946096789e-19 -0.0003718821982)
(-0.01403864789 0.007092644626 1.426545927e-19 0.01433918997 2.721775791e-19 -0.000300542079)
(-0.01518191419 0.01793138817 -3.230531762e-19 0.01539371562 2.078839397e-19 -0.0002118014253)
(-0.016169356 0.02769225945 -3.439332921e-19 0.01625876812 3.32668093e-20 -8.941212075e-05)
(-0.01713263521 0.03670552877 -2.514438864e-19 0.01712185105 -2.014922978e-20 1.078416247e-05)
(-0.01814668004 0.04493386264 -1.609465258e-19 0.01803832714 5.88460806e-20 0.0001083529003)
(-0.01937701962 0.05285213441 -3.213690668e-19 0.01928358152 -7.037556932e-20 9.343809913e-05)
(0.03768006556 -0.1437509929 7.692188139e-20 -0.03743011861 1.558085301e-20 -0.0002499469523)
(0.01252846086 -0.09726045821 7.292341246e-20 -0.01189089547 2.353196927e-20 -0.0006375653981)
(-0.001091124846 -0.06628605394 8.818281376e-20 0.002046813662 7.278030162e-20 -0.0009556888155)
(-0.009060611936 -0.0437826518 7.663419899e-21 0.0102726696 7.494926513e-20 -0.001212057659)
(-0.01408530101 -0.02632459732 1.943542831e-19 0.01549280301 1.672863737e-19 -0.001407502007)
(-0.01752226097 -0.01200591267 -3.372579936e-20 0.01907023063 1.716328553e-19 -0.001547969654)
(-0.02010901817 0.0002024465271 -1.125883387e-20 0.02172029229 2.614409084e-19 -0.001611274128)
(-0.02227884771 0.01096765482 -3.997716853e-19 0.02388585772 1.912001602e-19 -0.001607010008)
(-0.02430387484 0.02062424082 -1.58507116e-19 0.02577847214 8.556216084e-20 -0.001474597297)
(-0.02641731003 0.02946253173 -3.882669282e-19 0.02766883286 1.028065728e-19 -0.001251522827)
(-0.02872060785 0.03743716564 -2.623395655e-19 0.0295585853 8.66908723e-20 -0.0008379774528)
(-0.03166248873 0.04503538615 -3.124502626e-19 0.03197336892 -9.390492694e-20 -0.0003108801825)
(0.05279301328 -0.1401126079 -3.476552041e-20 -0.0523898299 -4.85224189e-20 -0.0004031833778)
(0.02047942624 -0.1006770117 1.370297948e-19 -0.01944109249 -3.604026861e-20 -0.001038333752)
(0.002751173575 -0.07292894183 2.125879447e-19 -0.001166914 5.442395901e-20 -0.001584259576)
(-0.007814285871 -0.05190697438 1.477910596e-19 0.009869457924 7.425696848e-20 -0.002055172052)
(-0.014637819 -0.03511720756 2.198543767e-19 0.01708866066 1.027641311e-19 -0.002450841656)
(-0.01945044832 -0.02109827426 7.802353466e-20 0.02222195954 -8.296028805e-21 -0.002771511217)
(-0.02318971205 -0.009051960038 5.281239348e-19 0.0261669492 1.798433102e-19 -0.002977237152)
(-0.02642217327 0.001555993026 -5.74443292e-20 0.02948473367 3.579404525e-19 -0.003062560395)
(-0.02949906976 0.01099022777 -1.806265337e-19 0.03242111739 1.673438569e-19 -0.002922047636)
(-0.03274445318 0.01946170882 -1.077506112e-19 0.03531598459 1.925039282e-19 -0.002571531409)
(-0.03629394534 0.02692669686 -8.999564134e-20 0.03812368331 2.606776193e-19 -0.001829737968)
(-0.04090414462 0.03378490891 -3.912637707e-19 0.04163971191 -5.100569603e-20 -0.0007355672897)
(0.06795361378 -0.1349997614 -8.999395168e-20 -0.06739603209 -1.037666285e-19 -0.0005575816867)
(0.03076047317 -0.1039042962 1.216684176e-19 -0.02931777859 -1.196380974e-19 -0.001442694573)
(0.009869162726 -0.08002367463 2.654506827e-19 -0.007649860077 2.603094761e-20 -0.002219302649)
(-0.002940468768 -0.06082565736 1.460510921e-19 0.005848793562 8.911066096e-20 -0.002908324794)
(-0.01147490976 -0.04490456521 3.373496498e-20 0.01498319981 5.287923905e-20 -0.003508290052)
(-0.01768423058 -0.03132289586 1.01699092e-20 0.02169759988 -1.64987525e-19 -0.004013369305)
(-0.02262669478 -0.01955215657 4.87783738e-19 0.02699220579 -7.492415811e-20 -0.004365511001)
(-0.02695922715 -0.009218319428 2.403916379e-19 0.0315025265 2.845495364e-19 -0.004543299349)
(-0.03109064267 -0.0001347585527 -8.605005743e-20 0.03548677931 8.963412835e-21 -0.004396136639)
(-0.03540869329 0.007805865205 4.225611906e-19 0.0393250768 -1.288896539e-19 -0.003916383517)
(-0.04007847095 0.01456120535 3.26825151e-19 0.04291984908 3.805810648e-19 -0.002841378138)
(-0.04599516281 0.02029207366 -1.087231735e-19 0.04716397375 1.100680047e-19 -0.001168810939)
(0.08302006521 -0.1282226099 4.399569461e-20 -0.08230986557 -6.740164115e-20 -0.0007101996335)
(0.04344784249 -0.1059835482 1.329565383e-19 -0.04160566872 -1.869156833e-19 -0.001842173776)
(0.02043189055 -0.08630732348 4.170965443e-19 -0.01758457826 -1.850708755e-20 -0.002847312293)
(0.005767545078 -0.06917623725 1.962949742e-19 -0.002014355446 9.698630312e-20 -0.003753189632)
(-0.004377531677 -0.05431309252 1.010569619e-19 0.008934665867 1.060958135e-20 -0.004557134191)
(-0.01200231203 -0.04132912877 -2.311490745e-20 0.01724910918 -2.014555572e-19 -0.005246797144)
(-0.01819979644 -0.0299764805 3.209327353e-19 0.02394610379 -3.98974493e-19 -0.005746307345)
(-0.02366418506 -0.02005499207 3.800727212e-19 0.0296816046 7.780021298e-20 -0.006017419544)
(-0.02883550453 -0.01145758821 -2.809582015e-20 0.0347007534 3.452313219e-19 -0.005865248869)
(-0.03412617089 -0.004193647313 -2.465527755e-19 0.03938320507 -1.463880394e-19 -0.005257034185)
(-0.03973509695 0.001703852356 4.851381606e-19 0.04358573169 -1.703897681e-19 -0.003850634748)
(-0.04667275079 0.006194452206 -3.494473797e-19 0.04827381452 8.355335978e-20 -0.001601063735)
(0.09777474337 -0.1196152015 1.372805222e-20 -0.09691796673 -1.312967097e-19 -0.0008567766424)
(0.05827600303 -0.1059570956 1.254374522e-19 -0.05604976062 -2.160095386e-19 -0.00222624241)
(0.03416692631 -0.09051185195 2.433438707e-19 -0.03071504969 -2.122729409e-19 -0.003451876622)
(0.01804717034 -0.07559058553 2.468346281e-19 -0.01347935706 7.474925086e-20 -0.004567813278)
(0.006409266446 -0.06196549963 -2.238520051e-19 -0.0008390800532 6.299812074e-20 -0.005570186393)
(-0.002626986514 -0.04976373155 -7.437372294e-20 0.009067164459 -4.972732931e-20 -0.006440177944)
(-0.01010591748 -0.03900008974 -3.057586675e-19 0.01719063746 -4.300474771e-19 -0.007084719978)
(-0.01670749734 -0.02964145154 2.797472217e-19 0.02415622898 -4.211034587e-19 -0.007448731643)
(-0.02288481122 -0.02165798135 5.207443431e-19 0.03017936943 -1.040709686e-19 -0.007294558208)
(-0.02903784808 -0.01518062655 5.636681077e-19 0.03560139237 2.821577146e-19 -0.00656354429)
(-0.03539052592 -0.01024451468 -3.05032419e-19 0.04022706302 2.730355275e-19 -0.004836537104)
(-0.04295981392 -0.007141049564 1.87640533e-19 0.04498403864 8.73348875e-20 -0.002024224717)
(0.1119116926 -0.109055628 -3.228290678e-20 -0.1109180305 -2.012900404e-19 -0.0009936621493)
(0.07464646518 -0.1029787542 1.109003972e-19 -0.07206137586 -2.113016491e-19 -0.002585089313)
(0.05037252908 -0.09150539878 1.183906043e-20 -0.04635505709 -3.089411437e-19 -0.004017471994)
(0.03317626543 -0.07884379676 1.316311816e-19 -0.02784508624 -2.597724112e-19 -0.005331179196)
(0.02017793918 -0.06662806098 3.483286486e-19 -0.01365666755 1.825816025e-19 -0.006521271635)
(0.009763074562 -0.05541735781 1.356925998e-19 -0.002200384308 2.336115506e-19 -0.007562690254)
(0.001009980624 -0.04544720153 7.603803092e-20 0.007336385732 7.859134438e-20 -0.008346366356)
(-0.006697827252 -0.03682727902 3.778277653e-19 0.01549877494 -2.819257048e-19 -0.008800947692)
(-0.01380642935 -0.02959246452 5.531449883e-19 0.02245509305 3.782562732e-20 -0.008648663693)
(-0.02066870222 -0.02397122919 4.992313846e-19 0.02847357129 1.202718309e-19 -0.007804869065)
(-0.02754020464 -0.01998971873 8.162343811e-19 0.03331727629 -3.853637349e-20 -0.005777071647)
(-0.03535199308 -0.01820519413 1.712196624e-19 0.03778197199 3.37708194e-19 -0.002429978909)
(0.1250761347 -0.09649812066 -4.716010023e-21 -0.1239591198 -1.446225983e-19 -0.001117014927)
(0.09169038885 -0.09642205196 3.151806361e-20 -0.08878167263 -2.381676511e-19 -0.002908716211)
(0.06799568372 -0.08843025751 -8.795237896e-20 -0.06346735473 -3.602212822e-19 -0.004528328988)
(0.05005894257 -0.07799995834 4.127363079e-20 -0.04403697649 -4.644152852e-19 -0.006021966077)
(0.03584925966 -0.0673529227 6.172440721e-19 -0.02846547913 -2.945856872e-19 -0.007383780529)
(0.0241257513 -0.05735464872 4.433832013e-19 -0.01554276789 1.993990215e-19 -0.008582983414)
(0.01414337972 -0.04839898826 4.78229867e-19 -0.004647186294 8.331576263e-20 -0.009496193422)
(0.00538452272 -0.04069999576 4.12599233e-19 0.0046524422 -1.333725928e-19 -0.01003696492)
(-0.002571661257 -0.03433897905 1.165627921e-18 0.01246288039 -2.901864822e-19 -0.00989121913)
(-0.009997871647 -0.02960436322 9.514268511e-19 0.01894682296 1.323910752e-19 -0.008948951315)
(-0.01717658895 -0.02650275074 -3.999345885e-19 0.02382623953 -2.688058184e-19 -0.006649650579)
(-0.02482933547 -0.02583029193 2.881774226e-19 0.02763956373 -3.077494372e-20 -0.002810228257)
(0.1368651023 -0.08199338735 2.641497696e-20 -0.1356420928 2.728013161e-20 -0.00122300952)
(0.1083437691 -0.08596240116 -1.246920326e-19 -0.1051563708 -1.187927378e-19 -0.003187398232)
(0.08572951032 -0.08080796897 -2.660201858e-19 -0.08076038411 -3.185210181e-19 -0.004969126211)
(0.06732737745 -0.07252350419 1.201199322e-19 -0.0607080043 -3.424106985e-19 -0.00661937315)
(0.05207127772 -0.06358887226 2.201716938e-19 -0.04393982873 -7.413107663e-19 -0.008131448988)
(0.0391533747 -0.0550222825 6.861786655e-19 -0.029683858 -2.556618103e-19 -0.009469516691)
(0.0280363154 -0.04729894891 3.77420583e-20 -0.01753863855 -3.147267751e-19 -0.01049767686)
(0.01832457495 -0.04068937744 6.361591789e-19 -0.007208482178 -2.535690253e-19 -0.01111609277)
(0.009639186277 -0.03530243141 4.476371402e-19 0.001339557521 -5.480876843e-19 -0.0109787438)
(0.001809353795 -0.03145335177 -4.415480127e-19 0.008143317972 -6.262872557e-19 -0.009952671767)
(-0.005484263929 -0.02914419888 -5.545956032e-19 0.01290131582 -2.362561441e-19 -0.007417051895)
(-0.01267594721 -0.02933858624 3.816795204e-20 0.01582114867 -2.96504346e-19 -0.003145201451)
(0.146881523 -0.06569418844 2.721400038e-20 -0.1455727054 1.614501027e-19 -0.001308817562)
(0.1234655858 -0.07162312755 -1.319788376e-19 -0.1200523867 7.985967633e-22 -0.00341319902)
(0.1021617016 -0.06859853901 -7.799173615e-20 -0.0968345687 -9.741917531e-20 -0.005327132886)
(0.08350157959 -0.06234186296 -2.397947865e-20 -0.07639567246 -3.067463929e-19 -0.007105907131)
(0.06738317104 -0.05524528481 1.39149072e-20 -0.05864104731 -5.03545224e-19 -0.008742123736)
(0.05343625966 -0.04831865154 1.851890823e-19 -0.04324071944 -6.656540664e-19 -0.01019554022)
(0.04133480103 -0.04203798524 4.722907891e-20 -0.03001484566 -6.034905854e-19 -0.01131995537)
(0.03080848059 -0.03668146149 3.727666268e-19 -0.01880443929 -2.76445823e-19 -0.01200404129)
(0.02152280058 -0.03236113652 -4.382591e-19 -0.009647368673 -3.546953937e-19 -0.0118754319)
(0.01341126047 -0.02937676538 -7.602950711e-19 -0.002629796918 -3.704735768e-19 -0.01078146355)
(0.006124277043 -0.02772551931 -2.035375408e-19 0.00192732991 -3.843188714e-19 -0.008051606953)
(-0.0003798971972 -0.02830705194 9.071067297e-20 0.003802491089 3.023657526e-20 -0.003422593892)
(0.1547466481 -0.04786639295 -4.603256105e-20 -0.1533755998 1.011743453e-19 -0.001371048347)
(0.1359476543 -0.05379305191 -2.551996039e-19 -0.1323696117 7.295117541e-21 -0.003578042631)
(0.115915027 -0.05222313456 -2.785749417e-19 -0.1103252908 -1.145168652e-19 -0.005589736136)
(0.09713438038 -0.04787037881 -2.230690842e-19 -0.08966985109 -2.319998759e-19 -0.007464529282)
(0.0803505688 -0.04271761208 5.434377682e-21 -0.07115628299 -2.247451006e-19 -0.009194285816)
(0.0655808787 -0.03761573912 -1.374870161e-19 -0.05484547361 -4.325309154e-19 -0.0107354051)
(0.05268637714 -0.03296695521 -1.390590284e-19 -0.04075272896 -4.054719713e-19 -0.01193364818)
(0.04151150678 -0.02900852252 4.820932202e-19 -0.02884262345 -5.165572404e-19 -0.01266888334)
(0.03176279165 -0.02583130479 -3.669375331e-19 -0.01921435875 -2.806261164e-19 -0.0125484329)