/*--------------------------------*- C++ -*----------------------------------*\
| =========                 |                                                 |
| \\      /  F ield         | foam-extend: Open Source CFD                    |
|  \\    /   O peration     | Version:  3.0                                   |
|   \\  /    A nd           | Web:         http://www.extend-project.de       |
|    \\/     M anipulation  |                                                 |
\*---------------------------------------------------------------------------*/
FoamFile
{
    version     2.0;
    format      ascii;
    class       volVectorField;
    location    "3";
    object      u;
}
// * * * * * * * * * * * * * * * * * * * * * * * * * * * * * * * * * * * * * //

dimensions      [0 0 0 0 0 0 0];

internalField   nonuniform List<vector> 
672
(
(0.2307533663 -0.08169349412 -8.999782912e-19)
(0.4720418142 -0.05742018377 2.138982663e-18)
(0.6406927247 -0.04198302637 9.734513606e-18)
(0.7435780352 -0.03101441926 -5.508699858e-18)
(0.8248674852 -0.0235517695 4.295825549e-18)
(0.8744680401 -0.01772191188 1.358056378e-18)
(0.9191449986 -0.01346361449 1.594758355e-18)
(0.9434729263 -0.009699393476 -1.647602269e-18)
(0.9716367087 -0.006431905171 4.777638233e-18)
(0.9798031638 -0.003292961937 7.514672776e-18)
(1.00076797 0.0005567431607 -3.217292861e-18)
(0.9952053245 0.003296258269 9.517699163e-22)
(0.2697985957 -0.255854159 -2.171102249e-18)
(0.4997503931 -0.1809348094 2.361538986e-18)
(0.6610941465 -0.1331494372 1.11539444e-17)
(0.7586385114 -0.09885543988 -6.581654791e-18)
(0.8362499113 -0.07546047364 -1.981630071e-18)
(0.8828705794 -0.05694445297 -3.47860389e-18)
(0.9253531219 -0.04331765726 -1.752036505e-17)
(0.9477027892 -0.03133648966 1.009617884e-17)
(0.9742437735 -0.02104731861 8.699234509e-18)
(0.9809177755 -0.0116221553 -4.784721759e-18)
(1.000486405 -0.001223124147 -9.886028808e-18)
(0.9937251716 0.009663734594 1.638073417e-17)
(0.346615427 -0.4168937914 -7.337318959e-18)
(0.5542482342 -0.2949900782 1.743867509e-18)
(0.7012876932 -0.2171924479 3.398923154e-18)
(0.788422996 -0.1612921461 9.597423864e-18)
(0.8589308756 -0.1231149971 -5.943591576e-18)
(0.8998404266 -0.09286372961 1.332583166e-17)
(0.9381715414 -0.07053794232 1.32866742e-17)
(0.9568103722 -0.05100277374 2.946598594e-17)
(0.9802991413 -0.03426432042 -8.313511499e-18)
(0.9840973772 -0.01922912997 1.006964353e-17)
(1.000863157 -0.00312199996 -3.917087029e-18)
(0.9908080696 0.01518614466 8.685954948e-18)
(0.4574339384 -0.5569403514 3.57838667e-18)
(0.6328096685 -0.3942020384 -3.106809249e-18)
(0.7591130203 -0.2903373775 -3.464548946e-18)
(0.8311560212 -0.2157127508 5.405377662e-19)
(0.8913233104 -0.1647594187 -1.436054283e-17)
(0.9239280473 -0.1243832036 8.081482166e-18)
(0.956155744 -0.09454329468 -2.284035528e-17)
(0.9694048629 -0.0684315563 1.819770291e-17)
(0.9883761253 -0.04596188256 4.862514744e-18)
(0.9881556157 -0.0258171954 2.247166866e-17)
(1.001005257 -0.004568378399 1.862812499e-18)
(0.9863579002 0.02016021412 3.308515642e-17)
(0.5965881591 -0.668675664 1.748534779e-17)
(0.7313404163 -0.4730893371 1.558968267e-18)
(0.831562664 -0.3482356242 -1.462580612e-19)
(0.8846708886 -0.2585957833 3.049008808e-18)
(0.931891569 -0.1973493705 4.282139705e-18)
(0.9541618548 -0.1488541276 1.690635242e-17)
(0.9788701168 -0.1129065053 -1.484155069e-17)
(0.9856116071 -0.08151637983 6.317187054e-18)
(0.9992804603 -0.05441300729 1.47266024e-17)
(0.9944160866 -0.03033050583 -3.506480497e-17)
(1.002550618 -0.005104000445 -3.66048309e-18)
(0.9813664803 0.02399129731 4.471029017e-18)
(0.7572756076 -0.7468339794 1.8509784e-18)
(0.8450781869 -0.5282658326 3.296688274e-18)
(0.9151211239 -0.3887568674 -1.727359294e-17)
(0.946329028 -0.2887224597 6.578481756e-19)
(0.978562486 -0.2204298578 -1.371659302e-17)
(0.9888543519 -0.1664867543 9.674057215e-18)
(1.004753193 -0.1265511667 -2.596562308e-17)
(1.003755306 -0.09179035875 -1.720831174e-17)
(1.01081514 -0.06165355292 9.752755141e-18)
(0.9999779974 -0.03464982262 4.298866072e-17)
(1.00174532 -0.005460354326 -4.462227634e-17)
(0.9729160784 0.02749707741 2.880560683e-17)
(0.9312087291 -0.7871308309 -1.674688278e-18)
(0.9679366509 -0.5563679586 2.068365602e-18)
(1.00512912 -0.4090743901 -1.332037923e-17)
(1.012543453 -0.3036230598 -1.559809383e-17)
(1.028455097 -0.2316001558 2.062496004e-17)
(1.025709621 -0.1748129153 8.39122907e-18)
(1.031982365 -0.1326502034 1.644157989e-17)
(1.022566902 -0.09609015119 -2.986114724e-18)
(1.022670374 -0.06434477521 -1.236087412e-18)
(1.00586513 -0.03637146713 -2.079552967e-17)
(1.001346129 -0.005500611038 2.464549775e-17)
(0.9675753385 0.0261763631 7.136364543e-18)
(1.109955522 -0.7878953616 4.86253324e-18)
(1.094160348 -0.5565989419 -3.69671454e-18)
(1.097554431 -0.408992794 -1.544259683e-18)
(1.080538915 -0.3035350056 -7.733635006e-18)
(1.079762001 -0.2315276169 2.559037573e-18)
(1.063795975 -0.1749194103 6.581849274e-18)
(1.060421188 -0.1327810293 1.920592937e-17)
(1.042672458 -0.09638343112 1.79364423e-18)
(1.035774001 -0.0643779514 5.469823907e-18)
(1.012585291 -0.03629961179 2.508542531e-17)
(1.00073907 -0.004331620771 -1.904958134e-17)
(0.9603471574 0.02731024277 4.945745993e-18)
(1.284241981 -0.748763608 8.022246074e-18)
(1.216874262 -0.5284566421 -4.63547344e-18)
(1.187022319 -0.3879208941 -7.607889442e-18)
(1.146031837 -0.2877950718 7.283188416e-18)
(1.128797953 -0.2194450167 -1.941704868e-17)
(1.099802832 -0.1659489682 4.362288942e-18)
(1.086747237 -0.1260472847 -8.900479595e-18)
(1.060664727 -0.0919132081 1.144783311e-17)
(1.046670576 -0.0616950449 -3.837797322e-18)
(1.017480569 -0.03569298125 -2.823667105e-17)
(0.9993754791 -0.005308867472 8.754980901e-18)
(0.9544198605 0.02401787528 -1.576717276e-17)
(1.445662256 -0.6719651517 5.662625468e-18)
(1.330448725 -0.4738249317 6.144717825e-19)
(1.269724281 -0.3475100155 1.366206018e-17)
(1.206511586 -0.2578426178 2.508645775e-18)
(1.174052534 -0.1966498793 2.580381158e-18)
(1.133054674 -0.1489980691 -1.921782452e-17)
(1.111063963 -0.1132906792 2.721041314e-18)
(1.077343846 -0.08298214434 3.360642531e-19)
(1.05668108 -0.05570171432 -1.220007499e-17)
(1.02193978 -0.03262981191 -1.240636507e-17)
(0.9978412209 -0.004941777446 1.023218418e-17)
(0.9492120805 0.02011020591 -3.75008178e-18)
(1.585816186 -0.5611309712 -7.91304575e-19)
(1.428651758 -0.3951563834 -5.233055392e-19)
(1.340780037 -0.2895063003 1.081141074e-18)
(1.258101525 -0.2149018305 -4.666118193e-18)
(1.21225854 -0.1640225023 4.009240645e-18)
(1.160807674 -0.1246669026 -9.865629396e-18)
(1.130988294 -0.0949980519 -1.565136041e-18)
(1.090805772 -0.07003631806 -4.692571438e-18)
(1.064507887 -0.04711108639 -2.064736614e-18)
(1.025513453 -0.02805453158 3.273874192e-18)
(0.9964045585 -0.004405905695 1.685303588e-19)
(0.9455863115 0.0151612363 -1.82811434e-18)
(1.697958655 -0.4219698448 -6.425466816e-18)
(1.507044737 -0.296656333 -1.57651695e-18)
(1.397287267 -0.2170994511 3.033386899e-18)
(1.29896943 -0.1614107756 3.299928267e-18)
(1.242402236 -0.1234774792 3.533730629e-18)
(1.182638519 -0.0944753901 -4.420635771e-18)
(1.146585306 -0.07243406535 7.647425935e-18)
(1.101291741 -0.0541736254 -8.92102008e-18)
(1.070363957 -0.0369029224 -4.738906052e-18)
(1.027817163 -0.02284144036 -1.827850453e-18)
(0.993913351 -0.004292812154 6.962035224e-18)
(0.9422406386 0.009328491987 -6.083360542e-18)
(1.776257963 -0.261351843 -3.714292421e-18)
(1.561332104 -0.1831752991 -1.213434646e-18)
(1.435901519 -0.1339275069 1.566735149e-18)
(1.32645131 -0.1001089673 1.305407248e-18)
(1.262201835 -0.07715944585 3.345021242e-19)
(1.196548609 -0.0600189686 -1.46923506e-18)
(1.155997307 -0.04673806173 5.180049019e-19)
(1.107148127 -0.03600224899 -5.538577881e-18)
(1.073011637 -0.02516198454 -1.486625523e-18)
(1.028455022 -0.01663026682 -2.130256869e-18)
(0.9913307449 -0.004162416896 2.694259664e-18)
(0.9421535108 0.003376790211 -2.422031858e-18)
(1.816931974 -0.0873868452 -1.842409945e-18)
(1.589081758 -0.06046879614 -7.021066795e-19)
(1.455113024 -0.04414210885 4.331935328e-19)
(1.33968806 -0.03398854271 9.442103772e-19)
(1.271338449 -0.02721241972 3.842970501e-19)
(1.202680009 -0.02281189176 -6.956316923e-19)
(1.159850737 -0.01893721542 -3.039040548e-19)
(1.109381788 -0.01623060391 -2.992090775e-18)
(1.073615445 -0.01228591372 -1.924596753e-18)
(1.028067026 -0.009639437968 -1.773846252e-18)
(0.9885226045 -0.003936472768 1.030190007e-18)
(0.9414036586 -0.001730061286 -1.683339733e-18)
(1.817900446 0.09124385119 -1.785457064e-19)
(1.58883162 0.06529197201 -4.66092151e-20)
(1.453842836 0.04758284679 -5.621596502e-19)
(1.337837972 0.03334361512 1.363970409e-18)
(1.269068265 0.02338064173 6.82603066e-19)
(1.200281973 0.01463466445 -2.631828186e-19)
(1.157282048 0.008648457633 5.992350045e-19)
(1.106970741 0.002961043797 -2.604630419e-18)
(1.071167921 -0.000511124699 -2.603066396e-18)
(1.02611829 -0.003990227825 -2.029871269e-18)
(0.9862356561 -0.005403377016 9.35727676e-19)
(0.9431332926 -0.0074520988 -2.75043869e-18)
(1.779067798 0.2655568674 1.564973982e-18)
(1.56057115 0.1878285316 7.178050061e-19)
(1.432151892 0.1368286803 -1.009891052e-18)
(1.320995409 0.09881974913 1.315305294e-18)
(1.255511049 0.07259884754 1.775371556e-18)
(1.18949681 0.05116182911 -5.834096404e-19)
(1.148480843 0.03570140289 3.135127984e-18)
(1.100172735 0.02203488921 -5.780645196e-18)
(1.065954751 0.01151921505 -2.854397593e-18)
(1.022795736 0.002236672208 -6.338944652e-19)
(0.9841419887 -0.006268314842 1.505551586e-18)
(0.9459283927 -0.01215669671 -6.958254604e-18)
(1.702528881 0.4268657424 3.654057059e-18)
(1.505972505 0.3010277328 1.479538889e-18)
(1.391468199 0.2190304108 8.625858463e-19)
(1.29038592 0.1589635085 -2.163121988e-18)
(1.231797059 0.1176039912 3.200268719e-18)
(1.171359956 0.08440298501 -4.968133396e-18)
(1.134469842 0.06002036625 -2.332838008e-18)
(1.089934419 0.03887681441 -9.279200789e-18)
(1.058877239 0.021522703 2.045386764e-18)
(1.01878768 0.006795371948 -4.855707889e-18)
(0.9828177457 -0.00853850112 -7.152376194e-19)
(0.9497359477 -0.01642885118 -6.081599606e-18)
(1.591898617 0.5670043013 1.073781702e-19)
(1.427437865 0.3991789336 2.818989765e-18)
(1.333392042 0.2901649012 3.291218918e-18)
(1.247014826 0.2109634926 1.039711416e-18)
(1.198432898 0.1565177553 5.412720179e-18)
(1.145917249 0.1132472003 -3.366246485e-18)
(1.114817183 0.08128976515 1.315886048e-17)
(1.075376214 0.05397095133 -2.739498004e-18)
(1.048746857 0.0310448074 -1.79007814e-18)
(1.013016493 0.01209047083 -6.125393179e-18)
(0.9822070926 -0.008940955189 2.371512804e-19)
(0.9556504812 -0.01765040101 -1.385825633e-17)
(1.45301566 0.6790813081 -6.218817735e-18)
(1.329393515 0.4775674791 2.141165587e-19)
(1.261494416 0.3468500532 2.075234527e-18)
(1.193839539 0.2523628615 -1.565625238e-19)
(1.15810055 0.1874605274 -3.318456372e-18)
(1.115722616 0.136243653 -8.200637236e-18)
(1.092223249 0.09825108973 9.651491513e-18)
(1.059332083 0.0661340896 2.863548647e-18)
(1.038339583 0.03861988567 -5.459975523e-18)
(1.007266705 0.01626907416 1.942861282e-17)
(0.9819577881 -0.009702461731 6.637014582e-18)
(0.9587075466 -0.01974910497 -1.118875493e-19)
(1.292514972 0.7572943919 1.666830518e-18)
(1.216214536 0.5320488338 -1.193517589e-18)
(1.178655918 0.3860671506 1.215324873e-17)
(1.132660984 0.2809137244 1.23760292e-18)
(1.111727604 0.2086973983 7.317026832e-18)
(1.08092488 0.1519514073 -4.859072574e-18)
(1.066091963 0.1096486375 1.495035626e-17)
(1.040569693 0.07413700277 1.37723392e-17)
(1.026274228 0.04326751511 -2.779445269e-18)
(1.000934332 0.01877296091 -2.812522126e-17)
(0.982878614 -0.01041661278 2.940445669e-17)
(0.9652035946 -0.02001630614 -1.856596499e-17)
(1.118791107 0.7979657597 6.457130964e-19)
(1.094126884 0.5603129429 -1.196351271e-18)
(1.089736411 0.4063720865 7.962263047e-18)
(1.067345916 0.2957775211 1.179088712e-17)
(1.062593269 0.2198690773 -1.722879422e-17)
(1.044359983 0.1604628917 -5.590722176e-18)
(1.038983952 0.1160991601 -1.840703303e-17)
(1.021282776 0.07912980499 3.896256454e-19)
(1.013981883 0.0466865065 4.979491347e-18)
(0.9940701631 0.02128910995 2.404281786e-17)
(0.9827781917 -0.0101186985 -2.102153044e-17)
(0.9694209638 -0.01927473465 6.729146159e-20)
(0.9402143863 0.798771066 -8.490300563e-18)
(0.9686719114 0.5605367656 2.986202458e-18)
(0.9984362929 0.4062838999 -2.97718961e-18)
(1.000318531 0.2956997894 3.791920934e-18)
(1.012186604 0.2198195501 2.434810204e-18)
(1.00684066 0.1606194752 -1.868311879e-18)
(1.011213586 0.1163458348 -1.700991594e-17)
(1.001635247 0.07967247711 -1.706455146e-18)
(1.001812341 0.04732325088 -6.227691739e-19)
(0.9878148889 0.02229925739 -1.846662133e-17)
(0.9838430702 -0.009657265769 2.446366706e-17)
(0.9737729383 -0.01757854618 2.870542017e-18)
(0.7660539323 0.7599954206 -1.33333868e-17)
(0.8466065953 0.5332734729 2.650562475e-18)
(0.9098878836 0.3865347884 4.133782031e-18)
(0.9355365802 0.2815015597 -1.304568574e-17)
(0.9637018002 0.2094742966 2.43023893e-17)
(0.9709570367 0.1533979078 2.323591902e-18)
(0.9849017033 0.1113993629 1.516572407e-17)
(0.9832524085 0.07666031384 -1.045641511e-17)
(0.9907219973 0.04576409328 1.282846024e-17)
(0.9823888677 0.02184653361 4.684015293e-17)
(0.9855715785 -0.009353544251 -1.69395681e-17)
(0.9776100571 -0.01555991485 2.315436405e-17)
(0.6047620212 0.6832443624 -1.041336629e-17)
(0.7335641274 0.4793585145 -4.287710908e-18)
(0.8279128457 0.3474536902 -2.533356937e-17)
(0.8755596405 0.2531642932 -4.381159329e-18)
(0.9187757303 0.18852116 -1.229708381e-17)
(0.9375977262 0.1382851638 3.379206647e-17)
(0.9602526017 0.1006246778 -8.417942553e-18)
(0.9657271612 0.06958913763 5.838149772e-18)
(0.9797335317 0.04198996175 1.89747393e-17)
(0.9765908167 0.0209080228 9.537709014e-18)
(0.9869739343 -0.006757761581 -2.199130859e-17)
(0.9809589327 -0.01050679913 3.662830982e-19)
(0.4646533629 0.572708665 1.673806746e-18)
(0.6355116475 0.4020774913 1.299356333e-19)
(0.7569317984 0.2917663387 1.126834937e-18)
(0.8237289438 0.2129911052 8.052452962e-18)
(0.8800680682 0.1590570007 -1.433810462e-17)
(0.9089995392 0.1172292347 1.189952816e-17)
(0.9393336159 0.08590030392 -5.440132059e-18)
(0.9511192916 0.06015618289 1.2887352e-17)
(0.9708970953 0.03708371338 -4.905364822e-18)
(0.9721035473 0.01933650284 -1.88538614e-17)
(0.9884532025 -0.004014108909 -5.685943146e-18)
(0.9827346326 -0.008236206784 3.452241594e-18)
(0.3525683109 0.4336111626 1.6140303e-17)
(0.557055919 0.3047655316 2.423611033e-18)
(0.7001486647 0.2215498728 -7.175636849e-18)
(0.782259309 0.1621614204 -1.443574506e-17)
(0.8490979767 0.121521552 -1.019198819e-17)
(0.8860817809 0.09001607099 3.305275623e-18)
(0.92257492 0.06637177552 -3.249649006e-17)
(0.9393878264 0.04697784734 2.320954879e-17)
(0.9639551775 0.02959380897 6.050917474e-18)
(0.9687932693 0.01653309032 3.154275079e-18)
(0.9902410285 -0.000265534933 -3.225922622e-17)
(0.9858396842 -0.002340427361 2.233607621e-17)
(0.2742506161 0.273203999 6.70314223e-18)
(0.5022419933 0.1927565787 4.589110152e-19)
(0.6604377381 0.1409368817 -3.805624154e-18)
(0.7532017371 0.1039653508 -1.445992077e-18)
(0.827300805 0.07875973576 4.071469029e-18)
(0.8698138138 0.05923436374 7.739137912e-20)
(0.9104396036 0.04463959317 2.069494631e-18)
(0.930516307 0.0326928211 6.195325502e-18)
(0.9580476985 0.021985902 -1.220964204e-17)
(0.9650161761 0.013998781 1.699854499e-18)
(0.9896730383 0.00374720477 -1.024785285e-17)
(0.986246147 0.002558651301 4.231915045e-18)
(0.2335359014 0.09931302442 3.005943956e-18)
(0.4737105425 0.07127961054 -9.804553642e-19)
(0.6397518256 0.053437867 -6.548861197e-18)
(0.7380404242 0.04069997133 2.696508992e-18)
(0.8159199546 0.03214328684 -3.594507794e-18)
(0.8612935413 0.02551596743 -3.384605279e-19)
(0.9041071259 0.02064753755 8.412488548e-19)
(0.925896481 0.01669465576 -4.974897742e-18)
(0.9550850248 0.01321410951 -4.331315069e-19)
(0.9631656701 0.01073661065 -2.575361567e-18)
(0.9895038548 0.007704536974 -2.498942821e-18)
(0.9861198887 0.007534038496 2.221070891e-18)
(0.2325108747 -0.07921074217 1.100995375e-18)
(0.4728778779 -0.05338689329 -1.94135168e-18)
(0.638974219 -0.03630977894 -9.212772805e-18)
(0.7372805145 -0.02414978445 5.309343596e-18)
(0.8151135601 -0.01557449743 -3.951050594e-18)
(0.8604168813 -0.008944937537 -1.229437373e-18)
(0.9031015723 -0.003784594044 -1.419730975e-18)
(0.9247311336 0.0004442321107 1.357582331e-18)
(0.9537130088 0.004390713424 -4.22394048e-18)
(0.9616268208 0.007461129647 -6.251606837e-18)
(0.9878761313 0.01186622317 2.946194253e-18)
(0.9847475711 0.0127046505 5.518798397e-19)
(0.2711853028 -0.2534625832 2.350411891e-18)
(0.4998085698 -0.1750901497 -2.128163927e-18)
(0.6583178707 -0.1239552749 -1.054338996e-17)
(0.7512587233 -0.08750691399 6.321209338e-18)
(0.8254069633 -0.06222412312 1.958659143e-18)
(0.8678819787 -0.0426419031 3.27351394e-18)
(0.9084237106 -0.0276758067 1.581043564e-17)
(0.9283173277 -0.01540586132 -9.208383843e-18)
(0.9556915579 -0.004238716773 -7.641208563e-18)
(0.9623640853 0.004113103163 4.430336419e-18)
(0.9867808771 0.01521586627 8.288718915e-18)
(0.98338049 0.0163998854 -1.304036606e-17)
(0.3476514783 -0.4147728604 7.378639246e-18)
(0.5531356613 -0.2878809993 -1.472497507e-18)
(0.696656418 -0.2053177805 -3.177572066e-18)
(0.7789909963 -0.1464333885 -8.942877652e-18)
(0.8458196129 -0.1057458043 5.582538596e-18)
(0.8826884979 -0.07423110751 -1.249438119e-17)
(0.9189329683 -0.05029341145 -1.240924526e-17)
(0.935387652 -0.03066336601 -2.665094462e-17)
(0.9595059096 -0.0128214921 7.589825861e-18)
(0.9638105434 0.0007292939987 -8.400129577e-18)
(0.9847662869 0.0184862921 3.377660682e-18)
(0.9804909262 0.02190617525 -6.350212017e-18)
(0.4580047401 -0.5548991421 -3.254815465e-18)
(0.6301874548 -0.3858484865 3.14789433e-18)
(0.7522232702 -0.2759766454 3.370224693e-18)
(0.8193611994 -0.1975671029 -4.6959567e-19)
(0.8757411589 -0.1434570692 1.360113023e-17)
(0.9045772628 -0.1015042794 -7.595995272e-18)
(0.9346604347 -0.06972640084 2.095207614e-17)
(0.9460934408 -0.04363012541 -1.687228877e-17)
(0.965452806 -0.02010376641 -4.486964154e-18)
(0.9662163778 -0.002237914852 -2.022434743e-17)
(0.9822421594 0.02084078095 -2.269088647e-18)
(0.9766050134 0.02530206978 -2.769106182e-17)
(0.5968182567 -0.6670734421 -1.692127309e-17)
(0.7272409646 -0.4645322335 -1.38608213e-18)
(0.8223168566 -0.3329965063 1.66454447e-19)
(0.8703555795 -0.239033002 -3.027148648e-18)
(0.9136037133 -0.1742733983 -4.253919122e-18)
(0.9323367109 -0.1239849146 -1.596596708e-17)
(0.9547279663 -0.08601600207 1.397201742e-17)
(0.9599038669 -0.05468890724 -6.072792128e-18)
(0.9734457356 -0.02657652171 -1.367754761e-17)
(0.9698196663 -0.004889403664 3.195363276e-17)
(0.9796464815 0.02293751468 2.158249777e-18)
(0.9720529123 0.02888826776 -4.02098188e-18)
(0.7569528986 -0.7453600243 -1.690500173e-18)
(0.8392525031 -0.5194528693 -3.158951105e-18)
(0.9033198461 -0.3727957529 1.691599681e-17)
(0.9293852036 -0.2679180665 -6.792411774e-19)
(0.9575410801 -0.1956658726 1.323889094e-17)
(0.9646373544 -0.1394817137 -9.073268243e-18)
(0.9781924737 -0.09717654607 2.51578576e-17)
(0.9761171274 -0.06221857411 1.645131306e-17)
(0.9830039659 -0.03109969441 -9.429220943e-18)
(0.974204395 -0.006974089806 -4.030985244e-17)
(0.976887904 0.02392998405 4.158662099e-17)
(0.9667833197 0.0314329882 -2.65664448e-17)
(0.9306206453 -0.7862001388 1.735644296e-18)
(0.9609987566 -0.5484513088 -1.989555214e-18)
(0.9916314521 -0.3941552922 1.319373227e-17)
(0.9939510727 -0.2836483537 1.535521578e-17)
(1.005811863 -0.2075831854 -2.034677555e-17)
(1.000274353 -0.1483225982 -8.113811356e-18)
(1.004226248 -0.1038773133 -1.614481674e-17)
(0.9940986123 -0.06704538376 2.95670868e-18)
(0.9935176013 -0.03451537708 1.395217889e-18)
(0.9786422246 -0.009047210252 2.055846658e-17)
(0.9733762817 0.02340073401 -2.441637594e-17)
(0.96056589 0.03278387236 -6.553898996e-18)
(1.108799821 -0.7871815413 -4.874363009e-18)
(1.0859438 -0.549443178 3.756172648e-18)
(1.082337942 -0.3951601066 1.477367189e-18)
(1.060321643 -0.2844651059 7.768767329e-18)
(1.055475672 -0.2082614806 -2.553381105e-18)
(1.036976728 -0.1487243732 -6.440088458e-18)
(1.031128988 -0.1041292527 -1.975976737e-17)
(1.01286026 -0.06701986215 -1.976617044e-18)
(1.004998459 -0.03450882639 -5.460175035e-18)
(0.9844248521 -0.009095648568 -2.549779356e-17)
(0.9721224415 0.02233200633 1.929711614e-17)
(0.9565544692 0.03235669734 -4.399551533e-18)
(1.282916876 -0.7486119989 -8.164487459e-18)
(1.20843283 -0.5229130264 4.724401774e-18)
(1.171684826 -0.3764223828 7.846038697e-18)
(1.126057276 -0.2710782661 -7.657964988e-18)
(1.105068395 -0.1986016258 2.019021969e-17)
(1.074016672 -0.1418275922 -4.369585914e-18)
(1.058758416 -0.09949087435 9.27796665e-18)
(1.032586747 -0.06412345238 -1.219969381e-17)
(1.017493514 -0.03338970602 4.172098315e-18)
(0.9907912237 -0.009013870989 3.162268061e-17)
(0.9710835962 0.02032027613 -9.447827198e-18)
(0.949289821 0.03240469998 1.872145549e-17)
(1.443843162 -0.6721189355 -5.873102536e-18)
(1.32170301 -0.4696709734 -6.583686065e-19)
(1.254393876 -0.338219714 -1.442018247e-17)
(1.186943819 -0.2434228243 -2.650850717e-18)
(1.150974683 -0.1782194531 -3.358711702e-18)
(1.108177978 -0.1269640347 2.109907065e-17)
(1.084028999 -0.08894534642 -3.32627428e-18)
(1.050312688 -0.05704917439 1.140843201e-19)
(1.028497171 -0.02984583539 1.405436254e-17)
(0.9964820401 -0.008125418009 1.472055998e-17)
(0.9709387921 0.01701457875 -1.164972855e-17)
(0.9449251138 0.02818435021 4.471863017e-18)
(1.583899701 -0.5617914181 7.409219128e-19)
(1.420737041 -0.3927010597 5.187491865e-19)
(1.327211047 -0.282771668 -8.844672143e-19)
(1.240979312 -0.203159046 5.214557419e-18)
(1.192205194 -0.14839273 -4.90713467e-18)
(1.1393339 -0.1051049947 1.047182032e-17)
(1.107724969 -0.07316328155 1.034863157e-18)
(1.067602311 -0.04610802206 5.803622874e-18)
(1.040175225 -0.02342415292 1.822826634e-18)
(1.003272481 -0.004983496537 -4.8037269e-18)
(0.97195255 0.01533983273 -5.75694425e-19)
(0.9403408134 0.02489131826 2.582430176e-18)
(1.695692263 -0.4229789565 6.774398179e-18)
(1.499955272 -0.2955878958 1.631143679e-18)
(1.385672631 -0.2125862643 -3.276989951e-18)
(1.284527014 -0.1520898958 -4.204911108e-18)
(1.225575724 -0.1104797084 -4.289513346e-18)
(1.164644115 -0.07734993627 4.654912398e-18)
(1.127090678 -0.05316345737 -1.091827588e-17)
(1.081803559 -0.03247729307 1.139504877e-17)
(1.049982209 -0.01573033957 6.063004695e-18)
(1.009166308 -0.001822635547 3.296772255e-18)
(0.9734249527 0.01248579878 -1.231838975e-17)
(0.9365947747 0.02007401606 1.010211015e-17)
(1.773915922 -0.2627672424 3.71520365e-18)
(1.555875443 -0.1832787234 1.135449684e-18)
(1.427493549 -0.1311311285 -1.689255167e-18)
(1.316141605 -0.09260995377 -1.434683556e-18)
(1.250280501 -0.06607448362 -2.338562592e-20)
(1.183778677 -0.04465591385 1.325109895e-18)
(1.142190895 -0.02930267202 -4.90295892e-19)
(1.093211929 -0.01597776509 6.242739419e-18)
(1.058320775 -0.005893487236 2.480382586e-20)
(1.014420208 0.002659420592 2.760669994e-18)
(0.9755711553 0.01017280219 -4.892973314e-18)
(0.9338369454 0.01455637208 2.8566383e-18)
(1.814414059 -0.08912119509 1.716707967e-18)
(1.585291969 -0.06136050318 5.578988146e-19)
(1.450046622 -0.04256533602 -7.791342657e-19)
(1.333656645 -0.02789625664 -8.562941841e-19)
(1.2644239 -0.0177502273 -7.264694944e-19)
(1.195117655 -0.009142969165 6.154254125e-19)
(1.151581991 -0.003432069805 4.022913962e-19)
(1.100689042 0.001776704797 2.464959946e-18)
(1.064348692 0.004635926072 1.919134295e-18)
(1.018702978 0.007320398219 1.454463808e-18)
(0.9784461594 0.007753915804 -1.758756478e-18)
(0.932311472 0.008265145564 1.595464697e-18)
(1.815276803 0.08921082466 -1.368705395e-20)
(1.586892614 0.06410435244 -1.416142928e-19)
(1.452392121 0.0488961358 5.012835916e-20)
(1.336399955 0.0391686249 -1.152425569e-18)
(1.267515511 0.03259699787 -1.012702188e-18)
(1.198300884 0.02804264113 1.478293593e-19)
(1.154957069 0.0239205628 -7.614750031e-19)
(1.103940701 0.0207052517 2.897025531e-18)
(1.06769503 0.016182726 2.045820624e-18)
(1.021619877 0.01261042626 7.803212539e-19)
(0.9816042827 0.005856482276 -6.464306071e-19)
(0.9322366088 0.00149482537 2.194487009e-18)
(1.776429876 0.2633067101 -1.735261408e-18)
(1.560536212 0.1867610368 -9.399520442e-19)
(1.434342943 0.1384357542 4.12963055e-19)
(1.324181241 0.1048668075 -1.047982253e-18)
(1.259371354 0.08194173783 -1.734464699e-18)
(1.193178622 0.06447227481 7.967486156e-19)
(1.152207954 0.05074061183 -1.412931655e-18)
(1.10293149 0.03928360683 4.887782459e-18)
(1.068408895 0.02763730238 1.80061948e-18)
(1.023327627 0.01802674711 9.949415694e-19)
(0.9852451621 0.004503590757 1.016287779e-19)
(0.9340903611 -0.0050964351 3.633278269e-18)
(1.699734005 0.424396913 -3.688638016e-18)
(1.507349845 0.3004732663 -1.738316318e-18)
(1.396518467 0.2217164104 -1.065934468e-18)
(1.29729156 0.1661655178 1.518441169e-18)
(1.240029368 0.1282065484 -2.817644199e-18)
(1.179637745 0.09879186024 4.143319796e-18)
(1.143076214 0.0762544715 1.469869089e-18)
(1.097355873 0.05714985146 6.466846163e-18)
(1.066104735 0.03901362101 -1.299915989e-18)
(1.02345059 0.02371360614 3.173427753e-18)
(0.9888711772 0.004039866378 1.242703451e-18)
(0.937275746 -0.01116099005 3.764575684e-18)
(1.589207105 0.5644597987 -4.270641245e-19)
(1.430291527 0.399523128 -2.849430087e-18)
(1.341218515 0.2943955451 -3.178590775e-18)
(1.257551755 0.2197132614 -1.094988878e-18)
(1.211023178 0.1686570591 -4.639943267e-18)
(1.158957017 0.1287843542 2.889486287e-18)
(1.128666081 0.09855500217 -1.120629319e-17)
(1.088070981 0.07273728298 1.467495524e-18)
(1.061358774 0.04893376082 1.45980221e-18)
(1.022153837 0.02868157858 3.934498913e-18)
(0.9922281722 0.003843392223 2.223607851e-19)
(0.941638872 -0.0166058733 8.554678495e-18)
(1.450130722 0.6763547631 5.659695727e-18)
(1.332755677 0.4787812063 -3.78076843e-19)
(1.270573274 0.3527110974 -2.075948748e-18)
(1.206233616 0.2627685189 1.492427267e-19)
(1.17297523 0.2012991007 3.298502253e-18)
(1.131308806 0.1530708297 7.254489052e-18)
(1.108769677 0.1168089319 -8.762002649e-18)
(1.074665544 0.08572457278 -3.059991397e-18)
(1.053658981 0.05770537424 4.377695133e-18)
(1.019065641 0.03369927744 -1.631423756e-17)
(0.9949979482 0.005120429092 -5.093788313e-18)
(0.9472159003 -0.02055532146 -3.235453201e-19)
(1.289793493 0.7546294128 -1.820760948e-18)
(1.220179181 0.5344387845 1.063990384e-18)
(1.188872559 0.3938360052 -1.178262538e-17)
(1.146777646 0.2931996581 -1.200696946e-18)
(1.128838989 0.2244303657 -6.840848445e-18)
(1.099270297 0.170246949 4.254440627e-18)
(1.08581564 0.129694728 -1.416618569e-17)
(1.059427687 0.09470995786 -1.298559236e-17)
(1.045092544 0.06352073997 2.50099162e-18)
(1.015727985 0.03646336014 2.541339431e-17)
(0.9973177724 0.004927536789 -2.635384815e-17)
(0.9526165952 -0.0253205006 1.634146183e-17)
(1.115886771 0.7951231674 -7.026048303e-19)
(1.097626356 0.5633043181 1.122020318e-18)
(1.099434917 0.4152273934 -7.838454126e-18)
(1.081266451 0.3089837949 -1.154657706e-17)
(1.079710701 0.2363744989 1.695045928e-17)
(1.063109177 0.1789608763 5.318184841e-18)
(1.05921849 0.1361254966 1.807281487e-17)
(1.04103219 0.09897698063 -3.76931377e-19)
(1.033778163 0.06628907915 -5.113295512e-18)
(1.010548301 0.03779229754 -2.378908113e-17)
(0.9988419399 0.005191896804 2.079304176e-17)
(0.9605255194 -0.02649714274 -6.318918075e-19)
(0.9374877787 0.7960845842 8.505513632e-18)
(0.9718639462 0.5643349621 -3.043873949e-18)
(1.007585485 0.4162842872 3.037854886e-18)
(1.013953133 0.3098466346 -3.839529414e-18)
(1.029231263 0.2371522259 -2.413616385e-18)
(1.02601617 0.1795284765 1.751438088e-18)
(1.032011712 0.1367515503 1.760581947e-17)
(1.022358846 0.09949307116 1.878706783e-18)
(1.02222331 0.06704918186 6.237527015e-19)
(1.004997171 0.03828160654 1.897905572e-17)
(0.9994925653 0.005633099012 -2.47229569e-17)
(0.9660164092 -0.0275046597 -3.370459711e-18)
(0.7632161202 0.7571349713 1.34809558e-17)
(0.8487092259 0.5368936667 -2.739406755e-18)
(0.917325815 0.3961748771 -4.382528847e-18)
(0.9475621872 0.2948465258 1.341855081e-17)
(0.979183558 0.2256247927 -2.508209529e-17)
(0.9890488574 0.1706157737 -2.271372173e-18)
(1.004674208 0.1298352789 -1.552451791e-17)
(1.003521427 0.09416374724 1.126408526e-17)
(1.010553229 0.0633189567 -1.307744102e-17)
(0.9997604299 0.03578837164 -5.019418578e-17)
(1.000998959 0.005245421393 1.759255144e-17)
(0.9731304127 -0.02686384414 -2.59890836e-17)
(0.6021025077 0.6805723339 1.06334463e-17)
(0.7348319887 0.4829140085 4.335642279e-18)
(0.8338073875 0.356625414 2.610034193e-17)
(0.886073837 0.2655475272 4.535327194e-18)
(0.9327700442 0.2033458727 1.307090887e-17)
(0.9546936792 0.1537980725 -3.568558908e-17)
(0.9791448019 0.1171361471 9.023235509e-18)
(0.9857399578 0.08492838567 -6.266192966e-18)
(0.9991666607 0.05721497715 -2.085631691e-17)
(0.9941221851 0.03227663763 -1.190753563e-17)
(1.001424416 0.005234843118 2.337177345e-17)
(0.9795632293 -0.02454119268 -1.046459761e-18)
(0.4620047239 0.5698968427 -1.612110743e-18)
(0.6356694427 0.4045082944 -1.181872387e-19)
(0.760955528 0.2988197187 -1.312545179e-18)
(0.8323545638 0.2225092746 -8.600395265e-18)
(0.8921423692 0.1703755302 1.52452035e-17)
(0.9245688954 0.1287881239 -1.25282388e-17)
(0.9567001691 0.09804571939 5.95236287e-18)
(0.9700677075 0.07103427549 -1.398678577e-17)
(0.9890934855 0.04795290084 5.139346386e-18)
(0.9890968052 0.02722996179 2.038215313e-17)
(1.001652522 0.00528213034 6.048371032e-18)
(0.9854271569 -0.0204261032 -4.171183033e-18)
(0.350118961 0.4309682122 -1.648141319e-17)
(0.5564613477 0.3061426824 -2.47186295e-18)
(0.7027039471 0.2263674395 7.429191573e-18)
(0.7893359239 0.1686776124 1.535101455e-17)
(0.859533725 0.1292646847 1.096806892e-17)
(0.9003220553 0.09776154527 -3.546958612e-18)
(0.9385756542 0.07448965421 3.579328086e-17)
(0.9573791291 0.05401275472 -2.570325315e-17)
(0.9809161374 0.03656161089 -7.396267653e-18)
(0.9850211439 0.02087025869 -4.616095069e-18)
(1.001672522 0.004535379979 3.758441907e-17)
(0.9902856065 -0.01583279787 -2.631443994e-17)
(0.2719604879 0.2705101603 -6.697814394e-18)