/*--------------------------------*- C++ -*----------------------------------*\
| =========                 |                                                 |
| \\      /  F ield         | foam-extend: Open Source CFD                    |
|  \\    /   O peration     | Version:  3.0                                   |
|   \\  /    A nd           | Web:         http://www.extend-project.de       |
|    \\/     M anipulation  |                                                 |
\*---------------------------------------------------------------------------*/
FoamFile
{
    version     2.0;
    format      ascii;
    class       volScalarField;
    location    "10";
    object      p;
}
// * * * * * * * * * * * * * * * * * * * * * * * * * * * * * * * * * * * * * //

dimensions      [0 0 0 0 0 0 0];

internalField   nonuniform List<scalar> 
400
(
2.45689
1.78407
1.73154
1.43846
1.41354
1.26227
1.24555
1.15106
1.11589
1.04638
-4.55648
-3.07074
-2.45612
-1.75055
-1.62729
-1.46633
-1.42734
-1.33542
-1.30046
-1.20339
2.47857
1.80182
1.74868
1.45354
1.42821
1.276
1.25899
1.16405
1.12859
1.0586
-3.99888
-2.60524
-2.15222
-1.66407
-1.56543
-1.43789
-1.40276
-1.30597
-1.2718
-1.17439
2.71086
1.96511
1.83381
1.53043
1.49138
1.32811
1.30554
1.20589
1.16807
1.09641
-3.21682
-2.19694
-1.93756
-1.60227
-1.52115
-1.37268
-1.33485
-1.23251
-1.19719
-1.10387
2.8598
2.15034
1.97915
1.65191
1.59319
1.40837
1.37549
1.26843
1.22656
1.15255
-2.87293
-2.07384
-1.8729
-1.53713
-1.44877
-1.26183
-1.21784
-1.10962
-1.06785
-0.980458
3.06337
2.34736
2.1478
1.78522
1.70731
1.49958
1.45472
1.33648
1.28647
1.21011
-2.78328
-2.03721
-1.82344
-1.4483
-1.35121
-1.13317
-1.07877
-0.954703
-0.89652
-0.813
3.28528
2.53048
2.30775
1.913
1.82104
1.59186
1.53309
1.39922
1.33628
1.2578
-2.73501
-1.98659
-1.75399
-1.35305
-1.24933
-1.00977
-0.936628
-0.793743
-0.714559
-0.633946
3.48345
2.68711
2.44787
2.02822
1.92595
1.67657
1.60355
1.45335
1.37785
1.29764
-2.67332
-1.91877
-1.67654
-1.26463
-1.15125
-0.897652
-0.805092
-0.6497
-0.556937
-0.479448
3.64256
2.81352
2.56273
2.12353
2.01284
1.74612
1.66367
1.50113
1.41952
1.33782
-2.6089
-1.85267
-1.60454
-1.18707
-1.06308
-0.801206
-0.699883
-0.539774
-0.446741
-0.372028
3.75842
2.90671
2.64678
2.19229
2.07577
1.79709
1.7133
1.54428
1.4642
1.38117
-2.55873
-1.8022
-1.5478
-1.12565
-0.995168
-0.729413
-0.631752
-0.471508
-0.38733
-0.314249
3.82879
2.96365
2.69663
2.23191
2.11291
1.82825
1.74891
1.57801
1.50341
1.4193
-2.53367
-1.77567
-1.51552
-1.08942
-0.957192
-0.690133
-0.600781
-0.441591
-0.366914
-0.294297
3.85275
2.98304
2.71239
2.2433
2.1241
1.83773
1.76297
1.59223
1.52207
1.43752
-2.53934
-1.77801
-1.51493
-1.08631
-0.953927
-0.686216
-0.600741
-0.441798
-0.370823
-0.297939
3.83106
2.96555
2.69596
2.22848
2.10972
1.82398
1.74955
1.57917
1.50935
1.42527
-2.57629
-1.81004
-1.54787
-1.11848
-0.985659
-0.717127
-0.627398
-0.467306
-0.392073
-0.318465
3.76584
2.9129
2.64893
2.18889
2.07118
1.78837
1.71
1.54013
1.46652
1.3838
-2.63975
-1.86755
-1.60927
-1.18088
-1.04928
-0.780736
-0.682401
-0.52045
-0.435239
-0.360274
3.66034
2.82766
2.57245
2.12528
2.01076
1.73498
1.65272
1.48532
1.40682
1.32594
-2.72032
-1.94252
-1.68903
-1.26297
-1.13748
-0.871799
-0.769642
-0.607204
-0.512814
-0.435506
3.51891
2.71387
2.46903
2.03907
1.93092
1.6679
1.58739
1.42693
1.3473
1.26833
-2.80416
-2.02428
-1.77572
-1.35374
-1.2386
-0.980586
-0.887167
-0.729089
-0.634841
-0.554307
3.34626
2.57656
2.34394
1.93457
1.83513
1.58989
1.51904
1.37118
1.29789
1.22068
-2.87231
-2.09737
-1.85811
-1.44666
-1.34106
-1.09696
-1.02299
-0.877384
-0.796769
-0.712968
3.14785
2.41976
2.20374
1.81934
1.73022
1.50523
1.4486
1.3171
1.25635
1.18088
-2.9133
-2.14221
-1.92216
-1.53725
-1.43828
-1.21608
-1.1609
-1.03438
-0.974919
-0.88839
2.93893
2.24723
2.05383
1.70077
1.62545
1.42157
1.37858
1.2625
1.21442
1.14076
-2.98266
-2.16257
-1.95612
-1.61258
-1.52247
-1.33227
-1.28751
-1.17733
-1.13446
-1.04453
2.76033
2.07045
1.90421
1.58492
1.52828
1.34666
1.31518
1.20989
1.16949
1.09763
-3.29671
-2.26116
-1.997
-1.65678
-1.57416
-1.42375
-1.38519
-1.28152
-1.2453
-1.15014
2.64636
1.91322
1.78497
1.48725
1.44952
1.28853
1.26685
1.16839
1.13149
1.06121
-4.04556
-2.64025
-2.18384
-1.69255
-1.59313
-1.46466
-1.42911
-1.33165
-1.29693
-1.19858
)
;

boundaryField
{
    up
    {
        type            implicitExtrapolation;
    }
    hole
    {
        type            implicitExtrapolation;
    }
    frontAndBack
    {
        type            empty;
    }
}


// ************************************************************************* //
