/*--------------------------------*- C++ -*----------------------------------*\
| =========                 |                                                 |
| \\      /  F ield         | foam-extend: Open Source CFD                    |
|  \\    /   O peration     | Version:  3.0                                   |
|   \\  /    A nd           | Web:         http://www.extend-project.de       |
|    \\/     M anipulation  |                                                 |
\*---------------------------------------------------------------------------*/
FoamFile
{
    version     2.0;
    format      ascii;
    class       volVectorField;
    location    "10";
    object      u;
}
// * * * * * * * * * * * * * * * * * * * * * * * * * * * * * * * * * * * * * //

dimensions      [0 0 0 0 0 0 0];

internalField   nonuniform List<vector> 
400
(
(-1.95455 5.5617 -4.68613e-16)
(0.953157 1.39767 3.83885e-16)
(-0.402415 0.455201 -3.3832e-16)
(1.13941 0.33021 9.68638e-17)
(0.0985009 0.0495103 -8.28496e-17)
(1.2549 0.159782 1.0758e-16)
(0.340047 0.0181819 -9.252e-17)
(1.32694 0.103375 -2.08063e-17)
(0.4951 0.0064198 6.60877e-17)
(1.38266 0.065451 -2.01685e-16)
(-4.70956 -1.61257 5.19112e-16)
(-2.22584 -0.910989 7.95438e-16)
(0.456874 -0.270881 -7.83874e-16)
(0.143782 -0.290379 1.14801e-15)
(1.25374 -0.0261921 -5.26812e-16)
(0.63515 -0.144336 -4.33297e-17)
(1.35671 0.0326423 5.72479e-16)
(0.768066 -0.090047 -9.54533e-16)
(1.31523 0.054061 6.9399e-16)
(0.783553 -0.065639 -3.66919e-17)
(1.10769 -6.70026 -7.98215e-16)
(1.72551 -1.49239 5.73694e-16)
(0.0717579 -1.28126 -2.39889e-16)
(1.3496 -0.375155 7.502e-17)
(0.285926 -0.605394 -2.88011e-16)
(1.34726 -0.124892 2.18196e-15)
(0.457969 -0.409785 -2.85121e-15)
(1.36672 -0.00356431 1.21367e-15)
(0.566322 -0.274394 1.6715e-15)
(1.38359 0.092267 -3.14718e-15)
(-0.81219 -0.300804 -8.31536e-16)
(-0.448227 -1.24459 -1.62925e-16)
(0.91437 -0.075739 1.18263e-15)
(0.455352 -0.562308 -1.17353e-15)
(1.25672 0.108068 1.18545e-15)
(0.691588 -0.296479 -1.24077e-15)
(1.30265 0.164462 5.1184e-16)
(0.776355 -0.164812 -8.02489e-16)
(1.25818 0.180552 4.84221e-17)
(0.774402 -0.090169 1.14064e-15)
(2.51799 -4.44506 7.91449e-16)
(2.38057 -1.55909 1.17771e-15)
(0.86303 -1.64955 -9.4388e-16)
(1.74451 -0.637156 9.98896e-16)
(0.776955 -1.01837 1.05648e-15)
(1.57641 -0.266484 -1.89199e-15)
(0.791873 -0.718215 1.07649e-15)
(1.47719 -0.051562 -3.15898e-15)
(0.775222 -0.483124 3.18657e-15)
(1.39158 0.116019 -2.60156e-15)
(0.322008 0.603257 1.54435e-15)
(0.39444 -1.10178 7.42128e-16)
(1.1664 0.231884 -8.07238e-16)
(0.718533 -0.661041 7.5863e-16)
(1.23666 0.22509 -5.77086e-16)
(0.776446 -0.424252 2.97987e-16)
(1.22455 0.250263 3.5597e-16)
(0.799009 -0.261575 -6.62688e-16)
(1.16594 0.264355 7.84399e-16)
(0.770241 -0.154253 -2.98346e-16)
(3.57168 -2.87621 -1.85523e-15)
(2.85892 -0.978231 -2.66727e-16)
(1.7469 -1.50165 1.5115e-15)
(2.14447 -0.422688 -1.13238e-15)
(1.3908 -1.04855 -5.1712e-17)
(1.81468 -0.138673 -6.57736e-16)
(1.21273 -0.771295 4.7748e-16)
(1.5931 0.0352016 -2.34438e-15)
(1.04438 -0.546323 -2.95055e-16)
(1.40328 0.167742 1.88051e-15)
(0.453801 0.903203 8.89958e-16)
(0.691163 -0.891984 4.89762e-16)
(1.1416 0.418256 -1.24009e-16)
(0.878406 -0.663793 -4.02448e-16)
(1.15998 0.306227 9.09072e-16)
(0.87887 -0.499272 4.0562e-16)
(1.12027 0.287543 -7.53319e-16)
(0.851044 -0.357531 5.7073e-16)
(1.04964 0.29493 3.74882e-16)
(0.802882 -0.23477 -7.67791e-16)
(4.32995 -1.63125 -1.83439e-15)
(3.09898 -0.135411 8.92886e-16)
(2.40545 -1.01693 -1.14463e-15)
(2.30289 0.0748391 1.66998e-15)
(1.85516 -0.765537 -7.89825e-16)
(1.89506 0.17739 -2.71066e-16)
(1.54476 -0.599672 1.22846e-15)
(1.61406 0.234257 -2.503e-15)
(1.26878 -0.471047 1.77853e-15)
(1.37571 0.263724 -7.63706e-16)
(0.299807 0.82977 5.10673e-16)
(0.837132 -0.779219 2.94621e-16)
(1.00885 0.451849 -1.87266e-16)
(1.00531 -0.653389 -8.33633e-17)
(1.04658 0.314429 -4.46823e-17)
(0.993418 -0.545035 6.40039e-17)
(1.00962 0.263359 -2.46109e-17)
(0.941904 -0.432101 1.61233e-16)
(0.938776 0.26857 -4.90781e-17)
(0.876304 -0.297215 -3.16884e-17)
(4.56085 -0.337369 2.60692e-16)
(2.93139 0.75889 7.75414e-16)
(2.66822 -0.362093 -5.82105e-16)
(2.15238 0.613868 2.54131e-16)
(2.05658 -0.340905 -1.89746e-16)
(1.76677 0.525958 2.27265e-16)
(1.70293 -0.321548 -2.06667e-16)
(1.49731 0.4503 -1.07256e-16)
(1.39536 -0.326441 1.36402e-16)
(1.27723 0.367045 -4.30211e-16)
(0.133709 0.64838 -1.3163e-15)
(0.989254 -0.70472 2.19138e-16)
(0.874905 0.393864 -2.54446e-16)
(1.15061 -0.63723 5.94347e-16)
(0.947487 0.253807 -2.94761e-16)
(1.13431 -0.55998 9.37974e-17)
(0.929628 0.196929 -1.6866e-17)
(1.06816 -0.457126 4.9388e-16)
(0.86173 0.208235 -2.63651e-16)
(0.975901 -0.32047 3.03684e-16)
(4.11184 0.835051 1.14265e-15)
(2.33463 1.45459 1.13118e-15)
(2.52807 0.25485 -6.95381e-17)
(1.73805 1.01678 -3.0817e-16)
(1.99581 0.0663967 -4.93019e-17)
(1.46001 0.777915 3.25939e-15)
(1.68817 -0.0534786 -4.16528e-15)
(1.26753 0.592012 1.22025e-15)
(1.43115 -0.179574 2.90615e-15)
(1.11931 0.426842 -5.0587e-15)
(-0.00546117 0.452547 -3.02659e-15)
(1.14555 -0.610299 -2.67666e-16)
(0.771885 0.293334 -1.80985e-17)
(1.31751 -0.58414 4.63238e-16)
(0.892595 0.163869 -8.33722e-16)
(1.29384 -0.519821 1.49773e-16)
(0.891111 0.123391 -1.8122e-17)
(1.20437 -0.420344 1.31984e-15)
(0.821333 0.141156 -4.47598e-16)
(1.08107 -0.300184 6.18122e-16)
(3.1505 1.54403 2.26115e-15)
(1.45995 1.7416 1.66783e-15)
(2.0993 0.646477 -1.10432e-15)
(1.16627 1.16083 1.22767e-15)
(1.74755 0.331021 1.4751e-15)
(1.0541 0.847079 -2.93189e-15)
(1.55714 0.125706 1.68276e-15)
(0.986633 0.608818 -5.36894e-15)
(1.40939 -0.065021 5.09535e-15)
(0.940187 0.414252 -4.2596e-15)
(-0.110649 0.23547 2.49313e-15)
(1.27707 -0.487722 3.22609e-17)
(0.704829 0.173227 -2.62755e-16)
(1.47628 -0.473658 -5.75214e-17)
(0.876087 0.0790599 1.04006e-16)
(1.44157 -0.417287 6.00207e-16)
(0.881483 0.0602374 1.77837e-16)
(1.32411 -0.333165 1.46183e-15)
(0.807128 0.0785351 -1.6028e-15)
(1.17358 -0.242611 2.2142e-15)
(2.05146 1.60138 -4.0107e-15)
(0.565413 1.53094 -1.46894e-16)
(1.57775 0.712596 1.74938e-15)
(0.594956 0.994189 -9.86807e-16)
(1.43831 0.392494 -4.17249e-16)
(0.659609 0.705887 -1.30966e-15)
(1.38774 0.187901 4.31492e-16)
(0.72462 0.493387 -3.11388e-15)
(1.36144 0.00827213 -6.56439e-16)
(0.780413 0.32657 2.37298e-15)
(-0.155684 -0.0120583 2.8915e-15)
(1.3753 -0.348332 1.85728e-16)
(0.675399 0.0429719 6.82413e-17)
(1.59617 -0.314029 -1.07162e-15)
(0.880889 0.00778847 1.31332e-15)
(1.55161 -0.268706 -3.31701e-17)
(0.888839 0.0073639 9.48665e-16)
(1.41356 -0.213528 -8.21515e-17)
(0.811075 0.0227792 -2.74192e-16)
(1.24142 -0.157983 1.1082e-15)
(1.21216 1.06593 -3.47613e-15)
(-0.0805648 0.889523 1.0459e-15)
(1.17085 0.479519 -1.3448e-15)
(0.188267 0.562124 2.06652e-15)
(1.19613 0.272965 -9.32885e-16)
(0.382929 0.391145 -5.18239e-16)
(1.25001 0.147612 1.52738e-15)
(0.542439 0.270615 -3.29469e-15)
(1.31195 0.0418679 2.43871e-15)
(0.672501 0.178045 -1.26916e-15)
(-0.113841 -0.26683 1.10457e-15)
(1.4474 -0.195859 2.73743e-17)
(0.689722 -0.0880391 -1.62956e-16)
(1.66534 -0.125847 -2.114e-16)
(0.900577 -0.0537293 -8.56493e-17)
(1.61302 -0.0944546 6.75524e-17)
(0.907236 -0.0363905 6.17127e-17)
(1.46491 -0.0731427 2.18525e-16)
(0.825466 -0.0230999 -8.64104e-17)
(1.27772 -0.0561353 1.75154e-16)
(0.911591 0.200073 4.21348e-16)
(-0.290192 0.0151663 9.15532e-16)
(1.02231 0.0799901 -7.76059e-16)
(0.0573294 -0.0103204 3.6707e-16)
(1.10454 0.0549563 -2.9608e-16)
(0.294229 -0.014127 2.51189e-16)
(1.19218 0.0480106 -2.34112e-16)
(0.483678 -0.0107615 -2.20104e-16)
(1.28296 0.0467528 1.95148e-16)
(0.639492 -0.00440287 -4.8297e-16)
(0.0161391 -0.480535 -1.79834e-15)
(1.49564 -0.0189868 -1.45113e-16)
(0.750717 -0.199839 4.46918e-17)
(1.68317 0.0786835 2.10338e-16)
(0.935181 -0.102773 -1.27692e-16)
(1.62096 0.0918759 1.18387e-16)
(0.930005 -0.0698546 -3.42859e-16)
(1.46913 0.0779625 1.31365e-15)
(0.840075 -0.0599879 -8.59701e-16)
(1.27798 0.0529938 6.16108e-16)
(1.23198 -0.633349 1.38941e-15)
(-0.00991206 -0.830605 1.20779e-15)
(1.17293 -0.305617 -4.21304e-17)
(0.231408 -0.565401 -4.40292e-16)
(1.18608 -0.156301 8.42907e-18)
(0.412971 -0.407492 3.65002e-15)
(1.23148 -0.050924 -4.63155e-15)
(0.563899 -0.285313 1.23504e-15)
(1.28676 0.0471333 3.33106e-15)
(0.689754 -0.183154 -5.70408e-15)
(0.197335 -0.607536 -3.41193e-15)
(1.50065 0.195206 -3.40494e-16)
(0.842837 -0.268533 -3.09581e-16)
(1.64207 0.294228 8.84669e-16)
(0.977214 -0.131186 -1.3777e-15)
(1.56959 0.278958 5.42699e-16)
(0.95036 -0.0944166 -1.87581e-16)
(1.42052 0.225216 1.89437e-15)
(0.850121 -0.0956195 -5.91137e-16)
(1.24041 0.157581 3.87362e-16)
(2.04486 -1.09049 3.13163e-15)
(0.671387 -1.40037 1.94173e-15)
(1.56007 -0.508459 -1.06415e-15)
(0.659563 -0.955722 1.28631e-15)
(1.40567 -0.263476 1.51812e-15)
(0.706717 -0.692426 -2.93405e-15)
(1.3479 -0.0904751 1.71722e-15)
(0.762069 -0.488206 -5.56328e-15)
(1.31532 0.0703913 5.30414e-15)
(0.811276 -0.319875 -4.56292e-15)
(0.365726 -0.637054 2.27058e-15)
(1.42499 0.437166 -2.21388e-17)
(0.932594 -0.28814 -3.00262e-16)
(1.52546 0.503694 2.15224e-17)
(1.01033 -0.140147 5.91895e-17)
(1.45391 0.449952 6.17215e-16)
(0.965277 -0.114174 1.4106e-16)
(1.32175 0.352713 1.4615e-15)
(0.860981 -0.136172 -1.52588e-15)
(1.16733 0.245071 1.98479e-15)
(3.05425 -0.95337 -3.53578e-15)
(1.55008 -1.52902 -2.09908e-16)
(2.03756 -0.419001 1.71991e-15)
(1.22446 -1.077 -1.0248e-15)
(1.68063 -0.200332 -3.12869e-16)
(1.09993 -0.800181 -1.18959e-15)
(1.4914 -0.0337496 3.99661e-16)
(1.02774 -0.576293 -2.94224e-15)
(1.3448 0.130314 -5.66312e-16)
(0.975997 -0.389006 2.14974e-15)
(0.46393 -0.609177 2.28748e-15)
(1.23949 0.663056 2.57412e-16)
(0.991934 -0.281742 6.04913e-17)
(1.32784 0.668559 -9.14509e-16)
(1.02462 -0.148184 1.20426e-15)
(1.2775 0.57831 1.08474e-16)
(0.975793 -0.135583 4.45909e-16)
(1.18133 0.445841 1.32672e-16)
(0.881058 -0.180394 -9.06735e-17)
(1.06517 0.303618 5.86108e-16)
(3.88554 -0.203873 -2.83076e-15)
(2.36463 -1.18265 9.65799e-16)
(2.41368 -0.0270597 -1.20454e-15)
(1.76796 -0.898423 1.84691e-15)
(1.89721 0.0459975 -8.59983e-16)
(1.49098 -0.70659 -4.18867e-16)
(1.59847 0.124365 1.36557e-15)
(1.29914 -0.536507 -2.85751e-15)
(1.3504 0.223843 2.04887e-15)
(1.15077 -0.38244 -9.05008e-16)
(0.478339 -0.602287 9.02913e-16)
(0.952709 0.810567 2.73809e-16)
(1.02114 -0.285343 -1.91926e-16)
(1.07618 0.746456 -1.09809e-16)
(1.03285 -0.177752 -5.23856e-17)
(1.06355 0.633289 5.08072e-17)
(0.99039 -0.168095 7.7092e-17)
(1.01396 0.487331 1.24763e-16)
(0.916501 -0.224895 -3.33683e-17)
(0.945752 0.322255 1.42631e-16)
(4.20463 0.953905 -4.86055e-17)
(2.87547 -0.472283 7.41939e-16)
(2.51407 0.559941 -5.84039e-16)
(2.13906 -0.47997 2.74381e-16)
(1.94315 0.417609 -1.96093e-16)
(1.77779 -0.442509 1.57606e-16)
(1.60614 0.355201 -1.23374e-16)
(1.51623 -0.383342 -1.38231e-16)
(1.31092 0.338757 1.31797e-16)
(1.30301 -0.30685 -2.6559e-16)
(0.457689 -0.694713 -8.85318e-16)
(0.620945 0.836059 3.11937e-16)
(1.04699 -0.319107 -3.15391e-16)
(0.824613 0.724333 6.29842e-16)
(1.06365 -0.228293 -2.71805e-16)
(0.856302 0.600322 -1.11025e-17)
(1.02844 -0.213852 1.6474e-16)
(0.848225 0.460459 8.85945e-17)
(0.975584 -0.265781 -3.74496e-17)
(0.828627 0.293758 3.10894e-16)
(3.84547 2.14819 4.86051e-16)
(2.94577 0.383891 9.31964e-16)
(2.24934 1.1473 -1.45972e-16)
(2.2485 0.0489535 -1.52985e-16)
(1.75429 0.794368 -1.67978e-16)
(1.89102 -0.0895922 2.75359e-15)
(1.46833 0.593877 -3.51277e-15)
(1.62973 -0.159166 1.26768e-15)
(1.20506 0.451726 2.20509e-15)
(1.40278 -0.185123 -3.95324e-15)
(0.488078 -0.9029 -2.02725e-15)
(0.323526 0.755356 -2.22995e-16)
(1.09727 -0.36829 6.40358e-16)
(0.620573 0.63143 -4.4689e-16)
(1.12912 -0.268284 3.29982e-16)
(0.697603 0.498247 -6.87941e-16)
(1.10462 -0.252453 2.74144e-16)
(0.723549 0.366169 1.59286e-17)
(1.0654 -0.288544 -1.48196e-16)
(0.73832 0.220375 8.20502e-16)
(2.90052 3.0189 1.43017e-15)
(2.5915 1.14309 1.28518e-15)
(1.64436 1.52577 -1.03477e-15)
(2.08649 0.537641 1.06005e-15)
(1.3432 1.03587 1.12593e-15)
(1.81658 0.243516 -1.98695e-15)
(1.18158 0.74701 1.1353e-15)
(1.61768 0.065254 -3.50505e-15)
(1.02165 0.51738 3.5066e-15)
(1.4343 -0.0591693 -2.98247e-15)
(0.568729 -1.11446 1.13141e-15)
(0.0850455 0.651008 6.94091e-16)
(1.15781 -0.381482 -8.50264e-16)
(0.473192 0.50969 7.99547e-16)
(1.20407 -0.264293 -6.11134e-16)
(0.598781 0.361698 3.20214e-16)
(1.20303 -0.251463 2.99094e-16)
(0.666142 0.232612 -5.72426e-16)
(1.17343 -0.268657 7.69687e-16)
(0.695866 0.118184 -4.5729e-16)
(1.64103 3.55148 -1.30071e-15)
(1.98239 1.63562 -1.74044e-16)
(0.828156 1.54569 1.47134e-15)
(1.71302 0.830389 -1.19592e-15)
(0.796407 1.01776 5.32916e-17)
(1.59783 0.441903 -5.4299e-16)
(0.805555 0.719247 4.37316e-16)
(1.50644 0.205446 -2.17851e-15)
(0.786841 0.474918 -1.97668e-16)
(1.41404 0.0245498 1.6376e-15)
(0.369324 -1.13412 5.36215e-18)
(-0.235301 0.555657 5.86424e-16)
(1.12159 -0.312634 -1.5281e-16)
(0.351938 0.357614 -2.33988e-16)
(1.24965 -0.214577 7.9036e-16)
(0.553172 0.202729 5.63376e-16)
(1.28612 -0.199785 -1.35172e-15)
(0.670099 0.0966305 8.29497e-16)
(1.2649 -0.195853 5.80312e-16)
(0.706732 0.0177781 -1.36633e-15)
(0.111206 4.27186 -8.09689e-16)
(1.36893 1.80912 6.69974e-16)
(0.0331282 1.18329 -9.74496e-16)
(1.2997 0.772752 1.3349e-15)
(0.294418 0.662517 -7.11044e-16)
(1.35168 0.407943 -1.79801e-16)
(0.470368 0.455792 1.02569e-15)
(1.37805 0.206744 -2.00836e-15)
(0.579707 0.289982 1.33421e-15)
(1.3874 0.053156 -3.69476e-16)
(-0.873708 -0.994776 8.17791e-17)
(-0.940899 0.204601 4.66466e-16)
(0.841669 -0.226224 -2.89653e-16)
(0.220886 0.0999555 1.0406e-17)
(1.25881 -0.139449 -2.5853e-17)
(0.570579 0.0204664 3.10201e-17)
(1.33907 -0.107019 -1.6807e-17)
(0.714492 -0.0175383 5.00213e-17)
(1.31461 -0.0841406 6.88945e-18)
(0.750208 -0.0466697 -6.86214e-17)
)
;

boundaryField
{
    up
    {
        type            fixedValue;
        value           uniform (1 0 0);
    }
    hole
    {
        type            myImplicitVelocity;
    }
    frontAndBack
    {
        type            empty;
    }
}


// ************************************************************************* //
