/*--------------------------------*- C++ -*----------------------------------*\
| =========                 |                                                 |
| \\      /  F ield         | OpenFOAM: The Open Source CFD Toolbox           |
|  \\    /   O peration     | Version:  2.2.0                                 |
|   \\  /    A nd           | Web:      www.OpenFOAM.org                      |
|    \\/     M anipulation  |                                                 |
\*---------------------------------------------------------------------------*/
FoamFile
{
    version     2.0;
    format      ascii;
    class       volVectorField;
    location    "2.5";
    object      s;
}
// * * * * * * * * * * * * * * * * * * * * * * * * * * * * * * * * * * * * * //

dimensions      [0 1 -1 0 0 0 0];

internalField   nonuniform List<vector> 
1600
(
(1.7771 0.0698245 0)
(1.50901 0.0592896 0)
(1.30963 0.0514554 0)
(1.15659 0.0454424 0)
(1.03532 0.0406777 0)
(0.936872 0.0368097 0)
(0.855363 0.0336073 0)
(0.786768 0.0309122 0)
(0.728241 0.0286126 0)
(0.677716 0.0266275 0)
(0.633655 0.0248964 0)
(0.594892 0.0233734 0)
(0.560525 0.0220231 0)
(0.529847 0.0208178 0)
(0.502294 0.0197352 0)
(0.477414 0.0187577 0)
(0.454835 0.0178705 0)
(0.434268 0.0170625 0)
(0.415365 0.0163197 0)
(0.398303 0.0156493 0)
(1.76614 0.209041 0)
(1.49971 0.177503 0)
(1.30155 0.154049 0)
(1.14946 0.136047 0)
(1.02894 0.121783 0)
(0.931095 0.110202 0)
(0.85009 0.100615 0)
(0.781917 0.092546 0)
(0.723751 0.0856616 0)
(0.673538 0.0797184 0)
(0.629749 0.0745357 0)
(0.591225 0.069976 0)
(0.55707 0.0659335 0)
(0.52658 0.0623249 0)
(0.499197 0.0590839 0)
(0.47447 0.0561573 0)
(0.452031 0.0535014 0)
(0.431591 0.0510821 0)
(0.412804 0.0488586 0)
(0.395847 0.0468516 0)
(1.7443 0.346967 0)
(1.48116 0.294622 0)
(1.28545 0.255693 0)
(1.13524 0.225813 0)
(1.01621 0.202137 0)
(0.919579 0.182916 0)
(0.839575 0.167002 0)
(0.772246 0.153609 0)
(0.714799 0.142182 0)
(0.665207 0.132318 0)
(0.621959 0.123715 0)
(0.583912 0.116147 0)
(0.550179 0.109437 0)
(0.520067 0.103448 0)
(0.493023 0.0980684 0)
(0.468602 0.0932107 0)
(0.44644 0.0888024 0)
(0.426253 0.0847869 0)
(0.407698 0.0810962 0)
(0.390951 0.0777649 0)
(1.71169 0.482752 0)
(1.45347 0.409924 0)
(1.26143 0.35576 0)
(1.11402 0.314187 0)
(0.997217 0.281244 0)
(0.902393 0.254501 0)
(0.823884 0.232359 0)
(0.757813 0.213725 0)
(0.70144 0.197827 0)
(0.652775 0.184101 0)
(0.610335 0.172132 0)
(0.572999 0.161602 0)
(0.539897 0.152267 0)
(0.510347 0.143933 0)
(0.483809 0.136448 0)
(0.459844 0.129689 0)
(0.438096 0.123556 0)
(0.418286 0.117969 0)
(0.400079 0.112834 0)
(0.383644 0.108199 0)
(1.66854 0.615562 0)
(1.41683 0.522699 0)
(1.22963 0.453634 0)
(1.08594 0.400624 0)
(0.972076 0.358618 0)
(0.879643 0.324518 0)
(0.803114 0.296284 0)
(0.738709 0.272524 0)
(0.683757 0.252251 0)
(0.636318 0.23475 0)
(0.594949 0.219488 0)
(0.558553 0.206061 0)
(0.526286 0.194157 0)
(0.497481 0.183531 0)
(0.471612 0.173987 0)
(0.448251 0.165369 0)
(0.427052 0.157548 0)
(0.407741 0.150424 0)
(0.389993 0.143876 0)
(0.373972 0.137966 0)
(1.6151 0.744575 0)
(1.37145 0.63225 0)
(1.19024 0.548711 0)
(1.05116 0.48459 0)
(0.940943 0.433781 0)
(0.85147 0.392533 0)
(0.777392 0.358383 0)
(0.715049 0.329642 0)
(0.661858 0.305121 0)
(0.615938 0.283951 0)
(0.575894 0.265491 0)
(0.540664 0.24925 0)
(0.50943 0.23485 0)
(0.481548 0.221997 0)
(0.456507 0.210453 0)
(0.433895 0.200028 0)
(0.413374 0.190568 0)
(0.394682 0.181951 0)
(0.377502 0.174031 0)
(0.361995 0.166882 0)
(1.5517 0.868998 0)
(1.31762 0.737904 0)
(1.14352 0.640404 0)
(1.0099 0.565569 0)
(0.904008 0.506269 0)
(0.818047 0.458129 0)
(0.746877 0.418271 0)
(0.686982 0.384728 0)
(0.635878 0.356109 0)
(0.591761 0.331402 0)
(0.553288 0.309856 0)
(0.519442 0.290901 0)
(0.489434 0.274096 0)
(0.462646 0.259094 0)
(0.438588 0.245621 0)
(0.416863 0.233454 0)
(0.397148 0.222414 0)
(0.37919 0.212356 0)
(0.362684 0.203113 0)
(0.347786 0.194769 0)
(1.47874 0.988064 0)
(1.25566 0.839008 0)
(1.08975 0.72815 0)
(0.962408 0.643061 0)
(0.8615 0.575636 0)
(0.779581 0.5209 0)
(0.711757 0.475581 0)
(0.654679 0.437442 0)
(0.605978 0.404901 0)
(0.563935 0.376809 0)
(0.527272 0.352312 0)
(0.495017 0.330759 0)
(0.466419 0.311651 0)
(0.440892 0.294594 0)
(0.417965 0.279275 0)
(0.397261 0.265442 0)
(0.378474 0.252888 0)
(0.36136 0.241453 0)
(0.34563 0.230943 0)
(0.331432 0.221456 0)
(1.39666 1.10104 0)
(1.18596 0.934939 0)
(1.02926 0.811406 0)
(0.908988 0.716588 0)
(0.81368 0.641454 0)
(0.736309 0.580459 0)
(0.67225 0.529959 0)
(0.618339 0.487459 0)
(0.572341 0.451198 0)
(0.532633 0.419894 0)
(0.498004 0.392595 0)
(0.46754 0.368578 0)
(0.44053 0.347286 0)
(0.416419 0.328278 0)
(0.394765 0.311207 0)
(0.375211 0.295792 0)
(0.357466 0.281803 0)
(0.341302 0.26906 0)
(0.326445 0.257348 0)
(0.313035 0.246777 0)
(1.30597 1.20722 0)
(1.10895 1.02511 0)
(0.962428 0.889659 0)
(0.849963 0.785698 0)
(0.760844 0.703317 0)
(0.688497 0.63644 0)
(0.628597 0.581069 0)
(0.578187 0.534471 0)
(0.535177 0.494712 0)
(0.498046 0.460389 0)
(0.465667 0.430458 0)
(0.43718 0.404125 0)
(0.411924 0.380779 0)
(0.389379 0.359938 0)
(0.369131 0.341221 0)
(0.350846 0.324319 0)
(0.334254 0.308981 0)
(0.319139 0.295009 0)
(0.305247 0.282168 0)
(0.292708 0.270577 0)
(1.20722 1.30597 0)
(1.02511 1.10895 0)
(0.889659 0.962428 0)
(0.785698 0.849963 0)
(0.703317 0.760844 0)
(0.63644 0.688497 0)
(0.581069 0.628597 0)
(0.534471 0.578187 0)
(0.494712 0.535177 0)
(0.460389 0.498046 0)
(0.430458 0.465666 0)
(0.404125 0.43718 0)
(0.380779 0.411924 0)
(0.359938 0.389379 0)
(0.341221 0.369131 0)
(0.324319 0.350846 0)
(0.308981 0.334254 0)
(0.295009 0.319139 0)
(0.282168 0.305247 0)
(0.270577 0.292708 0)
(1.10104 1.39666 0)
(0.934939 1.18596 0)
(0.811406 1.02926 0)
(0.716588 0.908988 0)
(0.641454 0.813681 0)
(0.580459 0.736309 0)
(0.529959 0.67225 0)
(0.487459 0.618339 0)
(0.451198 0.572342 0)
(0.419894 0.532633 0)
(0.392595 0.498004 0)
(0.368579 0.46754 0)
(0.347286 0.44053 0)
(0.328278 0.416419 0)
(0.311207 0.394765 0)
(0.295792 0.37521 0)
(0.281803 0.357466 0)
(0.269061 0.341302 0)
(0.257349 0.326445 0)
(0.246777 0.313035 0)
(0.988064 1.47874 0)
(0.839008 1.25566 0)
(0.72815 1.08975 0)
(0.643061 0.962409 0)
(0.575636 0.8615 0)
(0.5209 0.779581 0)
(0.475581 0.711757 0)
(0.437442 0.654679 0)
(0.404902 0.605978 0)
(0.37681 0.563935 0)
(0.352312 0.527272 0)
(0.33076 0.495017 0)
(0.311652 0.466419 0)
(0.294595 0.440892 0)
(0.279275 0.417965 0)
(0.265442 0.397261 0)
(0.252888 0.378474 0)
(0.241453 0.36136 0)
(0.230943 0.34563 0)
(0.221456 0.331432 0)
(0.868999 1.5517 0)
(0.737904 1.31762 0)
(0.640405 1.14352 0)
(0.565569 1.0099 0)
(0.506269 0.904008 0)
(0.458129 0.818047 0)
(0.418271 0.746877 0)
(0.384728 0.686982 0)
(0.356109 0.635878 0)
(0.331402 0.591761 0)
(0.309857 0.553288 0)
(0.290902 0.519442 0)
(0.274096 0.489434 0)
(0.259094 0.462646 0)
(0.245621 0.438588 0)
(0.233455 0.416863 0)
(0.222414 0.397148 0)
(0.212357 0.37919 0)
(0.203113 0.362684 0)
(0.194769 0.347786 0)
(0.744575 1.6151 0)
(0.632251 1.37145 0)
(0.548711 1.19024 0)
(0.48459 1.05116 0)
(0.433781 0.940943 0)
(0.392533 0.85147 0)
(0.358383 0.777392 0)
(0.329643 0.71505 0)
(0.305121 0.661858 0)
(0.283952 0.615938 0)
(0.265491 0.575894 0)
(0.24925 0.540664 0)
(0.234851 0.50943 0)
(0.221997 0.481548 0)
(0.210453 0.456507 0)
(0.200028 0.433895 0)
(0.190568 0.413374 0)
(0.181951 0.394682 0)
(0.174031 0.377502 0)
(0.166882 0.361995 0)
(0.615562 1.66854 0)
(0.522699 1.41683 0)
(0.453634 1.22963 0)
(0.400624 1.08594 0)
(0.358618 0.972077 0)
(0.324518 0.879643 0)
(0.296285 0.803114 0)
(0.272524 0.738709 0)
(0.252251 0.683757 0)
(0.23475 0.636318 0)
(0.219488 0.594949 0)
(0.206061 0.558554 0)
(0.194157 0.526286 0)
(0.183531 0.497482 0)
(0.173987 0.471612 0)
(0.165369 0.448251 0)
(0.157548 0.427052 0)
(0.150424 0.407741 0)
(0.143876 0.389993 0)
(0.137966 0.373973 0)
(0.482753 1.71169 0)
(0.409924 1.45348 0)
(0.35576 1.26143 0)
(0.314187 1.11402 0)
(0.281245 0.997217 0)
(0.254501 0.902393 0)
(0.23236 0.823884 0)
(0.213726 0.757814 0)
(0.197827 0.701441 0)
(0.184102 0.652775 0)
(0.172133 0.610336 0)
(0.161603 0.572999 0)
(0.152267 0.539897 0)
(0.143933 0.510348 0)
(0.136448 0.483809 0)
(0.12969 0.459844 0)
(0.123556 0.438097 0)
(0.117969 0.418287 0)
(0.112834 0.400079 0)
(0.108199 0.383644 0)
(0.346967 1.7443 0)
(0.294622 1.48116 0)
(0.255693 1.28545 0)
(0.225813 1.13524 0)
(0.202137 1.01621 0)
(0.182916 0.919579 0)
(0.167002 0.839575 0)
(0.153609 0.772246 0)
(0.142183 0.7148 0)
(0.132318 0.665207 0)
(0.123716 0.62196 0)
(0.116147 0.583912 0)
(0.109438 0.550179 0)
(0.103448 0.520067 0)
(0.0980685 0.493023 0)
(0.0932108 0.468602 0)
(0.0888026 0.44644 0)
(0.084787 0.426253 0)
(0.0810963 0.407699 0)
(0.077765 0.390951 0)
(0.209041 1.76614 0)
(0.177503 1.49971 0)
(0.154049 1.30155 0)
(0.136047 1.14946 0)
(0.121783 1.02894 0)
(0.110203 0.931096 0)
(0.100615 0.85009 0)
(0.0925461 0.781918 0)
(0.0856617 0.723752 0)
(0.0797185 0.673538 0)
(0.0745358 0.629749 0)
(0.0699762 0.591225 0)
(0.0659337 0.55707 0)
(0.062325 0.526581 0)
(0.059084 0.499198 0)
(0.0561574 0.474471 0)
(0.0535015 0.452031 0)
(0.0510822 0.431591 0)
(0.0488587 0.412805 0)
(0.0468516 0.395847 0)
(0.0698245 1.7771 0)
(0.0592897 1.50901 0)
(0.0514554 1.30963 0)
(0.0454425 1.15659 0)
(0.0406778 1.03532 0)
(0.0368098 0.936872 0)
(0.0336074 0.855364 0)
(0.0309122 0.786768 0)
(0.0286127 0.728242 0)
(0.0266276 0.677716 0)
(0.0248965 0.633656 0)
(0.0233735 0.594893 0)
(0.0220232 0.560526 0)
(0.0208178 0.529847 0)
(0.0197353 0.502295 0)
(0.0187577 0.477414 0)
(0.0178706 0.454836 0)
(0.0170625 0.434269 0)
(0.0163198 0.415365 0)
(0.0156494 0.398303 0)
(-0.0698246 1.7771 0)
(-0.0592898 1.50901 0)
(-0.0514556 1.30963 0)
(-0.0454426 1.15659 0)
(-0.0406779 1.03532 0)
(-0.0368099 0.936872 0)
(-0.0336074 0.855364 0)
(-0.0309123 0.786769 0)
(-0.0286127 0.728242 0)
(-0.0266276 0.677716 0)
(-0.0248964 0.633656 0)
(-0.0233734 0.594893 0)
(-0.0220231 0.560526 0)
(-0.0208177 0.529847 0)
(-0.0197352 0.502295 0)
(-0.0187576 0.477414 0)
(-0.0178705 0.454836 0)
(-0.0170624 0.434269 0)
(-0.0163197 0.415365 0)
(-0.0156494 0.398303 0)
(-0.209041 1.76614 0)
(-0.177504 1.49971 0)
(-0.154049 1.30155 0)
(-0.136048 1.14946 0)
(-0.121783 1.02894 0)
(-0.110203 0.931096 0)
(-0.100615 0.85009 0)
(-0.0925462 0.781918 0)
(-0.0856617 0.723752 0)
(-0.0797185 0.673538 0)
(-0.0745357 0.629749 0)
(-0.0699761 0.591225 0)
(-0.0659336 0.55707 0)
(-0.0623249 0.526581 0)
(-0.059084 0.499198 0)
(-0.0561573 0.474471 0)
(-0.0535014 0.452031 0)
(-0.0510822 0.431591 0)
(-0.0488586 0.412805 0)
(-0.0468516 0.395847 0)
(-0.346967 1.7443 0)
(-0.294622 1.48116 0)
(-0.255693 1.28545 0)
(-0.225814 1.13524 0)
(-0.202137 1.01621 0)
(-0.182916 0.919579 0)
(-0.167002 0.839576 0)
(-0.153609 0.772246 0)
(-0.142183 0.7148 0)
(-0.132318 0.665207 0)
(-0.123716 0.62196 0)
(-0.116147 0.583912 0)
(-0.109438 0.55018 0)
(-0.103448 0.520067 0)
(-0.0980684 0.493023 0)
(-0.0932108 0.468602 0)
(-0.0888025 0.44644 0)
(-0.084787 0.426253 0)
(-0.0810963 0.407699 0)
(-0.077765 0.390951 0)
(-0.482753 1.7117 0)
(-0.409925 1.45348 0)
(-0.355761 1.26143 0)
(-0.314187 1.11402 0)
(-0.281245 0.997217 0)
(-0.254501 0.902393 0)
(-0.23236 0.823885 0)
(-0.213726 0.757814 0)
(-0.197827 0.701441 0)
(-0.184102 0.652775 0)
(-0.172133 0.610336 0)
(-0.161603 0.572999 0)
(-0.152267 0.539897 0)
(-0.143933 0.510348 0)
(-0.136448 0.483809 0)
(-0.12969 0.459844 0)
(-0.123556 0.438097 0)
(-0.117969 0.418287 0)
(-0.112834 0.400079 0)
(-0.108199 0.383645 0)
(-0.615562 1.66854 0)
(-0.522699 1.41683 0)
(-0.453634 1.22963 0)
(-0.400624 1.08594 0)
(-0.358619 0.972077 0)
(-0.324518 0.879643 0)
(-0.296285 0.803114 0)
(-0.272524 0.738709 0)
(-0.252251 0.683757 0)
(-0.23475 0.636318 0)
(-0.219488 0.594949 0)
(-0.206061 0.558554 0)
(-0.194157 0.526286 0)
(-0.183531 0.497482 0)
(-0.173987 0.471612 0)
(-0.165369 0.448251 0)
(-0.157548 0.427052 0)
(-0.150424 0.407742 0)
(-0.143876 0.389993 0)
(-0.137966 0.373973 0)
(-0.744576 1.6151 0)
(-0.632251 1.37145 0)
(-0.548711 1.19024 0)
(-0.484591 1.05116 0)
(-0.433781 0.940943 0)
(-0.392534 0.85147 0)
(-0.358383 0.777392 0)
(-0.329643 0.71505 0)
(-0.305121 0.661858 0)
(-0.283952 0.615938 0)
(-0.265491 0.575894 0)
(-0.24925 0.540665 0)
(-0.234851 0.50943 0)
(-0.221997 0.481549 0)
(-0.210453 0.456507 0)
(-0.200028 0.433895 0)
(-0.190568 0.413375 0)
(-0.181951 0.394683 0)
(-0.174031 0.377502 0)
(-0.166882 0.361995 0)
(-0.868999 1.5517 0)
(-0.737905 1.31762 0)
(-0.640405 1.14352 0)
(-0.56557 1.0099 0)
(-0.50627 0.904009 0)
(-0.458129 0.818048 0)
(-0.418272 0.746877 0)
(-0.384729 0.686982 0)
(-0.356109 0.635878 0)
(-0.331402 0.591761 0)
(-0.309857 0.553289 0)
(-0.290902 0.519442 0)
(-0.274096 0.489434 0)
(-0.259095 0.462646 0)
(-0.245621 0.438588 0)
(-0.233455 0.416863 0)
(-0.222414 0.397149 0)
(-0.212357 0.37919 0)
(-0.203113 0.362684 0)
(-0.19477 0.347786 0)
(-0.988065 1.47874 0)
(-0.839009 1.25566 0)
(-0.72815 1.08975 0)
(-0.643062 0.962409 0)
(-0.575637 0.8615 0)
(-0.5209 0.779582 0)
(-0.475582 0.711758 0)
(-0.437443 0.654679 0)
(-0.404902 0.605978 0)
(-0.37681 0.563935 0)
(-0.352312 0.527272 0)
(-0.33076 0.495017 0)
(-0.311652 0.46642 0)
(-0.294595 0.440892 0)
(-0.279275 0.417965 0)
(-0.265442 0.397262 0)
(-0.252888 0.378474 0)
(-0.241453 0.36136 0)
(-0.230943 0.34563 0)
(-0.221456 0.331432 0)
(-1.10104 1.39666 0)
(-0.93494 1.18596 0)
(-0.811407 1.02926 0)
(-0.716589 0.908988 0)
(-0.641455 0.813681 0)
(-0.58046 0.736309 0)
(-0.529959 0.67225 0)
(-0.48746 0.618339 0)
(-0.451198 0.572342 0)
(-0.419894 0.532633 0)
(-0.392595 0.498005 0)
(-0.368579 0.46754 0)
(-0.347286 0.44053 0)
(-0.328279 0.416419 0)
(-0.311208 0.394765 0)
(-0.295792 0.375211 0)
(-0.281803 0.357466 0)
(-0.269061 0.341302 0)
(-0.257349 0.326445 0)
(-0.246777 0.313036 0)
(-1.20722 1.30597 0)
(-1.02511 1.10895 0)
(-0.88966 0.962429 0)
(-0.785698 0.849963 0)
(-0.703318 0.760845 0)
(-0.63644 0.688497 0)
(-0.58107 0.628598 0)
(-0.534471 0.578188 0)
(-0.494713 0.535177 0)
(-0.46039 0.498046 0)
(-0.430458 0.465667 0)
(-0.404125 0.43718 0)
(-0.380779 0.411924 0)
(-0.359938 0.389379 0)
(-0.341221 0.369131 0)
(-0.324319 0.350847 0)
(-0.308981 0.334254 0)
(-0.29501 0.319139 0)
(-0.282168 0.305248 0)
(-0.270577 0.292709 0)
(-1.30597 1.20722 0)
(-1.10895 1.02511 0)
(-0.962429 0.88966 0)
(-0.849964 0.785698 0)
(-0.760845 0.703318 0)
(-0.688497 0.63644 0)
(-0.628598 0.58107 0)
(-0.578188 0.534471 0)
(-0.535177 0.494712 0)
(-0.498047 0.460389 0)
(-0.465667 0.430458 0)
(-0.43718 0.404125 0)
(-0.411924 0.380779 0)
(-0.389379 0.359938 0)
(-0.369131 0.341221 0)
(-0.350847 0.324319 0)
(-0.334254 0.308981 0)
(-0.31914 0.29501 0)
(-0.305248 0.282168 0)
(-0.292709 0.270577 0)
(-1.39666 1.10104 0)
(-1.18596 0.93494 0)
(-1.02926 0.811406 0)
(-0.908989 0.716589 0)
(-0.813681 0.641454 0)
(-0.736309 0.580459 0)
(-0.67225 0.529959 0)
(-0.61834 0.48746 0)
(-0.572342 0.451198 0)
(-0.532633 0.419894 0)
(-0.498005 0.392595 0)
(-0.46754 0.368579 0)
(-0.44053 0.347286 0)
(-0.416419 0.328278 0)
(-0.394765 0.311208 0)
(-0.375211 0.295792 0)
(-0.357466 0.281803 0)
(-0.341302 0.269061 0)
(-0.326445 0.257349 0)
(-0.313036 0.246777 0)
(-1.47874 0.988065 0)
(-1.25566 0.839009 0)
(-1.08975 0.72815 0)
(-0.962409 0.643062 0)
(-0.861501 0.575637 0)
(-0.779582 0.5209 0)
(-0.711758 0.475581 0)
(-0.654679 0.437443 0)
(-0.605978 0.404902 0)
(-0.563936 0.37681 0)
(-0.527272 0.352312 0)
(-0.495017 0.33076 0)
(-0.46642 0.311652 0)
(-0.440892 0.294595 0)
(-0.417965 0.279275 0)
(-0.397262 0.265442 0)
(-0.378474 0.252888 0)
(-0.36136 0.241453 0)
(-0.345631 0.230943 0)
(-0.331433 0.221456 0)
(-1.5517 0.868999 0)
(-1.31762 0.737905 0)
(-1.14352 0.640405 0)
(-1.0099 0.56557 0)
(-0.904009 0.50627 0)
(-0.818048 0.458129 0)
(-0.746878 0.418272 0)
(-0.686982 0.384729 0)
(-0.635878 0.356109 0)
(-0.591761 0.331402 0)
(-0.553289 0.309857 0)
(-0.519442 0.290902 0)
(-0.489434 0.274096 0)
(-0.462647 0.259095 0)
(-0.438588 0.245621 0)
(-0.416864 0.233455 0)
(-0.397149 0.222414 0)
(-0.37919 0.212357 0)
(-0.362685 0.203113 0)
(-0.347786 0.19477 0)
(-1.6151 0.744576 0)
(-1.37145 0.632251 0)
(-1.19024 0.548711 0)
(-1.05116 0.484591 0)
(-0.940944 0.433781 0)
(-0.851471 0.392533 0)
(-0.777393 0.358383 0)
(-0.71505 0.329643 0)
(-0.661858 0.305121 0)
(-0.615939 0.283952 0)
(-0.575894 0.265491 0)
(-0.540665 0.24925 0)
(-0.509431 0.234851 0)
(-0.481549 0.221997 0)
(-0.456508 0.210453 0)
(-0.433895 0.200028 0)
(-0.413375 0.190568 0)
(-0.394683 0.181951 0)
(-0.377503 0.174031 0)
(-0.361996 0.166882 0)
(-1.66854 0.615562 0)
(-1.41683 0.522699 0)
(-1.22963 0.453634 0)
(-1.08594 0.400624 0)
(-0.972077 0.358618 0)
(-0.879644 0.324518 0)
(-0.803115 0.296285 0)
(-0.738709 0.272524 0)
(-0.683757 0.252251 0)
(-0.636319 0.23475 0)
(-0.594949 0.219488 0)
(-0.558554 0.206061 0)
(-0.526286 0.194157 0)
(-0.497482 0.183531 0)
(-0.471612 0.173987 0)
(-0.448252 0.165369 0)
(-0.427052 0.157548 0)
(-0.407742 0.150424 0)
(-0.389993 0.143876 0)
(-0.373973 0.137966 0)
(-1.7117 0.482753 0)
(-1.45348 0.409925 0)
(-1.26143 0.35576 0)
(-1.11402 0.314187 0)
(-0.997218 0.281245 0)
(-0.902394 0.254501 0)
(-0.823885 0.23236 0)
(-0.757814 0.213726 0)
(-0.701441 0.197827 0)
(-0.652775 0.184102 0)
(-0.610336 0.172133 0)
(-0.573 0.161603 0)
(-0.539897 0.152267 0)
(-0.510348 0.143933 0)
(-0.483809 0.136448 0)
(-0.459845 0.12969 0)
(-0.438097 0.123556 0)
(-0.418287 0.117969 0)
(-0.40008 0.112834 0)
(-0.383645 0.108199 0)
(-1.7443 0.346967 0)
(-1.48116 0.294622 0)
(-1.28545 0.255693 0)
(-1.13524 0.225814 0)
(-1.01621 0.202137 0)
(-0.91958 0.182916 0)
(-0.839576 0.167002 0)
(-0.772247 0.153609 0)
(-0.7148 0.142183 0)
(-0.665208 0.132318 0)
(-0.62196 0.123716 0)
(-0.583913 0.116147 0)
(-0.55018 0.109438 0)
(-0.520068 0.103448 0)
(-0.493024 0.0980685 0)
(-0.468602 0.0932108 0)
(-0.446441 0.0888026 0)
(-0.426253 0.0847871 0)
(-0.407699 0.0810964 0)
(-0.390952 0.0777651 0)
(-1.76614 0.209041 0)
(-1.49971 0.177503 0)
(-1.30155 0.154049 0)
(-1.14946 0.136047 0)
(-1.02894 0.121783 0)
(-0.931096 0.110202 0)
(-0.850091 0.100615 0)
(-0.781918 0.0925461 0)
(-0.723752 0.0856617 0)
(-0.673538 0.0797185 0)
(-0.629749 0.0745357 0)
(-0.591225 0.0699761 0)
(-0.55707 0.0659336 0)
(-0.526581 0.062325 0)
(-0.499198 0.059084 0)
(-0.474471 0.0561574 0)
(-0.452032 0.0535015 0)
(-0.431592 0.0510823 0)
(-0.412805 0.0488587 0)
(-0.395848 0.0468517 0)
(-1.7771 0.0698245 0)
(-1.50901 0.0592897 0)
(-1.30963 0.0514554 0)
(-1.15659 0.0454425 0)
(-1.03532 0.0406778 0)
(-0.936873 0.0368097 0)
(-0.855364 0.0336073 0)
(-0.786769 0.0309122 0)
(-0.728242 0.0286126 0)
(-0.677717 0.0266275 0)
(-0.633656 0.0248964 0)
(-0.594893 0.0233734 0)
(-0.560526 0.0220231 0)
(-0.529848 0.0208177 0)
(-0.502295 0.0197352 0)
(-0.477415 0.0187577 0)
(-0.454836 0.0178706 0)
(-0.434269 0.0170625 0)
(-0.415366 0.0163198 0)
(-0.398304 0.0156494 0)
(-1.7771 -0.0698246 0)
(-1.50901 -0.0592899 0)
(-1.30963 -0.0514556 0)
(-1.15659 -0.0454427 0)
(-1.03532 -0.040678 0)
(-0.936873 -0.03681 0)
(-0.855364 -0.0336075 0)
(-0.786769 -0.0309123 0)
(-0.728242 -0.0286128 0)
(-0.677717 -0.0266276 0)
(-0.633656 -0.0248965 0)
(-0.594893 -0.0233735 0)
(-0.560526 -0.0220232 0)
(-0.529848 -0.0208178 0)
(-0.502295 -0.0197352 0)
(-0.477415 -0.0187577 0)
(-0.454836 -0.0178706 0)
(-0.434269 -0.0170625 0)
(-0.415366 -0.0163198 0)
(-0.398304 -0.0156494 0)
(-1.76614 -0.209041 0)
(-1.49971 -0.177504 0)
(-1.30155 -0.154049 0)
(-1.14946 -0.136048 0)
(-1.02894 -0.121783 0)
(-0.931097 -0.110203 0)
(-0.850091 -0.100615 0)
(-0.781918 -0.0925462 0)
(-0.723752 -0.0856618 0)
(-0.673538 -0.0797186 0)
(-0.629749 -0.0745358 0)
(-0.591225 -0.0699762 0)
(-0.55707 -0.0659337 0)
(-0.526581 -0.062325 0)
(-0.499198 -0.059084 0)
(-0.474471 -0.0561574 0)
(-0.452032 -0.0535015 0)
(-0.431592 -0.0510822 0)
(-0.412805 -0.0488587 0)
(-0.395848 -0.0468517 0)
(-1.7443 -0.346967 0)
(-1.48116 -0.294623 0)
(-1.28545 -0.255693 0)
(-1.13524 -0.225814 0)
(-1.01621 -0.202137 0)
(-0.91958 -0.182916 0)
(-0.839576 -0.167002 0)
(-0.772247 -0.15361 0)
(-0.7148 -0.142183 0)
(-0.665208 -0.132318 0)
(-0.62196 -0.123716 0)
(-0.583913 -0.116147 0)
(-0.55018 -0.109438 0)
(-0.520068 -0.103448 0)
(-0.493024 -0.0980685 0)
(-0.468603 -0.0932108 0)
(-0.446441 -0.0888026 0)
(-0.426253 -0.0847871 0)
(-0.407699 -0.0810964 0)
(-0.390952 -0.0777651 0)
(-1.7117 -0.482753 0)
(-1.45348 -0.409925 0)
(-1.26143 -0.355761 0)
(-1.11402 -0.314188 0)
(-0.997218 -0.281245 0)
(-0.902394 -0.254502 0)
(-0.823885 -0.23236 0)
(-0.757814 -0.213726 0)
(-0.701441 -0.197827 0)
(-0.652775 -0.184102 0)
(-0.610336 -0.172133 0)
(-0.573 -0.161603 0)
(-0.539898 -0.152267 0)
(-0.510348 -0.143933 0)
(-0.48381 -0.136448 0)
(-0.459845 -0.12969 0)
(-0.438097 -0.123556 0)
(-0.418287 -0.117969 0)
(-0.40008 -0.112834 0)
(-0.383645 -0.108199 0)
(-1.66854 -0.615562 0)
(-1.41683 -0.5227 0)
(-1.22963 -0.453635 0)
(-1.08594 -0.400624 0)
(-0.972078 -0.358619 0)
(-0.879644 -0.324518 0)
(-0.803115 -0.296285 0)
(-0.738709 -0.272524 0)
(-0.683758 -0.252252 0)
(-0.636319 -0.23475 0)
(-0.594949 -0.219488 0)
(-0.558554 -0.206062 0)
(-0.526287 -0.194157 0)
(-0.497482 -0.183531 0)
(-0.471612 -0.173987 0)
(-0.448252 -0.165369 0)
(-0.427053 -0.157548 0)
(-0.407742 -0.150424 0)
(-0.389993 -0.143876 0)
(-0.373973 -0.137966 0)
(-1.6151 -0.744576 0)
(-1.37145 -0.632251 0)
(-1.19024 -0.548711 0)
(-1.05116 -0.484591 0)
(-0.940944 -0.433782 0)
(-0.851471 -0.392534 0)
(-0.777393 -0.358383 0)
(-0.71505 -0.329643 0)
(-0.661858 -0.305121 0)
(-0.615939 -0.283952 0)
(-0.575895 -0.265491 0)
(-0.540665 -0.24925 0)
(-0.509431 -0.234851 0)
(-0.481549 -0.221997 0)
(-0.456508 -0.210453 0)
(-0.433895 -0.200028 0)
(-0.413375 -0.190568 0)
(-0.394683 -0.181951 0)
(-0.377503 -0.174031 0)
(-0.361996 -0.166882 0)
(-1.5517 -0.869 0)
(-1.31762 -0.737905 0)
(-1.14352 -0.640405 0)
(-1.0099 -0.56557 0)
(-0.904009 -0.50627 0)
(-0.818048 -0.458129 0)
(-0.746878 -0.418272 0)
(-0.686983 -0.384729 0)
(-0.635879 -0.356109 0)
(-0.591762 -0.331402 0)
(-0.553289 -0.309857 0)
(-0.519442 -0.290902 0)
(-0.489434 -0.274096 0)
(-0.462647 -0.259095 0)
(-0.438589 -0.245621 0)
(-0.416864 -0.233455 0)
(-0.397149 -0.222414 0)
(-0.37919 -0.212357 0)
(-0.362685 -0.203113 0)
(-0.347786 -0.19477 0)
(-1.47874 -0.988065 0)
(-1.25566 -0.839009 0)
(-1.08975 -0.728151 0)
(-0.96241 -0.643062 0)
(-0.861501 -0.575637 0)
(-0.779582 -0.5209 0)
(-0.711758 -0.475582 0)
(-0.654679 -0.437443 0)
(-0.605978 -0.404902 0)
(-0.563936 -0.37681 0)
(-0.527272 -0.352312 0)
(-0.495017 -0.33076 0)
(-0.46642 -0.311652 0)
(-0.440892 -0.294595 0)
(-0.417965 -0.279275 0)
(-0.397262 -0.265442 0)
(-0.378474 -0.252888 0)
(-0.36136 -0.241453 0)
(-0.345631 -0.230943 0)
(-0.331433 -0.221456 0)
(-1.39666 -1.10104 0)
(-1.18597 -0.934941 0)
(-1.02926 -0.811407 0)
(-0.908989 -0.716589 0)
(-0.813682 -0.641455 0)
(-0.73631 -0.58046 0)
(-0.672251 -0.52996 0)
(-0.61834 -0.48746 0)
(-0.572342 -0.451198 0)
(-0.532633 -0.419894 0)
(-0.498005 -0.392595 0)
(-0.46754 -0.368579 0)
(-0.44053 -0.347286 0)
(-0.41642 -0.328279 0)
(-0.394765 -0.311208 0)
(-0.375211 -0.295793 0)
(-0.357466 -0.281803 0)
(-0.341302 -0.269061 0)
(-0.326446 -0.257349 0)
(-0.313036 -0.246777 0)
(-1.30597 -1.20722 0)
(-1.10896 -1.02511 0)
(-0.962429 -0.889661 0)
(-0.849964 -0.785699 0)
(-0.760845 -0.703318 0)
(-0.688498 -0.636441 0)
(-0.628598 -0.58107 0)
(-0.578188 -0.534472 0)
(-0.535177 -0.494713 0)
(-0.498047 -0.46039 0)
(-0.465667 -0.430458 0)
(-0.437181 -0.404125 0)
(-0.411925 -0.380779 0)
(-0.389379 -0.359939 0)
(-0.369131 -0.341221 0)
(-0.350847 -0.324319 0)
(-0.334254 -0.308981 0)
(-0.31914 -0.29501 0)
(-0.305248 -0.282168 0)
(-0.292709 -0.270577 0)
(-1.20722 -1.30597 0)
(-1.02511 -1.10896 0)
(-0.889661 -0.962429 0)
(-0.785699 -0.849964 0)
(-0.703318 -0.760845 0)
(-0.636441 -0.688497 0)
(-0.58107 -0.628598 0)
(-0.534472 -0.578188 0)
(-0.494713 -0.535177 0)
(-0.46039 -0.498047 0)
(-0.430458 -0.465667 0)
(-0.404126 -0.43718 0)
(-0.380779 -0.411925 0)
(-0.359939 -0.389379 0)
(-0.341221 -0.369131 0)
(-0.324319 -0.350847 0)
(-0.308981 -0.334254 0)
(-0.29501 -0.31914 0)
(-0.282168 -0.305248 0)
(-0.270577 -0.292709 0)
(-1.10104 -1.39666 0)
(-0.934941 -1.18597 0)
(-0.811407 -1.02926 0)
(-0.716589 -0.908989 0)
(-0.641455 -0.813682 0)
(-0.58046 -0.73631 0)
(-0.52996 -0.67225 0)
(-0.48746 -0.61834 0)
(-0.451198 -0.572342 0)
(-0.419894 -0.532633 0)
(-0.392595 -0.498005 0)
(-0.368579 -0.46754 0)
(-0.347286 -0.44053 0)
(-0.328279 -0.41642 0)
(-0.311208 -0.394765 0)
(-0.295793 -0.375211 0)
(-0.281804 -0.357466 0)
(-0.269061 -0.341302 0)
(-0.257349 -0.326446 0)
(-0.246778 -0.313036 0)
(-0.988065 -1.47874 0)
(-0.839009 -1.25566 0)
(-0.728151 -1.08975 0)
(-0.643062 -0.96241 0)
(-0.575637 -0.861501 0)
(-0.5209 -0.779582 0)
(-0.475582 -0.711758 0)
(-0.437443 -0.654679 0)
(-0.404902 -0.605979 0)
(-0.37681 -0.563936 0)
(-0.352312 -0.527272 0)
(-0.33076 -0.495017 0)
(-0.311652 -0.46642 0)
(-0.294595 -0.440892 0)
(-0.279276 -0.417965 0)
(-0.265442 -0.397262 0)
(-0.252888 -0.378474 0)
(-0.241453 -0.36136 0)
(-0.230943 -0.345631 0)
(-0.221456 -0.331433 0)
(-0.869 -1.5517 0)
(-0.737905 -1.31762 0)
(-0.640405 -1.14352 0)
(-0.56557 -1.0099 0)
(-0.50627 -0.904009 0)
(-0.458129 -0.818048 0)
(-0.418272 -0.746878 0)
(-0.384729 -0.686983 0)
(-0.356109 -0.635879 0)
(-0.331402 -0.591762 0)
(-0.309857 -0.553289 0)
(-0.290902 -0.519442 0)
(-0.274096 -0.489434 0)
(-0.259095 -0.462647 0)
(-0.245621 -0.438589 0)
(-0.233455 -0.416864 0)
(-0.222414 -0.397149 0)
(-0.212357 -0.379191 0)
(-0.203113 -0.362685 0)
(-0.19477 -0.347786 0)
(-0.744576 -1.6151 0)
(-0.632251 -1.37145 0)
(-0.548711 -1.19024 0)
(-0.484591 -1.05116 0)
(-0.433782 -0.940944 0)
(-0.392534 -0.851471 0)
(-0.358383 -0.777393 0)
(-0.329643 -0.71505 0)
(-0.305121 -0.661859 0)
(-0.283952 -0.615939 0)
(-0.265491 -0.575895 0)
(-0.24925 -0.540665 0)
(-0.234851 -0.509431 0)
(-0.221997 -0.481549 0)
(-0.210453 -0.456508 0)
(-0.200029 -0.433895 0)
(-0.190569 -0.413375 0)
(-0.181951 -0.394683 0)
(-0.174031 -0.377503 0)
(-0.166882 -0.361996 0)
(-0.615562 -1.66854 0)
(-0.5227 -1.41683 0)
(-0.453635 -1.22963 0)
(-0.400624 -1.08594 0)
(-0.358619 -0.972078 0)
(-0.324518 -0.879644 0)
(-0.296285 -0.803115 0)
(-0.272524 -0.73871 0)
(-0.252252 -0.683758 0)
(-0.23475 -0.636319 0)
(-0.219489 -0.59495 0)
(-0.206062 -0.558554 0)
(-0.194157 -0.526287 0)
(-0.183531 -0.497482 0)
(-0.173987 -0.471613 0)
(-0.165369 -0.448252 0)
(-0.157548 -0.427053 0)
(-0.150424 -0.407742 0)
(-0.143876 -0.389994 0)
(-0.137966 -0.373973 0)
(-0.482753 -1.7117 0)
(-0.409925 -1.45348 0)
(-0.355761 -1.26143 0)
(-0.314188 -1.11402 0)
(-0.281245 -0.997218 0)
(-0.254502 -0.902394 0)
(-0.23236 -0.823885 0)
(-0.213726 -0.757815 0)
(-0.197827 -0.701442 0)
(-0.184102 -0.652776 0)
(-0.172133 -0.610337 0)
(-0.161603 -0.573 0)
(-0.152267 -0.539898 0)
(-0.143933 -0.510348 0)
(-0.136448 -0.48381 0)
(-0.12969 -0.459845 0)
(-0.123556 -0.438097 0)
(-0.117969 -0.418287 0)
(-0.112834 -0.40008 0)
(-0.108199 -0.383645 0)
(-0.346967 -1.7443 0)
(-0.294623 -1.48116 0)
(-0.255693 -1.28545 0)
(-0.225814 -1.13524 0)
(-0.202137 -1.01621 0)
(-0.182916 -0.91958 0)
(-0.167002 -0.839576 0)
(-0.15361 -0.772247 0)
(-0.142183 -0.714801 0)
(-0.132318 -0.665208 0)
(-0.123716 -0.62196 0)
(-0.116147 -0.583913 0)
(-0.109438 -0.55018 0)
(-0.103448 -0.520068 0)
(-0.0980685 -0.493024 0)
(-0.0932109 -0.468603 0)
(-0.0888026 -0.446441 0)
(-0.0847871 -0.426254 0)
(-0.0810964 -0.407699 0)
(-0.0777651 -0.390952 0)
(-0.209041 -1.76614 0)
(-0.177504 -1.49971 0)
(-0.154049 -1.30155 0)
(-0.136048 -1.14946 0)
(-0.121783 -1.02894 0)
(-0.110203 -0.931097 0)
(-0.100615 -0.850091 0)
(-0.0925462 -0.781919 0)
(-0.0856618 -0.723753 0)
(-0.0797186 -0.673539 0)
(-0.0745358 -0.62975 0)
(-0.0699762 -0.591226 0)
(-0.0659336 -0.557071 0)
(-0.062325 -0.526581 0)
(-0.059084 -0.499199 0)
(-0.0561574 -0.474471 0)
(-0.0535015 -0.452032 0)
(-0.0510823 -0.431592 0)
(-0.0488587 -0.412805 0)
(-0.0468517 -0.395848 0)
(-0.0698246 -1.7771 0)
(-0.0592899 -1.50901 0)
(-0.0514556 -1.30963 0)
(-0.0454426 -1.15659 0)
(-0.0406779 -1.03532 0)
(-0.0368099 -0.936873 0)
(-0.0336074 -0.855365 0)
(-0.0309122 -0.786769 0)
(-0.0286127 -0.728242 0)
(-0.0266275 -0.677717 0)
(-0.0248964 -0.633656 0)
(-0.0233734 -0.594893 0)
(-0.0220231 -0.560526 0)
(-0.0208177 -0.529848 0)
(-0.0197352 -0.502295 0)
(-0.0187577 -0.477415 0)
(-0.0178706 -0.454836 0)
(-0.0170625 -0.434269 0)
(-0.0163198 -0.415366 0)
(-0.0156494 -0.398304 0)
(1.7771 -0.0698246 0)
(1.76614 -0.209041 0)
(1.7443 -0.346967 0)
(1.71169 -0.482753 0)
(1.66854 -0.615562 0)
(1.6151 -0.744576 0)
(1.5517 -0.868999 0)
(1.47874 -0.988064 0)
(1.39666 -1.10104 0)
(1.30597 -1.20722 0)
(1.20722 -1.30597 0)
(1.10104 -1.39666 0)
(0.988065 -1.47874 0)
(0.868999 -1.5517 0)
(0.744576 -1.6151 0)
(0.615562 -1.66854 0)
(0.482753 -1.7117 0)
(0.346967 -1.7443 0)
(0.209041 -1.76614 0)
(0.0698245 -1.7771 0)
(1.50901 -0.0592898 0)
(1.49971 -0.177503 0)
(1.48116 -0.294622 0)
(1.45348 -0.409925 0)
(1.41683 -0.522699 0)
(1.37145 -0.632251 0)
(1.31762 -0.737904 0)
(1.25566 -0.839009 0)
(1.18596 -0.93494 0)
(1.10895 -1.02511 0)
(1.02511 -1.10895 0)
(0.93494 -1.18596 0)
(0.839009 -1.25566 0)
(0.737904 -1.31762 0)
(0.632251 -1.37145 0)
(0.522699 -1.41683 0)
(0.409925 -1.45348 0)
(0.294622 -1.48116 0)
(0.177503 -1.49971 0)
(0.0592897 -1.50901 0)
(1.30963 -0.0514556 0)
(1.30155 -0.154049 0)
(1.28545 -0.255693 0)
(1.26143 -0.35576 0)
(1.22963 -0.453634 0)
(1.19024 -0.548711 0)
(1.14352 -0.640405 0)
(1.08975 -0.72815 0)
(1.02926 -0.811406 0)
(0.962428 -0.88966 0)
(0.88966 -0.962429 0)
(0.811406 -1.02926 0)
(0.72815 -1.08975 0)
(0.640405 -1.14352 0)
(0.548711 -1.19024 0)
(0.453634 -1.22963 0)
(0.35576 -1.26143 0)
(0.255693 -1.28545 0)
(0.154049 -1.30155 0)
(0.0514554 -1.30963 0)
(1.15659 -0.0454427 0)
(1.14946 -0.136048 0)
(1.13524 -0.225814 0)
(1.11402 -0.314187 0)
(1.08594 -0.400624 0)
(1.05116 -0.484591 0)
(1.0099 -0.56557 0)
(0.962409 -0.643062 0)
(0.908988 -0.716589 0)
(0.849963 -0.785698 0)
(0.785698 -0.849963 0)
(0.716589 -0.908988 0)
(0.643061 -0.962409 0)
(0.56557 -1.0099 0)
(0.484591 -1.05116 0)
(0.400624 -1.08594 0)
(0.314187 -1.11402 0)
(0.225814 -1.13524 0)
(0.136047 -1.14946 0)
(0.0454425 -1.15659 0)
(1.03532 -0.040678 0)
(1.02894 -0.121783 0)
(1.01621 -0.202137 0)
(0.997217 -0.281245 0)