/*--------------------------------*- C++ -*----------------------------------*\
| =========                 |                                                 |
| \\      /  F ield         | foam-extend: Open Source CFD                    |
|  \\    /   O peration     | Version:  3.0                                   |
|   \\  /    A nd           | Web:         http://www.extend-project.de       |
|    \\/     M anipulation  |                                                 |
\*---------------------------------------------------------------------------*/
FoamFile
{
    version     2.0;
    format      ascii;
    class       volSymmTensorField;
    location    "29";
    object      sigma;
}
// * * * * * * * * * * * * * * * * * * * * * * * * * * * * * * * * * * * * * //

dimensions      [0 0 0 0 0 0 0];

internalField   nonuniform List<symmTensor> 
2688
(
(-0.1774158732 -0.00485127227 4.288356874e-20 0.177376961 7.44820077e-22 3.891220156e-05)
(-0.1739320574 -0.005730657183 6.419131671e-20 0.1738266136 6.110341567e-21 0.0001054437554)
(-0.1666292064 -0.006120877243 1.147396326e-20 0.1664642407 4.961267129e-20 0.0001649656862)
(-0.1574351426 -0.006219922967 -6.74471963e-22 0.1572165448 6.281173902e-20 0.0002185978658)
(-0.1474338003 -0.006145009536 2.163312576e-20 0.1471666706 7.998394569e-20 0.0002671297375)
(-0.1372265236 -0.005966890989 3.802801559e-20 0.1369154922 6.113675921e-20 0.0003110313508)
(-0.1271575432 -0.005729447843 4.847886018e-20 0.1268069289 7.477468368e-20 0.0003506143216)
(-0.117411746 -0.005460176675 2.223264791e-20 0.1170257617 4.132422989e-20 0.0003859843945)
(-0.1080906713 -0.00517659877 -3.059243029e-21 0.1076735063 3.522797112e-20 0.0004171650249)
(-0.09924088757 -0.00489000941 8.924679773e-21 0.09879686779 5.379638176e-21 0.0004440197849)
(-0.09088209017 -0.004607643697 2.347493932e-20 0.09041572805 5.066330654e-20 0.0004663621147)
(-0.08301665429 -0.00433436784 3.32929458e-20 0.0825327944 6.883691583e-20 0.0004838598838)
(-0.07563913412 -0.004073209486 6.286766489e-20 0.07514299282 5.108205221e-20 0.0004961413027)
(-0.0687419587 -0.003826460001 3.483104732e-20 0.06823927254 6.639805149e-20 0.0005026861551)
(-0.06231578839 -0.003595432549 -3.085861105e-20 0.0618128579 8.527406573e-20 0.0005029304899)
(-0.05635632506 -0.003381491353 -1.407654393e-21 0.05586017723 9.10828558e-20 0.0004961478336)
(-0.05085875688 -0.003185331465 2.681421365e-20 0.05037720488 7.75156508e-20 0.0004815519972)
(-0.04582762689 -0.00300815109 -7.562743273e-21 0.04536945363 1.18296269e-19 0.0004581732599)
(-0.04126637664 -0.002850546346 -1.042756763e-22 0.04084142009 8.688526453e-20 0.0004249565478)
(-0.03719131638 -0.002713944813 3.52679362e-20 0.03681067876 9.803115131e-20 0.0003806376195)
(-0.03361636389 -0.002599129917 4.281885973e-20 0.03329253409 1.502917037e-20 0.0003238298012)
(-0.03057191661 -0.002507979268 1.783812901e-20 0.03031901207 2.788630525e-20 0.0002529045356)
(-0.028084625 -0.002441891624 1.640220184e-21 0.0279185699 -4.806296201e-21 0.0001660551011)
(-0.02620003555 -0.002401636536 -2.903199892e-21 0.0261388483 -5.549807047e-20 6.118725218e-05)
(-0.1769138188 -0.01454351262 3.743868076e-20 0.1768750325 -1.544828063e-21 3.878632794e-05)
(-0.1730046641 -0.0171420579 7.352759066e-20 0.1728995458 2.895018756e-21 0.000105118373)
(-0.1654589457 -0.01828901473 3.636546403e-20 0.1652944937 2.246848708e-20 0.0001644519511)
(-0.156134214 -0.0185723642 4.942548283e-21 0.1559162997 4.878970245e-20 0.0002179143173)
(-0.1460722823 -0.01834007872 1.472895183e-20 0.1458059888 6.827899754e-20 0.0002662934605)
(-0.1358485462 -0.01780218143 3.586656522e-20 0.1355384883 4.585806659e-20 0.0003100578695)
(-0.1257908948 -0.01708888686 3.959571331e-20 0.1254413773 7.857984597e-20 0.000349517468)
(-0.1160736794 -0.01628175073 -4.070105906e-21 0.1156889019 2.872844053e-20 0.0003847775721)
(-0.1067915743 -0.01543273465 -3.321328251e-20 0.1063757128 5.681789958e-20 0.0004158614754)
(-0.09798654535 -0.01457531512 1.257535363e-20 0.09754391233 1.2637355e-20 0.0004426330217)
(-0.08967524618 -0.01373092086 5.768254776e-20 0.08921034017 2.981843742e-20 0.0004649060114)
(-0.08185790556 -0.01291395204 3.880438023e-20 0.08137555632 1.868030396e-20 0.0004823492365)
(-0.07452767821 -0.01213336096 5.937389707e-20 0.07403308619 3.083186388e-21 0.0004945920137)
(-0.0676759031 -0.01139592049 7.067291389e-20 0.06717478721 4.188197375e-20 0.0005011158885)
(-0.06129257121 -0.01070550603 3.407365319e-20 0.06079121231 6.958751798e-20 0.0005013589015)
(-0.05537274133 -0.01006615006 2.704234908e-20 0.05487814428 1.320382583e-19 0.000494597051)
(-0.04991125348 -0.009479903869 8.51811597e-20 0.04943120676 2.360101194e-20 0.00048004672)
(-0.04491216542 -0.008950319982 3.414741416e-20 0.04445542451 1.685599805e-19 0.0004567409112)
(-0.0403786888 -0.008479169605 2.188263194e-20 0.03995506101 1.796778616e-19 0.0004236277888)
(-0.0363266518 -0.008070698113 3.47811203e-20 0.03594720476 3.958018496e-20 0.0003794470374)
(-0.03276976153 -0.00772723804 -3.308484899e-20 0.03244694471 3.286679702e-20 0.0003228168187)
(-0.02973788312 -0.007454373421 1.525729059e-20 0.02948577008 1.369815168e-19 0.0002521130394)
(-0.0272573074 -0.007256273411 -7.057637353e-20 0.02709177249 9.136793903e-20 0.0001655349084)
(-0.02537366518 -0.007135265879 3.095636357e-20 0.02531266963 -5.301969087e-20 6.099554736e-05)
(-0.1759096994 -0.02420408076 2.5941503e-20 0.1758711543 2.631009098e-20 3.854512536e-05)
(-0.1711635326 -0.02840423204 5.967687553e-20 0.1710590734 3.288578388e-21 0.0001044592463)
(-0.1631403628 -0.03023769464 3.938809707e-20 0.1629769388 -3.144299488e-20 0.000163424028)
(-0.1535592327 -0.03066444102 2.673776388e-20 0.1533426786 1.450757454e-20 0.0002165541125)
(-0.1433789087 -0.03025244286 1.619469913e-20 0.1431142779 5.93030187e-20 0.0002646308664)
(-0.1331236826 -0.02934428152 4.130708719e-20 0.132815562 5.121997105e-20 0.0003081205958)
(-0.1230892255 -0.02815227667 4.807437574e-20 0.1227418941 8.838485259e-20 0.0003473313858)
(-0.1134291381 -0.02680929258 -5.275367214e-21 0.1130467696 8.634000501e-20 0.0003823684693)
(-0.1042245702 -0.0253999264 -1.294075316e-20 0.1038113148 9.526415372e-20 0.0004132554185)
(-0.0955084246 -0.02397861311 -3.713761456e-20 0.09506856739 9.475174942e-20 0.0004398572085)
(-0.08729136552 -0.02258016047 1.291299501e-20 0.08682937654 1.111057746e-19 0.0004619889748)
(-0.07956939762 -0.02122792126 4.843472963e-21 0.07909007592 3.673775452e-20 0.0004793217026)
(-0.07233292274 -0.01993638946 7.523294215e-20 0.07184143572 -1.463313018e-20 0.0004914870192)
(-0.06557113602 -0.01871651902 1.13539322e-19 0.06507316634 9.199161707e-21 0.0004979696773)
(-0.05927271133 -0.01757456016 7.369360113e-20 0.05877450023 7.033843804e-20 0.0004982111053)
(-0.05343143911 -0.01651703594 1.509179282e-20 0.05293994739 9.163561108e-20 0.0004914917146)
(-0.04804146902 -0.01554725574 5.525054187e-20 0.04756443627 6.076498222e-20 0.0004770327529)
(-0.04310589936 -0.01467099695 2.69465119e-19 0.04265202613 1.623706705e-20 0.0004538732328)
(-0.03862749247 -0.01389114619 -2.176493407e-20 0.03820652447 6.262102979e-20 0.0004209680025)
(-0.03462113857 -0.01321464685 -1.049135648e-19 0.03424407389 5.202902934e-20 0.0003770646733)
(-0.03110013421 -0.01264533153 1.723758864e-19 0.03077934397 2.479736807e-20 0.0003207902403)
(-0.02809327686 -0.01219236051 2.141913111e-19 0.02784274609 -1.949725661e-20 0.0002505307745)
(-0.02562613078 -0.01186259068 -1.52367366e-19 0.02546163442 1.319566465e-19 0.0001644963576)
(-0.02374451581 -0.01165996227 -2.729575277e-20 0.023683903 -5.739220472e-20 6.061280553e-05)
(-0.1744035451 -0.0338115107 -1.18747804e-22 0.1743653609 4.341723397e-20 3.818421228e-05)
(-0.168435638 -0.03942121473 2.575759205e-20 0.1683321618 -3.539964376e-20 0.000103476189)
(-0.1597167401 -0.04182644457 4.164847491e-20 0.1595548544 -8.732092494e-20 0.0001618856831)
(-0.1497631679 -0.04232983094 5.559210847e-20 0.1495486523 4.316750753e-22 0.0002145155344)
(-0.1394121507 -0.04170168068 4.363402204e-20 0.1391500127 3.437864521e-20 0.0002621380674)
(-0.1291132086 -0.04040620152 5.14037721e-20 0.1288079925 6.258752515e-20 0.0003052161052)
(-0.1191148755 -0.03873089485 8.840102134e-20 0.1187708208 7.505115349e-20 0.0003440547193)
(-0.1095404028 -0.0368554349 6.11821929e-21 0.1091616442 1.302632732e-19 0.0003787585839)
(-0.1004511637 -0.03489410442 4.126530959e-21 0.1000418123 5.800474551e-20 0.000409351384)
(-0.09186681294 -0.03292029946 5.381101928e-20 0.0914311133 4.417168739e-20 0.0004356996365)
(-0.08378926329 -0.03098087632 4.248253278e-20 0.08333164289 6.301436082e-20 0.0004576203945)
(-0.07620834887 -0.02910719046 -6.958737686e-20 0.07573356099 8.739034402e-21 0.0004747878843)
(-0.06911045166 -0.02731865145 -2.010402625e-20 0.06862361443 6.272353241e-20 0.0004868372304)
(-0.06248163669 -0.02562990334 1.534222194e-19 0.06198837865 1.064804459e-20 0.0004932580396)
(-0.05630865622 -0.02404926499 1.198582659e-19 0.05581515929 1.82958303e-19 0.0004934969311)
(-0.05058344937 -0.02258545993 9.092610218e-20 0.05009660836 -9.611045261e-21 0.0004868410063)
(-0.04529915959 -0.0212428955 2.719751554e-20 0.04482664071 -7.208527068e-20 0.0004725188814)
(-0.04045748364 -0.02002936249 7.66655556e-20 0.0400079051 -1.330816483e-19 0.000449578537)
(-0.03606052699 -0.01894876509 1.833865964e-19 0.03564354219 -1.032325362e-19 0.0004169847931)
(-0.0321218049 -0.01801054861 7.484936739e-21 0.03174830808 -6.333284317e-21 0.0003734968168)
(-0.02865400932 -0.01721996533 -1.404444909e-19 0.02833625458 1.097261453e-20 0.0003177547372)
(-0.02568437279 -0.01658953981 2.19142194e-19 0.02543621289 -3.032361131e-20 0.0002481599029)
(-0.02323739574 -0.01612868033 6.62127629e-20 0.02307445593 1.288584709e-19 0.0001629398064)
(-0.02135916317 -0.01584302476 -2.043510968e-20 0.0212991238 -2.910885225e-20 6.003936396e-05)
(-0.1723955076 -0.04334386701 -4.461007316e-20 0.1723578055 5.73183993e-20 3.770213835e-05)
(-0.1648605802 -0.05010221669 -4.988635968e-20 0.1647584127 -2.341592682e-20 0.0001021675499)
(-0.1552515607 -0.05292342477 2.934627541e-20 0.1550917231 -6.004399931e-20 0.0001598376313)
(-0.1448236982 -0.05341288864 8.949953987e-20 0.1446118968 1.767894386e-20 0.0002118013991)
(-0.1342577366 -0.05251923481 5.769875899e-20 0.1339989168 3.678151052e-20 0.0002588198345)
(-0.123906954 -0.05081343292 7.661477989e-20 0.1236056032 4.389970765e-20 0.0003013507989)
(-0.113959222 -0.04864874867 1.350550545e-19 0.1136195267 2.94160144e-20 0.0003396953159)
(-0.1044987517 -0.04624555262 2.53809176e-20 0.1041247946 1.241799345e-19 0.0003739570522)
(-0.09556148382 -0.04374380356 -6.591749548e-20 0.09515732413 3.313375447e-20 0.0004041596845)
(-0.08715004546 -0.04123314397 -2.50057173e-20 0.08671987382 2.461115197e-20 0.0004301716414)
(-0.07925510605 -0.03877067016 4.841094248e-20 0.0788032936 -8.533119322e-21 0.0004518124591)
(-0.07185857709 -0.03639444928 1.001982754e-20 0.07138981647 9.364672625e-21 0.0004687606174)
(-0.06494168179 -0.03412795578 3.26236532e-20 0.0644610259 1.034328647e-19 0.0004806558949)
(-0.05848646972 -0.03198885686 1.827654513e-19 0.05799947533 4.303609183e-20 0.0004869943877)
(-0.05247723003 -0.02998712417 1.771700819e-19 0.05199000035 5.940419321e-20 0.0004872296737)
(-0.04690352725 -0.02813328751 -1.436824281e-19 0.0464228694 -2.626604697e-19 0.0004806578473)
(-0.04175721555 -0.02643263472 -8.066535266e-20 0.04129069822 -1.358833198e-19 0.0004665173289)
(-0.03703819132 -0.02489468217 9.84580795e-20 0.03659432313 3.843695196e-20 0.0004438681851)
(-0.0327477157 -0.02352421818 3.941705678e-20 0.03233602719 6.094994376e-20 0.0004116885062)
(-0.02889753148 -0.02233292317 1.043876574e-19 0.02852877833 2.552856472e-20 0.000368753152)
(-0.02549954542 -0.02132736023 9.469000532e-20 0.02518582603 1.601168337e-19 0.000313719395)
(-0.02257896486 -0.02052313106 2.732381763e-19 0.02233395642 1.651019716e-19 0.0002450084373)
(-0.02015892262 -0.01993200979 1.174412209e-19 0.01999805217 -1.137817042e-20 0.0001608704497)
(-0.01828582124 -0.01956144697 -1.247332537e-19 0.01822654445 2.819778261e-19 5.927678314e-05)
(-0.1698859984 -0.0527785624 -5.275364207e-20 0.1698488976 1.531749507e-20 3.710081975e-05)
(-0.1604895914 -0.0603634922 -1.063677611e-19 0.1603890543 1.689229417e-20 0.0001005371523)
(-0.1498268191 -0.06340851842 1.126134182e-20 0.1496695329 -2.935068019e-20 0.0001572861611)
(-0.1388410969 -0.06377249187 1.011101113e-19 0.1386326766 3.490345539e-20 0.0002084202787)
(-0.1280262993 -0.06255267564 7.868758893e-20 0.1277716126 7.511836257e-21 0.0002546867515)
(-0.1176208237 -0.06040843072 5.569068639e-20 0.1173242866 1.014710689e-21 0.0002965370748)
(-0.1077401514 -0.05774714836 1.758176578e-19 0.1074058842 6.546603502e-21 0.0003342671839)
(-0.09842193144 -0.05482234124 1.543486823e-19 0.09805395207 -4.744230695e-20 0.0003679793703)
(-0.08967178506 -0.0517946908 1.939400256e-20 0.08927408789 -1.601629957e-19 0.0003976971663)
(-0.0814720544 -0.04876673216 -4.646322209e-20 0.08104876309 1.211706803e-19 0.0004232913073)
(-0.07380002238 -0.04580356816 3.78049445e-22 0.07335543803 5.183812261e-20 0.0004445843564)
(-0.06662817532 -0.04294838359 1.644396429e-20 0.06616691527 5.197870515e-20 0.0004612600552)
(-0.05993160418 -0.04022766758 4.549982207e-21 0.0594586402 1.077964748e-19 0.0004729639746)
(-0.05368758735 -0.0376612871 6.886584713e-20 0.05320838705 1.336756638e-19 0.0004792002961)
(-0.04787749069 -0.0352603533 9.251601758e-21 0.04739805939 -9.860398125e-21 0.0004794313078)
(-0.04248805745 -0.0330367157 -2.42870029e-19 0.04201509315 6.918543554e-20 0.0004729642992)
(-0.03750961206 -0.03099627425 5.051909337e-20 0.03705056217 3.12935367e-19 0.0004590498903)
(-0.03293990647 -0.02914991571 1.971520186e-19 0.03250314342 2.112960849e-19 0.0004367630539)
(-0.02877919534 -0.02750314797 1.285946464e-19 0.02837409698 2.048872635e-19 0.0004050983608)
(-0.02503710182 -0.02606955622 3.48648868e-20 0.02467425162 2.262045555e-19 0.000362850198)
(-0.02172458923 -0.0248568788 1.501744348e-20 0.02141589165 3.102961691e-19 0.0003086975803)
(-0.01886443344 -0.02388343828 6.018139665e-20 0.01862334684 4.586257113e-19 0.0002410866033)
(-0.0164781257 -0.0231631452 3.811763914e-19 0.01631983019 3.4716091e-19 0.0001582955067)
(-0.01461241303 -0.02270540408 -1.623362434e-20 0.01455408497 4.162584156e-19 5.832805744e-05)
(-0.1668758479 -0.062092225 -2.33374063e-20 0.1668394657 -2.909039323e-20 3.638214486e-05)
(-0.1553842411 -0.07013002225 -1.136585823e-19 0.1552856514 2.482195748e-21 9.858967795e-05)
(-0.1435408409 -0.07317611911 -2.525264385e-20 0.143386602 -5.318773558e-21 0.0001542388477)
(-0.1319355197 -0.07328549003 1.368660162e-19 0.1317311374 -4.169839161e-20 0.0002043822667)
(-0.120850358 -0.07166952986 1.01489505e-19 0.1206006069 -8.885508995e-20 0.0002497511823)
(-0.1103936186 -0.06905464136 2.097535656e-20 0.1101028294 7.018288607e-20 0.0002907892814)
(-0.1005988134 -0.06588881518 9.93838827e-20 0.1002710269 1.865156341e-21 0.0003277864621)
(-0.09145090605 -0.06244992941 4.863253405e-20 0.0910900628 -2.206744047e-19 0.0003608432488)
(-0.08292123017 -0.05891363333 4.351178945e-20 0.08253124724 -8.02047917e-20 0.0003899829308)
(-0.07496920976 -0.05539145975 2.173933862e-19 0.07455413085 4.396996739e-20 0.0004150789099)
(-0.06755701476 -0.05195392424 2.663307251e-23 0.06712105744 -1.103561016e-20 0.0004359573159)
(-0.06064650258 -0.04864747876 2.875004568e-20 0.06019419445 1.305807825e-19 0.00045230813)
(-0.05420585566 -0.04550040829 8.127727303e-20 0.05374207183 2.186890093e-19 0.0004637838309)
(-0.04820698071 -0.04253382405 1.083505767e-19 0.04773708243 1.733716556e-19 0.0004698982806)
(-0.04262795727 -0.03975938127 1.987834119e-19 0.04215783307 7.14743826e-21 0.0004701242039)
(-0.0374523524 -0.03718968438 1.574621451e-20 0.03698857004 2.417165377e-19 0.0004637823528)
(-0.0326687711 -0.03483093405 5.733404119e-20 0.03221863319 7.379272073e-20 0.0004501379118)
(-0.02827254333 -0.03269497481 7.042958659e-20 0.02784425961 -1.589895598e-21 0.0004282837146)
(-0.02426278483 -0.03078784299 2.223574013e-19 0.02386555103 -1.555402573e-20 0.0003972338034)
(-0.02064671158 -0.02912464477 3.489224209e-19 0.02029090571 5.08371403e-20 0.0003558058644)
(-0.01743420864 -0.02771413592 5.857790356e-19 0.01713150398 -6.507098431e-21 0.0003027046586)
(-0.0146452807 -0.02657694478 4.401967521e-19 0.0144088744 3.830158493e-19 0.0002364063002)
(-0.01229954112 -0.02572885047 4.149904506e-19 0.01214431862 2.796534148e-19 0.000155222504)
(-0.01044407834 -0.02518137407 -1.091727235e-19 0.0103868826 -3.966709883e-20 5.719573967e-05)
(-0.1633665072 -0.07126058866 -1.135266731e-20 0.1633309584 -5.67873636e-21 3.554878823e-05)
(-0.1496148929 -0.07933695847 -8.130780284e-20 0.1495185613 -1.961124378e-20 9.633160411e-05)
(-0.1365056774 -0.08213751547 -3.393825423e-20 0.1363549717 -7.971610571e-20 0.000150705618)
(-0.1242437637 -0.08184964948 7.452932244e-20 0.1240440633 -1.033686919e-19 0.0001997004417)
(-0.1128807106 -0.07976054729 1.795025951e-19 0.1126366816 -6.346363897e-20 0.0002440290342)
(-0.102383236 -0.07663993589 1.158919605e-19 0.1020991101 9.411560115e-20 0.0002841259083)
(-0.0926957418 -0.07296138098 -1.460326717e-20 0.09237546785 -1.308177974e-20 0.0003202739557)
(-0.08374597089 -0.06901737951 1.895730623e-20 0.0833933993 -1.178011652e-19 0.0003525715925)
(-0.07546804387 -0.06499215925 3.160751209e-20 0.07508700213 1.187900959e-19 0.0003810417392)
(-0.0677965419 -0.06100192728 8.07162472e-20 0.06739098106 2.73627253e-20 0.0004055608403)
(-0.06067726862 -0.05711973381 8.862379902e-20 0.06025130951 7.26864671e-20 0.0004259591079)
(-0.05406058753 -0.05339324529 2.370962455e-19 0.05361865381 1.059506539e-19 0.0004419337239)
(-0.04790722035 -0.04985119101 1.110600391e-19 0.04745407519 1.537658187e-19 0.0004531451622)
(-0.0421832775 -0.04651486713 -5.233997647e-20 0.04172415901 5.663701023e-20 0.000459118493)
(-0.03686329925 -0.04339581303 6.033056678e-20 0.03640396068 5.166374283e-20 0.0004593385707)
(-0.03192742546 -0.04050676189 5.796792995e-20 0.0314742837 4.326520568e-20 0.0004531417588)
(-0.02736240983 -0.03785386987 -6.798593884e-20 0.02692259963 -4.610711129e-20 0.0004398101979)
(-0.02316095784 -0.03544948114 1.231677069e-19 0.02274250043 -8.793590479e-20 0.0004184574072)
(-0.01932094906 -0.03329994819 1.421067268e-19 0.01893282899 -1.226371477e-19 0.0003881200657)
(-0.01584697253 -0.03142147141 1.973157897e-21 0.0154993298 -1.14690196e-19 0.0003476427327)
(-0.012747727 -0.02982364827 3.539833113e-19 0.01245196695 -3.062499435e-21 0.0002957600464)
(-0.0100401789 -0.02852895066 8.857276519e-19 0.009809196077 -4.481745828e-20 0.00023098282)
(-0.007741873285 -0.02755472733 6.428974814e-19 0.007590211652 -3.27757871e-19 0.0001516616337)
(-0.00590020202 -0.02691479306 3.062788929e-20 0.005844318265 -1.779275529e-19 5.58837542e-05)
(-0.1593602645 -0.08025843213 4.789078388e-20 0.1593256612 -8.809159436e-20 3.460326274e-05)
(-0.1432589472 -0.08793079057 -7.432423019e-20 0.1431651774 -9.690622403e-20 9.376980555e-05)
(-0.1288441456 -0.09022280739 -2.259768369e-20 0.1286974483 -1.957798659e-19 0.0001466973185)
(-0.115915585 -0.08938601747 -4.734051062e-21 0.1157211957 4.776138533e-20 0.0001943892181)
(-0.1042823362 -0.08674232038 1.778313452e-19 0.1040447983 2.406479722e-20 0.0002375379815)
(-0.09376235301 -0.08307936227 2.073443246e-19 0.09348578545 2.128514043e-20 0.0002765675614)
(-0.08420644828 -0.07888019297 -1.088110382e-20 0.08389469533 -4.313054086e-20 0.0003117529463)
(-0.07548233875 -0.07444149362 -1.662089954e-20 0.07513914867 -1.388834524e-21 0.0003431900772)
(-0.06748514439 -0.06994923133 1.474390845e-19 0.06711424297 9.826763674e-20 0.0003709014119)
(-0.06012345138 -0.06551966178 6.95909683e-20 0.0597286846 1.657598741e-19 0.0003947667783)
(-0.05332595956 -0.06122529124 2.406933661e-20 0.05291133858 4.641545399e-20 0.0004146209785)
(-0.04703104288 -0.0571128062 1.636304472e-19 0.04660087356 7.276600731e-20 0.0004301693215)
(-0.04119165439 -0.05320993588 2.80127408e-19 0.04075057306 1.128988052e-19 0.0004410813304)
(-0.03576787535 -0.04953702963 8.659919821e-20 0.03532098056 7.635023228e-20 0.0004468947895)
(-0.03073057385 -0.04610480637 1.190045714e-19 0.03028346554 1.484421235e-19 0.0004471083037)
(-0.02605632472 -0.04292545906 3.890180458e-20 0.02561524874 1.109389299e-19 0.000441075982)
(-0.02172996104 -0.04000473067 -1.229852523e-19 0.02130186189 2.879297096e-20 0.0004280991571)
(-0.01774144339 -0.03735497485 -2.434666336e-19 0.0173341285 1.226215057e-19 0.0004073148841)
(-0.01408735565 -0.03498263271 3.604026817e-20 0.01370957023 2.128586656e-19 0.0003777854251)
(-0.01076951543 -0.0329045412 1.855266179e-19 0.01043112949 2.364857985e-19 0.000338385942)
(-0.007795356282 -0.03113095045 9.86429271e-20 0.007507471432 2.32280663e-19 0.00028788485)
(-0.005178618055 -0.02968567914 -4.421499983e-20 0.004953785583 -5.686927422e-20 0.0002248324717)
(-0.002934636958 -0.02858732374 4.264448201e-19 0.002787013604 -2.587458056e-19 0.0001476233536)
(-0.001111032135 -0.02785217837 2.960217118e-19 0.00105663641 -3.368981972e-19 5.43957247e-05)
(-0.1548604906 -0.08905955118 8.788723958e-20 0.1548269418 -7.856199802e-20 3.35487132e-05)
(-0.1363989245 -0.09587020845 -3.27243056e-21 0.136308012 -1.795041006e-19 9.091247415e-05)
(-0.1206865967 -0.09738230547 -7.816398974e-20 0.12054437 -8.535061295e-21 0.0001422266391)
(-0.1071096795 -0.09584064111 5.439950465e-20 0.1069212141 1.410126923e-19 0.000188465355)
(-0.09522992217 -0.0925591851 9.632104803e-20 0.09499962373 3.347358615e-20 0.0002302984423)
(-0.08471371651 -0.08831713942 2.428322387e-19 0.08444557854 -4.150220049e-20 0.0002681379719)
(-0.07531661264 -0.08359034409 4.691375917e-20 0.07501436251 -5.095446968e-20 0.0003022501242)
(-0.06684532188 -0.07866884293 4.937016325e-21 0.06651259384 2.482267556e-20 0.0003327280439)
(-0.05915537516 -0.07373325214 1.666858659e-19 0.05879578155 1.071748506e-19 0.0003595936124)
(-0.05212902613 -0.06889508276 1.40161589e-19 0.05174629573 1.312733983e-19 0.0003827303964)
(-0.04567767709 -0.06422310858 -1.43772001e-20 0.04527569881 4.167497122e-20 0.0004019782773)
(-0.03972760632 -0.05976076431 1.915749821e-19 0.03931055472 1.057578841e-19 0.000417051599)
(-0.03422394748 -0.05553328482 3.167196364e-19 0.03379631751 -3.810615438e-20 0.0004276299642)
(-0.02912072197 -0.05155890203 2.260148476e-19 0.02868745665 -1.721785458e-19 0.000433265319)
(-0.02438511936 -0.04784678621 2.830799093e-19 0.02395164774 -8.460744643e-20 0.0004334716261)
(-0.01999013086 -0.04440789808 1.885028347e-19 0.01956250809 -9.644479042e-20 0.0004276227711)
(-0.01591866565 -0.04124718649 6.339767922e-20 0.01550362411 -4.410648527e-20 0.0004150415404)
(-0.01215790497 -0.03837650652 2.734600407e-19 0.01176301378 -3.678718621e-20 0.0003948911843)
(-0.008703117645 -0.03580215208 -5.899305965e-20 0.008336855082 2.306822748e-19 0.0003662625629)
(-0.005553284078 -0.03354112087 -8.844117816e-21 0.005225219218 1.785037469e-19 0.0003280648597)
(-0.00271452564 -0.03160411834 1.677489346e-19 0.002435421371 3.107435042e-19 0.0002791042686)
(-0.0001972499786 -0.03001579225 -1.691507166e-19 -2.072510536e-05 2.711054665e-19 0.0002179750839)
(0.001985503003 -0.02879565047 -4.339086479e-19 -0.002128623934 -2.145891633e-19 0.000143120931)
(0.003786002933 -0.02796265306 1.676138665e-19 -0.003838739695 -1.097605334e-19 5.273676132e-05)
(-0.149871885 -0.09763678482 3.667036999e-20 0.1498394967 -5.709406385e-21 3.238828847e-05)
(-0.1291204382 -0.1031266355 -5.517438296e-21 0.1290326698 -5.14304935e-20 8.776834151e-05)
(-0.1121675032 -0.1035873725 -6.369799926e-20 0.1120301958 1.72513084e-19 0.0001373073469)
(-0.09798943984 -0.1011855915 4.978630022e-20 0.09780749268 7.602920131e-20 0.0001819471543)
(-0.08590314291 -0.09718434839 2.600312889e-20 0.08568081006 6.212830513e-23 0.0002223328444)
(-0.07542517008 -0.09232783696 2.710550667e-19 0.07516630679 -1.14374556e-19 0.0002588632899)
(-0.06621700679 -0.08706787159 1.529307806e-19 0.06592521177 -8.878421821e-20 0.00029179502)
(-0.05802524755 -0.08167696415 1.616720651e-19 0.05770402951 -1.301368111e-19 0.0003212180472)
(-0.05066647306 -0.07632324453 3.21116361e-19 0.05031931947 -4.518334814e-20 0.0003471535863)
(-0.04399710014 -0.07110865876 3.540796992e-19 0.04362761087 -9.536235372e-20 0.0003694892675)
(-0.03791159611 -0.06609504299 3.725767482e-20 0.03752352559 -3.827550909e-20 0.0003880705246)
(-0.03232443571 -0.06132029845 3.754888241e-20 0.03192181411 1.103968499e-20 0.0004026216067)
(-0.0271731456 -0.05680566572 9.854987141e-20 0.02676031242 -8.006715865e-20 0.0004128331823)
(-0.02240586331 -0.05256608491 2.903644579e-20 0.02198759054 -9.432225621e-20 0.0004182727732)
(-0.01798622273 -0.04860844762 8.908840578e-20 0.0175677515 1.905096143e-19 0.0004184712269)
(-0.01388373502 -0.04494178812 6.732861678e-20 0.0134709108 1.818343774e-19 0.0004128242229)
(-0.01007944954 -0.04156987911 -9.570078024e-20 0.009678771424 -6.74585157e-20 0.0004006781197)
(-0.006557821989 -0.03850356637 1.147931578e-19 0.006176596925 -2.199155551e-20 0.0003812250637)
(-0.003312827096 -0.03574875894 5.009737473e-19 0.002959239808 3.616529044e-19 0.000353587288)
(-0.0003406233942 -0.03332213509 2.577475165e-19 2.391188812e-05 2.076693551e-19 0.0003167115061)
(0.002353994751 -0.03123465521 6.232808938e-19 -0.002623440114 6.124881961e-20 0.0002694453632)
(0.004763971919 -0.02951127167 2.200412351e-19 -0.004974403578 -4.441006534e-19 0.0002104316591)
(0.006878597885 -0.02817206181 -4.826977708e-19 -0.007016765821 -4.518527528e-19 0.0001381679363)
(0.008650187961 -0.02723883237 -9.179861959e-20 -0.008701099622 2.511202796e-20 5.091166082e-05)
(-0.1444007317 -0.1059620846 2.111828256e-20 0.144369606 5.441914374e-20 3.11257342e-05)
(-0.121510116 -0.1096844203 -7.195829422e-21 0.1214257686 7.116038936e-20 8.434738933e-05)
(-0.1034219616 -0.1088306863 -5.096207947e-20 0.1032900066 1.766374746e-19 0.0001319549974)
(-0.088718607 -0.1054192674 4.409325292e-20 0.0885437518 7.884781052e-21 0.0001748551959)
(-0.07648182232 -0.1006202126 -6.140578987e-20 0.07626815603 -5.405358318e-20 0.0002136662919)
(-0.06608455965 -0.09511670804 1.129380411e-19 0.06583578694 -5.831647015e-20 0.0002487727075)
(-0.05709829379 -0.0893200906 1.123726315e-19 0.05681787331 -8.714777013e-20 0.0002804204833)
(-0.04921224842 -0.08347468868 -6.094544992e-20 0.04890355222 -7.269078311e-20 0.0003086962029)
(-0.04220591258 -0.07772917346 1.446022241e-19 0.04187229227 -1.106175425e-21 0.0003336203148)
(-0.03591119035 -0.07217121977 3.201024527e-19 0.0355561055 5.304158985e-23 0.0003550848454)
(-0.03020652932 -0.06685259907 2.928565807e-19 0.02983358808 -2.146824253e-20 0.0003729412405)
(-0.0249952883 -0.06180345518 1.255530673e-19 0.0246083638 8.579068303e-20 0.000386924498)
(-0.02020786082 -0.05703957386 8.413439891e-20 0.01981112351 8.095635067e-20 0.0003967373096)
(-0.01578688166 -0.05257146026 2.316809712e-19 0.01538491754 8.003231098e-20 0.0004019641168)
(-0.01169268028 -0.04840301781 4.344779171e-19 0.01129052614 2.658003791e-19 0.0004021541462)
(-0.007891512535 -0.04454067853 3.248907449e-19 0.007494785766 -1.870987927e-19 0.0003967267695)
(-0.00436269914 -0.04098666769 -8.245765036e-20 0.003977645096 -3.279881728e-19 0.0003850540439)
(-0.001088111565 -0.03775032293 1.325854853e-19 0.0007217520504 2.94416744e-20 0.0003663595151)
(0.001939508058 -0.03483693626 5.739511345e-19 -0.002279307698 -1.073067467e-19 0.0003397996397)
(0.004726727739 -0.03226239517 1.464937791e-19 -0.005031089584 -4.032477573e-19 0.0003043618444)
(0.007270062482 -0.03003771712 -2.303133588e-21 -0.007529001441 -4.835036708e-19 0.0002589389593)
(0.009565744114 -0.028187642 2.024429634e-19 -0.009767970548 -6.203342024e-19 0.0002022264342)
(0.01160537109 -0.02673247818 -2.546906429e-19 -0.01173815162 -7.823435814e-20 0.0001327805285)
(0.0133415011 -0.02569704618 4.491418804e-20 -0.0133904277 1.812448125e-19 4.892659819e-05)
(-0.138455141 -0.1140066336 1.459974236e-20 0.1384253761 8.142338056e-20 2.976492336e-05)
(-0.1136535267 -0.1155406831 5.345099937e-20 0.1135728665 6.940451114e-20 8.066025515e-05)
(-0.09458220713 -0.1131259183 -4.797552077e-20 0.09445602082 1.417645176e-19 0.0001261863046)
(-0.07945693886 -0.10856597 9.534415437e-20 0.07928972719 -1.179846091e-19 0.0001672116607)
(-0.06714111546 -0.1028978886 -5.121867462e-20 0.06693678953 -7.258064504e-20 0.000204325923)
(-0.05687466001 -0.09671916772 2.673701424e-20 0.05663676218 4.622921058e-20 0.0002378978361)
(-0.04814584951 -0.09038505521 1.652948221e-19 0.04787768734 -1.527140291e-20 0.0002681621727)
(-0.04059107592 -0.08410159795 4.64608588e-20 0.04029587413 2.068742298e-20 0.0002952017849)
(-0.03395577356 -0.07799140299 1.511084409e-20 0.03363673729 1.253037478e-19 0.0003190362716)
(-0.02804945697 -0.07212342066 1.041846867e-19 0.0277098946 1.327727727e-19 0.000339562364)
(-0.02273600266 -0.06653640156 1.998205026e-19 0.0223793647 1.965430555e-20 0.000356637959)
(-0.01790872288 -0.06125063241 2.847057802e-19 0.01753871327 6.926064267e-20 0.000370009613)
(-0.01349160375 -0.05627506682 2.34993288e-19 0.0131122108 -2.09558802e-19 0.0003793929527)
(-0.009422356325 -0.05161469798 -3.684376522e-20 0.009037965685 -5.648451163e-20 0.0003843906406)
(-0.005658380639 -0.04726977354 3.456343938e-19 0.005273808954 -2.114243974e-19 0.0003845716852)
(-0.002163018789 -0.04324348646 1.145952297e-19 0.001783637784 -3.936632308e-19 0.0003793810054)
(0.001085941344 -0.03953616512 2.797071187e-20 -0.001454159655 -2.101072603e-19 0.0003682183107)
(0.004108986588 -0.03615516712 -8.62495487e-20 -0.00445932766 -6.91166985e-20 0.0003503410725)
(0.00691450703 -0.03310494713 1.400396091e-19 -0.007239449578 4.728765504e-20 0.0003249425482)
(0.009511624204 -0.03040015304 2.778300499e-19 -0.009802678404 -1.634948519e-19 0.0002910541996)
(0.01189811395 -0.02805166901 -8.86164393e-20 -0.01214573135 -1.059832695e-22 0.0002476173989)
(0.01407334751 -0.026083527 -3.080345383e-20 -0.01426673202 -6.967258202e-22 0.0001933845074)