/*--------------------------------*- C++ -*----------------------------------*\
| =========                 |                                                 |
| \\      /  F ield         | foam-extend: Open Source CFD                    |
|  \\    /   O peration     | Version:  3.0                                   |
|   \\  /    A nd           | Web:         http://www.extend-project.de       |
|    \\/     M anipulation  |                                                 |
\*---------------------------------------------------------------------------*/
FoamFile
{
    version     2.0;
    format      ascii;
    class       volScalarField;
    location    "4.9";
    object      p;
}
// * * * * * * * * * * * * * * * * * * * * * * * * * * * * * * * * * * * * * //

dimensions      [0 0 0 0 0 0 0];

internalField   nonuniform List<scalar> 
400
(
1.12463
0.912172
0.901067
0.826933
0.881264
0.856409
0.932496
0.928038
1.01175
1.01501
1.10104
1.10374
1.1876
1.18064
1.25411
1.22355
1.26927
1.18896
1.16675
0.96259
1.35939
1.18551
1.15195
1.05936
1.0799
1.02435
1.0632
1.02376
1.06789
1.03356
1.07754
1.041
1.0811
1.03556
1.06638
1.00275
1.01209
0.914413
0.871554
0.709008
1.23896
1.08048
1.06313
0.988183
1.02266
0.982674
1.0353
1.00946
1.0686
1.04716
1.10906
1.08597
1.14791
1.11696
1.17237
1.12375
1.15611
1.07187
1.04575
0.894566
1.23837
1.09367
1.07288
1.00392
1.03008
0.991367
1.03102
1.00337
1.04616
1.02192
1.06613
1.04138
1.08688
1.05706
1.0999
1.05548
1.08014
1.00073
0.968704
0.821663
1.14315
0.984793
0.984572
0.926654
0.973317
0.949653
1.00878
0.996192
1.06046
1.05117
1.1219
1.11263
1.19188
1.17813
1.26218
1.23181
1.30079
1.22318
1.22197
1.03124
1.10172
0.939285
0.943181
0.894149
0.937512
0.921171
0.96935
0.96178
1.00986
1.00535
1.05741
1.05519
1.1169
1.11448
1.187
1.17159
1.23921
1.16981
1.17103
0.941272
1.04466
0.878488
0.897682
0.859443
0.914722
0.909586
0.969409
0.971897
1.03547
1.04035
1.11522
1.12276
1.21779
1.22639
1.34506
1.34034
1.46443
1.39314
1.43932
1.14217
0.984184
0.839352
0.859593
0.83389
0.879903
0.881573
0.925118
0.931703
0.973172
0.982055
1.03
1.04426
1.10995
1.13101
1.22303
1.23776
1.34534
1.29173
1.33252
1.00698
0.939033
0.829963
0.854881
0.844554
0.887888
0.897726
0.941214
0.952689
1.00016
1.012
1.07451
1.09121
1.18351
1.20856
1.34365
1.3654
1.53423
1.48453
1.58851
1.21988
0.855778
0.804004
0.82835
0.83477
0.864531
0.879488
0.903157
0.91578
0.936473
0.948516
0.975732
0.994628
1.04261
1.07613
1.16032
1.20229
1.32213
1.30645
1.37991
1.04295
0.809765
0.826568
0.845704
0.872572
0.888882
0.911053
0.926026
0.940032
0.958432
0.967871
1.00044
1.01438
1.07894
1.10834
1.22748
1.2719
1.45489
1.45458
1.62083
1.29588
0.708809
0.797913
0.823965
0.86956
0.876505
0.902753
0.90001
0.912457
0.903755
0.908993
0.902096
0.911913
0.92082
0.951232
0.995618
1.05666
1.14979
1.20033
1.29072
1.08521
0.669677
0.834673
0.847405
0.916179
0.906172
0.940261
0.925368
0.937291
0.920866
0.919353
0.909521
0.907935
0.922024
0.939884
1.00729
1.06437
1.21986
1.29728
1.52305
1.39741
0.572291
0.797614
0.832095
0.917865
0.908166
0.945299
0.918185
0.926305
0.886237
0.876735
0.829059
0.817113
0.772648
0.782045
0.76064
0.824717
0.853181
0.989149
1.0715
1.15877
0.56074
0.84486
0.859387
0.967617
0.942905
0.988058
0.948831
0.954978
0.904345
0.885492
0.828625
0.800822
0.750394
0.739566
0.725213
0.776033
0.856861
1.02459
1.28627
1.52279
0.508119
0.821921
0.869779
0.98834
0.970365
1.01553
0.96829
0.968247
0.899204
0.870041
0.782396
0.740049
0.638474
0.609839
0.509215
0.550437
0.486119
0.698772
0.736447
1.25496
0.554948
0.889542
0.914358
1.04964
1.01975
1.06993
1.01113
1.00702
0.926475
0.887161
0.787166
0.727776
0.611671
0.557705
0.445224
0.460752
0.41976
0.653078
0.878279
1.59907
0.617578
0.934025
0.984331
1.11542
1.08703
1.12976
1.06294
1.04964
0.956528
0.906787
0.787504
0.713298
0.563042
0.485093
0.307821
0.291196
0.121897
0.349774
0.29375
1.27823
0.765664
1.04191
1.07151
1.2048
1.16372
1.2029
1.1239
1.10345
0.999894
0.941187
0.810715
0.722349
0.554971
0.451371
0.246526
0.190541
-0.00507582
0.204418
0.232951
1.40521
1.05177
1.22632
1.23947
1.3402
1.28209
1.29866
1.2097
1.1755
1.06745
0.999883
0.866421
0.766886
0.59161
0.462546
0.233717
0.117878
-0.140668
-0.0450924
-0.228179
0.927626
)
;

boundaryField
{
    cavity
    {
        type            implicitExtrapolation;
    }
    lid
    {
        type            implicitExtrapolation;
    }
    frontAndBack
    {
        type            empty;
    }
}


// ************************************************************************* //
