/*--------------------------------*- C++ -*----------------------------------*\
| =========                 |                                                 |
| \\      /  F ield         | foam-extend: Open Source CFD                    |
|  \\    /   O peration     | Version:  3.0                                   |
|   \\  /    A nd           | Web:         http://www.extend-project.de       |
|    \\/     M anipulation  |                                                 |
\*---------------------------------------------------------------------------*/
FoamFile
{
    version     2.0;
    format      ascii;
    class       volVectorField;
    location    "4.9";
    object      u;
}
// * * * * * * * * * * * * * * * * * * * * * * * * * * * * * * * * * * * * * //

dimensions      [0 0 0 0 0 0 0];

internalField   nonuniform List<vector> 
400
(
(-0.323411 0.871754 1.34521e-315)
(-0.517573 0.651114 1.20176e-315)
(-0.959922 0.709266 1.04162e-315)
(-1.17712 0.554485 9.54859e-316)
(-1.46534 0.543137 7.99402e-316)
(-1.64929 0.449051 7.53503e-316)
(-1.83254 0.409572 6.07858e-316)
(-1.95824 0.324651 5.87877e-316)
(-2.0498 0.280322 4.54565e-316)
(-2.10987 0.187124 4.51307e-316)
(-2.1093 0.136815 3.29826e-316)
(-2.0928 0.035351 3.37694e-316)
(-1.99814 -0.0249383 2.26819e-316)
(-1.88831 -0.12807 2.40775e-316)
(-1.70071 -0.18968 1.41679e-316)
(-1.48925 -0.294881 1.54151e-316)
(-1.2078 -0.315827 7.31011e-317)
(-0.929313 -0.458325 7.17722e-317)
(-0.52718 -0.380108 1.78038e-317)
(-0.279895 -0.572792 -1.7626e-317)
(-0.0454962 0.511705 6.80043e-316)
(-0.343888 0.410703 6.77446e-316)
(-0.516413 0.391587 6.29578e-316)
(-0.712419 0.297082 6.13507e-316)
(-0.893164 0.247996 5.51207e-316)
(-1.01984 0.172125 5.3122e-316)
(-1.15216 0.108405 4.62693e-316)
(-1.22805 0.0446442 4.42415e-316)
(-1.29282 -0.0263799 3.72899e-316)
(-1.32225 -0.083045 3.54595e-316)
(-1.31574 -0.165864 2.87359e-316)
(-1.29601 -0.217795 2.72139e-316)
(-1.22112 -0.317958 2.08951e-316)
(-1.14438 -0.366245 1.96081e-316)
(-1.01176 -0.477926 1.38165e-316)
(-0.865485 -0.524885 1.23497e-316)
(-0.703928 -0.617679 7.19481e-317)
(-0.468049 -0.669702 4.50957e-317)
(-0.345493 -0.693243 -2.00982e-318)
(-0.00208752 -0.747399 -6.25107e-317)
(-0.0694479 1.40647 5.52112e-316)
(-0.395975 1.3294 5.63107e-316)
(-0.578692 1.23035 5.30996e-316)
(-0.795823 1.09962 5.13294e-316)
(-0.976711 0.978848 4.61895e-316)
(-1.115 0.81899 4.38202e-316)
(-1.25017 0.697523 3.80242e-316)
(-1.34192 0.517436 3.57519e-316)
(-1.40966 0.397134 2.99308e-316)
(-1.46653 0.203877 2.79081e-316)
(-1.45833 0.073286 2.22868e-316)
(-1.47304 -0.122938 2.04875e-316)
(-1.38851 -0.275361 1.51024e-316)
(-1.33684 -0.456386 1.33828e-316)
(-1.18839 -0.628813 8.27479e-317)
(-1.03057 -0.767445 6.38352e-317)
(-0.858335 -0.92911 1.81104e-317)
(-0.548653 -0.999197 -3.45463e-318)
(-0.437135 -1.08646 -3.72568e-317)
(0.0228921 -1.0807 -4.69739e-317)
(-0.0583523 1.20309 8.24358e-317)
(-0.261689 1.17817 1.95248e-316)
(-0.411686 0.998634 2.38819e-316)
(-0.508129 0.905533 2.7947e-316)
(-0.649581 0.736501 2.83519e-316)
(-0.68641 0.595229 2.89249e-316)
(-0.786618 0.457254 2.71775e-316)
(-0.806412 0.295013 2.61164e-316)
(-0.854348 0.166397 2.33336e-316)
(-0.876489 -0.00195192 2.16099e-316)
(-0.869753 -0.152834 1.8469e-316)
(-0.895888 -0.317274 1.66117e-316)
(-0.833562 -0.520209 1.35346e-316)
(-0.847629 -0.662428 1.18744e-316)
(-0.73345 -0.933477 9.19489e-317)
(-0.694593 -1.0143 8.03055e-317)
(-0.553916 -1.33049 6.12893e-317)
(-0.392111 -1.29038 5.92623e-317)
(-0.300298 -1.53086 5.3472e-317)
(0.030982 -1.34659 7.08705e-317)
(-0.189882 1.80328 1.96208e-316)
(-0.300948 1.78262 2.49736e-316)
(-0.597463 1.53657 2.64166e-316)
(-0.634589 1.40163 2.72404e-316)
(-0.848556 1.19624 2.63379e-316)
(-0.872309 0.986301 2.54816e-316)
(-1.00605 0.838224 2.33941e-316)
(-1.05011 0.593138 2.18524e-316)
(-1.10921 0.472373 1.92204e-316)
(-1.18326 0.21136 1.73558e-316)
(-1.1696 0.0816877 1.44618e-316)
(-1.26556 -0.183092 1.23859e-316)
(-1.17413 -0.357885 9.294e-317)
(-1.26355 -0.60199 6.92214e-317)
(-1.08705 -0.854049 3.54633e-317)
(-1.11166 -1.02033 5.62142e-318)
(-0.858399 -1.35754 -3.30769e-317)
(-0.726478 -1.34994 -7.48471e-317)
(-0.452348 -1.67155 -1.22388e-316)
(-0.0965882 -1.44046 -1.84487e-316)
(-0.302672 1.84416 -7.97191e-317)
(-0.182725 1.72222 2.84857e-317)
(-0.560449 1.44476 8.53803e-317)
(-0.417259 1.2487 1.32656e-316)
(-0.638837 1.05769 1.53549e-316)
(-0.534884 0.813999 1.67129e-316)
(-0.655129 0.697303 1.66265e-316)
(-0.61136 0.438914 1.62226e-316)
(-0.662729 0.344283 1.49712e-316)
(-0.687022 0.0817353 1.3739e-316)
(-0.681403 -0.0452056 1.19749e-316)
(-0.776575 -0.310612 1.04589e-316)
(-0.704784 -0.525804 8.60896e-317)
(-0.865174 -0.778293 7.19083e-317)
(-0.697904 -1.13612 5.59437e-317)
(-0.895749 -1.31535 4.66367e-317)
(-0.593658 -1.8357 3.66178e-317)
(-0.757391 -1.8184 3.69863e-317)
(-0.296508 -2.34749 3.65487e-317)
(-0.309467 -2.04725 4.95974e-317)
(-0.453735 2.37388 1.41008e-316)
(-0.160446 2.08173 1.62818e-316)
(-0.701578 1.80617 1.72218e-316)
(-0.466489 1.48425 1.74234e-316)
(-0.759987 1.32485 1.7177e-316)
(-0.643202 0.994563 1.65528e-316)
(-0.788911 0.917933 1.55336e-316)
(-0.784482 0.59259 1.44194e-316)
(-0.838904 0.552048 1.29229e-316)
(-0.938601 0.225725 1.14619e-316)
(-0.92164 0.177906 9.64575e-317)
(-1.12156 -0.163258 7.89009e-317)
(-1.01848 -0.265916 5.77461e-317)
(-1.30877 -0.622133 3.62192e-317)
(-1.06796 -0.839343 1.05216e-317)
(-1.41179 -1.16488 -1.89514e-317)
(-0.948085 -1.55666 -5.31487e-317)
(-1.2517 -1.73376 -9.89807e-317)
(-0.472407 -2.24718 -1.49068e-316)
(-0.567983 -2.18961 -2.25031e-316)
(-0.495306 2.55771 -5.38287e-317)
(-0.0268975 2.01796 1.5049e-317)
(-0.597221 1.80556 5.55463e-317)
(-0.233092 1.3255 8.9278e-317)
(-0.51461 1.26755 1.05876e-316)
(-0.298991 0.854433 1.15962e-316)
(-0.424468 0.863839 1.16726e-316)
(-0.334453 0.501057 1.1341e-316)
(-0.380917 0.523309 1.05165e-316)
(-0.405733 0.179106 9.5224e-317)
(-0.401478 0.165127 8.27492e-317)
(-0.550406 -0.19935 7.03404e-317)
(-0.476978 -0.311971 5.69516e-317)
(-0.775502 -0.723539 4.52449e-317)
(-0.55695 -1.01982 3.38639e-317)
(-1.03603 -1.45636 2.64984e-317)
(-0.523714 -2.02152 2.01974e-317)
(-1.18194 -2.36627 2.16186e-317)
(-0.165248 -3.13155 2.32963e-317)
(-0.841572 -3.23295 3.33237e-317)
(-0.52053 2.93465 1.76268e-316)
(0.0399776 2.18388 1.60422e-316)
(-0.563767 2.02257 1.53194e-316)
(-0.184905 1.3861 1.42362e-316)
(-0.47202 1.38942 1.35361e-316)
(-0.296087 0.890271 1.26266e-316)
(-0.410763 0.950747 1.17216e-316)
(-0.391465 0.541342 1.07062e-316)
(-0.42301 0.624738 9.56519e-317)
(-0.542996 0.245608 8.35716e-317)
(-0.525139 0.329372 7.00494e-317)
(-0.797859 -0.084839 5.58839e-317)
(-0.707154 -0.0321585 4.01382e-317)
(-1.16365 -0.544575 2.28423e-317)
(-0.900288 -0.578491 3.39585e-318)
(-1.56382 -1.22162 -2.09288e-317)
(-0.921858 -1.43737 -4.79759e-317)
(-1.7431 -2.15691 -8.83172e-317)
(-0.41883 -2.66674 -1.30787e-316)
(-1.11693 -3.31283 -2.0229e-316)
(-0.387256 3.05755 4.09084e-318)
(0.125481 2.06726 4.2683e-317)
(-0.33151 2.03966 6.58087e-317)
(0.0430342 1.23396 8.58297e-317)
(-0.156765 1.38223 9.40019e-317)
(0.0600378 0.792739 9.80076e-317)
(-0.00437237 0.960687 9.58767e-317)
(0.0914248 0.513802 9.0817e-317)
(0.0781789 0.67693 8.28822e-317)
(0.0655751 0.283292 7.35731e-317)
(0.0686755 0.424641 6.30862e-317)
(-0.0723904 -0.0138345 5.24794e-317)
(-0.0318153 0.0622904 4.19099e-317)
(-0.358205 -0.526802 3.26221e-317)
(-0.173855 -0.607418 2.47202e-317)
(-0.787462 -1.43426 2.07327e-317)
(-0.214664 -1.82962 1.95506e-317)
(-1.23747 -2.87643 2.74841e-317)
(0.12104 -3.75574 3.85536e-317)
(-1.21176 -4.78462 6.41418e-317)
(-0.246324 3.1897 2.08619e-316)
(0.208176 2.12278 1.70446e-316)
(-0.107611 2.09963 1.52024e-316)
(0.156412 1.21047 1.3305e-316)
(0.0395665 1.37123 1.21409e-316)
(0.14897 0.74013 1.09523e-316)
(0.140634 0.920905 9.93706e-317)
(0.13801 0.462775 8.89536e-317)
(0.159895 0.6526 7.84326e-317)
(0.0453943 0.259136 6.76055e-317)
(0.0623028 0.46652 5.63507e-317)
(-0.203127 0.0170935 4.4753e-317)
(-0.16998 0.244378 3.26757e-317)
(-0.662016 -0.407629 1.96181e-317)
(-0.495162 -0.175837 5.92017e-318)
(-1.31254 -1.1969 -1.13894e-317)
(-0.719252 -1.04024 -2.9161e-317)
(-1.89275 -2.52006 -5.74055e-317)
(-0.353849 -2.75993 -8.43492e-317)
(-1.5051 -4.42206 -1.30804e-316)
(-0.0132389 3.09972 4.06082e-317)
(0.174278 1.94321 6.96975e-317)
(0.16179 2.08603 8.27332e-317)
(0.327729 1.09774 9.46503e-317)
(0.369016 1.38507 9.56199e-317)
(0.487071 0.697456 9.41755e-317)
(0.555424 0.965897 8.83978e-317)
(0.626441 0.493203 8.09998e-317)
(0.676521 0.756751 7.21088e-317)
(0.69668 0.369701 6.26211e-317)
(0.701438 0.647597 5.28504e-317)
(0.64727 0.196005 4.33427e-317)
(0.616242 0.479559 3.45162e-317)
(0.428385 -0.231124 2.72376e-317)
(0.44924 -0.00933492 2.21531e-317)
(-0.00043446 -1.22732 2.18033e-317)
(0.327675 -1.28185 2.59205e-317)
(-0.616717 -3.19543 4.32695e-317)
(0.502733 -4.06588 6.66409e-317)
(-1.08331 -6.43005 1.22119e-316)
(0.28498 3.05274 1.99778e-316)
(0.292776 1.96393 1.67001e-316)
(0.52128 1.96815 1.47429e-316)
(0.472602 1.02749 1.27951e-316)
(0.650636 1.23635 1.14334e-316)
(0.617399 0.580243 1.01222e-316)
(0.771975 0.806115 9.00957e-317)
(0.736598 0.364307 7.92915e-317)
(0.835119 0.601475 6.89827e-317)
(0.7625 0.248656 5.88289e-317)
(0.780661 0.52271 4.88764e-317)
(0.615446 0.105238 3.90832e-317)
(0.555014 0.447816 2.95505e-317)
(0.199295 -0.250155 1.98673e-317)
(0.135642 0.199923 1.05932e-317)
(-0.57025 -1.09142 -5.78432e-319)
(-0.353486 -0.533349 -1.08362e-317)
(-1.56172 -2.70457 -2.74347e-317)
(-0.356951 -2.44261 -4.13931e-317)
(-1.69064 -5.0176 -6.09358e-317)
(0.374188 2.64119 5.51747e-317)
(0.141938 1.75365 1.02985e-316)
(0.695564 1.9339 1.0839e-316)
(0.607848 0.987423 1.13747e-316)
(0.961453 1.25903 1.06676e-316)
(0.95906 0.592642 9.90192e-317)
(1.19099 0.860991 8.88221e-317)
(1.23104 0.436356 7.84109e-317)
(1.35807 0.728214 6.77942e-317)
(1.42618 0.409307 5.73912e-317)
(1.44091 0.760249 4.74061e-317)
(1.52918 0.375489 3.81072e-317)
(1.41635 0.812423 2.99124e-317)
(1.50642 0.106854 2.34911e-317)
(1.27209 0.616395 1.95842e-317)
(1.30192 -0.828087 2.09666e-317)
(1.06651 -0.455688 2.71715e-317)
(0.823575 -3.1691 4.95917e-317)
(0.928854 -3.88523 7.78342e-317)
(-0.117656 -7.98244 1.50205e-316)
(0.926833 2.64748 1.43781e-316)
(0.301628 1.71009 1.44378e-316)
(1.09131 1.61576 1.30827e-316)
(0.705752 0.823595 1.157e-316)
(1.17901 0.972958 1.03028e-316)
(1.01899 0.408181 9.06487e-317)
(1.33252 0.60566 8.00802e-317)
(1.27954 0.245198 7.00029e-317)
(1.45283 0.465565 6.06747e-317)
(1.44493 0.201245 5.17225e-317)
(1.47239 0.465842 4.32717e-317)
(1.46316 0.148388 3.52587e-317)
(1.31637 0.496266 2.7864e-317)
(1.22628 -0.109225 2.08359e-317)
(0.879288 0.39016 1.44993e-317)
(0.5333 -0.909192 7.1645e-318)
(0.12774 -0.157867 2.58312e-319)
(-0.79983 -2.61793 -1.18492e-317)
(-0.431281 -1.81121 -2.39569e-317)
(-1.89665 -4.57042 -4.22138e-317)
(0.518081 1.77672 1.75962e-316)
(0.210315 1.63222 2.09103e-316)
(1.22256 1.628 1.82315e-316)
(1.0406 0.912662 1.62508e-316)
(1.68084 1.01905 1.38651e-316)
(1.60175 0.471915 1.18931e-316)
(1.97881 0.661665 1.01124e-316)
(1.99297 0.341572 8.52901e-317)
(2.18819 0.598613 7.10023e-317)
(2.30577 0.388549 5.78708e-317)
(2.34538 0.73669 4.5841e-317)
(2.59392 0.482012 3.49021e-317)
(2.43974 0.972006 2.53265e-317)
(2.87184 0.416361 1.76627e-317)
(2.40194 1.10596 1.25598e-317)
(3.11065 -0.287973 1.27666e-317)
(2.12085 0.513314 1.74958e-317)
(3.18546 -2.73553 3.84194e-317)
(1.40132 -2.99529 6.35094e-317)
(2.23824 -9.43992 1.2766e-316)
(1.55507 2.11606 5.34988e-317)
(0.222358 1.23435 6.75702e-317)
(1.29948 1.06108 6.89014e-317)
(0.728517 0.520142 6.40368e-317)
(1.31618 0.599351 6.09638e-317)
(1.1192 0.21161 5.60059e-317)
(1.49515 0.347689 5.18774e-317)
(1.44666 0.112554 4.72733e-317)
(1.65184 0.267671 4.28366e-317)
(1.69029 0.112925 3.83876e-317)
(1.73277 0.297122 3.41537e-317)
(1.83995 0.115726 3.02285e-317)
(1.6707 0.35208 2.67591e-317)
(1.81554 -0.0370687 2.35754e-317)
(1.30858 0.291821 2.06298e-317)
(1.36412 -0.665349 1.62632e-317)
(0.45521 -0.146004 1.03178e-317)
(-0.0915712 -2.12567 -4.0385e-318)
(-0.498389 -1.22748 -2.29065e-317)
(-2.8184 -2.41356 -6.52904e-317)
(0.311476 0.679823 6.91959e-316)
(0.715913 1.76739 5.00213e-316)
(2.1319 1.27487 3.74931e-316)
(2.08105 0.876031 2.83308e-316)
(3.04203 0.746646 2.24497e-316)
(2.90614 0.342168 1.80228e-316)
(3.42159 0.436743 1.46932e-316)
(3.39764 0.230673 1.19124e-316)
(3.65252 0.42889 9.53465e-317)
(3.82403 0.327179 7.40439e-317)
(3.91523 0.624979 5.47605e-317)
(4.36161 0.511299 3.71609e-317)
(4.25462 0.965999 2.14229e-317)
(5.10856 0.635988 8.04066e-318)
(4.54378 1.36413 -2.17882e-318)
(6.07618 0.249881 -6.48951e-318)
(4.28779 1.4146 -5.17334e-318)
(7.12481 -2.08186 1.2434e-317)
(2.22239 -1.16875 3.486e-317)
(7.12463 -11.1315 8.67985e-317)
(2.04258 1.42545 -3.14728e-316)
(0.0425517 0.181374 -2.32424e-316)
(0.555905 0.260067 -1.58035e-316)
(0.0817165 -0.00389857 -1.09506e-316)
(0.241916 0.114739 -7.62012e-317)
(0.156153 -0.0091355 -5.33901e-317)
(0.317891 0.0594911 -3.62613e-317)
(0.303306 -0.0175768 -2.30538e-317)
(0.411113 0.025875 -1.21674e-317)
(0.405331 -0.0258284 -2.87808e-318)
(0.427887 0.00436517 5.41003e-318)
(0.412326 -0.0518167 1.30349e-317)
(0.30865 -0.0411654 2.0103e-317)
(0.259633 -0.151234 2.64123e-317)
(-0.0436127 -0.197372 3.13324e-317)
(-0.214556 -0.434896 3.27029e-317)
(-0.656881 -0.647818 2.92346e-317)
(-1.55151 -0.870298 1.14672e-317)
(-0.685087 -1.19356 -1.45106e-317)
(-6.04501 2.64257 -8.08632e-317)
(-0.351139 -0.446883 1.86032e-315)
(2.04275 2.50468 1.08282e-315)
(4.7059 1.19099 7.67813e-316)
(4.75208 0.996479 5.5007e-316)
(6.57384 0.66467 4.33829e-316)
(6.20522 0.27578 3.47416e-316)
(7.07024 0.330395 2.84303e-316)
(6.93033 0.163671 2.30839e-316)
(7.34542 0.350039 1.84521e-316)
(7.63964 0.301833 1.42434e-316)
(7.87656 0.592546 1.03819e-316)
(8.78026 0.556727 6.81319e-317)
(8.8564 1.00872 3.57633e-317)
(10.6425 0.807526 7.42083e-318)
(10.1501 1.565 -1.53208e-317)
(13.2989 0.582136 -2.91236e-317)
(10.529 2.07862 -3.33907e-317)
(16.1446 -1.96721 -1.74898e-317)
(5.31131 1.37298 3.62572e-318)
(16.6864 -14.1144 4.7793e-317)
)
;

boundaryField
{
    cavity
    {
        type            myImplicitVelocity;
    }
    lid
    {
        type            fixedValue;
        value           uniform (1 0 0);
    }
    frontAndBack
    {
        type            empty;
    }
}


// ************************************************************************* //
