/*--------------------------------*- C++ -*----------------------------------*\
| =========                 |                                                 |
| \\      /  F ield         | foam-extend: Open Source CFD                    |
|  \\    /   O peration     | Version:  3.0                                   |
|   \\  /    A nd           | Web:         http://www.extend-project.de       |
|    \\/     M anipulation  |                                                 |
\*---------------------------------------------------------------------------*/
FoamFile
{
    version     2.0;
    format      ascii;
    class       volSymmTensorField;
    location    "2";
    object      sigma;
}
// * * * * * * * * * * * * * * * * * * * * * * * * * * * * * * * * * * * * * //

dimensions      [0 0 0 0 0 0 0];

internalField   nonuniform List<symmTensor> 
480
(
(-0.175417 -0.011903 1.22705e-20 0.178768 -1.1384e-20 -0.00335162)
(-0.159824 -0.0150424 8.04211e-20 0.167757 -4.96587e-20 -0.00793332)
(-0.140292 -0.0154247 6.2816e-20 0.151596 1.85115e-19 -0.0113033)
(-0.122375 -0.0147722 -1.27178e-19 0.135935 1.52532e-19 -0.0135599)
(-0.107653 -0.0136828 3.6834e-20 0.12243 -1.59397e-19 -0.0147772)
(-0.096491 -0.0123744 2.84054e-19 0.111316 -3.84827e-20 -0.0148246)
(-0.0883989 -0.0107842 2.98667e-19 0.10218 -1.13706e-19 -0.0137814)
(-0.0832021 -0.00895862 -2.37974e-20 0.0946538 1.59866e-20 -0.0114518)
(-0.0797564 -0.00670052 3.57156e-19 0.0876957 -4.57702e-19 -0.0079393)
(-0.07771 -0.00420786 8.61212e-20 0.0807913 -1.17752e-19 -0.00308132)
(-0.170902 -0.0374404 -9.60255e-21 0.174163 -1.6424e-20 -0.0032614)
(-0.152729 -0.042881 1.45743e-19 0.160447 -1.26261e-19 -0.00771858)
(-0.132694 -0.0416877 3.35108e-19 0.143691 -1.97154e-19 -0.0109969)
(-0.115023 -0.0382983 -5.90974e-20 0.128215 -1.49652e-19 -0.0131915)
(-0.100791 -0.0343039 -2.69612e-19 0.115166 -1.64014e-19 -0.0143747)
(-0.0901165 -0.030365 1.45412e-19 0.104534 3.76506e-20 -0.0144178)
(-0.0824699 -0.0265417 2.46042e-19 0.0958689 -1.32476e-19 -0.013399)
(-0.0775874 -0.0230911 1.43807e-19 0.0887141 -8.72942e-20 -0.0111267)
(-0.0743852 -0.0198844 -5.21292e-19 0.0820911 -3.25661e-19 -0.00770589)
(-0.0724068 -0.0174756 6.89481e-20 0.0753921 2.10799e-19 -0.00298534)
(-0.161937 -0.0612249 -6.39108e-20 0.165063 -5.38896e-20 -0.00312601)
(-0.139373 -0.0674025 -1.80125e-20 0.146774 -2.75229e-19 -0.00740051)
(-0.118615 -0.0642494 1.42765e-20 0.129164 -2.36812e-19 -0.0105487)
(-0.101523 -0.058195 -1.43495e-19 0.114185 -2.35155e-20 -0.0126615)
(-0.0882692 -0.051543 -2.0459e-19 0.102076 3.66417e-19 -0.013807)
(-0.0785396 -0.0452608 3.38964e-19 0.0923969 1.67144e-19 -0.0138573)
(-0.0717225 -0.0394907 6.38695e-20 0.0846074 1.00847e-20 -0.0128849)
(-0.067483 -0.0346969 -1.06834e-19 0.078183 -8.47669e-20 -0.0107)
(-0.0649286 -0.0307287 -2.18161e-19 0.0723329 4.87113e-19 -0.00740431)
(-0.0640322 -0.0284805 6.26161e-19 0.0668926 -3.69775e-19 -0.00286038)
(-0.149271 -0.0823151 -1.76033e-19 0.152219 -2.45975e-20 -0.00294818)
(-0.121284 -0.0869404 -4.43044e-19 0.128268 2.29192e-19 -0.00698324)
(-0.0997778 -0.0812879 2.97827e-20 0.109742 3.38043e-19 -0.00996456)
(-0.083581 -0.0727 2.46635e-19 0.0955574 2.9577e-19 -0.0119764)
(-0.0717056 -0.0637932 7.89163e-20 0.0847869 4.27028e-19 -0.0130813)
(-0.0632825 -0.0556452 1.21675e-19 0.0764339 -5.59105e-20 -0.0131514)
(-0.0576102 -0.0484055 2.01831e-19 0.069861 -2.76938e-20 -0.0122508)
(-0.0541879 -0.0425992 3.48608e-19 0.0643771 3.77629e-20 -0.0101892)
(-0.0525119 -0.0379027 3.18368e-19 0.0595723 -4.45334e-19 -0.00706038)
(-0.0513443 -0.0362875 -9.22216e-19 0.0540722 1.27888e-19 -0.00272792)
(-0.133919 -0.100091 3.57298e-20 0.136645 -3.05593e-20 -0.0027266)
(-0.100474 -0.100501 -3.59059e-19 0.106939 5.82045e-19 -0.00646534)
(-0.0784772 -0.091726 -2.70957e-19 0.087718 6.2289e-19 -0.00924083)
(-0.0635276 -0.080761 -1.68523e-20 0.074657 4.47885e-19 -0.0111294)
(-0.0534226 -0.0700583 4.31582e-19 0.0656088 -5.89061e-20 -0.0121862)
(-0.0467297 -0.0605645 3.23964e-20 0.0590127 -3.93206e-19 -0.012283)
(-0.0426198 -0.0523688 4.16551e-19 0.0540921 -6.98639e-19 -0.0114722)
(-0.0402712 -0.0457332 -1.79645e-19 0.0498339 -4.94986e-19 -0.00956268)
(-0.0392645 -0.0401273 -3.93543e-19 0.0459012 -4.5655e-19 -0.00663669)
(-0.0367718 -0.0364758 5.96509e-19 0.0393324 2.24546e-19 -0.0025606)
(-0.116917 -0.114356 8.50509e-20 0.119381 1.70679e-19 -0.00246393)
(-0.0790897 -0.10789 3.72166e-19 0.0849405 3.94638e-19 -0.0058508)
(-0.0571455 -0.0953557 3.37724e-19 0.0655275 3.25409e-19 -0.00838207)
(-0.0437661 -0.0821087 2.20502e-19 0.0538906 -1.02464e-20 -0.0101244)
(-0.0356653 -0.0699251 -6.58376e-21 0.0467898 -6.41078e-19 -0.0111245)
(-0.0309374 -0.0593757 -4.69101e-19 0.0421921 -9.03502e-19 -0.0112546)
(-0.0285981 -0.05046 -1.15926e-18 0.0391516 -3.73813e-19 -0.0105535)
(-0.0275914 -0.043256 1.53594e-19 0.0364204 -2.69257e-19 -0.00882896)
(-0.0272946 -0.0373412 -1.09689e-18 0.0334427 -1.79108e-19 -0.00614806)
(-0.0256802 -0.032565 2.9348e-19 0.0280552 -2.8738e-19 -0.00237498)
(-0.0992449 -0.125276 -3.27073e-20 0.101406 2.45283e-19 -0.00216094)
(-0.0591335 -0.109721 6.40266e-19 0.0642747 4.23307e-20 -0.00514128)
(-0.0380367 -0.092932 8.90644e-19 0.0454251 -2.8957e-19 -0.00738838)
(-0.0264718 -0.0775299 7.27488e-19 0.0354299 -7.37252e-19 -0.00895812)
(-0.0203588 -0.0641811 -3.04137e-19 0.0302463 -8.21121e-19 -0.00988752)
(-0.0174727 -0.0528891 -8.72383e-19 0.0275234 -4.39032e-19 -0.0100507)
(-0.0167599 -0.0435119 -1.10256e-18 0.0262303 2.66459e-19 -0.00947042)
(-0.0170652 -0.0360637 -5.67119e-19 0.0250207 -2.63461e-19 -0.00795554)
(-0.0177624 -0.0303227 -1.40145e-18 0.0233177 2.93953e-19 -0.0055553)
(-0.0164005 -0.0264371 7.76786e-20 0.0185433 -1.12817e-19 -0.0021428)
(-0.0816132 -0.133307 1.00029e-19 0.0834328 -1.64645e-20 -0.00181958)
(-0.0421667 -0.107283 2.99035e-19 0.0465072 -2.22494e-19 -0.00434045)
(-0.022954 -0.0860053 2.46653e-19 0.0292172 -4.03848e-19 -0.00626327)
(-0.0134679 -0.068639 -2.67236e-20 0.0211001 -4.60451e-19 -0.00763214)
(-0.00927353 -0.0544641 -5.54668e-19 0.0177478 -1.56241e-19 -0.00847425)
(-0.00804139 -0.0427926 -5.05555e-19 0.0167094 1.03638e-19 -0.00866796)
(-0.00872412 -0.0332942 -3.54293e-19 0.0169442 1.30022e-19 -0.00822007)
(-0.0101295 -0.0257572 -4.4258e-19 0.017073 1.53962e-19 -0.00694347)
(-0.0118354 -0.0201096 -1.6716e-20 0.0167037 -1.01754e-19 -0.00486829)
(-0.0106959 -0.0159809 -1.15415e-18 0.0125719 9.84206e-20 -0.00187601)
(-0.0644704 -0.139055 -2.85709e-20 0.0659137 -6.73512e-20 -0.00144331)
(-0.0291136 -0.102288 -2.53739e-19 0.0325684 -1.55549e-19 -0.00345485)
(-0.0129683 -0.0766216 -4.63567e-19 0.0179822 -8.72437e-20 -0.00501391)
(-0.00584537 -0.0575105 -3.4573e-19 0.0119977 1.00285e-19 -0.00615229)
(-0.00348183 -0.0427497 9.50309e-20 0.0103693 7.83593e-20 -0.00688744)
(-0.00371449 -0.030918 -2.67153e-19 0.0108202 3.24883e-20 -0.00710569)
(-0.00558091 -0.0214753 -1.77699e-19 0.0123804 3.66319e-20 -0.00679953)
(-0.00802673 -0.0138829 -1.90005e-19 0.0138176 1.68117e-19 -0.00579084)
(-0.0107559 -0.00830764 7.34816e-20 0.0148466 -5.75156e-20 -0.00409064)
(-0.010528 -0.00311664 -4.8777e-19 0.0121084 2.32707e-19 -0.00158033)
(-0.0479101 -0.143111 -4.11518e-20 0.0489443 -4.76484e-20 -0.0010342)
(-0.0201297 -0.0965928 -1.20758e-19 0.0226195 -1.64411e-19 -0.00248986)
(-0.00826304 -0.0670357 -6.7254e-19 0.0119092 -1.80843e-20 -0.00364614)
(-0.00380993 -0.0464761 -5.79232e-19 0.00833204 1.65609e-19 -0.00452212)
(-0.00321368 -0.0313329 -3.17338e-19 0.00833936 2.09973e-19 -0.00512567)
(-0.00474427 -0.0195241 8.81967e-20 0.0100994 1.18509e-19 -0.00535517)
(-0.00758669 -0.0102611 -2.08938e-19 0.0127775 1.01208e-19 -0.00519083)
(-0.0110446 -0.0026514 1.41713e-19 0.0155148 3.08522e-19 -0.00447017)
(-0.0147765 0.00311972 7.30826e-19 0.0179638 2.08888e-20 -0.00318731)
(-0.0165689 0.00980302 -9.38252e-21 0.0177995 -6.51045e-20 -0.00123059)
(-0.0317996 -0.145963 -3.9212e-20 0.0323984 -3.03756e-20 -0.000598796)
(-0.0146464 -0.0918865 -5.97781e-20 0.0161049 -1.07583e-19 -0.00145849)
(-0.00816062 -0.0593164 -3.15354e-19 0.0103376 -8.62588e-21 -0.00217694)
(-0.00670984 -0.0376478 -1.93178e-19 0.00947004 1.16365e-19 -0.0027602)
(-0.00791819 -0.0222213 -1.7802e-19 0.0111254 1.00818e-19 -0.00320718)
(-0.0106924 -0.010467 -3.40023e-19 0.0141251 6.30608e-20 -0.00343273)
(-0.0143965 -0.00133201 -3.29533e-19 0.0178042 1.58448e-19 -0.00340767)
(-0.0186634 0.00626427 -1.4708e-20 0.0216568 2.84681e-19 -0.00299342)
(-0.022912 0.012328 5.12001e-19 0.0250824 6.54568e-20 -0.0021704)
(-0.026323 0.0188453 -1.27869e-20 0.0271621 -3.17867e-20 -0.00083915)
(-0.0158022 -0.14785 -5.28956e-20 0.0159427 -1.44594e-20 -0.000140458)
(-0.0114582 -0.0894122 -8.84679e-20 0.0118286 -7.37312e-20 -0.000370441)
(-0.0111751 -0.0550312 -2.10692e-19 0.0117943 -1.62649e-20 -0.000619162)
(-0.0129981 -0.0326386 -2.88115e-19 0.0138777 9.92452e-20 -0.000879599)
(-0.0160637 -0.0169493 -2.66088e-19 0.0172057 8.82789e-20 -0.00114194)
(-0.0200288 -0.00514494 -2.57296e-19 0.0213709 7.58083e-20 -0.00134211)
(-0.0245062 0.00402837 -8.24222e-20 0.0259505 1.44018e-19 -0.00144439)
(-0.0293517 0.0116526 -2.84279e-20 0.0306955 2.34132e-19 -0.00134385)
(-0.0337979 0.0179548 3.89815e-19 0.0348109 1.12803e-19 -0.00101292)
(-0.0372675 0.0244655 1.92528e-19 0.0376518 -3.63126e-20 -0.000384279)
(0.000455743 -0.148797 -4.71601e-20 -0.000787123 -5.55436e-22 0.00033138)
(-0.00897756 -0.0898074 -1.53753e-19 0.00822304 -6.08179e-20 0.000754527)
(-0.0153198 -0.055055 -8.77533e-20 0.0143203 -2.74436e-20 0.000999522)
(-0.0206006 -0.0324048 -2.19036e-19 0.0195142 9.59611e-20 0.00108644)
(-0.0255972 -0.0165064 -3.22321e-19 0.0245643 8.95226e-20 0.00103287)
(-0.030722 -0.00455707 -1.976e-19 0.0298446 5.98402e-20 0.000877442)
(-0.035875 0.00480122 1.00176e-19 0.0352164 9.85865e-20 0.000658604)
(-0.0411016 0.0125656 -8.80552e-20 0.0406632 1.68465e-19 0.000438327)
(-0.0456594 0.0191089 1.99626e-19 0.045413 1.03217e-19 0.000246405)
(-0.0493848 0.0252197 2.1932e-19 0.0492761 -2.83086e-20 0.000108669)
(0.0172888 -0.148549 -6.29966e-20 -0.0181 1.84117e-20 0.000811204)
(-0.00550805 -0.0929675 -2.0394e-19 0.00360737 -5.15792e-20 0.00190069)
(-0.0184266 -0.059363 4.82588e-20 0.0157706 -4.92622e-20 0.00265599)
(-0.027244 -0.0369725 4.39716e-20 0.0241344 9.79705e-20 0.00310962)
(-0.0342981 -0.0209769 -4.52806e-19 0.0310121 7.85285e-20 0.00328602)
(-0.0406804 -0.00887672 -2.30735e-19 0.0374863 3.24422e-20 0.00319405)
(-0.0465874 0.000635275 -1.33065e-19 0.0437162 3.9195e-20 0.0028712)
(-0.0521576 0.00838929 2.95842e-19 0.049829 1.1178e-19 0.00232863)
(-0.0567805 0.0149542 -3.52794e-19 0.0551873 3.59029e-20 0.00159327)
(-0.0602309 0.0204107 5.22253e-20 0.0595917 1.20186e-20 0.000639206)
(0.0348523 -0.146712 -1.50451e-20 -0.0361399 5.98576e-20 0.00128761)
(0.000467279 -0.0981113 -2.60048e-19 -0.00351037 -2.84013e-21 0.00304309)
(-0.0184882 -0.0670912 -3.5025e-19 0.0141739 -9.77618e-20 0.00431428)
(-0.0307962 -0.0454978 -2.14811e-19 0.0256507 -1.39343e-21 0.00514548)
(-0.0400806 -0.0295605 -3.14504e-19 0.0345139 4.43057e-20 0.00556673)
(-0.0479848 -0.0172993 -3.39676e-22 0.0424313 3.33266e-20 0.00555355)
(-0.0549729 -0.00758901 -8.23225e-20 0.0498339 4.62701e-20 0.00513902)
(-0.061136 0.000256663 2.47004e-20 0.056859 3.00489e-20 0.00427708)
(-0.0657899 0.00682431 -1.91086e-19 0.062801 -4.13288e-20 0.00298888)
(-0.0676614 0.0119503 4.22276e-19 0.0664699 2.61508e-20 0.00119156)
(0.0530585 -0.142778 -2.68538e-20 -0.0548115 8.02561e-20 0.00175296)
(0.0100035 -0.103876 -4.14747e-19 -0.0141642 -1.76764e-20 0.00416065)
(-0.0140124 -0.0766116 -6.43087e-20 0.00807035 -1.11146e-19 0.00594207)
(-0.0296035 -0.0563026 2.11034e-19 0.0224515 -3.19662e-20 0.00715208)
(-0.0412206 -0.0405807 2.82551e-19 0.0333959 2.16832e-19 0.00782472)
(-0.0508577 -0.0281321 -1.64671e-19 0.0429585 1.62389e-19 0.0078992)
(-0.0591688 -0.0181443 -1.8607e-19 0.0517685 -7.42969e-20 0.00740028)
(-0.0662524 -0.0102344 1.16602e-19 0.0600309 -1.25827e-19 0.00622148)
(-0.0712877 -0.00400697 1.66188e-19 0.0669119 2.96121e-20 0.00437581)
(-0.0737348 0.00112969 -7.10191e-19 0.0720008 9.02684e-20 0.00173393)
(0.0716062 -0.136292 6.76775e-20 -0.0738014 -2.49907e-20 0.00219517)
(0.0235396 -0.108574 3.27699e-19 -0.0287656 1.64658e-19 0.00522606)
(-0.0042238 -0.0858593 2.91121e-19 -0.00327586 1.80763e-19 0.00749965)
(-0.0227061 -0.0672988 1.85847e-19 0.0136257 1.24838e-19 0.00908039)
(-0.0366074 -0.0520854 1.89803e-19 0.0266021 1.75514e-19 0.0100053)
(-0.0480271 -0.0396292 -4.36559e-19 0.0378508 2.26957e-19 0.0101762)
(-0.0577907 -0.0294608 -7.27106e-19 0.0481836 -3.35161e-19 0.00960709)
(-0.0660783 -0.0216325 -3.01937e-19 0.0579498 1.57399e-19 0.00812852)
(-0.0722364 -0.0159055 -1.39593e-18 0.0664936 -5.88939e-19 0.00574284)
(-0.0756295 -0.0129013 9.07206e-19 0.0733571 5.89653e-20 0.00227243)
(0.0899664 -0.126908 -8.14406e-20 -0.0925719 -3.20876e-19 0.00260549)
(0.0407513 -0.11045 6.04679e-19 -0.046967 -1.24556e-19 0.00621568)
(0.0106676 -0.0926291 6.78793e-19 -0.0196178 1.07961e-19 0.00895015)
(-0.010264 -0.0762326 5.10649e-19 -0.000617551 4.48102e-19 0.0108815)
(-0.0264051 -0.0619632 -4.40946e-19 0.0143562 3.3316e-19 0.0120488)
(-0.039697 -0.0498956 -8.45919e-19 0.0273806 4.87338e-19 0.0123164)
(-0.0510528 -0.039882 -1.52638e-18 0.0393667 -8.88629e-20 0.0116861)
(-0.060557 -0.0322179 -9.15327e-20 0.050631 -1.89484e-19 0.009926)
(-0.0679761 -0.0266795 -1.23553e-18 0.0609493 1.46096e-19 0.00702676)
(-0.0714275 -0.0245567 -4.08423e-19 0.0686582 -5.36861e-19 0.00276937)
(0.107495 -0.114452 1.77954e-21 -0.110468 -1.99565e-19 0.00297241)
(0.060629 -0.107932 5.55624e-20 -0.067732 -4.81976e-19 0.00710296)
(0.0295815 -0.0948424 -5.48577e-20 -0.0398361 -5.8519e-19 0.0102546)
(0.00666737 -0.0808759 -1.64137e-19 -0.0191745 -2.39588e-19 0.0125072)
(-0.0116129 -0.0679649 -6.37159e-19 -0.0022885 2.68813e-19 0.0139014)
(-0.0268281 -0.056689 -4.94841e-19 0.0125611 3.64911e-19 0.014267)
(-0.0398523 -0.047191 1.71554e-19 0.0262576 7.17647e-19 0.0135947)
(-0.0506244 -0.0397481 -4.3203e-19 0.0390319 3.39053e-19 0.0115926)
(-0.0593375 -0.0343467 -4.62697e-19 0.0510992 9.14744e-19 0.00823832)
(-0.0627582 -0.0314559 -5.53135e-19 0.0595069 -6.32506e-19 0.00325128)
(0.123489 -0.0989675 -1.08267e-20 -0.126777 3.80118e-20 0.00328772)
(0.0815938 -0.0999248 -5.81144e-19 -0.0894596 -3.47582e-19 0.00786578)
(0.0506846 -0.0909934 -9.49829e-19 -0.0620626 -7.45288e-19 0.011378)
(0.0262249 -0.0796186 -6.62379e-19 -0.0401348 -6.62667e-19 0.0139099)
(0.0059435 -0.0685223 1.05382e-19 -0.0214469 1.39396e-19 0.0155034)
(-0.0112389 -0.0585872 5.19494e-19 -0.00471767 3.06428e-19 0.0159565)
(-0.0260113 -0.0501373 5.44896e-19 0.0107616 4.21376e-19 0.0152497)
(-0.0382862 -0.0431459 3.78614e-19 0.0252495 3.14213e-19 0.0130367)
(-0.0482375 -0.037601 5.00374e-19 0.0389531 1.1175e-18 0.00928441)
(-0.0525973 -0.0319555 -1.0003e-18 0.0489366 1.24223e-19 0.0036607)
(0.137259 -0.0806888 -1.68684e-19 -0.140801 4.99177e-20 0.0035417)
(0.101707 -0.0859511 -6.07554e-19 -0.110189 1.3949e-19 0.00848156)
(0.0716302 -0.0802814 -6.66976e-19 -0.0839169 -1.50273e-19 0.0122867)
(0.0459678 -0.0714794 1.94084e-19 -0.0610148 -2.88922e-19 0.015047)
(0.0238215 -0.0624835 8.20459e-19 -0.0406262 -5.36738e-20 0.0168047)
(0.00465091 -0.0542704 2.91308e-19 -0.0219824 2.83996e-19 0.0173314)
(-0.0118824 -0.0472142 2.14745e-19 -0.00471574 -6.42391e-20 0.0165981)
(-0.0255646 -0.0411752 6.33263e-19 0.0113511 2.20149e-19 0.0142135)
(-0.0360676 -0.0360341 4.02619e-19 0.0259317 4.18677e-19 0.0101359)
(-0.0423917 -0.0308523 2.60117e-19 0.0383981 7.228e-19 0.00399359)
(0.148225 -0.0600386 -3.19652e-20 -0.151954 1.31364e-19 0.0037286)
(0.118989 -0.0662862 -2.04316e-19 -0.127924 5.30092e-19 0.00893432)
(0.0900236 -0.0628619 -3.65292e-19 -0.102979 6.00346e-19 0.0129556)
(0.0635114 -0.0564944 1.1324e-19 -0.0793961 3.17873e-19 0.0158847)
(0.0398506 -0.0497459 2.61823e-19 -0.0576147 -2.88792e-19 0.0177641)
(0.0190158 -0.0434801 4.09857e-19 -0.0373597 -3.06443e-19 0.0183439)
(0.000993228 -0.0380457 1.44013e-19 -0.018581 -2.52156e-19 0.0175878)
(-0.0137611 -0.0334382 1.10812e-18 -0.00130967 -3.56241e-19 0.0150708)
(-0.02453 -0.0295499 9.80443e-19 0.0137831 6.63688e-20 0.0107468)
(-0.0298039 -0.0261657 -1.06939e-19 0.0255764 1.90534e-19 0.00422745)
(0.155913 -0.0375902 2.0438e-20 -0.159754 8.56994e-20 0.00384152)
(0.131632 -0.041949 -9.43848e-21 -0.140841 2.65347e-19 0.00920853)
(0.103623 -0.0398821 4.82097e-20 -0.116984 5.66927e-19 0.0133611)
(0.0765597 -0.0358414 2.6151e-19 -0.0929524 3.40711e-19 0.0163926)
(0.0518502 -0.0315279 2.72262e-20 -0.070195 1.48882e-19 0.0183448)
(0.0298919 -0.0275103 -2.56326e-19 -0.0488459 -1.51535e-19 0.018954)
(0.0109225 -0.0240256 1.83466e-19 -0.0291011 4.90043e-20 0.0181785)
(-0.00443594 -0.021085 6.58174e-19 -0.0111376 -3.58012e-19 0.0155736)
(-0.0154835 -0.0186672 5.94399e-19 0.00438997 -4.18481e-19 0.0110935)
(-0.0206458 -0.0165806 4.32893e-20 0.0162939 7.62759e-20 0.00435191)
(0.160017 -0.013988 2.69476e-20 -0.163896 2.57855e-20 0.00387866)
(0.138289 -0.0145481 3.52021e-20 -0.147587 3.50131e-20 0.00929801)
(0.110734 -0.0132374 -2.29804e-20 -0.124228 2.59752e-19 0.0134939)
(0.0833336 -0.0114431 -2.51502e-20 -0.0998931 4.99895e-21 0.0165595)
(0.0580265 -0.00969603 1.00546e-19 -0.0765631 -1.04002e-19 0.0185366)
(0.0354264 -0.00817478 2.24657e-19 -0.0545816 1.75718e-19 0.0191551)
(0.015903 -0.0069795 3.4645e-19 -0.0342763 2.96923e-19 0.0183733)
(0.000136652 -0.00611189 3.99033e-19 -0.0158749 -1.12918e-19 0.0157382)
(-0.0111669 -0.00557049 6.30948e-19 -4.14493e-05 -2.7796e-19 0.0112084)
(-0.016685 -0.00498838 5.69276e-20 0.0122885 1.2563e-19 0.00439648)
(0.160367 0.0100467 1.83841e-20 -0.164204 -1.01306e-20 0.00383674)
(0.138235 0.0138916 9.98302e-20 -0.147431 -4.962e-20 0.00919631)
(0.110448 0.0146189 7.30717e-20 -0.123792 2.08621e-19 0.0133438)
(0.082889 0.0141709 -1.42335e-19 -0.0992598 1.69107e-19 0.0163708)
(0.05745 0.0132959 6.64011e-20 -0.0757689 -2.14297e-19 0.0183188)
(0.034711 0.0122528 3.84758e-19 -0.053631 -6.17471e-20 0.01892)
(0.0150285 0.0111126 3.42751e-19 -0.0331636 -1.66406e-19 0.0181352)
(-0.000930065 0.0098932 -2.51925e-20 -0.0145878 3.88904e-20 0.0155179)
(-0.01239 0.00852851 4.78294e-19 0.001356 -7.28021e-19 0.011034)
(-0.0178999 0.00706836 4.09684e-20 0.0135856 -2.06806e-19 0.0043143)
(0.156942 0.0338146 -5.83018e-21 -0.16066 -2.04926e-20 0.0037184)
(0.131478 0.0412339 1.72213e-19 -0.140386 -1.40708e-19 0.00890825)
(0.102779 0.041095 3.67509e-19 -0.115698 -2.25053e-19 0.0129188)
(0.0752377 0.0383428 -9.71547e-20 -0.0910762 -1.84709e-19 0.0158385)
(0.0501383 0.0348835 -3.01807e-19 -0.0678485 -2.02729e-19 0.0177102)
(0.0277971 0.0313681 1.93841e-19 -0.0460732 3.72865e-20 0.0182762)
(0.00842883 0.0280293 3.43787e-19 -0.0259336 -2.02112e-19 0.0175048)
(-0.00743332 0.0248611 4.68681e-20 -0.0075345 -1.48024e-19 0.0149678)
(-0.018973 0.0217417 -6.412e-19 0.0083325 -5.33105e-19 0.0106405)
(-0.0248982 0.0189962 1.36866e-19 0.0207358 2.92581e-19 0.00416243)
(0.149871 0.0565844 -6.67411e-20 -0.153396 -6.21133e-20 0.0035245)
(0.118765 0.0654677 -1.02651e-20 -0.127203 -3.00899e-19 0.00843758)
(0.0886941 0.0637593 2.16821e-20 -0.100918 -2.6649e-19 0.0122235)
(0.0614186 0.0585556 -1.79037e-19 -0.0763854 -3.01334e-20 0.0149667)
(0.0371566 0.0525768 -2.2619e-19 -0.0538666 4.55562e-19 0.01671)
(0.0157833 0.0467414 3.76962e-19 -0.0329972 2.08008e-19 0.0172138)
(-0.00277205 0.041425 3.63461e-20 -0.0136843 -4.47265e-21 0.0164563)
(-0.0182194 0.0365598 -2.25577e-19 0.00417704 -1.78342e-19 0.0140423)
(-0.0299269 0.0321105 -2.22348e-19 0.0199661 6.79229e-19 0.0099608)
(-0.036807 0.0276839 6.68673e-19 0.0329228 -4.84352e-19 0.0038842)
(0.139414 0.0777041 -1.8779e-19 -0.142676 -2.72831e-20 0.00326162)
(0.10145 0.0850049 -4.56497e-19 -0.109249 2.42995e-19 0.00779917)
(0.0698938 0.080738 4.4955e-20 -0.0811753 3.68513e-19 0.0112815)
(0.0431634 0.0728948 2.67761e-19 -0.056951 3.34796e-19 0.0137875)
(0.0201296 0.0644989 6.132e-20 -0.0354904 5.05123e-19 0.0153607)
(0.000143552 0.0565636 1.09332e-19 -0.0159296 -7.47248e-20 0.015786)
(-0.0172068 0.0495416 1.95536e-19 0.00215185 -5.00344e-20 0.0150549)
(-0.0317536 0.0433548 3.72193e-19 0.0189374 4.45828e-21 0.0128162)
(-0.0432203 0.0381352 1.68525e-19 0.0341447 -6.13415e-19 0.00907566)
(-0.0498211 0.0324617 -9.05677e-19 0.0462811 2.25152e-20 0.00353999)
(0.126012 0.0965688 2.58963e-20 -0.128946 -2.57474e-20 0.00293494)
(0.0813459 0.0988696 -3.75819e-19 -0.088353 6.13746e-19 0.00700708)
(0.0486519 0.0909889 -2.71614e-19 -0.0587654 6.62176e-19 0.0101135)
(0.0228324 0.0803764 1.12354e-20 -0.0351586 4.73264e-19 0.0123263)
(0.00136989 0.0697612 4.69565e-19 -0.0150581 -9.26997e-20 0.0136882)
(-0.0169016 0.0600399 1.05919e-20 0.00288721 -4.81539e-19 0.0140144)
(-0.0326999 0.0515899 4.10876e-19 0.0193903 -8.47886e-19 0.0133096)
(-0.0458839 0.0444565 -3.44106e-19 0.0346061 -7.23519e-19 0.0112778)
(-0.0566779 0.0387865 -3.4244e-19 0.0487331 -6.61307e-19 0.0079448)
(-0.0619299 0.0333398 5.26989e-19 0.0588461 3.9207e-19 0.00308379)
(0.110204 0.11272 8.05784e-20 -0.112758 1.79826e-19 0.00255372)
(0.0604447 0.106807 3.76592e-19 -0.0665281 4.11624e-19 0.00608348)
(0.027421 0.0943806 3.57724e-19 -0.0361747 3.28056e-19 0.00875377)
(0.00292478 0.0809413 2.55961e-19 -0.0135536 -4.83044e-20 0.0106288)
(-0.0167753 0.0683383 1.00478e-20 0.00502458 -7.30406e-19 0.0117507)
(-0.0333245 0.0571321 -5.34513e-19 0.0213554 -1.03892e-18 0.011969)
(-0.0476263 0.0475028 -1.24868e-18 0.0363231 -4.2589e-19 0.0113031)
(-0.0595782 0.0398652 7.27879e-20 0.0500589 -3.49658e-19 0.0095193)
(-0.0692962 0.0343774 -1.26457e-18 0.0626338 -8.65627e-20 0.00666245)
(-0.0726291 0.0319319 3.32542e-19 0.0700548 -2.92606e-19 0.00257427)
(0.0926747 0.125851 -3.39923e-20 -0.0948016 2.53488e-19 0.00212689)
(0.0406615 0.109309 6.46698e-19 -0.0457125 5.52827e-20 0.005051)
(0.00850241 0.0917707 8.9925e-19 -0.0157391 -2.95943e-19 0.00723669)
(-0.0142146 0.075668 7.44249e-19 0.00547522 -7.92974e-19 0.0087394)
(-0.0320502 0.0615406 -3.0295e-19 0.0224499 -9.01587e-19 0.00960033)
(-0.0469995 0.0494038 -9.20028e-19 0.0372923 -5.23912e-19 0.00970716)
(-0.059933 0.0391155 -1.17395e-18 0.0508385 2.43615e-19 0.00909457)
(-0.0708015 0.0310583 -6.00218e-19 0.0632064 -2.85173e-19 0.00759511)
(-0.0790737 0.0252363 -1.43657e-18 0.0738017 3.26448e-19 0.005272)
(-0.083794 0.0231606 -2.66029e-20 0.0817674 -9.1296e-20 0.00202661)
(0.0741212 0.13585 1.05028e-19 -0.075786 -9.15858e-21 0.0016648)
(0.0235743 0.107485 3.05619e-19 -0.0275094 -1.98117e-19 0.00393516)
(-0.00622774 0.0847301 2.24585e-19 0.000627024 -3.8068e-19 0.00560071)
(-0.0265759 0.0662793 -6.6651e-20 0.0198686 -5.00427e-19 0.00670734)
(-0.0423061 0.0511226 -5.48872e-19 0.0350114 -2.76093e-19 0.00729461)
(-0.0555446 0.0385843 -5.0207e-19 0.0482543 -1.65867e-20 0.00729033)
(-0.0670949 0.0281238 -3.56834e-19 0.0603506 6.01737e-20 0.0067443)
(-0.0769482 0.0196283 -4.44339e-19 0.0713911 5.31676e-20 0.00555709)
(-0.0842132 0.0128157 5.78445e-20 0.0804049 -8.13776e-20 0.00380827)
(-0.0878386 0.00777204 -1.15358e-18 0.0863879 3.95702e-20 0.00145066)
(0.0552521 0.142815 -1.70134e-20 -0.056431 -6.23187e-20 0.00117887)
(0.010174 0.102872 -2.2767e-19 -0.0129377 -1.33979e-19 0.00276371)
(-0.0157418 0.0752755 -4.69502e-19 0.0118537 -7.95197e-20 0.00388807)
(-0.0331822 0.0548375 -3.88263e-19 0.0285947 4.23419e-21 0.00458743)
(-0.0466405 0.0389531 7.64191e-20 0.0417411 -6.61636e-20 0.00489939)
(-0.0581045 0.0262176 -2.34996e-19 0.0533127 -3.39528e-20 0.00479187)
(-0.0682402 0.0157094 -2.08916e-19 0.0639115 -5.99574e-21 0.00432871)
(-0.0770304 0.00698359 -1.59049e-19 0.0735532 2.59123e-20 0.00347716)
(-0.083749 -0.000434098 2.3108e-19 0.0814194 -1.5004e-19 0.00232967)
(-0.0868745 -0.00663747 -3.68234e-19 0.0859949 1.40634e-19 0.000879519)
(0.0366323 0.147037 -2.42653e-20 -0.0373113 -5.15063e-20 0.000679025)
(0.000740703 0.0972265 -6.89012e-20 -0.0023025 -1.61363e-19 0.0015618)
(-0.0199361 0.0656616 -6.18527e-19 0.0178005 -2.42897e-20 0.00213558)
(-0.0340618 0.0437173 -5.58782e-19 0.0316373 9.79058e-20 0.00242458)
(-0.0452245 0.0273857 -3.90562e-19 0.0427624 1.1919e-19 0.00246205)
(-0.0550568 0.0146011 8.09896e-21 0.0528025 6.94831e-20 0.00225427)
(-0.0640161 0.0041076 -2.95413e-19 0.0621417 5.72404e-20 0.00187431)
(-0.072132 -0.0047533 1.79345e-20 0.0707768 4.25048e-20 0.00135519)
(-0.0787399 -0.0126862 7.43199e-19 0.0779394 -8.19892e-20 0.000800447)
(-0.0824252 -0.0190998 2.38349e-20 0.0821557 1.34986e-20 0.000269485)
(0.0186704 0.148983 -2.6174e-20 -0.018848 -3.91409e-20 0.000177547)
(-0.00516112 0.0922232 -2.57193e-20 0.00480279 -1.20933e-19 0.000358325)
(-0.0196016 0.0579426 -2.5579e-19 0.0192142 -3.95425e-20 0.000387342)
(-0.0301564 0.0350084 -1.58328e-19 0.0298797 6.08368e-20 0.000276745)
(-0.0390593 0.0184124 -1.75445e-19 0.0390044 9.25366e-20 5.48771e-05)
(-0.0474055 0.00559321 -3.88299e-19 0.0476424 1.00618e-19 -0.000236925)
(-0.0553823 -0.00488041 -3.18339e-19 0.0559011 9.35062e-20 -0.000518873)
(-0.0631621 -0.0138057 -1.18118e-19 0.06386 6.60536e-20 -0.000697907)
(-0.0700356 -0.0218843 4.01598e-19 0.0706982 -5.41696e-20 -0.000662542)
(-0.0755086 -0.0284554 3.24583e-20 0.0758078 -3.15554e-20 -0.000299266)
(0.00150776 0.149154 -4.61963e-20 -0.0011907 -2.26215e-20 -0.000317065)
(-0.00861659 0.0891985 -7.67871e-20 0.00944123 -8.83463e-20 -0.00082464)
(-0.0163191 0.0537076 -1.80306e-19 0.017644 -2.73968e-20 -0.0013249)
(-0.0232547 0.03034 -2.95443e-19 0.0250729 8.51802e-20 -0.0018182)
(-0.0300421 0.0136339 -2.9752e-19 0.0323255 5.78856e-20 -0.0022834)
(-0.0370932 0.000757567 -2.1664e-19 0.039741 1.0971e-20 -0.00264772)
(-0.0442598 -0.00970058 1.71689e-20 0.0470895 7.13353e-20 -0.00282974)
(-0.0516962 -0.0186772 -4.71901e-20 0.0543775 1.02388e-19 -0.0026813)
(-0.0585135 -0.0265924 3.00542e-19 0.0605995 -3.24999e-20 -0.00208595)
(-0.0647288 -0.0343045 2.41441e-19 0.0655954 1.91349e-20 -0.00086665)
(-0.0149431 0.148042 -4.59188e-20 0.0157365 -6.82452e-21 -0.000793476)
(-0.0111337 0.0889422 -1.53737e-19 0.0130949 -8.06645e-20 -0.0019612)
(-0.0121044 0.0538221 -6.2979e-20 0.0150664 -3.73691e-20 -0.00296203)
(-0.0154987 0.0305844 -2.03007e-19 0.0193078 1.13039e-19 -0.00380907)
(-0.0202798 0.0139207 -3.78707e-19 0.0247683 6.19304e-20 -0.00448854)
(-0.026099 0.000996627 -2.20522e-19 0.031 -3.89472e-20 -0.00490097)
(-0.0324995 -0.00943434 5.3837e-20 0.0374655 5.9419e-20 -0.00496605)
(-0.0394225 -0.0184223 -6.72793e-20 0.0439137 1.81245e-19 -0.00449117)
(-0.0459097 -0.0260295 -7.44333e-20 0.0492707 -1.81371e-20 -0.00336099)
(-0.0514163 -0.034028 1.41062e-19 0.0527772 1.9515e-20 -0.00136088)
(-0.0309674 0.145941 -6.70631e-20 0.0322127 1.46602e-20 -0.00124523)
(-0.0144022 0.0915246 -2.18176e-19 0.0174365 -7.80441e-20 -0.00303435)
(-0.00913592 0.0582358 2.54014e-20 0.0136361 -8.0561e-20 -0.00450022)
(-0.00918771 0.0356263 1.49134e-20 0.0148562 1.38679e-19 -0.00566844)
(-0.0120283 0.0191048 -4.94773e-19 0.0185624 1.13901e-19 -0.00653412)
(-0.0165463 0.0061182 -2.32557e-19 0.0235219 -1.0883e-20 -0.00697564)
(-0.0220186 -0.00430883 -2.05012e-19 0.0289372 -5.20101e-20 -0.00691861)
(-0.0280685 -0.0132213 2.4447e-19 0.0342036 2.24502e-19 -0.00613508)
(-0.0339069 -0.0204234 -5.84017e-19 0.0384239 1.72289e-19 -0.00451699)
(-0.0382828 -0.0288433 1.28617e-19 0.0401004 -4.95192e-20 -0.00181763)
(-0.0469597 0.142944 -2.25979e-20 0.0486231 6.29882e-20 -0.00166344)
(-0.0199991 0.0963224 -2.85178e-19 0.0240237 -1.02947e-20 -0.00402466)
(-0.00937898 0.0660734 -3.80191e-19 0.0152904 -1.04863e-19 -0.00591137)
(-0.00636396 0.0445271 -2.20669e-19 0.0137255 3.59375e-20 -0.00736156)
(-0.00728899 0.0282332 -2.27472e-19 0.0156683 6.85856e-20 -0.00837934)
(-0.0103809 0.0151299 4.5338e-20 0.0192073 4.50882e-21 -0.00882641)
(-0.0147143 0.00450899 -9.66969e-20 0.0233516 8.44726e-20 -0.00863732)
(-0.019491 -0.00451651 -7.53942e-20 0.0270506 1.63804e-19 -0.00755962)
(-0.0242742 -0.0115218 -2.61597e-20 0.0297727 -2.63286e-20 -0.00549842)
(-0.026333 -0.0198616 3.80656e-19 0.0285294 3.28258e-20 -0.00219648)
(-0.063274 0.138842 -2.9063e-20 0.065318 9.2207e-20 -0.00204396)
(-0.0290921 0.102063 -4.04413e-19 0.0340132 -5.91547e-21 -0.0049211)
(-0.0142518 0.0756909 -3.30663e-20 0.0214324 -1.25658e-19 -0.00718065)
(-0.00850364 0.0555578 2.57117e-19 0.017376 -4.78117e-20 -0.00887235)
(-0.00755936 0.0396156 3.70227e-19 0.0175697 2.44255e-19 -0.0100103)
(-0.0092276 0.0264641 -1.76966e-19 0.0196723 1.88566e-19 -0.0104447)
(-0.0124446 0.0156447 -2.00212e-19 0.022567 -5.04801e-20 -0.0101224)
(-0.0159538 0.00671492 1.03734e-19 0.0247297 -1.10721e-19 -0.00877583)
(-0.0192166 7.81254e-05 5.73642e-20 0.0255429 2.15939e-19 -0.00632631)
(-0.017184 -0.00638171 -8.42268e-19 0.0196982 3.2169e-20 -0.0025142)
(-0.0801404 0.133205 7.40052e-20 0.0825213 -1.43874e-20 -0.00238089)
(-0.0422516 0.107063 3.60894e-19 0.0479634 1.82069e-19 -0.00571181)
(-0.0244126 0.0850251 3.32367e-19 0.0327052 1.82858e-19 -0.00829264)
(-0.0162447 0.0666498 2.14721e-19 0.0264292 1.00824e-19 -0.0101845)
(-0.0133879 0.0513826 1.71522e-19 0.0247999 1.50916e-19 -0.011412)
(-0.0135139 0.0385493 -5.13376e-19 0.0253331 2.59693e-19 -0.0118191)
(-0.0154524 0.0278548 -8.5618e-19 0.026822 -3.2894e-19 -0.0113696)
(-0.0177546 0.0190957 -4.83794e-19 0.0275426 3.19088e-19 -0.00978799)
(-0.0194858 0.0123117 -1.61526e-18 0.0265012 -6.85289e-19 -0.00701536)
(-0.017199 0.00758883 1.04883e-18 0.0199812 1.19952e-19 -0.00278215)
(-0.0975033 0.125428 -7.25159e-20 0.100176 -3.16881e-19 -0.00267238)
(-0.0592723 0.109458 6.26861e-19 0.0656639 -1.25075e-19 -0.00639159)
(-0.0395532 0.0917975 6.90265e-19 0.0487939 9.47616e-20 -0.00924075)
(-0.0291573 0.0754183 4.85982e-19 0.0404486 4.23219e-19 -0.0112913)
(-0.0241579 0.0611424 -5.18708e-19 0.0367364 3.25342e-19 -0.0125784)
(-0.0223612 0.0489764 -9.71963e-19 0.0353054 5.60552e-19 -0.0129443)
(-0.0226739 0.038763 -1.60524e-18 0.0350455 -2.14738e-20 -0.0123716)
(-0.0237683 0.0302491 -1.447e-19 0.0343536 -1.26983e-19 -0.0105852)
(-0.0246889 0.0230992 -1.19265e-18 0.0322377 2.74877e-19 -0.00754884)
(-0.0220181 0.0166823 -4.19647e-19 0.0250044 -5.85461e-19 -0.0029863)