/*--------------------------------*- C++ -*----------------------------------*\
| =========                 |                                                 |
| \\      /  F ield         | foam-extend: Open Source CFD                    |
|  \\    /   O peration     | Version:  3.0                                   |
|   \\  /    A nd           | Web:         http://www.extend-project.de       |
|    \\/     M anipulation  |                                                 |
\*---------------------------------------------------------------------------*/
FoamFile
{
    version     2.0;
    format      ascii;
    class       volVectorField;
    location    "2";
    object      u;
}
// * * * * * * * * * * * * * * * * * * * * * * * * * * * * * * * * * * * * * //

dimensions      [0 0 0 0 0 0 0];

internalField   nonuniform List<vector> 
480
(
(0.292016 -0.132313 -4.5658e-19)
(0.55159 -0.0907476 1.26423e-18)
(0.72316 -0.0641172 -4.22832e-18)
(0.806734 -0.0447893 4.00879e-18)
(0.878495 -0.0308323 1.57379e-18)
(0.904269 -0.0200965 -1.94564e-18)
(0.945648 -0.0101276 -1.11926e-17)
(0.949012 -0.00446291 8.36473e-18)
(0.985306 0.00292928 -6.13121e-18)
(0.980256 0.00182926 -4.48349e-18)
(0.349569 -0.336532 1.18391e-18)
(0.589699 -0.225413 2.01826e-18)
(0.749534 -0.156632 -2.11949e-17)
(0.825574 -0.109992 -1.82564e-17)
(0.892391 -0.0786491 1.2147e-17)
(0.915408 -0.0577401 2.95506e-18)
(0.95454 -0.0405736 5.21958e-18)
(0.958183 -0.0336274 -1.61435e-17)
(0.993674 -0.0251294 1.82863e-17)
(0.989861 -0.0316312 3.38965e-18)
(0.458394 -0.51968 -3.54688e-18)
(0.662167 -0.34693 1.64341e-18)
(0.800235 -0.240936 1.23976e-17)
(0.862463 -0.170082 1.11857e-17)
(0.920057 -0.123514 2.16423e-17)
(0.937274 -0.0937822 -7.36481e-18)
(0.970616 -0.0702537 1.26372e-18)
(0.969803 -0.0615756 1.18753e-18)
(0.999831 -0.0472423 1.97292e-17)
(0.987701 -0.0507815 -3.54735e-17)
(0.610276 -0.667838 1.28469e-20)
(0.763122 -0.445088 3.64357e-17)
(0.87036 -0.308689 1.24057e-17)
(0.91255 -0.217755 -7.12126e-18)
(0.95637 -0.158208 -8.52306e-18)
(0.964346 -0.120312 -9.90071e-19)
(0.988339 -0.0901236 -7.42491e-19)
(0.982791 -0.080821 -4.92992e-18)
(1.00556 -0.0622284 -3.30314e-17)
(1.00902 -0.0990607 4.7068e-17)
(0.795841 -0.772246 -9.8164e-18)
(0.887241 -0.514893 6.05827e-18)
(0.957596 -0.357219 1.22191e-17)
(0.976383 -0.251459 1.45669e-17)
(1.00534 -0.18177 -1.6806e-17)
(1.00566 -0.135889 -2.08792e-18)
(1.02398 -0.0987128 -1.28536e-17)
(1.02152 -0.083872 -1.11328e-17)
(1.04056 -0.0618049 3.29787e-17)
(1.06537 -0.106878 -4.97995e-17)
(1.00154 -0.824668 1.16812e-17)
(1.02499 -0.550208 -1.95315e-17)
(1.05444 -0.382148 -2.1631e-17)
(1.04699 -0.269309 -2.14926e-17)
(1.05914 -0.195939 -3.94079e-18)
(1.04957 -0.147963 -7.44234e-18)
(1.06007 -0.111042 4.78429e-17)
(1.05405 -0.0944553 -2.32109e-17)
(1.06622 -0.0719855 2.24032e-17)
(1.07533 -0.0846029 -8.11648e-18)
(1.21433 -0.8225 1.18187e-17)
(1.16829 -0.549671 -1.27118e-17)
(1.15558 -0.382328 -2.3114e-17)
(1.12017 -0.269125 -3.02827e-17)
(1.1132 -0.19587 -5.66002e-19)
(1.09017 -0.147702 1.23358e-17)
(1.08836 -0.112245 8.0517e-18)
(1.0743 -0.098373 7.37605e-19)
(1.07962 -0.0799287 2.25889e-17)
(1.09105 -0.101796 -4.38778e-18)
(1.41879 -0.764881 -5.80725e-18)
(1.30657 -0.511705 -9.07811e-19)
(1.2538 -0.355942 6.51203e-18)
(1.192 -0.249352 9.50516e-18)
(1.1676 -0.180416 1.2839e-17)
(1.13308 -0.133882 2.49372e-18)
(1.12112 -0.100123 -7.6885e-18)
(1.10211 -0.0862779 7.12895e-18)
(1.09774 -0.068132 -2.48316e-17)
(1.1184 -0.0980284 3.8004e-17)
(1.60214 -0.65669 1.18836e-18)
(1.43182 -0.440183 9.41901e-18)
(1.34375 -0.306312 1.50209e-17)
(1.25809 -0.213128 6.77647e-18)
(1.21759 -0.152994 -1.22501e-17)
(1.17157 -0.110878 -6.20407e-20)
(1.14919 -0.0815678 -7.49073e-19)
(1.12489 -0.0677639 2.51508e-18)
(1.1106 -0.0531172 -1.90523e-18)
(1.14572 -0.0797669 6.92438e-18)
(1.75067 -0.504315 8.27567e-19)
(1.53416 -0.338237 -6.87513e-19)
(1.41809 -0.234509 1.082e-17)
(1.31337 -0.159997 8.15649e-18)
(1.26044 -0.111533 6.26236e-18)
(1.20543 -0.0746695 -6.93574e-18)
(1.17599 -0.0498764 1.5875e-18)
(1.14771 -0.0332221 -2.14889e-18)
(1.12788 -0.0242402 -1.23733e-17)
(1.16576 -0.0387986 2.09509e-18)
(1.85569 -0.318947 2.29962e-19)
(1.60838 -0.214162 -1.64935e-18)
(1.47377 -0.147432 2.12132e-18)
(1.35607 -0.0969659 -8.19583e-19)
(1.29512 -0.0643457 -6.59456e-19)
(1.23344 -0.0370904 3.14367e-18)
(1.19955 -0.0209916 3.41273e-18)
(1.164 -0.00579979 2.16016e-18)
(1.13724 -0.00374357 -5.48793e-18)
(1.13794 -0.00217165 2.45654e-18)
(1.90834 -0.112484 9.24605e-20)
(1.64721 -0.0750424 -1.34683e-18)
(1.50411 -0.0491685 1.73702e-18)
(1.3797 -0.025759 7.98095e-19)
(1.31436 -0.0110397 -7.84243e-19)
(1.24757 0.00404546 1.20489e-18)
(1.21051 0.00935882 6.91223e-19)
(1.1687 0.017684 1.22923e-18)
(1.13979 0.0104846 -4.01527e-18)
(1.12417 0.0110387 -5.87581e-19)
(1.90668 0.100612 7.05306e-20)
(1.65003 0.0689273 -1.41563e-18)
(1.50976 0.0528204 2.30816e-18)
(1.38624 0.0477371 1.46791e-18)
(1.32157 0.0439224 -1.40457e-18)
(1.2529 0.0458159 -5.98231e-20)
(1.2144 0.0410878 -1.13678e-19)
(1.16602 0.0429995 1.19087e-18)
(1.13189 0.0289778 -3.5509e-18)
(1.0955 0.0283199 -8.66532e-19)
(1.84896 0.305941 8.61279e-20)
(1.61435 0.208371 -1.99799e-18)
(1.48736 0.151934 3.76187e-18)
(1.37177 0.119061 4.18697e-18)
(1.31218 0.0971577 -3.58912e-18)
(1.24521 0.0856696 -5.8837e-19)
(1.20891 0.0714095 -1.28127e-18)
(1.15838 0.0659866 2.0888e-18)
(1.12658 0.0461719 -3.74393e-18)
(1.07108 0.0374323 1.66529e-18)
(1.7407 0.489647 1.95877e-18)
(1.54444 0.333732 -2.94939e-18)
(1.44088 0.241645 -7.26221e-18)
(1.34059 0.183424 -3.62126e-18)
(1.2911 0.144839 -6.27632e-18)
(1.23009 0.119171 3.00967e-18)
(1.19829 0.0935508 1.94845e-20)
(1.14759 0.0751766 -9.25605e-19)
(1.11378 0.0455344 -2.3056e-18)
(1.04142 0.0178154 1.13718e-17)
(1.58776 0.638669 1.49746e-18)
(1.44324 0.43589 -1.85574e-17)
(1.37106 0.314713 -6.98914e-18)
(1.29126 0.235389 5.45437e-18)
(1.25423 0.182715 8.36078e-18)
(1.20023 0.1452 3.99106e-19)
(1.17248 0.110608 -6.37824e-19)
(1.12414 0.0851395 2.52973e-18)
(1.09403 0.0493314 1.82585e-17)
(1.051 0.0282509 -2.54138e-17)
(1.40172 0.74346 7.95081e-18)
(1.31898 0.508475 2.30997e-18)
(1.28445 0.367718 -6.2779e-18)
(1.23017 0.27414 -9.0495e-18)
(1.20932 0.213418 1.27592e-17)
(1.16575 0.169759 3.23246e-20)
(1.14496 0.132814 2.38148e-18)
(1.09695 0.105783 7.26923e-18)
(1.06832 0.0652659 -3.05711e-17)
(1.00859 0.0380358 4.17446e-17)
(1.19454 0.795967 -1.28517e-17)
(1.17969 0.54515 2.16481e-17)
(1.18701 0.394215 2.30815e-17)
(1.16195 0.292394 2.39997e-17)
(1.16039 0.226453 -4.72118e-19)
(1.13107 0.177274 4.00894e-18)
(1.12143 0.137637 -5.26519e-17)
(1.07873 0.105574 2.09067e-17)
(1.0585 0.0643223 -1.93461e-17)
(0.97667 0.0198625 -1.30182e-18)
(0.980574 0.793146 -1.5771e-17)
(1.03476 0.543825 1.16601e-17)
(1.08437 0.393544 2.14009e-17)
(1.08919 0.290995 3.01934e-17)
(1.10686 0.225254 -5.35679e-18)
(1.0926 0.174806 -1.78793e-17)
(1.09392 0.136905 -1.11116e-18)
(1.06 0.10153 -2.33855e-18)
(1.0488 0.0649531 -2.0547e-17)
(0.962015 -0.010292 -3.71962e-18)
(0.774675 0.734623 7.01379e-18)
(0.895066 0.503908 -4.39667e-18)
(0.985893 0.364443 -2.24729e-17)
(1.02084 0.268308 -2.889e-17)
(1.05907 0.206403 -2.08277e-17)
(1.06325 0.156807 5.55964e-19)
(1.07871 0.11939 1.7765e-17)
(1.061 0.0784236 -9.72838e-18)
(1.05552 0.0404999 5.22208e-17)
(0.982707 -0.0580199 -6.99265e-17)
(0.590445 0.624346 -5.50369e-18)
(0.769057 0.427696 -2.0615e-17)
(0.895511 0.30834 -3.5147e-17)
(0.956051 0.224913 -1.74291e-17)
(1.01008 0.170246 3.33468e-17)
(1.02753 0.124793 4.77376e-18)
(1.05081 0.0895843 4.79169e-20)
(1.045 0.0532718 -1.0416e-18)
(1.04637 0.0219583 3.17303e-18)
(1.01905 -0.0228083 -4.1337e-18)
(0.441297 0.470273 -6.8311e-19)
(0.667002 0.321387 1.05222e-17)
(0.822565 0.231063 -2.28762e-17)
(0.90402 0.168003 -1.76764e-17)
(0.970891 0.126948 -1.8257e-17)
(0.998054 0.0930207 1.9812e-17)
(1.02583 0.0666694 -8.70826e-18)
(1.02199 0.0397945 4.9019e-18)
(1.02448 0.0121973 3.67491e-17)
(0.99709 -0.0208918 -5.12066e-18)
(0.336865 0.282094 1.36237e-18)
(0.595211 0.190706 1.16394e-17)
(0.770907 0.135176 6.24321e-18)
(0.867198 0.0963942 1.66578e-17)
(0.943641 0.0710807 1.10998e-17)
(0.979192 0.0503138 -1.66407e-17)
(1.01321 0.0347784 -1.2331e-17)
(1.01551 0.0193413 -9.66648e-18)
(1.02469 0.00517615 9.88212e-18)
(1.00007 -0.0174364 -1.06883e-17)
(0.284935 0.0738722 2.68526e-20)
(0.559632 0.0463937 4.6975e-18)
(0.745524 0.0299279 4.64249e-19)
(0.84925 0.0189718 -5.37821e-18)
(0.93044 0.0119519 6.76247e-19)
(0.970061 0.00640248 1.45346e-19)
(1.00694 0.00213128 7.68967e-18)
(1.01259 -0.0030222 -3.3149e-18)
(1.02463 -0.00848462 1.19748e-17)
(1.00597 -0.0212846 5.644e-18)
(0.288773 -0.141637 6.36725e-19)
(0.562492 -0.103634 -1.16507e-18)
(0.747977 -0.080263 5.04486e-18)
(0.851689 -0.0629594 -4.39935e-18)
(0.93305 -0.0516367 -2.09081e-18)
(0.972896 -0.0417119 2.49931e-18)
(1.00956 -0.0338945 1.61078e-17)
(1.01465 -0.0263933 -1.22913e-17)
(1.02537 -0.0185935 9.2111e-18)
(1.00529 -0.0107659 8.04702e-18)
(0.348233 -0.347976 -9.95571e-19)
(0.603638 -0.246883 -1.94217e-18)
(0.777915 -0.18498 2.39999e-17)
(0.873459 -0.140218 2.16641e-17)
(0.949568 -0.110691 -1.55504e-17)
(0.985104 -0.0851085 -4.39983e-18)
(1.01859 -0.0650038 -7.79098e-18)
(1.02179 -0.0456082 2.51624e-17)
(1.02949 -0.0273585 -2.83593e-17)
(1.01057 -0.0164219 -5.24715e-18)
(0.459506 -0.532808 3.70141e-18)
(0.680635 -0.37555 -2.07862e-18)
(0.834135 -0.279486 -1.36578e-17)
(0.914998 -0.210572 -1.29176e-17)
(0.982601 -0.165398 -2.63801e-17)
(1.01176 -0.126461 9.61591e-18)
(1.04207 -0.0965082 -2.02794e-18)
(1.04302 -0.0649745 -1.04979e-18)
(1.04629 -0.0362487 -3.01751e-17)
(1.02261 0.000969621 5.22718e-17)
(0.614405 -0.681657 -1.88056e-19)
(0.787153 -0.478891 -3.87249e-17)
(0.910879 -0.355484 -1.33269e-17)
(0.970014 -0.268005 8.53619e-18)
(1.02377 -0.211145 1.06821e-17)
(1.04085 -0.162823 1.80032e-18)
(1.06343 -0.126072 1.04606e-18)
(1.05569 -0.0848479 7.06801e-18)
(1.0538 -0.0487651 4.66e-17)
(1.01582 0.0242626 -6.7135e-17)
(0.803084 -0.785945 9.93855e-18)
(0.916698 -0.551246 -6.70134e-18)
(1.00409 -0.408585 -1.26264e-17)
(1.03691 -0.308179 -1.51088e-17)
(1.07431 -0.2429 1.98537e-17)
(1.07756 -0.188523 3.2667e-18)
(1.09273 -0.1475 1.47937e-17)
(1.07469 -0.102372 1.34823e-17)
(1.07106 -0.0647075 -4.78658e-17)
(0.999874 0.0304286 6.20142e-17)
(1.01158 -0.837035 -1.14841e-17)
(1.05902 -0.586502 1.99315e-17)
(1.10564 -0.434932 2.25714e-17)
(1.10889 -0.330129 2.25513e-17)
(1.12669 -0.262849 4.88203e-18)
(1.11207 -0.209914 8.2077e-18)
(1.1132 -0.169887 -5.33544e-17)
(1.07574 -0.129913 2.53077e-17)
(1.05937 -0.0858116 -2.73421e-17)
(0.950555 0.00984602 8.7589e-18)
(1.2267 -0.832763 -1.1506e-17)
(1.20528 -0.583124 1.28647e-17)
(1.20923 -0.432153 2.32634e-17)
(1.18154 -0.328461 3.0216e-17)
(1.17831 -0.260525 1.18931e-18)
(1.14603 -0.20798 -1.12113e-17)
(1.13312 -0.165205 -8.1498e-18)
(1.08714 -0.130256 6.03411e-19)
(1.06482 -0.0863678 -2.05756e-17)
(1.00158 -0.0548313 5.98962e-18)
(1.4326 -0.772404 6.1171e-18)
(1.34455 -0.54094 1.29423e-18)
(1.30807 -0.401339 -5.12247e-18)
(1.25292 -0.306682 -7.16442e-18)
(1.23306 -0.243437 -1.13144e-17)
(1.19011 -0.194684 -2.16818e-18)
(1.17076 -0.151062 6.30705e-18)
(1.12329 -0.113358 -4.82773e-18)
(1.09169 -0.0649421 1.9084e-17)
(1.0307 -0.0267594 -2.82221e-17)
(1.6165 -0.661223 -6.73596e-19)
(1.468 -0.464181 -8.39045e-18)
(1.39453 -0.345979 -1.23769e-17)
(1.31403 -0.267564 -4.80864e-18)
(1.27799 -0.214805 7.54891e-18)
(1.22398 -0.175897 -1.13551e-18)
(1.19771 -0.139536 1.14865e-18)
(1.14691 -0.108877 -1.49797e-18)
(1.11486 -0.0685769 2.00572e-18)
(1.0462 -0.0250543 -4.44781e-18)
(1.76439 -0.505953 -6.81603e-19)
(1.56588 -0.357351 1.87036e-19)
(1.46217 -0.268925 -8.51481e-18)
(1.36196 -0.212229 -5.51296e-18)
(1.31374 -0.173123 -3.97263e-18)
(1.25249 -0.145994 2.46403e-18)
(1.22171 -0.11733 4.852e-19)
(1.16828 -0.0953679 1.6462e-18)
(1.13507 -0.061314 1.53797e-18)
(1.053 -0.0281745 -1.63199e-19)
(1.86777 -0.31799 -3.02095e-19)
(1.63297 -0.228972 6.43551e-19)
(1.50722 -0.177328 -2.77533e-18)
(1.39294 -0.147349 -1.26185e-18)
(1.33567 -0.126176 -1.27949e-18)
(1.26978 -0.114956 7.5275e-19)
(1.23558 -0.0982528 7.22773e-19)
(1.18227 -0.0900463 2.09158e-18)
(1.14787 -0.0626714 1.83755e-18)
(1.07069 -0.0457709 6.10503e-19)
(1.91796 -0.109679 -2.04318e-19)
(1.66294 -0.0870527 8.50359e-19)
(1.52483 -0.0758408 -1.92437e-18)
(1.40327 -0.0739163 -6.06869e-20)
(1.34078 -0.0706869 5.57928e-19)
(1.27347 -0.0735484 -1.14657e-18)
(1.23714 -0.0667181 -3.0202e-18)
(1.18909 -0.068757 3.30148e-19)
(1.15714 -0.0480741 -5.42573e-19)
(1.12229 -0.0458385 -2.32585e-18)
(1.91337 0.10452 -2.30549e-19)
(1.6561 0.0581944 1.33989e-18)
(1.51673 0.027496 -3.13899e-18)
(1.39578 0.000842815 -1.10413e-18)
(1.33348 -0.0145135 1.93796e-18)
(1.26925 -0.0306178 -5.29938e-19)
(1.23386 -0.0334707 -4.94323e-18)
(1.19275 -0.0412449 2.80012e-18)
(1.16197 -0.0264397 3.92449e-19)
(1.15338 -0.0234268 -2.90089e-18)
(1.85283 0.30999 -2.49733e-19)
(1.61093 0.197018 1.95385e-18)
(1.4807 0.126109 -6.54388e-18)
(1.36696 0.0731057 -7.59954e-18)
(1.30888 0.040692 7.03175e-18)
(1.25042 0.0137478 2.02892e-18)
(1.21907 0.00168257 3.91838e-18)
(1.18828 -0.0101898 -1.14598e-17)
(1.16547 -0.0032802 1.46366e-17)
(1.19223 0.0037856 -7.66117e-20)
(1.74205 0.493126 -2.08972e-18)
(1.53288 0.320417 3.4289e-18)
(1.42258 0.213762 8.57305e-18)
(1.32338 0.137851 5.35769e-18)
(1.27459 0.0903544 1.09455e-17)
(1.22452 0.0545037 -5.33792e-18)
(1.19825 0.0333176 7.34118e-19)
(1.17453 0.0194294 6.27792e-19)
(1.15368 0.0163246 1.26372e-17)
(1.20938 0.0418565 -2.77007e-17)
(1.58746 0.641046 -1.30714e-18)
(1.42542 0.419507 2.08523e-17)
(1.34335 0.283732 7.9055e-18)
(1.26312 0.190209 -6.88852e-18)
(1.22598 0.131775 -1.06316e-17)
(1.18407 0.0924124 -1.20953e-18)
(1.1641 0.0689096 5.15569e-19)
(1.14539 0.0637637 -4.3766e-18)
(1.13695 0.0603928 -2.98554e-17)
(1.21049 0.118485 4.28129e-17)
(1.40048 0.744476 -8.06436e-18)
(1.29761 0.488816 -1.71487e-18)
(1.25156 0.333298 6.62688e-18)
(1.19623 0.22862 9.55296e-18)
(1.1765 0.163679 -1.57915e-17)
(1.14804 0.122793 -1.20485e-18)
(1.14079 0.0978906 -4.10094e-18)
(1.12679 0.0934761 -1.00676e-17)
(1.12551 0.086198 4.41922e-17)
(1.14247 0.121374 -5.35925e-17)
(1.19329 0.795759 1.2681e-17)
(1.15674 0.522496 -2.20493e-17)
(1.1508 0.356318 -2.40244e-17)
(1.12202 0.2454 -2.50348e-17)
(1.12024 0.17484 -3.13551e-19)
(1.1049 0.130003 -4.51746e-18)
(1.11025 0.0990142 5.90787e-17)
(1.10798 0.0895344 -2.34135e-17)
(1.12088 0.0816105 2.48673e-17)
(1.15392 0.12009 6.44131e-19)
(0.979914 0.792097 1.54822e-17)
(1.01246 0.520012 -1.17448e-17)
(1.04783 0.355216 -2.1416e-17)
(1.04566 0.246591 -2.99268e-17)
(1.06077 0.177323 4.86001e-18)
(1.05564 0.134864 1.67784e-17)
(1.06857 0.103691 1.00225e-18)
(1.07079 0.0963218 8.01943e-19)
(1.08738 0.0848983 1.83321e-17)
(1.14072 0.14069 2.00895e-18)
(0.775237 0.733634 -7.30701e-18)
(0.874747 0.481053 4.07917e-18)
(0.950498 0.328247 2.11926e-17)
(0.973975 0.228456 2.663e-17)
(1.00605 0.164133 1.92138e-17)
(1.01063 0.125802 -1.06669e-18)
(1.03214 0.0951847 -1.66486e-17)
(1.03612 0.0914355 6.74575e-18)
(1.0579 0.0762853 -4.69922e-17)
(1.10996 0.163698 5.84067e-17)
(0.59242 0.62422 4.99929e-18)
(0.751865 0.408603 1.95953e-17)
(0.863035 0.278701 3.25124e-17)
(0.908073 0.194917 1.54795e-17)
(0.952909 0.14123 -2.84936e-17)
(0.9618 0.111159 -3.60273e-18)
(0.986333 0.0871119 -4.63226e-19)
(0.982923 0.0909225 -9.78854e-20)
(1.0111 0.0816952 -3.44013e-18)
(1.04243 0.185663 2.11554e-18)
(0.444566 0.472026 5.37662e-19)
(0.653099 0.308386 -1.00405e-17)
(0.794011 0.210562 2.05068e-17)
(0.857758 0.148924 1.4965e-17)
(0.915523 0.110782 1.59697e-17)
(0.931296 0.0917537 -1.51324e-17)
(0.963208 0.0779516 6.65854e-18)
(0.957418 0.0822915 -4.18142e-18)
(0.99009 0.0751219 -2.50617e-17)
(0.979934 0.111974 3.43473e-18)
(0.34096 0.286151 -1.28525e-18)
(0.583987 0.185462 -1.06342e-17)
(0.745614 0.125839 -5.63063e-18)
(0.822634 0.0891028 -1.46008e-17)
(0.889716 0.0668888 -9.16659e-18)
(0.912063 0.056635 1.28051e-17)
(0.951392 0.0503873 8.19293e-18)
(0.952263 0.0541735 5.46626e-18)
(0.991515 0.0557955 -6.18553e-18)
(0.983404 0.0737208 7.69391e-18)
(0.288946 0.0806164 9.8845e-20)
(0.549385 0.0501233 -4.18419e-18)
(0.721542 0.0332312 -2.89876e-19)
(0.805224 0.0244891 4.64439e-18)
(0.876852 0.0204999 -4.35865e-19)
(0.901868 0.0207149 -2.47651e-19)
(0.943011 0.0221935 -5.48251e-18)
(0.945109 0.0250702 1.72342e-18)
(0.983062 0.0266601 -7.53574e-18)
(0.977613 0.0286551 -2.87763e-18)
)
;

boundaryField
{
    out
    {
        type            fixedValue;
        value           uniform (1 0 0);
    }
    in
    {
        type            myVelocity;
    }
    frontAndBack
    {
        type            empty;
    }
}


// ************************************************************************* //
