/*--------------------------------*- C++ -*----------------------------------*\
| =========                 |                                                 |
| \\      /  F ield         | foam-extend: Open Source CFD                    |
|  \\    /   O peration     | Version:  3.0                                   |
|   \\  /    A nd           | Web:         http://www.extend-project.de       |
|    \\/     M anipulation  |                                                 |
\*---------------------------------------------------------------------------*/
FoamFile
{
    version     2.0;
    format      ascii;
    class       volScalarField;
    location    "12";
    object      p;
}
// * * * * * * * * * * * * * * * * * * * * * * * * * * * * * * * * * * * * * //

dimensions      [0 0 0 0 0 0 0];

internalField   nonuniform List<scalar> 
1920
(
-0.238646
-0.215741
-0.203497
-0.188995
-0.182029
-0.172511
-0.168674
-0.162345
-0.160438
-0.156217
-0.155468
-0.152613
-0.152445
-0.150371
-0.150286
-0.148465
-0.147961
-0.145851
-0.144371
-0.141357
-0.237634
-0.214825
-0.202633
-0.188193
-0.181256
-0.171778
-0.167957
-0.161655
-0.159756
-0.155553
-0.154806
-0.151963
-0.151796
-0.149731
-0.149645
-0.147832
-0.14733
-0.145229
-0.143755
-0.140754
-0.235585
-0.212973
-0.200887
-0.186571
-0.179695
-0.170299
-0.166511
-0.160264
-0.158381
-0.154214
-0.153475
-0.150656
-0.150491
-0.148443
-0.148359
-0.146561
-0.146064
-0.143981
-0.14252
-0.139545
-0.232547
-0.210226
-0.198295
-0.184164
-0.177376
-0.168101
-0.164362
-0.158195
-0.156336
-0.152223
-0.151493
-0.14871
-0.148547
-0.146526
-0.146442
-0.144668
-0.144176
-0.142121
-0.140678
-0.137742
-0.228494
-0.206562
-0.194839
-0.180955
-0.174286
-0.165173
-0.161499
-0.15544
-0.153613
-0.149573
-0.148855
-0.146121
-0.145961
-0.143975
-0.143893
-0.14215
-0.141667
-0.139647
-0.13823
-0.135345
-0.223481
-0.20203
-0.190564
-0.176984
-0.170461
-0.161548
-0.157954
-0.152028
-0.150241
-0.146289
-0.145587
-0.142913
-0.142756
-0.140814
-0.140733
-0.139028
-0.138556
-0.136581
-0.135194
-0.132372
-0.217492
-0.196617
-0.185458
-0.172243
-0.165894
-0.15722
-0.153723
-0.147956
-0.146218
-0.142371
-0.141688
-0.139086
-0.138934
-0.137044
-0.136965
-0.135306
-0.134847
-0.132924
-0.131575
-0.128829
-0.210591
-0.190377
-0.179573
-0.166776
-0.160629
-0.15223
-0.148844
-0.143259
-0.141576
-0.137852
-0.13719
-0.134671
-0.134523
-0.132692
-0.132617
-0.13101
-0.130565
-0.128703
-0.127397
-0.124738
-0.202769
-0.183307
-0.172904
-0.160583
-0.154664
-0.146577
-0.143317
-0.13794
-0.13632
-0.132734
-0.132097
-0.129672
-0.129529
-0.127767
-0.127694
-0.126148
-0.125719
-0.123927
-0.122669
-0.120109
-0.194098
-0.175467
-0.165509
-0.153715
-0.148049
-0.140308
-0.137187
-0.13204
-0.130488
-0.127056
-0.126446
-0.124124
-0.123987
-0.122301
-0.122231
-0.12075
-0.12034
-0.118624
-0.11742
-0.114969
-0.184577
-0.166861
-0.157391
-0.146176
-0.140788
-0.133427
-0.130459
-0.125565
-0.12409
-0.120826
-0.120246
-0.118038
-0.117909
-0.116305
-0.116238
-0.11483
-0.11444
-0.112809
-0.111664
-0.109333
-0.174284
-0.157555
-0.148613
-0.138023
-0.132936
-0.125985
-0.123183
-0.118561
-0.117168
-0.114086
-0.113538
-0.111453
-0.111331
-0.109816
-0.109753
-0.108424
-0.108056
-0.106515
-0.105434
-0.103233
-0.163226
-0.147559
-0.139185
-0.129267
-0.124503
-0.117993
-0.115369
-0.111041
-0.109736
-0.10685
-0.106337
-0.104385
-0.10427
-0.102852
-0.102793
-0.101548
-0.101203
-0.0997607
-0.0987485
-0.0966872
-0.151487
-0.136947
-0.129175
-0.11997
-0.115548
-0.109506
-0.107071
-0.103054
-0.101843
-0.0991638
-0.0986881
-0.0968757
-0.0967693
-0.0954528
-0.0953983
-0.0942426
-0.0939226
-0.0925836
-0.091644
-0.0897311
-0.139083
-0.125733
-0.118598
-0.110147
-0.106087
-0.100541
-0.0983045
-0.0946167
-0.0935053
-0.0910459
-0.0906093
-0.0889454
-0.088848
-0.0876395
-0.0875895
-0.0865287
-0.0862349
-0.0850056
-0.0841431
-0.0823868
-0.1261
-0.113996
-0.107526
-0.0998642
-0.0961835
-0.0911543
-0.0891269
-0.0857831
-0.0847753
-0.0825453
-0.0821493
-0.0806406
-0.0805521
-0.0794563
-0.0794109
-0.078449
-0.0781826
-0.077068
-0.0762859
-0.0746936
-0.112559
-0.101756
-0.095981
-0.0891418
-0.0858566
-0.0813677
-0.0795582
-0.0765737
-0.0756744
-0.073684
-0.0733307
-0.0719843
-0.0719054
-0.0709274
-0.0708871
-0.0700286
-0.0697909
-0.0687961
-0.0680981
-0.0666768
-0.098554
-0.0890946
-0.0840382
-0.0780498
-0.0751732
-0.0712427
-0.0696582
-0.0670448
-0.0662573
-0.0645144
-0.0642049
-0.0630259
-0.0629567
-0.0621003
-0.0620648
-0.0613131
-0.0611049
-0.0602338
-0.0596226
-0.0583782
-0.0841097
-0.076037
-0.0717219
-0.0666115
-0.0641568
-0.0608026
-0.0594506
-0.0572205
-0.0565486
-0.0550614
-0.0547975
-0.0537914
-0.0537326
-0.0530018
-0.0529717
-0.0523303
-0.0521527
-0.0514094
-0.0508879
-0.0498259
-0.0693224
-0.0626687
-0.0591121
-0.0549
-0.0528767
-0.0501121
-0.0489976
-0.0471595
-0.0466056
-0.0453798
-0.0451621
-0.0443328
-0.0442842
-0.0436818
-0.0436569
-0.0431282
-0.0429817
-0.0423691
-0.0419392
-0.041064
-0.0542211
-0.0490172
-0.0462357
-0.0429415
-0.0413592
-0.0391972
-0.0383257
-0.0368883
-0.0364553
-0.0354967
-0.0353267
-0.0346782
-0.0346404
-0.0341694
-0.0341501
-0.0337366
-0.0336223
-0.0331432
-0.032807
-0.0321225
-0.0389047
-0.0351707
-0.0331747
-0.030811
-0.0296756
-0.0281242
-0.0274989
-0.0264674
-0.0261566
-0.0254687
-0.0253466
-0.0248813
-0.024854
-0.024516
-0.0245021
-0.0242054
-0.0241233
-0.0237795
-0.0235383
-0.0230472
-0.0234047
-0.0211587
-0.0199583
-0.0185367
-0.017854
-0.016921
-0.0165451
-0.0159249
-0.0157382
-0.0153246
-0.0152514
-0.0149717
-0.0149555
-0.0147523
-0.0147441
-0.0145658
-0.0145166
-0.0143099
-0.0141649
-0.0138696
-0.00782147
-0.00707094
-0.00666976
-0.00619489
-0.00596681
-0.00565516
-0.00552961
-0.00532245
-0.00526009
-0.00512196
-0.0050975
-0.00500408
-0.00499867
-0.00493083
-0.0049281
-0.00486857
-0.00485213
-0.00478315
-0.00473477
-0.00463622
0.00781217
0.00706182
0.00666065
0.00618527
0.00595678
0.00564467
0.00551862
0.005311
0.0052482
0.00510965
0.00508482
0.00499102
0.00498527
0.00491709
0.00491404
0.00485419
0.00483746
0.00476819
0.00471952
0.00462065
0.0233955
0.0211497
0.0199492
0.0185272
0.017844
0.0169106
0.0165342
0.0159135
0.0157263
0.0153124
0.0152388
0.0149587
0.0149421
0.0147387
0.0147301
0.0145515
0.0145019
0.014295
0.0141497
0.013854
0.0388954
0.0351616
0.0331656
0.0308015
0.0296657
0.0281138
0.0274879
0.026456
0.0261448
0.0254565
0.025334
0.0248683
0.0248407
0.0245024
0.0244881
0.0241911
0.0241087
0.0237646
0.0235232
0.0230317
0.0542121
0.0490083
0.0462268
0.0429321
0.0413495
0.0391869
0.038315
0.0368771
0.0364436
0.0354846
0.0353142
0.0346654
0.0346272
0.0341559
0.0341362
0.0337225
0.0336078
0.0331284
0.032792
0.0321072
0.0693132
0.0626597
0.0591032
0.0548906
0.052867
0.0501019
0.0489869
0.0471484
0.046594
0.0453678
0.0451497
0.0443201
0.0442711
0.0436684
0.0436431
0.0431141
0.0429673
0.0423544
0.0419243
0.0410487
0.0841009
0.0760283
0.0717133
0.0666024
0.0641473
0.0607927
0.0594402
0.0572097
0.0565373
0.0550497
0.0547854
0.0537789
0.0537197
0.0529886
0.0529582
0.0523164
0.0521385
0.0513949
0.0508731
0.0498108
0.0985451
0.0890858
0.0840295
0.0780406
0.0751637
0.0712328
0.0696478
0.067034
0.066246
0.0645028
0.0641929
0.0630135
0.062944
0.0620872
0.0620514
0.0612993
0.0610908
0.0602194
0.059608
0.0583633
0.112551
0.101747
0.0959727
0.0891331
0.0858476
0.0813582
0.0795482
0.0765633
0.0756635
0.0736727
0.0733191
0.0719722
0.071893
0.0709147
0.070874
0.0700151
0.0697771
0.068782
0.0680837
0.0666622
0.126091
0.113988
0.107518
0.0998554
0.0961744
0.0911449
0.0891169
0.0857727
0.0847646
0.0825341
0.0821378
0.0806287
0.0805398
0.0794437
0.0793979
0.0784357
0.0781689
0.0770541
0.0762718
0.0746792
0.139075
0.125725
0.11859
0.110139
0.106079
0.100532
0.0982952
0.0946068
0.0934951
0.0910352
0.0905982
0.088934
0.0888362
0.0876273
0.087577
0.0865158
0.0862217
0.0849922
0.0841294
0.0823728
0.151479
0.136939
0.129167
0.119962
0.11554
0.109497
0.107061
0.103044
0.101833
0.0991533
0.0986772
0.0968644
0.0967577
0.0954408
0.0953859
0.09423
0.0939096
0.0925703
0.0916305
0.0897173
0.163219
0.147552
0.139178
0.129259
0.124495
0.117985
0.11536
0.111032
0.109727
0.10684
0.106327
0.104374
0.104259
0.102841
0.102782
0.101536
0.101191
0.099748
0.0987355
0.0966741
0.174276
0.157548
0.148606
0.138015
0.132928
0.125977
0.123174
0.118552
0.117159
0.114076
0.113528
0.111443
0.11132
0.109805
0.109742
0.108412
0.108043
0.106503
0.105421
0.10322
0.18457
0.166854
0.157385
0.146169
0.140781
0.133419
0.130451
0.125557
0.124081
0.120817
0.120237
0.118028
0.117898
0.116294
0.116227
0.114819
0.114429
0.112797
0.111652
0.109321
0.194091
0.175461
0.165502
0.153708
0.148042
0.1403
0.137179
0.132031
0.13048
0.127047
0.126437
0.124114
0.123978
0.12229
0.12222
0.120739
0.120329
0.118613
0.117409
0.114957
0.202764
0.183301
0.172898
0.160577
0.154658
0.146571
0.14331
0.137933
0.136312
0.132726
0.132089
0.129663
0.12952
0.127758
0.127685
0.126137
0.125709
0.123916
0.122658
0.120098
0.210585
0.190371
0.179567
0.16677
0.160623
0.152223
0.148837
0.143252
0.141569
0.137844
0.137182
0.134662
0.134514
0.132683
0.132607
0.131
0.130555
0.128693
0.127387
0.124727
0.217487
0.196612
0.185453
0.172237
0.165889
0.157214
0.153717
0.14795
0.146211
0.142365
0.141681
0.139079
0.138926
0.137036
0.136957
0.135298
0.134838
0.132915
0.131566
0.128819
0.223475
0.202025
0.190559
0.176979
0.170455
0.161542
0.157948
0.152022
0.150235
0.146282
0.14558
0.142906
0.142749
0.140806
0.140725
0.13902
0.138548
0.136572
0.135185
0.132363
0.22849
0.206558
0.194835
0.180951
0.174281
0.165168
0.161494
0.155435
0.153608
0.149567
0.148849
0.146115
0.145955
0.143969
0.143886
0.142143
0.14166
0.13964
0.138222
0.135337
0.232542
0.210222
0.198291
0.18416
0.177371
0.168096
0.164357
0.15819
0.156331
0.152218
0.151487
0.148705
0.148541
0.14652
0.146436
0.144661
0.14417
0.142114
0.140671
0.137734
0.235583
0.212971
0.200884
0.186568
0.179692
0.170295
0.166507
0.16026
0.158377
0.15421
0.15347
0.150651
0.150486
0.148438
0.148353
0.146556
0.146058
0.143975
0.142514
0.139538
0.237631
0.214822
0.202629
0.188189
0.181253
0.171775
0.167954
0.161652
0.159752
0.155549
0.154803
0.151959
0.151792
0.149726
0.14964
0.147827
0.147325
0.145224
0.14375
0.140749
0.238645
0.215739
0.203495
0.188993
0.182027
0.172509
0.168672
0.162343
0.160436
0.156215
0.155465
0.15261
0.152442
0.150368
0.150282
0.148461
0.147957
0.145847
0.144367
0.141353
0.238653
0.215746
0.203501
0.188999
0.182033
0.172514
0.168677
0.162348
0.16044
0.156219
0.155469
0.152613
0.152445
0.150371
0.150285
0.148464
0.147959
0.145849
0.144369
0.141355
0.237623
0.214815
0.202624
0.188185
0.181248
0.171771
0.16795
0.161649
0.15975
0.155547
0.154801
0.151957
0.15179
0.149725
0.149639
0.147826
0.147324
0.145223
0.143749
0.140748
0.235592
0.212979
0.200891
0.186575
0.179698
0.170302
0.166513
0.160266
0.158383
0.154216
0.153476
0.150656
0.150491
0.148443
0.148358
0.14656
0.146062
0.14398
0.142518
0.139543
0.232536
0.210216
0.198286
0.184156
0.177368
0.168094
0.164355
0.158188
0.15633
0.152217
0.151487
0.148705
0.148541
0.14652
0.146436
0.144662
0.144171
0.142115
0.140673
0.137736
0.2285
0.206568
0.194844
0.180959
0.174289
0.165176
0.161501
0.155442
0.153615
0.149574
0.148856
0.146122
0.145961
0.143975
0.143893
0.142149
0.141666
0.139646
0.138229
0.135343
0.22347
0.20202
0.190555
0.176976
0.170453
0.161541
0.157947
0.152021
0.150235
0.146283
0.145581
0.142908
0.142751
0.140808
0.140728
0.139023
0.138551
0.136575
0.135189
0.132367
0.217499
0.196622
0.185463
0.172247
0.165898
0.157223
0.153726
0.147958
0.14622
0.142373
0.14169
0.139087
0.138934
0.137044
0.136965
0.135306
0.134846
0.132923
0.131574
0.128827
0.21058
0.190368
0.179564
0.166768
0.160622
0.152223
0.148837
0.143253
0.14157
0.137846
0.137185
0.134665
0.134517
0.132687
0.132611
0.131005
0.13056
0.128698
0.127392
0.124733
0.202776
0.183313
0.172909
0.160587
0.154668
0.146581
0.14332
0.137943
0.136322
0.132736
0.132099
0.129673
0.12953
0.127768
0.127694
0.126147
0.125719
0.123926
0.122668
0.120107
0.194087
0.175458
0.1655
0.153707
0.148042
0.140301
0.137181
0.132034
0.130483
0.12705
0.126441
0.124119
0.123983
0.122296
0.122226
0.120745
0.120335
0.118619
0.117415
0.114964
0.184583
0.166866
0.157396
0.14618
0.140792
0.13343
0.130462
0.125568
0.124092
0.120828
0.120248
0.118039
0.11791
0.116305
0.116239
0.114831
0.11444
0.112809
0.111664
0.109333
0.174273
0.157546
0.148605
0.138016
0.132929
0.125979
0.123177
0.118556
0.117163
0.114081
0.113534
0.111449
0.111326
0.109812
0.109749
0.10842
0.108051
0.106511
0.10543
0.103229
0.163233
0.147565
0.13919
0.129272
0.124507
0.117997
0.115372
0.111044
0.109739
0.106852
0.10634
0.104387
0.104272
0.102853
0.102794
0.101549
0.101204
0.099761
0.0987484
0.096687
0.151477
0.136938
0.129167
0.119963
0.115542
0.1095
0.107065
0.103048
0.101838
0.0991593
0.0986837
0.0968715
0.0967652
0.0954489
0.0953944
0.0942388
0.0939188
0.0925798
0.0916403
0.0897273
0.139089
0.125739
0.118603
0.110152
0.106092
0.100545
0.0983082
0.09462
0.0935084
0.0910486
0.0906117
0.0889476
0.0888499
0.0876411
0.0875909
0.0865298
0.0862359
0.0850063
0.0841436
0.0823871
0.126089
0.113987
0.107518
0.0998571
0.0961771
0.0911486
0.0891215
0.0857782
0.0847707
0.082541
0.0821452
0.0806368
0.0805484
0.0794527
0.0794074
0.0784456
0.0781792
0.0770647
0.0762827
0.0746904
0.112566
0.101762
0.0959865
0.0891467
0.0858612
0.0813719
0.0795621
0.0765772
0.0756776
0.073687
0.0733335
0.0719867
0.0719077
0.0709295
0.0708889
0.0700302
0.0697923
0.0687972
0.068099
0.0666775
0.0985439
0.0890858
0.0840303
0.0780429
0.0751669
0.0712371
0.069653
0.0670402
0.0662529
0.0645104
0.0642011
0.0630223
0.0629533
0.0620971
0.0620618
0.0613101
0.061102
0.060231
0.0596198
0.0583754
0.0841167
0.0760431
0.0717275
0.0666166
0.0641615
0.0608069
0.0594546
0.0572242
0.056552
0.0550646
0.0548005
0.0537942
0.0537351
0.0530042
0.0529739
0.0523322
0.0521545
0.051411
0.0508893
0.049827
0.0693124
0.0626601
0.0591044
0.0548932
0.0528706
0.0501067
0.0489926
0.047155
0.0466014
0.0453759
0.0451585
0.0443295
0.0442811
0.0436789
0.0436541
0.0431255
0.0429792
0.0423666
0.0419368
0.0410615
0.0542282
0.0490234
0.0462414
0.0429466
0.041364
0.0392016
0.0383299
0.0368921
0.0364588
0.0355
0.0353298
0.0346811
0.0346431
0.034172
0.0341525
0.0337389
0.0336243
0.033145
0.0328087
0.0321239
0.0388948
0.0351621
0.033167
0.0308043
0.0296695
0.0281188
0.0274939
0.026463
0.0261525
0.025465
0.0253431
0.0248781
0.0248511
0.0245133
0.0244995
0.024203
0.024121
0.0237773
0.0235362
0.023045
0.0234119
0.021165
0.019964
0.0185419
0.0178588
0.0169255
0.0165493
0.0159288
0.0157418
0.015328
0.0152546
0.0149747
0.0149584
0.0147551
0.0147467
0.0145682
0.0145188
0.0143119
0.0141668
0.0138711
0.00781163
0.00706248
0.00666213
0.00618822
0.00596073
0.00564979
0.00552467
0.00531805
0.00525601
0.0051183
0.00509409
0.00500099
0.00499578
0.0049282
0.00492562
0.00486627
0.00484995
0.00478104
0.00473271
0.00463409
-0.00780497
-0.00705546
-0.00665483
-0.00618003
-0.00595191
-0.00564021
-0.00551442
-0.00530712
-0.00524452
-0.00510622
-0.00508157
-0.00498797
-0.00498237
-0.00491436
-0.00491145
-0.00485177
-0.00483519
-0.00476611
-0.00471764
-0.00461904
-0.0234053
-0.0211581
-0.0199568
-0.0185338
-0.0178501
-0.016916
-0.0165391
-0.0159179
-0.0157304
-0.015316
-0.0152422
-0.0149618
-0.0149451
-0.0147413
-0.0147326
-0.0145538
-0.0145042
-0.0142971
-0.0141518
-0.0138562
-0.0388882
-0.0351552
-0.0331598
-0.0307962
-0.0296608
-0.0281093
-0.0274838
-0.0264522
-0.0261411
-0.0254531
-0.0253308
-0.0248653
-0.0248379
-0.0244997
-0.0244856
-0.0241888
-0.0241065
-0.0237627
-0.0235214
-0.0230303
-0.0542218
-0.0490168
-0.0462344
-0.0429388
-0.0413556
-0.0391924
-0.03832
-0.0368816
-0.0364478
-0.0354884
-0.0353177
-0.0346686
-0.0346302
-0.0341587
-0.0341389
-0.033725
-0.0336102
-0.0331307
-0.0327943
-0.0321095
-0.069306
-0.0626534
-0.0590974
-0.0548854
-0.0528621
-0.0500975
-0.0489828
-0.0471446
-0.0465905
-0.0453645
-0.0451466
-0.0443172
-0.0442684
-0.0436659
-0.0436408
-0.0431119
-0.0429654
-0.0423527
-0.0419227
-0.0410475
-0.0841108
-0.0760368
-0.071721
-0.0666092
-0.0641535
-0.0607982
-0.0594453
-0.0572142
-0.0565416
-0.0550536
-0.0547891
-0.0537823
-0.0537229
-0.0529916
-0.0529611
-0.0523191
-0.0521412
-0.0513975
-0.0508757
-0.0498135
-0.0985379
-0.0890795
-0.0840237
-0.0780355
-0.0751589
-0.0712285
-0.0696437
-0.0670304
-0.0662426
-0.0644996
-0.06419
-0.0630108
-0.0629415
-0.0620849
-0.0620493
-0.0612975
-0.0610892
-0.060218
-0.0596068
-0.0583623
-0.112561
-0.101756
-0.0959805
-0.0891399
-0.0858539
-0.0813639
-0.0795535
-0.076568
-0.075668
-0.0736768
-0.073323
-0.0719758
-0.0718965
-0.0709179
-0.0708771
-0.0700182
-0.0697801
-0.068785
-0.0680867
-0.0666651
-0.126084
-0.113981
-0.107512
-0.0998503
-0.0961698
-0.0911406
-0.089113
-0.0857692
-0.0847613
-0.0825312
-0.082135
-0.0806263
-0.0805376
-0.0794417
-0.0793962
-0.0784342
-0.0781677
-0.077053
-0.0762709
-0.0746786
-0.139085
-0.125734
-0.118598
-0.110146
-0.106085
-0.100537
-0.0983006
-0.0946118
-0.0934997
-0.0910395
-0.0906023
-0.0889379
-0.0888399
-0.0876309
-0.0875805
-0.0865192
-0.0862251
-0.0849955
-0.0841327
-0.0823762
-0.151472
-0.136933
-0.129161
-0.119957
-0.115535
-0.109493
-0.107058
-0.10304
-0.10183
-0.0991506
-0.0986747
-0.0968622
-0.0967557
-0.0954392
-0.0953845
-0.0942288
-0.0939087
-0.0925697
-0.0916301
-0.0897171
-0.163229
-0.147561
-0.139186
-0.129267
-0.124502
-0.117991
-0.115366
-0.111037
-0.109732
-0.106845
-0.106332
-0.104378
-0.104263
-0.102844
-0.102785
-0.10154
-0.101195
-0.0997518
-0.0987392
-0.0966778
-0.174269
-0.157542
-0.1486
-0.13801
-0.132923
-0.125973
-0.12317
-0.118549
-0.117156
-0.114073
-0.113526
-0.111441
-0.111318
-0.109804
-0.109741
-0.108411
-0.108043
-0.106502
-0.105421
-0.103221
-0.18458
-0.166863
-0.157393
-0.146176
-0.140788
-0.133426
-0.130457
-0.125562
-0.124086
-0.120822
-0.120242
-0.118033
-0.117903
-0.116298
-0.116232
-0.114823
-0.114433
-0.112801
-0.111656
-0.109325
-0.194084
-0.175455
-0.165497
-0.153703
-0.148038
-0.140296
-0.137176
-0.132029
-0.130477
-0.127045
-0.126435
-0.124113
-0.123976
-0.122289
-0.12222
-0.120739
-0.120329
-0.118613
-0.117409
-0.114958
-0.202774
-0.18331
-0.172907
-0.160584
-0.154665
-0.146577
-0.143316
-0.137939
-0.136318
-0.132731
-0.132094
-0.129668
-0.129525
-0.127763
-0.127689
-0.126142
-0.125714
-0.123921
-0.122663
-0.120102
-0.210578
-0.190365
-0.179561
-0.166765
-0.160619
-0.15222
-0.148834
-0.143249
-0.141566
-0.137842
-0.137181
-0.134661
-0.134513
-0.132683
-0.132607
-0.131
-0.130555
-0.128694
-0.127388
-0.124728
-0.217498
-0.196621
-0.185462
-0.172245
-0.165896
-0.157221
-0.153724
-0.147956
-0.146217
-0.14237
-0.141687
-0.139084
-0.138931
-0.137041
-0.136962
-0.135303
-0.134843
-0.13292
-0.131571
-0.128824
-0.223468
-0.202019
-0.190554
-0.176974
-0.170451
-0.161538
-0.157945
-0.152019
-0.150233
-0.146281
-0.145579
-0.142905
-0.142748
-0.140806
-0.140725
-0.139021
-0.138548
-0.136573
-0.135187
-0.132365
-0.2285
-0.206568
-0.194844
-0.180959
-0.174289
-0.165175
-0.161501
-0.155441
-0.153614
-0.149573
-0.148855
-0.146121
-0.14596
-0.143974
-0.143892
-0.142148
-0.141665
-0.139645
-0.138228
-0.135342
-0.232535
-0.210216
-0.198285
-0.184155
-0.177368
-0.168093
-0.164354
-0.158188
-0.156329
-0.152216
-0.151486
-0.148704
-0.148541
-0.14652
-0.146436
-0.144662
-0.144171
-0.142115
-0.140673
-0.137736
-0.235593
-0.21298
-0.200893
-0.186576
-0.179699
-0.170303
-0.166514
-0.160266
-0.158383
-0.154216
-0.153476
-0.150657
-0.150492
-0.148444
-0.148359
-0.146561
-0.146063
-0.143981
-0.142519
-0.139544
-0.237624
-0.214816
-0.202624
-0.188185
-0.181249
-0.171772
-0.167951
-0.161649
-0.15975
-0.155548
-0.154802
-0.151958
-0.151792
-0.149727
-0.149641
-0.147828
-0.147326
-0.145226
-0.143752
-0.140751
-0.238656
-0.215748
-0.203504
-0.189001
-0.182035
-0.172516
-0.168679
-0.16235
-0.160442
-0.156221
-0.155471
-0.152616
-0.152448
-0.150374
-0.150288
-0.148467
-0.147963
-0.145853
-0.144372
-0.141359
)
;

boundaryField
{
    out
    {
        type            implicitExtrapolation;
    }
    in
    {
        type            implicitExtrapolation;
    }
    frontAndBack
    {
        type            empty;
    }
}


// ************************************************************************* //
