/*--------------------------------*- C++ -*----------------------------------*\
| =========                 |                                                 |
| \\      /  F ield         | foam-extend: Open Source CFD                    |
|  \\    /   O peration     | Version:  3.0                                   |
|   \\  /    A nd           | Web:         http://www.extend-project.de       |
|    \\/     M anipulation  |                                                 |
\*---------------------------------------------------------------------------*/
FoamFile
{
    version     2.0;
    format      ascii;
    class       volScalarField;
    location    "2";
    object      p;
}
// * * * * * * * * * * * * * * * * * * * * * * * * * * * * * * * * * * * * * //

dimensions      [0 0 0 0 0 0 0];

internalField   nonuniform List<scalar> 
2000
(
-6.61129e+16
-4.8069e+16
-1.55332e+17
-4.57846e+17
-1.21458e+18
-3.01837e+18
-7.26407e+18
-1.7201e+19
-5.02562e+19
1.0269e+19
-1.42546e+17
-1.85057e+17
-5.15376e+17
-1.26252e+18
-2.99609e+18
-6.9949e+18
-1.62258e+19
-3.74912e+19
-9.44505e+19
-3.81789e+18
-2.0114e+17
-1.45796e+17
-5.81237e+17
-1.66434e+18
-4.3593e+18
-1.08427e+19
-2.60893e+19
-6.12638e+19
-1.43698e+20
-4.70911e+19
-2.98957e+17
-2.48293e+17
-1.00814e+18
-2.88333e+18
-7.45407e+18
-1.81528e+19
-4.2464e+19
-9.64044e+19
-2.09514e+20
-1.35722e+20
-4.04909e+17
-4.34303e+17
-1.67774e+18
-4.70737e+18
-1.1887e+19
-2.81218e+19
-6.35326e+19
-1.38512e+20
-2.83976e+20
-2.67788e+20
-5.21945e+17
-7.24187e+17
-2.59998e+18
-7.09749e+18
-1.74218e+19
-3.98732e+19
-8.65874e+19
-1.8006e+20
-3.49925e+20
-4.15506e+20
-6.33212e+17
-1.08983e+18
-3.66812e+18
-9.74678e+18
-2.32366e+19
-5.1302e+19
-1.06434e+20
-2.08614e+20
-3.77984e+20
-5.16819e+20
-7.17493e+17
-1.47867e+18
-4.71942e+18
-1.22314e+19
-2.83054e+19
-6.00502e+19
-1.17906e+20
-2.13647e+20
-3.46939e+20
-5.09847e+20
-7.62198e+17
-1.84571e+18
-5.63422e+18
-1.42973e+19
-3.21948e+19
-6.55918e+19
-1.20553e+20
-1.93233e+20
-2.37655e+20
-3.31125e+20
-7.70644e+17
-2.19268e+18
-6.4189e+18
-1.5983e+19
-3.53572e+19
-7.09125e+19
-1.29117e+20
-2.08054e+20
-2.90064e+20
-4.417e+20
-1.30646e+15
-5.47543e+14
6.71096e+14
1.10829e+15
1.03631e+15
7.75486e+14
5.31017e+14
3.85144e+14
3.45559e+14
3.26634e+14
-4.61342e+15
-2.75273e+15
-6.06499e+14
3.33278e+14
3.17012e+14
-1.29112e+14
-5.88532e+14
-8.28904e+14
-7.70291e+14
-6.62254e+14
6.7942e+14
-7.99868e+14
-1.49775e+15
-2.31979e+15
-3.52024e+15
-4.93579e+15
-6.1922e+15
-6.88499e+15
-6.77095e+15
-6.19006e+15
3.83896e+15
-8.22186e+14
-4.15903e+15
-7.4425e+15
-1.12893e+16
-1.56331e+16
-1.9794e+16
-2.26746e+16
-2.34213e+16
-2.06272e+16
6.59836e+15
-3.13923e+15
-1.01189e+16
-1.77246e+16
-2.69296e+16
-3.75384e+16
-4.8058e+16
-5.57035e+16
-5.79469e+16
-4.40847e+16
8.64864e+15
-9.37415e+15
-2.15816e+16
-3.61796e+16
-5.39388e+16
-7.32194e+16
-8.95489e+16
-9.57124e+16
-8.38462e+16
-2.51705e+16
8.39661e+15
-2.19151e+16
-4.10833e+16
-6.54128e+16
-9.24191e+16
-1.11859e+17
-1.0303e+17
-3.66405e+16
1.30456e+17
3.59103e+17
2.82773e+15
-4.37463e+16
-7.19881e+16
-1.09336e+17
-1.41401e+17
-1.23823e+17
4.22892e+16
5.27083e+17
1.68491e+18
2.78284e+18
-1.21938e+16
-8.35912e+16
-1.41792e+17
-2.30858e+17
-3.24754e+17
-3.08671e+17
1.6029e+17
1.9212e+18
7.61674e+18
1.61972e+19
-6.0748e+16
-1.77135e+17
-3.34052e+17
-5.63866e+17
-8.39738e+17
-9.47822e+17
-2.67132e+16
4.82172e+18
2.61846e+19
5.13695e+19
5.81696e+14
5.37598e+14
6.75669e+14
9.07874e+14
1.13311e+15
1.18736e+15
1.0461e+15
7.7684e+14
4.82246e+14
2.41403e+14
8.40165e+13
1.52564e+12
-3.02279e+13
-3.4673e+13
-2.80109e+13
-1.90753e+13
-1.15752e+13
-6.42386e+12
-3.35428e+12
-1.68448e+12
4.93906e+14
-1.73724e+14
-2.33556e+13
7.57959e+14
1.8968e+15
2.61498e+15
2.6926e+15
2.25598e+15
1.59196e+15
9.59464e+14
4.90758e+14
2.03157e+14
5.51553e+13
-6.43627e+12
-2.36181e+13
-2.23777e+13
-1.59921e+13
-9.96202e+12
-5.78867e+12
-3.07643e+12
-2.58445e+15
-7.21036e+15
-7.8414e+15
-5.19256e+15
-1.22194e+14
3.77462e+15
5.51033e+15
5.37646e+15
4.21032e+15
2.81063e+15
1.64281e+15
8.48423e+14
3.83751e+14
1.45612e+14
3.92797e+13
-3.10796e+11
-1.06312e+13
-1.04412e+13
-7.79507e+12
-4.92261e+12
-1.37153e+16
-3.73366e+16
-4.44564e+16
-3.71345e+16
-1.76984e+16
-1.89165e+15
6.75541e+15
9.30516e+15
8.27885e+15
5.95739e+15
3.70891e+15
2.05698e+15
1.02875e+15
4.63527e+14
1.84572e+14
6.09472e+13
1.26833e+13
-3.04527e+12
-6.60519e+12
-5.63337e+12
-4.80828e+16
-1.42635e+17
-1.82962e+17
-1.66121e+17
-9.64178e+16
-3.90107e+16
-5.47619e+15
8.80233e+15
1.17255e+16
9.70804e+15
6.5388e+15
3.85752e+15
2.05654e+15
1.00506e+15
4.51883e+14
1.85454e+14
6.74113e+13
1.93264e+13
1.41564e+12
-3.27829e+12
-1.43693e+17
-4.38062e+17
-6.15967e+17
-5.89246e+17
-3.59747e+17
-1.72853e+17
-6.28386e+16
-1.08148e+16
7.91159e+15
1.11289e+16
8.87741e+15
5.7413e+15
3.27941e+15
1.71272e+15
8.31359e+14
3.7749e+14
1.59904e+14
6.17269e+13
1.97425e+13
4.28411e+12
-3.85955e+17
-1.00946e+18
-1.70586e+18
-1.71608e+18
-1.05529e+18
-5.29081e+17
-2.24111e+17
-7.62025e+16
-1.51758e+16
4.80956e+15
8.30711e+15
6.65166e+15
4.25383e+15
2.41188e+15
1.26089e+15
6.18818e+14
2.8724e+14
1.2568e+14
5.07383e+13
1.87323e+13
-7.80165e+17
-8.05343e+17
-3.5665e+18
-3.91813e+18
-2.40921e+18
-1.22533e+18
-5.48847e+17
-2.18358e+17
-7.39131e+16
-1.7761e+16
5.76379e+14
4.57374e+15
4.08118e+15
2.72856e+15
1.59749e+15
8.60901e+14
4.36205e+14
2.0973e+14
9.62722e+13
4.19397e+13
1.62893e+18
7.94173e+18
-4.26833e+18
-6.19931e+18
-3.94627e+18
-2.07448e+18
-9.8606e+17
-4.39113e+17
-1.83303e+17
-7.01538e+16
-2.32753e+16
-5.55662e+15
1.81751e+14
1.45261e+15
1.31406e+15
8.90748e+14
5.27806e+14
2.87936e+14
1.50048e+14
7.42757e+13
3.89113e+19
4.57818e+19
-2.77401e+18
-7.56375e+18
-5.42195e+18
-2.98617e+18
-1.48168e+18
-7.10291e+17
-3.34321e+17
-1.53224e+17
-6.72312e+16
-2.75903e+16
-1.01795e+16
-3.07042e+15
-4.86158e+14
2.627e+14
3.56728e+14
2.72429e+14
1.78171e+14
1.06204e+14
1.18642e+20
1.19802e+20
3.21203e+19
3.15171e+18
-5.09281e+18
-5.11361e+18
-3.44539e+18
-2.01286e+18
-1.0866e+18
-5.52684e+17
-2.66271e+17
-1.2145e+17
-5.22142e+16
-2.09608e+16
-7.70983e+15
-2.49174e+15
-6.25813e+14
-4.68961e+13
9.60379e+13
1.01899e+14
1.35004e+20
2.66381e+20
1.0132e+20
2.94692e+19
1.57074e+18
-4.75202e+18
-4.51874e+18
-3.08668e+18
-1.85207e+18
-1.02641e+18
-5.34443e+17
-2.63307e+17
-1.23141e+17
-5.47264e+16
-2.30946e+16
-9.22671e+15
-3.46698e+15
-1.20213e+15
-3.48352e+14
-4.46941e+13
1.07785e+20
5.7022e+20
2.66622e+20
1.03995e+20
2.90117e+19
4.06518e+18
-2.40727e+18
-3.13488e+18
-2.40277e+18
-1.5395e+18
-8.8883e+17
-4.7567e+17
-2.39347e+17
-1.14214e+17
-5.1986e+16
-2.26642e+16
-9.49505e+15
-3.82617e+15
-1.46068e+15
-4.82805e+14
-1.47115e+20
1.11423e+21
6.14626e+20
2.79284e+20
1.05368e+20
3.5734e+19
9.94422e+18
1.14347e+18
-1.2685e+18
-1.47064e+18
-1.08148e+18
-6.65848e+17
-3.68842e+17
-1.89532e+17
-9.18461e+16
-4.2412e+16
-1.88042e+16
-8.05631e+15
-3.35338e+15
-1.30605e+15
-1.06211e+21
1.94043e+21
1.26888e+21
6.43446e+20
2.83813e+20
1.19919e+20
4.81052e+19
1.75304e+19
5.28714e+18
9.1282e+17
-3.33369e+17
-4.92771e+17
-3.65364e+17
-2.18762e+17
-1.16546e+17
-5.73604e+16
-2.6588e+16
-1.17714e+16
-5.10238e+15
-2.17357e+15
-3.62054e+21
2.81387e+21
2.3275e+21
1.30543e+21
6.45004e+20
3.07039e+20
1.40625e+20
6.12049e+19
2.49944e+19
9.42053e+18
3.18274e+18
9.00472e+17
1.66113e+17
-2.17645e+16
-4.42714e+16
-3.02637e+16
-1.57617e+16
-7.05229e+15
-3.0193e+15
-1.48602e+15
-9.82151e+21
2.57639e+21
3.61677e+21
2.29776e+21
1.26549e+21
6.59849e+20
3.27842e+20
1.55408e+20
7.04526e+19
3.06105e+19
1.27733e+19
5.13743e+18
2.00604e+18
7.70925e+17
2.98298e+17
1.19923e+17
5.16449e+16
2.40231e+16
1.14974e+16
4.76098e+15
-2.31661e+22
-2.3813e+21
3.97836e+21
3.24808e+21
2.07705e+21
1.19356e+21
6.36372e+20
3.20602e+20
1.54584e+20
7.1922e+19
3.24749e+19
1.43127e+19
6.20385e+18
2.67131e+18
1.15641e+18
5.09428e+17
2.30529e+17
1.07575e+17
5.13514e+16
2.30928e+16
-4.83075e+22
-2.11989e+22
-4.45832e+20
2.51851e+21
2.45397e+21
1.67883e+21
9.85117e+20
5.29617e+20
2.69238e+20
1.31499e+20
6.22317e+19
2.87122e+19
1.30001e+19
5.82275e+18
2.60358e+18
1.17281e+18
5.36392e+17
2.50746e+17
1.20922e+17
5.729e+16
-8.70757e+22
-7.34853e+22
-1.96934e+22
-4.66857e+21
2.4124e+20
1.14931e+21
9.39614e+20
5.85995e+20
3.25133e+20
1.68625e+20
8.3401e+19
3.97438e+19
1.83947e+19
8.33945e+18
3.73936e+18
1.67546e+18
7.57897e+17
3.50805e+17
1.71957e+17
8.84285e+16
-1.23941e+23
-1.9383e+23
-7.55114e+22
-2.94919e+22
-1.00857e+22
-3.07798e+21
-7.90068e+20
-1.28463e+20
2.58611e+19
4.10486e+19
2.77003e+19
1.46341e+19
6.6517e+18
2.65694e+18
9.20187e+17
2.58128e+17
4.3396e+16
-5.59043e+15
4.44949e+15
2.72178e+16
-8.77339e+22
-4.25158e+23
-2.05903e+23
-9.30014e+22
-3.97762e+22
-1.67623e+22
-7.06787e+21
-3.0175e+21
-1.31326e+21
-5.84808e+20
-2.6724e+20
-1.2551e+20
-6.04735e+19
-2.97259e+19
-1.47917e+19
-7.39522e+18
-3.69351e+18
-1.83167e+18
-8.80452e+17
-3.63663e+17
2.26196e+23
-7.7182e+23
-4.54745e+23
-2.22685e+23
-1.0531e+23
-4.88465e+22
-2.24504e+22
-1.03302e+22
-4.78926e+21
-2.24288e+21
-1.06145e+21
-5.07308e+20
-2.44545e+20
-1.1867e+20
-5.78453e+19
-2.8265e+19
-1.38273e+19
-6.77263e+18
-3.31463e+18
-1.51433e+18
1.27143e+24
-1.0618e+24
-8.08791e+23
-4.20548e+23
-2.13525e+23
-1.04286e+23
-4.9593e+22
-2.33242e+22
-1.09697e+22
-5.188e+21
-2.47135e+21
-1.18523e+21
-5.71528e+20
-2.76684e+20
-1.34288e+20
-6.52783e+19
-3.1786e+19
-1.55601e+19
-7.75237e+18
-3.77674e+18
3.86261e+24
-6.91388e+23
-1.02002e+24
-5.6348e+23
-3.09307e+23
-1.57049e+23
-7.54122e+22
-3.52164e+22
-1.6324e+22
-7.60063e+21
-3.57285e+21
-1.69662e+21
-8.12549e+20
-3.91554e+20
-1.89448e+20
-9.1917e+19
-4.47682e+19
-2.20954e+19
-1.14499e+19
-6.16212e+18
9.39474e+24
1.6135e+24
-3.04266e+23
-2.28124e+23
-1.78913e+23
-1.00245e+23
-4.63727e+22
-1.91689e+22
-7.4172e+21
-2.77874e+21
-1.03845e+21
-3.98137e+20
-1.60202e+20
-6.84328e+19
-3.09868e+19
-1.47983e+19
-7.59689e+18
-4.68725e+18
-4.24302e+18
-4.30239e+18
2.161e+25
7.84169e+24
2.841e+24
1.37672e+24
5.75329e+23
2.54116e+23
1.23161e+23
6.32814e+22
3.3065e+22
1.71636e+22
8.77856e+21
4.42127e+21
2.19771e+21
1.08135e+21
5.27999e+20
2.56138e+20
1.23038e+20
5.72284e+19
2.31903e+19
5.24385e+18
5.47977e+25
2.25708e+25
1.06315e+25
5.26249e+24
2.43614e+24
1.11904e+24
5.20351e+23
2.45848e+23
1.17656e+23
5.67685e+22
2.75047e+22
1.33457e+22
6.4751e+21
3.13898e+21
1.51979e+21
7.34241e+20
3.52557e+20
1.65193e+20
6.95621e+19
1.61775e+19
1.41038e+26
6.79351e+25
2.9985e+25
1.47877e+25
7.21862e+24
3.50626e+24
1.69768e+24
8.20319e+23
3.95904e+23
1.90962e+23
9.20948e+22
4.4418e+22
2.14271e+22
1.03381e+22
4.98781e+21
2.40465e+21
1.15489e+21
5.45321e+20
2.38542e+20
6.68825e+19
7.64976e+25
3.29483e+25
1.53525e+25
7.28947e+24
3.47119e+24
1.66457e+24
8.0245e+23
3.87659e+23
1.87248e+23
9.03458e+22
4.35425e+22
2.09704e+22
1.00969e+22
4.86192e+21
2.34146e+21
1.12706e+21
5.40509e+20
2.54628e+20
1.10998e+20
3.38401e+19
-7.32265e+20
-1.53758e+21
-9.00697e+20
-2.47599e+20
4.08605e+20
8.22681e+20
9.54003e+20
8.66221e+20
6.63617e+20
3.66411e+20
-1.16186e+21
-4.37338e+21
-2.90481e+21
-1.28542e+21
3.86801e+20
1.46418e+21
1.85845e+21
1.72729e+21
1.32795e+21
7.26044e+20
-2.4186e+21
-1.27723e+22
-1.00475e+22
-6.47144e+21
-2.3048e+21
8.26167e+20
2.5232e+21
2.93999e+21
2.5413e+21
1.4291e+21
-5.00877e+21
-3.40198e+22
-2.93517e+22
-2.1798e+22
-1.20232e+22
-3.8015e+21
1.56833e+21
3.99929e+21
4.24988e+21
2.50305e+21
-9.87992e+21
-8.47825e+22
-7.77351e+22
-6.25114e+22
-4.08066e+22
-2.07173e+22
-5.9129e+21
2.5284e+21
5.61768e+21
3.68617e+21
-1.81768e+22
-2.00047e+23
-1.91652e+23
-1.62383e+23
-1.16726e+23
-7.05347e+22
-3.32677e+22
-8.96761e+21
3.09359e+21
3.49759e+21
-3.02126e+22
-4.4918e+23
-4.44786e+23
-3.91027e+23
-3.0039e+23
-2.00144e+23
-1.12979e+23
-5.04774e+22
-1.41236e+22
-2.96611e+21
-4.20329e+22
-9.60496e+23
-9.74903e+23
-8.79826e+23
-7.11549e+23
-5.06725e+23
-3.16431e+23
-1.69182e+23
-7.38385e+22
-2.89695e+22
-3.60415e+22
-1.95012e+24
-2.01335e+24
-1.8475e+24
-1.56022e+24
-1.16953e+24
-7.83361e+23
-4.63862e+23
-2.38656e+23
-1.05529e+23
4.17871e+22
-3.73137e+24
-3.88467e+24
-3.58404e+24
-3.1477e+24
-2.46403e+24
-1.74574e+24
-1.11211e+24
-6.30159e+23
-2.94894e+23
3.33796e+23
-6.62889e+24
-6.8768e+24
-6.26916e+24
-5.72416e+24
-4.66625e+24
-3.48015e+24
-2.35912e+24
-1.43712e+24
-6.96733e+23
1.18769e+24
-1.05992e+25
-1.07346e+25
-9.32595e+24
-8.91587e+24
-7.60302e+24
-6.00115e+24
-4.33763e+24
-2.82575e+24
-1.40171e+24
3.43858e+24
-1.40838e+25
-1.32319e+25
-9.69632e+24
-1.0131e+25
-9.34071e+24
-8.09336e+24
-6.42211e+24
-4.54904e+24
-2.27547e+24
9.18127e+24
-1.09839e+25
-6.67366e+24
2.05552e+24
-9.65418e+23
-3.23373e+24
-5.08756e+24
-5.67244e+24
-4.93296e+24
-2.38471e+24
2.41369e+25
1.6992e+25
3.03775e+25
4.98234e+25
3.97635e+25
2.73832e+25
1.49138e+25
5.73886e+24
8.17283e+23
9.37585e+23
6.51399e+25
1.2012e+26
1.54432e+26
1.9026e+26
1.59809e+26
1.17839e+26
7.57319e+25
4.28003e+25
2.16502e+25
1.23809e+25
1.82488e+26
4.3466e+26
5.22462e+26
5.7063e+26
4.7648e+26
3.47915e+26
2.25132e+26
1.31064e+26
6.98971e+25
3.68781e+25
5.14839e+26
1.32983e+27
1.61435e+27
1.66806e+27
1.38835e+27
1.00194e+27
6.40652e+26
3.6859e+26
1.93339e+26
9.56909e+25
1.39016e+27
3.71402e+27
4.7333e+27
4.8546e+27
4.10197e+27
2.99768e+27
1.94167e+27
1.13339e+27
6.0327e+26
2.9514e+26
9.15671e+26
1.84588e+27
2.48048e+27
2.51989e+27
2.12047e+27
1.54154e+27
9.93066e+26
5.77684e+26
3.07949e+26
1.5467e+26
-5.36153e+18
-2.04925e+19
-6.09344e+18
-1.43841e+18
2.45211e+17
5.23252e+17
3.75405e+17
1.90308e+17
6.89545e+16
6.14022e+16
-2.19935e+19
-4.27999e+19
-2.08164e+19
-9.6897e+18
-3.47947e+18
-8.15135e+17
9.401e+16
2.82426e+17
2.16016e+17
2.14153e+17
-4.41386e+19
-7.24997e+19
-3.92286e+19
-2.01164e+19
-8.4862e+18
-2.95445e+18
-7.1584e+17
2.1669e+16
1.40096e+17
2.85234e+17
-9.14386e+19
-1.22581e+20
-7.16262e+19
-3.79942e+19
-1.70261e+19
-6.59789e+18
-2.08539e+18
-4.05626e+17
3.24537e+16
3.48533e+17
-1.74859e+20
-1.88251e+20
-1.20895e+20
-6.43441e+19
-2.95426e+19
-1.19877e+19
-4.17053e+18
-1.10371e+18
-1.7009e+17
3.6758e+17
-3.00264e+20
-2.65181e+20
-1.9105e+20
-9.9492e+19
-4.5868e+19
-1.90239e+19
-6.95281e+18
-2.08569e+18
-4.80849e+17
3.21244e+17
-4.5192e+20
-3.48461e+20
-2.83824e+20
-1.41274e+20
-6.44882e+19
-2.7037e+19
-1.02071e+19
-3.29778e+18
-8.90454e+17
1.96464e+17
-5.70638e+20
-4.35647e+20
-3.89947e+20
-1.82291e+20
-8.15496e+19
-3.43536e+19
-1.32878e+19
-4.51283e+18
-1.31663e+18
2.54085e+16
-5.41788e+20
-5.0039e+20
-4.22209e+20
-1.77835e+20
-7.55376e+19
-3.12064e+19
-1.20312e+19
-4.09562e+18
-1.18806e+18
-3.8192e+16
-1.82463e+20
-1.09e+20
-1.5696e+20
-1.13702e+20
-6.66401e+19
-3.42691e+19
-1.57386e+19
-6.39023e+18
-2.25739e+18
-6.85009e+17
-9.15125e+13
-4.69051e+14
-6.35679e+14
-8.21338e+14
-1.02438e+15
-1.16836e+15
-1.13749e+15
-7.3372e+14
2.29842e+14
7.81816e+14
-3.05953e+14
-1.28421e+15
-1.68609e+15
-1.96864e+15
-2.22923e+15
-2.28663e+15
-1.94415e+15
-9.0039e+14
1.01869e+15
2.42693e+15
-8.68389e+14
-2.8861e+15
-3.75552e+15
-4.13509e+15
-4.36168e+15
-4.16917e+15
-3.60124e+15
-2.70965e+15
-1.63542e+15
-1.86473e+15
-3.20419e+15
-6.17212e+15
-8.70745e+15
-9.98385e+15
-1.06586e+16
-1.00719e+16
-8.65401e+15
-6.87294e+15
-5.17015e+15
-6.18569e+15
-8.73101e+15
-7.2222e+15
-1.47832e+16
-1.91967e+16
-2.19061e+16
-2.10961e+16
-1.80685e+16
-1.41878e+16
-1.03655e+16
-1.18476e+16
-1.40147e+16
1.84393e+16
-5.472e+15
-1.8983e+16
-2.96534e+16
-3.23496e+16
-2.92443e+16
-2.33711e+16
-1.66224e+16
-1.85597e+16
1.73637e+16
1.70802e+17
8.92273e+16
5.21351e+16
1.35164e+16
-1.2244e+16
-2.34269e+16
-2.42726e+16
-1.89706e+16
-2.3093e+16
2.57118e+17
8.12625e+17
4.71028e+17
3.34612e+17
2.02973e+17
1.00505e+17
3.60596e+16
3.4268e+15
-7.65907e+15
-1.91114e+16
1.29166e+18
1.12529e+18
-1.01636e+17
-1.17009e+16
7.53217e+16
1.01538e+17
8.85286e+16
6.25667e+16
3.70371e+16
1.03626e+16
4.291e+18
-9.23451e+18
-1.01512e+19
-5.99511e+18
-2.78463e+18
-9.88692e+17
-1.6248e+17
1.34152e+17
1.75747e+17
1.36939e+17
1.44865e+11
-8.93435e+10
-1.38183e+11
-2.2655e+11
-3.98589e+11
-7.11005e+11
-1.24563e+12
-2.121e+12
-3.50027e+12
-5.59671e+12
-8.67996e+12
-1.30934e+13
-1.93059e+13
-2.80315e+13
-4.04352e+13
-5.83312e+13
-8.39132e+13
-1.17388e+14
-1.48944e+14
8.00052e+13
-1.4252e+11
-2.66029e+11
-4.95767e+11
-8.52698e+11
-1.46998e+12
-2.5247e+12
-4.27297e+12
-7.07906e+12
-1.14263e+13
-1.78914e+13
-2.70536e+13
-3.93162e+13
-5.46622e+13
-7.24812e+13
-9.18137e+13
-1.12574e+14
-1.38037e+14
-1.76232e+14
-2.18958e+14
3.3435e+14
-4.58077e+11
-5.56365e+11
-1.1358e+12
-2.01572e+12
-3.46384e+12
-5.81637e+12
-9.48973e+12
-1.49311e+13
-2.24463e+13
-3.18156e+13
-4.15933e+13
-4.80404e+13
-4.38639e+13
-1.75008e+13
4.51846e+13
1.53034e+14
2.89382e+14
3.73638e+14
2.00894e+14
1.18481e+15
-8.70998e+11
-7.07515e+11
-1.58051e+12
-2.81085e+12
-4.67084e+12
-7.39667e+12
-1.10316e+13
-1.50288e+13
-1.74107e+13
-1.31701e+13
8.46185e+12
6.81445e+13
2.0161e+14
4.63812e+14
9.25902e+14
1.65038e+15
2.61212e+15
3.50567e+15
2.94941e+15
3.79752e+15
-1.4933e+12
-5.6576e+11
-1.55807e+12
-2.63329e+12
-3.6319e+12
-3.8018e+12
-9.80354e+11
1.00748e+13
4.08503e+13
1.14775e+14
2.76754e+14
6.07717e+14
1.24392e+15
2.39615e+15
4.35206e+15
7.41712e+15
1.16807e+16
1.63683e+16
1.53549e+16
1.34393e+16
-2.25189e+12
5.48898e+11
2.53724e+11
1.18178e+12
5.24086e+12
1.67983e+13
4.55471e+13
1.12078e+14
2.58093e+14
5.64487e+14
1.18157e+15
2.37585e+15
4.59502e+15
8.54127e+15
1.52123e+16
2.57932e+16
4.10854e+16
5.98504e+16
6.10344e+16
4.69195e+16
-2.81047e+12
4.05008e+12
6.75419e+12
1.45368e+13
3.43036e+13
8.05285e+13
1.83595e+14
4.05912e+14
8.71303e+14
1.81717e+15
3.68258e+15
7.24799e+15
1.38378e+16
2.55718e+16
4.55751e+16
7.78607e+16
1.26119e+17
1.90227e+17
2.14829e+17
1.4016e+17
-2.15456e+12
1.27715e+13
2.40074e+13
4.98049e+13
1.09255e+14
2.4135e+14
5.26515e+14
1.12861e+15
2.37222e+15
4.88169e+15
9.82063e+15
1.92837e+16
3.68934e+16
6.86133e+16
1.23619e+17
2.14613e+17
3.55921e+17
5.57026e+17
7.40242e+17
2.82904e+17
2.37869e+12
3.23244e+13
6.45122e+13
1.32547e+14
2.82745e+14
6.08832e+14
1.30312e+15
2.75805e+15
5.75657e+15
1.18217e+16
2.38354e+16
4.70848e+16
9.09398e+16
1.7135e+17
3.14169e+17
5.58782e+17
9.61098e+17
1.59394e+18
2.80135e+18
1.25861e+18
1.76331e+13
7.46227e+13
1.5575e+14
3.19296e+14
6.69986e+14
1.41733e+15
2.98606e+15
6.23398e+15
1.28557e+16
2.61126e+16
5.21008e+16
1.01864e+17
1.94814e+17
3.64227e+17
6.66298e+17
1.19537e+18
2.10863e+18
3.64668e+18
7.28348e+18
1.04447e+19
6.25352e+13
1.6087e+14
3.47023e+14
7.08246e+14
1.46282e+15
3.04439e+15
6.32983e+15
1.31e+16
2.6926e+16
5.48462e+16
1.10437e+17
2.1918e+17
4.27286e+17
8.14938e+17
1.5134e+18
2.72117e+18
4.70596e+18
7.78012e+18
1.14863e+19
2.22696e+19
1.78491e+14
3.31075e+14
7.39933e+14
1.50926e+15
3.07408e+15
6.28405e+15
1.28229e+16
2.60464e+16
5.25797e+16
1.05324e+17
2.08953e+17
4.09543e+17
7.90302e+17
1.49423e+18
2.7477e+18
4.85482e+18
8.05791e+18
1.19636e+19
1.36682e+19
2.4394e+19
4.4695e+14
6.33098e+14
1.4863e+15
3.05787e+15
6.19923e+15
1.25595e+16
2.53656e+16
5.09572e+16
1.01677e+17
2.01231e+17
3.94339e+17
7.63281e+17
1.45404e+18
2.71099e+18
4.90212e+18
8.4597e+18
1.34905e+19
1.83467e+19
1.49133e+19
1.75859e+19
1.03128e+15
1.1139e+15
2.78885e+15
5.81132e+15
1.17559e+16
2.36484e+16
4.73413e+16
9.41563e+16
1.85776e+17
3.63091e+17
7.01612e+17
1.33671e+18
2.50025e+18
4.55939e+18
8.00672e+18
1.32183e+19
1.94058e+19
2.1154e+19
-2.36421e+18
-3.47131e+19
2.2108e+15
1.71818e+15
4.75421e+15
1.00911e+16
2.03862e+16
4.06807e+16
8.05775e+16
1.5825e+17
3.0764e+17
5.90825e+17
1.11803e+18
2.07642e+18
3.76074e+18
6.56864e+18
1.08259e+19
1.60166e+19
1.81721e+19
2.04433e+18
-8.19816e+19
-2.28775e+20
4.4028e+15
2.02247e+15
6.93646e+15
1.52047e+16
3.06694e+16
6.04064e+16
1.17495e+17
2.25586e+17
4.26405e+17
7.90605e+17
1.43012e+18
2.50154e+18
4.1631e+18
6.36991e+18
8.17146e+18
5.56572e+18
-1.46861e+19
-9.20541e+19
-3.39746e+20
-8.10438e+20
8.0539e+15
5.28158e+14
7.01441e+15
1.68213e+16
3.37677e+16
6.41124e+16
1.18062e+17
2.10314e+17
3.57954e+17
5.68188e+17
7.96302e+17
8.23518e+17
-7.20105e+16
-3.96856e+18
-1.64788e+19
-5.22903e+19
-1.49298e+20
-4.04419e+20
-1.06812e+21
-2.38395e+21
1.31029e+16
-7.04562e+15
-2.57512e+15
1.54297e+14
-5.45186e+14
-1.12282e+16
-4.9938e+16
-1.65306e+17
-4.80865e+17
-1.29875e+18
-3.338e+18
-8.27364e+18
-1.99434e+19
-4.70377e+19
-1.09118e+20
-2.50243e+20
-5.7042e+20
-1.29924e+21
-2.97808e+21
-6.38867e+21
1.72552e+16
-3.16565e+16
-4.26055e+16
-7.64059e+16
-1.57584e+17
-3.42511e+17
-7.54655e+17
-1.66788e+18
-3.68494e+18
-8.12192e+18
-1.78284e+19
-3.89198e+19
-8.44006e+19
-1.81688e+20
-3.88202e+20
-8.23837e+20
-1.73969e+21
-3.66661e+21
-7.75566e+21
-1.61855e+22
1.12523e+16
-9.95029e+16
-1.65084e+17
-3.18701e+17
-6.55155e+17
-1.38037e+18
-2.9304e+18
-6.23462e+18
-1.32667e+19
-2.81952e+19
-5.9768e+19
-1.26193e+20
-2.6501e+20
-5.52784e+20
-1.14393e+21
-2.3467e+21
-4.77207e+21
-9.63e+21
-1.93483e+22
-3.95583e+22
-3.30766e+16
-2.70507e+17
-4.93094e+17
-9.80001e+17
-2.0165e+18
-4.2069e+18
-8.81678e+18
-1.84996e+19
-3.88039e+19
-8.12781e+19
-1.6981e+20
-3.53412e+20
-7.31624e+20
-1.50404e+21
-3.06486e+21
-6.17958e+21
-1.23091e+22
-2.42018e+22
-4.69978e+22
-9.46267e+22
-1.91746e+17
-6.7827e+17
-1.30891e+18
-2.64533e+18
-5.45471e+18
-1.13322e+19
-2.3606e+19
-4.91975e+19
-1.02467e+20
-2.13085e+20
-4.42001e+20
-9.13446e+20
-1.87801e+21
-3.8343e+21
-7.75727e+21
-1.55119e+22
-3.05742e+22
-5.92473e+22
-1.1264e+23
-2.24398e+23
-6.5772e+17
-1.61849e+18
-3.25376e+18
-6.6487e+18
-1.37435e+19
-2.85013e+19
-5.91832e+19
-1.22898e+20
-2.55002e+20
-5.28292e+20
-1.09189e+21
-2.24909e+21
-4.61079e+21
-9.39116e+21
-1.89601e+22
-3.78325e+22
-7.43411e+22
-1.4329e+23
-2.69721e+23
-5.34248e+23
-1.90737e+18
-3.75286e+18
-7.79965e+18
-1.60576e+19
-3.3268e+19
-6.89511e+19
-1.42946e+20
-2.96261e+20
-6.13487e+20
-1.26859e+21
-2.61781e+21
-5.38625e+21
-1.10376e+22
-2.2492e+22
-4.54784e+22
-9.09722e+22
-1.79312e+23
-3.46572e+23
-6.52813e+23
-1.29227e+24
-5.10994e+18
-8.60228e+18
-1.84113e+19
-3.81076e+19
-7.90787e+19
-1.63895e+20
-3.39527e+20
-7.03014e+20
-1.45443e+21
-3.00532e+21
-6.19931e+21
-1.27579e+22
-2.61716e+22
-5.34529e+22
-1.085e+23
-2.18306e+23
-4.33721e+23
-8.46488e+23
-1.61121e+24
-3.20355e+24
-1.31558e+19
-1.97871e+19
-4.34757e+19
-9.04081e+19
-1.87755e+20
-3.8917e+20
-8.06001e+20
-1.66829e+21
-3.45051e+21
-7.12946e+21
-1.47111e+22
-3.03017e+22
-6.22709e+22
-1.27573e+23
-2.60239e+23
-5.2758e+23
-1.05965e+24
-2.09865e+24
-4.06768e+24
-8.15728e+24
-3.3263e+19
-4.62111e+19
-1.03667e+20
-2.16751e+20
-4.50261e+20
-9.33268e+20
-1.93276e+21
-4.0004e+21
-8.27484e+21
-1.71028e+22
-3.53128e+22
-7.2818e+22
-1.4992e+23
-3.08052e+23
-6.31368e+23
-1.28943e+24
-2.61916e+24
-5.27354e+24
-1.04538e+25
-2.12049e+25
-8.34908e+19
-1.09959e+20
-2.49314e+20
-5.24485e+20
-1.09018e+21
-2.25971e+21
-4.67997e+21
-9.68793e+21
-2.0045e+22
-4.1449e+22
-8.56414e+22
-1.76785e+23
-3.64529e+23
-7.50732e+23
-1.54402e+24
-3.17069e+24
-6.49838e+24
-1.32766e+25
-2.69289e+25
-5.53497e+25
-2.08614e+20
-2.68027e+20
-6.07524e+20
-1.28356e+21
-2.67098e+21
-5.53808e+21
-1.14717e+22
-2.37527e+22
-4.91626e+22
-1.01708e+23
-2.10292e+23
-4.3449e+23
-8.96984e+23
-1.85019e+24
-3.81325e+24
-7.85451e+24
-1.6178e+25
-3.33605e+25
-6.90251e+25
-1.43797e+26
-3.75073e+20
-1.33405e+20
-2.99762e+20
-6.31795e+20
-1.31414e+21
-2.7243e+21
-5.64193e+21
-1.16776e+22
-2.41552e+22
-4.99266e+22
-1.03093e+23
-2.1263e+23
-4.37988e+23
-9.01041e+23
-1.85161e+24
-3.80274e+24
-7.81399e+24
-1.61087e+25
-3.35059e+25
-7.32381e+25
2.12933e+18
-2.63708e+19
-8.64498e+19
-2.0257e+20
-3.94088e+20
-6.52052e+20
-9.15415e+20
-1.03868e+21
-8.03985e+20
-2.86981e+18
-6.06144e+19
-1.77302e+20
-3.80599e+20
-7.23508e+20
-1.25525e+21
-1.97237e+21
-2.76224e+21
-3.31078e+21
-3.0492e+21
9.18546e+19
-1.85862e+20
-4.74038e+20
-9.81611e+20
-1.83506e+21
-3.16442e+21
-4.9969e+21
-7.12166e+21
-8.87378e+21
-8.91064e+21
1.6017e+20
-4.89458e+20
-1.1617e+21
-2.3607e+21
-4.3847e+21
-7.55966e+21
-1.20161e+22
-1.73851e+22
-2.23172e+22
-2.37734e+22
9.64504e+19
-1.20736e+21
-2.73071e+21
-5.48134e+21
-1.01544e+22
-1.75329e+22
-2.80295e+22
-4.10265e+22
-5.38535e+22
-5.98368e+22
-4.38891e+20
-2.86194e+21
-6.25754e+21
-1.24476e+22
-2.30297e+22
-3.98106e+22
-6.38801e+22
-9.42191e+22
-1.25631e+23
-1.43858e+23
-2.37218e+21
-6.60043e+21
-1.4094e+22
-2.78335e+22
-5.1431e+22
-8.8896e+22
-1.42777e+23
-2.11293e+23
-2.84382e+23
-3.32321e+23
-7.85033e+21
-1.49353e+22
-3.13927e+22
-6.16078e+22
-1.13606e+23
-1.95938e+23
-3.13926e+23
-4.63872e+23
-6.26028e+23
-7.39694e+23
-2.11877e+22
-3.33953e+22
-6.95474e+22
-1.357e+23
-2.49377e+23
-4.28032e+23
-6.81338e+23
-9.99635e+23
-1.34263e+24
-1.58817e+24
-4.98066e+22
-7.43409e+22
-1.54229e+23
-2.99272e+23
-5.47128e+23
-9.31685e+23
-1.46667e+24
-2.12273e+24
-2.81231e+24
-3.29114e+24
-1.04865e+23
-1.66236e+23
-3.45029e+23
-6.65945e+23
-1.2089e+24
-2.03578e+24
-3.1539e+24
-4.47045e+24
-5.78057e+24
-6.59346e+24
-2.06558e+23
-3.77539e+23
-7.86039e+23
-1.50937e+24
-2.7162e+24
-4.51071e+24
-6.84676e+24
-9.4361e+24
-1.17683e+25
-1.2841e+25
-4.33232e+23
-8.81765e+23
-1.84242e+24
-3.52067e+24
-6.27435e+24
-1.02586e+25
-1.5214e+25
-2.02776e+25
-2.41263e+25
-2.4665e+25
-1.20301e+24
-2.14174e+24
-4.48224e+24
-8.5258e+24
-1.50466e+25
-2.42265e+25
-3.51125e+25
-4.52134e+25
-5.10445e+25
-4.81358e+25
-4.49843e+24
-5.44049e+24
-1.13614e+25
-2.15165e+25
-3.7637e+25
-5.98007e+25
-8.50019e+25
-1.06262e+26
-1.14383e+26
-9.97647e+25
-1.81955e+25
-1.44016e+25
-2.98938e+25
-5.63779e+25
-9.78731e+25
-1.53909e+26
-2.15678e+26
-2.64011e+26
-2.74675e+26
-2.27257e+26
-6.83495e+25
-3.92215e+25
-8.07459e+25
-1.51696e+26
-2.61657e+26
-4.08164e+26
-5.662e+26
-6.83469e+26
-6.95934e+26
-5.60819e+26
-2.23141e+26
-1.07532e+26
-2.19631e+26
-4.11212e+26
-7.04929e+26
-1.09107e+27
-1.49871e+27
-1.78479e+27
-1.77869e+27
-1.38925e+27
-5.83347e+26
-2.93965e+26
-5.98313e+26
-1.11975e+27
-1.91248e+27
-2.94373e+27
-4.01362e+27
-4.72924e+27
-4.62971e+27
-3.49314e+27
-1.34338e+27
-1.58941e+26
-3.22076e+26
-6.04335e+26
-1.04131e+27
-1.62387e+27
-2.2487e+27
-2.696e+27
-2.7202e+27
-2.28078e+27
-7.34101e+26
)
;

boundaryField
{
    down
    {
        type            symmetryPlane;
    }
    right
    {
        type            fixedValue;
        value           uniform 0;
    }
    up
    {
        type            symmetryPlane;
    }
    left
    {
        type            zeroGradient;
    }
    cylinder
    {
        type            implicitExtrapolation;
    }
    defaultFaces
    {
        type            empty;
    }
}


// ************************************************************************* //
