/*--------------------------------*- C++ -*----------------------------------*\
| =========                 |                                                 |
| \\      /  F ield         | foam-extend: Open Source CFD                    |
|  \\    /   O peration     | Version:  3.0                                   |
|   \\  /    A nd           | Web:         http://www.extend-project.de       |
|    \\/     M anipulation  |                                                 |
\*---------------------------------------------------------------------------*/
FoamFile
{
    version     2.0;
    format      ascii;
    class       volVectorField;
    location    "2";
    object      u;
}
// * * * * * * * * * * * * * * * * * * * * * * * * * * * * * * * * * * * * * //

dimensions      [0 0 0 0 0 0 0];

internalField   nonuniform List<vector> 
2000
(
(1.75301e+18 3.30947e+17 0.00998149)
(4.45128e+18 2.04346e+17 0.0042178)
(1.04704e+19 1.3398e+18 0.0445881)
(2.29531e+19 4.23385e+18 0.0869646)
(4.87445e+19 1.07098e+19 -0.15959)
(1.02205e+20 2.46082e+19 -0.760857)
(2.14443e+20 5.37417e+19 -0.619244)
(4.56134e+20 1.14753e+20 -0.00700764)
(9.92379e+20 2.41889e+20 -3.11166)
(2.47733e+21 7.36132e+20 0.00667227)
(3.50719e+18 5.5397e+17 0.0177796)
(8.19794e+18 -4.36089e+17 0.0195015)
(1.83295e+19 -1.00255e+17 -0.00756565)
(3.92439e+19 2.50576e+18 -0.156436)
(8.19176e+19 1.08853e+19 -0.0501633)
(1.69032e+20 3.40403e+19 0.430116)
(3.48646e+20 9.38049e+19 -0.131424)
(7.26319e+20 2.42906e+20 -1.76301)
(1.53822e+21 6.03526e+20 5.53114)
(3.54885e+21 1.63996e+21 -26.3579)
(6.15003e+18 1.68682e+18 0.00507291)
(1.26183e+19 1.07491e+18 0.0109618)
(2.68719e+19 3.07869e+18 0.0650304)
(5.56636e+19 1.00045e+19 0.0469584)
(1.1237e+20 2.87828e+19 0.525208)
(2.23111e+20 7.64471e+19 1.16408)
(4.39525e+20 1.933e+20 2.41469)
(8.66528e+20 4.74189e+20 5.16983)
(1.71993e+21 1.13595e+21 7.98443)
(3.51227e+21 2.73412e+21 -4.39393)
(9.36927e+18 2.79551e+18 0.193707)
(1.76618e+19 2.70049e+18 0.0300838)
(3.58366e+19 6.79388e+18 0.0367573)
(7.09015e+19 1.91676e+19 0.387211)
(1.35246e+20 5.09654e+19 0.108814)
(2.48974e+20 1.28556e+20 0.257257)
(4.41892e+20 3.1214e+20 0.342187)
(7.52184e+20 7.37471e+20 0.272054)
(1.2098e+21 1.70224e+21 -14.8893)
(1.59135e+21 3.78091e+21 -20.9604)
(1.29927e+19 3.71775e+18 0.024648)
(2.28317e+19 4.33165e+18 0.0390801)
(4.38256e+19 1.08949e+19 0.12094)
(8.12389e+19 2.9628e+19 0.345707)
(1.41106e+20 7.63038e+19 0.472135)
(2.23617e+20 1.86708e+20 1.02541)
(3.01491e+20 4.3894e+20 0.261639)
(2.57911e+20 9.99862e+20 4.05054)
(-2.82678e+20 2.2147e+21 -25.4196)
(-2.82632e+21 4.62073e+21 42.0495)
(1.67618e+19 4.32431e+18 0.179281)
(2.75763e+19 5.84111e+18 -0.0060423)
(4.95459e+19 1.50547e+19 -0.226508)
(8.3728e+19 4.03687e+19 0.363339)
(1.23662e+20 1.01818e+20 -2.20561)
(1.34745e+20 2.42746e+20 -1.0089)
(-3.0344e+18 5.52646e+20 -0.317265)
(-6.46625e+20 1.20981e+21 -8.13854)
(-2.78167e+21 2.5528e+21 10.3812)
(-9.58075e+21 5.01993e+21 0.771035)
(2.04287e+19 4.46311e+18 -0.0246012)
(3.1592e+19 6.92937e+18 -0.00572642)
(5.26081e+19 1.84907e+19 -0.213458)
(7.81544e+19 4.93099e+19 0.0384943)
(8.44351e+19 1.22228e+20 -1.10227)
(-8.20373e+18 2.83888e+20 0.515958)
(-4.33306e+20 6.23693e+20 7.02007)
(-1.82877e+21 1.30201e+21 -5.06558)
(-5.86897e+21 2.57856e+21 -20.8158)
(-1.73604e+22 4.68302e+21 1.84223)
(2.3867e+19 4.05694e+18 0.0104347)
(3.50356e+19 7.35723e+18 -0.00415301)
(5.40297e+19 2.05015e+19 -0.180461)
(6.80815e+19 5.45306e+19 0.671178)
(3.45488e+19 1.32675e+20 -0.654003)
(-1.71809e+20 2.98544e+20 0.153586)
(-8.90705e+20 6.25762e+20 -0.0509337)
(-3.00065e+21 1.22058e+21 -1.48886)
(-8.70869e+21 2.19042e+21 -21.4329)
(-2.37905e+22 3.44975e+21 10.5935)
(2.70527e+19 3.14827e+18 -0.00103365)
(3.85021e+19 7.18208e+18 0.0155168)
(5.61757e+19 2.11281e+19 -0.0826454)
(6.04247e+19 5.60275e+19 0.20393)
(-7.7025e+18 1.33325e+20 0.113413)
(-3.09343e+20 2.88388e+20 0.318774)
(-1.25708e+21 5.65535e+20 -0.0541362)
(-3.86907e+21 9.7625e+20 -1.27406)
(-1.06099e+22 1.34512e+21 -7.67219)
(-2.74772e+22 8.32252e+20 2.68044)
(2.98448e+19 1.89817e+18 0.00313765)
(4.26035e+19 6.91245e+18 -0.00982415)
(6.18007e+19 2.17566e+19 0.0082219)
(6.31104e+19 5.75661e+19 0.0253714)
(-2.37527e+19 1.34337e+20 0.11003)
(-3.81846e+20 2.82961e+20 -0.0553163)
(-1.44539e+21 5.3976e+20 0.0339603)
(-4.17962e+21 9.11365e+20 2.1584)
(-1.06579e+22 1.23605e+21 5.25159)
(-2.50049e+22 1.49155e+21 3.0496)
(8.24263e+16 -1.17924e+17 -2.04526e-05)
(1.81811e+17 -6.08894e+16 -3.07205e-05)
(1.93552e+17 -8.45228e+15 -5.90107e-07)
(1.61984e+17 1.95493e+16 2.45678e-05)
(1.20129e+17 2.80357e+16 2.54776e-05)
(8.30925e+16 2.66175e+16 1.59817e-05)
(5.48062e+16 2.18046e+16 1.86844e-05)
(3.45169e+16 1.66793e+16 1.43919e-05)
(2.01755e+16 1.24135e+16 1.64753e-05)
(9.71627e+15 9.74637e+15 6.04882e-06)
(2.09061e+16 -5.67869e+16 -9.66954e-05)
(4.94829e+16 -3.39149e+16 1.76148e-05)
(4.51834e+16 -9.44051e+15 -2.22606e-05)
(2.5606e+16 5.51913e+15 7.84819e-06)
(2.84792e+15 1.26086e+16 4.28334e-05)
(-1.72534e+16 1.54721e+16 4.04262e-05)
(-3.30297e+16 1.62886e+16 2.61453e-05)
(-4.50004e+16 1.58774e+16 3.14727e-05)
(-5.4798e+16 1.46076e+16 4.16024e-05)
(-6.44702e+16 1.49289e+16 1.34485e-05)
(-9.66482e+15 -4.22441e+16 -1.8627e-05)
(-1.73445e+16 -2.70107e+16 -3.12106e-05)
(-3.6803e+16 -6.83782e+15 6.152e-05)
(-6.08899e+16 8.64849e+15 -9.31078e-05)
(-8.61215e+16 2.08057e+16 0.000211878)
(-1.10505e+17 3.14991e+16 0.000127343)
(-1.33454e+17 4.0595e+16 9.83776e-05)
(-1.56099e+17 4.6585e+16 0.000175032)
(-1.82093e+17 4.79559e+16 0.000528092)
(-2.16898e+17 5.49163e+16 -0.000344774)
(-3.55051e+16 -5.66031e+16 -1.02314e-05)
(-6.98151e+16 -3.55734e+16 -0.000147311)
(-1.08982e+17 -4.58812e+15 0.000305501)
(-1.49976e+17 2.36192e+16 -6.96094e-05)
(-1.93702e+17 5.22012e+16 0.000799565)
(-2.40507e+17 8.33328e+16 -0.00105164)
(-2.91689e+17 1.1447e+17 0.000818845)
(-3.51995e+17 1.38782e+17 0.00252075)
(-4.34116e+17 1.46916e+17 0.00179419)
(-5.56222e+17 1.69056e+17 -0.00199898)
(-7.07064e+16 -9.56966e+16 -0.000444314)
(-1.28247e+17 -6.06253e+16 -5.33927e-06)
(-1.86584e+17 -5.01419e+15 1.31715e-05)
(-2.4398e+17 5.04106e+16 0.00040138)
(-3.03057e+17 1.13103e+17 0.00193323)
(-3.6624e+17 1.87633e+17 -0.00322935)
(-4.40842e+17 2.67943e+17 0.00128334)
(-5.45909e+17 3.3452e+17 0.000427953)
(-7.25188e+17 3.51151e+17 0.00340944)
(-1.03851e+18 3.66553e+17 -0.00329346)
(-1.19707e+17 -1.61762e+17 -0.000919503)
(-1.85399e+17 -1.08151e+17 -0.00104573)
(-2.32287e+17 -1.54527e+16 -3.9686e-05)
(-2.49682e+17 8.05378e+16 0.00409973)
(-2.26045e+17 1.92459e+17 0.00182085)
(-1.52054e+17 3.25571e+17 0.00303802)
(-3.94354e+16 4.63445e+17 0.00409409)
(5.44276e+16 5.58599e+17 0.00510283)
(-8.36153e+15 5.09147e+17 0.0138986)
(-4.55822e+17 2.28725e+17 -0.0463569)
(-1.73536e+17 -2.54912e+17 -0.00179244)
(-1.91373e+17 -1.86229e+17 -0.000380951)
(-1.04512e+17 -5.19554e+16 0.00101728)
(1.5662e+17 8.27065e+16 0.00520455)
(7.03584e+17 2.21112e+17 0.01352)
(1.66571e+18 3.32258e+17 0.00523967)
(3.12571e+18 3.2207e+17 0.00457637)
(5.00629e+18 3.31596e+16 0.00303452)
(6.92276e+18 -7.52993e+17 0.0482399)
(7.72101e+18 -3.04817e+18 -0.0287432)
(-1.97556e+17 -3.62545e+17 -0.000524359)
(-2.14133e+16 -2.94419e+17 0.000757818)
(5.39547e+17 -1.28719e+17 0.0100729)
(1.79164e+18 1.44383e+16 0.0249066)
(4.28707e+18 6.7614e+16 0.0214665)
(8.80412e+18 -2.17287e+17 0.029809)
(1.621e+19 -1.4286e+18 0.0153521)
(2.70098e+19 -4.53605e+18 -0.0340364)
(4.04652e+19 -1.04224e+19 -0.0839446)
(4.99609e+19 -2.38784e+19 0.136634)
(-1.21906e+17 -4.44288e+17 -0.00449198)
(5.53764e+17 -3.9384e+17 -0.00760842)
(2.35747e+18 -2.05026e+17 -0.00215115)
(6.32463e+18 -5.63942e+16 0.0238241)
(1.45197e+19 -1.85809e+17 0.0708905)
(3.03446e+19 -1.50821e+18 0.091268)
(5.87251e+19 -6.6554e+18 0.16841)
(1.05137e+20 -2.16388e+19 0.148766)
(1.71467e+20 -5.60194e+19 -0.735441)
(2.23007e+20 -1.35568e+20 0.542393)
(1.48597e+17 -4.27433e+17 -0.0146391)
(1.57823e+18 -3.78186e+17 0.000596528)
(5.16942e+18 -1.33478e+17 -0.0241192)
(1.37706e+19 3.66125e+17 -0.0624162)
(3.30232e+19 1.00512e+18 0.137206)
(7.38305e+19 4.69945e+17 0.197943)
(1.55889e+20 -7.31641e+18 0.126885)
(3.10664e+20 -4.50087e+19 0.0605245)
(5.76132e+20 -1.88144e+20 0.72911)
(8.71891e+20 -7.67541e+20 -1.10041)
(2.12247e+15 8.13628e+15 -1.09012e-06)
(-3.38525e+15 8.4947e+15 1.85294e-06)
(-8.14334e+15 7.88287e+15 -6.54885e-06)
(-1.1901e+16 5.21333e+15 3.96145e-06)
(-1.43063e+16 7.12395e+14 -5.6936e-06)
(-1.51062e+16 -3.92303e+15 -1.31425e-05)
(-1.42398e+16 -7.16234e+15 -2.11822e-06)
(-1.20837e+16 -8.36079e+15 -9.85618e-06)
(-9.29119e+15 -7.78572e+15 -7.90918e-06)
(-6.50311e+15 -6.19511e+15 -5.76964e-06)
(-4.14851e+15 -4.34595e+15 -3.06648e-06)
(-2.40074e+15 -2.72718e+15 -1.1273e-06)
(-1.2397e+15 -1.53389e+15 -3.16992e-07)
(-5.45462e+14 -7.62388e+14 4.84368e-08)
(-1.74344e+14 -3.18874e+14 1.29521e-07)
(-1.88575e+12 -9.37789e+13 2.03035e-07)
(6.21189e+13 2.8082e+12 1.04517e-07)
(7.51335e+13 3.20528e+13 6.03619e-08)
(7.00891e+13 3.00576e+13 3.7776e-08)
(6.4339e+13 1.52443e+13 9.56134e-09)
(-7.30863e+16 8.12646e+15 -3.31483e-05)
(-6.97673e+16 1.30792e+16 -2.79906e-05)
(-5.73012e+16 1.37423e+16 -1.93477e-05)
(-3.78059e+16 9.28521e+15 -3.44602e-05)
(-1.78095e+16 5.9609e+14 2.69025e-05)
(-3.31221e+15 -7.83445e+15 -2.42195e-05)
(4.6177e+15 -1.30012e+16 -4.40384e-06)
(7.33542e+15 -1.41772e+16 -9.01841e-05)
(6.93241e+15 -1.2354e+16 1.14714e-05)
(5.24504e+15 -9.16606e+15 -3.93569e-05)
(3.43497e+15 -5.95917e+15 -1.54124e-05)
(2.01491e+15 -3.43433e+15 -5.18603e-07)
(1.07913e+15 -1.74764e+15 -3.02379e-06)
(5.3475e+14 -7.62351e+14 -6.94482e-07)
(2.48402e+14 -2.56592e+14 -4.14581e-07)
(1.10461e+14 -3.3751e+13 8.2912e-08)
(4.92933e+13 4.28437e+13 1.08645e-07)
(2.46301e+13 5.40978e+13 8.87936e-08)
(1.6571e+13 4.17445e+13 1.13622e-10)
(1.29848e+13 2.18049e+13 1.98554e-08)
(-2.64865e+17 2.25792e+16 -0.000143248)
(-2.65683e+17 5.32394e+16 -0.000121023)
(-2.29469e+17 6.61859e+16 -6.42487e-05)
(-1.61681e+17 5.8026e+16 5.15565e-05)
(-8.81913e+16 2.99942e+16 4.34307e-05)
(-3.3618e+16 2.92612e+14 -0.000139031)
(-1.78999e+15 -1.9965e+16 -5.44379e-05)
(1.221e+16 -2.81482e+16 -4.01105e-05)
(1.52237e+16 -2.69799e+16 -5.93273e-05)
(1.30011e+16 -2.10454e+16 -8.7157e-05)
(9.2542e+15 -1.41716e+16 1.08334e-05)
(5.83241e+15 -8.45432e+15 2.1962e-05)
(3.34356e+15 -4.51104e+15 -5.05013e-06)
(1.76706e+15 -2.14175e+15 -2.44534e-06)
(8.65783e+14 -8.78656e+14 -6.74386e-07)
(3.92944e+14 -2.82131e+14 -1.68836e-07)
(1.64043e+14 -3.96976e+13 -1.91876e-07)
(6.26296e+13 3.65543e+13 -1.45651e-07)
(2.3769e+13 4.59235e+13 4.15227e-09)
(8.76547e+12 3.04631e+13 1.65734e-08)
(-7.74064e+17 5.38558e+16 -0.00133525)
(-8.47712e+17 1.93665e+17 -0.00112815)
(-7.82215e+17 2.77299e+17 8.17745e-05)
(-5.86367e+17 2.75923e+17 0.00218105)
(-3.5395e+17 1.84655e+17 0.000534026)
(-1.76746e+17 7.90816e+16 9.05499e-05)
(-6.83727e+16 1.80322e+15 0.000310726)
(-1.29607e+16 -3.80858e+16 -0.000632941)
(9.58198e+15 -4.85271e+16 -0.00048872)
(1.49489e+16 -4.24384e+16 -9.9469e-07)
(1.3082e+16 -3.06091e+16 -0.00016642)
(9.274e+15 -1.93109e+16 -0.000135933)
(5.80008e+15 -1.09348e+16 -1.81236e-05)
(3.31053e+15 -5.61676e+15 -1.17799e-05)
(1.75261e+15 -2.61484e+15 1.17835e-06)
(8.67158e+14 -1.08551e+15 -3.6146e-07)
(4.02161e+14 -3.82015e+14 -1.9103e-07)
(1.7594e+14 -9.43898e+13 -5.02577e-08)
(7.71502e+13 6.44251e+12 4.19514e-09)
(3.37868e+13 2.887e+13 1.12378e-08)
(-1.76962e+18 7.29477e+16 0.0151457)
(-2.25054e+18 5.81045e+17 -0.0040751)
(-2.25522e+18 9.85984e+17 0.0070433)
(-1.76794e+18 1.07838e+18 0.00193922)
(-1.11675e+18 7.95595e+17 0.00141243)
(-6.08201e+17 4.38567e+17 -0.000207654)
(-2.90663e+17 1.67832e+17 0.000413805)
(-1.18657e+17 1.28042e+16 -0.000447263)
(-3.63089e+16 -5.21128e+16 -0.00125149)
(-2.44039e+15 -6.40315e+16 -0.000175086)
(8.12409e+15 -5.27287e+16 -8.42144e-05)
(9.04442e+15 -3.59689e+16 -3.07719e-05)
(6.92025e+15 -2.16549e+16 -1.74015e-05)
(4.49217e+15 -1.18245e+16 -6.5306e-06)
(2.62916e+15 -5.92869e+15 -2.62141e-06)
(1.42365e+15 -2.73707e+15 -1.45632e-06)
(7.23105e+14 -1.15462e+15 -6.37909e-07)
(3.49712e+14 -4.31865e+14 -1.20512e-07)
(1.70273e+14 -1.23806e+14 -3.23146e-08)
(8.30614e+13 -1.14443e+12 -4.48137e-08)
(-2.18632e+18 -7.17933e+16 0.00471239)
(-4.427e+18 1.35969e+18 0.00501586)
(-5.2504e+18 2.9896e+18 -0.0459396)
(-4.32988e+18 3.60552e+18 0.0648795)
(-2.82423e+18 2.80245e+18 0.00485879)
(-1.60177e+18 1.68143e+18 0.00307323)
(-8.22759e+17 8.13851e+17 -0.000433965)
(-3.88187e+17 2.95743e+17 0.000637431)
(-1.66709e+17 4.43146e+16 0.000968351)
(-6.24509e+16 -4.85324e+16 -9.51549e-06)
(-1.77071e+16 -6.45061e+16 -3.71937e-05)
(-9.96758e+14 -5.20217e+16 -1.75059e-05)
(3.67874e+15 -3.43779e+16 -1.42712e-05)
(3.87715e+15 -2.01031e+16 -2.90883e-05)
(2.84437e+15 -1.07339e+16 5.36042e-05)
(1.78141e+15 -5.31032e+15 -2.00326e-05)
(1.01207e+15 -2.44653e+15 -2.63906e-07)
(5.39364e+14 -1.0421e+15 -9.46617e-08)
(2.8523e+14 -3.85923e+14 -1.6337e-07)
(1.48443e+14 -7.94523e+13 -3.26268e-08)
(5.85818e+18 -8.29214e+17 0.133174)
(-2.78973e+18 1.75186e+18 0.0129473)
(-8.17638e+18 7.41754e+18 0.00179239)
(-7.60298e+18 1.02457e+19 0.0256843)
(-5.28049e+18 8.30881e+18 0.0185436)
(-3.16543e+18 5.18765e+18 0.00994053)
(-1.73289e+18 2.71147e+18 0.00379367)
(-8.88734e+17 1.20238e+18 -0.000852469)
(-4.30173e+17 4.27777e+17 0.00111099)
(-1.95376e+17 8.98438e+16 -0.000284593)
(-8.16649e+16 -2.77505e+16 0.000990359)
(-3.00564e+16 -5.09343e+16 -1.79299e-05)
(-8.59004e+15 -4.21781e+16 6.13113e-05)
(-7.95138e+14 -2.76817e+16 -0.000108701)
(1.34807e+15 -1.59957e+16 -8.00345e-05)
(1.4726e+15 -8.46069e+15 -3.69209e-06)
(1.0693e+15 -4.16775e+15 2.37872e-08)
(6.62438e+14 -1.91789e+15 -2.6342e-06)
(3.86357e+14 -7.94269e+14 -1.45989e-06)
(2.14134e+14 -2.2051e+14 -1.35491e-07)
(5.54147e+19 -3.59692e+18 0.0185131)
(2.5765e+19 -5.15224e+18 -0.181247)
(1.18497e+18 1.25733e+19 0.39888)
(-4.0829e+18 2.33522e+19 0.0409819)
(-4.57613e+18 2.01929e+19 0.0185385)
(-3.54965e+18 1.31119e+19 0.0197602)
(-2.36183e+18 7.17e+18 0.00106064)
(-1.42994e+18 3.43938e+18 0.0014473)
(-8.04181e+17 1.4517e+18 0.000290013)
(-4.22757e+17 5.18594e+17 -3.77681e-05)
(-2.07553e+17 1.33669e+17 -9.67568e-06)
(-9.4515e+16 6.67861e+14 3.31859e-06)
(-3.92999e+16 -3.09296e+16 -1.02331e-06)
(-1.43963e+16 -2.88058e+16 2.30134e-06)
(-4.20066e+15 -1.94754e+16 6.90283e-06)
(-5.63116e+14 -1.13696e+16 1.77631e-05)
(4.38048e+14 -6.04577e+15 -2.21889e-05)
(5.29408e+14 -2.98408e+15 7.0705e-07)
(3.93037e+14 -1.3411e+15 8.74798e-07)
(2.43297e+14 -4.36716e+14 -3.70441e-07)
(2.51901e+20 -1.77111e+19 0.809805)
(1.39751e+20 -5.94222e+19 -0.058447)
(5.55652e+19 -4.25232e+18 -0.0634711)
(2.62499e+19 3.33282e+19 -0.382005)
(9.94082e+18 3.54686e+19 0.699249)
(2.30156e+18 2.52346e+19 0.639011)
(-5.55275e+17 1.47697e+19 -0.208019)
(-1.19736e+18 7.62093e+18 0.00364709)
(-1.03061e+18 3.55834e+18 0.00118155)
(-6.90414e+17 1.50758e+18 -0.000515571)
(-4.02363e+17 5.68257e+17 8.33279e-06)
(-2.11915e+17 1.78437e+17 2.19515e-05)
(-1.02359e+17 3.55141e+16 -3.15527e-05)
(-4.5451e+16 -7.16822e+15 0.000346906)
(-1.83847e+16 -1.42094e+16 -8.11079e-06)
(-6.58419e+15 -1.12255e+16 6.75511e-05)
(-1.92403e+15 -7.01421e+15 3.55356e-06)
(-3.1784e+14 -3.86812e+15 9.02918e-07)
(1.05206e+14 -1.91848e+15 -3.25239e-08)
(1.3819e+14 -7.21451e+14 1.18586e-08)
(7.19958e+20 -1.55771e+20 -0.273792)
(3.46571e+20 -2.86518e+20 1.41474)
(1.68599e+20 -1.08028e+20 -0.24075)
(9.28783e+19 2.35017e+17 0.0512001)
(4.64949e+19 3.35907e+19 0.349504)
(2.04897e+19 3.25368e+19 -1.03592)
(7.49671e+18 2.22117e+19 0.418988)
(1.86968e+18 1.2863e+19 0.00551285)
(-1.26381e+17 6.70807e+18 0.0104534)
(-5.84582e+17 3.22402e+18 -0.0202558)
(-5.16542e+17 1.43723e+18 0.00545869)
(-3.40204e+17 5.9107e+17 -7.06013e-05)
(-1.92699e+17 2.19636e+17 -1.80842e-05)
(-9.82617e+16 6.97012e+16 -6.86915e-05)
(-4.59172e+16 1.54426e+16 -0.000162463)
(-1.97509e+16 -9.58305e+14 6.5081e-05)
(-7.77482e+15 -4.05545e+15 9.11893e-06)
(-2.75704e+15 -3.35499e+15 -1.90012e-05)
(-8.91391e+14 -2.08195e+15 -5.60488e-06)
(-3.12403e+14 -9.69575e+14 4.32895e-08)
(1.66423e+21 -1.77058e+21 -1.96481)
(1.25247e+21 -1.11075e+21 -1.28988)
(5.75735e+20 -4.31846e+20 -0.250443)
(2.41726e+20 -1.20104e+20 -0.037718)
(8.60115e+19 1.33118e+18 0.00515047)
(2.36184e+19 3.07499e+19 0.0117355)
(2.30655e+18 2.79726e+19 -0.0085253)
(-3.26411e+18 1.86875e+19 -0.0033968)
(-3.59782e+18 1.08635e+19 -0.00224089)
(-2.61774e+18 5.78636e+18 -0.00042744)
(-1.61469e+18 2.88027e+18 -0.000862172)
(-9.00906e+17 1.34913e+18 -0.000311417)
(-4.66663e+17 5.94501e+17 -0.000111348)
(-2.27303e+17 2.44832e+17 -2.36318e-05)
(-1.04819e+17 9.274e+16 -9.74977e-06)
(-4.59231e+16 3.11615e+16 2.16737e-06)
(-1.91495e+16 8.4038e+15 2.79263e-06)
(-7.63617e+15 1.06125e+15 2.15407e-06)
(-3.0392e+15 -7.89943e+14 1.09257e-06)
(-1.37063e+15 -8.68187e+14 3.8392e-07)
(2.60942e+21 -3.46466e+21 -4.12851)
(2.43093e+21 -2.79497e+21 -2.42274)
(1.18607e+21 -1.20926e+21 -0.348147)
(5.4626e+20 -4.44181e+20 0.00478464)
(2.24799e+20 -1.09748e+20 0.0253295)
(8.27188e+19 3.08052e+18 0.00605839)
(2.57622e+19 2.73091e+19 -0.00596033)
(5.07824e+18 2.43152e+19 -0.00699762)
(-1.2342e+18 1.63179e+19 -0.00505034)
(-2.3512e+18 9.63413e+18 -0.00282233)
(-1.91419e+18 5.24014e+18 -0.00151789)
(-1.23919e+18 2.67351e+18 -0.00068787)
(-7.10155e+17 1.28939e+18 -0.000273419)
(-3.74634e+17 5.89497e+17 -9.07084e-05)
(-1.85388e+17 2.55389e+17 -2.59072e-05)
(-8.6975e+16 1.04467e+17 -3.61082e-06)
(-3.89585e+16 4.00179e+16 1.7767e-06)
(-1.67993e+16 1.40775e+16 2.06553e-06)
(-7.21388e+15 4.15802e+15 1.2941e-06)
(-3.37667e+15 4.39079e+14 5.60315e-07)
(3.87321e+21 -6.05075e+21 -3.91596)
(4.54426e+21 -6.2586e+21 -0.680798)
(2.38116e+21 -2.92252e+21 0.312345)
(1.20063e+21 -1.24838e+21 0.28806)
(5.54764e+20 -4.41793e+20 0.133754)
(2.39823e+20 -1.18306e+20 0.0394144)
(9.69367e+19 -1.00301e+19 0.00122917)
(3.5556e+19 1.72034e+19 -0.00857694)
(1.08942e+19 1.83426e+19 -0.00804134)
(1.99103e+18 1.32399e+19 -0.00519435)
(-6.18548e+17 8.17309e+18 -0.00281701)
(-1.00131e+18 4.5876e+18 -0.00133829)
(-7.67682e+17 2.39972e+18 -0.000567313)
(-4.72587e+17 1.18419e+18 -0.000213796)
(-2.58465e+17 5.55069e+17 -7.071e-05)
(-1.30467e+17 2.48126e+17 -1.88268e-05)
(-6.1942e+16 1.05994e+17 -2.73201e-06)
(-2.80159e+16 4.31946e+16 1.00696e-06)
(-1.23855e+16 1.62845e+16 1.21408e-06)
(-5.67351e+15 4.32715e+15 6.76712e-07)
(4.02722e+21 -9.14587e+21 -6.66444)
(7.46695e+21 -1.27893e+22 0.472183)
(4.24384e+21 -6.34684e+21 1.43861)
(2.34417e+21 -3.00132e+21 0.946073)
(1.19441e+21 -1.25689e+21 0.435167)
(5.75476e+20 -4.71707e+20 0.155726)
(2.64205e+20 -1.53476e+20 0.0385194)
(1.14959e+20 -3.58378e+19 -0.000415409)
(4.67811e+19 1.86304e+18 -0.00857391)
(1.73936e+19 1.01269e+19 -0.00723927)
(5.62975e+18 9.06683e+18 -0.00438311)
(1.37605e+18 6.116e+18 -0.00223723)
(6.96259e+16 3.59772e+18 -0.00101085)
(-2.06287e+17 1.93652e+18 -0.000411033)
(-1.86098e+17 9.75233e+17 -0.000150458)
(-1.16321e+17 4.6522e+17 -4.85109e-05)
(-6.18658e+16 2.11839e+17 -1.28397e-05)
(-2.96484e+16 9.2406e+16 -2.05903e-06)
(-1.30799e+16 3.7985e+16 4.68584e-07)
(-5.1771e+15 1.20484e+16 6.2946e-07)
(-1.06563e+21 -1.03026e+22 -0.356702)
(9.7646e+21 -2.37253e+22 7.93691)
(6.35804e+21 -1.24766e+22 3.84299)
(3.96388e+21 -6.41788e+21 2.42702)
(2.24023e+21 -3.00933e+21 1.20844)
(1.18488e+21 -1.32165e+21 0.492578)
(5.9433e+20 -5.47052e+20 0.16557)
(2.8381e+20 -2.09039e+20 0.0407229)
(1.29088e+20 -6.96364e+19 0.00185242)
(5.58532e+19 -1.69391e+19 -0.00608403)
(2.29256e+19 9.08864e+16 -0.00523176)
(8.88923e+18 3.82387e+18 -0.00308391)
(3.23638e+18 3.42387e+18 -0.00152317)
(1.09733e+18 2.24292e+18 -0.000666739)
(3.43084e+17 1.27131e+18 -0.000263707)
(9.83728e+16 6.57736e+17 -9.42975e-05)
(2.6731e+16 3.18235e+17 -2.99075e-05)
(8.44085e+15 1.458e+17 -7.90381e-06)
(5.0056e+15 6.30521e+16 -1.30102e-06)
(5.74398e+15 2.19591e+16 2.85819e-07)
(-2.22868e+22 -1.38757e+21 20.3208)
(5.91994e+21 -3.86703e+22 7.06112)
(6.4709e+21 -2.18093e+22 7.75673)
(5.27662e+21 -1.22338e+22 5.29761)
(3.4988e+21 -6.31869e+21 2.72876)
(2.06695e+21 -3.08888e+21 1.17774)
(1.12823e+21 -1.44364e+21 0.440977)
(5.7941e+20 -6.42808e+20 0.140631)
(2.82988e+20 -2.6988e+20 0.0340912)
(1.32334e+20 -1.05056e+20 0.00263988)
(5.95253e+19 -3.67866e+19 -0.00366383)
(2.58629e+19 -1.08018e+19 -0.00324701)
(1.09108e+19 -2.04597e+18 -0.00188176)
(4.50316e+18 3.27007e+17 -0.000907654)
(1.83844e+18 6.48422e+17 -0.000388007)
(7.53701e+17 4.71564e+17 -0.000150139)
(3.16023e+17 2.67102e+17 -5.26658e-05)
(1.38434e+17 1.32463e+17 -1.64356e-05)
(6.6274e+16 6.0251e+16 -4.19811e-06)
(3.91647e+16 2.29992e+16 -4.34418e-07)
(-8.44267e+22 3.93037e+22 -35.4686)
(-1.9651e+22 -4.98981e+22 13.2393)
(-2.5106e+21 -3.18161e+22 11.2312)
(3.23508e+21 -2.01451e+22 8.62597)
(3.76788e+21 -1.15845e+22 4.82401)
(2.78546e+21 -6.23381e+21 2.22216)
(1.72309e+21 -3.18187e+21 0.892615)
(9.62873e+20 -1.54754e+21 0.316965)
(5.02697e+20 -7.18326e+20 0.0971029)
(2.49527e+20 -3.18265e+20 0.0231156)
(1.18954e+20 -1.34492e+20 0.00218466)
(5.48449e+19 -5.41402e+19 -0.0019299)
(2.46148e+19 -2.07453e+19 -0.00176113)
(1.08329e+19 -7.5755e+18 -0.00100725)
(4.71625e+18 -2.65385e+18 -0.000476667)
(2.05169e+18 -9.09763e+17 -0.000199776)
(9.01097e+17 -3.19222e+17 -7.58136e-05)
(4.03672e+17 -1.2239e+17 -2.60593e-05)
(1.88985e+17 -5.04067e+16 -7.79944e-06)
(1.00995e+17 -1.56674e+16 -1.45994e-06)
(-2.36408e+23 1.62019e+23 -127.694)
(-1.03852e+23 -2.79118e+22 -17.2148)
(-3.84526e+22 -3.00067e+22 5.75628)
(-1.06102e+22 -2.55661e+22 10.9645)
(-7.79404e+20 -1.75606e+22 7.33986)
(1.65522e+21 -1.06532e+22 3.64371)
(1.64921e+21 -5.93716e+21 1.53888)
(1.12155e+21 -3.10325e+21 0.578077)
(6.55343e+20 -1.54093e+21 0.194491)
(3.51363e+20 -7.32915e+20 0.0571008)
(1.77646e+20 -3.35767e+20 0.013252)
(8.59033e+19 -1.4886e+20 0.0013666)
(4.01079e+19 -6.42198e+19 -0.000910209)
(1.82321e+19 -2.71646e+19 -0.000848024)
(8.13941e+18 -1.13854e+19 -0.000478487)
(3.60165e+18 -4.79244e+18 -0.000222349)
(1.59367e+18 -2.05584e+18 -9.13731e-05)
(7.09593e+17 -9.07789e+17 -3.39022e-05)
(3.19977e+17 -4.04812e+17 -1.11356e-05)
(1.52764e+17 -1.50599e+17 -2.51691e-06)
(-5.57427e+23 4.68549e+23 -328.113)
(-3.21328e+23 1.10753e+23 -97.5157)
(-1.39308e+23 2.22385e+22 -16.3102)
(-5.54398e+22 -1.15498e+22 11.4223)
(-1.95461e+22 -1.74519e+22 10.6194)
(-5.83176e+21 -1.383e+22 5.69703)
(-1.22375e+21 -8.85296e+21 2.47969)
(5.67675e+19 -5.05341e+21 0.953125)
(2.74644e+20 -2.68084e+21 0.332586)
(2.2054e+20 -1.34976e+21 0.105341)
(1.3438e+20 -6.52526e+20 0.0294062)
(7.18312e+19 -3.0519e+20 0.00654259)
(3.52997e+19 -1.38995e+20 0.000653999)
(1.63068e+19 -6.20827e+19 -0.000416824)
(7.18315e+18 -2.74247e+19 -0.000378557)
(3.05248e+18 -1.20968e+19 -0.000208286)
(1.26235e+18 -5.37987e+18 -9.44269e-05)
(5.04449e+17 -2.42985e+18 -3.77515e-05)
(1.76436e+17 -1.10574e+18 -1.32898e-05)
(2.43391e+16 -4.35005e+17 -3.25767e-06)
(-1.13067e+24 1.1326e+24 -352.112)
(-7.95342e+23 5.64635e+23 -135.508)
(-3.71307e+23 2.21806e+23 -59.986)
(-1.66993e+23 6.82549e+22 0.89067)
(-7.12748e+22 9.91877e+21 10.4418)
(-2.92093e+22 -6.35228e+21 6.88259)
(-1.16283e+22 -7.80566e+21 3.24159)
(-4.54371e+21 -5.60205e+21 1.30015)
(-1.75932e+21 -3.35741e+21 0.468834)
(-6.82898e+20 -1.82973e+21 0.154527)
(-2.70473e+20 -9.37336e+20 0.0462173)
(-1.11975e+20 -4.58689e+20 0.0120503)
(-4.95406e+19 -2.1657e+20 0.00238278)
(-2.35697e+19 -9.94867e+19 9.56342e-05)
(-1.18831e+19 -4.4848e+19 -0.000240179)
(-6.19256e+18 -2.00265e+19 -0.00017724)
(-3.27023e+18 -8.94769e+18 -9.0554e-05)
(-1.7512e+18 -4.04193e+18 -3.89905e-05)
(-1.00965e+18 -1.86272e+18 -1.44886e-05)
(-7.15947e+17 -7.82956e+17 -3.59587e-06)
(-1.9061e+24 2.36908e+24 -1810.26)
(-1.66026e+24 1.73713e+24 -987.099)
(-8.15309e+23 7.74621e+23 -264.942)
(-3.94003e+23 3.18736e+23 -46.9623)
(-1.84079e+23 1.16467e+23 0.366216)
(-8.37761e+22 3.69118e+22 5.26229)
(-3.74993e+22 9.19146e+21 3.20256)
(-1.66678e+22 9.23522e+20 1.42343)
(-7.41608e+21 -8.93515e+20 0.544098)
(-3.32325e+21 -9.09807e+20 0.187243)
(-1.50691e+21 -5.94033e+20 0.0584981)
(-6.9387e+20 -3.27657e+20 0.0162534)
(-3.25044e+20 -1.63566e+20 0.00371429)
(-1.54856e+20 -7.60139e+19 0.000481936)
(-7.48405e+19 -3.34216e+19 -0.000142575)
(-3.65516e+19 -1.40854e+19 -0.000159393)
(-1.7982e+19 -5.78046e+18 -9.0968e-05)
(-8.93546e+18 -2.38629e+18 -4.16284e-05)
(-4.63735e+18 -1.10791e+18 -1.60479e-05)
(-2.80052e+18 -6.12983e+17 -3.80165e-06)
(-2.28184e+24 4.2123e+24 -2437.31)
(-2.86047e+24 4.29553e+24 -1392.07)
(-1.4719e+24 2.03997e+24 -378.962)
(-7.54289e+23 9.3499e+23 -88.9724)
(-3.76078e+23 4.05963e+23 -14.7111)
(-1.82053e+23 1.69451e+23 0.398182)
(-8.60768e+22 6.89516e+22 1.81258)
(-4.01302e+22 2.77158e+22 1.07808)
(-1.86131e+22 1.11372e+22 0.473998)
(-8.64438e+21 4.52628e+21 0.178334)
(-4.03607e+21 1.8852e+21 0.0595301)
(-1.89854e+21 8.16278e+20 0.0175141)
(-9.00466e+20 3.7134e+20 0.00427146)
(-4.30527e+20 1.77597e+20 0.000651615)
(-2.07285e+20 8.83612e+19 -0.000112833)
(-1.00346e+20 4.49857e+19 -0.000165643)
(-4.87741e+19 2.30454e+19 -0.000100743)
(-2.38369e+19 1.16542e+19 -4.80241e-05)
(-1.19621e+19 5.4843e+18 -1.89717e-05)
(-6.73796e+18 1.79936e+18 -4.18029e-06)
(-1.13343e+23 5.79903e+24 -3023.21)
(-3.55366e+24 8.96275e+24 -1118.82)
(-1.96024e+24 4.45193e+24 -290.481)
(-1.08119e+24 2.17922e+24 -94.5508)
(-5.79317e+23 1.03324e+24 -29.6347)
(-2.96479e+23 4.77207e+23 -7.91755)
(-1.45575e+23 2.16582e+23 -1.57114)
(-6.95136e+22 9.75676e+22 -0.0904154)
(-3.2721e+22 4.40084e+22 0.114181)
(-1.53383e+22 1.99986e+22 0.0776313)
(-7.20539e+21 9.19196e+21 0.0337714)
(-3.40268e+21 4.28271e+21 0.0114904)
(-1.61699e+21 2.02406e+21 0.00296976)
(-7.73073e+20 9.69452e+20 0.000371057)
(-3.71517e+20 4.69466e+20 -0.000189731)
(-1.79236e+20 2.29097e+20 -0.000198505)
(-8.66634e+19 1.12225e+20 -0.000118417)
(-4.19217e+19 5.48388e+19 -5.73578e-05)
(-2.03972e+19 2.60163e+19 -2.30558e-05)
(-1.06162e+19 9.93484e+18 -4.80098e-06)
(1.02432e+25 3.68139e+24 -2180.31)
(-7.92147e+23 1.54305e+25 643.727)
(-8.31716e+23 7.992e+24 -3.48782)
(-6.57404e+23 4.12455e+24 -15.7775)
(-4.48668e+23 2.08763e+24 -5.06405)
(-2.6207e+23 1.02582e+24 -1.0396)
(-1.36399e+23 4.90832e+23 0.0632287)
(-6.59431e+22 2.30897e+23 0.230679)
(-3.05866e+22 1.07867e+23 0.164778)
(-1.39369e+22 5.04216e+22 0.0848186)
(-6.33933e+21 2.36894e+22 0.0359203)
(-2.9058e+21 1.12097e+22 0.01284)
(-1.34783e+21 5.34448e+21 0.00373165)
(-6.32919e+20 2.56574e+21 0.000712856)
(-3.00366e+20 1.23875e+21 -6.72844e-05)
(-1.4358e+20 6.00566e+20 -0.00016595)
(-6.86812e+19 2.91921e+20 -0.000114949)
(-3.22696e+19 1.41927e+20 -6.02058e-05)
(-1.39092e+19 6.81109e+19 -2.53749e-05)
(-4.66296e+18 2.78147e+19 -5.14556e-06)
(4.15224e+25 -1.12595e+25 8313.84)
(1.27646e+25 1.93112e+25 1604.45)
(5.60932e+24 1.05953e+25 913.198)
(2.41178e+24 5.7987e+24 302.973)
(9.69416e+23 3.14917e+24 88.7896)
(3.92684e+23 1.63499e+24 25.4755)
(1.72404e+23 8.10006e+23 7.5366)
(8.33364e+22 3.88133e+23 2.36474)
(4.2836e+22 1.82671e+23 0.788527)
(2.24551e+22 8.54853e+22 0.273256)
(1.17072e+22 4.00954e+22 0.0951363)
(6.01267e+21 1.89247e+22 0.0321565)
(3.03849e+21 8.99908e+21 0.0101951)
(1.51432e+21 4.30897e+21 0.00289082)
(7.46832e+20 2.07487e+21 0.000656764)
(3.66031e+20 1.00333e+21 6.65285e-05)
(1.79711e+20 4.86828e+20 -4.46085e-05)
(9.06323e+19 2.37234e+20 -4.08234e-05)
(5.1286e+19 1.16408e+20 -2.07355e-05)
(3.67655e+19 5.16056e+19 -4.14785e-06)
(1.21561e+26 -5.87062e+25 -4931.77)
(5.24014e+25 6.21969e+24 1070.23)
(2.49725e+25 4.95254e+24 325.707)
(1.19694e+25 3.39145e+24 111.956)
(5.60466e+24 2.30219e+24 39.8959)
(2.61507e+24 1.35638e+24 14.855)
(1.23623e+24 7.04032e+23 5.78714)
(5.94558e+23 3.34834e+23 2.31792)
(2.89795e+23 1.50991e+23 0.932247)
(1.42258e+23 6.6341e+22 0.369073)
(6.99625e+22 2.90051e+22 0.141788)
(3.4359e+22 1.28093e+22 0.0523021)
(1.6825e+22 5.76349e+21 0.0183453)
(8.2125e+21 2.64943e+21 0.00604332)
(3.99759e+21 1.24253e+21 0.0018312)
(1.94296e+21 5.92782e+20 0.000488445)
(9.46353e+20 2.87761e+20 0.000101205)
(4.68298e+20 1.44431e+20 7.34252e-06)
(2.48636e+20 8.0558e+19 -6.12582e-06)
(1.57734e+20 4.87395e+19 -1.35442e-06)
(3.17749e+26 -1.80851e+26 -5934.27)
(1.49717e+26 -5.59388e+25 -2478.17)
(7.24657e+25 -2.53619e+25 -891.91)
(3.52775e+25 -1.17039e+25 -278.279)
(1.69633e+25 -4.8901e+24 -78.7302)
(8.07875e+24 -2.02434e+24 -19.825)
(3.83841e+24 -9.06017e+23 -3.99628)
(1.82863e+24 -4.48584e+23 -0.325812)
(8.753e+23 -2.36706e+23 0.262563)
(4.20908e+23 -1.27087e+23 0.218247)
(2.03101e+23 -6.75626e+22 0.116317)
(9.82078e+22 -3.5219e+22 0.0522888)
(4.75338e+22 -1.79894e+22 0.0212099)
(2.30127e+22 -9.02955e+21 0.00795033)
(1.1141e+22 -4.46974e+21 0.00277287)
(5.39606e+21 -2.18778e+21 0.000895987)
(2.62227e+21 -1.05747e+21 0.000263612)
(1.29467e+21 -4.96176e+20 6.78666e-05)
(6.83137e+20 -2.04233e+20 1.39029e-05)
(4.29904e+20 -3.91386e+19 1.47768e-06)
(8.09783e+26 -4.96905e+26 -767.541)
(3.84619e+26 -2.26689e+26 -651.343)
(1.86467e+26 -1.08843e+26 -768.242)
(9.06007e+25 -5.28947e+25 -332.392)
(4.39866e+25 -2.47165e+25 -115.124)
(2.1265e+25 -1.12844e+25 -35.4611)
(1.02387e+25 -5.15624e+24 -9.85021)
(4.91802e+24 -2.3943e+24 -2.36871)
(2.3608e+24 -1.13444e+24 -0.413895)
(1.13388e+24 -5.46476e+23 0.0059384)
(5.45199e+23 -2.65938e+23 0.0540324)
(2.62466e+23 -1.29987e+23 0.0357674)
(1.2649e+23 -6.35673e+22 0.0175786)
(6.10115e+22 -3.10347e+22 0.00750523)
(2.94504e+22 -1.51116e+22 0.00291703)
(1.42328e+22 -7.33222e+21 0.00104936)
(6.90492e+21 -3.53328e+21 0.000350311)
(3.40277e+21 -1.66448e+21 0.000107545)
(1.78637e+21 -7.0784e+20 2.8282e-05)
(1.13138e+21 -1.61139e+20 2.08724e-06)
(2.04449e+27 -1.40431e+27 -7006.68)
(9.85921e+26 -6.42765e+26 -1811.45)
(4.75666e+26 -3.10321e+26 -969.417)
(2.29264e+26 -1.51731e+26 -395.275)
(1.10664e+26 -7.39831e+25 -139.999)
(5.34244e+25 -3.58155e+25 -44.9554)
(2.57713e+25 -1.72461e+25 -13.2033)
(1.24194e+25 -8.28714e+24 -3.47992)
(5.98073e+24 -3.98355e+24 -0.765516)
(2.87932e+24 -1.91775e+24 -0.101516)
(1.38636e+24 -9.24785e+23 0.0221989)
(6.67764e+23 -4.46542e+23 0.0266721)
(3.21795e+23 -2.15789e+23 0.0151147)
(1.55154e+23 -1.04311e+23 0.00689623)
(7.48539e+22 -5.04143e+22 0.0027926)
(3.61557e+22 -2.43403e+22 0.00103612)