/*--------------------------------*- C++ -*----------------------------------*\
| =========                 |                                                 |
| \\      /  F ield         | foam-extend: Open Source CFD                    |
|  \\    /   O peration     | Version:  3.0                                   |
|   \\  /    A nd           | Web:         http://www.extend-project.de       |
|    \\/     M anipulation  |                                                 |
\*---------------------------------------------------------------------------*/
FoamFile
{
    version     2.0;
    format      ascii;
    class       volVectorField;
    location    "3";
    object      s;
}
// * * * * * * * * * * * * * * * * * * * * * * * * * * * * * * * * * * * * * //

dimensions      [0 1 -1 0 0 0 0];

internalField   nonuniform List<vector> 
3012
(
(-1.85153 0.121503 0)
(-1.65155 -0.132018 0)
(-2.21995 0.176081 0)
(-1.57499 0.247302 0)
(-2.97355 0.423695 0)
(-1.76757 0.278357 0)
(-2.90807 -0.227166 0)
(-2.47579 0.162554 0)
(-1.73836 0.18562 0)
(-1.93114 -0.236573 0)
(-1.63213 0.0607927 0)
(-1.98046 0.42317 0)
(-1.09544 -0.0634863 0)
(-1.61693 0.0912689 0)
(-1.87792 0.0980672 0)
(-1.07198 0.19704 0)
(-2.9391 0.319606 0)
(-1.80009 0.357664 0)
(-2.82769 -0.292581 0)
(-2.49714 0.187391 0)
(-1.10874 0.431552 0)
(-1.34578 -0.147911 0)
(-1.56157 -0.250769 0)
(-1.03009 0.261012 0)
(-2.3115 0.0864864 0)
(-1.80781 -0.0595798 0)
(-1.78524 0.354068 0)
(-1.88669 0.0863824 0)
(-1.53838 0.281008 0)
(-1.75677 0.394124 0)
(-1.17177 -0.0406809 0)
(-1.31543 -0.294866 0)
(-1.12136 -0.0206133 0)
(-1.76413 0.360072 0)
(-1.54317 0.263817 0)
(-1.24458 -0.273985 0)
(-1.92575 -0.0870194 0)
(-2.35155 0.0970577 0)
(-1.90029 0.0850123 0)
(-1.89031 0.356269 0)
(-0.992385 -0.0525087 0)
(-1.79365 0.090576 0)
(-0.970969 0.187048 0)
(-1.55445 0.0857123 0)
(-1.11362 0.0149387 0)
(-1.21943 -0.244487 0)
(-1.57578 0.237707 0)
(-1.8076 0.319795 0)
(-1.06744 -0.242527 0)
(-1.68535 0.31406 0)
(-1.48121 0.244217 0)
(-0.976841 -0.0114834 0)
(-1.83537 0.123144 0)
(-1.58449 -0.123781 0)
(-1.51405 0.245 0)
(-2.19527 0.171393 0)
(-2.49963 -0.331253 0)
(-1.91974 0.546529 0)
(-2.73589 0.109112 0)
(-2.53592 0.201596 0)
(-2.59395 -0.355504 0)
(-1.87593 0.524579 0)
(-2.80956 0.151552 0)
(-2.5406 0.214249 0)
(-1.12468 -0.0248777 0)
(-1.63472 0.0615112 0)
(-1.90748 0.0520262 0)
(-1.11714 0.238867 0)
(-1.76905 -0.07848 0)
(-1.04662 0.317626 0)
(-1.01898 0.0982217 0)
(-1.52289 -0.0309315 0)
(-1.52671 0.452122 0)
(-1.31426 -0.338535 0)
(-1.15038 -0.13104 0)
(-1.35726 0.323846 0)
(-1.38023 0.311207 0)
(-1.5571 0.414743 0)
(-1.18663 -0.323151 0)
(-1.05238 -0.10973 0)
(-1.21653 -0.0203299 0)
(-1.68237 0.0587747 0)
(-1.21194 0.261593 0)
(-1.97576 0.0448014 0)
(-1.74791 0.00274516 0)
(-0.960272 0.248837 0)
(-0.958261 0.0292616 0)
(-1.51371 0.0222592 0)
(-1.03353 -0.0557612 0)
(-1.66778 0.369741 0)
(-1.46644 0.279758 0)
(-1.14877 -0.28828 0)
(-1.97973 -0.231335 0)
(-1.74681 0.172254 0)
(-1.66174 0.0640298 0)
(-1.98576 0.424904 0)
(-1.85191 0.142703 0)
(-2.11908 0.379742 0)
(-1.97075 -0.0185841 0)
(-2.32734 -0.0499366 0)
(-1.742 -0.0922696 0)
(-1.02801 0.323391 0)
(-0.997664 0.110523 0)
(-1.50109 -0.0417527 0)
(-1.49056 0.456287 0)
(-1.13857 -0.14074 0)
(-1.30235 -0.341765 0)
(-1.32734 0.328111 0)
(-1.49957 -0.283392 0)
(-1.0471 0.28203 0)
(-1.29611 -0.167711 0)
(-1.13882 0.442704 0)
(-1.59399 0.199275 0)
(-1.83437 0.258902 0)
(-1.15413 -0.194057 0)
(-1.07493 0.0674849 0)
(-1.25882 -0.342217 0)
(-1.09719 -0.183447 0)
(-1.29841 0.472291 0)
(-1.16467 0.341495 0)
(-1.38355 -0.105848 0)
(-0.909497 0.18054 0)
(-0.953701 0.351346 0)
(-1.59808 -0.173127 0)
(-2.30271 -0.064797 0)
(-1.97073 -0.00407318 0)
(-2.44947 0.139089 0)
(-2.11713 0.455588 0)
(-2.82613 0.220172 0)
(-2.43351 0.844537 0)
(-2.64266 -0.0898032 0)
(-2.13017 -0.379948 0)
(-2.39409 -0.0605886 0)
(-1.9449 -0.00720708 0)
(-2.2377 0.502563 0)
(-2.47768 0.109475 0)
(-2.79057 0.279985 0)
(-2.68454 -0.115348 0)
(-2.32539 0.889644 0)
(-2.22237 -0.434583 0)
(-2.29302 0.110467 0)
(-1.70986 0.324993 0)
(-1.87583 0.0915602 0)
(-1.74983 -0.0845135 0)
(-2.64161 -0.0265579 0)
(-2.09473 0.67538 0)
(-2.30782 -0.363739 0)
(-2.62397 0.18501 0)
(-2.60234 0.0228358 0)
(-2.12539 0.677419 0)
(-2.21885 -0.299562 0)
(-2.59798 0.157196 0)
(-0.907304 0.0238651 0)
(-1.47176 0.207563 0)
(-0.975662 -0.201674 0)
(-1.67467 0.259259 0)
(-1.10505 -0.255409 0)
(-1.69704 0.33124 0)
(-1.48992 0.254299 0)
(-1.0057 -0.0203305 0)
(-1.45751 -0.302561 0)
(-1.26154 -0.176289 0)
(-1.17591 0.455645 0)
(-1.0746 0.300039 0)
(-1.90693 0.0917281 0)
(-2.21096 -0.0947919 0)
(-2.42818 0.0798992 0)
(-2.1948 0.406132 0)
(-1.13147 -0.0372853 0)
(-1.74375 0.378839 0)
(-1.52761 0.275865 0)
(-1.26309 -0.287859 0)
(-2.56364 0.0986938 0)
(-2.51716 0.115139 0)
(-2.26962 -0.261798 0)
(-1.97735 0.543334 0)
(-2.12955 -0.151679 0)
(-2.51299 0.144916 0)
(-2.05532 0.530239 0)
(-2.46318 0.0411847 0)
(-1.90403 0.0824708 0)
(-2.24378 -0.109408 0)
(-2.44171 0.0899415 0)
(-2.20513 0.420706 0)
(-1.42618 0.46063 0)
(-1.51784 -0.100565 0)
(-1.30919 0.235299 0)
(-1.79318 -0.250262 0)
(-1.34651 0.261725 0)
(-1.7388 -0.281994 0)
(-1.48422 0.473584 0)
(-1.47622 -0.108661 0)
(-1.48673 -0.293769 0)
(-1.28478 -0.170715 0)
(-1.17033 0.453793 0)
(-1.07216 0.293533 0)
(-1.41582 -0.290488 0)
(-1.82519 0.395207 0)
(-1.59217 0.270207 0)
(-1.25783 -0.019513 0)
(-1.11572 -0.00374888 0)
(-1.62209 0.0478461 0)
(-1.11343 0.253839 0)
(-1.89149 0.0321031 0)
(-1.12237 -0.0798313 0)
(-1.89592 0.11698 0)
(-1.63144 0.103535 0)
(-1.09234 0.186345 0)
(-0.923386 -0.16173 0)
(-1.66341 0.211618 0)
(-0.870291 0.059529 0)
(-1.46253 0.174379 0)
(-0.925848 0.194496 0)
(-1.38509 -0.11241 0)
(-1.60371 -0.182796 0)
(-0.971276 0.371692 0)
(-1.973 0.0199341 0)
(-1.22146 0.280604 0)
(-1.21679 0.00190095 0)
(-1.67787 0.0432262 0)
(-1.28775 -0.350372 0)
(-1.16437 0.340575 0)
(-1.11996 -0.189736 0)
(-1.29828 0.475076 0)
(-1.1749 -0.0552836 0)
(-1.51461 0.286699 0)
(-1.32205 -0.303173 0)
(-1.72522 0.402633 0)
(-0.970026 0.194739 0)
(-1.40471 -0.106049 0)
(-1.02162 0.376865 0)
(-1.62721 -0.180552 0)
(-1.1597 -0.177983 0)
(-1.32714 0.469875 0)
(-1.19228 0.332624 0)
(-1.33285 -0.342199 0)
(-1.80074 0.410347 0)
(-1.43682 -0.298743 0)
(-1.26972 -0.0334046 0)
(-1.57478 0.278143 0)
(-1.11448 0.426787 0)
(-1.37105 -0.139492 0)
(-1.59228 -0.240402 0)
(-1.03805 0.250191 0)
(-1.05537 0.273506 0)
(-1.54051 -0.270358 0)
(-1.14375 0.441549 0)
(-1.3284 -0.157691 0)
(-1.4673 0.466437 0)
(-1.52825 -0.0946374 0)
(-1.34359 0.237816 0)
(-1.80811 -0.252459 0)
(-1.3657 0.248085 0)
(-1.50259 0.469359 0)
(-1.78308 -0.273272 0)
(-1.5098 -0.100449 0)
(-2.20428 -0.134485 0)
(-1.80131 0.0789124 0)
(-1.78253 0.0852222 0)
(-1.97239 0.424728 0)
(-0.971686 -0.0738064 0)
(-1.40629 0.284591 0)
(-1.07958 -0.289899 0)
(-1.59018 0.367932 0)
(-0.923754 -0.0440857 0)
(-1.72101 0.0835056 0)
(-0.904275 0.177825 0)
(-1.49971 0.0795674 0)
(-1.55485 0.464618 0)
(-1.41216 0.234343 0)
(-1.53975 -0.0838282 0)
(-1.82431 -0.263753 0)
(-1.02735 -0.0534563 0)
(-1.81478 0.0920908 0)
(-1.00516 0.189374 0)
(-1.57138 0.0868737 0)
(-1.09263 -0.0420798 0)
(-1.61575 0.0757166 0)
(-1.87895 0.0755764 0)
(-1.07595 0.216032 0)
(-1.87169 0.102991 0)
(-1.71882 -0.122661 0)
(-1.6613 0.282213 0)
(-2.27057 0.139417 0)
(-0.897293 0.0361896 0)
(-1.67461 0.24476 0)
(-1.47156 0.197221 0)
(-0.960988 -0.188451 0)
(-2.62032 -0.0683562 0)
(-1.89135 0.0299393 0)
(-2.54727 0.526243 0)
(-2.48667 0.0665138 0)
(-2.74318 -0.101968 0)
(-2.7034 0.523574 0)
(-1.8502 0.0695171 0)
(-2.49119 0.0711126 0)
(-1.08291 0.0135873 0)
(-1.56317 0.236837 0)
(-1.18383 -0.242603 0)
(-1.79231 0.315071 0)
(-1.60003 0.472776 0)
(-1.44804 0.241389 0)
(-1.54046 -0.0766997 0)
(-1.82734 -0.267894 0)
(-1.14169 -0.208487 0)
(-1.5723 0.212193 0)
(-1.80536 0.276923 0)
(-1.05698 0.0474263 0)
(-1.86736 0.0983721 0)
(-1.72121 -0.103047 0)
(-1.6661 0.294735 0)
(-2.26613 0.133279 0)
(-2.19734 -0.126111 0)
(-1.76546 0.0756548 0)
(-1.78147 0.0666391 0)
(-1.91439 0.420675 0)
(-1.58614 -0.318203 0)
(-1.43009 0.480041 0)
(-1.28955 0.299468 0)
(-1.35977 -0.14306 0)
(-0.959895 0.00647999 0)
(-1.75699 0.026289 0)
(-1.5223 0.0393478 0)
(-0.956074 0.230545 0)
(-1.17962 0.227984 0)
(-1.4843 -0.110366 0)
(-1.26946 0.440297 0)
(-1.74207 -0.227761 0)
(-1.83924 0.0989898 0)
(-1.99672 0.390304 0)
(-1.86565 0.00656928 0)
(-2.29284 -0.0718681 0)
(-1.76912 -0.0135922 0)
(-0.985316 0.0404326 0)
(-0.992478 0.264161 0)
(-1.52848 0.0120355 0)
(-1.56786 0.424462 0)
(-1.38941 0.313862 0)
(-1.22775 -0.32532 0)
(-1.08501 -0.109954 0)
(-1.58219 0.404021 0)
(-1.40038 0.304402 0)
(-1.16873 -0.315023 0)
(-1.03917 -0.0972027 0)
(-1.06432 -0.138796 0)
(-1.48228 0.437621 0)
(-1.31922 0.325627 0)
(-1.20913 -0.339902 0)
(-0.937994 0.078484 0)
(-1.71035 -0.0507465 0)
(-0.95389 0.286523 0)
(-1.48041 -0.0164499 0)
(-0.916665 -0.143283 0)
(-1.66908 0.194949 0)
(-0.865636 0.078316 0)
(-1.46633 0.162296 0)
(-0.889367 -0.00584282 0)
(-1.43483 0.225639 0)
(-1.62647 0.282617 0)
(-0.963296 -0.221915 0)
(-1.08905 -0.134502 0)
(-1.49754 0.439574 0)
(-1.23812 -0.336966 0)
(-1.33288 0.3239 0)
(-0.963103 0.0816478 0)
(-1.72726 -0.0561437 0)
(-1.49364 -0.0188667 0)
(-0.981473 0.292395 0)
(-1.56741 0.274163 0)
(-1.62306 -0.303476 0)
(-1.40408 -0.0460436 0)
(-1.7799 0.448011 0)
(-1.61149 0.265746 0)
(-1.62805 -0.2986 0)
(-1.84058 0.435418 0)
(-1.41406 -0.0237723 0)
(-1.82866 -0.184533 0)
(-1.29236 0.41805 0)
(-1.55269 -0.0792313 0)
(-1.21371 0.185363 0)
(-1.36826 -0.120536 0)
(-1.37878 0.298041 0)
(-1.54007 0.478562 0)
(-1.59484 -0.320562 0)
(-1.13581 0.0303612 0)
(-1.59841 0.227197 0)
(-1.83784 0.307185 0)
(-1.23937 -0.235862 0)
(-1.65615 0.470054 0)
(-1.61151 -0.0462824 0)
(-1.50528 0.210851 0)
(-1.92964 -0.237541 0)
(-1.7076 0.455774 0)
(-1.64938 -0.0240599 0)
(-1.55496 0.183874 0)
(-1.98256 -0.219134 0)
(-1.35907 -0.153471 0)
(-1.25817 0.459947 0)
(-1.15107 0.281589 0)
(-1.58216 -0.288641 0)
(-1.36967 0.364526 0)
(-1.32163 0.0832882 0)
(-1.68732 -0.00735793 0)
(-2.00326 -0.0783948 0)
(-1.11958 -0.117426 0)
(-1.61818 0.13474 0)
(-1.07351 0.146557 0)
(-1.87346 0.162921 0)
(-2.09738 -0.131575 0)
(-1.95253 0.0615524 0)
(-2.35323 0.237627 0)
(-1.87384 0.32251 0)
(-1.38744 0.352731 0)
(-1.71732 0.0112215 0)
(-1.35094 0.0576952 0)
(-2.04379 -0.0471299 0)
(-2.31753 0.611335 0)
(-2.52827 0.0594852 0)
(-2.02042 -0.153203 0)
(-2.58867 0.0347813 0)
(-1.17984 -0.152967 0)
(-1.29428 0.331804 0)
(-1.35657 -0.344193 0)
(-1.44966 0.471356 0)
(-1.01233 -0.278638 0)
(-1.38228 0.281756 0)
(-0.912756 -0.0688372 0)
(-1.56034 0.358621 0)
(-1.46677 0.0911802 0)
(-1.67778 0.0993556 0)
(-0.852017 0.149069 0)
(-0.873931 -0.0671824 0)
(-1.48491 -0.0715857 0)
(-1.01735 0.149575 0)
(-1.06166 0.356871 0)
(-1.72654 -0.13787 0)
(-1.70786 -0.0167276 0)
(-1.58787 0.421698 0)
(-2.05896 -0.147558 0)
(-1.4878 0.122623 0)
(-1.72761 -0.00531872 0)
(-1.581 0.414343 0)
(-2.08566 -0.12335 0)
(-1.49222 0.105301 0)
(-1.25012 -0.341067 0)
(-1.08776 -0.176232 0)
(-1.33061 0.469501 0)
(-1.19234 0.344015 0)
(-2.16003 -0.102933 0)
(-1.70099 0.415485 0)
(-1.77318 0.0219542 0)
(-1.60496 0.0807049 0)
(-0.954678 0.33906 0)
(-0.909599 0.160752 0)
(-1.40072 -0.0907629 0)
(-1.61685 -0.152984 0)
(-1.88867 1.09923 0)
(-2.94559 -0.944995 0)
(-3.12179 -0.576667 0)
(-2.72254 0.616147 0)
(-1.8114 -0.180679 0)
(-1.24783 0.411304 0)
(-1.17514 0.182679 0)
(-1.54024 -0.0823421 0)
(-1.63532 0.270943 0)
(-0.882357 0.00853738 0)
(-0.952738 -0.208601 0)
(-1.44164 0.217055 0)
(-1.98291 0.40277 0)
(-2.41433 0.209621 0)
(-2.01095 -0.0250463 0)
(-2.28753 -0.0759666 0)
(-1.62328 0.402651 0)
(-2.13608 -0.0990687 0)
(-1.76118 0.0109297 0)
(-1.54182 0.0766802 0)
(-1.29716 0.469018 0)
(-1.35561 -0.154242 0)
(-1.18202 0.289767 0)
(-1.57974 -0.298846 0)
(-1.33512 -0.130137 0)
(-1.35925 0.308404 0)
(-1.52033 0.481807 0)
(-1.55319 -0.329071 0)
(-1.17498 -0.0343338 0)
(-1.66077 0.0700262 0)
(-1.16373 0.239238 0)
(-1.94239 0.0638195 0)
(-1.85005 0.685427 0)
(-2.86655 -0.47383 0)
(-3.08923 0.0703828 0)
(-2.56879 0.360429 0)
(-1.55401 -0.322364 0)
(-1.43889 0.480836 0)
(-1.29498 0.306063 0)
(-1.33461 -0.143463 0)
(-1.15636 0.214608 0)
(-1.48854 -0.105667 0)
(-1.23978 0.426937 0)
(-1.74504 -0.214795 0)
(-1.34594 0.0809965 0)
(-1.99974 0.317931 0)
(-1.48016 -0.232289 0)
(-1.71778 0.212888 0)
(-1.06441 -0.044912 0)
(-1.69409 0.365502 0)
(-1.48855 0.274184 0)
(-1.18211 -0.282353 0)
(-1.83978 0.152041 0)
(-2.66497 0.469412 0)
(-2.64946 -0.129761 0)
(-2.47662 0.0970349 0)
(-1.00208 0.259676 0)
(-1.54584 -0.246433 0)
(-1.07556 0.426214 0)
(-1.33395 -0.148922 0)
(-2.0073 0.335043 0)
(-1.37551 0.0754983 0)
(-1.52389 -0.24254 0)
(-1.7238 0.218195 0)
(-1.1061 0.316796 0)
(-1.40664 -0.329801 0)
(-1.21928 -0.188828 0)
(-1.22084 0.465238 0)
(-1.12263 0.31303 0)
(-1.43434 -0.324099 0)
(-1.24159 -0.181961 0)
(-1.23785 0.46592 0)
(-1.94143 0.212824 0)
(-1.17217 0.127472 0)
(-1.66889 0.164048 0)
(-1.24013 -0.159578 0)
(-3.1074 0.223686 0)
(-2.82302 0.930862 0)
(-1.95033 -0.341362 0)
(-2.59083 -0.121289 0)
(-1.55601 0.477923 0)
(-1.49429 -0.332952 0)
(-1.38547 0.316049 0)
(-1.29005 -0.123791 0)
(-1.89647 0.311996 0)
(-1.20044 0.0489702 0)
(-1.3129 -0.233986 0)
(-1.6417 0.224851 0)
(-1.19841 0.121302 0)
(-1.27514 -0.170406 0)
(-1.68155 0.172007 0)
(-1.95703 0.228396 0)
(-0.929254 0.0212999 0)
(-1.48156 0.211989 0)
(-1.68623 0.266464 0)
(-1.00098 -0.206116 0)
(-1.59529 0.474256 0)
(-1.50724 -0.329091 0)
(-1.30239 -0.111785 0)
(-1.41818 0.311946 0)
(-1.14371 0.147011 0)
(-1.20142 0.380616 0)
(-1.55976 -0.0633101 0)
(-1.83037 -0.144844 0)
(-1.16721 0.132545 0)
(-1.22185 0.373535 0)
(-1.58317 -0.0523691 0)
(-1.86042 -0.130695 0)
(-1.24564 0.135972 0)
(-1.70559 0.167436 0)
(-1.32462 -0.164505 0)
(-1.99017 0.225826 0)
(-1.32238 -0.34261 0)
(-1.29588 0.332256 0)
(-1.15241 -0.150259 0)
(-1.45152 0.465813 0)
(-1.91059 0.317772 0)
(-1.35242 -0.239799 0)
(-1.23338 0.0468322 0)
(-1.65314 0.225709 0)
(-1.10184 -0.0980936 0)
(-1.61268 0.1214 0)
(-1.06228 0.162491 0)
(-1.86713 0.143437 0)
(-1.4817 -0.0623286 0)
(-0.996809 0.134815 0)
(-1.03555 0.340863 0)
(-1.71972 -0.12223 0)
(-1.59743 -0.370044 0)
(-3.64966 0.118951 0)
(-3.43775 0.953914 0)
(-2.40854 -0.202759 0)
(-1.26886 0.160106 0)
(-1.34029 -0.148338 0)
(-1.72554 0.153854 0)
(-2.02119 0.204899 0)
(-1.91106 0.362805 0)
(-1.45317 -0.269385 0)
(-1.65516 0.244726 0)
(-1.30302 0.0224612 0)
(-1.58005 0.0265932 0)
(-1.92543 0.440627 0)
(-1.69039 0.216833 0)
(-1.8613 -0.261155 0)
(-2.94196 0.128672 0)
(-2.69688 0.800451 0)
(-1.94902 -0.231532 0)
(-2.5671 -0.0428362 0)
(-1.88779 0.15303 0)
(-2.41629 -0.103192 0)
(-2.47169 0.078192 0)
(-2.45371 0.435649 0)
(-1.7167 0.228364 0)
(-1.60026 -0.258763 0)
(-1.99166 0.368207 0)
(-1.42389 0.0575448 0)
(-1.13646 -0.0011459 0)
(-1.79702 0.349861 0)
(-1.25691 -0.260335 0)
(-1.56892 0.255685 0)
(-1.87247 0.136199 0)
(-1.85325 -0.1854 0)
(-1.67304 0.209707 0)
(-2.22629 0.27937 0)
(-0.960248 -0.172285 0)
(-1.48319 0.18603 0)
(-0.900498 0.0543352 0)
(-1.68994 0.229618 0)
(-1.01035 -0.266101 0)
(-1.40029 0.2729 0)
(-1.5832 0.348511 0)
(-0.91402 -0.0536684 0)
(-1.87036 0.135125 0)
(-1.88626 -0.19475 0)
(-2.22232 0.29254 0)
(-1.68804 0.204302 0)
(-0.975477 -0.162738 0)
(-1.70959 0.219213 0)
(-1.49885 0.178242 0)
(-0.917803 0.06704 0)
(-1.4743 0.104914 0)
(-0.861688 0.136274 0)
(-1.68602 0.117516 0)
(-0.887869 -0.0848857 0)
(-1.91027 0.352393 0)
(-1.2797 0.0329632 0)
(-1.42195 -0.255907 0)
(-1.65475 0.240861 0)
(-2.4238 0.319487 0)
(-2.44444 0.0397954 0)
(-1.88037 0.268442 0)
(-2.25438 -0.141247 0)
(-1.6949 0.238614 0)
(-1.55234 -0.265481 0)
(-1.38188 0.0437461 0)
(-1.96383 0.373853 0)
(-2.01992 0.400678 0)
(-1.88414 0.100758 0)
(-1.97454 -0.0480181 0)
(-2.37244 0.0288138 0)
(-1.9141 0.650217 0)
(-2.48843 -0.387459 0)
(-2.74438 0.0350282 0)
(-2.55557 0.243891 0)
(-2.41562 0.198325 0)
(-1.99147 0.407129 0)
(-2.2531 -0.0804089 0)
(-1.99151 -0.00790834 0)
(-2.14244 0.491106 0)
(-2.0055 -0.0492215 0)
(-2.47431 0.137357 0)
(-2.37987 -0.0364901 0)
(-1.94358 -0.0547198 0)
(-1.96518 0.387117 0)
(-2.35961 0.0453148 0)
(-1.88855 0.0918343 0)
(-0.955476 -0.0439665 0)
(-1.43339 0.267019 0)
(-1.05415 -0.264557 0)
(-1.62523 0.34369 0)
(-0.973527 -0.0555904 0)
(-1.62576 0.354777 0)
(-1.43366 0.274122 0)
(-1.0774 -0.278035 0)
(-3.08523 -0.828307 0)
(-1.77075 1.05643 0)
(-3.33333 -0.297426 0)
(-2.6013 0.623466 0)
(-1.57676 0.268226 0)
(-1.80573 0.381408 0)
(-1.21184 -0.0203103 0)
(-1.35621 -0.285097 0)
(-2.04234 0.289378 0)
(-1.746 0.194505 0)
(-1.48804 -0.215091 0)
(-1.36584 0.108575 0)
(-1.00337 0.349153 0)
(-0.960085 0.158257 0)
(-1.43513 -0.0830071 0)
(-1.66118 -0.147546 0)
(-1.6586 -0.16427 0)
(-1.02514 0.366277 0)
(-1.43067 -0.0933887 0)
(-0.976553 0.176418 0)
(-1.37828 0.468349 0)
(-1.29959 -0.342642 0)
(-1.23499 0.336404 0)
(-1.13155 -0.16542 0)
(-3.58906 0.319224 0)
(-1.68209 -0.48547 0)
(-3.31606 1.16114 0)
(-2.47482 -0.265896 0)
(-1.05012 -0.250054 0)
(-1.65766 0.324217 0)
(-1.45881 0.252756 0)
(-0.957618 -0.0241239 0)
(-1.36655 0.4715 0)
(-1.22511 0.334419 0)
(-1.15662 -0.170343 0)
(-1.33005 -0.344013 0)
(-1.63881 0.223351 0)
(-0.856597 0.0435743 0)
(-0.912457 -0.172373 0)
(-1.44431 0.183447 0)
(-1.36393 0.467293 0)
(-1.26797 -0.34206 0)
(-1.22233 0.339855 0)
(-1.10421 -0.167249 0)
(-0.975229 0.33793 0)
(-1.42339 -0.081684 0)
(-0.933867 0.151924 0)
(-1.64455 -0.14288 0)
(-1.08735 0.274816 0)
(-1.56355 -0.274304 0)
(-1.18105 0.448319 0)
(-1.34583 -0.155093 0)
(-1.89089 0.115332 0)
(-2.24005 -0.0864168 0)
(-2.43971 0.0681512 0)
(-2.25636 0.426312 0)
(-1.43072 0.182613 0)
(-2.12208 0.22124 0)
(-1.52277 -0.16225 0)
(-1.79546 0.152034 0)
(-1.89753 0.099182 0)
(-1.82662 -0.128638 0)
(-2.30837 0.163558 0)
(-1.73853 0.294889 0)
(-1.71694 0.0708494 0)
(-1.75687 0.137106 0)
(-2.07908 -0.195848 0)
(-1.96934 0.426788 0)
(-1.91318 -0.111837 0)
(-1.91332 0.0868296 0)
(-2.34085 0.146742 0)
(-1.82737 0.326108 0)
(-1.96622 -0.104284 0)
(-1.91408 0.0842009 0)
(-2.36663 0.115064 0)
(-1.90989 0.349561 0)
(-1.73247 0.209192 0)
(-1.95339 -0.197403 0)
(-2.2396 0.29271 0)
(-1.88388 0.117329 0)
(-1.53358 0.459455 0)
(-1.3628 0.323355 0)
(-1.35815 -0.341213 0)
(-1.18462 -0.13216 0)
(-1.90715 -0.169857 0)
(-1.37247 0.417401 0)
(-1.28981 0.163667 0)
(-1.60901 -0.059916 0)
(-1.75503 0.0888194 0)
(-1.79663 0.102873 0)
(-2.14578 -0.171368 0)
(-2.00176 0.416748 0)
(-1.63154 0.477154 0)
(-1.45497 0.285272 0)
(-1.41745 -0.0933613 0)
(-1.65826 -0.31201 0)
(-1.64892 -0.0450514 0)
(-1.56687 0.44497 0)
(-1.9764 -0.198023 0)
(-1.44889 0.171953 0)
(-1.78589 -0.0949518 0)
(-1.04739 0.112672 0)
(-1.08141 0.336186 0)
(-1.53298 -0.0400549 0)
(-2.13717 0.244398 0)
(-1.46285 0.172787 0)
(-1.57258 -0.180174 0)
(-1.80692 0.160288 0)
(-2.02896 0.27543 0)
(-1.44125 -0.204906 0)
(-1.73483 0.19055 0)
(-1.33084 0.114041 0)
(-1.30068 0.140458 0)
(-1.37441 0.406839 0)
(-1.64022 -0.0452227 0)
(-1.94876 -0.144999 0)
(-1.41428 0.235295 0)
(-0.876562 -0.0180589 0)
(-1.59979 0.295122 0)
(-0.953109 -0.228334 0)
(-0.892119 -0.133196 0)
(-0.848162 0.0933341 0)
(-1.65454 0.17847 0)
(-1.45554 0.150684 0)
(-1.65251 -0.316202 0)
(-1.4926 0.285333 0)
(-1.41472 -0.0825672 0)
(-1.68274 0.474637 0)
(-1.56013 0.453429 0)
(-1.6199 -0.0550825 0)
(-1.93614 -0.214957 0)
(-1.43596 0.191707 0)
(-1.19753 0.0868013 0)
(-1.93512 0.273603 0)
(-1.29323 -0.20325 0)
(-1.66762 0.200621 0)
(-1.61299 0.201113 0)
(-1.85917 0.265774 0)
(-1.20156 -0.199232 0)
(-1.11612 0.0684855 0)
(-1.92362 0.116992 0)
(-1.65176 0.103306 0)
(-1.16326 -0.0781241 0)
(-1.13301 0.194052 0)
(-1.44867 0.278507 0)
(-1.68976 -0.311024 0)
(-1.62277 0.477487 0)
(-1.4409 -0.0951187 0)
(-1.10055 0.204495 0)
(-1.172 0.410327 0)
(-1.72099 -0.198635 0)
(-1.47316 -0.103354 0)
(-1.2275 0.335927 0)
(-1.02474 -0.157346 0)
(-1.36722 0.444409 0)
(-1.16748 -0.33948 0)
(-2.41968 0.216676 0)
(-2.07263 -0.0867803 0)
(-1.95618 0.412746 0)
(-2.36624 -0.0267463 0)
(-1.28183 -0.153535 0)
(-1.41846 0.47874 0)
(-1.48563 -0.331903 0)
(-1.27427 0.316931 0)
(-1.89889 0.352329 0)
(-2.41122 0.00231342 0)
(-2.41227 0.250372 0)
(-2.14786 -0.134416 0)
(-2.35537 0.252037 0)
(-1.91131 0.33583 0)
(-1.98534 0.00956389 0)
(-2.22452 -0.108645 0)
(-1.61945 -0.0902233 0)
(-0.876417 0.109679 0)
(-1.4097 -0.0478549 0)
(-0.901031 0.292846 0)
(-2.35094 0.442679 0)
(-1.91364 0.0444373 0)
(-2.42557 -0.117308 0)
(-2.47448 0.0849756 0)
(-2.46181 0.207155 0)
(-1.93324 0.427036 0)
(-2.16527 -0.156229 0)
(-2.43942 0.0246463 0)
(-1.88734 0.353125 0)
(-2.42201 0.267877 0)
(-2.42132 0.0200948 0)
(-2.17138 -0.139053 0)
(-1.78039 0.196858 0)
(-1.70434 -0.242933 0)
(-2.08398 0.345911 0)
(-1.5175 0.103841 0)
(-1.32343 0.320409 0)
(-1.03271 -0.132585 0)
(-1.48727 0.424272 0)
(-1.16789 -0.334204 0)
(-0.926397 0.265138 0)
(-1.47406 0.000271523 0)
(-1.6989 -0.0254811 0)
(-0.91807 0.0583863 0)
(-1.93424 0.0718939 0)
(-2.05273 -0.110257 0)
(-2.38033 0.171285 0)
(-1.91988 0.363839 0)
(-1.67253 -0.229807 0)
(-1.18505 0.427447 0)
(-1.43362 -0.123074 0)
(-1.10366 0.232804 0)
(-1.35775 0.476229 0)
(-1.29748 -0.159412 0)
(-1.2268 0.310559 0)
(-1.50585 -0.322144 0)
(-1.95646 0.0408598 0)
(-2.16101 -0.104786 0)
(-1.98706 0.385749 0)
(-2.40966 0.175743 0)
(-1.26782 0.0873415 0)
(-1.66667 -0.0139886 0)
(-1.31273 0.360978 0)
(-1.97372 -0.081491 0)
(-1.67153 -0.0349843 0)
(-1.50361 0.418824 0)
(-2.00003 -0.1586 0)
(-1.40965 0.139155 0)
(-1.53445 0.288963 0)
(-1.7418 0.456425 0)
(-1.36212 -0.0651701 0)
(-1.57321 -0.316291 0)
(-1.70704 -0.215952 0)
(-1.19364 0.419537 0)
(-1.11474 0.217413 0)
(-1.46133 -0.112419 0)
(-1.30067 -0.153015 0)
(-1.51025 -0.324339 0)
(-1.26046 0.312843 0)
(-1.39841 0.479401 0)
(-1.74028 0.429287 0)
(-1.74153 0.0165645 0)
(-1.6205 0.110445 0)
(-2.12118 -0.140738 0)
(-1.48989 0.469086 0)
(-1.19882 -0.142609 0)
(-1.32813 0.32759 0)
(-1.37842 -0.341324 0)
(-0.986266 -0.00685702 0)
(-1.54519 0.0512189 0)
(-1.78616 0.0423757 0)
(-0.978629 0.225502 0)
(-1.99255 0.103666 0)
(-1.69843 0.0950469 0)
(-1.2168 0.221307 0)
(-1.24417 -0.0696653 0)
(-1.64584 -0.0441096 0)
(-1.49969 0.430597 0)
(-1.40026 0.160972 0)
(-1.96557 -0.174352 0)
(-1.49693 0.472731 0)
(-1.23017 -0.140755 0)
(-1.33501 0.32447 0)
(-1.41807 -0.339621 0)
(-1.06031 -0.216136 0)
(-0.979758 0.0221109 0)
(-1.72627 0.282204 0)
(-1.512 0.220958 0)
(-1.35807 0.271528 0)
(-1.45598 -0.110769 0)
(-1.7131 -0.289813 0)
(-1.50071 0.477961 0)
(-0.967491 0.00748148 0)
(-1.05212 -0.225265 0)
(-1.69989 0.29728 0)
(-1.49208 0.232001 0)
(-1.08869 0.354139 0)
(-1.51045 -0.0618428 0)
(-1.04557 0.138767 0)
(-1.7593 -0.126959 0)
(-1.81238 0.18036 0)
(-1.7424 -0.221092 0)
(-1.55858 0.138462 0)
(-2.12856 0.326033 0)
(-1.90304 -0.181518 0)
(-1.39547 0.434185 0)
(-1.30669 0.17991 0)
(-1.60173 -0.0640333 0)
(-1.24746 -0.0542484 0)
(-1.41429 -0.307061 0)
(-1.75002 0.417845 0)
(-1.53626 0.286203 0)
(-1.39938 0.454594 0)
(-1.52958 -0.095508 0)
(-1.29134 0.226027 0)
(-1.80721 -0.234759 0)
(-1.34629 0.318604 0)
(-1.51522 0.421026 0)
(-1.02573 -0.122174 0)
(-1.15885 -0.328374 0)
(-1.67483 -0.306709 0)
(-1.52712 0.27613 0)
(-1.43519 -0.0655477 0)
(-1.72356 0.466575 0)
(-1.40563 0.396243 0)
(-1.66339 -0.0327034 0)
(-1.33483 0.122906 0)
(-1.97922 -0.129619 0)
(-1.12358 0.367839 0)
(-1.51831 -0.067593 0)
(-1.07423 0.149556 0)
(-1.77208 -0.139773 0)
(-1.62217 0.397024 0)
(-1.18405 -0.310364 0)
(-1.05522 -0.0848549 0)
(-1.43143 0.297358 0)
(-1.4879 0.0128271 0)
(-1.71502 -0.00898303 0)
(-0.926839 0.250369 0)
(-0.922228 0.0384053 0)
(-1.93543 0.00164163 0)
(-1.18949 0.288415 0)
(-1.17902 0.0218037 0)
(-1.65083 0.030769 0)
(-2.28914 -0.0733268 0)
(-2.02034 -0.0163415 0)
(-1.87261 0.302946 0)
(-2.31685 0.299198 0)
(-2.3702 -0.0166892 0)
(-1.93201 0.396163 0)
(-2.08807 -0.0837622 0)
(-2.40955 0.241246 0)
(-1.96942 -0.0391207 0)
(-1.23323 0.04938 0)
(-1.26058 0.323567 0)
(-1.67026 0.00856308 0)
(-1.07021 -0.186139 0)
(-1.7729 0.245318 0)
(-1.00015 0.060515 0)
(-1.54688 0.193787 0)
(-1.16592 0.326406 0)
(-1.19951 -0.183376 0)
(-1.38299 -0.340081 0)
(-1.29411 0.471531 0)
(-1.12833 -0.244174 0)
(-1.51405 0.245679 0)
(-1.72652 0.321675 0)
(-1.02992 -0.00448098 0)
(-1.93042 0.0693069 0)
(-2.38249 0.160197 0)
(-2.05212 -0.101963 0)
(-1.92976 0.36827 0)
(-2.33521 -0.0835463 0)
(-2.21467 0.457843 0)
(-1.93375 0.0265583 0)
(-2.45869 0.111697 0)
(-1.17008 -0.254747 0)
(-1.74363 0.335765 0)
(-1.06298 -0.00951178 0)
(-1.5267 0.252738 0)
(-1.05317 0.394591 0)
(-1.40752 -0.113709 0)
(-0.995066 0.209962 0)
(-1.63404 -0.194981 0)
(-1.38563 -0.124831 0)
(-1.0593 0.404155 0)
(-1.60728 -0.211099 0)
(-0.996564 0.22597 0)
(-1.19225 0.329618 0)
(-1.37249 -0.343647 0)
(-1.32687 0.473298 0)
(-1.19102 -0.179506 0)
(-1.17628 0.0980648 0)
(-1.92708 0.254042 0)
(-1.26212 -0.18765 0)
(-1.6614 0.189404 0)
(-1.38786 0.300802 0)
(-1.56674 0.393973 0)
(-1.00418 -0.0975596 0)
(-1.12565 -0.311308 0)
(-2.27088 0.639107 0)
(-2.60695 0.0632845 0)
(-2.06736 -0.20398 0)
(-2.55238 0.0518703 0)
(-1.40925 0.290686 0)
(-0.998299 -0.0830255 0)
(-1.59413 0.37911 0)
(-1.11352 -0.301714 0)
(-1.55147 -0.290165 0)
(-1.11474 0.285189 0)
(-1.33511 -0.161082 0)
(-1.21735 0.457717 0)
(-1.5652 0.454946 0)
(-1.38989 0.318434 0)
(-1.37427 -0.335206 0)
(-1.2003 -0.121196 0)
(-1.4889 -0.278456 0)
(-1.01847 0.279881 0)
(-1.10471 0.438226 0)
(-1.28783 -0.168811 0)
(-1.73102 0.0415495 0)
(-0.922665 0.21484 0)
(-1.50411 0.049567 0)
(-0.930918 -0.00471138 0)
(-0.924756 0.197915 0)
(-1.73971 0.0667604 0)
(-0.94008 -0.026087 0)
(-1.51244 0.0674041 0)
(-1.80959 -0.0846307 0)
(-1.55205 -0.0316341 0)
(-1.07228 0.102299 0)
(-1.10442 0.330899 0)
(-1.43457 -0.308151 0)
(-1.24281 -0.182607 0)
(-1.16072 0.457105 0)
(-1.05955 0.304545 0)
(-1.50476 0.106736 0)
(-0.934423 -0.0823795 0)
(-0.90482 0.145433 0)
(-1.72489 0.120234 0)
(-0.940109 -0.065545 0)
(-1.73645 0.102501 0)
(-0.91544 0.16248 0)
(-1.51224 0.0939008 0)
(-2.00101 0.128545 0)
(-1.70608 0.109711 0)
(-1.22409 0.207807 0)
(-1.26112 -0.0885432 0)
(-1.50202 -0.310321 0)
(-1.31164 -0.0545409 0)
(-1.7617 0.439947 0)
(-1.54759 0.289017 0)
(-1.84475 0.127293 0)
(-1.71959 0.149933 0)
(-2.03577 -0.196125 0)
(-2.12825 0.377068 0)
(-1.19592 0.264208 0)
(-1.65882 -0.273384 0)
(-1.30374 0.458156 0)
(-1.41876 -0.135761 0)
(-1.36656 0.304602 0)
(-1.54116 0.396752 0)
(-1.10849 -0.317214 0)
(-0.988705 -0.10734 0)
(-1.48801 0.0444141 0)
(-1.71095 0.0358392 0)
(-0.907993 0.00337799 0)
(-0.900867 0.218087 0)
(-1.87422 0.117153 0)
(-2.18113 0.359463 0)
(-1.73962 0.182671 0)
(-2.04712 -0.188507 0)
(-1.20188 0.25281 0)
(-1.6973 -0.261625 0)
(-1.30639 0.455301 0)
(-1.44817 -0.12754 0)
(-1.50345 -0.3158 0)
(-1.2958 -0.169049 0)
(-1.27926 0.471082 0)
(-1.16126 0.305961 0)
(-2.1973 -0.0772328 0)
(-1.74498 0.408106 0)
(-1.7975 0.0403196 0)
(-1.65606 0.0591303 0)
(-1.87669 0.383068 0)
(-1.45771 -0.279228 0)
(-1.63143 0.256673 0)
(-1.29776 0.00406258 0)
(-2.40445 0.298389 0)
(-2.42862 0.031273 0)
(-1.87708 0.280687 0)
(-2.22028 -0.141033 0)
(-1.76349 0.203062 0)
(-1.019 -0.152459 0)
(-0.963775 0.0893694 0)
(-1.5384 0.165278 0)
(-1.23297 0.0689651 0)
(-1.95651 -0.0582044 0)
(-1.26625 0.33813 0)
(-1.65847 -0.00377313 0)
(-0.996773 0.137302 0)
(-1.56664 0.129911 0)
(-1.03795 -0.108574 0)
(-1.80325 0.154087 0)
(-1.51721 -0.315018 0)
(-1.32181 -0.0645439 0)
(-1.73714 0.44619 0)
(-1.52896 0.291563 0)
(-1.02258 0.158529 0)
(-1.58445 0.115955 0)
(-1.058 -0.0913092 0)
(-1.82817 0.134591 0)
(-1.71748 0.0204892 0)
(-1.3592 0.332057 0)
(-1.33173 0.0374292 0)
(-2.03875 -0.0281861 0)
(-1.84719 0.428391 0)
(-1.3871 -0.0171022 0)
(-1.61541 0.267125 0)
(-1.59017 -0.293404 0)
(-1.18906 -0.26983 0)
(-1.07609 -0.0251613 0)
(-1.73151 0.347917 0)
(-1.51757 0.260689 0)
(-1.8043 0.261984 0)
(-2.29025 0.2732 0)
(-2.04121 -0.160487 0)
(-1.92229 0.0854864 0)
(-2.28495 -0.0832879 0)
(-1.85227 0.255573 0)
(-2.26496 0.323806 0)
(-1.99914 -0.00968404 0)
(-1.82967 0.112249 0)
(-1.02343 0.177254 0)
(-1.05184 -0.0706752 0)
(-1.58422 0.100989 0)
(-2.2875 0.286851 0)
(-1.84123 0.261166 0)
(-2.13406 -0.159012 0)
(-1.93472 0.0582018 0)
(-1.02056 -0.152409 0)
(-1.39948 0.441648 0)
(-1.25327 0.333773 0)
(-1.15989 -0.339566 0)
(-0.922455 -0.00809057 0)
(-1.64987 0.297288 0)
(-1.00349 -0.229899 0)
(-1.45343 0.234413 0)
(-0.931203 -0.0205706 0)
(-1.64492 0.312047 0)
(-1.44891 0.245258 0)
(-1.01748 -0.24315 0)
(-1.70446 0.183422 0)
(-0.943764 -0.135305 0)
(-0.896789 0.0939808 0)
(-1.493 0.153139 0)
(-1.71433 0.1651 0)
(-0.898427 0.10995 0)
(-1.49923 0.139478 0)
(-0.940082 -0.120529 0)
(-0.952918 -0.0839218 0)
(-1.39121 0.292243 0)
(-1.06157 -0.298502 0)
(-1.57339 0.37604 0)
(-1.86989 -0.163816 0)
(-1.89394 0.127632 0)
(-2.26532 0.263291 0)
(-1.69898 0.245638 0)
(-1.64024 -0.0716723 0)
(-0.879639 0.0933984 0)
(-1.42688 -0.0341107 0)
(-0.901147 0.283724 0)
(-0.880497 0.180177 0)
(-1.71136 0.0778684 0)
(-0.898501 -0.0405937 0)
(-1.49089 0.0751653 0)
(-1.30271 0.471265 0)
(-1.32529 -0.159741 0)
(-1.18412 0.299299 0)
(-1.54106 -0.307991 0)
(-1.80331 0.430914 0)
(-1.74465 0.0263121 0)
(-1.66247 0.111278 0)
(-2.13011 -0.155155 0)
(-1.87616 0.151672 0)
(-2.04505 -0.0686053 0)
(-2.17407 0.35878 0)
(-2.37977 -0.0197847 0)
(-1.4718 0.0549423 0)
(-1.6892 0.0521011 0)
(-0.879452 -0.00587094 0)
(-0.867445 0.205736 0)
(-1.52847 0.386988 0)
(-0.955567 -0.109095 0)
(-1.06776 -0.317294 0)
(-1.35509 0.301202 0)
(-2.32358 -0.0675515 0)
(-1.86403 0.261004 0)
(-2.28322 0.311447 0)
(-2.02909 -0.0404662 0)
(-2.3541 0.223122 0)
(-2.07253 -0.130759 0)
(-1.94123 0.0643434 0)
(-1.87339 0.32508 0)
(-1.88487 0.35059 0)
(-1.63618 0.244612 0)
(-1.37619 -0.255189 0)
(-1.24096 0.025859 0)
(-1.21913 0.446287 0)
(-1.39742 -0.140331 0)
(-1.125 0.259637 0)
(-1.62928 -0.261327 0)
(-1.73978 0.244088 0)
(-0.962493 0.0524901 0)
(-1.03018 -0.186586 0)
(-1.52152 0.194671 0)
(-1.75302 0.184669 0)
(-0.945691 0.0981987 0)
(-0.994153 -0.140754 0)
(-1.52961 0.152856 0)
(-1.2582 0.455503 0)
(-1.39183 -0.143551 0)
(-1.15556 0.269094 0)
(-1.62376 -0.27425 0)
(-1.41601 -0.127748 0)
(-1.15284 0.425654 0)
(-1.65 -0.23075 0)
(-1.07479 0.23578 0)
(-1.87779 0.20299 0)
(-2.46374 0.0710541 0)
(-2.36587 -0.138196 0)
(-2.4552 0.380662 0)
(-1.81649 0.458634 0)
(-1.56331 -0.0153961 0)
(-1.61189 0.229207 0)
(-1.85047 -0.269134 0)
(-1.84927 0.456831 0)