/*--------------------------------*- C++ -*----------------------------------*\
| =========                 |                                                 |
| \\      /  F ield         | foam-extend: Open Source CFD                    |
|  \\    /   O peration     | Version:  3.0                                   |
|   \\  /    A nd           | Web:         http://www.extend-project.de       |
|    \\/     M anipulation  |                                                 |
\*---------------------------------------------------------------------------*/
FoamFile
{
    version     2.0;
    format      ascii;
    class       volVectorField;
    location    "70";
    object      u;
}
// * * * * * * * * * * * * * * * * * * * * * * * * * * * * * * * * * * * * * //

dimensions      [0 0 0 0 0 0 0];

internalField   nonuniform List<vector> 
7680
(
(0.139757 -0.0252091 4.72134e-17)
(0.132467 -0.0192601 6.36357e-17)
(0.351798 -0.0166116 -6.60627e-17)
(0.325074 -0.012006 5.60923e-17)
(0.502415 -0.0107707 -4.5754e-17)
(0.467958 -0.00682174 3.65577e-17)
(0.613177 -0.0062139 -2.61376e-17)
(0.576048 -0.00292518 -5.49051e-20)
(0.69702 -0.00255826 -3.32747e-17)
(0.659184 0.000143602 -5.17968e-18)
(0.761977 0.000444239 -4.0323e-17)
(0.724061 0.00265089 4.43878e-17)
(0.813246 0.00296856 -5.70778e-17)
(0.775338 0.00477205 5.16558e-17)
(0.854323 0.00514754 -3.09336e-17)
(0.816308 0.00663442 6.43497e-17)
(0.887636 0.0070917 -5.15373e-17)
(0.849323 0.00833347 8.56947e-17)
(0.914919 0.00888171 -6.32477e-17)
(0.876096 0.00992728 7.99932e-17)
(0.93745 0.0105559 -7.29952e-17)
(0.897888 0.0114326 8.22581e-17)
(0.956178 0.0121131 -6.65679e-17)
(0.915634 0.0128478 8.6858e-17)
(0.971811 0.0135406 -6.1735e-17)
(0.930036 0.0142006 6.40889e-17)
(0.984886 0.0148195 -3.41714e-17)
(0.941644 0.0155641 4.4756e-17)
(0.995791 0.0158542 -2.95263e-17)
(0.950924 0.0170255 2.58762e-17)
(1.00476 0.0164383 -1.54321e-17)
(0.958323 0.0186422 1.6156e-17)
(1.01185 0.0164465 -4.09301e-18)
(0.964337 0.0202828 4.2371e-18)
(1.01696 0.0160677 2.14779e-17)
(0.969638 0.0214489 -1.33693e-17)
(1.01938 0.0162262 3.88648e-17)
(0.975862 0.0218361 -2.80115e-17)
(1.01766 0.0103813 3.86198e-17)
(0.983727 0.0645451 -2.11378e-17)
(0.143777 -0.0888302 -3.17269e-17)
(0.135864 -0.0751766 -6.93851e-17)
(0.35489 -0.0682245 9.22546e-17)
(0.32757 -0.0555648 -5.38181e-17)
(0.504866 -0.0524474 2.76799e-17)
(0.469876 -0.0414061 -3.29104e-18)
(0.615159 -0.0400724 3.01824e-17)
(0.577573 -0.0308553 3.42811e-17)
(0.698635 -0.0302368 5.46742e-17)
(0.660409 -0.0227106 5.27732e-17)
(0.763297 -0.0223081 2.87277e-17)
(0.725041 -0.0162296 -1.23848e-17)
(0.814321 -0.0158237 3.05222e-17)
(0.776113 -0.0109274 -2.35056e-17)
(0.855184 -0.0104213 -2.05076e-17)
(0.816901 -0.00646701 -5.98046e-17)
(0.888297 -0.0058154 5.41244e-17)
(0.84975 -0.00261361 -1.2012e-16)
(0.915382 -0.00179272 9.37486e-17)
(0.876357 0.000789739 -1.15379e-16)
(0.937698 0.00178437 7.93284e-17)
(0.897966 0.00382497 -9.79906e-17)
(0.956182 0.00497709 5.74291e-17)
(0.91551 0.00652547 -1.04398e-16)
(0.971544 0.00780867 3.93566e-17)
(0.929703 0.0089505 -5.55096e-17)
(0.984327 0.0102977 -1.27824e-17)
(0.941097 0.0112451 -2.31729e-17)
(0.994906 0.0123844 -2.697e-17)
(0.950131 0.0136267 1.01615e-17)
(1.0035 0.013809 -2.75076e-17)
(0.957211 0.0163681 1.6537e-17)
(1.01022 0.0142366 -2.13603e-17)
(0.962785 0.019812 2.56062e-18)
(1.01508 0.0134413 -2.44776e-17)
(0.967566 0.0244861 -4.25252e-18)
(1.01775 0.010995 -2.13069e-19)
(0.973017 0.0313855 -3.26227e-18)
(1.01881 -0.00134598 -1.47913e-17)
(0.975919 0.0778938 1.76607e-17)
(0.151781 -0.152238 5.36509e-18)
(0.142663 -0.128357 5.14078e-17)
(0.361055 -0.117328 -1.70973e-16)
(0.332738 -0.0965113 1.16046e-16)
(0.509666 -0.0917473 -8.2347e-17)
(0.473831 -0.0738516 1.12578e-17)
(0.618885 -0.0719901 -1.03101e-16)
(0.580613 -0.0571499 4.40612e-18)
(0.701512 -0.056429 -1.24379e-16)
(0.662755 -0.0444023 -5.57174e-17)
(0.76551 -0.0439861 -6.22729e-17)
(0.726857 -0.0343657 2.23434e-17)
(0.816013 -0.0338871 -3.24408e-17)
(0.777513 -0.0262382 2.17597e-17)
(0.856463 -0.0255436 5.53067e-17)
(0.817969 -0.0194783 8.60759e-17)
(0.889247 -0.0184989 -6.02168e-17)
(0.850549 -0.0137081 1.64643e-16)
(0.916074 -0.0124102 -1.4498e-16)
(0.876937 -0.00866532 1.49905e-16)
(0.938193 -0.00704066 -1.03041e-16)
(0.898375 -0.00418344 1.56159e-16)
(0.95654 -0.0022477 -1.07494e-16)
(0.915789 -0.000157054 1.73817e-16)
(0.971817 0.00205391 -6.49845e-17)
(0.929868 0.00352877 1.26061e-16)
(0.984546 0.00591486 -1.95447e-17)
(0.941135 0.00705184 7.46667e-17)
(0.995103 0.00928183 1.37677e-17)
(0.950015 0.0106251 1.60429e-17)
(1.00373 0.0119283 1.04296e-17)
(0.956911 0.0143954 1.70794e-17)
(1.0105 0.0136343 1.53001e-17)
(0.962279 0.0183058 2.96868e-18)
(1.01518 0.014225 2.53865e-17)
(0.967052 0.0222626 -1.57819e-17)
(1.01648 0.0136512 3.3303e-17)
(0.973655 0.0254257 -2.33473e-17)
(1.01367 0.00858758 3.8267e-17)
(0.977394 0.0665405 -2.04114e-17)
(0.1641 -0.214745 5.28862e-17)
(0.153221 -0.183393 -7.76939e-17)
(0.370815 -0.168134 3.45495e-16)
(0.340803 -0.139375 -2.33637e-16)
(0.517477 -0.13275 1.4881e-16)
(0.480167 -0.107881 1.41907e-17)
(0.625207 -0.105299 1.3504e-16)
(0.585692 -0.0846399 1.34498e-17)
(0.706668 -0.0836696 8.25575e-17)
(0.666882 -0.0669147 4.56699e-17)
(0.769733 -0.0663979 1.24058e-16)
(0.730234 -0.0529864 -5.98268e-17)
(0.819475 -0.0524185 3.82748e-17)
(0.780279 -0.0417469 -3.08851e-17)
(0.859289 -0.040919 -6.60461e-17)
(0.820224 -0.0324523 -4.76909e-17)
(0.89153 -0.0312732 2.25228e-17)
(0.852364 -0.0245896 -1.75968e-16)
(0.917881 -0.023011 1.82775e-16)
(0.878371 -0.0178045 -1.83711e-16)
(0.939579 -0.0158021 1.0625e-16)
(0.899475 -0.0118673 -1.65885e-16)
(0.957553 -0.00943755 8.44009e-17)
(0.916598 -0.00662757 -1.15573e-16)
(0.972504 -0.00377951 -2.86311e-17)
(0.930424 -0.00192613 -6.42646e-17)
(0.984961 0.00127055 -7.05039e-17)
(0.941461 0.00247914 -3.67053e-18)
(0.995316 0.00568969 -1.01529e-16)
(0.950091 0.00692036 4.63968e-17)
(1.00385 0.00921304 -6.15922e-17)
(0.956629 0.0118115 2.00697e-17)
(1.01073 0.0114281 -9.65769e-17)
(0.961363 0.0177966 1.22219e-16)
(1.01586 0.0115411 -1.15926e-16)
(0.964866 0.0265572 4.71702e-17)
(1.01838 0.00740724 5.00799e-18)
(0.969042 0.0388619 -4.13272e-17)
(1.01807 -0.0049887 2.53831e-17)
(0.969577 0.0780946 -7.38083e-17)
(0.180284 -0.276547 -1.18377e-16)
(0.166981 -0.235134 -2.80706e-17)
(0.383395 -0.215919 -5.30851e-16)
(0.351356 -0.179242 3.29724e-16)
(0.527441 -0.171029 -1.98179e-16)
(0.48841 -0.139489 -6.09202e-17)
(0.633153 -0.1364 -2.13961e-16)
(0.592232 -0.11026 4.40407e-17)
(0.713034 -0.109195 -7.91197e-17)
(0.672134 -0.0880491 -1.42425e-17)
(0.774852 -0.0875212 -1.50881e-16)
(0.734488 -0.0706498 4.49359e-17)
(0.8236 -0.0700121 2.44204e-17)
(0.78374 -0.0566466 -6.12582e-18)
(0.862612 -0.0556358 1.11949e-16)
(0.823041 -0.0450965 -5.13573e-17)
(0.894196 -0.0436004 6.5325e-17)
(0.854647 -0.0353487 5.2158e-17)
(0.919998 -0.0333108 -6.23562e-17)
(0.880196 -0.0269473 8.30694e-17)
(0.941228 -0.0243399 -1.27261e-17)
(0.900898 -0.0195827 1.75607e-16)
(0.958792 -0.0164012 -9.00515e-17)
(0.917652 -0.01304 1.0086e-16)
(0.973374 -0.0092992 4.73644e-17)
(0.931117 -0.00711532 9.57707e-17)
(0.985491 -0.00290151 2.49887e-17)
(0.941766 -0.00154942 3.74781e-17)
(0.995549 0.00279039 1.25716e-16)
(0.949943 0.00395626 -2.51028e-17)
(1.00389 0.00757555 7.30477e-17)
(0.955898 0.00965446 1.19669e-17)
(1.0108 0.0112174 4.10202e-18)
(0.959818 0.0157388 1.44299e-17)
(1.0166 0.0131289 4.69813e-17)
(0.96191 0.0230694 -4.32372e-17)
(1.02171 0.0120352 3.80679e-17)
(0.962864 0.0302174 -3.98415e-17)
(1.02707 0.00885471 5.61784e-17)
(0.957135 0.0633406 5.74245e-17)
(0.200662 -0.336869 2.10428e-16)
(0.184556 -0.28837 2.06975e-16)
(0.39963 -0.265066 5.94831e-16)
(0.364863 -0.220703 -2.14207e-16)
(0.540451 -0.210682 1.83068e-16)
(0.499049 -0.172409 1.10407e-16)
(0.643678 -0.168618 2.65653e-16)
(0.600772 -0.136867 -8.27469e-17)
(0.721611 -0.135556 4.56789e-17)
(0.679084 -0.109856 -5.39441e-18)
(0.781876 -0.109227 2.97275e-16)
(0.740192 -0.0887085 -1.50541e-16)
(0.829368 -0.0879801 1.17643e-16)
(0.788444 -0.0717128 -1.58458e-16)
(0.86735 -0.0705675 -1.51162e-17)
(0.826923 -0.0577302 -1.18595e-16)
(0.898075 -0.0560317 1.56682e-16)
(0.857844 -0.0459786 -1.68908e-16)
(0.923154 -0.0436541 1.50029e-16)
(0.882822 -0.0359127 -1.00554e-16)
(0.943777 -0.0329165 2.46354e-17)
(0.903051 -0.0271596 -1.71003e-16)
(0.96084 -0.023462 2.96715e-17)
(0.919423 -0.0194551 1.80487e-17)
(0.975029 -0.0150321 -1.69889e-16)
(0.932585 -0.0125492 3.86133e-17)
(0.986871 -0.00743051 -1.40526e-16)
(0.942986 -0.00613299 3.27411e-17)
(0.996806 -0.000600479 -2.14767e-16)
(0.950916 0.000168427 4.59224e-17)
(1.00525 0.00527611 -2.12687e-16)
(0.956526 0.00677872 1.07706e-16)
(1.01258 0.00986484 -1.82094e-16)
(0.959809 0.0142794 1.29964e-16)
(1.01921 0.012284 -2.19652e-16)
(0.960461 0.0241955 9.22273e-17)
(1.02573 0.0103763 -8.50591e-18)
(0.958572 0.0360346 -7.33142e-17)
(1.0323 0.0025559 1.04823e-17)
(0.950822 0.0731524 -1.3229e-16)
(0.224762 -0.396012 -2.58015e-16)
(0.205019 -0.337767 -3.7095e-16)
(0.418407 -0.310699 -5.14816e-16)
(0.380609 -0.258786 2.29168e-17)
(0.555408 -0.247263 -1.86105e-16)
(0.511426 -0.202614 3.97098e-17)
(0.6557 -0.198347 -3.17599e-16)
(0.610677 -0.161354 1.68669e-16)
(0.731338 -0.159957 -2.59436e-17)
(0.687123 -0.130054 -7.36208e-17)
(0.789788 -0.129417 -2.69567e-16)
(0.746781 -0.105583 7.68071e-17)
(0.835827 -0.104791 -1.09759e-17)
(0.793875 -0.0859384 1.85482e-16)
(0.872626 -0.0846206 4.01331e-17)
(0.831407 -0.0697917 6.37441e-20)
(0.902369 -0.0677942 -3.25684e-17)
(0.86153 -0.0562323 -9.90411e-18)
(0.926611 -0.0534753 -5.83998e-17)
(0.885815 -0.0446214 -1.0489e-17)
(0.946498 -0.0410558 -1.85983e-17)
(0.90542 -0.0345165 7.48579e-17)
(0.962891 -0.0301086 3.02358e-17)
(0.921209 -0.0256014 -1.01844e-17)
(0.976449 -0.0203213 8.88743e-17)
(0.933804 -0.0175993 -4.03613e-17)
(0.987688 -0.0114603 1.31185e-16)
(0.943629 -0.0102108 -4.26922e-17)
(0.997064 -0.0034299 2.51317e-16)
(0.950937 -0.00313209 -3.93818e-17)
(1.00505 0.00368379 3.05721e-16)
(0.955815 0.00387767 -7.76515e-17)
(1.01215 0.00979604 1.21105e-16)
(0.95815 0.0109899 -3.20828e-17)
(1.0191 0.0145289 1.62822e-16)
(0.957358 0.0189811 -9.32673e-17)
(1.02737 0.0167887 1.1645e-16)
(0.952438 0.0264243 -8.53059e-17)
(1.03874 0.0166292 2.04687e-16)
(0.936756 0.0591406 1.10348e-17)
(0.252835 -0.453119 4.14727e-16)
(0.229323 -0.38831 2.95664e-16)
(0.440844 -0.357364 5.82948e-16)
(0.399332 -0.298156 2.59966e-16)
(0.573397 -0.284909 1.41035e-16)
(0.526194 -0.233884 -2.30548e-16)
(0.670255 -0.228944 3.09465e-16)
(0.622546 -0.186641 -2.50294e-16)
(0.743201 -0.185007 8.89461e-17)
(0.696794 -0.150796 -1.87396e-17)
(0.799509 -0.150061 3.27409e-16)
(0.754736 -0.122783 -2.90743e-16)
(0.843823 -0.1219 1.65705e-16)
(0.800458 -0.100311 -3.61266e-16)
(0.879215 -0.0988598 7.08766e-17)
(0.836872 -0.0818684 -1.04546e-16)
(0.907799 -0.0796696 1.29786e-16)
(0.866077 -0.0664173 -1.20577e-16)
(0.93108 -0.0633735 1.22438e-16)
(0.889605 -0.0532318 2.21664e-17)
(0.950172 -0.0492741 -3.6746e-17)
(0.908595 -0.0418051 1.03858e-17)
(0.965918 -0.0368719 -8.53459e-17)
(0.923892 -0.031771 1.08583e-16)
(0.97897 -0.0257863 -1.24015e-16)
(0.936101 -0.0228094 4.90689e-17)
(0.989838 -0.0157074 -1.69021e-16)
(0.945613 -0.014592 1.44867e-16)
(0.998986 -0.00645538 -4.48994e-16)
(0.952624 -0.00678924 8.81417e-17)
(1.00691 0.00196063 -3.36249e-16)
(0.957127 0.00090213 1.21154e-16)
(1.01416 0.00944755 -1.16559e-16)
(0.958896 0.00878814 4.29324e-17)
(1.0214 0.0155411 -1.56692e-16)
(0.957176 0.0175778 9.72195e-17)
(1.03 0.0192583 -2.3734e-17)
(0.950565 0.0257126 -6.75771e-17)
(1.04179 0.0191229 3.52709e-17)
(0.931672 0.0628151 -3.24348e-16)
(0.28444 -0.508594 -4.73163e-16)
(0.256123 -0.434504 -3.71388e-16)
(0.465483 -0.400046 -5.89737e-16)
(0.41999 -0.333784 -6.78457e-16)
(0.59308 -0.319146 -2.45303e-16)
(0.542481 -0.262151 3.98507e-16)
(0.686134 -0.256774 -2.81504e-16)
(0.63563 -0.20956 3.08633e-16)
(0.756104 -0.207851 -1.64094e-17)
(0.707461 -0.169699 -1.28254e-16)
(0.810057 -0.16896 -1.50087e-16)
(0.763523 -0.138571 1.96168e-16)
(0.852478 -0.137631 -6.39037e-17)
(0.80774 -0.113615 2.12552e-16)
(0.886325 -0.112006 1.89413e-16)
(0.842916 -0.0931445 -1.67436e-16)
(0.913617 -0.0906708 1.99517e-16)
(0.871075 -0.0760046 -1.6542e-16)
(0.935788 -0.072563 1.61908e-16)
(0.893691 -0.0613863 -1.12952e-16)
(0.953895 -0.0569044 2.83579e-17)
(0.91186 -0.0487245 2.73212e-18)
(0.968739 -0.0431331 -2.54641e-17)
(0.926398 -0.0376132 -3.33539e-17)
(0.98094 -0.0308177 4.36964e-17)
(0.937891 -0.0277197 5.70486e-17)
(0.990991 -0.019605 -4.33767e-17)
(0.946722 -0.0187389 2.8141e-16)
(0.999362 -0.00925452 5.6263e-17)
(0.953088 -0.0104266 1.90535e-16)
(1.00659 0.000345183 1.2859e-16)
(0.95697 -0.0026363 -7.18832e-17)
(1.01328 0.00935978 1.41069e-16)
(0.958088 0.00465394 -1.26141e-16)
(1.02023 0.0179141 1.65588e-16)
(0.955562 0.0114918 -1.19311e-16)
(1.02899 0.0263564 1.41094e-16)
(0.947452 0.0157152 -2.06683e-16)
(1.04243 0.0330703 3.66964e-16)
(0.922839 0.05127 -5.59418e-17)
(0.319718 -0.561513 7.80719e-16)
(0.286747 -0.481507 4.68214e-16)
(0.493748 -0.443449 7.11238e-16)
(0.443618 -0.370408 1.00209e-15)
(0.615748 -0.354159 4.41776e-16)
(0.561135 -0.291252 -3.62785e-16)
(0.704481 -0.285244 1.74677e-16)
(0.650636 -0.233109 -3.40471e-16)
(0.771063 -0.231175 -1.12605e-16)
(0.719702 -0.189035 3.52698e-16)
(0.822323 -0.188201 1.02771e-16)
(0.773608 -0.154623 -7.06562e-17)
(0.86258 -0.153596 1.54764e-16)
(0.816105 -0.127051 -2.78545e-16)
(0.894669 -0.125313 -4.4547e-17)
(0.849886 -0.104454 8.88526e-17)
(0.920517 -0.101786 -1.75235e-16)
(0.876902 -0.0855577 6.75707e-17)
(0.941495 -0.0818385 -1.35052e-16)
(0.89858 -0.0694697 1.50273e-16)
(0.958613 -0.0646072 -1.4224e-17)
(0.915981 -0.0555622 8.32537e-17)
(0.972643 -0.0494602 -2.32779e-17)
(0.929896 -0.0433809 1.33197e-16)
(0.984174 -0.0359002 -2.36484e-16)
(0.940884 -0.0325551 2.63532e-16)
(0.993673 -0.0234986 -2.36098e-16)
(0.949296 -0.0227707 2.38054e-17)
(1.00157 -0.0119282 -3.66818e-16)
(0.955282 -0.0137996 1.70694e-16)
(1.00836 -0.00098109 -3.29407e-16)
(0.958761 -0.00551518 2.74817e-16)
(1.0146 0.00955711 -3.86532e-16)
(0.959412 0.00210001 3.94679e-16)
(1.0209 0.0198641 -3.98176e-16)
(0.956474 0.00877592 2.38581e-16)
(1.02843 0.0308417 -1.80242e-16)
(0.948244 0.01185 2.89342e-17)
(1.04036 0.0400168 -3.08449e-17)
(0.921159 0.050246 -3.87878e-16)
(0.358285 -0.612375 -1.18066e-15)
(0.31941 -0.523694 -7.50063e-16)
(0.523808 -0.482435 -6.91666e-16)
(0.46882 -0.402954 -1.16871e-15)
(0.639804 -0.385449 -5.42368e-16)
(0.581037 -0.317081 1.52568e-16)
(0.723925 -0.310685 -2.02633e-16)
(0.666657 -0.254054 4.41599e-16)
(0.7869 -0.252057 1.65687e-16)
(0.732792 -0.206308 -3.93612e-16)
(0.835301 -0.205474 -2.18253e-16)
(0.784417 -0.169048 -1.84032e-16)
(0.87326 -0.167972 -6.70045e-17)
(0.825087 -0.139204 -9.80837e-18)
(0.903465 -0.137325 1.22656e-16)
(0.857365 -0.114756 -1.91805e-16)
(0.927736 -0.111841 2.85168e-16)
(0.883108 -0.094325 -1.82091e-16)
(0.947356 -0.0902486 3.66981e-16)
(0.903678 -0.0769474 -3.99111e-16)
(0.963271 -0.071613 1.32536e-16)
(0.920091 -0.0619456 -1.88697e-16)
(0.976202 -0.0552479 2.37895e-17)
(0.933106 -0.0488339 -3.2724e-17)
(0.986705 -0.0406084 -8.07451e-17)
(0.943273 -0.0372333 1.33226e-16)
(0.99522 -0.0272176 -1.83571e-16)
(0.950949 -0.0268495 3.73808e-16)
(1.00216 -0.0146717 -9.3588e-17)
(0.956315 -0.0175211 9.34615e-18)
(1.00802 -0.00263184 1.17547e-16)
(0.959329 -0.00922417 -3.58785e-17)
(1.01333 0.00934458 9.30157e-17)
(0.959683 -0.00209028 -7.06795e-17)
(1.01869 0.0219271 1.35945e-16)
(0.956686 0.00311462 -7.39965e-17)
(1.02494 0.037241 2.29207e-16)
(0.948706 0.00311126 -1.99891e-16)
(1.03579 0.0523874 3.66649e-16)
(0.918643 0.0412212 -4.03697e-18)
(0.40016 -0.660205 1.11065e-15)
(0.35584 -0.56637 7.82747e-16)
(0.557429 -0.521848 6.61009e-16)
(0.496958 -0.436224 1.07149e-15)
(0.666776 -0.417248 3.94751e-16)
(0.603269 -0.34353 3.46834e-16)
(0.745765 -0.336553 4.65447e-17)
(0.684556 -0.275473 -1.44936e-16)
(0.804715 -0.273268 -2.7969e-16)
(0.747409 -0.223914 4.65851e-16)
(0.84992 -0.222991 9.42523e-17)
(0.796477 -0.183684 5.28855e-16)
(0.885312 -0.182527 2.91082e-17)
(0.835107 -0.151473 2.17176e-16)
(0.913435 -0.149475 4.82091e-17)
(0.865732 -0.125098 2.72838e-16)
(0.935997 -0.122004 -3.13598e-16)
(0.890121 -0.103072 2.54838e-16)
(0.9542 -0.0987383 -3.29836e-16)
(0.909573 -0.0843485 4.79674e-16)
(0.968931 -0.0786634 -1.74744e-16)
(0.92506 -0.0681939 1.79774e-16)
(0.980864 -0.0610291 -2.36272e-17)
(0.937306 -0.0540769 2.07044e-16)
(0.990512 -0.045234 -2.12205e-16)
(0.946826 -0.0415882 1.65022e-16)
(0.998259 -0.0307377 -1.67649e-16)
(0.953951 -0.0304335 -3.43636e-17)
(1.00445 -0.0170676 -1.8333e-16)
(0.958845 -0.0204884 1.61141e-16)
(1.00948 -0.00380253 -2.26182e-16)
(0.96146 -0.0117815 4.84845e-17)
(1.01377 0.00956145 -1.08163e-16)
(0.961526 -0.00449741 2.40251e-16)
(1.01771 0.0237998 -4.15034e-16)
(0.958634 0.000293493 2.40278e-16)
(1.02159 0.0416344 -2.51571e-16)
(0.951838 -0.00114102 9.60931e-17)
(1.02929 0.059634 -2.3896e-16)
(0.920905 0.0387086 -2.54127e-16)
(0.445028 -0.705587 -6.18718e-16)
(0.39379 -0.603818 -5.67771e-16)
(0.592378 -0.55646 -6.7855e-16)
(0.526256 -0.465116 -7.80922e-16)
(0.694775 -0.445042 -6.16818e-16)
(0.62643 -0.366467 -5.35075e-16)
(0.768421 -0.359157 -1.06418e-16)
(0.70322 -0.294075 7.3705e-17)
(0.823192 -0.291822 -7.64381e-17)
(0.762678 -0.239255 -8.42019e-17)
(0.865082 -0.238337 -2.25745e-16)
(0.809101 -0.196495 -6.36534e-16)
(0.897808 -0.195297 -1.72159e-16)
(0.845614 -0.162266 -5.15252e-16)
(0.923745 -0.160146 -2.95989e-17)
(0.874495 -0.134253 -6.05699e-16)
(0.944476 -0.130943 4.67575e-16)
(0.897412 -0.110874 -5.98488e-16)
(0.961106 -0.106228 4.82902e-16)
(0.915591 -0.0910256 -7.22442e-16)
(0.97445 -0.0849264 3.06096e-16)
(0.929952 -0.0739293 -2.78742e-16)
(0.985128 -0.0662409 4.21296e-17)
(0.94119 -0.0590282 -5.46249e-17)
(0.993609 -0.0495254 -3.00708e-17)
(0.949809 -0.0458997 2.78577e-16)
(1.00025 -0.0341939 -1.54264e-16)
(0.956155 -0.0342534 2.49574e-16)
(1.00535 -0.0196983 1.12382e-16)
(0.960436 -0.023996 -5.44315e-17)
(1.00925 -0.00550115 2.23403e-16)
(0.962674 -0.0152048 -5.2638e-17)
(1.0123 0.00907192 1.05424e-16)
(0.962665 -0.00811578 -1.88587e-16)
(1.01476 0.0251174 4.65241e-16)
(0.960211 -0.0040889 -4.15623e-16)
(1.01637 0.0461868 4.46266e-16)
(0.954917 -0.00734313 -3.50677e-16)
(1.02113 0.0685558 4.51214e-16)
(0.923259 0.032641 4.14135e-18)
(0.492779 -0.747514 5.1327e-16)
(0.435413 -0.641451 5.38373e-16)
(0.63079 -0.591225 5.98938e-16)
(0.558433 -0.494476 6.9303e-16)
(0.725601 -0.473094 7.61796e-16)
(0.65187 -0.389823 5.56422e-16)
(0.793393 -0.381991 1.72827e-16)
(0.723719 -0.313007 2.85335e-16)
(0.843574 -0.310564 9.79069e-17)
(0.779435 -0.254835 1.35091e-16)
(0.881821 -0.253835 2.29554e-16)
(0.822943 -0.209466 6.46817e-16)
(0.911621 -0.208194 4.54551e-16)
(0.857132 -0.173157 6.67189e-16)
(0.935184 -0.170931 4.9586e-17)
(0.884129 -0.143447 7.77356e-16)
(0.953962 -0.139979 -5.67058e-16)
(0.905495 -0.118657 8.13399e-16)
(0.968967 -0.113786 -3.81398e-16)
(0.922385 -0.0976098 6.07668e-16)
(0.980938 -0.091206 -2.13826e-16)
(0.935663 -0.0794743 2.20731e-16)
(0.990438 -0.0713864 -1.32021e-16)
(0.94598 -0.0636535 7.55771e-17)
(0.997881 -0.0536381 1.6296e-17)
(0.953804 -0.0497019 -3.50295e-16)
(1.00355 -0.0373297 2.40735e-16)
(0.959458 -0.0373283 -3.67217e-16)
(1.00767 -0.0218714 4.56509e-17)
(0.963161 -0.0264715 -2.44557e-16)
(1.01045 -0.00667668 3.72573e-17)
(0.96498 -0.017254 -2.33576e-16)
(1.01212 0.00896743 8.34026e-17)
(0.964809 -0.00995304 2.44254e-17)
(1.01273 0.0262288 -2.31567e-16)
(0.962794 -0.00609091 3.11078e-16)
(1.01147 0.0490179 -3.1368e-16)
(0.959408 -0.010123 2.22021e-16)
(1.01225 0.0733764 -1.8156e-16)
(0.928219 0.0308788 -2.42675e-16)
(0.54318 -0.786643 -9.79786e-16)
(0.477985 -0.673509 -3.34915e-16)
(0.670013 -0.620861 -7.66193e-16)
(0.591311 -0.51921 -5.3873e-16)
(0.757044 -0.496908 -7.83189e-16)
(0.677876 -0.409465 -4.85695e-16)
(0.818855 -0.401364 -4.55207e-16)
(0.744687 -0.32894 -1.93837e-16)
(0.864352 -0.326468 -7.08138e-16)
(0.796599 -0.267977 1.88754e-16)
(0.898884 -0.266988 -5.24469e-16)
(0.837145 -0.220441 -4.37223e-16)
(0.925695 -0.21914 -8.49032e-16)
(0.868961 -0.182408 -6.78322e-16)
(0.94681 -0.180081 -2.06906e-16)
(0.894008 -0.1513 -5.4945e-16)
(0.963541 -0.14765 5.22477e-16)
(0.913733 -0.125364 -8.33151e-16)
(0.976793 -0.120226 5.97843e-16)
(0.929213 -0.103369 -7.6564e-16)
(0.987229 -0.096613 4.45981e-16)
(0.941256 -0.0844511 -3.89862e-16)
(0.995353 -0.0759169 2.84227e-16)
(0.950482 -0.0679876 -1.43269e-16)
(1.00153 -0.0574109 1.48663e-16)
(0.957342 -0.0535104 1.03249e-16)
(1.00601 -0.0404251 8.77392e-17)
(0.962172 -0.0407174 4.58151e-17)
(1.00896 -0.0243106 2.83947e-16)
(0.965228 -0.0295397 -3.19087e-17)
(1.01051 -0.00840216 2.85033e-16)
(0.966657 -0.0201002 -1.46556e-16)
(1.01078 0.00811361 3.40141e-16)
(0.966449 -0.0126639 -2.72655e-16)
(1.00964 0.0265487 3.46701e-16)
(0.965005 -0.0088342 -3.4698e-16)
(1.00576 0.0511658 2.91528e-16)
(0.963542 -0.0132971 -3.06118e-16)
(1.00288 0.0779646 2.03174e-16)
(0.932979 0.0279063 -1.11822e-16)
(0.595987 -0.821957 1.163e-15)
(0.524097 -0.70547 3.65798e-16)
(0.71257 -0.650394 6.41748e-16)
(0.626984 -0.544172 7.38199e-16)
(0.791207 -0.520745 5.96649e-16)
(0.706098 -0.429339 7.26081e-16)
(0.846543 -0.420783 3.24517e-16)
(0.767446 -0.345068 4.1167e-16)
(0.886966 -0.342424 6.07254e-16)
(0.815221 -0.281268 5.81665e-18)
(0.91747 -0.280204 3.29864e-16)
(0.852545 -0.231525 5.7145e-16)
(0.941048 -0.23016 8.16463e-16)
(0.881791 -0.19173 7.97536e-16)
(0.959534 -0.189314 2.5823e-16)
(0.904749 -0.159185 3.36249e-16)
(0.974099 -0.155404 -5.0869e-16)
(0.922751 -0.132046 7.01971e-16)
(0.985538 -0.126726 -5.30847e-16)
(0.936786 -0.109022 3.8926e-16)
(0.99443 -0.102021 -6.65215e-17)
(0.947601 -0.0892013 7.0018e-17)
(1.00121 -0.0803529 5.29577e-17)
(0.955762 -0.0719266 -1.65889e-16)
(1.00619 -0.0609633 1.1911e-16)
(0.961686 -0.0567135 -4.25949e-16)
(1.00953 -0.043156 2.26245e-16)
(0.965686 -0.0432527 -4.45238e-16)
(1.01133 -0.0262678 5.91962e-17)
(0.968041 -0.0314888 -3.00774e-16)
(1.01163 -0.00962441 8.005e-17)
(0.968962 -0.0215634 -2.40866e-16)
(1.01039 0.00758652 7.05619e-17)
(0.968568 -0.0137516 -3.63028e-16)
(1.00736 0.0266677 2.09307e-16)
(0.967561 -0.0096514 -8.35769e-17)
(1.00074 0.0519066 -8.10253e-17)
(0.967987 -0.0139448 2.76142e-16)
(0.993957 0.0793814 -2.03379e-16)
(0.938526 0.0277177 2.70004e-16)
(0.651057 -0.854164 -1.22126e-15)
(0.570549 -0.731583 -8.73641e-17)
(0.755379 -0.67454 -1.00926e-15)
(0.662865 -0.564314 -4.66165e-16)
(0.825541 -0.540161 -9.8018e-16)
(0.734488 -0.445343 -3.79403e-16)
(0.874355 -0.436587 -3.99444e-16)
(0.790344 -0.358056 -1.04328e-16)
(0.909671 -0.355402 -9.34433e-16)
(0.833969 -0.291984 3.31051e-16)
(0.936121 -0.29094 -4.85127e-16)
(0.868061 -0.240479 -4.83298e-16)
(0.956439 -0.239096 -7.0789e-16)
(0.894721 -0.199283 -9.36119e-16)
(0.972259 -0.196788 -2.71102e-16)
(0.915558 -0.165604 -3.25614e-16)
(0.984601 -0.161676 4.77699e-16)
(0.931783 -0.137541 -6.09155e-16)
(0.994145 -0.132003 4.28479e-16)
(0.9443 -0.11376 -4.09521e-16)
(1.00139 -0.106469 3.02166e-16)
(0.953798 -0.0933201 -3.37801e-16)
(1.00671 -0.0841035 1.63157e-16)
(0.960807 -0.0755412 -1.208e-16)
(1.01036 -0.064118 2.89431e-16)
(0.965718 -0.0599111 -7.68052e-18)
(1.01246 -0.0457892 2.47778e-16)
(0.968842 -0.0460938 4.39576e-17)
(1.01307 -0.0284192 4.33601e-16)
(0.970485 -0.0340023 -2.02492e-16)
(1.01212 -0.011295 5.34533e-16)
(0.970919 -0.0237392 -3.15207e-16)
(1.00948 0.00642832 5.15892e-16)
(0.97035 -0.0155275 -1.67878e-16)
(1.00475 0.0260592 4.39762e-16)
(0.969688 -0.0108802 -6.15126e-16)
(0.995748 0.0518227 5.89003e-16)
(0.971676 -0.0144585 -6.17799e-16)
(0.985539 0.0800194 3.25756e-16)
(0.943248 0.0272231 -3.07221e-16)
(0.708014 -0.882266 1.25194e-15)
(0.620372 -0.757338 4.29786e-16)
(0.801365 -0.698346 6.01684e-16)
(0.701433 -0.584462 8.60211e-16)
(0.862466 -0.559386 9.92157e-16)
(0.765018 -0.461401 4.457e-16)
(0.904295 -0.452263 1.17392e-16)
(0.814981 -0.371106 2.29967e-16)
(0.93414 -0.368304 6.99705e-16)
(0.854146 -0.30276 -2.10739e-16)
(0.95625 -0.301648 4.21864e-16)
(0.884766 -0.249484 4.88142e-16)
(0.973079 -0.248047 6.17761e-16)
(0.908654 -0.206876 6.51219e-16)
(0.98606 -0.204311 4.6698e-16)
(0.927234 -0.172041 1.9454e-16)
(0.996056 -0.168016 -2.58008e-16)
(0.941585 -0.143007 2.96969e-16)
(1.00363 -0.137336 -9.60986e-17)
(0.952522 -0.118389 8.45975e-17)
(1.00918 -0.110921 3.38474e-17)
(0.960664 -0.097206 -9.06302e-17)
(1.01301 -0.0877685 2.52541e-16)
(0.966483 -0.0787481 -4.49297e-16)
(1.01532 -0.0670678 2.01752e-16)
(0.970334 -0.0624895 -4.9162e-16)
(1.01618 -0.0480844 9.18237e-17)
(0.972506 -0.0480849 -3.92753e-16)
(1.01555 -0.0301274 -1.55282e-17)
(0.973313 -0.0354399 -2.54201e-16)
(1.01332 -0.0125071 -2.10972e-16)
(0.973093 -0.0246551 -8.67859e-18)
(1.00926 0.0055846 -2.17072e-16)
(0.972164 -0.0159393 -2.05478e-16)
(1.00287 0.0253655 -2.20967e-17)
(0.971625 -0.0106711 2.81125e-16)
(0.991726 0.0507993 -2.30736e-16)
(0.974846 -0.0133324 4.08022e-16)
(0.978429 0.0785541 -3.39747e-16)
(0.94741 0.0282074 4.26182e-16)
(0.766812 -0.907002 -1.26429e-15)
(0.669893 -0.777051 -7.45612e-16)
(0.847009 -0.716584 -7.29721e-16)
(0.739688 -0.599662 -4.41778e-16)
(0.899087 -0.574066 -1.42673e-15)
(0.795293 -0.47349 -2.34493e-16)
(0.933967 -0.464225 -3.6622e-16)
(0.839401 -0.380925 -5.57187e-17)
(0.958365 -0.378134 -6.37243e-16)
(0.874141 -0.310869 1.55717e-16)
(0.976152 -0.309785 -1.83418e-16)
(0.901315 -0.256266 -7.03445e-16)
(0.989507 -0.254825 -3.0734e-16)
(0.922447 -0.212605 -5.71971e-16)
(0.999651 -0.209984 -2.02094e-16)
(0.938772 -0.176921 -2.97227e-16)
(1.00729 -0.172782 5.03487e-16)
(0.951244 -0.147198 -5.0159e-16)
(1.01286 -0.141354 4.71763e-16)
(0.960586 -0.122021 -5.70896e-16)
(1.01669 -0.114322 3.70016e-16)
(0.967355 -0.100384 -2.25635e-16)
(1.01901 -0.0906534 1.11546e-16)
(0.971984 -0.0815611 6.42868e-17)
(1.01996 -0.0695181 2.65534e-16)
(0.97479 -0.0649972 1.43645e-16)
(1.01957 -0.0501643 1.82809e-16)
(0.976045 -0.0503151 1.49794e-16)
(1.01775 -0.0318854 1.91541e-16)
(0.976066 -0.0373758 1.78224e-16)
(1.01432 -0.0139882 2.99708e-16)
(0.975213 -0.0262213 -6.94991e-17)
(1.00898 0.00432653 3.10619e-16)
(0.973856 -0.0169929 1.38027e-16)
(1.00115 0.0241984 2.25854e-16)
(0.973196 -0.010884 -5.30509e-16)
(0.98824 0.0492675 5.72541e-16)
(0.977097 -0.0122159 -5.42498e-16)
(0.97237 0.0766569 3.83774e-16)
(0.950348 0.0288805 -4.67711e-16)
(0.826945 -0.927418 1.47091e-15)
(0.722586 -0.796172 1.21261e-15)
(0.895649 -0.734267 6.28172e-16)
(0.7805 -0.61466 4.67829e-16)
(0.938152 -0.588358 1.18379e-15)
(0.827616 -0.485464 1.97433e-16)
(0.965656 -0.475895 4.23e-16)
(0.865502 -0.390678 1.92795e-16)
(0.98428 -0.387761 3.59665e-16)
(0.895536 -0.318943 -8.71004e-17)
(0.997486 -0.3178 9.52729e-17)
(0.919045 -0.263038 5.38306e-16)
(1.00716 -0.261551 3.69894e-16)
(0.937252 -0.218335 4.1885e-16)
(1.0143 -0.215665 3.94672e-17)
(0.951188 -0.181799 1.63491e-16)
(1.01945 -0.177597 -4.15236e-16)
(0.961669 -0.151356 2.41066e-16)
(1.02293 -0.145432 -9.20419e-17)
(0.969323 -0.125554 1.64394e-16)
(1.02494 -0.117751 1.48563e-17)
(0.974631 -0.103356 -7.28129e-17)
(1.02567 -0.0935006 1.69478e-16)
(0.977965 -0.0840089 -2.91775e-16)
(1.02518 -0.0718317 1.60498e-17)
(0.979607 -0.0669485 -4.44419e-16)
(1.02345 -0.0519915 1.55398e-16)
(0.979803 -0.0517855 -4.34644e-16)
(1.02036 -0.0332932 1.17356e-16)
(0.978867 -0.0383664 -4.49269e-16)
(1.0157 -0.0150786 -1.03934e-16)
(0.977197 -0.0267243 -1.02411e-16)
(1.00911 0.00339421 -2.76035e-16)
(0.975227 -0.016981 -2.11415e-16)
(1 0.0231308 -2.8566e-16)
(0.974211 -0.0101537 2.7297e-16)
(0.985759 0.0473683 -3.82434e-16)
(0.978363 -0.0103377 3.24845e-16)
(0.967965 0.0738026 -3.12431e-16)
(0.951919 0.0299095 5.90748e-16)
(0.888462 -0.944259 -1.57677e-15)
(0.774315 -0.809142 -1.18263e-15)
(0.943334 -0.746279 -8.71087e-16)
(0.820461 -0.624652 -9.54566e-17)
(0.976417 -0.598048 -1.06401e-15)
(0.859243 -0.493427 8.27849e-17)
(0.996663 -0.483809 -6.46151e-16)
(0.891014 -0.39716 -1.47225e-16)
(1.00959 -0.394277 -1.66957e-16)
(0.916422 -0.324309 1.51306e-16)
(1.01828 -0.323204 -1.1018e-17)
(0.936329 -0.267537 -3.44319e-16)
(1.02433 -0.26606 -1.53566e-16)
(0.951657 -0.222148 -6.70277e-16)
(1.02851 -0.219445 1.78762e-16)
(0.963245 -0.185059 -1.94363e-16)
(1.03121 -0.180779 4.60102e-16)
(0.971779 -0.154173 -4.43291e-16)
(1.03262 -0.148123 2.73683e-16)
(0.977787 -0.128014 -3.18199e-16)
(1.03287 -0.120038 1.41476e-16)
(0.981693 -0.105532 -5.02274e-17)
(1.03206 -0.0954516 -1.23971e-16)
(0.983823 -0.0859614 2.91038e-17)
(1.0302 -0.0735052 3.29715e-16)
(0.984413 -0.0687165 5.10072e-17)
(1.02724 -0.0534366 1.21498e-16)
(0.983674 -0.05338 1.7853e-16)
(1.023 -0.034554 9.1073e-17)
(0.981894 -0.039756 1.91183e-16)
(1.01723 -0.0162118 1.58732e-16)
(0.979457 -0.0278206 2.2598e-16)
(1.00952 0.00231103 1.7062e-16)
(0.976805 -0.0176367 3.25776e-16)
(0.999259 0.0219208 3.29816e-16)
(0.975159 -0.0100178 -1.92404e-16)
(0.983901 0.045467 3.56588e-16)
(0.97899 -0.00890796 -2.53687e-16)
(0.964524 0.0712386 1.95292e-16)
(0.952438 0.0302302 -4.51446e-16)
(0.950743 -0.956647 1.52776e-15)
(0.828988 -0.821311 1.08907e-15)
(0.993805 -0.757544 7.16915e-16)
(0.862827 -0.634251 2.39265e-16)
(1.01696 -0.607168 5.91045e-16)
(0.892813 -0.501117 1.77115e-17)
(1.02957 -0.491276 5.56996e-16)
(0.918139 -0.40345 8.63865e-17)
(1.03652 -0.400466 3.15916e-17)
(0.938675 -0.329544 -1.45024e-16)
(1.04046 -0.328387 2.05164e-16)
(0.954789 -0.271955 2.19771e-17)
(1.04269 -0.270445 -2.65052e-17)
(0.967087 -0.225914 8.11043e-16)
(1.04377 -0.223185 -4.12228e-16)
(0.976196 -0.188293 2.38509e-16)
(1.04389 -0.183988 -1.92751e-16)
(0.982656 -0.156956 9.16186e-17)
(1.04311 -0.15088 1.6456e-16)
(0.9869 -0.130403 -7.51863e-17)
(1.04146 -0.122397 8.03331e-17)
(0.989265 -0.107559 4.32229e-17)
(1.03896 -0.0974507 1.16186e-16)
(0.990023 -0.0876416 -2.48735e-16)
(1.03559 -0.0751673 1.40144e-16)
(0.98937 -0.0700555 -3.54566e-16)
(1.03123 -0.0547849 3.38592e-17)
(0.987489 -0.0543738 -2.44911e-17)
(1.02571 -0.03563 -3.75494e-16)