/*--------------------------------*- C++ -*----------------------------------*\
| =========                 |                                                 |
| \\      /  F ield         | foam-extend: Open Source CFD                    |
|  \\    /   O peration     | Version:  3.0                                   |
|   \\  /    A nd           | Web:         http://www.extend-project.de       |
|    \\/     M anipulation  |                                                 |
\*---------------------------------------------------------------------------*/
FoamFile
{
    version     2.0;
    format      ascii;
    class       volSymmTensorField;
    location    "27";
    object      sigma;
}
// * * * * * * * * * * * * * * * * * * * * * * * * * * * * * * * * * * * * * //

dimensions      [0 0 0 0 0 0 0];

internalField   nonuniform List<symmTensor> 
672
(
(-0.1686257036 -0.01034389095 -1.232176397e-19 0.1686613918 -2.498442992e-20 -3.568821708e-05)
(-0.1553179248 -0.01195531261 -2.847055561e-19 0.1554071147 -1.500391204e-20 -8.918993323e-05)
(-0.1365932589 -0.01179725617 -1.891610015e-19 0.136726554 -5.742411197e-21 -0.0001332950961)
(-0.1172729791 -0.01096092613 -7.980839837e-20 0.11744244 -5.673808448e-22 -0.0001694609323)
(-0.09908506226 -0.009898609151 -3.09934532e-19 0.09928320441 -3.388256696e-20 -0.0001981421506)
(-0.08255214886 -0.008808928894 -3.011747128e-19 0.0827708408 -1.469191875e-19 -0.0002186919412)
(-0.06781251517 -0.007779116321 -4.652229224e-19 0.06804255697 -1.542893416e-19 -0.0002300418057)
(-0.0548941719 -0.006858317309 -5.721955743e-19 0.05512432534 -4.124352786e-19 -0.0002301534448)
(-0.04378475441 -0.006065095301 -5.94025607e-19 0.04400134907 -2.732815449e-19 -0.0002165946581)
(-0.03459825675 -0.005428844297 -3.322936433e-19 0.03478402662 -1.315359431e-20 -0.0001857698723)
(-0.02742750838 -0.004960796812 -1.002788506e-19 0.02756099144 1.22788062e-19 -0.0001334830525)
(-0.02261198025 -0.004689227066 -3.101348752e-20 0.02266599884 -2.042182339e-19 -5.401859396e-05)
(-0.1657274413 -0.0308030635 -1.019886991e-19 0.1657623848 7.930304205e-21 -3.49435304e-05)
(-0.1505241766 -0.03525933997 -2.707610446e-19 0.1506115226 6.24423355e-20 -8.734596441e-05)
(-0.1312542712 -0.03465164839 -2.206189358e-19 0.1313848153 1.470055596e-19 -0.0001305440936)
(-0.1119602002 -0.03211583909 -4.888649127e-20 0.112126167 -4.986000655e-20 -0.0001659667776)
(-0.09403726219 -0.02894937777 -2.994593331e-19 0.09423131422 2.301989815e-20 -0.0001940520305)
(-0.07785333878 -0.02572004514 -2.96716548e-19 0.07806750467 -2.438330192e-19 -0.0002141658903)
(-0.0634753738 -0.0226764589 -5.539799898e-19 0.06370063544 -3.698577645e-19 -0.0002252616375)
(-0.05088930997 -0.0199583023 -8.937181369e-19 0.05111465546 -5.634792973e-19 -0.0002253454902)
(-0.04006599718 -0.01761818963 -4.918778526e-19 0.04027803695 -7.331714245e-20 -0.0002120397642)
(-0.03109774893 -0.0157405344 -1.049898025e-19 0.03127957977 -1.083223006e-19 -0.0001818308378)
(-0.02407086801 -0.01435797999 -3.32333209e-19 0.02420149112 -1.36219081e-19 -0.0001306231097)
(-0.01931227413 -0.01355381995 -1.554044083e-19 0.01936511735 -1.66601586e-19 -5.284321859e-05)
(-0.1600527274 -0.05049225915 -3.123081673e-20 0.1600864981 -5.039172277e-20 -3.377067942e-05)
(-0.1413145691 -0.05672537006 -2.086309583e-19 0.1413989852 1.37673236e-19 -8.44160874e-05)
(-0.1210488926 -0.05529264817 -2.75870735e-19 0.1211750573 2.590191409e-19 -0.0001261647369)
(-0.1018312369 -0.05098286854 -2.236907422e-19 0.1019916328 7.854141859e-20 -0.0001603958166)
(-0.08443072278 -0.04576980645 -3.47832217e-19 0.0846182528 5.705998599e-20 -0.0001875300159)
(-0.06892433162 -0.0405105745 -6.93047916e-19 0.06913128626 -1.619898171e-19 -0.0002069546352)
(-0.05524505413 -0.03557791107 -1.008029652e-18 0.05546271127 -4.587838708e-20 -0.0002176571402)
(-0.04329991895 -0.03117982349 -9.414008988e-19 0.04351763131 -7.428433631e-20 -0.0002177123592)
(-0.03302831357 -0.02739400564 -3.318424421e-19 0.0332331394 1.158765367e-20 -0.0002048258302)
(-0.02448174103 -0.02434890345 -5.057929283e-19 0.02465735265 -2.562338451e-19 -0.0001756116151)
(-0.01773410674 -0.02209553619 -3.650107416e-19 0.01786023136 -2.435669979e-19 -0.0001261246171)
(-0.01308826456 -0.02076713166 -6.335605111e-20 0.01313926958 -1.774118453e-19 -5.100501719e-05)
(-0.1518381625 -0.06895668358 5.353966847e-20 0.151870335 -5.1938999e-20 -3.217245452e-05)
(-0.1284071247 -0.07532844485 -2.510653623e-20 0.1284875488 1.663728733e-19 -8.042412359e-05)
(-0.1068730502 -0.07249833473 -1.898625558e-19 0.1069932484 2.660382122e-19 -0.0001201982015)
(-0.08782697281 -0.06630481025 -2.152475417e-19 0.08797978047 1.865277942e-19 -0.0001528076605)
(-0.07119208672 -0.05913801841 -2.611859537e-19 0.07137073713 -3.288194384e-20 -0.0001786504028)
(-0.05665337964 -0.05202157295 -4.751885773e-19 0.05685052169 1.094397547e-19 -0.0001971420506)
(-0.04396370573 -0.04539502135 -6.378075626e-19 0.0441710229 3.63252623e-19 -0.0002073171688)
(-0.03292415091 -0.03950053557 -1.295474469e-18 0.03313149398 3.383351385e-19 -0.0002073430691)
(-0.02343194534 -0.03442710583 -7.15456671e-19 0.02362698311 1.226727646e-19 -0.0001950377688)
(-0.01548343514 -0.03033028833 -8.888539154e-19 0.01565061991 6.089883561e-19 -0.0001671847713)
(-0.009135554149 -0.02727478913 -7.272184397e-19 0.009255595289 2.249785045e-19 -0.0001200411397)
(-0.004657639539 -0.02543582708 -1.860796344e-19 0.004706166359 2.772301419e-19 -4.852682033e-05)
(-0.1414114318 -0.08582315708 -2.494358489e-21 0.1414416009 1.39869536e-19 -3.016917321e-05)
(-0.112781916 -0.09032087096 6.505734586e-20 0.1128573355 2.286239812e-19 -7.541949068e-05)
(-0.08994735134 -0.08539749212 -1.794873404e-19 0.09006006987 3.199710474e-19 -0.0001127185366)
(-0.07122823039 -0.0771949441 -3.152452971e-19 0.07137152673 1.602956772e-19 -0.0001432963355)
(-0.05558215158 -0.06819837433 -4.362377331e-19 0.05574967427 4.987457858e-21 -0.0001675226905)
(-0.04224857542 -0.05944619726 -3.544875376e-19 0.04243342415 2.454686308e-19 -0.0001848487263)
(-0.0307763156 -0.05137403222 -2.008607371e-19 0.0309706838 3.187260996e-19 -0.0001943682052)
(-0.02084682339 -0.04421609078 -1.014929833e-18 0.02104118799 4.667886325e-19 -0.0001943646051)
(-0.01230987429 -0.03805566126 -4.359484668e-19 0.01249266976 4.748296434e-19 -0.0001827954648)
(-0.005098835054 -0.03305448713 3.636182636e-19 0.005255489506 4.240183425e-19 -0.0001566544514)
(0.000749155115 -0.02928511408 -7.298206749e-19 -0.00063670822 4.557617475e-19 -0.000112446895)
(0.005004918389 -0.02695477143 -2.097324101e-19 -0.004959481029 2.265296088e-19 -4.543736067e-05)
(-0.1291620176 -0.1008206119 -2.922281413e-22 0.1291898032 1.782683846e-19 -2.778552755e-05)
(-0.09557698311 -0.1012992811 9.593987458e-20 0.09564644779 3.043883158e-19 -6.946467686e-05)
(-0.0716847733 -0.09355407991 4.740424626e-20 0.07178859306 2.39035949e-19 -0.0001038197601)
(-0.05351569369 -0.08322609937 -3.572385035e-19 0.05364767573 1.59294155e-19 -0.0001319820422)
(-0.03905720561 -0.07254943077 -2.311334733e-19 0.03921149375 -1.162738821e-19 -0.0001542881337)
(-0.02710438814 -0.06241419527 -2.900557067e-19 0.0272746193 2.338005227e-19 -0.0001702311577)
(-0.0170037322 -0.05317614062 3.907843921e-19 0.0171827077 3.534601881e-20 -0.0001789755039)
(-0.008318679726 -0.0450163296 -4.312211837e-19 0.008497622034 7.482143962e-20 -0.000178942308)
(-0.0008524670295 -0.03799414476 -9.594086741e-19 0.001020722206 1.179940947e-19 -0.0001682551765)
(0.005524847352 -0.03225497362 -2.303779178e-19 -0.005380692264 4.535320128e-19 -0.0001441550887)
(0.0107967066 -0.02787284957 7.841532008e-19 -0.01069326618 2.777760285e-21 -0.0001034404227)
(0.01477748666 -0.02507597766 -3.731665111e-19 -0.01473570866 2.166180453e-20 -4.177800284e-05)
(-0.1155072844 -0.1137901251 4.905341163e-20 0.1155323355 1.0634231e-19 -2.505111126e-05)
(-0.07796834859 -0.1082338132 9.107348093e-20 0.07803098243 2.84388346e-19 -6.263384246e-05)
(-0.05353819962 -0.09700343558 2.264713707e-19 0.05363181222 7.690993047e-20 -9.361259986e-05)
(-0.03620853517 -0.08446858819 -1.904567471e-19 0.03632754053 -1.047215682e-19 -0.0001190053531)
(-0.02310930146 -0.07228123599 -7.185853388e-19 0.02324841241 -9.878447493e-20 -0.0001391109505)
(-0.01264795672 -0.06102762299 -4.716439288e-19 0.01280142746 1.525423e-19 -0.0001534707405)
(-0.003996425297 -0.05091132587 -1.559343386e-19 0.004157755271 5.345724884e-21 -0.0001613299736)
(0.003382663849 -0.04201733005 2.804823903e-20 -0.003221396301 2.164526816e-19 -0.0001612675485)
(0.009725392879 -0.03436384154 -1.671222263e-19 -0.009573796484 4.482067833e-19 -0.0001515963944)
(0.01521770439 -0.02805832836 -5.173128433e-20 -0.01508786399 2.972410292e-19 -0.0001298403922)
(0.01986233891 -0.02317013008 -4.607450471e-19 -0.0197692086 -1.97500136e-19 -9.313030475e-05)
(0.02351726173 -0.01993743875 -5.763706538e-20 -0.02347967035 4.740375486e-19 -3.759138734e-05)
(-0.1008576983 -0.1246835793 2.417024082e-20 0.1008796993 1.157557751e-19 -2.200093095e-05)
(-0.06104752413 -0.1114563421 1.17317574e-19 0.06110253783 1.895918478e-19 -5.501369885e-05)
(-0.03684486424 -0.09623635926 1.034080083e-19 0.0369270905 4.164087383e-20 -8.222625766e-05)
(-0.02069980853 -0.08147292164 -2.577249729e-20 0.0208043388 -7.835239535e-20 -0.0001045302697)
(-0.009103359891 -0.06795796353 -6.505841674e-19 0.009225542743 2.168924186e-19 -0.0001221828521)
(-0.0001823449342 -0.05584392664 -7.214942555e-19 0.0003171240459 2.365721801e-19 -0.0001347791117)
(0.007014622446 -0.04512209677 -7.865540334e-19 -0.006872967743 4.886789014e-19 -0.0001416547033)
(0.01309449225 -0.03574580048 -1.402538119e-19 -0.01295292827 4.446432216e-19 -0.0001415639765)
(0.01831975887 -0.02767781668 -2.617735791e-19 -0.01818672793 4.600618645e-19 -0.000133030939)
(0.02291815378 -0.02096957887 -2.587346003e-19 -0.0228042607 7.142868746e-19 -0.000113893082)
(0.02690853843 -0.01568040587 4.89247071e-19 -0.02682688813 5.356946117e-19 -8.16503056e-05)
(0.0301894003 -0.01204856331 -1.75276023e-19 -0.0301564669 2.425981554e-19 -3.293339245e-05)
(-0.08558485249 -0.1335513627 -5.796460023e-20 0.08560352548 1.511628659e-19 -1.867298504e-05)
(-0.04571013212 -0.1116092721 1.28467334e-19 0.04575683167 1.20744148e-19 -4.66995584e-05)
(-0.02268506563 -0.09213298512 1.442910567e-19 0.02275486877 -2.547528564e-20 -6.980313994e-05)
(-0.008107013005 -0.07519935038 -1.514937458e-19 0.008195750796 1.872184756e-19 -8.87377915e-05)
(0.001870673167 -0.06054787399 6.448256233e-20 -0.00176695771 2.488560552e-19 -0.0001037154561)
(0.009255684487 -0.04780833074 -5.768962166e-19 -0.009141294516 3.934012747e-19 -0.0001143899716)
(0.01505319022 -0.03671897705 -3.194008849e-19 -0.0149329947 4.372008619e-19 -0.0001201955194)
(0.01989758679 -0.02707758263 -3.447421871e-19 -0.01977750916 6.023839076e-19 -0.0001200776337)
(0.02406046651 -0.01878200597 3.578429437e-19 -0.02394767677 9.591911607e-19 -0.0001127897311)
(0.02779174359 -0.01181510602 7.280436483e-19 -0.02769523306 3.983022449e-19 -9.651052584e-05)
(0.03112172349 -0.006222257897 3.116609968e-19 -0.03105258345 -1.915564122e-19 -6.914004675e-05)
(0.03398383164 -0.002233883317 3.356948655e-19 -0.03395597276 -5.247304226e-20 -2.785887645e-05)
(-0.06999577961 -0.1405207092 -1.358202564e-19 0.07001088925 1.247077876e-19 -1.510963777e-05)
(-0.03256800655 -0.1095608118 -4.85378002e-20 0.03260580312 6.739575899e-20 -3.779657182e-05)
(-0.01177089478 -0.0858540231 -2.861690873e-19 0.01182739486 1.545880499e-19 -5.650007501e-05)
(0.0008454944767 -0.06690224771 -1.567151574e-19 -0.000773667416 3.207730876e-19 -7.182706071e-05)
(0.00911409784 -0.05130858033 -5.275768046e-21 -0.009030156322 3.828328973e-19 -8.394151813e-05)
(0.0150074777 -0.03814318744 2.565922902e-19 -0.01491491753 3.194781082e-19 -9.256017842e-05)
(0.01950412497 -0.02687504978 -1.605913929e-19 -0.01940690209 2.196123521e-19 -9.72228728e-05)
(0.02321725045 -0.01713719933 9.874638844e-20 -0.02312017101 5.989844345e-19 -9.707944604e-05)
(0.02640761529 -0.008759091316 8.266382918e-19 -0.02631648662 3.740664749e-19 -9.112867091e-05)
(0.02932443791 -0.001649520823 8.52857357e-19 -0.02924652454 -4.101535811e-19 -7.791336189e-05)
(0.03200385067 0.004162176553 -9.697125422e-20 -0.03194809027 -2.360549352e-19 -5.576040504e-05)
(0.03440694377 0.008458711595 2.057693682e-19 -0.0343845091 -7.60797824e-20 -2.243466651e-05)
(-0.0543161786 -0.1457672946 -9.456102751e-20 0.05432753382 5.068124577e-20 -1.135522146e-05)
(-0.02189447818 -0.1062963976 -9.766021487e-20 0.02192289419 5.503826016e-20 -2.841601193e-05)
(-0.004377348349 -0.07870167833 -1.615106998e-19 0.004419831804 1.760631838e-19 -4.248345468e-05)
(0.005899129541 -0.05798240894 -2.657947935e-20 -0.005845119856 2.380974701e-19 -5.400968512e-05)
(0.01239117109 -0.04164054163 -1.496922828e-19 -0.01232806254 3.741457036e-19 -6.310854929e-05)
(0.01686137224 -0.02820676204 3.086191338e-19 -0.01679180909 2.548026678e-19 -6.956314728e-05)
(0.02017876765 -0.01689140529 6.913644721e-20 -0.02010574308 2.252596578e-19 -7.302457463e-05)
(0.02288543067 -0.007169747003 3.357602252e-19 -0.02281257299 2.957234765e-19 -7.285768495e-05)
(0.02521084502 0.001194068804 4.034636675e-19 -0.0251425259 -7.012015881e-20 -6.831912107e-05)
(0.02737989174 0.008363024288 4.347758107e-20 -0.02732155765 -2.784710212e-19 -5.833408722e-05)
(0.02942862379 0.01432391062 -1.330062552e-19 -0.02938694628 -2.690488443e-20 -4.16775064e-05)
(0.03133784698 0.01887487842 -1.660618515e-20 -0.03132111984 -2.453119422e-20 -1.67271444e-05)
(-0.03868425286 -0.149483481 7.031122803e-20 0.03869171023 -2.825776031e-20 -7.457367183e-06)
(-0.01360880856 -0.1027985938 -7.951639052e-20 0.01362748492 -6.714088496e-22 -1.867635846e-05)
(-0.0003234058106 -0.0719659923 -2.340909812e-19 0.0003513359211 1.234612566e-19 -2.793011045e-05)
(0.007280721928 -0.04982393079 -2.798913012e-19 -0.007245211668 2.335559272e-19 -3.551025913e-05)
(0.01194831359 -0.03292532071 -1.930074455e-19 -0.01190683457 3.572226468e-19 -4.147901975e-05)
(0.01507100118 -0.01933735254 1.196006283e-19 -0.01502531273 2.257099902e-19 -4.568844488e-05)
(0.01733222708 -0.008048656455 -2.970487064e-19 -0.01728432182 3.274354806e-19 -4.790526125e-05)
(0.01915701554 0.001600469941 4.930639593e-19 -0.01910929835 2.894067672e-19 -4.771718599e-05)
(0.02072480206 0.009901659108 3.057578812e-19 -0.02068015391 -1.178750263e-19 -4.464814519e-05)
(0.02221431453 0.0170797778 -1.197249953e-19 -0.02217629519 -3.080035757e-19 -3.801934419e-05)
(0.02365602605 0.02313583821 -6.504176543e-19 -0.02362895695 -2.568594306e-20 -2.706910318e-05)
(0.02504286285 0.02788278823 1.593644387e-19 -0.02503205412 1.931322896e-21 -1.080872423e-05)
(-0.02315559167 -0.1518468963 5.282896867e-20 0.02315905642 -2.408295392e-20 -3.464745348e-06)
(-0.007301332171 -0.09992906739 -7.198299772e-20 0.007310031847 -4.367484796e-21 -8.699675208e-06)
(0.0009949374554 -0.06677392582 -2.102372982e-19 -0.0009819148865 1.014779884e-19 -1.302256891e-05)
(0.005667071479 -0.04363405627 -1.819973367e-19 -0.005650510591 2.10152318e-19 -1.656088801e-05)
(0.008478724252 -0.0263667975 -5.797048991e-20 -0.00845939991 2.957066981e-19 -1.932434217e-05)
(0.01032102161 -0.01270028824 -1.382401834e-21 -0.01029978585 2.606177402e-19 -2.123575127e-05)
(0.01163058465 -0.001461199877 -2.098017076e-20 -0.01160840437 3.075215926e-19 -2.21802856e-05)
(0.012678493 0.008108664967 2.276601449e-19 -0.01265651924 1.642619766e-19 -2.197375305e-05)
(0.01357904551 0.01634160517 -8.848764078e-20 -0.01355863222 -7.953290777e-20 -2.041329518e-05)
(0.01444724448 0.02350786682 -1.95807558e-19 -0.01443001981 -1.903576298e-19 -1.722467174e-05)
(0.01530351152 0.02961905284 -5.33638602e-19 -0.01529139211 -3.907640185e-20 -1.211941029e-05)
(0.0161466418 0.03449966869 -3.881092267e-20 -0.01614188756 -1.935637143e-20 -4.754239855e-06)
(-0.007718292685 -0.1529930232 4.76281329e-20 0.007717720653 -9.534720959e-21 5.720317071e-07)
(-0.002296280147 -0.09832598087 -5.742228347e-20 0.002294892159 1.071816441e-20 1.387987131e-06)
(0.0005235698176 -0.06395821424 -2.069039711e-19 -0.0005256207954 8.148934429e-20 2.050977795e-06)
(0.002098530195 -0.04030401436 -7.608343612e-20 -0.002101129555 1.683564621e-19 2.59936031e-06)
(0.003036496579 -0.02285321854 -9.128854066e-20 -0.003039572656 2.494097265e-19 3.076077037e-06)
(0.003644193946 -0.009155004674 -1.564745729e-20 -0.003647680623 2.555625846e-19 3.486677337e-06)
(0.004071789582 0.002049385277 2.855600369e-21 -0.004075615705 2.683168267e-19 3.826123605e-06)
(0.00441253083 0.01157008523 -7.863831894e-20 -0.00441657916 1.623465978e-19 4.048329292e-06)
(0.004705817297 0.01976084144 -1.887291411e-19 -0.004709897676 -1.451844741e-20 4.080379046e-06)
(0.004991522738 0.02691591151 -3.206903695e-19 -0.004995311283 -1.159573909e-19 3.788544941e-06)
(0.005277104136 0.03305257618 -3.70311513e-19 -0.005280088664 -3.929451565e-20 2.984528105e-06)
(0.005563089731 0.03800173592 -1.120492199e-19 -0.005564450803 -3.171965417e-20 1.361072345e-06)
(0.007683629771 -0.152994951 4.4890735e-20 -0.007688232174 5.697235998e-21 4.602403393e-06)
(0.002254975324 -0.09832839458 -3.61479151e-20 -0.002266435264 2.83955063e-20 1.145994011e-05)
(-0.000569657534 -0.0639607621 -1.864233118e-19 0.0005525563965 6.027507638e-20 1.710113753e-05)
(-0.002148563987 -0.04030652585 6.50721726e-21 0.002126834275 1.301610007e-19 2.172971223e-05)
(-0.00309004808 -0.02285559334 -5.037075587e-20 0.003064607285 2.11769147e-19 2.544079444e-05)
(-0.003700807075 -0.00915715019 -2.111086531e-20 0.003672638819 2.303002495e-19 2.81682567e-05)
(-0.004130847074 0.002047577793 -3.306674065e-20 0.00410105973 2.62967291e-19 2.978734463e-05)
(-0.004473019744 0.01156876344 -1.606121577e-19 0.004442997529 1.85680456e-19 3.00222145e-05)
(-0.004766219726 0.01976020603 -3.41621882e-19 0.004737694584 2.08542999e-20 2.85251418e-05)
(-0.005049658441 0.02691622496 -4.049770186e-19 0.00502490251 -6.759352816e-20 2.475593099e-05)
(-0.005329880516 0.03305418491 -2.583967172e-19 0.005311828696 -9.941360737e-21 1.805181928e-05)
(-0.005606109676 0.03800518144 -1.680490495e-19 0.005598650282 -5.438484572e-20 7.459393999e-06)
(0.02312147334 -0.1518526365 5.508872659e-20 -0.02313004867 1.549441515e-20 8.575338386e-06)
(0.007260940361 -0.09993621063 -3.830768523e-21 -0.007282329332 3.584653396e-20 2.13889708e-05)
(-0.001040016698 -0.06678146369 -1.255132931e-19 0.001008078764 4.855912395e-20 3.193793317e-05)
(-0.005716147183 -0.04364150243 4.044537314e-20 0.005675558406 9.291054476e-20 4.058877707e-05)
(-0.008531464065 -0.02637386776 5.463337328e-20 0.008483976434 1.823075073e-19 4.748763062e-05)
(-0.01037705932 -0.01270672039 6.940852823e-21 0.01032456173 1.927937332e-19 5.249759522e-05)
(-0.01168940445 -0.001466684873 9.171550152e-20 0.01163402866 2.711318231e-19 5.537578375e-05)
(-0.01273921085 0.008104548379 -3.884350708e-19 0.01268359069 2.02013306e-19 5.562015605e-05)
(-0.01364031092 0.01633943164 -4.17599299e-19 0.01358769835 2.72589346e-20 5.261256329e-05)
(-0.01450709092 0.02350838862 -3.110952338e-19 0.01446167767 -2.124312727e-20 4.541324778e-05)
(-0.01535912127 0.02962326508 -2.013585035e-19 0.01532622798 5.664302369e-20 3.289328308e-05)
(-0.01619404642 0.03450912519 -3.459211902e-19 0.01618058187 -8.928813032e-20 1.346455136e-05)
(0.03865120459 -0.1494929075 6.269736307e-20 -0.03866364558 1.100745787e-20 1.244099314e-05)
(0.013570187 -0.1028101827 3.865287867e-20 -0.01360123727 1.425150313e-20 3.105027048e-05)
(0.0002802824954 -0.07197821399 4.123797662e-20 -0.0003266573145 6.070238203e-20 4.637481911e-05)
(-0.007327930669 -0.04983605563 -5.094098429e-20 0.007268991227 5.633128527e-20 5.893944174e-05)
(-0.01199945609 -0.03293692879 1.450793436e-19 0.01193051661 1.504067693e-19 6.893948054e-05)
(-0.01512588043 -0.01934805655 -9.283073127e-20 0.01504971142 1.537932979e-19 7.61690063e-05)
(-0.01739051836 -0.008057997041 -6.200216941e-20 0.01731024825 2.467583672e-19 8.027011025e-05)
(-0.01921807815 0.001593125513 -4.70754433e-19 0.01913755731 1.771634652e-19 8.052084532e-05)
(-0.02078760157 0.009897179361 -2.156612763e-19 0.02071156115 7.759958902e-20 7.60404248e-05)
(-0.02227728843 0.0170793043 -4.456277034e-19 0.02221178723 9.568935822e-20 6.550120395e-05)
(-0.02371687653 0.02314088658 -2.95071728e-19 0.02366955423 8.871001586e-20 4.732229888e-05)
(-0.0250984316 0.027895723 -3.239302678e-19 0.02507913069 -1.169625814e-19 1.930091219e-05)
(0.05428468857 -0.1457802052 -5.446011955e-20 -0.05430083906 -5.9871102e-20 1.615049442e-05)
(0.02185837718 -0.106311987 1.046031384e-19 -0.02189869908 -5.683244415e-20 4.03219077e-05)
(0.004337011488 -0.07871810358 1.72656583e-19 -0.00439724115 3.190828288e-20 6.022966246e-05)
(-0.005943657116 -0.057998809 9.90946247e-20 0.005867106878 4.474663835e-20 7.655023797e-05)
(-0.01243998137 -0.0416564348 1.710863992e-19 0.01235045563 7.062689134e-20 8.952573321e-05)
(-0.01691449665 -0.02822170469 2.581691275e-20 0.01681561283 -4.801701127e-20 9.888382376e-05)
(-0.02023613999 -0.01690486428 5.093957719e-19 0.0201319839 1.556145658e-19 0.000104156097)
(-0.02294674022 -0.007180974034 -1.038493115e-19 0.02284233039 3.48442136e-19 0.0001044098236)
(-0.02527548693 0.001186113357 -2.267119654e-19 0.02517697424 1.582462225e-19 9.851269323e-05)
(-0.02744685333 0.008359715922 -1.319010367e-19 0.0273620874 1.886708817e-19 8.476593092e-05)
(-0.0294963159 0.01432708803 -8.929076635e-20 0.02943515936 2.71708132e-19 6.115653266e-05)
(-0.03140421382 0.01888740376 -3.792258537e-19 0.03137931921 -7.735277243e-20 2.489460719e-05)
(0.06996628466 -0.1405368377 -1.090942372e-19 -0.06998594192 -1.196185432e-19 1.965725479e-05)
(0.03253503115 -0.1095798347 9.035474898e-20 -0.03258411843 -1.527114809e-19 4.90872845e-05)
(0.01173401608 -0.08587404131 2.335096274e-19 -0.01180734429 -6.620423277e-21 7.332820577e-05)
(-0.0008866553618 -0.06692240653 1.007012401e-19 0.0007934556759 5.144900566e-20 9.319968595e-05)
(-0.009159910416 -0.05132842753 -1.684335862e-20 0.009050922851 7.521752086e-21 0.0001089875652)
(-0.01505823405 -0.03816230751 -3.793591651e-20 0.01493787748 -2.311600221e-19 0.0001203565682)
(-0.01956005456 -0.02689293051 4.785267532e-19 0.01943332086 -1.276012036e-19 0.0001267336987)
(-0.0232784219 -0.01715309504 2.249317481e-19 0.02315143471 2.692341612e-19 0.0001269871888)
(-0.02647391888 -0.008771943415 -1.107840199e-19 0.02635417145 -2.068650133e-20 0.0001197474344)
(-0.02939549645 -0.001657911566 4.329525082e-19 0.02929253057 -1.580273791e-19 0.00010296588)
(-0.03207889606 0.004160164853 3.691121923e-19 0.03200467335 4.155642206e-19 7.422270638e-05)
(-0.03448519555 0.008466054252 -1.041670282e-19 0.03445501972 9.926523976e-20 3.017582835e-05)
(0.08555772716 -0.1335703943 3.024571121e-20 -0.08558064417 -8.527224569e-20 2.29170038e-05)
(0.04568071552 -0.1116310885 1.065217634e-19 -0.0457379514 -2.314436368e-19 5.72358706e-05)
(0.02265212885 -0.09215590797 3.941763728e-19 -0.02273763417 -6.528309109e-20 8.550531615e-05)
(0.008069750635 -0.07522267931 1.611034818e-19 -0.008178428538 5.236917423e-20 0.0001086779022)
(-0.00191290823 -0.06057128381 4.746736901e-20 0.001785828614 -5.276293647e-20 0.0001270796156)
(-0.009303445776 -0.04783152481 -7.023910022e-20 0.009163129302 -2.826313421e-19 0.000140316474)
(-0.01510700545 -0.03674156536 2.9420532e-19 0.01495928732 -5.014508655e-19 0.0001477181258)
(-0.01995790995 -0.02709894942 3.695058886e-19 0.01980994194 3.65016195e-20 0.0001479680185)
(-0.02412769357 -0.01880123719 -4.493033955e-20 0.02398821704 3.526973337e-19 0.0001394765268)
(-0.02786614864 -0.0118309485 -2.287421749e-19 0.02774627757 -1.919011274e-19 0.0001198710696)
(-0.03120338315 -0.006232978465 5.189767203e-19 0.03111702772 -1.856472801e-19 8.635543439e-05)
(-0.0340732711 -0.0022368108 -3.286021979e-19 0.03403819367 8.394291804e-20 3.507743074e-05)
(0.1008332488 -0.1247051659 -3.224269574e-21 -0.1008591376 -1.582923798e-19 2.588875969e-05)
(0.06102192152 -0.1114802917 1.008495311e-19 -0.06108658666 -2.698459747e-19 6.466514268e-05)
(0.03681615882 -0.09626147839 2.102928884e-19 -0.0369127666 -2.878957342e-19 9.660777542e-05)
(0.020666817 -0.08149880496 2.049208171e-19 -0.02078960715 1.9202828e-20 0.0001227901456)
(0.009065191635 -0.06798450554 -2.887094589e-19 -0.009208765931 -1.894407506e-22 0.0001435742966)
(0.0001382157183 -0.05587103538 -1.209023442e-19 -0.0002967282292 -1.280130556e-19 0.0001585125109)
(-0.007065505603 -0.04514960093 -3.662344966e-19 0.006898660079 -5.56173402e-19 0.0001668455237)
(-0.0131529311 -0.03577333548 2.845468839e-19 0.01298584252 -5.426331098e-19 0.0001670885795)
(-0.01838660908 -0.02770476954 5.697963756e-19 0.01822915706 -1.753022724e-19 0.0001574520168)
(-0.02299428591 -0.02099505877 6.048502651e-19 0.02285901678 3.004928051e-19 0.0001352691258)
(-0.02699480749 -0.0157031167 -3.100907434e-19 0.02689740503 2.989848542e-19 9.740246172e-05)
(-0.03028752944 -0.01206653613 2.617519721e-19 0.03024799136 1.059246549e-19 3.953807809e-05)
(0.1154857494 -0.1138139037 -4.918396419e-20 -0.1155142845 -2.363432382e-19 2.853506189e-05)
(0.07794664477 -0.1082592682 8.579673623e-20 -0.07801792627 -2.713939779e-19 7.128149866e-05)
(0.05351382853 -0.09703007925 -3.214278024e-20 -0.05362032425 -3.967927021e-19 0.0001064957216)
(0.03618003071 -0.08449642759 8.576061869e-20 -0.03631538936 -3.632927885e-19 0.0001353586502)
(0.02307559446 -0.07231046158 3.40499558e-19 -0.0232338583 1.302737163e-19 0.0001582638363)
(0.01260809195 -0.06105841851 1.045219947e-19 -0.01278280743 1.798150801e-19 0.000174715476)
(0.00394940908 -0.05094381865 7.527897717e-20 -0.004133284047 1.135582783e-20 0.0001838749665)
(-0.003437903353 -0.04205150803 4.128034729e-19 0.003253795315 -4.025450405e-19 0.0001841080383)
(-0.009790074409 -0.03439952387 6.20355263e-19 0.009616626867 -1.469710641e-20 0.0001734475417)
(-0.01529317461 -0.02809515249 6.127719327e-19 0.01514420847 1.082415498e-19 0.0001489661448)
(-0.01995008256 -0.02320744939 9.245444911e-19 0.01984285794 -7.586020698e-20 0.0001072246286)
(-0.02361995715 -0.01997432186 2.06018245e-19 0.02357645561 4.332740815e-19 4.350154126e-05)
(0.1291435697 -0.1008462186 -1.587162779e-20 -0.1291743923 -1.76913429e-19 3.082259473e-05)
(0.09555911904 -0.1013256891 3.958573271e-21 -0.09563612067 -3.061022433e-19 7.700163377e-05)
(0.07166468277 -0.0935816598 -1.407327302e-19 -0.07177972743 -4.573788593e-19 0.0001150446581)
(0.05349175863 -0.08325534991 1.252825759e-20 -0.05363798381 -5.877236256e-19 0.0001462251741)
(0.03902826751 -0.07258088929 6.227082711e-19 -0.0391992308 -4.159075242e-19 0.0001709632886)
(0.02706940234 -0.06244836856 4.554063686e-19 -0.0272581237 1.471068798e-19 0.0001887213629)
(0.0169615941 -0.05321350861 4.96935111e-19 -0.0171601861 9.984585841e-21 0.0001985920037)
(0.00826815586 -0.04505730219 4.705693543e-19 -0.008466967864 -2.380052371e-19 0.0001988120041)
(0.0007921132082 -0.03803906371 1.335484983e-18 -0.0009793746764 -4.191405049e-19 0.0001872614682)
(-0.005596682984 -0.0323041195 9.906650566e-19 0.005435893655 1.277341757e-19 0.0001607893287)
(-0.01088192429 -0.02792637343 -5.021028714e-19 0.01076622642 -3.945700002e-19 0.0001156978674)
(-0.01487937956 -0.02513421937 2.166259621e-19 0.01483246196 -3.275768941e-20 4.691759831e-05)
(0.1413961908 -0.08585024026 1.912178516e-20 -0.1414289133 7.954643418e-21 3.272257501e-05)
(0.1127677261 -0.09034779 -1.600078334e-19 -0.1128494797 -1.748132374e-19 8.17535526e-05)
(0.08993137011 -0.08542554092 -3.118409147e-19 -0.0900535171 -4.042291238e-19 0.0001221469915)
(0.07120884104 -0.07722514492 1.040135358e-19 -0.07136409401 -4.423009169e-19 0.0001552529676)
(0.05555820945 -0.06823163013 2.166526317e-19 -0.05573972232 -9.192200007e-19 0.0001815128713)
(0.04221904182 -0.05948335551 7.035735164e-19 -0.04241939582 -3.740263638e-19 0.0002003539986)
(0.03074007945 -0.05141594671 1.251598259e-21 -0.03095089106 -4.523340681e-19 0.0002108116073)
(0.02080261779 -0.04426362199 7.015888364e-19 -0.02101363353 -3.833690532e-19 0.0002110157369)
(0.01225619177 -0.03810971203 4.427366412e-19 -0.0124549122 -7.338254924e-19 0.0001987204366)
(0.005033922465 -0.03311603032 -6.719073782e-19 -0.005204512974 -8.24620786e-19 0.0001705905091)
(-0.0008273594102 -0.02935516389 -6.945513057e-19 0.0007046431667 -3.7931406e-19 0.0001227162436)
(-0.005099914941 -0.02703504147 9.034189422e-21 0.005050171135 -4.134706901e-19 4.974380606e-05)
(0.1518262011 -0.06898491494 2.092176195e-20 -0.1518604121 1.513358419e-19 3.421102912e-05)
(0.1283963826 -0.07535556111 -1.590485459e-19 -0.1284818599 -4.453372466e-20 8.547735144e-05)
(0.1068609403 -0.07252652484 -1.033698685e-19 -0.1069886535 -1.622933457e-19 0.000127713196)
(0.08781203704 -0.06633559979 -6.131394934e-20 -0.08797436528 -4.064644025e-19 0.0001623282354)
(0.07117330113 -0.0591726595 -8.630314079e-21 -0.07136308071 -6.337240717e-19 0.0001897795793)
(0.05662980932 -0.05206123902 1.550468573e-19 -0.056839276 -8.410865528e-19 0.0002094666834)
(0.04393434167 -0.04544092488 1.891393264e-20 -0.04415472125 -7.877941821e-19 0.0002203795822)
(0.03288782589 -0.03955397161 3.685815564e-19 -0.033108391 -4.022605274e-19 0.0002205651125)
(0.02338725869 -0.0344895193 -5.864921128e-19 -0.02359493821 -5.029165706e-19 0.0002076795153)
(0.01542874441 -0.03040332239 -9.569508496e-19 -0.01560698989 -5.312474634e-19 0.0001782454762)
(0.009068903341 -0.02736029591 -2.403290698e-19 -0.009197093833 -5.696094555e-19 0.000128190492)
(0.004575743451 -0.02553685409 1.177724686e-19 -0.004627687332 1.370622657e-21 5.194388083e-05)
(0.1600440937 -0.05052133398 -5.719923231e-20 -0.160079363 8.646900744e-20 3.526928678e-05)
(0.1413070372 -0.05675250161 -2.880415676e-19 -0.1413951634 -3.323725757e-20 8.812624055e-05)
(0.1210404011 -0.05532079703 -3.205068658e-19 -0.1211720744 -1.746601914e-19 0.0001316733272)
(0.1018206328 -0.05101399245 -2.650283106e-19 -0.1019879949 -3.149730122e-19 0.0001673620792)
(0.08441720076 -0.04580545646 -1.122602236e-20 -0.08461286035 -3.089160184e-19 0.0001956595934)
(0.06890715112 -0.04055220188 -2.002041738e-19 -0.06912309615 -5.584612802e-19 0.0002159450311)