/*--------------------------------*- C++ -*----------------------------------*\
| =========                 |                                                 |
| \\      /  F ield         | foam-extend: Open Source CFD                    |
|  \\    /   O peration     | Version:  3.0                                   |
|   \\  /    A nd           | Web:         http://www.extend-project.de       |
|    \\/     M anipulation  |                                                 |
\*---------------------------------------------------------------------------*/
FoamFile
{
    version     2.0;
    format      ascii;
    class       volVectorField;
    location    "27";
    object      u;
}
// * * * * * * * * * * * * * * * * * * * * * * * * * * * * * * * * * * * * * //

dimensions      [0 0 0 0 0 0 0];

internalField   nonuniform List<vector> 
672
(
(0.2401489678 -0.09246448344 8.617907399e-19)
(0.4872569849 -0.06529262758 3.795783442e-18)
(0.6614697226 -0.04771833452 1.162417921e-17)
(0.7633101429 -0.03536509807 -4.719980741e-18)
(0.8468777691 -0.02674021951 5.699853996e-18)
(0.8927591384 -0.02033198914 2.471411076e-18)
(0.9380169294 -0.01538875095 2.800868554e-18)
(0.9575375882 -0.01159891267 -7.340418004e-19)
(0.9837190899 -0.008210603376 6.240752822e-18)
(0.988074203 -0.005630876486 9.413300399e-18)
(1.003204887 -0.002842627498 -2.495310405e-18)
(0.9968504285 -0.0004665052022 2.030605491e-18)
(0.2812300012 -0.2723555411 -5.812745764e-19)
(0.5162489312 -0.1922424555 3.969761206e-18)
(0.6826421554 -0.1404142275 1.306981384e-17)
(0.77898584 -0.1039843335 -5.819910999e-18)
(0.858714819 -0.07853956069 -9.291629049e-19)
(0.9017437841 -0.05963420967 -2.612696288e-18)
(0.9448006781 -0.04504307414 -1.787292368e-17)
(0.9626335938 -0.03385544233 1.193122757e-17)
(0.9873059189 -0.0238473337 1.04115071e-17)
(0.9905114592 -0.01622482835 -3.820163233e-18)
(1.004399425 -0.007981426557 -1.0203199e-17)
(0.9969862783 -0.0009591534363 2.120563371e-17)
(0.3613099301 -0.4385955321 -5.938411691e-18)
(0.5727635839 -0.3095580528 3.169378947e-18)
(0.7239102706 -0.2260753462 4.833042705e-18)
(0.809538058 -0.1673954752 1.147496806e-17)
(0.8817812294 -0.1264070162 -5.330259338e-18)
(0.9192490349 -0.09595249905 1.513846532e-17)
(0.9580128327 -0.07244537669 1.504210366e-17)
(0.9725547602 -0.05442093794 3.282574701e-17)
(0.9942822025 -0.03829511517 -7.881409344e-18)
(0.9952454892 -0.02601203662 1.234235315e-17)
(1.006707533 -0.01272703986 -4.088798933e-18)
(0.9972290595 -0.001410794668 1.343478892e-17)
(0.4763744038 -0.5828486529 5.214995076e-18)
(0.6539664637 -0.4113574735 -1.985678844e-18)
(0.7832057295 -0.3004063056 -2.587690898e-18)
(0.8534346802 -0.2224191597 1.635811061e-18)
(0.9149215489 -0.1679422831 -1.433950684e-17)
(0.9443971853 -0.1274659389 9.702952184e-18)
(0.9769921112 -0.09622150088 -2.375824341e-17)
(0.98680374 -0.07226428064 2.081097445e-17)
(1.004299384 -0.05082928692 6.864789293e-18)
(1.002039045 -0.03450175486 2.69125954e-17)
(1.010014664 -0.01684127084 3.239614226e-18)
(0.997566679 -0.0017988054 4.273822561e-17)
(0.6206530142 -0.6978810736 1.933268666e-17)
(0.7557862951 -0.4925352463 2.848952414e-18)
(0.8575546193 -0.3596797064 7.818145613e-19)
(0.9084751244 -0.2662956939 4.139146557e-18)
(0.9564734297 -0.201062539 5.453874135e-18)
(0.9759277571 -0.1525938702 1.894884849e-17)
(1.000786316 -0.1151792184 -1.530094483e-17)
(1.004666632 -0.08649036849 7.190138318e-18)
(1.016854752 -0.06082135865 1.67507582e-17)
(1.01055221 -0.04126791382 -3.786739588e-17)
(1.014154752 -0.02011782443 -5.02739491e-18)
(0.9979832264 -0.002103301963 8.247237719e-18)
(0.7869120761 -0.7779246965 3.083848453e-18)
(0.8731173172 -0.5490214137 4.398121428e-18)
(0.9432297554 -0.40092317 -1.733824558e-17)
(0.9718993432 -0.2968252901 1.511283537e-18)
(1.004354282 -0.2241067142 -1.403770031e-17)
(1.012259685 -0.1700764783 1.1339026e-17)
(1.028203353 -0.1283675419 -2.727375616e-17)
(1.025247784 -0.09638595338 -1.820341871e-17)
(1.031319801 -0.06776986559 1.138616961e-17)
(1.020358158 -0.04597128492 4.974136468e-17)
(1.018921262 -0.02239194631 -5.048665785e-17)
(0.9984578758 -0.002309037002 3.648203181e-17)
(0.9668139299 -0.818965718 -8.750968066e-19)
(1.000076332 -0.5779827922 2.933888679e-18)
(1.035934377 -0.4220686601 -1.332698746e-17)
(1.04052738 -0.3124765022 -1.615780902e-17)
(1.056162656 -0.2359194242 2.303272638e-17)
(1.051571622 -0.1790366335 9.580315888e-18)
(1.05786802 -0.13512532 1.893664859e-17)
(1.047515741 -0.1014543775 -2.533005228e-18)
(1.046968888 -0.07132652999 -1.000023526e-18)
(1.030965863 -0.04837554143 -2.349524643e-17)
(1.02407499 -0.02354969098 2.851480142e-17)
(0.9989677345 -0.002405091891 1.072570858e-17)
(1.15133845 -0.8189459477 5.658792644e-18)
(1.130297066 -0.5779676324 -3.160445329e-18)
(1.131020777 -0.4220554285 -8.426257727e-19)
(1.110917923 -0.3124647891 -7.444991059e-18)
(1.109301518 -0.2359077651 3.282783447e-18)
(1.091892307 -0.1790251549 7.578177892e-18)
(1.088293666 -0.1351130293 2.201299184e-17)
(1.070353927 -0.1014415094 3.127779152e-18)
(1.063018184 -0.07131228911 7.027095811e-18)
(1.04184345 -0.04836010236 2.958816624e-17)
(1.029358405 -0.02353227805 -2.199490786e-17)
(0.999487281 -0.002386610196 5.352046444e-18)
(1.331232175 -0.7778665631 8.773104852e-18)
(1.25724996 -0.5489760171 -4.381722177e-18)
(1.22372041 -0.4008844139 -7.367038471e-18)
(1.179541646 -0.2967901752 8.670697131e-18)
(1.161105892 -0.2240726278 -2.074814505e-17)
(1.131200335 -0.1700421002 5.061722875e-18)
(1.117954353 -0.1283315792 -9.783547557e-18)
(1.092617661 -0.0963474694 1.341439696e-17)
(1.078662725 -0.06772810988 -4.407245317e-18)
(1.05244608 -0.04592516851 -3.527110319e-17)
(1.034506468 -0.02234075013 1.094797346e-17)
(0.9999912517 -0.002253782633 -2.213907778e-17)
(1.497475207 -0.6977869371 6.156812296e-18)
(1.374569029 -0.4924621183 9.730920948e-19)
(1.309385605 -0.3596165682 1.499085505e-17)
(1.242957416 -0.2662388765 3.217331518e-18)
(1.208978703 -0.2010067152 3.776112332e-18)
(1.167524576 -0.1525380111 -2.158032844e-17)
(1.14536337 -0.1151201783 3.683963235e-18)
(1.113190499 -0.0864276946 2.105067255e-19)
(1.093118639 -0.06075281063 -1.440256719e-17)
(1.062242061 -0.04119277662 -1.527615132e-17)
(1.039261665 -0.02003391895 1.402477746e-17)
(1.000454359 -0.002013166076 -5.422589583e-18)
(1.641730964 -0.5827229991 -6.937336399e-19)
(1.476371629 -0.4112591193 -3.667683211e-19)
(1.383720406 -0.3003216517 1.428766595e-18)
(1.297985612 -0.2223422731 -4.840994736e-18)
(1.250519191 -0.1678670443 5.027754448e-18)
(1.19904397 -0.1273900251 -1.051235202e-17)
(1.169146185 -0.09614164248 -7.238134557e-19)
(1.131041291 -0.07217897102 -5.499635169e-18)
(1.105660992 -0.05073643685 -1.702872502e-18)
(1.07074071 -0.03439953505 4.803606945e-18)
(1.043385562 -0.01672764643 1.870792252e-18)
(1.000854034 -0.001675971681 -3.537820207e-18)
(1.756766346 -0.4384437952 -6.567094417e-18)
(1.557552892 -0.3094392426 -1.516064521e-18)
(1.442997777 -0.2259721502 3.459376582e-18)
(1.341866802 -0.1673017378 3.963607106e-18)
(1.283644707 -0.1263145039 4.275250983e-18)
(1.224177907 -0.09585928355 -4.570498776e-18)
(1.188110581 -0.07234671262 1.011919547e-17)
(1.145274833 -0.0543158362 -1.089497588e-17)
(1.115661211 -0.03818028036 -5.742002843e-18)
(1.077515784 -0.02588607072 -3.130961656e-18)
(1.046671732 -0.01258670994 1.20692535e-17)
(1.001170173 -0.001258998692 -1.017274868e-17)
(1.83681272 -0.2721846422 -3.854213234e-18)
(1.614042223 -0.1921075018 -1.158825525e-18)
(1.484245141 -0.1402967546 1.831471653e-18)
(1.372400846 -0.1038765935 1.479520268e-18)
(1.306694127 -0.07843313297 4.012266994e-19)
(1.241666362 -0.0595261889 -1.484536237e-18)
(1.201305583 -0.04492889076 7.537861638e-19)
(1.15517773 -0.03373326359 -6.247897975e-18)
(1.122617865 -0.02371418258 -6.114425595e-19)
(1.082227928 -0.01607844002 -2.740355587e-18)
(1.048955453 -0.007818878698 4.804658622e-18)
(1.001387363 -0.0007821735586 -3.657276354e-18)
(1.877856474 -0.09228159584 -1.891499975e-18)
(1.643006949 -0.06514774712 -6.519718473e-19)
(1.505394348 -0.04759069537 5.835829659e-19)
(1.388056542 -0.03524746642 1.014858198e-18)
(1.318511783 -0.02662298049 5.434442266e-19)
(1.250632291 -0.02021278165 -7.197934695e-19)
(1.208069667 -0.01526207251 -2.126284233e-19)
(1.160253324 -0.0114634475 -3.131275818e-18)
(1.126182261 -0.008062559029 -1.987352723e-18)
(1.08464078 -0.005468491661 -1.921430011e-18)
(1.050122367 -0.002662216917 1.825330184e-18)
(1.001494663 -0.0002693247725 -2.610453966e-18)
(1.877839409 0.09224363132 -1.447333773e-19)
(1.642994749 0.06507440591 -1.559872617e-20)
(1.505384892 0.04749683952 -5.774690445e-19)
(1.388048995 0.03514497607 1.451981876e-18)
(1.318505141 0.02651756151 6.861800878e-19)
(1.250626267 0.02011034041 -3.318533599e-19)
(1.208063711 0.01516582442 5.718105654e-19)
(1.160247261 0.01137774381 -2.964134044e-18)
(1.126175714 0.007989572988 -2.568151915e-18)
(1.084633507 0.005412683673 -1.90882655e-18)
(1.050114002 0.002624624148 9.945960328e-19)
(1.001486856 0.000254892702 -3.556763651e-18)
(1.836762374 0.2721390787 1.728337199e-18)
(1.614006191 0.1920287138 7.302097895e-19)
(1.484217162 0.1401986637 -1.212667783e-18)
(1.372378495 0.1037707144 1.415977186e-18)
(1.306674423 0.07832472349 1.637735263e-18)
(1.241648503 0.05942103648 -8.011169927e-19)
(1.201287919 0.04482996103 2.906219607e-18)
(1.15515978 0.0336448386 -5.994739236e-18)
(1.122598489 0.02363826045 -3.028685243e-18)
(1.082206429 0.01601938144 -1.096160854e-18)
(1.048930741 0.007777551225 1.00824647e-18)
(1.001364305 0.0007642613425 -7.388265568e-18)
(1.756685241 0.4383834124 3.973046934e-18)
(1.55749487 0.3093498497 1.497442419e-18)
(1.442952758 0.2258658259 7.052895389e-19)
(1.341830852 0.1671892784 -2.603097693e-18)
(1.283613039 0.1262002955 3.221910806e-18)
(1.2241492 0.09574886828 -5.220084292e-18)
(1.188082194 0.07224258091 -2.6241012e-18)
(1.145245968 0.05422211749 -9.404017316e-18)
(1.11563005 0.03809865171 1.769529771e-18)
(1.077481192 0.02582067789 -5.001748255e-18)
(1.046631959 0.01253811 -1.058312866e-18)
(1.00113306 0.001234304786 -7.112742283e-18)
(1.641623168 0.5826413219 4.448167803e-20)
(1.4762945 0.4111544619 2.909626462e-18)
(1.383660534 0.3002034574 3.268944164e-18)
(1.297937793 0.222220315 8.044164353e-19)
(1.250477047 0.1677444517 5.666635824e-18)
(1.199005772 0.1272720077 -3.848783436e-18)
(1.169108404 0.09602998901 1.356545794e-17)
(1.131002887 0.07207761814 -3.099100836e-18)
(1.105619531 0.05064656951 -2.256533821e-18)
(1.070694697 0.03432502101 -7.139925627e-18)
(1.043332659 0.0166685679 -4.404033841e-19)
(1.000804668 0.001641517935 -1.574190814e-17)
(1.497346101 0.69767854 -6.915945988e-18)
(1.374476666 0.492338339 -1.44825779e-19)
(1.309313937 0.3594835324 1.704707905e-18)
(1.242900189 0.2661050598 -6.041601275e-19)
(1.208928292 0.2008736781 -4.063007505e-18)
(1.167478884 0.1524105189 -9.067166702e-18)
(1.145318187 0.1149991637 1.001032478e-17)
(1.113144561 0.0863168182 2.991862793e-18)
(1.093069045 0.06065267735 -6.406531952e-18)
(1.062187008 0.04110686499 2.092885743e-17)
(1.03919836 0.01996175247 6.814994852e-18)
(1.000395289 0.001966500553 -7.81931899e-19)
(1.331088259 0.7777273907 1.516228688e-18)
(1.257147011 0.5488301768 -1.791281649e-18)
(1.22364051 0.4007342228 1.279910804e-17)
(1.179477844 0.2966426312 5.387930172e-19)
(1.161049672 0.2239274698 8.147752699e-18)
(1.131149383 0.1699036164 -5.918799776e-18)
(1.117903959 0.1281996831 1.630192571e-17)
(1.092566432 0.09622554616 1.510069034e-17)
(1.078607413 0.06761605074 -3.235575644e-18)
(1.052384683 0.04582605388 -3.269424323e-17)
(1.034435867 0.02225341805 3.328765424e-17)
(0.999925362 0.002193001183 -2.223668682e-17)
(1.151186885 0.8187734202 3.468516618e-19)
(1.130188648 0.5777979208 -1.891813403e-18)
(1.130936657 0.4218867209 8.262069755e-18)
(1.110850757 0.3123024546 1.304059612e-17)
(1.109242356 0.2357495904 -2.002267714e-17)
(1.091838688 0.1788748663 -6.203886066e-18)
(1.088240645 0.1349694739 -2.107005907e-17)
(1.070300023 0.1013077239 1.206551947e-19)
(1.062959983 0.07118744071 5.178574013e-18)
(1.041778841 0.04824678153 2.79809456e-17)
(1.029284101 0.02342863093 -2.512825455e-17)
(0.9994179467 0.002310598642 -3.470783968e-19)
(0.9666623777 0.818759037 -9.7783703e-18)
(0.9999679597 0.5777886015 2.575922548e-18)
(1.035850286 0.4218809206 -4.066861206e-18)
(1.040460243 0.3122989442 3.650316265e-18)
(1.056103509 0.2357478015 1.82437689e-18)
(1.05151802 0.1788741487 -2.544190301e-18)
(1.057815011 0.1349696817 -2.066150382e-17)
(1.047461852 0.1013083221 -2.730112834e-18)
(1.046910701 0.07118843122 -1.552973571e-18)
(1.030901263 0.04824755301 -2.317152238e-17)
(1.024000691 0.02342919904 2.803362683e-17)
(0.99889838 0.002313410856 4.764001216e-18)
(0.7867680509 0.777684606 -1.531024872e-17)
(0.8730143214 0.5488033025 2.248171929e-18)
(0.943149859 0.4007168954 4.143638723e-18)
(0.9718355485 0.296632923 -1.592609606e-17)
(1.00429809 0.2239220661 2.732789266e-17)
(1.012208757 0.1699021758 9.122095064e-19)
(1.028152994 0.1282002301 1.703236561e-17)
(1.025196592 0.09622801444 -1.338673291e-17)
(1.031264525 0.06761895142 1.362737857e-17)
(1.020296803 0.04582905901 5.72438155e-17)
(1.018850679 0.022255107 -2.056831321e-17)
(0.9983920145 0.00220209979 3.237311566e-17)
(0.6205238198 0.6976102418 -1.240689183e-17)
(0.7556939709 0.4922951059 -5.600486608e-18)
(0.8574830167 0.359456302 -2.923568417e-17)
(0.9084179641 0.2660896323 -5.867050971e-18)
(0.9564230866 0.2008657788 -1.555751834e-17)
(0.9758821316 0.15240858 3.851402901e-17)
(1.000741203 0.1150010078 -1.075786402e-17)
(1.004620767 0.0863213599 5.914920314e-18)
(1.016805229 0.0606584884 2.222672784e-17)
(1.010497214 0.04111245939 1.335365574e-17)
(1.014091474 0.01996579556 -2.832389628e-17)
(0.9979241413 0.00198224499 1.533767249e-18)
(0.4762664215 0.5825509629 4.653376148e-19)
(0.6538892747 0.4110980623 -9.822155676e-19)
(0.7831459051 0.3001679968 4.220935e-19)
(0.8533869263 0.2222011684 8.749236147e-18)
(0.9148794973 0.1677350279 -1.748431824e-17)
(0.9443590766 0.1272711125 1.241435608e-17)
(0.9769544265 0.09603386739 -7.312318626e-18)
(0.9867654382 0.0720856786 1.4138826e-17)
(1.004258018 0.05065607776 -6.451393482e-18)
(1.001993131 0.03433483023 -2.296819852e-17)
(1.009961808 0.01667608314 -8.905258368e-18)
(0.9975173492 0.001665481584 4.811642977e-18)
(0.3612286927 0.4382766334 1.581849102e-17)
(0.5727054775 0.3092834587 1.323929251e-18)
(0.7238653017 0.2258251934 -9.04630073e-18)
(0.8095021738 0.1671680277 -1.765104181e-17)
(0.8817496954 0.1261913714 -1.271725446e-17)
(0.9192204722 0.09575005764 3.061693816e-18)
(0.9579846126 0.07225017632 -3.974911827e-17)
(0.972526059 0.05423465326 2.696814905e-17)
(0.9942511989 0.03811361156 7.217149327e-18)
(0.9952110238 0.02583594049 4.759777071e-18)
(1.006667833 0.0125513177 -4.345867566e-17)
(0.9971919483 0.001267690381 2.921209872e-17)
(0.2811797058 0.2720216313 5.445419371e-18)
(0.5162128021 0.1919570241 -1.055896124e-18)
(0.6826142298 0.140155697 -5.397416604e-18)
(0.7789635604 0.1037501565 -2.822323613e-18)
(0.8586952702 0.07831798136 3.783002581e-18)
(0.9017261109 0.05942638192 -1.264780306e-18)
(0.9447832096 0.04484256778 1.270601646e-18)
(0.9626158343 0.03366377575 6.450509206e-18)
(0.9872866945 0.02366004232 -1.581802031e-17)
(0.9904901032 0.01604232106 1.758250448e-18)
(1.004374794 0.00779835215 -1.55500327e-17)
(0.9969632634 0.000809198558 4.347369829e-18)
(0.2401325792 0.09212283073 1.207126294e-18)
(0.4872444258 0.06500184904 -2.740252779e-18)
(0.6614603786 0.04745544684 -8.597196513e-18)
(0.7633027402 0.03512743872 1.803232476e-18)
(0.8468714561 0.02651552701 -5.314691408e-18)
(0.8927534715 0.02012136947 -1.511719484e-18)
(0.938011342 0.01518548847 4.793709209e-20)
(0.9575318534 0.01140445515 -6.923234597e-18)
(0.9837128216 0.00802028322 -1.502677876e-18)
(0.9880671545 0.005445005582 -4.087555506e-18)
(1.003196686 0.002655709452 -4.930176542e-18)
(0.9968426779 0.0003129905757 1.085563324e-18)
(0.2401461898 -0.09239893907 -8.60920127e-19)
(0.4872522038 -0.06521588964 -3.794809891e-18)
(0.6614649225 -0.0476271828 -1.162313022e-17)
(0.763304227 -0.03525895202 4.721026125e-18)
(0.8468714499 -0.02661837 -5.698777169e-18)
(0.8927516455 -0.02019390528 -2.470447056e-18)
(0.9380087843 -0.01523389256 -2.799950663e-18)
(0.9575281678 -0.01142697932 7.350566724e-19)
(0.9837089204 -0.008021388993 -6.239992979e-18)
(0.9880627463 -0.005424467238 -9.412335392e-18)
(1.003192648 -0.002618711132 2.496387745e-18)
(0.9968351871 -0.000195910817 -2.029313445e-18)
(0.2812189727 -0.27229098 5.821216547e-19)
(0.5162361702 -0.1921665337 -3.968777889e-18)
(0.6826268201 -0.1403243679 -1.306854265e-17)
(0.7789682962 -0.1038795777 5.820803511e-18)
(0.8586944441 -0.07841939435 9.30342562e-19)
(0.9017209906 -0.05949791012 2.613466007e-18)
(0.944774814 -0.04489026725 1.787365698e-17)
(0.9626051296 -0.03368570877 -1.193032292e-17)
(0.9872742622 -0.0236606198 -1.04104906e-17)
(0.990477167 -0.01602109366 3.821075411e-18)
(1.004361878 -0.007760459672 1.020393567e-17)
(0.996941085 -0.0006920087377 -2.120400237e-17)
(0.3612919728 -0.4385327143 5.939103186e-18)
(0.5727422069 -0.3094843559 -3.168476957e-18)
(0.7238853528 -0.2259878492 -4.831715121e-18)
(0.8095086915 -0.1672935998 -1.147372215e-17)
(0.8817478724 -0.1262899782 5.331507878e-18)
(0.9192108971 -0.09581984883 -1.513768003e-17)
(0.9579703436 -0.07229648867 -1.504077048e-17)
(0.9725072648 -0.05425565405 -3.282516154e-17)
(0.9942301838 -0.03811314411 7.88242379e-18)
(0.9951884086 -0.02581358581 -1.234154385e-17)
(1.0066458 -0.01251166935 4.089997542e-18)
(0.9971540046 -0.001150523876 -1.34334686e-17)
(0.4763491245 -0.5827882334 -5.214296406e-18)
(0.6539372661 -0.411286403 1.986522717e-18)
(0.7831708406 -0.3003222404 2.589217366e-18)
(0.8533943247 -0.2223210718 -1.634451527e-18)
(0.9148749508 -0.1678298591 1.434006133e-17)
(0.9443446117 -0.1273383314 -9.701956231e-18)
(0.9769328725 -0.09607849568 2.375926687e-17)
(0.9867382126 -0.07210533476 -2.080933353e-17)
(1.004226997 -0.05065448196 -6.863707185e-18)
(1.001960307 -0.03431091939 -2.691086978e-17)
(1.009928919 -0.01663434534 -3.238469353e-18)
(0.9974631954 -0.001548501639 -4.273601676e-17)
(0.620621573 -0.6978238332 -1.933207358e-17)
(0.7557492072 -0.4924682198 -2.847874687e-18)
(0.8575108913 -0.3596000318 -7.800063994e-19)
(0.9084238515 -0.2662030008 -4.138040621e-18)
(0.9564148361 -0.2009559946 -5.452851478e-18)
(0.9758610237 -0.1524731906 -1.894864711e-17)
(1.000711719 -0.1150437041 1.530227055e-17)
(1.004583517 -0.08633998693 -7.188783664e-18)
(1.016763522 -0.0606557082 -1.67499869e-17)
(1.010452387 -0.0410872979 3.786886709e-17)
(1.014046645 -0.01992172193 5.028567553e-18)
(0.9978521445 -0.001866323755 -8.245593748e-18)
(0.7868740535 -0.7778714439 -3.083122639e-18)
(0.8730730836 -0.5489587324 -4.396917355e-18)
(0.9431769988 -0.4008490515 1.733960676e-17)
(0.9718381343 -0.2967387401 -1.510380686e-18)
(1.004283786 -0.2240075924 1.403865496e-17)
(1.012179993 -0.1699639023 -1.133817895e-17)
(1.028113742 -0.128241457 2.727438945e-17)
(1.025148498 -0.09624573506 1.820384572e-17)
(1.031210305 -0.06761571109 -1.138485505e-17)
(1.020238898 -0.04580289458 -4.973857931e-17)
(1.018791609 -0.02220939644 5.048627409e-17)
(0.9983012804 -0.002088090313 -3.647979468e-17)
(0.9667705623 -0.8189169206 8.762203758e-19)
(1.000025236 -0.5779257753 -2.933019518e-18)
(1.035873952 -0.4220007786 1.332841047e-17)
(1.040456709 -0.3123976148 1.61589089e-17)
(1.056081756 -0.2358286741 -2.303234099e-17)
(1.051479649 -0.1789339243 -9.579401073e-18)
(1.057765076 -0.1350099134 -1.893590672e-17)
(1.047401186 -0.1013263798 2.533675789e-18)
(1.046843024 -0.07118545225 1.001036421e-18)
(1.030828295 -0.04822177225 2.349739402e-17)
(1.023925918 -0.02338263803 -2.851489661e-17)
(0.998787184 -0.002203258302 -1.072418922e-17)
(1.151289534 -0.8189025204 -5.657711114e-18)
(1.130239961 -0.5779164469 3.161261695e-18)
(1.130952779 -0.4219949736 8.440379722e-19)
(1.110838922 -0.3123941087 7.445940965e-18)
(1.109210655 -0.235826894 -3.282149153e-18)
(1.091789487 -0.1789332209 -7.57710919e-18)
(1.088178165 -0.1350101368 -2.201158522e-17)
(1.070225848 -0.1013269948 -3.126938466e-18)
(1.062877054 -0.07118645711 -7.025991896e-18)
(1.041689633 -0.04822255532 -2.958560956e-17)
(1.029191324 -0.02338321137 2.199483025e-17)
(0.9992854132 -0.002206076252 -5.350544671e-18)
(1.331178986 -0.7778286385 -8.772567501e-18)
(1.257187377 -0.5489318523 4.382806232e-18)
(1.223646294 -0.4008317375 7.368135444e-18)
(1.179455091 -0.2967290618 -8.669977568e-18)
(1.161006714 -0.2240022306 2.074909305e-17)
(1.131087698 -0.1699625126 -5.060537073e-18)
(1.117828188 -0.1282420562 9.784724915e-18)
(1.092477375 -0.09624825277 -1.341371111e-17)
(1.078508505 -0.06761865097 4.408534367e-18)
(1.052277634 -0.04580592599 3.527359199e-17)
(1.034323865 -0.02221109098 -1.094823462e-17)
(0.9997702626 -0.002097192498 2.214086086e-17)
(1.497417789 -0.6977554892 -6.156256708e-18)
(1.374501883 -0.4924249733 -9.720344831e-19)
(1.30930575 -0.3595728202 -1.49891765e-17)
(1.242864554 -0.2661876236 -3.216285287e-18)
(1.208871991 -0.2009481674 -3.775270539e-18)
(1.16740374 -0.1524713414 2.158036375e-17)
(1.145227725 -0.115045641 -3.68277177e-18)
(1.113040007 -0.08634461951 -2.094059111e-19)
(1.092952909 -0.06066159446 1.440276385e-17)
(1.062061367 -0.0410929486 1.527638738e-17)
(1.039065498 -0.01992578752 -1.402378415e-17)
(1.000217323 -0.00188208454 5.42402163e-18)
(1.641670548 -0.5826978448 6.944694428e-19)
(1.476300657 -0.4112300177 3.677499649e-19)
(1.383636283 -0.3002868354 -1.427484388e-18)
(1.297887482 -0.2223020184 4.842108565e-18)
(1.250406679 -0.1678205539 -5.027189459e-18)
(1.198916288 -0.1273375749 1.051295017e-17)
(1.169003099 -0.09608251437 7.243280808e-19)
(1.13088228 -0.07211352971 5.500792415e-18)
(1.105486122 -0.05066410108 1.703512664e-18)
(1.070549805 -0.03432080986 -4.802988415e-18)
(1.043178557 -0.01664189537 -1.870244314e-18)
(1.000603672 -0.001572483902 3.539143163e-18)
(1.75670324 -0.4384259044 6.567730473e-18)
(1.557479033 -0.3094179961 1.516940963e-18)
(1.44291004 -0.225947312 -3.458065351e-18)
(1.341764709 -0.1672724939 -3.962536387e-18)
(1.283527472 -0.126281234 -4.274009468e-18)
(1.224045092 -0.09582124214 4.571058894e-18)
(1.187961569 -0.07230428998 -1.011792367e-17)
(1.145109447 -0.05426838702 1.089505058e-17)
(1.11547916 -0.03812827109 5.742547955e-18)
(1.077317242 -0.02582897914 3.131629137e-18)
(1.046456277 -0.012524948 -1.206791355e-17)
(1.00090983 -0.001183947542 1.017364384e-17)
(1.836748044 -0.2721735504 3.854984399e-18)
(1.613966383 -0.1920949381 1.159749031e-18)
(1.484155201 -0.1402815593 -1.83024384e-18)
(1.372296041 -0.1038592277 -1.478568274e-18)
(1.306573906 -0.0784128929 -4.001164901e-19)
(1.241530023 -0.0595035204 1.485300109e-18)
(1.201152738 -0.04490313781 -7.52844345e-19)
(1.155007956 -0.03370489732 6.248592988e-18)
(1.122431103 -0.02368261645 6.121502135e-19)
(1.082024121 -0.01604420178 2.741098203e-18)
(1.048734407 -0.007781360519 -4.803559644e-18)
(1.001120169 -0.0007369938258 3.658701983e-18)
(1.877790801 -0.09227819654 1.892310474e-18)
(1.642930052 -0.06514348294 6.528952686e-19)
(1.505303106 -0.04758602846 -5.825581748e-19)
(1.387950324 -0.03524170836 -1.013832831e-18)
(1.318389894 -0.02661667009 -5.424391843e-19)
(1.250494148 -0.02020529117 7.20701548e-19)
(1.207914751 -0.01525391198 2.134363526e-19)
(1.160081328 -0.0114540279 3.132255103e-18)
(1.125993004 -0.008052393797 1.988099267e-18)
(1.084434328 -0.005457031587 1.922221027e-18)
(1.0498984 -0.002649958868 -1.824193311e-18)
(1.001224049 -0.0002540900483 2.611788472e-18)
(1.877773688 0.09224004172 1.455542218e-19)
(1.642917823 0.06506976256 1.652930175e-20)
(1.505293624 0.04749162248 5.785075081e-19)
(1.387942757 0.03513856401 -1.450986505e-18)
(1.318383228 0.02651052181 -6.851142034e-19)
(1.2504881 0.02010207827 3.327953212e-19)
(1.207908764 0.01515689738 -5.708995611e-19)
(1.160075231 0.01136759671 2.965110979e-18)
(1.125986415 0.007978766599 2.568896465e-18)
(1.08442701 0.005400692706 1.90978661e-18)
(1.049889986 0.002611996975 -9.935423973e-19)
(1.001216218 0.0002394769383 3.557995232e-18)
(1.836697419 0.2721277573 -1.72754942e-18)
(1.613930104 0.1920157452 -7.292735115e-19)
(1.484126986 0.1401828966 1.213934285e-18)
(1.372273474 0.1037526806 -1.415143738e-18)
(1.30655399 0.07830374192 -1.636578859e-18)
(1.24151196 0.05939758646 8.018552948e-19)
(1.201134869 0.04480343181 -2.90555629e-18)
(1.154989801 0.03361573469 5.995632987e-18)
(1.122411518 0.02360604138 3.029705355e-18)
(1.082002418 0.01598459763 1.097033052e-18)
(1.048709492 0.007739645887 -1.007554068e-18)
(1.00109699 0.0007188860734 7.389871029e-18)
(1.756621784 0.4383652499 -3.972433183e-18)
(1.557420724 0.3093281825 -1.496585342e-18)
(1.442864745 0.2258404164 -7.04004805e-19)
(1.341728512 0.1671593832 2.604352486e-18)
(1.283495548 0.1261663063 -3.220712321e-18)
(1.224016134 0.09571007206 5.220855791e-18)
(1.187932915 0.0721994039 2.625441501e-18)
(1.145080311 0.05417394809 9.404618069e-18)
(1.11544771 0.03804599234 -1.768562055e-18)
(1.077282364 0.02576303183 5.002554679e-18)
(1.046416214 0.01247593696 1.059495853e-18)
(1.000872554 0.00115904279 7.114012023e-18)
(1.641562221 0.5826157927 -4.383616386e-20)
(1.47622306 0.4111248746 -2.908846361e-18)
(1.383575963 0.3001680157 -3.267474239e-18)
(1.297839251 0.2221793755 -8.030869505e-19)
(1.25036412 0.1676972126 -5.666147713e-18)
(1.198877685 0.1272187791 3.849771253e-18)
(1.168964905 0.09597008402 -1.356450967e-17)
(1.13084346 0.07201143282 3.100733356e-18)
(1.105444235 0.0505735563 2.257588316e-18)
(1.070503374 0.03424570585 7.141644868e-18)
(1.043125246 0.01658236225 4.415166261e-19)
(1.000554075 0.001537784084 1.574411905e-17)
(1.497288141 0.6976466605 6.916531071e-18)
(1.374409051 0.4923006944 1.458607506e-19)
(1.309233621 0.3594391664 -1.702933678e-18)
(1.2428069 0.2660531574 6.052359831e-19)
(1.208821132 0.2008144198 4.064015988e-18)
(1.167357605 0.1523431157 9.067365886e-18)
(1.145182077 0.1149238859 -1.000903344e-17)
(1.112993595 0.08623302774 -2.990535811e-18)
(1.092902822 0.06056078935 6.407310171e-18)
(1.062005836 0.0410064348 -2.092745956e-17)
(1.03900173 0.01985312839 -6.813847492e-18)
(1.000157998 0.001835151731 7.835076652e-19)
(1.33103443 0.7776889047 -1.515556103e-18)
(1.257083837 0.5487854359 1.792449804e-18)
(1.22356582 0.4006808636 -1.279780968e-17)
(1.179390748 0.2965808302 -5.379153529e-19)
(1.160949938 0.2238563258 -8.146845982e-18)
(1.131036197 0.1698232663 5.919643094e-18)
(1.11777723 0.1281093945 -1.630131986e-17)
(1.092425572 0.09612558767 -1.510030274e-17)
(1.078452606 0.06750589 3.236860847e-18)
(1.052215671 0.04570616859 3.269705114e-17)
(1.034252725 0.02212321485 -3.328809818e-17)
(0.9997040792 0.002036101641 2.223889857e-17)
(1.151137395 0.8187294001 -3.457714342e-19)
(1.130131004 0.5777461679 1.892649602e-18)
(1.130868113 0.4218256019 -8.260677387e-18)
(1.110771231 0.3122311375 -1.303953478e-17)
(1.109150931 0.2356680151 2.002306078e-17)
(1.091735307 0.1787822229 6.204779416e-18)
(1.088124556 0.134865861 2.107080363e-17)
(1.07017134 0.1011925071 -1.199988057e-19)
(1.062818232 0.0710609242 -5.177579647e-18)
(1.041624428 0.04810859495 -2.797882575e-17)
(1.029116467 0.02327899304 2.512815011e-17)
(0.9992157827 0.00212974431 3.485464001e-19)
(0.9666184189 0.8187095293 9.779416775e-18)
(0.9999162616 0.5777309543 -2.575128963e-18)
(1.035789265 0.4218123247 4.068254784e-18)
(1.040388993 0.3122193885 -3.64937128e-18)
(1.056022 0.2356563131 -1.823767546e-18)
(1.051425446 0.1787707071 2.545244509e-18)
(1.057711444 0.1348535409 2.066287765e-17)
(1.047346657 0.1011796102 2.730944705e-18)
(1.046784179 0.07104665313 1.55406376e-18)
(1.030763064 0.04809311898 2.317404399e-17)
(1.023851037 0.02326153466 -2.803370104e-17)
(0.9987175172 0.002111219352 -4.762538502e-18)
(0.7867295722 0.7776306674 1.531075277e-17)
(0.8729695851 0.5487400414 -2.247094788e-18)
(0.9430965653 0.4006420972 -4.142523182e-18)
(0.9717738023 0.2965457719 1.592678261e-17)
(1.004227012 0.2238222581 -2.732690661e-17)
(1.012128487 0.169788941 -9.110610423e-19)
(1.028062779 0.1280734846 -1.703117558e-17)
(1.025096676 0.09608715669 1.338738368e-17)
(1.031154381 0.06746415442 -1.362610651e-17)
(1.020176915 0.04566005003 -5.724127788e-17)
(1.01872047 0.02207196138 2.056803652e-17)
(0.9982351172 0.001980804185 -3.237131434e-17)
(0.6204919644 0.6975522273 1.240742388e-17)
(0.7556563679 0.4922274716 5.601539021e-18)
(0.8574387386 0.359375949 2.92373054e-17)
(0.9083661521 0.2659963378 5.868092981e-18)
(0.9563639079 0.2007585499 1.555831829e-17)
(0.9758148252 0.1522872623 -3.851393256e-17)
(1.00066601 0.1148648704 1.07590349e-17)
(1.004537035 0.08617038354 -5.913827877e-18)
(1.016713364 0.06049223601 -2.222650507e-17)
(1.010396783 0.04093125381 -1.335338207e-17)
(1.013982841 0.01976911278 2.832487802e-17)
(0.9977927758 0.001744910768 -1.53234675e-18)
(0.4762409284 0.5824898493 -4.64598838e-19)
(0.6538596758 0.4110265163 9.832049133e-19)
(0.7831105297 0.3000833114 -4.207787915e-19)
(0.8533460645 0.2221025699 -8.748066938e-18)
(0.9148323374 0.1676220133 1.748485089e-17)
(0.9443059422 0.1271429896 -1.241374436e-17)
(0.9768946088 0.09589037026 7.312846966e-18)
(0.9866993112 0.07192626754 -1.413764794e-17)
(1.004185026 0.05048078659 6.452042071e-18)
(1.001913814 0.0341435004 2.296879012e-17)
(1.00987559 0.01646865052 8.905824955e-18)
(0.9974136117 0.001414863487 -4.81031807e-18)
(0.3612105563 0.4382130725 -1.581779796e-17)
(0.5726838038 0.3092093139 -1.323025994e-18)
(0.7238399479 0.2257371369 9.047617973e-18)
(0.8094723997 0.1670657 1.765207217e-17)
(0.8817158119 0.1260738166 1.271848473e-17)
(0.9191817848 0.09561698557 -3.061100412e-18)
(0.9579415331 0.0721009053 3.975030761e-17)
(0.9724779629 0.05406902015 -2.696801852e-17)
(0.9941985888 0.03793126575 -7.216566956e-18)
(0.9951534001 0.02563709677 -4.759072456e-18)
(1.00660568 0.01233554734 4.345995048e-17)
(0.9971166871 0.001007164585 -2.921111012e-17)
(0.2811684748 0.2719564945 -5.444611065e-18)
(0.5161994892 0.1918809186 1.05684701e-18)
(0.6825982707 0.1400654091 5.398668972e-18)
(0.7789455085 0.1036450884 2.823291959e-18)