/*--------------------------------*- C++ -*----------------------------------*\
| =========                 |                                                 |
| \\      /  F ield         | foam-extend: Open Source CFD                    |
|  \\    /   O peration     | Version:  3.0                                   |
|   \\  /    A nd           | Web:         http://www.extend-project.de       |
|    \\/     M anipulation  |                                                 |
\*---------------------------------------------------------------------------*/
FoamFile
{
    version     2.0;
    format      ascii;
    class       volScalarField;
    location    "77";
    object      p;
}
// * * * * * * * * * * * * * * * * * * * * * * * * * * * * * * * * * * * * * //

dimensions      [0 0 0 0 0 0 0];

internalField   nonuniform List<scalar> 
7680
(
-0.234848
-0.222834
-0.213831
-0.204364
-0.197373
-0.189776
-0.184287
-0.178096
-0.173772
-0.168649
-0.16526
-0.160955
-0.158337
-0.154672
-0.152683
-0.14955
-0.148052
-0.14539
-0.144252
-0.142025
-0.141137
-0.139306
-0.138587
-0.137104
-0.136495
-0.135299
-0.134752
-0.133765
-0.133242
-0.13237
-0.131828
-0.130962
-0.130346
-0.129378
-0.128612
-0.127444
-0.126431
-0.124988
-0.123617
-0.121834
-0.234547
-0.222547
-0.213557
-0.204096
-0.197119
-0.189521
-0.184049
-0.177849
-0.173545
-0.168408
-0.16504
-0.16072
-0.158118
-0.154447
-0.152461
-0.14934
-0.147829
-0.145202
-0.144034
-0.141862
-0.140934
-0.139169
-0.138411
-0.136986
-0.136348
-0.13518
-0.134625
-0.133622
-0.133112
-0.132172
-0.131659
-0.130691
-0.13011
-0.129027
-0.128295
-0.127035
-0.126054
-0.124566
-0.123242
-0.121476
-0.234032
-0.222062
-0.213097
-0.203656
-0.196703
-0.189114
-0.183667
-0.177465
-0.173189
-0.168041
-0.164702
-0.160367
-0.157788
-0.154107
-0.152128
-0.14901
-0.147481
-0.144874
-0.143665
-0.141527
-0.140542
-0.13882
-0.138001
-0.13662
-0.135936
-0.134807
-0.134233
-0.133258
-0.132761
-0.131839
-0.131364
-0.130403
-0.129867
-0.128785
-0.128084
-0.126819
-0.125839
-0.124353
-0.122999
-0.121309
-0.23324
-0.221307
-0.212373
-0.202959
-0.196034
-0.188462
-0.183042
-0.176849
-0.172598
-0.167456
-0.164137
-0.159812
-0.157241
-0.153582
-0.151596
-0.148518
-0.146967
-0.144417
-0.143175
-0.141101
-0.140085
-0.138414
-0.137578
-0.136219
-0.135537
-0.134388
-0.133836
-0.132799
-0.132339
-0.131327
-0.130894
-0.129836
-0.129338
-0.128173
-0.127502
-0.126178
-0.125222
-0.123703
-0.122384
-0.12068
-0.232212
-0.220335
-0.211445
-0.202069
-0.195182
-0.187634
-0.182249
-0.176068
-0.171849
-0.16671
-0.163417
-0.159095
-0.156536
-0.15289
-0.150896
-0.147844
-0.146261
-0.143751
-0.142463
-0.140436
-0.139371
-0.137747
-0.136874
-0.135555
-0.13486
-0.133741
-0.133202
-0.132185
-0.131756
-0.130754
-0.130358
-0.129301
-0.128833
-0.127662
-0.127
-0.12566
-0.124684
-0.123136
-0.121754
-0.120046
-0.230931
-0.219116
-0.210275
-0.200947
-0.194102
-0.18659
-0.181241
-0.175088
-0.170898
-0.165787
-0.162512
-0.158225
-0.15567
-0.152068
-0.150063
-0.147068
-0.145465
-0.143014
-0.141706
-0.139727
-0.138652
-0.137051
-0.136186
-0.134853
-0.134185
-0.133017
-0.132519
-0.131432
-0.131049
-0.129977
-0.129623
-0.128514
-0.12808
-0.126878
-0.126243
-0.124888
-0.123927
-0.122362
-0.120972
-0.119218
-0.229394
-0.21766
-0.208883
-0.199613
-0.192818
-0.185347
-0.180039
-0.173915
-0.169758
-0.16467
-0.161415
-0.157152
-0.1546
-0.151033
-0.149011
-0.14606
-0.144426
-0.142027
-0.140682
-0.138755
-0.137653
-0.136094
-0.135221
-0.133918
-0.133262
-0.132112
-0.131639
-0.130561
-0.130205
-0.129136
-0.128803
-0.127694
-0.127271
-0.126069
-0.125441
-0.124086
-0.123142
-0.121567
-0.120211
-0.118358
-0.227628
-0.215981
-0.207271
-0.19807
-0.19133
-0.183915
-0.178652
-0.172577
-0.168452
-0.163412
-0.160176
-0.155965
-0.153418
-0.149909
-0.147881
-0.144988
-0.143345
-0.140994
-0.139647
-0.137745
-0.136656
-0.135091
-0.134247
-0.132911
-0.132297
-0.131098
-0.130672
-0.129547
-0.129236
-0.128138
-0.127843
-0.126726
-0.126335
-0.125143
-0.12454
-0.123197
-0.122262
-0.120678
-0.119282
-0.11737
-0.225592
-0.214052
-0.205422
-0.196299
-0.189622
-0.182266
-0.17705
-0.171022
-0.16693
-0.161932
-0.158714
-0.154548
-0.152001
-0.148543
-0.146501
-0.143665
-0.142001
-0.139705
-0.138343
-0.136486
-0.135394
-0.133861
-0.13303
-0.13171
-0.131117
-0.129924
-0.129516
-0.12839
-0.128087
-0.126985
-0.126687
-0.125569
-0.12517
-0.123979
-0.123374
-0.122031
-0.121108
-0.119501
-0.118124
-0.116075
-0.223346
-0.211918
-0.203373
-0.194341
-0.187731
-0.180451
-0.175288
-0.169327
-0.165273
-0.160339
-0.157144
-0.153041
-0.150505
-0.147108
-0.14507
-0.142284
-0.140627
-0.138362
-0.137016
-0.135164
-0.134103
-0.132552
-0.131762
-0.130412
-0.129864
-0.128643
-0.128281
-0.127141
-0.126878
-0.125783
-0.125519
-0.124422
-0.124051
-0.122887
-0.122301
-0.120978
-0.120058
-0.118447
-0.117032
-0.114942
-0.220824
-0.209526
-0.201079
-0.192146
-0.185609
-0.178407
-0.173298
-0.167403
-0.163386
-0.158512
-0.155337
-0.151295
-0.148765
-0.14543
-0.143389
-0.140664
-0.139004
-0.136789
-0.135449
-0.133633
-0.132587
-0.131055
-0.130284
-0.128939
-0.128405
-0.12718
-0.126818
-0.12567
-0.125392
-0.124288
-0.124
-0.122895
-0.122499
-0.12133
-0.120727
-0.119397
-0.118471
-0.116839
-0.115422
-0.113271
-0.218104
-0.206943
-0.198599
-0.189777
-0.183322
-0.176213
-0.171166
-0.165352
-0.161381
-0.156581
-0.153437
-0.149463
-0.146953
-0.143674
-0.141651
-0.138965
-0.137328
-0.135131
-0.133822
-0.132003
-0.130997
-0.129451
-0.128725
-0.127368
-0.126878
-0.125653
-0.125331
-0.124199
-0.123957
-0.12288
-0.122622
-0.12155
-0.121179
-0.120038
-0.119452
-0.11814
-0.117218
-0.115591
-0.11416
-0.112016
-0.215112
-0.204105
-0.195875
-0.187173
-0.180802
-0.17379
-0.168805
-0.163074
-0.159146
-0.154423
-0.151306
-0.147404
-0.144912
-0.141701
-0.13969
-0.137063
-0.13544
-0.133287
-0.131998
-0.130206
-0.129221
-0.127685
-0.126973
-0.125613
-0.125124
-0.123889
-0.12355
-0.122404
-0.122131
-0.121041
-0.120745
-0.11966
-0.119253
-0.1181
-0.117486
-0.116166
-0.115228
-0.113602
-0.112174
-0.110056
-0.211924
-0.201079
-0.19297
-0.184399
-0.178123
-0.17122
-0.166308
-0.160671
-0.156796
-0.152154
-0.149077
-0.145243
-0.142782
-0.139623
-0.137643
-0.135048
-0.133459
-0.13132
-0.13007
-0.12828
-0.127338
-0.125804
-0.125134
-0.123785
-0.123335
-0.122124
-0.12182
-0.120709
-0.120467
-0.119414
-0.119147
-0.118096
-0.117713
-0.116588
-0.115992
-0.114694
-0.113769
-0.112169
-0.110757
-0.108699
-0.208482
-0.197813
-0.189833
-0.181401
-0.175223
-0.168434
-0.163595
-0.158055
-0.154235
-0.14968
-0.146642
-0.142888
-0.140457
-0.137368
-0.135415
-0.132875
-0.131313
-0.129212
-0.127988
-0.126219
-0.125296
-0.123767
-0.123104
-0.12175
-0.121289
-0.120067
-0.119735
-0.11861
-0.11833
-0.117262
-0.116952
-0.115886
-0.115463
-0.114327
-0.113698
-0.1124
-0.111459
-0.109885
-0.108492
-0.106518
-0.204835
-0.194352
-0.186513
-0.17823
-0.17216
-0.165494
-0.160738
-0.155302
-0.151544
-0.147076
-0.144087
-0.140402
-0.138012
-0.134972
-0.133059
-0.130551
-0.129031
-0.126948
-0.125768
-0.124013
-0.123132
-0.121623
-0.120998
-0.119673
-0.119246
-0.118062
-0.117762
-0.116678
-0.116427
-0.115399
-0.115115
-0.114084
-0.113683
-0.112577
-0.111967
-0.1107
-0.109778
-0.108249
-0.106893
-0.105009
-0.200962
-0.190676
-0.182983
-0.174857
-0.168898
-0.162362
-0.157691
-0.152365
-0.148673
-0.144302
-0.141364
-0.137763
-0.135416
-0.132446
-0.130571
-0.128115
-0.126629
-0.124581
-0.123428
-0.121691
-0.120825
-0.119323
-0.118697
-0.117371
-0.116927
-0.115736
-0.115406
-0.114313
-0.114025
-0.112985
-0.112663
-0.11162
-0.111183
-0.110071
-0.109434
-0.108175
-0.107246
-0.105759
-0.104437
-0.102659
-0.196869
-0.186793
-0.179257
-0.171299
-0.16546
-0.15906
-0.154483
-0.149269
-0.14565
-0.141369
-0.13849
-0.134959
-0.132663
-0.129744
-0.127916
-0.125497
-0.124057
-0.122037
-0.120926
-0.119219
-0.118391
-0.116923
-0.116331
-0.115046
-0.114632
-0.113485
-0.113183
-0.112132
-0.11187
-0.110868
-0.11057
-0.109561
-0.109148
-0.108066
-0.107452
-0.106228
-0.105326
-0.103892
-0.102617
-0.100934
-0.192585
-0.182727
-0.175352
-0.167569
-0.161855
-0.155599
-0.151119
-0.146027
-0.142484
-0.138308
-0.135491
-0.132048
-0.129804
-0.126955
-0.125173
-0.122805
-0.121402
-0.119416
-0.118332
-0.116645
-0.11583
-0.114373
-0.113778
-0.112498
-0.112068
-0.110924
-0.110597
-0.109546
-0.109255
-0.108251
-0.107925
-0.106914
-0.106475
-0.105397
-0.104766
-0.10356
-0.102659
-0.101272
-0.100034
-0.0984495
-0.188061
-0.178436
-0.171235
-0.163636
-0.158055
-0.151948
-0.147571
-0.142599
-0.139138
-0.135058
-0.132308
-0.12894
-0.126753
-0.123963
-0.122231
-0.119909
-0.118552
-0.116608
-0.115564
-0.113918
-0.113138
-0.111724
-0.111159
-0.109924
-0.10952
-0.108419
-0.108115
-0.107103
-0.106834
-0.105865
-0.10556
-0.104581
-0.104163
-0.103117
-0.102509
-0.101341
-0.10047
-0.0991345
-0.0979425
-0.0964361
-0.183387
-0.173999
-0.166975
-0.159566
-0.154124
-0.148173
-0.143906
-0.139065
-0.135692
-0.131722
-0.129044
-0.125766
-0.123639
-0.120919
-0.119237
-0.116968
-0.115649
-0.113741
-0.112723
-0.111103
-0.110335
-0.108941
-0.108376
-0.107157
-0.106744
-0.105656
-0.105339
-0.104338
-0.104055
-0.103096
-0.102778
-0.101811
-0.101384
-0.100354
-0.099744
-0.0986019
-0.0977415
-0.0964495
-0.0952917
-0.0938569
-0.17845
-0.169317
-0.162483
-0.155274
-0.149978
-0.144187
-0.140033
-0.135321
-0.132038
-0.128171
-0.125567
-0.122371
-0.120306
-0.117653
-0.116025
-0.113811
-0.112539
-0.110682
-0.109703
-0.108132
-0.107395
-0.106049
-0.105509
-0.104334
-0.103941
-0.102893
-0.102593
-0.101628
-0.10136
-0.100433
-0.10013
-0.0991923
-0.0987819
-0.097782
-0.0971927
-0.0960833
-0.0952496
-0.0939959
-0.0928741
-0.0914862
-0.173406
-0.164528
-0.157886
-0.150883
-0.145737
-0.140115
-0.136081
-0.131509
-0.128323
-0.124572
-0.122046
-0.118944
-0.116944
-0.114364
-0.112787
-0.110629
-0.109396
-0.107581
-0.106629
-0.105091
-0.10437
-0.103051
-0.102518
-0.101369
-0.100979
-0.0999551
-0.0996555
-0.0987151
-0.0984483
-0.0975464
-0.0972474
-0.096337
-0.0959355
-0.094966
-0.0943919
-0.0933167
-0.0925062
-0.0912895
-0.0901982
-0.0888466
-0.16808
-0.159476
-0.153039
-0.146251
-0.141263
-0.135812
-0.131901
-0.127467
-0.124378
-0.120738
-0.118292
-0.115281
-0.113347
-0.110843
-0.109322
-0.107229
-0.106042
-0.104286
-0.10337
-0.101886
-0.101192
-0.0999221
-0.0994091
-0.0983026
-0.0979258
-0.0969389
-0.096649
-0.09574
-0.0954813
-0.0946074
-0.0943176
-0.0934335
-0.0930453
-0.0921018
-0.0915471
-0.0904979
-0.0897129
-0.08852
-0.0874557
-0.0861181
-0.162685
-0.154354
-0.148123
-0.141554
-0.136729
-0.131457
-0.127676
-0.12339
-0.120406
-0.116886
-0.114525
-0.111611
-0.109745
-0.107317
-0.105849
-0.103816
-0.10267
-0.100961
-0.100075
-0.0986312
-0.0979592
-0.0967255
-0.0962282
-0.0951569
-0.0947936
-0.0938418
-0.0935657
-0.0926929
-0.0924504
-0.0916148
-0.0913452
-0.090502
-0.0901386
-0.0892378
-0.0887123
-0.087704
-0.0869495
-0.0857874
-0.0847465
-0.0834147
-0.156994
-0.148957
-0.142944
-0.136605
-0.131947
-0.126859
-0.123208
-0.11907
-0.11619
-0.112791
-0.110515
-0.107701
-0.105904
-0.10356
-0.102149
-0.10019
-0.0990889
-0.0974445
-0.0965933
-0.0952049
-0.0945571
-0.0933713
-0.0928889
-0.0918576
-0.0915019
-0.090583
-0.0903098
-0.0894644
-0.089223
-0.0884119
-0.0881453
-0.0873261
-0.0869712
-0.0860962
-0.0855871
-0.0846053
-0.0838745
-0.0827318
-0.081713
-0.0803731
-0.151269
-0.143521
-0.137728
-0.131621
-0.127136
-0.122237
-0.118724
-0.114741
-0.111972
-0.108699
-0.106511
-0.103798
-0.102072
-0.0998094
-0.0984533
-0.0965591
-0.0955004
-0.0939104
-0.093092
-0.0917513
-0.09113
-0.0899885
-0.0895293
-0.0885412
-0.088208
-0.0873327
-0.0870838
-0.0862835
-0.0860697
-0.0853062
-0.0850715
-0.0843023
-0.0839837
-0.0831594
-0.0826894
-0.0817533
-0.0810595
-0.0799459
-0.0789489
-0.0776004
-0.145241
-0.137803
-0.132242
-0.126378
-0.122071
-0.117366
-0.113993
-0.110166
-0.107508
-0.104364
-0.102266
-0.0996605
-0.0980072
-0.0958361
-0.0945388
-0.0927231
-0.0917101
-0.0901874
-0.0894024
-0.0881184
-0.0875188
-0.0864241
-0.085976
-0.0850257
-0.0846951
-0.0838501
-0.0835979
-0.0828226
-0.0826032
-0.0818624
-0.081624
-0.0808782
-0.0805625
-0.0797643
-0.0793076
-0.0783984
-0.0777283
-0.0766336
-0.0756608
-0.0742982
-0.139205
-0.132074
-0.126743
-0.121124
-0.116999
-0.112492
-0.109264
-0.105599
-0.103057
-0.100044
-0.0980379
-0.0955392
-0.0939584
-0.0918732
-0.0906329
-0.0888877
-0.0879196
-0.0864569
-0.0857083
-0.0844778
-0.0839094
-0.0828645
-0.0824452
-0.0815433
-0.0812415
-0.0804447
-0.0802231
-0.079497
-0.0793112
-0.0786216
-0.0784204
-0.077728
-0.0774534
-0.07671
-0.0762975
-0.0754404
-0.0748133
-0.0737572
-0.0728131
-0.0714541
-0.13287
-0.126064
-0.120977
-0.115614
-0.111676
-0.107374
-0.104292
-0.100793
-0.0983674
-0.0954919
-0.0935793
-0.0911955
-0.0896904
-0.0877027
-0.0865224
-0.0848602
-0.0839378
-0.0825451
-0.0818287
-0.0806561
-0.0801074
-0.0791094
-0.0786984
-0.0778339
-0.0775308
-0.076764
-0.0765344
-0.0758334
-0.0756368
-0.0749697
-0.0747601
-0.0740902
-0.0738151
-0.0730957
-0.0726963
-0.071865
-0.0712673
-0.0702346
-0.0693295
-0.06797
-0.126546
-0.120061
-0.115216
-0.110108
-0.106361
-0.102265
-0.0993344
-0.0960041
-0.0936983
-0.0909598
-0.0891422
-0.0868696
-0.0854396
-0.0835426
-0.0824217
-0.0808348
-0.07996
-0.0786318
-0.0779549
-0.0768398
-0.0763256
-0.0753807
-0.0750018
-0.0741877
-0.0739163
-0.0731985
-0.0730013
-0.0723491
-0.0721863
-0.071569
-0.0713946
-0.0707767
-0.0705386
-0.0698744
-0.0695137
-0.0687406
-0.0681817
-0.0672066
-0.0663356
-0.0650253
-0.119934
-0.113789
-0.109198
-0.104357
-0.100806
-0.0969243
-0.094147
-0.0909909
-0.0888069
-0.0862126
-0.0844926
-0.0823411
-0.0809891
-0.0791945
-0.0781348
-0.0766343
-0.0758057
-0.0745497
-0.0739048
-0.0728491
-0.0723538
-0.071457
-0.071085
-0.0703098
-0.070035
-0.069349
-0.0691412
-0.0685157
-0.0683392
-0.0677455
-0.0675597
-0.0669649
-0.066724
-0.0660853
-0.0657376
-0.0649969
-0.064476
-0.0635424
-0.0627388
-0.0614608
-0.113344
-0.107533
-0.103194
-0.0986197
-0.0952658
-0.091599
-0.0889778
-0.0859966
-0.0839362
-0.0814844
-0.0798622
-0.077827
-0.0765524
-0.0748534
-0.0738553
-0.0724346
-0.0716558
-0.0704681
-0.0698646
-0.0688692
-0.0684099
-0.0675676
-0.0672286
-0.0665038
-0.0662606
-0.0656222
-0.0654455
-0.0648656
-0.0647197
-0.0641711
-0.0640146
-0.0634654
-0.0632517
-0.0626611
-0.0623375
-0.0616517
-0.0611523
-0.0602908
-0.0595137
-0.058359
-0.106488
-0.10103
-0.0969542
-0.0926568
-0.0895065
-0.0860621
-0.0836006
-0.0808009
-0.0788669
-0.0765655
-0.0750441
-0.0731349
-0.0719404
-0.0703476
-0.0694119
-0.0680806
-0.0673485
-0.0662353
-0.0656642
-0.0647302
-0.0642901
-0.0634981
-0.0631663
-0.0624827
-0.0622363
-0.0616322
-0.0614445
-0.0608944
-0.0607336
-0.0602124
-0.0600421
-0.0595211
-0.0593008
-0.0587437
-0.0584301
-0.0577896
-0.0573329
-0.0565373
-0.0558607
-0.0547775
-0.0996565
-0.0945448
-0.0907306
-0.0867084
-0.0837621
-0.0805396
-0.0782389
-0.0756197
-0.0738129
-0.0716591
-0.0702383
-0.0684504
-0.0673356
-0.0658431
-0.0649711
-0.0637235
-0.0630429
-0.0620009
-0.0614725
-0.0606002
-0.0601966
-0.0594592
-0.05916
-0.0585254
-0.0583094
-0.05775
-0.0575912
-0.0570823
-0.0569486
-0.056466
-0.0563195
-0.0558356
-0.055634
-0.0551146
-0.0548116
-0.0542159
-0.05376
-0.053036
-0.0523608
-0.051468
-0.0925879
-0.0878394
-0.0842971
-0.0805611
-0.0778255
-0.0748329
-0.0726974
-0.0702659
-0.0685898
-0.0665913
-0.0652742
-0.0636162
-0.0625832
-0.0611998
-0.0603913
-0.0592354
-0.0586025
-0.057637
-0.0571421
-0.0563333
-0.0559504
-0.0552657
-0.0549753
-0.054385
-0.0541674
-0.0536464
-0.0534778
-0.0530041
-0.0528557
-0.052408
-0.0522465
-0.0518005
-0.0515887
-0.0511136
-0.0508138
-0.0502747
-0.0498537
-0.0492122
-0.0486461
-0.0478655
-0.0855415
-0.081151
-0.0778778
-0.0744251
-0.0718991
-0.0691345
-0.067164
-0.064918
-0.0633724
-0.0615263
-0.0603126
-0.0587804
-0.0578296
-0.0565507
-0.0558078
-0.0547391
-0.054159
-0.0532669
-0.0528154
-0.0520691
-0.0517225
-0.0510916
-0.050833
-0.0502895
-0.0501005
-0.0496206
-0.0494786
-0.0490414
-0.0489176
-0.0485032
-0.0483637
-0.0479499
-0.0477573
-0.0473165
-0.0470324
-0.0465347
-0.0461237
-0.0455414
-0.0449809
-0.0443533
-0.0782925
-0.0742742
-0.0712802
-0.0681214
-0.0658122
-0.063284
-0.0614838
-0.0594307
-0.0580195
-0.0563325
-0.055225
-0.0538255
-0.0529581
-0.0517903
-0.0511121
-0.0501367
-0.0496055
-0.0487916
-0.0483752
-0.0476945
-0.0473706
-0.0467954
-0.0465479
-0.0460527
-0.0458647
-0.0454286
-0.0452795
-0.0448847
-0.044749
-0.0443782
-0.044226
-0.0438594
-0.0436578
-0.0432704
-0.0429859
-0.0425513
-0.0421547
-0.0416531
-0.0411332
-0.0406378
-0.0710597
-0.0674093
-0.064691
-0.0618226
-0.0597278
-0.0574327
-0.0558011
-0.0539378
-0.0526603
-0.0511295
-0.0501283
-0.0488584
-0.0480757
-0.0470159
-0.0464053
-0.0455199
-0.0450429
-0.044304
-0.0439315
-0.0433132
-0.0430255
-0.0425025
-0.0422855
-0.0418343
-0.041673
-0.0412744
-0.0411494
-0.0407874
-0.0406744
-0.0403345
-0.0402057
-0.0398722
-0.0396991
-0.0393527
-0.039111
-0.0387338
-0.0384126
-0.0379948
-0.0376136
-0.0371819
-0.0636619
-0.0603909
-0.0579581
-0.05539
-0.0535173
-0.0514641
-0.0500071
-0.048341
-0.0472012
-0.0458328
-0.04494
-0.0438048
-0.0431068
-0.0421597
-0.0416146
-0.0408238
-0.0403966
-0.0397376
-0.0394015
-0.0388513
-0.0385882
-0.0381241
-0.0379209
-0.0375224
-0.0373654
-0.0370159
-0.036888
-0.036574
-0.0364544
-0.0361632
-0.0360281
-0.0357462
-0.0355711
-0.0352819
-0.0350462
-0.0347359
-0.0344286
-0.0340922
-0.0337229
-0.0334132
-0.0562732
-0.0533787
-0.0512272
-0.0489552
-0.0473007
-0.0454848
-0.0441993
-0.0427264
-0.0417228
-0.0405136
-0.0397296
-0.038727
-0.038116
-0.0372798
-0.0368042
-0.0361057
-0.035734
-0.035151
-0.0348593
-0.0343714
-0.0341439
-0.0337307
-0.0335565
-0.0331997
-0.033067
-0.0327525
-0.032646
-0.0323627
-0.0322641
-0.0320026
-0.0318921
-0.0316428
-0.0315021
-0.0312532
-0.0310714
-0.0308121
-0.0305906
-0.0303108
-0.0300623
-0.0297439
-0.0487576
-0.0462482
-0.044387
-0.0424206
-0.0409926
-0.0394232
-0.038316
-0.0370441
-0.036181
-0.0351369
-0.0344632
-0.0335972
-0.033072
-0.0323496
-0.0319401
-0.0313372
-0.0310159
-0.0305142
-0.03026
-0.0298421
-0.0296409
-0.0292893
-0.0291314
-0.0288305
-0.0287057
-0.028443
-0.0283386
-0.0281049
-0.028006
-0.0277932
-0.0276838
-0.0274842
-0.0273498
-0.027154
-0.0269859
-0.0267858
-0.0265833
-0.0263704
-0.0261382
-0.0259078
-0.0412458
-0.0391196
-0.0375443
-0.0358785
-0.0346715
-0.0333424
-0.0324088
-0.0313323
-0.0306071
-0.0297244
-0.0291611
-0.0284301
-0.0279935
-0.0273843
-0.0270456
-0.0265372
-0.0262722
-0.0258482
-0.0256383
-0.0252834
-0.0251171
-0.0248164
-0.0246859
-0.0244261
-0.0243235
-0.0240949
-0.02401
-0.0238056
-0.0237264
-0.0235408
-0.0234552
-0.0232832
-0.0231816
-0.0230165
-0.0228955
-0.0227299
-0.0225925
-0.0224132
-0.0222574
-0.0220336
-0.0336425
-0.0319057
-0.0306242
-0.0292682
-0.028291
-0.0272123
-0.0264599
-0.0255879
-0.0250055
-0.0242907
-0.0238392
-0.0232466
-0.0228966
-0.0224024
-0.0221301
-0.0217182
-0.0215036
-0.0211616
-0.0209897
-0.0207058
-0.0205668
-0.0203286
-0.0202164
-0.0200129
-0.0199214
-0.0197441
-0.0196658
-0.019509
-0.0194353
-0.0192951
-0.0192177
-0.0190907
-0.0190028
-0.0188847
-0.0187837
-0.0186688
-0.0185557
-0.0184323
-0.0183032
-0.0181533
-0.026042
-0.0246936
-0.0237012
-0.0226491
-0.0218946
-0.0210583
-0.0204803
-0.0198051
-0.0193612
-0.0188089
-0.0184684
-0.0180122
-0.0177513
-0.0173723
-0.0171713
-0.0168562
-0.0166982
-0.0164363
-0.0163088
-0.01609
-0.0159855
-0.0157999
-0.0157145
-0.0155533
-0.0154835
-0.0153404
-0.0152812
-0.0151523
-0.0150977
-0.0149808
-0.0149253
-0.0148189
-0.0147581
-0.0146606
-0.0145945
-0.0145023
-0.014434
-0.014338
-0.0142621
-0.014146
-0.0183804
-0.0174241
-0.0167279
-0.0159885
-0.0154661
-0.0148835
-0.0144887
-0.0140211
-0.0137218
-0.0133403
-0.0131128
-0.0127973
-0.0126237
-0.012361
-0.0122264
-0.0120081
-0.0119004
-0.0117202
-0.0116304
-0.0114816
-0.0114049
-0.0112801
-0.0112143
-0.0111069
-0.0110504
-0.0109554
-0.0109062
-0.0108212
-0.0107766
-0.0107014
-0.010659
-0.0105943
-0.0105522
-0.0104984
-0.0104567
-0.010412
-0.0103728
-0.0103304
-0.0102904
-0.0102463
-0.0107274
-0.0101628
-0.00975759
-0.00932396
-0.00902514
-0.00868577
-0.00846542
-0.00819497
-0.00803353
-0.00781481
-0.00769759
-0.00751892
-0.00743388
-0.00728765
-0.00722418
-0.00710489
-0.00705386
-0.00695667
-0.00691182
-0.00683126
-0.00678999
-0.00672055
-0.00668291
-0.00661974
-0.00658656
-0.00652631
-0.00649757
-0.00643921
-0.00641396
-0.00635895
-0.00633622
-0.00628775
-0.00626681
-0.00622899
-0.00621238
-0.00618796
-0.0061813
-0.00616959
-0.00617431
-0.00617899
-0.00303625
-0.00286502
-0.00275711
-0.00263807
-0.00257238
-0.00248905
-0.00245305
-0.00239318
-0.00237737
-0.00233246
-0.0023292
-0.00229381
-0.00229655
-0.00226813
-0.00227118
-0.00224877
-0.00224762
-0.00223057
-0.0022229
-0.00220943
-0.00219552
-0.00218318
-0.0021652
-0.00215153
-0.00213254
-0.00211612
-0.00209889
-0.00208072
-0.00206734
-0.00205131
-0.00204363
-0.00203515
-0.00203429
-0.00203934
-0.00204832
-0.00207126
-0.0020961
-0.00213837
-0.00218337
-0.0022569
0.00463226
0.0044103
0.00422663
0.00403927
0.00388153
0.00372165
0.00358409
0.00344749
0.0033268
0.00320987
0.00310453
0.00300372
0.0029138
0.00282564
0.00275221
0.00267434
0.00261843
0.00255004
0.00251124
0.00245341
0.00242923
0.00238348
0.00236992
0.00233741
0.00232975
0.00231048
0.00230466
0.00229603
0.00228917
0.00228505
0.00227464
0.00226641
0.00224988
0.00222736
0.00219875
0.00215243
0.00210029
0.00202297
0.00193619
0.00181065
0.0123245
0.0117092
0.0112284
0.0107259
0.0103352
0.00991794
0.00959593
0.00924654
0.0089798
0.00868624
0.00846629
0.00821948
0.0080411
0.00783347
0.00769308
0.00751856
0.00741277
0.00726664
0.00719115
0.0070704
0.00701964
0.0069219
0.00688949
0.00681258
0.00679155
0.00673272
0.00671634
0.00667062
0.00665314
0.00661208
0.00658827
0.00654137
0.00650652
0.00644226
0.00638933
0.00629678
0.00621345
0.00608383
0.0059568
0.00576808
0.0199711
0.0189632
0.0181914
0.0173832
0.0167699
0.0161104
0.0156162
0.0150718
0.0146704
0.0142171
0.0138906
0.0135098
0.013246
0.0129236
0.0127136
0.0124395
0.012276
0.0120437
0.0119195
0.0117256
0.0116331
0.0114751
0.0114069
0.0112817
0.01123
0.0111333
0.0110911
0.0110158
0.010977
0.0109119
0.0108706
0.0108018
0.0107514
0.0106637
0.0105935
0.0104718
0.0103637
0.0101951
0.0100288
0.00979016
0.0276358
0.0262358
0.0251685
0.024046
0.0232011
0.0222843
0.0216066
0.0208484
0.0203013
0.0196692
0.0192278
0.0186985
0.0183455
0.0179017
0.0176238
0.0172529
0.0170388
0.016731
0.0165701
0.0163174
0.0161993
0.0159943
0.0159091
0.0157443
0.015682
0.0155495
0.0155004
0.0153907
0.0153456
0.0152458
0.0151956
0.0150905
0.0150257
0.0148988
0.0148071
0.014642
0.0145046
0.0142871
0.0140828
0.0137867
0.0352236
0.0334338
0.0320771
0.0306508
0.0295848
0.0284274
0.0275791
0.026628
0.0259481
0.0251592
0.0246133
0.0239538
0.0235171
0.0229625
0.0226159
0.0221488
0.0218765
0.0214845
0.0212727
0.0209473
0.0207841
0.0205176
0.0203926
0.0201769
0.0200804
0.0199062
0.0198286
0.019684
0.0196157
0.0194852
0.019416
0.0192814
0.0191997
0.0190421
0.0189319
0.0187322
0.0185701
0.0183117
0.0180702
0.0177285
0.0428314
0.0406521
0.0390027
0.0372645
0.0359696
0.0345566
0.033527
0.0323626
0.0315385
0.03057
0.0299095
0.0290995
0.0285728
0.0278947
0.0274789
0.0269137
0.0265896
0.0261225
0.0258736
0.0254917
0.0253038
0.0249939
0.0248546
0.024603
0.0245002
0.0242936
0.0242147
0.0240387
0.0239707
0.0238087
0.0237373
0.0235704
0.0234802
0.0232879
0.0231603
0.0229219
0.0227328
0.0224299
0.0221521
0.0217587
0.0503248
0.0477603
0.0458246
0.0437856
0.0422715
0.0406203
0.0394216
0.0380669
0.0371114
0.0359896
0.035226
0.0342909
0.0336819
0.0328992
0.0324156
0.0317605
0.0313783
0.0308322
0.0305317
0.0300798
0.0298452
0.0294736
0.0292925
0.0289873
0.028848
0.0285948
0.0284849
0.0282677
0.0281734
0.0279732
0.0278786
0.0276746
0.0275619
0.0273315
0.0271794
0.0269003
0.0266814
0.0263345
0.026019
0.0255821
0.0578452
0.0548952
0.0526706
0.0503239
0.0485848
0.0466817
0.0453051
0.0437397
0.0426424
0.0413421
0.0404653
0.0393788
0.0386799
0.0377714
0.0372175
0.0364615
0.036026
0.0354025
0.035064
0.0345546
0.0342961
0.0338815
0.0336888
0.0333495
0.0332085
0.0329254
0.0328206
0.0325751
0.0324882
0.0322606
0.0321714
0.0319399
0.0318262
0.0315667
0.0314036
0.031091
0.0308487
0.0304604
0.0301066
0.0296228
0.0652107
0.0618821
0.0593755
0.0567321
0.0547765
0.0526378
0.0510937
0.0493405
0.0481129
0.0466626
0.0456836
0.0444771
0.0436967
0.0426909
0.0420701
0.0412328
0.0407404
0.0400459
0.0396571
0.0390833
0.0387793
0.0383051
0.0380714
0.0376768
0.0374992
0.0371655
0.0370282
0.0367362
0.0366201
0.0363489
0.0362317
0.0359577
0.0358154
0.0355124
0.0353178
0.0349595
0.0346816
0.0342456
0.033852
0.0333222
0.0726116
0.0689028
0.0661125
0.0631671
0.0609914
0.0586065
0.0568891
0.0549301
0.0535645
0.051939
0.0508495
0.0494928
0.0486239
0.0474905
0.0467997
0.0458572
0.0453109
0.0445334
0.0441058
0.0434693
0.0431414
0.0426208
0.0423769
0.041947
0.0417707
0.041408
0.0412799
0.040962
0.0408584
0.0405629
0.0404567
0.0401589
0.0400217
0.0396937
0.0394944
0.0391067
0.0388105
0.0383368
0.037908
0.037332
0.0798182
0.0757395
0.0726725
0.0694357
0.0670468
0.0644297
0.0625466
0.060402
0.0589069
0.0571341
0.0559426
0.05447
0.0535199
0.0522958
0.051539
0.050524
0.0499226
0.0490841
0.0486092
0.0479171
0.0475473
0.0469728
0.0466913
0.0462084
0.0459979
0.0455841
0.0454244
0.0450585
0.0449253
0.0445846
0.0444494
0.0441083
0.0439409
0.0435696
0.0433373
0.0429047
0.042572
0.0420509
0.0415814
0.0409546
0.0870657
0.0826137
0.0792691
0.0757377
0.0731345
0.0702787
0.0682277
0.0658845
0.0642565
0.0623144
0.0610168
0.0593974
0.0583624
0.0570105
0.0561861
0.0550618
0.0544077
0.0534786
0.0529651
0.0522012
0.0518071
0.0511779
0.0508861
0.0503621
0.0501532
0.0497077
0.0495577
0.0491654
0.0490452
0.0486806
0.0485566
0.0481922
0.0480297
0.0476334
0.0473961
0.0469339
0.0465822
0.0460225
0.0455164
0.0448383
0.0940855
0.0892736
0.0856594
0.0818429
0.0790309
0.0759465
0.0737326
0.0712056
0.0694496
0.067361
0.0659621
0.0642286
0.0631123
0.0616738
0.0607835
0.0595941
0.0588862
0.0579061
0.0573483
0.0565399
0.0561086
0.0554357
0.0551115
0.0545422
0.0543038
0.0538124
0.0536347
0.0531983
0.0530517
0.052646
0.0524968
0.0520938
0.0519064
0.051472
0.0512083
0.050706
0.0503242
0.0497189
0.0491751
0.0484399
0.101144
0.0959676
0.0920828
0.0879806
0.0849608
0.0816467
0.0792709
0.0765544
0.0746712
0.0724217
0.0709224
0.0690485
0.0678529
0.0662896
0.0653369
0.0640362
0.0632797
0.0622021
0.0616081
0.060717
0.0602619
0.059522
0.0591863
0.0585652
0.0583262
0.0577953
0.0576243
0.0571567
0.0570191
0.0565864
0.0564432
0.0560138
0.0558249
0.0553619
0.0550859
0.0545498
0.0541422
0.0534942
0.0529081
0.052117
0.107952
0.102427
0.0982807
0.0939012
0.0906782
0.0871401
0.0846052
0.0817067
0.079698
0.0773018
0.0757026
0.0737133
0.0724371
0.0707869
0.0697682
0.0684052
0.0675948
0.0664733
0.065836
0.0649119
0.0644222
0.0636525
0.0632885
0.0626362
0.0623722
0.0618081
0.0616136
0.0611126
0.0609528
0.0604885
0.0603251
0.0598661
0.0596593
0.0591665
0.0588732
0.0583032
0.0578742
0.0571832
0.0565636
0.055711
0.114785
0.108906
0.104497
0.0998422
0.0964182
0.0926606
0.0899699
0.0868923
0.0847624
0.0822155
0.0805223
0.0784018
0.0770533
0.0752852
0.0742115
0.0727401
0.0718882
0.0706665
0.0699985
0.0689833
0.0684729
0.0676234
0.0672482
0.0665294
0.0662631
0.0656461
0.0654552
0.0649127
0.0647579
0.0642592
0.0640969
0.0636062
0.063392
0.0628662
0.062554
0.0619466
0.0614857
0.060749
0.0600832
0.059173
0.121359
0.115144
0.110483
0.105559
0.101939
0.0979629
0.0951184
0.0918613
0.0896102
0.0869158
0.085126
0.0828864
0.0814594
0.0795992
0.07846
0.0769227
0.0760156
0.0747511
0.0740375
0.0729966
0.0724498
0.0715842
0.0711805
0.070448
0.0701578
0.0695258
0.0693128
0.0687534
0.0685769
0.0680607
0.0678776
0.0673692
0.0671358
0.0665905
0.0662596
0.0656269
0.0651432
0.064369
0.0636679
0.0626974
0.12793
0.121373
0.116459
0.111271
0.107457
0.103272
0.100278
0.0968526
0.0944856
0.0916518
0.0897739
0.0874143
0.0859222
0.0839546
0.0827691
0.0811318
0.0801927
0.0788327
0.0780974
0.0769644
0.0764037
0.0754505
0.0750398
0.0742273
0.0739366
0.0732355
0.073027
0.0724108
0.0722404
0.0716782
0.0714981
0.0709507
0.0707125
0.0701307
0.0697839
0.0691127
0.0686004
0.0677811
0.0670377
0.06601
0.134248
0.127368
0.122212
0.116766
0.112764
0.108368
0.105227
0.101626
0.0991441
0.0961629
0.094194
0.0917108
0.0901449
0.0880767
0.0868284
0.085115
0.08412
0.0827092
0.081924
0.0807637
0.0801601
0.0791976
0.0787517
0.0779402
0.0776204
0.0769234
0.0766883
0.0760747
0.0758769
0.075314
0.075104
0.074552
0.0742816
0.07369
0.0733086
0.0726192
0.0720685
0.0712167
0.0704278
0.069346
0.140522
0.133316
0.127916
0.122218
0.118029
0.113436
0.11015
0.106392
0.103798
0.100689
0.0986364
0.0960452
0.0944199
0.0922569
0.0909701
0.0891698
0.0881528
0.086659
0.0858632
0.0846203
0.0840135
0.0829667
0.0825231
0.0816264
0.0813139
0.0805346
0.0803116
0.0796236
0.0794407
0.0788149
0.078619
0.0780157
0.0777541
0.0771193
0.0767375
0.0760076
0.0754438
0.0745475
0.0737286
0.0725902
0.146563
0.139048
0.133418
0.127473
0.123105
0.118311
0.114885
0.110959
0.108257
0.105003
0.102867
0.10015
0.0984581
0.096186
0.0948425
0.0929521
0.0918819
0.0903211
0.0894726
0.0881888
0.0875309
0.0864685
0.0859781
0.0850859
0.0847324
0.0839694
0.083709
0.0830408
0.08282
0.0822106
0.0819725
0.0813778
0.0810681
0.0804309
0.0799958
0.0792498
0.0786298
0.0777019
0.0768264
0.0756412
0.152507
0.144682
0.138819
0.132636
0.128089
0.123109
0.119543
0.115471
0.11266
0.109289
0.107071
0.104257
0.102509
0.100154
0.0987775
0.0968149
0.0957307
0.094104
0.0932558
0.0919079
0.0912594
0.0901292
0.089654
0.0886863
0.0883526
0.0875063
0.0872705
0.0865161
0.0863238
0.0856327
0.0854248
0.0847588
0.0844769
0.0837804
0.0833657
0.0825689
0.0819555
0.0809783
0.0800865
0.0788449
0.158251
0.150132
0.14405
0.137634
0.132916
0.127747
0.124049
0.119818
0.116906
0.113398
0.111104
0.108167
0.10636
0.103893
0.102469
0.100404
0.0992742
0.0975607
0.0966632
0.0952508
0.0945475
0.09338
0.0928476
0.09187
0.0914809
0.0906471
0.09036
0.0896312
0.0893903
0.0887273
0.0884697
0.0878245
0.0874884
0.0867982
0.0863242
0.0855157
0.0848405
0.0838344
0.0828837
0.081602
0.163835
0.155425
0.149123
0.142482
0.137594
0.132249