/*--------------------------------*- C++ -*----------------------------------*\
| =========                 |                                                 |
| \\      /  F ield         | foam-extend: Open Source CFD                    |
|  \\    /   O peration     | Version:  3.0                                   |
|   \\  /    A nd           | Web:         http://www.extend-project.de       |
|    \\/     M anipulation  |                                                 |
\*---------------------------------------------------------------------------*/
FoamFile
{
    version     2.0;
    format      ascii;
    class       volSymmTensorField;
    location    "77";
    object      sigma;
}
// * * * * * * * * * * * * * * * * * * * * * * * * * * * * * * * * * * * * * //

dimensions      [0 0 0 0 0 0 0];

internalField   nonuniform List<symmTensor> 
7680
(
(-0.182038 -0.00135119 -2.03231e-20 0.18231 -3.17204e-20 -0.000272306)
(-0.181225 -0.00192862 6.04263e-20 0.181972 1.04948e-19 -0.000747186)
(-0.178365 -0.00234461 -1.09678e-21 0.179536 -1.11878e-19 -0.00117119)
(-0.174051 -0.00263579 3.51765e-22 0.175602 5.53534e-20 -0.00155065)
(-0.168908 -0.00284342 1.16335e-20 0.1708 -4.85688e-20 -0.0018915)
(-0.163123 -0.00298465 -8.47867e-21 0.165321 2.14564e-20 -0.00219793)
(-0.157083 -0.00308341 2.55475e-20 0.159559 -7.92393e-20 -0.00247522)
(-0.150805 -0.00314758 9.41618e-21 0.153531 -1.45434e-20 -0.00272547)
(-0.144543 -0.003192 7.95452e-21 0.147498 -1.01095e-19 -0.00295434)
(-0.13825 -0.00321976 1.98783e-20 0.141411 1.36529e-21 -0.00316175)
(-0.132095 -0.00324107 -3.85114e-20 0.135449 -1.20526e-19 -0.00335425)
(-0.126014 -0.00325637 1.86236e-20 0.129544 6.18199e-20 -0.00353001)
(-0.120121 -0.00327335 4.42717e-22 0.123817 -1.05251e-19 -0.00369587)
(-0.114354 -0.0032912 -3.49471e-20 0.118204 7.50249e-20 -0.00384945)
(-0.10879 -0.00331565 -2.57577e-20 0.112786 -1.98432e-20 -0.00399611)
(-0.103374 -0.00334609 4.31676e-21 0.107509 1.35197e-19 -0.00413489)
(-0.0981599 -0.00338611 -1.32379e-20 0.102428 -1.12057e-19 -0.00426771)
(-0.0931023 -0.00343642 -5.63749e-22 0.0974989 2.2689e-19 -0.00439655)
(-0.0882372 -0.00349823 1.70974e-20 0.092756 -1.28493e-19 -0.00451889)
(-0.0835306 -0.00357423 -3.33268e-21 0.0881704 2.07765e-19 -0.00463981)
(-0.0790054 -0.0036634 -3.06507e-20 0.083758 -7.26e-20 -0.0047526)
(-0.074639 -0.00377033 -3.23173e-20 0.0795033 1.74855e-19 -0.00486429)
(-0.0704437 -0.00389252 -3.04113e-20 0.0754089 -2.688e-20 -0.00496525)
(-0.0664086 -0.00403578 -3.03106e-20 0.0714709 2.07934e-19 -0.00506232)
(-0.0625368 -0.00419755 5.71648e-21 0.0676815 -1.87362e-20 -0.0051447)
(-0.0588301 -0.00438349 -6.79128e-20 0.0640468 1.67004e-19 -0.0052167)
(-0.0552829 -0.00459306 1.6156e-20 0.0605511 1.02621e-19 -0.00526813)
(-0.0519094 -0.00482972 -1.47597e-20 0.057208 1.32926e-19 -0.00529861)
(-0.0486974 -0.00509792 2.24413e-20 0.0539974 1.06889e-19 -0.00530004)
(-0.0456713 -0.00539645 -5.19946e-20 0.0509369 4.8337e-20 -0.0052656)
(-0.0428152 -0.00573808 -1.77528e-21 0.0480053 6.91467e-20 -0.00519012)
(-0.0401591 -0.0061153 -4.29453e-20 0.0452186 -4.92777e-21 -0.00505949)
(-0.0376901 -0.00655069 2.88127e-20 0.0425609 3.928e-20 -0.00487083)
(-0.035432 -0.00703168 -6.48552e-20 0.0400356 -4.11407e-21 -0.0046036)
(-0.0333885 -0.00758844 1.654e-20 0.0376431 1.38697e-20 -0.00425459)
(-0.0315545 -0.00820526 -8.22321e-20 0.0353535 4.33336e-20 -0.00379895)
(-0.0299772 -0.0089142 8.39326e-21 0.033207 -1.20792e-19 -0.00322976)
(-0.0285788 -0.00969663 1.90179e-21 0.0310992 8.19471e-20 -0.00252046)
(-0.0275249 -0.0105804 -3.59747e-20 0.0291824 -1.13368e-19 -0.00165744)
(-0.0265216 -0.0116637 4.11673e-20 0.0271358 7.69081e-21 -0.000614232)
(-0.181977 -0.00680215 2.00232e-20 0.182248 3.88185e-20 -0.000270459)
(-0.181041 -0.0082203 -3.93706e-20 0.181783 8.83859e-20 -0.000741884)
(-0.178089 -0.00919129 -3.53713e-20 0.179252 4.52023e-20 -0.00116274)
(-0.173709 -0.00981656 4.8766e-20 0.175249 -7.70419e-21 -0.00153915)
(-0.168518 -0.0102116 -1.72437e-20 0.170395 3.10264e-21 -0.00187723)
(-0.162697 -0.0104215 5.28044e-21 0.164878 5.57332e-20 -0.00218094)
(-0.156632 -0.0105121 -3.63226e-20 0.159088 7.85721e-20 -0.00245578)
(-0.150336 -0.0105038 -1.12955e-20 0.15304 2.35137e-20 -0.00270364)
(-0.144062 -0.0104358 -7.52647e-21 0.146992 1.51038e-19 -0.00293032)
(-0.137759 -0.0103172 8.63861e-21 0.140895 1.16695e-19 -0.00313573)
(-0.131599 -0.0101722 5.54126e-20 0.134925 -1.26028e-20 -0.00332627)
(-0.125514 -0.0100045 6.94985e-21 0.129015 7.29966e-20 -0.00350052)
(-0.11962 -0.00982953 2.76078e-20 0.123284 -7.72485e-20 -0.00366461)
(-0.113851 -0.00964885 5.31396e-20 0.117668 6.63839e-20 -0.00381722)
(-0.108286 -0.00947207 3.49213e-20 0.112249 -1.55763e-19 -0.00396234)
(-0.10287 -0.00930064 -6.38337e-20 0.10697 -1.19141e-20 -0.00410064)
(-0.0976545 -0.00913954 7.21697e-20 0.101887 -5.33919e-21 -0.00423223)
(-0.0925951 -0.00899168 -1.98295e-20 0.0969561 -5.17079e-20 -0.00436094)
(-0.0877281 -0.00885803 -1.00632e-20 0.0922105 8.79424e-20 -0.00448241)
(-0.0830181 -0.00874363 1.41308e-20 0.0876213 -4.76492e-20 -0.00460329)
(-0.0784891 -0.00864625 -6.43225e-20 0.0832047 9.09458e-21 -0.0047156)
(-0.074117 -0.00857287 4.44315e-20 0.078944 -8.62689e-20 -0.00482699)
(-0.0699152 -0.00851934 -1.46494e-20 0.074843 3.99191e-20 -0.00492774)
(-0.0658717 -0.00849374 2.4384e-20 0.0708957 -1.43701e-19 -0.00502392)
(-0.0619903 -0.00849173 -1.00333e-19 0.0670964 -1.01353e-20 -0.0051061)
(-0.0582718 -0.008521 9.1822e-20 0.0634482 -9.46667e-20 -0.0051764)
(-0.0547114 -0.00857944 -4.72903e-20 0.0599388 -7.57343e-21 -0.00522734)
(-0.0513224 -0.0086719 5.95317e-21 0.0565778 -5.87286e-20 -0.00525538)
(-0.0480931 -0.00880223 -7.23786e-20 0.0533489 -7.43111e-20 -0.00525582)
(-0.0450475 -0.0089689 -3.83167e-20 0.0502661 9.73678e-21 -0.00521866)
(-0.0421705 -0.00918706 -3.84043e-20 0.0473122 -3.95848e-20 -0.00514174)
(-0.0394915 -0.00944425 -3.86629e-20 0.0445005 -1.83442e-21 -0.00500896)
(-0.0369996 -0.00977357 3.63347e-20 0.0418186 -2.42887e-20 -0.00481897)
(-0.0347178 -0.0101456 1.60677e-20 0.0392689 -6.10374e-20 -0.00455116)
(-0.0326531 -0.0106204 1.99324e-20 0.0368552 1.93733e-20 -0.00420215)
(-0.0307994 -0.0111384 -1.30498e-19 0.0345482 -4.62263e-21 -0.00374884)
(-0.0292057 -0.0118036 -2.69348e-20 0.0323888 -5.71801e-22 -0.00318313)
(-0.0277877 -0.0124946 4.22951e-21 0.0302689 2.02433e-20 -0.0024812)
(-0.0267107 -0.0133976 -8.17553e-20 0.0283395 -2.35779e-20 -0.00162877)
(-0.0256664 -0.0144439 -1.9942e-20 0.0262684 1.77413e-20 -0.000601973)
(-0.181789 -0.0122596 1.9031e-20 0.182058 -7.134e-20 -0.000268215)
(-0.180619 -0.0144981 7.20985e-20 0.181355 3.27707e-20 -0.000735783)
(-0.177495 -0.01601 -2.24328e-20 0.178648 -2.37521e-19 -0.00115311)
(-0.172993 -0.016959 -3.01394e-20 0.174519 1.28474e-19 -0.00152621)
(-0.167712 -0.0175335 6.94599e-20 0.169574 -1.48544e-19 -0.00186124)
(-0.16183 -0.0178063 4.47298e-20 0.163992 -1.76826e-20 -0.00216205)
(-0.155722 -0.0178844 2.44717e-20 0.158156 -1.27256e-19 -0.00243422)
(-0.149398 -0.0178007 5.61697e-20 0.152078 1.61713e-20 -0.00267957)
(-0.143106 -0.017618 8.81467e-20 0.14601 -2.99104e-20 -0.00290391)
(-0.136796 -0.0173515 -8.93689e-20 0.139903 -1.56027e-21 -0.00310727)
(-0.130632 -0.017039 -5.35877e-20 0.133928 -1.71117e-19 -0.00329576)
(-0.124549 -0.0166877 -3.63411e-20 0.128018 8.19974e-20 -0.00346849)
(-0.118659 -0.0163203 4.83013e-21 0.12229 -7.08778e-20 -0.00363078)
(-0.112897 -0.015941 -1.0046e-19 0.116679 6.83994e-20 -0.00378242)
(-0.107341 -0.0155628 -9.07396e-20 0.111266 6.52257e-20 -0.00392599)
(-0.101932 -0.0151896 1.1206e-19 0.105996 1.13437e-19 -0.0040638)
(-0.0967265 -0.0148275 -3.47518e-20 0.100921 4.82736e-20 -0.00419418)
(-0.0916756 -0.0144817 6.20581e-20 0.0959983 1.7358e-19 -0.0043227)
(-0.086817 -0.0141529 5.47757e-20 0.0912604 -1.58041e-19 -0.00444338)
(-0.0821141 -0.0138483 -8.70554e-20 0.0866783 1.41816e-19 -0.00456414)
(-0.0775915 -0.0135649 -5.36663e-20 0.0822676 -4.33567e-20 -0.00467611)
(-0.0732242 -0.0133115 -2.25927e-20 0.0780114 1.39054e-19 -0.00478723)
(-0.0690255 -0.0130831 -6.9903e-20 0.0739135 -8.13996e-21 -0.00488798)
(-0.0649836 -0.0128891 -8.67429e-20 0.0699671 7.17433e-20 -0.00498352)
(-0.0611013 -0.0127245 4.35429e-20 0.0661671 2.01389e-19 -0.0050658)
(-0.0573805 -0.0125977 -6.79567e-20 0.0625155 1.08983e-19 -0.00513497)
(-0.0538144 -0.0125065 5.87971e-20 0.0590002 2.12335e-19 -0.00518577)
(-0.0504186 -0.0124554 -7.30389e-20 0.0556308 4.50644e-20 -0.00521221)
(-0.0471783 -0.0124491 8.64999e-20 0.0523903 1.88002e-19 -0.00521197)
(-0.0441214 -0.0124841 -4.72846e-21 0.0492943 -3.83029e-21 -0.00517293)
(-0.0412282 -0.0125781 -1.38052e-20 0.046323 1.11849e-19 -0.00509474)
(-0.0385339 -0.0127142 -2.35458e-20 0.0434942 7.9304e-20 -0.00496027)
(-0.036022 -0.0129307 -5.69473e-20 0.0407909 2.04681e-19 -0.0047689)
(-0.0337217 -0.0131908 -2.25564e-22 0.0382221 -2.74614e-19 -0.00450045)
(-0.0316373 -0.0135642 6.66916e-20 0.0357885 2.20237e-19 -0.00415121)
(-0.0297593 -0.0139823 -9.34797e-20 0.0334591 -8.82552e-20 -0.00369982)
(-0.0281596 -0.014568 2.42726e-20 0.0312971 1.16376e-20 -0.00313743)
(-0.0266828 -0.0151818 -3.62052e-20 0.0291254 1.42036e-19 -0.00244261)
(-0.0256605 -0.0160633 -3.57484e-20 0.0272614 -7.20909e-20 -0.00160086)
(-0.0244224 -0.0170964 2.1441e-20 0.025013 2.18536e-19 -0.000590631)
(-0.181473 -0.0177213 7.13679e-20 0.181739 9.43928e-20 -0.000265913)
(-0.179961 -0.0207507 -1.01633e-19 0.18069 5.1811e-20 -0.000729276)
(-0.176586 -0.0227806 -1.26931e-20 0.177729 3.15836e-19 -0.00114277)
(-0.171907 -0.0240368 1.41258e-19 0.173419 -2.26092e-19 -0.00151233)
(-0.166498 -0.0247786 -1.20136e-19 0.168342 9.7668e-20 -0.00184411)
(-0.160529 -0.0251055 2.32112e-20 0.162671 7.70196e-20 -0.00214189)
(-0.15436 -0.0251646 -2.23512e-20 0.156771 9.62471e-20 -0.00241127)
(-0.147999 -0.0250011 6.08753e-20 0.150653 -2.67463e-20 -0.0026541)
(-0.141685 -0.0247006 1.30963e-20 0.144561 -9.0064e-20 -0.00287603)
(-0.135365 -0.0242844 -6.86955e-20 0.138443 -5.13376e-20 -0.00307742)
(-0.129201 -0.0238032 1.00838e-19 0.132465 5.95076e-20 -0.00326382)
(-0.123125 -0.0232678 7.79482e-20 0.12656 2.0658e-20 -0.00343516)
(-0.117246 -0.0227079 4.06728e-20 0.120842 -1.59523e-19 -0.00359568)
(-0.111498 -0.0221303 1.50631e-19 0.115245 1.3072e-19 -0.00374646)
(-0.105959 -0.0215513 7.20473e-20 0.109847 -1.46773e-20 -0.00388861)
(-0.100568 -0.020977 -1.15057e-19 0.104594 3.32284e-19 -0.00402595)
(-0.0953815 -0.0204148 1.75418e-19 0.0995368 -2.10502e-19 -0.0041553)
(-0.0903489 -0.0198718 -2.21444e-19 0.0946324 2.33827e-19 -0.00428348)
(-0.085509 -0.0193488 -1.45805e-20 0.0899125 -1.4703e-19 -0.00440353)
(-0.0808231 -0.0188549 1.09718e-19 0.0853469 1.47709e-19 -0.00452377)
(-0.0763169 -0.0183863 -5.90004e-20 0.0809523 -1.4668e-19 -0.00463539)
(-0.071964 -0.0179536 7.78262e-20 0.0767095 1.82157e-20 -0.00474551)
(-0.0677783 -0.0175508 -7.27096e-20 0.0726243 5.55056e-21 -0.00484595)
(-0.0637472 -0.017189 1.95841e-19 0.068687 1.66626e-19 -0.00493984)
(-0.0598732 -0.0168619 -2.94187e-20 0.0648948 -1.25869e-19 -0.00502153)
(-0.0561584 -0.0165795 1.08764e-19 0.0612469 8.11277e-20 -0.00508848)
(-0.0525949 -0.0163382 -8.00996e-20 0.0577331 -3.73612e-21 -0.00513816)
(-0.0491993 -0.016144 -2.36561e-20 0.0543614 9.77942e-20 -0.00516214)
(-0.0459544 -0.0160002 -9.40136e-20 0.0511146 -1.58136e-19 -0.00516023)
(-0.0428907 -0.0159039 -1.20933e-19 0.0480098 1.02412e-19 -0.00511902)
(-0.0399841 -0.0158734 6.93053e-20 0.045023 -4.07581e-20 -0.0050389)
(-0.0372762 -0.0158877 9.56781e-20 0.0421794 4.79735e-20 -0.00490317)
(-0.0347414 -0.0159942 -3.28946e-19 0.0394518 9.42943e-20 -0.00471039)
(-0.0324236 -0.0161363 -1.56659e-20 0.0368659 -1.0821e-20 -0.00444238)
(-0.0303107 -0.0164208 2.52595e-19 0.0344043 8.66214e-20 -0.00409356)
(-0.0284207 -0.0167098 -3.64288e-19 0.0320662 4.68684e-20 -0.00364552)
(-0.0268015 -0.0172527 2.31966e-19 0.029889 6.43011e-20 -0.00308756)
(-0.0253357 -0.0176847 -7.09567e-20 0.0277369 8.2844e-20 -0.00240127)
(-0.0242828 -0.0185998 1.63845e-20 0.0258542 -9.82756e-20 -0.00157137)
(-0.0231182 -0.0195188 -1.08927e-19 0.0236969 -1.87397e-19 -0.00057863)
(-0.181027 -0.0231903 3.82888e-20 0.18129 -1.69566e-19 -0.000263226)
(-0.179067 -0.0269677 2.36731e-19 0.179789 -2.65498e-19 -0.000722014)
(-0.175367 -0.0294844 -1.22121e-19 0.176498 -3.44931e-19 -0.00113136)
(-0.170457 -0.0310249 -1.45982e-19 0.171954 -6.1934e-20 -0.00149713)
(-0.164883 -0.031917 2.55215e-19 0.166708 -2.4022e-22 -0.00182543)
(-0.158801 -0.0322859 6.86536e-20 0.160921 -1.82974e-19 -0.00212003)
(-0.152556 -0.0323171 -1.94005e-20 0.154942 -1.77616e-19 -0.00238645)
(-0.146149 -0.0320676 -7.89023e-20 0.148775 8.38245e-20 -0.00262668)
(-0.139809 -0.0316451 7.37526e-20 0.142655 3.7838e-20 -0.00284609)
(-0.13348 -0.0310766 -1.89697e-20 0.136525 1.1173e-19 -0.00304548)
(-0.127319 -0.0304253 1.43286e-20 0.130548 -2.10823e-19 -0.00322976)
(-0.121253 -0.0297052 -2.1204e-19 0.124653 1.23855e-19 -0.00339969)
(-0.115393 -0.028953 9.091e-20 0.118951 -1.43288e-19 -0.00355845)
(-0.109667 -0.0281775 -5.45373e-21 0.113376 1.90885e-19 -0.00370837)
(-0.104154 -0.0273987 1.22521e-19 0.108003 -2.39426e-20 -0.00384916)
(-0.0987905 -0.0266246 -3.70071e-20 0.102777 1.8066e-19 -0.00398601)
(-0.0936326 -0.0258637 -7.14118e-20 0.097747 -2.77719e-19 -0.00411442)
(-0.0886284 -0.0251251 1.49383e-19 0.0928707 9.75758e-20 -0.00424225)
(-0.0838172 -0.0244097 -7.59359e-20 0.088179 5.03507e-20 -0.00436183)
(-0.0791586 -0.0237281 -5.10497e-20 0.0836403 -4.90393e-20 -0.00448163)
(-0.0746787 -0.0230764 -2.09566e-19 0.0792718 2.13839e-19 -0.00459313)
(-0.0703503 -0.0224663 1.11093e-19 0.0750528 1.6607e-19 -0.00470252)
(-0.0661869 -0.0218915 5.4612e-20 0.0709898 1.13367e-19 -0.00480296)
(-0.062176 -0.0213639 -1.53085e-19 0.0670717 -1.86123e-19 -0.00489572)
(-0.058319 -0.0208769 -6.0092e-20 0.0632962 3.03224e-19 -0.00497717)
(-0.0546192 -0.0204413 9.8709e-20 0.0596618 -5.32086e-20 -0.00504258)
(-0.0510661 -0.0200528 1.09281e-19 0.0561575 1.82866e-19 -0.00509147)
(-0.047679 -0.0197184 -1.93998e-19 0.0527927 4.36088e-20 -0.00511362)
(-0.0444365 -0.0194403 7.05967e-20 0.0495468 3.46431e-19 -0.00511024)
(-0.0413746 -0.0192168 1.1196e-19 0.0464418 1.90926e-19 -0.00506715)
(-0.0384605 -0.0190645 -1.05362e-19 0.0434457 3.16193e-19 -0.00498517)
(-0.0357477 -0.0189632 2.20246e-19 0.0405957 -7.41015e-20 -0.00484802)
(-0.033193 -0.0189584 -8.27659e-20 0.0378467 2.1989e-19 -0.00465377)
(-0.0308659 -0.0189919 -9.50706e-20 0.0352515 1.13381e-19 -0.00438564)
(-0.0287181 -0.0191721 1.8351e-19 0.0327553 3.17158e-19 -0.0040372)
(-0.0268164 -0.0193463 -8.12349e-20 0.0304083 -6.17673e-20 -0.0035919)
(-0.025162 -0.0198005 5.40579e-20 0.0282004 2.37985e-20 -0.00303838)
(-0.0236573 -0.0201071 -1.78401e-19 0.0260175 9.90671e-20 -0.00236019)
(-0.0226664 -0.0209666 -3.83762e-19 0.0242086 -6.16129e-20 -0.00154215)
(-0.0214262 -0.021886 1.67328e-19 0.0219931 1.86015e-19 -0.0005669)
(-0.180448 -0.0286656 2.28367e-20 0.180708 1.03386e-19 -0.000260515)
(-0.177941 -0.0331382 -2.19853e-19 0.178655 3.53218e-19 -0.000714431)
(-0.173843 -0.0361021 1.71574e-19 0.174962 -2.27279e-20 -0.00111938)
(-0.168652 -0.0378984 2.20399e-19 0.170133 3.92403e-19 -0.00148117)
(-0.162877 -0.0389198 -1.91364e-19 0.164683 1.7119e-20 -0.00180582)
(-0.156659 -0.0393156 -4.51102e-20 0.158756 -6.57141e-20 -0.00209716)
(-0.150323 -0.0393082 1.3805e-19 0.152684 1.34145e-19 -0.00236054)
(-0.143861 -0.0389653 2.15045e-19 0.146459 -8.63766e-20 -0.00259816)
(-0.137492 -0.0384158 4.15995e-20 0.140307 -9.34333e-20 -0.00281504)
(-0.131154 -0.037692 -2.57536e-19 0.134166 1.46543e-19 -0.00301247)
(-0.124998 -0.036869 8.98076e-20 0.128192 2.33845e-19 -0.00319466)
(-0.118949 -0.0359638 1.0982e-19 0.122312 1.23768e-19 -0.00336324)
(-0.113113 -0.0350196 4.02445e-20 0.116633 1.38671e-20 -0.00352033)
(-0.107417 -0.0340473 2.99119e-19 0.111087 -1.84666e-19 -0.00366935)
(-0.101938 -0.0330703 7.66898e-20 0.105747 2.86197e-20 -0.00380889)
(-0.0966114 -0.0320979 -2.32294e-19 0.100556 -6.6009e-20 -0.00394504)
(-0.0914919 -0.0311405 1.38907e-20 0.0955645 1.75953e-19 -0.0040726)
(-0.086526 -0.0302081 4.82615e-20 0.0907256 2.18547e-19 -0.00419965)
(-0.0817533 -0.0293026 -1.11178e-19 0.086072 3.3254e-20 -0.00431867)
(-0.077132 -0.0284353 2.44512e-19 0.0815694 2.53773e-19 -0.00443733)
(-0.0726884 -0.0276024 1.03592e-19 0.0772368 1.93176e-19 -0.00454836)
(-0.0683944 -0.0268168 -4.7957e-20 0.0730505 2.11556e-19 -0.00465612)
(-0.0642633 -0.0260714 -3.15734e-19 0.0690191 -1.96843e-19 -0.00475586)
(-0.0602823 -0.0253797 3.4917e-19 0.0651289 2.61452e-19 -0.00484657)
(-0.0564522 -0.0247335 8.68741e-20 0.0613791 6.20163e-20 -0.00492685)
(-0.0527764 -0.0241463 -6.7143e-20 0.0577665 3.01846e-19 -0.00499004)
(-0.0492431 -0.0236105 1.07034e-19 0.0542804 -1.35844e-19 -0.00503724)
(-0.0458732 -0.0231373 1.58764e-19 0.0509306 1.30506e-19 -0.00505737)
(-0.0426416 -0.0227239 5.19799e-20 0.0476936 -1.11194e-19 -0.00505199)
(-0.039589 -0.0223745 -5.79792e-20 0.0445965 -9.87473e-20 -0.00500746)
(-0.0366743 -0.0220986 -9.96922e-20 0.0415979 -5.65875e-19 -0.00492363)
(-0.0339631 -0.021883 -3.80535e-20 0.038749 2.48704e-20 -0.00478598)
(-0.0313921 -0.0217671 1.72738e-20 0.0359829 -3.3317e-19 -0.00459085)
(-0.029061 -0.0216941 7.18196e-20 0.0333847 6.95281e-20 -0.00432375)
(-0.0268738 -0.0217822 1.88108e-19 0.0308504 -3.21779e-19 -0.00397659)
(-0.024976 -0.0218332 -6.55756e-19 0.0285111 -1.40203e-19 -0.0035351)
(-0.0232376 -0.0222528 4.6659e-19 0.0262246 -1.87284e-19 -0.00298694)
(-0.0218026 -0.022303 -8.65306e-20 0.0241201 -5.52383e-20 -0.00231756)
(-0.020674 -0.0231942 1.09178e-19 0.0221859 -4.84538e-19 -0.00151197)
(-0.0195419 -0.0237839 -3.22409e-19 0.0200964 7.16101e-20 -0.000554575)
(-0.179734 -0.0341478 1.99291e-19 0.179991 -1.41796e-19 -0.000257453)
(-0.176586 -0.039252 1.45322e-19 0.177292 1.27142e-20 -0.00070617)
(-0.172021 -0.0426159 -1.93527e-19 0.173128 -4.59547e-20 -0.00110645)
(-0.166503 -0.0446338 7.32856e-22 0.167967 -3.44124e-19 -0.00146404)
(-0.160494 -0.0457589 6.56922e-23 0.162279 1.07324e-19 -0.00178486)
(-0.154119 -0.0461636 -1.25325e-20 0.156191 4.15355e-19 -0.0020728)
(-0.147677 -0.0461044 -7.30078e-20 0.15001 -1.51571e-22 -0.00233301)
(-0.141153 -0.0456594 -2.38206e-19 0.143721 1.29798e-19 -0.00256796)
(-0.134751 -0.044977 2.97657e-19 0.137534 -2.48436e-20 -0.00278224)
(-0.128405 -0.0440944 2.17527e-19 0.131383 8.38692e-20 -0.00297769)
(-0.122258 -0.0430979 -4.75684e-20 0.125415 -1.79073e-20 -0.00315778)
(-0.11623 -0.0420072 -3.6922e-19 0.119555 1.44628e-19 -0.00332499)
(-0.110426 -0.0408716 -1.73166e-19 0.113906 -1.23835e-20 -0.00348045)
(-0.104768 -0.0397038 -5.7498e-20 0.108397 2.89204e-19 -0.00362855)
(-0.0993321 -0.0385305 3.41602e-19 0.103099 -1.70986e-19 -0.00376691)
(-0.0940507 -0.0373622 1.04587e-19 0.097953 -3.32093e-20 -0.00390237)
(-0.0889789 -0.036211 1.04267e-19 0.093008 1.16776e-20 -0.00402918)
(-0.0840608 -0.0350878 8.73975e-20 0.0882163 -4.52003e-20 -0.00415552)
(-0.0793362 -0.0339952 -3.50071e-20 0.0836103 -1.17807e-19 -0.00427413)
(-0.0747618 -0.0329452 1.19821e-19 0.0791536 -2.37501e-19 -0.00439185)
(-0.0703637 -0.0319345 -1.37538e-19 0.0748663 6.55866e-21 -0.00450261)
(-0.0661133 -0.0309764 -4.93386e-20 0.0707224 -3.43353e-19 -0.00460911)
(-0.0620232 -0.0300637 -2.40549e-20 0.0667316 2.04531e-19 -0.00470839)
(-0.0580807 -0.0292109 4.72628e-20 0.0628783 -1.4502e-19 -0.00479752)
(-0.0542856 -0.0284087 1.37607e-19 0.0591625 -1.05143e-19 -0.00487688)
(-0.0506417 -0.0276727 -3.76368e-20 0.05558 -7.52373e-20 -0.00493827)
(-0.0471359 -0.0269925 -9.87518e-20 0.0521199 2.03124e-21 -0.00498396)
(-0.04379 -0.0263834 -4.45112e-20 0.0487922 -3.17088e-19 -0.00500227)
(-0.0405762 -0.0258373 -1.94704e-19 0.0455712 6.33217e-19 -0.00499496)
(-0.0375388 -0.0253655 -2.67785e-19 0.0424877 -5.30048e-20 -0.00494889)
(-0.0346295 -0.0249676 -9.47354e-20 0.0394928 3.7329e-19 -0.00486329)
(-0.0319248 -0.0246436 4.14703e-19 0.0366497 1.33509e-19 -0.00472488)
(-0.0293431 -0.0244134 -1.95835e-20 0.0338722 -1.64168e-19 -0.00452904)
(-0.0270145 -0.0242455 -1.27265e-19 0.0312773 2.30764e-19 -0.00426279)
(-0.024792 -0.0242194 1.36199e-19 0.0287093 -1.40937e-19 -0.00391732)
(-0.0229136 -0.0241883 -1.94057e-20 0.0263933 -3.25117e-20 -0.0034797)
(-0.0210717 -0.0244759 -1.40352e-21 0.0240092 2.84089e-20 -0.00293746)
(-0.0197372 -0.0244916 -4.57386e-19 0.0220143 -6.9034e-20 -0.00227709)
(-0.0183195 -0.0251703 -2.80517e-19 0.0198037 -1.52845e-19 -0.00148418)
(-0.0172697 -0.0258413 3.34661e-19 0.0178136 6.35193e-19 -0.000543871)
(-0.178881 -0.039637 8.85712e-20 0.179135 1.7965e-19 -0.000254383)
(-0.175005 -0.0452988 -3.10081e-20 0.175702 -3.17458e-20 -0.00069765)
(-0.169912 -0.0490082 -1.97845e-20 0.171005 1.42192e-19 -0.00109304)
(-0.164022 -0.0512082 1.54634e-19 0.165468 7.65224e-19 -0.00144627)
(-0.157748 -0.052408 2.50988e-19 0.159512 9.65105e-20 -0.00176314)
(-0.151196 -0.0528009 2.03829e-20 0.153244 -4.02505e-19 -0.0020476)
(-0.144637 -0.0526752 1.89506e-20 0.146942 -4.66531e-20 -0.00230459)
(-0.138044 -0.0521181 1.78199e-19 0.140581 -1.32163e-19 -0.00253686)
(-0.131608 -0.0512961 -7.81865e-20 0.134356 -1.69359e-20 -0.00274853)
(-0.125254 -0.0502508 -1.34932e-19 0.128196 -1.26131e-19 -0.00294198)
(-0.119119 -0.0490789 2.90488e-19 0.122239 -9.9024e-20 -0.00312001)
(-0.113118 -0.0478023 2.30169e-19 0.116404 -2.1379e-19 -0.00328577)
(-0.107352 -0.0464762 7.47605e-20 0.110791 1.12078e-19 -0.00343964)
(-0.101739 -0.0451147 8.06309e-20 0.105326 6.23059e-21 -0.0035866)
(-0.0963545 -0.0437474 -1.36012e-19 0.100078 -3.70567e-19 -0.00372378)
(-0.0911272 -0.0423859 -1.08361e-19 0.0949853 1.26801e-19 -0.00385812)
(-0.0861123 -0.041044 1.25524e-19 0.0900963 -3.2663e-19 -0.00398406)
(-0.0812514 -0.039733 -2.95909e-20 0.0853604 1.02173e-19 -0.00410904)
(-0.0765844 -0.0384566 -1.77698e-19 0.0808113 -4.94755e-19 -0.00422687)
(-0.0720664 -0.0372272 3.59492e-19 0.0764093 1.25759e-19 -0.00434289)
(-0.0677237 -0.0360417 1.10897e-19 0.0721764 -1.2112e-19 -0.00445271)
(-0.0635263 -0.0349141 8.40208e-20 0.0680835 1.04918e-19 -0.00455718)
(-0.0594871 -0.0338367 -1.90248e-19 0.0641422 1.31926e-19 -0.00465516)
(-0.0555924 -0.0328257 5.06016e-20 0.0603345 1.04922e-19 -0.00474214)
(-0.0518419 -0.0318694 1.29905e-19 0.0566617 1.19024e-19 -0.00481976)
(-0.0482389 -0.0309871 2.18774e-19 0.053118 -2.86849e-19 -0.00487918)
(-0.0447699 -0.0301637 -2.54935e-19 0.0496928 2.24026e-19 -0.00492284)
(-0.0414566 -0.0294212 9.31337e-19 0.0463962 -5.33557e-19 -0.00493963)
(-0.03827 -0.0287423 3.0887e-19 0.0432004 4.5899e-19 -0.00493038)
(-0.035256 -0.0281505 -2.1901e-19 0.0401395 -5.57513e-19 -0.00488346)
(-0.0323616 -0.0276295 -2.40813e-19 0.0371581 4.54275e-19 -0.00479656)
(-0.0296705 -0.0271994 -5.88835e-19 0.0343287 -4.70356e-20 -0.00465825)
(-0.0270867 -0.026853 1.13841e-19 0.0315491 1.63545e-19 -0.00446248)
(-0.0247606 -0.0265934 6.18949e-20 0.0289585 2.78631e-19 -0.0041979)
(-0.022508 -0.0264512 -2.46405e-19 0.0263629 1.18704e-19 -0.00385491)
(-0.0206241 -0.026344 -4.76222e-19 0.0240459 2.63592e-20 -0.0034218)
(-0.0186898 -0.0265038 4.636e-19 0.0215759 2.68154e-19 -0.00288605)
(-0.0173754 -0.0264555 -3.04471e-19 0.0196104 2.6752e-19 -0.002235)
(-0.0157765 -0.0270239 7.49379e-19 0.0172314 -1.79711e-19 -0.0014549)
(-0.0146852 -0.0276311 -6.14136e-19 0.0152172 7.54008e-20 -0.000532029)
(-0.177887 -0.0451313 1.16117e-19 0.178138 -1.44264e-19 -0.00025101)
(-0.173203 -0.0512689 1.53643e-19 0.173891 -1.20042e-19 -0.000688541)
(-0.167524 -0.0552626 2.25531e-19 0.168603 -1.11321e-19 -0.00107881)
(-0.161223 -0.0576004 1.21244e-19 0.162651 -7.63101e-19 -0.0014275)
(-0.154659 -0.058842 -4.98471e-19 0.156399 -5.28244e-19 -0.00174024)
(-0.147912 -0.0592 -3.72615e-20 0.149933 1.25492e-19 -0.00202111)
(-0.141225 -0.058991 1.50999e-20 0.143499 2.18287e-19 -0.00227479)
(-0.134558 -0.0583104 -1.73236e-19 0.137062 -9.32899e-21 -0.00250429)
(-0.128085 -0.0573415 2.63461e-19 0.130798 3.21741e-19 -0.00271332)
(-0.121725 -0.0561292 2.57443e-19 0.12463 -4.9219e-19 -0.00290474)
(-0.115606 -0.05478 -2.91004e-19 0.118687 2.98053e-19 -0.00308069)
(-0.109638 -0.0533173 -7.17363e-20 0.112883 -3.28533e-19 -0.00324498)
(-0.103916 -0.051802 1.09936e-20 0.107313 6.84731e-20 -0.00339728)
(-0.0983564 -0.0502486 -2.86824e-19 0.101899 -1.37368e-19 -0.0035431)
(-0.0930308 -0.0486905 3.34355e-19 0.09671 2.4548e-19 -0.00367914)
(-0.0878662 -0.0471391 1.67751e-19 0.0916786 -2.61944e-19 -0.0038124)
(-0.0829168 -0.0456104 -9.46695e-20 0.0868543 4.46067e-19 -0.00393751)
(-0.0781219 -0.0441156 8.76587e-20 0.0821831 -2.96406e-19 -0.00406127)
(-0.0735211 -0.0426597 -2.69617e-19 0.0776995 2.68103e-19 -0.00417841)
(-0.0690683 -0.0412551 3.32802e-19 0.0733612 -5.1394e-20 -0.00429293)
(-0.0647892 -0.039899 -7.65454e-20 0.0691911 -1.85474e-19 -0.00440194)
(-0.060653 -0.038606 1.86639e-19 0.0651577 -8.68562e-20 -0.00450465)
(-0.0566726 -0.0373676 9.09743e-20 0.0612741 -1.51909e-19 -0.00460146)
(-0.0528331 -0.0362018 -4.69474e-20 0.0575197 -3.32191e-20 -0.00468653)
(-0.0491349 -0.0350947 -3.66306e-19 0.0538975 1.71654e-19 -0.00476251)
(-0.0455792 -0.0340689 2.35134e-19 0.0503993 -5.08051e-19 -0.00482006)
(-0.0421542 -0.0331046 -5.76016e-19 0.047016 1.24642e-19 -0.00486178)
(-0.0388787 -0.0322303 -1.36992e-19 0.0437556 2.0265e-19 -0.00487695)
(-0.0357257 -0.0314199 2.50955e-19 0.0405915 2.76728e-20 -0.00486587)
(-0.0327379 -0.0307088 -1.27563e-19 0.0375559 -2.48616e-19 -0.00481797)
(-0.0298637 -0.0300639 6.46083e-19 0.0345937 1.77901e-19 -0.00472998)
(-0.0271848 -0.0295285 1.54982e-19 0.0317766 -2.48338e-19 -0.00459181)
(-0.0246038 -0.0290616 -1.1273e-20 0.0290003 5.93859e-19 -0.00439655)
(-0.0222732 -0.0287149 2.55305e-19 0.0264071 -7.24679e-19 -0.00413398)
(-0.0199992 -0.0284472 -1.47734e-19 0.0237934 5.47552e-19 -0.00379414)
(-0.0180947 -0.0282886 4.82786e-20 0.0214609 -1.75833e-19 -0.00336612)
(-0.016094 -0.0282968 2.02194e-19 0.0189316 4.89326e-19 -0.00283754)
(-0.0147774 -0.0282962 -8.5412e-19 0.0169736 -3.21431e-19 -0.00219623)
(-0.0129923 -0.0286586 -4.43477e-19 0.0144214 1.38396e-19 -0.00142906)
(-0.0120159 -0.0294331 5.73758e-19 0.0125384 4.09312e-19 -0.000522562)
(-0.176746 -0.0506316 -1.00627e-19 0.176993 7.02957e-19 -0.000247624)
(-0.171184 -0.0571528 -1.52482e-19 0.171863 3.44495e-19 -0.000679202)
(-0.16487 -0.0613632 -3.64322e-19 0.165934 1.28742e-19 -0.00106416)
(-0.158124 -0.0637901 1.97943e-20 0.159532 5.67745e-19 -0.00140816)
(-0.151244 -0.0650379 5.85717e-19 0.152961 7.05202e-19 -0.00171667)
(-0.144288 -0.0653354 2.12789e-19 0.146282 2.97101e-19 -0.00199386)
(-0.137463 -0.065025 -2.13951e-20 0.139707 -7.46717e-20 -0.00224417)
(-0.130718 -0.0642088 2.55824e-19 0.133189 -2.65665e-19 -0.00247085)
(-0.124209 -0.063085 -4.05869e-19 0.126886 -2.59256e-19 -0.00267721)
(-0.117845 -0.0617011 -1.92755e-19 0.120712 2.53056e-19 -0.00286648)
(-0.111746 -0.0601725 3.27616e-19 0.114786 5.06327e-19 -0.00304035)
(-0.105815 -0.0585235 -2.0715e-19 0.109018 4.74564e-19 -0.00320295)
(-0.100144 -0.0568202 2.05468e-19 0.103498 3.07873e-19 -0.00335363)
(-0.0946449 -0.0550774 4.29562e-20 0.0981428 3.51791e-19 -0.00349793)
(-0.0893865 -0.0533316 -4.35968e-19 0.0930191 5.78408e-20 -0.00363266)
(-0.0842929 -0.0515939 1.54291e-19 0.0880572 2.80513e-21 -0.00376431)
(-0.0794174 -0.0498826 7.57409e-20 0.0833056 -2.97762e-20 -0.00388825)
(-0.0746972 -0.0482082 -1.05348e-19 0.0787073 -1.84954e-19 -0.00401013)
(-0.0701716 -0.0465772 -5.43026e-20 0.0742976 -2.695e-19 -0.004126)
(-0.0657926 -0.0450017 -2.08919e-19 0.070031 4.57356e-19 -0.00423839)
(-0.061586 -0.0434792 8.13961e-20 0.0659319 -2.777e-20 -0.00434586)
(-0.0575197 -0.0420251 -4.26524e-20 0.0619661 4.09691e-19 -0.00444633)
(-0.0536069 -0.0406298 -2.0514e-20 0.0581481 -1.28116e-19 -0.00454124)
(-0.0498308 -0.0393132 4.80663e-19 0.054455 1.52912e-19 -0.00462422)
(-0.0461933 -0.0380587 -4.1925e-19 0.0508913 2.12717e-19 -0.00469807)
(-0.0426925 -0.0368929 1.10475e-19 0.0474464 -8.45761e-20 -0.0047539)
(-0.0393194 -0.0357908 4.50255e-19 0.0441129 5.55857e-19 -0.00479355)
(-0.0360884 -0.0347881 5.11365e-19 0.040896 1.77916e-19 -0.00480756)
(-0.0329763 -0.0338489 -1.42501e-19 0.0377712 3.76616e-19 -0.00479493)
(-0.0300204 -0.0330221 -4.78444e-19 0.034767 4.68343e-19 -0.0047466)
(-0.0271731 -0.0322567 -2.11935e-19 0.0318312 4.03831e-20 -0.00465809)
(-0.0245096 -0.0316202 3.22544e-20 0.0290302 -7.09465e-21 -0.00452062)
(-0.0219372 -0.0310396 -2.70113e-19 0.0262637 -4.6609e-20 -0.00432648)
(-0.0195988 -0.0306109 8.12237e-20 0.0236652 -1.86882e-19 -0.00406639)
(-0.0173098 -0.0302316 4.60902e-19 0.02104 2.51484e-19 -0.00373018)
(-0.015365 -0.0300253 -5.02452e-19 0.0186725 -3.25981e-19 -0.00330752)
(-0.0133192 -0.0299056 7.85712e-19 0.0161055 2.41975e-20 -0.00278631)
(-0.0119371 -0.0299355 -3.47315e-19 0.0140919 -1.26534e-19 -0.0021548)
(-0.0100563 -0.0301535 1.11964e-18 0.0114568 5.22921e-19 -0.00140052)
(-0.00903458 -0.0309668 -7.23802e-19 0.00954561 -3.38376e-19 -0.000511028)
(-0.175456 -0.0561332 5.96087e-20 0.1757 -4.73472e-19 -0.000243992)
(-0.168955 -0.0629414 1.49886e-20 0.169624 -5.62846e-19 -0.000669365)
(-0.161962 -0.0672958 2.06229e-19 0.16301 1.53006e-19 -0.00104881)
(-0.154741 -0.0697592 1.13406e-19 0.156129 -8.71577e-20 -0.00138794)
(-0.147527 -0.0709742 -7.83487e-19 0.149219 -1.56151e-19 -0.00169208)
(-0.140349 -0.0711838 -3.38393e-20 0.142314 -8.80041e-19 -0.00196548)
(-0.13338 -0.0707525 -2.83687e-19 0.135592 -6.8091e-20 -0.00221233)
(-0.126554 -0.0697875 -1.32446e-19 0.128991 -3.09225e-19 -0.00243611)
(-0.120008 -0.0685002 5.70105e-19 0.122648 5.7573e-19 -0.00263976)
(-0.113644 -0.06694 5.59681e-19 0.11647 -5.85404e-20 -0.00282684)
(-0.107568 -0.06523 -7.29319e-21 0.110567 -5.47048e-20 -0.00299861)
(-0.101681 -0.0633947 5.97397e-20 0.104841 -8.4192e-19 -0.00315948)
(-0.0960675 -0.0615053 -1.66828e-19 0.099376 1.12592e-19 -0.00330852)
(-0.0906352 -0.0595758 -7.04981e-20 0.0940865 -7.70345e-19 -0.00345129)
(-0.0854514 -0.0576461 1.30951e-19 0.0890361 -8.96317e-20 -0.00358471)
(-0.0804365 -0.0557265 -3.35242e-20 0.0841513 -2.33522e-19 -0.00371478)
(-0.0756428 -0.0538373 -1.29875e-19 0.0794803 1.79291e-19 -0.00383755)