/*--------------------------------*- C++ -*----------------------------------*\
| =========                 |                                                 |
| \\      /  F ield         | foam-extend: Open Source CFD                    |
|  \\    /   O peration     | Version:  3.0                                   |
|   \\  /    A nd           | Web:         http://www.extend-project.de       |
|    \\/     M anipulation  |                                                 |
\*---------------------------------------------------------------------------*/
FoamFile
{
    version     2.0;
    format      ascii;
    class       volVectorField;
    location    "77";
    object      u;
}
// * * * * * * * * * * * * * * * * * * * * * * * * * * * * * * * * * * * * * //

dimensions      [0 0 0 0 0 0 0];

internalField   nonuniform List<vector> 
7680
(
(0.145976 -0.0474304 4.70242e-17)
(0.131136 -0.0437644 6.60709e-17)
(0.361363 -0.0421915 -7.00698e-17)
(0.326519 -0.0388751 5.92307e-17)
(0.514101 -0.0386936 -5.0358e-17)
(0.471678 -0.0360137 3.94954e-17)
(0.6263 -0.0365711 -2.98285e-17)
(0.58171 -0.0344815 2.18246e-18)
(0.711225 -0.0354105 -3.64142e-17)
(0.666528 -0.0338212 -3.06317e-18)
(0.777127 -0.0349655 -4.39285e-17)
(0.732875 -0.0337759 4.70038e-17)
(0.829309 -0.0350647 -6.06175e-17)
(0.785465 -0.0341943 5.47131e-17)
(0.871266 -0.0355709 -3.40307e-17)
(0.827633 -0.0349969 6.76419e-17)
(0.905388 -0.0363826 -5.43398e-17)
(0.861752 -0.0361339 8.98022e-17)
(0.933375 -0.0374357 -6.68911e-17)
(0.889508 -0.0375647 8.53329e-17)
(0.956468 -0.0387062 -7.74246e-17)
(0.9121 -0.0392499 8.80831e-17)
(0.975573 -0.0402016 -7.08989e-17)
(0.930383 -0.0411461 9.19357e-17)
(0.991342 -0.0419586 -6.49807e-17)
(0.944979 -0.0432 6.80034e-17)
(1.00424 -0.0440504 -3.61369e-17)
(0.956367 -0.045345 4.73742e-17)
(1.01459 -0.0465954 -3.02375e-17)
(0.964959 -0.0475243 2.73821e-17)
(1.02261 -0.0497237 -1.4819e-17)
(0.971189 -0.0497654 1.65279e-17)
(1.02837 -0.0534582 -1.96415e-18)
(0.975599 -0.0521975 3.18585e-18)
(1.03171 -0.0576183 2.50846e-17)
(0.978894 -0.0546507 -1.54333e-17)
(1.03203 -0.0615636 4.32322e-17)
(0.982119 -0.0561497 -3.00819e-17)
(1.02721 -0.0649222 4.19684e-17)
(0.988944 -0.0635765 -2.14575e-17)
(0.150706 -0.112941 -2.57951e-17)
(0.135327 -0.100544 -6.70121e-17)
(0.365319 -0.0944694 1.00609e-16)
(0.329952 -0.0831421 -5.33057e-17)
(0.517549 -0.0811023 3.45234e-17)
(0.47462 -0.0712263 -3.61432e-18)
(0.629369 -0.0712032 3.43659e-17)
(0.5843 -0.0629903 3.42566e-17)
(0.71399 -0.063884 5.70948e-17)
(0.66884 -0.0572352 5.27705e-17)
(0.77964 -0.0585153 3.09537e-17)
(0.734965 -0.053227 -1.29774e-17)
(0.831598 -0.0546383 3.2331e-17)
(0.787372 -0.0504919 -2.47833e-17)
(0.873341 -0.0518931 -1.91072e-17)
(0.829386 -0.0487347 -6.12714e-17)
(0.907245 -0.0500135 5.49688e-17)
(0.863361 -0.0477597 -1.22212e-16)
(0.935 -0.0488145 9.48103e-17)
(0.890967 -0.0474254 -1.18307e-16)
(0.957841 -0.048185 8.05476e-17)
(0.913387 -0.0476281 -1.00839e-16)
(0.976672 -0.0480789 5.77108e-17)
(0.931464 -0.0482892 -1.05806e-16)
(0.992139 -0.0485029 3.77428e-17)
(0.945813 -0.0493323 -5.52647e-17)
(1.00469 -0.0495139 -1.61268e-17)
(0.956899 -0.0506491 -2.1487e-17)
(1.0146 -0.0512282 -3.17924e-17)
(0.965098 -0.0520684 1.27271e-17)
(1.022 -0.0538214 -3.31099e-17)
(0.970777 -0.0533311 1.96485e-17)
(1.02692 -0.0574825 -2.72088e-17)
(0.974424 -0.0539659 5.44608e-18)
(1.02933 -0.0624773 -3.00726e-17)
(0.976845 -0.0528432 -2.09961e-18)
(1.02939 -0.06956 -4.31907e-18)
(0.979582 -0.0475474 -3.0632e-18)
(1.02674 -0.0821368 -1.59379e-17)
(0.985476 -0.0459173 1.43696e-17)
(0.159751 -0.177849 -7.00688e-18)
(0.14324 -0.156363 4.54187e-17)
(0.372593 -0.145922 -1.86086e-16)
(0.336215 -0.12625 1.14911e-16)
(0.523483 -0.122436 -9.56675e-17)
(0.479706 -0.105458 1.36496e-17)
(0.634313 -0.10493 -1.13086e-16)
(0.588556 -0.0908105 7.65269e-18)
(0.718208 -0.0917136 -1.31936e-16)
(0.67252 -0.0802868 -5.23444e-17)
(0.783339 -0.0816891 -6.88769e-17)
(0.738259 -0.072628 2.61325e-17)
(0.834926 -0.0740814 -3.79433e-17)
(0.790424 -0.0670304 2.60069e-17)
(0.87641 -0.0683095 5.09705e-17)
(0.832308 -0.0629803 9.02871e-17)
(0.910151 -0.0639454 -6.37308e-17)
(0.866241 -0.0601289 1.69281e-16)
(0.937832 -0.0606832 -1.48665e-16)
(0.893866 -0.0582204 1.55909e-16)
(0.960681 -0.0583166 -1.07417e-16)
(0.916337 -0.0570566 1.6274e-16)
(0.979589 -0.0567155 -1.11119e-16)
(0.934475 -0.0564759 1.7963e-16)
(0.995189 -0.0558122 -6.71125e-17)
(0.948877 -0.0563362 1.30624e-16)
(1.00792 -0.0556105 -1.9828e-17)
(0.960008 -0.0565002 7.77277e-17)
(1.01808 -0.0562039 1.53214e-17)
(0.968283 -0.056851 1.768e-17)
(1.02588 -0.0577672 1.36736e-17)
(0.974179 -0.0573752 1.71088e-17)
(1.03139 -0.0605165 1.98996e-17)
(0.978371 -0.0582031 1.94014e-18)
(1.03444 -0.0647379 3.05237e-17)
(0.981944 -0.0593154 -1.70107e-17)
(1.03395 -0.0708314 3.76363e-17)
(0.987708 -0.0588853 -2.29498e-17)
(1.02458 -0.0797248 3.94666e-17)
(1.00545 -0.0647131 -1.618e-17)
(0.173023 -0.242167 7.11859e-17)
(0.154769 -0.212054 -6.65764e-17)
(0.383345 -0.197194 3.64448e-16)
(0.345342 -0.169625 -2.27817e-16)
(0.532402 -0.163983 1.63891e-16)
(0.487154 -0.139932 1.50194e-17)
(0.641817 -0.138829 1.45149e-16)
(0.594773 -0.118705 1.28137e-17)
(0.724594 -0.11956 8.96023e-17)
(0.6778 -0.103194 4.46422e-17)
(0.788817 -0.104701 1.29833e-16)
(0.742807 -0.0916589 -6.1599e-17)
(0.839648 -0.0931878 4.31504e-17)
(0.794386 -0.0829804 -3.39187e-17)
(0.880485 -0.0842319 -6.19547e-17)
(0.835788 -0.0764359 -5.11106e-17)
(0.913661 -0.0772477 2.54933e-17)
(0.86931 -0.0715364 -1.79287e-16)
(0.940846 -0.0718152 1.84742e-16)
(0.896571 -0.0679355 -1.87418e-16)
(0.963267 -0.0676491 1.07982e-16)
(0.918718 -0.0653831 -1.69045e-16)
(0.981819 -0.0645671 8.38478e-17)
(0.936571 -0.0636908 -1.17331e-16)
(0.997136 -0.0624658 -3.1636e-17)
(0.950726 -0.0626968 -6.3758e-17)
(1.00964 -0.0613204 -7.66792e-17)
(0.961613 -0.0622244 -1.14516e-18)
(1.01958 -0.0612191 -1.09717e-16)
(0.969538 -0.0620466 5.04011e-17)
(1.02705 -0.0624104 -7.1074e-17)
(0.974756 -0.0618418 2.4333e-17)
(1.03195 -0.0653472 -1.05481e-16)
(0.977651 -0.0609144 1.25621e-16)
(1.03398 -0.0708861 -1.22713e-16)
(0.97933 -0.057074 4.79441e-17)
(1.03257 -0.0820781 1.69332e-18)
(0.983252 -0.0427437 -4.47477e-17)
(1.02709 -0.109606 2.77311e-17)
(0.994302 -0.0328675 -8.33269e-17)
(0.190437 -0.305399 -1.43467e-16)
(0.169946 -0.266457 -4.32296e-17)
(0.397286 -0.247336 -5.5689e-16)
(0.357245 -0.211653 3.22831e-16)
(0.543737 -0.204273 -2.19445e-16)
(0.496748 -0.173308 -6.03758e-17)
(0.651204 -0.171691 -2.296e-16)
(0.602723 -0.145824 4.6934e-17)
(0.732511 -0.146652 -9.10183e-17)
(0.684572 -0.125652 -1.11643e-17)
(0.795616 -0.12723 -1.59742e-16)
(0.748731 -0.110542 4.80262e-17)
(0.845596 -0.11206 1.74809e-17)
(0.799707 -0.0990498 -3.24025e-18)
(0.885787 -0.100137 1.072e-16)
(0.840685 -0.0902345 -4.87126e-17)
(0.918479 -0.0907158 6.25038e-17)
(0.873905 -0.0834539 5.49406e-17)
(0.945313 -0.0832502 -6.43105e-17)
(0.900936 -0.0782467 8.69091e-17)
(0.967479 -0.0773476 -1.50236e-17)
(0.92288 -0.0742689 1.79876e-16)
(0.985839 -0.0727309 -9.11345e-17)
(0.940519 -0.0712564 1.05663e-16)
(1.00099 -0.0692145 4.73615e-17)
(0.954425 -0.0689905 9.96331e-17)
(1.01335 -0.06671 2.7412e-17)
(0.965021 -0.0672581 3.9824e-17)
(1.0232 -0.0652494 1.30235e-16)
(0.972624 -0.065845 -2.45275e-17)
(1.03073 -0.0650137 7.95816e-17)
(0.977498 -0.0645834 1.0188e-17)
(1.03605 -0.0664513 1.23077e-17)
(0.979966 -0.063362 1.1712e-17)
(1.039 -0.0708998 5.50254e-17)
(0.981038 -0.0615316 -4.53409e-17)
(1.03771 -0.0823537 4.38019e-17)
(0.98642 -0.0557285 -3.87092e-17)
(1.02326 -0.101298 5.65249e-17)
(1.00823 -0.0667195 6.51224e-17)
(0.21202 -0.367409 2.41804e-16)
(0.188614 -0.32012 2.28964e-16)
(0.414635 -0.296726 6.24412e-16)
(0.371908 -0.253416 -2.01006e-16)
(0.557961 -0.24426 2.0574e-16)
(0.508573 -0.20648 1.1484e-16)
(0.663006 -0.204291 2.81127e-16)
(0.612465 -0.172656 -8.18592e-17)
(0.742398 -0.173411 5.70511e-17)
(0.692738 -0.147686 -5.33576e-18)
(0.80396 -0.149329 3.0544e-16)
(0.755673 -0.128853 -1.50858e-16)
(0.852674 -0.130405 1.24758e-16)
(0.805673 -0.114409 -1.59336e-16)
(0.891812 -0.115437 -1.0682e-17)
(0.845854 -0.103212 -1.19613e-16)
(0.923628 -0.10353 1.582e-16)
(0.878414 -0.0944914 -1.69588e-16)
(0.949746 -0.094028 1.50308e-16)
(0.904902 -0.0877021 -1.02241e-16)
(0.971356 -0.086458 2.43197e-17)
(0.92642 -0.082452 -1.71861e-16)
(0.989326 -0.0804781 2.69072e-17)
(0.943764 -0.0784443 1.7318e-17)
(1.00426 -0.0758444 -1.75164e-16)
(0.957508 -0.0754302 3.9849e-17)
(1.01659 -0.0724114 -1.49904e-16)
(0.968048 -0.0731613 3.63293e-17)
(1.02659 -0.0701793 -2.26376e-16)
(0.975614 -0.0713473 5.1646e-17)
(1.0345 -0.0693609 -2.25492e-16)
(0.980305 -0.0695876 1.13817e-16)
(1.04046 -0.0705056 -1.94572e-16)
(0.98209 -0.0668798 1.34436e-16)
(1.04448 -0.0753674 -2.28968e-16)
(0.981008 -0.0587627 9.27593e-17)
(1.04563 -0.0929182 -1.23096e-17)
(0.98021 -0.0301072 -7.91511e-17)
(1.03799 -0.138236 1.50416e-17)
(0.997704 -0.0329088 -1.4664e-16)
(0.237532 -0.427894 -2.96418e-16)
(0.210795 -0.372162 -3.97643e-16)
(0.435033 -0.344691 -5.50872e-16)
(0.389259 -0.293625 7.88016e-18)
(0.574528 -0.282796 -2.1519e-16)
(0.522525 -0.238407 3.52765e-17)
(0.676692 -0.235703 -3.38368e-16)
(0.623987 -0.198587 1.68962e-16)
(0.753881 -0.199283 -4.1855e-17)
(0.702495 -0.169141 -7.32362e-17)
(0.813743 -0.170815 -2.80906e-16)
(0.764131 -0.146866 7.58957e-17)
(0.861135 -0.148375 -1.87059e-17)
(0.813164 -0.129696 1.82705e-16)
(0.89924 -0.130551 3.74392e-17)
(0.85261 -0.116284 -3.70573e-18)
(0.930247 -0.116293 -3.08268e-17)
(0.884585 -0.105711 -1.38555e-17)
(0.955718 -0.104817 -5.51685e-17)
(0.910569 -0.0973301 -1.29471e-17)
(0.976788 -0.0955425 -1.59489e-17)
(0.93161 -0.090673 7.42042e-17)
(0.994269 -0.0880405 3.30459e-17)
(0.948469 -0.0853919 -7.8113e-18)
(1.00873 -0.0819986 9.19847e-17)
(0.961702 -0.0812094 -3.77572e-17)
(1.02056 -0.0772183 1.36266e-16)
(0.971683 -0.0778674 -4.11807e-17)
(1.0301 -0.0736332 2.57972e-16)
(0.978598 -0.0751057 -4.05237e-17)
(1.03763 -0.0713418 3.15373e-16)
(0.982434 -0.0726776 -8.0637e-17)
(1.04351 -0.0707642 1.3338e-16)
(0.982965 -0.0701478 -3.72333e-17)
(1.04862 -0.0738439 1.74758e-16)
(0.979568 -0.0646328 -9.69562e-17)
(1.05566 -0.0894662 1.25044e-16)
(0.971536 -0.046776 -8.39668e-17)
(1.06596 -0.119578 2.05161e-16)
(0.972073 -0.0763199 2.07992e-17)
(0.267037 -0.486526 4.59701e-16)
(0.236297 -0.422897 3.28982e-16)
(0.458661 -0.391369 6.22126e-16)
(0.40921 -0.333086 2.81814e-16)
(0.593799 -0.320558 1.70352e-16)
(0.538532 -0.269738 -2.19481e-16)
(0.692581 -0.266472 3.29657e-16)
(0.637101 -0.223926 -2.45089e-16)
(0.7671 -0.22453 1.03913e-16)
(0.713426 -0.189954 -1.48635e-17)
(0.82482 -0.191666 3.38447e-16)
(0.773368 -0.164174 -2.85738e-16)
(0.870471 -0.1657 1.73892e-16)
(0.821056 -0.144236 -3.55287e-16)
(0.907157 -0.145034 7.44354e-17)
(0.859415 -0.128602 -9.88957e-17)
(0.937016 -0.128475 1.27913e-16)
(0.89051 -0.116232 -1.14429e-16)
(0.961585 -0.115125 1.18297e-16)
(0.915802 -0.106399 2.65172e-17)
(0.981986 -0.104314 -4.10736e-17)
(0.936342 -0.098577 1.29518e-17)
(0.999026 -0.0955314 -9.09372e-17)
(0.952899 -0.092372 1.0993e-16)
(1.01327 -0.0883822 -1.32094e-16)
(0.966025 -0.0874648 5.10108e-17)
(1.02512 -0.0825816 -1.79655e-16)
(0.976076 -0.0835607 1.48257e-16)
(1.03497 -0.0779814 -4.60969e-16)
(0.983213 -0.080363 9.34996e-17)
(1.04325 -0.0746118 -3.50787e-16)
(0.987407 -0.0775387 1.28041e-16)
(1.05056 -0.0728046 -1.319e-16)
(0.988285 -0.0743886 4.85442e-17)
(1.05807 -0.0742537 -1.68491e-16)
(0.984168 -0.0672196 9.84014e-17)
(1.06914 -0.088557 -2.87001e-17)
(0.970426 -0.0426994 -7.45249e-17)
(1.08575 -0.128168 4.12354e-17)
(0.964982 -0.0534203 -3.41893e-16)
(0.300231 -0.543236 -5.24258e-16)
(0.265105 -0.471668 -4.09095e-16)
(0.485184 -0.436316 -6.35702e-16)
(0.431722 -0.370765 -7.02578e-16)
(0.615327 -0.356657 -2.80826e-16)
(0.556611 -0.299645 3.86449e-16)
(0.710334 -0.295876 -3.07523e-16)
(0.652 -0.248197 3.03347e-16)
(0.781949 -0.24872 -3.61488e-17)
(0.725996 -0.210007 -1.32331e-16)
(0.837407 -0.211726 -1.64077e-16)
(0.784198 -0.180969 1.87976e-16)
(0.88128 -0.182444 -7.20409e-17)
(0.830553 -0.158436 2.01106e-16)
(0.916555 -0.15908 1.88374e-16)
(0.867855 -0.140681 -1.79831e-16)
(0.945276 -0.14029 2.055e-16)
(0.898071 -0.126535 -1.79117e-16)
(0.968899 -0.125059 1.71481e-16)
(0.922589 -0.115187 -1.24331e-16)
(0.988472 -0.112622 3.84986e-17)
(0.942409 -0.10606 -4.59081e-18)
(1.00474 -0.102402 -1.71796e-17)
(0.958277 -0.0987351 -3.54886e-17)
(1.01824 -0.0939596 5.10019e-17)
(0.970739 -0.0928927 5.75873e-17)
(1.02935 -0.0869743 -3.40638e-17)
(0.980141 -0.088275 2.80139e-16)
(1.03847 -0.0812443 6.70908e-17)
(0.986602 -0.0846778 1.87163e-16)
(1.04603 -0.0766977 1.42228e-16)
(0.989986 -0.0820117 -7.72192e-17)
(1.05266 -0.0734513 1.57332e-16)
(0.989757 -0.0801858 -1.33848e-16)
(1.05976 -0.0726961 1.82113e-16)
(0.983913 -0.0769474 -1.26088e-16)
(1.07217 -0.0821039 1.53052e-16)
(0.965533 -0.0621479 -2.06686e-16)
(1.09768 -0.108686 3.68438e-16)
(0.944132 -0.0864599 -4.56935e-17)
(0.337142 -0.597487 8.37627e-16)
(0.297012 -0.518628 5.12574e-16)
(0.514686 -0.479507 7.5983e-16)
(0.456627 -0.407274 1.03364e-15)
(0.639315 -0.391578 4.77834e-16)
(0.576538 -0.328625 -3.43717e-16)
(0.730047 -0.324321 1.99918e-16)
(0.668282 -0.271637 -3.28959e-16)
(0.798291 -0.272062 -9.26072e-17)
(0.739529 -0.229269 3.60989e-16)
(0.851057 -0.231019 1.1755e-16)
(0.795603 -0.197009 -5.89581e-17)
(0.892763 -0.198506 1.64015e-16)
(0.840275 -0.17194 -2.63824e-16)
(0.926296 -0.172554 -4.21053e-17)
(0.876232 -0.152159 1.03701e-16)
(0.95363 -0.151675 -1.79786e-16)
(0.905376 -0.13638 8.32967e-17)
(0.976176 -0.13474 -1.43532e-16)
(0.929069 -0.123708 1.62702e-16)
(0.994946 -0.120885 -2.41145e-17)
(0.948301 -0.113502 9.1132e-17)
(1.01065 -0.109442 -3.24537e-17)
(0.963802 -0.105287 1.35355e-16)
(1.0238 -0.0998846 -2.44118e-16)
(0.976098 -0.0987003 2.62497e-16)
(1.03477 -0.0918003 -2.45098e-16)
(0.985507 -0.0934578 2.47131e-17)
(1.04396 -0.0848812 -3.78478e-16)
(0.992129 -0.0893478 1.72602e-16)
(1.05185 -0.0789265 -3.43252e-16)
(0.995817 -0.0862596 2.78378e-16)
(1.0591 -0.073862 -4.00915e-16)
(0.995996 -0.0841156 3.97501e-16)
(1.06695 -0.0704017 -4.09418e-16)
(0.990387 -0.0812301 2.38903e-16)
(1.07984 -0.0747539 -1.86088e-16)
(0.97047 -0.0691286 2.20223e-17)
(1.1066 -0.0960828 -2.49689e-17)
(0.942413 -0.0855667 -4.04963e-16)
(0.377466 -0.649448 -1.24566e-15)
(0.33196 -0.563273 -7.99207e-16)
(0.546883 -0.520644 -7.46766e-16)
(0.483919 -0.441753 -1.20224e-15)
(0.665434 -0.424601 -5.85008e-16)
(0.598437 -0.355971 1.33506e-16)
(0.751556 -0.351193 -2.34073e-16)
(0.686294 -0.293801 4.30164e-16)
(0.816236 -0.294138 1.40999e-16)
(0.754676 -0.247542 -4.0323e-16)
(0.866211 -0.24929 -2.35512e-16)
(0.808581 -0.212262 -1.98956e-16)
(0.905707 -0.213717 -7.59851e-17)
(0.85156 -0.184778 -3.08155e-17)
(0.937464 -0.185268 1.2517e-16)
(0.886145 -0.163019 -2.16553e-16)
(0.963342 -0.162319 2.97426e-16)
(0.914133 -0.145593 -2.08632e-16)
(0.984654 -0.143637 3.83549e-16)
(0.936814 -0.131541 -4.19741e-16)
(1.00234 -0.128286 1.49278e-16)
(0.955139 -0.120186 -2.02479e-16)
(1.01705 -0.11555 3.79169e-17)
(0.969826 -0.111042 -3.88498e-17)
(1.02925 -0.104873 -6.94657e-17)
(0.981402 -0.103757 1.31773e-16)
(1.03932 -0.0958118 -1.71409e-16)
(0.990189 -0.0980906 3.71367e-16)
(1.04762 -0.0880007 -8.05942e-17)
(0.996288 -0.0939301 6.84132e-18)
(1.05461 -0.0811243 1.33511e-16)
(0.999555 -0.0913673 -4.26686e-17)
(1.06089 -0.0748448 1.13953e-16)
(0.999441 -0.0907369 -8.1543e-17)
(1.06761 -0.069077 1.56844e-16)
(0.993813 -0.0914894 -8.51915e-17)
(1.07891 -0.066988 2.46252e-16)
(0.973926 -0.088141 -2.04271e-16)
(1.10531 -0.0739929 3.71873e-16)
(0.939494 -0.108713 1.31441e-18)
(0.421148 -0.698398 1.1809e-15)
(0.369736 -0.605678 8.3774e-16)
(0.581764 -0.559636 7.18478e-16)
(0.513365 -0.474712 1.11102e-15)
(0.693744 -0.456112 4.36878e-16)
(0.621963 -0.382131 3.71723e-16)
(0.774778 -0.37686 7.81738e-17)
(0.705489 -0.314965 -1.27983e-16)
(0.835456 -0.315213 -2.54167e-16)
(0.770611 -0.26495 4.79933e-16)
(0.88225 -0.266735 1.12992e-16)
(0.822 -0.22678 5.45407e-16)
(0.919205 -0.228278 4.04629e-17)
(0.862999 -0.197029 2.39246e-16)
(0.948935 -0.197524 4.78111e-17)
(0.89601 -0.173463 2.97416e-16)
(0.973208 -0.172712 -3.2255e-16)
(0.922754 -0.154576 2.79843e-16)
(0.993262 -0.152495 -3.43125e-16)
(0.944475 -0.139324 4.97276e-16)
(1.00997 -0.135838 -1.88179e-16)
(0.962089 -0.126964 1.90358e-16)
(1.02393 -0.121944 -3.37897e-17)
(0.976278 -0.116957 2.08068e-16)
(1.03556 -0.110185 -2.17902e-16)
(0.98753 -0.108917 1.60359e-16)
(1.04518 -0.100041 -1.73895e-16)
(0.996142 -0.102595 -3.87282e-17)
(1.05312 -0.0910618 -1.91762e-16)
(1.0022 -0.097895 1.57527e-16)
(1.05976 -0.0828198 -2.38142e-16)
(1.00555 -0.0949328 5.00399e-17)
(1.06553 -0.0748097 -1.22774e-16)
(1.00569 -0.0941612 2.42981e-16)
(1.07109 -0.0664892 -4.26619e-16)
(1.00077 -0.0958896 2.4103e-16)
(1.07943 -0.0589841 -2.58408e-16)
(0.98304 -0.0978516 9.13724e-17)
(1.10063 -0.0563888 -2.35397e-16)
(0.94869 -0.117408 -2.67336e-16)
(0.467925 -0.744715 -6.92398e-16)
(0.410228 -0.64541 -6.24712e-16)
(0.61908 -0.596238 -7.41961e-16)
(0.54497 -0.505375 -8.21404e-16)
(0.723999 -0.485472 -6.66021e-16)
(0.647296 -0.406422 -5.58901e-16)
(0.79966 -0.400723 -1.43911e-16)
(0.726289 -0.334616 5.79247e-17)
(0.85617 -0.33478 -1.06015e-16)
(0.788045 -0.281104 -1.00271e-16)
(0.899684 -0.282889 -2.46707e-16)
(0.83686 -0.240211 -6.56437e-16)
(0.934026 -0.241681 -1.82171e-16)
(0.875825 -0.208278 -5.43005e-16)
(0.961641 -0.208676 -2.42586e-17)
(0.907175 -0.182929 -6.38628e-16)
(0.984165 -0.181997 4.84109e-16)
(0.932522 -0.162571 -6.32683e-16)
(1.00273 -0.16021 5.05875e-16)
(0.953044 -0.14611 -7.49549e-16)
(1.01814 -0.142227 3.27967e-16)
(0.969624 -0.132774 -2.98283e-16)
(1.03093 -0.127216 6.03349e-17)
(0.982928 -0.12201 -6.34156e-17)
(1.04149 -0.114521 -1.5843e-17)
(0.993441 -0.113437 2.75505e-16)
(1.0501 -0.10359 -1.40671e-16)
(1.00147 -0.106826 2.48938e-16)
(1.05704 -0.0939077 1.25954e-16)
(1.00712 -0.102138 -5.55926e-17)
(1.06261 -0.0849252 2.40642e-16)
(1.01031 -0.0995794 -6.08699e-17)
(1.06713 -0.0758868 1.28827e-16)
(1.01067 -0.0997662 -2.00073e-16)
(1.07097 -0.0655298 4.88038e-16)
(1.00684 -0.103733 -4.28037e-16)
(1.07595 -0.0522701 4.66424e-16)
(0.992547 -0.11196 -3.60641e-16)
(1.09105 -0.0371373 4.63928e-16)
(0.960285 -0.133071 -9.14644e-19)
(0.51763 -0.78754 5.90946e-16)
(0.453237 -0.682557 5.99969e-16)
(0.65876 -0.630388 6.64242e-16)
(0.578471 -0.534242 7.38586e-16)
(0.756167 -0.513062 8.11529e-16)
(0.674041 -0.429333 5.84784e-16)
(0.826025 -0.423199 2.09844e-16)
(0.748098 -0.353159 3.04364e-16)
(0.877982 -0.353251 1.27333e-16)
(0.806148 -0.296371 1.54432e-16)
(0.917894 -0.298205 2.52299e-16)
(0.85211 -0.252963 6.68594e-16)
(0.949372 -0.254495 4.65621e-16)
(0.888836 -0.219059 6.93781e-16)
(0.974708 -0.219489 4.88606e-17)
(0.918413 -0.192135 8.06261e-16)
(0.995418 -0.191182 -5.76214e-16)
(0.942354 -0.170492 8.41105e-16)
(1.01254 -0.168035 -3.97092e-16)
(0.96177 -0.152957 6.28455e-16)
(1.02677 -0.148874 -2.28165e-16)
(0.977487 -0.138696 2.31382e-16)
(1.03859 -0.132801 -1.40356e-16)
(0.99012 -0.127114 7.44326e-17)
(1.04832 -0.119114 1.17373e-17)
(1.00011 -0.117805 -3.55884e-16)
(1.05619 -0.107213 2.35366e-16)
(1.00775 -0.110545 -3.75003e-16)
(1.06238 -0.0965315 3.99053e-17)
(1.01315 -0.105309 -2.50816e-16)
(1.06708 -0.0864567 2.6928e-17)
(1.01627 -0.102333 -2.34166e-16)
(1.07035 -0.0761342 6.90961e-17)
(1.01688 -0.102321 2.70951e-17)
(1.07212 -0.0639978 -2.43822e-16)
(1.01423 -0.106937 3.13267e-16)
(1.07284 -0.0468462 -3.23737e-16)
(1.00437 -0.119266 2.22396e-16)
(1.07973 -0.0239735 -1.8642e-16)
(0.978341 -0.140794 -2.44496e-16)
(0.570068 -0.827407 -1.06295e-15)
(0.49858 -0.716676 -3.97863e-16)
(0.700549 -0.661809 -8.35977e-16)
(0.61384 -0.560541 -5.82973e-16)
(0.790028 -0.538239 -8.38006e-16)
(0.702362 -0.450133 -5.11635e-16)
(0.853837 -0.443629 -4.97302e-16)
(0.771304 -0.369943 -2.114e-16)
(0.901087 -0.369966 -7.40484e-16)
(0.825535 -0.31012 1.68206e-16)
(0.937282 -0.311959 -5.48093e-16)
(0.868556 -0.264342 -4.62997e-16)
(0.965786 -0.265858 -8.56411e-16)
(0.902947 -0.228541 -7.11204e-16)
(0.988706 -0.228894 -1.99758e-16)
(0.930616 -0.200072 -5.89297e-16)
(1.00742 -0.198961 5.40907e-16)
(0.952969 -0.177169 -8.71035e-16)
(1.02284 -0.174456 6.22865e-16)
(0.971051 -0.158613 -7.96543e-16)
(1.03562 -0.154162 4.69854e-16)
(0.985648 -0.14354 -4.09978e-16)
(1.04615 -0.137154 3.02639e-16)
(0.997348 -0.131336 -1.51531e-16)
(1.05473 -0.122699 1.62379e-16)
(1.00658 -0.121583 1.01478e-16)
(1.06151 -0.110168 1.00621e-16)
(1.01362 -0.114052 4.69033e-17)
(1.06662 -0.0989346 2.97403e-16)
(1.01863 -0.108722 -3.33835e-17)
(1.07014 -0.0882942 3.037e-16)
(1.02165 -0.105826 -1.54198e-16)
(1.072 -0.0772268 3.63647e-16)
(1.02261 -0.106063 -2.86959e-16)
(1.07176 -0.0637328 3.73904e-16)
(1.02141 -0.111413 -3.65347e-16)
(1.06859 -0.0429907 3.20291e-16)
(1.01629 -0.126694 -3.26774e-16)
(1.06745 -0.0125249 2.29573e-16)
(0.997313 -0.148338 -1.30654e-16)
(0.624952 -0.863388 1.24785e-15)
(0.546102 -0.747947 4.30637e-16)
(0.744368 -0.690552 7.11884e-16)
(0.650843 -0.584839 7.83747e-16)
(0.825533 -0.561455 6.51738e-16)
(0.731894 -0.469414 7.54918e-16)
(0.882929 -0.462544 3.6696e-16)
(0.795387 -0.385554 4.30572e-16)
(0.925164 -0.385523 6.39601e-16)
(0.845535 -0.322981 2.63882e-17)
(0.957403 -0.324876 3.55647e-16)
(0.885418 -0.275095 5.96009e-16)
(0.982767 -0.276682 8.27019e-16)
(0.917351 -0.237639 8.26074e-16)
(1.00318 -0.238036 2.5632e-16)
(0.94307 -0.20784 3.70713e-16)
(1.01988 -0.206724 -5.18137e-16)
(0.963863 -0.183837 7.30396e-16)
(1.03367 -0.181051 -5.4511e-16)
(0.980689 -0.164344 4.1051e-16)
(1.04507 -0.159733 -7.96916e-17)
(0.994263 -0.148447 7.87885e-17)
(1.05443 -0.141801 4.60502e-17)
(1.00512 -0.135498 -1.69768e-16)
(1.06196 -0.126493 1.17114e-16)
(1.01364 -0.125062 -4.3662e-16)
(1.06777 -0.113156 2.2476e-16)
(1.02011 -0.116908 -4.57945e-16)
(1.07189 -0.101151 5.70167e-17)
(1.0247 -0.111019 -3.1067e-16)
(1.07428 -0.0897559 7.32917e-17)
(1.02751 -0.107632 -2.44212e-16)
(1.07467 -0.0779377 5.737e-17)
(1.02868 -0.107455 -3.57079e-16)
(1.0723 -0.0636151 1.89906e-16)
(1.02876 -0.11271 -7.37265e-17)
(1.06521 -0.0412698 -1.00632e-16)
(1.02843 -0.129385 2.86713e-16)
(1.05617 -0.00763365 -2.19809e-16)
(1.01836 -0.150557 2.79113e-16)
(0.68216 -0.896109 -1.30607e-15)
(0.595516 -0.775851 -1.50594e-16)
(0.789907 -0.716243 -1.08187e-15)
(0.689361 -0.606307 -5.08484e-16)
(0.862408 -0.582006 -1.03794e-15)
(0.762701 -0.486355 -4.04238e-16)
(0.91318 -0.479185 -4.45187e-16)
(0.820579 -0.399179 -1.21356e-16)
(0.950244 -0.399096 -9.67953e-16)
(0.866518 -0.334095 3.10422e-16)
(0.97839 -0.336 -5.09887e-16)
(0.903147 -0.284245 -5.09529e-16)
(1.00048 -0.285823 -7.16294e-16)
(0.932492 -0.245219 -9.68865e-16)
(1.01823 -0.245549 -2.63236e-16)
(0.956109 -0.214149 -3.67694e-16)
(1.03273 -0.212887 4.9606e-16)
(0.975172 -0.189115 -6.48528e-16)
(1.04466 -0.186091 4.5341e-16)
(0.990569 -0.16879 -4.41665e-16)
(1.05449 -0.163845 3.25942e-16)
(1.00296 -0.152231 -3.56478e-16)
(1.0625 -0.145151 1.81038e-16)
(1.01284 -0.138765 -1.27718e-16)
(1.06882 -0.129223 3.01447e-16)
(1.02057 -0.127936 -7.17918e-18)
(1.07351 -0.115384 2.59393e-16)
(1.02639 -0.119487 4.62044e-17)
(1.07652 -0.102957 4.46482e-16)
(1.03052 -0.113367 -2.02103e-16)
(1.07772 -0.0911787 5.51048e-16)
(1.03314 -0.109754 -3.20819e-16)
(1.07672 -0.078955 5.37963e-16)
(1.03455 -0.109259 -1.8386e-16)
(1.07251 -0.0640905 4.68661e-16)
(1.03581 -0.114053 -6.356e-16)
(1.06221 -0.0406544 6.20483e-16)
(1.03957 -0.130477 -6.44947e-16)
(1.04632 -0.00508312 3.616e-16)
(1.03782 -0.150297 -3.39782e-16)
(0.741295 -0.924645 1.33586e-15)
(0.646753 -0.800722 4.91424e-16)
(0.83714 -0.739095 6.71864e-16)
(0.729253 -0.625628 9.01738e-16)
(0.900669 -0.600457 1.04824e-15)
(0.794539 -0.50168 4.69578e-16)
(0.944535 -0.494216 1.62322e-16)
(0.846553 -0.411583 2.46317e-16)
(0.976212 -0.411462 7.33282e-16)
(0.888101 -0.344312 -1.91508e-16)
(1.00011 -0.346272 4.47385e-16)
(0.921363 -0.292786 5.1129e-16)
(1.01883 -0.294431 6.28903e-16)
(0.948069 -0.252439 6.79922e-16)
(1.03388 -0.252813 4.6417e-16)
(0.969583 -0.220297 2.28119e-16)
(1.04619 -0.219038 -2.67219e-16)
(0.986944 -0.194365 3.25308e-16)
(1.05631 -0.191292 -1.10265e-16)
(1.00094 -0.173261 1.03384e-16)
(1.0646 -0.168208 2.32048e-17)
(1.01217 -0.156004 -8.55899e-17)
(1.07125 -0.148757 2.47018e-16)
(1.02105 -0.141894 -4.54544e-16)
(1.07637 -0.13214 2.01934e-16)
(1.02792 -0.130459 -5.04544e-16)
(1.07995 -0.11767 9.34159e-17)
(1.03302 -0.121432 -4.07765e-16)
(1.08188 -0.104683 -1.51267e-17)
(1.03658 -0.114752 -2.6657e-16)
(1.08193 -0.0924417 -2.13994e-16)
(1.03885 -0.110578 -1.59855e-17)
(1.0796 -0.0799112 -2.26148e-16)
(1.0403 -0.109473 -1.99562e-16)
(1.07372 -0.0650304 -4.04524e-17)
(1.04247 -0.1135 2.94091e-16)
(1.06084 -0.0421346 -2.54159e-16)
(1.04967 -0.128733 4.29263e-16)
(1.03968 -0.00801643 -3.68932e-16)
(1.05624 -0.146956 4.53225e-16)
(0.802296 -0.949644 -1.3444e-15)
(0.699388 -0.821923 -8.0403e-16)
(0.885642 -0.758607 -7.97534e-16)
(0.770251 -0.64189 -4.78381e-16)
(0.939916 -0.616025 -1.48214e-15)
(0.827292 -0.514468 -2.55026e-16)
(0.976694 -0.506783 -4.11332e-16)
(0.873285 -0.421822 -6.89853e-17)
(1.00283 -0.421667 -6.70278e-16)
(0.910309 -0.352616 1.38262e-16)
(1.02234 -0.354587 -2.07025e-16)
(0.940067 -0.299576 -7.26317e-16)
(1.03753 -0.30121 -3.14551e-16)
(0.963993 -0.25802 -6.04719e-16)
(1.04972 -0.258329 -1.93006e-16)
(0.983262 -0.2249 -3.35666e-16)
(1.05968 -0.223505 5.19694e-16)
(0.998797 -0.198175 -5.35412e-16)
(1.06785 -0.194885 4.92664e-16)
(1.0113 -0.176428 -5.95262e-16)
(1.0745 -0.171078 3.88257e-16)
(1.0213 -0.15865 -2.39925e-16)
(1.07975 -0.151033 1.27084e-16)
(1.02918 -0.144119 5.91978e-17)
(1.08364 -0.133926 2.75306e-16)
(1.0352 -0.132339 1.44637e-16)
(1.0861 -0.119065 1.93494e-16)
(1.0396 -0.123008 1.51085e-16)
(1.08696 -0.105767 2.05561e-16)
(1.04261 -0.116016 1.75753e-16)
(1.0859 -0.0932947 3.1616e-16)
(1.04453 -0.111448 -7.70879e-17)
(1.08239 -0.0806434 3.3263e-16)
(1.04593 -0.109734 1.18643e-16)
(1.07516 -0.065876 2.55141e-16)
(1.04862 -0.112629 -5.55572e-16)
(1.06043 -0.0438508 6.08212e-16)
(1.05793 -0.125384 -5.7894e-16)
(1.03556 -0.0121722 4.2868e-16)
(1.07131 -0.141462 -5.14466e-16)
(0.864683 -0.970256 1.54598e-15)
(0.75348 -0.839972 1.26683e-15)
(0.935501 -0.77518 6.91264e-16)
(0.81237 -0.655903 5.00533e-16)
(0.980305 -0.629395 1.23551e-15)
(0.860913 -0.525567 2.14188e-16)
(1.0098 -0.51766 4.65129e-16)
(0.900727 -0.43079 2.0278e-16)
(1.03027 -0.430607 3.92575e-16)
(0.933129 -0.35999 -7.35021e-17)
(1.04531 -0.362003 1.19241e-16)
(0.959343 -0.305724 5.56907e-16)
(1.05695 -0.307411 3.79535e-16)
(0.980486 -0.263195 4.4421e-16)
(1.06629 -0.263544 3.75643e-17)
(0.997526 -0.22928 1.9098e-16)
(1.0739 -0.227897 -4.21702e-16)
(1.01124 -0.201878 2.62912e-16)
(1.08011 -0.198569 -1.02605e-16)
(1.02223 -0.179533 1.76566e-16)
(1.08508 -0.174135 8.29273e-18)
(1.03095 -0.161211 -7.17449e-17)
(1.08887 -0.153521 1.67234e-16)
(1.03771 -0.146163 -2.99366e-16)
(1.09146 -0.135897 1.88511e-17)
(1.04276 -0.133877 -4.5597e-16)
(1.09275 -0.120563 1.5582e-16)
(1.04632 -0.124037 -4.46478e-16)
(1.09252 -0.106866 1.14805e-16)
(1.04863 -0.116515 -4.57098e-16)
(1.09042 -0.0941159 -1.08578e-16)
(1.05003 -0.111377 -1.0596e-16)
(1.08588 -0.0814112 -2.84826e-16)
(1.0512 -0.108995 -2.02547e-16)
(1.07765 -0.0670878 -3.04311e-16)
(1.05411 -0.110823 2.91667e-16)
(1.06207 -0.0469273 -4.1196e-16)
(1.06456 -0.120914 3.59239e-16)
(1.03566 -0.0196147 -3.54018e-16)
(1.08357 -0.135197 6.3641e-16)
(0.928434 -0.987093 -1.64362e-15)
(0.808429 -0.854102 -1.2303e-15)
(0.98613 -0.788178 -9.27353e-16)
(0.855139 -0.666678 -1.22616e-16)
(1.02125 -0.639712 -1.11104e-15)
(0.895045 -0.533988 7.05653e-17)
(1.04331 -0.525944 -6.84431e-16)
(0.928538 -0.43748 -1.54322e-16)
(1.05796 -0.437281 -1.96461e-16)
(0.956184 -0.365361 1.39009e-16)
(1.06839 -0.367385 -2.87162e-17)
(0.978716 -0.310063 -3.64438e-16)
(1.07634 -0.311736 -1.5713e-16)
(0.996946 -0.266708 -6.97118e-16)
(1.08268 -0.266991 1.86495e-16)
(1.01165 -0.23212 -2.26361e-16)
(1.08785 -0.230609 4.74151e-16)
(1.02347 -0.204166 -4.69427e-16)
(1.09205 -0.200664 2.90918e-16)
(1.03293 -0.181367 -3.36437e-16)
(1.09534 -0.175711 1.56808e-16)
(1.04039 -0.162665 -6.06184e-17)
(1.09771 -0.154663 -1.11939e-16)
(1.04612 -0.147299 2.76263e-17)
(1.09908 -0.136673 3.34964e-16)
(1.05031 -0.134737 5.41727e-17)
(1.09928 -0.121042 1.29999e-16)
(1.05314 -0.124631 1.79526e-16)
(1.09805 -0.107117 1.02404e-16)
(1.05483 -0.116811 1.87742e-16)
(1.095 -0.0942296 1.73082e-16)
(1.05573 -0.111276 2.17108e-16)
(1.08955 -0.0815451 1.89637e-16)
(1.05653 -0.10828 3.05038e-16)
(1.08051 -0.0676305 3.56792e-16)
(1.05918 -0.108877 -2.22503e-16)
(1.06454 -0.0492479 3.95767e-16)
(1.06937 -0.115741 -3.01063e-16)
(1.03796 -0.0263211 2.49576e-16)
(1.09218 -0.128316 -5.12568e-16)
(0.993019 -0.999434 1.58461e-15)
(0.864468 -0.865017 1.1284e-15)
(1.03778 -0.79818 7.6517e-16)
(0.89878 -0.675136 2.59911e-16)
(1.06309 -0.64776 6.33299e-16)
(0.929888 -0.540656 2.39547e-17)
(1.07763 -0.532462 5.92e-16)
(0.956989 -0.442837 8.70015e-17)
(1.08641 -0.442613 6.03987e-17)
(0.979859 -0.369736 -1.38817e-16)
(1.09223 -0.371781 2.22774e-16)
(0.998727 -0.313679 3.50967e-17)
(1.09649 -0.315384 -1.96013e-17)
(1.01407 -0.269715 8.25389e-16)
(1.09986 -0.270028 -4.11812e-16)
(1.02645 -0.234625 2.58398e-16)
(1.10258 -0.233135 -2.0004e-16)
(1.03637 -0.206237 1.08215e-16)
(1.10471 -0.202749 1.53931e-16)
(1.04422 -0.183047 -6.47822e-17)
(1.10623 -0.177401 7.50439e-17)
(1.05032 -0.163976 4.28143e-17)
(1.10706 -0.155987 1.1341e-16)
(1.05486 -0.148244 -2.5413e-16)
(1.10708 -0.137653 1.39515e-16)
(1.05801 -0.135298 -3.61153e-16)
(1.10608 -0.121693 3.30267e-17)
(1.05992 -0.124778 -3.30648e-17)
(1.10379 -0.107476 -3.75324e-16)
(1.0608 -0.116503 2.79635e-17)
(1.09983 -0.0943815 -2.28182e-16)
(1.06103 -0.110471 -1.50753e-16)
(1.09365 -0.081683 -1.58975e-16)
(1.06131 -0.106914 -3.65757e-16)
(1.08423 -0.0682454 -2.50717e-16)
(1.06346 -0.1066 1.9491e-16)
(1.06887 -0.0519404 -3.936e-16)
(1.07253 -0.110847 4.79868e-16)
(1.04421 -0.0338217 -5.5511e-16)
(1.09746 -0.122748 9.38989e-16)