/*--------------------------------*- C++ -*----------------------------------*\
| =========                 |                                                 |
| \\      /  F ield         | foam-extend: Open Source CFD                    |
|  \\    /   O peration     | Version:  3.0                                   |
|   \\  /    A nd           | Web:         http://www.extend-project.de       |
|    \\/     M anipulation  |                                                 |
\*---------------------------------------------------------------------------*/
FoamFile
{
    version     2.0;
    format      ascii;
    class       volSymmTensorField;
    location    "16";
    object      sigma;
}
// * * * * * * * * * * * * * * * * * * * * * * * * * * * * * * * * * * * * * //

dimensions      [0 0 0 0 0 0 0];

internalField   nonuniform List<symmTensor> 
672
(
(-0.1688513999 -0.01021733416 -1.243061505e-19 0.1691021521 -2.534202721e-20 -0.0002507522437)
(-0.1553775302 -0.01188101979 -2.870442735e-19 0.1560053372 -1.515233278e-20 -0.0006278069224)
(-0.1364611923 -0.01174109374 -1.898534772e-19 0.1373994551 -5.513426398e-21 -0.0009382627683)
(-0.1169552497 -0.01090444287 -7.968710581e-20 0.1181465053 -2.088092741e-22 -0.001191255666)
(-0.098600037 -0.009830234185 -3.113127735e-19 0.09998916434 -3.329087951e-20 -0.001389127342)
(-0.08192466701 -0.008719952974 -3.021104529e-19 0.08345162002 -1.473283202e-19 -0.001526953013)
(-0.06707109005 -0.007661975019 -4.67831978e-19 0.06866831257 -1.546899284e-19 -0.001597222521)
(-0.0540716514 -0.006705805735 -5.765256879e-19 0.05565821843 -4.163241442e-19 -0.001586567033)
(-0.04291724012 -0.005869882371 -5.986285274e-19 0.04439699865 -2.765812134e-19 -0.001479758524)
(-0.03372738352 -0.005183564016 -3.341092637e-19 0.03498280863 -1.324933352e-20 -0.00125542511)
(-0.02659898636 -0.004658257703 -1.012811102e-19 0.02748901282 1.240641671e-19 -0.0008900264562)
(-0.0218784632 -0.004321094931 -3.42985241e-20 0.02223178204 -2.062206105e-19 -0.0003533188342)
(-0.1659844188 -0.03068928309 -1.027750031e-19 0.1662279926 7.443849689e-21 -0.0002435737099)
(-0.1505962117 -0.03522859687 -2.72712242e-19 0.1512061355 6.231967506e-20 -0.0006099238801)
(-0.1311297552 -0.03464712499 -2.213304665e-19 0.1320413948 1.476259555e-19 -0.0009116396043)
(-0.1116516221 -0.03210922469 -4.799967367e-20 0.1128090947 -5.126645897e-20 -0.001157472661)
(-0.09356635373 -0.02892490458 -3.005305603e-19 0.0949161053 2.303440175e-20 -0.001349751578)
(-0.07724683422 -0.02566709439 -2.971985163e-19 0.07873048838 -2.468163243e-19 -0.001483654156)
(-0.06276301246 -0.02258656347 -5.584708556e-19 0.06431489255 -3.745306721e-19 -0.001551880091)
(-0.05010476999 -0.0198237722 -9.003786716e-19 0.05164620994 -5.704114298e-19 -0.001541439946)
(-0.03924601964 -0.01743118201 -4.936798925e-19 0.04068356968 -7.403931861e-20 -0.001437550038)
(-0.030284297 -0.01549319987 -1.042040388e-19 0.03150377269 -1.096412469e-19 -0.00121947569)
(-0.02330970841 -0.01404236059 -3.358806693e-19 0.0241741172 -1.382504545e-19 -0.0008644087845)
(-0.01865535951 -0.01316252726 -1.580037102e-19 0.01899842643 -1.683189031e-19 -0.0003430669208)
(-0.1603486596 -0.05040097158 -3.136829539e-20 0.1605821388 -5.127777782e-20 -0.0002334792374)
(-0.1413958824 -0.05673725694 -2.096707601e-19 0.1419805005 1.375912223e-19 -0.0005846180997)
(-0.1209250521 -0.05533443253 -2.770802457e-19 0.1217988773 2.598015383e-19 -0.0008738251207)
(-0.1015243704 -0.05101944972 -2.233014538e-19 0.1026338488 7.755488611e-20 -0.001109478313)
(-0.08396712612 -0.04578272612 -3.493071777e-19 0.08526094598 5.58951127e-20 -0.001293819862)
(-0.06833300811 -0.04048824915 -6.96738763e-19 0.0697551994 -1.657120589e-19 -0.001422191285)
(-0.05455690543 -0.0355116417 -1.014774909e-18 0.05604448339 -4.784887787e-20 -0.001487577954)
(-0.04254912348 -0.03106198507 -9.45199964e-19 0.04402664333 -7.54655121e-20 -0.001477519842)
(-0.03225177021 -0.02721675135 -3.319687334e-19 0.03362962389 1.154185724e-20 -0.001377853678)
(-0.02372105356 -0.02410434751 -5.075890346e-19 0.02488978216 -2.589223663e-19 -0.0011687286)
(-0.01703418911 -0.02177537908 -3.666032496e-19 0.01786251872 -2.46053713e-19 -0.0008283296187)
(-0.01249839179 -0.0203650489 -6.448770945e-20 0.01282706301 -1.799903722e-19 -0.0003286712133)
(-0.1521768392 -0.06890063322 5.411362092e-20 0.1523972971 -5.273930822e-20 -0.0002204578618)
(-0.1284950972 -0.07538115803 -2.448641379e-20 0.1290471383 1.659227073e-19 -0.0005520410837)
(-0.1067454301 -0.07257846201 -1.90094936e-19 0.1075706249 2.661043774e-19 -0.0008251947982)
(-0.08751738458 -0.06637442985 -2.147217112e-19 0.08856517909 1.855973087e-19 -0.001047794511)
(-0.07073204225 -0.05917799732 -2.614100435e-19 0.07195400852 -3.671098278e-20 -0.001221966272)
(-0.05607422578 -0.05202050359 -4.754627429e-19 0.05741750104 1.070545752e-19 -0.001343275255)
(-0.04329726492 -0.045344712 -6.419895857e-19 0.04470233911 3.638115288e-19 -0.001405074191)
(-0.03220463006 -0.03939395154 -1.304465888e-18 0.03360020716 3.399346849e-19 -0.001395577108)
(-0.02269579178 -0.03425685947 -7.181715387e-19 0.02399719361 1.214561739e-19 -0.001301401826)
(-0.0147710868 -0.03008883135 -8.931248649e-19 0.01587489331 6.146401065e-19 -0.001103806511)
(-0.00849007352 -0.02695382548 -7.315796709e-19 0.009272304066 2.266283079e-19 -0.0007822305455)
(-0.004123791887 -0.02502972145 -1.864437735e-19 0.004434106247 2.784519393e-19 -0.00031031436)
(-0.1417918544 -0.08581654449 -1.785517492e-21 0.1419965531 1.397347194e-19 -0.0002046986624)
(-0.1128745146 -0.09041170401 6.682716173e-20 0.1133871298 2.280954695e-19 -0.000512615239)
(-0.08981441549 -0.08550601944 -1.78894955e-19 0.09058075829 3.1938832e-19 -0.0007663428073)
(-0.07091530903 -0.07728495935 -3.152933318e-19 0.07188846472 1.579518376e-19 -0.0009731556934)
(-0.05512592714 -0.06825231615 -4.368114435e-19 0.05626096004 1.650420175e-22 -0.001135032902)
(-0.04168243292 -0.05945407362 -3.524250475e-19 0.04293025069 2.431762941e-19 -0.001247817763)
(-0.03013253108 -0.05132890846 -1.988228547e-19 0.03143784177 3.166841854e-19 -0.001305310694)
(-0.02015902208 -0.04411202978 -1.021857889e-18 0.02145556093 4.673827747e-19 -0.001296538858)
(-0.01161333122 -0.0378861398 -4.35380615e-19 0.01282238879 4.766066604e-19 -0.001209057566)
(-0.004431962816 -0.03281255699 3.683777249e-19 0.00545741001 4.23902373e-19 -0.001025447194)
(0.001346151919 -0.02896264101 -7.366130934e-19 -0.0006195103483 4.573758112e-19 -0.0007266415708)
(0.005493340806 -0.0265460514 -2.136340536e-19 -0.005205131962 2.261910561e-19 -0.0002882088436)
(-0.1295780397 -0.1008774409 8.014868605e-22 0.1297644335 1.780748018e-19 -0.0001863938008)
(-0.09567285844 -0.1014250109 9.878835886e-20 0.09613967582 3.039492324e-19 -0.000466817375)
(-0.07154821259 -0.09368037596 5.019749173e-20 0.07224618814 2.369981154e-19 -0.0006979755465)
(-0.05320308258 -0.08332304424 -3.567117484e-19 0.05408953309 1.560832852e-19 -0.0008864505079)
(-0.03860960166 -0.07260327762 -2.2962216e-19 0.03964364697 -1.230787915e-19 -0.001034045305)
(-0.02655652582 -0.06241755056 -2.870927221e-19 0.02769345897 2.309848029e-19 -0.001136933149)
(-0.01638766143 -0.05312400654 3.996983952e-19 0.01757709715 2.950702879e-20 -0.001189435722)
(-0.007666721607 -0.04490427157 -4.318203896e-19 0.008848247304 6.952847299e-20 -0.001181525697)
(-0.0001979308549 -0.03781680433 -9.656230312e-19 0.001299775832 1.145009625e-19 -0.001101844977)
(0.006146450267 -0.03200614308 -2.265100278e-19 -0.005211949161 4.558103627e-19 -0.0009345011061)
(0.01134898693 -0.0275445636 7.913328514e-19 -0.01068683713 -1.509126699e-21 -0.0006621498031)
(0.01522896458 -0.02466142677 -3.758471269e-19 -0.01496638764 1.83032078e-20 -0.0002625769495)
(-0.115947764 -0.1139224474 5.046488233e-20 0.116113524 1.05840525e-19 -0.0001657599333)
(-0.0780668194 -0.1083909458 9.468057781e-20 0.07848201079 2.832334562e-19 -0.000415191393)
(-0.05340285515 -0.09713734293 2.317340567e-19 0.05402375779 7.303609972e-20 -0.0006209026319)
(-0.03590403125 -0.08455973657 -1.881633473e-19 0.0366927326 -1.111646775e-19 -0.0007887013425)
(-0.02267957612 -0.07232167005 -7.186131041e-19 0.02359976654 -1.053169907e-19 -0.0009201904241)
(-0.01212804841 -0.06101355981 -4.700101714e-19 0.01313996609 1.485171139e-19 -0.001011917684)
(-0.003417306039 -0.05084024097 -1.492692838e-19 0.004476101189 -1.685658335e-22 -0.001058795151)
(0.003990773961 -0.04188656968 3.549065229e-20 -0.002938911527 2.128949201e-19 -0.001051862434)
(0.01033196627 -0.03416937134 -1.633681127e-19 -0.009350979905 4.478314944e-19 -0.0009809863681)
(0.01579096937 -0.02779468761 -5.111055927e-20 -0.01495897372 2.954651078e-19 -0.0008319956571)
(0.02037057799 -0.02282938245 -4.618157668e-19 -0.01978110101 -2.020150131e-19 -0.0005894769802)
(0.0239368759 -0.01951050021 -5.925604673e-20 -0.02370317093 4.750268103e-19 -0.0002337049668)
(-0.1013072947 -0.1248998967 2.558905228e-20 0.1014503409 1.151951846e-19 -0.0001430461403)
(-0.06114847979 -0.1116413825 1.213476715e-19 0.06150683692 1.874886144e-19 -0.0003583571316)
(-0.03671823304 -0.09636929533 1.091215195e-19 0.03725427516 3.724827141e-20 -0.0005360421185)
(-0.02041472821 -0.08154775594 -2.039579484e-20 0.02109579049 -8.427146468e-20 -0.0006810622852)
(-0.008704572269 -0.06797401829 -6.499276942e-19 0.009499371194 2.136547953e-19 -0.0007947989251)
(0.0002961244987 -0.05580175242 -7.21318123e-19 0.0005780946391 2.333882422e-19 -0.0008742191378)
(0.007543856562 -0.04502198306 -7.862362947e-19 -0.006628967705 4.884819894e-19 -0.0009148888571)
(0.01364719423 -0.03558699679 -1.342115191e-19 -0.01273816853 4.43447088e-19 -0.0009090256969)
(0.01886897704 -0.02745762853 -2.582783123e-19 -0.01802112852 4.588805538e-19 -0.0008478485225)
(0.02343660417 -0.02068317099 -2.55863019e-19 -0.02271752209 7.165799809e-19 -0.0007190820761)
(0.02736988425 -0.01531962113 4.940727804e-19 -0.026860449 5.357997088e-19 -0.0005094352475)
(0.03057807385 -0.01160089376 -1.785210906e-19 -0.03037615926 2.401004273e-19 -0.0002019145869)
(-0.08602529188 -0.133855367 -5.668432805e-20 0.0861438194 1.506717471e-19 -0.0001185275193)
(-0.04581386947 -0.1118189316 1.326241418e-19 0.0461108697 1.182966414e-19 -0.0002970002235)
(-0.0225764931 -0.09225883194 1.502944288e-19 0.02302090743 -2.984732543e-20 -0.0004444143319)
(-0.007855108258 -0.07525075896 -1.454929052e-19 0.008419929131 1.840907264e-19 -0.000564820873)
(0.002222822451 -0.06053226467 7.118891808e-20 -0.00156346048 2.45750222e-19 -0.0006593619712)
(0.009676549114 -0.04773093538 -5.744828009e-19 -0.008951086713 3.914985187e-19 -0.0007254624007)
(0.01551692794 -0.03658300339 -3.162046836e-19 -0.0147575291 4.348905611e-19 -0.0007593988465)
(0.02038062235 -0.02688414227 -3.405414222e-19 -0.0196259543 6.017953749e-19 -0.0007546680457)
(0.02454014088 -0.01852962073 3.663220813e-19 -0.02383618809 9.618221148e-19 -0.0007039527891)
(0.0282458783 -0.01149934401 7.353504676e-19 -0.02764884326 3.943732476e-19 -0.0005970350438)
(0.03152988126 -0.005834420519 3.161039491e-19 -0.03110696652 -1.979039029e-19 -0.0004229147438)
(0.03433813018 -0.001757070589 3.355117921e-19 -0.03417057883 -5.644843895e-20 -0.0001675513489)
(-0.07040749753 -0.1409105207 -1.346089289e-19 0.07049999672 1.241181712e-19 -9.249918611e-05)
(-0.0326750103 -0.1097921616 -4.496007213e-20 0.03290686865 6.506838526e-20 -0.0002318583416)
(-0.01169051914 -0.08596969944 -2.821112242e-19 0.01203763518 1.519772956e-19 -0.0003471160423)
(0.00104944286 -0.06692730232 -1.509424555e-19 -0.0006080808365 3.188561743e-19 -0.0004413620231)
(0.009402788431 -0.05125858236 2.948094642e-21 -0.008887303573 3.813920722e-19 -0.0005154848588)
(0.01535339087 -0.03802797927 2.651951934e-19 -0.01478598871 3.165076335e-19 -0.000567402164)
(0.01988548256 -0.02670060902 -1.540263356e-19 -0.0192913309 2.155819109e-19 -0.0005941516573)
(0.02361491409 -0.01690629789 1.059524811e-19 -0.02302431949 5.983624995e-19 -0.0005905946071)
(0.02680382093 -0.008471222423 8.379712694e-19 -0.02625284383 3.709842733e-19 -0.0005509771081)
(0.02970256437 -0.001300366436 8.63912242e-19 -0.02923529199 -4.194340733e-19 -0.0004672723815)
(0.03234967014 0.004582196144 -9.42731324e-20 -0.03201874959 -2.405514305e-19 -0.0003309205497)
(0.03471949529 0.00897154506 2.079545465e-19 -0.03458847731 -7.880897637e-20 -0.0001310179789)
(-0.05468011208 -0.1462352727 -9.292853697e-20 0.05474539109 4.992871041e-20 -6.527901707e-05)
(-0.02200516916 -0.1065469344 -9.401210226e-20 0.02216889294 5.317697644e-20 -0.0001637237769)
(-0.004334917062 -0.07880733544 -1.567511683e-19 0.004580243934 1.742533217e-19 -0.0002453268729)
(0.006040902147 -0.05798263189 -2.024644573e-20 -0.005728726112 2.364537205e-19 -0.000312176035)
(0.01260019501 -0.0415583143 -1.426098556e-19 -0.01223529986 3.731804606e-19 -0.0003648951446)
(0.01711554135 -0.02805604558 3.187556251e-19 -0.01671361717 2.521280774e-19 -0.0004019241808)
(0.02046123784 -0.01668056062 7.739376632e-20 -0.02004013488 2.225362477e-19 -0.0004211029654)
(0.02318208712 -0.006902865488 3.450419572e-19 -0.02276335581 2.932750789e-19 -0.0004187313106)
(0.02550926421 0.001516856125 4.12540836e-19 -0.02511856634 -7.497404424e-20 -0.000390697867)
(0.0276692867 0.008746236627 4.8992459e-20 -0.02733800119 -2.832524097e-19 -0.000331285517)
(0.02970107177 0.01477831302 -1.309216319e-19 -0.02946657867 -2.831183096e-20 -0.0002344930931)
(0.03159824801 0.01942770187 -1.57759675e-20 -0.03150553183 -2.596242151e-20 -9.271618419e-05)
(-0.03898362529 -0.1500166453 7.264733501e-20 0.03902082328 -2.902889158e-20 -3.719798625e-05)
(-0.01372329915 -0.1030662227 -7.553717418e-20 0.01381672443 -2.044670639e-21 -9.342528388e-05)
(-0.0003271107033 -0.07206480968 -2.294389721e-19 0.0004673932272 1.223358148e-19 -0.0001402825239)
(0.007348233832 -0.04980503243 -2.742700195e-19 -0.007169406252 2.326691906e-19 -0.0001788275793)
(0.01206380651 -0.03281765233 -1.862031293e-19 -0.01185439441 3.566380831e-19 -0.0002094120965)
(0.01521894436 -0.01915812835 1.285020429e-19 -0.01498792223 2.240605708e-19 -0.0002310221332)
(0.01750139144 -0.00780803076 -2.906400896e-19 -0.01725905851 3.266222511e-19 -0.0002423329237)
(0.01933872209 0.001897530648 5.033298858e-19 -0.01909758382 2.876286654e-19 -0.0002411382688)
(0.02091223673 0.01025477173 3.139238827e-19 -0.02068720215 -1.212833773e-19 -0.0002250345826)
(0.022402614 0.01749396082 -1.158276838e-19 -0.02221191345 -3.113934588e-19 -0.0001907005538)
(0.02384347225 0.02362326407 -6.524598931e-19 -0.02370868186 -2.59318808e-20 -0.0001347903956)
(0.02523898755 0.0284757287 1.601442494e-19 -0.02518587518 1.159785577e-21 -5.311236612e-05)
(-0.02337744674 -0.1524278863 5.503815223e-20 0.02338604919 -2.450704033e-20 -8.602448553e-06)
(-0.007419206631 -0.1002119945 -6.783565516e-20 0.007441034393 -5.128004732e-21 -2.182776235e-05)
(0.0009394840196 -0.06687152893 -2.052237018e-19 -0.0009062114899 1.009169926e-19 -3.327252973e-05)
(0.005651754121 -0.04360516049 -1.753868278e-19 -0.005608804964 2.097724053e-19 -4.294915619e-05)
(0.008490689386 -0.02624428757 -5.03571936e-20 -0.008439756734 2.956297538e-19 -5.093265242e-05)
(0.01035212353 -0.0125034758 6.884645207e-21 -0.01029535047 2.602769689e-19 -5.677306538e-05)
(0.01167564283 -0.001201299437 -1.315699703e-20 -0.01161563904 3.072187555e-19 -6.000378317e-05)
(0.01273447949 0.008426315756 2.360419926e-19 -0.01267452632 1.633162185e-19 -5.995317048e-05)
(0.01364483464 0.01671676406 -8.289115176e-20 -0.01358886686 -8.108041809e-20 -5.596777588e-05)
(0.01452381816 0.02394629628 -1.923068845e-19 -0.01447663096 -1.918968262e-19 -4.718719756e-05)
(0.0153950901 0.03013443308 -5.342937793e-19 -0.01536210833 -3.940691765e-20 -3.298177277e-05)
(0.01626617377 0.0351285971 -3.843867133e-20 -0.0162535128 -1.991896378e-20 -1.266097365e-05)
(-0.007854654221 -0.1536015278 4.99637608e-20 0.007834500129 -9.586253457e-21 2.015409261e-05)
(-0.002416438785 -0.09862254095 -5.307790628e-20 0.002366255306 1.07355504e-20 5.018347922e-05)
(0.0004140950162 -0.0640617885 -2.017517857e-19 -0.0004884758123 8.151744958e-20 7.438079615e-05)
(0.001996372576 -0.0402764748 -6.869877204e-20 -0.002090154392 1.685983185e-19 9.378181674e-05)
(0.002939972059 -0.02272900358 -8.363570696e-20 -0.003048560945 2.501476618e-19 0.0001085888867)
(0.003552923705 -0.008954194399 -7.327411837e-21 -0.00367160097 2.561563922e-19 0.000118677265)
(0.003986793704 0.002315321029 1.088189083e-20 -0.004110435804 2.691488836e-19 0.0001236420994)
(0.00433643779 0.01189594899 -7.202258661e-20 -0.004459037073 1.628065442e-19 0.0001225992831)
(0.004643085586 0.02014688994 -1.840237711e-19 -0.004757513189 -1.477428782e-20 0.0001144276028)
(0.004948749662 0.02736880738 -3.18137554e-19 -0.005046243892 -1.164205937e-19 9.749422975e-05)
(0.005264059535 0.03358746171 -3.691838274e-19 -0.005333738402 -3.957786802e-20 6.967886704e-05)
(0.005595061289 0.03865838215 -1.116120106e-19 -0.005623196281 -3.204321516e-20 2.813499198e-05)
(0.007635130138 -0.1536093981 4.728700409e-20 -0.007683842636 6.03695635e-21 4.871249815e-05)
(0.002134390051 -0.0986368242 -3.160172412e-20 -0.002256099743 2.923130137e-20 0.0001217096918)
(-0.0007316839806 -0.06407796063 -1.809622346e-19 0.0005503490621 6.089409818e-20 0.0001813349185)
(-0.002336454424 -0.04029246617 1.430752676e-20 0.002106792755 1.309980315e-19 0.0002296616692)
(-0.003294347021 -0.02274376743 -4.208956213e-20 0.003027179907 2.134352363e-19 0.0002671671141)
(-0.003914205991 -0.008967037204 -1.271200243e-20 0.00362105846 2.319220128e-19 0.0002931475305)
(-0.004346262478 0.002305049981 -2.489099334e-20 0.004039938064 2.65107053e-19 0.0003063244137)
(-0.004682362999 0.01188900832 -1.550521e-19 0.00437810797 1.876488528e-19 0.0003042550283)
(-0.004959717249 0.02014426503 -3.382588737e-19 0.004675674974 2.198330532e-20 0.0002840422743)
(-0.005215442503 0.02737171244 -4.025621058e-19 0.004973886215 -6.764300876e-20 0.0002415562878)
(-0.005453094909 0.03359750924 -2.562315602e-19 0.00528116505 -9.984840908e-21 0.0001719298589)
(-0.005669922256 0.03867782291 -1.682256629e-19 0.005601143929 -5.441619433e-20 6.877832671e-05)
(0.02315753965 -0.152452016 5.746570573e-20 -0.02323425307 1.614713084e-20 7.671341535e-05)
(0.007142521576 -0.1002544069 9.673955938e-22 -0.007334372378 3.738694064e-20 0.0001918508019)
(-0.001249377563 -0.06691923802 -1.193862299e-19 0.0009631340414 4.997813555e-20 0.0002862435218)
(-0.005983508589 -0.04365224454 4.79660918e-20 0.005620529062 9.41950349e-20 0.0003629795274)
(-0.008837071427 -0.02628776647 6.353036959e-20 0.008414266691 1.84825837e-19 0.0004228047354)
(-0.0107064459 -0.01254138118 1.465981026e-20 0.0102420058 1.951427678e-19 0.000464440105)
(-0.01202983342 -0.001231780702 9.902560656e-20 0.01154409136 2.751641884e-19 0.0004857420687)
(-0.01307750872 0.008405426579 -3.85553996e-19 0.01259478243 2.059809831e-19 0.000482726287)
(-0.01396179288 0.01670829486 -4.140632766e-19 0.01351105284 2.858483833e-20 0.0004507400343)
(-0.0147950425 0.02395373828 -3.08385616e-19 0.01441185822 -2.124284037e-20 0.0003831842752)
(-0.01559408796 0.03016243707 -1.994395384e-19 0.01532160732 5.807972553e-20 0.0002724806361)
(-0.01635808628 0.0351836465 -3.472208877e-19 0.01624933155 -8.949963182e-20 0.0001087547287)
(0.03876339538 -0.1500584712 6.489070934e-20 -0.03886719749 1.173833655e-20 0.0001038021086)
(0.01345713522 -0.103135474 4.372690043e-20 -0.01371685266 1.60998989e-20 0.0002597174421)
(3.214187348e-05 -0.0721417086 4.846464666e-20 -0.0004199173425 6.335818382e-20 0.000387775469)
(-0.007663862996 -0.0498806324 -4.357888399e-20 0.007171820819 5.847371174e-20 0.0004920421764)
(-0.01239468416 -0.03288750043 1.541470966e-19 0.01182116124 1.540487251e-19 0.000573522928)
(-0.01555970207 -0.01921930301 -8.605514686e-20 0.01492932808 1.582090993e-19 0.00063037399)
(-0.01784518361 -0.007857773615 -5.446215629e-20 0.01718557676 2.527911004e-19 0.0006596068524)
(-0.01967584744 0.001862489339 -4.667000611e-19 0.01902011486 1.810383699e-19 0.0006557325795)
(-0.02122937928 0.01023873235 -2.107890689e-19 0.0206169927 7.968193189e-20 0.0006123865796)
(-0.02268197839 0.01750226355 -4.444401658e-19 0.02216141689 9.766907122e-20 0.0005205615037)
(-0.02406089718 0.02366306518 -2.936060456e-19 0.0236908573 8.997947373e-20 0.0003700398833)
(-0.02536277125 0.02855701719 -3.237023875e-19 0.02521522152 -1.173098743e-19 0.0001475497238)
(0.05446045164 -0.1462969201 -5.284543559e-20 -0.0545900835 -5.94892417e-20 0.0001296318599)
(0.02175428235 -0.1066409554 1.098363998e-19 -0.02207872306 -5.530475725e-20 0.0003244407055)
(0.004061209998 -0.07890974009 1.803756838e-19 -0.004545839067 3.505546314e-20 0.0004846290686)
(-0.006333622526 -0.05808271955 1.072078708e-19 0.005718430289 4.794076424e-20 0.0006151922366)
(-0.01290898385 -0.0416508647 1.787811687e-19 0.01219160147 7.464150247e-20 0.0007173823805)
(-0.01743682204 -0.02813767733 3.332386319e-20 0.01664801214 -4.490154437e-20 0.0007888099028)
(-0.02078983609 -0.01674805423 5.209290565e-19 0.01996416348 1.622414696e-19 0.0008256726069)
(-0.02351011877 -0.00695232303 -9.657394065e-20 0.02268908433 3.57362862e-19 0.0008210344466)
(-0.02582559835 0.001490640685 -2.225268164e-19 0.02505871288 1.629633792e-19 0.0007668854712)
(-0.02795869075 0.008749790336 -1.248572339e-19 0.02730678805 1.933554551e-19 0.0006519026995)
(-0.02994259187 0.01482047616 -8.409065322e-20 0.02947925471 2.759186903e-19 0.0004633371595)
(-0.03176450452 0.01952082885 -3.763829594e-19 0.03157984686 -7.772148413e-20 0.0001846576608)
(0.07019036673 -0.1409943951 -1.075652214e-19 -0.07034423716 -1.19358296e-19 0.0001538704315)
(0.03244357612 -0.1099082196 9.543603561e-20 -0.03282876256 -1.515421179e-19 0.000385186432)
(0.01144317586 -0.08609291314 2.413577167e-19 -0.01201872934 -3.020878211e-21 0.0005755534832)
(-0.001313859977 -0.06704677946 1.080364612e-19 0.0005830248559 5.624326786e-20 0.0007308351213)
(-0.009684164235 -0.05136920071 -1.079450908e-20 0.008831649507 1.256278737e-20 0.0008525147284)
(-0.01565021504 -0.03812650116 -3.084609464e-20 0.01471253217 -2.291752073e-19 0.0009376828717)
(-0.0201945166 -0.02678390155 4.889546443e-19 0.01921275006 -1.238142656e-19 0.0009817665405)
(-0.02393039604 -0.01697041532 2.341741137e-19 0.02295393611 2.7968013e-19 0.000976459928)
(-0.02711717491 -0.008510751295 -1.04007415e-19 0.02620497724 -1.697587697e-20 0.0009121976693)
(-0.03000156906 -0.001308405294 4.409608843e-19 0.02922610217 -1.569886626e-19 0.0007754668831)
(-0.03261714647 0.004615158049 3.780878338e-19 0.03206601645 4.24516765e-19 0.0005511300207)
(-0.0349331434 0.009058836472 -1.022071014e-19 0.034713562 1.021870135e-19 0.0002195814021)
(0.08581382636 -0.1339637172 3.227275747e-20 -0.08599002897 -8.479577334e-20 0.0001762026103)
(0.0456053409 -0.1119537948 1.115570399e-19 -0.04604650483 -2.30753189e-19 0.0004411639215)
(0.02235914939 -0.09239755481 4.01797378e-19 -0.02301851162 -6.21166425e-20 0.0006593622312)
(0.007622749798 -0.0753839317 1.679910275e-19 -0.008460206828 5.807262838e-20 0.0008374570297)
(-0.002472950993 -0.06065578253 5.154632668e-20 0.001495806699 -4.802063235e-20 0.0009771442943)
(-0.009945051388 -0.04784234682 -6.430365608e-20 0.008870022727 -2.80519459e-19 0.001075028661)
(-0.01580256288 -0.03667984202 3.001160041e-19 0.01467674305 -5.033019507e-19 0.001125819834)
(-0.02067984061 -0.02696303472 3.757692106e-19 0.01955990094 4.407510334e-20 0.001119939668)
(-0.02484704345 -0.0185856907 -4.065023633e-20 0.02380066425 3.648830247e-19 0.001046379198)
(-0.02855141047 -0.01152618777 -2.216853039e-19 0.02766181736 -1.913564554e-19 0.0008895931043)
(-0.03182085284 -0.005822944823 5.264056374e-19 0.03118861996 -1.849233264e-19 0.0006322328747)
(-0.03459757437 -0.001694466917 -3.278188314e-19 0.03434572725 8.801412177e-20 0.0002518471238)
(0.1011056932 -0.1250343437 -1.725544663e-21 -0.1013020299 -1.582603144e-19 0.0001963366793)
(0.06096548313 -0.1117915147 1.049783048e-19 -0.06145712309 -2.694826994e-19 0.0004916399632)
(0.03653296145 -0.09651808372 2.150290291e-19 -0.03726791539 -2.871095498e-19 0.0007349539465)
(0.02021646179 -0.08168885562 2.087901634e-19 -0.02115011285 2.487034105e-20 0.0009336510674)
(0.008487969399 -0.06810520646 -2.871411635e-19 -0.00957758814 6.45739158e-21 0.001089618741)
(-0.0005336022194 -0.05592196451 -1.169756909e-19 -0.0006654143458 -1.230653232e-19 0.001199016565)
(-0.007802819988 -0.04512996367 -3.65185906e-19 0.006546918633 -5.581302297e-19 0.001255901355)
(-0.01392618697 -0.03568053063 2.910775807e-19 0.01267664848 -5.443768851e-19 0.001249538494)
(-0.01916464368 -0.02753308318 5.800157385e-19 0.01799703455 -1.721787512e-19 0.001167609131)
(-0.02374292734 -0.02073546916 6.132181218e-19 0.02275020413 3.098617824e-19 0.0009927232131)
(-0.02767751849 -0.01534112613 -3.097544037e-19 0.02697198696 3.061885919e-19 0.0007055315348)
(-0.03087516444 -0.01158073736 2.660772703e-19 0.03059415562 1.09543797e-19 0.000281008818)
(0.1157610551 -0.1140835969 -4.816505345e-20 -0.115975062 -2.366726142e-19 0.0002140069107)
(0.07791111173 -0.1085527311 8.858209357e-20 -0.0784470589 -2.709233215e-19 0.0005359471631)
(0.05325021465 -0.09729107041 -3.023889865e-20 -0.05405154013 -3.968753184e-19 0.000801325481)
(0.03574025126 -0.08470343842 8.815863773e-20 -0.03675838599 -3.62323928e-19 0.001018134725)
(0.02249729878 -0.07245570786 3.47568125e-19 -0.02368572886 1.39153706e-19 0.001188430089)
(0.01192318336 -0.06113874512 1.093814162e-19 -0.01323115733 1.895122997e-19 0.001307973969)
(0.003187713045 -0.05095696985 8.308969681e-20 -0.004557957288 1.918326516e-20 0.001370244243)
(-0.004245419127 -0.04199426706 4.215225365e-19 0.002881935524 -4.023787599e-19 0.001363483602)
(-0.01061049772 -0.03426623192 6.300421208e-19 0.009336281152 -8.813523475e-21 0.001274216571)
(-0.01609001288 -0.02787764875 6.25481844e-19 0.01500658787 1.145310338e-19 0.001083425013)
(-0.02068417059 -0.02289313305 9.346233649e-19 0.01991417036 -7.17664456e-20 0.0007700002325)
(-0.02425761336 -0.01954729327 2.060026281e-19 0.02395095881 4.423401919e-19 0.0003066545481)
(0.1294116779 -0.1010646014 -1.489060042e-20 -0.1296406568 -1.766812499e-19 0.0002289788511)
(0.09554534844 -0.1015949776 5.216114585e-21 -0.09611884422 -3.056545398e-19 0.0005734957798)
(0.07142743946 -0.09383465529 -1.408558873e-19 -0.07228502898 -4.577226306e-19 0.0008575895178)
(0.05307277984 -0.08346492327 1.590429213e-20 -0.0541625522 -5.88937817e-19 0.001089772358)
(0.03846118622 -0.07273616038 6.299041282e-19 -0.03973342779 -4.148358282e-19 0.001272241569)
(0.02638488869 -0.06254444084 4.636510975e-19 -0.02778530506 1.572521953e-19 0.001400416371)
(0.01618959687 -0.05324723736 5.040883347e-19 -0.01765687563 1.887217842e-20 0.001467278763)
(0.007440580384 -0.04502523186 4.79826767e-19 -0.008900778706 -2.331003471e-19 0.001460198322)
(-5.677918312e-05 -0.03793590853 1.354841928e-18 -0.001307935355 -4.17745147e-19 0.001364714538)
(-0.006428406086 -0.0321228122 9.988446227e-19 0.005267982684 1.379965191e-19 0.001160423402)
(-0.01165490037 -0.02765641305 -5.100050639e-19 0.01083017502 -3.936148843e-19 0.0008247253534)
(-0.01555489923 -0.02476464427 2.11267112e-19 0.01522648106 -2.9182609e-20 0.0003284181647)
(0.1416512898 -0.08602761038 1.987878451e-20 -0.1418923418 9.484741157e-21 0.000241052079)
(0.1127753487 -0.09058674979 -1.605928422e-19 -0.1133791304 -1.730006986e-19 0.0006037816605)
(0.08972372384 -0.08565753928 -3.124598241e-19 -0.09062671078 -4.031005141e-19 0.0009029869343)
(0.07081643488 -0.07742184226 1.074549536e-19 -0.07196402636 -4.411373672e-19 0.001147591482)
(0.05500997393 -0.06838116566 2.224483295e-19 -0.05634988107 -9.248175414e-19 0.001339907145)
(0.04154389863 -0.05958019011 7.111593126e-19 -0.04301896811 -3.716184167e-19 0.001475069484)
(0.02996768116 -0.05145665881 2.381881777e-21 -0.03151333663 -4.501582185e-19 0.00154565547)
(0.01996542724 -0.04424488975 7.131826637e-19 -0.02150375246 -3.796221948e-19 0.001538325223)
(0.01138947112 -0.03802689959 4.486953028e-19 -0.01282729171 -7.354829549e-19 0.001437820589)
(0.004177820949 -0.03296331289 -6.838327705e-19 -0.005400437808 -8.29471642e-19 0.001222616859)
(-0.001629114815 -0.02912420347 -7.03897696e-19 0.0007601981195 -3.795332308e-19 0.0008689166953)
(-0.005803484384 -0.02671889314 4.390653776e-21 0.005457502339 -4.156065885e-19 0.0003459820451)
(0.1520670233 -0.06913213595 2.120448891e-20 -0.1523170869 1.534839193e-19 0.0002500635755)
(0.1284238193 -0.07555871818 -1.599261277e-19 -0.1290502138 -4.210575423e-20 0.0006263945311)
(0.106682429 -0.07272520409 -1.031157814e-19 -0.1076193284 -1.596484081e-19 0.0009368993498)
(0.087447315 -0.06650461078 -6.084900079e-20 -0.08863811406 -4.056004797e-19 0.001190799059)
(0.07064662938 -0.05930125281 -5.292930042e-21 -0.07203712047 -6.353046823e-19 0.001390491093)
(0.05596820871 -0.05214431192 1.577579294e-19 -0.05749910033 -8.462876707e-19 0.001530891624)
(0.04316693365 -0.04547536263 2.11598281e-20 -0.04477120362 -7.921529221e-19 0.001604269971)
(0.03204733854 -0.03953691612 3.741786785e-19 -0.03364409074 -4.007550511e-19 0.001596752194)
(0.02250964378 -0.03441719706 -5.930781924e-19 -0.02400212676 -5.038906181e-19 0.001492482979)
(0.01455545516 -0.03027121174 -9.671491117e-19 -0.01582455613 -5.347813328e-19 0.001269100969)
(0.00824546714 -0.02716215692 -2.439872244e-19 -0.009147391147 -5.749613649e-19 0.0009019240074)
(0.003850750341 -0.02526862548 1.150043048e-19 -0.004209834559 3.159860613e-21 0.0003590842174)
(0.160273691 -0.05064827388 -5.779647085e-20 -0.1605295817 8.786559389e-20 0.0002558906627)
(0.1413516502 -0.05691545692 -2.902777061e-19 -0.1419926752 -3.142464847e-20 0.0006410250486)
(0.1208871762 -0.055475779 -3.226398689e-19 -0.1218460361 -1.727736604e-19 0.0009588598882)
(0.1014803937 -0.05114276932 -2.658751246e-19 -0.1026991893 -3.138602005e-19 0.001218795544)
(0.08391023958 -0.04590021898 -8.340930238e-21 -0.08533352465 -3.070694149e-19 0.001423285066)
(0.06825876995 -0.04060922029 -2.012121298e-19 -0.06982586309 -5.604337357e-19 0.001567093131)