/*--------------------------------*- C++ -*----------------------------------*\
| =========                 |                                                 |
| \\      /  F ield         | foam-extend: Open Source CFD                    |
|  \\    /   O peration     | Version:  3.0                                   |
|   \\  /    A nd           | Web:         http://www.extend-project.de       |
|    \\/     M anipulation  |                                                 |
\*---------------------------------------------------------------------------*/
FoamFile
{
    version     2.0;
    format      ascii;
    class       volScalarField;
    location    "4";
    object      p;
}
// * * * * * * * * * * * * * * * * * * * * * * * * * * * * * * * * * * * * * //

dimensions      [0 0 0 0 0 0 0];

internalField   nonuniform List<scalar> 
3012
(
0.572998
1.0546
1.48506
0.883319
1.02735
0.658136
0.929726
1.37839
0.629292
1.38073
0.72132
1.27444
0.977438
0.458496
1.63793
0.924454
1.06147
0.664371
0.8901
1.37053
1.2046
0.499276
1.66396
0.636048
1.48216
0.965889
0.940575
0.606616
0.484146
1.50361
0.725431
1.28602
0.742788
1.54145
0.473891
1.24075
0.983967
1.4616
0.621418
0.929366
0.969622
1.68171
0.923118
0.424535
0.773178
1.19073
0.468646
1.56564
1.19028
1.62711
0.432608
0.748804
0.568901
1.03786
0.890063
1.49907
0.738236
0.736591
1.13403
1.38576
0.833446
0.693185
1.12841
1.32776
0.934544
0.474237
1.63696
0.952901
1.69545
1.02544
0.800582
0.47853
1.44649
1.42266
0.654422
0.476625
0.457994
1.54462
1.33688
0.660472
0.926408
0.503077
0.960225
1.60879
1.69461
0.988335
0.898782
0.417058
0.713644
1.58159
0.447383
1.25616
1.39198
0.636757
0.720258
1.25775
0.670456
1.10219
0.792881
1.43116
1.70471
1.02912
0.790587
0.475823
1.44555
0.648925
1.4353
0.470758
1.65657
0.578103
0.548306
1.21873
0.45803
1.60324
1.12583
0.81078
1.52001
0.576725
1.43147
0.474917
0.449904
0.712516
1.10004
1.73742
1.1118
0.63602
1.37934
0.865095
1.23528
0.839597
1.26008
0.65435
1.06789
0.652299
0.877858
1.39581
1.26198
1.25875
0.800259
0.690262
1.48314
0.930308
0.601283
0.98201
1.20416
0.771612
0.702982
1.35963
1.23631
0.78528
0.698866
1.30265
0.785443
0.411708
1.12914
1.67188
1.20754
1.60896
0.439872
0.742157
1.63606
0.558143
1.25504
0.552608
0.649728
0.963086
1.44269
0.94015
0.729446
1.53215
0.477268
1.26036
1.18514
1.35612
0.72787
0.752623
0.674822
1.25213
0.790411
1.29552
0.645465
0.977751
1.43162
0.943093
1.18397
0.59757
0.654103
1.56676
0.620726
1.53861
1.225
0.617838
1.64591
0.554344
1.23877
0.562526
1.28612
1.4678
0.50679
0.738912
0.92397
0.473507
0.964919
1.63657
0.992668
1.63067
0.463558
0.911792
1.07323
1.70484
0.816405
0.402949
0.694944
0.470046
1.74636
1.08976
1.60824
0.970655
0.91452
0.505036
1.53399
0.466831
0.590435
1.41015
0.715969
0.488813
1.29852
1.49628
0.699148
0.481169
1.10957
1.71195
0.592889
1.38758
0.491279
1.52964
1.45566
1.30221
0.729766
0.511976
1.19452
0.495044
1.66276
0.651935
0.606529
1.65155
1.22219
0.523095
1.18697
0.604463
0.653664
1.55716
0.630404
1.21333
1.54032
0.618914
1.44978
0.73267
0.676732
1.14296
0.696101
0.433465
1.26958
1.60036
0.961066
1.7083
0.919364
0.409387
1.21027
0.642741
0.630653
1.5193
0.976456
1.66295
0.923758
0.435342
0.963361
0.45882
1.64039
0.935763
0.591594
1.00634
0.911672
1.48609
0.792243
1.68489
0.407912
1.113
0.99488
0.664998
0.926345
1.41421
0.970637
0.929413
0.668485
1.4382
0.774219
0.461805
1.18224
1.57969
1.21784
0.635853
0.637519
1.51221
1.14172
0.454974
1.60212
0.799308
0.589315
1.01411
0.911951
1.48088
1.46041
0.757651
0.662827
1.1201
1.54393
1.28268
0.560988
0.613836
0.911169
1.69748
0.420127
0.969956
0.672159
0.550813
1.15585
1.62339
0.65732
1.0898
0.798646
1.45169
1.69295
0.873661
0.99386
0.438827
1.51531
0.462279
1.35791
0.66498
1.55351
0.451141
1.32227
0.673472
0.646209
1.49985
0.450681
1.40431
0.824202
1.72639
1.00384
0.444773
1.06352
1.70698
0.822582
0.404472
0.76165
0.406181
1.67296
1.15768
0.649316
1.48899
1.40344
0.459171
0.824248
1.71406
0.451796
1.00922
0.56055
1.3822
0.702323
1.35716
0.551843
1.3516
1.37574
0.722309
1.61165
1.11866
0.550641
0.720507
0.642198
0.558274
1.31123
1.49048
0.786569
0.474528
1.56173
1.17522
1.18823
0.641877
0.670181
1.50253
1.1753
0.650002
0.689992
1.48811
0.567115
1.23257
0.594006
1.60821
1.04385
0.818572
0.557219
1.57941
1.0321
0.456768
0.880999
1.6285
1.18645
0.621732
1.35811
0.829132
1.01605
0.555043
0.847768
1.57957
0.853738
1.32092
0.645568
1.16768
0.636681
0.479952
1.48239
1.40174
1.25066
0.410705
0.70234
1.63646
0.402015
1.7421
0.883758
0.969047
0.494318
0.743286
1.05922
1.70421
0.611301
1.09636
1.52975
0.762051
0.604622
1.08296
1.53255
0.778713
1.52037
0.593401
1.41828
0.469625
1.50576
1.07382
0.620262
0.798262
1.08305
0.705731
0.469784
1.74218
0.731103
0.77252
1.09212
1.3721
1.62572
1.11488
0.719952
0.541087
1.67812
0.761635
1.15227
0.406242
0.811075
1.30311
0.639103
1.24474
1.06536
1.52475
0.610416
0.797371
1.24347
0.576437
0.581479
1.6003
0.638136
0.547607
1.32031
1.49532
0.953436
0.485453
0.945071
1.61459
0.713729
0.782913
1.09967
1.37213
1.53006
1.29903
0.555242
0.617095
0.687314
0.541911
1.14703
1.62632
0.799116
1.48058
1.18801
0.530378
0.720303
1.56606
0.45882
1.254
0.666578
0.980753
0.934585
1.41641
0.649063
1.66548
1.22211
0.469314
1.46773
0.793016
1.2012
0.53633
0.515751
1.6172
0.55746
1.30834
0.529886
1.60793
0.563369
1.2992
1.57862
0.854535
0.487497
1.07684
1.13998
0.872485
0.649069
1.31812
1.35792
1.46545
0.525296
0.652726
1.53397
0.790566
1.17758
0.495663
0.847254
1.09031
0.49176
1.56841
0.7804
0.416976
1.66572
1.13511
1.36563
1.44546
0.662809
0.527373
0.753487
1.08036
0.525562
1.64141
0.769935
1.0684
0.527357
1.63495
0.851699
0.507255
1.08817
1.55021
1.47199
0.476656
0.635132
1.41701
1.52307
1.18392
0.788903
0.501988
1.02275
0.453678
0.890184
1.63179
0.487109
0.752311
1.05197
1.70942
0.636668
1.14528
0.921886
1.30994
0.862795
1.07069
0.509287
1.5546
1.47409
1.24056
0.518163
0.766019
0.718879
1.29082
0.610796
1.38422
1.09905
0.866719
0.667965
1.3485
0.658212
0.928121
1.41751
0.99009
0.548388
1.25393
1.42715
0.770261
0.75266
1.54225
1.22687
0.476398
0.593539
1.17878
0.825887
1.3993
1.09438
0.411495
0.807628
1.6842
1.24961
0.41856
1.63143
0.699343
0.598835
1.19829
1.38452
0.815525
1.08612
1.68081
0.413821
0.816698
0.394781
0.901978
1.7232
0.978666
1.48669
0.771976
1.22628
0.513627
1.10481
1.38766
0.679511
0.820692
0.540579
1.24915
0.770263
1.43934
1.00275
0.63617
0.90043
1.45567
0.714259
0.795449
1.16353
1.3288
1.3286
0.830866
1.20152
0.633839
0.846285
0.642232
1.34366
1.15749
0.919548
0.978339
1.46274
0.634189
0.717683
0.427396
1.23256
1.62168
0.712126
1.6136
0.428952
1.24446
0.802165
0.719936
1.14989
1.30701
0.499449
1.49591
0.741281
1.26233
1.49357
0.532804
1.15196
0.819506
1.07091
0.724356
0.480043
1.72566
1.72383
1.08231
0.486591
0.708567
1.41288
1.50167
0.47346
0.61321
1.0648
0.700782
0.88687
1.36169
1.20309
1.63212
0.424727
0.738933
1.39554
0.477163
0.609944
1.51854
1.71042
0.797435
1.09223
0.39791
1.42208
1.50588
0.467072
0.606689
1.06666
0.475513
0.717866
1.74049
0.603071
1.63974
1.21506
0.544266
0.647596
0.931496
1.42953
0.988043
0.860017
1.49897
1.0872
0.550564
0.600654
1.05326
1.45414
0.888768
0.696064
0.681746
1.4229
1.20451
1.03204
0.610777
1.45465
0.897277
1.00215
0.620169
1.45621
0.91754
0.810976
1.21428
1.36822
0.604636
1.42593
0.485593
1.43106
0.657902
1.5833
1.11339
0.734399
0.570133
0.698953
0.694941
1.4289
1.18414
1.30032
0.577467
0.658387
1.46646
0.617056
1.14195
1.53523
0.707437
1.68135
0.793564
1.03614
0.489254
1.48767
0.845692
1.11069
0.552906
1.50602
1.13849
0.527867
0.824852
0.766341
1.08146
0.564762
1.58751
0.400051
0.747959
1.67731
1.17346
1.04639
0.826417
1.72638
0.398343
1.43591
0.565865
0.677344
1.3236
1.15537
0.617635
1.52853
0.700237
0.817893
1.55453
1.13274
0.492431
0.471156
1.58207
1.13178
0.813
1.6144
0.47475
0.995888
0.912745
0.58099
1.47165
1.29136
0.658388
0.698011
1.13053
1.65372
0.520277
0.443822
0.610165
1.49784
1.4505
1.24125
0.675183
0.777852
1.32009
0.61598
1.32817
1.52828
0.528618
0.727203
1.38874
1.15801
0.739134
1.29242
0.800477
0.642863
1.26692
1.75791
0.778487
0.43271
1.02951
0.908742
0.656597
1.00449
1.43177
1.19091
0.745943
0.718315
1.36406
0.722942
1.15611
1.38058
0.743473
0.56934
1.22979
1.40945
0.790984
0.458964
0.631045
1.54359
1.36689
1.01843
0.400973
1.70563
0.873847
0.624125
1.07205
1.42291
0.873515
1.64251
1.16456
0.525287
0.670418
1.30342
0.597952
0.544403
1.55524
0.627569
1.1204
0.86193
1.38367
0.817877
0.543778
1.03626
1.6014
0.595505
1.10441
1.55529
0.745394
0.541866
1.37254
0.698743
1.38844
1.64694
1.14894
0.681414
0.525703
0.60841
1.54549
0.538059
1.30888
1.10616
0.63573
0.76452
1.49317
1.39955
0.640837
0.493292
1.46687
0.930344
0.425865
1.68381
0.958729
1.59149
0.499657
0.921348
0.985151
0.596268
1.11588
0.737239
1.55148
1.3805
0.643201
0.500367
1.47673
1.15239
0.777239
1.63681
0.43214
0.60784
0.62297
1.5304
1.24152
0.764552
1.16811
1.63648
0.429338
1.06259
0.497024
0.757008
1.68439
0.576959
1.21727
0.799642
1.40482
1.58264
1.11484
0.728386
0.575271
0.715556
1.32691
1.45167
0.50575
1.16882
0.58748
0.670343
1.57546
0.450928
1.54739
0.645649
1.35699
1.42501
0.574846
0.682327
1.32042
1.08102
0.571825
0.771284
1.57612
1.07206
0.506805
0.748323
1.67397
1.55511
1.30079
0.687985
0.455969
0.408596
1.71093
0.998366
0.880568
1.62243
0.985455
0.890419
0.500564
1.35898
0.686645
0.749961
1.21867
1.34393
0.758875
0.695049
1.21768
1.60905
0.855434
1.00833
0.526031
1.11597
1.63359
0.811796
0.437511
0.508856
0.578035
1.55785
1.3565
1.19475
0.447276
1.60184
0.754462
0.619832
1.41979
1.07719
0.879118
1.05372
0.891086
0.642945
1.40954
1.21657
1.57814
0.746376
0.456742
1.12774
0.483074
0.692303
1.69928
0.48388
1.14975
1.69219
0.676942
0.497612
1.54469
1.3672
0.591671
0.826472
1.56315
1.1185
0.489588
0.440938
1.57737
0.676207
1.30577
0.831535
1.2083
0.652312
1.29312
0.437667
0.690805
1.5891
1.28283
1.62831
0.586067
0.554577
1.23337
1.42565
0.492055
1.41974
0.662844
1.66308
0.586562
1.23187
0.521474
1.71004
0.95063
0.41157
0.92598
0.934724
1.70574
0.946296
0.411739
1.67178
0.492636
0.802199
1.03349
1.64895
0.553515
1.25829
0.540005
0.406819
0.994469
0.893654
1.70327
0.976788
1.70515
0.908003
0.408638
1.58689
0.50224
0.908755
0.999721
1.35625
0.710863
1.40914
0.524554
0.640058
0.749357
1.34287
1.27499
0.6231
1.59544
1.21232
0.571501
0.438247
1.57912
1.31595
0.667442
0.407874
1.7195
0.91486
0.955761
0.63048
1.29141
0.765557
1.31878
0.636391
1.60601
1.19198
0.567976
1.59988
0.57835
1.27329
0.549096
1.50088
1.06044
0.622957
0.813799
1.46527
1.26175
0.518066
0.754236
1.10973
1.40422
0.694098
0.785693
1.66256
1.07301
0.837384
0.425377
0.842169
1.60924
1.01963
0.528153
0.879469
0.433649
1.02937
1.65574
1.36742
0.702999
1.40021
0.530176
0.897285
0.440401
1.00951
1.65142
0.548814
1.00785
0.862554
1.57893
1.3888
0.725198
0.548076
1.33955
1.22521
0.741008
1.57327
0.459058
0.814708
1.35147
1.21585
0.61532
1.38489
0.729115
1.18776
0.709591
1.6561
0.908228
0.994146
0.44018
1.30899
0.792297
1.2716
0.629361
0.667622
1.46684
0.411799
1.45617
0.753925
1.65475
1.17426
0.415645
0.74567
1.64949
0.417952
1.18608
1.69623
1.05145
0.841127
0.408539
1.6983
0.85287
0.408114
1.03852
0.699139
0.418134
1.2698
1.61299
1.15797
0.596037
1.4077
0.83437
1.80143
0.745323
0.503604
0.947768
0.906071
1.72912
0.956342
0.406301
1.2649
0.581419
0.567123
1.58794
1.13477
0.65196
0.730398
1.48404
0.662944
0.824902
1.07974
1.42659
0.408214
1.7397
0.923752
0.925819
1.60012
0.676785
1.2997
0.424101
1.3978
0.728717
1.17709
0.7076
1.3783
1.15991
0.615674
0.841182
1.50137
0.505889
1.22225
0.768661
1.19995
0.545865
0.630549
1.62607
1.65717
0.805457
1.11128
0.424834
1.67272
0.849835
1.05528
0.419673
1.21094
0.556668
0.616257
1.6186
0.51292
1.1675
1.65548
0.667318
0.662141
1.40645
0.878065
1.04414
1.26633
0.692791
0.621747
1.4235
1.28176
0.701017
0.609779
1.41239
0.442414
0.72063
1.59701
1.23853
0.749632
1.29876
0.558677
1.39375
1.27455
0.764278
0.557699
1.40398
0.921512
1.67348
0.438227
0.965848
1.60811
0.740441
1.10065
0.551701
0.648257
1.45947
0.46133
1.43175
1.38994
0.584189
0.707105
1.32221
0.935628
0.446808
1.66046
0.956318
0.48429
1.6627
0.839567
1.0134
0.489682
1.66234
1.01871
0.829105
0.654809
1.32044
0.557383
1.46908
1.71912
0.792354
1.01761
0.470772
0.464271
1.53621
1.30779
0.691197
0.850858
1.69885
1.00165
0.447799
0.46993
1.29281
0.704117
1.53211
0.488727
0.677606
1.38412
1.44987
1.30042
1.59933
0.675525
0.425634
0.49234
0.675132
1.43956
1.39269
0.408632
1.73812
0.927199
0.923353
0.558705
0.98509
0.89853
1.55514
0.970881
1.55036
0.561816
0.914072
0.83723
1.15167
1.30252
0.654466
1.49861
1.37807
0.46402
0.659454
0.669728
0.872521
1.06709
1.37734
0.856894
0.667171
1.1072
1.3538
1.40469
0.592662
0.700174
1.30623
1.09459
0.833645
0.452286
1.61743
1.07874
0.844724
0.455759
1.61883
0.995852
0.874692
1.62207
0.506382
0.650557
0.43748
1.47402
1.43921
1.7578
0.777714
0.474052
0.989548
0.725151
1.15945
1.41874
0.702399
1.23879
1.50958
0.757071
0.493362
1.30653
0.593706
0.532031
1.5682
0.670213
1.10748
0.863134
1.33157
0.704176
1.41216
1.24339
0.64624
0.693858
0.812203
1.38964
1.0885
0.725151
1.21069
0.756722
1.29243
1.49488
0.63825
1.43056
0.437937
0.698734
0.469902
1.10111
1.73138
1.20728
0.650343
1.49241
0.653728
1.12922
0.441081
1.62726
0.801126
0.452057
1.75616
0.792145
0.998381
1.71385
0.465252
1.14084
0.681199
0.589349
1.40293
0.47594
1.53365
1.553
1.38729
0.564376
0.498179
0.664243
1.22636
0.640314
1.47354
1.21378
0.40356
1.65977
0.722425
1.07587
0.53726
1.62111
0.766273
1.44647
1.35131
0.664069
0.539694
0.397442
0.855947
1.73807
1.00589
0.709331
1.34193
0.511107
1.43776
1.43851
0.861036
0.59687
1.09877
1.61212
0.926988
0.486206
0.972611
1.05845
0.582486
1.55464
0.803305
1.44867
0.593389
0.869139
1.08437
1.52731
0.761056
1.22175
0.488499
0.945647
0.951174
0.547665
1.55253
0.562269
0.513895
1.26078
1.66545
0.818725
0.652688
1.25286
1.27509
1.61138
0.56849
1.26516
0.556137
1.36634
0.509249
1.49143
0.633835
0.509814
0.733466
1.66872
1.08975
0.85346
0.415285
1.75965
0.969165
1.37181
0.642869
1.56062
0.426343
1.18682
0.409642
1.66402
0.739515
0.70633
0.8044
1.16614
1.28371
0.400466
0.844837
1.71688
1.03513
1.5071
0.617248
0.49429
1.38226
1.09116
0.494783
1.6958
0.719877
0.742607
0.526748
1.0909
1.64105
0.467501
1.13662
1.71853
0.678693
0.56588
1.38751
1.5535
0.495758
0.529542
1.20101
1.64269
0.629899
1.35051
0.645968
0.528996
1.47566
0.990347
0.905551
1.68313
0.419569
0.630793
0.973652
1.3522
1.04375
0.507866
0.567565
1.5682
1.35788
1.06994
0.588822
1.55153
0.788897
0.554074
0.653642
1.17935
1.61533
1.62506
0.413942
1.2598
0.700554
0.47046
1.69089
0.676186
1.16531
0.397083
1.72947
0.901472
0.970255
0.586035
1.50261
0.640077
1.27361
1.26841
0.574305
0.599447
1.55948
0.601317
1.51212
0.636098
1.25284
0.424528
0.880005
1.02409
1.66975
0.637159
0.952069
1.28847
1.11149
0.975752
0.628658
1.3776
1.02156
1.58436
0.484268
0.866347
1.06337
1.45729
1.16725
0.817593
0.555461
1.49587
1.24026
0.648433
0.61881
0.69621
0.776795
1.2863
1.24946
1.16516
0.57206
1.43602
0.824075
0.741092
1.11598
0.623006
1.51975
0.632791
0.437515
1.46037
1.4716
1.77181
0.743822
1.00741
0.476167
0.574066
1.02449
0.84514
1.55442
0.582159
1.0391
0.823978
1.5531
0.433491
1.64758
0.844515
1.07244
1.49364
1.25057
0.647087
0.611738
0.439088
1.63719
1.09374
0.827983
1.27836
0.594783
0.772196
1.35599
0.598455
0.675555
1.28317
1.44601
1.54265
0.712414
1.27698
0.467118
1.46055
0.447663
1.45421
0.638973
0.476908
1.01406
0.758681
1.75018
1.15518
0.439706
0.781305
1.62259
1.58815
0.511709
0.936226
0.961471
1.28443
0.580633
0.767822
1.3688
0.495272
0.617441
1.51527
1.37279
1.0967
0.497406
1.69354
0.714205
0.422334
1.23549
1.63191
0.709759
0.612791
0.674817
1.26465
1.45181
0.401351
0.891484
1.71275
0.992692
1.35252
0.726632
1.3504
0.573011
0.720701
0.580636
1.3678
1.33406
1.09478
0.850698
0.531603
1.52018
1.47226
0.449878
1.454
0.625541
1.10101
0.636497
1.49667
0.764632
0.469325
1.02865
1.75247
0.74933
1.59083
0.489614
1.02367
0.894413
1.58314
0.493414
1.04321
0.879071
0.751187
0.683127
1.13603
1.43236
1.59067
0.511642
0.947272
0.94834
0.867139
0.527934
1.53381
1.06827
0.735996
1.40786
0.706483
1.1552
0.873196
1.50643
0.552358
1.06512
1.0455
1.53723
0.53191
0.882825
0.474822
1.585
1.10914
0.828755
0.674821
0.821024
1.08171
1.41394
1.72561
0.9736
0.893346
0.4057
0.439274
1.34034
1.56829
0.65291
0.697064
0.450102
1.57299
1.279
0.952177
0.940814
1.68485
0.420827
1.44638
0.552225
1.20041
0.799745
0.475651
1.4935
1.3471
0.68331
0.556379
1.43322
1.21594
0.793046
0.459745
1.66918
0.990472
0.880105
0.782957
1.59415
0.455921
1.16509
0.828934
1.1432
1.47652
0.548791
1.17266
0.658146
1.31729
0.85709
1.48272
0.465899
1.41959
0.632846
0.619895
1.70513
1.19961
0.477639
0.594711
0.454643
1.46519
1.48831
0.487581
1.04521
0.740295
1.72759
1.75595
0.740186
0.44412
1.05882
0.535087
1.33193
0.517005
1.61813
0.947862
0.445041
0.946496
1.65929
1.58046
0.532018
0.915394
0.970067
1.73366
0.457947
0.680346
1.1286
0.546685
0.62692
1.51643
1.31149
1.55217
0.48575
0.561788
1.40334
1.14312
0.652804
1.47984
0.726429
1.12999
1.63094
0.702154
0.539095
1.39533
0.685678
1.20371
0.725194
1.25547
0.797207
0.627726
1.32057
0.671192
1.2265
0.646438
1.45985
0.805039
1.54936
1.15246
0.490869
1.56521
0.984879
0.921301
0.525615
1.05632
1.62968
0.449916
0.862187
0.637682
1.00312
0.911815
1.44332
1.19355
0.663361
1.47117
0.675816
1.55092
0.912256
1.00048
0.533722
0.640346
1.0304
0.892605
1.43147
0.868142
0.663203
1.34569
1.11876
0.802148
1.5145
1.16844
0.512161
0.880577
0.506938
1.56407
1.04633
0.406091
0.893615
1.75591
0.94171
1.54056
0.628962
1.38363
0.44762
0.407462
1.01052
1.72838
0.852354
0.658891
1.59133
0.420526
1.33044
0.645037
1.65893
0.432356
1.27261
0.646998
1.00411
1.44076
0.901641
0.552507
1.68018
1.19679
0.569735
0.550654
0.564208
1.24936
1.64029
0.700821
1.12486
1.66531
0.511567
0.533487
1.29293
1.66325
0.505858
1.33925
1.45256
0.663245
0.546816
1.08333
0.545186
1.61478
0.7573
0.614347
1.33955
1.52834
0.51852
0.550126
0.987437
0.888957
1.57143
1.36655
0.744318
1.32115
0.569944
1.35299
0.749033
1.31635
0.584161
1.0434
0.877372
0.469334
1.60862
0.899435
0.34783
1.69039
1.0619
0.592544
1.57856
1.35866
0.47024
1.52861
1.27305
0.579812
0.620651
0.742877
1.40198
0.547493
1.30875
0.678159
1.15947
1.59992
0.564574
0.964743
0.932253
1.4835
0.614899
0.91243
0.982648
1.482
0.618517
0.574703
1.00495
0.867963
1.5497
0.87593
1.00383
1.53101
0.586389
0.614742
1.23887
1.22556
0.854962
0.784505
0.70555
1.37559
1.13537
0.612688
1.22627
1.56868
0.594434
0.923829
1.52869
0.969066
0.575408
0.469694
1.51297
1.33728
0.679723
1.46085
0.768678
1.11037
0.657868
1.41007
0.670126
0.710283
1.21726
1.43023
0.747047
1.28825
0.534426
1.67586
0.892934
0.446159
0.984526
1.21376
0.624307
0.595899
1.56851
1.38541
0.681982
1.21543
0.726206
1.23642
0.476491
0.622913
1.66955
0.796319
1.05553
0.544619
1.60326
0.684787
1.35923
0.546474
1.41144
0.500387
0.54816
1.36745
1.58676
0.544631
1.29126
1.64345
0.519321
1.16239
1.72278
0.469216
0.646988
1.5976
0.523689
0.981312
0.895657
0.88034
0.663251
1.37728
1.07144
0.890251
0.51336
1.5636
1.03081
0.937627
1.52444
0.957493
0.577181
0.709321
1.41546
0.702898
1.17936
1.75029
0.911507
0.401137
0.934197
1.61903
0.415543
0.678638
1.28738
0.726133
1.51223
0.627575
1.13551
0.6612
1.04642
1.41339
0.870475
0.783734
1.26475
0.716156
1.26754
0.526471
0.840037
1.11433
1.51663
1.50006
0.703774
1.15573
0.64247
0.945645
0.537854
1.56594
0.948129
1.24366
1.34393
0.753184
0.66916
1.44865
0.719094
0.677303
1.15896
0.602659
1.3585
1.53547
0.504129
1.09817
0.815198
0.422693
1.66201
0.602135
1.33899
1.54588
0.513592
1.52573
1.04066
0.887161
0.543167
0.496011
1.6881
0.695941
1.1223
0.689266
0.502111
1.13666
1.67477
1.17658
0.610633
1.54601
0.669009
1.18725
0.622537
1.53013
0.663113
0.503782
1.15174
1.66841
0.679018
0.615259
0.938502
1.13073
1.29299
1.62471
0.56523
1.24302
0.568615
0.963208
1.57949
0.531696
0.923318
1.69796
0.398531
1.12869
0.773211
1.45698
0.947583
0.63204
0.959064
0.900722
0.386517
1.72165
0.989644
1.58011
0.63892
0.44172
1.33982
1.4694
0.69635
1.34395
0.490243
1.64836
0.480296
0.991575
0.879154
0.732728
0.752265
1.15688
1.36868
0.630349
1.24945
0.689396
1.43591
1.42389
0.697176
1.23806
0.646614
1.25948
0.742751
0.647833
1.35785
1.10819
0.569788
0.85325
1.46509
0.733449
0.765694
1.18951
1.36744
0.575286
1.13092
1.44937
0.84078
0.610944
0.85397
1.50661
1.02557
0.638141
1.06053
0.821613
1.47572
1.19328
0.515422
1.64978
0.644859
0.645565
1.06472
0.824731
1.46112
0.777424
1.23151
1.45797
0.53205
0.793466
0.424951
1.65291
1.12721
0.72815
0.520551
1.65279
1.10013
0.635498
1.34855
1.49497
0.522123
0.58816
1.22971
0.79458
1.38687
1.14104
1.58635
0.699129
0.575214
1.15499
1.57617
0.684831
0.586018
0.679446
1.52005
0.629501
1.17391
1.69709
0.404757
1.10683
0.789517
0.697273
0.563978
1.60175
1.13882
0.574499
1.18192
0.817426
1.4238
0.574959
0.633502
1.51091
1.28248
1.3604
0.666024
1.23913
0.745083
1.39556
1.3412
0.566536
0.699375
1.64786
0.868605
0.997602
0.485546
1.35344
0.693216
1.45964
0.493787
0.539019
1.17995
1.63331
0.650547
0.59391
1.2778
1.57249
0.556895
0.670782
0.910444
1.39021
1.03877
1.43525
0.751023
1.28241
0.531355
0.834269
0.618495
1.50197
1.04122
1.05254
1.5776
0.804164
0.564841
0.720773
1.56504
0.58903
1.12645
0.652744
1.69119
0.473722
1.18532
1.59111
0.554055
1.34083
0.515289
0.597903
1.36142
0.727771
1.31683
1.33688
0.595201
1.32877
0.742736
1.43027
0.523946
0.731676
1.31467
1.50603
0.986876
0.601413
0.902232
1.27022
0.612808
0.785419
1.33305
0.774029
1.42716
1.11606
0.680994
0.682744
1.29899
1.43267
0.588977
1.28102
0.644067
0.7691
1.31284
0.764007
1.56292
0.583407
1.08962
1.2957
0.771748
0.619216
1.31682
0.598956
0.845587
1.52633
1.02578
0.922646
0.674694
0.99925
1.40363
0.734392
0.75453
1.25082
1.33536
1.53696
0.776753
1.19675
0.487714
1.60981
1.17037
0.446254
0.771863
1.32937
1.31487
0.611427
0.748656
1.29415
1.34792
0.620005
0.743579
0.91865
1.54112
0.54365
0.993041
0.935598
1.5411
0.966083
0.554299
1.52655
0.937924
0.96537
0.566764
0.586704
1.13086
1.43248
0.846044
1.51213
0.922607
0.988432
0.57314
0.589201
1.68806
1.22915
0.496069
0.526563
1.29405
0.535115
1.64634
1.50479
1.00401
0.879411
0.60796
1.00408
0.668973
1.42344
0.920338
0.860072
0.438902
1.64711
1.05179
1.41283
0.626044
1.53058
0.432681
1.76388
0.99647
0.81278
0.424794
0.664853
1.39275
1.46922
0.473379
1.01079
0.467621
0.833743
1.68762
0.674808
1.37364
0.479285
1.47227
0.469968
1.00338
1.67457
0.851665
1.69395
0.655313
0.463065
1.19091
1.34896
0.545814
1.59155
0.515069
1.59084
0.523881
0.573995
1.31116
0.592365
1.25385
1.3671
0.786927
1.52982
1.04305
0.826791
0.598343
0.897061
1.36879
0.667776
1.06565
1.07776
0.578426
1.47305
0.867057
0.694349
1.33211
0.481507
1.4919
0.982872
0.465769
1.65667
0.894309
0.998705
0.872334
0.530053
1.5976
0.414028
0.833578
1.68445
1.06557
0.41238
1.69017
1.02821
0.86697
1.60685
0.478302
1.01822
0.894952
1.26616
0.772776
1.3893
0.572198
0.507184
0.718917
1.10094
1.67492
0.584141
1.2407
0.592076
1.58492
1.50879
0.624156
1.36052
0.507352
1.25274
0.595472
0.583349
1.57016
0.799749
1.04992
0.532814
1.61753
1.39573
0.842932
0.608408
1.14856
1.41889
0.861755
1.10623
0.608091
0.533803
0.681399
1.37452
1.41184
0.531364
1.41237
1.33491
0.721839
1.38824
0.898013
1.04854
0.664525
0.850696
1.45391
1.04601
0.644008
0.870933
1.4643
1.02218
0.637171
0.766022
0.419954
1.15846
1.6544
0.509701
1.64689
1.04033
0.803259
0.810457
1.15409
1.52105
0.511842
0.550814
1.01253
1.52743
0.90617
0.520143
0.791027
1.19358
1.49304
0.563621
1.00891
1.51465
0.908909
1.13149
1.53725
0.822564
0.506078
1.5396
1.11055
0.837461
0.509874
1.47454
0.935665
0.687057
0.916616
0.475129
1.1561
1.56884
0.797864
1.19873
1.65141
0.415666
0.733556
0.402437
1.70966
0.859984
1.02566
1.17899
0.670284
0.69471
1.45988
0.665118
0.623598
1.24547
1.4697
1.40316
0.672253
0.510279
1.41513
0.538814
1.62067
0.564712
1.27607
1.52663
0.894066
0.989378
0.586672
1.69161
0.880242
0.412209
1.01421
0.516336
1.57426
1.32859
0.581349
0.741247
0.781595
1.24177
1.39786
1.33089
0.59515
1.55409
0.520436
0.554006
0.77625
1.06994
1.59988
0.55463
1.4285
0.678617
1.34036
0.603986
1.15773
1.55356
0.686737
1.25017
0.731001
0.649778
1.3769
1.44131
0.675338
0.686836
1.2021
1.46354
0.700369
1.1697
0.670247
1.54334
0.59378
1.25179
0.613008
0.663402
1.17167
1.59344
0.573682
1.02407
0.477745
0.762296
1.73591
1.4595
1.44629
0.45605
0.639335
1.29333
0.580504
0.538275
1.58826
0.951329
0.590355
0.951126
1.50346
0.420349
0.893423
1.00546
1.67921
1.40467
0.525745
0.682992
1.38766
1.38775
0.690524
0.519389
1.40334
0.808893
1.62484
1.04119
0.524919
1.62611
0.827184
1.02741
0.51894
0.681817
0.977527
1.51004
0.867488
0.529407
1.51249
1.33216
0.627059
1.50401
0.97192
0.59844
0.921873
1.64891
0.525023
0.710994
1.11737
1.55813
0.597845
1.24393
0.602159
0.975414
1.56773
0.929049
0.524935
1.64926
0.823025
0.501986
1.02601
1.47782
0.785135
1.09227
0.644047
1.42112
0.502679
1.39743
0.679374
1.25546
0.606013
0.789125
1.34932
1.67541
0.668641
0.491777
1.16749
1.55779
0.695509
0.597381
1.15116
1.02976
0.52623
1.54892
0.892163
0.638294
1.47984
1.0768
0.802493
1.58927
0.644735
1.191
0.577408
0.484819
1.63522
0.902801
0.976369
1.47493
0.494119
1.31842
0.712358
0.634867
1.57544
0.590948
1.20103
1.30469
1.32893
0.605257
0.764153
0.516632
0.796896
1.04679
1.63999
1.39124
0.516196
0.672777
1.42094
0.656915
0.767049
1.32692
1.25987
1.05454
0.867376
1.60493
0.47156
0.885642
1.48593
1.00247
0.621731
0.419071
0.857523
1.67519
1.0462
0.580471
1.22023
1.59156
0.609946
0.848706
1.079
0.466974
1.60322
0.839098
1.09399
0.472721
1.5924
0.660381
0.779966
1.26247
1.30764
1.40563
0.775113
1.12726
0.69133
1.00759
1.63684
0.85421
0.500699
1.40112
0.751276
1.14518
0.704285
1.50284
0.580821
0.98838
0.923768
0.944177
1.50267
0.590303
0.959126
0.852539
1.44109
1.04875
0.651324
0.864899
0.626661
1.02272
1.48127
0.59674
0.661216
1.2766
1.4686
1.36455
0.69535
0.503935
1.43605
1.44114
0.662214
0.685291
1.21622
1.37795
0.690459
1.42306
0.509057
1.63621
0.839551
1.01702
0.507058
0.91584
0.969089
0.460795
1.65332
0.703849
1.3093
0.478426
1.50799
0.628961
0.845676
1.48465
1.0368
1.65966
0.787142
0.504888
1.04882
1.66
0.770848
1.06023
0.509634
1.43442
0.66157
1.40111
0.503462
1.45018
0.65517
1.38824
0.507437
1.46176
0.661464
1.21031
0.671045
1.22581
0.720835
1.39364
0.667639
0.650601
1.43137
1.03557
0.875039
1.0085
0.905202
0.511099
1.57333
)
;

boundaryField
{
    insideCircle
    {
        type            zeroGradient;
    }
    outsideCircle
    {
        type            zeroGradient;
    }
    topAndBottom
    {
        type            empty;
    }
}


// ************************************************************************* //
