/*--------------------------------*- C++ -*----------------------------------*\
| =========                 |                                                 |
| \\      /  F ield         | foam-extend: Open Source CFD                    |
|  \\    /   O peration     | Version:  3.0                                   |
|   \\  /    A nd           | Web:         http://www.extend-project.de       |
|    \\/     M anipulation  |                                                 |
\*---------------------------------------------------------------------------*/
FoamFile
{
    version     2.0;
    format      ascii;
    class       volSymmTensorField;
    location    "4";
    object      sigma;
}
// * * * * * * * * * * * * * * * * * * * * * * * * * * * * * * * * * * * * * //

dimensions      [0 0 0 0 0 0 0];

internalField   nonuniform List<symmTensor> 
3012
(
(-0.0310021 0.0343356 -0.00643441 -0.0344598 -0.00595153 5.39235e-19)
(0.0715686 0.0781646 0.0142628 -0.0603704 0.0100213 2.76339e-18)
(0.127325 0.00370251 -0.00616351 -0.0597235 -0.00587685 1.31185e-19)
(0.0261124 -0.0334083 0.0160995 -0.0396005 0.0118836 2.62085e-19)
(0.0815653 -0.111868 0.0469079 -0.077764 0.0773758 1.95669e-19)
(-0.0283846 0.0536629 -0.0510856 0.00045428 -0.0357929 4.70421e-19)
(0.0178985 0.168142 0.0414778 -0.0211526 0.0714553 1.52976e-17)
(0.127495 -0.0116809 -0.0517364 -0.1002 -0.0362014 1.75242e-19)
(-0.00456899 0.0774736 0.00217997 -0.0399567 -0.00212947 1.49792e-18)
(0.124384 0.0771269 -0.00850362 -0.0794363 -0.0142947 1.10437e-18)
(-0.0182998 0.00828623 -0.00712865 -0.0334906 -0.0139457 3.68407e-19)
(0.10976 0.00439534 0.00246462 -0.0583294 -0.00265454 4.15191e-21)
(0.0254707 -0.00151178 0.00488068 -0.0228967 0.00437377 9.60176e-19)
(-0.0317904 -0.0200269 -0.00346618 -0.0247097 -0.00133354 1.94752e-19)
(0.0734303 -0.0266596 -0.00325207 -0.016625 -0.00114931 8.82592e-20)
(0.0167382 -0.0427126 0.00526682 -0.0196116 0.00505028 6.71661e-20)
(0.0960656 -0.100242 0.0420432 -0.0898279 0.0681546 2.22556e-19)
(-0.0324485 0.0561606 -0.0499236 0.00393678 -0.0356603 5.23679e-19)
(0.00794519 0.162394 0.0373357 -0.0132382 0.0616202 1.26303e-17)
(0.13455 -0.00470155 -0.05055 -0.107019 -0.0360957 2.33545e-19)
(0.040059 -0.0229016 -0.00198953 -0.0249067 -0.00106478 -3.76617e-20)
(0.0155511 -0.0276178 -0.00273838 -0.0444429 -0.00176544 3.45588e-20)
(0.0549708 -0.00704288 -0.00277512 -0.029513 -0.00156896 4.50276e-20)
(0.0368538 -0.0141425 -0.00107956 -0.0484454 -0.000357474 2.14723e-19)
(0.140427 0.0157017 -0.0142219 -0.0774711 -0.00797886 2.07105e-19)
(0.0670746 0.0987179 0.0175564 -0.0650478 0.0198459 3.9131e-18)
(0.0475333 -0.0372982 0.01953 -0.0498443 0.022363 2.53513e-19)
(-0.0274115 0.0396803 -0.0142299 -0.0353652 -0.00810975 4.96969e-19)
(-0.0390933 0.0184193 0.000288436 -0.0110472 -0.00286325 4.07751e-19)
(0.0529668 -0.0140303 0.000445146 0.00318631 -0.00323515 2.85703e-20)
(-0.0210629 -0.0190148 0.00385799 -0.0106024 -0.00241699 1.2621e-19)
(0.0323943 0.0270696 0.00296653 -0.00685673 -0.00289035 7.75001e-19)
(-0.0193337 -0.0242318 0.00451922 -0.00696192 -0.00101995 1.06013e-19)
(0.046819 -0.0194154 0.000265423 0.00739583 -0.00262781 3.03425e-20)
(-0.0420058 0.00818804 6.42099e-05 -0.00705172 -0.00237249 3.28338e-19)
(0.0221916 0.0169397 0.0037004 -0.00118171 -0.00154771 7.40355e-19)
(0.072139 0.11263 0.0204019 -0.0692317 0.0221937 4.40497e-18)
(0.144166 0.0190791 -0.0155365 -0.0844506 -0.00922209 2.00631e-19)
(-0.0254841 0.0478968 -0.0155511 -0.0338277 -0.00937669 5.17018e-19)
(0.0482756 -0.0377381 0.0227177 -0.0516098 0.0249653 2.80737e-19)
(0.0169558 -0.0244089 0.00287333 -0.0156565 0.00261578 5.50533e-19)
(0.0498111 -0.0364045 -0.00213514 -0.00906648 -0.000551217 5.67508e-20)
(0.012341 -0.0433027 0.00299653 -0.0136743 0.00296421 3.25423e-20)
(-0.0212364 -0.0336538 -0.00237263 -0.019477 -0.000772124 1.11701e-19)
(-0.013582 -0.0288536 0.00545046 -0.00923774 0.000394904 1.05604e-19)
(0.0234252 0.0145473 0.00461898 -0.00524745 -0.000249508 8.26187e-19)
(-0.041939 0.00293663 -0.000280004 -0.00993496 -0.00221457 3.11211e-19)
(0.0535366 -0.0214856 -2.02418e-05 0.00285953 -0.00236192 3.94089e-20)
(-0.00725216 -0.0112606 0.00224037 0.0172954 -0.000256257 3.47e-19)
(0.0114607 -0.02651 0.000140768 0.0200235 -0.000959087 1.75645e-20)
(-0.0370709 -0.0124729 -7.21414e-05 0.00836936 -0.000940552 1.32143e-19)
(-0.0187303 -0.024026 0.00271304 0.00580614 0.000153481 4.25819e-20)
(-0.0331013 0.0298177 -0.0061279 -0.033754 -0.00524263 5.06913e-19)
(0.0662795 0.0714076 0.0132239 -0.055667 0.00943826 2.56106e-18)
(0.0252092 -0.0339136 0.0148818 -0.0380352 0.0111797 2.35002e-19)
(0.123589 0.00145071 -0.00585894 -0.0546838 -0.00516909 1.36248e-19)
(0.0100157 0.0975128 0.0215682 -0.0255786 0.0286845 4.12111e-18)
(-0.0244256 0.0221973 -0.037516 -0.00707327 -0.0325296 7.19061e-19)
(0.156036 -0.0609593 0.0220966 -0.137898 0.030979 7.68152e-20)
(0.194255 0.0145781 -0.0385079 -0.165207 -0.0329224 6.40174e-19)
(0.0112861 0.109309 0.0270762 -0.0233421 0.036777 5.47069e-18)
(-0.0252167 0.0306556 -0.0416842 -0.00483666 -0.0345727 6.81241e-19)
(0.145792 -0.0780728 0.0284184 -0.131683 0.0416772 2.19204e-19)
(0.179733 -0.000658817 -0.0424989 -0.151656 -0.0349674 4.62828e-19)
(0.0296103 0.00593905 0.00492039 -0.0300048 0.00545696 1.09536e-18)
(-0.0300388 -0.0169718 -0.00467632 -0.0303244 -0.00166135 2.0093e-19)
(0.084361 -0.0208145 -0.00452773 -0.0245316 -0.00145926 1.11988e-19)
(0.026016 -0.0418339 0.00522385 -0.0250816 0.00615369 6.89414e-20)
(0.0772455 -0.0242225 -0.004409 -0.0339123 -0.00139397 1.02513e-19)
(0.0434837 -0.0410116 0.000912977 -0.0332626 0.00267817 1.02116e-20)
(0.0352908 -0.0150316 0.00133713 -0.0428759 0.00283229 5.69351e-19)
(-0.00236432 -0.0317753 -0.00444019 -0.0435328 -0.0016427 8.61649e-20)
(0.0227226 -0.00383539 -0.000587047 0.015246 -0.00263915 7.39073e-21)
(0.0191318 0.0232599 -0.000552735 0.00659523 -0.00365734 3.20013e-19)
(-0.027781 -0.00414737 -5.9954e-05 -0.00376593 -0.00359346 6.87151e-20)
(-0.0277965 0.0211218 -0.000278517 -0.00433057 -0.00207071 2.90681e-19)
(-0.03917 0.00259741 -0.000188237 0.0132571 -0.00163726 1.5145e-19)
(-0.00106749 -0.0166041 -0.000375108 0.0311696 -0.00208296 7.77446e-21)
(-0.00828185 0.00344784 0.00081355 0.0241721 -0.00206269 2.43963e-19)
(-0.0334188 -0.0150687 0.00116934 0.0133959 -0.00192896 3.84207e-20)
(0.0358118 0.0230057 0.00617402 -0.0370807 0.00733623 1.43534e-18)
(-0.0321587 -0.0065312 -0.00617994 -0.0343877 -0.00234107 2.51238e-19)
(0.0332702 -0.0397711 0.00662056 -0.0312452 0.00828054 8.43277e-20)
(0.0995507 -0.012111 -0.00606037 -0.0338761 -0.00213692 1.42543e-19)
(0.0499896 -0.0471072 -0.00246014 -0.0174018 -0.00052848 5.93605e-20)
(0.0221011 -0.0558444 0.00111356 -0.0187942 0.0018033 4.8256e-21)
(0.0208893 -0.0420493 0.00141024 -0.0231305 0.00194444 3.42549e-19)
(-0.00874538 -0.0516658 -0.00262509 -0.0249841 -0.000772712 5.44793e-20)
(-0.0239376 -0.0203017 0.0026596 0.00396086 -0.00100793 5.91081e-20)
(0.0170623 -0.0205256 0.000134401 0.0218428 -0.00182693 1.76751e-20)
(-0.0391295 -0.00133685 3.23734e-05 0.00433883 -0.0015936 1.98715e-19)
(0.00043742 0.00189391 0.00212172 0.0152688 -0.0013678 4.137e-19)
(0.131077 0.0758251 -0.0106639 -0.0848571 -0.0152433 1.06131e-18)
(9.19373e-05 0.0803733 0.00239403 -0.0423225 -0.000938349 1.65351e-18)
(-0.0180631 0.0105267 -0.00932263 -0.0348512 -0.0149046 3.81201e-19)
(0.111866 0.0028231 0.00263127 -0.0628483 -0.0014174 5.99515e-21)
(-0.018248 0.0244074 -0.0276052 -0.0361777 -0.0182818 4.65195e-19)
(0.108744 -0.0414966 0.0110564 -0.0870425 0.0243437 1.55909e-19)
(0.0400585 0.0986723 0.0106129 -0.0581147 0.0220858 4.24743e-18)
(0.163655 0.0314344 -0.0282283 -0.112767 -0.0183163 5.81501e-19)
(0.0714206 -0.029062 -0.00388893 -0.0328121 -0.00128956 8.80348e-20)
(0.0412552 -0.0428702 0.000445875 -0.0320531 0.00194225 1.64975e-21)
(0.0350904 -0.0227268 0.000953675 -0.0418963 0.00223521 4.53747e-19)
(0.0013322 -0.036444 -0.0039346 -0.0422519 -0.00153498 7.25645e-20)
(0.014398 -0.00425649 -0.00076032 0.0194365 -0.00247089 5.40676e-21)
(-0.0281975 -0.00437978 -0.000186963 -2.91291e-05 -0.00318911 5.46324e-20)
(0.0111193 0.0194725 -0.000612267 0.0118044 -0.00322278 2.6085e-19)
(-0.0283129 0.0177224 -0.000400792 -0.000265846 -0.00191331 2.37341e-19)
(0.0518139 -0.00264717 -0.00160275 -0.0302234 -0.00135665 1.89209e-20)
(0.0395072 -0.00963954 -0.00140963 -0.0510374 -0.000961324 1.25173e-19)
(0.0241272 -0.0183824 -0.00157346 -0.0490709 -0.0015443 1.83146e-20)
(0.0438461 -0.0132913 -0.00259193 -0.0289116 -0.00215667 -6.69133e-20)
(-0.0400487 -0.00570093 -0.000850093 -0.0116238 -0.00173588 2.63605e-19)
(0.0545576 -0.0257876 -0.000549051 0.000557582 -0.00176454 4.68442e-20)
(0.0204582 0.00661291 0.00497112 -0.00689841 0.00112584 8.29093e-19)
(-0.00726902 -0.0339185 0.00570424 -0.00983638 0.00181575 9.74868e-20)
(-0.00649519 0.000991687 -0.00183571 0.0104686 -0.00217965 2.70387e-20)
(-0.0135151 -0.0011872 -0.0016813 0.00860416 -0.002078 5.28395e-21)
(-0.00748248 -0.00322814 -0.00132084 0.0125361 -0.00142926 -1.13164e-21)
(-0.0122293 0.00276815 -0.000945436 0.00812018 -0.00104932 2.98454e-20)
(0.0175791 -0.0377415 -0.00258631 -0.024047 -0.00196424 1.0652e-21)
(0.0232162 -0.03725 -0.00091137 -0.0247416 -0.000445788 5.09235e-20)
(0.0265816 -0.0381749 -0.00144822 -0.0244992 -0.000857548 -3.34439e-21)
(0.0302018 -0.0359701 -0.00247081 -0.024276 -0.00181683 1.75284e-20)
(0.145076 0.142134 0.0190022 -0.129746 0.00312089 3.68048e-18)
(0.00504212 0.0734946 -0.00713439 -0.0503703 -0.0147434 7.3457e-19)
(0.158578 0.0292917 -0.00677944 -0.110837 -0.0146515 1.18162e-19)
(0.0311237 -0.0257437 0.0219747 -0.0489552 0.00529461 4.65273e-19)
(0.249155 0.156484 -0.00642719 -0.234505 -0.0242432 1.86975e-18)
(0.00914029 -0.0156385 -0.0038526 -0.0256789 -0.0225248 1.06611e-18)
(0.193098 0.0449816 -0.00325689 -0.167569 -0.0187223 -2.6627e-19)
(0.0320281 0.0808054 -0.00346153 -0.055705 -0.0185579 7.69086e-19)
(0.138998 0.167288 0.0244595 -0.127532 0.0110413 4.48667e-18)
(0.00665984 0.0843537 -0.012514 -0.0501131 -0.0168684 6.16496e-19)
(0.0388644 -0.0261656 0.0276474 -0.0522704 0.0135384 3.94544e-19)
(0.160584 0.0411961 -0.012373 -0.115282 -0.0167087 1.04687e-19)
(0.251602 0.130272 -0.0163471 -0.235926 -0.0309849 1.43581e-18)
(0.1866 0.0282783 0.000168461 -0.163729 -0.0125211 -4.79684e-19)
(-0.0105289 -0.0111331 -0.0140154 -0.0071141 -0.0294843 1.49561e-18)
(0.0188965 0.0712219 -0.000366585 -0.0398316 -0.011719 9.69304e-19)
(0.138635 0.0131346 -0.0125609 -0.0735832 -0.00685498 1.92962e-19)
(0.0444316 -0.0359794 0.0182737 -0.0482393 0.0202308 2.44099e-19)
(-0.0281008 0.0367504 -0.012635 -0.036493 -0.00701927 4.93842e-19)
(0.0674942 0.0916793 0.0163804 -0.0642318 0.0178347 3.53016e-18)
(0.179197 0.00722637 0.00985201 -0.155377 0.00477095 -2.85588e-19)
(-0.0134416 0.0192409 -0.025645 -0.011609 -0.0321156 1.19483e-18)
(0.0157355 0.0989519 0.00867098 -0.0369386 0.00643615 1.8167e-18)
(0.232999 0.105427 -0.0273943 -0.210536 -0.0329181 1.10931e-18)
(0.169996 0.0108811 0.0054302 -0.143246 -0.00554206 -3.23332e-19)
(-0.0144079 0.00160662 -0.0176298 -0.00948869 -0.0295295 1.2059e-18)
(0.00986536 0.0841686 0.00443848 -0.0339377 -0.00433446 1.43956e-18)
(0.219303 0.111 -0.0195725 -0.198053 -0.0305609 1.32215e-18)
(-0.0132402 -0.025926 0.00208662 0.00727326 0.0009117 2.55195e-20)
(-0.0286947 -0.0235466 -0.000155272 0.0105661 -0.000348843 7.39406e-20)
(-0.0130535 -0.0262808 0.00170545 0.0176523 0.000500146 2.32698e-19)
(0.001774 -0.0323986 0.000152537 0.017672 -0.000161829 1.3041e-20)
(-0.0015209 -0.00476467 0.00257018 0.0139125 -0.000453465 4.21444e-19)
(0.0188286 -0.0241459 0.000123835 0.018311 -0.00130546 1.97812e-20)
(-0.0386388 -0.0084376 -7.50025e-05 0.00492744 -0.00121704 1.66455e-19)
(-0.0191814 -0.0241468 0.00311318 0.00331777 -1.35742e-05 5.26803e-20)
(0.0393221 -1.99847e-05 -0.0011816 -0.0200573 -0.00118596 1.99623e-20)
(0.013984 -0.0119207 -0.00115555 -0.0364712 -0.00137446 1.05438e-20)
(0.0300216 -0.0102324 -0.00282861 -0.014846 -0.00272673 -4.02382e-20)
(0.0300134 -0.00382251 -0.00159282 -0.0419076 -0.00141315 5.68441e-20)
(-0.0211825 0.0563016 -0.0237817 -0.029514 -0.0138795 4.95111e-19)
(0.0704385 0.135222 0.0266669 -0.0703256 0.0327686 6.10958e-18)
(0.14826 0.0239523 -0.0239226 -0.0976042 -0.0137718 2.25587e-19)
(0.0583995 -0.0464597 0.0297492 -0.0585216 0.0362758 2.75738e-19)
(-0.0212427 -0.0211025 0.00404214 -0.00695463 -0.00168208 1.07837e-19)
(0.0458124 -0.0169284 0.000336144 0.00784338 -0.00279845 2.73829e-20)
(-0.0408719 0.0120007 0.000172025 -0.00727348 -0.00249086 3.44283e-19)
(0.0238412 0.0199216 0.00323506 -0.0012426 -0.00215756 7.09876e-19)
(0.169142 -0.0111458 0.0115774 -0.144381 0.0100543 -1.54213e-19)
(0.215795 0.0783657 -0.0297506 -0.189037 -0.0311664 1.0132e-18)
(0.0148625 0.0945465 0.0111191 -0.0366136 0.0109588 2.32029e-18)
(-0.0147268 0.0168836 -0.0282583 -0.0149649 -0.0305581 1.03897e-18)
(0.00603607 0.0835446 0.00320679 -0.0362921 -0.00745472 1.42365e-18)
(0.155619 0.0115401 0.00436086 -0.12207 -0.0082971 -2.11619e-19)
(-0.0103862 -0.0016526 -0.0106084 -0.0176264 -0.0251002 9.35666e-19)
(0.189283 0.11109 -0.012677 -0.164505 -0.0261184 1.65783e-18)
(-0.0196053 0.0638553 -0.021363 -0.0297992 -0.0148651 5.16257e-19)
(0.0794266 0.144621 0.0275822 -0.0762617 0.0297539 5.82184e-18)
(0.14728 0.0263176 -0.0214476 -0.0973931 -0.0147642 1.52639e-19)
(0.0503629 -0.0428849 0.0308205 -0.054079 0.0330971 3.90204e-19)
(0.0758239 -0.0108822 0.000284486 -0.0399758 0.00291437 3.34794e-20)
(-0.016285 0.00406449 -0.00887079 -0.0471865 -0.00668799 1.84447e-19)
(0.0224889 0.0476561 0.000738425 -0.0512831 0.00306436 1.18897e-18)
(0.107861 0.0327263 -0.00934384 -0.0512874 -0.00652793 3.86051e-19)
(0.0137027 0.0517625 0.00035595 -0.0469696 0.00141541 1.08776e-18)
(0.101011 0.040977 -0.00825086 -0.0476628 -0.00741756 4.38895e-19)
(0.0764947 -0.00448123 -7.6955e-05 -0.0356345 0.00105127 2.38629e-20)
(-0.0172471 0.00642881 -0.00766152 -0.0435483 -0.00752079 1.96019e-19)
(0.0475929 0.00155495 -0.00166643 -0.0246968 -0.00155274 4.19113e-20)
(0.0149852 -0.0129887 -0.00160071 -0.0415171 -0.00173687 2.15409e-20)
(0.0380929 -0.0113777 -0.00257271 -0.0208903 -0.00233699 -4.56064e-20)
(0.0315483 -0.00194071 -0.0014242 -0.0450106 -0.00113354 1.34507e-19)
(0.0488866 0.0404969 0.00323127 -0.0196925 -0.00386433 9.90165e-19)
(0.0699173 -0.00976764 0.000698481 -0.00857187 -0.0040148 3.27571e-20)
(-0.0374944 0.0288024 0.000470833 -0.0174114 -0.00361047 5.37254e-19)
(-0.0187112 -0.0173434 0.00432791 -0.017033 -0.00330163 1.66813e-19)
(0.029214 0.00394522 0.00459689 -0.0310621 0.0053431 1.05311e-18)
(-0.0282766 -0.0190341 -0.00486483 -0.0313321 -0.00160565 1.86865e-19)
(0.0287705 -0.0422152 0.00483399 -0.0259684 0.00594665 6.2844e-20)
(0.0845515 -0.0208677 -0.00473325 -0.0258955 -0.00138328 1.15775e-19)
(0.0269572 0.002898 0.00532873 -0.0231324 0.00452153 1.02923e-18)
(0.0757276 -0.0253792 -0.00319059 -0.0169993 -0.00129369 8.85197e-20)
(-0.0336338 -0.0164746 -0.00342167 -0.0245177 -0.0014621 2.14883e-19)
(0.0155581 -0.0419798 0.00579739 -0.0200401 0.00527433 6.67092e-20)
(-0.0137706 -0.0381117 0.00142941 0.0157422 0.00100703 1.97716e-19)
(-0.00511991 -0.0374857 7.86974e-05 0.0163548 9.99183e-05 1.0587e-20)
(-0.0116199 -0.0313171 0.00172938 0.00908158 0.00140013 1.8255e-20)
(-0.0213571 -0.0357615 -0.00027071 0.0106769 -0.000190781 5.4401e-20)
(0.0238838 -0.0312728 -0.000997515 -0.0261668 -0.000514032 4.69947e-20)
(0.0170839 -0.0321695 -0.0025894 -0.025846 -0.00168756 5.15114e-22)
(0.0284085 -0.0271381 -0.00248439 -0.0204269 -0.00153878 1.44803e-20)
(0.0240598 -0.0298273 -0.00150617 -0.0209726 -0.00089923 -1.2801e-20)
(0.101717 -0.00977083 -0.00660225 -0.0364034 -0.00222711 1.53789e-19)
(0.0376845 -0.0389462 0.00618 -0.0332305 0.00841181 7.39102e-20)
(0.0363756 0.0238571 0.00580416 -0.0395458 0.00750044 1.43253e-18)
(-0.0297639 -0.00685587 -0.00666866 -0.0368715 -0.00243322 2.4e-19)
(-0.000198396 0.00245426 -0.00172353 0.00576193 -0.00238634 2.1096e-20)
(-0.00319552 0.00257552 -0.00106252 -0.00223142 -0.00120947 2.29635e-20)
(-0.00740106 -0.000865985 -0.00162506 0.000592461 -0.00232419 3.02273e-21)
(-0.00316892 -0.00128048 -0.00147187 0.00985179 -0.00164308 -2.04353e-21)
(-0.0229278 -0.0169885 0.00335783 -0.00990306 -0.00292687 1.23472e-19)
(-0.0381101 0.0199975 0.00031279 -0.0101614 -0.00281167 4.10918e-19)
(0.0321927 0.0272584 0.00249349 -0.00563035 -0.00333606 7.1387e-19)
(0.0500669 -0.0132006 0.000419958 0.00440055 -0.00321194 2.73326e-20)
(0.03338 -0.0256133 -0.000545591 -0.0402963 0.000329527 2.33141e-19)
(0.0125154 -0.0326617 -0.00330847 -0.0379758 -0.00184639 3.72495e-20)
(0.032209 -0.029735 -0.00116293 -0.0229736 -6.63735e-05 -1.4649e-20)
(0.0489711 -0.0215624 -0.00326988 -0.0257727 -0.00164857 4.61356e-20)
(-0.0120555 -0.00405463 -0.00156367 -0.00792705 -0.00291068 2.74368e-20)
(0.00584882 -0.00166967 -0.00144183 0.0134124 -0.00215057 -1.66987e-21)
(-0.00488483 0.00811506 -0.000940769 -0.0108094 -0.00153673 1.33487e-19)
(0.00970923 0.0112476 -0.00178 0.00673848 -0.00290579 1.05186e-19)
(0.0690204 -0.00759268 0.000739432 -0.00894305 -0.0040349 2.91598e-20)
(0.0520187 0.042412 0.00236066 -0.0209354 -0.00462286 9.30208e-19)
(-0.0201401 -0.0141594 0.00342492 -0.0177692 -0.00412918 1.6615e-19)
(-0.034612 0.0320343 0.000552649 -0.0187311 -0.00358495 5.6215e-19)
(0.0428301 -0.0231482 -0.00171278 -0.0254934 -0.000523005 -2.60481e-20)
(0.00984299 -0.0254688 -0.00334404 -0.0439793 -0.00207708 5.17026e-20)
(0.0595416 -0.00566301 -0.00340491 -0.0293625 -0.00187143 7.31006e-20)
(0.0331379 -0.0099833 -0.000876464 -0.0464126 7.7078e-05 3.06897e-19)
(0.0337574 -0.00316272 -0.00116717 -0.0477022 -0.000533469 2.31617e-19)
(0.0563762 0.0012291 -0.00253643 -0.0290851 -0.00177374 6.37445e-20)
(0.0435582 -0.0136125 -0.00215726 -0.0255409 -0.00145769 -4.21714e-20)
(0.0138441 -0.0163933 -0.00246894 -0.0451423 -0.00196631 3.42625e-20)
(0.078546 -0.00959777 0.000384953 -0.0410292 0.00284155 3.58092e-20)
(-0.0172554 0.00560949 -0.00919844 -0.0466148 -0.00729921 2.01298e-19)
(0.0205457 0.051327 0.000809138 -0.0508439 0.0030005 1.25042e-18)
(0.109831 0.036133 -0.00971726 -0.0530266 -0.00715775 4.25109e-19)
(0.0163451 0.0540792 0.000618754 -0.0489758 0.00219015 1.20806e-18)
(0.0795855 -0.0062603 0.000206013 -0.0394653 0.00193035 3.37276e-20)
(0.107312 0.0408742 -0.00926401 -0.051965 -0.00771148 4.70606e-19)
(-0.0176391 0.00699644 -0.00866906 -0.0450439 -0.00782061 2.07147e-19)
(0.160193 0.0466721 -0.0232152 -0.106832 -0.0166011 6.55006e-19)
(0.0330565 0.0900797 0.00589681 -0.0587322 0.0126617 3.03144e-18)
(-0.016152 0.0200154 -0.0224045 -0.0421987 -0.0165364 4.39648e-19)
(0.113386 -0.0226119 0.00590968 -0.0825801 0.0135868 8.7844e-20)
(-0.025861 -0.019266 0.00124215 0.014173 -0.000826993 2.24973e-20)
(-0.0362031 -0.0113175 -9.70881e-05 0.0165388 -0.000935642 8.50443e-20)
(-0.0202583 -0.0122543 0.000914075 0.0293539 -0.00104947 1.8316e-19)
(-0.0103578 -0.023284 -7.98283e-05 0.0326126 -0.00108629 8.42357e-21)
(0.0102187 -0.0452725 0.00140464 -0.00961374 0.00117947 2.40177e-19)
(0.0277053 -0.0466142 -0.00121045 -0.00437263 -0.000251358 2.94616e-20)
(0.00664155 -0.0447737 0.00137178 -0.00721088 0.00122937 9.26307e-21)
(-0.0114164 -0.045711 -0.00147073 -0.0119601 -0.000522848 4.93974e-20)
(0.0847005 -0.00518552 0.000576163 -0.0433875 0.00231843 3.21772e-20)
(0.0162732 0.0605948 0.000924448 -0.0500741 0.00252186 1.34957e-18)
(-0.0184489 0.00958759 -0.00957759 -0.0450592 -0.00873007 2.28687e-19)
(0.113701 0.0459046 -0.0102463 -0.0575507 -0.0086403 5.04474e-19)
(0.0201519 -0.0175202 0.00354674 -0.0185007 0.0031535 6.90261e-19)
(0.0587408 -0.03391 -0.00248395 -0.0117879 -0.000735419 6.81681e-20)
(0.0141603 -0.0439476 0.00375373 -0.0159305 0.00357876 4.31082e-20)
(-0.0251759 -0.0298645 -0.00271658 -0.0217443 -0.000943033 1.40085e-19)
(0.0262408 -0.00208379 0.00465654 -0.0250763 0.00456427 9.565e-19)
(-0.0298982 -0.0210563 -0.0038048 -0.0267205 -0.00133879 1.85873e-19)
(0.0755796 -0.0259374 -0.00361514 -0.0190288 -0.0011453 9.38546e-20)
(0.0201724 -0.0428806 0.00498324 -0.0212678 0.00519587 6.18e-20)
(-0.0302695 0.0382171 -0.00860895 -0.0339478 -0.00677512 5.40527e-19)
(0.0718953 0.0882026 0.0160448 -0.0629885 0.0130681 3.151e-18)
(0.0315142 -0.0340046 0.0180064 -0.0421358 0.0152302 2.69728e-19)
(0.132104 0.00882164 -0.00838475 -0.066252 -0.00665921 1.43873e-19)
(-0.0121452 -0.027678 0.00200052 0.00720417 0.00102181 2.23908e-20)
(0.00110729 -0.0350627 0.000125075 0.0164173 -6.26431e-05 1.28541e-20)
(-0.0273044 -0.0266793 -0.000199443 0.0108728 -0.000281864 6.65076e-20)
(-0.0133385 -0.0302745 0.00164078 0.0171427 0.000621442 2.20091e-19)
(0.0965016 0.187942 0.0375488 -0.0924153 0.0359927 7.57598e-18)
(-0.00652136 0.0850536 -0.0277126 -0.0311849 -0.0226067 4.88226e-19)
(0.0508879 -0.0493103 0.0416493 -0.0557381 0.0396085 2.72342e-19)
(0.150167 0.0370353 -0.0278558 -0.111757 -0.0225122 1.4739e-19)
(0.0814186 0.191137 0.0419191 -0.0799176 0.0500934 9.80078e-18)
(0.0603865 -0.0674378 0.0464158 -0.0622281 0.0543153 3.08869e-19)
(-0.00978441 0.0803647 -0.0359251 -0.0240748 -0.0264766 4.46126e-19)
(0.150724 0.0266364 -0.0361801 -0.116566 -0.0264528 1.77628e-19)
(-0.0144815 -0.0282487 0.00499483 -0.00679486 0.000374102 9.24767e-20)
(-0.0416797 0.000424459 -0.000256822 -0.00705981 -0.00195538 2.75904e-19)
(0.0180474 0.0104654 0.00423585 -0.00116511 -0.000232039 7.36918e-19)
(0.0468854 -0.0222885 1.25436e-06 0.00612733 -0.00208247 3.45048e-20)
(0.0874274 -0.00392671 0.000699744 -0.0442229 0.00183432 3.25227e-20)
(0.0135938 0.0631797 0.000999676 -0.0491864 0.00208608 1.38018e-18)
(-0.0190915 0.0103506 -0.00962375 -0.0437224 -0.00936735 2.4144e-19)
(0.114907 0.0491664 -0.0103694 -0.0595396 -0.00931889 5.5639e-19)
(0.0165439 0.00347093 0.0045051 -0.00313123 0.000796767 7.37402e-19)
(-0.0395233 -0.00684955 -0.000646369 -0.00868413 -0.00158847 2.39527e-19)
(0.0480892 -0.0262504 -0.000356713 0.0035766 -0.00162053 4.02535e-20)
(-0.00923526 -0.0324261 0.00520829 -0.00772443 0.00144663 8.02933e-20)
(-0.030121 0.0358421 -0.0101195 -0.0349842 -0.00631265 5.14461e-19)
(0.0685125 0.0869027 0.0160827 -0.0622522 0.0149086 3.22758e-18)
(0.0368524 -0.0350552 0.0180129 -0.0442895 0.0171201 2.4972e-19)
(0.134138 0.00954564 -0.00996276 -0.0679612 -0.00616205 1.64129e-19)
(0.157621 0.041872 -0.0228593 -0.101931 -0.0151635 6.14141e-19)
(0.0365901 0.0884932 0.00622346 -0.0602944 0.0140467 3.08773e-18)
(-0.0167688 0.019888 -0.0221583 -0.0437122 -0.015156 4.23901e-19)
(0.107611 -0.0259058 0.0062974 -0.0790026 0.0152371 1.03869e-19)
(0.0716589 0.0358261 -0.00461088 -0.028406 -0.00573655 3.62673e-19)
(0.0583848 -0.00122122 -0.0007871 -0.0180033 -0.00146925 7.0774e-21)
(0.00445509 0.039601 -0.000294061 -0.037442 -0.00079299 6.52254e-19)
(-0.0155418 0.00307177 -0.00409241 -0.0349962 -0.0058063 1.26572e-19)
(0.0195825 -0.0396043 0.00164789 -0.020995 0.00201961 3.71157e-19)
(0.0490293 -0.0454122 -0.00233675 -0.0159517 -0.000494565 5.49945e-20)
(-0.00984935 -0.0484665 -0.00251948 -0.023998 -0.000742426 6.32016e-20)
(0.0209777 -0.052937 0.00143916 -0.0187609 0.00198789 9.7423e-21)
(0.0289375 0.0234192 0.000400043 -0.0507289 0.00269172 8.81725e-19)
(-0.0100076 -0.00888825 -0.00695342 -0.0482653 -0.00425437 1.36677e-19)
(0.0630839 -0.0197079 -0.00017375 -0.0352756 0.00249222 1.90261e-20)
(0.0950385 0.0131 -0.00720876 -0.0426566 -0.00403338 2.3812e-19)
(-0.0188862 0.0233846 -0.0256765 -0.039112 -0.015939 4.46151e-19)
(0.102209 -0.0385099 0.0101712 -0.0807086 0.0231211 1.56063e-19)
(0.0422349 0.0941888 0.00973524 -0.0599797 0.0209815 3.9941e-18)
(0.159367 0.0309157 -0.0262508 -0.105002 -0.0159258 5.31685e-19)
(0.0582424 -0.0392935 -0.00304285 -0.0203982 -0.000730053 7.29862e-20)
(0.0233341 -0.0314973 0.00167205 -0.0266702 0.00242607 4.46302e-19)
(0.0258695 -0.0505147 0.00137115 -0.0211172 0.00230799 9.5203e-21)
(-0.0111316 -0.0434742 -0.0031691 -0.0281181 -0.000972715 7.13872e-20)
(0.00952045 -0.0138974 -0.000349475 0.0250843 -0.00233147 8.84319e-21)
(-0.0369696 0.0079227 -0.000155434 0.00718382 -0.00186279 2.01933e-19)
(0.00133265 0.00957461 0.000721076 0.0178568 -0.00249573 2.92981e-19)
(-0.0308819 -0.0132178 0.00115515 0.00687162 -0.00236396 5.10389e-20)
(0.000788644 -0.0176615 -0.000229386 0.0301229 -0.00195118 8.07295e-21)
(-0.0393644 0.00160042 -0.000116533 0.0125899 -0.00156764 1.53846e-19)
(-0.00798845 0.00184839 0.00100675 0.0232497 -0.00194199 2.6079e-19)
(-0.0319685 -0.0152113 0.00141317 0.0126041 -0.00175728 4.21575e-20)
(-0.0336975 -0.00940581 0.00026073 0.0154878 -0.00191064 1.81449e-20)
(-0.0114046 -0.010805 -0.000976186 0.0352842 -0.00211826 1.74776e-21)
(-0.0350229 0.00479589 -0.000545092 0.0148997 -0.0015818 9.80199e-20)
(-0.0142008 0.00506548 4.86728e-05 0.0287432 -0.0018762 1.33121e-19)
(0.0291408 -0.0495828 0.000444064 -0.0326409 0.00112807 1.68155e-19)
(0.051157 -0.0487876 -0.00230102 -0.0246509 -0.000674764 4.98161e-20)
(0.0295961 -0.055411 -0.0002122 -0.0246979 0.000481845 -2.50556e-20)
(0.00537709 -0.0563552 -0.00239942 -0.0332534 -0.000907728 1.47798e-20)
(-0.0109545 -0.038318 0.00149757 0.0127091 0.00113796 2.08184e-19)
(-0.00354938 -0.0403864 -3.00613e-06 0.0148711 7.93068e-05 1.1125e-20)
(-0.0106051 -0.0342703 0.00179199 0.00833851 0.00153217 2.04368e-20)
(-0.0189832 -0.0360473 -0.000359788 0.00814534 -0.000215545 5.59559e-20)
(-0.0187718 -0.0255421 0.00143054 0.0150605 0.000691456 1.74764e-20)
(-0.0283105 -0.0292746 7.19969e-05 0.0188145 -0.00014501 4.94864e-20)
(-0.0150814 -0.0329994 0.000348177 0.0254267 4.0725e-05 7.48074e-21)
(-0.0231468 -0.0332428 0.00107624 0.0259805 0.000327997 1.41708e-19)
(-0.0313098 -0.00824897 0.000328729 0.00935839 -0.00231663 3.32849e-20)
(-0.00057706 -0.00925046 -0.00082055 0.0291363 -0.00225317 3.94973e-21)
(-0.00496831 0.00967793 2.25642e-05 0.0225866 -0.00232589 1.95701e-19)
(-0.0336672 0.0087885 -0.000446877 0.0095072 -0.00172841 1.51489e-19)
(0.0299289 -0.0385587 0.00079574 -0.0342607 0.00162277 2.90574e-19)
(0.0578771 -0.041367 -0.00282806 -0.026051 -0.0008204 6.3245e-20)
(0.00147832 -0.0473026 -0.00292026 -0.0350281 -0.00105756 4.11025e-20)
(0.0321483 -0.0498999 0.000254732 -0.0261486 0.00115717 -9.18384e-21)
(-0.02024 0.0533812 0.000928126 -0.0290296 -0.00325772 8.64784e-19)
(0.0800536 0.0583755 -0.00213289 -0.0384775 -0.00844023 8.53535e-19)
(-0.0223025 -9.05408e-05 -0.00103383 -0.0270515 -0.0081503 2.35757e-19)
(0.080952 0.00202292 0.00101129 -0.0238984 -0.00384952 2.37804e-20)
(-0.0229539 0.0534583 0.00104368 -0.028456 -0.00377616 8.64067e-19)
(0.0806999 0.0611656 -0.00114256 -0.0408639 -0.00838399 9.68992e-19)
(0.0850144 0.00212184 0.00122543 -0.0260602 -0.00434551 2.83529e-20)
(-0.0208531 -0.00214875 5.31655e-05 -0.0265405 -0.00798831 2.48418e-19)
(0.107339 0.0112411 -0.0084791 -0.0491785 -0.00413106 2.64237e-19)
(0.0665403 -0.0249749 0.00105164 -0.0413695 0.00465191 3.36454e-20)
(-0.0124129 -0.00775209 -0.00824314 -0.0511415 -0.00436968 1.76262e-19)
(0.0348335 0.0281512 0.00146407 -0.0544916 0.00455734 1.11765e-18)
(-0.0211847 0.00465754 -0.00355674 -0.0305958 -0.00676178 1.44569e-19)
(-0.0062849 0.0472772 8.36417e-05 -0.0326775 -0.00142651 7.3152e-19)
(0.0636067 0.00189647 -0.00023828 -0.0167607 -0.00206365 1.34207e-20)
(0.072633 0.045468 -0.00425459 -0.0286502 -0.00677512 4.8889e-19)
(-0.0117051 -0.0302128 0.00599647 -0.0114085 0.000664574 1.16202e-19)
(-0.0422446 0.00450036 -0.000404994 -0.012393 -0.00239304 3.35958e-19)
(0.0597224 -0.0212248 -0.000125918 -0.000571937 -0.00253341 4.37616e-20)
(0.0275533 0.0178277 0.0051109 -0.00908275 -3.43473e-05 9.19794e-19)
(0.0934238 -0.00681832 0.00151589 -0.0532976 0.00434785 4.59929e-20)
(-0.0187286 0.0135604 -0.0124723 -0.0458436 -0.0106647 2.84564e-19)
(0.0202878 0.0709522 0.00176099 -0.0533182 0.00432553 1.71625e-18)
(0.127679 0.0506225 -0.0132022 -0.07006 -0.0105956 5.80878e-19)
(0.0977687 -0.00846184 0.0021007 -0.0586994 0.0054351 5.38238e-20)
(-0.0182632 0.0150804 -0.0138024 -0.0460092 -0.0114872 3.14792e-19)
(0.0225948 0.0755143 0.00230456 -0.0548202 0.00532946 1.90523e-18)
(0.134333 0.0517915 -0.0145937 -0.0767179 -0.0114393 6.1718e-19)
(-0.0029062 -0.00402175 -0.00390472 -0.0423604 -0.00367325 9.42838e-20)
(0.0524824 -0.00775964 -0.00147123 -0.0239432 -0.000758807 -1.15961e-20)
(0.0219171 0.0208081 -0.000712415 -0.0444958 -3.83319e-05 4.97817e-19)
(0.0700154 0.0177806 -0.00415708 -0.0305934 -0.00349664 1.89168e-19)
(0.06237 -0.0327213 0.00506941 -0.0458679 0.010457 9.77748e-20)
(0.0401543 0.0428515 0.00494394 -0.0530038 0.00953694 1.78418e-18)
(-0.0237087 0.00149472 -0.0107096 -0.0465365 -0.00452233 2.63847e-19)
(0.121636 0.0082007 -0.0108517 -0.0549829 -0.00428824 2.61661e-19)
(0.0242412 0.00305693 0.00539281 -0.0173516 0.0035865 9.76885e-19)
(-0.0361199 -0.0140621 -0.00251131 -0.0201509 -0.00145715 2.27766e-19)
(0.00739131 -0.0403514 0.00595763 -0.0158814 0.00434389 7.50674e-20)
(0.0679834 -0.026643 -0.00224024 -0.0102291 -0.00134026 7.39189e-20)
(0.132112 0.108767 0.00912181 -0.108619 -0.007093 2.56324e-18)
(-0.00837035 0.0670629 -0.000732609 -0.0401509 -0.0112857 9.5949e-19)
(0.139883 0.0133785 -1.53043e-05 -0.0875798 -0.0114415 -6.40345e-21)
(0.00920245 -0.0194226 0.0115338 -0.0365721 -0.00560803 4.77119e-19)
(0.059584 -0.0336367 0.00628588 -0.0461567 0.0116872 1.16241e-19)
(-0.0253639 0.00477305 -0.0109027 -0.045383 -0.00449007 2.82414e-19)
(0.0424189 0.0468309 0.00598985 -0.0528355 0.010568 1.92847e-18)
(0.123367 0.0076456 -0.0110013 -0.0555975 -0.00426629 2.42401e-19)
(0.0242602 -0.0244327 0.0149133 -0.0423463 -0.00698463 6.18647e-19)
(0.172813 0.0364685 -0.00552536 -0.135445 -0.0180239 -8.82668e-20)
(0.0223707 0.0797392 -0.00590944 -0.0574966 -0.0181153 8.11876e-19)
(0.19102 0.153899 0.0119858 -0.175254 -0.00887275 3.04526e-18)
(-0.0249523 -0.00224645 -0.00100175 -0.00613247 -0.00369832 6.12649e-20)
(-0.0206768 0.0204212 -0.000509434 -0.00739417 -0.00186067 2.74844e-19)
(0.0199039 0.022893 -0.00142717 0.00559195 -0.00371667 2.55058e-19)
(0.0197273 -0.00111461 -0.000919439 0.0139017 -0.00247748 4.01412e-21)
(-0.0307745 -0.0271405 0.000241228 0.032768 -0.000271727 4.64588e-20)