/*--------------------------------*- C++ -*----------------------------------*\
| =========                 |                                                 |
| \\      /  F ield         | foam-extend: Open Source CFD                    |
|  \\    /   O peration     | Version:  3.0                                   |
|   \\  /    A nd           | Web:         http://www.extend-project.de       |
|    \\/     M anipulation  |                                                 |
\*---------------------------------------------------------------------------*/
FoamFile
{
    version     2.0;
    format      ascii;
    class       volVectorField;
    location    "40";
    object      s;
}
// * * * * * * * * * * * * * * * * * * * * * * * * * * * * * * * * * * * * * //

dimensions      [0 1 -1 0 0 0 0];

internalField   nonuniform List<vector> 
80
(
(0.974903 0.153575 0)
(0.665669 0.107018 0)
(0.494524 0.0805315 0)
(0.402648 0.066592 0)
(0.882055 0.460887 0)
(0.600522 0.304396 0)
(0.447479 0.229229 0)
(0.368397 0.182815 0)
(0.694076 0.698634 0)
(0.472541 0.470034 0)
(0.35231 0.348917 0)
(0.287005 0.281677 0)
(0.445269 0.872763 0)
(0.302909 0.591122 0)
(0.224802 0.439536 0)
(0.181967 0.354879 0)
(0.15408 0.96509 0)
(0.104893 0.654163 0)
(0.0780325 0.486338 0)
(0.0631034 0.393691 0)
(-0.151443 0.964237 0)
(-0.102553 0.65386 0)
(-0.0763819 0.486118 0)
(-0.0618608 0.393368 0)
(-0.441821 0.869514 0)
(-0.29954 0.58967 0)
(-0.222767 0.438446 0)
(-0.1804 0.354883 0)
(-0.688766 0.689956 0)
(-0.467089 0.467939 0)
(-0.347363 0.347916 0)
(-0.281216 0.281586 0)
(-0.868133 0.443017 0)
(-0.588784 0.300488 0)
(-0.437855 0.223426 0)
(-0.354476 0.180829 0)
(-0.962432 0.152827 0)
(-0.652787 0.10367 0)
(-0.485453 0.0770726 0)
(-0.392997 0.0623663 0)
(-0.962445 -0.152234 0)
(-0.652825 -0.10325 0)
(-0.485492 -0.0767954 0)
(-0.393033 -0.0621848 0)
(-0.868198 -0.442339 0)
(-0.58891 -0.300036 0)
(-0.437969 -0.223131 0)
(-0.354563 -0.180641 0)
(-0.688913 -0.689112 0)
(-0.467296 -0.467421 0)
(-0.347537 -0.347609 0)
(-0.281367 -0.281411 0)
(-0.442125 -0.868422 0)
(-0.29989 -0.589029 0)
(-0.223071 -0.438034 0)
(-0.180608 -0.354606 0)
(-0.151971 -0.96273 0)
(-0.103061 -0.65293 0)
(-0.0767 -0.485561 0)
(-0.0621413 -0.393123 0)
(0.153197 -0.962836 0)
(0.103954 -0.65292 0)
(0.0771028 -0.485571 0)
(0.0623809 -0.393064 0)
(0.443537 -0.868854 0)
(0.300881 -0.588843 0)
(0.223597 -0.437868 0)
(0.181015 -0.354633 0)
(0.69083 -0.690268 0)
(0.468882 -0.467151 0)
(0.34803 -0.347772 0)
(0.281529 -0.281071 0)
(0.871703 -0.444925 0)
(0.591184 -0.299349 0)
(0.439241 -0.222153 0)
(0.355989 -0.179235 0)
(0.970372 -0.162383 0)
(0.658298 -0.101357 0)
(0.490095 -0.077238 0)
(0.39633 -0.0569989 0)
)
;

boundaryField
{
    up
    {
        type            myHeatFlux;
        alpha           uniform 1;
        Theta_wall      uniform 1;
        value           nonuniform List<vector> 
20
(
(0.371573 0.0612294 0)
(0.370161 0.18447 4.58606e-17)
(0.260446 0.25595 0)
(0.165606 0.323114 -4.02625e-17)
(0.0574694 0.35882 0)
(-0.0564205 0.35861 0)
(-0.16449 0.323535 4.02479e-17)
(-0.2564 0.256715 0)
(-0.32319 0.164856 -4.02322e-17)
(-0.358308 0.0568536 0)
(-0.358341 -0.0567 0)
(-0.323267 -0.164698 4.02319e-17)
(-0.256534 -0.256571 0)
(-0.164671 -0.323306 -4.02344e-17)
(-0.0566631 -0.358417 0)
(0.0568658 -0.35836 0)
(0.164979 -0.323254 4.02447e-17)
(0.256473 -0.256082 0)
(0.323035 -0.162772 -4.0112e-17)
(0.361404 -0.0523563 0)
)
;
    }
    hole
    {
        type            myHeatFlux;
        alpha           uniform 1;
        Theta_wall      uniform 4;
        value           nonuniform List<vector> 
20
(
(1.47894 0.233443 -0)
(1.4036 0.724702 0)
(1.02527 1.02921 0)
(0.660327 1.2951 -0)
(0.228529 1.43665 -0)
(-0.226477 1.43653 -0)
(-0.659135 1.29561 -0)
(-1.027 1.02799 -0)
(-1.29411 0.659952 -0)
(-1.43447 0.227525 -0)
(-1.43439 -0.227016 -0)
(-1.29392 -0.659259 -0)
(-1.0268 -1.02696 0)
(-0.659121 -1.29418 0)
(-0.226818 -1.43476 0)
(0.227845 -1.43488 0)
(0.660149 -1.29426 0)
(1.02767 -1.02723 0)
(1.28875 -0.657327 -0)
(1.44388 -0.235953 -0)
)
;
    }
    frontAndBack
    {
        type            empty;
    }
}


// ************************************************************************* //
