/*--------------------------------*- C++ -*----------------------------------*\
| =========                 |                                                 |
| \\      /  F ield         | foam-extend: Open Source CFD                    |
|  \\    /   O peration     | Version:  3.0                                   |
|   \\  /    A nd           | Web:         http://www.extend-project.de       |
|    \\/     M anipulation  |                                                 |
\*---------------------------------------------------------------------------*/
FoamFile
{
    version     2.0;
    format      ascii;
    class       volScalarField;
    location    "25";
    object      p;
}
// * * * * * * * * * * * * * * * * * * * * * * * * * * * * * * * * * * * * * //

dimensions      [0 0 0 0 0 0 0];

internalField   nonuniform List<scalar> 
1920
(
-0.235288
-0.212414
-0.200119
-0.185582
-0.178518
-0.168926
-0.164964
-0.158541
-0.156497
-0.152175
-0.151288
-0.148338
-0.148044
-0.145896
-0.14571
-0.143852
-0.143292
-0.1412
-0.13973
-0.136813
-0.234289
-0.211512
-0.199268
-0.184793
-0.177759
-0.168207
-0.164262
-0.157866
-0.15583
-0.151527
-0.150643
-0.147706
-0.147413
-0.145274
-0.145089
-0.143238
-0.14268
-0.140598
-0.139133
-0.136229
-0.23227
-0.209689
-0.197551
-0.183201
-0.176228
-0.166759
-0.162848
-0.156507
-0.154489
-0.150223
-0.149347
-0.146435
-0.146145
-0.144024
-0.143841
-0.142006
-0.141454
-0.139389
-0.137937
-0.135058
-0.229273
-0.206983
-0.195002
-0.180837
-0.173953
-0.164606
-0.160745
-0.154486
-0.152494
-0.148283
-0.147418
-0.144543
-0.144257
-0.142163
-0.141982
-0.140171
-0.139626
-0.137587
-0.136154
-0.133312
-0.225277
-0.203377
-0.191604
-0.177686
-0.170922
-0.161739
-0.157945
-0.151796
-0.149838
-0.1457
-0.144851
-0.142026
-0.141745
-0.139688
-0.139511
-0.137731
-0.137195
-0.135193
-0.133785
-0.130992
-0.220334
-0.198913
-0.187399
-0.173786
-0.16717
-0.158188
-0.154478
-0.148463
-0.146548
-0.142501
-0.14167
-0.138907
-0.138632
-0.13662
-0.136446
-0.134706
-0.134182
-0.132223
-0.130846
-0.128115
-0.21443
-0.193584
-0.182378
-0.16913
-0.162692
-0.153951
-0.15034
-0.144487
-0.142623
-0.138685
-0.137876
-0.135188
-0.13492
-0.132962
-0.132793
-0.131099
-0.130589
-0.128683
-0.127343
-0.124685
-0.207625
-0.18744
-0.17659
-0.163762
-0.157528
-0.149064
-0.145567
-0.1399
-0.138095
-0.134282
-0.133498
-0.130895
-0.130636
-0.12874
-0.128576
-0.126936
-0.126442
-0.124596
-0.123299
-0.120725
-0.199914
-0.180479
-0.170032
-0.157681
-0.151678
-0.143529
-0.140162
-0.134705
-0.132968
-0.129296
-0.128542
-0.126036
-0.125787
-0.123961
-0.123804
-0.122224
-0.121749
-0.119972
-0.118722
-0.116244
-0.191363
-0.172759
-0.162759
-0.150936
-0.14519
-0.137389
-0.134166
-0.128942
-0.127279
-0.123764
-0.123043
-0.120643
-0.120404
-0.118657
-0.118506
-0.116994
-0.116539
-0.114837
-0.113642
-0.111269
-0.181977
-0.164286
-0.154776
-0.143533
-0.138069
-0.130651
-0.127587
-0.122619
-0.121038
-0.117696
-0.117009
-0.114728
-0.114501
-0.112839
-0.112696
-0.111258
-0.110825
-0.109207
-0.10807
-0.105815
-0.171828
-0.155123
-0.146143
-0.135527
-0.130368
-0.123363
-0.12047
-0.115779
-0.114286
-0.11113
-0.110481
-0.108327
-0.108112
-0.106543
-0.106408
-0.10505
-0.104641
-0.103114
-0.10204
-0.0999101
-0.160926
-0.145282
-0.136872
-0.12693
-0.122098
-0.115538
-0.112828
-0.108435
-0.107037
-0.104081
-0.103474
-0.101456
-0.101256
-0.0997862
-0.0996594
-0.0983882
-0.0980053
-0.0965748
-0.0955691
-0.0935743
-0.149352
-0.134832
-0.127027
-0.1178
-0.113316
-0.107227
-0.104712
-0.100635
-0.0993367
-0.0965934
-0.09603
-0.0941573
-0.0939709
-0.092607
-0.0924892
-0.0913093
-0.0909539
-0.0896262
-0.0886927
-0.0868414
-0.137122
-0.123792
-0.116626
-0.108154
-0.104037
-0.0984474
-0.0961384
-0.0923955
-0.0912039
-0.0886854
-0.0881683
-0.0864491
-0.0862781
-0.085026
-0.084918
-0.0838348
-0.0835086
-0.0822897
-0.0814328
-0.079733
-0.124321
-0.112235
-0.105738
-0.098057
-0.0943242
-0.089256
-0.0871623
-0.0837686
-0.0826881
-0.0804046
-0.0799355
-0.0783767
-0.0782215
-0.0770862
-0.0769881
-0.0760059
-0.0757101
-0.0746049
-0.0738279
-0.0722868
-0.110972
-0.100183
-0.0943843
-0.0875283
-0.0841966
-0.0796727
-0.0778041
-0.074775
-0.0738106
-0.0717725
-0.071354
-0.0699627
-0.0698243
-0.068811
-0.0687236
-0.067847
-0.067583
-0.0665965
-0.0659031
-0.0645275
-0.0971633
-0.0877172
-0.0826395
-0.0766364
-0.073719
-0.0697579
-0.0681216
-0.0654692
-0.0646247
-0.06284
-0.0624734
-0.0612551
-0.0611337
-0.0602464
-0.0601697
-0.0594021
-0.0591709
-0.0583071
-0.0576999
-0.0564954
-0.0829224
-0.074861
-0.0705278
-0.0654047
-0.0629151
-0.0595348
-0.0581385
-0.055875
-0.0551544
-0.0536315
-0.0533188
-0.0522792
-0.0521758
-0.0514186
-0.0513533
-0.0506983
-0.050501
-0.0497639
-0.0492457
-0.0482179
-0.0683429
-0.0616987
-0.0581271
-0.0539045
-0.0518525
-0.0490663
-0.0479153
-0.0460496
-0.0454556
-0.0442002
-0.0439424
-0.0430854
-0.043
-0.0423759
-0.0423219
-0.041782
-0.0416193
-0.0410117
-0.0405846
-0.0397374
-0.0534542
-0.0482577
-0.0454644
-0.042162
-0.0405572
-0.0383781
-0.0374781
-0.036019
-0.0355545
-0.0345728
-0.0343713
-0.0337011
-0.0336345
-0.0331464
-0.0331044
-0.0326821
-0.032555
-0.0320798
-0.0317458
-0.0310832
-0.0383532
-0.0346245
-0.0326201
-0.0302505
-0.0290988
-0.0275352
-0.0268892
-0.0258422
-0.0255088
-0.0248043
-0.0246595
-0.0241785
-0.0241306
-0.0237803
-0.02375
-0.023447
-0.0233556
-0.0230147
-0.0227749
-0.0222995
-0.0230714
-0.0208287
-0.0196231
-0.0181978
-0.0175052
-0.0165648
-0.0161764
-0.0155467
-0.0153463
-0.0149226
-0.0148357
-0.0145465
-0.0145177
-0.0143071
-0.014289
-0.0141068
-0.0140519
-0.0138469
-0.0137027
-0.0134167
-0.00770739
-0.00695801
-0.00655514
-0.00607886
-0.00584735
-0.00553305
-0.00540315
-0.00519267
-0.00512558
-0.00498393
-0.00495476
-0.00485804
-0.00484833
-0.00477789
-0.00477173
-0.00471079
-0.00469239
-0.00462385
-0.00457565
-0.00448013
0.00770621
0.00695684
0.00655398
0.00607773
0.00584624
0.00553197
0.0054021
0.00519165
0.00512459
0.00498297
0.00495382
0.00485713
0.00484744
0.00477702
0.00477088
0.00470996
0.00469157
0.00462303
0.00457484
0.0044793
0.0230702
0.0208275
0.019622
0.0181967
0.0175041
0.0165637
0.0161753
0.0155457
0.0153453
0.0149216
0.0148347
0.0145455
0.0145168
0.0143062
0.0142881
0.0141059
0.0140511
0.013846
0.0137019
0.0134159
0.038352
0.0346233
0.032619
0.0302493
0.0290977
0.0275341
0.0268882
0.0258412
0.0255078
0.0248033
0.0246586
0.0241776
0.0241297
0.0237794
0.0237491
0.0234461
0.0233548
0.0230138
0.0227741
0.0222987
0.053453
0.0482565
0.0454632
0.0421608
0.040556
0.038377
0.037477
0.036018
0.0355535
0.0345718
0.0343703
0.0337002
0.0336336
0.0331455
0.0331035
0.0326813
0.0325541
0.032079
0.031745
0.0310823
0.0683417
0.0616975
0.0581259
0.0539034
0.0518514
0.0490652
0.0479142
0.0460486
0.0454545
0.0441992
0.0439414
0.0430844
0.0429991
0.0423749
0.042321
0.0417811
0.0416184
0.0410109
0.0405837
0.0397365
0.0829212
0.0748598
0.0705266
0.0654035
0.062914
0.0595336
0.0581374
0.0558739
0.0551534
0.0536305
0.0533178
0.0522782
0.0521748
0.0514177
0.0513524
0.0506974
0.0505001
0.049763
0.0492448
0.0482169
0.0971621
0.087716
0.0826383
0.0766352
0.0737178
0.0697567
0.0681204
0.0654681
0.0646236
0.0628389
0.0624724
0.0612541
0.0611327
0.0602454
0.0601688
0.0594012
0.0591699
0.0583062
0.0576989
0.0564945
0.11097
0.100182
0.0943831
0.0875271
0.0841954
0.0796715
0.0778029
0.0747738
0.0738095
0.0717714
0.0713529
0.0699617
0.0698233
0.06881
0.0687226
0.067846
0.067582
0.0665956
0.0659021
0.0645265
0.12432
0.112234
0.105737
0.0980558
0.094323
0.0892548
0.0871611
0.0837674
0.0826869
0.0804034
0.0799344
0.0783756
0.0782204
0.0770851
0.076987
0.0760049
0.075709
0.0746038
0.0738269
0.0722858
0.137121
0.12379
0.116625
0.108153
0.104036
0.0984462
0.0961372
0.0923943
0.0912027
0.0886843
0.0881672
0.086448
0.086277
0.0850249
0.0849169
0.0838337
0.0835075
0.0822886
0.0814317
0.0797319
0.149351
0.134831
0.127026
0.117799
0.113314
0.107226
0.104711
0.100634
0.0993355
0.0965922
0.0960288
0.0941562
0.0939697
0.0926059
0.092488
0.0913082
0.0909527
0.089625
0.0886916
0.0868403
0.160925
0.14528
0.136871
0.126928
0.122097
0.115536
0.112827
0.108434
0.107035
0.10408
0.103473
0.101455
0.101254
0.099785
0.0996582
0.098387
0.0980041
0.0965736
0.0955679
0.0935731
0.171826
0.155122
0.146142
0.135526
0.130367
0.123362
0.120468
0.115778
0.114284
0.111128
0.11048
0.108326
0.108111
0.106542
0.106407
0.105049
0.10464
0.103113
0.102039
0.0999089
0.181976
0.164284
0.154775
0.143532
0.138068
0.13065
0.127585
0.122618
0.121036
0.117694
0.117008
0.114726
0.114499
0.112838
0.112694
0.111257
0.110824
0.109206
0.108069
0.105813
0.191362
0.172758
0.162757
0.150934
0.145189
0.137387
0.134165
0.128941
0.127278
0.123763
0.123041
0.120642
0.120403
0.118655
0.118504
0.116993
0.116537
0.114836
0.11364
0.111268
0.199912
0.180477
0.17003
0.157679
0.151677
0.143527
0.140161
0.134704
0.132967
0.129295
0.128541
0.126035
0.125785
0.12396
0.123802
0.122223
0.121747
0.11997
0.118721
0.116243
0.207623
0.187438
0.176588
0.16376
0.157526
0.149062
0.145566
0.139898
0.138094
0.13428
0.133497
0.130894
0.130634
0.128738
0.128575
0.126934
0.12644
0.124595
0.123297
0.120723
0.214429
0.193582
0.182377
0.169129
0.162691
0.153949
0.150338
0.144485
0.142622
0.138683
0.137875
0.135186
0.134919
0.132961
0.132792
0.131098
0.130588
0.128681
0.127341
0.124683
0.220332
0.198912
0.187397
0.173784
0.167169
0.158187
0.154476
0.148462
0.146547
0.1425
0.141668
0.138906
0.138631
0.136619
0.136445
0.134704
0.13418
0.132221
0.130844
0.128113
0.225276
0.203375
0.191603
0.177684
0.170921
0.161737
0.157943
0.151794
0.149836
0.145699
0.144849
0.142025
0.141744
0.139687
0.139509
0.137729
0.137193
0.135191
0.133783
0.130991
0.229271
0.206982
0.195
0.180835
0.173951
0.164604
0.160743
0.154485
0.152492
0.148281
0.147416
0.144541
0.144255
0.142161
0.141981
0.140169
0.139624
0.137586
0.136153
0.133311
0.232268
0.209688
0.19755
0.1832
0.176226
0.166757
0.162846
0.156506
0.154487
0.150221
0.149345
0.146433
0.146143
0.144022
0.143839
0.142005
0.141452
0.139387
0.137936
0.135056
0.234287
0.21151
0.199267
0.184791
0.177757
0.168206
0.16426
0.157865
0.155828
0.151525
0.150641
0.147704
0.147411
0.145272
0.145087
0.143236
0.142679
0.140596
0.139132
0.136227
0.235287
0.212413
0.200117
0.18558
0.178516
0.168924
0.164962
0.15854
0.156495
0.152173
0.151286
0.148336
0.148042
0.145894
0.145708
0.14385
0.14329
0.141198
0.139728
0.136811
0.235295
0.21242
0.200124
0.185586
0.178521
0.168929
0.164967
0.158544
0.156499
0.152177
0.151289
0.148339
0.148045
0.145897
0.145711
0.143852
0.143292
0.141201
0.13973
0.136813
0.234279
0.211503
0.19926
0.184786
0.177752
0.168201
0.164256
0.157861
0.155825
0.151522
0.150638
0.147701
0.147408
0.145269
0.145084
0.143234
0.142676
0.140594
0.13913
0.136226
0.232277
0.209695
0.197556
0.183205
0.176231
0.166762
0.16285
0.15651
0.154491
0.150225
0.149348
0.146436
0.146146
0.144025
0.143842
0.142007
0.141454
0.139389
0.137937
0.135058
0.229263
0.206975
0.194994
0.180829
0.173946
0.164599
0.160739
0.154481
0.152488
0.148277
0.147413
0.144538
0.144252
0.142159
0.141978
0.140167
0.139622
0.137584
0.136151
0.133309
0.225284
0.203382
0.191609
0.17769
0.170926
0.161742
0.157948
0.151798
0.14984
0.145702
0.144852
0.142028
0.141746
0.139689
0.139511
0.137732
0.137195
0.135193
0.133785
0.130992
0.220324
0.198904
0.187391
0.173778
0.167163
0.158182
0.154471
0.148457
0.146543
0.142496
0.141665
0.138903
0.138628
0.136616
0.136442
0.134702
0.134178
0.132219
0.130842
0.128111
0.214437
0.193589
0.182383
0.169134
0.162696
0.153954
0.150343
0.144489
0.142625
0.138687
0.137878
0.135189
0.134921
0.132963
0.132794
0.1311
0.13059
0.128683
0.127343
0.124685
0.207615
0.187431
0.176581
0.163754
0.157521
0.149057
0.145561
0.139894
0.13809
0.134276
0.133493
0.13089
0.130631
0.128736
0.128572
0.126932
0.126438
0.124592
0.123295
0.120721
0.19992
0.180484
0.170037
0.157685
0.151682
0.143532
0.140165
0.134708
0.13297
0.129298
0.128544
0.126037
0.125788
0.123962
0.123804
0.122225
0.121749
0.119972
0.118723
0.116244
0.191353
0.172751
0.162751
0.150928
0.145183
0.137382
0.13416
0.128937
0.127274
0.123759
0.123038
0.120638
0.1204
0.118652
0.118502
0.11699
0.116535
0.114834
0.113638
0.111266
0.181984
0.164291
0.154781
0.143537
0.138073
0.130654
0.127589
0.122622
0.12104
0.117697
0.117011
0.114729
0.114502
0.11284
0.112696
0.111259
0.110826
0.109208
0.108071
0.105815
0.171818
0.155114
0.146135
0.13552
0.130361
0.123357
0.120464
0.115773
0.11428
0.111125
0.110477
0.108322
0.108108
0.106539
0.106404
0.105046
0.104638
0.10311
0.102037
0.0999067
0.160933
0.145287
0.136877
0.126934
0.122102
0.115541
0.112831
0.108437
0.107039
0.104083
0.103476
0.101458
0.101257
0.0997872
0.0996602
0.0983889
0.0980059
0.0965752
0.0955695
0.0935745
0.149342
0.134824
0.127019
0.117793
0.113309
0.107221
0.104706
0.100629
0.0993313
0.0965884
0.0960252
0.0941528
0.0939665
0.0926028
0.0924851
0.0913054
0.0909501
0.0896226
0.0886893
0.086838
0.137129
0.123797
0.116631
0.108158
0.104041
0.0984506
0.0961413
0.0923979
0.0912061
0.0886873
0.08817
0.0864506
0.0862794
0.0850271
0.0849189
0.0838356
0.0835092
0.0822902
0.0814332
0.0797333
0.124311
0.112226
0.10573
0.0980496
0.0943173
0.0892496
0.0871563
0.083763
0.0826827
0.0803996
0.0799308
0.0783722
0.0782171
0.0770821
0.0769841
0.0760021
0.0757064
0.0746013
0.0738245
0.0722835
0.110978
0.100189
0.0943893
0.0875325
0.0842003
0.079676
0.077807
0.0747775
0.0738129
0.0717744
0.0713557
0.0699642
0.0698256
0.0688121
0.0687246
0.0678478
0.0675837
0.0665971
0.0659035
0.0645278
0.0971535
0.0877085
0.0826314
0.076629
0.0737121
0.0697516
0.0681156
0.0654636
0.0646194
0.062835
0.0624687
0.0612506
0.0611294
0.0602424
0.0601658
0.0593984
0.0591673
0.0583036
0.0576965
0.0564922
0.0829291
0.0748667
0.0705328
0.065409
0.0629189
0.059538
0.0581414
0.0558775
0.0551567
0.0536335
0.0533206
0.0522807
0.0521771
0.0514198
0.0513543
0.0506992
0.0505018
0.0497646
0.0492462
0.0482183
0.0683331
0.0616899
0.058119
0.0538972
0.0518456
0.04906
0.0479094
0.0460441
0.0454503
0.0441953
0.0439377
0.043081
0.0429958
0.0423718
0.042318
0.0417783
0.0416157
0.0410083
0.0405813
0.0397342
0.053461
0.0482634
0.0454694
0.0421663
0.040561
0.0383814
0.037481
0.0360216
0.0355568
0.0345748
0.0343731
0.0337027
0.0336359
0.0331476
0.0331054
0.032683
0.0325558
0.0320805
0.0317464
0.0310837
0.0383434
0.0346158
0.0326121
0.0302432
0.029092
0.0275289
0.0268833
0.0258367
0.0255036
0.0247994
0.0246548
0.0241741
0.0241264
0.0237763
0.0237461
0.0234433
0.0233521
0.0230113
0.0227717
0.0222963
0.0230781
0.0208343
0.0196281
0.0182021
0.0175091
0.0165681
0.0161793
0.0155493
0.0153486
0.0149246
0.0148375
0.014548
0.0145191
0.0143083
0.0142901
0.0141077
0.0140527
0.0138475
0.0137033
0.0134172
0.00769756
0.00694927
0.00654708
0.00607155
0.00584051
0.00552677
0.00539723
0.00518717
0.00512036
0.00497904
0.0049501
0.00485365
0.00484412
0.00477389
0.00476789
0.00470713
0.00468887
0.00462046
0.00457238
0.00447695
-0.00769948
-0.00695117
-0.00654897
-0.00607345
-0.00584242
-0.00552868
-0.00539914
-0.00518909
-0.00512228
-0.00498096
-0.00495201
-0.00485556
-0.00484603
-0.00477579
-0.00476979
-0.00470902
-0.00469075
-0.00462234
-0.00457426
-0.00447883
-0.0230801
-0.0208362
-0.01963
-0.018204
-0.017511
-0.01657
-0.0161813
-0.0155512
-0.0153505
-0.0149265
-0.0148394
-0.0145499
-0.014521
-0.0143102
-0.014292
-0.0141096
-0.0140546
-0.0138494
-0.0137052
-0.0134191
-0.0383453
-0.0346177
-0.032614
-0.0302451
-0.0290939
-0.0275308
-0.0268852
-0.0258386
-0.0255055
-0.0248013
-0.0246567
-0.0241761
-0.0241283
-0.0237782
-0.023748
-0.0234452
-0.023354
-0.0230132
-0.0227735
-0.0222982
-0.0534629
-0.0482653
-0.0454713
-0.0421682
-0.0405629
-0.0383833
-0.0374829
-0.0360235
-0.0355588
-0.0345767
-0.034375
-0.0337046
-0.0336378
-0.0331496
-0.0331073
-0.0326849
-0.0325577
-0.0320824
-0.0317483
-0.0310855
-0.068335
-0.0616918
-0.0581209
-0.0538991
-0.0518475
-0.0490619
-0.0479113
-0.046046
-0.0454523
-0.0441973
-0.0439396
-0.0430829
-0.0429977
-0.0423738
-0.0423199
-0.0417802
-0.0416176
-0.0410102
-0.0405832
-0.0397361
-0.082931
-0.0748686
-0.0705346
-0.0654109
-0.0629208
-0.0595399
-0.0581433
-0.0558795
-0.0551586
-0.0536354
-0.0533225
-0.0522826
-0.0521791
-0.0514217
-0.0513562
-0.0507011
-0.0505037
-0.0497665
-0.0492482
-0.0482202
-0.0971554
-0.0877104
-0.0826333
-0.0766309
-0.073714
-0.0697535
-0.0681175
-0.0654656
-0.0646213
-0.062837
-0.0624706
-0.0612525
-0.0611314
-0.0602443
-0.0601677
-0.0594003
-0.0591692
-0.0583055
-0.0576984
-0.0564941
-0.11098
-0.100191
-0.0943912
-0.0875344
-0.0842022
-0.0796779
-0.0778089
-0.0747794
-0.0738148
-0.0717764
-0.0713577
-0.0699661
-0.0698275
-0.0688141
-0.0687265
-0.0678498
-0.0675856
-0.066599
-0.0659054
-0.0645298
-0.124313
-0.112228
-0.105732
-0.0980515
-0.0943192
-0.0892515
-0.0871582
-0.0837649
-0.0826847
-0.0804015
-0.0799327
-0.0783742
-0.0782191
-0.077084
-0.076986
-0.0760041
-0.0757083
-0.0746033
-0.0738264
-0.0722855
-0.137131
-0.123799
-0.116633
-0.10816
-0.104043
-0.0984525
-0.0961432
-0.0923999
-0.091208
-0.0886893
-0.0881719
-0.0864525
-0.0862813
-0.0850291
-0.0849208
-0.0838375
-0.0835112
-0.0822921
-0.0814351
-0.0797353
-0.149344
-0.134826
-0.127021
-0.117794
-0.113311
-0.107222
-0.104708
-0.100631
-0.0993333
-0.0965904
-0.0960271
-0.0941547
-0.0939685
-0.0926048
-0.0924871
-0.0913074
-0.0909521
-0.0896245
-0.0886912
-0.08684
-0.160935
-0.145289
-0.136879
-0.126936
-0.122104
-0.115543
-0.112833
-0.108439
-0.107041
-0.104085
-0.103478
-0.10146
-0.101259
-0.0997892
-0.0996622
-0.0983909
-0.0980079
-0.0965772
-0.0955714
-0.0935765
-0.17182
-0.155116
-0.146137
-0.135522
-0.130363
-0.123359
-0.120465
-0.115775
-0.114282
-0.111127
-0.110479
-0.108324
-0.10811
-0.106541
-0.106406
-0.105048
-0.10464
-0.103112
-0.102039
-0.0999087
-0.181985
-0.164293
-0.154783
-0.143539
-0.138075
-0.130656
-0.127591
-0.122624
-0.121042
-0.117699
-0.117013
-0.114731
-0.114504
-0.112842
-0.112698
-0.111261
-0.110828
-0.10921
-0.108073
-0.105817
-0.191355
-0.172752
-0.162753
-0.15093
-0.145185
-0.137384
-0.134162
-0.128939
-0.127276
-0.123761
-0.12304
-0.12064
-0.120402
-0.118654
-0.118504
-0.116992
-0.116537
-0.114836
-0.11364
-0.111268
-0.199922
-0.180486
-0.170039
-0.157687
-0.151684
-0.143534
-0.140167
-0.13471
-0.132972
-0.1293
-0.128546
-0.126039
-0.12579
-0.123964
-0.123806
-0.122227
-0.121751
-0.119974
-0.118724
-0.116246
-0.207617
-0.187433
-0.176583
-0.163756
-0.157523
-0.149059
-0.145563
-0.139896
-0.138092
-0.134278
-0.133495
-0.130892
-0.130633
-0.128738
-0.128574
-0.126934
-0.12644
-0.124594
-0.123297
-0.120723
-0.214439
-0.193591
-0.182385
-0.169136
-0.162698
-0.153956
-0.150345
-0.144491
-0.142627
-0.138689
-0.13788
-0.135191
-0.134923
-0.132965
-0.132796
-0.131102
-0.130592
-0.128685
-0.127345
-0.124687
-0.220326
-0.198906
-0.187392
-0.17378
-0.167165
-0.158183
-0.154473
-0.148459
-0.146545
-0.142498
-0.141667
-0.138905
-0.13863
-0.136618
-0.136444
-0.134704
-0.13418
-0.132221
-0.130844
-0.128113
-0.225286
-0.203384
-0.191611
-0.177692
-0.170928
-0.161743
-0.15795
-0.1518
-0.149842
-0.145704
-0.144854
-0.142029
-0.141748
-0.139691
-0.139513
-0.137734
-0.137197
-0.135195
-0.133787
-0.130994
-0.229265
-0.206976
-0.194995
-0.180831
-0.173947
-0.164601
-0.160741
-0.154482
-0.15249
-0.148279
-0.147415
-0.14454
-0.144254
-0.142161
-0.14198
-0.140169
-0.139623
-0.137585
-0.136153
-0.133311
-0.232278
-0.209697
-0.197558
-0.183207
-0.176233
-0.166764
-0.162852
-0.156512
-0.154493
-0.150226
-0.14935
-0.146438
-0.146148
-0.144027
-0.143844
-0.142009
-0.141456
-0.139391
-0.137939
-0.13506
-0.234281
-0.211505
-0.199262
-0.184787
-0.177753
-0.168203
-0.164258
-0.157862
-0.155826
-0.151524
-0.15064
-0.147703
-0.14741
-0.145271
-0.145086
-0.143236
-0.142678
-0.140596
-0.139132
-0.136227
-0.235297
-0.212422
-0.200125
-0.185588
-0.178523
-0.168931
-0.164968
-0.158545
-0.1565
-0.152179
-0.151291
-0.148341
-0.148047
-0.145898
-0.145713
-0.143854
-0.143294
-0.141202
-0.139732
-0.136815
)
;

boundaryField
{
    out
    {
        type            implicitExtrapolation;
    }
    in
    {
        type            implicitExtrapolation;
    }
    frontAndBack
    {
        type            empty;
    }
}


// ************************************************************************* //
