/*--------------------------------*- C++ -*----------------------------------*\
| =========                 |                                                 |
| \\      /  F ield         | foam-extend: Open Source CFD                    |
|  \\    /   O peration     | Version:  3.0                                   |
|   \\  /    A nd           | Web:         http://www.extend-project.de       |
|    \\/     M anipulation  |                                                 |
\*---------------------------------------------------------------------------*/
FoamFile
{
    version     2.0;
    format      ascii;
    class       volVectorField;
    location    "25";
    object      u;
}
// * * * * * * * * * * * * * * * * * * * * * * * * * * * * * * * * * * * * * //

dimensions      [0 0 0 0 0 0 0];

internalField   nonuniform List<vector> 
1920
(
(0.148253 -0.0596658 5.64502e-18)
(0.341327 -0.0472044 1.88552e-18)
(0.490913 -0.0380411 1.82778e-18)
(0.596945 -0.0309608 -4.82788e-19)
(0.684656 -0.0255631 4.15908e-18)
(0.747298 -0.0212421 1.07339e-18)
(0.802487 -0.0178278 3.47652e-18)
(0.841273 -0.0150165 2.31408e-18)
(0.877832 -0.0127105 6.56036e-19)
(0.902382 -0.0107737 -7.03872e-19)
(0.92748 -0.00911413 -2.01605e-18)
(0.942887 -0.00770519 7.38698e-19)
(0.960481 -0.00643047 2.00153e-18)
(0.969586 -0.00534778 -7.98065e-19)
(0.981968 -0.00429933 -6.77529e-19)
(0.986402 -0.00341828 9.22878e-19)
(0.994947 -0.00249357 -7.4705e-18)
(0.995647 -0.00173052 -2.00878e-18)
(1.00118 -0.000874835 -3.51175e-18)
(0.998719 -5.66632e-05 9.49604e-19)
(0.163829 -0.177976 9.67739e-18)
(0.35365 -0.140806 1.2157e-18)
(0.500843 -0.113473 2.68343e-18)
(0.605027 -0.0923528 -5.20747e-18)
(0.69133 -0.0762519 -2.71768e-18)
(0.752843 -0.0633628 -8.20762e-20)
(0.807141 -0.0531785 -2.28089e-18)
(0.845194 -0.0447926 7.94701e-18)
(0.88115 -0.0379141 5.84004e-18)
(0.905194 -0.0321366 6.24463e-18)
(0.929859 -0.0271864 3.56046e-18)
(0.944898 -0.0229837 5.39092e-18)
(0.962159 -0.0191813 1.67743e-18)
(0.970982 -0.0159517 1.48766e-18)
(0.983091 -0.0128243 2.50372e-18)
(0.987294 -0.0101962 1.22188e-17)
(0.995598 -0.00743792 1.3985e-17)
(0.996099 -0.00516182 1.21707e-17)
(1.00141 -0.00260939 5.29523e-18)
(0.998733 -0.000168746 4.04641e-18)
(0.194715 -0.293242 4.75536e-18)
(0.378085 -0.231998 6.6653e-19)
(0.520535 -0.186962 4.67377e-18)
(0.621054 -0.152165 4.82515e-18)
(0.704562 -0.125636 -1.79364e-18)
(0.763839 -0.104399 1.63366e-18)
(0.816369 -0.0876192 6.1593e-18)
(0.852967 -0.0738023 -8.15364e-18)
(0.887729 -0.062469 -8.48644e-18)
(0.910771 -0.0529497 -5.41774e-18)
(0.934577 -0.0447935 -5.06837e-18)
(0.948887 -0.0378689 -1.66175e-18)
(0.965488 -0.0316039 4.52529e-19)
(0.97375 -0.0262828 -2.4746e-18)
(0.985316 -0.0211299 -1.10075e-17)
(0.989063 -0.0167997 -9.94229e-18)
(0.996889 -0.012255 -1.83605e-17)
(0.996995 -0.00850477 -8.14625e-18)
(1.00186 -0.0042993 -1.5352e-17)
(0.998763 -0.000277934 1.15342e-17)
(0.240381 -0.40349 7.46548e-18)
(0.414213 -0.31922 3.66445e-18)
(0.54965 -0.257253 4.51242e-18)
(0.64475 -0.209373 4.4481e-18)
(0.724127 -0.17287 2.35882e-18)
(0.780097 -0.14365 -1.01048e-17)
(0.830014 -0.120561 -6.33777e-18)
(0.86446 -0.101549 -8.44783e-18)
(0.897458 -0.085955 -1.73916e-17)
(0.919017 -0.0728569 -2.03151e-18)
(0.941553 -0.0616342 -1.1389e-18)
(0.954784 -0.0521062 -9.5639e-18)
(0.97041 -0.0434858 9.87147e-18)
(0.977843 -0.0361641 9.02097e-19)
(0.988607 -0.0290739 3.92922e-18)
(0.99168 -0.0231158 -1.15115e-17)
(0.998797 -0.0168624 -7.70128e-18)
(0.998319 -0.0117022 6.27724e-18)
(1.00253 -0.00591565 1.40146e-17)
(0.998806 -0.000382389 2.97747e-18)
(0.300047 -0.506834 1.28398e-17)
(0.461418 -0.400981 7.42253e-18)
(0.587692 -0.323143 7.25405e-18)
(0.675711 -0.262999 1.14823e-17)
(0.74969 -0.217147 1.63507e-17)
(0.801339 -0.180442 1.04879e-17)
(0.847842 -0.15144 1.29161e-18)
(0.879476 -0.127559 9.49769e-18)
(0.910168 -0.10797 4.99561e-18)
(0.929791 -0.0915174 6.81904e-18)
(0.950667 -0.0774203 1.75341e-18)
(0.962489 -0.0654519 -1.08699e-17)
(0.97684 -0.0546237 4.89814e-18)
(0.98319 -0.0454266 1.40665e-17)
(0.992906 -0.0365205 -1.11725e-17)
(0.995098 -0.0290363 3.14266e-17)
(1.00129 -0.0211813 -1.4882e-17)
(1.00005 -0.0146994 1.42992e-17)
(1.00341 -0.00743079 -1.2734e-17)
(0.998863 -0.000480283 -1.78379e-18)
(0.372691 -0.601506 1.81534e-17)
(0.51889 -0.47588 1.48816e-17)
(0.634008 -0.383503 1.21687e-17)
(0.713407 -0.312124 -1.8777e-17)
(0.780814 -0.257708 2.95845e-18)
(0.827202 -0.214147 -4.042e-19)
(0.869548 -0.179727 2.64192e-17)
(0.897759 -0.151385 1.37296e-18)
(0.925644 -0.128138 6.43845e-19)
(0.942908 -0.108612 -2.06665e-17)
(0.961763 -0.0918817 8.68067e-18)
(0.971871 -0.0776777 -5.17681e-18)
(0.984669 -0.0648269 2.75713e-18)
(0.989701 -0.0539119 -1.71516e-17)
(0.99814 -0.0433421 1.71347e-21)
(0.99926 -0.03446 5.81422e-18)
(1.00433 -0.0251377 -2.78447e-18)
(1.00216 -0.0174452 3.33292e-18)
(1.00447 -0.00881877 4.99993e-19)
(0.998931 -0.000569994 -2.51002e-17)
(0.457071 -0.685886 -6.18151e-18)
(0.585648 -0.542637 -1.11648e-17)
(0.687806 -0.437301 -9.39361e-18)
(0.757192 -0.35591 1.97235e-18)
(0.816966 -0.29386 2.81121e-18)
(0.857243 -0.244188 -1.94028e-18)
(0.89476 -0.204939 -5.54785e-18)
(0.918996 -0.172622 -1.0335e-17)
(0.943619 -0.146114 1.15582e-17)
(0.958144 -0.123848 -1.57959e-17)
(0.974652 -0.104771 -1.31006e-18)
(0.982767 -0.0885744 -2.4399e-17)
(0.993763 -0.0739209 -9.86953e-19)
(0.997264 -0.0614747 -4.08861e-17)
(1.00422 -0.0494222 -1.67542e-17)
(1.00409 -0.0392941 -3.08713e-19)
(1.00785 -0.0286641 -8.67246e-18)
(1.0046 -0.0198924 -2.30671e-17)
(1.00571 -0.0100559 1.74038e-17)
(0.999011 -0.000649925 -2.50671e-17)
(0.551743 -0.75853 -8.80957e-19)
(0.660547 -0.60011 -3.42184e-17)
(0.748166 -0.483617 -5.61589e-19)
(0.806318 -0.393605 5.03282e-18)
(0.857527 -0.324984 -1.82733e-17)
(0.890948 -0.270051 -4.62906e-18)
(0.923048 -0.226645 2.1811e-18)
(0.942823 -0.190905 2.31398e-18)
(0.963787 -0.161589 3.10581e-17)
(0.975239 -0.136965 -4.33834e-18)
(0.989114 -0.115868 1.77404e-17)
(0.994993 -0.0979556 -1.39036e-18)
(1.00397 -0.08175 3.96203e-17)
(1.00575 -0.0679857 -1.59659e-17)
(1.01104 -0.0546567 2.15117e-17)
(1.00952 -0.0434559 3.26606e-17)
(1.01181 -0.0317 -1.98957e-17)
(1.00735 -0.0219993 5.76132e-17)
(1.0071 -0.0111209 9.99501e-19)
(0.999101 -0.000718779 5.17191e-17)
(0.655087 -0.818196 3.78472e-18)
(0.742308 -0.647314 -5.80362e-18)
(0.814055 -0.521658 -5.56931e-18)
(0.859944 -0.424566 3.92935e-18)
(0.901803 -0.350547 1.1861e-17)
(0.92774 -0.291293 -1.16397e-17)
(0.953926 -0.244473 1.12506e-17)
(0.968832 -0.205922 4.68759e-18)
(0.985802 -0.174299 8.37442e-18)
(0.993899 -0.147739 2.85415e-17)
(1.0049 -0.124982 -1.52571e-17)
(1.00834 -0.105661 -3.32536e-17)
(1.0151 -0.0881805 3.20535e-17)
(1.01501 -0.0733335 -1.92771e-17)
(1.01849 -0.058956 -2.434e-18)
(1.01544 -0.0468741 -1.59577e-17)
(1.01613 -0.0341935 2.27905e-17)
(1.01035 -0.0237297 3.23758e-17)
(1.00861 -0.0119957 -2.65909e-17)
(0.999199 -0.000775298 2.75119e-17)
(0.765335 -0.863862 1.30622e-17)
(0.82953 -0.683443 -1.4487e-18)
(0.884346 -0.550774 4.68665e-19)
(0.917152 -0.448262 6.14082e-18)
(0.949038 -0.370112 5.67109e-18)
(0.96699 -0.307551 1.15147e-17)
(0.986868 -0.258118 5.74914e-18)
(0.996579 -0.217415 1.66752e-17)
(1.00929 -0.184028 -6.51782e-18)
(1.01381 -0.155985 -8.96189e-18)
(1.02174 -0.131957 -5.51515e-18)
(1.02258 -0.111558 -2.1542e-17)
(1.02699 -0.0931021 -1.11772e-17)
(1.02489 -0.0774265 5.76359e-18)
(1.02643 -0.0622465 -2.78472e-17)
(1.02175 -0.0494903 1.86005e-17)
(1.02074 -0.0361019 -5.37591e-17)
(1.01354 -0.0250542 5.37457e-19)
(1.01023 -0.0126652 -2.63005e-17)
(0.999303 -0.000818604 2.28146e-17)
(0.880601 -0.894748 -1.42796e-17)
(0.920722 -0.707878 -6.24724e-19)
(0.957836 -0.570465 5.04223e-18)
(0.976964 -0.464289 -3.48015e-18)
(0.998422 -0.383344 2.34336e-17)
(1.00803 -0.318547 -2.63093e-17)
(1.02131 -0.267346 -9.49283e-18)
(1.02559 -0.225188 -8.41349e-18)
(1.03384 -0.190607 -3.44575e-18)
(1.03462 -0.161562 -3.14683e-17)
(1.03935 -0.136675 -6.83875e-19)
(1.03746 -0.115547 2.338e-17)
(1.03941 -0.0964308 -4.99577e-18)
(1.03522 -0.0801946 -2.39464e-17)
(1.03474 -0.064472 -6.87678e-18)
(1.02836 -0.0512597 7.39064e-18)
(1.02555 -0.0373927 2.12308e-17)
(1.01689 -0.0259499 3.88225e-18)
(1.01192 -0.013118 1.37301e-17)
(0.999413 -0.000847857 -7.68739e-17)
(0.998911 -0.910323 -1.61697e-17)
(1.01432 -0.720201 -1.4354e-17)
(1.03327 -0.580396 -4.68534e-19)
(1.03836 -0.472371 4.84979e-18)
(1.04911 -0.390018 -1.26892e-17)
(1.05015 -0.324092 -7.66073e-18)
(1.05666 -0.272 5.5755e-18)
(1.05536 -0.229108 -4.93038e-18)
(1.05905 -0.193925 1.96471e-17)
(1.05598 -0.164374 1.29967e-17)
(1.05742 -0.139054 1.07093e-18)
(1.05274 -0.117558 4.64336e-18)
(1.05216 -0.0981094 2.83597e-18)
(1.04583 -0.0815907 4.52016e-17)
(1.04326 -0.0655943 -2.60651e-17)
(1.03514 -0.052152 -1.27256e-18)
(1.0305 -0.0380436 -2.68232e-18)
(1.02032 -0.0264017 -3.96801e-18)
(1.01365 -0.0133464 -1.87719e-17)
(0.999525 -0.000862663 3.12207e-17)
(1.11824 -0.910324 -7.18789e-18)
(1.10873 -0.720201 -1.50876e-17)
(1.10935 -0.580396 -3.07627e-18)
(1.10028 -0.472371 1.00253e-17)
(1.10024 -0.390018 -2.35732e-17)
(1.09263 -0.324092 -5.9216e-18)
(1.09232 -0.272 -4.87711e-18)
(1.0854 -0.229108 6.61589e-18)
(1.08447 -0.193925 1.86938e-17)
(1.07753 -0.164374 1.85441e-17)
(1.07565 -0.139054 1.76487e-18)
(1.06815 -0.117558 2.15958e-18)
(1.06502 -0.0981094 -8.52803e-19)
(1.05652 -0.0815907 7.12894e-18)
(1.05186 -0.0655943 1.95026e-17)
(1.04197 -0.052152 8.29309e-19)
(1.03548 -0.0380436 2.38806e-18)
(1.02378 -0.0264016 1.33607e-18)
(1.0154 -0.0133464 1.73414e-17)
(0.999638 -0.000862653 5.34639e-19)
(1.23655 -0.894748 -1.30291e-17)
(1.20233 -0.707878 9.85013e-18)
(1.18478 -0.570465 -8.15567e-18)
(1.16167 -0.464289 -5.98103e-18)
(1.15093 -0.383344 1.32062e-18)
(1.13475 -0.318547 -5.35864e-18)
(1.12767 -0.267346 1.655e-18)
(1.11517 -0.225188 -2.13595e-17)
(1.10967 -0.190607 -2.71605e-17)
(1.09889 -0.161562 5.04743e-18)
(1.09372 -0.136675 1.26426e-17)
(1.08343 -0.115547 1.30774e-17)
(1.07777 -0.0964307 -3.98498e-18)
(1.06713 -0.0801947 -1.87317e-17)
(1.06039 -0.0644719 3.0359e-18)
(1.04875 -0.0512597 3.44295e-18)
(1.04043 -0.0373927 2.40274e-17)
(1.02721 -0.0259499 1.01828e-18)
(1.01714 -0.013118 -9.98597e-18)
(0.99975 -0.000847948 3.31788e-17)
(1.35182 -0.863862 5.53793e-18)
(1.29353 -0.683443 2.97485e-18)
(1.25827 -0.550774 -9.89763e-18)
(1.22148 -0.448262 -1.63542e-18)
(1.20031 -0.370112 5.83013e-18)
(1.17579 -0.307551 1.62452e-17)
(1.16211 -0.258118 1.48144e-18)
(1.14418 -0.217415 6.95359e-18)
(1.13423 -0.184028 -2.18164e-17)
(1.11971 -0.155985 7.96532e-18)
(1.11133 -0.131957 -8.33327e-19)
(1.09831 -0.111558 1.82076e-19)
(1.09019 -0.0931021 -2.5686e-17)
(1.07746 -0.0774264 6.94345e-19)
(1.06869 -0.0622465 -2.39859e-17)
(1.05535 -0.0494903 -2.71048e-17)
(1.04525 -0.036102 -1.83843e-17)
(1.03055 -0.0250542 -2.30248e-17)
(1.01883 -0.0126653 1.11092e-17)
(0.999859 -0.000818669 -4.70671e-17)
(1.46207 -0.818196 2.2614e-18)
(1.38075 -0.647314 7.99081e-18)
(1.32856 -0.521658 -1.29095e-17)
(1.27869 -0.424566 -1.99899e-18)
(1.24754 -0.350547 3.35309e-18)
(1.21504 -0.291293 1.43187e-17)
(1.19505 -0.244473 -5.42675e-18)
(1.17193 -0.205922 3.06091e-19)
(1.15771 -0.174299 -7.18811e-18)
(1.13961 -0.147739 5.9913e-18)
(1.12817 -0.124982 -7.23421e-18)
(1.11255 -0.105661 2.34708e-17)
(1.10208 -0.0881805 -4.47656e-18)
(1.08734 -0.0733335 2.85843e-18)
(1.07664 -0.058956 2.07027e-17)
(1.06167 -0.0468741 -1.93853e-17)
(1.04985 -0.0341935 1.55642e-17)
(1.03375 -0.0237298 -1.87146e-17)
(1.02044 -0.0119957 2.06561e-17)
(0.999964 -0.000775452 8.15656e-18)
(1.56541 -0.75853 -1.96288e-18)
(1.46251 -0.60011 -1.11474e-17)
(1.39445 -0.483617 2.89404e-18)
(1.33231 -0.393605 -4.33219e-18)
(1.29182 -0.324984 -1.23452e-17)
(1.25183 -0.270051 3.50793e-18)
(1.22593 -0.226645 -9.66791e-19)
(1.19794 -0.190905 3.10135e-18)
(1.17973 -0.161589 2.07771e-17)
(1.15827 -0.136965 -1.0611e-17)
(1.14395 -0.115868 -7.3736e-18)
(1.1259 -0.0979556 2.53127e-17)
(1.11321 -0.0817501 2.64582e-18)
(1.0966 -0.0679857 2.78536e-17)
(1.08408 -0.0546567 -1.84557e-18)
(1.06759 -0.0434559 1.35164e-17)
(1.05417 -0.0317001 1.73152e-17)
(1.03675 -0.0219993 -6.51357e-18)
(1.02196 -0.011121 3.4489e-18)
(1.00006 -0.000718893 -3.77763e-18)
(1.66008 -0.685886 -5.05824e-18)
(1.53741 -0.542637 -2.44942e-18)
(1.45481 -0.437301 -3.48897e-18)
(1.38144 -0.35591 3.6276e-18)
(1.33238 -0.29386 -5.48909e-18)
(1.28554 -0.244188 1.55142e-18)
(1.25421 -0.204939 7.96285e-20)
(1.22177 -0.172622 -1.03768e-18)
(1.1999 -0.146114 -1.01889e-17)
(1.17537 -0.123848 1.1346e-18)
(1.15842 -0.104771 -3.01403e-18)
(1.13812 -0.0885745 -4.14578e-18)
(1.12342 -0.0739208 -1.70746e-17)
(1.10509 -0.0614748 2.68544e-18)
(1.0909 -0.0494222 -8.81562e-18)
(1.07301 -0.0392942 -2.3537e-18)
(1.05813 -0.0286641 5.61854e-19)
(1.03949 -0.0198925 -1.45103e-17)
(1.02335 -0.0100559 2.5915e-17)
(1.00015 -0.000650106 -2.24125e-17)
(1.74446 -0.601506 7.36098e-18)
(1.60417 -0.47588 6.6272e-18)
(1.50861 -0.383503 4.33735e-18)
(1.42523 -0.312124 -7.37615e-18)
(1.36853 -0.257708 -8.74613e-19)
(1.31558 -0.214147 4.09182e-18)
(1.27943 -0.179727 6.12533e-18)
(1.243 -0.151385 -1.85583e-19)
(1.21787 -0.128138 -9.86858e-18)
(1.1906 -0.108612 6.73668e-19)
(1.17131 -0.0918817 2.33305e-18)
(1.14902 -0.0776777 1.26633e-18)
(1.13251 -0.0648269 -2.80552e-18)
(1.11265 -0.0539119 -1.28688e-18)
(1.09698 -0.0433422 1.24368e-17)
(1.07785 -0.03446 1.81135e-18)
(1.06165 -0.0251378 1.14598e-17)
(1.04194 -0.0174452 -4.96132e-18)
(1.02458 -0.00881886 -1.58744e-17)
(1.00023 -0.000570115 3.89636e-18)
(1.81711 -0.506834 3.98276e-18)
(1.66164 -0.400981 3.79797e-18)
(1.55493 -0.323142 2.63769e-18)
(1.46292 -0.262999 2.64589e-18)
(1.39966 -0.217147 4.76466e-18)
(1.34144 -0.180442 4.52386e-18)
(1.30113 -0.151439 -2.29711e-18)
(1.26129 -0.127559 3.52835e-18)
(1.23335 -0.10797 2.64387e-18)
(1.20372 -0.0915174 3.73896e-18)
(1.1824 -0.0774203 -4.81527e-18)
(1.1584 -0.0654519 3.55945e-18)
(1.14034 -0.0546236 -2.1527e-19)
(1.11916 -0.0454267 5.12828e-18)
(1.10222 -0.0365205 -2.36493e-18)
(1.08201 -0.0290364 1.24094e-19)
(1.06469 -0.0211813 6.94342e-18)
(1.04405 -0.0146995 -4.46653e-18)
(1.02565 -0.00743082 3.89142e-18)
(1.0003 -0.000480443 1.17723e-18)
(1.87677 -0.40349 2.61303e-18)
(1.70884 -0.31922 2.40877e-18)
(1.59297 -0.257253 1.65926e-18)
(1.49388 -0.209373 1.46749e-18)
(1.42522 -0.17287 1.49631e-18)
(1.36268 -0.14365 -3.13323e-18)
(1.31896 -0.120561 -1.2412e-18)
(1.2763 -0.101549 -3.43185e-18)
(1.24606 -0.085955 -1.14406e-18)
(1.21449 -0.0728568 1.12265e-18)
(1.19152 -0.0616342 -6.77752e-19)
(1.16611 -0.0521061 3.79203e-18)
(1.14677 -0.0434859 -1.0201e-18)
(1.12451 -0.0361641 3.33875e-18)
(1.10652 -0.0290739 1.10256e-17)
(1.08543 -0.0231158 -2.48025e-18)
(1.06718 -0.0168625 1.26126e-18)
(1.04578 -0.0117023 -8.08342e-19)
(1.02652 -0.00591572 -1.44309e-19)
(1.00036 -0.000382465 -2.69272e-18)
(1.92244 -0.293242 1.23765e-18)
(1.74497 -0.231998 1.53401e-18)
(1.62208 -0.186962 9.68043e-19)
(1.51758 -0.152165 2.1876e-18)
(1.44479 -0.125636 1.31014e-18)
(1.37894 -0.104399 -1.62089e-18)
(1.33261 -0.0876192 1.81473e-19)
(1.2878 -0.0738023 -2.34155e-18)
(1.25578 -0.062469 -1.55805e-18)
(1.22274 -0.0529498 -6.04303e-19)
(1.19849 -0.0447935 3.25007e-19)
(1.172 -0.0378689 -1.09511e-19)
(1.15169 -0.0316039 -4.0285e-20)
(1.1286 -0.0262828 1.24008e-18)
(1.10981 -0.0211299 1.20229e-18)
(1.08804 -0.0167998 -2.40975e-18)
(1.06909 -0.012255 -2.87794e-18)
(1.0471 -0.00850485 -2.17825e-18)
(1.02719 -0.00429931 2.16454e-18)
(1.0004 -0.000278018 -2.96289e-18)
(1.95332 -0.177976 1.23337e-18)
(1.76941 -0.140806 9.97646e-19)
(1.64177 -0.113473 5.75906e-19)
(1.53361 -0.0923527 2.82194e-19)
(1.45802 -0.0762519 2.50739e-19)
(1.38994 -0.0633628 -7.88997e-19)
(1.34183 -0.0531785 -1.02518e-19)
(1.29557 -0.0447926 -6.09565e-19)
(1.26236 -0.0379141 4.71684e-20)
(1.22832 -0.0321366 1.55646e-18)
(1.20321 -0.0271864 3.57478e-19)
(1.17599 -0.0229837 1.04316e-18)
(1.15502 -0.0191813 6.09538e-19)
(1.13137 -0.0159518 1.23278e-18)
(1.11203 -0.0128244 1.50519e-18)
(1.08981 -0.0101962 1.19342e-18)
(1.07038 -0.00743796 1.34547e-18)
(1.048 -0.00516182 1.66256e-18)
(1.02765 -0.00260942 1.0154e-18)
(1.00043 -0.000168725 6.42997e-19)
(1.9689 -0.0596657 4.47877e-19)
(1.78173 -0.0472044 5.51273e-19)
(1.6517 -0.0380411 2.54258e-19)
(1.54169 -0.0309608 2.40799e-19)
(1.46469 -0.025563 2.46891e-19)
(1.39548 -0.0212421 -3.02245e-19)
(1.34649 -0.0178278 1.12343e-19)
(1.29949 -0.0150165 -2.99279e-19)
(1.26568 -0.0127105 2.50155e-19)
(1.23113 -0.0107737 9.55041e-19)
(1.20559 -0.00911413 8.31871e-19)
(1.178 -0.00770524 9.00022e-19)
(1.1567 -0.00643047 6.00899e-19)
(1.13277 -0.00534783 1.17329e-18)
(1.11316 -0.00429933 1.29618e-18)
(1.09071 -0.00341833 1.03909e-18)
(1.07103 -0.00249356 1.43366e-18)
(1.04845 -0.00173055 1.60971e-18)
(1.02787 -0.000874798 8.08525e-19)
(1.00044 -5.66207e-05 1.13765e-18)
(1.9689 0.0596658 -4.30362e-19)
(1.78173 0.0472045 1.64791e-19)
(1.6517 0.0380412 -7.71815e-20)
(1.54169 0.030961 3.26925e-19)
(1.46469 0.0255631 1.91927e-19)
(1.39548 0.0212422 1.87644e-20)
(1.34649 0.0178278 1.47508e-19)
(1.29949 0.0150165 -1.46983e-19)
(1.26568 0.0127105 3.27581e-19)
(1.23113 0.0107736 6.42469e-19)
(1.20559 0.00911404 8.63867e-19)
(1.178 0.00770511 7.46973e-19)
(1.1567 0.00643034 6.11131e-19)
(1.13277 0.00534767 1.09855e-18)
(1.11316 0.00429918 1.23717e-18)
(1.09071 0.00341816 6.35362e-19)
(1.07103 0.00249342 1.06315e-18)
(1.04845 0.00173041 7.41705e-19)
(1.02787 0.00087471 6.80198e-19)
(1.00044 5.65413e-05 8.18089e-19)
(1.95332 0.177976 -1.45405e-18)
(1.76941 0.140806 -1.48698e-19)
(1.64177 0.113473 -5.24337e-19)
(1.53361 0.0923529 4.04819e-19)
(1.45802 0.076252 3.03331e-19)
(1.38994 0.0633629 1.31897e-19)
(1.34183 0.0531785 2.14795e-19)
(1.29557 0.0447926 -8.97634e-21)
(1.26236 0.0379141 6.20133e-19)
(1.22832 0.0321365 4.98383e-19)
(1.20321 0.0271863 8.7024e-19)
(1.17599 0.0229835 7.35779e-19)
(1.15502 0.0191812 8.0548e-19)
(1.13137 0.0159516 1.07039e-18)
(1.11203 0.0128242 1.57237e-18)
(1.08981 0.0101961 5.44635e-19)
(1.07038 0.00743783 7.26745e-19)
(1.048 0.00516169 4.32579e-20)
(1.02765 0.00260934 8.84999e-19)
(1.00043 0.000168661 3.83473e-19)
(1.92244 0.293242 -1.52756e-18)
(1.74497 0.231998 -4.72839e-19)
(1.62208 0.186962 -1.08493e-18)
(1.51758 0.152165 -1.21052e-18)
(1.44479 0.125636 -4.09522e-19)
(1.37894 0.104399 5.85661e-20)
(1.3326 0.0876192 -1.13594e-18)
(1.2878 0.0738023 2.09334e-18)
(1.25578 0.0624689 2.78457e-18)
(1.22274 0.0529497 1.87721e-18)
(1.19849 0.0447934 1.99667e-18)
(1.172 0.0378688 2.13522e-18)
(1.15169 0.0316038 5.82204e-19)
(1.1286 0.0262827 1.34449e-18)
(1.10981 0.0211297 3.13529e-18)
(1.08804 0.0167996 3.14084e-18)
(1.06909 0.0122549 5.3511e-18)
(1.0471 0.00850473 2.01687e-18)
(1.02719 0.00429924 2.88224e-18)
(1.0004 0.000277983 -8.71169e-19)
(1.87677 0.40349 -2.84584e-18)
(1.70884 0.31922 -1.35111e-18)
(1.59297 0.257253 -1.24565e-18)
(1.49388 0.209373 -1.1717e-18)
(1.42522 0.172871 -1.8787e-18)
(1.36268 0.14365 2.11176e-18)
(1.31896 0.120561 6.42755e-19)
(1.2763 0.101549 1.08844e-18)
(1.24606 0.085955 3.37163e-18)
(1.21449 0.0728567 2.143e-19)
(1.19152 0.0616341 3.87484e-19)
(1.16611 0.052106 3.69524e-18)
(1.14677 0.0434857 -1.58501e-18)
(1.12451 0.0361639 2.98538e-19)
(1.10652 0.0290738 -7.30157e-19)
(1.08543 0.0231157 1.2791e-18)
(1.06718 0.0168623 2.36674e-18)
(1.04578 0.0117022 -2.63029e-18)
(1.02652 0.00591567 -3.25894e-18)
(1.00036 0.000382474 7.39361e-19)
(1.81711 0.506834 -4.76925e-18)
(1.66164 0.400981 -2.25198e-18)
(1.55493 0.323143 -2.00536e-18)
(1.46292 0.262999 -2.29695e-18)
(1.39966 0.217147 -5.491e-18)
(1.34144 0.180442 -3.18792e-18)
(1.30113 0.151439 -2.10649e-18)
(1.26129 0.127559 -3.83433e-18)
(1.23335 0.10797 -3.1351e-18)
(1.20372 0.0915173 -1.8217e-18)
(1.1824 0.0774202 -5.68854e-19)
(1.1584 0.0654518 4.01276e-18)
(1.14034 0.0546235 -3.21858e-19)
(1.11916 0.0454265 -2.03657e-18)
(1.10222 0.0365203 3.73279e-18)
(1.08201 0.0290362 -1.01212e-17)
(1.06469 0.0211812 4.73945e-18)
(1.04405 0.0146995 -4.81354e-18)
(1.02565 0.00743079 4.01204e-18)
(1.0003 0.000480505 2.14855e-18)
(1.74446 0.601506 -6.54111e-18)
(1.60417 0.47588 -3.83502e-18)
(1.50861 0.383503 -3.38836e-18)
(1.42523 0.312124 8.1992e-18)
(1.36853 0.257708 -8.00114e-19)
(1.31558 0.214147 1.37658e-18)
(1.27943 0.179727 -9.67952e-18)
(1.243 0.151385 -2.69535e-19)
(1.21787 0.128138 -1.70298e-18)
(1.1906 0.108612 7.65874e-18)
(1.1713 0.0918816 -3.15081e-18)
(1.14902 0.0776776 2.84341e-18)
(1.13251 0.0648268 -7.9843e-19)
(1.11265 0.0539118 9.8185e-18)
(1.09698 0.0433421 6.69128e-20)
(1.07785 0.0344599 -1.40466e-18)
(1.06165 0.0251377 7.92736e-19)
(1.04194 0.0174452 -1.50238e-18)
(1.02458 0.00881886 -1.64158e-18)
(1.00023 0.000570243 8.55767e-18)
(1.66008 0.685886 3.06336e-18)
(1.53741 0.542637 7.58835e-18)
(1.45481 0.437301 5.01879e-18)
(1.38144 0.35591 -1.13544e-18)
(1.33238 0.29386 -7.75928e-19)
(1.28554 0.244188 2.1336e-18)
(1.25421 0.204939 3.43829e-18)
(1.22177 0.172622 4.03704e-18)
(1.1999 0.146113 -7.14551e-18)
(1.17537 0.123848 4.69726e-18)
(1.15842 0.104771 -4.86768e-19)
(1.13812 0.0885743 1.10418e-17)
(1.12342 0.0739207 -2.2875e-18)
(1.10509 0.0614747 1.84455e-17)
(1.0909 0.0494221 4.86039e-18)
(1.07301 0.0392941 -2.01672e-18)
(1.05813 0.0286641 2.81932e-18)
(1.03949 0.0198925 6.1659e-18)
(1.02335 0.010056 -8.95371e-18)
(1.00015 0.000650303 5.83399e-18)
(1.56541 0.758531 -6.52532e-19)
(1.46251 0.60011 1.80678e-17)
(1.39445 0.483617 -4.72876e-19)
(1.33231 0.393605 -2.94225e-18)
(1.29182 0.324984 9.14913e-18)
(1.25183 0.270051 3.41418e-18)
(1.22593 0.226645 -1.60124e-18)
(1.19794 0.190905 -2.61945e-18)
(1.17973 0.161589 -1.71528e-17)
(1.15827 0.136965 -1.54414e-19)
(1.14395 0.115868 -9.03392e-18)
(1.1259 0.0979555 1.31311e-18)
(1.11321 0.08175 -2.34955e-17)
(1.0966 0.0679856 6.37191e-18)
(1.08408 0.0546566 -1.30413e-17)
(1.06759 0.0434558 -1.8439e-17)
(1.05417 0.0317 8.76306e-18)
(1.03675 0.0219993 -3.33363e-17)
(1.02196 0.0111211 1.71891e-18)
(1.00006 0.000719167 -3.01104e-17)
(1.46207 0.818196 -3.80649e-18)
(1.38075 0.647314 1.47156e-18)
(1.32856 0.521658 2.1935e-18)
(1.27869 0.424566 -2.42594e-18)
(1.24754 0.350547 -8.53078e-18)
(1.21504 0.291293 7.03116e-18)
(1.19505 0.244473 -6.35885e-18)
(1.17193 0.205921 -3.36912e-18)
(1.15771 0.174299 -3.94604e-18)
(1.13961 0.147739 -1.60026e-17)
(1.12817 0.124982 1.13809e-17)
(1.11255 0.105661 2.03015e-17)
(1.10208 0.0881804 -1.85764e-17)
(1.08734 0.0733334 1.02474e-17)
(1.07664 0.0589559 2.4841e-18)
(1.06167 0.0468741 9.86129e-18)
(1.04985 0.0341935 -1.24987e-17)
(1.03375 0.0237298 -1.50251e-17)
(1.02044 0.0119958 2.05064e-17)
(0.999964 0.0007758 -1.37406e-17)
(1.35182 0.863863 -8.97753e-18)
(1.29353 0.683443 -9.61331e-20)
(1.25827 0.550774 -1.1814e-18)
(1.22148 0.448263 -3.36569e-18)
(1.20031 0.370112 -4.08796e-18)
(1.17579 0.307551 -7.12811e-18)
(1.16211 0.258118 -1.39483e-18)
(1.14418 0.217415 -1.06306e-17)
(1.13423 0.184028 5.53939e-18)
(1.11971 0.155985 9.90824e-18)
(1.11133 0.131957 3.30455e-18)
(1.09831 0.111558 9.57181e-18)
(1.09019 0.093102 7.52238e-18)
(1.07746 0.0774263 -6.05908e-18)
(1.06869 0.0622464 1.77705e-17)
(1.05535 0.0494903 -1.51374e-17)
(1.04525 0.036102 3.7883e-17)
(1.03055 0.0250543 2.97007e-18)
(1.01883 0.0126654 1.78239e-17)
(0.99986 0.000819093 -9.63534e-18)
(1.23655 0.894748 1.30597e-17)
(1.20233 0.707878 5.34108e-19)
(1.18478 0.570465 -3.52711e-18)
(1.16167 0.464289 4.38465e-18)
(1.15093 0.383344 -1.69838e-17)
(1.13475 0.318547 2.25708e-17)
(1.12767 0.267346 9.15734e-18)
(1.11517 0.225188 8.39821e-18)
(1.10967 0.190607 1.71688e-18)
(1.09889 0.161562 2.30832e-17)
(1.09372 0.136675 -2.31326e-18)
(1.08343 0.115546 -2.43987e-17)
(1.07777 0.0964306 2.36208e-19)
(1.06713 0.0801946 1.42343e-17)
(1.06039 0.0644719 2.00036e-18)
(1.04875 0.0512597 -6.80743e-18)
(1.04043 0.0373927 -2.11509e-17)
(1.02721 0.0259501 -3.51349e-18)
(1.01714 0.0131182 -1.36289e-17)
(0.999751 0.000848439 6.20477e-17)
(1.11824 0.910324 1.45024e-17)
(1.10873 0.720201 1.29823e-17)
(1.10935 0.580396 2.01677e-18)
(1.10028 0.472371 -3.81534e-18)
(1.10024 0.390018 1.54668e-17)
(1.09263 0.324092 5.53107e-18)
(1.09231 0.272 -5.26596e-18)
(1.0854 0.229108 4.80035e-18)
(1.08447 0.193925 -1.8404e-17)
(1.07753 0.164374 -1.73165e-17)
(1.07565 0.139054 -4.18828e-18)
(1.06815 0.117558 -6.00903e-18)
(1.06502 0.0981094 -4.47279e-18)
(1.05652 0.0815906 -4.50844e-17)
(1.05186 0.0655943 1.92398e-17)
(1.04197 0.052152 3.11005e-19)
(1.03548 0.0380437 1.19499e-18)
(1.02378 0.0264018 3.04692e-18)
(1.0154 0.0133466 1.45767e-17)
(0.999638 0.000863207 -3.6524e-17)
(0.998912 0.910324 6.26507e-18)
(1.01432 0.720201 1.31384e-17)
(1.03327 0.580396 4.83707e-18)
(1.03836 0.472371 -9.85731e-18)
(1.04911 0.390018 2.48253e-17)
(1.05015 0.324092 3.79766e-18)
(1.05666 0.272 4.99952e-18)
(1.05536 0.229108 -4.2099e-18)
(1.05905 0.193925 -1.37999e-17)
(1.05598 0.164374 -2.00931e-17)
(1.05742 0.139054 -3.76597e-18)
(1.05274 0.117558 -4.19548e-18)
(1.05216 0.0981093 2.66812e-18)
(1.04583 0.0815906 -3.77057e-18)
(1.04326 0.0655942 -2.24107e-17)
(1.03514 0.0521521 -1.48133e-19)
(1.0305 0.0380437 -4.65632e-18)
(1.02032 0.0264018 -9.80179e-19)
(1.01365 0.0133466 -2.01688e-17)
(0.999525 0.000863265 -3.29995e-18)
(0.880601 0.894748 1.41023e-17)
(0.920722 0.707878 -1.46723e-17)
(0.957836 0.570465 1.09983e-17)
(0.976964 0.464289 7.47574e-18)
(0.998422 0.383344 -4.79303e-18)
(1.00803 0.318547 2.17424e-18)
(1.02131 0.267346 -3.65786e-18)
(1.02559 0.225188 2.70683e-17)
(1.03384 0.190607 3.83945e-17)
(1.03462 0.161562 -4.42718e-18)
(1.03935 0.136675 -1.50687e-17)
(1.03746 0.115546 -1.76417e-17)
(1.03941 0.0964307 8.22521e-18)
(1.03522 0.0801946 2.17767e-17)
(1.03474 0.064472 4.76134e-19)
(1.02836 0.0512597 7.73899e-19)
(1.02555 0.0373928 -2.76922e-17)
(1.01689 0.0259501 3.42675e-18)
(1.01192 0.0131183 1.20579e-17)
(0.999413 0.000848498 -3.55931e-17)
(0.765336 0.863863 -8.78184e-18)
(0.82953 0.683443 -4.71496e-18)
(0.884346 0.550774 1.36858e-17)
(0.917152 0.448263 1.22304e-18)
(0.949038 0.370112 -9.29003e-18)
(0.96699 0.307551 -2.55852e-17)
(0.986868 0.258118 -2.66436e-18)
(0.996579 0.217415 -1.20803e-17)
(1.00929 0.184028 2.86178e-17)
(1.01381 0.155985 -9.7482e-18)
(1.02174 0.131957 2.84086e-18)
(1.02258 0.111558 -4.29763e-18)
(1.02699 0.093102 3.47687e-17)
(1.02489 0.0774264 -9.47302e-18)
(1.02643 0.0622465 2.95248e-17)
(1.02175 0.0494904 3.68428e-17)
(1.02074 0.0361021 2.32129e-17)
(1.01354 0.0250544 3.31291e-17)
(1.01023 0.0126655 -2.09642e-17)
(0.999304 0.000819265 6.77708e-17)
(0.655088 0.818196 -2.09346e-18)
(0.742308 0.647314 -1.14521e-17)
(0.814055 0.521658 1.80704e-17)
(0.859944 0.424566 2.0232e-18)
(0.901803 0.350547 -3.043e-18)
(0.92774 0.291293 -2.13112e-17)
(0.953926 0.244473 8.32677e-18)
(0.968832 0.205921 -1.5807e-18)
(0.985802 0.174299 6.73985e-18)
(0.993899 0.147739 -7.43216e-18)
(1.0049 0.124982 1.32634e-17)
(1.00834 0.105661 -4.08048e-17)
(1.0151 0.0881804 3.10712e-18)
(1.01501 0.0733334 -1.48153e-17)
(1.01849 0.058956 -3.87224e-17)
(1.01544 0.0468742 2.0805e-17)
(1.01613 0.0341936 -3.4168e-17)
(1.01035 0.0237299 2.38055e-17)
(1.00861 0.011996 -3.633e-17)
(0.999199 0.000775967 -1.85375e-17)
(0.551743 0.758531 5.34387e-18)
(0.660547 0.60011 2.15357e-17)
(0.748166 0.483617 -8.62826e-18)
(0.806318 0.393605 4.91972e-18)
(0.857527 0.324984 2.4324e-17)
(0.890948 0.270051 -4.08667e-18)
(0.923048 0.226645 5.05584e-19)
(0.942823 0.190905 -5.47676e-18)
(0.963787 0.161589 -3.75461e-17)
(0.975239 0.136965 2.00911e-17)
(0.989114 0.115868 1.4853e-17)
(0.994993 0.0979556 -4.01487e-17)
(1.00397 0.08175 -1.08225e-18)
(1.00575 0.0679857 -5.13595e-17)
(1.01104 0.0546567 7.03106e-18)
(1.00952 0.043456 -2.85192e-17)
(1.01181 0.0317001 -3.32593e-17)
(1.00735 0.0219995 8.34043e-18)
(1.0071 0.0111212 -6.66613e-18)
(0.999101 0.000719437 8.60237e-18)
(0.457071 0.685886 1.01612e-17)
(0.585648 0.542637 2.0081e-18)
(0.687806 0.437301 4.99717e-18)
(0.757192 0.35591 -1.10172e-17)
(0.816966 0.29386 9.63164e-18)
(0.857243 0.244188 -3.7129e-18)
(0.89476 0.204939 -1.00665e-18)
(0.918996 0.172622 3.37587e-18)
(0.943619 0.146114 2.64637e-17)
(0.958144 0.123848 -4.7253e-18)
(0.974652 0.104771 5.20513e-18)
(0.982767 0.0885744 1.57e-17)
(0.993763 0.0739209 4.00012e-17)
(0.997264 0.0614748 1.84693e-18)
(1.00422 0.0494223 1.93783e-17)
(1.00409 0.0392942 7.99662e-18)
(1.00785 0.0286642 6.82429e-19)
(1.0046 0.0198926 3.11455e-17)
(1.00571 0.0100562 -5.02079e-17)
(0.999012 0.000650558 4.65542e-17)
(0.372691 0.601506 -1.91923e-17)
(0.518891 0.47588 -1.88023e-17)
(0.634008 0.383503 -1.37244e-17)
(0.713407 0.312124 1.60554e-17)
(0.780814 0.257708 -9.45102e-19)
(0.827202 0.214147 -1.07676e-17)
(0.869548 0.179727 -1.41643e-17)
(0.897759 0.151385 -3.1656e-19)
(0.925643 0.128138 2.01563e-17)
(0.942908 0.108612 -3.36702e-18)
(0.961763 0.0918817 -6.77982e-18)
(0.97187 0.0776777 -4.80756e-18)
(0.984669 0.0648269 2.55861e-18)
(0.989701 0.053912 5.33665e-18)
(0.99814 0.0433422 -3.21736e-17)
(0.999259 0.0344601 -1.72324e-18)
(1.00433 0.0251379 -2.97006e-17)
(1.00216 0.0174454 1.24983e-17)
(1.00447 0.00881904 4.66843e-17)
(0.998931 0.000570583 -1.48581e-17)
(0.300047 0.506834 -7.52425e-18)
(0.461418 0.400981 -8.74865e-18)
(0.587692 0.323143 -7.303e-18)
(0.675711 0.262999 -1.25947e-17)
(0.74969 0.217147 -1.55756e-17)
(0.801339 0.180442 -1.00894e-17)
(0.847842 0.15144 1.11797e-17)
(0.879476 0.127559 -9.28344e-18)
(0.910168 0.10797 -1.3758e-17)
(0.929791 0.0915173 -1.15559e-17)
(0.950666 0.0774203 1.52951e-17)
(0.962489 0.0654519 -1.17191e-17)
(0.97684 0.0546237 2.54971e-19)
(0.98319 0.0454267 -1.44329e-17)
(0.992906 0.0365205 1.16228e-17)
(0.995098 0.0290364 6.25329e-18)
(1.00129 0.0211814 -1.45404e-17)
(1.00005 0.0146997 1.51057e-17)
(1.00341 0.00743105 -1.75781e-17)
(0.998863 0.000480816 -5.78395e-20)
(0.240381 0.40349 -3.60258e-18)
(0.414214 0.31922 -4.52385e-18)
(0.549651 0.257253 -3.39686e-18)
(0.64475 0.209373 -5.84406e-18)
(0.724127 0.172871 -2.92087e-18)
(0.780097 0.14365 1.69375e-17)
(0.830014 0.120561 4.51702e-18)
(0.86446 0.101549 1.68147e-17)
(0.897458 0.085955 5.49226e-18)
(0.919017 0.0728569 -1.88213e-18)
(0.941552 0.0616342 1.93385e-19)
(0.954784 0.0521062 -1.05302e-17)