/*--------------------------------*- C++ -*----------------------------------*\
| =========                 |                                                 |
| \\      /  F ield         | OpenFOAM: The Open Source CFD Toolbox           |
|  \\    /   O peration     | Version:  2.2.0                                 |
|   \\  /    A nd           | Web:      www.OpenFOAM.org                      |
|    \\/     M anipulation  |                                                 |
\*---------------------------------------------------------------------------*/
FoamFile
{
    version     2.0;
    format      ascii;
    class       volVectorField;
    location    "4.6";
    object      s;
}
// * * * * * * * * * * * * * * * * * * * * * * * * * * * * * * * * * * * * * //

dimensions      [0 1 -1 0 0 0 0];

internalField   nonuniform List<vector> 
1600
(
(1.76205 0.0692331 0)
(1.49721 0.058826 0)
(1.29956 0.05106 0)
(1.14843 0.045122 0)
(1.02858 0.0404132 0)
(0.931379 0.036594 0)
(0.850948 0.0334339 0)
(0.783306 0.0307762 0)
(0.725633 0.0285102 0)
(0.67588 0.0265555 0)
(0.632524 0.024852 0)
(0.594407 0.0233544 0)
(0.560636 0.0220275 0)
(0.530508 0.0208438 0)
(0.503465 0.0197812 0)
(0.479059 0.0188223 0)
(0.45691 0.0179521 0)
(0.436772 0.0171608 0)
(0.418224 0.0164321 0)
(0.401414 0.0157716 0)
(1.75118 0.20727 0)
(1.48798 0.176115 0)
(1.29155 0.152865 0)
(1.14135 0.135088 0)
(1.02224 0.12099 0)
(0.925636 0.109556 0)
(0.845702 0.100095 0)
(0.778477 0.0921388 0)
(0.721159 0.0853548 0)
(0.671713 0.0795025 0)
(0.628624 0.0744026 0)
(0.590743 0.069919 0)
(0.55718 0.0659465 0)
(0.527237 0.0624027 0)
(0.500361 0.0592216 0)
(0.476105 0.0563508 0)
(0.454093 0.0537455 0)
(0.434079 0.0513767 0)
(0.415645 0.0491948 0)
(0.39894 0.0472176 0)
(1.72952 0.344027 0)
(1.46957 0.292318 0)
(1.27557 0.253727 0)
(1.12723 0.224221 0)
(1.0096 0.200821 0)
(0.914187 0.181843 0)
(0.835241 0.16614 0)
(0.768848 0.152933 0)
(0.712239 0.141673 0)
(0.663405 0.131959 0)
(0.620849 0.123494 0)
(0.583436 0.116053 0)
(0.550288 0.109459 0)
(0.520716 0.103577 0)
(0.494172 0.0982969 0)
(0.470217 0.0935319 0)
(0.448477 0.0892076 0)
(0.42871 0.0852758 0)
(0.410504 0.0816543 0)
(0.394005 0.0783725 0)
(1.69719 0.478663 0)
(1.44211 0.406718 0)
(1.25173 0.353025 0)
(1.10616 0.311971 0)
(0.990728 0.279414 0)
(0.897102 0.253009 0)
(0.819631 0.23116 0)
(0.754479 0.212785 0)
(0.698928 0.197118 0)
(0.651006 0.183603 0)
(0.609246 0.171825 0)
(0.572532 0.161471 0)
(0.540003 0.152297 0)
(0.510984 0.144112 0)
(0.484937 0.136766 0)
(0.461429 0.130136 0)
(0.440095 0.12412 0)
(0.420698 0.118649 0)
(0.402832 0.11361 0)
(0.386641 0.109044 0)
(1.65441 0.610347 0)
(1.40575 0.51861 0)
(1.22017 0.450147 0)
(1.07828 0.397798 0)
(0.965751 0.356284 0)
(0.874485 0.322615 0)
(0.798968 0.294755 0)
(0.735458 0.271325 0)
(0.681308 0.251348 0)
(0.634594 0.234114 0)
(0.593887 0.219096 0)
(0.558098 0.205893 0)
(0.52639 0.194195 0)
(0.498102 0.183759 0)
(0.472711 0.174392 0)
(0.449796 0.165938 0)
(0.429 0.158266 0)
(0.410092 0.151291 0)
(0.392677 0.144866 0)
(0.376894 0.139044 0)
(1.60142 0.738268 0)
(1.36073 0.627305 0)
(1.18109 0.544492 0)
(1.04374 0.481172 0)
(0.93482 0.430958 0)
(0.846478 0.390231 0)
(0.773379 0.356532 0)
(0.711903 0.328191 0)
(0.659487 0.304027 0)
(0.61427 0.283182 0)
(0.574866 0.265016 0)
(0.540224 0.249046 0)
(0.509531 0.234897 0)
(0.482149 0.222274 0)
(0.457571 0.210943 0)
(0.43539 0.200717 0)
(0.41526 0.191437 0)
(0.396958 0.183 0)
(0.3801 0.175228 0)
(0.364823 0.168186 0)
(1.53856 0.861637 0)
(1.30731 0.732132 0)
(1.13473 0.635481 0)
(1.00277 0.56158 0)
(0.898126 0.502974 0)
(0.813251 0.455442 0)
(0.743022 0.416112 0)
(0.683959 0.383035 0)
(0.6336 0.354833 0)
(0.590158 0.330504 0)
(0.552301 0.309303 0)
(0.519018 0.290664 0)
(0.48953 0.27415 0)
(0.463223 0.259417 0)
(0.43961 0.246193 0)
(0.4183 0.234259 0)
(0.39896 0.223428 0)
(0.381376 0.213581 0)
(0.36518 0.204511 0)
(0.350503 0.196291 0)
(1.46621 0.979693 0)
(1.24584 0.832445 0)
(1.08138 0.722552 0)
(0.955621 0.638525 0)
(0.855894 0.57189 0)
(0.77501 0.517845 0)
(0.708083 0.473126 0)
(0.651798 0.435517 0)
(0.603807 0.403451 0)
(0.562408 0.375788 0)
(0.52633 0.351682 0)
(0.494613 0.330489 0)
(0.466512 0.311713 0)
(0.441442 0.294962 0)
(0.418939 0.279926 0)
(0.39863 0.266356 0)
(0.3802 0.254041 0)
(0.363443 0.242845 0)
(0.348008 0.232532 0)
(0.334021 0.223186 0)
(1.38483 1.09171 0)
(1.17669 0.927626 0)
(1.02135 0.805168 0)
(0.902577 0.711534 0)
(0.808386 0.63728 0)
(0.731992 0.577055 0)
(0.66878 0.527223 0)
(0.615618 0.485314 0)
(0.570292 0.449581 0)
(0.53119 0.418756 0)
(0.497115 0.391893 0)
(0.467158 0.368277 0)
(0.440617 0.347354 0)
(0.416939 0.328687 0)
(0.395685 0.311932 0)
(0.376503 0.296811 0)
(0.359096 0.283088 0)
(0.343269 0.270611 0)
(0.328691 0.259119 0)
(0.315481 0.248705 0)
(1.2949 1.197 0)
(1.10028 1.01709 0)
(0.95503 0.88282 0)
(0.843968 0.780155 0)
(0.755894 0.69874 0)
(0.68446 0.632707 0)
(0.625353 0.578069 0)
(0.575643 0.532118 0)
(0.53326 0.49294 0)
(0.496697 0.459141 0)
(0.464835 0.429688 0)
(0.436824 0.403795 0)
(0.412005 0.380853 0)
(0.389865 0.360387 0)
(0.369991 0.342016 0)
(0.352055 0.325436 0)
(0.335778 0.31039 0)
(0.320979 0.29671 0)
(0.307348 0.284109 0)
(0.294995 0.27269 0)
(1.197 1.2949 0)
(1.01709 1.10028 0)
(0.882821 0.955029 0)
(0.780156 0.843967 0)
(0.698741 0.755893 0)
(0.632708 0.684459 0)
(0.57807 0.625352 0)
(0.532119 0.575642 0)
(0.49294 0.533259 0)
(0.459142 0.496696 0)
(0.429689 0.464834 0)
(0.403796 0.436823 0)
(0.380854 0.412005 0)
(0.360387 0.389864 0)
(0.342016 0.36999 0)
(0.325436 0.352055 0)
(0.31039 0.335778 0)
(0.29671 0.320979 0)
(0.284109 0.307348 0)
(0.27269 0.294995 0)
(1.09171 1.38483 0)
(0.927626 1.17669 0)
(0.805169 1.02135 0)
(0.711534 0.902576 0)
(0.63728 0.808385 0)
(0.577056 0.731991 0)
(0.527224 0.668779 0)
(0.485314 0.615617 0)
(0.449582 0.570291 0)
(0.418756 0.531189 0)
(0.391894 0.497114 0)
(0.368278 0.467158 0)
(0.347354 0.440616 0)
(0.328688 0.416938 0)
(0.311933 0.395684 0)
(0.296811 0.376503 0)
(0.283089 0.359096 0)
(0.270611 0.343269 0)
(0.259119 0.328691 0)
(0.248705 0.31548 0)
(0.979693 1.46621 0)
(0.832445 1.24584 0)
(0.722553 1.08137 0)
(0.638526 0.955619 0)
(0.571891 0.855893 0)
(0.517846 0.775009 0)
(0.473127 0.708082 0)
(0.435518 0.651797 0)
(0.403451 0.603806 0)
(0.375789 0.562407 0)
(0.351683 0.526329 0)
(0.33049 0.494612 0)
(0.311713 0.466511 0)
(0.294962 0.441441 0)
(0.279926 0.418938 0)
(0.266356 0.39863 0)
(0.254042 0.3802 0)
(0.242845 0.363443 0)
(0.232532 0.348008 0)
(0.223186 0.334021 0)
(0.861637 1.53856 0)
(0.732132 1.30731 0)
(0.635482 1.13473 0)
(0.561581 1.00277 0)
(0.502975 0.898125 0)
(0.455443 0.81325 0)
(0.416113 0.74302 0)
(0.383036 0.683958 0)
(0.354834 0.633599 0)
(0.330505 0.590157 0)
(0.309303 0.5523 0)
(0.290664 0.519017 0)
(0.27415 0.489529 0)
(0.259418 0.463223 0)
(0.246194 0.439609 0)
(0.234259 0.418299 0)
(0.223428 0.398959 0)
(0.213581 0.381375 0)
(0.20451 0.365179 0)
(0.196291 0.350502 0)
(0.738267 1.60142 0)
(0.627305 1.36072 0)
(0.544493 1.18109 0)
(0.481173 1.04374 0)
(0.430959 0.934819 0)
(0.390232 0.846476 0)
(0.356533 0.773378 0)
(0.328192 0.711902 0)
(0.304028 0.659486 0)
(0.283182 0.614269 0)
(0.265017 0.574865 0)
(0.249047 0.540222 0)
(0.234897 0.50953 0)
(0.222274 0.482148 0)
(0.210943 0.45757 0)
(0.200717 0.435389 0)
(0.191437 0.41526 0)
(0.183 0.396957 0)
(0.175228 0.380099 0)
(0.168185 0.364822 0)
(0.610347 1.6544 0)
(0.51861 1.40575 0)
(0.450147 1.22017 0)
(0.397799 1.07828 0)
(0.356285 0.96575 0)
(0.322615 0.874484 0)
(0.294755 0.798967 0)
(0.271325 0.735457 0)
(0.251348 0.681307 0)
(0.234115 0.634593 0)
(0.219097 0.593885 0)
(0.205894 0.558097 0)
(0.194196 0.526389 0)
(0.18376 0.498101 0)
(0.174392 0.47271 0)
(0.165938 0.449795 0)
(0.158266 0.428999 0)
(0.151291 0.410091 0)
(0.144866 0.392676 0)
(0.139043 0.376893 0)
(0.478663 1.69719 0)
(0.406718 1.4421 0)
(0.353026 1.25173 0)
(0.311972 1.10616 0)
(0.279415 0.990726 0)
(0.25301 0.8971 0)
(0.231161 0.81963 0)
(0.212786 0.754477 0)
(0.197119 0.698927 0)
(0.183603 0.651005 0)
(0.171825 0.609245 0)
(0.161471 0.572531 0)
(0.152297 0.540002 0)
(0.144113 0.510983 0)
(0.136766 0.484936 0)
(0.130136 0.461428 0)
(0.12412 0.440094 0)
(0.118649 0.420697 0)
(0.11361 0.402831 0)
(0.109044 0.386641 0)
(0.344027 1.72952 0)
(0.292318 1.46957 0)
(0.253728 1.27557 0)
(0.224221 1.12723 0)
(0.200822 1.00959 0)
(0.181844 0.914186 0)
(0.166141 0.83524 0)
(0.152934 0.768846 0)
(0.141674 0.712238 0)
(0.13196 0.663404 0)
(0.123495 0.620848 0)
(0.116053 0.583435 0)
(0.109459 0.550287 0)
(0.103577 0.520715 0)
(0.0982972 0.494171 0)
(0.093532 0.470216 0)
(0.0892077 0.448476 0)
(0.0852758 0.428709 0)
(0.0816543 0.410503 0)
(0.0783724 0.394004 0)
(0.20727 1.75118 0)
(0.176115 1.48798 0)
(0.152866 1.29154 0)
(0.135089 1.14135 0)
(0.120991 1.02224 0)
(0.109557 0.925635 0)
(0.100096 0.8457 0)
(0.0921395 0.778475 0)
(0.0853555 0.721158 0)
(0.0795031 0.671712 0)
(0.0744031 0.628623 0)
(0.0699195 0.590741 0)
(0.065947 0.557178 0)
(0.062403 0.527236 0)
(0.0592219 0.50036 0)
(0.056351 0.476104 0)
(0.0537457 0.454093 0)
(0.0513768 0.434079 0)
(0.0491948 0.415644 0)
(0.0472175 0.398939 0)
(0.0692333 1.76204 0)
(0.0588265 1.49721 0)
(0.0510606 1.29956 0)
(0.0451228 1.14843 0)
(0.040414 1.02858 0)
(0.0365949 0.931377 0)
(0.0334347 0.850947 0)
(0.030777 0.783305 0)
(0.028511 0.725632 0)
(0.0265561 0.675879 0)
(0.0248526 0.632523 0)
(0.0233549 0.594406 0)
(0.022028 0.560635 0)
(0.0208442 0.530507 0)
(0.0197816 0.503464 0)
(0.0188226 0.479058 0)
(0.0179523 0.456909 0)
(0.017161 0.436771 0)
(0.0164321 0.418223 0)
(0.0157716 0.401414 0)
(-0.0692327 1.76204 0)
(-0.0588253 1.49721 0)
(-0.0510591 1.29956 0)
(-0.0451211 1.14843 0)
(-0.0404122 1.02858 0)
(-0.036593 0.931377 0)
(-0.0334329 0.850947 0)
(-0.0307753 0.783305 0)
(-0.0285093 0.725631 0)
(-0.0265546 0.675879 0)
(-0.0248512 0.632523 0)
(-0.0233537 0.594406 0)
(-0.0220268 0.560635 0)
(-0.0208432 0.530507 0)
(-0.0197807 0.503464 0)
(-0.0188219 0.479058 0)
(-0.0179517 0.456909 0)
(-0.0171606 0.436771 0)
(-0.0164319 0.418223 0)
(-0.0157715 0.401414 0)
(-0.207269 1.75118 0)
(-0.176114 1.48797 0)
(-0.152864 1.29154 0)
(-0.135087 1.14135 0)
(-0.120989 1.02224 0)
(-0.109555 0.925635 0)
(-0.100094 0.8457 0)
(-0.0921378 0.778475 0)
(-0.0853538 0.721158 0)
(-0.0795015 0.671712 0)
(-0.0744017 0.628623 0)
(-0.0699182 0.590741 0)
(-0.0659458 0.557178 0)
(-0.062402 0.527236 0)
(-0.059221 0.50036 0)
(-0.0563503 0.476104 0)
(-0.0537451 0.454092 0)
(-0.0513763 0.434078 0)
(-0.0491946 0.415644 0)
(-0.0472175 0.398939 0)
(-0.344027 1.72952 0)
(-0.292317 1.46957 0)
(-0.253726 1.27557 0)
(-0.22422 1.12723 0)
(-0.20082 1.00959 0)
(-0.181842 0.914185 0)
(-0.166139 0.83524 0)
(-0.152932 0.768846 0)
(-0.141672 0.712238 0)
(-0.131958 0.663403 0)
(-0.123494 0.620848 0)
(-0.116052 0.583434 0)
(-0.109458 0.550287 0)
(-0.103576 0.520715 0)
(-0.0982962 0.494171 0)
(-0.0935313 0.470215 0)
(-0.089207 0.448476 0)
(-0.0852753 0.428709 0)
(-0.081654 0.410503 0)
(-0.0783722 0.394004 0)
(-0.478662 1.69719 0)
(-0.406717 1.4421 0)
(-0.353024 1.25173 0)
(-0.31197 1.10616 0)
(-0.279413 0.990726 0)
(-0.253008 0.8971 0)
(-0.231159 0.81963 0)
(-0.212784 0.754477 0)
(-0.197117 0.698927 0)
(-0.183602 0.651005 0)
(-0.171824 0.609244 0)
(-0.16147 0.572531 0)
(-0.152296 0.540002 0)
(-0.144112 0.510983 0)
(-0.136765 0.484935 0)
(-0.130136 0.461427 0)
(-0.124119 0.440094 0)
(-0.118649 0.420697 0)
(-0.11361 0.402831 0)
(-0.109044 0.38664 0)
(-0.610346 1.6544 0)
(-0.518609 1.40575 0)
(-0.450145 1.22017 0)
(-0.397797 1.07828 0)
(-0.356283 0.965749 0)
(-0.322613 0.874484 0)
(-0.294753 0.798966 0)
(-0.271323 0.735456 0)
(-0.251346 0.681306 0)
(-0.234113 0.634593 0)
(-0.219095 0.593885 0)
(-0.205892 0.558097 0)
(-0.194194 0.526388 0)
(-0.183759 0.498101 0)
(-0.174391 0.47271 0)
(-0.165938 0.449795 0)
(-0.158266 0.428999 0)
(-0.15129 0.410091 0)
(-0.144865 0.392676 0)
(-0.139043 0.376893 0)
(-0.738266 1.60142 0)
(-0.627303 1.36072 0)
(-0.544491 1.18109 0)
(-0.481171 1.04374 0)
(-0.430957 0.934818 0)
(-0.39023 0.846476 0)
(-0.356531 0.773377 0)
(-0.32819 0.711901 0)
(-0.304026 0.659486 0)
(-0.283181 0.614268 0)
(-0.265015 0.574864 0)
(-0.249045 0.540222 0)
(-0.234896 0.509529 0)
(-0.222273 0.482148 0)
(-0.210942 0.45757 0)
(-0.200716 0.435389 0)
(-0.191437 0.415259 0)
(-0.182999 0.396957 0)
(-0.175228 0.380099 0)
(-0.168185 0.364822 0)
(-0.861635 1.53855 0)
(-0.73213 1.30731 0)
(-0.63548 1.13473 0)
(-0.561578 1.00277 0)
(-0.502973 0.898124 0)
(-0.455441 0.813249 0)
(-0.41611 0.74302 0)
(-0.383033 0.683957 0)
(-0.354831 0.633599 0)
(-0.330503 0.590156 0)
(-0.309302 0.552299 0)
(-0.290663 0.519017 0)
(-0.274149 0.489529 0)
(-0.259416 0.463222 0)
(-0.246192 0.439609 0)
(-0.234258 0.418298 0)
(-0.223427 0.398959 0)
(-0.21358 0.381375 0)
(-0.20451 0.365179 0)
(-0.19629 0.350502 0)
(-0.979691 1.46621 0)
(-0.832443 1.24584 0)
(-0.72255 1.08137 0)
(-0.638523 0.955619 0)
(-0.571888 0.855893 0)
(-0.517843 0.775009 0)
(-0.473124 0.708082 0)
(-0.435515 0.651796 0)
(-0.403449 0.603806 0)
(-0.375787 0.562406 0)
(-0.351681 0.526329 0)
(-0.330488 0.494612 0)
(-0.311711 0.46651 0)
(-0.29496 0.441441 0)
(-0.279925 0.418938 0)
(-0.266355 0.398629 0)
(-0.254041 0.380199 0)
(-0.242844 0.363442 0)
(-0.232531 0.348007 0)
(-0.223185 0.33402 0)
(-1.09171 1.38482 0)
(-0.927624 1.17669 0)
(-0.805166 1.02135 0)
(-0.711532 0.902575 0)
(-0.637278 0.808384 0)
(-0.577053 0.73199 0)
(-0.527221 0.668778 0)
(-0.485312 0.615617 0)
(-0.449579 0.57029 0)
(-0.418754 0.531188 0)
(-0.391892 0.497114 0)
(-0.368276 0.467157 0)
(-0.347352 0.440615 0)
(-0.328686 0.416937 0)
(-0.311931 0.395684 0)
(-0.29681 0.376502 0)
(-0.283087 0.359095 0)
(-0.27061 0.343268 0)
(-0.259118 0.32869 0)
(-0.248704 0.31548 0)
(-1.19699 1.2949 0)
(-1.01709 1.10028 0)
(-0.882818 0.955028 0)
(-0.780154 0.843966 0)
(-0.698738 0.755892 0)
(-0.632706 0.684458 0)
(-0.578067 0.625351 0)
(-0.532117 0.575642 0)
(-0.492938 0.533258 0)
(-0.45914 0.496696 0)
(-0.429687 0.464834 0)
(-0.403794 0.436822 0)
(-0.380852 0.412004 0)
(-0.360385 0.389864 0)
(-0.342014 0.36999 0)
(-0.325435 0.352054 0)
(-0.310389 0.335777 0)
(-0.296709 0.320978 0)
(-0.284108 0.307347 0)
(-0.27269 0.294994 0)
(-1.2949 1.19699 0)
(-1.10028 1.01709 0)
(-0.955027 0.882819 0)
(-0.843965 0.780154 0)
(-0.755891 0.698739 0)
(-0.684457 0.632707 0)
(-0.62535 0.578069 0)
(-0.575641 0.532118 0)
(-0.533257 0.492939 0)
(-0.496695 0.459141 0)
(-0.464833 0.429688 0)
(-0.436821 0.403794 0)
(-0.412003 0.380853 0)
(-0.389863 0.360386 0)
(-0.369989 0.342015 0)
(-0.352054 0.325436 0)
(-0.335777 0.310389 0)
(-0.320978 0.296709 0)
(-0.307347 0.284109 0)
(-0.294994 0.27269 0)
(-1.38482 1.09171 0)
(-1.17668 0.927625 0)
(-1.02135 0.805167 0)
(-0.902574 0.711533 0)
(-0.808383 0.637279 0)
(-0.731989 0.577054 0)
(-0.668777 0.527222 0)
(-0.615615 0.485313 0)
(-0.570289 0.449581 0)
(-0.531187 0.418755 0)
(-0.497113 0.391893 0)
(-0.467156 0.368277 0)
(-0.440614 0.347353 0)
(-0.416936 0.328687 0)
(-0.395683 0.311932 0)
(-0.376502 0.29681 0)
(-0.359095 0.283088 0)
(-0.343268 0.270611 0)
(-0.32869 0.259119 0)
(-0.315479 0.248704 0)
(-1.46621 0.979691 0)
(-1.24584 0.832444 0)
(-1.08137 0.722551 0)
(-0.955617 0.638524 0)
(-0.855891 0.571889 0)
(-0.775007 0.517844 0)
(-0.70808 0.473125 0)
(-0.651795 0.435516 0)
(-0.603805 0.40345 0)
(-0.562405 0.375788 0)
(-0.526328 0.351682 0)
(-0.494611 0.330489 0)
(-0.466509 0.311712 0)
(-0.44144 0.294961 0)
(-0.418937 0.279925 0)
(-0.398628 0.266355 0)
(-0.380198 0.254041 0)
(-0.363441 0.242844 0)
(-0.348007 0.232531 0)
(-0.33402 0.223185 0)
(-1.53855 0.861635 0)
(-1.30731 0.732131 0)
(-1.13473 0.63548 0)
(-1.00277 0.561579 0)
(-0.898123 0.502974 0)
(-0.813248 0.455442 0)
(-0.743019 0.416111 0)
(-0.683956 0.383034 0)
(-0.633597 0.354832 0)
(-0.590155 0.330503 0)
(-0.552298 0.309302 0)
(-0.519016 0.290663 0)
(-0.489528 0.274149 0)
(-0.463221 0.259417 0)
(-0.439608 0.246193 0)
(-0.418297 0.234258 0)
(-0.398958 0.223428 0)
(-0.381374 0.21358 0)
(-0.365178 0.20451 0)
(-0.350501 0.19629 0)
(-1.60141 0.738266 0)
(-1.36072 0.627304 0)
(-1.18109 0.544492 0)
(-1.04374 0.481172 0)
(-0.934817 0.430957 0)
(-0.846474 0.390231 0)
(-0.773376 0.356532 0)
(-0.7119 0.328191 0)
(-0.659484 0.304027 0)
(-0.614267 0.283181 0)
(-0.574863 0.265016 0)
(-0.540221 0.249046 0)
(-0.509528 0.234896 0)
(-0.482147 0.222273 0)
(-0.457569 0.210943 0)
(-0.435388 0.200717 0)
(-0.415258 0.191437 0)
(-0.396956 0.182999 0)
(-0.380098 0.175228 0)
(-0.364821 0.168185 0)
(-1.6544 0.610346 0)
(-1.40575 0.518609 0)
(-1.22017 0.450146 0)
(-1.07827 0.397797 0)
(-0.965748 0.356284 0)
(-0.874482 0.322614 0)
(-0.798965 0.294754 0)
(-0.735455 0.271324 0)
(-0.681305 0.251347 0)
(-0.634591 0.234114 0)
(-0.593884 0.219096 0)
(-0.558095 0.205893 0)
(-0.526387 0.194195 0)
(-0.4981 0.183759 0)
(-0.472709 0.174392 0)
(-0.449793 0.165938 0)
(-0.428998 0.158266 0)
(-0.41009 0.15129 0)
(-0.392675 0.144865 0)
(-0.376892 0.139043 0)
(-1.69719 0.478662 0)
(-1.4421 0.406717 0)
(-1.25173 0.353025 0)
(-1.10616 0.311971 0)
(-0.990724 0.279414 0)
(-0.897098 0.253008 0)
(-0.819628 0.231159 0)
(-0.754476 0.212785 0)
(-0.698925 0.197118 0)
(-0.651003 0.183602 0)
(-0.609243 0.171825 0)
(-0.572529 0.16147 0)
(-0.540001 0.152296 0)
(-0.510982 0.144112 0)
(-0.484934 0.136766 0)
(-0.461426 0.130136 0)
(-0.440093 0.124119 0)
(-0.420696 0.118649 0)
(-0.40283 0.11361 0)
(-0.38664 0.109044 0)
(-1.72951 0.344026 0)
(-1.46957 0.292317 0)
(-1.27557 0.253727 0)
(-1.12723 0.22422 0)
(-1.00959 0.200821 0)
(-0.914184 0.181843 0)
(-0.835238 0.16614 0)
(-0.768845 0.152933 0)
(-0.712236 0.141673 0)
(-0.663402 0.131959 0)
(-0.620846 0.123494 0)
(-0.583433 0.116052 0)
(-0.550285 0.109459 0)
(-0.520713 0.103577 0)
(-0.49417 0.0982966 0)
(-0.470214 0.0935315 0)
(-0.448474 0.0892072 0)
(-0.428708 0.0852754 0)
(-0.410502 0.081654 0)
(-0.394003 0.0783721 0)
(-1.75118 0.207269 0)
(-1.48797 0.176115 0)
(-1.29154 0.152865 0)
(-1.14135 0.135088 0)
(-1.02224 0.12099 0)
(-0.925633 0.109556 0)
(-0.845698 0.100095 0)
(-0.778473 0.0921386 0)
(-0.721156 0.0853546 0)
(-0.67171 0.0795023 0)
(-0.628621 0.0744024 0)
(-0.59074 0.0699188 0)
(-0.557177 0.0659463 0)
(-0.527235 0.0624025 0)
(-0.500359 0.0592214 0)
(-0.476103 0.0563506 0)
(-0.454091 0.0537453 0)
(-0.434077 0.0513765 0)
(-0.415643 0.0491946 0)
(-0.398937 0.0472174 0)
(-1.76204 0.0692329 0)
(-1.4972 0.0588258 0)
(-1.29955 0.0510598 0)
(-1.14843 0.0451219 0)
(-1.02858 0.040413 0)
(-0.931375 0.0365939 0)
(-0.850945 0.0334337 0)
(-0.783303 0.0307761 0)
(-0.72563 0.0285101 0)
(-0.675877 0.0265553 0)
(-0.632521 0.0248518 0)
(-0.594404 0.0233542 0)
(-0.560633 0.0220274 0)
(-0.530506 0.0208436 0)
(-0.503463 0.0197811 0)
(-0.479057 0.0188222 0)
(-0.456908 0.017952 0)
(-0.43677 0.0171607 0)
(-0.418222 0.016432 0)
(-0.401412 0.0157715 0)
(-1.76204 -0.069233 0)
(-1.4972 -0.0588259 0)
(-1.29955 -0.0510599 0)
(-1.14843 -0.045122 0)
(-1.02858 -0.0404131 0)
(-0.931375 -0.036594 0)
(-0.850945 -0.0334338 0)
(-0.783303 -0.0307762 0)
(-0.72563 -0.0285102 0)
(-0.675877 -0.0265554 0)
(-0.632521 -0.0248519 0)
(-0.594404 -0.0233543 0)
(-0.560633 -0.0220274 0)
(-0.530506 -0.0208437 0)
(-0.503463 -0.0197812 0)
(-0.479057 -0.0188222 0)
(-0.456908 -0.017952 0)
(-0.43677 -0.0171608 0)
(-0.418222 -0.016432 0)
(-0.401412 -0.0157715 0)
(-1.75118 -0.207269 0)
(-1.48797 -0.176115 0)
(-1.29154 -0.152865 0)
(-1.14135 -0.135088 0)
(-1.02224 -0.12099 0)
(-0.925633 -0.109556 0)
(-0.845698 -0.100095 0)
(-0.778473 -0.0921387 0)
(-0.721156 -0.0853547 0)
(-0.67171 -0.0795024 0)
(-0.628621 -0.0744025 0)
(-0.59074 -0.0699188 0)
(-0.557177 -0.0659464 0)
(-0.527235 -0.0624025 0)
(-0.500359 -0.0592215 0)
(-0.476103 -0.0563506 0)
(-0.454091 -0.0537453 0)
(-0.434077 -0.0513765 0)
(-0.415643 -0.0491946 0)
(-0.398938 -0.0472174 0)
(-1.72951 -0.344027 0)
(-1.46957 -0.292317 0)
(-1.27557 -0.253727 0)
(-1.12723 -0.22422 0)
(-1.00959 -0.200821 0)
(-0.914184 -0.181843 0)
(-0.835238 -0.16614 0)
(-0.768845 -0.152933 0)
(-0.712236 -0.141673 0)
(-0.663402 -0.131959 0)
(-0.620846 -0.123494 0)
(-0.583433 -0.116052 0)
(-0.550285 -0.109459 0)
(-0.520713 -0.103577 0)
(-0.49417 -0.0982967 0)
(-0.470214 -0.0935316 0)
(-0.448474 -0.0892073 0)
(-0.428708 -0.0852754 0)
(-0.410502 -0.081654 0)
(-0.394003 -0.0783721 0)
(-1.69719 -0.478662 0)
(-1.4421 -0.406717 0)
(-1.25173 -0.353025 0)
(-1.10616 -0.311971 0)
(-0.990724 -0.279414 0)
(-0.897098 -0.253009 0)
(-0.819628 -0.23116 0)
(-0.754476 -0.212785 0)
(-0.698925 -0.197118 0)
(-0.651003 -0.183602 0)
(-0.609243 -0.171825 0)
(-0.572529 -0.16147 0)
(-0.540001 -0.152296 0)
(-0.510982 -0.144112 0)
(-0.484934 -0.136766 0)
(-0.461426 -0.130136 0)
(-0.440093 -0.124119 0)
(-0.420696 -0.118649 0)
(-0.40283 -0.11361 0)
(-0.38664 -0.109044 0)
(-1.6544 -0.610346 0)
(-1.40575 -0.518609 0)
(-1.22017 -0.450146 0)
(-1.07827 -0.397797 0)
(-0.965748 -0.356284 0)
(-0.874482 -0.322614 0)
(-0.798965 -0.294754 0)
(-0.735455 -0.271324 0)
(-0.681305 -0.251347 0)
(-0.634591 -0.234114 0)
(-0.593884 -0.219096 0)
(-0.558095 -0.205893 0)
(-0.526387 -0.194195 0)
(-0.4981 -0.183759 0)
(-0.472709 -0.174392 0)
(-0.449794 -0.165938 0)
(-0.428998 -0.158266 0)
(-0.41009 -0.15129 0)
(-0.392675 -0.144865 0)
(-0.376892 -0.139043 0)
(-1.60141 -0.738266 0)
(-1.36072 -0.627304 0)
(-1.18109 -0.544492 0)
(-1.04374 -0.481172 0)
(-0.934817 -0.430958 0)
(-0.846474 -0.390231 0)
(-0.773376 -0.356532 0)
(-0.7119 -0.328191 0)
(-0.659484 -0.304027 0)
(-0.614267 -0.283182 0)
(-0.574863 -0.265016 0)
(-0.540221 -0.249046 0)
(-0.509528 -0.234896 0)
(-0.482147 -0.222273 0)
(-0.457569 -0.210943 0)
(-0.435388 -0.200717 0)
(-0.415258 -0.191437 0)
(-0.396956 -0.182999 0)
(-0.380098 -0.175228 0)
(-0.364821 -0.168185 0)
(-1.53855 -0.861635 0)
(-1.30731 -0.732131 0)
(-1.13473 -0.63548 0)
(-1.00277 -0.561579 0)
(-0.898123 -0.502974 0)
(-0.813248 -0.455442 0)
(-0.743019 -0.416111 0)
(-0.683956 -0.383035 0)
(-0.633598 -0.354832 0)
(-0.590155 -0.330504 0)
(-0.552298 -0.309302 0)
(-0.519016 -0.290663 0)
(-0.489528 -0.274149 0)
(-0.463221 -0.259417 0)
(-0.439608 -0.246193 0)
(-0.418298 -0.234258 0)
(-0.398958 -0.223428 0)
(-0.381374 -0.21358 0)
(-0.365178 -0.20451 0)
(-0.350501 -0.19629 0)
(-1.46621 -0.979692 0)
(-1.24584 -0.832444 0)
(-1.08137 -0.722551 0)
(-0.955618 -0.638524 0)
(-0.855891 -0.571889 0)
(-0.775007 -0.517844 0)
(-0.708081 -0.473125 0)
(-0.651795 -0.435516 0)
(-0.603805 -0.40345 0)
(-0.562405 -0.375788 0)
(-0.526328 -0.351682 0)
(-0.494611 -0.330489 0)
(-0.466509 -0.311712 0)
(-0.44144 -0.294961 0)
(-0.418937 -0.279925 0)
(-0.398628 -0.266355 0)
(-0.380199 -0.254041 0)
(-0.363441 -0.242844 0)
(-0.348007 -0.232531 0)
(-0.33402 -0.223185 0)
(-1.38482 -1.09171 0)
(-1.17668 -0.927625 0)
(-1.02135 -0.805167 0)
(-0.902574 -0.711533 0)
(-0.808383 -0.637279 0)
(-0.731989 -0.577055 0)
(-0.668777 -0.527222 0)
(-0.615616 -0.485313 0)
(-0.570289 -0.449581 0)
(-0.531187 -0.418755 0)
(-0.497113 -0.391893 0)
(-0.467156 -0.368277 0)
(-0.440615 -0.347353 0)
(-0.416937 -0.328687 0)
(-0.395683 -0.311932 0)
(-0.376502 -0.29681 0)
(-0.359095 -0.283088 0)
(-0.343268 -0.270611 0)
(-0.32869 -0.259119 0)
(-0.315479 -0.248704 0)
(-1.2949 -1.19699 0)
(-1.10028 -1.01709 0)
(-0.955027 -0.882819 0)
(-0.843965 -0.780155 0)
(-0.755891 -0.698739 0)
(-0.684457 -0.632707 0)
(-0.62535 -0.578069 0)
(-0.575641 -0.532118 0)
(-0.533257 -0.492939 0)
(-0.496695 -0.459141 0)
(-0.464833 -0.429688 0)
(-0.436821 -0.403794 0)
(-0.412003 -0.380853 0)
(-0.389863 -0.360386 0)
(-0.369989 -0.342015 0)
(-0.352054 -0.325436 0)
(-0.335777 -0.310389 0)
(-0.320978 -0.296709 0)
(-0.307347 -0.284109 0)
(-0.294994 -0.27269 0)
(-1.19699 -1.2949 0)
(-1.01709 -1.10028 0)
(-0.882818 -0.955028 0)
(-0.780154 -0.843966 0)
(-0.698738 -0.755892 0)
(-0.632706 -0.684458 0)
(-0.578068 -0.625351 0)
(-0.532117 -0.575642 0)
(-0.492938 -0.533259 0)
(-0.45914 -0.496696 0)
(-0.429687 -0.464834 0)
(-0.403794 -0.436822 0)
(-0.380852 -0.412004 0)
(-0.360386 -0.389864 0)
(-0.342015 -0.36999 0)
(-0.325435 -0.352054 0)
(-0.310389 -0.335778 0)
(-0.296709 -0.320978 0)
(-0.284108 -0.307347 0)
(-0.27269 -0.294994 0)
(-1.09171 -1.38482 0)
(-0.927624 -1.17669 0)
(-0.805166 -1.02135 0)
(-0.711532 -0.902575 0)
(-0.637278 -0.808384 0)
(-0.577053 -0.73199 0)
(-0.527221 -0.668778 0)
(-0.485312 -0.615617 0)
(-0.44958 -0.57029 0)
(-0.418754 -0.531189 0)
(-0.391892 -0.497114 0)
(-0.368276 -0.467157 0)
(-0.347353 -0.440616 0)
(-0.328686 -0.416937 0)
(-0.311931 -0.395684 0)
(-0.29681 -0.376502 0)
(-0.283088 -0.359095 0)
(-0.270611 -0.343268 0)
(-0.259119 -0.328691 0)
(-0.248704 -0.31548 0)
(-0.979692 -1.46621 0)
(-0.832443 -1.24584 0)
(-0.72255 -1.08137 0)
(-0.638524 -0.955619 0)
(-0.571888 -0.855893 0)
(-0.517843 -0.775009 0)
(-0.473124 -0.708082 0)
(-0.435515 -0.651796 0)
(-0.403449 -0.603806 0)
(-0.375787 -0.562406 0)
(-0.351681 -0.526329 0)
(-0.330488 -0.494612 0)
(-0.311712 -0.46651 0)
(-0.294961 -0.441441 0)
(-0.279925 -0.418938 0)
(-0.266355 -0.398629 0)
(-0.254041 -0.380199 0)
(-0.242844 -0.363442 0)
(-0.232531 -0.348008 0)
(-0.223185 -0.33402 0)
(-0.861635 -1.53855 0)
(-0.73213 -1.30731 0)
(-0.63548 -1.13473 0)
(-0.561578 -1.00277 0)
(-0.502973 -0.898124 0)
(-0.455441 -0.813249 0)
(-0.41611 -0.74302 0)
(-0.383034 -0.683957 0)
(-0.354832 -0.633599 0)
(-0.330503 -0.590157 0)
(-0.309302 -0.552299 0)
(-0.290663 -0.519017 0)
(-0.274149 -0.489529 0)
(-0.259416 -0.463222 0)
(-0.246192 -0.439609 0)
(-0.234258 -0.418299 0)
(-0.223427 -0.398959 0)
(-0.21358 -0.381375 0)
(-0.20451 -0.365179 0)
(-0.19629 -0.350502 0)
(-0.738266 -1.60142 0)
(-0.627304 -1.36072 0)
(-0.544491 -1.18109 0)
(-0.481171 -1.04374 0)
(-0.430957 -0.934819 0)
(-0.39023 -0.846476 0)
(-0.356531 -0.773377 0)
(-0.32819 -0.711901 0)
(-0.304026 -0.659486 0)
(-0.283181 -0.614268 0)
(-0.265015 -0.574864 0)
(-0.249045 -0.540222 0)
(-0.234896 -0.509529 0)
(-0.222273 -0.482148 0)
(-0.210942 -0.45757 0)
(-0.200717 -0.435389 0)
(-0.191437 -0.415259 0)
(-0.182999 -0.396957 0)
(-0.175228 -0.380099 0)
(-0.168185 -0.364822 0)
(-0.610346 -1.6544 0)
(-0.518609 -1.40575 0)
(-0.450145 -1.22017 0)
(-0.397797 -1.07828 0)
(-0.356283 -0.965749 0)
(-0.322613 -0.874484 0)
(-0.294754 -0.798967 0)
(-0.271323 -0.735457 0)
(-0.251346 -0.681306 0)
(-0.234113 -0.634593 0)
(-0.219095 -0.593885 0)
(-0.205892 -0.558097 0)
(-0.194194 -0.526389 0)
(-0.183759 -0.498101 0)
(-0.174391 -0.47271 0)
(-0.165938 -0.449795 0)
(-0.158266 -0.428999 0)
(-0.15129 -0.410091 0)
(-0.144866 -0.392676 0)
(-0.139043 -0.376893 0)
(-0.478662 -1.69719 0)
(-0.406717 -1.4421 0)
(-0.353024 -1.25173 0)
(-0.31197 -1.10616 0)
(-0.279413 -0.990726 0)
(-0.253008 -0.8971 0)
(-0.231159 -0.81963 0)
(-0.212784 -0.754477 0)
(-0.197117 -0.698927 0)
(-0.183602 -0.651005 0)
(-0.171824 -0.609245 0)
(-0.16147 -0.572531 0)
(-0.152296 -0.540002 0)
(-0.144112 -0.510983 0)
(-0.136766 -0.484936 0)
(-0.130136 -0.461428 0)
(-0.124119 -0.440094 0)
(-0.118649 -0.420697 0)
(-0.11361 -0.402831 0)
(-0.109044 -0.386641 0)
(-0.344027 -1.72952 0)
(-0.292317 -1.46957 0)
(-0.253726 -1.27557 0)
(-0.22422 -1.12723 0)
(-0.20082 -1.00959 0)
(-0.181842 -0.914185 0)
(-0.166139 -0.83524 0)
(-0.152932 -0.768846 0)
(-0.141672 -0.712238 0)
(-0.131958 -0.663404 0)
(-0.123494 -0.620848 0)
(-0.116052 -0.583435 0)
(-0.109458 -0.550287 0)
(-0.103576 -0.520715 0)
(-0.0982964 -0.494171 0)
(-0.0935314 -0.470216 0)
(-0.0892071 -0.448476 0)
(-0.0852754 -0.428709 0)
(-0.0816541 -0.410503 0)
(-0.0783723 -0.394004 0)
(-0.207269 -1.75118 0)
(-0.176114 -1.48797 0)
(-0.152864 -1.29154 0)
(-0.135087 -1.14135 0)
(-0.120989 -1.02224 0)
(-0.109555 -0.925635 0)
(-0.100094 -0.8457 0)
(-0.0921378 -0.778475 0)
(-0.0853539 -0.721158 0)
(-0.0795017 -0.671712 0)
(-0.0744018 -0.628623 0)
(-0.0699183 -0.590741 0)
(-0.0659459 -0.557178 0)
(-0.0624021 -0.527236 0)
(-0.0592211 -0.50036 0)
(-0.0563504 -0.476105 0)
(-0.0537452 -0.454093 0)
(-0.0513764 -0.434079 0)
(-0.0491947 -0.415644 0)
(-0.0472175 -0.398939 0)
(-0.0692328 -1.76204 0)
(-0.0588254 -1.49721 0)
(-0.0510592 -1.29956 0)
(-0.0451212 -1.14843 0)
(-0.0404123 -1.02858 0)
(-0.0365931 -0.931377 0)
(-0.033433 -0.850947 0)
(-0.0307753 -0.783305 0)
(-0.0285094 -0.725632 0)
(-0.0265547 -0.675879 0)
(-0.0248513 -0.632523 0)
(-0.0233537 -0.594406 0)
(-0.0220269 -0.560635 0)
(-0.0208433 -0.530507 0)
(-0.0197808 -0.503464 0)
(-0.018822 -0.479058 0)
(-0.0179518 -0.45691 0)
(-0.0171606 -0.436772 0)
(-0.0164319 -0.418223 0)
(-0.0157715 -0.401414 0)
(1.76205 -0.0692331 0)
(1.75118 -0.20727 0)
(1.72952 -0.344027 0)
(1.69719 -0.478663 0)
(1.65441 -0.610347 0)
(1.60142 -0.738268 0)
(1.53856 -0.861637 0)
(1.46621 -0.979693 0)
(1.38483 -1.09171 0)
(1.2949 -1.197 0)
(1.197 -1.2949 0)
(1.09171 -1.38483 0)
(0.979693 -1.46621 0)
(0.861636 -1.53856 0)
(0.738267 -1.60142 0)
(0.610347 -1.6544 0)
(0.478663 -1.69719 0)
(0.344027 -1.72952 0)
(0.20727 -1.75118 0)
(0.0692333 -1.76204 0)
(1.49721 -0.058826 0)
(1.48798 -0.176115 0)
(1.46957 -0.292318 0)
(1.44211 -0.406718 0)
(1.40575 -0.51861 0)
(1.36073 -0.627305 0)
(1.30731 -0.732132 0)
(1.24584 -0.832445 0)
(1.17669 -0.927626 0)
(1.10028 -1.01709 0)
(1.01709 -1.10028 0)
(0.927626 -1.17669 0)
(0.832445 -1.24584 0)
(0.732132 -1.30731 0)
(0.627305 -1.36072 0)
(0.51861 -1.40575 0)
(0.406718 -1.4421 0)
(0.292318 -1.46957 0)
(0.176115 -1.48798 0)
(0.0588264 -1.49721 0)
(1.29956 -0.0510599 0)
(1.29155 -0.152865 0)
(1.27557 -0.253727 0)
(1.25173 -0.353025 0)
(1.22017 -0.450147 0)
(1.18109 -0.544492 0)
(1.13473 -0.635481 0)
(1.08138 -0.722552 0)
(1.02135 -0.805168 0)
(0.95503 -0.88282 0)
(0.882821 -0.955029 0)
(0.805169 -1.02135 0)
(0.722553 -1.08137 0)
(0.635482 -1.13473 0)
(0.544493 -1.18109 0)
(0.450147 -1.22017 0)
(0.353026 -1.25173 0)
(0.253728 -1.27557 0)
(0.152865 -1.29154 0)
(0.0510606 -1.29956 0)
(1.14843 -0.0451219 0)
(1.14135 -0.135088 0)
(1.12723 -0.224221 0)
(1.10616 -0.311971 0)
(1.07828 -0.397798 0)
(1.04374 -0.481172 0)
(1.00277 -0.56158 0)
(0.955621 -0.638525 0)
(0.902577 -0.711534 0)
(0.843968 -0.780155 0)
(0.780156 -0.843967 0)
(0.711534 -0.902576 0)
(0.638526 -0.95562 0)
(0.56158 -1.00277 0)
(0.481173 -1.04374 0)
(0.397798 -1.07828 0)
(0.311972 -1.10616 0)
(0.224221 -1.12723 0)
(0.135088 -1.14135 0)
(0.0451227 -1.14843 0)
(1.02858 -0.0404131 0)
(1.02224 -0.12099 0)
(1.0096 -0.200821 0)
(0.990728 -0.279414 0)