/*--------------------------------*- C++ -*----------------------------------*\
| =========                 |                                                 |
| \\      /  F ield         | foam-extend: Open Source CFD                    |
|  \\    /   O peration     | Version:  3.0                                   |
|   \\  /    A nd           | Web:         http://www.extend-project.de       |
|    \\/     M anipulation  |                                                 |
\*---------------------------------------------------------------------------*/
FoamFile
{
    version     2.0;
    format      ascii;
    class       volVectorField;
    location    "10";
    object      s;
}
// * * * * * * * * * * * * * * * * * * * * * * * * * * * * * * * * * * * * * //

dimensions      [0 1 -1 0 0 0 0];

internalField   nonuniform List<vector> 
3012
(
(-2.18319 0.140628 0)
(-1.79186 -0.19849 0)
(-2.54247 0.18724 0)
(-1.70128 0.179611 0)
(-3.10347 0.425995 0)
(-2.11033 0.241306 0)
(-3.00692 -0.250856 0)
(-2.80752 0.126453 0)
(-1.9716 0.258521 0)
(-2.16127 -0.356927 0)
(-1.85237 -0.0440744 0)
(-2.20342 0.488033 0)
(-1.23603 -0.0955696 0)
(-1.95369 0.0919592 0)
(-2.20939 0.0871285 0)
(-1.18862 0.159605 0)
(-3.08955 0.372362 0)
(-2.12942 0.296086 0)
(-2.93357 -0.28717 0)
(-2.81818 0.12569 0)
(-1.24783 0.459875 0)
(-1.62637 -0.207937 0)
(-1.84013 -0.329467 0)
(-1.191 0.320356 0)
(-2.63257 0.0623138 0)
(-1.93245 -0.0968675 0)
(-1.90304 0.313152 0)
(-2.21767 0.0706411 0)
(-1.83215 0.348547 0)
(-2.03387 0.440988 0)
(-1.33427 -0.12874 0)
(-1.49965 -0.398395 0)
(-1.2724 -0.105495 0)
(-2.05184 0.399734 0)
(-1.84596 0.323896 0)
(-1.41751 -0.37113 0)
(-2.05196 -0.137617 0)
(-2.67709 0.0800906 0)
(-2.23193 0.0733098 0)
(-2.01138 0.30587 0)
(-1.12784 -0.0811032 0)
(-2.12084 0.080337 0)
(-1.08087 0.152421 0)
(-1.88641 0.0862599 0)
(-1.25545 -0.0624541 0)
(-1.38352 -0.330099 0)
(-1.88404 0.290375 0)
(-2.10303 0.353877 0)
(-1.22641 -0.328309 0)
(-1.97916 0.349243 0)
(-1.78713 0.299836 0)
(-1.11239 -0.0890286 0)
(-2.17125 0.139891 0)
(-1.72524 -0.185507 0)
(-1.63958 0.180499 0)
(-2.51991 0.178741 0)
(-2.67969 -0.286971 0)
(-2.20476 0.461297 0)
(-3.02608 0.288296 0)
(-2.82476 0.110035 0)
(-2.69907 -0.316248 0)
(-2.18439 0.407633 0)
(-3.00767 0.310832 0)
(-2.85054 0.0941749 0)
(-1.26463 -0.0471832 0)
(-1.97029 0.0485959 0)
(-2.23747 0.0271843 0)
(-1.23305 0.207549 0)
(-2.08568 -0.126806 0)
(-1.1588 0.313619 0)
(-1.15971 0.115294 0)
(-1.84604 -0.0687859 0)
(-1.75734 0.497907 0)
(-1.52022 -0.452463 0)
(-1.33239 -0.216302 0)
(-1.60988 0.394056 0)
(-1.65666 0.376822 0)
(-1.81428 0.455638 0)
(-1.37038 -0.430775 0)
(-1.21118 -0.196107 0)
(-1.35469 -0.0416292 0)
(-2.01791 0.0431615 0)
(-1.32739 0.231197 0)
(-2.30542 0.0175092 0)
(-2.06694 -0.0219198 0)
(-1.06589 0.232035 0)
(-1.09176 0.0256674 0)
(-1.83807 0.00648638 0)
(-1.18064 -0.141316 0)
(-1.95357 0.41157 0)
(-1.76761 0.343596 0)
(-1.31926 -0.387757 0)
(-2.21579 -0.351602 0)
(-1.97473 0.246513 0)
(-1.88958 -0.0404676 0)
(-2.2055 0.49249 0)
(-2.15383 0.0493302 0)
(-2.27679 0.420891 0)
(-2.1178 0.0117021 0)
(-2.62899 -0.152254 0)
(-2.0604 -0.143085 0)
(-1.13985 0.321721 0)
(-1.13887 0.130461 0)
(-1.82594 -0.0823944 0)
(-1.71897 0.503568 0)
(-1.32238 -0.224779 0)
(-1.51135 -0.457134 0)
(-1.57799 0.400052 0)
(-1.7607 -0.371543 0)
(-1.21771 0.344734 0)
(-1.55779 -0.23456 0)
(-1.2892 0.476024 0)
(-1.91339 0.23709 0)
(-2.14409 0.279698 0)
(-1.30723 -0.268871 0)
(-1.20627 -0.00306104 0)
(-1.47441 -0.458755 0)
(-1.29653 -0.26066 0)
(-1.49187 0.531194 0)
(-1.38095 0.421284 0)
(-1.70583 -0.163904 0)
(-1.05041 0.227065 0)
(-1.06392 0.356352 0)
(-1.90665 -0.242063 0)
(-2.44423 -0.157063 0)
(-2.27724 0.0307376 0)
(-2.75518 0.182886 0)
(-2.25804 0.367327 0)
(-2.99721 0.0966455 0)
(-2.61275 0.728364 0)
(-2.96459 0.0824237 0)
(-2.39103 -0.295011 0)
(-2.52143 -0.151721 0)
(-2.26054 0.0253719 0)
(-2.3668 0.415293 0)
(-2.79233 0.149038 0)
(-2.99425 0.131002 0)
(-3.02203 0.11893 0)
(-2.53363 0.74709 0)
(-2.45243 -0.344434 0)
(-2.62305 0.0979518 0)
(-1.82787 0.281518 0)
(-2.21302 0.0862466 0)
(-1.87805 -0.125158 0)
(-2.97815 0.228634 0)
(-2.34339 0.532319 0)
(-2.51187 -0.285121 0)
(-2.87171 0.0371665 0)
(-2.91631 0.242815 0)
(-2.32273 0.541355 0)
(-2.43525 -0.210973 0)
(-2.79685 0.0107166 0)
(-1.03198 -0.043466 0)
(-1.77947 0.251902 0)
(-1.12164 -0.271523 0)
(-1.97696 0.286752 0)
(-1.26714 -0.344435 0)
(-1.99151 0.369639 0)
(-1.79697 0.313291 0)
(-1.14443 -0.0993185 0)
(-1.70535 -0.394915 0)
(-1.50826 -0.244889 0)
(-1.33611 0.49508 0)
(-1.25432 0.367172 0)
(-2.24379 0.0723921 0)
(-2.329 -0.13564 0)
(-2.75374 0.0574576 0)
(-2.3185 0.364336 0)
(-1.28598 -0.123962 0)
(-2.02732 0.421605 0)
(-1.82694 0.339857 0)
(-1.4396 -0.389104 0)
(-2.84582 0.332469 0)
(-2.74685 -0.0358956 0)
(-2.44203 -0.173239 0)
(-2.20174 0.398991 0)
(-2.37405 -0.0593565 0)
(-2.8106 0.309311 0)
(-2.26512 0.385129 0)
(-2.66763 -0.108629 0)
(-2.23551 0.0773215 0)
(-2.35624 -0.168935 0)
(-2.76661 0.0812807 0)
(-2.32295 0.364158 0)
(-1.58732 0.498071 0)
(-1.79908 -0.177717 0)
(-1.49088 0.295846 0)
(-2.07757 -0.347154 0)
(-1.54288 0.328624 0)
(-2.00617 -0.3888 0)
(-1.66105 0.516925 0)
(-1.73898 -0.193199 0)
(-1.74237 -0.384262 0)
(-1.53967 -0.238681 0)
(-1.32663 0.492476 0)
(-1.24824 0.360536 0)
(-1.60173 -0.395517 0)
(-2.09874 0.442457 0)
(-1.88223 0.336939 0)
(-1.42477 -0.109745 0)
(-1.25482 -0.0213092 0)
(-1.95588 0.0326559 0)
(-1.22809 0.225592 0)
(-2.21956 0.00562678 0)
(-1.26371 -0.11636 0)
(-2.22453 0.109859 0)
(-1.96612 0.108264 0)
(-1.20991 0.144879 0)
(-1.05957 -0.216783 0)
(-1.96768 0.226271 0)
(-0.989464 0.00467267 0)
(-1.76918 0.202762 0)
(-1.06891 0.24291 0)
(-1.70601 -0.165895 0)
(-1.91483 -0.247584 0)
(-1.08433 0.38429 0)
(-2.30168 -0.0124542 0)
(-1.33724 0.254934 0)
(-1.35556 -0.0122692 0)
(-2.01217 0.0224438 0)
(-1.50681 -0.470762 0)
(-1.38434 0.419101 0)
(-1.32483 -0.271484 0)
(-1.49627 0.531852 0)
(-1.33875 -0.142405 0)
(-1.80321 0.353989 0)
(-1.50727 -0.407617 0)
(-1.9961 0.448591 0)
(-1.11754 0.239078 0)
(-1.71419 -0.156263 0)
(-1.14177 0.386655 0)
(-1.92772 -0.244278 0)
(-1.36669 -0.254575 0)
(-1.52147 0.518121 0)
(-1.40831 0.403707 0)
(-1.55217 -0.454643 0)
(-2.06645 0.458309 0)
(-1.62724 -0.406008 0)
(-1.44134 -0.124186 0)
(-1.85796 0.346477 0)
(-1.25218 0.454583 0)
(-1.65633 -0.19805 0)
(-1.87476 -0.317635 0)
(-1.19807 0.30882 0)
(-1.22364 0.336668 0)
(-1.8102 -0.354249 0)
(-1.29123 0.475092 0)
(-1.59896 -0.221377 0)
(-1.63023 0.503527 0)
(-1.8061 -0.173908 0)
(-1.52668 0.297723 0)
(-2.08878 -0.351427 0)
(-1.55765 0.313909 0)
(-1.67481 0.51204 0)
(-2.05318 -0.378104 0)
(-1.77588 -0.18443 0)
(-2.49197 -0.249009 0)
(-1.9678 0.13736 0)
(-2.06563 -0.0166824 0)
(-2.13836 0.486069 0)
(-1.11318 -0.158221 0)
(-1.70023 0.349297 0)
(-1.24472 -0.389093 0)
(-1.86737 0.410286 0)
(-1.05256 -0.0679621 0)
(-2.04 0.076026 0)
(-1.00808 0.146938 0)
(-1.82334 0.0815733 0)
(-1.72706 0.507402 0)
(-1.60351 0.298204 0)
(-1.80613 -0.169756 0)
(-2.09609 -0.369287 0)
(-1.16445 -0.082861 0)
(-2.13804 0.0825495 0)
(-1.11665 0.15374 0)
(-1.89982 0.0881806 0)
(-1.2318 -0.0691939 0)
(-1.95208 0.0715538 0)
(-2.21003 0.0605525 0)
(-1.19032 0.181491 0)
(-2.20783 0.105196 0)
(-1.8475 -0.182118 0)
(-1.77996 0.221021 0)
(-2.59785 0.132143 0)
(-1.01872 -0.0286579 0)
(-1.97867 0.269513 0)
(-1.77928 0.23726 0)
(-1.10251 -0.254536 0)
(-2.7225 -0.126701 0)
(-2.22189 0.0318317 0)
(-2.6577 0.470108 0)
(-2.80826 0.0717605 0)
(-2.8455 -0.155473 0)
(-2.81737 0.474331 0)
(-2.20073 0.063337 0)
(-2.82943 0.067698 0)
(-1.22238 -0.0640139 0)
(-1.87551 0.288648 0)
(-1.34554 -0.328233 0)
(-2.0922 0.347889 0)
(-1.77704 0.517511 0)
(-1.64449 0.306649 0)
(-1.80294 -0.164444 0)
(-2.09545 -0.374312 0)
(-1.29605 -0.284495 0)
(-1.88979 0.256319 0)
(-2.11305 0.303724 0)
(-1.18928 -0.0236057 0)
(-2.20202 0.101913 0)
(-1.8533 -0.153208 0)
(-1.7878 0.241339 0)
(-2.59221 0.129357 0)
(-2.49361 -0.229528 0)
(-1.93055 0.121731 0)
(-2.07262 -0.0276212 0)
(-2.07395 0.465223 0)
(-1.83493 -0.427039 0)
(-1.61526 0.527161 0)
(-1.49541 0.371075 0)
(-1.60166 -0.226118 0)
(-1.09283 -0.00322349 0)
(-2.07983 0.00449447 0)
(-1.84988 0.0269994 0)
(-1.06209 0.209578 0)
(-1.34682 0.28167 0)
(-1.77811 -0.176897 0)
(-1.41431 0.467566 0)
(-2.03462 -0.312866 0)
(-2.14938 0.00965412 0)
(-2.14417 0.418809 0)
(-2.01231 0.0318773 0)
(-2.60514 -0.16869 0)
(-2.09027 -0.0457798 0)
(-1.1212 0.0384145 0)
(-1.10034 0.24852 0)
(-1.85484 -0.0106916 0)
(-1.82208 0.468875 0)
(-1.66325 0.382502 0)
(-1.41743 -0.43305 0)
(-1.24935 -0.195548 0)
(-1.84756 0.447693 0)
(-1.68422 0.371822 0)
(-1.34927 -0.421166 0)
(-1.19469 -0.184027 0)
(-1.23249 -0.224344 0)
(-1.7225 0.481791 0)
(-1.58049 0.394905 0)
(-1.40494 -0.453056 0)
(-1.07256 0.0890309 0)
(-2.02876 -0.0887186 0)
(-1.05915 0.280307 0)
(-1.80427 -0.0456595 0)
(-1.05064 -0.193891 0)
(-1.97539 0.208312 0)
(-0.980231 0.0290739 0)
(-1.77593 0.186799 0)
(-1.01564 -0.0786031 0)
(-1.73532 0.276193 0)
(-1.91911 0.313865 0)
(-1.11095 -0.299239 0)
(-1.25916 -0.218195 0)
(-1.73346 0.483423 0)
(-1.43501 -0.448272 0)
(-1.59048 0.392882 0)
(-1.09878 0.0921242 0)
(-2.04227 -0.0970927 0)
(-1.81479 -0.0506295 0)
(-1.08804 0.284873 0)
(-1.81746 0.346285 0)
(-1.83883 -0.418797 0)
(-1.60598 -0.142235 0)
(-2.01125 0.500568 0)
(-1.87372 0.337912 0)
(-1.83477 -0.414928 0)
(-2.08518 0.488078 0)
(-1.60769 -0.122719 0)
(-2.13249 -0.263702 0)
(-1.42859 0.437173 0)
(-1.85798 -0.142496 0)
(-1.37269 0.227811 0)
(-1.59696 -0.207163 0)
(-1.59907 0.371909 0)
(-1.74054 0.52987 0)
(-1.8347 -0.433273 0)
(-1.27667 -0.047797 0)
(-1.90908 0.276887 0)
(-2.13617 0.339273 0)
(-1.40227 -0.321662 0)
(-1.82815 0.516854 0)
(-1.88478 -0.13576 0)
(-1.69425 0.276154 0)
(-2.20655 -0.343942 0)
(-1.87501 0.501914 0)
(-1.92247 -0.114164 0)
(-1.73743 0.245362 0)
(-2.2607 -0.325728 0)
(-1.62222 -0.225104 0)
(-1.42008 0.497548 0)
(-1.33349 0.34662 0)
(-1.84658 -0.383333 0)
(-1.49548 0.363626 0)
(-1.46852 0.0995608 0)
(-2.00794 -0.0539423 0)
(-2.31966 -0.136718 0)
(-1.26421 -0.16666 0)
(-1.94844 0.149849 0)
(-1.19503 0.0958769 0)
(-2.1973 0.164821 0)
(-2.26184 -0.257809 0)
(-2.24819 0.116043 0)
(-2.64553 0.296569 0)
(-2.03463 0.199411 0)
(-1.50831 0.346291 0)
(-2.04431 -0.0277976 0)
(-1.49295 0.0670761 0)
(-2.36542 -0.0966093 0)
(-2.49817 0.496817 0)
(-2.83186 0.147332 0)
(-2.30864 -0.0941043 0)
(-2.76162 -0.0836447 0)
(-1.37864 -0.235712 0)
(-1.53104 0.404981 0)
(-1.57406 -0.461961 0)
(-1.66409 0.520518 0)
(-1.17109 -0.378219 0)
(-1.68321 0.353377 0)
(-1.04812 -0.153382 0)
(-1.84337 0.408685 0)
(-1.79345 0.0949855 0)
(-2.00316 0.0941282 0)
(-0.952704 0.11416 0)
(-0.997313 -0.0959013 0)
(-1.80588 -0.119008 0)
(-1.16287 0.181653 0)
(-1.17812 0.362705 0)
(-2.04081 -0.19704 0)
(-2.01439 -0.090609 0)
(-1.72861 0.441843 0)
(-2.36783 -0.233123 0)
(-1.64575 0.157662 0)
(-2.04134 -0.0714828 0)
(-1.71999 0.430177 0)
(-2.40008 -0.201717 0)
(-1.64756 0.135352 0)
(-1.46811 -0.455891 0)
(-1.27959 -0.252689 0)
(-1.53009 0.520778 0)
(-1.41547 0.419657 0)
(-2.47361 -0.184383 0)
(-1.83777 0.430867 0)
(-2.08711 -0.0485314 0)
(-1.75386 0.10619 0)
(-1.06698 0.343843 0)
(-1.04974 0.19948 0)
(-1.71961 -0.145371 0)
(-1.92442 -0.219216 0)
(-2.18067 0.957135 0)
(-3.09996 -0.884014 0)
(-3.69374 0.0288075 0)
(-3.01794 0.475683 0)
(-2.11853 -0.254913 0)
(-1.3821 0.430672 0)
(-1.3335 0.226425 0)
(-1.84932 -0.141131 0)
(-1.92968 0.302268 0)
(-1.00786 -0.0607252 0)
(-1.09942 -0.280434 0)
(-1.74193 0.265918 0)
(-2.16469 0.26291 0)
(-2.69887 0.305767 0)
(-2.2798 0.0445811 0)
(-2.47081 -0.221099 0)
(-1.75826 0.411749 0)
(-2.4542 -0.171423 0)
(-2.07916 -0.0515367 0)
(-1.69255 0.0988187 0)
(-1.46564 0.510507 0)
(-1.61542 -0.229268 0)
(-1.37061 0.357698 0)
(-1.84262 -0.398283 0)
(-1.56171 -0.218742 0)
(-1.58326 0.381081 0)
(-1.72395 0.530744 0)
(-1.79051 -0.444427 0)
(-1.31486 -0.0591202 0)
(-1.99465 0.0605337 0)
(-1.28032 0.20594 0)
(-2.26991 0.0423642 0)
(-2.17287 0.604333 0)
(-2.99047 -0.418482 0)
(-3.33552 0.272111 0)
(-2.88566 0.278869 0)
(-1.79877 -0.433282 0)
(-1.62957 0.530352 0)
(-1.506 0.379556 0)
(-1.57086 -0.227168 0)
(-1.31948 0.265137 0)
(-1.78696 -0.17141 0)
(-1.3804 0.450901 0)
(-2.04164 -0.298269 0)
(-1.49551 -0.00665399 0)
(-2.29515 0.351939 0)
(-1.64481 -0.328342 0)
(-2.02665 0.263669 0)
(-1.21237 -0.128639 0)
(-1.97654 0.404834 0)
(-1.78659 0.335278 0)
(-1.35319 -0.379619 0)
(-2.16935 0.121049 0)
(-2.78725 0.461642 0)
(-2.7521 -0.151326 0)
(-2.79681 0.0647623 0)
(-1.15993 0.318282 0)
(-1.82412 -0.32077 0)
(-1.21133 0.453331 0)
(-1.61504 -0.205192 0)
(-2.29929 0.374126 0)
(-1.52919 -0.0156683 0)
(-1.69238 -0.34285 0)
(-2.02936 0.273966 0)
(-1.29957 0.386117 0)
(-1.64078 -0.433531 0)
(-1.45024 -0.264796 0)
(-1.39494 0.508559 0)
(-1.31449 0.383135 0)
(-1.67246 -0.426612 0)
(-1.47603 -0.257202 0)
(-1.4102 0.510105 0)
(-2.2637 0.224404 0)
(-1.29984 0.0644495 0)
(-1.99982 0.190155 0)
(-1.38835 -0.224499 0)
(-3.26217 0.0951127 0)
(-2.99199 0.801652 0)
(-2.24284 -0.254355 0)
(-2.90018 -0.0051533 0)
(-1.77096 0.530531 0)
(-1.72274 -0.448069 0)
(-1.62133 0.391675 0)
(-1.50347 -0.211378 0)
(-2.19681 0.34552 0)
(-1.3447 -0.0319484 0)
(-1.47776 -0.323102 0)
(-1.95497 0.275541 0)
(-1.32656 0.0561735 0)
(-1.42353 -0.237197 0)
(-2.00961 0.202062 0)
(-2.27523 0.244007 0)
(-1.05498 -0.0455419 0)
(-1.78654 0.257625 0)
(-1.98455 0.294608 0)
(-1.14841 -0.275757 0)
(-1.81425 0.524516 0)
(-1.73304 -0.444886 0)
(-1.51337 -0.201401 0)
(-1.65768 0.385081 0)
(-1.29626 0.179402 0)
(-1.32908 0.389841 0)
(-1.87789 -0.117909 0)
(-2.14442 -0.213558 0)
(-1.31933 0.162041 0)
(-1.34894 0.381157 0)
(-1.90144 -0.103692 0)
(-2.17491 -0.195448 0)
(-1.37431 0.0705271 0)
(-2.03198 0.196965 0)
(-1.4731 -0.232222 0)
(-2.3065 0.241811 0)
(-1.5376 -0.460148 0)
(-1.53543 0.405316 0)
(-1.34517 -0.232707 0)
(-1.66838 0.514722 0)
(-2.20679 0.350218 0)
(-1.51683 -0.330305 0)
(-1.37883 -0.0354584 0)
(-1.96278 0.275928 0)
(-1.24507 -0.141477 0)
(-1.94353 0.134416 0)
(-1.18161 0.116256 0)
(-2.19176 0.144165 0)
(-1.80399 -0.109111 0)
(-1.14039 0.163872 0)
(-1.14949 0.344484 0)
(-2.03505 -0.179906 0)
(-1.9437 -0.33262 0)
(-3.77704 -0.0156552 0)
(-3.57594 0.802155 0)
(-2.73652 -0.162274 0)
(-1.39417 0.0958345 0)
(-1.48524 -0.213297 0)
(-2.05588 0.178976 0)
(-2.34152 0.216915 0)
(-2.19405 0.402166 0)
(-1.62984 -0.37236 0)
(-1.95308 0.303018 0)
(-1.46298 -0.0688336 0)
(-1.79987 -0.0795917 0)
(-2.15099 0.502743 0)
(-1.92819 0.292059 0)
(-2.09001 -0.384843 0)
(-3.09449 -5.7607e-05 0)
(-2.8607 0.671063 0)
(-2.25088 -0.164319 0)
(-2.8758 0.0455259 0)
(-2.23752 0.108181 0)
(-2.52834 -0.122699 0)
(-2.80828 0.0305578 0)
(-2.58333 0.425333 0)
(-2.00654 0.289346 0)
(-1.78132 -0.367923 0)
(-2.26769 0.411917 0)
(-1.59183 -0.0390814 0)
(-1.28621 -0.0850151 0)
(-2.08622 0.387556 0)
(-1.42832 -0.355526 0)
(-1.87279 0.31331 0)
(-2.17608 0.189257 0)
(-2.01336 -0.294054 0)
(-1.82565 0.105086 0)
(-2.51862 0.324306 0)
(-1.10023 -0.23245 0)
(-1.79313 0.221328 0)
(-1.02009 -0.00560807 0)
(-1.99681 0.250483 0)
(-1.17119 -0.36168 0)
(-1.70146 0.34505 0)
(-1.86887 0.400429 0)
(-1.05068 -0.136555 0)
(-2.16596 0.193151 0)
(-2.0543 -0.31001 0)
(-2.50945 0.344714 0)
(-1.84841 0.0966597 0)
(-1.11496 -0.221693 0)
(-2.01515 0.236029 0)
(-1.80882 0.209154 0)
(-1.03666 0.00884533 0)
(-1.79991 0.109701 0)
(-0.965243 0.0990976 0)
(-2.0096 0.112307 0)
(-1.0144 -0.117685 0)
(-2.19627 0.393493 0)
(-1.43573 -0.0548247 0)
(-1.59575 -0.354536 0)
(-1.95546 0.299963 0)
(-2.59507 0.39012 0)
(-2.75661 -0.0658508 0)
(-2.19367 0.168208 0)
(-2.38879 -0.114851 0)
(-1.9891 0.300608 0)
(-1.7352 -0.373233 0)
(-1.5507 -0.0515746 0)
(-2.24314 0.417675 0)
(-2.14206 0.4021 0)
(-2.21511 0.0504526 0)
(-2.09633 -0.0491384 0)
(-2.69775 -0.0269657 0)
(-2.14658 0.543062 0)
(-2.64956 -0.309233 0)
(-3.05878 0.317221 0)
(-2.80177 0.126852 0)
(-2.70593 0.2727 0)
(-2.15209 0.289596 0)
(-2.41837 -0.203619 0)
(-2.27552 0.0475753 0)
(-2.29273 0.385899 0)
(-2.30319 0.00980089 0)
(-2.78034 0.213238 0)
(-2.52902 -0.148459 0)
(-2.06824 -0.0684724 0)
(-2.08919 0.373051 0)
(-2.68253 0.00212517 0)
(-2.21808 0.0554827 0)
(-1.09333 -0.126276 0)
(-1.73744 0.333376 0)
(-1.21594 -0.359344 0)
(-1.9157 0.388668 0)
(-1.11409 -0.139785 0)
(-1.914 0.398922 0)
(-1.73659 0.33964 0)
(-1.2421 -0.375938 0)
(-3.20587 -0.76244 0)
(-2.06476 0.977067 0)
(-3.68902 0.0678006 0)
(-2.89382 0.540714 0)
(-1.86985 0.329631 0)
(-2.08227 0.422157 0)
(-1.37293 -0.108719 0)
(-1.53679 -0.387525 0)
(-2.34514 0.320485 0)
(-2.06227 0.240605 0)
(-1.64612 -0.304553 0)
(-1.50805 0.0236345 0)
(-1.11766 0.35453 0)
(-1.10422 0.193374 0)
(-1.75534 -0.133875 0)
(-1.97242 -0.209583 0)
(-1.96766 -0.230318 0)
(-1.14337 0.375732 0)
(-1.74795 -0.146232 0)
(-1.12287 0.217261 0)
(-1.58286 0.517985 0)
(-1.51771 -0.459787 0)
(-1.46332 0.41018 0)
(-1.32697 -0.241886 0)
(-3.72261 0.211476 0)
(-1.97775 -0.395447 0)
(-3.46272 1.04659 0)
(-2.76841 -0.166684 0)
(-1.2099 -0.338513 0)
(-1.9523 0.365497 0)
(-1.76559 0.314734 0)
(-1.0935 -0.103141 0)
(-1.56699 0.524476 0)
(-1.44847 0.409891 0)
(-1.36129 -0.248548 0)
(-1.55142 -0.461096 0)
(-1.93592 0.241115 0)
(-0.975557 -0.014443 0)
(-1.05035 -0.22775 0)
(-1.74059 0.214175 0)
(-1.56612 0.516319 0)
(-1.48596 -0.459086 0)
(-1.44945 0.413533 0)
(-1.29473 -0.242706 0)
(-1.08673 0.341538 0)
(-1.74356 -0.134977 0)
(-1.07601 0.186824 0)
(-1.95431 -0.206655 0)
(-1.25954 0.337938 0)
(-1.83358 -0.362021 0)
(-1.33251 0.482498 0)
(-1.61643 -0.221538 0)
(-2.22291 0.074718 0)
(-2.34137 -0.0943306 0)
(-2.76354 0.0243018 0)
(-2.36572 0.425433 0)
(-1.56345 0.107345 0)
(-2.4362 0.237414 0)
(-1.6702 -0.23796 0)
(-2.12172 0.180458 0)
(-2.2306 0.114414 0)
(-1.96133 -0.1951 0)
(-2.6288 0.173276 0)
(-1.86331 0.22517 0)
(-1.9681 -0.036381 0)
(-1.95316 0.207914 0)
(-2.33554 -0.319049 0)
(-2.16141 0.493884 0)
(-2.04184 -0.182022 0)
(-2.24262 0.0961786 0)
(-2.66006 0.151149 0)
(-1.94931 0.254855 0)
(-2.0995 -0.168405 0)
(-2.24697 0.0837682 0)
(-2.68972 0.10827 0)
(-2.04085 0.282958 0)
(-1.8971 0.0944934 0)
(-2.12608 -0.318788 0)
(-2.52222 0.350509 0)
(-2.17318 0.176684 0)
(-1.7649 0.508238 0)
(-1.61527 0.395955 0)
(-1.57003 -0.458808 0)
(-1.37506 -0.219743 0)
(-2.21171 -0.248869 0)
(-1.50886 0.435051 0)
(-1.44792 0.20309 0)
(-1.91483 -0.124327 0)
(-2.01717 -0.0201065 0)
(-1.98718 0.171403 0)
(-2.41383 -0.292116 0)
(-2.18937 0.487234 0)
(-1.83624 0.528493 0)
(-1.67914 0.358455 0)
(-1.64536 -0.185419 0)
(-1.89671 -0.427221 0)
(-1.94274 -0.124219 0)
(-1.71893 0.479127 0)
(-2.27299 -0.292724 0)
(-1.61926 0.224189 0)
(-2.10742 -0.146692 0)
(-1.19103 0.133813 0)
(-1.19664 0.336543 0)
(-1.85988 -0.0807192 0)
(-2.44894 0.268459 0)
(-1.59916 0.0913041 0)
(-1.72376 -0.262338 0)
(-2.13149 0.196263 0)
(-2.3381 0.302148 0)
(-1.59739 -0.29196 0)
(-2.0563 0.232515 0)
(-1.47062 0.0321615 0)
(-1.45409 0.172604 0)
(-1.50636 0.419677 0)
(-1.95528 -0.10557 0)
(-2.26229 -0.2192 0)
(-1.71009 0.291756 0)
(-1.00475 -0.0921998 0)
(-1.8869 0.332793 0)
(-1.10372 -0.307663 0)
(-1.02353 -0.180676 0)
(-0.957056 0.0485324 0)
(-1.95872 0.185426 0)
(-1.76168 0.169688 0)
(-1.88491 -0.434033 0)
(-1.72661 0.362274 0)
(-1.63465 -0.178115 0)
(-1.89783 0.531034 0)
(-1.71597 0.489392 0)
(-1.90862 -0.137441 0)
(-2.22776 -0.314668 0)
(-1.60966 0.24695 0)
(-1.33427 0.0136074 0)
(-2.24704 0.29853 0)
(-1.45016 -0.281628 0)
(-1.99045 0.241581 0)
(-1.93297 0.241779 0)
(-2.16949 0.290301 0)
(-1.35658 -0.274021 0)
(-1.24949 -0.00134219 0)
(-2.24937 0.106972 0)
(-1.98387 0.105457 0)
(-1.30411 -0.115385 0)
(-1.25163 0.151944 0)
(-1.67031 0.351701 0)
(-1.93386 -0.426742 0)
(-1.82572 0.529585 0)
(-1.67503 -0.187386 0)
(-1.2592 0.251098 0)
(-1.30624 0.429062 0)
(-2.022 -0.272561 0)
(-1.77782 -0.161031 0)
(-1.46566 0.404309 0)
(-1.19019 -0.232751 0)
(-1.58119 0.485527 0)
(-1.36734 -0.450993 0)
(-2.69362 0.355692 0)
(-2.30734 -0.0048186 0)
(-2.15168 0.280907 0)
(-2.56752 -0.1664 0)
(-1.50862 -0.234804 0)
(-1.61562 0.526357 0)
(-1.72223 -0.443671 0)
(-1.49167 0.38875 0)
(-2.15201 0.236393 0)
(-2.67245 -0.124004 0)
(-2.65424 0.386982 0)
(-2.33808 -0.0654414 0)
(-2.63443 0.346901 0)
(-2.09473 0.210345 0)
(-2.25217 0.0808825 0)
(-2.41258 -0.242045 0)
(-1.92202 -0.136871 0)
(-1.00867 0.129946 0)
(-1.72102 -0.0872325 0)
(-1.00266 0.289998 0)
(-2.46916 0.357505 0)
(-2.25526 0.0478857 0)
(-2.53932 -0.20014 0)
(-2.80619 0.0904403 0)
(-2.72358 0.385322 0)
(-2.17985 0.291024 0)
(-2.35602 -0.0687191 0)
(-2.68676 -0.120882 0)
(-2.14757 0.248249 0)
(-2.63971 0.404208 0)
(-2.69031 -0.101534 0)
(-2.33325 -0.0707602 0)
(-2.07417 0.257514 0)
(-1.8828 -0.35456 0)
(-2.36459 0.393603 0)
(-1.68402 0.000840487 0)
(-1.58973 0.386508 0)
(-1.19221 -0.217707 0)
(-1.73289 0.465248 0)
(-1.35415 -0.443253 0)
(-1.02905 0.254177 0)
(-1.79366 -0.0210573 0)
(-2.0133 -0.0552246 0)
(-1.04922 0.0620226 0)
(-2.25578 0.102702 0)
(-2.19774 -0.190778 0)
(-2.69706 0.198236 0)
(-2.06316 0.289156 0)
(-1.96214 -0.312458 0)
(-1.32503 0.452087 0)
(-1.72577 -0.187298 0)
(-1.26636 0.286488 0)
(-1.54038 0.523863 0)
(-1.53388 -0.237006 0)
(-1.42984 0.382763 0)
(-1.74935 -0.427583 0)
(-2.27526 0.0823304 0)
(-2.30327 -0.199048 0)
(-2.12552 0.291914 0)
(-2.72132 0.220701 0)
(-1.41365 0.105706 0)
(-1.99328 -0.0584108 0)
(-1.4356 0.361858 0)
(-2.29641 -0.137729 0)
(-1.97726 -0.103362 0)
(-1.64733 0.437184 0)
(-2.30733 -0.241742 0)
(-1.57179 0.174629 0)
(-1.78891 0.363349 0)
(-1.9774 0.509625 0)
(-1.56328 -0.163661 0)
(-1.78873 -0.435566 0)
(-2.00144 -0.296843 0)
(-1.33206 0.441404 0)
(-1.2761 0.267579 0)
(-1.7585 -0.175237 0)
(-1.53439 -0.233009 0)
(-1.75249 -0.432711 0)
(-1.4691 0.385776 0)
(-1.58632 0.528499 0)
(-1.88771 0.45817 0)
(-2.04024 -0.0637542 0)
(-1.78144 0.149223 0)
(-2.42378 -0.232488 0)
(-1.70938 0.516388 0)
(-1.39691 -0.227819 0)
(-1.56919 0.399257 0)
(-1.59472 -0.45878 0)
(-1.11914 -0.0204842 0)
(-1.87616 0.0416301 0)
(-2.11238 0.0230498 0)
(-1.08501 0.201843 0)
(-2.32125 0.090512 0)
(-2.03392 0.0941551 0)
(-1.3331 0.177973 0)
(-1.3819 -0.107263 0)
(-1.946 -0.114801 0)
(-1.64414 0.453386 0)
(-1.56388 0.202454 0)
(-2.26715 -0.259673 0)
(-1.71129 0.521452 0)
(-1.43537 -0.225989 0)
(-1.57084 0.397185 0)
(-1.63968 -0.456259 0)
(-1.21452 -0.293689 0)
(-1.11146 -0.0499823 0)
(-2.02996 0.311161 0)
(-1.82451 0.2685 0)
(-1.55656 0.340619 0)
(-1.71143 -0.196377 0)
(-1.97481 -0.397471 0)
(-1.67885 0.52381 0)
(-1.10053 -0.0651066 0)
(-1.20844 -0.303887 0)
(-1.99878 0.332575 0)
(-1.8008 0.286076 0)
(-1.20585 0.358731 0)
(-1.83151 -0.106969 0)
(-1.19165 0.167986 0)
(-2.07447 -0.183466 0)
(-2.10604 0.237181 0)
(-1.91462 -0.333321 0)
(-1.7195 0.0346692 0)
(-2.41034 0.371151 0)
(-2.20934 -0.261873 0)
(-1.53453 0.458064 0)
(-1.46741 0.224398 0)
(-1.90697 -0.129216 0)
(-1.42314 -0.144604 0)
(-1.60967 -0.415 0)
(-2.00795 0.466009 0)
(-1.813 0.355247 0)
(-1.55201 0.490725 0)
(-1.81705 -0.16887 0)
(-1.4651 0.285291 0)
(-2.09688 -0.326526 0)
(-1.61911 0.388368 0)
(-1.76807 0.46623 0)
(-1.18405 -0.207387 0)
(-1.34362 -0.435167 0)
(-1.90353 -0.426048 0)
(-1.76067 0.350295 0)
(-1.65123 -0.163416 0)
(-1.93912 0.521389 0)
(-1.53604 0.407356 0)
(-1.97648 -0.0897008 0)
(-1.48607 0.152213 0)
(-2.29152 -0.200195 0)
(-1.24511 0.375547 0)
(-1.8366 -0.116549 0)
(-1.22293 0.182335 0)
(-2.08495 -0.201571 0)
(-1.89367 0.441187 0)
(-1.36275 -0.416913 0)
(-1.20962 -0.173473 0)
(-1.72049 0.364541 0)
(-1.81094 -0.00741754 0)
(-2.03301 -0.0384856 0)
(-1.03036 0.235047 0)
(-1.05352 0.0364132 0)
(-2.26001 -0.0355734 0)
(-1.30675 0.267931 0)
(-1.31967 0.0144396 0)
(-1.98142 0.00545143 0)
(-2.52175 -0.205375 0)
(-2.23554 0.0634168 0)
(-2.10168 0.183591 0)
(-2.55981 0.416322 0)
(-2.60088 -0.144607 0)
(-2.16453 0.282103 0)
(-2.30316 -9.41161e-06 0)
(-2.66839 0.380044 0)
(-2.29386 -0.0879123 0)
(-1.37417 0.0526989 0)
(-1.37889 0.311599 0)
(-2.00019 -0.0283668 0)
(-1.21961 -0.255412 0)
(-2.08414 0.266012 0)
(-1.12739 -0.00532017 0)
(-1.86518 0.230748 0)
(-1.37241 0.397819 0)
(-1.41981 -0.263092 0)
(-1.61082 -0.451418 0)
(-1.48035 0.519335 0)
(-1.29013 -0.329581 0)
(-1.82012 0.300613 0)
(-2.02001 0.356411 0)
(-1.16894 -0.0810456 0)
(-2.25425 0.0916934 0)
(-2.69805 0.180831 0)
(-2.19084 -0.177415 0)
(-2.06489 0.294335 0)
(-2.46024 -0.164766 0)
(-2.34503 0.38104 0)
(-2.25467 0.0507843 0)
(-2.77662 0.135534 0)
(-1.33685 -0.345305 0)
(-2.03654 0.372878 0)
(-1.20702 -0.0898263 0)
(-1.83285 0.310203 0)
(-1.17656 0.413233 0)
(-1.71557 -0.164263 0)
(-1.14417 0.260895 0)
(-1.93603 -0.26011 0)
(-1.684 -0.177792 0)
(-1.18712 0.424593 0)
(-1.90037 -0.280364 0)
(-1.14828 0.278633 0)
(-1.40689 0.401514 0)
(-1.59816 -0.460477 0)
(-1.52135 0.521595 0)
(-1.40677 -0.261893 0)
(-1.31038 0.0279809 0)
(-2.24092 0.275323 0)
(-1.41687 -0.261722 0)
(-1.98556 0.226055 0)
(-1.67332 0.368043 0)
(-1.83422 0.438064 0)
(-1.15433 -0.183476 0)
(-1.30066 -0.414631 0)
(-2.43617 0.478733 0)
(-2.76873 -0.10173 0)
(-2.3263 -0.119491 0)
(-2.84626 0.189485 0)
(-1.70391 0.353652 0)
(-1.14314 -0.169693 0)
(-1.87243 0.418691 0)
(-1.28179 -0.405233 0)
(-1.81656 -0.382679 0)
(-1.29361 0.351716 0)
(-1.59892 -0.230883 0)
(-1.376 0.49631 0)
(-1.79699 0.501165 0)
(-1.64262 0.388719 0)
(-1.58239 -0.450243 0)
(-1.38807 -0.208285 0)
(-1.75077 -0.363646 0)
(-1.18517 0.344357 0)
(-1.25118 0.472569 0)
(-1.55044 -0.233945 0)
(-2.05133 0.0236019 0)
(-1.02705 0.191388 0)
(-1.82927 0.0412445 0)
(-1.06163 -0.0185112 0)
(-1.02861 0.169834 0)
(-2.06247 0.0594081 0)
(-1.07053 -0.0466188 0)
(-1.83969 0.0689097 0)
(-2.12759 -0.133929 0)
(-1.87569 -0.0698968 0)
(-1.21534 0.119781 0)
(-1.21944 0.327809 0)
(-1.68115 -0.402694 0)
(-1.48806 -0.25353 0)
(-1.31975 0.498146 0)
(-1.23838 0.373342 0)
(-1.83139 0.114769 0)
(-1.06672 -0.117607 0)
(-1.01207 0.10657 0)
(-2.04854 0.118151 0)
(-1.07118 -0.0952997 0)
(-2.06213 0.0954009 0)
(-1.02195 0.127904 0)
(-1.84115 0.0968177 0)
(-2.3295 0.121055 0)
(-2.04179 0.114434 0)
(-1.34318 0.161477 0)
(-1.40157 -0.130778 0)
(-1.7059 -0.423403 0)
(-1.49827 -0.148793 0)
(-2.00893 0.493905 0)
(-1.81386 0.363711 0)
(-2.08851 0.20112 0)
(-1.9324 0.0399791 0)
(-2.25633 -0.319246 0)
(-2.36856 0.451843 0)
(-1.3746 0.326101 0)
(-1.93209 -0.368501 0)
(-1.46125 0.493229 0)
(-1.6909 -0.209502 0)
(-1.65061 0.370768 0)
(-1.80671 0.438985 0)
(-1.28089 -0.420809 0)
(-1.13728 -0.193161 0)
(-1.81138 0.0381238 0)
(-2.02917 0.0205708 0)
(-1.03676 -0.00882837 0)
(-1.00299 0.195219 0)
(-2.12527 0.193273 0)
(-2.43135 0.438614 0)
(-1.94142 0.0663601 0)
(-2.25534 -0.317163 0)
(-1.37806 0.313809 0)
(-1.9778 -0.354066 0)
(-1.46118 0.489907 0)
(-1.72771 -0.199575 0)
(-1.75335 -0.418975 0)
(-1.5423 -0.245822 0)
(-1.45255 0.513778 0)
(-1.35443 0.375124 0)
(-2.50978 -0.153154 0)
(-1.87919 0.422174 0)
(-2.11231 -0.0248226 0)
(-1.80038 0.0819901 0)
(-2.1528 0.429396 0)
(-1.64113 -0.383325 0)
(-1.92335 0.321289 0)
(-1.46279 -0.0865479 0)
(-2.59801 0.383748 0)
(-2.72418 -0.0761157 0)
(-2.16786 0.180529 0)
(-2.37118 -0.107522 0)
(-2.07891 0.216967 0)
(-1.1612 -0.208651 0)
(-1.08329 0.0341488 0)
(-1.8592 0.192893 0)
(-1.37595 0.0781411 0)
(-2.27891 -0.106411 0)
(-1.38496 0.330255 0)
(-1.98579 -0.0416042 0)
(-1.11239 0.0912953 0)
(-1.89174 0.145711 0)
(-1.17734 -0.152799 0)
(-2.12318 0.157681 0)
(-1.72338 -0.430232 0)
(-1.51287 -0.158803 0)
(-1.97993 0.495794 0)
(-1.79074 0.363522 0)
(-1.13947 0.114295 0)
(-1.91263 0.127218 0)
(-1.19979 -0.132615 0)
(-2.1511 0.134401 0)
(-2.04791 -0.01469 0)
(-1.48057 0.319417 0)
(-1.47457 0.0389725 0)
(-2.36396 -0.0734975 0)
(-2.10038 0.480589 0)
(-1.57637 -0.112673 0)
(-1.88528 0.338864 0)
(-1.79365 -0.406965 0)
(-1.3578 -0.363514 0)
(-1.22212 -0.106957 0)
(-2.02035 0.38369 0)
(-1.82086 0.317737 0)
(-1.96152 0.146557 0)
(-2.57294 0.339342 0)
(-2.2082 -0.282144 0)
(-2.20913 0.145999 0)
(-2.53553 -0.207964 0)
(-2.09791 0.145024 0)
(-2.48949 0.42902 0)
(-2.19986 0.0642609 0)
(-2.15245 0.105741 0)
(-1.13943 0.13755 0)
(-1.19263 -0.105625 0)
(-1.91248 0.106222 0)
(-2.5559 0.366194 0)
(-2.03355 0.130806 0)
(-2.32978 -0.296201 0)
(-2.19878 0.125526 0)
(-1.18594 -0.231792 0)
(-1.62339 0.484694 0)
(-1.50004 0.40274 0)
(-1.35642 -0.449845 0)
(-1.05379 -0.0827048 0)
(-1.94295 0.333858 0)
(-1.15772 -0.310194 0)
(-1.75616 0.290344 0)
(-1.06375 -0.0978929 0)
(-1.93977 0.351045 0)
(-1.75469 0.304563 0)
(-1.17341 -0.328471 0)
(-2.01696 0.191142 0)
(-1.07985 -0.185078 0)
(-1.01062 0.0463248 0)
(-1.80913 0.173489 0)
(-2.03123 0.170518 0)
(-1.00916 0.0639737 0)
(-1.81952 0.156719 0)
(-1.07362 -0.166697 0)
(-1.09459 -0.171143 0)
(-1.69043 0.360097 0)
(-1.22621 -0.401326 0)
(-1.85603 0.421327 0)
(-2.02432 -0.265462 0)
(-2.20485 0.176909 0)
(-2.5646 0.304696 0)
(-1.84626 0.146635 0)
(-1.94702 -0.115484 0)
(-1.01137 0.108915 0)
(-1.74074 -0.0697718 0)
(-1.00379 0.279812 0)
(-0.982613 0.150165 0)
(-2.03797 0.0722597 0)
(-1.02576 -0.0639486 0)
(-1.8219 0.078269 0)
(-1.47398 0.514654 0)
(-1.57609 -0.233654 0)
(-1.37586 0.368612 0)
(-1.79586 -0.407054 0)
(-1.95474 0.472613 0)
(-2.03385 -0.0637606 0)
(-1.82338 0.161069 0)
(-2.42426 -0.258926 0)
(-2.19623 0.0568989 0)
(-2.1767 -0.0612699 0)
(-2.31623 0.378632 0)
(-2.69838 -0.118169 0)
(-1.79456 0.0587848 0)
(-2.0067 0.047025 0)
(-1.00507 -0.020473 0)
(-0.965846 0.181694 0)
(-1.79953 0.425113 0)
(-1.09734 -0.196551 0)
(-1.23192 -0.422 0)
(-1.6435 0.363583 0)
(-2.57874 -0.195573 0)
(-2.11369 0.148722 0)
(-2.50175 0.422795 0)
(-2.21468 0.0304622 0)
(-2.65468 0.271949 0)
(-2.23094 -0.237263 0)
(-2.24599 0.110654 0)
(-2.02659 0.222923 0)
(-2.17237 0.391019 0)
(-1.9387 0.303332 0)
(-1.54984 -0.352024 0)
(-1.39528 -0.0607573 0)
(-1.36967 0.478089 0)
(-1.67543 -0.20865 0)
(-1.29673 0.319905 0)
(-1.90648 -0.350366 0)
(-2.04974 0.265942 0)
(-1.0889 -0.0117291 0)
(-1.17869 -0.253648 0)
(-1.83732 0.232779 0)
(-2.07083 0.191866 0)
(-1.06165 0.0454503 0)
(-1.1322 -0.1948 0)
(-1.85202 0.173388 0)
(-1.41443 0.49156 0)
(-1.66463 -0.214752 0)
(-1.33257 0.33245 0)
(-1.89763 -0.367064 0)
(-1.71058 -0.189958 0)
(-1.29127 0.450028 0)
(-1.94173 -0.311291 0)
(-1.23618 0.289679 0)
(-2.2024 0.130494 0)
(-2.78214 -0.00320892 0)
(-2.47512 -0.131377 0)
(-2.58704 0.412564 0)
(-2.02422 0.516427 0)
(-1.79653 -0.114648 0)
(-1.83475 0.303153 0)
(-2.09209 -0.387013 0)
(-2.06435 0.518872 0)
(-1.77699 -0.109525 0)
(-1.86318 0.308768 0)
(-2.06915 -0.393475 0)
(-1.76591 0.33075 0)
(-1.14822 -0.1271 0)