/*--------------------------------*- C++ -*----------------------------------*\
| =========                 |                                                 |
| \\      /  F ield         | foam-extend: Open Source CFD                    |
|  \\    /   O peration     | Version:  3.0                                   |
|   \\  /    A nd           | Web:         http://www.extend-project.de       |
|    \\/     M anipulation  |                                                 |
\*---------------------------------------------------------------------------*/
FoamFile
{
    version     2.0;
    format      ascii;
    class       volScalarField;
    location    "10";
    object      Theta;
}
// * * * * * * * * * * * * * * * * * * * * * * * * * * * * * * * * * * * * * //

dimensions      [0 2 -2 0 0 0 0];

internalField   nonuniform List<scalar> 
3012
(
-3.01526
1.90229
4.85354
-0.12142
15.2876
1.75478
-11.3016
2.35204
-2.34985
4.0517
-2.33292
3.98464
0.97557
-0.766851
2.64604
0.930899
-8.89449
-15.4674
8.78787
16.2859
1.47008
-0.228863
2.15767
0.596587
5.13464
-2.3461
4.81382
-2.87097
-1.54248
3.91609
-0.0330819
2.33804
0.35419
2.94472
-0.925808
1.62892
3.14487
7.19106
-5.401
-1.6484
0.929611
3.12133
1.20587
-0.941009
0.685757
1.38275
-1.35452
3.43079
1.03429
2.29065
-0.377777
0.850722
-3.81191
1.47226
1.55358
6.61975
-6.22327
-9.92493
5.32859
9.28339
-8.63557
5.37658
13.9883
0.470317
0.946002
-1.67809
4.0836
1.40451
2.44268
1.26379
0.744934
-0.412319
2.39442
1.80516
0.0249632
-0.414698
-0.635028
2.74943
1.87803
0.208976
0.869887
-1.47089
1.19309
3.55611
2.92495
1.03849
0.948658
-0.801323
0.0874088
3.17193
-0.94873
2.12148
2.9816
-1.99744
-0.622016
4.05131
-4.91893
3.42109
-2.24847
6.27729
3.80493
2.03769
0.386958
-1.41751
3.33496
-0.641121
2.85776
-0.981619
2.41913
0.529345
-0.394677
1.51696
-1.21599
3.40537
1.3608
0.856124
2.36187
0.066647
2.2004
0.222931
-0.900369
0.0776961
0.84712
2.76586
3.74825
-7.98524
7.39742
-4.19755
17.6751
-17.2234
5.29279
-4.89971
0.483185
-0.870995
4.84343
5.87261
-6.51112
11.0232
12.4663
-7.21806
8.37089
-1.70761
-4.56681
4.93267
7.05757
3.04934
-5.19531
1.07974
6.57863
-13.0927
-5.7922
13.3012
0.378488
-0.950824
1.83191
3.10558
2.06011
2.90145
-0.748879
0.0880817
2.62916
-0.446413
2.13593
-0.019327
-5.62286
-1.18668
6.92675
2.31997
0.398539
3.11229
-1.09863
1.62118
9.32543
8.21974
-7.86336
-6.79047
-7.03069
9.65823
5.63992
-1.55011
-6.00421
-0.678767
7.01415
1.99328
3.24863
-1.47918
-0.878613
4.02826
-0.386572
2.87083
2.34055
-0.891099
2.20944
-0.130237
1.89095
0.180452
2.03215
3.24
-1.19386
0.0426559
0.801668
-0.576874
0.931787
2.3136
1.16879
4.50248
-2.08511
1.34926
1.37978
1.5345
0.926734
0.148167
0.920743
1.19544
0.586848
1.14943
3.5346
1.53377
0.516555
-1.41743
0.838935
0.833969
0.70825
0.782999
0.140979
-0.372255
1.53986
2.13878
0.736051
0.660365
1.23665
1.07827
0.463033
1.08908
0.502012
1.23485
3.184
2.55732
-0.452525
-1.17168
2.17671
-0.761925
2.98511
0.0735529
-0.0336757
2.99593
2.28386
-0.651732
1.91551
-1.79043
0.293308
4.09058
-1.69082
4.06792
3.69619
-1.20285
5.83061
0.438423
-2.42227
2.43062
0.677684
0.774024
0.85174
0.908866
0.873394
1.15593
0.741982
0.534854
2.40261
-0.585143
-1.2488
3.15708
1.19124
4.02968
1.14967
-1.69995
1.41101
-1.27507
3.36804
0.619564
-4.05873
1.88412
0.866393
6.87958
0.81174
1.65681
0.139146
1.08122
9.75168
-11.2372
-10.0986
11.1968
-7.98462
11.947
-1.1922
4.84501
-0.0577331
-1.81912
2.47926
4.21485
2.9484
-0.65267
-1.51082
4.01204
1.885
-1.26085
3.47057
0.195613
-1.79202
-0.834964
1.15144
1.97344
5.33854
-0.897206
-3.45828
2.4166
3.1688
3.18847
-0.817312
-0.764728
0.637048
1.73811
0.0909197
1.26082
-0.0851298
-0.880863
2.28604
3.14167
-3.82773
1.40478
1.51836
7.66427
2.55334
0.710099
1.30014
-0.536391
2.35124
-0.268043
1.8583
0.0915875
1.55242
0.311728
1.48885
0.220502
-0.0502949
3.36679
-1.05545
2.21747
0.944324
3.50641
1.36942
-1.16708
0.96334
2.15221
0.211031
-0.0775449
0.685426
-0.150671
2.23413
1.36745
-0.489664
2.72347
2.58783
-0.48604
0.299077
3.17956
-0.964169
1.90172
-0.772067
3.25465
-1.60014
2.44005
-2.23309
3.00595
4.91476
-0.148157
2.79428
2.10206
-0.864214
-0.136691
-0.698257
-0.242548
2.02552
2.4327
0.218282
-1.37799
3.56888
1.90531
4.0312
-1.71871
-1.33863
4.6824
3.40411
-1.90816
-1.80224
3.55029
-0.756662
2.38325
-0.260628
2.91045
2.42265
-0.639518
-1.66932
3.44428
0.979773
-1.10401
1.18909
3.26458
0.258383
-4.76974
8.47714
4.1512
1.56406
-2.38661
1.0478
5.14681
-5.58631
9.38884
-9.83465
5.33145
-0.620133
-0.399147
2.81079
2.64669
1.58598
-0.361275
0.626756
2.05161
-0.346846
2.58451
0.812747
1.01
-0.90864
0.100932
2.18061
3.18987
-2.30572
1.49125
4.235
0.274027
-2.5519
2.88464
4.76317
-0.653537
0.797713
0.0707489
1.95887
0.0182182
6.10354
1.05549
-3.61534
1.07159
1.45072
0.989169
0.796241
1.28844
-28.1023
3.82327
-6.03167
26.9234
4.94562
2.34402
0.229804
-2.16496
1.3225
1.05315
0.688881
0.457497
3.56017
7.93018
-5.15186
0.0978409
2.94566
5.0363
-2.27626
-0.513094
1.90382
-0.133744
0.119539
2.12948
-1.06726
-1.80614
4.39324
3.75125
0.961678
-1.6334
1.05503
3.79154
-14.8804
6.63232
-5.53205
17.4744
1.92363
2.31743
-0.498864
-0.115896
0.693074
-0.731567
1.17796
2.66305
-0.500929
3.19649
2.10975
-1.63425
0.108303
3.67064
-1.33066
2.04965
-13.9258
-6.73362
6.38234
14.0284
0.104377
2.744
2.22323
-0.554489
5.1191
0.230006
2.64953
-2.44674
-0.295832
2.47304
-0.269438
2.46453
-0.0394434
2.32684
-0.259592
2.0642
3.22542
0.687288
-1.28021
1.37273
16.1774
-14.2018
-4.68773
6.42658
3.5135
2.85474
-1.20971
-0.563354
4.39258
0.62767
1.69407
-2.13802
0.334072
2.26781
-2.42661
5.05447
0.93211
-0.972438
3.06757
1.26992
2.97688
3.14349
-0.930142
-0.828895
0.473985
1.82789
-1.61593
3.95905
-0.0663358
2.33866
-1.38888
3.63878
0.333928
-1.47817
1.39416
3.26721
1.70087
-0.395177
0.0481515
2.39161
3.77991
2.395
-0.165549
-1.60727
1.15507
-0.716007
0.618755
2.58007
-0.32061
0.792897
1.23489
2.37525
-16.9425
23.3207
-24.8691
15.2289
0.755112
1.75404
-2.10513
4.66726
3.68107
2.05819
-1.51758
0.19772
-0.89776
5.1835
-2.31475
4.11433
-10.6933
14.7682
-10.6604
13.7917
-2.51695
-8.1077
6.09986
11.7032
-2.29382
2.51503
4.28829
-0.524921
-0.155301
3.40952
2.29539
-1.15705
-3.39158
3.67221
-1.6653
5.44775
1.58918
-1.0122
0.499666
3.20613
0.704493
0.88857
1.0916
0.859014
-3.31087
1.97298
4.71061
-0.392082
1.46643
2.93222
-0.81784
0.780422
0.609594
0.923028
1.08751
1.01745
3.18155
0.112825
1.68943
-1.42086
9.82614
3.93213
1.1926
-5.15846
-2.68116
3.13225
-0.204732
5.36615
0.678533
-3.09725
2.44134
6.50212
-6.69016
7.00891
-4.61799
11.2287
4.90301
-7.55809
7.50285
-4.75411
5.46677
-3.41241
7.91526
-0.244138
-1.916
2.56923
5.85944
-5.01819
0.943156
0.508593
0.711262
1.23155
0.156736
3.81356
-1.30612
2.2874
-23.3761
-6.80485
22.6791
6.55885
-1.52795
3.66408
-0.250718
2.40969
5.09348
-2.44135
2.74095
-0.107595
1.06521
1.0212
0.188712
1.75236
3.22506
1.98064
-0.87793
0.415583
1.95935
1.17538
-0.0895593
0.352477
-13.4084
-21.9757
13.2296
21.533
1.92465
3.63029
-1.20169
0.351586
2.81153
-0.519857
-0.347016
2.62505
2.7076
0.656119
1.36897
-0.306512
3.12822
2.49585
-0.793031
-0.415693
1.77043
-0.829996
0.555838
3.21832
0.163188
2.38758
1.91513
-0.383859
-6.02861
6.44205
8.26163
-4.52551
0.842041
4.3823
1.03185
-2.73109
-3.38541
2.66336
6.05925
0.101838
-1.90155
-3.14761
3.4924
4.64341
2.04241
-5.30792
8.00946
0.756591
-0.858082
-3.09588
4.98714
2.93255
0.205482
3.31549
6.97853
-3.8177
2.35717
-0.287563
2.29932
-0.312945
2.83608
1.86723
-0.0513223
-0.937916
-2.3604
-0.000944224
5.90175
2.94543
2.29738
-0.587606
-0.632592
2.37367
-2.12644
3.07164
5.09684
-0.390843
2.80052
0.295691
1.67913
-0.733715
4.68479
0.391577
2.0976
-2.28468
4.17065
1.25211
-2.27802
0.830846
-0.212985
2.58278
-2.07155
4.49693
-0.499524
0.635678
2.69752
1.47354
1.47268
1.5791
2.7112
-0.533249
3.8934
-1.13779
-1.39554
3.50153
2.63935
-1.31892
2.99312
-0.936979
0.753537
4.18352
1.6114
-1.83043
-1.43522
3.52147
2.16638
-0.062697
3.32223
-1.31657
1.31825
0.606156
-0.978939
2.95249
3.08019
-0.744069
0.538789
1.71543
3.28751
-1.06508
-0.40941
0.230349
2.40284
2.14108
2.28521
-0.0338027
-7.89568
10.4062
-0.313435
2.97834
2.42844
-0.831962
-5.23779
6.59233
4.42099
-3.50785
4.23987
-6.12401
-2.78261
7.35692
2.75943
0.616128
-0.567939
1.35608
2.64211
-1.53496
2.61021
6.74632
3.99073
-0.267371
0.353973
6.18288
-1.2806
9.21017
3.27039
-7.60241
-2.85636
3.29262
5.44635
-0.681382
0.650996
0.368612
1.16147
1.31261
1.16734
0.455438
1.30192
0.587535
-5.19917
0.980655
5.82301
-0.028846
2.768
1.94439
-0.746675
0.197572
2.09816
-0.365556
-0.197065
2.2993
-3.34251
2.26736
3.06072
8.41749
1.20467
-2.85196
1.53486
5.76772
-1.62604
3.07841
4.12683
-0.695925
-2.7093
5.4548
-0.275011
3.19517
3.18155
2.09496
0.0918057
-0.938339
-0.5452
2.84491
-0.619297
2.87378
1.84878
-3.55281
0.200743
5.6784
3.05065
-0.148206
-0.959976
2.16169
0.897109
-1.17531
3.45014
1.1732
4.33511
-2.0612
0.931126
1.37485
-1.66751
1.31357
0.19218
3.19058
2.63598
-0.531408
-0.483869
2.57788
1.57948
0.640297
3.49794
-1.21244
-0.168466
-0.949193
2.761
1.93844
0.45079
1.49908
2.1689
-0.187796
1.43458
-0.968371
0.804885
3.14538
-2.58098
3.79103
-1.48303
4.80087
3.07351
1.4354
0.354751
-1.13887
-0.890856
2.90451
2.80717
-0.755961
2.3088
-0.950827
-0.429669
2.84357
-0.475438
2.66068
0.164932
1.89165
3.80244
-1.7219
-1.34257
4.05881
2.98124
-2.26674
-0.469852
4.84462
1.89785
-0.873535
0.229167
3.09445
3.13411
2.19646
0.051497
-0.951592
-0.707776
2.85064
1.26444
0.924437
3.47385
1.93999
0.0883077
-1.43409
8.01619
0.0118332
-3.37613
3.77264
2.9098
-2.27246
-7.91578
8.372
4.27438
0.619402
1.60161
-2.04746
1.21661
2.50559
0.648867
-0.592084
0.281254
-0.374143
2.35871
1.65635
1.63891
-1.24916
3.49128
0.578547
-4.07951
5.56056
3.91821
-2.45125
1.91556
-2.44041
-8.73832
8.13072
1.29387
2.20527
0.518398
-0.376838
1.32156
-0.801435
0.957902
3.01513
-0.00238294
2.25843
2.06404
-0.126758
-0.635889
2.0407
2.83945
0.130404
-0.063858
3.18342
2.00444
-1.28758
-0.400574
2.5646
-0.0112655
2.01459
7.0384
-2.03658
-5.34865
9.21682
-0.708817
0.363692
2.93446
1.8532
2.79698
-0.143412
-0.542053
2.35907
3.79399
-1.39098
3.27571
-0.911702
2.90736
-0.435408
2.73352
-0.518323
2.80627
1.3016
-0.717637
0.7562
1.15211
3.06136
1.02443
-0.848903
4.26425
-1.78162
0.300946
2.25305
3.18837
-0.823187
2.55053
-0.278653
-0.394988
1.16586
0.77921
2.35739
1.04998
3.22864
1.21659
-0.97291
3.71829
-1.53394
0.711956
1.38124
2.75422
-0.502179
3.73732
-1.51647
-3.05438
-2.52842
4.42681
4.77378
-0.440513
3.29041
2.64176
-1.0607
-0.235852
2.29792
1.76118
0.261049
-0.423052
2.47711
0.840052
1.21233
-1.51472
4.2013
-1.76299
4.88327
0.200706
2.63414
1.76046
-0.593216
3.00097
-0.711129
2.53946
-0.276843
5.46949
3.45251
-3.06738
-0.963026
4.40268
3.06283
-2.03941
-0.692124
-0.176283
8.94875
-9.54809
-0.767082
3.48368
1.57557
0.622419
-1.23773
0.393515
2.02482
1.07639
-0.504921
0.622623
-0.407026
1.07541
2.18818
1.61056
-0.202925
1.66996
-0.227844
1.1002
-1.20661
1.10389
3.46688
-1.26178
0.59807
0.77123
2.686
2.4362
-0.164102
-1.11012
1.52489
1.44338
0.535693
2.61663
-0.60065
-4.46837
4.08712
6.05857
-2.39152
4.26544
-3.66984
6.48314
-5.83618
2.31099
0.701252
1.13117
-0.397441
5.76295
-0.522092
3.64641
-3.16311
0.234692
1.80557
0.219501
1.54795
0.537532
2.70092
1.5791
-0.583222
0.687843
1.58972
0.25743
1.15948
2.79206
1.21735
0.829045
-0.697744
2.027
0.590476
-0.0876331
1.12791
-0.20581
-1.87199
2.80908
4.55166
3.03876
-2.60188
4.34372
-1.21561
1.7767
0.679945
0.131826
1.21603
1.4192
4.8291
1.16199
-2.20645
2.11521
-0.572215
-0.126704
2.61305
2.75707
-2.05399
-0.12459
4.93564
-2.45377
-1.53377
4.51554
5.79189
-0.320046
2.32777
0.754334
1.34723
2.16332
0.175018
1.85954
-0.0370104
4.16174
-0.64452
5.36024
-2.65795
3.9815
3.49036
-4.13808
-3.70482
4.59207
-2.15331
2.60933
-0.178984
2.01499
-0.680046
0.0901998
2.70815
2.96904
0.651535
1.56445
-0.783517
2.47589
0.645673
1.34991
-0.494195
2.33985
-0.28597
-0.237646
2.43746
-1.13719
2.20469
3.53774
0.148069
-9.92239
10.8556
6.73683
-6.4999
3.33403
-0.979333
-1.52364
2.90046
2.76709
-1.91377
-0.972799
3.83872
-0.263236
0.55002
2.20966
1.32297
-0.777992
2.19774
-1.80292
3.24277
3.6567
-1.03432
-1.66545
4.10142
0.301238
2.95055
-0.845508
1.74514
4.71566
0.1784
2.35574
-2.10678
0.0563135
1.82018
0.120145
1.74563
3.45973
-0.981754
-1.75221
2.64798
1.3712
-0.869949
2.83699
0.612462
-1.33657
3.61433
0.0176144
2.21612
-0.193715
1.95886
0.517571
1.13083
-1.00944
4.03467
-1.47258
3.67047
1.96579
0.512761
1.36432
-0.00845831
-0.355058
2.46947
2.35541
-0.347032
0.946113
2.25349
1.0047
-0.272555
-0.797327
1.46788
0.462817
2.83854
-0.75914
-0.869929
3.13086
3.00208
0.339208
0.369529
1.18936
1.18064
-0.239963
0.68836
1.98068
0.966952
1.43272
0.288417
0.429079
1.00928
-2.08673
1.19
0.225095
3.5649
1.97673
4.85719
-2.26647
0.577813
10.0312
-4.94172
9.83327
-5.49645
2.25989
1.47764
-0.283581
0.319305
1.11508
-10.0454
14.3344
2.86933
-5.48067
-1.83534
8.43826
4.86858
2.85234
-2.49361
-0.324901
4.81173
1.34923
0.538264
-1.0063
2.9485
1.16142
0.841663
-0.72587
2.80099
0.549129
1.23177
2.95245
-1.04498
0.417383
0.260762
1.67799
1.36848
1.75761
0.815616
0.0915652
1.04503
-0.110256
1.95565
4.86202
-2.37433
1.76427
2.33922
-0.00885916
-0.545897
3.16194
-0.908623
-0.791706
3.33446
2.45136
12.8784
-8.1186
2.12467
-1.875
3.95178
3.99374
-2.06925
-14.447
3.81299
14.1426
-5.27072
4.85435
3.11902
1.30331
6.82574
3.00113
-0.451841
2.65082
-0.699214
0.168598
-1.94693
2.69174
4.68082
2.20971
-1.36515
2.85485
-0.789371
1.60642
-0.846707
2.92815
0.592968
-1.01321
3.3444
0.395094
1.84
0.60321
0.946762
0.567525
1.05922
-1.09145
4.02729
-1.50546
3.92436
0.49981
0.746516
1.04645
0.897247
-1.79254
3.93776
-1.35737
4.60399
1.79495
-0.491184
2.49022
0.423284
2.04532
-1.62185
3.97713
0.21153
3.14032
3.42567
-0.882261
-1.2073
-0.45987
0.717938
2.58856
1.34745
0.406894
1.3924
-1.18363
2.98209
5.25897
1.66604
-3.26057
0.440783
3.36841
1.3578
-1.23665
0.691102
2.54544
-2.20515
4.06833
-0.61709
5.51039
-3.99129
0.689732
0.92883
3.53518
0.580377
1.57003
-1.52234
1.272
0.302754
-2.30329
3.9407
0.185291
-0.182858
1.87638
2.31263
-11.405
-3.78211
11.5963
4.31539
2.70881
-0.521912
2.20441
-0.0743058
1.68739
0.157161
2.12862
-0.285927
-0.164341
0.135698
2.0653
1.75062
0.869675
-0.450267
2.62638
1.20555
1.96076
0.349186
2.53043
-0.572021
0.781693
0.25699
1.74423
1.03446
-21.5915
10.6671
-8.72806
21.7485
0.145863
0.433424
1.74962
1.20832
2.13622
-0.201526
-0.427718
2.40066
1.63564
-0.486985
2.56761
0.514825
0.264254
-0.0182929
1.37258
1.6068
0.251753
1.8878
1.91456
0.286584
-0.0434268
1.56296
2.05592
0.377612
-0.679251
2.31843
2.98359
-0.105892
1.29012
-0.0167368
0.28235
1.5906
1.09742
0.896145
2.98552
-0.834199
-1.37831
-0.795742
6.15079
5.38974
-0.497861
-0.186902
2.4051
2.62126
1.26959
-2.1568
4.55919
0.850303
-1.12245
0.139031
1.99783
3.2084
0.588193
1.16001
0.730741
0.826794
-0.832101
3.05986
0.554889
1.75571
1.18163
0.499934
0.794416
0.79688
-0.764218
3.19827
-1.12625
2.7226
2.19862
-0.206101
-0.899109
2.9581
-0.450029
3.49472
-1.13845
2.67571
-1.93718
0.958809
1.49104
4.41087
-8.70947
-21.7627
8.84184
22.6156
0.229978
-0.552924
5.52315
4.70957
3.71643
-1.52756
-0.0931894
2.10306
5.08995
2.12557
0.587032
-2.60477
3.27104
3.62111
-0.95548
-1.4056
-1.18682
2.32012
2.81461
5.85704
2.8771
-3.23399
5.14087
-0.984193
-0.291418
2.82415
-2.07933
4.93286
-0.370809
-0.153169
2.5535
1.30859
2.14486
0.635113
1.40181
0.0137139
-2.1228
1.54205
-0.0629193
3.60721
-2.31447
1.85532
0.649804
5.12124
-0.753174
2.66686
0.927314
0.977948
3.38328
3.22969
-1.19857
-1.18416
-0.950187
3.14349
1.83171
0.382759
2.73681
-3.593
-0.689126
5.48596
-1.53098
-0.72894
3.53515
2.90821
2.48865
0.0766968
1.93682
-0.46878
2.20522
-0.469788
2.69209
-0.202079
-0.57561
1.67147
0.626846
2.83447
1.89001
-0.924573
0.208387
3.00543
3.83409
-1.6757
0.722751
1.39776
4.05674
-1.99681
-1.03995
4.71203
-0.20362
-0.195199
2.15087
2.31476
1.65788
-0.442802
2.58556
0.412509
-1.06569
1.79048
3.41421
0.482264
-0.98836
-1.88524
3.42633
4.5112
-0.955693
1.0347
3.18363
1.13789
3.12265
-1.03859
2.45311
-1.72461
-0.724555
-2.04692
3.63971
4.68926
1.77646
0.938563
-2.78199
5.4983
1.60678
-0.211326
2.39094
-0.105724
3.90757
-1.44386
3.62013
-2.02283
-0.300674
1.35711
2.37042
0.661392
4.09334
-1.94521
1.40187
0.644172
3.77823
-1.64597
1.73282
0.632202
-3.67608
-3.69584
5.73843
5.95471
4.35489
-2.09999
1.59325
0.621537
0.596443
-2.15416
3.89817
1.28728
-2.1273
7.75074
-4.21242
5.2326
-0.609103
3.6883
-1.74272
2.32445
2.23515
4.9051
-2.2397
0.342319
-1.59818
3.91422
1.45136
0.732898
-8.89271
4.2714
-3.91423
10.2418
2.52288
1.0017
0.998471
-0.439235
-0.300966
1.62869
2.38498
0.405327
0.32503
-0.134117
2.08448
1.54282
0.977681
0.947406
2.21408
-0.327176
3.60846
-1.98618
2.44524
-0.91048
-0.463817
2.55444
2.50243
-0.402567
-2.09743
4.08333
2.10005
0.167665
-0.930014
3.05429
1.73204
0.279854
0.795718
2.20643
-0.389899
1.01342
-0.281672
1.82697
3.91034
-2.34646
3.16099
-0.880055
5.30989
1.80921
2.3558
-0.520274
2.70768
-0.28396
0.156917
2.99341
1.70769
-0.501006
1.08349
0.459123
1.0255
3.17049
-0.703055
1.82935
0.509718
2.94528
2.54092
0.762104
-0.589701
1.56049
-0.0936849
2.07951
-0.0131831
2.33248
0.642118
-0.733584
1.44786
2.83039
3.50799
-1.5862
0.729291
1.04821
2.23965
-0.128737
0.565298
1.43756
-0.442272
-0.779333
2.96337
2.6019
2.05604
0.156336
0.117718
1.95512
4.16327
-2.38073
4.0787
-2.57495
2.33051
3.20085
-0.0896004
-1.06261
5.15929
-1.17465
4.27593
-1.31477
2.16233
-0.309357
-4.76752
6.28137
-2.31982
3.10459
-0.883622
4.73105
-0.446293
3.2087
2.48586
-1.20846
3.79256
1.09908
0.879709
-1.81605
1.25385
3.43842
-1.37859
0.739032
-5.80042
3.67577
-2.03911
7.54983
2.91341
-1.91142
4.68238
-0.529347
5.37876
0.999647
1.6262
-2.67127
-4.09378
1.96652
1.16936
7.25698
1.39998
-0.0952995
5.1665
3.54785
0.208076
2.99057
1.52796
-1.24708
1.47025
-2.08073
4.00797
0.427465
-0.603466
1.02132
2.77431
1.11957
3.13737
-0.169896
2.47093
-0.828704
-1.19887
1.51416
3.48274
0.688408
0.41857
2.57819
-0.457523
1.80636
0.407291
2.06388
-0.0925251
1.868
-5.16166
5.83496
7.0889
-3.71309
0.429447
2.07511
1.55206
-0.036335
0.382202
0.194076
1.5947
1.84355
0.393733
1.73957
2.90923
-0.760969
-0.0883406
2.10569
2.2159
-0.011626
2.34019
2.15849
-0.289607
-0.456729
1.52233
-0.847087
2.74143
0.330973
-0.345497
2.53937
2.39331
-0.505428
-2.93733
2.61415
0.159747
5.8062
5.01379
-1.02562
4.19654
-2.10818
4.15128
-0.775163
2.26192
-2.66877
1.48204
0.476945
-1.41849
3.50727
0.776445
0.138061
1.72603
0.959202
0.495898
1.66701
1.38784
0.320747
2.77284
2.10307
-0.26561
-0.894445
-1.02023
5.25648
-2.40239
4.04715
-0.118224
2.20979
3.40757
-1.31044
-0.410831
1.36674
5.45317
-4.17612
1.26346
2.25644
6.48243
-2.95718
-2.66945
2.31884
0.435812
5.58147
-0.391113
1.76727
4.33914
-2.85981
-14.4681
20.4691
12.605
-22.1946
1.17231
0.641778
6.41048
4.22925
-0.982541
3.31449
3.39067
-1.05403
0.624718
4.87539
0.979305
-3.11599
-0.936056
3.04807
1.80824
0.25449
3.63861
-3.32516
5.04224
-1.93655
4.18967
-1.15102
-2.54437
2.50704
2.98292
-0.485711
2.34693
-1.20841
3.13525
1.16769
-1.00194
0.955231
2.58497
-0.510965
-0.987232
3.16606
2.2441
-4.82831
5.35446
-1.73038
1.51749
-0.372568
0.551209
2.34705
-0.17174
1.89101
-0.943487
2.56135
-0.876623
1.85575
-0.188317
2.49991
-0.0152196
-0.20493
2.31107
2.4489
-0.0728135
1.98766
2.1834
0.0467958
1.70815
2.58139
-0.529151
0.288075
4.61582
-2.25131
1.19583
1.08247
-1.68023
-8.23137
9.62974
3.30852
0.140155
-1.72339
4.03586
2.19175
0.530577
4.39362
1.72256
-2.23019
-3.21209
5.60411
-3.94661
4.70021
2.2567
1.18867
-0.4301
1.07391
2.30511
-0.209226
0.477208
1.64728
-1.25588
3.96139
-2.18766
2.90494
-2.82622
9.68842
6.17173
-6.07155
-12.5523
6.80916
-4.76646
14.5898
-1.57274
-0.797976
2.60787
3.48065
4.55473
-0.00830412
2.3971
-1.77869
0.913051
-3.18378
6.21278
1.98859
6.88161
2.17944
-0.663547
-5.64013
4.0079
-3.21875
-2.68879
4.4386
-0.860666
2.43778
3.06263
-0.326077
1.02088
0.722024
-0.0519106
1.83183
-0.00649947
2.33089
2.03547
-0.283297
4.70494
1.42186
0.650433
-2.66734
-0.741669
3.0017
-0.144265
2.47693
0.593344
-0.459731
1.52796
2.51526
2.52758
-1.42958
3.54862
-0.513043
3.44301
-1.3928
3.88469
-1.08439
-0.0306692
2.05431
1.97464
-0.10408
-25.1587
5.76814
-7.55388
23.9356
2.33111
-0.248918
2.37558
-0.312645
0.600118
3.50715
-1.66221
1.28769
2.71581
-0.509112
1.39347
0.794661
6.73772
0.922317
-2.93158
2.94351
0.880587
-0.261375
2.27214
1.14464
2.10035
0.283006
0.0668122
1.60931
2.11391
-0.523002
2.42943
-0.179085
2.63684
-0.704134
1.7737
0.126655
-9.60541
9.97891
15.1232
-2.33029
-2.32033
4.31238
-0.720246
2.99486
5.22873
-2.34204
3.74613
-1.23269
5.30686
0.0286356
-3.47646
2.19629
2.05635
-3.59398
-0.119736
5.56576
-6.77724
-19.2588
5.93941
17.7879
-2.46125
2.10951
4.62719
0.28151
-3.3641
-1.65904
5.06836
3.29785
-3.96052
1.06539
1.73876
7.57304
1.76628
0.0525825
1.81376
0.235263
-3.87308
3.63642
-2.71769
4.67615
-1.15128
2.81129
2.96934
-1.24267
0.671101
0.00648927
1.8239
1.06444
0.269266
-1.58223
4.03831
2.12173
-0.800272
3.56624
3.11963
-1.18489
-2.87652
3.1788
-0.816691
5.06701
2.72367
3.8679
-0.503303
-1.5951
3.03451
3.49584
-0.78321
-1.11821
-0.0423292
4.10656
-1.95856
2.03295
1.98116
-0.111637
0.916416
1.05648
0.0328101
-1.27943
3.62669
2.1866
-2.81863
1.29418
1.091
4.90347
-0.936589
-0.782443
3.25257
3.28696
7.44803
-0.582962
3.79671
-3.47869
2.08611
3.68024
-1.62642
0.127272
3.26781
1.33668
0.737672
-1.15195
1.54917
0.475078
3.28891
-1.25166
-0.689055
2.37755
2.97753
-0.187468
-0.661734
2.4643
2.89991
-0.23341
-1.2395
17.239
6.52468
-11.7947
3.17873
0.0287595
1.83611
-1.34036
1.80222
-2.86652
5.3741
0.14192
0.814142
3.76994
1.18446
-1.5821
-0.757409
5.287
-2.28386
3.53554
0.476616
1.57074
0.33331
1.48426
1.73366
0.117589
1.32954
0.517815
-1.73268
2.76374
-1.53223
2.96261
4.29886
-1.6687
4.41471
-1.21703
4.06748
-1.8313
-0.114723
2.37718
4.96786
1.39296
-3.53612
-0.144798
4.20771
-1.54393
-1.91575
3.69318
0.618377
5.8487
0.741535
-3.90243
-1.72567
2.20128
3.83803
-0.215184
6.51427
-4.28521
-1.95105
4.50563
0.048327
4.00837
-1.84234
1.94357
3.15313
-1.37391
-4.05449
5.66634
-2.62176
0.380589
5.50344
2.32652
6.45191
-11.8917
-4.58169
14.1588
-0.339433
5.36759
4.72344
2.60523
2.74999
-0.247444
2.11531
-0.824922
2.76754
1.36187
-0.707038
0.629862
2.71931
4.41852
-3.06576
-1.28851
4.43354
4.37065
-1.61624
-1.07541
0.248897
4.00382
-2.22456
1.47512
1.85494
5.17479
0.780429
-2.50743
5.63825
0.583296
1.56207
-3.36149
-4.22884
2.69496
6.20398
-0.643882
4.3221
1.14631
0.887068
-2.30467
0.309102
2.57512
1.85192
-0.42226
-0.287193
2.03503
0.123776
2.4455
5.76659
1.62038
1.25071
-2.80708
9.56335
-18.4779
17.7901
-10.207
0.764376
-1.00777
3.24732
1.4676
1.80309
0.20406
2.31042
-0.131622
2.69995
1.4238
0.994407
-0.46996
-0.206841
2.33868
2.99898
-0.798798
1.57423
-1.16482
0.648269
3.35871
0.0337236
2.00724
-1.10796
3.27846
-1.20358
1.18304
3.42809
1.03092
2.0302
0.524821
-0.0637647
1.80444
1.9966
0.0142169
2.0404
0.0223318
2.41863
-0.135588
-0.265356
2.2607
-1.65103
3.7166
3.7155
-1.49377
3.927
2.05765
-0.530936
-2.4965
-16.3101
7.36561
-5.0741
18.3669
2.19494
-2.52967
4.66246
0.0122649
0.328889
1.75327
-1.3171
3.4979
0.870677
-1.34854
3.52809
1.36089
1.87647
0.435359
-1.99288
4.31638
-0.674969
1.20327
2.79099
0.715548
-0.888532
3.02733
1.33255
0.693656
3.81617
-1.63692
0.808833
1.46774
2.04828
-0.369874
4.04924
-2.51328
-1.14922
0.259039
2.07304
3.40678
-1.41234
2.91046
-0.591078
3.82098
2.77102
-0.569324
2.9829
-0.76744
2.68195
-0.110835
-0.619178
2.16383
0.428241
2.14105
-2.35379
5.02279
7.76587
1.46751
-5.33082
1.43519
5.8698
-2.41469
4.41863
-3.72711
-1.89478
-0.838686
4.42154
3.502
-1.61826
3.84158
2.99896
-0.700781
6.89235
9.55284
-5.91944
-3.65435
1.96817
6.42695
0.471775
-3.3271
-2.4912
5.81348
3.96714
-4.47666
0.0353822
-0.318929
2.03738
2.33829
-0.990669
3.04452
1.64025
0.393572
0.384941
1.75276
3.80617
-1.60006
-2.57615
1.12896
5.09243
1.40942
-2.557
-0.0697775
2.74119
5.22015
-2.54483
2.3972
4.50583
-0.477493
2.0776
4.20915
0.109095
-2.01029
4.33112
1.14154
1.19296
-2.05278
4.85804
1.4243
-0.164616
3.27448
-1.04845
1.0319
3.0674
0.969993
2.02984
2.4188
-0.361995
0.0979969
-0.632369
2.72414
1.29958
0.548141
3.90446
-2.07676
-2.41943
3.57443
-1.52721
-0.494504
2.24067
3.38543
2.67036
-0.405064
-0.744141
2.39461
0.327433
2.27879
-0.24986
1.71726
5.127
0.827294
1.72999
-2.56898
2.32515
0.873151
-0.335806
1.07545
-0.295958
1.95824
2.32936
0.0783255
-17.5377
-18.5259
15.7516
16.2687
1.36912
-0.390697
2.23462
0.477833
-1.64662
0.371093
1.79298
4.00228
-1.28459
2.92039
-0.682639
3.41135
-1.40612
2.91575
4.01774
-0.542657
4.51767
-2.66176
-2.49544
4.9259
5.79207
-0.867117
-2.51702
3.63471
5.62895
0.00114201
2.75353
-2.45353
3.03219
-1.04903
3.35802
-0.695959
0.398524
1.55365
2.87341
-0.829895
1.59623
-0.479581
0.489309
2.60347
1.98536
2.45151
-0.279957
-0.286783
1.86126
0.15164
-0.0123279
1.7075
1.8477
-3.72805
0.151032
6.05391
-0.0496046
0.77773
1.04115
1.83794
1.76703
0.0765247
-0.258474
1.43841
3.74844
-1.0433
-1.79933
4.45721
0.220333
1.85859
1.3386
-0.304563
5.14151
0.22701
2.42586
-2.42328
-26.3958
-0.706418
23.9042
-1.47259
-0.286101
2.4643
2.28041
-0.452616
5.10463
3.00284
-2.68023
-0.412817
2.70944
-0.648473
0.143817
1.92471
3.07149
0.293679
1.635
-1.05135
0.955645
3.32289
0.745268
-1.55709
4.29441
0.257971
-1.87463
2.1212
7.10781
1.26078
1.17909
-3.91124
3.68696
-1.27763
3.19462
-0.898392
3.13595
-3.76837
-0.861292
5.77662
2.58789
0.934208
-0.493411
1.21563
3.03147
0.0342036
-1.27915
1.66232
1.05189
-2.04665
3.75214
0.738404
-2.58935
3.87272
3.49634
-1.83247
4.07549
-0.872009
3.27211
-1.54455
-1.96937
4.36223
1.64323
0.646858
4.30878
-2.00052
1.91489
0.447213
0.538503
2.34877
-0.632744
1.20859
4.35822
3.93605
-1.40317
-1.52957
-1.55983
0.519671
1.66806
3.84278
3.41156
-1.13011
-0.490018
2.682
-1.19924
-3.13649
5.56379
3.18332
0.699558
1.21396
2.86556
-0.877868
-1.72855
5.48488
2.95756
-4.09935
0.121236
0.786953
1.69783
0.848967
-0.335458
1.47125
2.23413
0.415012
0.246011
2.17234
-2.14923
4.49619
0.846269
1.07273
-0.903945
2.84416
-6.08913
1.35975
8.38525
1.89295
7.09175
-3.48926
6.98173
-2.89982
2.53281
4.19183
-0.118211
-1.80223
6.19269
-0.583924
1.8875
-4.39948
8.18817
-4.46913
1.82249
1.63618
2.26698
3.35717
-2.17128
-0.733712
-1.17607
7.18874
3.05923
-5.16028
2.38832
-3.13559
0.607156
6.41937
-1.07408
-1.37552
3.41706
3.79115
3.593
-1.20155
-1.05951
3.40067
3.34632
-1.96817
-1.25761
3.95549
1.67075
0.0992109
2.25339
-0.540195
2.48586
0.761441
1.02652
-0.652324
0.232729
1.95587
-1.4036
3.74562
-0.651007
2.87879
-0.96961
3.20461
-3.69904
-2.13039
5.31101
3.75991
2.19304
0.132592
-0.332176
1.65255
3.0966
0.440859
1.70512
-0.96233
2.13509
-0.322445
1.73947
0.118601
2.4046
-0.339496
2.76038
-0.736174
3.67349
-1.24193
3.17853
-1.62897
5.54053
-1.52479
4.87723
-2.74709
-4.64746
6.40032
-1.3177
2.43766
0.501299
1.84325
-2.51244
4.98131
)
;

boundaryField
{
    insideCircle
    {
        type            myTemperature;
        value           nonuniform List<scalar> 
24
(
4.85415
2.65454
1.10723
6.95833
-2.37409
0.0250539
6.8039
4.70087
0.359521
-0.822789
5.5999
4.7437
-1.22831
1.91828
3.3499
6.17042
3.11641
-0.136682
5.69936
1.89021
1.39639
-0.161535
5.2632
3.63754
)
;
    }
    outsideCircle
    {
        type            myTemperature;
        value           nonuniform List<scalar> 
124
(
2.36174
0.26981
1.99498
-0.369504
0.589221
1.23705
2.2947
1.83067
1.41264
0.0379065
0.455859
2.48127
-0.23219
2.08139
1.1847
1.18622
2.54671
1.0065
1.36594
-0.788653
-0.510181
0.691719
2.59151
1.50767
1.10485
-0.118327
2.66711
-0.569363
-0.120076
-0.157341
2.44643
1.84717
2.53213
0.763251
-0.412523
1.47946
1.16501
-0.244236
2.49911
0.822532
-0.501964
1.0494
2.57055
1.11125
0.176268
-0.361619
1.952
2.58569
0.866862
-0.658712
2.74454
1.25627
1.84067
0.157924
2.35357
-0.0449506
0.467119
2.07932
2.02298
-0.279141
-1.12134
-0.957711
3.75591
0.856027
2.68694
0.538203
-0.276749
1.46669
-0.345505
2.22067
-0.0470578
2.49844
2.35872
-0.299049
0.535522
1.59343
1.94285
-0.0437124
0.0524198
1.98284
-0.680487
0.857378
2.82436
1.31833
0.113096
2.57395
-0.388441
2.02998
-0.0792489
-0.147935
1.99853
2.2931
1.91755
2.5961
-0.28933
0.406427
2.45273
0.819326
-0.117165
0.992492
2.1516
-0.16967
0.535545
1.50263
2.4467
-0.473513
1.30281
0.769685
0.158346
2.50209
1.94755
-0.310985
-0.216976
2.07807
-0.00363132
2.45046
2.13927
0.177824
2.46973
-0.421201
2.60458
1.20302
0.56788
-0.568466
)
;
    }
    topAndBottom
    {
        type            empty;
    }
}


// ************************************************************************* //
