/*--------------------------------*- C++ -*----------------------------------*\
| =========                 |                                                 |
| \\      /  F ield         | foam-extend: Open Source CFD                    |
|  \\    /   O peration     | Version:  3.0                                   |
|   \\  /    A nd           | Web:         http://www.extend-project.de       |
|    \\/     M anipulation  |                                                 |
\*---------------------------------------------------------------------------*/
FoamFile
{
    version     2.0;
    format      ascii;
    class       volScalarField;
    location    "11";
    object      Theta;
}
// * * * * * * * * * * * * * * * * * * * * * * * * * * * * * * * * * * * * * //

dimensions      [0 2 -2 0 0 0 0];

internalField   nonuniform List<scalar> 
3012
(
-2.97089
1.89029
4.7768
-0.146838
16.197
2.3668
-12.0719
1.83731
-2.36381
4.03406
-2.3807
3.95375
0.982293
-0.752301
2.62559
0.921668
-9.77743
-16.1246
9.51192
16.8396
1.43156
-0.196832
2.10783
0.632081
5.00849
-2.43722
4.92956
-2.76125
-1.55913
3.93321
-0.0432513
2.34015
0.367876
2.93616
-0.921336
1.60606
3.21547
7.2808
-5.49907
-1.75511
0.932296
3.11288
1.20169
-0.936279
0.707679
1.35191
-1.33248
3.3967
1.00426
2.2202
-0.321922
0.865077
-3.85529
1.49865
1.53781
6.6586
-6.24936
-10.1713
5.2291
9.38244
-9.05898
5.9625
14.5731
0.0458961
0.948748
-1.69148
4.1001
1.40594
2.39488
1.24827
0.762774
-0.366339
2.37802
1.76413
0.0301949
-0.404087
-0.633705
2.74379
1.87746
0.204441
0.875677
-1.46233
1.18274
3.54196
2.91996
1.02284
0.951348
-0.801167
0.0598566
3.21311
-0.98396
2.15724
2.97508
-1.97338
-0.588159
4.03995
-4.99465
3.46274
-2.33824
6.28535
3.83152
2.04108
0.386306
-1.44635
3.35517
-0.670179
2.87214
-1.00044
2.39973
0.567199
-0.390154
1.47523
-1.19575
3.38542
1.34545
0.871802
2.374
0.0677211
2.21591
0.223257
-0.908125
0.0620769
0.830933
2.76779
3.78756
-8.13246
7.38795
-4.39924
18.5937
-18.3198
5.14706
-4.86496
0.295325
-0.628825
5.20223
5.78566
-7.3
11.1566
13.4845
-7.26362
8.49429
-1.79255
-4.66238
5.00412
7.02472
3.55492
-5.12238
0.749706
6.51666
-13.9851
-5.82862
13.9702
0.356705
-0.950339
1.84506
3.09682
2.07884
2.92046
-0.765848
0.0710685
2.62313
-0.446254
2.12161
-0.00858586
-5.50195
-1.44406
6.82839
2.60418
0.403326
3.0988
-1.09104
1.60642
9.465
8.32182
-8.07865
-7.03784
-7.15792
9.82445
6.36174
-2.13675
-6.08786
-0.498919
7.0486
1.77919
3.28637
-1.48839
-0.915889
4.04145
-0.360367
2.85089
2.3113
-0.882588
2.21423
-0.133857
1.90481
0.1695
2.02222
3.21251
-1.17057
0.0497549
0.813506
-0.550015
0.913837
2.27561
1.167
4.51786
-2.10349
1.35309
1.39634
1.4914
0.947237
0.163267
0.946564
1.27542
0.502978
1.14132
3.51425
1.53047
0.509289
-1.40168
0.76953
0.870712
0.735778
0.734414
0.152367
-0.347915
1.51311
2.10879
0.76191
0.782924
1.21039
0.935043
0.516832
0.972277
0.58805
1.14426
3.17279
2.55788
-0.464435
-1.1694
2.18824
-0.785658
3.0083
0.0633331
-0.0513366
3.02038
2.30512
-0.667172
1.88355
-1.78865
0.324681
4.08444
-1.72152
4.09645
3.71414
-1.22679
5.83779
0.540886
-2.38526
2.35185
0.718828
0.90524
0.776847
0.756425
0.863098
1.01966
0.724343
0.650574
2.37589
-0.572532
-1.22957
3.12098
1.20125
4.05026
1.13867
-1.7226
1.42323
-1.27417
3.35896
0.597524
-4.17602
1.96236
0.81917
7.04272
0.82073
1.63031
0.153933
1.07633
10.3355
-11.638
-10.852
11.4424
-8.73048
12.8545
-0.692979
4.47934
-0.092004
-1.84142
2.51033
4.23776
2.96881
-0.665886
-1.52725
4.03835
1.88919
-1.27358
3.48032
0.177189
-1.69571
-0.896355
1.19564
1.84599
5.35856
-0.926628
-3.48038
2.43121
3.18189
3.23232
-0.845521
-0.771007
0.635069
1.68558
0.135627
1.2626
-0.077147
-0.877437
2.27525
3.13566
-3.86898
1.27486
1.65375
7.76509
2.53422
0.697153
1.31352
-0.523923
2.32491
-0.242833
1.86338
0.0793548
1.50878
0.350655
1.46339
0.228465
-0.068681
3.38777
-1.07613
2.21382
0.955227
3.51468
1.36245
-1.17318
0.942482
2.13217
0.179373
-0.0595642
0.68644
-0.125215
2.207
1.35827
-0.503724
2.71432
2.59385
-0.479675
0.294122
3.18153
-0.973911
1.90028
-0.701402
3.22167
-1.62915
2.32563
-2.3002
3.05327
5.02231
-0.146401
2.72065
2.09228
-0.812027
-0.13623
-0.676465
-0.176134
1.93195
2.37097
0.195344
-1.3892
3.58207
1.92167
4.04487
-1.73913
-1.3327
4.72737
3.38861
-1.91331
-1.82819
3.49433
-0.781922
2.38853
-0.265185
2.93252
2.42439
-0.671721
-1.61833
3.34858
0.966985
-1.10499
1.21058
3.2695
0.106679
-4.81542
8.63406
4.46025
1.56765
-2.44207
1.07562
5.24066
-5.91655
9.40284
-9.97997
5.51259
-0.646743
-0.402763
2.84112
2.65505
1.58328
-0.35176
0.631809
2.02541
-0.336174
2.57504
0.804839
1.00925
-0.937438
0.0860666
2.19658
3.21917
-2.29002
1.4785
4.20821
0.272039
-2.57803
2.85689
4.76977
-0.629579
0.700936
0.0568495
1.95633
0.0182517
6.11556
0.986745
-3.64053
1.12188
1.44779
1.01999
0.87403
1.21285
-28.7914
4.11077
-6.43449
27.4719
5.00179
2.35215
0.230506
-2.20394
1.29092
1.06871
0.664316
0.482504
3.93982
8.03397
-5.18633
-0.155849
2.96103
5.04277
-2.2615
-0.520976
1.88732
-0.0913568
0.136159
2.07604
-1.10897
-1.84599
4.44347
3.794
0.964271
-1.62365
1.04097
3.77392
-15.5301
7.06265
-6.10788
18.0001
1.91161
2.29329
-0.485302
-0.122393
0.705716
-0.719317
1.16424
2.64783
-0.528499
3.12086
2.1052
-1.58742
0.108924
3.66276
-1.32473
2.03362
-14.572
-7.68765
7.13728
14.5159
0.0935034
2.75471
2.24294
-0.563023
5.17953
0.224801
2.68542
-2.48584
-0.300533
2.47476
-0.277928
2.47179
-0.0340674
2.3098
-0.252265
2.05059
3.19844
0.673136
-1.26277
1.38455
17.0065
-15.1065
-4.67124
6.34436
3.57374
2.88748
-1.25402
-0.595252
4.4048
0.621391
1.70162
-2.15384
0.320063
2.28533
-2.46256
5.10018
0.93868
-0.980991
3.06297
1.26844
2.94371
3.12322
-0.927974
-0.808848
0.480345
1.83044
-1.663
4.01758
-0.0585347
2.32872
-1.36703
3.60444
0.318258
-1.44216
1.38565
3.20899
1.66045
-0.382243
0.0451186
2.3729
3.75963
2.4101
-0.188435
-1.59412
1.162
-0.690135
0.594949
2.54299
-0.275398
0.803792
1.22368
2.3268
-17.1882
24.0696
-25.7122
15.3645
0.747426
1.77702
-2.13229
4.71285
3.7027
2.06345
-1.53236
0.2013
-0.876686
5.22628
-2.32236
4.14386
-11.3161
15.4476
-10.7268
13.8816
-2.13791
-8.78914
5.79786
12.5001
-2.27028
2.48987
4.23998
-0.536369
-0.169487
3.40357
2.2942
-1.15124
-3.45049
3.68607
-1.67752
5.51605
1.58911
-1.01916
0.476623
3.20829
0.656467
0.963852
1.02265
0.882122
-3.27994
2.00801
4.64599
-0.465386
1.4769
2.92104
-0.818889
0.789923
0.67578
0.923519
1.00731
1.01181
3.13615
0.0993074
1.68779
-1.39135
10.278
3.70669
1.57231
-5.45001
-2.69357
3.17633
-0.231509
5.38745
0.551317
-3.09526
2.59558
6.54946
-6.72883
7.15158
-4.74223
11.3443
4.78638
-8.05145
7.80474
-4.77516
5.89483
-3.32109
7.96595
-0.487106
-2.04201
2.65452
5.8207
-5.02453
0.968462
0.589707
0.665391
1.13604
0.116054
3.94251
-1.41302
2.34768
-23.5836
-6.46413
22.9341
6.30422
-1.5304
3.66181
-0.272732
2.42534
5.13269
-2.46511
2.77134
-0.12661
1.03562
1.0507
0.265825
1.66357
3.31386
1.99984
-0.954634
0.407404
1.91677
1.08886
-0.0575794
0.37086
-13.8987
-21.9298
13.7728
21.5509
1.92671
3.66613
-1.22901
0.346061
2.87725
-0.570491
-0.384905
2.68605
2.71413
0.649213
1.36863
-0.300442
3.16023
2.51848
-0.821023
-0.447995
1.78204
-0.843271
0.554829
3.24084
0.177172
2.36465
1.90152
-0.371816
-6.23847
6.83235
8.4247
-4.98997
0.823839
4.36355
1.03603
-2.7396
-3.34715
2.64959
5.99292
0.0938255
-1.91122
-3.20958
3.45043
4.66962
2.07896
-5.40269
8.10883
0.716708
-0.898192
-3.04051
4.9127
2.97324
0.222099
3.32991
7.03467
-3.85099
2.31902
-0.25421
2.29424
-0.310414
2.81691
1.8892
-0.070043
-0.915441
-2.3389
0.107613
5.94479
2.87035
2.26034
-0.56356
-0.625793
2.34701
-2.1511
3.09399
5.15596
-0.390822
2.77887
0.286082
1.67239
-0.723093
4.68827
0.391188
2.11173
-2.27497
4.13829
1.25182
-2.26411
0.821906
-0.186857
2.54698
-2.07179
4.48275
-0.495505
0.630392
2.69635
1.47288
1.47699
1.58336
2.70673
-0.518946
3.89352
-1.12436
-1.40373
3.48504
2.59413
-1.31884
2.96533
-0.908099
0.771648
4.21806
1.59716
-1.85529
-1.42651
3.49912
2.2064
-0.111648
3.294
-1.298
1.32713
0.580759
-0.987233
2.95908
3.09266
-0.745552
0.560531
1.70292
3.29134
-1.06877
-0.414828
0.224333
2.40647
2.1428
2.14446
0.104477
-8.27603
10.752
-0.316492
2.99533
2.41228
-0.849529
-5.19849
6.51938
4.53705
-3.65002
4.174
-6.38776
-2.75516
7.5403
2.76085
0.618131
-0.566233
1.35218
3.00098
-1.33879
2.35365
6.64088
3.86177
-0.164082
0.537438
6.21092
-1.16181
9.28899
3.16636
-7.67659
-2.87087
3.302
5.4587
-0.701204
0.691823
0.380996
1.11233
1.28901
1.16345
0.500351
1.2481
0.581008
-5.24367
0.943676
5.83144
-0.0190579
2.73155
1.92803
-0.724873
0.213973
2.0541
-0.349813
-0.170209
2.26261
-3.31573
2.17872
3.25856
8.48421
1.2326
-2.93395
1.53024
5.88157
-1.65635
3.08808
4.17702
-0.685747
-2.79587
5.5688
-0.292625
3.24178
3.18678
2.09491
0.0888961
-0.946933
-0.554111
2.85702
-0.632326
2.89348
1.80682
-3.59644
0.22501
5.70875
3.04453
-0.149642
-0.964421
2.1358
0.901593
-1.18159
3.45338
1.15703
4.35773
-2.0829
0.928245
1.37491
-1.64092
1.25246
0.222436
3.1257
2.64537
-0.550191
-0.487694
2.58712
1.58005
0.634482
3.49555
-1.2125
-0.149533
-0.949387
2.74631
1.90605
0.448073
1.4991
2.15961
-0.1798
1.42374
-0.938519
0.825199
3.11431
-2.56517
3.81095
-1.52298
4.77332
3.06149
1.40056
0.377679
-1.1346
-0.919067
2.92562
2.77619
-0.725368
2.28174
-0.947043
-0.410407
2.82355
-0.491865
2.67796
0.153045
1.88975
3.80662
-1.72485
-1.36333
4.05356
2.99783
-2.27637
-0.476976
4.85819
1.89955
-0.887212
0.224427
3.10869
3.13719
2.20102
0.0433078
-0.957555
-0.717201
2.85989
1.26222
0.934554
3.46703
1.95509
0.0727252
-1.43343
8.17791
0.141512
-3.46504
3.69048
2.71199
-2.15
-8.14332
8.53842
4.32437
0.632526
1.59663
-2.09516
1.20063
2.47272
0.653498
-0.573697
0.327783
-0.385568
2.36074
1.59719
1.62599
-1.23691
3.47689
0.58063
-4.1033
5.57885
3.96464
-2.50527
2.06306
-2.69518
-8.87617
8.16439
1.27591
2.18587
0.529646
-0.364252
1.2988
-0.837416
0.990186
3.05621
0.0374763
2.28476
2.01621
-0.158837
-0.675905
2.03866
2.8922
0.127653
-0.104561
3.15366
2.03922
-1.26976
-0.380711
2.54081
-0.0268051
2.02196
7.77019
-2.57969
-5.33748
9.31914
-0.736831
0.351038
2.96987
1.87007
2.78989
-0.146258
-0.536319
2.36198
3.82042
-1.41817
3.28702
-0.949388
2.92258
-0.459352
2.76136
-0.524313
2.79018
1.3022
-0.709951
0.746385
1.15137
3.08512
1.02978
-0.871638
4.28049
-1.79404
0.305802
2.26094
3.21161
-0.848473
2.55265
-0.280138
-0.355052
1.16592
0.76671
2.30037
1.0574
3.30241
1.22101
-1.03615
3.70344
-1.5213
0.687871
1.40718
2.77373
-0.51726
3.77894
-1.5491
-3.10161
-2.56922
4.4382
4.80169
-0.459187
3.33509
2.66691
-1.1035
-0.21538
2.27218
1.74059
0.268391
-0.390144
2.44171
0.847086
1.20115
-1.44294
4.15007
-1.76614
4.92006
0.233877
2.59061
1.71661
-0.5623
3.01044
-0.724981
2.5401
-0.272099
5.48569
3.45745
-3.09049
-0.970048
4.41262
3.08876
-2.05206
-0.73031
-0.474369
9.12471
-9.81973
-0.578399
3.48638
1.58288
0.61146
-1.24208
0.395067
1.90527
1.04463
-0.416703
0.599641
-0.332526
1.07091
2.0888
1.54265
-0.173972
1.55478
-0.146424
1.11018
-1.23705
1.09935
3.50279
-1.22116
0.570577
0.769063
2.61572
2.36386
-0.152618
-1.07006
1.4776
1.44982
0.526805
2.6217
-0.604626
-4.60812
4.01111
6.12652
-2.36107
4.1939
-3.69284
6.59612
-6.00837
2.26706
0.68776
1.13559
-0.36183
5.73297
-0.518856
3.66482
-3.12417
0.23833
1.78284
0.240695
1.51673
0.537361
2.71899
1.58266
-0.602467
0.695499
1.54003
0.300709
1.14246
2.80698
1.2304
0.828145
-0.719837
1.97786
0.587364
-0.0498707
1.11868
-0.245961
-1.93585
2.85428
4.62929
3.04779
-2.56444
4.27591
-1.25994
1.73475
0.686713
0.16441
1.20166
1.4164
4.91204
1.17443
-2.28216
2.09435
-0.577033
-0.116234
2.60775
2.72082
-2.04087
-0.0698977
4.94864
-2.40599
-1.46937
4.48927
5.79921
-0.341797
2.3419
0.746093
1.36054
2.1768
0.149493
1.88342
-0.0440953
4.19062
-0.606806
5.30249
-2.56667
3.87178
3.57623
-4.1194
-3.89939
4.62032
-2.17745
2.62427
-0.197258
2.01079
-0.678501
0.0963922
2.69688
2.98452
0.644796
1.57938
-0.795958
2.47931
0.634163
1.36229
-0.50274
2.32678
-0.254135
-0.229759
2.39812
-1.15208
2.19964
3.55612
0.157526
-10.3377
11.1843
7.31767
-7.22255
3.33415
-0.953312
-1.51857
2.88524
2.71286
-1.94794
-0.946642
3.83513
-0.204629
0.564661
2.13801
1.28687
-0.766858
2.12455
-1.77069
3.16193
3.72023
-1.06639
-1.67408
4.13533
0.27409
2.92168
-0.821797
1.76891
4.78473
0.19448
2.35105
-2.16464
0.0625265
1.78997
0.144505
1.71757
3.4431
-0.951969
-1.77812
2.58796
1.40666
-0.863233
2.82302
0.572596
-1.37076
3.65222
-0.0237593
2.26286
-0.150046
1.90287
0.483301
1.14965
-1.03704
4.10787
-1.52849
3.71575
1.92212
0.515892
1.35762
0.0324424
-0.312085
2.42286
2.36275
-0.366856
0.966354
2.21711
0.98021
-0.239693
-0.803889
1.42989
0.484785
2.8411
-0.761243
-0.931063
3.19712
3.01087
0.285189
0.300497
1.22619
1.23885
-0.208109
0.729878
1.93558
0.914646
1.51235
0.212837
0.41438
1.00737
-2.04674
1.14263
0.223984
3.4763
2.01951
4.90139
-2.28031
0.568105
10.8842
-5.6765
9.9971
-5.59059
2.24844
1.43786
-0.275949
0.332686
1.72162
-10.7151
15.169
2.39121
-5.60401
-1.72933
8.61426
4.82049
2.85401
-2.51256
-0.314181
4.83831
1.34667
0.526882
-1.0085
2.93557
1.1481
0.853975
-0.6885
2.76538
0.507041
1.25343
2.88669
-0.993889
0.44062
0.288923
1.64446
1.3405
1.72018
0.827412
0.116046
1.02366
0.0318596
1.8206
4.84542
-2.31535
1.74274
2.294
-0.00550065
-0.509867
3.18358
-0.930728
-0.809318
3.35154
2.98658
13.5666
-8.6945
1.66922
-1.87571
3.9236
3.99172
-2.0882
-15.0422
4.28519
14.5904
-5.93643
4.8745
3.05728
1.36047
6.90412
3.01389
-0.48248
2.66749
-0.712641
0.16934
-2.00225
2.71602
4.7519
2.15833
-1.35719
2.81211
-0.764514
1.62287
-0.839917
2.91962
0.580444
-1.02768
3.36099
0.387966
1.84526
0.542264
0.994597
0.546426
1.08123
-1.14324
4.08143
-1.56048
3.9918
0.440191
0.708335
1.08488
0.928135
-1.80384
3.96129
-1.37656
4.61922
1.80379
-0.495384
2.48983
0.410617
2.04674
-1.63879
4.00236
0.216514
3.15643
3.45046
-0.904116
-1.22717
-0.454657
0.704895
2.57972
1.35654
0.43856
1.33496
-1.16048
2.93777
5.22611
1.70104
-3.23254
0.415042
3.35303
1.35714
-1.22401
0.690257
2.53574
-2.20741
4.03923
-0.620779
5.52183
-4.01779
0.663232
0.938378
3.5271
0.578802
1.57497
-1.52083
1.30337
0.231273
-2.27963
3.88016
0.186222
-0.187198
1.87163
2.31194
-12.144
-3.75317
12.155
4.18148
2.70242
-0.518574
2.20336
-0.0763618
1.62657
0.204279
2.10267
-0.270691
-0.117434
0.131885
2.00598
1.74326
0.873084
-0.44715
2.62253
1.19859
1.9606
0.346014
2.53001
-0.562766
0.744517
0.3053
1.69857
1.05593
-21.6691
11.1533
-9.13143
21.8342
0.180214
0.425023
1.70139
1.2018
2.10408
-0.201304
-0.421746
2.37998
1.62791
-0.447824
2.52261
0.529062
0.267144
0.0373435
1.35858
1.53171
0.265639
1.90687
1.90358
0.270761
-0.0629068
1.5533
2.06854
0.38296
-0.693468
2.32465
3.00211
-0.111278
1.21755
0.0157563
0.336358
1.54248
1.09222
0.893336
2.98834
-0.839816
-1.41026
-0.945034
6.16565
5.52532
-0.508409
-0.177302
2.38652
2.62918
1.24672
-2.15213
4.56689
0.872165
-1.13775
0.147007
1.9945
3.21862
0.50834
1.23864
0.682741
0.853871
-0.841997
3.06496
0.580861
1.73241
1.26183
0.410239
0.792424
0.786098
-0.733357
3.1819
-1.13486
2.67424
2.16817
-0.188628
-0.917053
2.96336
-0.448823
3.4874
-1.12675
2.68043
-1.98043
0.949259
1.50472
4.45646
-8.47607
-22.0972
8.6181
22.9947
0.218847
-0.538083
5.50518
4.71857
3.73548
-1.5437
-0.11343
2.11316
5.10813
2.1361
0.601903
-2.612
3.26639
3.62581
-0.957378
-1.41037
-1.18587
2.35353
2.78321
5.84823
2.89889
-3.25333
5.1425
-1.03619
-0.270759
2.82213
-2.0832
4.96528
-0.411632
-0.167402
2.58159
1.24563
2.1144
0.638154
1.39475
0.0412513
-2.08913
1.52772
-0.0897089
3.52093
-2.32925
1.84625
0.678899
5.17444
-0.736721
2.6336
0.924741
0.965183
3.38621
3.20414
-1.212
-1.16635
-0.940414
3.13594
1.85367
0.367585
2.69597
-3.64484
-0.686123
5.50647
-1.53642
-0.713909
3.53751
2.89417
2.48105
0.0612715
1.94717
-0.462305
2.21113
-0.487405
2.7116
-0.230297
-0.573166
1.68565
0.627115
2.84062
1.88864
-0.910998
0.204101
2.98153
3.81799
-1.66418
0.699367
1.41414
4.13602
-1.96723
-1.0779
4.71452
-0.200909
-0.209952
2.15086
2.31757
1.65905
-0.446096
2.5893
0.407239
-1.07714
1.79646
3.43333
0.4765
-0.991119
-1.91274
3.43018
4.53425
-0.961913
1.03481
3.18834
1.13795
3.03916
-1.0467
2.39107
-1.69445
-0.720432
-2.07474
3.68489
4.75334
1.78449
0.938312
-2.80899
5.53866
1.55997
-0.211431
2.39423
-0.113176
3.89494
-1.42948
3.59971
-2.01427
-0.285998
1.33436
2.34658
0.673461
4.1076
-1.96479
1.40597
0.629319
3.75591
-1.62966
1.75696
0.614881
-3.78691
-3.76622
5.83605
5.99423
4.36168
-2.10888
1.59311
0.618456
0.578846
-2.13905
3.85249
1.2879
-2.20753
7.7944
-4.27264
5.30584
-0.61904
3.67231
-1.71731
2.32515
2.25302
4.94519
-2.2535
0.338595
-1.61884
3.94094
1.43392
0.743817
-9.17788
4.53399
-4.29701
10.454
2.5163
0.999768
0.992622
-0.435635
-0.290941
1.63566
2.37105
0.399323
0.332166
-0.0900699
2.03171
1.51582
0.979734
0.939125
2.17098
-0.292877
3.56706
-1.96925
2.42657
-0.93328
-0.428391
2.5165
2.5432
-0.442169
-2.08402
4.07397
2.12672
0.16055
-0.92529
3.04539
1.76953
0.235196
0.813155
2.16819
-0.359354
0.988939
-0.30488
1.81545
3.86564
-2.33108
3.13788
-0.869543
5.28339
1.82348
2.36135
-0.52656
2.71169
-0.296004
0.153467
3.00324
1.70697
-0.507514
1.13374
0.505675
0.966844
3.22013
-0.701251
1.83734
0.515543
2.94643
2.53716
0.770893
-0.587908
1.55698
-0.0956388
2.07716
-0.0148768
2.33416
0.625277
-0.731342
1.46606
2.82892
3.49832
-1.58065
0.718678
1.04913
2.22628
-0.119245
0.568202
1.42524
-0.446363
-0.777608
2.95608
2.60612
2.04893
0.168954
0.121339
1.94275
4.17573
-2.40939
4.05432
-2.62385
2.31945
3.1976
-0.0769274
-1.06904
5.21895
-1.07252
4.22607
-1.28199
2.1778
-0.328425
-4.78367
6.28953
-2.32044
3.0778
-0.866005
4.72351
-0.481969
3.18865
2.51509
-1.19589
3.78033
1.12171
0.854375
-1.80985
1.25862
3.4246
-1.3804
0.715892
-5.85571
3.7108
-2.11573
7.57369
2.91681
-1.90142
4.69888
-0.521425
5.41326
1.00946
1.62567
-2.68907
-4.07554
1.9639
1.18244
7.24579
1.41891
-0.0798907
5.15684
3.52751
0.210141
2.95637
1.51157
-1.22468
1.4808
-2.08183
3.99079
0.397163
-0.611019
1.02628
2.78051
1.11339
3.15334
-0.184722
2.48482
-0.84686
-1.22239
1.50581
3.50404
0.693866
0.416797
2.58153
-0.462592
1.80834
0.414201
2.04618
-0.0829929
1.86774
-5.13732
6.06631
7.03714
-3.941
0.448122
2.06082
1.53401
-0.0296051
0.397247
0.206642
1.58258
1.82456
0.389785
1.73681
2.87631
-0.735178
-0.0947655
2.10657
2.21343
-0.0125068
2.30663
2.12877
-0.274522
-0.431249
1.50593
-0.823523
2.70357
0.338808
-0.349675
2.50673
2.38544
-0.480651
-2.98043
2.62886
0.165856
5.86864
5.07854
-1.05947
4.28296
-2.13025
4.11894
-0.761434
2.18161
-2.68588
1.50158
0.443387
-1.42454
3.50657
0.77371
0.164969
1.6896
0.948813
0.505301
1.6354
1.37238
0.344199
2.75195
2.0405
-0.225077
-0.899211
-1.04904
5.3199
-2.44073
4.09982
-0.118227
2.20769
3.39931
-1.31283
-0.46017
1.36165
5.4726
-4.22149
1.30819
2.27246
6.49951
-2.92045
-2.69925
2.34598
0.442872
5.6478
-0.429988
1.75288
4.2744
-2.85284
-14.438
20.8782
12.5416
-22.6683
1.13348
0.860612
6.31382
4.34343
-0.985412
3.31983
3.4007
-1.07191
0.641025
4.85956
0.920381
-3.13206
-0.954522
3.06376
1.78249
0.265395
3.57568
-3.35311
5.05748
-1.91441
4.16907
-1.12759
-2.53325
2.4695
2.96482
-0.494875
2.34882
-1.19826
3.13514
1.19861
-1.0045
0.922101
2.59122
-0.523881
-0.984782
3.15902
2.15377
-4.88816
5.36722
-1.70458
1.49087
-0.376769
0.572908
2.33919
-0.166557
1.86791
-0.892714
2.4777
-0.862264
1.77859
-0.133268
2.45336
-0.0142768
-0.216467
2.3143
2.45924
-0.0675668
1.98678
2.17696
0.0447004
1.70927
2.58792
-0.535379
0.285275
4.62995
-2.26975
1.17573
1.10003
-1.88262
-8.37407
9.67927
3.4176
0.121712
-1.71856
4.04032
2.21179
0.511016
4.34233
1.75949
-2.18295
-3.32216
5.60026
-4.01735
4.76004
2.23606
1.18674
-0.424648
1.07709
2.29162
-0.197761
0.47751
1.64409
-1.27073
3.91722
-2.19018
2.88407
-2.67674
10.0111
6.06349
-6.31411
-13.278
6.74149
-4.7691
15.1755
-1.56155
-0.820448
2.61584
3.46345
4.58982
0.0290779
2.38646
-1.76941
0.905873
-3.22151
6.26503
2.00635
6.98238
1.99284
-0.528092
-5.78849
3.97597
-3.30547
-2.71991
4.48139
-0.882131
2.40494
3.07066
-0.308664
1.00683
0.722166
-0.022945
1.79078
0.00831791
2.34403
2.00894
-0.293705
4.6638
1.42926
0.624156
-2.6532
-0.720704
2.97644
-0.159052
2.49585
0.625185
-0.456333
1.50064
2.50893
2.51336
-1.43283
3.54266
-0.504365
3.45854
-1.40869
3.90424
-1.09369
-0.00110518
2.06552
1.93401
-0.122516
-25.4452
6.11463
-7.95769
24.1911
2.32854
-0.254817
2.37135
-0.309889
0.565909
3.49691
-1.66018
1.31847
2.71676
-0.509836
1.39433
0.792854
6.74971
0.962778
-2.90883
2.94329
0.880234
-0.248797
2.25384
1.14028
2.08548
0.276909
0.0778159
1.60177
2.08278
-0.554234
2.46238
-0.147717
2.62801
-0.69837
1.80554
0.0928554
-9.70031
10.3983
15.2615
-2.62862
-2.32518
4.30119
-0.726139
2.98232
5.23903
-2.33776
3.75085
-1.22874
5.31181
0.098098
-3.48274
2.14062
2.06811
-3.62285
-0.167592
5.56968
-6.86149
-19.8626
5.93652
18.2137
-2.42986
2.10906
4.58867
0.28608
-3.38517
-1.76099
5.03286
3.35468
-4.01335
0.950977
1.85852
7.66885
1.75185
0.0908143
1.76112
0.249448
-3.89652
3.68383
-2.82223
4.61039
-1.17076
2.80293
2.9174
-1.20847
0.675537
0.041585
1.7818
1.04527
0.279157
-1.60872
4.07006
2.11955
-0.827497
3.60315
3.13002
-1.21487
-2.88309
3.18953
-0.83279
5.06612
2.72942
3.85166
-0.512724
-1.58769
3.04834
3.50606
-0.795023
-1.1246
-0.0516448
4.0846
-1.94812
2.02938
1.95055
-0.0971482
0.908553
1.06376
0.0388032
-1.29612
3.64847
2.18086
-2.80552
1.28528
1.10603
4.88172
-0.964511
-0.788531
3.27549
3.33133
7.52838
-0.531276
3.77155
-3.51068
2.08326
3.70418
-1.639
0.149783
3.24143
1.38587
0.680305
-1.13352
1.48328
0.517632
3.29337
-1.26787
-0.689532
2.37883
2.97874
-0.191178
-0.661625
2.47861
2.89788
-0.238933
-0.976756
18.0979
6.37052
-12.5407
3.17231
0.0397486
1.82382
-1.33469
1.89296
-2.86705
5.40363
0.0600876
0.786815
3.79101
1.21627
-1.58796
-0.771645
5.34833
-2.32034
3.57014
0.47874
1.53435
0.362516
1.47752
1.72081
0.121094
1.29858
0.542217
-1.71688
2.70318
-1.54028
2.89631
4.37135
-1.64725
4.43379
-1.23138
4.06916
-1.83399
-0.115113
2.37504
4.95325
1.37209
-3.56356
-0.17822
4.24671
-1.48166
-1.94123
3.64536
0.765922
5.86802
0.563937
-3.92324
-1.74807
2.16961
3.85572
-0.186384
6.56358
-4.35478
-1.96398
4.4929
0.0537499
3.98227
-1.82734
1.92443
3.13678
-1.38772
-4.11562
5.70302
-2.62788
0.432895
5.54757
2.30878
6.91551
-12.3229
-5.13827
14.5158
-0.340102
5.95467
4.78382
2.21549
2.71825
-0.253007
2.10688
-0.801698
2.76341
1.35974
-0.705273
0.625743
2.66221
4.41465
-3.1037
-1.28858
4.42704
4.40854
-1.57701
-1.05867
0.198362
3.96465
-2.20865
1.50033
1.89255
5.2069
0.767591
-2.52078
5.6746
0.524577
1.60139
-3.40078
-4.26796
2.72419
6.22016
-0.705395
4.24949
1.17734
0.851961
-2.25213
0.313024
2.57986
1.84726
-0.428373
-0.29182
2.02904
0.127903
2.45222
5.79993
1.58923
1.33222
-2.79296
10.1248
-19.0159
18.1987
-10.9051
0.763264
-1.0206
3.26773
1.4792
1.79535
0.200517
2.30916
-0.128342
2.69689
1.42135
1.00042
-0.467755
-0.236195
2.36616
3.00156
-0.799817
1.58987
-1.18634
0.632354
3.37647
0.0527583
1.96016
-1.12338
3.288
-1.19113
1.14153
3.41183
1.07064
2.00301
0.529054
-0.0466823
1.80572
1.98493
0.0111609
2.03528
0.0301722
2.42528
-0.128896
-0.274044
2.2562
-1.60823
3.74628
3.68159
-1.51663
3.86736
2.04849
-0.55437
-2.48918
-17.0678
7.48659
-5.2789
19.0242
2.19874
-2.51545
4.64695
0.0102687
0.348775
1.71324
-1.34146
3.51961
0.828522
-1.34964
3.52472
1.40507
1.86482
0.442183
-1.98227
4.30001
-0.664157
1.19857
2.78011
0.696094
-0.899076
3.02976
1.34499
0.675298
3.80878
-1.63514
0.800227
1.48008
2.00951
-0.363845
4.00817
-2.50421
-1.16496
0.276441
2.06654
3.42223
-1.45328
2.91467
-0.596925
3.85954
2.76765
-0.578384
3.00879
-0.792958
2.69598
-0.0975009
-0.627865
2.14545
0.432538
2.14581
-2.40863
5.08712
7.8248
1.4812
-5.38986
1.43578
5.86887
-2.48709
4.46165
-3.74495
-1.94121
-0.872361
4.47648
3.53997
-1.6173
3.83428
2.99036
-0.705334
6.73338
9.98819
-6.26451
-3.41937
2.17106
6.48919
0.285546
-3.32961
-2.63417
5.77453
4.07025
-4.506
0.0199505
-0.291834
2.04752
2.30451
-0.95226
2.99337
1.63248
0.391976
0.382803
1.75542
3.82993
-1.6147
-2.58222
1.12975
5.10656
1.41989
-2.59553
-0.0886557
2.76387
5.26917
-2.5414
2.42036
4.49615
-0.517144
2.0889
4.18958
0.0863609
-2.00055
4.36121
1.1384
1.20435
-2.07425
4.6376
1.07867
0.125266
3.6825
-1.03988
1.0024
3.0556
0.995151
2.03905
2.41127
-0.360689
0.0904012
-0.649265
2.73588
1.30128
0.541125
3.90201
-2.09332
-2.45137
3.53672
-1.52427
-0.460632
2.19817
3.37555
2.61929
-0.404017
-0.711157
2.3718
0.345311
2.27352
-0.255492
1.70109
5.1368
0.849882
1.74153
-2.55537
2.28723
0.868149
-0.305818
1.07481
-0.298934
1.9248
2.3297
0.094774
-17.8392
-18.4973
15.6616
16.5202
1.31678
-0.392015
2.22273
0.517694
-1.65222
0.372277
1.79407
4.01664
-1.28783
2.93412
-0.697138
3.41455
-1.41351
2.94594
4.0444
-0.562306
4.52988
-2.67286
-2.52403
4.91432
5.82341
-0.850687
-2.52518
3.62765
5.6768
0.0605166
2.72011
-2.45795
3.03391
-1.06371
3.38209
-0.698025
0.415293
1.53044
2.84993
-0.811556
1.58352
-0.468495
0.493019
2.58539
1.95374
2.45092
-0.276282
-0.301829
1.84095
0.174597
-0.00168844
1.67117
1.89578
-3.7939
0.0838072
6.13427
-0.0072945
0.765386
1.04578
1.78425
1.7152
0.144403
-0.232334
1.34612
3.81313
-1.09586
-1.8648
4.54508
0.222424
1.76277
1.31666
-0.235267
5.24384
0.22234
2.44977
-2.50734
-26.6044
-0.430546
24.0515
-1.7957
-0.262595
2.45254
2.25114
-0.450069
5.0647
3.05282
-2.63011
-0.422806
2.68077
-0.627429
0.142994
1.91916
3.06026
0.314973
1.60518
-1.04769
0.949494
3.31066
0.742536
-1.54881
4.34233
0.245047
-1.91745
2.14275
7.18899
1.31393
1.13105
-3.95229
3.72332
-1.30354
3.23898
-0.946873
3.12821
-3.79864
-0.862369
5.79744
2.5696
0.97603
-0.479023
1.17785
2.98804
0.0549721
-1.25895
1.6248
1.05533
-2.02661
3.7058
0.717864
-2.57694
3.82176
3.50573
-1.8585
4.10631
-0.895843
3.29911
-1.57184
-1.97961
4.36866
1.67326
0.608712
4.32674
-2.02632
1.88538
0.462516
0.585408
2.31526
-0.614794
1.15457
4.41761
3.89625
-1.33829
-1.55156
-1.58498
0.51862
1.66941
3.86945
3.43279
-1.14231
-0.512019
2.69873
-1.09254
-3.17748
5.65006
3.10438
0.683722
1.22852
2.83678
-0.852218
-1.84069
5.45967
3.01431
-4.13089
0.165478
0.791376
1.64544
0.8269
-0.294377
1.44276
2.18335
0.437343
0.218144
2.19553
-2.17855
4.51849
0.840107
1.07162
-0.883736
2.81916
-6.19788
1.55579
8.47837
1.71107
7.09346
-3.64009
7.15863
-2.87647
2.574
4.24382
-0.146269
-1.84703
6.18558
-0.533481
1.81505
-4.40109
8.30019
-4.55316
1.86726
1.59948
2.2993
3.26665
-2.10344
-0.754173
-1.24572
7.18957
3.09591
-5.21344
2.54088
-3.13449
0.493463
6.47907
-1.08983
-1.38057
3.43905
3.79833
3.65777
-1.2637
-1.07484
3.42905
3.33518
-1.96576
-1.25138
3.94811
1.6054
0.138618
2.17599
-0.489234
2.39655
0.779777
0.987713
-0.582369
0.203485
1.97945
-1.40754
3.74819
-0.684533
2.90816
-0.955249
3.18634
-3.72462
-2.2315
5.28479
3.82647
2.16605
0.123335
-0.313695
1.64919
3.07186
0.447441
1.70278
-0.942148
2.12718
-0.318081
1.70352
0.153399
2.39129
-0.341606
2.74238
-0.730276
3.6671
-1.23537
3.16528
-1.63199
5.57456
-1.5086
4.87029
-2.77933
-4.68134
6.44793
-1.56836
2.66717
0.480287
1.85903
-2.53845
5.00875
)
;

boundaryField
{
    insideCircle
    {
        type            myTemperature;
        value           nonuniform List<scalar> 
24
(
4.87434
2.59906
1.12472
7.04801
-2.43763
-0.0902298
6.84452
4.79733
0.355267
-0.81736
5.58443
4.75046
-1.23099
1.94005
3.3319
6.16934
3.10275
-0.113957
5.70259
1.91017
1.41658
-0.151135
5.25894
3.61852
)
;
    }
    outsideCircle
    {
        type            myTemperature;
        value           nonuniform List<scalar> 
124
(
2.37389
0.277336
1.96295
-0.362618
0.626244
1.27164
2.30262
1.79897
1.40096
0.0610915
0.452658
2.4756
-0.21533
2.05537
1.18371
1.18991
2.5326
1.00955
1.37779
-0.799673
-0.507765
0.691082
2.58448
1.50834
1.10346
-0.142378
2.66642
-0.58374
-0.117871
-0.170604
2.44597
1.83661
2.52656
0.76715
-0.414105
1.47048
1.1483
-0.221827
2.4811
0.833955
-0.49667
1.05064
2.56126
1.10784
0.182525
-0.365245
1.94628
2.59223
0.867729
-0.666332
2.74815
1.25152
1.84902
0.150998
2.34675
-0.0535962
0.47324
2.07208
2.01946
-0.279615
-1.19237
-1.01039
3.8194
0.788957
2.68267
0.539443
-0.271319
1.4608
-0.358071
2.21866
-0.0457918
2.50919
2.35295
-0.293551
0.544633
1.59282
1.9346
-0.0435366
0.0528789
1.97441
-0.690051
0.856752
2.83135
1.31783
0.0958707
2.57687
-0.391952
2.04577
-0.0800071
-0.153682
1.98956
2.2996
1.91609
2.59571
-0.290923
0.406681
2.44746
0.808361
-0.0992738
0.993301
2.13723
-0.159092
0.538242
1.49557
2.44033
-0.474818
1.30454
0.766079
0.159142
2.50515
1.94453
-0.31533
-0.22408
2.07929
-0.00661232
2.45393
2.15123
0.173511
2.4626
-0.421143
2.60472
1.1922
0.567459
-0.572566
)
;
    }
    topAndBottom
    {
        type            empty;
    }
}


// ************************************************************************* //
