/*--------------------------------*- C++ -*----------------------------------*\
| =========                 |                                                 |
| \\      /  F ield         | foam-extend: Open Source CFD                    |
|  \\    /   O peration     | Version:  3.0                                   |
|   \\  /    A nd           | Web:         http://www.extend-project.de       |
|    \\/     M anipulation  |                                                 |
\*---------------------------------------------------------------------------*/
FoamFile
{
    version     2.0;
    format      ascii;
    class       volSymmTensorField;
    location    "17";
    object      sigma;
}
// * * * * * * * * * * * * * * * * * * * * * * * * * * * * * * * * * * * * * //

dimensions      [0 0 0 0 0 0 0];

internalField   nonuniform List<symmTensor> 
168
(
(-0.143089 -0.0197662 -9.46877e-19 0.142968 -1.2944e-19 0.000121126)
(-0.113117 -0.0208231 1.93103e-19 0.112849 1.53777e-18 0.000267386)
(-0.0790979 -0.0177786 6.73033e-19 0.0787335 -1.39004e-19 0.00036442)
(-0.0497867 -0.0143218 -8.96496e-19 0.0493842 3.83494e-18 0.000402461)
(-0.0264592 -0.0113925 1.47512e-18 0.0261068 7.42164e-19 0.000352477)
(-0.0126049 -0.0103493 -3.31356e-19 0.0124359 -2.75246e-18 0.000168952)
(-0.130014 -0.0561847 3.98177e-19 0.129901 2.98826e-19 0.00011326)
(-0.094451 -0.0566009 1.15485e-18 0.0942008 -4.18422e-18 0.00025021)
(-0.0610229 -0.046948 2.03382e-18 0.0606819 -2.55533e-18 0.000341052)
(-0.0336868 -0.0365184 3.60452e-18 0.03331 -4.0396e-18 0.000376825)
(-0.0123821 -0.0276065 -4.98487e-18 0.0120526 -4.54845e-19 0.000329535)
(0.000902011 -0.0233583 -2.15512e-19 -0.00105994 3.93975e-18 0.000157927)
(-0.107089 -0.0845048 7.39444e-19 0.106989 -6.30558e-18 0.000100083)
(-0.0637544 -0.0779242 -5.25006e-18 0.0635335 5.11397e-19 0.000220894)
(-0.0320172 -0.0611795 -5.70825e-19 0.0317161 -7.43581e-19 0.000301107)
(-0.00838127 -0.0448065 -5.41437e-19 0.00804897 9.43398e-19 0.000332297)
(0.0092574 -0.0311948 1.0388e-17 -0.00954792 5.64046e-18 0.000290518)
(0.0211733 -0.0239964 1.5368e-18 -0.0213124 -6.04827e-18 0.00013906)
(-0.0794988 -0.102377 1.79609e-18 0.079417 2.99049e-18 8.17807e-05)
(-0.0314211 -0.0817021 3.33531e-18 0.0312407 5.94716e-18 0.000180458)
(-0.00310362 -0.0575913 4.57913e-19 0.00285773 -1.55992e-18 0.00024589)
(0.0156905 -0.0367053 -2.7594e-19 -0.0159617 3.94742e-18 0.000271134)
(0.0288588 -0.0200843 -4.5557e-18 -0.0290956 -1.10798e-17 0.000236798)
(0.0387574 -0.0103764 -8.84669e-20 -0.0388706 2.48838e-18 0.000113176)
(-0.0523322 -0.110691 -4.31425e-18 0.0522728 1.57832e-18 5.93647e-05)
(-0.00721507 -0.0716807 7.78551e-19 0.00708415 -4.40161e-18 0.000130913)
(0.0154458 -0.0406232 -1.63084e-18 -0.0156241 1.16098e-18 0.000178281)
(0.02887 -0.0167208 2.86104e-18 -0.0290663 -1.39505e-18 0.000196297)
(0.0375904 0.00134938 7.94749e-19 -0.0377616 3.52611e-18 0.000171153)
(0.0449793 0.0129634 -3.58813e-18 -0.0450609 2.14267e-18 8.15898e-05)
(-0.028755 -0.112759 1.37745e-18 0.0287211 6.3713e-19 3.39001e-05)
(0.00370249 -0.0565476 -1.06513e-18 -0.00377721 1.62657e-18 7.47228e-05)
(0.0184474 -0.0199836 -1.01305e-18 -0.0185489 3.20313e-19 0.000101577)
(0.0264221 0.00565478 -1.49455e-18 -0.0265336 -5.55287e-19 0.000111519)
(0.0312412 0.0241314 -1.7232e-18 -0.031338 -1.48065e-18 9.68251e-05)
(0.0357925 0.0370536 1.94058e-18 -0.0358384 -2.96274e-19 4.58732e-05)
(-0.00903177 -0.11249 -5.05805e-20 0.00902505 -3.91995e-19 6.71393e-06)
(0.00280798 -0.045874 7.05346e-20 -0.0028227 -9.21454e-19 1.47214e-05)
(0.00793612 -0.00624989 9.553e-19 -0.00795583 -1.97754e-19 1.97083e-05)
(0.0105856 0.0201479 -5.36408e-20 -0.0106067 -6.12108e-19 2.10761e-05)
(0.0121063 0.0386189 1.21661e-19 -0.0121239 1.47673e-18 1.75969e-05)
(0.0136948 0.052173 -4.72735e-19 -0.0137026 -3.25738e-20 7.84796e-06)
(0.00908103 -0.112481 -1.07097e-19 -0.00906019 5.98626e-19 -2.08378e-05)
(-0.00275036 -0.0458727 1.87972e-19 0.00279642 7.22976e-19 -4.60638e-05)
(-0.0078681 -0.0062491 -2.46745e-20 0.00793132 -7.32875e-19 -6.32182e-05)
(-0.0104865 0.0201443 1.23628e-18 0.010557 -9.00194e-19 -7.04915e-05)
(-0.0119988 0.0386025 -2.93608e-19 0.0120614 -1.36841e-18 -6.25987e-05)
(-0.0135089 0.0521607 -3.89217e-19 0.0135395 -8.10913e-20 -3.06277e-05)
(0.0287975 -0.112739 1.41326e-18 -0.0287502 -4.59829e-19 -4.73415e-05)
(-0.00365347 -0.0565349 -2.11149e-18 0.00375802 -1.55487e-18 -0.000104549)
(-0.0183896 -0.019976 -1.13284e-18 0.0185326 -6.01288e-19 -0.000142981)
(-0.0263301 0.00566869 -2.06063e-18 0.0264886 -2.06804e-18 -0.000158531)
(-0.0311482 0.024116 2.06917e-19 0.0312879 2.68271e-18 -0.000139625)
(-0.0356215 0.0370827 2.28892e-18 0.035689 -2.41593e-20 -6.7525e-05)
(0.0523592 -0.110667 -4.32735e-18 -0.0522878 -8.25368e-19 -7.14681e-05)
(0.0072555 -0.0716664 7.08329e-19 -0.00709771 4.39093e-18 -0.000157786)
(-0.015395 -0.0406147 -1.17968e-18 0.0156106 -1.67133e-19 -0.000215577)
(-0.0287933 -0.0167164 3.75027e-19 0.029032 6.66858e-19 -0.000238637)
(-0.0374736 0.00133961 3.75809e-18 0.0376833 -6.66285e-18 -0.00020972)
(-0.0448018 0.0129707 -3.75339e-18 0.0449029 -1.19139e-18 -0.000101122)
(0.0795169 -0.102347 2.25541e-18 -0.0794249 -2.77053e-18 -9.19908e-05)
(0.0314503 -0.0816842 5.66888e-18 -0.0312472 -3.41518e-18 -0.000203074)
(0.00314304 -0.057587 -2.14941e-18 -0.00286574 -4.12684e-19 -0.000277308)
(-0.0156249 -0.0366841 3.0051e-18 0.0159316 1.53004e-18 -0.000306724)
(-0.0287507 -0.0201153 -1.10041e-17 0.0290199 5.16392e-18 -0.000269221)
(-0.0386108 -0.0103837 2.0835e-18 0.0387404 -1.10776e-19 -0.000129583)
(0.107106 -0.0844837 2.13926e-18 -0.106998 5.90428e-18 -0.000107877)
(0.063776 -0.0779193 -5.53465e-18 -0.0635379 -1.86912e-19 -0.000238126)
(0.0320641 -0.061178 9.75502e-19 -0.0317391 3.32938e-18 -0.000325062)
(0.00843148 -0.0448175 -2.65784e-18 -0.00807214 -3.1453e-18 -0.000359344)
(-0.00916084 -0.031199 4.57037e-18 0.00947599 -9.29861e-19 -0.000315158)
(-0.0210554 -0.0239808 2.32009e-18 0.0212069 4.35221e-18 -0.000151541)
(0.13002 -0.0561633 2.71266e-19 -0.129901 -6.45426e-19 -0.000118324)
(0.0944592 -0.0566011 2.27531e-18 -0.094198 2.03558e-18 -0.000261172)
(0.0610471 -0.0469568 1.86547e-18 -0.0606907 3.81305e-18 -0.000356418)
(0.0337182 -0.0365263 -2.20955e-18 -0.0333243 3.4255e-18 -0.000393841)
(0.0124578 -0.0276155 -3.58721e-19 -0.0121126 2.13013e-18 -0.000345207)
(-0.000746568 -0.023348 -1.24053e-18 0.000912435 -1.75302e-18 -0.000165867)
(0.143094 -0.0197304 -6.42733e-19 -0.142972 -4.80295e-19 -0.000122806)
(0.113127 -0.0208256 -4.12757e-19 -0.112856 -2.10533e-18 -0.000271047)
(0.0791301 -0.0177505 7.44736e-19 -0.0787603 -1.5155e-18 -0.000369792)
(0.0498067 -0.0143423 -8.90453e-19 -0.0493982 -1.62567e-18 -0.000408449)
(0.0265237 -0.0113888 1.61168e-18 -0.0261659 6.07444e-19 -0.000357816)
(0.0127087 -0.0103783 -9.28299e-20 -0.0125369 -6.23085e-19 -0.000171798)
(0.143099 0.0197481 -9.44144e-19 -0.142978 -1.28487e-19 -0.000121106)
(0.113191 0.0205469 1.94504e-19 -0.112923 1.53659e-18 -0.000267267)
(0.0792325 0.0172341 6.7185e-19 -0.078868 -1.35916e-19 -0.000364512)
(0.0500409 0.0133304 -8.96606e-19 -0.0496385 3.83369e-18 -0.000402397)
(0.0268197 0.00984318 1.46515e-18 -0.0264675 7.45923e-19 -0.000352226)
(0.0132353 0.00766868 -3.30054e-19 -0.0130664 -2.75053e-18 -0.000168917)
(0.130021 0.056168 3.96229e-19 -0.129908 2.97709e-19 -0.000113308)
(0.0946221 0.0563751 1.15232e-18 -0.0943721 -4.18496e-18 -0.000250036)
(0.0613572 0.0465067 2.03891e-18 -0.0610163 -2.55529e-18 -0.0003409)
(0.0342998 0.0356977 3.60425e-18 -0.0339237 -4.04067e-18 -0.000376145)
(0.0133565 0.0263539 -4.96825e-18 -0.0130275 -4.45809e-19 -0.000329036)
(0.000769037 0.0211789 -2.20868e-19 -0.000611398 3.92956e-18 -0.000157639)
(0.107105 0.0844891 7.42433e-19 -0.107005 -6.30415e-18 -9.98203e-05)
(0.0639957 0.0777866 -5.24835e-18 -0.0637754 5.1195e-19 -0.000220248)
(0.0324913 0.0609057 -5.75262e-19 -0.0321911 -7.46991e-19 -0.000300167)
(0.00926313 0.0443333 -5.3976e-19 -0.00893214 9.41609e-19 -0.000330989)
(-0.00789548 0.0304313 1.03744e-17 0.00818475 5.63443e-18 -0.000289274)
(-0.0187703 0.0227106 1.53454e-18 0.0189087 -6.03513e-18 -0.000138422)
(0.079524 0.102363 1.79336e-18 -0.0794427 2.98824e-18 -8.13167e-05)
(0.0316799 0.0816787 3.33332e-18 -0.0315005 5.946e-18 -0.000179405)
(0.00364096 0.0575436 4.59707e-19 -0.00339657 -1.55379e-18 -0.000244389)
(-0.0147317 0.036635 -2.79976e-19 0.015001 3.94569e-18 -0.000269293)
(-0.0273539 0.0199757 -4.54517e-18 0.027589 -1.10684e-17 -0.000235113)
(-0.0361365 0.0102046 -7.29256e-20 0.0362489 2.46626e-18 -0.000112346)
(0.0523657 0.110687 -4.31341e-18 -0.052307 1.58065e-18 -5.87426e-05)
(0.00745538 0.0717597 7.80046e-19 -0.00732579 -4.39967e-18 -0.000129585)
(-0.0149521 0.0407959 -1.63216e-18 0.0151285 1.15501e-18 -0.000176391)
(-0.0280043 0.0170522 2.86671e-18 0.0281984 -1.39664e-18 -0.000194142)
(-0.0362194 -0.000831011 7.86594e-19 0.0363887 3.51398e-18 -0.000169215)
(-0.042602 -0.0119665 -3.5851e-18 0.0426827 2.14758e-18 -8.06796e-05)
(0.0287826 0.112769 1.37658e-18 -0.0287493 6.35503e-19 -3.32228e-05)
(-0.00354413 0.0567061 -1.06524e-18 0.0036174 1.6251e-18 -7.32737e-05)
(-0.0181027 0.0203411 -1.01455e-18 0.0182023 3.24723e-19 -9.95707e-05)
(-0.0258328 -0.0050136 -1.49668e-18 0.0259421 -5.54813e-19 -0.000109292)
(-0.030289 -0.0231114 -1.71916e-18 0.0303839 -1.47108e-18 -9.48782e-05)
(-0.0341415 -0.0351785 1.93149e-18 0.0341865 -2.96402e-19 -4.49906e-05)
(0.0090479 0.112515 -5.03082e-20 -0.00904185 -3.90122e-19 -6.04863e-06)
(-0.00274435 0.046089 7.11189e-20 0.00275766 -9.18654e-19 -1.33105e-05)
(-0.00780086 0.00671981 9.54948e-19 0.00781865 -2.00189e-19 -1.77856e-05)
(-0.0103574 -0.0193267 -5.16311e-20 0.0103764 -6.11838e-19 -1.89852e-05)
(-0.0117394 -0.0372961 1.1917e-19 0.0117552 1.46552e-18 -1.57928e-05)
(-0.0130716 -0.0497906 -4.68465e-19 0.0130786 -2.98127e-20 -7.03167e-06)
(-0.00908467 0.112506 -1.05954e-19 0.00906324 5.96086e-19 2.14266e-05)
(0.00270978 0.0460758 1.87746e-19 -0.00275709 7.20504e-19 4.73131e-05)
(0.00777302 0.0067133 -2.2631e-20 -0.00783789 -7.31025e-19 6.48735e-05)
(0.010309 -0.0193384 1.23441e-18 -0.0103813 -8.99058e-19 7.22675e-05)
(0.0117241 -0.0372927 -2.93566e-19 -0.0117881 -1.35905e-18 6.4057e-05)
(0.0129622 -0.0497933 -3.8943e-19 -0.0129935 -8.3241e-20 3.12594e-05)
(-0.0288209 0.112755 1.41197e-18 0.0287731 -4.5813e-19 4.78176e-05)
(0.00350617 0.0566931 -2.1119e-18 -0.00361172 -1.5533e-18 0.000105553)
(0.0180722 0.0203362 -1.1322e-18 -0.0182165 -6.0574e-19 0.00014428)
(0.0257897 -0.00503139 -2.06514e-18 -0.0259496 -2.06887e-18 0.000159915)
(0.0302655 -0.0230899 2.11963e-19 -0.0304062 2.67105e-18 0.000140733)
(0.0340711 -0.0351811 2.27996e-18 -0.0341391 -2.2928e-20 6.80231e-05)
(-0.0523911 0.110664 -4.32648e-18 0.0523193 -8.27973e-19 7.18079e-05)
(-0.00746614 0.0717411 7.10298e-19 0.00730764 4.3892e-18 0.0001585)
(0.0149366 0.0407955 -1.18059e-18 -0.015153 -1.63357e-19 0.000216442)
(0.0279922 0.0170319 3.8268e-19 -0.0282318 6.67828e-19 0.000239563)
(0.036201 -0.00080765 3.74777e-18 -0.0364114 -6.65617e-18 0.000210358)
(0.0425364 -0.0120005 -3.75667e-18 -0.0426378 -1.19708e-18 0.000101371)
(-0.0795452 0.102331 2.25315e-18 0.079453 -2.76724e-18 9.21903e-05)
(-0.0316854 0.0816539 5.66561e-18 0.0314819 -3.41531e-18 0.000203506)
(-0.00365228 0.0575331 -2.14508e-18 0.00337448 -4.1481e-19 0.000277799)
(0.0147362 0.0366211 2.99926e-18 -0.0150434 1.52554e-18 0.000307253)
(0.0273326 0.0199836 -1.09882e-17 -0.0276021 5.15917e-18 0.000269521)
(0.0360822 0.0102343 2.09138e-18 -0.0362119 -9.88247e-20 0.00012968)
(-0.107117 0.0844543 2.14082e-18 0.107009 5.90325e-18 0.000107942)
(-0.0639859 0.0777761 -5.53214e-18 0.0637476 -1.88678e-19 0.000238305)
(-0.0325047 0.0609016 9.70727e-19 0.0321795 3.33274e-18 0.00032522)
(-0.00923816 0.0443278 -2.65659e-18 0.00887862 -3.14819e-18 0.000359535)
(0.00788291 0.0304526 4.55742e-18 -0.00819814 -9.18208e-19 0.000315225)
(0.0187678 0.022718 2.31707e-18 -0.0189193 4.33534e-18 0.000151499)
(-0.130026 0.0561321 2.68942e-19 0.129908 -6.44314e-19 0.000118265)
(-0.0946072 0.0563735 2.27331e-18 0.094346 2.03572e-18 0.00026118)
(-0.0613546 0.0464917 1.8669e-18 0.0609982 3.81204e-18 0.000356438)
(-0.0342781 0.0357233 -2.20974e-18 0.0338843 3.42586e-18 0.000393839)
(-0.0133289 0.0263489 -3.48839e-19 0.0129836 2.12602e-18 0.000345264)
(-0.000772274 0.0211804 -1.24062e-18 0.000606508 -1.74715e-18 0.000165766)
(-0.143092 0.0197126 -6.41237e-19 0.142969 -4.80617e-19 0.000122614)
(-0.113171 0.0205528 -4.09698e-19 0.1129 -2.10577e-18 0.000270962)
(-0.079217 0.0172186 7.40178e-19 0.0788473 -1.51507e-18 0.000369656)
(-0.0499977 0.0133489 -8.90638e-19 0.0495894 -1.62714e-18 0.000408338)
(-0.0267981 0.00984404 1.59927e-18 0.0264403 6.1219e-19 0.000357785)
(-0.0132041 0.00766791 -8.83651e-20 0.0130324 -6.28689e-19 0.00017166)
)
;

boundaryField
{
    out
    {
        type            mySigma;
    }
    in
    {
        type            mySigma;
    }
    frontAndBack
    {
        type            empty;
    }
}


// ************************************************************************* //
