/*--------------------------------*- C++ -*----------------------------------*\
| =========                 |                                                 |
| \\      /  F ield         | foam-extend: Open Source CFD                    |
|  \\    /   O peration     | Version:  3.0                                   |
|   \\  /    A nd           | Web:         http://www.extend-project.de       |
|    \\/     M anipulation  |                                                 |
\*---------------------------------------------------------------------------*/
FoamFile
{
    version     2.0;
    format      ascii;
    class       volScalarField;
    location    "3";
    object      p;
}
// * * * * * * * * * * * * * * * * * * * * * * * * * * * * * * * * * * * * * //

dimensions      [0 0 0 0 0 0 0];

internalField   nonuniform List<scalar> 
2688
(
-0.2438312119
-0.2252748678
-0.21476636
-0.2020485059
-0.1960931641
-0.1867979885
-0.1838301248
-0.1765507607
-0.1755625563
-0.1694727782
-0.1696193834
-0.1643666316
-0.1647628641
-0.1604427959
-0.1601826005
-0.1571864009
-0.1556581906
-0.1542601073
-0.151569692
-0.1514116487
-0.1483871147
-0.1483042733
-0.145861812
-0.1443511955
-0.2430645419
-0.2245662553
-0.2140915561
-0.2014139787
-0.1954777914
-0.1862122378
-0.1832537647
-0.1759977889
-0.1750126132
-0.1689421636
-0.1690883152
-0.1638518317
-0.1642468752
-0.1599397651
-0.159680494
-0.1566929365
-0.1551695689
-0.1537747263
-0.1510921644
-0.1509329679
-0.1479177357
-0.1478345687
-0.1453992633
-0.1438932202
-0.2415321698
-0.2231503698
-0.212742836
-0.2001442799
-0.1942462448
-0.1850381824
-0.1820987474
-0.1748878252
-0.1739089453
-0.1678762915
-0.1680214579
-0.162817772
-0.1632103792
-0.158930512
-0.1586732822
-0.1557048743
-0.1541917713
-0.1528059934
-0.1501412042
-0.1499834001
-0.1469886927
-0.1469054313
-0.144486647
-0.1429903899
-0.2392408955
-0.2210335687
-0.2107247623
-0.1982464059
-0.1924042245
-0.1832842661
-0.1803725654
-0.1732307243
-0.1722609982
-0.1662859471
-0.1664296994
-0.1612753866
-0.1616642447
-0.1574245815
-0.1571697192
-0.1542287468
-0.1527299414
-0.1513563416
-0.148716828
-0.1485592945
-0.1455932567
-0.1455092044
-0.1431139165
-0.1416317739
-0.2361961708
-0.218220525
-0.2080431776
-0.1957232206
-0.1899556842
-0.1809513086
-0.1780768675
-0.1710255586
-0.1700682581
-0.1641690035
-0.1643109836
-0.159222121
-0.1596062538
-0.1554204593
-0.1551693584
-0.1522657703
-0.1507868149
-0.1494307362
-0.1468257187
-0.1466701974
-0.1437426775
-0.143659325
-0.1412950051
-0.1398316721
-0.2324092387
-0.214721865
-0.2047077329
-0.1925858357
-0.1869107021
-0.1780513556
-0.1752229267
-0.16828525
-0.1673432834
-0.1615389555
-0.1616787247
-0.1566714981
-0.1570494717
-0.1529304534
-0.1526831767
-0.1498254863
-0.1483700017
-0.1470349913
-0.1444717806
-0.1443181079
-0.1414374752
-0.1413546794
-0.1390285216
-0.1375885472
-0.2278899708
-0.2105465318
-0.2007270945
-0.1888408068
-0.1832760123
-0.1745887652
-0.1718153438
-0.1650124345
-0.1640887415
-0.1583971842
-0.1585342288
-0.1536243003
-0.1539951658
-0.1499561321
-0.1497141884
-0.1469118114
-0.1454852642
-0.1441759195
-0.1416633236
-0.1415125898
-0.1386884478
-0.1386070457
-0.1363265905
-0.1349145944
-0.2226549175
-0.2057099423
-0.1961161315
-0.1845033488
-0.1790663823
-0.1705792296
-0.1678695934
-0.161223415
-0.1603211264
-0.1547605996
-0.1548947512
-0.1500976353
-0.1504601126
-0.146513537
-0.1462770183
-0.1435384017
-0.1421443005
-0.1408643558
-0.1384092974
-0.1382616439
-0.1355022654
-0.1354220866
-0.1331942139
-0.1318145898
-0.2167178575
-0.2002247257
-0.1908865825
-0.179583525
-0.1742913492
-0.1660304981
-0.1633929688
-0.1569239947
-0.1560455773
-0.150633336
-0.1507638159
-0.1460946457
-0.146447668
-0.1426062901
-0.1423765815
-0.1397107763
-0.1383544272
-0.1371082102
-0.1347192505
-0.1345753633
-0.1318902382
-0.1318118794
-0.1296439378
-0.1283010784
-0.2101004923
-0.1941110052
-0.185058046
-0.1741005253
-0.1689700027
-0.1609618106
-0.1584050277
-0.1521339157
-0.1512826468
-0.1460358262
-0.1461626642
-0.1416359491
-0.1419783997
-0.1382539075
-0.1380312242
-0.1354462146
-0.1341310992
-0.1329222414
-0.1306059655
-0.1304660156
-0.1278628108
-0.1277862345
-0.1256846651
-0.1243827569
-0.2028203219
-0.1873849046
-0.1786454361
-0.1680677733
-0.1631147578
-0.1553841344
-0.152915703
-0.1468619524
-0.1460399077
-0.1409749831
-0.141097281
-0.1367274857
-0.1370582107
-0.1334627645
-0.1332482274
-0.1307526774
-0.1294837159
-0.1283164446
-0.1260810722
-0.1259457252
-0.1234334767
-0.1233591767
-0.1213309492
-0.12007412
-0.194903826
-0.1800709179
-0.1716726096
-0.1615081861
-0.1567486031
-0.1493200506
-0.1469482568
-0.1411310133
-0.1403414255
-0.1354742175
-0.1355921088
-0.1313926407
-0.1317107453
-0.1282551566
-0.1280491667
-0.1256503764
-0.1244309482
-0.1233084834
-0.1211601875
-0.121029529
-0.1186153077
-0.1185432179
-0.1165943587
-0.1153865181
-0.1863721376
-0.172188561
-0.1641576579
-0.1544384014
-0.1498868601
-0.1427836144
-0.140515365
-0.1349528762
-0.1341975625
-0.1295435079
-0.1296560674
-0.1256404513
-0.125944699
-0.1226403724
-0.1224437588
-0.1201499727
-0.1189844955
-0.1179109968
-0.115857393
-0.1157322279
-0.1134244121
-0.1133550474
-0.1114919583
-0.1103369403
-0.1772560361
-0.1637662656
-0.1561282113
-0.1468847095
-0.1425559206
-0.1358003762
-0.1336433818
-0.1283530928
-0.1276350936
-0.1232086191
-0.123316066
-0.1194965658
-0.1197862962
-0.1166430415
-0.1164563388
-0.1142740126
-0.1131657009
-0.1121438536
-0.1101906693
-0.1100709076
-0.1078760717
-0.1078092916
-0.1060376459
-0.1049390233
-0.1675801709
-0.1548268218
-0.1476054835
-0.1388668382
-0.1347740403
-0.1283874313
-0.1263479166
-0.1213465311
-0.1206674534
-0.1164826497
-0.1165840505
-0.112973013
-0.1132469603
-0.1102753067
-0.1100991095
-0.1080359933
-0.1069887037
-0.1060225464
-0.104176582
-0.1040631773
-0.1019888105
-0.1019252195
-0.1002506823
-0.09921197136
-0.1573790721
-0.145402108
-0.1386203652
-0.1304140159
-0.1265704656
-0.1205728395
-0.1186577738
-0.1139609064
-0.1133235373
-0.1093933691
-0.1094890171
-0.106097436
-0.1063551242
-0.1035637317
-0.1033986566
-0.1014603127
-0.1004770889
-0.09956879511
-0.09783534506
-0.09772801968
-0.09578023285
-0.09571960299
-0.09414749519
-0.09317187832
-0.1466807457
-0.1355180298
-0.129197084
-0.1215489227
-0.1179663646
-0.1123766468
-0.1105915404
-0.1062140592
-0.1056197819
-0.1019567586
-0.1020457517
-0.09888466055
-0.09912487945
-0.09652327792
-0.09636971567
-0.09456323938
-0.09364731512
-0.09280068507
-0.09118559565
-0.09108540534
-0.08927060074
-0.08921358863
-0.08774868915
-0.08683932337
-0.1355229143
-0.125209399
-0.1193692646
-0.1123032585
-0.1089932998
-0.1038289852
-0.1021799597
-0.0981355235
-0.09758683097
-0.09420231138
-0.09428497033
-0.09136391825
-0.09158633255
-0.08918194278
-0.08904058444
-0.08737066762
-0.08652490591
-0.08574165174
-0.08424975526
-0.08415628208
-0.08248008101
-0.08242642999
-0.08107366207
-0.08023331384
-0.1239366892
-0.1145050062
-0.1091639599
-0.1027024493
-0.09967521044
-0.09495263523
-0.09344442114
-0.08974583459
-0.08924387844
-0.08614865543
-0.08622416689
-0.08355276494
-0.08375625994
-0.08155743603
-0.0814284466
-0.07990134199
-0.07912830574
-0.07841187969
-0.07704799174
-0.07696232237
-0.07542994735
-0.07538028211
-0.07414349822
-0.07337491022
-0.1119624264
-0.1034420831
-0.09861701992
-0.09278021512
-0.09004550154
-0.08577942136
-0.08441721206
-0.08107601755
-0.08062293766
-0.07782657746
-0.0778952433
-0.07548145791
-0.07566584052
-0.07367873566
-0.07356289341
-0.07218244305
-0.07148477853
-0.07083644405
-0.06960486535
-0.06952646375
-0.06814292517
-0.06809697522
-0.06698053776
-0.0662860258
-0.09963401454
-0.09205199593
-0.08775803732
-0.08256443075
-0.0801306102
-0.07633454451
-0.07512223176
-0.07214902298
-0.07174575276
-0.06925723841
-0.06931836548
-0.06717024588
-0.0673344866
-0.06556608911
-0.06546330394
-0.0642347677
-0.06361433485
-0.06303711916
-0.06194157514
-0.06187151271
-0.06064085169
-0.0605991816
-0.0596060921
-0.05898794606
-0.08699390798
-0.08037390432
-0.07662461331
-0.07209041425
-0.06996536779
-0.06665115255
-0.06559292487
-0.06299695065
-0.0626452184
-0.06047216344
-0.06052602036
-0.05864987453
-0.05879394547
-0.05724913335
-0.05716026948
-0.0560866449
-0.05554583907
-0.05504057996
-0.0540848001
-0.05402246228
-0.05294895915
-0.05291128368
-0.05204517097
-0.05150521776
-0.07407833999
-0.0684413522
-0.06524850195
-0.06138811555
-0.0595783498
-0.05675652289
-0.05585539562
-0.05364494117
-0.05334547073
-0.05149495102
-0.05154096205
-0.04994312863
-0.05006607486
-0.04875031969
-0.04867503956
-0.04776048583
-0.04730044423
-0.0468696545
-0.04605619908
-0.04600257983
-0.04508907316
-0.04505588931
-0.04431894613
-0.04385899984
-0.06093135728
-0.05629495957
-0.05366861203
-0.05049404237
-0.04900541246
-0.04668472522
-0.0459438139
-0.04412568318
-0.04387975813
-0.04235733224
-0.04239574467
-0.04108083321
-0.04118279715
-0.04009968194
-0.04003889507
-0.03928556521
-0.03890838923
-0.03855254819
-0.03788455323
-0.0378390584
-0.03708903893
-0.03706009121
-0.03645513771
-0.03607651918
-0.04759103917
-0.04396998377
-0.04191841344
-0.03943980022
-0.03827687229
-0.03646476713
-0.03588618438
-0.03446627287
-0.03427439484
-0.0330851286
-0.03311546792
-0.03208799045
-0.03216811231
-0.03132150624
-0.03127468375
-0.03068556497
-0.03039169019
-0.03011269444
-0.0295915324
-0.02955498979
-0.02897008692
-0.02894578124
-0.02847420911
-0.02817823398
-0.03410253032
-0.03150805188
-0.03003769189
-0.02826267521
-0.02742919961
-0.02613121442
-0.02571695767
-0.02469952548
-0.02456253188
-0.02370987676
-0.02373238806
-0.02299522092
-0.02305379328
-0.02244593928
-0.02241396665
-0.02199034973
-0.02178151073
-0.02157953007
-0.02120766724
-0.02117956256
-0.0207623897
-0.02074249633
-0.02040624816
-0.02019371216
-0.02050519539
-0.01894561991
-0.01806114466
-0.01699548032
-0.01649403028
-0.01571443249
-0.01546568424
-0.0148541622
-0.01477230227
-0.01425922643
-0.01427352285
-0.0138292875
-0.01386558484
-0.0134987252
-0.01348095464
-0.01322462775
-0.01310061844
-0.01297688089
-0.01275456555
-0.01273552869
-0.01248657337
-0.01247143285
-0.01227114138
-0.01214285084
-0.006844811694
-0.0063248833
-0.006029011622
-0.005675870523
-0.00550804145
-0.005249077556
-0.005166701586
-0.004962761566
-0.004936445435
-0.004764272836
-0.004770612269
-0.00462041645
-0.004634854587
-0.004509837278
-0.004507067693
-0.004418427311
-0.004380531723
-0.004334899825
-0.004263804796
-0.004253392572
-0.004174260241
-0.004163611076
-0.004100255982
-0.0040564585
0.006838579051
0.006317057078
0.006023304854
0.005662615636
0.005496274415
0.005233564105
0.00514934475
0.004944797133
0.004915605392
0.004746060742
0.004747983536
0.004603429791
0.004611408266
0.004493959704
0.004482443637
0.004402806864
0.004355374766
0.004322344113
0.004243004272
0.004244338931
0.004154224126
0.004160051921
0.004086571358
0.004045577268
0.02049901982
0.01893786012
0.0180555175
0.01698234119
0.01648240587
0.01569909015
0.01544853657
0.01483641842
0.01475171293
0.01424125411
0.01425116299
0.01381254366
0.01384242169
0.01348308954
0.01345661438
0.01320921524
0.0130756902
0.01296443967
0.01273389449
0.01272651642
0.01246664543
0.01246794893
0.01225763021
0.01213214835
0.03409643287
0.0315003687
0.03003207828
0.02824956978
0.02741752703
0.02611581488
0.02569968645
0.02468164991
0.02454177342
0.02369176116
0.02370987758
0.02297838899
0.02303053466
0.0224303006
0.02238962242
0.02197506749
0.02175676457
0.02156741805
0.02118740894
0.02117105947
0.02074303068
0.0207395084
0.02039322186
0.02018346626
0.04758510204
0.04396248851
0.04191302475
0.03942702522
0.03826560658
0.03644985728
0.03586951633
0.0344490366
0.03425437053
0.03306771612
0.03309374998
0.03207186705
0.03214567863
0.03130655659
0.0312511478
0.03067085222
0.03036756887
0.03010084793
0.0295715663
0.02954647828
0.02895088618
0.02894279804
0.02846144313
0.02816825137
0.0609255924
0.05628763132
0.05366326559
0.05048135276
0.04899407189
0.04666972821
0.0459269246
0.04410820644
0.04385940593
0.04233963041
0.04237371214
0.04106451396
0.04116016035
0.04008472067
0.04001536548
0.0392711328
0.03888466989
0.03854140323
0.03786548135
0.03783165622
0.03707110139
0.03705827022
0.03644354747
0.03606765999
0.07407280788
0.06843430149
0.06524348796
0.06137592596
0.05956762429
0.05674227014
0.05583943514
0.05362845657
0.05332627952
0.05147836476
0.05152019827
0.04992792516
0.05004472935
0.04873639458
0.04865271704
0.04774684458
0.04727758
0.04685875127
0.04603735744
0.04599485557
0.04507099771
0.04505357178
0.0443071861
0.04384995107
0.08698867224
0.08036713668
0.07661969772
0.07207839297
0.06995457728
0.06663683018
0.06557669324
0.06298016534
0.06262557207
0.06045515201
0.06050477108
0.05863433964
0.05877227386
0.05723516652
0.05713797861
0.05607343652
0.05552362843
0.0550307569
0.05406736745
0.05401647894
0.05293290603
0.0529109063
0.05203542795
0.05149811853
0.09962903753
0.09204554817
0.08775350881
0.0825530188
0.08012056953
0.07632113619
0.07510715829
0.07213348437
0.07172759943
0.06924166909
0.06929877685
0.06715614798
0.06731446151
0.0655533822
0.06544245476
0.06422242259
0.06359302726
0.06302739055
0.06192414403
0.06186478801
0.06062419059
0.06059764299
0.05959552665
0.05897998217
0.1119579111
0.1034360696
0.09861268264
0.0927690928
0.09003544905
0.08576601702
0.08440187788
0.08106018949
0.08060426417
0.07781049196
0.07787502486
0.07546688068
0.07564536028
0.07366591347
0.07354209161
0.07217062538
0.07146433987
0.07082806039
0.06958924293
0.06952193092
0.06812886407
0.06809796839
0.06697265118
0.06628066418
0.1239324001
0.114499297
0.1091600041
0.1026919832
0.09966597095
0.09494023482
0.09343037792
0.08973140261
0.08922691509
0.08613423146
0.08620589409
0.08353985586
0.08373767854
0.08154601069
0.08140920919
0.0798903896
0.07910874282
0.07840346736
0.0770321771
0.07695678307
0.07541495134
0.0753796651
0.0741343395
0.07336822245
0.1355193023
0.1252043182
0.1193656379
0.1122932458
0.1089841481
0.1038167162
0.1021657269
0.09812089512
0.0975693697
0.09418737052
0.09426600366
0.0913504201
0.0915671953
0.08917029118
0.08902138098
0.08736023279
0.08650632686
0.08573464772
0.08423593082
0.08415305976
0.08246793731
0.08242855128
0.08106747188
0.08022950707
0.1466772596
0.1355131723
0.1291937683
0.1215395542
0.1179580276
0.1123654148
0.1105786619
0.1062008992
0.1056041502
0.1019436017
0.102028915
0.09887299022
0.09910783388
0.09651314294
0.09635219348
0.09455371087
0.09362964687
0.09279365413
0.09117155144
0.09108113781
0.08925742244
0.08921390048
0.08774099387
0.08683394293
0.1573765344
0.1453981221
0.1386175705
0.1304053118
0.1265623694
0.1205619154
0.1186448329
0.113947716
0.1133075206
0.1093798143
0.1094715532
0.1060851819
0.1063375239
0.1035532928
0.1033811716
0.1014512278
0.1004604507
0.09956308592
0.09782332267
0.09772595374
0.09576995319
0.09572258935
0.09414284143
0.09316944029
0.1675775849
0.1548229085
0.14760286
0.1388587082
0.1347667011
0.12837754
0.1263363536
0.1213348529
0.1206533392
0.1164709531
0.1165688386
0.1129627077
0.113231624
0.110266538
0.1100834888
0.1080279707
0.1069731498
0.1060169789
0.1041645029
0.1040602424
0.1019776061
0.1019264286
0.1002444828
0.09920790961
0.1772547281
0.1637635193
0.1561263622
0.146877507
0.1425490419
0.1357910198
0.1336319455
0.1283416052
0.127620782
0.1231967516
0.1233004346
0.1194858491
0.1197705841
0.1166340299
0.1164408788
0.1142664069
0.1131512554
0.1121394944
0.1101806106
0.1100699737
0.1078677292
0.107812985
0.1060344494
0.1049378554
0.1863705351
0.1721856696
0.1641557708
0.1544316434
0.1498806095
0.1427752455
0.1405052856
0.13494294
0.13418522
0.1295335858
0.1296428027
0.1256318073
0.1259314173
0.1226332185
0.1224303956
0.1201436894
0.1189714227
0.1179070981
0.1158476033
0.1157308074
0.1134154999
0.1133573134
0.1114875229
0.1103344641
0.194903887
0.1800695389
0.171671815
0.1615026697
0.1567431099
0.1493125015
0.1469385796
0.1411215392
0.1403291436
0.135464416
0.1355787307
0.131383893
0.1316974406
0.1282480006
0.128036266
0.1256446077
0.124419143
0.1233057058
0.1211523843
0.1210298622
0.1186091098
0.1185476622
0.1165927257
0.115386727
0.2028197816
0.1873831086
0.178644337
0.1680625201
0.1631096852
0.1553774706
0.1529072735
0.1468540287
0.1460296176
0.1409672261
0.1410863877
0.1367209615
0.1370474925
0.1334576512
0.1332376151
0.1307484693
0.1294735247
0.1283144171
0.1260738425
0.1259459609
0.1234271459
0.1233626665
0.1213285803
0.1200735322
0.210102047
0.1941111087
0.1850584215
0.1740968667
0.1689660621
0.1609563081
0.158397386
0.1521267932
0.1512727821
0.1460285281
0.1461520299
0.1416296861
0.1419681019
0.1382491484
0.1380215014
0.1354427255
0.1341223762
0.1329212529
0.1306005937
0.1304677094
0.127858909
0.1277915128
0.1256847684
0.1243845239
0.2167184605
0.2002241066
0.1908863559
0.1795799213
0.1742875655
0.1660257352
0.1633863566
0.1569183315
0.1560375844
0.1506280925
0.1507556863
0.146090721
0.1464400549
0.1426037083
0.142369219
0.1397089241
0.1383473334
0.1371079969
0.1347145249
0.1345771332
0.1318865003
0.1318165075
0.1296437154
0.1283024505
0.2226580684
0.2057116341
0.1961178242
0.1845017058
0.1790641757
0.1705760001
0.1678642534
0.1612189601
0.1603140685
0.1547562313
0.1548873631
0.1500943765
0.1504534021
0.1465116924
0.1462709937
0.1435375142
0.1421388797
0.1408651526
0.1384063312
0.1382647279
0.1355006805
0.1354281573
0.1331960954
0.1318179439
0.2278917914
0.2105471821
0.200727878
0.1888390096
0.1832736842
0.1745861328
0.1718107591
0.1650092881
0.1640832733
0.158394702
0.1585291139
0.153623266
0.1539909979
0.1499563792
0.1497103699
0.1469123616
0.1454812282
0.1441772146
0.1416609248
0.1415157021
0.1386870732
0.1386123983
0.1363282113
0.1349175804
0.2324140367
0.2147252193
0.2047109326
0.192586328
0.18691045
0.1780505926
0.1752201207
0.1682836896
0.1673392955
0.1615377604
0.1616748725
0.1566715064
0.1570466256
0.1529317124
0.1526809825
0.1498271501
0.148367805
0.1470374593
0.1444713792
0.144322799
0.1414382534
0.1413614798
0.1390321657
0.1375934223
0.236199263
0.2182225167
0.2080451417
0.1957233475
0.1899550381
0.1809510137
0.1780745453
0.1710251559
0.1700655172
0.164169396
0.1643089335
0.159223886
0.1596053859
0.1554232154
0.1551687673
0.1522682035
0.1507855042
0.149433167
0.1468256795
0.1466743918
0.1437433176
0.1436648424
0.1412979677
0.1398356937
0.2392472564
0.2210385034
0.210729673
0.1982490538
0.1924062027
0.1832860766
0.1803724734
0.1732321269
0.172260108
0.1662878227
0.1664291941
0.1612783547
0.1616648527
0.1574284633
0.1571708541
0.1542325297
0.152730821
0.1513605508
0.148719479
0.1485657498
0.1455969875
0.1455168933
0.1431196275
0.1416383735
0.2415364027
0.2231535889
0.2127461292
0.2001463614
0.1942476081
0.1850403382
0.1820989504
0.1748902875
0.1739090976
0.1678795655
0.16802248
0.1628221671
0.1632126416
0.1589354908
0.1586758021
0.1557091256
0.1541934988
0.1528097982
0.1501438952
0.1499883916
0.1469917282
0.146910396
0.1444905964
0.1429950618
0.243071784
0.2245720841
0.2140983476
0.2014186624
0.1954823125
0.1862166032
0.1832565078
0.1760020321
0.1750146146
0.1689466735
0.1690905326
0.1638569808
0.164250006
0.1599453972
0.159684159
0.1566982711
0.155173099
0.1537801101
0.1510972856
0.1509403142
0.1479247049
0.1478422786
0.1454072379
0.1439021015
0.2438360972
0.2252783896
0.2147717243
0.2020524309
0.1960974143
0.186802683
0.1838333692
0.1765560818
0.1755656878
0.1694785623
0.1696230684
0.164372874
0.1647674252
0.1604490605
0.160187408
0.1571918967
0.1556624129
0.1542647166
0.1515739389
0.1514161481
0.1483916031
0.148308426
0.145866156
0.1443561788
0.2438395206
0.2252815207
0.2147745884
0.202055289
0.1961000893
0.1868053132
0.1838359481
0.1765585654
0.1755681682
0.1694808705
0.1696254152
0.1643749555
0.1647695784
0.1604508718
0.1601893115
0.1571933982
0.1556639776
0.1542657794
0.1515749921
0.1514167508
0.1483922788
0.1483085644
0.1458664205
0.1443563457
0.2430694252
0.224570199
0.2140964549
0.2014175872
0.1954811954
0.1862158875
0.1832559919
0.1760015932
0.175014458
0.1689462831
0.1690905759
0.1638565139
0.1642501953
0.1599449059
0.1596845973
0.1566979016
0.1551738169
0.1537796883
0.1510979056
0.1509398158
0.1479254653
0.1478415118
0.145407526
0.1439021198
0.241540809
0.2231578903
0.2127498898
0.2001509269
0.1942517619
0.1850448017
0.182103504
0.1748947262
0.1739138034
0.1678836944
0.1680271117
0.1628257659
0.1632170366
0.1589385379
0.1586799689
0.1557117046
0.1541973094
0.1528114914
0.1501466381
0.1499891348
0.1469939007
0.1469099783
0.1444914967
0.1429954973
0.2392460307
0.2210379247
0.210728814
0.1982498155
0.192406701
0.1832873324
0.1803740783
0.1732337954
0.172262337
0.1662894203
0.166431693
0.1612795772
0.1616674481
0.157429363
0.1571736844
0.1542333512
0.1527338496
0.1513608198
0.1487217828
0.1485654034
0.1455991876
0.1455155508
0.1431204931
0.141638616
0.2362045626
0.2182279029
0.2080497169
0.1957295281
0.1899605769
0.1809572125
0.178080964
0.1710314423
0.170072325
0.1641752338
0.1643157199
0.1592288949
0.1596118991
0.1554274105
0.1551750992
0.1522718122
0.1507915123
0.1494355112
0.1468301399
0.1466753772
0.1437470889
0.1436640427
0.1412996721
0.1398365798
0.2324139943
0.2147259873
0.2047111521
0.1925889536
0.1869125945
0.1780538464
0.1752238671
0.1682874929
0.1673439261
0.1615413784
0.1616798405
0.1566744552
0.1570516363
0.1529340405
0.1526862039
0.1498291986
0.1483731322
0.1470384679
0.1444753588
0.144322675
0.1414418921
0.1413596526
0.1390336456
0.1375939488
0.2278978924
0.2105535622
0.2007331842
0.1888467024
0.1832805063
0.1745939586
0.1718189216
0.165017306
0.1640920476
0.1584021316
0.1585379136
0.153629576
0.1539994931
0.1499616316
0.149718748
0.1469169435
0.1454893498
0.144180219
0.1416670858
0.1415170223
0.1386924969
0.1386113887
0.1363308599
0.1349190792
0.2226592367
0.2057137651
0.1961191458
0.184506191
0.1790679669
0.1705812433
0.1678701215
0.1612248841
0.1603210668
0.1547618551
0.1548947551
0.150099038
0.1504607715
0.1465154325
0.146278533
0.1435407692
0.142146416
0.1408668943
0.1384119005
0.1382648378
0.1355056651
0.1354258671
0.1331981252
0.1318187148
0.2167252729
0.2002313886
0.1908923128
0.1795890171
0.1742955683
0.1660350746
0.1633961386
0.1569279621
0.1560481886
0.1506369989
0.1507663592
0.1460982278
0.1464503946
0.1426099274
0.1423795083
0.1397144072
0.1383574411
0.1371116348
0.1347222961
0.1345788203
0.1318935255
0.1318153811
0.1296473371
0.1283046166
0.2101044267
0.1941145914
0.1850608444
0.1741031733
0.1689714685
0.1609634942
0.1584053153
0.1521347801
0.1512820658
0.1460360946
0.1461617447
0.1416359935
0.1419777087
0.1382542253
0.13803121
0.1354470994
0.134131946
0.1329236451
0.1306075734
0.1304679767
0.1278650389
0.1277886836
0.1256871665
0.1243853828
0.2028272208
0.1873912025
0.178650871
0.1680729065
0.163118769
0.1553882089
0.1529185535
0.1468651547
0.1460419212
0.1409775014
0.1410988032
0.1367295726
0.1370595478
0.1334647562
0.1332496788
0.1307547795
0.1294854683
0.1283186414
0.1260830862
0.125948001
0.123435641
0.1233614469
0.121333108
0.1200763259
0.1949074496
0.180074332
0.1716753121
0.1615107234
0.1567500674
0.1493215455
0.1469484708
0.1411314884
0.1403405861
0.1354738175
0.1355906193
0.1313917352
0.1317091122
0.1282542943
0.1280479381
0.1256499633
0.1244305062
0.1233086122
0.121160532
0.1210301545
0.1186161259
0.1185441736
0.1165952673
0.1153874761
0.1863785232
0.1721944888
0.1641628164
0.1544432063
0.1498906795
0.1427872671
0.140517946
0.1349554456
0.1341990991
0.1295451291
0.1296568399
0.1256414437
0.1259450693
0.1226411453
0.1224441008
0.1201507658
0.1189850465
0.1179118677
0.1158581675
0.1157331754
0.1134252959
0.1133559926
0.1114928338
0.1103377913
0.177259414
0.16376955
0.1561308782
0.1468871969
0.1425574532
0.135801798
0.1336436613
0.1283533763
0.127634218
0.1232078437
0.1233143102
0.1194950852
0.1197841135
0.1166413994
0.1164542753
0.1142725908
0.1131641375
0.112142765
0.1101896555
0.1100701492
0.1078753569
0.1078087252
0.1060369218
0.1049383119
0.1675860514
0.1548323703
0.1476103591
0.1388713312
0.1347776658
0.1283907268
0.1263502777
0.1213486203
0.1206686702
0.1164836662
0.1165843772
0.1129732995
0.1132467517
0.1102752359
0.1100986936
0.1080357632
0.1069882798
0.1060222549
0.1041762091
0.1040628955
0.1019884831
0.1019249525
0.1002503761
0.09921159817
0.1573822524
0.1454052854
0.1386230215
0.13041649
0.1265721039
0.1205742664
0.1186582001
0.1139611323
0.1133227487
0.1093924232
0.1094871982
0.106095656
0.1063526826
0.1035616004
0.1033960432
0.1014581072
0.1004745759
0.0995666038
0.09783300189
0.09772590802
0.09577793288
0.0957174909
0.09414506473
0.0931694564
0.1466861395
0.1355231963
0.1292016682
0.1215531175
0.1179697953
0.1123796432
0.1105937277
0.1062158034
0.1056208
0.1019573807
0.102045821
0.09888446636
0.09912429723
0.09652256236
0.09636872793
0.09456216538
0.09364606881
0.0927993795
0.09118417055
0.09108399145
0.08926908802
0.08921214413
0.08774716971
0.08683772267
0.1355259312
0.1252124787
0.1193719116
0.112305729
0.1089950424
0.1038304429
0.1021805364
0.09813574607
0.09758615423
0.09420129753
0.09428317235
0.0913619682
0.09158374064
0.08917941624
0.08903748691
0.08736772237
0.08652145845
0.08573837594
0.08424605675
0.08415279416
0.08247611026
0.0824226704
0.08106938731
0.0802290592
0.1239416318
0.1145098028
0.1091682542
0.1027063611
0.09967844554
0.09495537245
0.09344645108
0.08974730562
0.08924473088
0.08614895815
0.08622400776
0.08355213276
0.08375530927
0.08155609178
0.0814268741
0.07989943839
0.07912621577
0.07840956563
0.07704546549
0.07695973174
0.07542711262
0.07537749762
0.07414050772
0.07337183674
0.1119653032
0.103445065
0.09861964129
0.09278266582
0.09004730882
0.08578088916
0.08441788681
0.08107623348
0.08062233687
0.07782551461
0.07789344444
0.07547932752
0.07566303574
0.07367574334
0.07355920485
0.07217867786
0.07148030371
0.07083204603
0.06959975963
0.06952158627
0.06813726803
0.06809156062
0.06697444126
0.06627997272
0.09963855861
0.09205645263
0.08776205601
0.08256807755
0.08013364626
0.07633703963
0.07512408844
0.07215023224
0.07174640394
0.06925720465
0.06931790883
0.06716912056
0.06733306451
0.06556404538
0.0654610374
0.06423198061
0.06361132162
0.0630337773
0.06193791191
0.06186775117
0.06063666723
0.06059503201
0.0596015665
0.05898334502
0.08699665993
0.08037678432
0.07662718331
0.07209281542
0.06996718228
0.0666525899
0.06559362946
0.06299713308
0.06264463635
0.06047102325
0.06052414377
0.05864748783
0.05879080357
0.05724556655
0.05715586591
0.05608198601
0.05554027307
0.05503504573
0.05407828922
0.05401622937
0.05294169279
0.05290431169
0.05203741541
0.05149753814
0.07408255162
0.06844551523
0.06525227307
0.06139152222
0.05958118704
0.05675878478
0.05585705512
0.0536458801
0.05334587306
0.05149454978
0.05154013394
0.04994146348
0.05006409069
0.04874753458
0.04867200315
0.04775680277
0.04729648939
0.04686532782
0.046051471
0.04599776942
0.04508370842
0.04505057188
0.04431312727
0.04385311985
0.06093399649
0.05629773663
0.05367110813
0.05049636858
0.04900718398
0.0466860986
0.04594449397
0.04412580723
0.0438791443
0.04235608104
0.04239372192
0.0410781382
0.04117924822
0.04009551049
0.04003376299
0.03928003831
0.03890179422
0.0385459325
0.03787674219
0.0378315304
0.03708028821
0.03705164699
0.03644586211
0.03606733766
0.04759499316
0.04397391282
0.04192197854
0.03944300451
0.03827952603
0.03646681865
0.03588764474
0.03446695664
0.0342745391
0.03308437787
0.03311426112
0.03208582286
0.03216557623
0.03131804725
0.03127092422
0.03068107991
0.03038688943
0.03010749325
0.02958588005
0.02954925184
0.02896371335
0.02893943815
0.02846727881
0.02817124004
0.03410507207
0.03151073473
0.03004010546
0.0282649189
0.02743090097
0.0261325119
0.02571758269
0.02469958135
0.02456185643
0.02370850776
0.0237302005
0.02299224494
0.02304987581
0.02244126593
0.02240824198
0.02198412705
0.02177410711
0.02157202686
0.02119881709
0.02117092774
0.02075240384
0.02073276428
0.0203956574
0.02018320567
0.02050897161
0.01894938482
0.0180645581
0.01699853721
0.01649653848
0.01571632565
0.01546698099
0.01485465289
0.01477223827
0.01425821883
0.01427202186
0.01382676528
0.01386263613
0.01349480024
0.01347666967
0.01321958103
0.01309520518
0.01297103292
0.01274821307
0.01272903682
0.01247936537
0.01246418847
0.01226322061
0.01213484287
0.006847277836
0.006327492697
0.006031351083
0.005678045593
0.005509669705
0.005250310459
0.005167260774
0.004962757868
0.004935700013
0.00476281705
0.004768296158
0.004617271797
0.004630704389
0.004504889322
0.004501004471
0.004411828184
0.004372676995
0.004326893893
0.004254358212
0.004244092959
0.004163523645
0.004153073666
0.004088824207
0.004045092391
-0.006834898385
-0.006313380137
-0.006019979517
-0.005659635936
-0.005493853944
-0.005231748265
-0.005148143471
-0.00494439331
-0.004915779685
-0.004747169429
-0.004749623214
-0.004606070878
-0.004614534517
-0.004498028789
-0.004486944984
-0.004408039055
-0.004361049941
-0.004328451096
-0.0042497002
-0.004251212549
-0.004161909645
-0.004167818118
-0.004095094392
-0.004054204793
-0.02049660193
-0.01893529496
-0.0180532325
-0.0169802062
-0.01648083904
-0.01569789419
-0.01544804363
-0.01483645771
-0.01475252368
-0.01424273714
-0.01425353806
-0.013815692
-0.0138466169
-0.01348801306
-0.01346270407
-0.01321578115
-0.01308356228
-0.01297243205
-0.01274337233
-0.01273585092
-0.0124774602
-0.01247857622
-0.01226919626
-0.01214365696
-0.03409276524
-0.03149670173
-0.03002877532
-0.02824659071
-0.02741512954
-0.02611398089
-0.02569849987
-0.02468120427
-0.02454194148
-0.02369278696
-0.02371147404
-0.02298087858
-0.0230335698
-0.02243414645
-0.02239399058
-0.02198004262
-0.02176228974
-0.0215732857
-0.02119396917
-0.02117774902
-0.02075060014
-0.02074711957
-0.02040160519
-0.02019194606
-0.0475827038
-0.04395993733
-0.0419107748
-0.03942490032
-0.0382640898
-0.03644866618
-0.03586908981
-0.03444907914
-0.03425524078
-0.03306915875
-0.03309611232
-0.03207484999
-0.03214973014
-0.03131115482
-0.031256952
-0.03067697152
-0.03037502201
-0.03010830828
-0.02958050323
-0.02955522299
-0.02896109171
-0.02895281147
-0.02847242359
-0.02817917527
-0.0609218564
-0.05628389878
-0.05365992548
-0.05047830369
-0.04899164324
-0.04666778833
-0.04592568497
-0.04410759806
-0.04385946681
-0.04234040326