/*--------------------------------*- C++ -*----------------------------------*\
| =========                 |                                                 |
| \\      /  F ield         | foam-extend: Open Source CFD                    |
|  \\    /   O peration     | Version:  3.0                                   |
|   \\  /    A nd           | Web:         http://www.extend-project.de       |
|    \\/     M anipulation  |                                                 |
\*---------------------------------------------------------------------------*/
FoamFile
{
    version     2.0;
    format      ascii;
    class       volScalarField;
    location    "45";
    object      p;
}
// * * * * * * * * * * * * * * * * * * * * * * * * * * * * * * * * * * * * * //

dimensions      [0 0 0 0 0 0 0];

internalField   nonuniform List<scalar> 
2688
(
-0.2393586508
-0.2199973485
-0.2085422837
-0.1953741523
-0.1882881041
-0.1790314854
-0.1747423753
-0.1681269722
-0.1657002295
-0.1609391822
-0.1597649264
-0.1563241105
-0.1559657175
-0.1534493484
-0.1535608232
-0.1516486487
-0.1519237156
-0.1503334028
-0.1504705372
-0.1489317728
-0.1486085281
-0.1468397945
-0.1456931141
-0.1433756947
-0.2386335923
-0.2193378268
-0.2079220835
-0.1948002299
-0.1877394151
-0.1785174703
-0.1742445274
-0.1676567635
-0.1652403552
-0.1605028157
-0.1593355092
-0.1559159206
-0.1555630672
-0.1530668247
-0.1531841403
-0.1512915976
-0.1515741029
-0.1500028436
-0.1501495652
-0.1486282771
-0.1483162466
-0.1465615062
-0.1454260051
-0.1431163491
-0.2372365945
-0.2180563182
-0.2067098375
-0.193666181
-0.1866490717
-0.1774811083
-0.1732356038
-0.1666847636
-0.1642848267
-0.1595715029
-0.1584129089
-0.1550077431
-0.1546579028
-0.1521686808
-0.1522848757
-0.1503943025
-0.1506731601
-0.1491015197
-0.1492441877
-0.1477237622
-0.1474104567
-0.1456628741
-0.1445335464
-0.1422434605
-0.2350062861
-0.2160130989
-0.2047778471
-0.1918627259
-0.1849147242
-0.1758388375
-0.1716353771
-0.165152526
-0.1627766512
-0.1581150149
-0.1569686537
-0.1536040713
-0.1532591392
-0.150803043
-0.1509204428
-0.1490581869
-0.1493376129
-0.1477913801
-0.1479366694
-0.1464400209
-0.1461339789
-0.1444096364
-0.1432953289
-0.1410293874
-0.2321311548
-0.2133727072
-0.2022773563
-0.1895219545
-0.1826617812
-0.1736977068
-0.1695486832
-0.1631446924
-0.1608008456
-0.156194368
-0.1550646576
-0.1517378502
-0.1513990454
-0.1489682472
-0.1490850724
-0.1472399332
-0.1475156593
-0.1459825048
-0.1461247711
-0.1446416038
-0.1443375616
-0.1426325699
-0.1415309134
-0.1392992642
-0.2284227732
-0.2099710747
-0.199057261
-0.18651109
-0.179762869
-0.1709468269
-0.166865019
-0.1605680842
-0.1582615265
-0.1537337
-0.1526211112
-0.1493529838
-0.1490181542
-0.1466321419
-0.1467453854
-0.1449358688
-0.1452053818
-0.1437026608
-0.1438409206
-0.1423866127
-0.142086233
-0.1404125025
-0.1393296362
-0.1371370089
-0.2241058694
-0.206005275
-0.1953005535
-0.182993824
-0.1763766558
-0.1677291687
-0.1637283919
-0.1575517421
-0.1552927492
-0.1508509912
-0.1497632084
-0.1465565732
-0.1462313391
-0.1438896337
-0.1440032899
-0.1422271283
-0.1424934396
-0.1410186769
-0.1411557482
-0.1397289787
-0.1394350327
-0.1377927942
-0.1367292067
-0.1345797144
-0.2189661598
-0.2012880848
-0.1908328658
-0.1788133721
-0.1723495497
-0.1639040681
-0.159994828
-0.1539627815
-0.1517539056
-0.1474165641
-0.1463508188
-0.1432199941
-0.1428982947
-0.1406122618
-0.1407186143
-0.1389848458
-0.1392399616
-0.1378005631
-0.1379296582
-0.1365374515
-0.1362464803
-0.1346442741
-0.1336023961
-0.1315060045
-0.2132617922
-0.1960468112
-0.1858673801
-0.1741641801
-0.1678731405
-0.15965104
-0.1558486083
-0.1499770291
-0.1478308922
-0.1436097583
-0.1425768633
-0.1395307638
-0.1392220608
-0.1369989618
-0.1371064996
-0.1354218938
-0.1356739046
-0.1342769868
-0.1344067774
-0.1330569712
-0.1327801121
-0.1312261079
-0.1302220514
-0.1281759641
-0.2067560342
-0.1900739526
-0.1802088213
-0.1688672065
-0.1627690342
-0.1548003711
-0.151112799
-0.1454215952
-0.1433380826
-0.1392459325
-0.1382402828
-0.135286381
-0.1349816691
-0.132824746
-0.1329227647
-0.1312872059
-0.1315250977
-0.13016851
-0.1302888807
-0.1289796499
-0.1287086912
-0.1272053454
-0.1262338144
-0.1242559511
-0.19973546
-0.1836227297
-0.1740966989
-0.16314433
-0.1572585916
-0.1495653976
-0.1460091831
-0.140516659
-0.1385103987
-0.1345631154
-0.1335980353
-0.1307508397
-0.1304622841
-0.1283855565
-0.1284850076
-0.1269124517
-0.1271458331
-0.1258429766
-0.1259619189
-0.1247043184
-0.1244450819
-0.1229981602
-0.1220623363
-0.1201523259
-0.1919466422
-0.1764703545
-0.1673194712
-0.1567984855
-0.1511428404
-0.1437514413
-0.1403322255
-0.1350538124
-0.1331223329
-0.1293273599
-0.1283950801
-0.1256558833
-0.1253727504
-0.1233726669
-0.1234618583
-0.1219452789
-0.1221631577
-0.1209055037
-0.1210140389
-0.1198012227
-0.1195480483
-0.1181579699
-0.1172589954
-0.1154357848
-0.1836971549
-0.168889437
-0.1601367511
-0.1500730837
-0.1446668699
-0.1375994965
-0.1343345545
-0.129290376
-0.1274497326
-0.1238261845
-0.1229417588
-0.1203294339
-0.12006551
-0.1181610728
-0.11825197
-0.1168101611
-0.1170220122
-0.1158268186
-0.1159312574
-0.11477653
-0.1145320754
-0.1132053087
-0.1123426769
-0.1106058444
-0.1747248271
-0.16064892
-0.1523275359
-0.1427596613
-0.1376180494
-0.1308972383
-0.1277900224
-0.1229913696
-0.1212371873
-0.1177879331
-0.1169421195
-0.1144530915
-0.1141968984
-0.1123798575
-0.1124611623
-0.1110832676
-0.1112800835
-0.1101365649
-0.1102318438
-0.1091280145
-0.1088923106
-0.1076298307
-0.1068098247
-0.1051738904
-0.165348724
-0.1520323363
-0.1441632461
-0.1351149651
-0.1302565802
-0.1239040814
-0.1209720251
-0.1164398748
-0.1147889045
-0.1115349857
-0.1107437426
-0.1083995163
-0.1081656066
-0.106457758
-0.1065417466
-0.1052489556
-0.1054399069
-0.1043669697
-0.1044586698
-0.1034198545
-0.1031949347
-0.1020026337
-0.1012238096
-0.09968131024
-0.1553076057
-0.1428090035
-0.1354219849
-0.1269277391
-0.1223653343
-0.1164000766
-0.1136448067
-0.1093869677
-0.1078334752
-0.1047743137
-0.1040275472
-0.1018213154
-0.1015980183
-0.09998854877
-0.1000646179
-0.09884475638
-0.09902268604
-0.09800992408
-0.09809616962
-0.0971170831
-0.09690715946
-0.09578748734
-0.09505887661
-0.09361929894
-0.1449210238
-0.133263486
-0.1263771347
-0.1184581248
-0.1142090326
-0.1086514403
-0.1060898002
-0.1021268826
-0.1006874515
-0.09784439295
-0.09715806917
-0.09511192968
-0.09491378193
-0.09342491934
-0.09350520091
-0.09237937895
-0.09255323803
-0.0916188769
-0.09170520521
-0.09079885291
-0.09060633657
-0.08956349581
-0.08888365157
-0.08753457695
-0.1339393991
-0.1231751405
-0.1168156122
-0.109502
-0.1055767409
-0.1004425006
-0.09807477661
-0.09441199625
-0.09308017895
-0.09045055796
-0.08981435092
-0.08791998839
-0.08773544209
-0.08635564647
-0.08642987188
-0.08538615557
-0.0855491656
-0.0846840229
-0.08476879617
-0.08393174706
-0.08376079216
-0.08279882383
-0.08217629971
-0.08092744925
-0.1226710255
-0.1128189407
-0.1070020848
-0.1003119801
-0.09672596045
-0.09203323976
-0.08987485029
-0.08653109615
-0.08532233605
-0.08292603168
-0.08235490568
-0.08063288983
-0.08047555787
-0.07922516774
-0.07930464211
-0.0783617085
-0.07852219078
-0.0777415813
-0.07783007934
-0.07707244578
-0.07692577168
-0.07604709931
-0.07548161681
-0.07432161263
-0.1108889427
-0.1019942109
-0.09674234674
-0.09070148322
-0.08746325511
-0.08322497817
-0.08127544645
-0.07825435842
-0.07716224983
-0.07499597385
-0.07448012094
-0.0729223511
-0.07278130274
-0.07164970005
-0.07172440007
-0.07087168229
-0.07102214056
-0.07031825768
-0.07040656063
-0.06972594483
-0.06960379294
-0.06881393079
-0.06831062524
-0.06725599894
-0.09887858808
-0.09095579529
-0.08628168858
-0.08090461122
-0.07802702521
-0.07425818058
-0.07253065193
-0.06984805706
-0.06888589982
-0.06696635395
-0.06651866567
-0.0651422263
-0.06502909882
-0.06403270864
-0.06411213154
-0.06336395865
-0.06351118628
-0.06289476616
-0.06298709874
-0.0623894661
-0.06229443079
-0.06159384762
-0.06115475585
-0.0601983248
-0.08644591983
-0.07953235119
-0.07545433195
-0.07076226261
-0.06825219586
-0.06496344956
-0.06345728884
-0.06111626036
-0.06027850402
-0.05860319519
-0.05821529574
-0.05701395601
-0.05691935403
-0.05605012095
-0.05612530516
-0.05547378075
-0.05561008556
-0.05507530089
-0.05516527351
-0.05464895451
-0.05457574674
-0.05397081435
-0.05359448702
-0.05276266042
-0.07384295546
-0.06794897183
-0.06447643019
-0.06047993965
-0.05834712829
-0.05554948255
-0.05427480224
-0.05228694372
-0.05158384132
-0.05016485868
-0.04984658665
-0.04883239013
-0.04876497381
-0.04803395025
-0.04811161777
-0.04756561084
-0.04769542242
-0.04724785613
-0.04733817757
-0.04690485997
-0.04685650653
-0.04634527207
-0.0460385388
-0.04532355998
-0.06091735089
-0.05607164447
-0.05321880541
-0.04993454336
-0.04818444877
-0.0458867387
-0.04484327577
-0.043211935
-0.04263952769
-0.04147634786
-0.04122167839
-0.04039166591
-0.04034473406
-0.03974794702
-0.03982175288
-0.03937758259
-0.03949515787
-0.03913238609
-0.03921677367
-0.03886616977
-0.03883310439
-0.03842062564
-0.03817020542
-0.03760500503
-0.0478790048
-0.04408778136
-0.04186044265
-0.03929470522
-0.03793353159
-0.03614217915
-0.03533645036
-0.03406817143
-0.03363300917
-0.03273211945
-0.03254713876
-0.03190732097
-0.03188586003
-0.03142822139
-0.03150148369
-0.03116232462
-0.03126929883
-0.03099240234
-0.03107216573
-0.03080343685
-0.03079082983
-0.03047483553
-0.03029783303
-0.02986539503
-0.03462378762
-0.03190662989
-0.03031480812
-0.02847959783
-0.02751155103
-0.02623381597
-0.02566627583
-0.02476520201
-0.02446540155
-0.02382896755
-0.02371062629
-0.02326216549
-0.0232630303
-0.0229456032
-0.02301598127
-0.02278353228
-0.02287868633
-0.02269026953
-0.02276407023
-0.02257997383
-0.02258122277
-0.02236261291
-0.02223601788
-0.02195598445
-0.02131329383
-0.01967229838
-0.01871808398
-0.01761526518
-0.0170427958
-0.01628021222
-0.01595349964
-0.01542070454
-0.01525881585
-0.01488727804
-0.01483763771
-0.01458013435
-0.01460441146
-0.01442578811
-0.01449297323
-0.01436488343
-0.01444660467
-0.01434400176
-0.01441035369
-0.01430945403
-0.01432724408
-0.01420759308
-0.01414419017
-0.01400574741
-0.007895342736
-0.007340660762
-0.00702975188
-0.006666564084
-0.006492638017
-0.006250911292
-0.006166281546
-0.006006806464
-0.005983123387
-0.005881456984
-0.005900522978
-0.00583931903
-0.005887453223
-0.00585364752
-0.005919379316
-0.005902518709
-0.005974835455
-0.005965862004
-0.006032483193
-0.006023612203
-0.006072237043
-0.006060497642
-0.006084773713
-0.006073151807
0.005520039778
0.004990407247
0.004659628358
0.004285750286
0.00406243514
0.003786647102
0.00363039928
0.003420900282
0.003307722051
0.003144996872
0.003058969291
0.002930450654
0.002860921882
0.002757324599
0.002696623013
0.002609989968
0.002552250768
0.002474946207
0.002415820551
0.00233924478
0.002273818466
0.002184278867
0.002102251036
0.001974772506
0.01893239559
0.01731784758
0.01634412238
0.01523086486
0.01460872314
0.01381149656
0.01341250692
0.01282842144
0.01257620425
0.01214177993
0.01198621666
0.01165916657
0.01156507644
0.01131422702
0.01125438921
0.01105411216
0.01100511805
0.01083213854
0.01077197403
0.01060300174
0.01050761208
0.01031592973
0.01015619944
0.009915278051
0.03228348562
0.02959013528
0.02797867937
0.02613287922
0.02511675241
0.02380598685
0.02316897932
0.02221958703
0.02183310525
0.0211377263
0.02091752642
0.02040388574
0.02029031429
0.01990469713
0.01985117305
0.01954933829
0.01951540638
0.0192574075
0.019204479
0.0189512427
0.01883816012
0.01854758888
0.01832725134
0.01795523421
0.04552252748
0.04175924152
0.03951335789
0.03693782235
0.03552777622
0.03370176793
0.03282468126
0.03150448145
0.03098024842
0.03001520611
0.02972603046
0.02901470369
0.02887694378
0.02834430249
0.02829233513
0.02787715321
0.02785357711
0.02750113802
0.02745069625
0.02710822016
0.02697240268
0.02658482049
0.02629886049
0.02581076414
0.05864041109
0.0538174638
0.05094576303
0.04765131076
0.04585534191
0.04352597403
0.04241650813
0.04073887709
0.04008439964
0.03886463695
0.03851366611
0.03762072275
0.0374653463
0.0368018934
0.03675721997
0.036243673
0.03623539897
0.03580078964
0.03575739604
0.03533373526
0.03517980908
0.03469678465
0.03434862902
0.03373308817
0.07154103101
0.06567647998
0.06218692587
0.05818167949
0.05600185252
0.05317021768
0.05182665082
0.04978711523
0.04899828634
0.04751488694
0.04709683198
0.04601024203
0.04583192928
0.04502430946
0.04498260522
0.04435823042
0.04436270627
0.04383670388
0.04380005538
0.04329122475
0.04312138914
0.04254530652
0.04213980352
0.04140523345
0.08425930587
0.07736765014
0.07327198107
0.06857035592
0.06601732838
0.06269854275
0.06113088976
0.05874585264
0.05783213526
0.05610292507
0.05562641119
0.05436493837
0.0541708986
0.05323766683
0.05320408556
0.05248557987
0.05250546688
0.05190110631
0.05187128702
0.05128507402
0.05109691182
0.05042910164
0.04996093318
0.04910261795
0.09666093544
0.08876896851
0.08407985719
0.07869544477
0.07577364115
0.07197221825
0.07017965946
0.06744669081
0.06640401846
0.0644211665
0.06388058642
0.0624326343
0.06221737018
0.06114520605
0.06111588369
0.06029063865
0.06032489362
0.0596328003
0.0596122793
0.05894470949
0.05874462275
0.05798804679
0.05746848268
0.0564942139
0.1088179589
0.09994447171
0.09467648468
0.08862685957
0.08534905904
0.08108250973
0.07907668788
0.07601404096
0.07485309986
0.07263590276
0.07204068997
0.07042625253
0.07019726308
0.06900581939
0.06898549865
0.06807121027
0.06812117285
0.06735518336
0.0673416912
0.06660094153
0.06638332749
0.0655392783
0.06496013194
0.06386699399
0.1205664189
0.1107463293
0.1049168173
0.09822111092
0.09459441484
0.08987125818
0.08765276976
0.08426105558
0.08297838029
0.08052137168
0.0798660102
0.07807526679
0.07782687966
0.07650396164
0.07648854413
0.07547295019
0.07553739834
0.07468762353
0.07468327345
0.0738640163
0.07363344381
0.07270286087
0.07206911229
0.07086904196
0.1320075204
0.1212639599
0.1148900138
0.1075685119
0.1036072919
0.09844659247
0.09602805974
0.09232620992
0.09093306853
0.08825561344
0.08754990277
0.08560263411
0.08534267139
0.08390784265
0.08390252332
0.08280377548
0.08288484342
0.08196644755
0.08197058878
0.08108341663
0.08083820833
0.07982597779
0.0791386895
0.07782599119
0.1429567894
0.1313320624
0.1244355815
0.1165129098
0.1122271734
0.1066419231
0.1040257839
0.1000183328
0.09851232166
0.09561250703
0.09485130992
0.09274079683
0.09246325967
0.09090667746
0.09090626793
0.08971333802
0.08980797208
0.08881104333
0.08882346654
0.08786228237
0.08760478645
0.08651170228
0.08577444778
0.08436250253
0.1535363903
0.1410579784
0.1336582917
0.1251570245
0.1205622586
0.114572307
0.1117715856
0.107477067
0.1058694646
0.102765398
0.1019584787
0.09970283176
0.09941586991
0.09775561701
0.0977664424
0.09649685198
0.09660946939
0.09554985204
0.09557334261
0.09455052563
0.09428274113
0.09311513156
0.09233005794
0.09081373351
0.1635502913
0.1502670509
0.1423903651
0.1333404345
0.1284496659
0.122072764
0.1190920607
0.1145196175
0.1128094875
0.109503839
0.1086467765
0.1062436805
0.1059410402
0.104171085
0.1041864476
0.1028318399
0.1029564696
0.1018253776
0.1018556892
0.1007648333
0.1004851218
0.09924290543
0.09841206197
0.09680311889
0.1731338937
0.1590776043
0.1507452357
0.1411711349
0.1360005705
0.1292567198
0.1261089717
0.1212758407
0.1194739298
0.1159823689
0.1150843566
0.1125487865
0.112238507
0.1103737311
0.1104008554
0.1089762319
0.1091196259
0.1079316917
0.1079753255
0.1068290635
0.1065434986
0.1052342568
0.1043622013
0.10265865
0.1820876851
0.1673128593
0.1585549655
0.148491588
0.1430572515
0.1359690165
0.1326611927
0.1275815357
0.1256887578
0.1220193193
0.1210771814
0.1184124258
0.1180886348
0.1161284848
0.1161598378
0.1146616271
0.1148154807
0.1135653985
0.1136143647
0.1124080619
0.1121107269
0.1107345278
0.1098204241
0.1080328879
0.190553687
0.1750962672
0.1659359417
0.1554094047
0.1497279338
0.1423150248
0.1388596009
0.1335487228
0.1315747865
0.1277397836
0.1267614187
0.1239779845
0.123647556
0.1216018231
0.1216440356
0.1200822026
0.120253652
0.1189518636
0.1190142007
0.1177579305
0.117457283
0.1160214867
0.1150723664
0.1132019647
0.1983355608
0.1822547866
0.1727256694
0.1617753199
0.1558655609
0.1481551401
0.1445615142
0.1390386521
0.136986647
0.132999874
0.1319840484
0.1290917066
0.1287503856
0.1266255525
0.1266722059
0.1250503539
0.1252314949
0.1238793121
0.1239465813
0.1226407852
0.1223297418
0.1208367845
0.1198504752
0.1179063407
0.2055768618
0.1889126064
0.179039405
0.1676927736
0.1615716354
0.153582911
0.1498628892
0.1441411377
0.1420193612
0.1378892974
0.1368418754
0.1338457796
0.1334978797
0.131297095
0.1313518524
0.1296724827
0.1298672823
0.1284677132
0.1285449654
0.1271936975
0.126878541
0.1253331238
0.124316207
0.1223024356
0.2120893209
0.1949046189
0.1847238845
0.1730241076
0.1667129189
0.1584771442
0.1546424154
0.1487457174
0.1465595729
0.1423056094
0.1412279032
0.1381445185
0.1377887722
0.1355263851
0.1355864429
0.1338620189
0.1340668739
0.1326304213
0.1327139444
0.1313256995
0.1310036851
0.12941266
0.128365352
0.1262885101
0.2180146949
0.2003530076
0.1898909375
0.1778668325
0.1713827567
0.1629186791
0.1589803999
0.1529197918
0.1506760946
0.1463030299
0.1451984868
0.1420275796
0.1416647186
0.1393367565
0.1394007562
0.137625142
0.1378374517
0.1363577473
0.1364449136
0.1350153614
0.134685395
0.1330489696
0.1319734147
0.1298408127
0.2231758056
0.2051030504
0.1943984502
0.1820961445
0.1754624852
0.1668046623
0.1627764203
0.1565797262
0.1542859711
0.1498179452
0.148690524
0.1454544712
0.1450869008
0.1427150252
0.142785386
0.1409797752
0.1412030799
0.1397002566
0.1397962288
0.1383428589
0.1380114727
0.1363417845
0.1352447092
0.1330593408
0.2277110132
0.209273784
0.1983542431
0.1858037782
0.1790380732
0.1702050636
0.166097649
0.1597744361
0.1574363331
0.1528753405
0.1517264261
0.148420701
0.1480457242
0.145620027
0.1456900891
0.1438408124
0.1440649955
0.1425241476
0.1426168753
0.1411274381
0.1407837419
0.139076709
0.1379532627
0.1357265432
0.2314555019
0.2127217216
0.2016275864
0.1888771881
0.182004063
0.1730327181
0.1688609626
0.1624417109
0.1600681607
0.1554415732
0.1542770609
0.1509280942
0.1505510937
0.1480983373
0.1481751291
0.1463096016
0.1465449198
0.1449932142
0.1450966939
0.1435955362
0.1432561694
0.1415285333
0.1403945153
0.1381259135
0.2345441423
0.215562971
0.2043231231
0.1914040183
0.1844416008
0.1753507166
0.1711255527
0.1646192813
0.1622157154
0.1575242086
0.1563446268
0.1529457294
0.1525622532
0.1500694298
0.1501432208
0.1482437385
0.1484753497
0.1468932077
0.1469890421
0.1454594672
0.1451062226
0.143351439
0.1421950359
0.1399009372
0.2368243118
0.2176648499
0.2063204444
0.1932820289
0.1862555273
0.17708312
0.1728197765
0.1662581594
0.1638338069
0.1591060345
0.1579177385
0.1544967849
0.1541130855
0.1516086211
0.1516880211
0.1497838654
0.1500245165
0.1484410396
0.1485465913
0.1470148491
0.1466686168
0.1449058275
0.1437493251
0.141430394
0.2384284083
0.2191417132
0.2077227868
0.194597403
0.1875257692
0.1782913287
0.1740014862
0.1673940282
0.1649551181
0.1601921744
0.1589965817
0.15554734
0.1551599339
0.1526314065
0.1527076946
0.1507819422
0.1510177998
0.1494143345
0.1495121388
0.1479621951
0.1476054215
0.1458275467
0.144659401
0.1423306001
0.2392148533
0.2198704241
0.2084182344
0.1952555482
0.188163834
0.1789054323
0.1746038299
0.1679819451
0.1655368287
0.160766679
0.1595688244
0.1561179269
0.1557312227
0.1532051302
0.1532844071
0.151363617
0.1516039931
0.1500061052
0.150108576
0.1485624433
0.1482078624
0.1464295911
0.1452574362
0.1429273102
0.2393151898
0.2199652297
0.2085107573
0.1953440706
0.188252211
0.1789903753
0.1746899612
0.1680645127
0.1656211938
0.1608468558
0.1596506856
0.1561946436
0.1558087468
0.1532764779
0.1533550399
0.1514273289
0.1516652245
0.1500604413
0.150159188
0.1486076209
0.1482499531
0.1464702373
0.1452998187
0.1429749168
0.2385972722
0.2193109481
0.207894914
0.1947733514
0.1877055965
0.1784774998
0.1741917765
0.1675927235
0.165157687
0.160404887
0.1592126886
0.1557748718
0.1553902349
0.1528738034
0.1529522217
0.1510384279
0.1512758307
0.1496832261
0.1497818995
0.1482410856
0.1478844618
0.1461155974
0.1449491582
0.1426412467
0.237193497
0.2180233474
0.2066773653
0.1936349043
0.1866121763
0.1774394984
0.1731829474
0.1666229963
0.1642065693
0.1594811118
0.1583002613
0.1548811736
0.1545028333
0.1519990328
0.1520804472
0.150175512
0.1504143855
0.148829243
0.1489300076
0.1473978198
0.1470466909
0.1452905181
0.1441364698
0.14184792
0.2349795723
0.2159937351
0.2047574442
0.1918419832
0.1848872456
0.1758055508
0.1715899646
0.1650968478
0.1627031334
0.1580276519
0.1568570893
0.153475919
0.1530996842
0.1506251382
0.1507038921
0.1488221756
0.1490566665
0.1474910635
0.1475887721
0.1460751145
0.1457258909
0.1439910188
0.1428489147
0.1405899643
0.2320900902
0.2133406034
0.2022458356
0.1894916048
0.1826265792
0.1736585377
0.1694998657
0.1630881381
0.1607297648
0.1561129287
0.1549633771
0.1516246339
0.1512601479
0.1488167888
0.1489019949
0.1470444278
0.1472836256
0.1457389478
0.1458431484
0.1443507554
0.1440134706
0.142303524
0.1411824006
0.1389546225
0.2284074592
0.2099607571
0.199045624
0.1864987452
0.1797448071
0.1709239296
0.1668320889
0.1605269299
0.1582056193
0.1536668182
0.152534132
0.14925296
0.1488921104
0.146491766
0.1465730362
0.1447487269
0.1449815373
0.143464754
0.1435652366
0.1420999067
0.1417672271
0.1400886355
0.1389870713
0.1368006768
0.2240691278
0.2059759191
0.1952719688
0.1829663841
0.1763456897
0.1676952247
0.1636872709
0.1575046718
0.1552348573
0.1507850719
0.1496824979
0.1464665358
0.1461221324
0.1437704514
0.1438604258
0.1420741206
0.1423129497
0.1408286171
0.1409372078
0.1395034138
0.1391858059
0.1375422131
0.1364677478
0.1343238054
0.218963723
0.201288068
0.1908315253
0.1788111451
0.1723433386
0.1638945199
0.1599785744
0.1539411784
0.1517225574
0.1473782611
0.1462993263
0.1431604207
0.1428217999
0.1405271065
0.1406129337
0.1388704209
0.1391023561
0.1376548646
0.1377608181
0.1363630361
0.1360542202
0.1344521002
0.1334053912
0.1313148129
0.2132313623
0.1960218535
0.1858434291
0.1741412914
0.167848478
0.159624549
0.1558182283
0.1499427918
0.1477908737
0.1435644833
0.142523899
0.1394716324
0.1391532048
0.1369232991
0.1370189008
0.1353268181
0.1355645865
0.1341595684
0.1342734814
0.1329160872
0.1326237466
0.1310658107
0.1300513163
0.1280148974
0.2067671623
0.1900848128
0.1802185477
0.1688759989
0.1627760568
0.1548058969
0.1511157429
0.1454225796
0.1433355258
0.1392411156
0.1382308771
0.1352746396
0.1349643262
0.1328051585
0.1328966896
0.1312588093
0.1314893928
0.1301299348
0.1302422629
0.1289294067
0.1286497113
0.1271429558
0.1261640057
0.1241931232
0.1997128835
0.1836034451
0.174078646
0.163127181
0.1572416237
0.149547811
0.145991394
0.1404972578
0.1384909133
0.1345414087
0.1335767914
0.1307270321
0.1304398275
0.1283602357
0.1284619213
0.1268858587
0.1271216483
0.1258140519
0.1259341569
0.1246703949
0.1244090179
0.122955911
0.1220149842
0.1201103786
0.1919710831
0.1764918442
0.1673401093
0.1568182052
0.1511631676
0.1437722211
0.1403547675
0.1350779132
0.1331493749
0.1293569707
0.1284290456
0.1256933869
0.1254163784
0.1234206223
0.123517887
0.122005795
0.1222332057
0.1209790525
0.1210970566
0.1198852889
0.1196383411
0.1182451502
0.1173457767
0.1155188343
0.1836834287
0.1688766564
0.1601253451
0.1500623371
0.1446582025
0.137591375
0.1343298193
0.1292862421
0.1274510356
0.1238283031
0.122952245
0.120341098
0.1200893591
0.1181865393
0.1182938792
0.1168539836
0.1170859259
0.1158925146
0.116018594
0.1148646286
0.1146387807
0.1133089755
0.1124543517
0.110705764
0.1747613779
0.1606799604
0.1523579871
0.1427891995
0.1376504029
0.1309318661
0.1278303861
0.1230365508
0.1212911415
0.1178488772
0.1170153303
0.1145351562
0.1142953109
0.1124885697
0.1125906146
0.1112237526
0.1114451951
0.1103123867
0.1104343707
0.1093390278
0.1091274953
0.107865504
0.1070567038
0.1053974826
0.1653442816
0.1520264407
0.1441587235
0.1351107702
0.1302560663
0.1239051412
0.1209794972
0.1164499501
0.1148089612
0.1115585923
0.1107820477
0.1084423509
0.1082290807
0.1065269016
0.1066382439
0.1053524716
0.1055771792
0.1045127194
0.1046425658
0.1036126721
0.1034245709
0.1022348833
0.1014771444
0.09990777941
0.155354213
0.1428477823
0.1354603199
0.126965096
0.1224072611
0.1164457719
0.1136993472
0.1094489996
0.1079086948
0.1048600743
0.1041313133
0.101938055
0.1017381594
0.1001434199
0.1002485315
0.09904438667
0.09925644009
0.09825957367
0.09838324015
0.09741854485
0.09724441922
0.09613017744
0.09542201422
0.09395280396
0.1449257677
0.1332644445
0.1263792847
0.1184601994
0.1142159241
0.1086607427
0.1061076517
0.1021490128
0.1007225772
0.09788528574
0.09721748926
0.0951783913
0.09500540623
0.09352483884
0.09363746815
0.09252135298
0.09273416106
0.09181122099
0.09194092265
0.09104724497
0.09089698073
0.08986214764
0.08920960551
0.08784078017
0.1339933453
0.1232192906
0.1168592883
0.1095445307
0.1056249559
0.1004955213
0.09813857725
0.09448517357
0.09316909248
0.09055242625
0.08993717215
0.08805835667
0.08790023859
0.08653749829
0.08664340307
0.08561710552
0.08581592398
0.08496763265
0.08509016939
0.08426854161
0.0841329947
0.08318114819
0.08258230318
0.08132300758
0.1226843936
0.112826377
0.1070103547
0.1003197362
0.09673913354
0.0920494678
0.08990075413
0.08656261827
0.0853681767
0.08297933897
0.08242788218
0.08071457605
0.08058282164
0.07934186042
0.07945259751
0.07851936835
0.0787152687
0.077944529
0.07806972153
0.0773226798
0.07720955598
0.07634241022
0.07580191555
0.07465231222
0.1109470899
0.1020410439
0.0967884914
0.09074621769
0.08751408434
0.08328114774
0.08134307226
0.07833240129
0.07725665523
0.07510459721
0.07460990846
0.07306881571
0.07295349931
0.07183947425
0.07194357152
0.07110758142
0.07128913572
0.07059970036
0.07071794378
0.07004952348
0.06995290017
0.06917565546
0.06869316295
0.06766072273
0.09889963837
0.09096906639
0.08629530076
0.08091728673
0.07804521185
0.07427990935
0.07256225259
0.06988635309
0.06893836708
0.06702765802
0.06659863204
0.06523217661
0.06514211305
0.06415577274
0.0642616367
0.06352238733
0.06369698458
0.06308755547
0.06320460538
0.06261325573
0.06253695654
0.06184856669
0.06142617072
0.06051127269
0.08650498128
0.07957911159
0.07550004655
0.07080624287
0.06830203197
0.06501868831
0.06352352668
0.06119317647
0.06037077017
0.05870996628
0.05834130292
0.05715674503
0.05708464639
0.05623263695
0.05633229949
0.05569632115
0.05585677495
0.05533405501
0.05544489344
0.05493745797
0.05487960752
0.05428657747
0.05392590402
0.05313396919
0.07387045492
0.06796724321
0.06449448384
0.06049670067
0.05836909072
0.05557535893
0.05431002632
0.05232975488
0.05163964159
0.05023073178
0.04992883559
0.04892598752
0.04887785597
0.048158097
0.04825670683
0.04772035964
0.04787035334
0.04742970259
0.04753616103
0.04710801444
0.04706887795
0.04656823875
0.04626916051
0.04560090949
0.0609741537
0.05611574924
0.05326144297
0.04997512284
0.04823014177
0.04593750375
0.04490371965
0.04328266344
0.04272343052
0.041574274
0.04133557259
0.04052178679
0.04049290701
0.03991280477
0.04000567494
0.03957675278
0.03971284296
0.03936242319
0.03946322113
0.03912231546
0.03910296906
0.03870118995
0.03846640789
0.0379251509
0.04791151118
0.04411008705
0.04188198389
0.03931470232
0.03795815036
0.03617098231
0.03537360714
0.03411362533
0.03368968103
0.03279997832
0.03262854435
0.03200158126
0.031995486
0.031551063
0.03164071697
0.03131382613
0.03143700918
0.03117064804
0.03126509056
0.0310056603
0.03100433684
0.03069790823
0.03052613377
0.0301128263
0.03467549647
0.03194586349
0.03035218794
0.02851466296
0.02755068139
0.02627739575
0.02571768905
0.02482598025
0.02453653434
0.02391300476
0.02380673357
0.02337334729
0.02338741036
0.02308577804
0.02316996609
0.02295266102
0.02306192505
0.02288734498
0.02297615311
0.0228052955
0.02282420552
0.02261822782
0.02251204674
0.02222809658
0.02134922426
0.01969758249
0.01874214137
0.01763764671
0.0170690807
0.01631082535
0.01599122814
0.0154671715
0.01531448127
0.0149549225
0.01491586702
0.01467242758
0.01470827557
0.01454458834
0.0146241345
0.01451071534
0.0146057249
0.01451700081
0.0145986473
0.01451122708
0.01454824026
0.01443979008
0.01439775392
0.01424409835
0.007939622756
0.007373306123
0.007060289535
0.006694658374
0.006523651754
0.00628556303
0.006206737641
0.006055301539
0.00603899099
0.00594854941
0.005975724516
0.005927744454
0.005984253911
0.005964405401
0.006038561324
0.006035113491
0.006115937513
0.006118906784
0.006194435698
0.006195319049
0.006252126978
0.006244120115
0.006267705402
0.006244150585
-0.005482353588
-0.00496326443
-0.00463403485
-0.004261850034
-0.004035379628
-0.003755296584
-0.003593237459
-0.003374956503
-0.003254607823
-0.003079703474
-0.002985968342
-0.002843004122
-0.002765631077
-0.002646643678
-0.002578014061
-0.002476573928
-0.002410565832
-0.002320517681
-0.002252198775
-0.002166515695
-0.00209116518
-0.002000479367
-0.001912127582
-0.001804913361
-0.01889728697
-0.01729294966
-0.01632137501
-0.01521051613
-0.01458651355
-0.01378655253
-0.01338367189
-0.01279315872
-0.0125362965
-0.01209277648
-0.01193261795
-0.01159483154
-0.01149661363
-0.01123459485
-0.01117130482
-0.01096090573
-0.0109093202
-0.01072879657
-0.01066722971
-0.01049457987
-0.0104004241
-0.01021054095
-0.01005764807
-0.00982120404
-0.0322457513
-0.02956229983
-0.02795254343
-0.02610835781
-0.02508977497
-0.02377497351
-0.02313339134
-0.02217567342
-0.02178386779
-0.02107687335
-0.02085152578
-0.02032410757
-0.02020607863
-0.01980601085
-0.01974894291
-0.01943395093
-0.01939747342
-0.0191297759
-0.01907534375
-0.0188176696
-0.01870477062
-0.01841635239
-0.01819890022
-0.01783296141
-0.04549771787
-0.04174270101
-0.03949875437
-0.03692537494
-0.03551430446
-0.03368647328
-0.0328070714
-0.03148221372
-0.03095549287
-0.02998376357
-0.02969262717
-0.02897341832
-0.02883456475
-0.02829391038
-0.0282419157
-0.02782003264
-0.02779775921
-0.02744146286
-0.0273939368
-0.02705116477
-0.02692025986
-0.02653470454
-0.02625432973
-0.02576160916
-0.05860433285
-0.05379013235
-0.05092009936
-0.0476271084
-0.04582928698
-0.04349639285
-0.04238343158