/*--------------------------------*- C++ -*----------------------------------*\
| =========                 |                                                 |
| \\      /  F ield         | foam-extend: Open Source CFD                    |
|  \\    /   O peration     | Version:  3.0                                   |
|   \\  /    A nd           | Web:         http://www.extend-project.de       |
|    \\/     M anipulation  |                                                 |
\*---------------------------------------------------------------------------*/
FoamFile
{
    version     2.0;
    format      ascii;
    class       volSymmTensorField;
    location    "15";
    object      sigma;
}
// * * * * * * * * * * * * * * * * * * * * * * * * * * * * * * * * * * * * * //

dimensions      [0 0 0 0 0 0 0];

internalField   nonuniform List<symmTensor> 
400
(
(0.015756 -0.000647582 0 -0.0167736 0 0.0010176)
(0.0223911 -0.0010553 0 -0.0169062 0 -0.00548488)
(0.0257135 -0.00205556 0 -0.0160145 0 -0.00969905)
(0.0264742 -0.00280877 0 -0.0145386 0 -0.0119356)
(0.0253247 -0.00401543 0 -0.0127808 0 -0.0125439)
(0.0225377 -0.00460149 0 -0.0107129 0 -0.0118248)
(0.0186264 -0.00552205 0 -0.00854272 0 -0.0100837)
(0.0138165 -0.00580591 0 -0.00624105 0 -0.0075754)
(0.00842163 -0.00640473 0 -0.00388002 0 -0.00454161)
(0.00269869 -0.00634866 0 -0.0014953 0 -0.00120339)
(-0.00319133 -0.00664132 0 0.000953101 0 0.00223823)
(-0.00889257 -0.0062048 0 0.00332664 0 0.00556593)
(-0.014393 -0.00621614 0 0.00579996 0 0.00859304)
(-0.0191201 -0.00532612 0 0.00805279 0 0.0110673)
(-0.0232707 -0.00511262 0 0.0104756 0 0.0127951)
(-0.0258238 -0.00361921 0 0.0123816 0 0.0134422)
(-0.0274134 -0.00342709 0 0.0146019 0 0.0128116)
(-0.0259999 -0.00113987 0 0.0155726 0 0.0104273)
(-0.0232764 -0.00207852 0 0.0170796 0 0.0061968)
(-0.0156063 0.000324593 0 0.0160606 0 -0.000454334)
(0.0161169 0.00130754 0 -0.0241008 0 0.00798392)
(0.021722 0.00018546 0 -0.0231223 0 0.00140033)
(0.024944 -0.00123984 0 -0.0217871 0 -0.00315692)
(0.0257109 -0.00243234 0 -0.0197483 0 -0.00596263)
(0.0246771 -0.00383189 0 -0.0173812 0 -0.00729587)
(0.022033 -0.00484064 0 -0.0146115 0 -0.00742149)
(0.0182569 -0.00593452 0 -0.0116617 0 -0.00659519)
(0.0135672 -0.00657335 0 -0.00851585 0 -0.00505132)
(0.00830299 -0.00723372 0 -0.0052932 0 -0.00300978)
(0.00268139 -0.00738059 0 -0.00200427 0 -0.000677117)
(-0.00306634 -0.00754883 0 0.00131642 0 0.00174992)
(-0.00867991 -0.00713831 0 0.00460606 0 0.00407385)
(-0.0140008 -0.00682641 0 0.00790058 0 0.00610021)
(-0.0186545 -0.00584484 0 0.0110378 0 0.00761669)
(-0.0225315 -0.00515363 0 0.0141207 0 0.00841076)
(-0.0250769 -0.00362967 0 0.0168434 0 0.00823351)
(-0.0261906 -0.00280529 0 0.0193442 0 0.00684639)
(-0.02529 -0.000846678 0 0.0213345 0 0.00395553)
(-0.0219779 -0.000407214 0 0.0226499 0 -0.000672016)
(-0.0165922 0.00165916 0 0.0239589 0 -0.00736678)
(0.0151632 0.0012573 0 -0.0278057 0 0.0126425)
(0.0207544 0.000524273 0 -0.0270072 0 0.00625284)
(0.0237687 -0.000581375 0 -0.0253752 0 0.00160656)
(0.0244774 -0.00179799 0 -0.0229727 0 -0.00150467)
(0.0234341 -0.00322662 0 -0.0201278 0 -0.00330633)
(0.020909 -0.00448841 0 -0.016886 0 -0.00402302)
(0.0173144 -0.00572772 0 -0.0134407 0 -0.00387366)
(0.0128654 -0.00662412 0 -0.00979902 0 -0.00306642)
(0.00788742 -0.00735766 0 -0.00608799 0 -0.00179942)
(0.00255529 -0.0076398 0 -0.00229319 0 -0.000262104)
(-0.00286316 -0.00772078 0 0.00150103 0 0.00136213)
(-0.00819479 -0.00729101 0 0.00530368 0 0.00289111)
(-0.013188 -0.00672504 0 0.00904624 0 0.00414174)
(-0.0176319 -0.00562702 0 0.0127086 0 0.00492337)
(-0.0212428 -0.00459314 0 0.0162039 0 0.00503883)
(-0.0237551 -0.00303545 0 0.0194782 0 0.00427697)
(-0.0247882 -0.00193539 0 0.0223666 0 0.00242162)
(-0.0240919 -0.000385467 0 0.0248485 0 -0.000756569)
(-0.0210145 0.000337666 0 0.0264886 0 -0.00547411)
(-0.0154906 0.00116194 0 0.0274395 0 -0.0119489)
(0.0142178 0.00295378 0 -0.0296541 0 0.0154362)
(0.0191835 0.00194516 0 -0.0285526 0 0.00936905)
(0.0218207 0.000598178 0 -0.0266405 0 0.00481971)
(0.022407 -0.000849393 0 -0.024018 0 0.00161094)
(0.0214299 -0.00244499 0 -0.0209852 0 -0.000444711)
(0.0191102 -0.00391435 0 -0.0175729 0 -0.00153724)
(0.0158248 -0.00530031 0 -0.0139703 0 -0.0018545)
(0.011751 -0.00636441 0 -0.010172 0 -0.001579)
(0.00720665 -0.00717594 0 -0.0063197 0 -0.000886953)
(0.00232699 -0.00753408 0 -0.00237788 0 5.08866e-05)
(-0.00260757 -0.00757393 0 0.00153984 0 0.00106773)
(-0.00748143 -0.00711193 0 0.0054836 0 0.00199783)
(-0.012006 -0.00638428 0 0.00933161 0 0.00267443)
(-0.0160687 -0.00519303 0 0.0131422 0 0.00292647)
(-0.0193072 -0.00391667 0 0.0167293 0 0.00257784)
(-0.0216453 -0.00229547 0 0.0202001 0 0.00144525)
(-0.022536 -0.000874988 0 0.0231948 0 -0.000658802)
(-0.0221005 0.000682689 0 0.0260262 0 -0.00392561)
(-0.0193444 0.00186146 0 0.0278865 0 -0.0085421)
(-0.0145852 0.00276716 0 0.0292781 0 -0.0146929)
(0.0127823 0.00318641 0 -0.0293665 0 0.0165842)
(0.0173525 0.00251998 0 -0.0283376 0 0.010985)
(0.0196941 0.0013364 0 -0.0263817 0 0.00668758)
(0.0201752 -0.000117363 0 -0.0237264 0 0.0035512)
(0.0192196 -0.00178941 0 -0.0206403 0 0.00142068)
(0.0170856 -0.0033984 0 -0.0172211 0 0.000135532)
(0.0141076 -0.00492177 0 -0.0136425 0 -0.000465185)
(0.0104519 -0.00612989 0 -0.00991187 0 -0.00054005)
(0.00640304 -0.00703008 0 -0.00615911 0 -0.000243927)
(0.00206257 -0.00745052 0 -0.00233425 0 0.000271676)
(-0.0023075 -0.00746943 0 0.00144959 0 0.000857911)
(-0.00664077 -0.00696144 0 0.00527418 0 0.00136659)
(-0.0106554 -0.0061041 0 0.00900651 0 0.0016489)
(-0.0143 -0.00479763 0 0.0127468 0 0.00155323)
(-0.0172165 -0.00333705 0 0.0162917 0 0.000924771)
(-0.0193765 -0.00162319 0 0.0197719 0 -0.000395419)
(-0.0202617 -3.50168e-05 0 0.02283 0 -0.0025683)
(-0.0199087 0.00147841 0 0.0256638 0 -0.00575509)
(-0.0175053 0.00272143 0 0.0276161 0 -0.0101108)
(-0.0130177 0.00328885 0 0.0287944 0 -0.0157766)
(0.0112092 0.00450117 0 -0.0275756 0 0.0163664)
(0.0151686 0.00367389 0 -0.0264893 0 0.0113207)
(0.0171165 0.00230945 0 -0.0245108 0 0.00739429)
(0.0174481 0.000632706 0 -0.021917 0 0.00446894)
(0.0165416 -0.00125083 0 -0.0189553 0 0.00241372)
(0.0146371 -0.00309308 0 -0.0157294 0 0.00109223)
(0.0120412 -0.00481058 0 -0.0124079 0 0.000366754)
(0.00888612 -0.00619522 0 -0.00898665 0 0.000100531)
(0.00542832 -0.00720621 0 -0.00558744 0 0.000159121)
(0.00172941 -0.00769571 0 -0.0021396 0 0.000410186)
(-0.00197417 -0.00770079 0 0.0012509 0 0.000723276)
(-0.00566249 -0.00713899 0 0.00469418 0 0.000968313)
(-0.00907368 -0.0061432 0 0.00805879 0 0.00101489)
(-0.0122107 -0.00468731 0 0.0114801 0 0.000730632)
(-0.0147279 -0.00299961 0 0.0147468 0 -1.88513e-05)
(-0.0166528 -0.00109639 0 0.0180234 0 -0.00137057)
(-0.0174759 0.000749824 0 0.0209382 0 -0.0034623)
(-0.0172618 0.00243096 0 0.0236927 0 -0.00643082)
(-0.0152526 0.00381277 0 0.0256589 0 -0.0104063)
(-0.0113693 0.00442598 0 0.0268739 0 -0.0155046)
(0.00958683 0.00452595 0 -0.0245719 0 0.0149851)
(0.0128654 0.00396314 0 -0.0234217 0 0.0105562)
(0.0144118 0.00266539 0 -0.0215098 0 0.007098)
(0.0145715 0.000858415 0 -0.0190714 0 0.00449988)
(0.0137057 -0.00122533 0 -0.0163532 0 0.00264745)
(0.0120325 -0.00330224 0 -0.0134561 0 0.00142356)
(0.00983326 -0.00524519 0 -0.0105437 0 0.000710484)
(0.00721158 -0.00682431 0 -0.00760289 0 0.000391317)
(0.00438622 -0.00797292 0 -0.00473721 0 0.000350992)
(0.00138133 -0.00853905 0 -0.00185735 0 0.000476017)
(-0.00160789 -0.00854106 0 0.000953536 0 0.000654353)
(-0.00460229 -0.00791273 0 0.00382807 0 0.000774225)
(-0.00738231 -0.006771 0 0.00665867 0 0.000723636)
(-0.00998513 -0.00512827 0 0.00959606 0 0.000389072)
(-0.0121124 -0.0031955 0 0.0124569 0 -0.000344485)
(-0.0137942 -0.00105347 0 0.0153883 0 -0.00159411)
(-0.0145918 0.00104255 0 0.0180693 0 -0.00347752)
(-0.014496 0.00288949 0 0.0206078 0 -0.00611182)
(-0.0129052 0.00431229 0 0.0225147 0 -0.00960954)
(-0.00964585 0.00478764 0 0.0237208 0 -0.0140749)
(0.00765594 0.00560542 0 -0.0202173 0 0.0125614)
(0.0102214 0.00468161 0 -0.0190526 0 0.00883122)
(0.0113375 0.00303097 0 -0.0172688 0 0.00593135)
(0.0113115 0.00086121 0 -0.015074 0 0.00376246)
(0.010505 -0.00158193 0 -0.0127284 0 0.00222339)
(0.00909758 -0.00402156 0 -0.0103105 0 0.00121288)
(0.00735007 -0.00627616 0 -0.00798082 0 0.000630745)
(0.00532609 -0.00811805 0 -0.0057045 0 0.000378408)
(0.00320602 -0.00944192 0 -0.00356534 0 0.00035932)
(0.000972557 -0.0101049 0 -0.00145102 0 0.00047846)
(-0.00122281 -0.0101005 0 0.000580658 0 0.000642149)
(-0.00344426 -0.00938335 0 0.00268734 0 0.000756924)
(-0.00551304 -0.00805347 0 0.00478389 0 0.000729144)
(-0.00751148 -0.00615914 0 0.0070477 0 0.000463782)
(-0.00917368 -0.00390183 0 0.00930933 0 -0.000135654)
(-0.0105706 -0.00141405 0 0.0117385 0 -0.00116784)
(-0.0112898 0.00103985 0 0.0140226 0 -0.0027328)
(-0.0113449 0.00321375 0 0.0162763 0 -0.00493133)
(-0.0101819 0.00487931 0 0.0180438 0 -0.00786194)
(-0.00764133 0.00558742 0 0.0192564 0 -0.0116151)
(0.00585813 0.0052574 0 -0.0151154 0 0.00925725)
(0.00755803 0.00440415 0 -0.0138306 0 0.00627253)
(0.00815084 0.00261522 0 -0.0121612 0 0.00401032)
(0.00788596 0.00011257 0 -0.0102481 0 0.00236214)
(0.00712448 -0.00272691 0 -0.00835839 0 0.00123391)
(0.00599158 -0.00556646 0 -0.00652902 0 0.000537439)
(0.00472508 -0.0081874 0 -0.0049135 0 0.000188424)
(0.00333768 -0.0103249 0 -0.00344332 0 0.000105646)
(0.00197047 -0.0118576 0 -0.00218104 0 0.00021057)
(0.000557845 -0.0126305 0 -0.000984346 0 0.0004265)
(-0.000795101 -0.0126267 0 0.000116983 0 0.000678119)
(-0.00219735 -0.0118097 0 0.00130697 0 0.00089038)
(-0.00351965 -0.0102699 0 0.00253165 0 0.000987999)
(-0.00488259 -0.00808547 0 0.0039883 0 0.000894289)
(-0.00607307 -0.0054531 0 0.00554228 0 0.000530794)
(-0.0071827 -0.00255722 0 0.0073664 0 -0.000183699)
(-0.00786154 0.000320279 0 0.0091947 0 -0.00133316)
(-0.00811275 0.00287088 0 0.0111176 0 -0.0030049)
(-0.00746976 0.00476496 0 0.0127592 0 -0.00528948)
(-0.00576748 0.00555364 0 0.0140512 0 -0.00828372)
(0.00357249 0.00619242 0 -0.00867195 0 0.00509946)
(0.00445799 0.00460006 0 -0.00742731 0 0.00296932)
(0.00456733 0.00213134 0 -0.00600116 0 0.00143383)
(0.00408618 -0.000999296 0 -0.00447992 0 0.000393741)
(0.00340714 -0.0044331 0 -0.00317129 0 -0.000235845)
(0.00259366 -0.00782316 0 -0.00206323 0 -0.000530425)
(0.00186084 -0.0109078 0 -0.00130202 0 -0.000558824)
(0.00117095 -0.0134149 0 -0.000785831 0 -0.000385124)
(0.00061541 -0.0151938 0 -0.00054559 0 -6.98195e-05)
(8.87902e-05 -0.0160947 0 -0.00041764 0 0.00032885)
(-0.000359497 -0.0160831 0 -0.000394677 0 0.000754174)
(-0.000874369 -0.0151372 0 -0.0002754 0 0.00114977)
(-0.00137984 -0.0133376 0 -7.91223e-05 0 0.00145896)
(-0.00203779 -0.0107865 0 0.000414254 0 0.00162354)
(-0.00267942 -0.00768626 0 0.00109628 0 0.00158313)
(-0.0034491 -0.00425558 0 0.00217531 0 0.00127379)
(-0.00402169 -0.000813113 0 0.00339448 0 0.000627205)
(-0.00446038 0.00231616 0 0.00489124 0 -0.000430862)
(-0.00429462 0.00476192 0 0.00627571 0 -0.00198108)
(-0.00341635 0.00614865 0 0.00752471 0 -0.00410836)
(0.00155184 0.00535454 0 -0.00180314 0 0.000251302)
(0.00140006 0.00355742 0 -0.000428685 0 -0.000971373)
(0.000865346 0.000661888 0 0.000834843 0 -0.00170019)
(9.94017e-05 -0.00306779 0 0.00195139 0 -0.00205079)
(-0.00051304 -0.0071435 0 0.00261608 0 -0.00210304)
(-0.000986251 -0.0111174 0 0.00290617 0 -0.00191992)
(-0.00114118 -0.0147152 0 0.00269553 0 -0.00155435)
(-0.00108729 -0.0176119 0 0.00213993 0 -0.00105264)
(-0.000776895 -0.0196614 0 0.0012336 0 -0.000456704)
(-0.000371457 -0.0206983 0 0.000177251 0 0.000194207)
(0.000134338 -0.020687 0 -0.000996796 0 0.000862458)
(0.000548815 -0.0196136 0 -0.00205963 0 0.00151082)
(0.000900886 -0.0175439 0 -0.00300257 0 0.00210168)
(0.000980957 -0.0146117 0 -0.00357683 0 0.00259587)
(0.000904222 -0.0109973 0 -0.00385585 0 0.00295162)
(0.000474814 -0.00698221 0 -0.00359768 0 0.00312287)
(-3.9394e-05 -0.00288225 0 -0.003018 0 0.00305739)
(-0.000744072 0.000888507 0 -0.00194974 0 0.00269381)
(-0.0012154 0.00385659 0 -0.000741694 0 0.0019571)
(-0.00135376 0.00560676 0 0.00060604 0 0.000747722)
(-0.00118742 0.0062108 0 0.00649449 0 -0.00530707)
(-0.0022448 0.00316568 0 0.00771788 0 -0.00547308)
(-0.00328706 -0.00084837 0 0.00858518 0 -0.00529812)
(-0.0042538 -0.00556219 0 0.00913341 0 -0.00487961)
(-0.0047179 -0.0105121 0 0.00900234 0 -0.00428444)
(-0.00477961 -0.0152335 0 0.00833965 0 -0.00356004)
(-0.00430291 -0.0194299 0 0.00704432 0 -0.0027414)
(-0.00345154 -0.0227745 0 0.00530717 0 -0.00185564)
(-0.00224561 -0.025114 0 0.00317054 0 -0.000924933)
(-0.000870863 -0.026294 0 0.000839569 0 3.1294e-05)
(0.000610621 -0.0262714 0 -0.00160582 0 0.000995199)
(0.0019953 -0.0250448 0 -0.00394464 0 0.00194933)
(0.00324522 -0.0226657 0 -0.00612111 0 0.00287589)
(0.00412851 -0.0192817 0 -0.00788407 0 0.00375555)
(0.00469456 -0.015065 0 -0.00926087 0 0.00456631)
(0.00469239 -0.0103196 0 -0.0099738 0 0.00528141)
(0.00434827 -0.0053887 0 -0.010215 0 0.0058667)
(0.00346236 -0.000698937 0 -0.00973903 0 0.00627667)
(0.00249453 0.00324656 0 -0.00894447 0 0.00644994)
(0.00144627 0.00609734 0 -0.00775483 0 0.00630857)
(-0.00346215 0.00471066 0 0.0148129 0 -0.0113508)
(-0.00576793 0.00112823 0 0.0161754 0 -0.0104075)
(-0.00754946 -0.00365847 0 0.0167989 0 -0.00924948)
(-0.00878928 -0.00925162 0 0.0167811 0 -0.00799179)
(-0.00909824 -0.0150773 0 0.0157891 0 -0.00669083)
(-0.00870379 -0.0205093 0 0.0140795 0 -0.00537573)
(-0.00753365 -0.0252989 0 0.0115943 0 -0.00406067)
(-0.00584258 -0.029055 0 0.00859389 0 -0.00275131)
(-0.00369711 -0.0316728 0 0.00514567 0 -0.00144856)
(-0.00133409 -0.0329835 0 0.00148499 0 -0.0001509)
(0.00115138 -0.0329604 0 -0.00229578 0 0.0011444)
(0.00352118 -0.0316079 0 -0.00596159 0 0.0024404)
(0.00570104 -0.0289521 0 -0.00944091 0 0.00373987)
(0.00741265 -0.0251673 0 -0.0124571 0 0.00504445)
(0.0086523 -0.0203622 0 -0.0150057 0 0.0063534)
(0.00908517 -0.0149143 0 -0.0167467 0 0.0076615)
(0.00887317 -0.00909669 0 -0.0178286 0 0.00895542)
(0.00769709 -0.00348859 0 -0.0179051 0 0.0102081)
(0.00598816 0.00133024 0 -0.0173566 0 0.0113684)
(0.00370286 0.00486958 0 -0.0160432 0 0.0123404)
(-0.0068126 0.00559856 0 0.0247329 0 -0.0179203)
(-0.0100639 7.29135e-05 0 0.0257386 0 -0.0156747)
(-0.0122605 -0.00639732 0 0.0256959 0 -0.0134355)
(-0.0135557 -0.0133781 0 0.0248314 0 -0.0112757)
(-0.013558 -0.0203252 0 0.022783 0 -0.00922498)
(-0.0126004 -0.0266138 0 0.0198872 0 -0.00728673)
(-0.0107045 -0.0320293 0 0.0161542 0 -0.00544968)
(-0.00815668 -0.0362091 0 0.0118518 0 -0.00369509)
(-0.00511546 -0.0390848 0 0.00711619 0 -0.00200074)
(-0.00179855 -0.0405143 0 0.00214162 0 -0.000343069)
(0.00162073 -0.0404794 0 -0.00292265 0 0.00130192)
(0.00494383 -0.0389942 0 -0.00790217 0 0.00295834)
(0.00801411 -0.0360575 0 -0.0126643 0 0.00465024)
(0.010584 -0.0318397 0 -0.0169853 0 0.00640131)
(0.0125474 -0.0263966 0 -0.0207813 0 0.00823395)
(0.0135532 -0.0201055 0 -0.0237206 0 0.0101673)
(0.0136602 -0.0132044 0 -0.0258737 0 0.0122135)
(0.0124437 -0.0062837 0 -0.0268149 0 0.0143711)
(0.010338 7.18033e-05 0 -0.0269546 0 0.0166165)
(0.00711742 0.0054117 0 -0.0260175 0 0.0189001)
(-0.00929376 0.0030722 0 0.0339398 0 -0.0246461)
(-0.0140929 -0.00335842 0 0.0351712 0 -0.0210784)
(-0.0169983 -0.010986 0 0.0346991 0 -0.0177008)
(-0.0184118 -0.0190038 0 0.0330112 0 -0.0145994)
(-0.018041 -0.0269051 0 0.0298181 0 -0.0117771)
(-0.0164531 -0.0338262 0 0.0256582 0 -0.00920509)
(-0.0137633 -0.0397268 0 0.0206048 0 -0.00684152)
(-0.010353 -0.044181 0 0.0149931 0 -0.00464003)
(-0.00641591 -0.0472332 0 0.00896946 0 -0.00255356)
(-0.00219275 -0.0487301 0 0.00272846 0 -0.000535714)
(0.00213286 -0.0486949 0 -0.00359194 0 0.00145908)
(0.00636145 -0.0471369 0 -0.00983756 0 0.00347611)
(0.0103201 -0.0440278 0 -0.0158811 0 0.00556099)
(0.0137437 -0.0395411 0 -0.0215039 0 0.00776025)
(0.0164784 -0.033625 0 -0.0265995 0 0.0101211)
(0.0180809 -0.0267126 0 -0.0307713 0 0.0126904)
(0.0185204 -0.0188529 0 -0.0340307 0 0.0155103)
(0.0171242 -0.0108601 0 -0.0357356 0 0.0186114)
(0.0142816 -0.00325681 0 -0.0362766 0 0.021995)
(0.00948578 0.00311436 0 -0.0350785 0 0.0255927)
(-0.0135296 0.00419374 0 0.0451224 0 -0.0315928)
(-0.0189849 -0.00528939 0 0.0454445 0 -0.0264596)
(-0.0219387 -0.0153639 0 0.0438104 0 -0.0218717)
(-0.0229641 -0.0250876 0 0.0407766 0 -0.0178125)
(-0.0220389 -0.0341565 0 0.0362645 0 -0.0142256)
(-0.0197133 -0.0417874 0 0.0307496 0 -0.0110363)
(-0.0163065 -0.0481106 0 0.0244725 0 -0.00816601)
(-0.0121219 -0.0527836 0 0.0176596 0 -0.00553773)
(-0.00747617 -0.0559437 0 0.0105547 0 -0.00307848)
(-0.00251124 -0.0574801 0 0.00323026 0 -0.000719016)
(0.00250051 -0.0574401 0 -0.00410784 0 0.00160733)
(0.00746732 -0.0558374 0 -0.0114337 0 0.00396641)
(0.0121194 -0.0526067 0 -0.0185444 0 0.00642495)
(0.01631 -0.0478941 0 -0.0253623 0 0.00905238)
(0.0197382 -0.0415355 0 -0.0316601 0 0.0119219)
(0.0220769 -0.0339196 0 -0.0371875 0 0.0151106)
(0.0230617 -0.0248973 0 -0.0417595 0 0.0186978)
(0.0220661 -0.0152721 0 -0.044825 0 0.0227589)
(0.0192093 -0.00532442 0 -0.046564 0 0.0273547)
(0.0137924 0.00397953 0 -0.0463172 0 0.0325248)
(-0.0161356 -0.000385808 0 0.0542229 0 -0.0380873)
(-0.0234212 -0.0109062 0 0.0549065 0 -0.0314853)
(-0.0266622 -0.0222504 0 0.0523776 0 -0.0257154)
(-0.0273718 -0.0326698 0 0.0481107 0 -0.0207388)
(-0.0257469 -0.0422875 0 0.0421835 0 -0.0164366)
(-0.0226527 -0.0500883 0 0.0353335 0 -0.0126807)
(-0.0184938 -0.0564852 0 0.0278451 0 -0.0093513)
(-0.0136129 -0.0611134 0 0.0199526 0 -0.0063397)
(-0.00832691 -0.0642293 0 0.0118744 0 -0.00354745)
(-0.0027536 -0.0657229 0 0.00363727 0 -0.000883664)
(0.00284994 -0.0656839 0 -0.00458775 0 0.00173781)
(0.00842933 -0.0641088 0 -0.012831 0 0.00440167)
(0.0137202 -0.0609302 0 -0.0209144 0 0.00719417)
(0.0186155 -0.0562539 0 -0.0288219 0 0.0102064)
(0.0227811 -0.0498427 0 -0.0363183 0 0.0135372)
(0.0258815 -0.042052 0 -0.0431768 0 0.0172953)
(0.0275142 -0.032497 0 -0.0491151 0 0.0216009)
(0.0267708 -0.0221265 0 -0.0533527 0 0.0265819)
(0.023538 -0.0108768 0 -0.055896 0 0.0323579)
(0.016207 -0.000416923 0 -0.0551859 0 0.0389789)
(-0.0214409 0.000738612 0 0.0656287 0 -0.0441878)
(-0.0276861 -0.0146652 0 0.0635741 0 -0.035888)
(-0.0304156 -0.029279 0 0.0593995 0 -0.028984)
(-0.0300129 -0.0412374 0 0.0532031 0 -0.0231902)
(-0.0278414 -0.0515569 0 0.0461146 0 -0.0182732)
(-0.0240835 -0.0595407 0 0.0381234 0 -0.0140399)
(-0.0195492 -0.0658859 0 0.0298776 0 -0.0103284)
(-0.0142611 -0.0703925 0 0.0212612 0 -0.00700013)
(-0.00870402 -0.0733871 0 0.0126381 0 -0.00393407)
(-0.00282689 -0.0748168 0 0.00384751 0 -0.00102062)
(0.00301386 -0.0747817 0 -0.00485667 0 0.00184281)
(0.00889046 -0.0732776 0 -0.0136472 0 0.00475678)
(0.0144402 -0.070224 0 -0.0222642 0 0.00782404)
(0.0197208 -0.0656705 0 -0.0308753 0 0.0111545)
(0.0242364 -0.0593004 0 -0.0391061 0 0.0148697)
(0.0279621 -0.051325 0 -0.047071 0 0.0191089)
(0.0301243 -0.041043 0 -0.0541585 0 0.0240341)
(0.0304606 -0.0291781 0 -0.0602989 0 0.0298383)
(0.0278237 -0.014655 0 -0.0645781 0 0.0367544)
(0.0215282 0.000590771 0 -0.0666064 0 0.0450782)
(-0.024844 -0.00769399 0 0.0734982 0 -0.0486542)
(-0.0316286 -0.0231752 0 0.070748 0 -0.0391195)
(-0.0337251 -0.0371234 0 0.0650975 0 -0.0313724)
(-0.0324113 -0.0486363 0 0.0573848 0 -0.0249735)
(-0.0295108 -0.0583734 0 0.0491159 0 -0.0196052)
(-0.0251959 -0.0659326 0 0.0402201 0 -0.0150242)
(-0.0202692 -0.0718716 0 0.0313052 0 -0.0110359)
(-0.0147071 -0.0761159 0 0.0221863 0 -0.00747919)
(-0.00893429 -0.0789172 0 0.0131501 0 -0.00421577)
(-0.00288757 -0.0802684 0 0.00401001 0 -0.00112244)
(0.00312221 -0.0802504 0 -0.00503757 0 0.00191536)
(0.00917259 -0.0788469 0 -0.0141822 0 0.00500964)
(0.0149373 -0.0760199 0 -0.0232125 0 0.0082752)
(0.0205102 -0.0717424 0 -0.032346 0 0.0118358)
(0.0254121 -0.0658072 0 -0.0412425 0 0.0158304)
(0.0297373 -0.0582519 0 -0.0501587 0 0.0204214)
(0.0325768 -0.0485546 0 -0.0583813 0 0.0258045)
(0.0338601 -0.0370916 0 -0.0660838 0 0.0322236)
(0.0316496 -0.0231706 0 -0.0716445 0 0.0399949)
(0.0247914 -0.00772292 0 -0.07435 0 0.0495586)
(-0.0252815 -0.00976148 0 0.0760938 0 -0.0508123)
(-0.0304955 -0.0313644 0 0.0712921 0 -0.0407966)
(-0.0328355 -0.0470786 0 0.065483 0 -0.0326475)
(-0.0312128 -0.0594778 0 0.057151 0 -0.0259383)
(-0.0287662 -0.0687732 0 0.0490984 0 -0.0203322)
(-0.0245252 -0.0761441 0 0.0400908 0 -0.0155656)
(-0.0199066 -0.0815819 0 0.0313349 0 -0.0114283)
(-0.0144411 -0.0855979 0 0.0221885 0 -0.00774734)
(-0.00883427 -0.088145 0 0.0132101 0 -0.00437582)
(-0.00284893 -0.0894132 0 0.00403233 0 -0.00118339)
(0.0030529 -0.0893988 0 -0.00500361 0 0.00195071)
(0.00904287 -0.0880765 0 -0.0141874 0 0.00514448)
(0.0146609 -0.0855124 0 -0.02318 0 0.00851906)
(0.0201326 -0.0814556 0 -0.0323381 0 0.0122056)
(0.0247575 -0.076036 0 -0.0411096 0 0.0163521)
(0.0289838 -0.0686439 0 -0.0501173 0 0.0211336)
(0.0314046 -0.0594179 0 -0.0581671 0 0.0267625)
(0.0329672 -0.0470036 0 -0.066473 0 0.0335058)
(0.0305743 -0.0313682 0 -0.0722783 0 0.0417041)
(0.0253422 -0.00975859 0 -0.0771333 0 0.0517912)
)
;

boundaryField
{
    cavity
    {
        type            mySigma;
    }
    lid
    {
        type            zeroGradient;
    }
    frontAndBack
    {
        type            empty;
    }
}


// ************************************************************************* //
