/*--------------------------------*- C++ -*----------------------------------*\
| =========                 |                                                 |
| \\      /  F ield         | foam-extend: Open Source CFD                    |
|  \\    /   O peration     | Version:  3.0                                   |
|   \\  /    A nd           | Web:         http://www.extend-project.de       |
|    \\/     M anipulation  |                                                 |
\*---------------------------------------------------------------------------*/
FoamFile
{
    version     2.0;
    format      ascii;
    class       volVectorField;
    location    "15";
    object      u;
}
// * * * * * * * * * * * * * * * * * * * * * * * * * * * * * * * * * * * * * //

dimensions      [0 0 0 0 0 0 0];

internalField   nonuniform List<vector> 
400
(
(-0.0452106 -0.0761806 0)
(-0.0852436 0.0552285 0)
(-0.235898 0.0573936 0)
(-0.251198 0.0563293 0)
(-0.37472 0.0486228 0)
(-0.37291 0.0358055 0)
(-0.467237 0.0285608 0)
(-0.447471 0.0196053 0)
(-0.519833 0.0133121 0)
(-0.479322 0.00732138 0)
(-0.535463 -0.000439985 0)
(-0.468798 -0.00427005 0)
(-0.51503 -0.0171493 0)
(-0.411994 -0.018258 0)
(-0.458038 -0.0443158 0)
(-0.297518 -0.0350738 0)
(-0.364962 -0.0957451 0)
(-0.0988238 -0.0289093 0)
(-0.252561 -0.138941 0)
(0.185527 0.11618 0)
(-0.103188 0.206774 0)
(-0.108991 0.136941 0)
(-0.214093 0.108979 0)
(-0.227157 0.0826929 0)
(-0.308907 0.0732291 0)
(-0.318994 0.0568356 0)
(-0.382357 0.0461168 0)
(-0.381129 0.0331068 0)
(-0.425602 0.0186549 0)
(-0.408545 0.00842231 0)
(-0.435598 -0.00997188 0)
(-0.399652 -0.0160613 0)
(-0.411953 -0.0395576 0)
(-0.354162 -0.0386538 0)
(-0.356123 -0.0700867 0)
(-0.275693 -0.057951 0)
(-0.27242 -0.102893 0)
(-0.184072 -0.0834482 0)
(-0.152841 -0.145327 0)
(-0.111005 -0.183101 0)
(-0.047202 0.136576 0)
(-0.0858986 0.164982 0)
(-0.176953 0.175509 0)
(-0.212481 0.150524 0)
(-0.284198 0.140821 0)
(-0.305671 0.109023 0)
(-0.357154 0.0913533 0)
(-0.364328 0.0628573 0)
(-0.396843 0.0415476 0)
(-0.39033 0.0173914 0)
(-0.404873 -0.00849906 0)
(-0.384382 -0.0279521 0)
(-0.38107 -0.0619289 0)
(-0.345701 -0.0744071 0)
(-0.323535 -0.12229 0)
(-0.272688 -0.119516 0)
(-0.22927 -0.187028 0)
(-0.165745 -0.149578 0)
(-0.0985781 -0.211499 0)
(-0.0365144 -0.147505 0)
(-0.0601221 0.340193 0)
(-0.0921028 0.267423 0)
(-0.167223 0.235813 0)
(-0.184511 0.189965 0)
(-0.23945 0.166631 0)
(-0.2495 0.129883 0)
(-0.28987 0.105035 0)
(-0.292446 0.0729204 0)
(-0.317829 0.0449205 0)
(-0.311856 0.0165483 0)
(-0.321847 -0.0157055 0)
(-0.307269 -0.0398452 0)
(-0.30167 -0.0781078 0)
(-0.280227 -0.0962599 0)
(-0.258045 -0.143045 0)
(-0.235085 -0.152304 0)
(-0.190486 -0.209822 0)
(-0.177792 -0.214023 0)
(-0.0864031 -0.274577 0)
(-0.0883217 -0.318035 0)
(-0.0394134 0.289037 0)
(-0.0787536 0.27105 0)
(-0.144494 0.267683 0)
(-0.173682 0.222669 0)
(-0.224412 0.205847 0)
(-0.24207 0.159469 0)
(-0.277457 0.134373 0)
(-0.285113 0.0908439 0)
(-0.305331 0.0610077 0)
(-0.304524 0.0214027 0)
(-0.309523 -0.0130844 0)
(-0.301323 -0.0481852 0)
(-0.290197 -0.0890207 0)
(-0.275606 -0.118115 0)
(-0.246001 -0.167498 0)
(-0.226823 -0.187109 0)
(-0.173906 -0.244321 0)
(-0.153988 -0.253551 0)
(-0.0709714 -0.30084 0)
(-0.0520255 -0.322083 0)
(-0.0336959 0.45854 0)
(-0.0665163 0.37305 0)
(-0.12188 0.330824 0)
(-0.138496 0.269913 0)
(-0.179549 0.235067 0)
(-0.186773 0.182964 0)
(-0.215331 0.148116 0)
(-0.216348 0.100808 0)
(-0.232948 0.0643339 0)
(-0.229352 0.0207173 0)
(-0.233841 -0.0189444 0)
(-0.226971 -0.0592253 0)
(-0.218441 -0.103889 0)
(-0.210087 -0.140511 0)
(-0.186202 -0.19188 0)
(-0.179044 -0.224394 0)
(-0.134273 -0.282647 0)
(-0.131279 -0.316842 0)
(-0.0555621 -0.376461 0)
(-0.050971 -0.440911 0)
(-0.0335537 0.389419 0)
(-0.0658298 0.357742 0)
(-0.117489 0.339248 0)
(-0.137541 0.280194 0)
(-0.175416 0.254073 0)
(-0.185976 0.19523 0)
(-0.211085 0.163931 0)
(-0.215062 0.108431 0)
(-0.228509 0.0739695 0)
(-0.228212 0.0222396 0)
(-0.230282 -0.0155338 0)
(-0.227185 -0.063658 0)
(-0.216825 -0.10598 0)
(-0.21163 -0.150415 0)
(-0.186162 -0.19859 0)
(-0.178991 -0.239043 0)
(-0.134191 -0.292068 0)
(-0.124688 -0.332184 0)
(-0.0573304 -0.381069 0)
(-0.0417424 -0.428516 0)
(-0.0229423 0.55808 0)
(-0.0410835 0.45739 0)
(-0.0841267 0.402534 0)
(-0.0925893 0.327819 0)
(-0.123154 0.283493 0)
(-0.124911 0.218629 0)
(-0.1446 0.177192 0)
(-0.142444 0.118213 0)
(-0.153103 0.0774493 0)
(-0.149414 0.0224477 0)
(-0.151668 -0.0200259 0)
(-0.148242 -0.0727376 0)
(-0.141122 -0.119502 0)
(-0.139297 -0.171218 0)
(-0.120036 -0.224555 0)
(-0.120699 -0.276371 0)
(-0.0847944 -0.336943 0)
(-0.0877271 -0.393657 0)
(-0.0316611 -0.459352 0)
(-0.0323121 -0.539916 0)
(-0.0316478 0.453582 0)
(-0.0506699 0.416994 0)
(-0.0936443 0.390231 0)
(-0.101415 0.319043 0)
(-0.129115 0.28633 0)
(-0.130376 0.216656 0)
(-0.1467 0.181451 0)
(-0.145217 0.116921 0)
(-0.153262 0.0809197 0)
(-0.151827 0.0207796 0)
(-0.152784 -0.0167358 0)
(-0.152972 -0.0742349 0)
(-0.145763 -0.114957 0)
(-0.147787 -0.171524 0)
(-0.129105 -0.217206 0)
(-0.131693 -0.274289 0)
(-0.096913 -0.325038 0)
(-0.097169 -0.3853 0)
(-0.0435462 -0.436456 0)
(-0.0357843 -0.492438 0)
(-0.0166253 0.64053 0)
(-0.0144903 0.519758 0)
(-0.0480247 0.453271 0)
(-0.0434205 0.363269 0)
(-0.0637709 0.312454 0)
(-0.0571914 0.236231 0)
(-0.0680593 0.192053 0)
(-0.0611243 0.124796 0)
(-0.0663645 0.084075 0)
(-0.0613179 0.0219828 0)
(-0.0625673 -0.0188754 0)
(-0.0611823 -0.0797541 0)
(-0.0575549 -0.124691 0)
(-0.0609281 -0.187878 0)
(-0.0491515 -0.240659 0)
(-0.0576972 -0.308572 0)
(-0.0329534 -0.371485 0)
(-0.0461158 -0.447036 0)
(-0.00583933 -0.520737 0)
(-0.0212973 -0.619229 0)
(-0.0320361 0.484809 0)
(-0.0348669 0.446067 0)
(-0.0703385 0.418588 0)
(-0.0619338 0.334625 0)
(-0.0787037 0.300069 0)
(-0.0676049 0.220973 0)
(-0.07434 0.185429 0)
(-0.0654374 0.115281 0)
(-0.0680545 0.0811674 0)
(-0.0643714 0.0170358 0)
(-0.0652054 -0.0168242 0)
(-0.0682837 -0.0792042 0)
(-0.0662683 -0.115178 0)
(-0.0761307 -0.179903 0)
(-0.0668977 -0.220428 0)
(-0.0815688 -0.290492 0)
(-0.0582045 -0.336643 0)
(-0.0727821 -0.412445 0)
(-0.0291592 -0.461298 0)
(-0.0342609 -0.519568 0)
(-0.00894993 0.707548 0)
(0.0166781 0.558534 0)
(-0.00518982 0.480386 0)
(0.0153597 0.371654 0)
(0.00796702 0.318172 0)
(0.0248425 0.231944 0)
(0.0246689 0.189973 0)
(0.0374753 0.118609 0)
(0.0381689 0.0831047 0)
(0.0453009 0.0192289 0)
(0.0442514 -0.014879 0)
(0.0443367 -0.0786154 0)
(0.042325 -0.116788 0)
(0.0343393 -0.187209 0)
(0.0352334 -0.235212 0)
(0.0183206 -0.317281 0)
(0.0284846 -0.380319 0)
(0.00193609 -0.476139 0)
(0.026076 -0.559306 0)
(-0.0102635 -0.682673 0)
(-0.0355555 0.477174 0)
(-0.0185972 0.439651 0)
(-0.0442176 0.419335 0)
(-0.0140022 0.321358 0)
(-0.0153933 0.290618 0)
(0.0117717 0.20437 0)
(0.0175294 0.172916 0)
(0.0357329 0.101914 0)
(0.0394446 0.0734746 0)
(0.0463122 0.0110838 0)
(0.0447363 -0.0157419 0)
(0.0391251 -0.0771731 0)
(0.0331722 -0.1051 0)
(0.0146745 -0.172756 0)
(0.00963822 -0.204391 0)
(-0.0204134 -0.28376 0)
(-0.0135453 -0.320313 0)
(-0.0489893 -0.410112 0)
(-0.0148709 -0.449168 0)
(-0.0382664 -0.503785 0)
(0.00516373 0.761809 0)
(0.0580442 0.567952 0)
(0.0566245 0.475945 0)
(0.0936647 0.342909 0)
(0.10571 0.292501 0)
(0.132122 0.19916 0)
(0.145926 0.166162 0)
(0.163518 0.0968575 0)
(0.171054 0.0726841 0)
(0.179783 0.0140916 0)
(0.178293 -0.00755665 0)
(0.177769 -0.0669344 0)
(0.167895 -0.0922545 0)
(0.157163 -0.163624 0)
(0.142665 -0.20012 0)
(0.119614 -0.294133 0)
(0.108289 -0.351823 0)
(0.068718 -0.474909 0)
(0.0692112 -0.57011 0)
(0.00707521 -0.735862 0)
(-0.0511936 0.414045 0)
(0.000814188 0.385268 0)
(-0.00772067 0.383204 0)
(0.0538753 0.272251 0)
(0.077244 0.252262 0)
(0.123348 0.164316 0)
(0.146324 0.141694 0)
(0.173924 0.0769687 0)
(0.185437 0.0573856 0)
(0.195653 0.0040105 0)
(0.192975 -0.0135849 0)
(0.186104 -0.0666545 0)
(0.169531 -0.084412 0)
(0.143955 -0.147481 0)
(0.117517 -0.166846 0)
(0.0708661 -0.24943 0)
(0.0486397 -0.26951 0)
(-0.0164708 -0.371149 0)
(0.000154029 -0.387631 0)
(-0.0561878 -0.427554 0)
(0.041716 0.812296 0)
(0.115085 0.525759 0)
(0.158974 0.423126 0)
(0.2022 0.258069 0)
(0.244316 0.223153 0)
(0.271297 0.130242 0)
(0.301712 0.115753 0)
(0.317759 0.0579204 0)
(0.332126 0.0511177 0)
(0.339466 0.00670504 0)
(0.337295 0.00211511 0)
(0.336855 -0.0433949 0)
(0.318549 -0.0500526 0)
(0.309723 -0.111596 0)
(0.276622 -0.127071 0)
(0.256209 -0.225335 0)
(0.213396 -0.264608 0)
(0.17194 -0.426549 0)
(0.128014 -0.530493 0)
(0.0442548 -0.791962 0)
(-0.0823552 0.257312 0)
(0.0485768 0.264893 0)
(0.0896147 0.295766 0)
(0.190598 0.18701 0)
(0.255583 0.183337 0)
(0.3157 0.107115 0)
(0.360144 0.095416 0)
(0.391211 0.0467327 0)
(0.411104 0.0358352 0)
(0.422328 -0.00101904 0)
(0.419387 -0.0108672 0)
(0.413873 -0.0478333 0)
(0.387369 -0.0572493 0)
(0.362021 -0.105561 0)
(0.309045 -0.113391 0)
(0.254499 -0.186301 0)
(0.179758 -0.185377 0)
(0.0840351 -0.285912 0)
(0.0378776 -0.260078 0)
(-0.0831384 -0.255351 0)
(0.151588 0.846182 0)
(0.162214 0.355689 0)
(0.304895 0.281267 0)
(0.307291 0.0921993 0)
(0.387361 0.0981185 0)
(0.389542 0.0257933 0)
(0.432676 0.0403516 0)
(0.434322 0.00706961 0)
(0.452412 0.0200882 0)
(0.453533 -0.00150968 0)
(0.451648 0.0106049 0)
(0.452561 -0.0113719 0)
(0.430886 0.00175997 0)
(0.431998 -0.0333466 0)
(0.386474 -0.0196715 0)
(0.387748 -0.0961952 0)
(0.310045 -0.0943147 0)
(0.306559 -0.28482 0)
(0.177637 -0.363419 0)
(0.13995 -0.837285 0)
(0.11197 -0.0564388 0)
(0.300083 0.108755 0)
(0.506062 0.150784 0)
(0.606721 0.104777 0)
(0.7155 0.101317 0)
(0.761754 0.0619787 0)
(0.812938 0.0507699 0)
(0.831784 0.0271046 0)
(0.850768 0.0166984 0)
(0.856504 -0.000206744 0)
(0.853427 -0.00988389 0)
(0.850824 -0.0270908 0)
(0.824956 -0.0367486 0)
(0.811331 -0.0612418 0)
(0.750207 -0.069274 0)
(0.71357 -0.110023 0)
(0.587848 -0.104356 0)
(0.504407 -0.153659 0)
(0.274239 -0.0935986 0)
(0.120441 0.0621821 0)
(0.269975 0.434228 0)
(0.107844 -0.0367571 0)
(0.342098 -0.0252624 0)
(0.233499 -0.117259 0)
(0.329753 -0.0569687 0)
(0.277968 -0.0716515 0)
(0.320194 -0.0296957 0)
(0.299136 -0.0307803 0)
(0.316598 -0.00467685 0)
(0.311213 -0.00423182 0)
(0.312199 0.0161877 0)
(0.317529 0.0169762 0)
(0.302079 0.0410939 0)
(0.321845 0.0412219 0)
(0.282019 0.0778824 0)
(0.330398 0.0659571 0)
(0.237903 0.114648 0)
(0.340645 0.0286423 0)
(0.112858 0.0204905 0)
(0.267526 -0.44263 0)
)
;

boundaryField
{
    cavity
    {
        type            myImplicitVelocity;
    }
    lid
    {
        type            fixedValue;
        value           uniform (1 0 0);
    }
    frontAndBack
    {
        type            empty;
    }
}


// ************************************************************************* //
