/*--------------------------------*- C++ -*----------------------------------*\
| =========                 |                                                 |
| \\      /  F ield         | foam-extend: Open Source CFD                    |
|  \\    /   O peration     | Version:  3.0                                   |
|   \\  /    A nd           | Web:         http://www.extend-project.de       |
|    \\/     M anipulation  |                                                 |
\*---------------------------------------------------------------------------*/
FoamFile
{
    version     2.0;
    format      ascii;
    class       volSymmTensorField;
    location    "4";
    object      sigma;
}
// * * * * * * * * * * * * * * * * * * * * * * * * * * * * * * * * * * * * * //

dimensions      [0 0 0 0 0 0 0];

internalField   nonuniform List<symmTensor> 
7680
(
(-0.167138 -0.00227575 -3.45177e-21 0.166515 1.54361e-20 0.000623359)
(-0.167495 -0.00272245 4.02038e-21 0.165735 7.01871e-20 0.00176015)
(-0.165925 -0.00302621 4.06984e-21 0.163103 2.27828e-21 0.00282273)
(-0.163011 -0.00322948 1.80038e-21 0.159192 -2.79777e-21 0.00381945)
(-0.159231 -0.00335744 -4.41538e-22 0.154474 1.1904e-20 0.00475694)
(-0.154879 -0.00343085 -1.92834e-21 0.149239 2.44103e-20 0.00564021)
(-0.150186 -0.00346402 5.9828e-21 0.143713 1.27659e-20 0.00647322)
(-0.145295 -0.00346756 -1.62318e-21 0.138036 -1.39176e-20 0.00725881)
(-0.140323 -0.00344949 3.60547e-21 0.132324 1.45302e-20 0.00799917)
(-0.135338 -0.00341561 5.58121e-21 0.126643 -9.01938e-21 0.00869561)
(-0.130399 -0.00337054 -1.08528e-21 0.12105 -6.82536e-21 0.00934905)
(-0.125538 -0.00331753 5.96301e-21 0.115578 -5.57768e-22 0.00995967)
(-0.120782 -0.00325927 9.82992e-21 0.110254 -2.76507e-20 0.0105274)
(-0.116143 -0.00319769 -6.50977e-21 0.105092 -1.24779e-21 0.0110516)
(-0.111635 -0.00313433 -1.78709e-20 0.100103 6.1574e-21 0.0115315)
(-0.107259 -0.00307039 -1.80363e-21 0.0952936 3.20892e-21 0.0119656)
(-0.10302 -0.00300674 -3.05924e-21 0.0906673 -5.62324e-21 0.0123525)
(-0.0989149 -0.00294417 -1.12184e-20 0.0862248 3.03879e-20 0.0126901)
(-0.0949433 -0.00288316 5.17674e-21 0.0819667 1.12917e-20 0.0129766)
(-0.0911015 -0.00282426 -6.11132e-21 0.0778923 2.95788e-20 0.0132093)
(-0.0873859 -0.00276774 -2.46322e-20 0.0740003 4.40869e-21 0.0133857)
(-0.0837927 -0.00271403 -1.88878e-20 0.0702901 1.6132e-20 0.0135026)
(-0.0803171 -0.00266328 -2.23667e-20 0.0667598 1.24018e-20 0.0135572)
(-0.0769558 -0.00261587 -1.04424e-20 0.06341 3.58052e-20 0.0135459)
(-0.0737037 -0.0025719 -1.89597e-20 0.0602386 -9.65577e-21 0.0134652)
(-0.0705588 -0.00253173 -3.09875e-20 0.0572478 2.2803e-20 0.013311)
(-0.0675156 -0.00249543 -1.45319e-20 0.054436 3.2523e-20 0.0130796)
(-0.0645738 -0.0024634 -1.68807e-21 0.0518073 3.0075e-20 0.0127664)
(-0.0617282 -0.00243567 -1.2594e-20 0.0493608 1.56848e-20 0.0123674)
(-0.0589803 -0.00241267 -2.38331e-20 0.0471028 6.14377e-21 0.0118775)
(-0.0563256 -0.00239442 -1.6331e-20 0.0450331 -5.24271e-21 0.0112925)
(-0.0537674 -0.00238142 -9.01894e-21 0.0431606 -8.81853e-21 0.0106069)
(-0.0513022 -0.00237367 9.46211e-22 0.041486 -1.41316e-20 0.00981618)
(-0.0489357 -0.00237172 -6.26613e-21 0.0400209 4.40127e-21 0.00891483)
(-0.0466653 -0.0023756 -1.79816e-20 0.0387672 5.93586e-22 0.00789805)
(-0.0444996 -0.00238606 -2.75193e-20 0.0377394 7.61016e-21 0.00676024)
(-0.0424368 -0.00240228 -1.67987e-20 0.0369403 -2.74201e-20 0.00549651)
(-0.0404921 -0.00243032 3.4274e-21 0.0363908 4.56768e-24 0.00410135)
(-0.0386473 -0.00244389 -1.29571e-20 0.0360773 -9.80938e-21 0.00256996)
(-0.0370001 -0.00254274 -5.8059e-21 0.036103 -2.99326e-20 0.000897098)
(-0.16702 -0.00735375 1.65679e-20 0.166397 -8.27852e-21 0.000622712)
(-0.167271 -0.00856775 6.7882e-22 0.165513 4.79468e-20 0.00175832)
(-0.165626 -0.00936875 -2.16175e-20 0.162806 -3.87045e-20 0.0028198)
(-0.162657 -0.00988067 6.40016e-21 0.158842 2.07343e-20 0.00381549)
(-0.158838 -0.0101772 2.09793e-20 0.154086 -2.9146e-20 0.004752)
(-0.15446 -0.0103181 -1.11469e-21 0.148826 1.84346e-20 0.00563434)
(-0.149749 -0.0103451 -1.063e-20 0.143282 6.34728e-21 0.00646647)
(-0.144847 -0.0102886 -6.97078e-21 0.137595 5.6906e-21 0.00725123)
(-0.139868 -0.0101719 4.1868e-21 0.131877 8.3112e-20 0.0079908)
(-0.134881 -0.0100116 5.80997e-21 0.126194 4.2603e-20 0.0086865)
(-0.129943 -0.00982082 6.42779e-21 0.120603 -1.26558e-20 0.00933923)
(-0.125083 -0.00960901 -5.6035e-21 0.115134 3.35274e-21 0.00994918)
(-0.120331 -0.00938365 2.43736e-21 0.109815 5.08711e-21 0.0105163)
(-0.115698 -0.00915032 1.08329e-20 0.104658 -7.33457e-21 0.0110399)
(-0.111196 -0.00891328 -5.90336e-21 0.0996766 -2.16373e-20 0.0115193)
(-0.106827 -0.00867595 -1.37837e-20 0.0948738 -3.73483e-20 0.0119528)
(-0.102594 -0.0084407 1.2071e-20 0.0902549 4.12403e-20 0.0123393)
(-0.0984962 -0.00820977 1.34567e-20 0.0858196 -2.46155e-20 0.0126766)
(-0.0945316 -0.00798443 -4.90464e-21 0.0815689 5.98141e-20 0.0129627)
(-0.0906966 -0.00776622 -1.50582e-20 0.0775016 -7.38341e-21 0.013195)
(-0.0869877 -0.00755577 -3.32561e-20 0.0736165 1.90471e-20 0.0133712)
(-0.0834008 -0.0073543 -6.68314e-21 0.0699129 -6.81703e-21 0.013488)
(-0.0799312 -0.00716205 1.35882e-21 0.0663888 2.74804e-20 0.0135425)
(-0.0765757 -0.00698007 -3.30219e-20 0.0630446 -3.19007e-20 0.0135311)
(-0.0733288 -0.00680842 -3.74209e-20 0.0598784 1.73475e-20 0.0134504)
(-0.0701885 -0.00664813 1.52396e-20 0.0568922 3.56276e-22 0.0132963)
(-0.0671496 -0.00649912 -5.76951e-21 0.0540844 3.38714e-20 0.0130652)
(-0.0642114 -0.00636247 -1.4586e-20 0.0514591 -3.26625e-22 0.0127523)
(-0.0613688 -0.00623808 -2.89978e-20 0.0490152 8.5301e-21 0.0123536)
(-0.0586233 -0.00612711 -2.42399e-20 0.046759 1.52916e-20 0.0118643)
(-0.0559703 -0.00602944 -2.92331e-20 0.0446904 1.19796e-20 0.0112798)
(-0.0534131 -0.0059464 -2.93637e-20 0.0428181 7.98499e-21 0.010595)
(-0.050948 -0.00587789 1.55766e-20 0.0411429 -8.28895e-21 0.00980509)
(-0.048581 -0.00582542 1.58736e-20 0.0396762 -3.48417e-20 0.00890473)
(-0.0463091 -0.00578893 -1.42956e-20 0.03842 8.20866e-21 0.00788907)
(-0.0441411 -0.00577045 -5.02471e-20 0.0373885 -4.06516e-21 0.00675252)
(-0.0420751 -0.00576815 -4.06735e-20 0.0365849 -8.2198e-21 0.00549022)
(-0.0401255 -0.00579498 9.43632e-21 0.0360289 9.86068e-21 0.00409664)
(-0.038278 -0.00580014 -5.38258e-20 0.035711 -6.46436e-21 0.002567)
(-0.0366167 -0.0059598 1.06576e-20 0.0357206 1.11811e-20 0.000896067)
(-0.166772 -0.0124312 2.77771e-20 0.166151 7.23163e-21 0.000621394)
(-0.166817 -0.0143964 -5.70798e-21 0.165062 4.69819e-20 0.0017546)
(-0.165024 -0.0156828 -3.60672e-21 0.16221 -3.51558e-20 0.00281383)
(-0.161949 -0.0164945 9.48702e-21 0.158141 4.4105e-20 0.00380741)
(-0.158055 -0.0169532 4.85824e-21 0.153313 -4.11892e-20 0.00474195)
(-0.153625 -0.0171571 2.65017e-20 0.148003 -1.29468e-22 0.00562243)
(-0.14888 -0.0171746 4.22023e-21 0.142428 -1.81644e-20 0.0064528)
(-0.143958 -0.017056 5.2855e-20 0.136722 -5.85227e-21 0.0072359)
(-0.138969 -0.0168392 3.74286e-20 0.130995 2.63409e-20 0.0079739)
(-0.133978 -0.0165517 -5.16184e-20 0.12531 -2.48381e-20 0.00866811)
(-0.129042 -0.0162148 -2.62428e-20 0.119722 -3.18475e-20 0.00931944)
(-0.124189 -0.0158442 1.88211e-20 0.114261 2.39579e-21 0.00992807)
(-0.119446 -0.015452 5.20436e-21 0.108952 -3.80443e-21 0.010494)
(-0.114825 -0.0150474 -2.62546e-20 0.103808 -6.09817e-21 0.0110164)
(-0.110336 -0.0146373 -4.76858e-20 0.0988411 6.70556e-20 0.0114947)
(-0.105981 -0.0142272 4.33297e-20 0.0940535 3.00429e-20 0.0119273)
(-0.101763 -0.0138212 1.11169e-20 0.0894502 8.14813e-20 0.0123129)
(-0.0976802 -0.0134227 7.41728e-22 0.0850308 4.41732e-20 0.0126494)
(-0.0937307 -0.0130338 3.70506e-20 0.0807958 -3.77327e-20 0.0129349)
(-0.0899106 -0.012657 -4.36197e-20 0.0767439 2.67163e-20 0.0131667)
(-0.0862161 -0.0122935 -2.09601e-20 0.0728737 -4.09558e-21 0.0133424)
(-0.0826432 -0.0119449 -1.60299e-20 0.0691844 2.46491e-20 0.0134589)
(-0.0791869 -0.0116119 -3.94605e-20 0.0656737 -3.24906e-21 0.0135132)
(-0.0758438 -0.0112959 -2.54406e-20 0.0623421 2.50797e-20 0.0135018)
(-0.0726086 -0.0109972 9.37979e-21 0.0591874 6.94641e-20 0.0134212)
(-0.069479 -0.0107173 -1.47008e-20 0.0562116 5.84536e-20 0.0132674)
(-0.0664497 -0.010456 -4.02727e-21 0.053413 6.04964e-20 0.0130367)
(-0.06352 -0.0102151 -2.19685e-20 0.0507956 2.21941e-20 0.0127244)
(-0.0606849 -0.00999434 7.96529e-21 0.0483583 1.9796e-20 0.0123266)
(-0.0579455 -0.00979556 -1.48662e-20 0.0461072 -5.33141e-21 0.0118383)
(-0.0552972 -0.00961857 -1.5906e-20 0.0440422 -1.17367e-20 0.011255)
(-0.0527434 -0.00946546 -3.15366e-20 0.0421718 6.51915e-20 0.0105716)
(-0.0502804 -0.00933605 -5.46544e-20 0.0404969 3.48172e-20 0.00978348)
(-0.0479136 -0.0092328 9.40624e-21 0.0390286 -1.13631e-19 0.00888507)
(-0.0456405 -0.00915555 1.22359e-20 0.0377689 4.76573e-20 0.00787162)
(-0.0434694 -0.00910762 -4.45558e-20 0.0367319 -2.41896e-20 0.00673756)
(-0.0413988 -0.00908616 -1.01004e-20 0.0359208 -2.03875e-21 0.00547803)
(-0.0394412 -0.0091109 7.17959e-23 0.0353537 3.80472e-20 0.00408752)
(-0.0375895 -0.00910713 -1.67698e-20 0.0350283 -1.62007e-21 0.00256127)
(-0.0359045 -0.00932562 -1.4378e-20 0.0350104 2.38821e-20 0.000894055)
(-0.166394 -0.0175086 4.31476e-20 0.165775 -5.16221e-21 0.000619406)
(-0.166133 -0.0201971 -3.2076e-21 0.164384 -3.92374e-20 0.00174899)
(-0.164122 -0.0219492 -3.43229e-20 0.161317 1.11262e-19 0.00280484)
(-0.160891 -0.0230464 3.27524e-20 0.157095 -1.78903e-19 0.00379525)
(-0.156887 -0.0236569 -9.76383e-21 0.152161 2.28369e-20 0.00472681)
(-0.152382 -0.0239163 1.46092e-20 0.146778 3.91975e-20 0.00560448)
(-0.147588 -0.0239192 -1.3382e-20 0.141156 1.1504e-20 0.00643221)
(-0.142635 -0.0237348 2.4907e-20 0.135423 -3.82146e-21 0.0072128)
(-0.137631 -0.0234157 1.42152e-20 0.129683 -5.98732e-20 0.00794844)
(-0.132636 -0.0229997 -2.31129e-20 0.123996 -5.30051e-20 0.00864042)
(-0.127704 -0.0225162 1.88841e-20 0.118415 7.65101e-21 0.00928965)
(-0.122862 -0.0219868 1.33357e-20 0.112965 -7.74852e-21 0.00989632)
(-0.118134 -0.0214282 8.92575e-21 0.107674 -6.91109e-20 0.0104604)
(-0.11353 -0.020853 6.25292e-20 0.102549 6.02823e-20 0.0109811)
(-0.109062 -0.0202709 2.2329e-20 0.0976039 7.26775e-20 0.0114578)
(-0.104729 -0.0196893 -1.71797e-20 0.0928395 1.55788e-19 0.011889)
(-0.100534 -0.0191136 5.58766e-20 0.0882602 -6.99089e-20 0.0122733)
(-0.0964737 -0.0185488 -9.15447e-20 0.083865 7.52501e-20 0.0126087)
(-0.0925473 -0.0179978 -1.56975e-20 0.0796541 -3.24324e-20 0.0128932)
(-0.0887499 -0.0174638 1.77379e-20 0.0756257 3.26784e-20 0.0131242)
(-0.0850777 -0.0169484 -3.51275e-20 0.0717784 -3.6331e-20 0.0132993)
(-0.0815261 -0.016454 -3.16398e-21 0.0681108 3.26499e-22 0.0134153)
(-0.0780902 -0.0159813 -1.84845e-21 0.0646208 5.07544e-20 0.0134694)
(-0.0747664 -0.0155325 2.94329e-20 0.0613084 6.82823e-20 0.013458)
(-0.0715491 -0.0151077 1.11176e-20 0.0581715 -3.73258e-21 0.0133776)
(-0.0684361 -0.014709 2.3118e-20 0.0552118 3.39568e-20 0.0132243)
(-0.0654219 -0.0143363 -2.45319e-20 0.0524276 6.72691e-20 0.0129943)
(-0.0625056 -0.0139917 -5.11305e-20 0.0498226 5.93478e-20 0.012683)
(-0.0596822 -0.0136751 -4.79656e-20 0.0473958 1.41915e-21 0.0122864)
(-0.0569526 -0.0133888 -6.0797e-20 0.045153 7.33787e-20 0.0117996)
(-0.0543123 -0.0131327 4.72858e-20 0.0430941 5.92584e-20 0.0112182)
(-0.0517644 -0.0129096 5.34743e-20 0.0412273 4.12311e-20 0.010537)
(-0.049305 -0.0127191 -1.73808e-19 0.0395536 9.30634e-20 0.00975141)
(-0.0469396 -0.0125647 -8.06322e-21 0.0380837 7.15426e-21 0.00885591)
(-0.0446655 -0.0124462 9.2573e-20 0.0368197 7.8346e-20 0.00784576)
(-0.0424906 -0.012368 -1.05173e-19 0.0357752 3.21398e-20 0.0067154)
(-0.040414 -0.0123265 2.37703e-20 0.034954 6.12181e-20 0.00545999)
(-0.0384454 -0.0123477 1.88782e-20 0.0343714 5.66814e-20 0.00407405)
(-0.0365881 -0.0123341 -6.80751e-20 0.0340353 -2.4147e-20 0.00255282)
(-0.03487 -0.0126081 -2.33229e-21 0.0339789 -6.74333e-20 0.000891106)
(-0.165885 -0.0225836 2.81503e-20 0.165268 -3.86763e-20 0.000616757)
(-0.165222 -0.0259589 8.47787e-20 0.163481 -1.14267e-19 0.00174151)
(-0.162925 -0.0281496 -4.53274e-20 0.160133 -1.33173e-19 0.00279285)
(-0.159489 -0.0295122 -5.19453e-20 0.15571 2.16612e-20 0.00377903)
(-0.155342 -0.0302601 1.29792e-19 0.150635 4.32945e-20 0.00470661)
(-0.150739 -0.0305647 4.81805e-20 0.145158 -1.49003e-19 0.00558053)
(-0.14588 -0.0305457 -1.1695e-20 0.139475 -7.44383e-20 0.00640472)
(-0.140889 -0.0302908 5.18311e-21 0.133707 1.39629e-20 0.00718197)
(-0.135865 -0.0298662 3.74254e-21 0.127951 3.54425e-20 0.00791446)
(-0.130866 -0.0293199 -1.97581e-20 0.122263 5.02608e-20 0.00860346)
(-0.12594 -0.0286891 1.1559e-20 0.11669 -5.15062e-20 0.0092499)
(-0.121112 -0.028001 -4.23349e-20 0.111258 2.19597e-20 0.00985395)
(-0.116404 -0.0272767 5.03051e-20 0.105989 -3.94237e-20 0.0104156)
(-0.111825 -0.0265321 8.69614e-20 0.100891 3.13459e-20 0.0109341)
(-0.107384 -0.0257792 5.1191e-20 0.0959749 5.19456e-20 0.0114087)
(-0.10308 -0.0250276 -5.26983e-20 0.0912418 6.26567e-20 0.011838)
(-0.0989153 -0.0242842 -3.24002e-20 0.0866947 -1.08097e-19 0.0122206)
(-0.0948864 -0.023555 4.67247e-20 0.0823319 4.66534e-20 0.0125545)
(-0.090991 -0.0228436 -2.384e-20 0.0781533 6.28968e-20 0.0128377)
(-0.0872241 -0.0221543 -3.63976e-20 0.0741565 6.87394e-21 0.0130676)
(-0.0835817 -0.0214888 -7.09194e-20 0.0703397 1.29803e-19 0.0132419)
(-0.0800588 -0.0208504 4.5454e-20 0.0667014 1.41853e-19 0.0133574)
(-0.0766504 -0.0202398 3.24924e-20 0.0632391 2.20255e-20 0.0134112)
(-0.0733524 -0.0196597 -5.36039e-20 0.0599526 -2.86742e-20 0.0133998)
(-0.0701594 -0.0191102 -2.89024e-20 0.0568397 1.0957e-19 0.0133197)
(-0.0670687 -0.018594 7.15807e-20 0.0539018 4.10061e-20 0.013167)
(-0.0640749 -0.0181108 6.0816e-20 0.051137 1.73866e-20 0.0129379)
(-0.0611768 -0.0176636 -7.06209e-20 0.0485489 7.17068e-20 0.0126279)
(-0.0583694 -0.0172518 2.53424e-20 0.0461364 6.67802e-20 0.012233)
(-0.0556533 -0.0168786 4.41485e-20 0.0439051 1.21415e-19 0.0117482)
(-0.0530241 -0.0165437 -4.10491e-20 0.0418547 4.0666e-20 0.0111694)
(-0.0504843 -0.0162505 6.25426e-20 0.0399933 -3.33444e-20 0.0104911)
(-0.0480305 -0.0159989 -5.04199e-20 0.0383216 3.33994e-20 0.00970885)
(-0.0456674 -0.0157929 -4.75175e-20 0.0368502 8.37228e-20 0.00881723)
(-0.0433926 -0.0156324 7.24523e-20 0.0355811 1.01079e-19 0.00781146)
(-0.0412135 -0.015523 -3.11749e-20 0.0345275 -3.69955e-20 0.00668601)
(-0.0391296 -0.01546 2.72685e-20 0.0336935 -2.54218e-20 0.00543607)
(-0.0371472 -0.015476 -6.6134e-20 0.033091 -1.16751e-21 0.00405618)
(-0.0352829 -0.0154512 -1.82939e-19 0.0327413 -2.74026e-20 0.00254161)
(-0.0335228 -0.0157765 1.36038e-20 0.0326356 -3.88495e-20 0.000887181)
(-0.165243 -0.0276568 1.73469e-20 0.16463 -2.10332e-20 0.000613445)
(-0.164088 -0.0316706 -7.06895e-20 0.162356 1.54589e-19 0.00173216)
(-0.16144 -0.0342656 8.33321e-20 0.158662 -1.02206e-19 0.00277786)
(-0.157751 -0.0358685 8.46877e-20 0.153993 1.15997e-19 0.00375875)
(-0.153429 -0.0367356 -1.0625e-19 0.148748 -2.62481e-21 0.00468135)
(-0.148706 -0.0370723 -4.88722e-20 0.143155 6.16992e-21 0.00555059)
(-0.143769 -0.0370224 8.17456e-20 0.137399 5.82333e-20 0.00637036)
(-0.138732 -0.0366908 9.80125e-20 0.131588 1.9351e-21 0.00714344)
(-0.133685 -0.0361569 5.15907e-20 0.125813 -5.15453e-20 0.00787199)
(-0.12868 -0.0354782 -1.05333e-19 0.120123 1.21725e-19 0.00855729)
(-0.123763 -0.0346992 -2.03483e-20 0.114563 1.30832e-19 0.00920024)
(-0.118953 -0.0338525 8.08717e-22 0.109152 1.1499e-19 0.00980102)
(-0.11427 -0.0329633 -1.00542e-20 0.103911 2.11549e-21 0.0103596)
(-0.109722 -0.0320507 1.58401e-19 0.0988467 -7.69366e-20 0.0108753)
(-0.105315 -0.0311289 8.16372e-20 0.0939676 2.90933e-20 0.0113473)
(-0.101048 -0.0302095 -9.50837e-20 0.0892735 -5.79236e-20 0.0117743)
(-0.0969213 -0.0293005 -1.32306e-20 0.0847665 1.3272e-19 0.0121548)
(-0.0929311 -0.0284092 5.3695e-20 0.0804443 8.10262e-20 0.0124868)
(-0.0890744 -0.0275399 -3.75104e-20 0.076306 7.17805e-20 0.0127684)
(-0.0853457 -0.0266976 8.18154e-20 0.0723486 6.92686e-20 0.0129971)
(-0.0817404 -0.0258845 7.30165e-20 0.06857 1.62948e-19 0.0131704)
(-0.0782534 -0.0251042 -8.91242e-20 0.0649682 5.36662e-20 0.0132852)
(-0.0748792 -0.0243577 -1.24602e-19 0.0615405 -6.82081e-20 0.0133387)
(-0.0716136 -0.0236482 1.11734e-19 0.0582864 6.80397e-20 0.0133272)
(-0.068451 -0.0229759 7.87237e-20 0.0552035 8.01672e-20 0.0132475)
(-0.0653883 -0.0223438 -8.3951e-20 0.0522928 1.41053e-19 0.0130955)
(-0.0624201 -0.0217517 5.57643e-20 0.0495525 -4.37389e-20 0.0128676)
(-0.059545 -0.0212029 2.18006e-20 0.0469857 8.78771e-20 0.0125593)
(-0.0567578 -0.0206969 7.36578e-21 0.0445913 2.09169e-20 0.0121665)
(-0.0540588 -0.0202375 -2.53255e-20 0.0423745 -3.11765e-20 0.0116843)
(-0.0514437 -0.0198242 -6.0332e-20 0.0403352 -2.27051e-19 0.0111085)
(-0.0489147 -0.0194612 3.42797e-20 0.0384807 -1.58047e-20 0.0104339)
(-0.0464681 -0.0191481 9.05282e-21 0.0368122 -1.10834e-19 0.00965591)
(-0.0441085 -0.01889 7.9529e-20 0.0353394 5.90025e-21 0.00876912)
(-0.0418333 -0.0186866 2.79174e-20 0.0340645 -1.34589e-19 0.00776881)
(-0.0396495 -0.0185447 -2.29642e-19 0.033 -1.16263e-19 0.00664948)
(-0.0375571 -0.0184588 6.63135e-20 0.0321508 -6.40109e-20 0.00540635)
(-0.0355584 -0.0184671 5.34559e-20 0.0315244 -9.10645e-20 0.00403399)
(-0.0336859 -0.0184297 -1.40912e-19 0.0311582 -1.89009e-19 0.0025277)
(-0.0318753 -0.0188006 -3.7326e-20 0.030993 3.45307e-20 0.000882325)
(-0.164467 -0.0327257 1.23754e-19 0.163858 8.9169e-21 0.000609479)
(-0.162733 -0.0373219 1.67589e-20 0.161012 1.2869e-19 0.00172096)
(-0.159673 -0.0402799 -1.14269e-19 0.156913 5.02496e-20 0.0027599)
(-0.155689 -0.0420928 3.59545e-20 0.151955 1.60412e-20 0.00373445)
(-0.151161 -0.0430572 6.35044e-20 0.14651 1.42148e-19 0.00465109)
(-0.146298 -0.0434105 -3.07551e-21 0.140783 2.36744e-19 0.00551471)
(-0.14127 -0.0433187 -3.71838e-20 0.134941 1.41771e-20 0.00632918)
(-0.136178 -0.042903 -6.84131e-20 0.129081 3.44058e-20 0.00709726)
(-0.131106 -0.0422552 1.26575e-19 0.123285 -6.61741e-20 0.00782109)
(-0.126096 -0.0414415 1.21002e-19 0.117594 8.05084e-20 0.00850195)
(-0.121189 -0.0405134 5.10734e-21 0.112048 4.84666e-21 0.00914072)
(-0.116401 -0.0395082 -1.38101e-19 0.106663 8.9963e-20 0.0097376)
(-0.111749 -0.0384552 -1.25419e-19 0.101457 3.84783e-20 0.0102925)
(-0.107238 -0.0373762 6.1536e-20 0.096433 1.26536e-19 0.0108048)
(-0.102872 -0.0362878 1.40054e-19 0.0915981 -1.10547e-19 0.0112738)
(-0.0986485 -0.035203 4.73878e-20 0.0869506 -3.43829e-20 0.0116979)
(-0.0945676 -0.0341312 6.53425e-20 0.0824917 -5.59925e-21 0.0120759)
(-0.0906236 -0.0330806 1.56428e-20 0.0782179 5.51248e-21 0.0124057)
(-0.0868131 -0.0320563 7.0863e-21 0.0741276 -1.15961e-19 0.0126855)
(-0.0831298 -0.0310639 5.43829e-20 0.0702172 -7.01118e-20 0.0129126)
(-0.079569 -0.0301059 -2.36743e-21 0.0664842 -6.70912e-21 0.0130847)
(-0.0761247 -0.0291865 -7.14915e-20 0.062926 -1.10741e-19 0.0131987)
(-0.0727915 -0.0283068 -2.05099e-20 0.0595397 8.8269e-20 0.0132518)
(-0.0695646 -0.0274704 5.33913e-20 0.0563242 1.35672e-20 0.0132403)
(-0.0664383 -0.0266774 1.3559e-19 0.0532772 -9.27975e-20 0.0131611)
(-0.0634091 -0.0259314 -1.13663e-20 0.0503991 3.53419e-20 0.0130101)
(-0.0604717 -0.0252321 -3.86523e-21 0.0476881 -8.21503e-20 0.0127836)
(-0.0576241 -0.0245832 6.20107e-20 0.0451469 -1.10552e-19 0.0124772)
(-0.0548612 -0.0239842 -1.04557e-19 0.0427743 2.29162e-19 0.0120869)
(-0.052183 -0.0234394 -1.78851e-19 0.0405751 2.11143e-20 0.0116079)
(-0.049585 -0.0229481 -1.11334e-19 0.0385492 9.22686e-20 0.0110358)
(-0.0470691 -0.0225154 1.36622e-19 0.0367035 8.13302e-20 0.0103655)
(-0.0446317 -0.0221407 -2.64885e-20 0.0350391 -1.46327e-19 0.0095926)
(-0.0422767 -0.02183 -8.91556e-20 0.0335651 1.24605e-19 0.00871158)
(-0.0400017 -0.0215827 3.03614e-21 0.0322839 -1.32085e-19 0.0077178)
(-0.0378129 -0.0214067 -3.96384e-21 0.0312071 -4.30557e-20 0.0066058)
(-0.0357112 -0.0212959 -4.07205e-20 0.0303404 -2.72538e-20 0.00537081)
(-0.0336937 -0.0212938 -2.06848e-19 0.0296863 -1.0605e-19 0.00400745)
(-0.031812 -0.021242 -1.08297e-19 0.029301 -6.32101e-20 0.00251105)
(-0.029943 -0.0216521 5.06612e-20 0.0290665 1.4278e-19 0.000876503)
(-0.163555 -0.0377901 9.35449e-20 0.16295 -1.79898e-20 0.000604858)
(-0.161162 -0.0429023 5.27966e-20 0.159454 -1.36301e-19 0.00170792)
(-0.157633 -0.0461756 7.614e-21 0.154894 2.75946e-20 0.00273898)
(-0.153314 -0.0481635 7.27455e-20 0.149608 2.65762e-19 0.00370615)
(-0.148553 -0.0492 5.42228e-20 0.143937 -5.42612e-20 0.00461585)
(-0.14353 -0.0495518 -3.5748e-20 0.138057 -2.32337e-19 0.00547292)
(-0.1384 -0.0494055 -1.32395e-20 0.132119 -4.96693e-20 0.00628122)
(-0.133248 -0.0488973 2.93285e-20 0.126205 -8.06184e-21 0.00704348)
(-0.128147 -0.0481302 3.50391e-20 0.120385 2.08381e-20 0.00776182)
(-0.123132 -0.0471787 1.79892e-20 0.114695 -9.92742e-20 0.00843751)
(-0.118238 -0.0461002 7.98929e-20 0.109167 -1.18179e-19 0.00907142)
(-0.113476 -0.0449369 1.217e-19 0.103813 -1.71047e-19 0.00966375)
(-0.108861 -0.0437214 -1.70405e-20 0.0986463 3.27969e-20 0.0102145)
(-0.104392 -0.042478 1.44638e-21 0.0936691 -1.173e-20 0.0107228)
(-0.100074 -0.0412254 -1.04286e-20 0.0888856 -1.96648e-19 0.0111882)
(-0.0959013 -0.0399782 -2.43741e-20 0.0842922 8.14748e-21 0.0116091)
(-0.0918731 -0.0387468 7.28314e-20 0.079889 -9.77327e-20 0.0119842)
(-0.0879825 -0.0375403 -4.80849e-21 0.0756711 -3.95009e-20 0.0123114)
(-0.0842254 -0.0363644 -7.70822e-20 0.0716364 -1.94898e-19 0.012589)
(-0.0805947 -0.0352252 1.89158e-19 0.0677804 -6.23425e-20 0.0128144)
(-0.0770852 -0.0341257 9.72746e-20 0.0641001 -4.81145e-20 0.0129851)
(-0.0736904 -0.0330704 -2.69482e-21 0.0605922 -4.40881e-20 0.0130982)
(-0.0704046 -0.0320604 -4.75177e-20 0.0572538 7.91887e-20 0.0131508)
(-0.0672224 -0.0310998 -7.74398e-20 0.0540831 2.4603e-20 0.0131393)
(-0.0641382 -0.0301887 1.07494e-19 0.0510775 -7.48457e-21 0.0130607)
(-0.0611479 -0.0293311 1.74515e-20 0.0482372 -1.31133e-19 0.0129107)
(-0.0582461 -0.0285266 -1.5007e-19 0.0455602 -1.0967e-20 0.0126859)
(-0.0554305 -0.0277793 3.75888e-19 0.0430487 -1.6733e-19 0.0123818)
(-0.052696 -0.0270886 2.21026e-19 0.0407016 1.26316e-19 0.0119944)
(-0.050042 -0.0264594 -1.12904e-19 0.0385231 -1.83062e-19 0.011519)
(-0.0474643 -0.0258909 -1.33628e-19 0.036513 1.87495e-19 0.0109512)
(-0.0449639 -0.0253887 -2.32187e-19 0.0346778 4.4757e-20 0.0102861)
(-0.0425375 -0.0249522 3.07676e-20 0.0330185 8.61803e-20 0.00951903)
(-0.0401884 -0.0245881 9.52559e-20 0.0315437 1.5232e-19 0.00864474)
(-0.0379142 -0.0242957 -2.59162e-19 0.0302557 7.09971e-20 0.00765855)
(-0.0357203 -0.0240841 -1.51038e-19 0.0291652 2.83632e-20 0.00655506)
(-0.0336085 -0.0239462 -1.41538e-20 0.028279 1.72717e-19 0.00532954)
(-0.0315704 -0.0239305 -5.07192e-20 0.0275937 1.23893e-19 0.00397664)
(-0.0296786 -0.0238621 5.19692e-20 0.0271869 -6.36502e-20 0.00249174)
(-0.0277441 -0.0243039 -8.12311e-20 0.0268743 6.59184e-20 0.000869762)
(-0.162505 -0.0428474 4.80091e-20 0.161905 8.25531e-20 0.000599592)
(-0.15938 -0.048402 5.02392e-20 0.157686 6.64144e-20 0.00169305)
(-0.155331 -0.0519369 1.23724e-19 0.152616 -3.07108e-20 0.00271513)
(-0.150641 -0.0540604 7.7939e-20 0.146967 -2.45861e-19 0.00367388)
(-0.145621 -0.0551406 -1.14611e-19 0.141045 -2.39242e-19 0.00457566)
(-0.140423 -0.0554706 7.14821e-22 0.134998 1.58197e-19 0.00542528)
(-0.13518 -0.0552557 6.74665e-20 0.128953 1.16035e-19 0.00622654)
(-0.129962 -0.0546455 -2.88719e-20 0.12298 3.50387e-20 0.00698217)
(-0.12483 -0.0537532 4.20655e-20 0.117136 5.87543e-20 0.00769424)
(-0.119811 -0.0526604 8.17576e-20 0.111447 -1.91355e-19 0.00836403)
(-0.114933 -0.0514305 -1.21137e-19 0.10594 1.45225e-19 0.00899242)
(-0.110201 -0.0501092 -5.80584e-21 0.100622 -7.00295e-21 0.00957956)
(-0.105627 -0.0487326 2.46793e-20 0.0955013 3.96121e-20 0.0101254)
(-0.101207 -0.0473272 -1.08518e-19 0.0905774 7.70293e-20 0.0106294)
(-0.0969427 -0.0459134 8.72974e-20 0.085852 8.46965e-20 0.0110906)
(-0.0928278 -0.0445071 1.12594e-19 0.08132 -3.30077e-20 0.0115078)
(-0.0888592 -0.0431197 -3.86748e-20 0.0769797 1.41853e-19 0.0118796)
(-0.085029 -0.0417611 -2.25823e-20 0.0728251 -8.04271e-20 0.0122039)
(-0.0813322 -0.0404374 -1.37767e-19 0.0688532 4.56489e-20 0.012479)
(-0.0777609 -0.0391553 8.29577e-20 0.0650585 7.06819e-20 0.0127024)
(-0.0743093 -0.0379179 5.9999e-20 0.0614378 -9.851e-20 0.0128716)
(-0.0709704 -0.0367302 3.126e-20 0.0579868 9.63194e-21 0.0129836)
(-0.0677381 -0.0355934 1.1606e-19 0.0547024 -5.89726e-20 0.0130357)
(-0.0646065 -0.0345119 -6.68708e-20 0.0515823 5.70496e-20 0.0130243)
(-0.0615699 -0.0334856 -9.90767e-20 0.0486237 1.01067e-19 0.0129462)
(-0.0586236 -0.032519 7.72652e-20 0.0458261 -2.33298e-19 0.0127975)
(-0.0557623 -0.0316116 -1.98879e-19 0.0431877 9.17391e-20 0.0125746)
(-0.052983 -0.0307679 -4.06656e-21 0.04071 1.64581e-19 0.0122731)
(-0.0502809 -0.0299872 7.31302e-20 0.0383918 1.9717e-20 0.011889)
(-0.0476546 -0.0292747 -3.6629e-20 0.0362369 -7.5141e-20 0.0114177)
(-0.0451 -0.0286297 2.24525e-19 0.0342451 4.04909e-20 0.0108549)
(-0.0426177 -0.0280583 5.10501e-20 0.0324221 -4.5538e-20 0.0101956)
(-0.0402042 -0.0275597 -5.9938e-20 0.030769 2.18731e-19 0.00943524)
(-0.0378624 -0.0271414 1.26257e-19 0.0292938 -2.62066e-19 0.0085686)
(-0.0355898 -0.0268028 -1.1323e-19 0.0279987 1.54611e-19 0.00759107)
(-0.0333908 -0.0265535 5.2339e-20 0.0268935 3.13115e-20 0.00649727)
(-0.0312684 -0.0263861 7.88597e-20 0.0259859 1.35059e-19 0.00528252)
(-0.029208 -0.0263532 -4.16059e-19 0.0252665 -1.19275e-19 0.00394154)
(-0.0273056 -0.026266 -1.72345e-19 0.0248359 2.76832e-20 0.00246973)
(-0.0252992 -0.0267311 9.78951e-20 0.0244371 1.02783e-19 0.000862068)
(-0.161314 -0.0478965 -5.47211e-20 0.16072 3.83151e-19 0.000593683)
(-0.157392 -0.0538114 -1.12925e-19 0.155715 1.54911e-19 0.00167636)
(-0.152777 -0.0575488 -1.676e-19 0.150089 2.71979e-20 0.00268838)
(-0.147683 -0.0597645 -2.09352e-20 0.144046 2.19955e-19 0.00363769)
(-0.142383 -0.0608571 1.80471e-19 0.137853 3.06088e-19 0.00453059)
(-0.136996 -0.061143 8.47284e-20 0.131624 6.70504e-20 0.00537184)
(-0.131632 -0.060844 -6.51207e-20 0.125466 -8.55718e-20 0.00616521)
(-0.126343 -0.0601213 6.90197e-20 0.11943 -2.32843e-19 0.00691338)
(-0.121179 -0.0590974 -9.19737e-20 0.113561 -1.36843e-19 0.00761844)
(-0.116158 -0.0578598 1.09553e-20 0.107876 1.71126e-19 0.00828162)
(-0.111298 -0.056477 1.31406e-19 0.102394 2.79932e-19 0.00890379)
(-0.106601 -0.0549983 -6.95933e-20 0.0971154 1.49917e-19 0.00948513)
(-0.102072 -0.0534622 4.85668e-20 0.0920467 9.68913e-20 0.0100256)
(-0.0977068 -0.0518974 1.54649e-20 0.0871823 4.68655e-20 0.0105245)
(-0.0935031 -0.0503256 -1.88417e-19 0.0825219 -8.3286e-21 0.0109812)
(-0.0894522 -0.048764 7.57114e-20 0.078058 -1.14691e-19 0.0113942)
(-0.0855499 -0.0472246 4.10741e-20 0.0737877 3.00561e-20 0.0117623)
(-0.0817867 -0.045718 -2.94774e-20 0.0697033 -2.27506e-19 0.0120834)
(-0.0781569 -0.0442508 -1.64382e-20 0.0658011 -4.34361e-20 0.0123558)
(-0.0746514 -0.0428301 -3.58223e-20 0.0620746 1.25271e-19 0.0125768)
(-0.0712641 -0.041459 3.35821e-21 0.0585199 6.29774e-20 0.0127443)
(-0.0679871 -0.0401429 -3.10605e-20 0.055132 1.11194e-19 0.0128551)
(-0.0648142 -0.0388831 4.53547e-20 0.0519076 -5.59788e-20 0.0129066)
(-0.0617388 -0.0376841 1.50412e-19 0.0488435 1.85287e-20 0.0128953)
(-0.058755 -0.036546 -2.25788e-19 0.0459371 8.87105e-20 0.0128179)
(-0.0558577 -0.0354733 -5.46898e-20 0.043187 -2.75513e-20 0.0126706)
(-0.0530414 -0.0344655 2.03872e-19 0.0405915 2.36169e-19 0.0124498)
(-0.0503026 -0.0335275 2.14195e-19 0.0381514 1.37581e-19 0.0121513)
(-0.0476366 -0.0326585 -2.03388e-20 0.0358656 1.87334e-19 0.011771)
(-0.0450414 -0.0318641 -2.63701e-19 0.0337371 2.35034e-19 0.0113043)
(-0.0425129 -0.0311434 -8.3724e-20 0.0317658 2.99504e-20 0.0107471)
(-0.0400511 -0.0305031 5.91275e-20 0.0299569 -1.17611e-20 0.0100942)
(-0.0376526 -0.0299423 -1.26188e-19 0.0283112 -2.90493e-20 0.00934138)
(-0.0353194 -0.029469 4.24414e-20 0.0268361 -1.19189e-19 0.00848333)
(-0.0330493 -0.0290826 1.03668e-19 0.0255338 1.44972e-19 0.00751549)
(-0.0308457 -0.0287937 -1.38833e-19 0.0244131 -1.46409e-19 0.00643255)
(-0.0287125 -0.0285942 9.09661e-20 0.0234826 -3.03187e-20 0.00522989)
(-0.0266285 -0.0285402 -3.74583e-20 0.0227262 -7.85095e-21 0.00390225)
(-0.0247152 -0.0284315 1.50728e-19 0.0222701 2.12264e-19 0.0024451)
(-0.0226313 -0.0289107 -7.1909e-20 0.0217778 -2.40875e-20 0.000853472)
(-0.15998 -0.0529342 7.79378e-20 0.159393 -3.07734e-19 0.000587141)
(-0.155204 -0.0591215 -1.96186e-21 0.153546 -3.37399e-19 0.00165789)
(-0.149985 -0.0629974 9.63594e-20 0.147326 8.17151e-20 0.00265876)
(-0.14446 -0.0652583 8.3403e-20 0.140862 9.61174e-20 0.00359761)
(-0.138861 -0.0663297 -2.94413e-19 0.13438 5.53041e-20 0.00448067)
(-0.133272 -0.0665473 -2.33702e-20 0.12796 -3.35225e-19 0.00531265)
(-0.12778 -0.0661474 -6.69688e-20 0.121682 -7.30718e-20 0.00609728)
(-0.122418 -0.0653011 -6.92569e-20 0.115581 -6.54232e-21 0.00683721)
(-0.117222 -0.0641384 2.18732e-19 0.109687 3.04433e-19 0.00753449)
(-0.112198 -0.0627524 2.73879e-19 0.104008 7.22913e-20 0.00819035)
(-0.10736 -0.0612153 -1.99402e-20 0.0985544 -7.51072e-20 0.00880565)
(-0.102702 -0.0595795 -2.56512e-20 0.0933211 -2.11431e-19 0.00938056)
(-0.0982247 -0.0578859 -9.8493e-20 0.0883097 1.29102e-19 0.00991505)
(-0.0939194 -0.0561645 -6.00012e-20 0.0835109 -1.2422e-19 0.0104085)
(-0.089782 -0.0544384 -1.33543e-20 0.0789219 -4.58289e-20 0.0108601)
(-0.0858013 -0.0527254 1.24067e-20 0.0745328 1.3927e-19 0.0112685)
(-0.0819715 -0.0510384 -6.9711e-20 0.0703391 2.64108e-20 0.0116324)
(-0.0782816 -0.0493885 -1.52696e-19 0.0663316 5.74379e-20 0.01195)
(-0.0747249 -0.0477824 1.22192e-19 0.0625056 1.396e-19 0.0122193)
(-0.0712914 -0.0462277 2.13519e-19 0.0588535 2.90858e-20 0.0124378)
(-0.0679743 -0.0447275 3.88984e-21 0.0553709 1.06815e-19 0.0126034)
(-0.064765 -0.0432874 -7.31089e-20 0.0520521 2.1589e-20 0.0127129)
(-0.061657 -0.0419087 -4.40823e-20 0.0488932 -5.54275e-20 0.0127638)
(-0.058643 -0.0405961 1.91056e-19 0.0458905 -8.5273e-20 0.0127525)
(-0.055717 -0.0393496 -3.94261e-20 0.043041 -1.23193e-20 0.0126759)
(-0.0528732 -0.038174 1.57856e-20 0.0403431 -9.09419e-21 0.0125302)