/*--------------------------------*- C++ -*----------------------------------*\
| =========                 |                                                 |
| \\      /  F ield         | foam-extend: Open Source CFD                    |
|  \\    /   O peration     | Version:  3.0                                   |
|   \\  /    A nd           | Web:         http://www.extend-project.de       |
|    \\/     M anipulation  |                                                 |
\*---------------------------------------------------------------------------*/
FoamFile
{
    version     2.0;
    format      ascii;
    class       volSymmTensorField;
    location    "28";
    object      sigma;
}
// * * * * * * * * * * * * * * * * * * * * * * * * * * * * * * * * * * * * * //

dimensions      [0 0 0 0 0 0 0];

internalField   nonuniform List<symmTensor> 
7680
(
(-0.179885 -0.00281142 -9.29993e-21 0.179886 2.16235e-20 -6.3677e-07)
(-0.179141 -0.00323238 3.30423e-20 0.179142 1.38162e-19 -1.79822e-06)
(-0.176386 -0.00351324 4.06736e-21 0.176389 -3.40829e-20 -2.88858e-06)
(-0.172175 -0.0036888 -3.63659e-21 0.172179 5.86388e-20 -3.92054e-06)
(-0.167119 -0.00379097 1.10154e-20 0.167124 1.05727e-20 -4.90417e-06)
(-0.161441 -0.00383864 -4.51781e-21 0.161447 1.84858e-20 -5.84724e-06)
(-0.155469 -0.00384779 2.02618e-20 0.155476 -2.63323e-20 -6.75593e-06)
(-0.14929 -0.00382884 9.07658e-21 0.149297 -3.02871e-20 -7.6348e-06)
(-0.143083 -0.00379039 7.99418e-21 0.143091 -5.36043e-20 -8.48701e-06)
(-0.136876 -0.00373817 1.13121e-20 0.136885 -2.19608e-20 -9.3144e-06)
(-0.13077 -0.00367714 -2.62557e-20 0.13078 -7.49641e-20 -1.01175e-05)
(-0.124767 -0.00361046 1.81471e-20 0.124778 2.12838e-20 -1.08957e-05)
(-0.118925 -0.00354107 7.22094e-21 0.118937 -7.13346e-20 -1.16472e-05)
(-0.113233 -0.00347079 -2.57199e-20 0.113246 1.74259e-20 -1.23692e-05)
(-0.107727 -0.00340137 -2.7215e-20 0.10774 1.92151e-20 -1.30577e-05)
(-0.102391 -0.00333394 6.74276e-21 0.102405 6.19123e-20 -1.37082e-05)
(-0.0972471 -0.00326947 -7.91497e-21 0.0972614 -5.47965e-20 -1.43148e-05)
(-0.0922804 -0.0032088 -1.20877e-20 0.0922952 1.42842e-19 -1.48715e-05)
(-0.0875023 -0.00315237 2.76376e-20 0.0875177 -6.42919e-20 -1.53714e-05)
(-0.0829017 -0.00310089 -1.34453e-20 0.0829175 1.28647e-19 -1.58077e-05)
(-0.0784836 -0.00305447 -3.03947e-20 0.0784998 -2.60241e-20 -1.61732e-05)
(-0.0742407 -0.00301381 -2.9932e-20 0.0742571 1.07457e-19 -1.64612e-05)
(-0.0701732 -0.00297877 -4.51076e-20 0.0701898 -7.98164e-21 -1.66648e-05)
(-0.0662781 -0.00295011 -1.50421e-20 0.0662949 1.54764e-19 -1.67781e-05)
(-0.0625524 -0.00292751 -1.54269e-20 0.0625692 -3.18245e-20 -1.67952e-05)
(-0.0589977 -0.00291182 -5.54e-20 0.0590144 1.23295e-19 -1.6711e-05)
(-0.0556078 -0.00290259 -2.5995e-21 0.0556244 6.38913e-20 -1.65205e-05)
(-0.0523894 -0.0029008 -3.20659e-21 0.0524056 1.03363e-19 -1.62189e-05)
(-0.0493334 -0.00290582 7.51779e-21 0.0493492 4.53133e-20 -1.58008e-05)
(-0.0464519 -0.00291892 -4.03473e-20 0.0464672 3.07108e-20 -1.52607e-05)
(-0.0437328 -0.0029391 -1.78394e-20 0.0437474 2.68778e-21 -1.45919e-05)
(-0.0411948 -0.00296821 -2.05826e-20 0.0412086 -1.65519e-20 -1.37866e-05)
(-0.0388203 -0.00300449 7.17595e-21 0.0388332 -9.25458e-21 -1.28361e-05)
(-0.0366393 -0.00305078 -3.40802e-20 0.036651 -2.15699e-20 -1.17304e-05)
(-0.0346228 -0.0031047 -8.82966e-21 0.0346333 8.82452e-23 -1.04589e-05)
(-0.0328191 -0.00316853 -5.74561e-20 0.0328281 3.94751e-21 -9.01041e-06)
(-0.0311813 -0.00324104 -6.1167e-21 0.0311886 -9.75166e-20 -7.37386e-06)
(-0.02978 -0.00333523 1.05299e-21 0.0297856 1.31414e-20 -5.53826e-06)
(-0.0285542 -0.00338646 -2.32798e-20 0.0285577 -5.1524e-20 -3.49353e-06)
(-0.0275823 -0.00355777 -7.48325e-21 0.0275836 -8.43129e-20 -1.22945e-06)
(-0.179748 -0.00821353 2.2674e-20 0.179749 -1.69471e-20 -6.35489e-07)
(-0.178893 -0.00945192 -2.34151e-20 0.178895 5.41514e-20 -1.79469e-06)
(-0.176058 -0.0102665 -2.88008e-20 0.176061 -3.21761e-20 -2.88291e-06)
(-0.17179 -0.0107638 3.30334e-20 0.171794 -1.77079e-20 -3.91286e-06)
(-0.166695 -0.0110385 -3.33317e-21 0.1667 -5.19857e-20 -4.89454e-06)
(-0.160989 -0.0111472 -1.16795e-20 0.160995 5.52615e-20 -5.83584e-06)
(-0.154999 -0.0111378 -2.40347e-20 0.155006 3.80136e-20 -6.74285e-06)
(-0.148809 -0.0110412 -2.09226e-20 0.148816 2.61483e-20 -7.62023e-06)
(-0.142596 -0.0108833 -3.11777e-21 0.142604 1.31246e-19 -8.47105e-06)
(-0.136387 -0.0106808 1.23891e-20 0.136397 1.10382e-19 -9.29723e-06)
(-0.130283 -0.0104488 3.91206e-20 0.130293 -1.7568e-20 -1.00992e-05)
(-0.124283 -0.0101963 1.76341e-21 0.124294 6.09836e-20 -1.08766e-05)
(-0.118446 -0.00993216 1.21725e-20 0.118457 -5.2152e-20 -1.16273e-05)
(-0.11276 -0.00966162 4.55516e-20 0.112772 4.93304e-20 -1.23487e-05)
(-0.10726 -0.00938974 2.45925e-20 0.107273 -1.17041e-19 -1.30368e-05)
(-0.101932 -0.00911976 -6.08959e-20 0.101946 -3.04482e-20 -1.36869e-05)
(-0.0967952 -0.00885444 5.99231e-20 0.0968095 2.70189e-20 -1.42933e-05)
(-0.0918359 -0.00859606 -1.18436e-20 0.0918507 -6.0163e-20 -1.485e-05)
(-0.0870652 -0.00834585 -1.72995e-20 0.0870805 1.10411e-19 -1.535e-05)
(-0.0824717 -0.00810571 5.56209e-21 0.0824875 -4.65578e-20 -1.57866e-05)
(-0.0780604 -0.00787584 -5.86742e-20 0.0780766 2.54381e-20 -1.61523e-05)
(-0.0738239 -0.00765808 1.60805e-20 0.0738403 -7.57084e-20 -1.64406e-05)
(-0.0697624 -0.00745189 8.3628e-21 0.069779 5.92671e-20 -1.66444e-05)
(-0.0658728 -0.00725924 -1.8409e-20 0.0658896 -1.24162e-19 -1.67579e-05)
(-0.0621521 -0.00707905 -7.87732e-20 0.0621689 1.32217e-20 -1.67751e-05)
(-0.0586017 -0.00691354 5.89544e-20 0.0586184 -6.45686e-20 -1.66911e-05)
(-0.0552155 -0.00676116 -3.2097e-20 0.055232 2.82606e-20 -1.65007e-05)
(-0.0520001 -0.00662455 -1.6962e-20 0.0520163 -2.7898e-20 -1.61992e-05)
(-0.0489465 -0.00650162 -7.0858e-20 0.0489623 -3.01071e-20 -1.57812e-05)
(-0.0460666 -0.00639573 -4.76136e-20 0.0460818 3.37974e-20 -1.52415e-05)
(-0.0433483 -0.00630379 -4.68416e-20 0.0433629 5.90205e-21 -1.45731e-05)
(-0.0408103 -0.0062308 -3.95276e-20 0.0408241 8.60259e-21 -1.37685e-05)
(-0.0384352 -0.00617142 2.26568e-20 0.038448 1.07266e-20 -1.28189e-05)
(-0.0362523 -0.00613381 2.27049e-20 0.036264 -6.16317e-20 -1.17145e-05)
(-0.0342335 -0.00610936 -5.33582e-21 0.034244 4.29658e-20 -1.04445e-05)
(-0.0324261 -0.00610872 -1.19892e-19 0.0324351 -3.09898e-21 -8.99784e-06)
(-0.0307841 -0.00612196 -6.77273e-20 0.0307914 7.70693e-21 -7.36344e-06)
(-0.0293765 -0.00617153 4.13031e-20 0.029382 3.03102e-20 -5.53027e-06)
(-0.028147 -0.0061861 -1.38894e-19 0.0281505 -2.5723e-20 -3.48835e-06)
(-0.0271632 -0.00633234 4.20948e-20 0.0271644 4.07701e-20 -1.22752e-06)
(-0.179481 -0.0136157 3.64195e-20 0.179482 -6.40551e-21 -6.34094e-07)
(-0.178407 -0.0156539 3.42471e-20 0.178409 8.01918e-20 -1.79085e-06)
(-0.175414 -0.0169893 -1.05845e-20 0.175417 -1.59493e-19 -2.87678e-06)
(-0.171034 -0.0177988 -2.14546e-20 0.171038 1.56704e-19 -3.90458e-06)
(-0.16586 -0.0182392 6.89021e-20 0.165865 -9.25171e-20 -4.88426e-06)
(-0.160101 -0.018404 6.00821e-20 0.160107 -1.82957e-20 -5.82366e-06)
(-0.154076 -0.0183726 1.58404e-20 0.154083 -8.04673e-20 -6.72886e-06)
(-0.147865 -0.018196 7.33209e-20 0.147873 -2.39223e-21 -7.60444e-06)
(-0.141642 -0.017917 7.70791e-20 0.141651 1.23055e-20 -8.45348e-06)
(-0.135432 -0.0175635 -8.34434e-20 0.135441 -2.37437e-20 -9.27786e-06)
(-0.129331 -0.01716 -4.97836e-20 0.129341 -1.27083e-19 -1.0078e-05)
(-0.12334 -0.0167218 -1.0759e-20 0.12335 4.72873e-20 -1.08535e-05)
(-0.117514 -0.0162632 3.98694e-21 0.117526 -3.21298e-20 -1.16023e-05)
(-0.111842 -0.0157928 -7.62459e-20 0.111854 2.08387e-20 -1.23218e-05)
(-0.106358 -0.0153191 -9.74376e-20 0.106371 1.02809e-19 -1.30079e-05)
(-0.101046 -0.0148473 1.14238e-19 0.10106 6.24361e-20 -1.36561e-05)
(-0.0959264 -0.0143819 -2.6057e-20 0.0959407 9.23725e-20 -1.42607e-05)
(-0.0909844 -0.0139266 4.68347e-20 0.0909992 1.24739e-19 -1.48157e-05)
(-0.086231 -0.0134835 7.02424e-20 0.0862464 -1.23809e-19 -1.53141e-05)
(-0.0816546 -0.0130556 -9.8658e-20 0.0816703 1.02004e-19 -1.57493e-05)
(-0.07726 -0.0126431 -4.6569e-20 0.0772761 -2.3381e-20 -1.61139e-05)
(-0.0730393 -0.012249 -1.53719e-20 0.0730557 1.13358e-19 -1.64014e-05)
(-0.0689932 -0.0118725 -7.55236e-20 0.0690098 -1.7667e-20 -1.66048e-05)
(-0.065118 -0.0115166 -6.64301e-20 0.0651347 5.83574e-20 -1.67183e-05)
(-0.0614108 -0.0111795 3.46289e-20 0.0614276 1.66587e-19 -1.67358e-05)
(-0.0578729 -0.0108648 -4.433e-20 0.0578895 1.09781e-19 -1.66525e-05)
(-0.0544983 -0.0105699 4.56759e-20 0.0545148 1.46067e-19 -1.6463e-05)
(-0.0512931 -0.0102989 -5.51368e-20 0.0513093 5.22536e-20 -1.61627e-05)
(-0.0482488 -0.0100485 7.207e-20 0.0482646 9.91545e-20 -1.57461e-05)
(-0.0453768 -0.00982399 4.54846e-21 0.045392 9.98607e-21 -1.52078e-05)
(-0.0426654 -0.00962024 -3.58929e-20 0.0426799 1.55805e-20 -1.45409e-05)
(-0.0401325 -0.00944533 -1.7728e-20 0.0401462 1.01024e-19 -1.37379e-05)
(-0.0377616 -0.00929042 -8.64847e-20 0.0377744 1.31475e-19 -1.27901e-05)
(-0.0355809 -0.0091689 1.4e-20 0.0355926 -2.81906e-19 -1.16876e-05)
(-0.0335635 -0.00906604 4.34761e-20 0.0335739 1.79916e-19 -1.042e-05)
(-0.031755 -0.00900073 -8.73504e-20 0.031764 -1.12271e-19 -8.97618e-06)
(-0.0301113 -0.00895445 1.261e-20 0.0301186 2.29656e-21 -7.34529e-06)
(-0.0286988 -0.00895895 -4.98154e-20 0.0287043 8.66358e-20 -5.51639e-06)
(-0.0274664 -0.00893654 -2.07024e-20 0.0274699 -3.24961e-20 -3.47951e-06)
(-0.0264708 -0.00905683 -4.02121e-20 0.0264721 1.23198e-19 -1.22445e-06)
(-0.179084 -0.0190183 7.21615e-20 0.179084 2.31846e-20 -6.31797e-07)
(-0.177684 -0.0218272 -7.83895e-20 0.177686 -5.61988e-21 -1.78449e-06)
(-0.174456 -0.0236619 -1.16553e-20 0.174459 2.38595e-19 -2.86666e-06)
(-0.16991 -0.0247681 1.16825e-19 0.169914 -2.73271e-19 -3.89094e-06)
(-0.16462 -0.0253628 -1.17492e-19 0.164625 4.15208e-20 -4.86736e-06)
(-0.158782 -0.0255756 -1.01891e-21 0.158788 7.52412e-20 -5.80366e-06)
(-0.152706 -0.0255165 -1.6433e-20 0.152713 5.67695e-20 -6.70594e-06)
(-0.146465 -0.025256 4.49561e-20 0.146473 -1.49104e-20 -7.57869e-06)
(-0.140229 -0.0248536 1.92425e-20 0.140237 -1.13686e-19 -8.42499e-06)
(-0.134016 -0.0243476 -6.55505e-20 0.134025 -5.45952e-20 -9.24667e-06)
(-0.127922 -0.0237722 7.70104e-20 0.127932 4.67686e-20 -1.00442e-05)
(-0.121944 -0.0231481 6.87043e-20 0.121955 1.23107e-20 -1.0817e-05)
(-0.116137 -0.0224956 1.709e-20 0.116148 -1.56623e-19 -1.15632e-05)
(-0.110487 -0.0218263 1.42939e-19 0.110499 1.17431e-19 -1.22801e-05)
(-0.105027 -0.0211518 5.89089e-20 0.10504 1.64342e-20 -1.29638e-05)
(-0.0997408 -0.0204795 -1.06955e-19 0.0997544 3.14483e-19 -1.36097e-05)
(-0.0946479 -0.0198155 1.64433e-19 0.0946621 -1.78545e-19 -1.4212e-05)
(-0.089733 -0.0191648 -2.19299e-19 0.0897478 2.0504e-19 -1.47648e-05)
(-0.0850069 -0.0185303 -1.66241e-20 0.0850221 -1.12719e-19 -1.52614e-05)
(-0.0804572 -0.0179161 9.35106e-20 0.0804729 1.12985e-19 -1.5695e-05)
(-0.0760889 -0.0173226 -4.42617e-20 0.0761049 -1.14865e-19 -1.60583e-05)
(-0.0718936 -0.0167537 2.79796e-20 0.0719099 -1.4117e-20 -1.63449e-05)
(-0.0678719 -0.0162082 -4.26468e-20 0.0678885 4.47245e-20 -1.65478e-05)
(-0.0640199 -0.0156905 1.32182e-19 0.0640366 1.55423e-19 -1.66612e-05)
(-0.0603349 -0.0151978 1.54695e-21 0.0603516 -8.9384e-20 -1.66792e-05)
(-0.0568175 -0.0147351 4.80535e-20 0.0568341 8.20762e-20 -1.65966e-05)
(-0.0534623 -0.0142988 -6.40754e-20 0.0534787 4.61677e-20 -1.64084e-05)
(-0.0502746 -0.0138945 -6.70648e-20 0.0502907 1.11294e-19 -1.61096e-05)
(-0.0472465 -0.0135175 -9.19451e-20 0.0472622 -1.08559e-19 -1.56949e-05)
(-0.0443885 -0.0131752 -1.35017e-19 0.0444036 1.14873e-19 -1.51587e-05)
(-0.0416898 -0.0128603 6.01857e-20 0.0417043 1.66283e-20 -1.44942e-05)
(-0.0391672 -0.012584 1.23427e-19 0.0391809 5.01965e-20 -1.36938e-05)
(-0.0368054 -0.0123341 -3.84346e-19 0.0368182 1.54571e-19 -1.27489e-05)
(-0.0346308 -0.0121289 2.68348e-20 0.0346424 -2.27767e-20 -1.16497e-05)
(-0.0326186 -0.0119478 1.98681e-19 0.032629 1.39837e-19 -1.03858e-05)
(-0.0308117 -0.0118177 -3.21915e-19 0.0308207 3.94348e-20 -8.94641e-06)
(-0.0291687 -0.0117119 1.47095e-19 0.0291761 1.07417e-19 -7.32066e-06)
(-0.0277526 -0.0116708 9.84041e-21 0.0277581 9.33835e-20 -5.49771e-06)
(-0.0265183 -0.0116112 -9.29063e-20 0.0265217 -8.31708e-20 -3.46765e-06)
(-0.0255112 -0.0117045 -1.51601e-20 0.0255124 -1.60646e-19 -1.22022e-06)
(-0.178554 -0.0244215 5.54689e-20 0.178555 -8.6505e-20 -6.28716e-07)
(-0.176726 -0.0279607 1.92764e-19 0.176728 -1.92365e-19 -1.77584e-06)
(-0.17319 -0.030265 -1.07135e-19 0.173193 -2.68668e-19 -2.85283e-06)
(-0.168426 -0.0316463 -1.33485e-19 0.16843 1.11785e-20 -3.8723e-06)
(-0.162983 -0.0323797 2.76542e-19 0.162987 5.51795e-20 -4.8442e-06)
(-0.157042 -0.0326292 9.41028e-20 0.157048 -1.68553e-19 -5.77624e-06)
(-0.1509 -0.0325345 -2.29628e-20 0.150906 -1.44227e-19 -6.67447e-06)
(-0.14462 -0.0321849 -4.92407e-20 0.144628 7.63165e-20 -7.54334e-06)
(-0.138366 -0.0316557 4.9273e-20 0.138374 6.18308e-20 -8.38588e-06)
(-0.132151 -0.0309954 -2.76148e-21 0.13216 1.0861e-19 -9.20392e-06)
(-0.126067 -0.0302472 1.29624e-20 0.126077 -1.79378e-19 -9.99789e-06)
(-0.120108 -0.0294375 -1.74287e-19 0.120118 1.14235e-19 -1.07673e-05)
(-0.114325 -0.0285918 8.23777e-20 0.114337 -1.06528e-19 -1.15101e-05)
(-0.108705 -0.0277248 3.99089e-20 0.108717 1.75268e-19 -1.22238e-05)
(-0.103278 -0.0268512 1.0853e-19 0.103291 6.21418e-21 -1.29044e-05)
(-0.0980266 -0.0259802 -3.56181e-20 0.0980402 1.70841e-19 -1.35473e-05)
(-0.0929701 -0.0251196 -6.88196e-20 0.0929842 -2.70581e-19 -1.41469e-05)
(-0.0880919 -0.0242756 1.31967e-19 0.0881066 9.83605e-20 -1.46973e-05)
(-0.0834028 -0.023452 -6.14231e-20 0.0834179 5.82707e-20 -1.51917e-05)
(-0.0788895 -0.0226537 -7.18648e-20 0.0789051 -3.67604e-20 -1.56234e-05)
(-0.074557 -0.0218813 -1.93679e-19 0.074573 2.1311e-19 -1.59853e-05)
(-0.0703963 -0.0211398 1.14373e-19 0.0704126 2.03483e-19 -1.62709e-05)
(-0.0664083 -0.0204276 7.53377e-20 0.0664247 8.47562e-20 -1.64733e-05)
(-0.0625882 -0.0197499 -1.42649e-19 0.0626048 -1.54752e-19 -1.65867e-05)
(-0.0589337 -0.0191036 -5.13459e-20 0.0589503 2.54252e-19 -1.66052e-05)
(-0.0554448 -0.0184947 1.28297e-19 0.0554613 -1.26598e-20 -1.65238e-05)
(-0.0521164 -0.0179187 1.16589e-19 0.0521328 1.02118e-19 -1.63371e-05)
(-0.0489533 -0.0173827 -1.83059e-19 0.0489694 8.74558e-20 -1.60404e-05)
(-0.0459481 -0.0168805 6.20282e-20 0.0459637 2.54641e-19 -1.56281e-05)
(-0.0431103 -0.0164215 1.20355e-19 0.0431254 2.44102e-19 -1.50948e-05)
(-0.0404302 -0.0159967 -1.34696e-19 0.0404446 2.21203e-19 -1.44336e-05)
(-0.037923 -0.0156199 2.25732e-19 0.0379366 -3.85283e-20 -1.36369e-05)
(-0.0355751 -0.0152756 -1.17275e-19 0.0355878 1.31818e-19 -1.2696e-05)
(-0.0334104 -0.0149873 -9.98495e-20 0.033422 1.44406e-19 -1.16014e-05)
(-0.0314071 -0.0147284 1.68061e-19 0.0314175 2.63062e-19 -1.03426e-05)
(-0.0296045 -0.0145337 -8.75076e-20 0.0296134 -7.28877e-20 -8.90906e-06)
(-0.0279648 -0.0143682 5.7132e-20 0.0279721 -3.35681e-21 -7.28996e-06)
(-0.0265464 -0.0142813 -2.21616e-19 0.0265519 3.72918e-20 -5.47459e-06)
(-0.025311 -0.014184 -3.58436e-19 0.0253145 -2.436e-20 -3.45307e-06)
(-0.0242927 -0.0142495 7.93581e-20 0.0242939 5.00147e-20 -1.21514e-06)
(-0.177891 -0.0298252 2.97795e-20 0.177892 1.55121e-20 -6.24788e-07)
(-0.175536 -0.0340435 -1.96331e-19 0.175538 2.71665e-19 -1.76482e-06)
(-0.171621 -0.0367799 1.74877e-19 0.171624 -1.06138e-19 -2.83525e-06)
(-0.166589 -0.0384088 1.93432e-19 0.166593 3.08596e-19 -3.84859e-06)
(-0.160959 -0.039261 -2.17539e-19 0.160964 -4.92853e-20 -4.81476e-06)
(-0.154892 -0.0395331 -7.91244e-20 0.154898 -8.79197e-20 -5.74139e-06)
(-0.148669 -0.039393 1.34415e-19 0.148676 9.45083e-20 -6.63449e-06)
(-0.142343 -0.0389475 1.92725e-19 0.142351 -7.86888e-20 -7.49845e-06)
(-0.136068 -0.0382872 5.464e-20 0.136076 -1.14478e-19 -8.3363e-06)
(-0.129851 -0.0374703 -2.52186e-19 0.129861 1.44348e-19 -9.14979e-06)
(-0.123781 -0.0365485 6.20521e-20 0.12379 2.14239e-19 -9.93939e-06)
(-0.117845 -0.0355533 1.06913e-19 0.117855 1.05691e-19 -1.07045e-05)
(-0.112094 -0.0345154 1.52647e-20 0.112105 -4.20528e-21 -1.14434e-05)
(-0.106511 -0.0334523 2.91999e-19 0.106523 -2.24252e-19 -1.21532e-05)
(-0.101125 -0.0323817 7.3591e-20 0.101138 4.28451e-20 -1.28301e-05)
(-0.0959177 -0.0313144 -2.34547e-19 0.0959312 -1.22124e-19 -1.34696e-05)
(-0.0909068 -0.0302598 6.64514e-21 0.0909208 2.27529e-19 -1.4066e-05)
(-0.0860748 -0.0292254 6.11306e-20 0.0860895 1.51348e-19 -1.46136e-05)
(-0.0814321 -0.0282154 -1.12639e-19 0.0814472 9.60933e-20 -1.51054e-05)
(-0.0769646 -0.0272359 2.33918e-19 0.0769802 1.76211e-19 -1.5535e-05)
(-0.0726773 -0.0262876 1.26914e-19 0.0726932 2.59894e-19 -1.58952e-05)
(-0.0685603 -0.0253762 -1.12279e-19 0.0685765 1.43715e-19 -1.61796e-05)
(-0.0646146 -0.0244999 -2.97093e-19 0.064631 -1.60689e-19 -1.63814e-05)
(-0.0608349 -0.023665 2.76913e-19 0.0608514 2.19923e-19 -1.64948e-05)
(-0.0572191 -0.0228676 1.18753e-19 0.0572357 1.0103e-19 -1.65139e-05)
(-0.0537665 -0.0221149 -1.56322e-19 0.0537829 2.99279e-19 -1.64336e-05)
(-0.0504725 -0.0214013 1.27246e-19 0.0504888 -1.13624e-19 -1.62487e-05)
(-0.0473409 -0.0207355 1.09996e-19 0.0473569 1.45015e-19 -1.59545e-05)
(-0.0443652 -0.0201101 6.03813e-20 0.0443807 -8.17498e-20 -1.55453e-05)
(-0.0415537 -0.0195362 -6.77446e-20 0.0415687 -9.22953e-20 -1.50156e-05)
(-0.0388977 -0.0190028 -1.27225e-19 0.038912 -5.51807e-19 -1.43584e-05)
(-0.0364109 -0.0185267 9.42804e-22 0.0364244 2.8389e-20 -1.35664e-05)
(-0.0340815 -0.0180893 -4.61877e-20 0.0340942 -2.9703e-19 -1.26307e-05)
(-0.0319307 -0.0177185 1.52338e-19 0.0319423 6.14237e-20 -1.15419e-05)
(-0.02994 -0.0173826 7.82952e-20 0.0299503 -2.77819e-19 -1.02898e-05)
(-0.0281443 -0.0171234 -5.82444e-19 0.0281531 -1.63298e-19 -8.86352e-06)
(-0.0265103 -0.0168985 3.19074e-19 0.0265176 -1.41274e-19 -7.25267e-06)
(-0.0250912 -0.0167653 5.85991e-20 0.0250966 -5.118e-20 -5.44653e-06)
(-0.0238557 -0.0166301 -8.68881e-20 0.0238591 -4.85454e-19 -3.43533e-06)
(-0.0228265 -0.0166667 -1.74065e-19 0.0228277 1.24834e-19 -1.20886e-06)
(-0.177092 -0.0352293 2.12046e-19 0.177093 -4.58076e-20 -6.20081e-07)
(-0.174118 -0.0400651 9.83173e-20 0.174119 1.11391e-19 -1.75156e-06)
(-0.169757 -0.0431883 -1.77565e-19 0.16976 2.6963e-20 -2.81404e-06)
(-0.164411 -0.0450319 1.09363e-20 0.164415 -2.28451e-19 -3.81995e-06)
(-0.158562 -0.0459791 5.47541e-20 0.158567 1.65881e-19 -4.77915e-06)
(-0.152348 -0.0462567 1.60226e-20 0.152353 4.81071e-19 -5.69921e-06)
(-0.146031 -0.0460592 -5.9765e-20 0.146038 2.32349e-20 -6.58607e-06)
(-0.139651 -0.0455099 -2.04202e-19 0.139658 1.59355e-19 -7.44407e-06)
(-0.133352 -0.0447136 2.66633e-19 0.13336 -2.7273e-20 -8.2762e-06)
(-0.127134 -0.0437372 2.32212e-19 0.127143 1.23891e-19 -9.08422e-06)
(-0.12108 -0.0426407 -5.86308e-20 0.12109 4.92168e-22 -9.86855e-06)
(-0.115173 -0.0414604 -3.42516e-19 0.115183 2.00159e-19 -1.06287e-05)
(-0.10946 -0.0402316 -1.98773e-19 0.109471 1.70669e-20 -1.13627e-05)
(-0.103922 -0.0389744 -5.99058e-21 0.103934 3.50161e-19 -1.20679e-05)
(-0.0985858 -0.0377094 3.17261e-19 0.0985986 -1.64445e-19 -1.27406e-05)
(-0.0934312 -0.0364486 1.22605e-19 0.0934446 2.12982e-20 -1.33761e-05)
(-0.088475 -0.0352033 1.033e-19 0.0884889 -3.76298e-21 -1.39688e-05)
(-0.0836984 -0.0339818 6.0984e-20 0.0837129 2.08171e-20 -1.45131e-05)
(-0.0791114 -0.032789 -1.22235e-20 0.0791264 -1.53712e-19 -1.5002e-05)
(-0.0746988 -0.0316318 8.19549e-20 0.0747143 -1.73569e-19 -1.54292e-05)
(-0.0704657 -0.030511 -9.45933e-20 0.0704815 -1.88937e-20 -1.57875e-05)
(-0.0664011 -0.0294332 -8.11767e-20 0.0664172 -2.91149e-19 -1.60706e-05)
(-0.0625064 -0.0283962 2.71085e-20 0.0625227 1.87778e-19 -1.62717e-05)
(-0.0587753 -0.0274072 4.81455e-20 0.0587916 -9.33288e-20 -1.6385e-05)
(-0.0552062 -0.0264617 1.90881e-19 0.0552226 -1.43705e-19 -1.64047e-05)
(-0.0517973 -0.0255681 -2.54286e-20 0.0518136 -3.54195e-20 -1.63259e-05)
(-0.0485449 -0.0247198 -8.1972e-20 0.0485611 -4.19566e-20 -1.61432e-05)
(-0.0454516 -0.0239267 -2.10371e-20 0.0454675 -3.04911e-19 -1.58518e-05)
(-0.0425117 -0.0231804 -2.23426e-19 0.0425272 6.04924e-19 -1.54462e-05)
(-0.0397323 -0.0224935 -2.67355e-19 0.0397473 -2.67047e-20 -1.49208e-05)
(-0.037106 -0.0218536 -1.32918e-19 0.0371203 3.11082e-19 -1.42686e-05)
(-0.0346445 -0.0212798 4.43511e-19 0.034658 1.73912e-19 -1.34823e-05)
(-0.0323383 -0.0207506 -6.32117e-20 0.0323509 -2.62401e-19 -1.2553e-05)
(-0.0302051 -0.0202983 -1.25668e-19 0.0302166 2.74455e-19 -1.14714e-05)
(-0.0282306 -0.0198861 1.20182e-19 0.0282408 -2.26954e-19 -1.02272e-05)
(-0.0264444 -0.0195628 -1.86483e-20 0.0264532 -3.04333e-20 -8.80978e-06)
(-0.0248186 -0.0192788 2.37726e-20 0.0248258 -1.20347e-20 -7.20879e-06)
(-0.0234001 -0.0190991 -5.4473e-19 0.0234056 -1.3536e-19 -5.41363e-06)
(-0.0221655 -0.0189256 -1.96051e-19 0.0221689 -1.33784e-19 -3.41463e-06)
(-0.021126 -0.0189321 1.99262e-19 0.0211272 5.18884e-19 -1.20162e-06)
(-0.176155 -0.040633 1.08071e-19 0.176155 9.04555e-20 -6.14555e-07)
(-0.172475 -0.0460151 -1.42043e-20 0.172477 -1.28348e-19 -1.73601e-06)
(-0.167608 -0.0494728 -1.12107e-20 0.167611 6.66079e-20 -2.78915e-06)
(-0.161905 -0.0514931 1.27537e-19 0.161908 6.58608e-19 -3.78634e-06)
(-0.155807 -0.0525077 1.99993e-19 0.155812 1.79192e-20 -4.73735e-06)
(-0.149426 -0.0527711 -1.7853e-20 0.149431 -4.67025e-19 -5.64968e-06)
(-0.143003 -0.0525026 -2.98394e-21 0.14301 -9.50916e-20 -6.5292e-06)
(-0.136563 -0.0518401 1.51655e-19 0.13657 -1.56554e-19 -7.38021e-06)
(-0.130238 -0.0509021 -5.41966e-20 0.130246 -3.73743e-20 -8.20566e-06)
(-0.124021 -0.049763 -1.097e-19 0.12403 -1.60301e-19 -9.00727e-06)
(-0.117986 -0.0484908 2.77294e-19 0.117995 -1.38694e-19 -9.78548e-06)
(-0.112113 -0.0471256 2.54714e-19 0.112123 -2.87509e-19 -1.05397e-05)
(-0.106445 -0.0457074 5.46594e-20 0.106456 7.63119e-20 -1.12682e-05)
(-0.100959 -0.0442585 7.23053e-20 0.100971 -8.29412e-20 -1.19682e-05)
(-0.0956807 -0.042802 -1.35381e-19 0.0956934 -3.83686e-19 -1.26359e-05)
(-0.0905873 -0.0413513 -1.1306e-19 0.0906006 2.2525e-20 -1.32669e-05)
(-0.0856946 -0.0399191 1.2992e-19 0.0857084 -2.84529e-19 -1.38555e-05)
(-0.0809823 -0.0385143 -1.2956e-20 0.0809967 -2.22118e-20 -1.43959e-05)
(-0.0764599 -0.0371428 -1.88658e-19 0.0764748 -4.33798e-19 -1.48816e-05)
(-0.0721111 -0.035812 3.78375e-19 0.0721264 -2.24863e-21 -1.5306e-05)
(-0.0679408 -0.0345228 1.1289e-19 0.0679564 -5.43956e-20 -1.56621e-05)
(-0.0639371 -0.0332826 4.56069e-20 0.063953 2.39878e-22 -1.59436e-05)
(-0.0601016 -0.0320888 -1.87127e-19 0.0601178 1.82569e-19 -1.61437e-05)
(-0.056427 -0.0309495 -3.14815e-20 0.0564432 4.21291e-20 -1.6257e-05)
(-0.0529122 -0.0298597 1.46701e-19 0.0529285 1.39166e-19 -1.62773e-05)
(-0.0495544 -0.0288284 1.41923e-19 0.0495706 -3.15816e-19 -1.62e-05)
(-0.0463505 -0.0278486 -2.63198e-19 0.0463666 2.30578e-19 -1.60196e-05)
(-0.043302 -0.0269313 9.14473e-19 0.0433178 -5.46795e-19 -1.57314e-05)
(-0.0404042 -0.0260668 3.33804e-19 0.0404195 4.90525e-19 -1.53299e-05)
(-0.0376626 -0.0252695 -2.52002e-19 0.0376774 -5.64975e-19 -1.48094e-05)
(-0.0350713 -0.0245252 -2.69989e-19 0.0350854 5.04084e-19 -1.4163e-05)
(-0.0326397 -0.0238555 -5.83238e-19 0.0326531 -4.14548e-20 -1.33833e-05)
(-0.0303612 -0.0232362 4.98473e-20 0.0303737 2.12638e-19 -1.24616e-05)
(-0.0282494 -0.0227036 1.56042e-19 0.0282608 2.86855e-19 -1.13884e-05)
(-0.0262945 -0.0222164 -4.14092e-19 0.0263047 1.79148e-19 -1.01535e-05)
(-0.0245203 -0.0218294 -3.54918e-19 0.0245291 1.07453e-20 -8.7466e-06)
(-0.0229053 -0.0214867 2.49908e-19 0.0229124 3.23022e-19 -7.15721e-06)
(-0.021489 -0.0212601 -1.08486e-19 0.0214944 3.02823e-19 -5.3749e-06)
(-0.0202563 -0.0210482 5.01758e-19 0.0202597 -1.94036e-19 -3.39016e-06)
(-0.0192069 -0.0210235 -4.12508e-19 0.0192081 1.54158e-19 -1.19296e-06)
(-0.175076 -0.0460354 1.23968e-19 0.175077 -5.56972e-20 -6.08249e-07)
(-0.170612 -0.0518836 1.14183e-19 0.170614 -2.84617e-20 -1.71822e-06)
(-0.165183 -0.0556169 2.43399e-19 0.165186 -5.00371e-20 -2.76066e-06)
(-0.159084 -0.0577711 1.25686e-19 0.159088 -6.38336e-19 -3.74782e-06)
(-0.152712 -0.058822 -4.18081e-19 0.152717 -4.69682e-19 -4.6894e-06)
(-0.146146 -0.0590491 -1.25561e-20 0.146152 2.34298e-19 -5.59282e-06)
(-0.139607 -0.0586941 5.10637e-20 0.139614 2.45039e-19 -6.46389e-06)
(-0.133101 -0.0579081 -1.45041e-19 0.133108 7.22152e-20 -7.30684e-06)
(-0.12675 -0.0568218 2.17988e-19 0.126758 3.20184e-19 -8.12458e-06)
(-0.120534 -0.0555166 2.52028e-19 0.120543 -4.19515e-19 -8.91884e-06)
(-0.114522 -0.0540673 -3.29196e-19 0.114532 3.13605e-19 -9.69002e-06)
(-0.108689 -0.0525178 -6.55399e-20 0.108699 -2.08499e-19 -1.04376e-05)
(-0.103072 -0.0509119 -1.78037e-20 0.103083 9.06342e-20 -1.11597e-05)
(-0.0976458 -0.049274 -2.52061e-19 0.0976576 1.02963e-20 -1.18538e-05)
(-0.0924332 -0.0476294 3.01799e-19 0.0924457 2.46119e-19 -1.25159e-05)
(-0.0874092 -0.0459928 1.98108e-19 0.0874224 -1.21658e-19 -1.31417e-05)
(-0.0825884 -0.0443779 -1.05687e-19 0.0826021 4.15661e-19 -1.37256e-05)
(-0.0779489 -0.0427945 5.22485e-20 0.0779632 -1.70307e-19 -1.42618e-05)
(-0.0734997 -0.0412489 -2.36673e-19 0.0735144 2.22884e-19 -1.47437e-05)
(-0.0692231 -0.0397491 2.71156e-19 0.0692382 5.58542e-20 -1.5165e-05)
(-0.0651239 -0.0382963 1.09658e-20 0.0651395 -2.16977e-19 -1.55186e-05)
(-0.0611892 -0.0368982 1.28021e-19 0.061205 -2.5684e-20 -1.57982e-05)
(-0.0574209 -0.0355521 1.92183e-19 0.0574369 -1.4573e-19 -1.59974e-05)
(-0.0538103 -0.0342668 -7.35524e-20 0.0538264 -1.52192e-20 -1.61103e-05)
(-0.0503572 -0.0330367 -3.02667e-19 0.0503733 2.21436e-19 -1.61313e-05)
(-0.0470574 -0.0318718 2.64371e-19 0.0470734 -5.56375e-19 -1.60555e-05)
(-0.0439087 -0.0307642 -5.7919e-19 0.0439246 1.71523e-19 -1.58776e-05)
(-0.0409112 -0.0297259 -9.02364e-20 0.0409268 1.76488e-19 -1.5593e-05)
(-0.0380613 -0.0287465 2.18099e-19 0.0380765 4.6367e-20 -1.5196e-05)
(-0.0353629 -0.0278415 -7.21901e-20 0.0353776 -2.94792e-19 -1.46811e-05)
(-0.0328118 -0.0269955 6.03187e-19 0.0328258 1.77412e-19 -1.40413e-05)
(-0.0304148 -0.026232 2.13912e-19 0.0304281 -2.75259e-19 -1.32692e-05)
(-0.0281682 -0.0255247 -9.52158e-20 0.0281805 5.94145e-19 -1.23562e-05)
(-0.0260813 -0.0249132 3.14284e-19 0.0260926 -7.53485e-19 -1.12927e-05)
(-0.0241495 -0.0243522 -1.98899e-19 0.0241596 5.2693e-19 -1.00688e-05)
(-0.0223899 -0.0239022 5.40308e-20 0.0223986 -1.63771e-19 -8.67391e-06)
(-0.020788 -0.0235013 2.6651e-19 0.0207951 4.80893e-19 -7.09793e-06)
(-0.0193754 -0.0232277 -1.01108e-18 0.0193807 -3.61579e-19 -5.33049e-06)
(-0.0181456 -0.0229769 -2.98224e-19 0.018149 1.56457e-19 -3.36222e-06)
(-0.0170872 -0.0229199 3.78956e-19 0.0170884 3.32681e-19 -1.18318e-06)
(-0.173852 -0.0514353 -7.5412e-20 0.173853 6.36944e-19 -6.01141e-07)
(-0.168536 -0.057661 -1.55271e-19 0.168537 2.70253e-19 -1.69817e-06)
(-0.162495 -0.061605 -3.44427e-19 0.162498 6.48969e-20 -2.72853e-06)
(-0.155966 -0.0638458 -1.18034e-20 0.15597 4.65624e-19 -3.70437e-06)
(-0.149296 -0.0648991 5.27453e-19 0.1493 6.18947e-19 -4.6353e-06)
(-0.142531 -0.0650653 1.75235e-19 0.142536 2.10435e-19 -5.52864e-06)
(-0.135867 -0.064607 -5.47437e-20 0.135874 -1.38487e-19 -6.39014e-06)
(-0.129292 -0.0636862 2.41692e-19 0.129299 -3.32734e-19 -7.22398e-06)
(-0.122912 -0.0624446 -3.72174e-19 0.12292 -3.06891e-19 -8.03303e-06)
(-0.116701 -0.0609694 -1.50561e-19 0.116709 2.09227e-19 -8.81899e-06)
(-0.110716 -0.0593417 3.47197e-19 0.110726 4.6393e-19 -9.58227e-06)
(-0.104927 -0.0576083 -1.65024e-19 0.104937 3.82e-19 -1.03223e-05)
(-0.0993682 -0.0558168 2.04729e-19 0.0993793 2.53891e-19 -1.10373e-05)
(-0.0940086 -0.0539929 4.73399e-20 0.0940203 2.09122e-19 -1.17247e-05)
(-0.0888693 -0.0521642 -4.45057e-19 0.0888817 4.61152e-20 -1.23806e-05)
(-0.0839227 -0.0503459 1.54669e-19 0.0839357 -1.70143e-19 -1.30006e-05)
(-0.0791819 -0.0485531 6.76225e-20 0.0791955 2.81297e-20 -1.35792e-05)
(-0.0746234 -0.0467961 -7.44952e-20 0.0746375 -3.67799e-19 -1.41107e-05)
(-0.0702554 -0.0450816 -9.45706e-20 0.07027 -1.88706e-19 -1.45884e-05)
(-0.066059 -0.0434181 -1.70141e-19 0.066074 3.18802e-19 -1.50061e-05)
(-0.0620389 -0.0418068 2.41878e-20 0.0620543 5.06523e-20 -1.53568e-05)
(-0.0581808 -0.0402559 -3.72892e-20 0.0581965 3.05931e-19 -1.56343e-05)
(-0.0544871 -0.0387626 -7.38101e-20 0.0545029 -8.16251e-20 -1.58321e-05)
(-0.0509478 -0.037336 4.59401e-19 0.0509637 8.41101e-20 -1.59446e-05)
(-0.0475633 -0.0359703 -4.87021e-19 0.0475792 2.47818e-19 -1.59662e-05)
(-0.044328 -0.034676 5.18129e-20 0.0443439 -1.2189e-19 -1.58919e-05)
(-0.0412408 -0.0334448 4.50108e-19 0.0412565 5.98083e-19 -1.57167e-05)
(-0.0383002 -0.0322894 4.69377e-19 0.0383157 1.78032e-19 -1.54358e-05)
(-0.0355039 -0.0311985 -1.49297e-19 0.035519 4.32607e-19 -1.50438e-05)
(-0.0328539 -0.0301891 -5.37428e-19 0.0328685 4.90121e-19 -1.4535e-05)
(-0.0303478 -0.0292442 -2.27513e-19 0.0303618 9.73365e-20 -1.39025e-05)
(-0.0279898 -0.0283895 6.19098e-20 0.0280029 -2.55236e-20 -1.3139e-05)
(-0.0257792 -0.0275964 -3.43182e-19 0.0257914 1.92916e-20 -1.22356e-05)
(-0.0237207 -0.0269076 1.65973e-19 0.0237319 -2.35081e-19 -1.11832e-05)
(-0.0218154 -0.0262744 3.46478e-19 0.0218253 3.26672e-19 -9.97166e-06)
(-0.0200729 -0.025762 -3.81158e-19 0.0200815 -3.76579e-19 -8.59061e-06)
(-0.0184863 -0.0253036 5.69499e-19 0.0184933 4.4532e-20 -7.02995e-06)
(-0.017079 -0.0249828 -1.13348e-19 0.0170843 -1.19282e-19 -5.27951e-06)
(-0.0158534 -0.0246928 8.43441e-19 0.0158567 5.1361e-19 -3.33004e-06)
(-0.0147866 -0.0246024 -4.7281e-19 0.0147878 -2.92682e-19 -1.17181e-06)
(-0.172481 -0.0568306 7.03102e-20 0.172481 -4.03314e-19 -5.93254e-07)
(-0.166251 -0.0633382 -1.23742e-20 0.166252 -5.06147e-19 -1.6759e-06)
(-0.159556 -0.0674226 2.1434e-19 0.159558 2.10096e-19 -2.69282e-06)
(-0.152568 -0.0696991 1.15592e-19 0.152571 1.93806e-20 -3.65605e-06)
(-0.14558 -0.0707176 -7.02019e-19 0.145585 -7.26793e-20 -4.57509e-06)
(-0.138604 -0.0707968 -1.13079e-20 0.13861 -7.66699e-19 -5.45717e-06)
(-0.131809 -0.0702168 -2.43961e-19 0.131815 -2.53386e-20 -6.30799e-06)
(-0.125161 -0.069149 -1.2312e-19 0.125168 -2.05065e-19 -7.13164e-06)
(-0.118755 -0.0677445 5.16998e-19 0.118763 6.07663e-19 -7.93099e-06)
(-0.112549 -0.0660953 5.46616e-19 0.112558 3.65532e-20 -8.7077e-06)
(-0.106596 -0.0642879 -8.25247e-20 0.106606 -3.15771e-20 -9.46217e-06)