/*--------------------------------*- C++ -*----------------------------------*\
| =========                 |                                                 |
| \\      /  F ield         | foam-extend: Open Source CFD                    |
|  \\    /   O peration     | Version:  3.0                                   |
|   \\  /    A nd           | Web:         http://www.extend-project.de       |
|    \\/     M anipulation  |                                                 |
\*---------------------------------------------------------------------------*/
FoamFile
{
    version     2.0;
    format      ascii;
    class       volSymmTensorField;
    location    "32";
    object      sigma;
}
// * * * * * * * * * * * * * * * * * * * * * * * * * * * * * * * * * * * * * //

dimensions      [0 0 0 0 0 0 0];

internalField   nonuniform List<symmTensor> 
2688
(
(-0.1777013619 -0.004701325112 1.419127814e-19 0.1775467309 2.991969288e-19 0.0001546310579)
(-0.174167872 -0.005627438052 6.115796931e-20 0.1737464639 1.52716034e-19 0.0004214080978)
(-0.1670999108 -0.006076550622 -9.457158156e-20 0.1664381623 6.6212132e-19 0.0006617484781)
(-0.1578927107 -0.006210392441 7.351331531e-20 0.1570133275 2.390319967e-19 0.0008793831867)
(-0.1481491592 -0.006180109897 3.152639319e-20 0.1470723836 3.771180771e-19 0.001076775639)
(-0.1379783615 -0.006035522929 9.671058329e-20 0.1367230401 1.453300927e-19 0.001255321363)
(-0.1281413138 -0.005836837231 4.721052772e-20 0.1267255252 2.476810795e-19 0.001415788552)
(-0.1184686252 -0.005602381195 6.656379418e-20 0.1169103454 8.783384809e-20 0.00155827984)
(-0.1093439229 -0.005356086217 -3.877598571e-21 0.1076613928 1.730845765e-19 0.001682530085)
(-0.1005874045 -0.005106696913 -5.539970511e-20 0.09879961436 -5.55876664e-20 0.00178779012)
(-0.09238993996 -0.004862436978 6.804321694e-20 0.09051688385 4.04548904e-19 0.001873056109)
(-0.08462517268 -0.004629619256 -2.748230878e-20 0.08268824274 8.896694819e-20 0.001936929943)
(-0.07737462299 -0.004408591058 3.134596684e-19 0.0753968123 1.009636143e-19 0.00197781069)
(-0.07057678919 -0.004206269938 -4.624299527e-20 0.06858302969 3.974406842e-20 0.001993759506)
(-0.0642421393 -0.004018089813 -3.72369597e-20 0.06225947049 8.757272806e-20 0.001982668808)
(-0.05837420726 -0.003853024421 1.296017262e-20 0.05643206991 3.96468068e-20 0.001942137352)
(-0.05293036006 -0.003702911585 -3.379488113e-20 0.05106073704 1.833836324e-19 0.001869623026)
(-0.04797699568 -0.003579280935 1.708463283e-19 0.04621466552 1.091202886e-19 0.001762330159)
(-0.04342940809 -0.003471438872 -1.71593852e-19 0.04181205663 -5.15998354e-20 0.001617351458)
(-0.03941116908 -0.003392723801 1.108998938e-19 0.03797960063 2.39763156e-19 0.001431568456)
(-0.03580984397 -0.003332357506 1.095823625e-19 0.03460805118 -1.502590572e-19 0.001201792787)
(-0.03278983822 -0.003301619501 4.06575451e-20 0.03186516748 -2.15259214e-19 0.0009246707409)
(-0.03024306873 -0.003291172614 -2.928726048e-20 0.02964622877 5.258900894e-20 0.000596839962)
(-0.02833128316 -0.003318133991 -7.058845129e-20 0.02811647357 -4.654095235e-19 0.0002148095858)
(-0.1772110968 -0.01439778437 4.887264899e-20 0.1770553859 -4.137451749e-19 0.0001557108481)
(-0.1732524815 -0.01700509381 2.660690766e-19 0.1728281333 -2.103286107e-19 0.0004243482429)
(-0.1659351336 -0.01822361431 6.500236599e-20 0.1652687742 -3.880021244e-19 0.0006663594557)
(-0.1565966443 -0.01852326542 -1.479069388e-19 0.1557111366 1.594803394e-20 0.0008855077296)
(-0.1467885359 -0.01834627413 6.457722528e-20 0.1457042693 -9.467974449e-20 0.001084266573)
(-0.1365992817 -0.01783658823 -7.833653375e-20 0.1353352253 -2.412843932e-19 0.001264056391)
(-0.1267705676 -0.01717017104 1.718770604e-19 0.1253449313 1.62652218e-19 0.001425636291)
(-0.117123567 -0.01639938871 -4.74334384e-20 0.1155544397 -4.036081151e-19 0.001569127232)
(-0.1080350177 -0.01559395396 -8.488381568e-20 0.1063407663 7.940435065e-20 0.001694251482)
(-0.09931970836 -0.0147786243 2.3325803e-19 0.097519442 -3.778289471e-19 0.00180026636)
(-0.0911667874 -0.01397706054 1.148368219e-19 0.08928063339 -1.068988484e-19 0.001886154008)
(-0.08344595683 -0.01320728047 -5.67763069e-20 0.08149544502 -2.272452326e-19 0.001950511808)
(-0.07623949971 -0.01246982037 -1.282916339e-19 0.07424777706 7.47355134e-20 0.001991722658)
(-0.06948224994 -0.01178474209 1.408603039e-19 0.06747441448 -7.182491883e-21 0.002007835461)
(-0.06318696375 -0.01113824878 -2.20149557e-20 0.06119024087 1.200372834e-19 0.001996722882)
(-0.0573531862 -0.01055649876 6.611186063e-20 0.05539721973 3.903412326e-19 0.001955966468)
(-0.05194169186 -0.01001543263 2.911278905e-19 0.0500586916 -3.012723563e-19 0.001883000256)
(-0.04701432148 -0.009548354903 -3.853457867e-19 0.04523931508 4.176224786e-19 0.001775006394)
(-0.0424905732 -0.009124670226 2.946659078e-19 0.04086152449 2.836122976e-19 0.00162904871)
(-0.03848887675 -0.008782059617 3.35086922e-20 0.0370468956 -7.695036392e-20 0.001441981155)
(-0.03490139963 -0.008491070121 -4.751301767e-19 0.03369081712 1.290683481e-19 0.001210582505)
(-0.03188712233 -0.008282895622 1.67232464e-19 0.03095565515 2.612034133e-19 0.0009314671811)
(-0.02934214285 -0.008142256548 -3.184124701e-19 0.02874090569 3.013216475e-19 0.0006012371603)
(-0.02742438036 -0.008083555336 2.332730952e-19 0.02720800002 -2.700782291e-19 0.000216380346)
(-0.1762197282 -0.02406391386 1.786429817e-19 0.1760634443 3.372231783e-19 0.000156283867)
(-0.1714310494 -0.02823570751 2.856945138e-20 0.1710051548 4.405470025e-19 0.0004258945845)
(-0.163627959 -0.03015228738 3.635147763e-20 0.1629591743 1.991190004e-19 0.0006687847434)
(-0.1540353537 -0.03057705259 2.70298706e-19 0.1531466234 1.060699775e-19 0.0008887303195)
(-0.1441040057 -0.03023050832 -1.749060047e-19 0.1430157806 2.932847877e-19 0.001088225086)
(-0.1338819072 -0.02934502026 2.633859775e-19 0.1326132219 1.076764021e-19 0.001268685294)
(-0.1240730337 -0.02820774023 -6.283224345e-20 0.1226421515 2.369522047e-19 0.001430882195)
(-0.1144798952 -0.02690226409 -2.489082863e-20 0.1129049652 1.841216385e-19 0.001574929996)
(-0.1054659515 -0.02554254533 -3.270870466e-20 0.1037653964 4.670114605e-19 0.001700555069)
(-0.09683526004 -0.02416776344 -2.646415652e-19 0.09502825399 1.951214824e-19 0.001807006056)
(-0.0887737117 -0.02281664905 1.56585618e-19 0.08688044795 4.457182069e-19 0.001893263753)
(-0.08114326146 -0.02151782472 1.454411799e-19 0.07918534531 6.762651385e-20 0.001957916157)
(-0.07402769845 -0.02027222837 5.135397929e-19 0.0720283567 -6.391188572e-20 0.001999341752)
(-0.06735473846 -0.01911207856 1.615019195e-20 0.06533916047 -8.734853624e-20 0.002015577992)
(-0.06114154127 -0.01801492941 3.851654896e-19 0.05913705003 -6.208211957e-20 0.002004491234)
(-0.05537996396 -0.01702307828 -3.132795964e-19 0.05341631555 -1.119316817e-19 0.001963648404)
(-0.0500372525 -0.01609740452 -3.884634717e-20 0.04814677792 1.62698262e-19 0.001890474578)
(-0.0451665654 -0.01529184116 9.552192617e-19 0.0433844323 -1.360576173e-19 0.001782133099)
(-0.04069524436 -0.01455692549 -6.381926532e-19 0.03905956951 1.369534133e-19 0.001635674852)
(-0.03673220291 -0.0139534163 2.192446709e-20 0.03528427219 -2.335557068e-20 0.001447930721)
(-0.03317805954 -0.01343443491 4.85247604e-19 0.0319623981 6.68467881e-20 0.001215661436)
(-0.0301818531 -0.01304981444 3.909504678e-19 0.02924640113 -3.33696093e-19 0.000935451968)
(-0.02764791285 -0.01277927477 -6.375933312e-19 0.02704403641 2.880045707e-19 0.000603876444)
(-0.02572531838 -0.01263416926 -8.439158321e-20 0.02550794289 -4.049788108e-19 0.0002173754972)
(-0.1747269956 -0.03367879822 5.519740386e-20 0.1745706352 -2.929575038e-21 0.0001563603549)
(-0.1687299854 -0.03922483985 1.628691912e-19 0.1683038841 -1.551006741e-19 0.0004261013021)
(-0.1602213695 -0.04172335802 -6.026126415e-20 0.159552264 -7.089259585e-19 0.0006691054985)
(-0.1502614503 -0.04220733444 -1.501423904e-19 0.1493722927 1.447273631e-19 0.0008891576273)
(-0.1401537525 -0.04165413211 1.345931894e-19 0.1390649972 -2.159272272e-19 0.001088755272)
(-0.129887241 -0.04037583711 -1.691175487e-19 0.1286179237 5.987134816e-20 0.001269317291)
(-0.1201107351 -0.038762748 3.202388579e-19 0.1186791202 -5.726574039e-20 0.001431614966)
(-0.1105996593 -0.03692558856 5.891363992e-20 0.109023896 2.560428806e-19 0.001575763292)
(-0.1016979238 -0.03501975253 1.002476312e-19 0.09999643621 -4.459986449e-19 0.001701487548)
(-0.09319411073 -0.03309637552 1.95328399e-19 0.09138607515 7.94652222e-20 0.001808035579)
(-0.08526920786 -0.0312086511 -3.470755277e-20 0.08337482175 2.021890967e-19 0.001894386109)
(-0.07777400126 -0.02939396797 -4.849096159e-19 0.07581487573 -3.394563451e-19 0.001959125525)
(-0.07079440774 -0.02765410023 -4.068009784e-19 0.06879377857 4.588814616e-19 0.002000629173)
(-0.06424780513 -0.02603173645 2.742121598e-19 0.06223087226 -4.260718597e-19 0.002016932867)
(-0.05815778174 -0.02449684195 -1.869466758e-19 0.05615188306 9.313389738e-19 0.002005898683)
(-0.05250494666 -0.02310603866 4.690659465e-19 0.05053985532 -7.836393782e-20 0.00196509134)
(-0.04726607259 -0.02180670589 5.183910447e-20 0.04537414294 3.657209124e-19 0.001891929656)
(-0.04248159195 -0.02067122035 -2.553274341e-19 0.04069801941 -3.496205319e-19 0.001783572539)
(-0.03809036231 -0.01963342907 6.559821371e-19 0.03645330014 -3.324834644e-20 0.001637062171)
(-0.03418773864 -0.0187741022 -1.917874885e-19 0.03273851699 8.112954555e-20 0.001449221652)
(-0.0306854924 -0.01803234234 -8.737450307e-19 0.02946869276 1.697500616e-19 0.00121679964)
(-0.02772169608 -0.01747216393 6.584487081e-19 0.02678532764 -9.23955481e-20 0.0009363684406)
(-0.0252043886 -0.01707243356 -2.145149536e-19 0.02459989996 5.765172618e-19 0.0006044886338)
(-0.02328619717 -0.01684035217 3.209856651e-19 0.02306860137 -2.358498283e-19 0.0002175958028)
(-0.1727328038 -0.0432204043 6.350919126e-20 0.1725768522 1.672138776e-19 0.0001559516667)
(-0.1651881339 -0.04988304299 -3.265857096e-19 0.1647631581 -1.852740899e-19 0.0004249757822)
(-0.1557782335 -0.05280629468 2.690347131e-19 0.1551109006 -2.444921715e-19 0.0006673329171)
(-0.145351832 -0.05326015353 5.074623502e-19 0.1444650327 2.748207932e-19 0.0008867992235)
(-0.1350227407 -0.05245034949 -1.263178913e-19 0.1339368674 -2.642781493e-19 0.001085873251)
(-0.1247043708 -0.05075629781 2.64399442e-19 0.1234384032 4.933569017e-19 0.00126596763)
(-0.1149743202 -0.04866111216 1.916956952e-19 0.1135464641 -2.933607142e-19 0.001427856036)
(-0.1055734612 -0.04629655456 -3.091110522e-19 0.1040018109 4.401012917e-19 0.001571650274)
(-0.09682043103 -0.04385604645 -2.453186908e-19 0.09512335231 3.695131651e-19 0.001697078722)
(-0.08848404708 -0.04139907447 4.2345486e-19 0.08668065815 -2.720522589e-19 0.001803388931)
(-0.08073895173 -0.03899261998 6.988830466e-20 0.07884938899 -2.116028377e-19 0.001889562738)
(-0.07342165506 -0.03668028005 4.585387937e-19 0.07146746734 -9.352532706e-20 0.00195418772)
(-0.06662076954 -0.03446525887 2.420574788e-19 0.06462512627 4.089114199e-19 0.001995643273)
(-0.06024048381 -0.03239845036 4.386158918e-19 0.05822851668 -3.022546486e-19 0.002011967123)
(-0.05431253492 -0.03044360354 7.773899093e-19 0.05231150798 3.405967642e-19 0.002001026934)
(-0.04880324147 -0.02866927243 -7.269072266e-19 0.04684285238 -9.628288773e-19 0.001960389081)
(-0.04370133165 -0.02701130282 -2.263852917e-20 0.04181385342 -5.873296489e-19 0.001887478238)
(-0.03903123018 -0.0255577728 2.440612064e-19 0.0372517764 1.524987557e-19 0.00177945378)
(-0.03474598562 -0.02422835052 -2.453016199e-19 0.03311262331 -1.024699026e-19 0.001633362311)
(-0.03092416216 -0.02312070136 6.337197617e-19 0.02947813659 -3.264240402e-20 0.001446025576)
(-0.02749164458 -0.02216271239 2.444631535e-19 0.02627745153 -1.363967306e-19 0.001214193055)
(-0.02457127502 -0.02143009289 5.521504062e-19 0.02363684363 5.508163977e-19 0.000934431387)
(-0.02208132082 -0.02090198807 -9.276613053e-20 0.02147802502 -9.336169925e-19 0.0006032958008)
(-0.02016919016 -0.02058097774 -5.786253029e-19 0.01995198767 1.075032967e-18 0.0002172024955)
(-0.1702370558 -0.05266670972 -2.946595714e-19 0.1700820064 6.174842716e-19 0.0001550494663)
(-0.1608557438 -0.06012780037 -4.035574446e-19 0.1604332317 5.013966531e-19 0.0004225120939)
(-0.1503798872 -0.06328200045 -5.225598985e-20 0.1497164287 -7.002462067e-20 0.0006634585081)
(-0.1394057929 -0.06359594169 -1.961675949e-19 0.1385241446 3.354652371e-19 0.0008816483158)
(-0.1288207951 -0.06246819622 2.153279707e-19 0.1277412255 2.703166903e-19 0.00107956963)
(-0.1184482761 -0.06033053676 -1.384608115e-19 0.1171896481 -2.116756094e-19 0.001258627984)
(-0.1087808095 -0.05774575431 3.838019448e-19 0.1073612153 -5.607892225e-20 0.001419594199)
(-0.09951820785 -0.05485951039 6.118698333e-19 0.0979556287 5.762110859e-19 0.001562579152)
(-0.09094886721 -0.05189870964 -2.89407109e-19 0.08926155354 -1.031107064e-18 0.001687313674)
(-0.08281821664 -0.04892699964 -7.347122494e-19 0.08102516798 9.868896671e-19 0.001793048665)
(-0.07529322673 -0.04602412171 6.064136855e-20 0.0734144554 2.053200836e-19 0.001878771326)
(-0.06819354225 -0.04323685264 -2.347091024e-20 0.06625046638 -6.03869034e-20 0.001943075874)
(-0.06161091699 -0.04057047662 -4.397362957e-19 0.05962656769 -1.01874468e-20 0.001984349301)
(-0.05543390813 -0.03808136689 1.175644098e-20 0.05343326877 2.377759824e-20 0.002000639357)
(-0.0497039333 -0.03572872202 -2.997438327e-19 0.04771411008 5.950273729e-20 0.001989823212)
(-0.04437031384 -0.03359016207 -3.692636436e-19 0.04242083423 -2.857391584e-19 0.00194947961)
(-0.03943598911 -0.03159242235 4.315134672e-19 0.03755894545 1.351574763e-18 0.001877043655)
(-0.03490647248 -0.02983598785 3.688112414e-19 0.0331367849 -1.001122975e-19 0.001769687578)
(-0.03075119411 -0.02822946501 2.247670239e-19 0.02912672554 5.959478393e-19 0.001624468575)
(-0.02703040037 -0.02688319032 -4.586003478e-19 0.02559218049 3.657071241e-19 0.001438219874)
(-0.023682504 -0.02571773466 -1.194005723e-19 0.0224748041 3.952935656e-19 0.001207699905)
(-0.02082161295 -0.02481546725 -2.424478272e-19 0.0198921293 1.19469704e-18 0.0009294836544)
(-0.01836104278 -0.02415806512 1.145609542e-18 0.01776090903 -2.788613863e-19 0.0006001337478)
(-0.01646484189 -0.02374699726 -2.134628388e-19 0.01624876674 2.306807474e-18 0.0002160751488)
(-0.1672404348 -0.06199400472 5.312652868e-19 0.167086771 -1.155384129e-18 0.0001536637849)
(-0.1557931905 -0.06988511812 -8.979645826e-19 0.1553744664 2.940732826e-20 0.0004187241306)
(-0.1441236349 -0.07304583683 3.702109135e-19 0.1434661313 -7.563714554e-19 0.0006575035704)
(-0.1325421628 -0.07309292584 5.129675718e-19 0.1316684321 6.554171705e-19 0.0008737306918)
(-0.1216790946 -0.07157658085 -8.358034472e-20 0.1206092175 -1.09362311e-18 0.001069877117)
(-0.1112564198 -0.06896346954 -1.236460788e-19 0.1100090847 4.501020608e-19 0.001247335044)
(-0.101669955 -0.06588094729 5.823080132e-19 0.1002630832 -7.930315944e-20 0.001406871847)
(-0.09257355169 -0.06248009693 -3.574836376e-19 0.09102495538 -1.067050841e-18 0.001548596316)
(-0.08422104362 -0.05901622332 5.037921719e-19 0.08254880002 -5.064497891e-19 0.001672243592)
(-0.07633175096 -0.05555209947 1.405439959e-18 0.07455468106 2.211055324e-19 0.001777069898)
(-0.06906376979 -0.0521791794 -7.572473309e-19 0.06720169802 -8.445048792e-19 0.001862071772)
(-0.06221790324 -0.04894380181 2.245936877e-19 0.06029204965 4.59221095e-19 0.001925853593)
(-0.05588933002 -0.04585416016 3.339519334e-19 0.05392251346 3.319388219e-19 0.001966816556)
(-0.04994911574 -0.04296888874 1.975491029e-19 0.04796609335 7.618506091e-19 0.00198302239)
(-0.04444947286 -0.04024458529 8.264841915e-19 0.04247710573 -3.419136506e-19 0.001972367123)
(-0.03932074118 -0.03776456214 -4.559453956e-19 0.03738829498 1.259572199e-18 0.001932446201)
(-0.03458157098 -0.03544918746 2.956243036e-19 0.03272085443 -5.313009506e-19 0.00186071655)
(-0.03021661452 -0.03340762573 -6.033573513e-19 0.0284622456 4.782219334e-19 0.001754368914)
(-0.02621293961 -0.03154055093 7.805676205e-19 0.02460245646 -3.192294734e-19 0.00161048315)
(-0.02261081449 -0.02996765066 4.188805993e-19 0.02118490285 5.938965503e-19 0.001425911645)
(-0.01936281524 -0.02860372679 1.568151517e-18 0.0181653816 -5.936306064e-19 0.001197433642)
(-0.01657008426 -0.02753898684 -3.940778136e-19 0.01564844233 8.488116657e-19 0.0009216419321)
(-0.01414867241 -0.02675224348 1.347187206e-18 0.01355355593 4.426360348e-19 0.0005951164803)
(-0.01227236118 -0.02625266298 -8.821442298e-19 0.01205806767 -4.593680326e-19 0.0002142935048)
(-0.1637436637 -0.07117852906 2.450988334e-19 0.1635918721 1.273580943e-18 0.0001517915602)
(-0.1500695248 -0.07909096209 2.069414767e-19 0.1496559079 5.656558964e-20 0.0004136168596)
(-0.1371205513 -0.08200986557 -4.415782948e-19 0.1364710731 9.784812288e-19 0.0006494781482)
(-0.1248963243 -0.08164997482 2.183113141e-19 0.1240332616 -7.95631235e-19 0.0008630626799)
(-0.113747188 -0.07966736245 3.210616573e-19 0.1126903723 -1.654761453e-19 0.001056815727)
(-0.1032853121 -0.07654419182 6.392879437e-20 0.1020531983 7.799020602e-19 0.001232113826)
(-0.09380096735 -0.07295553209 -6.979320485e-19 0.0924112501 9.359823588e-20 0.001389717248)
(-0.08489849172 -0.06904859938 3.493305121e-19 0.08336875803 -1.383630868e-20 0.001529733699)
(-0.07679389263 -0.06510130871 -7.78007276e-19 0.07514198971 1.277706067e-18 0.001651902915)
(-0.06917848789 -0.06117011746 -7.707425903e-20 0.06742299848 -4.557989284e-19 0.001755489405)
(-0.06220055463 -0.05735688859 3.137874903e-19 0.0603610529 7.78392612e-19 0.00183950173)
(-0.05564069458 -0.05370362897 8.126142474e-19 0.05373813487 -8.873561397e-20 0.001902559704)
(-0.04959770593 -0.05022225242 -1.6155241e-19 0.04765462346 2.251204318e-19 0.00194308247)
(-0.04392381952 -0.04697020974 -3.346050737e-19 0.04196466582 -7.128214344e-19 0.001959153701)
(-0.03868290258 -0.04390353586 3.36106223e-19 0.03673421019 -3.972262492e-20 0.001948692386)
(-0.03378479523 -0.04110777767 2.513262071e-19 0.03187547425 -8.877908906e-19 0.001909320971)
(-0.02926494525 -0.03849963812 4.235411289e-20 0.02742642211 -1.088631533e-20 0.001838523145)
(-0.02508593091 -0.03619361656 7.80948048e-19 0.02335241129 -7.546043976e-19 0.001733519619)
(-0.02125220267 -0.03408491361 1.380691432e-19 0.01966078292 -3.166917031e-19 0.001591419753)
(-0.01778636574 -0.03229981142 -6.977280386e-19 0.01637725917 -6.088603261e-19 0.001409106569)
(-0.01464789125 -0.03074915306 5.539075585e-19 0.01346450191 -2.395937217e-19 0.001183389344)
(-0.01193885486 -0.02952621559 1.581424839e-18 0.01102796463 3.787835647e-19 0.0009108902244)
(-0.00955891069 -0.028613152 6.423025307e-19 0.008970693023 -1.301816082e-18 0.0005882176669)
(-0.007709405068 -0.02801491957 1.52876484e-19 0.007497572888 9.380163091e-19 0.0002118321802)
(-0.1597490602 -0.0801945479 -2.91943419e-20 0.1595996148 -6.887847086e-19 0.0001494454207)
(-0.1437606611 -0.08769237251 -1.262010089e-18 0.1433534475 4.206691165e-19 0.0004072135927)
(-0.12949217 -0.09010471737 8.460359319e-19 0.1288527536 -2.043744899e-18 0.0006394164007)
(-0.1166162986 -0.08918897468 -7.317672875e-19 0.1157666115 6.548415788e-19 0.0008496870965)
(-0.1051883258 -0.08665796212 7.446772786e-19 0.1041478884 -2.345018515e-19 0.001040437397)
(-0.094705836 -0.08298867886 7.465753112e-19 0.09349281265 -1.458379033e-19 0.00121302335)
(-0.0853474915 -0.07888582417 5.634845636e-20 0.08397929523 -3.208978367e-19 0.001368196267)
(-0.07666644331 -0.07448279142 2.340839315e-19 0.07516038084 -3.822378884e-19 0.00150606247)
(-0.06883844848 -0.07007396123 7.013517069e-19 0.0672120812 -6.783478222e-19 0.001626367283)
(-0.06152604699 -0.06570358267 3.369590546e-19 0.05979766112 4.792404267e-19 0.001728385876)
(-0.05486686994 -0.06148261268 -7.250255347e-19 0.0530557276 -6.428512749e-19 0.001811142337)
(-0.04862074445 -0.05744447942 1.202039181e-19 0.04674746883 -2.23560482e-20 0.001873275619)
(-0.04289007102 -0.05360575737 3.730168559e-19 0.04097684199 2.728582107e-19 0.001913229028)
(-0.03750759063 -0.05001894172 -2.872410454e-19 0.03557847828 5.639140985e-19 0.001929112352)
(-0.03254932554 -0.04664174438 2.243278955e-20 0.03063044922 7.006940097e-19 0.00191887632)
(-0.02790373594 -0.04355817852 -3.950658249e-19 0.02602356074 9.798651446e-19 0.001880175195)
(-0.02362399115 -0.04068407448 -1.105992946e-19 0.02181346131 2.775204513e-19 0.001810529842)
(-0.01964933688 -0.03813624075 -1.332957712e-18 0.01794213942 6.568314832e-19 0.001707197466)
(-0.01600293485 -0.03580514394 1.084557564e-18 0.01443560724 7.958145373e-19 0.001567327612)
(-0.01268769895 -0.03382643432 1.336249619e-19 0.01129985603 5.144781374e-19 0.001387842921)
(-0.009671398611 -0.03209601726 9.196489215e-19 0.008505805504 7.876198902e-19 0.001165593107)
(-0.007054263871 -0.03073199825 -1.237627592e-18 0.006157022702 -7.167070105e-19 0.0008972411697)
(-0.004719014764 -0.02968549152 2.058829444e-18 0.004139579016 3.925009239e-19 0.0005794357478)
(-0.002894025395 -0.02899218466 -3.435623712e-19 0.002685343955 -1.343292299e-18 0.0002086814406)
(-0.1552590835 -0.08901620178 1.881362841e-18 0.1551124559 -4.803010642e-21 0.0001466275652)
(-0.1369476134 -0.09564838293 3.282945192e-20 0.1365480842 -8.366864469e-19 0.0003995292196)
(-0.1213676639 -0.09728111112 -2.011012528e-19 0.1207403199 -1.813965496e-19 0.0006273439503)
(-0.1078591047 -0.0956565503 5.140949169e-19 0.1070254646 1.237717814e-18 0.0008336400164)
(-0.09617565364 -0.09249333602 -5.41720621e-19 0.0951548665 -3.722712822e-19 0.001020787142)
(-0.08569906066 -0.08824183458 3.338770824e-19 0.08450894303 5.135855351e-19 0.001190117632)
(-0.0764935744 -0.08361760455 -5.976001211e-19 0.07515120329 -1.513963039e-19 0.001342371109)
(-0.0680611253 -0.07872995148 -5.901401376e-19 0.06658347253 7.412459994e-19 0.001477652772)
(-0.06053596422 -0.07388327496 4.769056308e-20 0.05894024994 6.040153914e-19 0.001595714273)
(-0.05355203644 -0.06910359912 1.095860723e-19 0.05185619231 7.614324653e-19 0.00169584413)
(-0.04723580729 -0.06450952561 2.615170395e-19 0.04545872251 1.335431409e-19 0.001777084785)
(-0.04132643924 -0.0601215886 7.578848977e-19 0.03948833969 6.634802811e-19 0.001838099549)
(-0.03592982997 -0.05596192763 7.119802341e-19 0.03405247029 2.248212539e-20 0.001877359677)
(-0.03085914779 -0.05207423479 4.661319274e-19 0.0289661389 -8.274528066e-19 0.001893008885)
(-0.02620278886 -0.04842017148 1.054374494e-18 0.02431975491 -2.838367653e-19 0.001883033944)
(-0.02182738375 -0.04507829615 3.221909912e-19 0.0199822531 -1.247642973e-18 0.001845130652)
(-0.01780460103 -0.04196655995 2.153008908e-19 0.01602773849 -2.04158713e-19 0.001776862542)
(-0.01404875026 -0.03920031209 9.58290115e-19 0.01237321672 -7.753648597e-19 0.001675533542)
(-0.01060469526 -0.03666785228 -9.20160015e-19 0.009066354151 -1.107461663e-19 0.001538341105)
(-0.007449531138 -0.03451181671 -4.797474005e-19 0.006087273984 -5.560373983e-19 0.001362257154)
(-0.004570040801 -0.03261457593 3.560902911e-20 0.003425858943 -5.195534244e-20 0.001144181858)
(-0.002047156316 -0.03111657229 -9.317933401e-20 0.001166328818 8.043198016e-19 0.0008808274978)
(0.0002310615761 -0.02994492545 -1.574873829e-18 -0.0007999532271 -7.922851537e-19 0.000568891651)
(0.00203402773 -0.02915617192 1.203462271e-18 -0.002238946261 -5.68631241e-20 0.0002049185316)
(-0.150278673 -0.09761573512 -5.20401396e-19 0.1501353214 5.117125274e-19 0.0001433516246)
(-0.1297144096 -0.1029304002 2.334013753e-19 0.1293238164 -9.467127522e-19 0.0003905931826)
(-0.1128801125 -0.1035104555 -2.025936209e-19 0.1122668079 1.678774341e-18 0.000613304575)
(-0.09878620795 -0.1010249412 3.605096157e-19 0.09797123035 -8.332846624e-19 0.0008149775917)
(-0.0868869331 -0.09714686622 -6.898203468e-20 0.08588900042 4.510409185e-19 0.0009979326865)
(-0.07645080501 -0.09227846527 1.350373415e-18 0.07528733094 -6.094593892e-19 0.001163474072)
(-0.06742788945 -0.08712716474 2.378799612e-19 0.06611556197 2.288710955e-19 0.001312327482)
(-0.05927081758 -0.08176789729 9.839665351e-19 0.05782622082 -8.099699701e-19 0.001444596754)
(-0.05207202562 -0.07650857866 2.511567557e-19 0.05051198497 -2.252144207e-19 0.00156004066)
(-0.04543823724 -0.07135094573 6.766861052e-19 0.04378027396 -6.617161807e-19 0.001657963288)
(-0.03948435347 -0.06641981375 -1.27360353e-18 0.03774692466 -4.732914345e-19 0.001737428818)
(-0.03392984748 -0.06171843417 1.75882092e-20 0.03213271906 -2.150505113e-19 0.001797128421)
(-0.02888375077 -0.05727547977 -3.183819079e-19 0.02704818349 -6.414348348e-19 0.001835567285)
(-0.0241403425 -0.05312186634 -5.035324642e-19 0.02228941529 -2.730773997e-19 0.001850927209)
(-0.01980014787 -0.04922565586 -2.873111329e-19 0.01795890865 3.675162162e-19 0.001841239221)
(-0.01570828877 -0.04565570996 4.788369299e-20 0.01390404291 7.540910941e-19 0.00180424586)
(-0.01195514373 -0.0423357847 -2.700205457e-19 0.01021758104 6.023299198e-19 0.001737562689)
(-0.008429315853 -0.03937473968 -7.554570521e-21 0.006790768166 -5.871008728e-19 0.001638547687)
(-0.005199512132 -0.03666403515 1.670091303e-18 0.003695056588 1.97712967e-18 0.001504455544)
(-0.002212476684 -0.03434621824 -7.297092112e-20 0.0008801591891 -4.656966703e-21 0.001332317495)
(0.000518419062 -0.03229855553 1.986639147e-18 -0.001637512377 1.303177448e-18 0.001119093315)
(0.00294233195 -0.03067407136 -4.875471004e-19 -0.003803889478 -1.208864262e-18 0.0008615575281)
(0.00515548146 -0.02938231026 -1.850065277e-20 -0.005711951027 -1.537878907e-19 0.0005564695669)
(0.006928359564 -0.02850529228 -9.973059115e-19 -0.007128805308 -2.048944296e-19 0.0002004457444)
(-0.1448130881 -0.105965215 8.668888019e-19 0.1446734639 2.335674435e-19 0.0001396241522)
(-0.1221461309 -0.1095226178 -5.04638129e-19 0.1217657015 5.066125944e-19 0.0003804294004)
(-0.1041633717 -0.1087854156 3.880190637e-20 0.1035660336 -7.189938773e-20 0.0005973380939)
(-0.0895595911 -0.1052925457 1.583601434e-19 0.0887658365 3.633432874e-19 0.000793754596)
(-0.07750034411 -0.100621015 -8.226083212e-19 0.07652840146 -2.966781376e-19 0.000971942651)
(-0.06714714094 -0.09510391082 4.939990978e-19 0.0660139663 -3.315802401e-19 0.001133174642)
(-0.0583393601 -0.08942191487 -3.586950531e-19 0.05706119992 -3.991230616e-19 0.001278160179)
(-0.05048395901 -0.08360559402 -4.506942378e-19 0.04907695736 -3.568675383e-19 0.001407001645)
(-0.0436324125 -0.07795996267 7.414749003e-19 0.0421129467 -1.70715015e-20 0.001519465797)
(-0.03736657634 -0.07245662334 1.042682621e-18 0.03575170147 7.996613608e-20 0.001614874872)
(-0.0317896906 -0.06722514767 1.106891628e-18 0.03009737308 1.616414764e-19 0.001692317523)
(-0.02660320647 -0.06224728646 1.596472653e-19 0.02485268854 3.877875635e-19 0.001750517927)
(-0.02191880394 -0.05755915359 2.763028089e-19 0.02013078502 8.887719282e-19 0.001788018923)
(-0.0175132028 -0.05317504314 7.180046894e-19 0.01571015492 1.776207364e-19 0.001803047887)
(-0.01349836245 -0.04907182083 7.462373544e-19 0.01170467779 1.326155927e-18 0.001793684663)
(-0.009699077166 -0.04530443573 3.018512649e-19 0.007941349748 -3.819928837e-19 0.001757727418)
(-0.006223657211 -0.04180621355 -5.656733813e-19 0.004530807295 -1.078180658e-18 0.001692849916)
(-0.002935985791 -0.03867414028 -1.352287636e-19 0.001339512745 6.736931618e-19 0.001596473045)
(7.181301136e-05 -0.03580892072 6.836857997e-19 -0.001537730278 -9.717631873e-19 0.001465917267)
(0.002883349285 -0.03334423391 -9.596411404e-19 -0.004181630314 -1.039919642e-18 0.001298281029)
(0.005457223849 -0.03116390931 -4.125490064e-19 -0.006547817918 -9.215206456e-19 0.001090594069)
(0.007775764925 -0.02941797017 7.127758968e-19 -0.008615463644 -1.341140797e-18 0.0008396987186)
(0.009914686458 -0.02801533203 -1.179979603e-18 -0.01045710861 5.524685619e-20 0.000542422147)
(0.01165107574 -0.02704851009 1.093080242e-18 -0.01184650848 5.596411275e-21 0.000195432738)
(-0.13887091 -0.1140352306 -6.7553741e-20 0.1387354501 5.816452194e-19 0.0001354599263)
(-0.1143268695 -0.1154215661 5.03438109e-19 0.1139577962 -6.245560805e-19 0.0003690733868)
(-0.0953483445 -0.1131192146 -6.254594605e-19 0.09476884608 1.326343388e-18 0.0005794984263)
(-0.08033713797 -0.1084831358 7.964791162e-19 0.07956709671 -6.822327477e-19 0.0007700412558)
(-0.06818917495 -0.1029463855 -5.690072064e-19 0.06724627314 7.666121179e-20 0.0009429018088)
(-0.05796884705 -0.09675309139 -4.516641482e-20 0.05686953051 8.129457075e-19 0.001099316535)
(-0.04941129565 -0.09053941188 6.401707799e-19 0.04817131902 3.158302605e-19 0.001239976623)
(-0.0418832732 -0.08428217288 -5.555700795e-19 0.04051829053 7.543562858e-19 0.001364982676)
(-0.03539707795 -0.07827734275 -7.266263377e-19 0.03392296782 2.368698857e-19 0.001474110134)
(-0.02951318629 -0.07246090148 -4.85879411e-19 0.02794648498 7.551223986e-19 0.001566701315)
(-0.02432319632 -0.06696577663 -1.995806388e-19 0.02268132373 -8.210529763e-19 0.001641872587)
(-0.01951305561 -0.0617482437 5.070614423e-19 0.01781467128 7.898469936e-19 0.001698384332)
(-0.01519633408 -0.05685271159 -5.317032425e-20 0.01346151143 -1.391714455e-18 0.001734822652)
(-0.01113431092 -0.05227322471 -4.286589727e-19 0.009384846299 -3.459267213e-19 0.001749464618)
(-0.007449154898 -0.04799770714 8.517433933e-19 0.0057087086 -9.265379e-19 0.001740446298)
(-0.003947400312 -0.04406324836 1.366888034e-19 0.002241773218 -1.492214181e-18 0.001705627095)
(-0.0007536467794 -0.04041622475 7.724223058e-19 -0.0008891003182 4.624250104e-19 0.001642747098)
(0.002290557311 -0.03713680856 -8.819945108e-20 -0.003839855434 -1.266845264e-18 0.001549298123)
(0.005072105858 -0.03414042189 7.20255095e-19 -0.006494780269 1.185245675e-18 0.001422674411)
(0.007701300071 -0.03154401167 1.299933828e-18 -0.008961352414 -7.551525313e-19 0.001260052343)
(0.01011298939 -0.02924821169 -2.857412548e-19 -0.01117152918 1.201700765e-18 0.001058539788)
(0.01231700212 -0.02738649979 1.612495925e-19 -0.0131320631 -4.812765053e-19 0.0008150609849)
(0.01437323152 -0.02588070315 9.051627247e-20 -0.01489975702 1.451795151e-18 0.0005265254976)
(0.01606344647 -0.02482705816 -5.507415865e-19 -0.01625314549 -4.491067227e-19 0.0001896990171)