/*--------------------------------*- C++ -*----------------------------------*\
| =========                 |                                                 |
| \\      /  F ield         | foam-extend: Open Source CFD                    |
|  \\    /   O peration     | Version:  3.0                                   |
|   \\  /    A nd           | Web:         http://www.extend-project.de       |
|    \\/     M anipulation  |                                                 |
\*---------------------------------------------------------------------------*/
FoamFile
{
    version     2.0;
    format      ascii;
    class       volScalarField;
    location    "18";
    object      p;
}
// * * * * * * * * * * * * * * * * * * * * * * * * * * * * * * * * * * * * * //

dimensions      [0 0 0 0 0 0 0];

internalField   nonuniform List<scalar> 
120
(
-0.285395
-0.212622
-0.22222
-0.212369
-0.212512
-0.265997
-0.198147
-0.207077
-0.197878
-0.198005
-0.228298
-0.170065
-0.177735
-0.169844
-0.169957
-0.175221
-0.130503
-0.136375
-0.130301
-0.130382
-0.110028
-0.0819448
-0.0856343
-0.0818212
-0.0818749
-0.0375168
-0.0279109
-0.0291505
-0.0278292
-0.0278418
0.037727
0.0281293
0.0294078
0.0281177
0.0281373
0.11022
0.0821447
0.0858706
0.0820868
0.082147
0.175378
0.130667
0.136571
0.130522
0.130609
0.228405
0.170178
0.177873
0.170002
0.17012
0.266043
0.198197
0.207143
0.197957
0.198087
0.285372
0.212601
0.222206
0.21236
0.212504
0.285429
0.212621
0.222213
0.21235
0.212488
0.265853
0.198043
0.206985
0.197805
0.197937
0.228336
0.170071
0.177737
0.169837
0.169945
0.175077
0.1304
0.136283
0.130229
0.130315
0.110063
0.0819458
0.0856289
0.0818038
0.0818523
0.0373661
0.0277975
0.0290458
0.0277396
0.027757
-0.0376992
-0.0281401
-0.0294282
-0.0281562
-0.0281808
-0.110377
-0.0822688
-0.0859887
-0.0821952
-0.0822504
-0.175354
-0.130685
-0.136599
-0.130572
-0.130664
-0.228563
-0.170303
-0.177992
-0.170112
-0.170224
-0.266016
-0.198209
-0.207165
-0.197997
-0.198133
-0.285523
-0.212716
-0.222312
-0.212452
-0.212591
)
;

boundaryField
{
    out
    {
        type            implicitExtrapolation;
    }
    in
    {
        type            implicitExtrapolation;
    }
    frontAndBack
    {
        type            empty;
    }
}


// ************************************************************************* //
