/*--------------------------------*- C++ -*----------------------------------*\
| =========                 |                                                 |
| \\      /  F ield         | foam-extend: Open Source CFD                    |
|  \\    /   O peration     | Version:  3.0                                   |
|   \\  /    A nd           | Web:         http://www.extend-project.de       |
|    \\/     M anipulation  |                                                 |
\*---------------------------------------------------------------------------*/
FoamFile
{
    version     2.0;
    format      ascii;
    class       volVectorField;
    location    "18";
    object      u;
}
// * * * * * * * * * * * * * * * * * * * * * * * * * * * * * * * * * * * * * //

dimensions      [0 0 0 0 0 0 0];

internalField   nonuniform List<vector> 
120
(
(0.500091 -0.157575 -8.11851e-20)
(0.75883 -0.0868211 5.96192e-18)
(0.953424 -0.0450403 -1.40807e-17)
(0.9595 -0.025011 7.44784e-18)
(1.04748 0.00368243 3.52056e-17)
(0.657398 -0.429859 2.40456e-18)
(0.845322 -0.236448 -3.3398e-17)
(0.998066 -0.122119 -9.97426e-18)
(0.984023 -0.0671956 -3.17134e-17)
(1.04322 0.0114483 -2.80754e-17)
(0.929771 -0.587032 4.04358e-18)
(0.99506 -0.322794 6.55786e-18)
(1.07528 -0.166579 1.86146e-17)
(1.02638 -0.0914915 1.12537e-17)
(1.03567 0.0159925 8.85627e-17)
(1.24426 -0.586961 1.89875e-18)
(1.16792 -0.322723 -7.02255e-19)
(1.1644 -0.166486 2.74744e-17)
(1.07525 -0.0913818 -1.43349e-18)
(1.02691 0.01613 -6.26129e-18)
(1.51659 -0.429673 -2.1777e-18)
(1.31761 -0.236232 3.36932e-18)
(1.24157 -0.121862 -3.16911e-18)
(1.11755 -0.0668617 6.00248e-18)
(1.01931 0.0118439 -2.96731e-17)
(1.67381 -0.157283 -9.09622e-19)
(1.40403 -0.0864931 5.01379e-18)
(1.28612 -0.0446265 -2.77148e-18)
(1.14196 -0.0244897 2.24427e-18)
(1.01491 0.00433241 -1.33541e-17)
(1.67379 0.157212 -1.09172e-18)
(1.40402 0.0864028 4.31411e-18)
(1.28612 0.0445304 4.3404e-19)
(1.14196 0.0244281 1.54251e-18)
(1.01492 -0.0043702 -1.14452e-17)
(1.51653 0.429579 -2.99513e-18)
(1.31759 0.236131 9.63638e-18)
(1.24156 0.121762 -1.44228e-18)
(1.11754 0.0667972 8.46352e-18)
(1.01932 -0.0118784 3.50864e-18)
(1.24418 0.586828 -2.97277e-18)
(1.16788 0.322605 -1.31618e-17)
(1.16439 0.16638 -2.07335e-17)
(1.07524 0.0913126 -1.48617e-17)
(1.02693 -0.0161587 -5.663e-17)
(0.929686 0.586853 2.08021e-18)
(0.99502 0.322654 1.58881e-18)
(1.07526 0.166464 -2.68007e-17)
(1.02638 0.0914159 5.88972e-18)
(1.03569 -0.0160141 4.15153e-17)
(0.657336 0.429642 7.83059e-18)
(0.845293 0.236289 -4.5657e-18)
(0.998057 0.121997 2.47087e-17)
(0.984017 0.0671143 -8.15353e-18)
(1.04323 -0.0114617 6.57474e-17)
(0.500068 0.157335 -2.48315e-19)
(0.758819 0.0866502 -1.16136e-17)
(0.953423 0.0449122 1.84467e-17)
(0.9595 0.0249251 -2.83248e-18)
(1.04749 -0.00368812 3.26799e-18)
(0.500035 -0.157106 7.9313e-20)
(0.758739 -0.0861585 -5.96423e-18)
(0.953317 -0.0441332 1.40747e-17)
(0.959349 -0.0238343 -7.44944e-18)
(1.04729 0.00523314 -3.52054e-17)
(0.657208 -0.429426 -2.40548e-18)
(0.845074 -0.235833 3.33788e-17)
(0.997727 -0.12128 9.96966e-18)
(0.983591 -0.0660991 3.17005e-17)
(1.04263 0.0129108 2.80638e-17)
(0.929485 -0.586654 -4.04715e-18)
(0.994659 -0.322276 -6.56897e-18)
(1.07475 -0.165858 -1.86143e-17)
(1.02568 -0.0905572 -1.12622e-17)
(1.03473 0.017277 -8.85676e-17)
(1.24388 -0.58668 -1.90295e-18)
(1.16741 -0.322325 6.90586e-19)
(1.16371 -0.165943 -2.74646e-17)
(1.07434 -0.0906611 1.42906e-18)
(1.02564 0.0171288 6.2473e-18)
(1.51615 -0.429487 2.17439e-18)
(1.31702 -0.23599 -3.37931e-18)
(1.24077 -0.121516 3.1683e-18)
(1.11649 -0.066418 -6.00397e-18)
(1.01781 0.0124854 2.96568e-17)
(1.67333 -0.157228 9.081e-19)
(1.4034 -0.0864054 -5.01527e-18)
(1.28526 -0.0445175 2.76627e-18)
(1.14083 -0.0243347 -2.2468e-18)
(1.01329 0.00454294 1.33434e-17)
(1.67331 0.157158 1.09115e-18)
(1.40338 0.0863143 -4.31559e-18)
(1.28525 0.0444146 -4.40091e-19)
(1.14082 0.0242649 -1.54302e-18)
(1.0133 -0.00459114 1.14584e-17)
(1.51609 0.429394 2.99599e-18)
(1.31699 0.235887 -9.65796e-18)
(1.24076 0.121408 1.43624e-18)
(1.11648 0.0663455 -8.48426e-18)
(1.01783 -0.0125231 -3.52264e-18)
(1.24379 0.586547 2.97129e-18)
(1.16737 0.322202 1.3154e-17)
(1.16369 0.165829 2.074e-17)
(1.07433 0.0905843 1.48586e-17)
(1.02567 -0.01715 5.66638e-17)
(0.9294 0.586476 -2.08335e-18)
(0.994615 0.322131 -1.60013e-18)
(1.07473 0.165736 2.6816e-17)
(1.02567 0.0904751 -5.89505e-18)
(1.03475 -0.0172842 -4.15398e-17)
(0.657147 0.429208 -7.83407e-18)
(0.845042 0.235669 4.5562e-18)
(0.997712 0.121153 -2.4712e-17)
(0.983578 0.0660133 8.15387e-18)
(1.04264 -0.0129102 -6.57796e-17)
(0.500013 0.156865 2.46114e-19)
(0.758727 0.0859855 1.16122e-17)
(0.953309 0.0440036 -1.84529e-17)
(0.959341 0.0237471 2.83109e-18)
(1.04729 -0.00523283 -3.28278e-18)
)
;

boundaryField
{
    out
    {
        type            fixedValue;
        value           uniform (1 0 0);
    }
    in
    {
        type            myVelocity;
    }
    frontAndBack
    {
        type            empty;
    }
}


// ************************************************************************* //
