/*--------------------------------*- C++ -*----------------------------------*\
| =========                 |                                                 |
| \\      /  F ield         | foam-extend: Open Source CFD                    |
|  \\    /   O peration     | Version:  3.0                                   |
|   \\  /    A nd           | Web:         http://www.extend-project.de       |
|    \\/     M anipulation  |                                                 |
\*---------------------------------------------------------------------------*/
FoamFile
{
    version     2.0;
    format      ascii;
    class       volScalarField;
    location    "10";
    object      p;
}
// * * * * * * * * * * * * * * * * * * * * * * * * * * * * * * * * * * * * * //

dimensions      [0 0 0 0 0 0 0];

internalField   nonuniform List<scalar> 
7680
(
-0.22914
-0.216953
-0.207837
-0.19826
-0.191197
-0.183552
-0.178014
-0.171837
-0.167461
-0.162425
-0.158951
-0.154818
-0.152052
-0.148643
-0.146439
-0.143614
-0.141857
-0.139505
-0.1381
-0.13613
-0.135
-0.133334
-0.13241
-0.13098
-0.130201
-0.128946
-0.128256
-0.127118
-0.126461
-0.125384
-0.124706
-0.123632
-0.122876
-0.121745
-0.120851
-0.119599
-0.118499
-0.117053
-0.115671
-0.113946
-0.228931
-0.216754
-0.207647
-0.198082
-0.191026
-0.18339
-0.177858
-0.171688
-0.167316
-0.162286
-0.158816
-0.154688
-0.151925
-0.14852
-0.146319
-0.143498
-0.141743
-0.139394
-0.137992
-0.136024
-0.134896
-0.133232
-0.13231
-0.130883
-0.130105
-0.128853
-0.128164
-0.127027
-0.126372
-0.125296
-0.124619
-0.123546
-0.122791
-0.121661
-0.120768
-0.119516
-0.118417
-0.116972
-0.11559
-0.113866
-0.228431
-0.216283
-0.207197
-0.197654
-0.190616
-0.182997
-0.177479
-0.171324
-0.166964
-0.161946
-0.158484
-0.154367
-0.151612
-0.148215
-0.146021
-0.143207
-0.141457
-0.139114
-0.137716
-0.135754
-0.13463
-0.132971
-0.132052
-0.130628
-0.129854
-0.128605
-0.127918
-0.126785
-0.126131
-0.125058
-0.124383
-0.123312
-0.122559
-0.121432
-0.12054
-0.119291
-0.118193
-0.116751
-0.115373
-0.113655
-0.227731
-0.215622
-0.206565
-0.197053
-0.190037
-0.182442
-0.176942
-0.170806
-0.16646
-0.161459
-0.158009
-0.153904
-0.151158
-0.147773
-0.145586
-0.142781
-0.141038
-0.138703
-0.13731
-0.135355
-0.134234
-0.132581
-0.131665
-0.130247
-0.129475
-0.12823
-0.127546
-0.126417
-0.125765
-0.124695
-0.124022
-0.122954
-0.122203
-0.121079
-0.120189
-0.118944
-0.117849
-0.116413
-0.115039
-0.113331
-0.226743
-0.214687
-0.205672
-0.196202
-0.189218
-0.181658
-0.176183
-0.170076
-0.16575
-0.160771
-0.157337
-0.153252
-0.150519
-0.14715
-0.144973
-0.142182
-0.140447
-0.138124
-0.136738
-0.134792
-0.133677
-0.132032
-0.131121
-0.129709
-0.128942
-0.127702
-0.127021
-0.125897
-0.125249
-0.124183
-0.123513
-0.12245
-0.121701
-0.120581
-0.119695
-0.118455
-0.117365
-0.115937
-0.11457
-0.112875
-0.225556
-0.213565
-0.204598
-0.195179
-0.188232
-0.180713
-0.175267
-0.169192
-0.16489
-0.159938
-0.156522
-0.152459
-0.149742
-0.146391
-0.144226
-0.14145
-0.139724
-0.137414
-0.136035
-0.1341
-0.132992
-0.131356
-0.13045
-0.129046
-0.128282
-0.127049
-0.126372
-0.125253
-0.124608
-0.123548
-0.12288
-0.121822
-0.121076
-0.119962
-0.119079
-0.117847
-0.116763
-0.115344
-0.113987
-0.112308
-0.224083
-0.212172
-0.203264
-0.193908
-0.187008
-0.17954
-0.174131
-0.168097
-0.163824
-0.158906
-0.155514
-0.151478
-0.148779
-0.145451
-0.143302
-0.140545
-0.138831
-0.136537
-0.135168
-0.133247
-0.132146
-0.130521
-0.129621
-0.128227
-0.127469
-0.126244
-0.125571
-0.12446
-0.123818
-0.122765
-0.122101
-0.12105
-0.120308
-0.119201
-0.118324
-0.1171
-0.116023
-0.114617
-0.113271
-0.11161
-0.222414
-0.210593
-0.201753
-0.192468
-0.18562
-0.178208
-0.17284
-0.166852
-0.162611
-0.15773
-0.154364
-0.150359
-0.14768
-0.144378
-0.142245
-0.139509
-0.137809
-0.135531
-0.134173
-0.132266
-0.131174
-0.129561
-0.128668
-0.127284
-0.126531
-0.125316
-0.124647
-0.123544
-0.122907
-0.121861
-0.121201
-0.120157
-0.11942
-0.118321
-0.11745
-0.116236
-0.115168
-0.113775
-0.112442
-0.110801
-0.220462
-0.208746
-0.199985
-0.190783
-0.183997
-0.176651
-0.171331
-0.165397
-0.161194
-0.156357
-0.153022
-0.149053
-0.146399
-0.143126
-0.141013
-0.138302
-0.136617
-0.134361
-0.133015
-0.131126
-0.130043
-0.128445
-0.12756
-0.126189
-0.125443
-0.124238
-0.123575
-0.122481
-0.121849
-0.120812
-0.120157
-0.119122
-0.118391
-0.117302
-0.116438
-0.115236
-0.114178
-0.112801
-0.111483
-0.109863
-0.218319
-0.206718
-0.198043
-0.188931
-0.182212
-0.174938
-0.169671
-0.163794
-0.159633
-0.154844
-0.151541
-0.147612
-0.144984
-0.141744
-0.139651
-0.136966
-0.135299
-0.133064
-0.131732
-0.129861
-0.128789
-0.127207
-0.12633
-0.124972
-0.124232
-0.123039
-0.122382
-0.121298
-0.120672
-0.119644
-0.118995
-0.11797
-0.117245
-0.116167
-0.115311
-0.114123
-0.113075
-0.111715
-0.110413
-0.108816
-0.215897
-0.204426
-0.195849
-0.186839
-0.180195
-0.173004
-0.167796
-0.161986
-0.157872
-0.153137
-0.149872
-0.145987
-0.143389
-0.140186
-0.138117
-0.135463
-0.133814
-0.131606
-0.130289
-0.128438
-0.127379
-0.125814
-0.124948
-0.123605
-0.122873
-0.121693
-0.121043
-0.119971
-0.119351
-0.118335
-0.117693
-0.116679
-0.115962
-0.114896
-0.11405
-0.112876
-0.111841
-0.1105
-0.109215
-0.107642
-0.213289
-0.201957
-0.193484
-0.184584
-0.178021
-0.170917
-0.165773
-0.160034
-0.15597
-0.151293
-0.148067
-0.14423
-0.141664
-0.138499
-0.136456
-0.133834
-0.132206
-0.130024
-0.128723
-0.126895
-0.125848
-0.124302
-0.123446
-0.122119
-0.121396
-0.12023
-0.119587
-0.118528
-0.117915
-0.11691
-0.116275
-0.115274
-0.114565
-0.113513
-0.112677
-0.111519
-0.110498
-0.109175
-0.107909
-0.10636
-0.210406
-0.19923
-0.190872
-0.182094
-0.175621
-0.168614
-0.16354
-0.15788
-0.153872
-0.149259
-0.146078
-0.142293
-0.139763
-0.136642
-0.134626
-0.132041
-0.130435
-0.128283
-0.127
-0.125197
-0.124165
-0.12264
-0.121796
-0.120486
-0.119773
-0.118623
-0.117989
-0.116944
-0.116338
-0.115348
-0.114721
-0.113733
-0.113034
-0.111997
-0.111172
-0.110032
-0.109026
-0.107724
-0.106478
-0.104955
-0.207344
-0.196331
-0.188095
-0.179446
-0.173067
-0.166163
-0.161164
-0.155586
-0.151637
-0.147091
-0.143957
-0.140228
-0.137735
-0.134659
-0.132673
-0.130126
-0.128543
-0.126423
-0.125158
-0.123382
-0.122364
-0.120862
-0.120029
-0.118739
-0.118036
-0.116902
-0.116277
-0.115247
-0.11465
-0.113673
-0.113055
-0.112082
-0.111393
-0.110372
-0.10956
-0.108437
-0.107448
-0.106168
-0.104942
-0.103445
-0.204014
-0.193179
-0.185077
-0.176568
-0.170293
-0.163501
-0.158582
-0.153096
-0.149211
-0.144739
-0.141656
-0.137988
-0.135535
-0.13251
-0.130556
-0.12805
-0.126494
-0.124408
-0.123164
-0.121417
-0.120416
-0.118937
-0.118118
-0.116849
-0.116157
-0.115041
-0.114426
-0.113413
-0.112825
-0.111865
-0.111256
-0.110299
-0.109622
-0.108618
-0.10782
-0.106716
-0.105744
-0.104487
-0.103284
-0.101815
-0.20051
-0.189862
-0.1819
-0.173537
-0.167371
-0.160696
-0.155863
-0.15047
-0.146653
-0.142258
-0.139228
-0.135623
-0.133213
-0.13024
-0.12832
-0.125857
-0.124328
-0.122278
-0.121055
-0.119338
-0.118354
-0.116901
-0.116096
-0.114848
-0.114168
-0.113071
-0.112466
-0.11147
-0.110892
-0.109948
-0.10935
-0.10841
-0.107744
-0.106758
-0.105975
-0.104892
-0.103938
-0.102705
-0.101525
-0.100083
-0.196747
-0.1863
-0.178489
-0.170284
-0.164234
-0.157685
-0.152944
-0.147654
-0.143909
-0.139598
-0.136626
-0.133089
-0.130724
-0.127808
-0.125925
-0.123509
-0.122008
-0.119997
-0.118798
-0.117113
-0.116148
-0.114723
-0.113933
-0.112709
-0.112041
-0.110965
-0.110372
-0.109395
-0.108828
-0.107902
-0.107315
-0.106393
-0.105741
-0.104774
-0.104006
-0.102945
-0.102011
-0.100802
-0.0996464
-0.0982345
-0.192818
-0.18258
-0.174925
-0.166885
-0.160956
-0.154539
-0.149892
-0.144709
-0.141039
-0.136814
-0.133901
-0.130436
-0.128119
-0.125261
-0.123416
-0.121048
-0.119577
-0.117606
-0.116431
-0.11478
-0.113834
-0.112437
-0.111663
-0.110463
-0.109809
-0.108754
-0.108172
-0.107215
-0.106659
-0.105752
-0.105178
-0.104274
-0.103635
-0.102688
-0.101937
-0.100898
-0.0999839
-0.0988016
-0.0976705
-0.0962888
-0.188637
-0.178622
-0.171135
-0.16327
-0.157471
-0.151194
-0.146649
-0.141578
-0.137989
-0.133857
-0.131008
-0.127618
-0.125352
-0.122557
-0.120752
-0.118436
-0.116998
-0.115071
-0.113921
-0.112306
-0.111381
-0.110015
-0.109258
-0.108084
-0.107444
-0.106413
-0.105844
-0.104907
-0.104364
-0.103477
-0.102915
-0.102032
-0.101407
-0.100482
-0.0997481
-0.0987334
-0.0978401
-0.0966851
-0.0955801
-0.09423
-0.184298
-0.174515
-0.1672
-0.159516
-0.153851
-0.147719
-0.143279
-0.138326
-0.134819
-0.130782
-0.127999
-0.124688
-0.122474
-0.119743
-0.11798
-0.115718
-0.114313
-0.11243
-0.111307
-0.109729
-0.108825
-0.10749
-0.10675
-0.105604
-0.104979
-0.103971
-0.103415
-0.1025
-0.10197
-0.101103
-0.100555
-0.0996925
-0.0990827
-0.0981798
-0.0974631
-0.0964729
-0.0956014
-0.0944743
-0.0933962
-0.0920787
-0.179718
-0.170179
-0.163047
-0.155555
-0.150032
-0.144053
-0.139725
-0.134895
-0.131476
-0.127541
-0.124828
-0.121599
-0.119441
-0.116779
-0.115061
-0.112855
-0.111485
-0.10965
-0.108555
-0.107017
-0.106136
-0.104835
-0.104113
-0.102996
-0.102386
-0.101404
-0.100862
-0.0999707
-0.0994536
-0.0986092
-0.098075
-0.0972349
-0.0966409
-0.0957614
-0.0950635
-0.094099
-0.0932503
-0.0921525
-0.0911025
-0.0898189
-0.17499
-0.165702
-0.158758
-0.151464
-0.146086
-0.140265
-0.136051
-0.131349
-0.128021
-0.124189
-0.121548
-0.118404
-0.116303
-0.113711
-0.112038
-0.109891
-0.108558
-0.10677
-0.105704
-0.104207
-0.103349
-0.102082
-0.10138
-0.100292
-0.0996985
-0.0987425
-0.0982148
-0.0973469
-0.0968436
-0.0960219
-0.095502
-0.0946846
-0.0941069
-0.0932512
-0.0925725
-0.0916344
-0.090809
-0.0897412
-0.08872
-0.0874713
-0.17003
-0.161006
-0.15426
-0.147174
-0.14195
-0.136295
-0.132201
-0.127633
-0.1244
-0.120678
-0.118112
-0.115058
-0.113018
-0.1105
-0.108875
-0.106789
-0.105494
-0.103758
-0.102723
-0.101268
-0.100435
-0.0992046
-0.0985225
-0.0974658
-0.0968896
-0.0959612
-0.0954489
-0.0946061
-0.0941176
-0.0933197
-0.0928153
-0.0920217
-0.0914611
-0.0906306
-0.0899721
-0.0890615
-0.0882606
-0.087224
-0.0862328
-0.0850205
-0.164931
-0.156179
-0.149635
-0.142762
-0.137695
-0.13221
-0.128239
-0.123809
-0.120673
-0.117063
-0.114574
-0.111613
-0.109634
-0.107191
-0.105615
-0.103592
-0.102336
-0.100652
-0.0996485
-0.0982378
-0.0974296
-0.0962363
-0.0955748
-0.0945499
-0.0939912
-0.0930908
-0.092594
-0.0917769
-0.0913033
-0.0905298
-0.0900409
-0.0892717
-0.0887285
-0.0879236
-0.0872855
-0.0864031
-0.0856271
-0.0846226
-0.0836621
-0.0824869
-0.159613
-0.151143
-0.144812
-0.138162
-0.133259
-0.127952
-0.12411
-0.119823
-0.116789
-0.113296
-0.110889
-0.108024
-0.106109
-0.103746
-0.102222
-0.100265
-0.0990497
-0.0974206
-0.0964498
-0.0950851
-0.0943035
-0.0931491
-0.0925095
-0.0915182
-0.0909779
-0.0901071
-0.0896269
-0.0888367
-0.0883789
-0.087631
-0.0871586
-0.0864149
-0.08589
-0.0851119
-0.0844953
-0.0836422
-0.0828921
-0.0819208
-0.0809922
-0.0798556
-0.154166
-0.145986
-0.139871
-0.133448
-0.128714
-0.123588
-0.119878
-0.115738
-0.112808
-0.109434
-0.107109
-0.104342
-0.102493
-0.100211
-0.0987392
-0.0968492
-0.0956758
-0.0941027
-0.0931651
-0.0918472
-0.0910925
-0.0899778
-0.0893601
-0.088403
-0.0878814
-0.0870405
-0.086577
-0.0858141
-0.0853724
-0.0846504
-0.0841945
-0.0834769
-0.0829704
-0.0822195
-0.0816246
-0.0808014
-0.0800777
-0.0791404
-0.0782442
-0.0771472
-0.148511
-0.140633
-0.134743
-0.128557
-0.123997
-0.11906
-0.115487
-0.1115
-0.108678
-0.105429
-0.103191
-0.100526
-0.0987451
-0.0965478
-0.0951303
-0.0933103
-0.0921806
-0.0906658
-0.0897632
-0.0884943
-0.0877678
-0.0866946
-0.0861001
-0.0851786
-0.0846767
-0.0838674
-0.0834214
-0.0826872
-0.0822622
-0.0815674
-0.081129
-0.0804383
-0.0799512
-0.0792287
-0.0786564
-0.0778642
-0.0771678
-0.0762656
-0.0754031
-0.0743469
-0.14274
-0.135168
-0.129508
-0.123563
-0.11918
-0.114436
-0.111002
-0.10717
-0.104459
-0.101337
-0.0991853
-0.0966243
-0.0949134
-0.0928019
-0.0914397
-0.0896908
-0.0886053
-0.0871497
-0.0862824
-0.0850631
-0.0843652
-0.083334
-0.0827629
-0.0818775
-0.0813954
-0.0806178
-0.0801896
-0.0794843
-0.0790762
-0.078409
-0.077988
-0.0773248
-0.0768572
-0.0761633
-0.075614
-0.0748532
-0.0741847
-0.0733182
-0.0724899
-0.0714754
-0.136774
-0.12952
-0.124097
-0.118401
-0.114203
-0.109658
-0.106369
-0.102698
-0.100101
-0.09711
-0.0950495
-0.0925965
-0.0909578
-0.0889354
-0.0876309
-0.0859558
-0.0849164
-0.0835223
-0.082692
-0.0815244
-0.0808562
-0.0798688
-0.0793222
-0.0784745
-0.0780131
-0.0772687
-0.076859
-0.0761839
-0.0757936
-0.0751549
-0.0747522
-0.0741175
-0.0736702
-0.0730061
-0.0724804
-0.0717522
-0.0711124
-0.0702828
-0.0694898
-0.0685183
-0.130703
-0.123771
-0.11859
-0.113148
-0.109136
-0.104793
-0.101651
-0.0981434
-0.095662
-0.0928045
-0.0908359
-0.0884922
-0.0869268
-0.0849945
-0.0837483
-0.082148
-0.0811551
-0.0798233
-0.0790302
-0.0779148
-0.0772766
-0.0763334
-0.0758114
-0.0750017
-0.0745612
-0.0738503
-0.0734591
-0.0728144
-0.0724419
-0.0718321
-0.0714478
-0.0708418
-0.0704149
-0.0697809
-0.0692792
-0.068584
-0.0679732
-0.0671811
-0.066424
-0.0654962
-0.124451
-0.117852
-0.112919
-0.107738
-0.10392
-0.0997858
-0.0967945
-0.0934561
-0.0910944
-0.0883746
-0.0865011
-0.0842704
-0.0827807
-0.0809418
-0.079756
-0.0782331
-0.0772885
-0.0760212
-0.0752667
-0.0742054
-0.0735985
-0.0727011
-0.0722048
-0.0714346
-0.0710158
-0.0703396
-0.0699679
-0.0693548
-0.0690008
-0.0684209
-0.0680557
-0.0674794
-0.0670737
-0.0664708
-0.0659939
-0.0653326
-0.0647518
-0.0639982
-0.063278
-0.0623952
-0.118106
-0.111844
-0.107164
-0.102248
-0.0986246
-0.094702
-0.0918637
-0.0886962
-0.0864554
-0.0838748
-0.0820974
-0.079981
-0.0785678
-0.0768231
-0.0756982
-0.0742534
-0.0733574
-0.0721552
-0.0714397
-0.0704329
-0.0698574
-0.0690062
-0.0685356
-0.0678051
-0.0674082
-0.0667669
-0.0664146
-0.0658332
-0.0654978
-0.064948
-0.064602
-0.0640557
-0.0636713
-0.0630997
-0.0626477
-0.0620208
-0.0614702
-0.0607557
-0.0600729
-0.0592357
-0.111594
-0.105679
-0.101258
-0.0966138
-0.0931916
-0.0894864
-0.0868057
-0.083814
-0.0816978
-0.0792605
-0.0775821
-0.0755834
-0.0742491
-0.0726015
-0.0715396
-0.0701754
-0.0693297
-0.0681946
-0.0675193
-0.0665689
-0.0660259
-0.0652225
-0.0647786
-0.0640892
-0.0637149
-0.0631098
-0.0627777
-0.0622291
-0.061913
-0.0613942
-0.0610681
-0.0605527
-0.0601902
-0.0596509
-0.0592246
-0.0586329
-0.0581135
-0.057439
-0.0567945
-0.0560041
-0.105004
-0.0994383
-0.0952791
-0.0909101
-0.0876907
-0.0842051
-0.0816835
-0.0788691
-0.0768786
-0.074586
-0.0730073
-0.0711274
-0.0698724
-0.0683228
-0.0673242
-0.0660411
-0.0652459
-0.0641784
-0.0635436
-0.0626498
-0.0621394
-0.061384
-0.0609669
-0.0603187
-0.059967
-0.0593982
-0.0590863
-0.0585707
-0.0582737
-0.0577863
-0.05748
-0.0569956
-0.0566551
-0.0561483
-0.0557478
-0.0551918
-0.0547037
-0.0540698
-0.053464
-0.052721
-0.0982602
-0.0930534
-0.0891626
-0.0850755
-0.0820642
-0.0788037
-0.0764453
-0.0738129
-0.0719514
-0.0698072
-0.068331
-0.0665729
-0.0653996
-0.0639506
-0.0630171
-0.0618175
-0.0610743
-0.0600763
-0.0594832
-0.0586478
-0.0581711
-0.057465
-0.0570756
-0.0564699
-0.0561417
-0.0556103
-0.0553192
-0.0548376
-0.0545605
-0.0541052
-0.0538194
-0.0533669
-0.0530492
-0.0525757
-0.0522017
-0.0516822
-0.0512262
-0.0506337
-0.0500676
-0.0493729
-0.0914518
-0.0866066
-0.0829863
-0.0791833
-0.0763815
-0.0733478
-0.0711536
-0.0687045
-0.0669728
-0.064978
-0.0636049
-0.0619694
-0.0608781
-0.0595303
-0.0586622
-0.0575464
-0.0568554
-0.0559273
-0.0553759
-0.0545991
-0.054156
-0.0534995
-0.0531377
-0.0525747
-0.0522698
-0.0517758
-0.0515055
-0.0510579
-0.0508007
-0.0503776
-0.0501123
-0.0496919
-0.0493968
-0.0489568
-0.0486095
-0.0481266
-0.0477029
-0.0471522
-0.0466261
-0.0459803
-0.0845053
-0.0800296
-0.0766858
-0.0731732
-0.0705856
-0.0677838
-0.0657577
-0.063496
-0.0618971
-0.0600552
-0.0587876
-0.0572776
-0.0562705
-0.0550262
-0.0542252
-0.0531953
-0.0525579
-0.0517014
-0.0511929
-0.0504762
-0.0500678
-0.0494622
-0.0491288
-0.0486096
-0.0483288
-0.0478734
-0.0476245
-0.0472119
-0.0469751
-0.0465851
-0.0463408
-0.0459532
-0.0456814
-0.0452757
-0.0449556
-0.0445103
-0.0441196
-0.0436115
-0.0431262
-0.0425302
-0.0775082
-0.0734042
-0.0703384
-0.0671177
-0.0647455
-0.0621767
-0.0603194
-0.058246
-0.0567806
-0.0550922
-0.0539305
-0.0525465
-0.0516237
-0.0504833
-0.0497496
-0.0488058
-0.048222
-0.0474373
-0.0469718
-0.0463152
-0.0459414
-0.0453868
-0.0450818
-0.0446063
-0.0443495
-0.0439325
-0.0437051
-0.0433274
-0.043111
-0.042754
-0.0425307
-0.0421759
-0.0419275
-0.0415562
-0.0412633
-0.0408557
-0.0404982
-0.040033
-0.0395887
-0.0390429
-0.0703886
-0.0666633
-0.0638808
-0.0609577
-0.058805
-0.0564739
-0.0547888
-0.0529075
-0.0515782
-0.0500464
-0.048993
-0.0477376
-0.0469009
-0.0458667
-0.0452017
-0.044346
-0.0438171
-0.0431057
-0.0426842
-0.0420892
-0.0417509
-0.0412484
-0.0409726
-0.0405419
-0.0403099
-0.0399323
-0.0397268
-0.0393848
-0.0391894
-0.0388662
-0.0386644
-0.0383433
-0.0381187
-0.0377824
-0.0375175
-0.0371483
-0.0368246
-0.036403
-0.0360004
-0.0355057
-0.063233
-0.0598879
-0.0573896
-0.0547651
-0.0528326
-0.0507398
-0.0492274
-0.0475386
-0.0463457
-0.044971
-0.0440258
-0.0428993
-0.0421488
-0.0412209
-0.0406246
-0.0398571
-0.039383
-0.038745
-0.0383674
-0.0378339
-0.037531
-0.0370806
-0.0368337
-0.0364478
-0.0362403
-0.0359021
-0.0357184
-0.0354122
-0.0352375
-0.0349481
-0.0347678
-0.0344802
-0.0342793
-0.0339782
-0.0337412
-0.0334104
-0.0331206
-0.0327429
-0.0323822
-0.0319388
-0.0559706
-0.0530118
-0.0508026
-0.0484815
-0.046773
-0.0449227
-0.0435858
-0.042093
-0.0410389
-0.0398239
-0.0389891
-0.0379937
-0.0373311
-0.0365116
-0.0359854
-0.0353076
-0.0348895
-0.0343264
-0.0339936
-0.0335228
-0.0332562
-0.0328589
-0.0326418
-0.0323016
-0.0321193
-0.0318212
-0.0316599
-0.0313901
-0.0312367
-0.0309818
-0.0308234
-0.0305701
-0.0303935
-0.0301281
-0.0299195
-0.0296279
-0.0293725
-0.0290393
-0.0287212
-0.0283298
-0.0486874
-0.0461155
-0.0441956
-0.0421784
-0.040694
-0.0390863
-0.0379251
-0.0366283
-0.0357131
-0.0346579
-0.0339333
-0.0330691
-0.0324942
-0.0317829
-0.0313266
-0.0307385
-0.0303763
-0.0298878
-0.0295997
-0.0291916
-0.0289609
-0.0286167
-0.0284291
-0.0281344
-0.027977
-0.027719
-0.0275799
-0.0273464
-0.0272141
-0.0269936
-0.026857
-0.0266378
-0.0264853
-0.0262557
-0.0260754
-0.0258229
-0.025602
-0.0253134
-0.025038
-0.0246988
-0.0413132
-0.0391337
-0.0375072
-0.0357983
-0.0345413
-0.0331796
-0.0321968
-0.0310989
-0.0303246
-0.0294316
-0.028819
-0.028088
-0.0276024
-0.0270009
-0.0266158
-0.0261189
-0.0258135
-0.025401
-0.0251584
-0.0248141
-0.0246201
-0.0243299
-0.0241724
-0.0239242
-0.0237923
-0.023575
-0.0234586
-0.0232621
-0.0231515
-0.0229659
-0.0228515
-0.0226671
-0.0225392
-0.0223459
-0.0221943
-0.0219816
-0.0217956
-0.0215522
-0.0213199
-0.0210336
-0.0339336
-0.0321461
-0.0308128
-0.0294117
-0.0283818
-0.027266
-0.0264612
-0.0255619
-0.0249283
-0.0241972
-0.0236964
-0.0230982
-0.0227015
-0.0222097
-0.0218955
-0.0214894
-0.0212405
-0.0209038
-0.0207064
-0.0204255
-0.020268
-0.0200315
-0.0199039
-0.0197018
-0.0195951
-0.0194184
-0.0193245
-0.0191647
-0.0190755
-0.0189247
-0.0188324
-0.0186825
-0.0185791
-0.0184219
-0.0182991
-0.018126
-0.0179748
-0.0177766
-0.0175876
-0.0173541
-0.0264793
-0.0250884
-0.0240517
-0.0229623
-0.0221622
-0.0212951
-0.0206706
-0.0199723
-0.0194813
-0.0189141
-0.0185265
-0.0180629
-0.0177564
-0.0173757
-0.0171334
-0.0168195
-0.0166281
-0.0163681
-0.0162167
-0.0160002
-0.0158799
-0.0156979
-0.0156008
-0.0154455
-0.0153647
-0.0152291
-0.0151581
-0.0150358
-0.0149683
-0.0148529
-0.014783
-0.0146682
-0.0145896
-0.0144691
-0.0143753
-0.0142424
-0.0141265
-0.0139739
-0.0138285
-0.0136485
-0.0190348
-0.0180395
-0.0172986
-0.0165198
-0.0159488
-0.0153297
-0.0148848
-0.0143869
-0.0140377
-0.0136339
-0.0133589
-0.0130294
-0.0128126
-0.0125425
-0.0123717
-0.0121494
-0.0120151
-0.0118314
-0.0117257
-0.0115732
-0.0114897
-0.0113618
-0.0112949
-0.0111861
-0.0111308
-0.0110361
-0.0109877
-0.0109024
-0.0108566
-0.0107762
-0.0107285
-0.0106486
-0.0105947
-0.0105106
-0.0104457
-0.0103528
-0.0102721
-0.0101651
-0.0100632
-0.00993652
-0.0115322
-0.0109361
-0.0104937
-0.0100285
-0.00968888
-0.00932019
-0.00905666
-0.00876114
-0.00855538
-0.00831659
-0.00815551
-0.00796148
-0.00783543
-0.00767713
-0.00757873
-0.00744919
-0.00737264
-0.00726628
-0.00720689
-0.00711914
-0.007073
-0.00700001
-0.00696374
-0.00690214
-0.00687272
-0.00681949
-0.00679416
-0.00674648
-0.00672257
-0.00667775
-0.00665263
-0.00660799
-0.00657902
-0.00653182
-0.00649623
-0.00644361
-0.00639844
-0.00633733
-0.00627938
-0.00620644
-0.00405505
-0.0038562
-0.00371095
-0.00355779
-0.00344826
-0.00332867
-0.00324551
-0.00315125
-0.00308801
-0.00301328
-0.00296537
-0.00290597
-0.00287
-0.00282279
-0.00279618
-0.00275871
-0.00273944
-0.00270976
-0.00269621
-0.00267273
-0.00266353
-0.00264493
-0.00263893
-0.00262405
-0.00262021
-0.00260803
-0.00260541
-0.00259497
-0.00259269
-0.0025831
-0.00258028
-0.00257064
-0.0025664
-0.00255581
-0.00254925
-0.00253677
-0.00252691
-0.00251155
-0.00249735
-0.002478
0.00346383
0.0032626
0.00310862
0.0029475
0.00282519
0.00269384
0.00259519
0.00248666
0.00240618
0.00231554
0.00224928
0.00217291
0.00211793
0.00205309
0.00200715
0.00195171
0.00191304
0.00186529
0.00183244
0.00179098
0.00176274
0.00172636
0.00170164
0.00166928
0.00164713
0.0016178
0.00159733
0.00157011
0.00155042
0.00152441
0.00150462
0.00147892
0.00145814
0.0014318
0.00140906
0.0013811
0.00135539
0.00132475
0.00129495
0.00126046
0.0109416
0.010343
0.0098919
0.00941868
0.00906623
0.00868575
0.0084067
0.0080969
0.00787388
0.00761917
0.00743974
0.00722871
0.00708365
0.00690772
0.00678998
0.00664246
0.00654651
0.00642208
0.0063434
0.00623766
0.00617248
0.00608171
0.00602674
0.00594765
0.00589994
0.00582957
0.00578638
0.00572193
0.00568061
0.00561939
0.00557732
0.00551663
0.00547112
0.00540818
0.00535643
0.00528833
0.00522731
0.00515093
0.00507739
0.00498932
0.0184447
0.0174468
0.0166971
0.0159102
0.0153264
0.0146955
0.014235
0.0137228
0.0133564
0.0129367
0.0126433
0.0122968
0.012061
0.0117732
0.0115831
0.0113429
0.0111891
0.0109874
0.0108625
0.0106919
0.0105894
0.0104438
0.0103581
0.0102319
0.0101583
0.0100465
0.00998029
0.00987828
0.00981504
0.00971831
0.00965369
0.00955774
0.00948727
0.0093875
0.00930651
0.00919808
0.00910158
0.00897929
0.00886186
0.00872007
0.0258909
0.0244973
0.0234517
0.022354
0.021541
0.0206621
0.0200219
0.0193093
0.0188009
0.0182178
0.0178118
0.0173312
0.0170057
0.0166073
0.0163457
0.0160138
0.015803
0.0155249
0.0153543
0.0151198
0.0149805
0.0147807
0.0146649
0.0144922
0.0143931
0.0142405
0.0141516
0.0140126
0.0139278
0.013796
0.0137092
0.0135784
0.0134833
0.0133471
0.0132373
0.0130889
0.0129572
0.0127894
0.0126284
0.0124333
0.0333461
0.0315557
0.0302133
0.028804
0.0277611
0.0266333
0.0258129
0.0248992
0.0242484
0.0235013
0.022982
0.0223668
0.0219511
0.0214417
0.0211081
0.0206841
0.0204159
0.020061
0.0198444
0.0195455
0.0193691
0.0191148
0.0189686
0.0187491
0.0186242
0.0184304
0.0183187
0.0181423
0.0180358
0.0178687
0.0177595
0.0175937
0.0174739
0.0173011
0.0171622
0.0169737
0.0168068
0.0165934
0.0163888
0.0161403
0.0407289
0.0385461
0.0369103
0.0351928
0.0339227
0.0325489
0.0315504
0.030438
0.0296464
0.0287373
0.0281063
0.0273581
0.0268535
0.0262344
0.0258299
0.025315
0.0249902
0.0245597
0.0242979
0.0239355
0.0237226
0.0234146
0.0232386
0.0229729
0.0228229
0.0225886
0.0224544
0.0222413
0.0221134
0.0219116
0.0217804
0.0215801
0.0214358
0.0212269
0.0210594
0.0208313
0.0206296
0.020371
0.0201232
0.0198218
0.0481043
0.0455289
0.0435996
0.0415738
0.0400762
0.0384562
0.0372793
0.035968
0.0350354
0.0339641
0.0332211
0.0323398
0.0317459
0.0310169
0.0305413
0.0299353
0.0295536
0.0290472
0.0287399
0.0283138
0.0280642
0.0277023
0.0274962
0.0271842
0.0270086
0.0267336
0.0265769
0.0263268
0.0261774
0.0259407
0.0257874
0.0255524
0.0253836
0.0251385
0.0249423
0.0246745
0.0244379
0.0241343
0.0238434
0.0234892
0.0553919
0.0524292
0.0502102
0.0478801
0.0461583
0.0442954
0.0429427
0.0414352
0.0403637
0.0391325
0.0382792
0.0372666
0.036585
0.0357477
0.0352021
0.0345063
0.0340689
0.0334878
0.0331357
0.0326471
0.0323615
0.0319466
0.031711
0.0313534
0.031153
0.030838
0.0306592
0.0303729
0.0302024
0.0299314
0.0297564
0.0294873
0.0292945
0.0290137
0.0287892
0.0284823
0.0282114
0.0278631
0.0275297
0.0271233
0.0626561
0.0593067
0.0567986
0.0541648
0.0522189
0.0501135
0.0485852
0.0468817
0.0456713
0.0442803
0.0433167
0.042173
0.0414035
0.0404579
0.0398423
0.0390568
0.0385634
0.0379074
0.0375106
0.0369592
0.0366375
0.0361695
0.0359042
0.035501
0.0352755
0.0349205
0.0347193
0.0343966
0.034205
0.0338996
0.0337028
0.0333996
0.0331826
0.0328662
0.0326134
0.0322675
0.0319622
0.0315696
0.0311936
0.0307353
0.0698172
0.0660871
0.0632944
0.0603616
0.0581953
0.0558513
0.0541502
0.0522539
0.050907
0.0493589
0.0482869
0.0470142
0.0461584
0.0451065
0.0444221
0.0435484
0.0430002
0.0422708
0.0418301
0.0412172
0.0408601
0.04034
0.0400457
0.0395979
0.0393479
0.0389536
0.0387307
0.0383724
0.03816
0.0378209
0.0376028
0.0372661
0.0370255
0.036674
0.0363935
0.0360092
0.0356701
0.0352337
0.0348159
0.0343063
0.0769392
0.0728299
0.0697536
0.0665231
0.0641371
0.0615554
0.059682
0.0575936
0.0561105
0.0544057
0.0532256
0.0518243
0.0508824
0.0497243
0.0489713
0.0480095
0.0474064
0.0466037
0.0461191
0.0454447
0.0450521
0.04448
0.0441567
0.0436641
0.0433895
0.0429559
0.0427111
0.0423172
0.0420841
0.0417113
0.0414717
0.0411016
0.0408373
0.0404509
0.0401426
0.0397201
0.0393474
0.0388674
0.038408
0.0378474
0.0839431
0.0794614
0.0761068
0.0725838
0.0699822
0.0671671
0.0651247
0.0628477
0.0612312
0.0593727
0.0580866
0.0565592
0.0555329
0.0542707
0.0534504
0.0524024
0.0517457
0.0508712
0.0503436
0.049609
0.0491819
0.0485589
0.0482072
0.0476709
0.0473724
0.0469003
0.0466343
0.0462056
0.0459522
0.0455465
0.0452861
0.0448832
0.0445958
0.0441751
0.0438397
0.0433796
0.0429738
0.0424511
0.0419507
0.04134
0.0908923
0.0860407
0.0824094
0.0785958
0.0757799
0.0727327
0.0705223
0.0680578
0.0663084
0.0642971
0.0629054
0.0612525
0.0601422
0.0587764
0.0578891
0.0567552
0.056045
0.0550989
0.0545285
0.0537339
0.0532721
0.0525983
0.0522183
0.0516383
0.0513158
0.0508054
0.0505181
0.0500545
0.0497809
0.0493423
0.049061
0.0486255
0.048315
0.0478603
0.0474978
0.0470004
0.0465617
0.0459965
0.0454555
0.0447951
0.0977089
0.0924949
0.0885926
0.0844944
0.0814686
0.0781943
0.0758194
0.0731714
0.0712921
0.0691311
0.0676363
0.0658606
0.0646682
0.0632012
0.0622484
0.0610306
0.0602681
0.0592522
0.05864
0.0577868
0.0572914
0.056568
0.0561604
0.0555379
0.0551921
0.0546443
0.0543363
0.0538389
0.0535455
0.0530749
0.0527733
0.052306
0.0519729
0.0514849
0.051096
0.050562
0.0500912
0.0494843
0.0489035
0.0481943
0.104456
0.0988826
0.0947117
0.0903313
0.0870974
0.0835978
0.0810597
0.0782297
0.0762214
0.073912
0.0723147
0.0704172
0.0691431
0.0675755
0.0665576
0.0652565
0.064442
0.0633566
0.0627028
0.0617914
0.0612624
0.0604896
0.0600545
0.0593896
0.0590205
0.0584355
0.0581068
0.0575756
0.0572626
0.05676
0.0564382
0.0559391
0.0555836
0.0550625
0.0546473
0.0540771
0.0535745
0.0529263
0.0523061
0.0515486
0.111056
0.105132
0.100698
0.0960425
0.0926054
0.0888858
0.0861884
0.0831808
0.0810466
0.0785924
0.0768952
0.0748788
0.0735253
0.0718596
0.0707784
0.069396
0.068531
0.0673779
0.0666836
0.0657155
0.0651539
0.0643332
0.0638714
0.0631653
0.0627737
0.0621525
0.0618037
0.0612397
0.0609076
0.0603739
0.0600325
0.0595026
0.0591253
0.0585719
0.0581312
0.0575256
0.0569918
0.0563034
0.0556446
0.0548399
0.117572
0.111301
0.106608
0.101679
0.0980412
0.0941041
0.0912491
0.0880656
0.0858069
0.0832093
0.0814132
0.0792791
0.0778467
0.076084
0.0749399
0.0734769
0.0725617
0.0713415
0.0706071
0.0695827
0.0689887
0.0681203
0.0676319
0.0668848
0.0664707
0.0658135
0.0654448
0.0648482
0.064497
0.0639326
0.0635716
0.0630111
0.0626121
0.0620267
0.0615606
0.06092
0.0603555
0.0596273
0.0589304
0.0580792
0.123927
0.117318
0.112372
0.107179
0.103345
0.0991959
0.0961875
0.0928329
0.090453
0.087716
0.0858237
0.0835752
0.0820662
0.0802091
0.079004
0.0774628
0.0764989
0.0752136
0.0744402
0.0733612
0.0727358
0.0718213
0.0713072
0.0705204
0.0700846
0.0693926
0.0690046
0.0683763
0.0680069
0.0674125
0.0670326
0.0664424
0.0660225
0.065406
0.0649153
0.0642406
0.0636461
0.0628791
0.0621451
0.0612484
0.130184
0.123241
0.118047
0.112591
0.108565
0.104207
0.101047
0.0975236
0.095024
0.0921493
0.090162
0.0878005
0.0862158
0.0842654
0.0829999
0.0813814
0.0803693
0.0790195
0.0782075
0.0770745
0.076418
0.0754576
0.074918
0.0740919
0.0736345
0.072908
0.0725008
0.0718412
0.0714534
0.0708295
0.0704308
0.0698112
0.0693705
0.0687233
0.0682082
0.0675
0.0668759
0.0660707
0.0653001
0.0643587
0.136267
0.129001
0.123565
0.117855
0.113641
0.10908
0.105774
0.102087
0.0994712
0.096463
0.0943836
0.0919125
0.0902546
0.0882139
0.08689
0.0851966
0.0841379
0.0827258
0.0818765
0.0806912
0.0800047
0.0790002
0.0784359
0.0775719
0.0770937
0.0763338
0.0759082
0.0752183
0.074813
0.0741604
0.0737436
0.0730956
0.0726349
0.071958
0.0714193
0.0706785
0.0700258
0.0691833
0.0683773
0.0673924
0.142238
0.134654
0.12898
0.123021
0.118622
0.113862
0.110411
0.106563
0.103833
0.100694
0.0985237
0.0959448
0.0942146
0.0920848
0.0907033
0.0889361
0.0878314
0.0863578
0.0854717
0.0842348
0.0835185
0.0824703
0.0818817
0.0809802
0.0804814
0.0796885
0.0792445
0.0785248
0.078102
0.0774212
0.0769865
0.0763104
0.0758298
0.0751236
0.0745617
0.0737888
0.0731079
0.072229
0.0713881
0.0703606
0.148022
0.140131
0.134227
0.128026
0.12345
0.118497
0.114906
0.110902
0.108062
0.104796
0.102538
0.0998553
0.0980554
0.0958397
0.0944027
0.0925643
0.0914153
0.0898824
0.0889609
0.0876743
0.0869295
0.0858392
0.0852272
0.0842896
0.0837711
0.0829465
0.0824849
0.0817365
0.081297
0.080589
0.080137
0.079434
0.0789343
0.0781998
0.0776156
0.0768116
0.0761035
0.0751893
0.0743147
0.0732458
0.153683
0.14549
0.13936
0.132923
0.128172
0.12303
0.119302
0.115145
0.112197
0.108806
0.106463
0.103677
0.101809
0.0995089
0.0980172
0.0961088
0.0949163
0.093325
0.0923686
0.0910331
0.0902601
0.0891285
0.0884933
0.0875201
0.086982
0.0861262
0.0856473
0.0848704
0.0844145
0.0836797
0.0832107
0.0824811
0.0819625
0.0812003
0.080594
0.0797597