/*--------------------------------*- C++ -*----------------------------------*\
| =========                 |                                                 |
| \\      /  F ield         | foam-extend: Open Source CFD                    |
|  \\    /   O peration     | Version:  3.0                                   |
|   \\  /    A nd           | Web:         http://www.extend-project.de       |
|    \\/     M anipulation  |                                                 |
\*---------------------------------------------------------------------------*/
FoamFile
{
    version     2.0;
    format      ascii;
    class       volVectorField;
    location    "16";
    object      u;
}
// * * * * * * * * * * * * * * * * * * * * * * * * * * * * * * * * * * * * * //

dimensions      [0 0 0 0 0 0 0];

internalField   nonuniform List<vector> 
728
(
(1.02381 -0.00565831 3.89054e-19)
(1.02356 -0.00554226 3.08254e-19)
(1.0114 0.0103819 -1.7238e-18)
(1.01106 0.0110017 -2.51411e-18)
(1.41452 -0.075245 -1.54104e-18)
(1.41496 -0.0754936 2.05034e-18)
(0.597999 0.00788555 -6.53827e-17)
(0.600709 0.00435488 1.01454e-17)
(1.09821 0.102403 -1.28363e-17)
(1.01358 -0.0896579 4.62638e-18)
(1.10013 0.101868 5.41763e-18)
(1.0123 -0.0888078 -3.28901e-18)
(1.07173 0.096508 -4.79845e-19)
(0.997473 -0.0820111 1.52924e-18)
(1.07387 0.0964431 9.15133e-18)
(0.996822 -0.0799325 -2.73171e-17)
(1.10719 -0.0114607 -6.38905e-18)
(0.974818 0.00327069 -4.47659e-18)
(0.976096 0.00349768 -2.29674e-17)
(1.10651 -0.0114391 3.05064e-18)
(1.17837 0.0711018 8.25339e-18)
(0.951766 -0.0778664 2.87565e-18)
(0.9466 -0.080867 -2.49288e-18)
(1.17867 0.0710293 4.52845e-19)
(1.78414 0.0796178 -1.00988e-17)
(0.563879 0.214953 4.56023e-17)
(0.563569 0.220988 -7.29369e-17)
(1.78401 0.0791175 -9.67263e-19)
(1.11832 -0.0189914 -6.48379e-18)
(0.955642 0.00053941 4.63357e-18)
(0.957596 0.000873736 2.47232e-17)
(1.11861 -0.0197112 4.56238e-18)
(1.23358 0.0766106 7.14505e-18)
(0.930038 -0.0272915 -2.60873e-18)
(0.927874 -0.0292659 -3.02981e-18)
(1.2344 0.0762395 1.52796e-18)
(0.99527 -0.0212109 2.52588e-17)
(1.0569 0.0163061 4.68968e-18)
(0.994996 -0.0213344 -2.56988e-17)
(1.05675 0.016189 1.34969e-17)
(1.12127 0.0420218 3.45101e-18)
(1.02185 -0.078705 -8.39082e-18)
(1.1215 0.04164 -9.5966e-18)
(1.02072 -0.0788595 3.74729e-17)
(1.09232 0.0366938 -1.32941e-17)
(0.988517 -0.0382017 9.74607e-18)
(1.09273 0.0360204 -1.10258e-18)
(0.989505 -0.037403 -3.07279e-17)
(1.11449 -0.165185 6.92386e-18)
(0.991562 0.137412 -5.78016e-18)
(0.991487 0.13676 -1.07094e-18)
(1.11382 -0.164015 3.2144e-18)
(0.207805 0.234362 -8.31145e-17)
(1.52838 -0.216085 -1.1097e-18)
(0.212619 0.237313 -7.66793e-17)
(1.52813 -0.216443 1.94772e-18)
(1.05482 -0.0320484 9.13362e-19)
(0.999084 0.0253526 1.78905e-18)
(0.998888 0.0254104 2.33014e-18)
(1.0544 -0.0318123 -9.48464e-20)
(1.11622 0.0297916 -3.69165e-18)
(0.990684 -0.0494059 1.514e-18)
(0.992135 -0.0508864 -5.55971e-19)
(1.1173 0.0299439 -1.04166e-18)
(1.01974 0.0365706 -1.64334e-17)
(1.04576 -0.0210243 -1.75563e-18)
(1.01956 0.0378808 5.95304e-18)
(1.0471 -0.0210413 1.19003e-17)
(1.47939 0.123095 1.11776e-18)
(1.47967 0.123534 -9.57459e-18)
(0.844876 -0.0806865 2.90735e-17)
(0.844692 -0.0793683 -1.02408e-16)
(1.0183 -0.00870664 3.05205e-19)
(1.05243 0.00986533 -2.76639e-18)
(1.05171 0.0102678 2.36348e-18)
(1.01821 -0.00874259 -6.20604e-19)
(1.13216 0.00707335 -3.69772e-18)
(0.983208 -0.0251975 -2.09706e-18)
(1.1331 0.00679601 -2.95576e-19)
(0.982233 -0.0242577 1.21556e-18)
(1.0296 -0.315468 -2.61783e-17)
(1.02967 -0.314154 6.56626e-18)
(1.12042 0.22272 -3.252e-17)
(1.12131 0.223804 -1.34932e-17)
(1.02844 -0.00304817 -1.48749e-18)
(1.01655 0.00488181 2.1606e-17)
(1.02858 -0.00326706 -1.0172e-18)
(1.01653 0.00501583 -1.43637e-18)
(1.04854 -0.454764 -1.44833e-17)
(0.401364 0.429132 -3.93029e-17)
(1.04822 -0.454295 1.12927e-17)
(0.404733 0.434376 5.42288e-17)
(1.119 -0.27892 1.09239e-17)
(1.11909 -0.279018 -2.70973e-17)
(1.06373 0.235067 2.41604e-17)
(1.06968 0.235586 4.06656e-17)
(1.09129 0.125108 -3.34838e-18)
(0.988439 -0.123676 -1.65511e-17)
(1.09271 0.126599 -7.21435e-18)
(0.986481 -0.123289 -2.31623e-17)
(1.02683 -0.0208024 -6.3889e-18)
(1.02714 -0.0204978 -2.07845e-17)
(0.995686 0.0148406 -9.61264e-18)
(0.995149 0.0147576 -3.45437e-18)
(1.05178 -0.0437316 8.88497e-20)
(1.00928 0.0184773 1.66624e-17)
(1.0111 0.0166618 -1.61814e-18)
(1.05291 -0.0431814 -9.47507e-18)
(1.02096 -0.0089385 -1.53949e-18)
(0.998883 0.0182236 6.14265e-18)
(1.02116 -0.00911704 -8.60532e-19)
(0.997556 0.0181194 -2.44663e-18)
(1.07718 -0.00425071 -2.9121e-19)
(0.992827 -0.00610466 9.3912e-18)
(1.0771 -0.00395373 -4.13946e-18)
(0.993144 -0.0051527 -1.80997e-18)
(1.02507 -0.025028 -2.67544e-18)
(1.02499 -0.0254317 5.36859e-20)
(1.00706 0.0123673 8.76687e-18)
(1.0072 0.0128906 -1.52924e-18)
(1.04952 -0.0246328 1.44724e-18)
(1.01306 0.0205788 2.03847e-17)
(1.01262 0.0208686 1.34455e-17)
(1.04871 -0.0240663 3.35743e-18)
(1.078 0.0945151 1.02753e-17)
(1.03737 -0.0742356 1.68831e-17)
(1.0817 0.0957478 2.07436e-17)
(1.03452 -0.0737681 -1.23821e-17)
(1.02107 -0.0512489 -3.73964e-18)
(1.01905 -0.0520323 -5.69643e-18)
(1.03114 0.0402091 -4.24705e-18)
(1.03221 0.0393741 -6.80731e-19)
(1.06513 -0.0203206 5.60576e-18)
(1.01592 0.00540345 -5.39584e-18)
(1.01601 0.00488932 6.02148e-18)
(1.06473 -0.020167 -4.40852e-18)
(1.05663 -0.0422976 -2.68194e-19)
(1.0557 0.0348348 -1.99564e-18)
(1.05595 -0.0427722 -2.91959e-18)
(1.0551 0.0364772 -2.37086e-18)
(1.30651 0.111635 4.49631e-18)
(0.889486 -0.0851359 4.41441e-18)
(0.885362 -0.0839051 -3.55034e-18)
(1.30657 0.111999 4.4682e-18)
(1.08367 -0.055194 -1.63307e-18)
(1.01098 0.0675593 -1.53205e-17)
(1.08258 -0.0561047 -8.64758e-18)
(1.01168 0.066845 -1.09831e-17)
(1.07324 0.0275755 -6.85157e-18)
(1.00232 -0.0204814 -2.02285e-17)
(1.00188 -0.0203622 1.65519e-17)
(1.07362 0.0267893 2.89278e-18)
(1.00546 0.0079972 5.64461e-19)
(1.00522 0.00782903 3.1756e-19)
(1.01907 -0.0280692 -1.31541e-18)
(1.01852 -0.0275095 2.03857e-18)
(1.07066 0.00891921 1.13656e-18)
(1.00132 -0.00648196 -1.40026e-19)
(1.07038 0.00922347 -1.96012e-19)
(1.00234 -0.00711098 3.77132e-18)
(0.750853 0.346107 2.55856e-17)
(1.29579 -0.239056 -2.04548e-18)
(0.745912 0.352138 3.11763e-18)
(1.29663 -0.238507 2.31862e-18)
(1.37214 -0.174445 -2.75388e-18)
(0.788233 0.108301 3.43254e-17)
(0.776768 0.107414 1.62379e-17)
(1.37121 -0.177629 5.68085e-18)
(0.999069 0.0501168 4.60836e-18)
(1.10071 -0.0471959 -7.78546e-18)
(1.00051 0.0500817 5.47028e-17)
(1.10138 -0.0470473 -1.22607e-17)
(1.02677 -0.0595008 -5.1092e-19)
(1.02474 -0.0593044 -7.07687e-18)
(1.06284 0.0548655 4.97654e-19)
(1.06302 0.0550987 6.91581e-19)
(1.01748 0.00157998 1.86989e-19)
(1.01695 0.00131908 8.31576e-19)
(1.02479 -0.0148749 2.03134e-18)
(1.02529 -0.0152798 -9.34634e-19)
(0.989777 0.127895 1.85511e-17)
(0.989996 0.129341 -6.89332e-18)
(1.17703 -0.140244 4.22942e-18)
(1.17888 -0.139759 -2.73259e-19)
(1.52395 -0.274335 -7.11262e-18)
(0.686206 0.347276 1.94083e-17)
(0.678201 0.351149 -6.29055e-18)
(1.52329 -0.273299 1.36057e-17)
(1.15606 0.059444 1.80151e-17)
(0.995541 -0.0495392 4.30725e-17)
(1.15645 0.0596461 -4.92335e-18)
(0.994766 -0.0510027 -1.70877e-17)
(1.12471 0.0845029 7.12016e-18)
(0.994547 -0.0893077 -6.84462e-18)
(0.993672 -0.0889866 1.23589e-17)
(1.12495 0.0853023 -8.441e-18)
(1.02482 0.00421846 -5.53331e-18)
(1.01036 -0.00113594 -1.32144e-18)
(1.01035 -0.00121224 -1.96754e-17)
(1.02532 0.00409954 3.7256e-18)
(1.02227 0.00327626 9.03377e-18)
(0.9916 -0.00786757 -5.76824e-18)
(0.991633 -0.00782906 3.78523e-18)
(1.02201 0.00329138 6.30259e-18)
(1.06961 -0.0437039 6.36254e-18)
(1.01927 0.0576555 -1.99491e-18)
(1.06915 -0.04222 1.88892e-17)
(1.02222 0.0580922 1.70929e-18)
(1.01547 0.0133849 2.23826e-17)
(0.998972 -0.0152554 2.78898e-17)
(0.998732 -0.0152194 -2.60062e-17)
(1.01563 0.0133121 -2.13111e-17)
(1.00147 -0.0373 3.00285e-18)
(1.00185 -0.0374234 -8.42436e-18)
(1.09759 0.0306121 1.51394e-18)
(1.0974 0.0308095 -7.46526e-18)
(1.41313 -0.0364511 -2.50173e-18)
(0.765246 0.1992 1.31655e-16)
(0.772256 0.199561 1.23183e-18)
(1.41456 -0.0371473 3.21743e-18)
(1.04202 0.0140836 -3.31443e-18)
(0.987872 -0.00988293 -2.11362e-17)
(0.988011 -0.0100552 2.26739e-17)
(1.04175 0.0140836 9.91241e-18)
(1.16012 0.0216977 -1.65536e-18)
(1.16049 0.0221808 1.73741e-18)
(0.985319 -0.0451487 -1.73828e-18)
(0.985178 -0.0416824 2.78051e-18)
(1.02152 0.00710137 -5.04874e-18)
(1.05063 -0.0383427 6.60744e-19)
(1.05031 -0.0368212 -3.10736e-18)
(1.02326 0.00879469 4.45586e-18)
(1.05445 0.00313972 2.78092e-18)
(0.998995 -0.0064893 -1.00242e-17)
(1.05424 0.00327034 -5.5474e-19)
(0.998928 -0.00603567 -3.96469e-19)
(1.00531 0.0800448 2.95896e-17)
(1.1021 -0.0719749 -1.36663e-17)
(1.10301 -0.0717128 -4.25848e-18)
(1.00589 0.0820668 5.90952e-18)
(1.31802 0.0500156 1.0085e-17)
(1.31756 0.050229 1.25936e-17)
(0.843961 -0.0814723 2.40306e-17)
(0.837447 -0.0797088 -3.95827e-17)
(1.46024 0.672498 2.24444e-17)
(0.748463 -0.509572 -2.38926e-17)
(1.46146 0.674216 1.704e-17)
(0.748915 -0.511554 5.73411e-17)
(1.02682 -0.0468936 2.29463e-18)
(1.10272 0.0377092 -6.47088e-19)
(1.02757 -0.0464286 -1.03032e-17)
(1.1031 0.0378469 -1.86216e-18)
(1.39326 0.440898 8.7178e-18)
(0.638391 -0.533208 -3.8068e-17)
(1.39327 0.441625 3.24029e-17)
(0.639199 -0.531404 4.83613e-18)
(1.05055 -0.0138363 -1.06704e-18)
(1.00283 0.00709951 1.23244e-17)
(1.05067 -0.0140654 -5.10811e-19)
(1.00303 0.00707465 2.39736e-18)
(0.989932 -0.0549173 -6.86398e-18)
(1.19917 0.0916418 1.31227e-17)
(0.990148 -0.0526137 -1.74637e-17)
(1.20031 0.0924312 -1.76005e-19)
(1.02036 0.0569636 1.14715e-17)
(1.06362 -0.0603037 2.61991e-18)
(1.06429 -0.0621109 2.07344e-17)
(1.02436 0.0565529 4.24037e-18)
(1.23243 0.230948 5.84153e-18)
(1.23314 0.230232 -4.12799e-18)
(0.843545 -0.174165 -3.29978e-20)
(0.842987 -0.174611 -5.19897e-18)
(0.991176 0.00224556 5.67951e-19)
(1.02142 -0.00409168 1.08663e-18)
(1.02121 -0.00423286 -2.61423e-18)
(0.991155 0.00221747 -2.13714e-17)
(1.02448 -0.0299452 -1.12669e-18)
(1.0235 0.0163914 -3.54072e-19)
(1.02445 0.016141 1.0254e-18)
(1.02478 -0.0295271 8.998e-19)
(1.14011 0.0374659 -5.20474e-18)
(0.97009 -0.0464295 -3.0741e-18)
(1.13933 0.0374119 2.45528e-18)
(0.967059 -0.0477395 1.12772e-17)
(1.07537 -0.0122887 -4.16626e-18)
(0.968339 0.00834028 -1.26141e-17)
(0.969411 0.009106 -5.23964e-18)
(1.07539 -0.012435 3.64938e-18)
(1.03888 0.0775826 -1.61836e-17)
(1.09196 -0.071691 3.4382e-18)
(1.09441 -0.0717455 1.38334e-19)
(1.03896 0.0796663 8.67951e-18)
(1.01392 0.00156916 -3.27162e-19)
(1.01004 -0.0126132 -4.46494e-18)
(1.01025 -0.0128198 5.84359e-18)
(1.01457 0.00179637 -2.90523e-19)
(1.00895 0.00382274 -1.29839e-18)
(1.02086 0.00204998 -2.19766e-18)
(1.00884 0.00373148 -2.46022e-19)
(1.02111 0.00203423 1.04268e-19)
(1.03599 0.0239569 -2.84506e-18)
(1.00456 -0.0208089 -8.69275e-18)
(1.00425 -0.0202972 1.06633e-17)
(1.03632 0.024026 7.29363e-18)
(1.3441 0.0260874 -3.1237e-19)
(1.34481 0.0250763 8.76994e-19)
(0.925061 -0.0161919 -4.55541e-17)
(0.917154 -0.0190657 4.70941e-17)
(1.09702 0.0135232 -6.45304e-18)
(0.976399 -0.0211143 -1.08687e-18)
(0.975602 -0.0210558 2.40962e-19)
(1.09749 0.0131044 -5.81676e-19)
(1.372 0.384571 -2.64614e-18)
(1.37253 0.382782 -1.16781e-17)
(0.752617 -0.166959 -3.54964e-17)
(0.75061 -0.165591 1.51931e-17)
(1.1246 0.0735619 -5.52771e-18)
(1.12487 0.0735509 9.92185e-18)
(0.996266 -0.0581124 -1.75393e-17)
(0.998436 -0.0590979 4.29409e-18)
(0.883683 -0.347093 -5.27413e-18)
(1.14193 0.275116 -2.35469e-17)
(1.14228 0.274712 -1.12146e-17)
(0.882357 -0.347348 2.86561e-18)
(1.24434 0.19917 -1.30944e-17)
(1.24549 0.200689 -1.35467e-17)
(0.974054 -0.227924 4.48801e-18)
(0.974092 -0.227739 -4.02987e-18)
(1.01909 0.00503756 6.177e-19)
(1.00358 -0.00234269 -3.0314e-18)
(1.01884 0.00487277 1.71855e-18)
(1.00353 -0.00247913 2.79726e-18)
(1.07627 -0.0426423 -1.03875e-19)
(1.07567 -0.0427321 -1.25137e-17)
(1.00498 0.0457001 2.49586e-17)
(1.00367 0.0445505 1.5055e-18)
(1.22447 0.268217 2.027e-17)
(1.22467 0.267688 -6.8292e-18)
(0.780917 -0.253628 4.61044e-18)
(0.781924 -0.253842 -2.44373e-17)
(1.16853 -0.0244001 -2.92716e-19)
(0.918254 -0.0179729 4.36062e-19)
(0.921348 -0.0154771 7.85825e-18)
(1.16899 -0.0242944 2.24512e-19)
(1.12573 -0.153229 2.01415e-17)
(1.03794 0.16301 -1.48176e-17)
(1.12445 -0.152724 9.56757e-18)
(1.03862 0.164761 -4.99769e-17)
(1.05456 0.140651 2.08894e-17)
(1.02871 -0.148766 2.22464e-17)
(1.05861 0.138585 -7.90877e-18)
(1.0273 -0.150147 1.64857e-17)
(1.14648 -0.0166751 5.00036e-18)
(1.14696 -0.0161949 -4.56211e-18)
(0.945866 -0.000300946 9.14176e-19)
(0.947292 0.000119897 2.34145e-17)
(1.04737 0.0537095 1.00567e-17)
(0.997242 -0.0505886 1.27636e-17)
(1.04645 0.0546005 -3.76472e-18)
(0.996578 -0.0498654 3.55902e-18)
(1.1238 -0.0672966 6.19593e-18)
(0.986654 0.0677579 -1.18266e-17)
(1.12384 -0.0675786 5.16559e-18)
(0.986391 0.064454 -1.08259e-17)
(1.02485 -0.0116553 -4.34972e-19)
(0.998804 0.013899 -1.37691e-17)
(0.999285 0.0135131 -3.67714e-18)
(1.02502 -0.0113729 -2.21809e-18)
(1.03006 -0.219913 3.8839e-19)
(1.07549 0.183426 -1.13756e-18)
(1.03082 -0.218781 -7.00775e-19)
(1.07649 0.181601 5.94638e-18)
(1.13932 -0.189645 -3.46766e-18)
(1.01794 0.230684 1.40319e-17)
(1.0165 0.233258 -1.29919e-18)
(1.13883 -0.190005 8.4134e-18)
(1.05972 0.0593655 2.10674e-17)
(1.00947 -0.0663778 2.50471e-18)
(1.05999 0.0601705 -1.8311e-17)
(1.00883 -0.0659461 -1.83606e-17)
(1.00156 0.0214115 2.51438e-18)
(1.06272 -0.0317878 -9.90253e-18)
(1.00247 0.0212396 -2.86112e-17)
(1.06242 -0.0312574 8.95538e-18)
(1.02403 -0.00476918 -4.35152e-18)
(0.994732 -0.0122445 6.69614e-18)
(0.994832 -0.0122373 1.61494e-20)
(1.0242 -0.00507879 2.51215e-18)
(1.05173 -0.00373353 3.19132e-18)
(0.996758 -0.00625759 9.28601e-19)
(1.05175 -0.0038146 -1.67047e-18)
(0.996739 -0.00607458 3.45664e-18)
(1.06412 -0.0262034 1.78333e-19)
(0.993489 -0.00614347 2.225e-17)
(1.06324 -0.0264291 -4.40571e-19)
(0.994266 -0.00613244 -4.20228e-17)
(1.16061 0.186602 -4.52016e-18)
(0.960396 -0.194036 7.75744e-18)
(1.16128 0.186684 -2.43754e-17)
(0.96127 -0.193824 3.51121e-17)
(0.804929 -0.527816 1.78631e-17)
(0.597846 0.661999 3.41342e-18)
(0.598309 0.664731 7.48571e-19)
(0.804765 -0.528391 -1.73329e-17)
(1.52812 0.228963 -2.93918e-18)
(0.205863 -0.255815 7.5713e-17)
(1.52813 0.228326 -3.28263e-17)
(0.206461 -0.253713 2.23509e-17)
(1.05465 -0.0748675 -1.44145e-18)
(1.05469 -0.0743619 -5.7971e-18)
(1.04302 0.0535899 9.41431e-19)
(1.04319 0.0518719 -1.99575e-17)
(1.11974 -0.000429232 1.73554e-18)
(1.11988 -0.00143811 -1.28139e-18)
(1.00174 -0.0345907 -5.33577e-18)
(1.0016 -0.0337535 1.74671e-18)
(1.17583 0.153507 -8.89861e-19)
(0.93568 -0.192267 -3.7631e-18)
(0.936603 -0.190519 -2.40838e-17)
(1.17633 0.152768 4.55068e-18)
(1.05785 -0.00961115 -1.89375e-18)
(1.00302 0.0210731 -3.21438e-17)
(1.05803 -0.00991174 -3.7204e-19)
(1.0023 0.0212941 3.45736e-17)
(1.06832 -0.0113178 4.65523e-18)
(0.979322 0.00934586 4.74228e-18)
(1.06836 -0.0114353 -3.5589e-18)
(0.979838 0.00912232 -5.2012e-18)
(1.07844 -0.00042192 -2.69328e-18)
(1.07881 -0.000561799 -2.01143e-18)
(1.01123 -0.00669119 3.97698e-19)
(1.01103 -0.00612132 8.27255e-18)
(1.02458 -0.00362399 -7.67366e-19)
(1.01315 0.00544223 -3.49182e-18)
(1.01313 0.00561975 -2.08436e-18)
(1.02493 -0.00372044 -2.5114e-18)
(1.02275 0.00329852 -2.41262e-17)
(1.01074 -0.000771183 -2.74156e-18)
(1.01065 -0.000766235 6.92717e-18)
(1.02318 0.00344059 -5.39357e-18)
(1.02092 -0.0254896 -1.33546e-18)
(1.00691 0.014476 6.68931e-19)
(1.0201 -0.0257124 1.35026e-18)
(1.00617 0.0147858 1.22626e-18)
(1.02643 0.116534 3.44888e-17)
(1.08043 -0.0994798 3.95676e-18)
(1.02585 0.115575 1.42903e-17)
(1.08506 -0.0999481 -1.85084e-18)
(0.957892 -0.04235 6.79968e-18)
(1.17942 0.0175513 8.55395e-19)
(1.17868 0.0169878 -2.04802e-19)
(0.961395 -0.0421889 -3.47503e-18)
(1.01873 -0.0118683 -2.70634e-19)
(1.01225 0.0113223 -7.80816e-19)
(1.01867 -0.0116812 1.4752e-18)
(1.01209 0.0109686 2.15916e-18)
(1.1527 -0.0490584 -1.82596e-18)
(1.15201 -0.0493641 3.86243e-18)
(0.963396 0.0534103 -2.30325e-17)
(0.966792 0.0535022 -2.73205e-18)
(1.00418 0.0473885 1.32356e-17)
(1.08384 -0.0351896 -6.76748e-18)
(1.00294 0.0461667 3.00788e-17)
(1.08426 -0.0354556 -2.17989e-18)
(1.23204 -0.00147732 1.52146e-18)
(0.910888 0.00862494 -4.05733e-18)
(1.23246 -0.00167002 -3.27561e-18)
(0.906604 0.0072313 7.82338e-18)
(0.974222 0.029154 -8.47557e-18)
(0.978164 0.0270936 -1.58915e-18)
(1.11712 -0.0490205 -3.54243e-18)
(1.11757 -0.0495103 -1.81486e-19)
(1.02539 0.0906546 9.91071e-20)
(1.02471 -0.0894359 -2.55935e-17)
(1.02545 0.0879886 1.99068e-17)
(1.02919 -0.0882718 -1.26042e-17)
(1.02059 0.0145166 -3.31153e-20)
(1.00448 -0.0065842 6.10854e-18)
(1.00439 -0.00638556 -7.29775e-18)
(1.02065 0.0145027 4.78926e-18)
(1.069 0.12644 -1.03845e-17)
(1.05028 -0.109227 -6.886e-18)
(1.04656 -0.107165 4.21312e-17)
(1.06573 0.129235 -2.57193e-17)
(1.0168 0.00322617 -1.21609e-18)
(0.99691 -0.000176533 9.38233e-18)
(1.01734 0.00325144 -6.21045e-18)
(0.996928 -0.000167534 -1.12919e-17)
(0.988942 0.0137437 -3.37044e-18)
(0.98607 0.0162042 7.55638e-19)
(1.13042 -0.0285733 -3.26479e-18)
(1.13074 -0.0294267 9.69194e-19)
(0.954414 -0.00227528 -3.87365e-18)
(1.22791 0.0393001 3.3245e-18)
(1.22768 0.0384978 -5.05374e-19)
(0.95024 -0.00441383 7.27724e-18)
(1.00405 0.0907128 9.54566e-18)
(1.12496 -0.105222 -3.90741e-18)
(1.1236 -0.106149 -1.01816e-17)
(1.00539 0.090037 2.5871e-17)
(1.0109 0.0036618 5.9215e-18)
(1.00444 -0.016167 -9.44956e-18)
(1.01064 0.00333459 -4.20652e-18)
(1.00446 -0.0160557 9.35389e-18)
(1.27403 0.310077 -3.63337e-17)
(0.954841 -0.514385 3.94896e-18)
(1.2688 0.304745 -6.29211e-17)
(0.953429 -0.515782 -2.68195e-17)
(1.04622 0.139066 -9.42554e-18)
(1.03176 -0.216791 5.89613e-18)
(1.04569 0.14013 4.43172e-17)
(1.02703 -0.215189 -2.73084e-18)
(0.789448 -0.000255165 1.77289e-17)
(1.32337 -0.0837132 -5.46852e-18)
(0.789343 -0.000748432 -2.38568e-17)
(1.32278 -0.0844399 -3.25939e-18)
(0.997418 0.00162152 9.78177e-18)
(0.997436 0.00167562 1.05964e-18)
(1.01181 0.000748597 -2.55616e-18)
(1.01217 0.000831807 2.47176e-19)
(0.997319 -0.0326749 5.41052e-17)
(1.06656 0.0291826 2.27171e-18)
(0.99793 -0.0316218 -7.63335e-19)
(1.06637 0.0294625 -4.82151e-18)
(0.918893 0.0483422 -5.06912e-18)
(1.15528 -0.0723207 -4.2389e-18)
(0.920587 0.046545 1.28677e-18)
(1.15465 -0.0722595 3.48665e-18)
(1.01395 -0.00523091 1.08485e-18)
(1.0003 0.00782735 2.16631e-18)
(1.01362 -0.0051281 -2.51419e-18)
(1.0003 0.00733811 -1.28843e-17)
(1.01475 -0.0481785 1.6401e-19)
(1.02508 0.0424769 2.45271e-18)
(1.01603 -0.0461339 -3.66267e-18)
(1.02295 0.0427719 -4.57207e-18)
(1.02078 -0.028491 1.2629e-18)
(1.03987 0.0387956 -2.23231e-18)
(1.02047 -0.0275139 -1.98632e-18)
(1.04153 0.0392515 2.2301e-18)
(0.99101 -0.0608235 -5.62359e-18)
(1.09018 0.0566963 -2.01483e-18)
(0.99 -0.061735 -1.31739e-17)
(1.09043 0.0556321 -3.51114e-18)
(0.997553 -0.073923 -4.04383e-18)
(1.07956 0.0800668 7.08756e-18)
(1.0791 0.0783002 -1.00763e-17)
(0.997057 -0.0730433 1.48939e-17)
(1.26453 -0.0385414 -4.93291e-18)
(1.26377 -0.0398883 -5.92043e-18)
(0.869695 0.0219092 3.45043e-17)
(0.875445 0.0222437 -4.44956e-18)
(1.22782 -0.029967 -2.86817e-18)
(0.889033 0.00572265 5.97168e-18)
(1.22713 -0.0305077 -2.09661e-18)
(0.892651 0.00873545 -1.03312e-20)
(1.00509 -0.0107141 -2.15105e-17)
(1.02299 0.00515865 1.50781e-18)
(1.02304 0.00491331 -3.48199e-19)
(1.00512 -0.0108308 2.12958e-17)
(1.15349 -0.345389 8.38964e-18)
(1.15264 -0.343366 -2.31068e-17)
(1.04242 0.295822 -1.53321e-18)
(1.04176 0.298329 6.0211e-19)
(1.14347 0.452889 2.86167e-17)
(1.14606 0.452929 -9.62488e-18)
(1.15111 -0.407429 -4.97862e-18)
(1.14996 -0.408959 2.93658e-17)
(1.03253 0.015393 2.3899e-18)
(1.00951 -0.0274774 -1.63159e-17)
(1.0094 -0.0268837 9.83528e-18)
(1.03248 0.0154508 -1.19772e-18)
(1.04991 0.0272051 1.43384e-18)
(1.00932 -0.0234556 -5.53575e-18)
(1.00968 -0.0229802 1.45872e-18)
(1.05023 0.0270835 -1.42569e-17)
(1.23664 -0.0923174 -6.39295e-19)
(0.8866 0.0701203 -1.77423e-17)
(1.23567 -0.0948061 -5.61089e-18)
(0.884151 0.0655975 1.13901e-17)
(0.948282 0.0590168 -1.45397e-17)
(0.948791 0.0625119 2.47116e-17)
(1.20089 -0.0646988 -1.86253e-18)
(1.20014 -0.0649388 -5.86887e-19)
(1.002 -0.00449763 2.24214e-18)
(1.00205 -0.00465777 -1.68496e-18)
(1.01439 0.00725934 5.7772e-18)
(1.01403 0.00713209 1.38966e-18)
(1.02497 -0.00527216 6.96484e-19)
(0.991735 0.0045992 -1.19844e-18)
(0.990988 0.00517561 1.15219e-17)
(1.02465 -0.00521919 -2.98185e-18)
(1.18548 -0.560347 1.17598e-17)
(0.789606 0.484156 -1.89367e-17)
(0.793255 0.489051 -1.83295e-17)
(1.18437 -0.560025 9.57952e-18)
(1.16831 -0.0229636 3.78919e-18)
(0.884805 2.60916e-05 8.02903e-19)
(1.16745 -0.0232835 -4.53025e-19)
(0.889736 0.000866411 2.70941e-18)
(1.0411 0.0378085 1.2013e-17)
(1.03984 0.0381559 1.06074e-18)
(1.00253 -0.0420363 1.97601e-17)
(1.00179 -0.0413397 2.3448e-17)
(1.00333 0.00426852 -1.01949e-19)
(1.01032 -0.0170171 -1.21246e-18)
(1.00392 0.00481924 3.45651e-19)
(1.01015 -0.016525 2.08167e-18)
(1.15143 -0.0861969 -2.29772e-18)
(0.982088 0.0680515 2.2204e-17)
(1.15156 -0.0859423 -1.12853e-18)
(0.982102 0.0694316 5.03e-18)
(1.00092 0.00607142 2.17284e-17)
(1.05285 -0.00753873 4.26248e-18)
(1.00033 0.00635873 -2.30353e-17)
(1.05299 -0.00752503 -6.34222e-18)
(0.944506 0.116867 6.47491e-18)
(1.19007 -0.114989 2.1388e-18)
(0.947067 0.11783 -5.013e-18)
(1.18841 -0.115336 2.90142e-18)
(0.950435 0.0752411 5.85477e-18)
(1.18427 -0.104852 1.39808e-18)
(1.18634 -0.105955 -5.91045e-18)
(0.952412 0.0785879 5.09834e-17)
(1.01913 -0.031652 2.09915e-17)
(1.079 0.030604 4.04433e-18)
(1.07888 0.030943 -5.18926e-18)
(1.01877 -0.0306745 3.52172e-18)
(1.03863 -0.0658064 -1.16993e-18)
(1.00891 0.046844 -5.31635e-18)
(1.03964 -0.0651731 -4.0878e-18)
(1.00763 0.0483868 -2.37566e-18)
(1.29761 -0.271734 2.95157e-18)
(0.954447 0.35183 -1.47277e-18)
(0.953774 0.34981 3.19927e-17)
(1.29948 -0.272388 7.13302e-19)
(1.22584 -0.193535 -8.44827e-18)
(0.900021 0.244146 -1.99225e-17)
(0.902041 0.241443 7.25064e-18)
(1.22505 -0.193322 3.61822e-18)
(1.16183 0.0564758 -1.32422e-18)
(0.963296 -0.0612262 -4.86933e-18)
(0.961332 -0.0625041 8.74419e-18)
(1.16208 0.0561902 9.91749e-19)
(0.796296 0.753123 2.03382e-17)
(1.3679 -0.653025 8.91104e-18)
(0.798641 0.757767 1.43754e-18)
(1.36852 -0.65325 -2.40527e-17)
(1.0217 -0.0414147 -1.19458e-17)
(1.02303 0.0343617 1.63448e-18)
(1.02291 -0.0413835 -1.41977e-17)
(1.02385 0.0352873 -1.94151e-17)
(1.27682 -0.102468 6.16546e-19)
(0.839257 0.148924 -3.55367e-17)
(0.841604 0.146199 -2.5823e-17)
(1.27911 -0.101698 1.1351e-18)
(1.24011 -0.144089 1.64674e-18)
(0.945251 0.162164 1.34927e-17)
(0.945579 0.160299 -3.1736e-18)
(1.24235 -0.145905 3.45795e-18)
(1.0819 -0.0180532 -3.81512e-19)
(1.08135 -0.0179478 -4.25913e-18)
(1.00015 0.00560756 -8.64271e-18)
(0.999119 0.00717667 1.02896e-17)
(0.954602 0.0389249 -2.41144e-18)
(1.18972 -0.0352635 4.36018e-18)
(0.958458 0.0405753 8.24844e-19)
(1.18847 -0.0363185 1.64697e-18)
(1.01025 0.0196183 -1.98326e-18)
(1.01096 0.0198439 6.06435e-19)
(1.00574 -0.0198054 4.74031e-18)
(1.00545 -0.0202347 -4.33585e-18)
(1.04587 0.0226053 7.49887e-18)
(1.01141 -0.0221677 -1.35196e-17)
(1.04553 0.0224762 -8.59684e-18)
(1.01125 -0.021469 -2.85982e-18)
(1.03136 0.0219831 5.26994e-19)
(1.01351 -0.0326709 -2.72933e-18)
(1.01409 -0.0320522 -6.15853e-19)
(1.0314 0.0221679 -2.91822e-18)
(1.08146 -0.0192342 -3.15638e-18)
(1.08082 -0.0199509 -2.46809e-18)
(1.00824 0.0215454 -6.14142e-18)
(1.00548 0.0208901 -9.44059e-19)
(1.03483 -0.178791 -1.04685e-19)
(1.03633 -0.178796 -6.09532e-19)
(1.14921 0.147866 1.82666e-18)
(1.14809 0.148647 -1.39512e-17)
(1.02835 -0.15629 -5.52856e-18)
(1.10229 0.111665 -1.95227e-17)
(1.02779 -0.155557 -2.35605e-18)
(1.1028 0.111735 8.18138e-18)
(1.10458 -0.0242218 -1.44263e-19)
(0.983402 0.00723384 9.60404e-18)
(1.10421 -0.0237134 -3.14174e-18)
(0.980736 0.00797568 1.25044e-18)
(1.00312 -0.161196 -1.71994e-18)
(1.00187 -0.161036 6.91822e-18)
(1.12765 0.102527 -1.49745e-17)
(1.12799 0.103139 1.82529e-18)
(1.14538 -0.0410351 3.83178e-18)
(0.958388 0.0151199 -7.48036e-19)
(0.961052 0.0149464 -1.23508e-17)
(1.14545 -0.0414679 -4.02666e-18)
(0.944964 -0.161227 -3.19476e-17)
(1.13301 0.11944 4.53444e-18)
(0.943725 -0.160235 -1.57439e-17)
(1.13308 0.118483 -2.29817e-17)
(1.00693 0.00166939 -1.09446e-17)
(1.05056 0.0037783 -1.1216e-17)
(1.0069 0.00128648 3.6012e-17)
(1.05115 0.00397684 -8.58783e-18)
(1.0967 -0.0322322 -5.04582e-18)
(0.99839 0.0372194 -1.60677e-17)
(1.00106 0.0357211 -9.6577e-18)
(1.09657 -0.031876 -2.71993e-18)
(0.982799 -0.0127748 8.2983e-18)
(1.05845 0.016315 1.42299e-18)
(1.05845 0.0167046 -2.26747e-18)
(0.982574 -0.012553 5.07706e-18)
(0.980292 -0.028834 -4.18477e-18)
(1.07796 0.0162429 -1.0006e-17)
(1.07805 0.0158359 -2.7462e-18)
(0.979925 -0.0285617 2.15702e-18)
(1.07129 0.0184592 -2.15703e-19)
(0.983078 -0.032557 -1.97375e-17)
(1.07146 0.0190983 -5.8658e-18)
(0.98276 -0.0325407 4.39246e-18)
)
;

boundaryField
{
    insideCircle
    {
        type            fixedValue;
        value           uniform (0 0 0);
    }
    outsideCircle
    {
        type            fixedValue;
        value           uniform (1 0 0);
    }
    topAndBottom
    {
        type            empty;
    }
}


// ************************************************************************* //
