/*--------------------------------*- C++ -*----------------------------------*\
| =========                 |                                                 |
| \\      /  F ield         | foam-extend: Open Source CFD                    |
|  \\    /   O peration     | Version:  3.0                                   |
|   \\  /    A nd           | Web:         http://www.extend-project.de       |
|    \\/     M anipulation  |                                                 |
\*---------------------------------------------------------------------------*/
FoamFile
{
    version     2.0;
    format      ascii;
    class       volVectorField;
    location    "50";
    object      u;
}
// * * * * * * * * * * * * * * * * * * * * * * * * * * * * * * * * * * * * * //

dimensions      [0 0 0 0 0 0 0];

internalField   nonuniform List<vector> 
672
(
(0.5675534659 -0.08788486058 7.555149096e-17)
(0.2134805473 -0.06415378693 5.552065912e-17)
(0.9490809506 -0.04916181289 -5.393016262e-18)
(0.5223487431 -0.03161191898 4.491189426e-17)
(1.097129107 -0.02911107347 3.517016096e-17)
(0.6764251189 -0.0177496497 6.989706453e-17)
(1.166989027 -0.01637498365 9.78902082e-17)
(0.752231818 -0.01127677767 -1.713783797e-17)
(1.206317369 -0.007405257589 5.391884531e-17)
(0.7828294046 -0.007116605349 -3.693723205e-18)
(1.228868853 -0.00132833428 3.583558521e-17)
(0.7870662096 -0.002141977768 -6.606508265e-17)
(0.6067480836 -0.2588668735 -4.696220134e-17)
(0.2419013022 -0.189191776 -1.230545571e-16)
(0.9708882628 -0.1445964524 5.022290962e-17)
(0.5362069689 -0.09319234729 -1.797038759e-16)
(1.109996932 -0.0852596411 -1.128097382e-16)
(0.6840036646 -0.05223928306 -1.651990081e-17)
(1.174360215 -0.04751019966 -3.188811696e-16)
(0.7566806257 -0.03301507302 1.515626398e-16)
(1.210088089 -0.02099928953 -1.739984671e-16)
(0.7849291613 -0.0204245941 2.039417097e-16)
(1.230517769 -0.00319643039 -2.98902451e-16)
(0.7862385339 -0.005215498837 4.066236627e-16)
(0.6827822147 -0.4168992664 4.70294814e-17)
(0.2975503702 -0.3045178959 1.721596024e-16)
(1.01339547 -0.2326709122 6.860309759e-17)
(0.5637362249 -0.1500309432 2.425191235e-16)
(1.135001298 -0.1369957013 1.046486989e-16)
(0.6996474323 -0.08430926864 1.71348127e-16)
(1.188004699 -0.07597577721 1.920566319e-16)
(0.7669613477 -0.05364355793 1.054447642e-16)
(1.21545346 -0.03291351128 -2.220223464e-18)
(0.7919935847 -0.03364717733 -4.120366715e-17)
(1.230020651 -0.003853362895 7.76194083e-17)
(0.7894400322 -0.00932035124 -1.332274117e-16)
(0.7923096655 -0.5539707917 -2.310730317e-16)
(0.3773913022 -0.4049056931 -1.328635896e-16)
(1.074516604 -0.3092326816 -2.617445928e-16)
(0.6029059205 -0.1994470865 -1.138781107e-18)
(1.171054685 -0.1820601925 -4.768595387e-16)
(0.7213655338 -0.1118648543 1.900873436e-16)
(1.20831169 -0.1010466237 -5.656042476e-16)
(0.7802678245 -0.07081779907 3.681513608e-16)
(1.224983654 -0.0440550889 -4.548702858e-16)
(0.7994873443 -0.04395681821 6.232887339e-16)
(1.232578468 -0.005697071796 -6.279419957e-16)
(0.78992718 -0.01150953063 8.200230161e-16)
(0.9294357757 -0.6633085484 4.413729549e-16)
(0.4775203484 -0.4846425028 9.811862409e-17)
(1.15105339 -0.3700826323 2.623697761e-16)
(0.6523300216 -0.2388100155 6.214102259e-17)
(1.216044777 -0.2177267621 3.282165056e-16)
(0.7493497837 -0.1342651774 9.884204602e-17)
(1.23296611 -0.120481618 1.999088387e-16)
(0.7984593733 -0.08551759617 -6.680016746e-17)
(1.235011017 -0.0518198256 2.849587889e-16)
(0.8115147755 -0.05368810413 -4.723335275e-16)
(1.232513431 -0.005508603461 3.794496487e-16)
(0.7943446028 -0.0148482302 -3.73225382e-16)
(1.087590368 -0.7393233053 -3.109861138e-16)
(0.5930086188 -0.5404850273 2.35501563e-18)
(1.239381184 -0.4125831649 -3.422938301e-16)
(0.7090643891 -0.2662657815 1.85032816e-16)
(1.268125564 -0.24275313 -5.604668784e-16)
(0.7808789755 -0.1494313361 2.466081739e-16)
(1.262163559 -0.1345042757 -5.074966314e-16)
(0.817926292 -0.09472573681 2.963020633e-16)
(1.248401931 -0.05831319477 -4.990155525e-16)
(0.8228418492 -0.05891706558 8.591491475e-16)
(1.235485123 -0.007029411315 -9.333424004e-16)
(0.7960039865 -0.01559267836 9.424855953e-16)
(1.258626099 -0.7782842199 8.365862251e-17)
(0.7177927436 -0.5688724977 1.08897498e-16)
(1.334764222 -0.4341560708 1.293092673e-18)
(0.7706276164 -0.2803870693 -8.248248245e-17)
(1.324167765 -0.2552770177 3.242223797e-16)
(0.8157372853 -0.1577474323 -3.728617107e-17)
(1.292904933 -0.1410207693 2.365271042e-16)
(0.840545997 -0.100620121 -1.456253598e-16)
(1.261035461 -0.06029636371 2.782481275e-16)
(0.8375965366 -0.06333530342 -5.309458658e-16)
(1.23576732 -0.005845467934 5.48628242e-16)
(0.800900337 -0.0177729273 -4.298717877e-16)
(1.434086167 -0.7782007144 5.014386636e-18)
(0.8460693817 -0.569088542 -8.778944793e-17)
(1.432800616 -0.4341574664 1.894597624e-16)
(0.8336958129 -0.2804287761 -8.653658197e-17)
(1.381942986 -0.2552902938 -1.054322637e-17)
(0.8508353051 -0.1575195113 -4.633668683e-17)
(1.32519175 -0.1412199666 -5.493043717e-18)
(0.8623067696 -0.1000329591 1.036977464e-16)
(1.275648594 -0.06090581312 -2.528579906e-16)
(0.8504532935 -0.06236755222 5.479869484e-16)
(1.238652223 -0.006894673863 -5.763610605e-16)
(0.8032419569 -0.01664467895 5.516599483e-16)
(1.605127065 -0.739056428 8.728759339e-18)
(0.9708189535 -0.5405162984 2.677380334e-17)
(1.528121935 -0.4122014417 -3.67770887e-16)
(0.8952408218 -0.2665201056 2.253227947e-16)
(1.437907433 -0.2422191855 -2.899096507e-16)
(0.8857194863 -0.1500946738 2.270340356e-16)
(1.355854966 -0.1335520348 -1.600993286e-16)
(0.8849719791 -0.09594191303 3.423019042e-17)
(1.288230421 -0.05670940912 1.381639241e-16)
(0.8651853472 -0.06065358338 -3.904878455e-16)
(1.238976736 -0.004846815486 3.956719713e-16)
(0.8079287146 -0.01749216291 -4.448362666e-16)
(1.763155201 -0.6629095314 9.490471322e-17)
(1.08646512 -0.485042051 -4.746378464e-17)
(1.616443584 -0.3696899129 4.445990066e-16)
(0.952139969 -0.2391112457 -1.650071524e-16)
(1.48993237 -0.2171994362 3.129340427e-16)
(0.9174283427 -0.134484924 -2.865553575e-16)
(1.38486685 -0.119878745 2.199140303e-16)
(0.9046895273 -0.08563025225 -7.604858988e-17)
(1.301273369 -0.05132360054 -2.415488385e-17)
(0.8769203268 -0.05358782396 6.717526004e-17)
(1.241410843 -0.00528578068 -6.17493962e-17)
(0.8102425715 -0.01450206108 1.156231735e-16)
(1.900304088 -0.5534151438 -4.747712173e-17)
(1.186504711 -0.4051583356 -1.72135184e-17)
(1.692831523 -0.3085778511 -2.704630878e-16)
(1.001512886 -0.1999280592 -1.584002403e-17)
(1.53472756 -0.1811619782 -1.26141327e-16)
(0.9454718152 -0.1127945123 5.201324763e-17)
(1.409328379 -0.09959384863 -9.017601375e-17)
(0.9229822047 -0.0723777126 -1.345580885e-17)
(1.311198019 -0.0418216743 5.451920961e-17)
(0.8888415923 -0.04613101525 -9.348170928e-17)
(1.24153123 -0.002772863716 1.176950993e-16)
(0.8139968928 -0.01398042675 -1.730756961e-16)
(2.009623376 -0.4163045624 6.788229986e-20)
(1.266579935 -0.3049723144 -4.310161261e-18)
(1.753933164 -0.2319826496 2.487593663e-16)
(1.0409406 -0.1504602662 -3.459741495e-17)
(1.570688871 -0.13608337 2.250703963e-16)
(0.9674850467 -0.08481052032 -1.665795859e-16)
(1.42932872 -0.07481334636 2.428742618e-16)
(0.9367164923 -0.05424016021 -1.559306766e-16)
(1.320124844 -0.03162077742 1.054151486e-16)
(0.8970605912 -0.03417099322 -1.003449116e-16)
(1.243111206 -0.002679747902 1.312574893e-16)
(0.815702301 -0.00951664237 -1.188331496e-16)
(2.085711406 -0.258155499 -2.985069595e-17)
(1.322120142 -0.1895642175 -4.217503664e-17)
(1.796291296 -0.1438205579 -1.253925012e-16)
(1.068384305 -0.09375656695 -4.813772055e-17)
(1.595479086 -0.08421638946 -8.301037086e-17)
(0.983144044 -0.0531855151 -1.234858249e-17)
(1.442779305 -0.04589047679 -3.929178082e-17)
(0.9470168633 -0.0345484643 -4.067172431e-17)
(1.325467222 -0.01857408504 4.280744223e-17)
(0.9038201166 -0.02262083275 -7.076380858e-17)
(1.243037039 1.423960255e-05 7.560742296e-17)
(0.8178148495 -0.00794008486 -9.460136896e-17)
(2.124697015 -0.08725008705 3.946822641e-17)
(1.350722255 -0.06452468681 1.941841785e-17)
(1.818065485 -0.04834743968 1.381669711e-16)
(1.082493911 -0.03200022864 -1.329437892e-17)
(1.608248377 -0.02807173782 1.526677357e-16)
(0.9910739331 -0.018263261 -8.042252728e-17)
(1.449805992 -0.01506192398 1.52838012e-16)
(0.9520240813 -0.01196084195 -1.030987258e-16)
(1.328511576 -0.005869313579 1.135725837e-16)
(0.9068571068 -0.00781538352 -1.094981534e-16)
(1.243470676 0.0002168907142 1.283311785e-16)
(0.8184876894 -0.002551736905 -1.35219377e-16)
(2.124665007 0.08822278188 -4.400831956e-17)
(1.350763254 0.06359960465 -5.251166954e-17)
(1.818043301 0.04942625963 -7.421985269e-17)
(1.082562749 0.03100434122 -5.736786659e-17)
(1.608175517 0.02938950133 -5.500905428e-17)
(0.9912099503 0.01697893383 -4.380490372e-17)
(1.449649475 0.01687276572 -2.690761659e-17)
(0.9522294422 0.01012128034 -3.682229469e-17)
(1.328291254 0.008370473248 1.392959593e-17)
(0.9070650754 0.005285023002 -3.403480602e-17)
(1.243265118 0.00292037701 3.092791943e-17)
(0.818580005 -0.0005374172073 -3.920294271e-17)
(2.085621536 0.2590711674 6.446677731e-17)
(1.322195879 0.1886889856 3.906579119e-17)
(1.79619191 0.144830739 9.933599668e-17)
(1.06853192 0.09282552444 1.25253073e-17)
(1.595245362 0.08542678848 1.530435586e-16)
(0.983461384 0.05200907982 -6.626556632e-17)
(1.442348348 0.04752772187 1.82775276e-16)
(0.9474896001 0.03287333455 -1.23652176e-16)
(1.3249126 0.02083267927 1.42076946e-16)
(0.9042614426 0.02028583921 -1.588652531e-16)
(1.242571185 0.002860017842 1.855125566e-16)
(0.8179430186 0.005007826504 -2.252367029e-16)
(2.009497968 0.4171133831 -5.455074035e-17)
(1.266705972 0.3041986804 -6.595234638e-17)
(1.753820528 0.2328850716 -6.438700133e-17)
(1.041181074 0.1496531465 -8.159711985e-17)
(1.570362421 0.13714092 -7.079181355e-17)
(0.9679972036 0.08381858669 -5.837313972e-17)
(1.428670819 0.07622591524 -7.577065835e-17)
(0.9374893811 0.05281916277 -2.184821242e-17)
(1.319233305 0.0335985481 -2.461248225e-17)
(0.8978151887 0.03211993141 4.965155522e-17)
(1.242309209 0.005265631049 -6.142621397e-17)
(0.8160067381 0.006837517179 6.860406253e-17)
(1.90017532 0.5540737036 1.364023885e-16)
(1.186614975 0.4045141306 4.194976166e-17)
(1.692700815 0.3093043457 1.384799285e-16)
(1.001770545 0.1992875478 -3.472297455e-17)
(1.534331719 0.181958987 2.376424502e-16)
(0.9460699042 0.1120705597 -1.087996217e-16)
(1.408538274 0.1006091987 2.637131659e-16)
(0.9238894187 0.07134794933 -1.771355585e-16)
(1.310162364 0.04327680303 2.282158221e-16)
(0.8896722961 0.04452050056 -3.195036297e-16)
(1.240683062 0.004822868237 3.299137624e-16)
(0.8141542882 0.01162557962 -4.057785788e-16)
(1.763062744 0.6633942853 -2.069551881e-16)
(1.086549978 0.4845590686 -2.349093807e-17)
(1.616378888 0.3702361111 -9.746191332e-17)
(0.952388598 0.2386690582 1.554207631e-17)
(1.489580408 0.2177269806 -1.801113621e-16)
(0.9180484996 0.1340673058 -9.503146718e-18)
(1.384079544 0.120465009 -1.225537174e-16)
(0.905642295 0.08505177077 1.002452841e-16)
(1.300206961 0.05218279466 -2.082151294e-16)
(0.8777929813 0.05252829072 3.463599942e-16)
(1.240519809 0.006661047719 -2.972776282e-16)
(0.8104270302 0.01268174312 3.119943197e-16)
(1.605116211 0.7393495031 1.282582719e-16)
(0.970806719 0.5401894438 -1.655473264e-17)
(1.528129612 0.4125277258 7.379212751e-17)
(0.8953994667 0.2662731536 -9.474948191e-17)
(1.437626011 0.2424472383 2.318033643e-16)
(0.8862498696 0.1499725158 -8.867699527e-17)
(1.355148794 0.1337231712 2.083174015e-16)
(0.8858153244 0.09577098924 -1.273407386e-16)
(1.287278698 0.05706781458 2.660079991e-16)
(0.8658914716 0.06003486873 -5.385125889e-16)
(1.238267705 0.005735686601 5.805073759e-16)
(0.807834266 0.01600520447 -5.783854288e-16)
(1.434190987 0.7783168315 4.940508298e-17)
(0.8459527746 0.5689203702 -4.072525965e-17)
(1.432958119 0.4343009648 1.776983725e-16)
(0.8337449443 0.2803821762 7.608007911e-17)
(1.381848104 0.2552405209 -1.483983444e-16)
(0.8512240801 0.1577167152 3.756684533e-17)
(1.324729908 0.1409303254 -1.508275988e-16)
(0.8629543941 0.100351463 1.505421006e-16)
(1.275005193 0.06059472973 -2.595049329e-16)
(0.8509151827 0.06236514881 5.429423113e-16)
(1.238277462 0.007003106233 -5.659470014e-16)
(0.8028973592 0.0157428819 5.016169106e-16)
(1.2588934 0.7782268475 -1.507926951e-16)
(0.7175058066 0.568827028 8.872293368e-17)
(1.335084957 0.434093711 -4.983436687e-16)
(0.7704837493 0.2804873126 1.928947047e-16)
(1.324294086 0.2549658874 -2.791388652e-16)
(0.8158535606 0.1581501831 2.269918029e-16)
(1.292770412 0.1403929369 -2.463984728e-16)
(0.8408127245 0.1012173105 5.853584201e-17)
(1.260825955 0.05958033144 8.181555226e-17)
(0.8376121827 0.0636623232 -3.888120277e-16)
(1.235864256 0.005525035401 4.049030737e-16)
(0.8001615784 0.01721520363 -3.538077541e-16)
(1.088017324 0.7391458586 5.595508739e-17)
(0.5925728835 0.5405364157 2.327033417e-17)
(1.239888657 0.4124072314 6.473342712e-16)
(0.7087492151 0.2664925568 -2.700716081e-16)
(1.26850124 0.2422824692 5.232216849e-16)
(0.7807532468 0.1500343018 -2.95558426e-16)
(1.262373061 0.1336158981 2.972808096e-16)
(0.8178655913 0.09563288395 -4.496971954e-17)
(1.248617152 0.05721110316 -1.567118674e-16)
(0.8224871523 0.05964638022 5.244574254e-16)
(1.236020252 0.006235565006 -5.271602232e-16)
(0.7949179525 0.0154324718 6.131192442e-16)
(0.9300695101 0.6630224167 -1.86538944e-16)
(0.4768874738 0.4847456009 5.798272852e-17)
(1.151780028 0.3697616548 -8.799529191e-16)
(0.6517825685 0.2390934046 2.882427917e-16)
(1.216739881 0.2170919464 -7.124227356e-16)
(0.748872671 0.1349294327 5.946243434e-16)
(1.233675292 0.1194025045 -5.631960525e-16)
(0.7978814759 0.08651046157 2.900169471e-16)
(1.235915469 0.05048182012 -1.312988734e-16)
(0.8105372013 0.05455827267 7.302602554e-17)
(1.233808423 0.004428442058 -1.208773555e-16)
(0.7927126054 0.01490492488 1.553091176e-17)
(0.7930830887 0.5536498881 1.205569545e-17)
(0.3766276515 0.4050124361 4.377139734e-17)
(1.075398089 0.3088938139 5.323847749e-16)
(0.6021904585 0.1997373559 1.205480921e-16)
(1.171968282 0.181425825 2.23447421e-16)
(0.7206310883 0.1125297127 -8.172615948e-17)
(1.209333455 0.09997486613 1.733558658e-16)
(0.779341048 0.07182852999 2.053268192e-17)
(1.226263061 0.04268769884 -9.63096816e-17)
(0.7981473968 0.04492925874 8.186628792e-17)
(1.234227758 0.004472284079 -1.321022528e-16)
(0.7880314357 0.01184276813 2.1422903e-16)
(0.6837484232 0.4165526616 1.564086281e-16)
(0.2966240628 0.3046015701 2.854435439e-17)
(1.014481183 0.232275295 -4.840737435e-16)
(0.5628344928 0.1502842625 8.534090647e-18)
(1.136200511 0.1363381141 -4.599014067e-16)
(0.698637302 0.08488519142 3.768209881e-16)
(1.189457019 0.07493666411 -5.861830797e-16)
(0.7656303856 0.05452103604 4.003421457e-16)
(1.217318082 0.03161225415 -2.504996511e-16)
(0.7901574374 0.03448929745 2.852461715e-16)
(1.232321681 0.00268749896 -3.860079204e-16)
(0.7870742828 0.009552433808 3.650596924e-16)
(0.6077725197 0.2585549225 -9.908279186e-17)
(0.2409284546 0.1892055436 5.441594968e-18)
(0.9720414119 0.1442498368 2.256648519e-16)
(0.5352177829 0.09335827928 5.046706763e-17)
(1.111319202 0.08471152316 1.916269923e-16)
(0.6828274877 0.05265914278 -7.805796941e-17)
(1.176027792 0.0466586175 1.197086168e-16)
(0.7550951758 0.03368871238 1.547408806e-17)
(1.212254064 0.01989625166 -1.172536096e-16)
(0.7828005369 0.02116138442 8.548836939e-17)
(1.233146176 0.0020718974 -9.321778945e-17)
(0.7836432883 0.00568795917 9.795512876e-17)
(0.5686938585 0.08761209728 5.618716719e-17)
(0.2124347269 0.06409534769 6.304907021e-17)
(0.9503486687 0.04883365556 -2.187011648e-16)
(0.5212842213 0.03167377474 1.128976241e-16)
(1.098582638 0.02865427103 -1.903508726e-16)
(0.6751511285 0.01796637008 1.463930217e-16)
(1.168815093 0.01573758402 -8.846592385e-17)
(0.7505212615 0.01163994875 4.610094858e-17)
(1.208659543 0.006620972196 -1.056298831e-17)
(0.7805712784 0.007497681152 3.090092095e-17)
(1.231664391 0.0005512615099 -4.093269829e-17)
(0.7843732696 0.002281097819 2.385583367e-17)
(0.5687654765 -0.08772809779 -7.545235217e-17)
(0.2123790482 -0.06410062781 -5.528898132e-17)
(0.9502697862 -0.04894600778 5.379813706e-18)
(0.5211216049 -0.03153240191 -4.460149789e-17)
(1.098525998 -0.02874728753 -3.518811319e-17)
(0.674864897 -0.01766794934 -6.963991907e-17)
(1.168975767 -0.01583530039 -9.788981932e-17)
(0.7499843446 -0.01116636658 1.7281488e-17)
(1.209245458 -0.00673308221 -5.384295484e-17)
(0.7795609608 -0.006862527709 3.669019393e-18)
(1.232843602 -0.000595088601 -3.571002934e-17)
(0.7827105772 -0.001689044206 6.599410977e-17)
(0.6076816062 -0.2586841447 4.665722526e-17)
(0.241000384 -0.1891043304 1.228676558e-16)
(0.9720673033 -0.1442807456 -5.057915885e-17)
(0.5353722697 -0.09320004437 1.797056611e-16)
(1.111312126 -0.08470004965 1.122779454e-16)
(0.6830905251 -0.05249440639 1.68614742e-17)
(1.175800853 -0.0465643448 3.18074197e-16)
(0.7555857751 -0.03352734463 -1.50725555e-16)
(1.211607378 -0.01965108402 1.726783603e-16)
(0.7837168163 -0.0209648324 -2.02441267e-16)
(1.231921432 -0.001636768513 2.970786188e-16)
(0.7851569751 -0.005455249978 -4.045967141e-16)
(0.6837831548 -0.4166599611 -4.658331824e-17)
(0.2966357662 -0.304684157 -1.718278223e-16)
(1.014393519 -0.2324681556 -6.823352418e-17)
(0.5626929892 -0.1501467743 -2.42278059e-16)
(1.136124868 -0.1365354017 -1.043179073e-16)
(0.6983146905 -0.08446022334 -1.712432378e-16)
(1.189586532 -0.07521924696 -1.917883357e-16)
(0.7650058691 -0.05376823148 -1.054883124e-16)
(1.217862073 -0.03205654566 2.536869152e-18)
(0.7890433128 -0.03347258577 4.098335269e-17)
(1.233419986 -0.003169570504 -7.727300433e-17)
(0.7853860197 -0.008650752109 1.329379832e-16)
(0.7929928066 -0.5537855962 2.304350346e-16)
(0.3766558911 -0.4048155807 1.327196123e-16)
(1.075338017 -0.3088719148 2.608512028e-16)
(0.6022967116 -0.1995634172 1.497721794e-18)
(1.171865319 -0.1813445206 4.756156545e-16)
(0.7208666727 -0.1124725623 -1.890826681e-16)
(1.209013665 -0.09972986089 5.638911754e-16)
(0.7798095864 -0.07193232072 -3.663494595e-16)
(1.225530163 -0.04212906218 4.524225641e-16)
(0.7989821975 -0.04514770699 -6.205470576e-16)
(1.232958314 -0.003570278442 6.246336804e-16)
(0.7893160228 -0.01205307819 -8.163534757e-16)
(0.9300589086 -0.6631324014 -4.406962828e-16)
(0.4769863155 -0.4848488234 -9.774164897e-17)
(1.151722492 -0.3700013609 -2.616984533e-16)
(0.6516723015 -0.2389425099 -6.196333579e-17)
(1.216694294 -0.2173499406 -3.276305327e-16)
(0.7484953699 -0.1344244088 -9.884108392e-17)
(1.233831381 -0.1198000489 -1.994652539e-16)
(0.7971281482 -0.08559336282 6.67295327e-17)
(1.23648223 -0.05114524381 -2.846739432e-16)
(0.8092951732 -0.05330185714 4.722274386e-16)
(1.23485988 -0.005230175875 -3.791573912e-16)
(0.7910645072 -0.01374123462 3.729731056e-16)
(1.087940234 -0.7392719239 3.101288081e-16)
(0.5925168077 -0.5402924366 -2.423727425e-18)
(1.239731571 -0.4123786287 3.410256199e-16)
(0.7087765301 -0.2663280694 -1.843995739e-16)
(1.268286195 -0.2421865341 5.587662254e-16)
(0.7809473496 -0.1500578784 -2.451881453e-16)
(1.261934395 -0.1332970552 5.052760822e-16)
(0.8183181418 -0.09592124155 -2.940353089e-16)
(1.247750829 -0.05645694984 4.961287357e-16)
(0.8232577532 -0.06019131258 -8.560097217e-16)
(1.234650348 -0.004988705546 9.296727146e-16)
(0.7959647325 -0.01610102988 -9.384215401e-16)
(1.258838975 -0.7783515518 -8.283767975e-17)
(0.7176696941 -0.5688889081 -1.085590837e-16)
(1.335068312 -0.4343280279 -4.4541333e-19)
(0.7703952418 -0.2803065685 8.256500809e-17)
(1.324295356 -0.2552152508 -3.235169014e-16)
(0.8154195972 -0.1576266648 3.724144751e-17)
(1.292972171 -0.1407959565 -2.36106298e-16)
(0.839937328 -0.1002825326 1.456435706e-16)
(1.261428826 -0.06028544369 -2.781418251e-16)
(0.8362696395 -0.06235642395 5.311192925e-16)
(1.236856589 -0.006442179987 -5.487833121e-16)
(0.7986204071 -0.01590497556 4.30167371e-16)
(1.434126284 -0.7784154202 -5.914163305e-18)
(0.8458102523 -0.5686942018 8.780396246e-17)
(1.432722485 -0.4343098739 -1.908527758e-16)
(0.8336886582 -0.2802671091 8.735036162e-17)
(1.381538771 -0.2551798731 8.695757864e-18)
(0.8513596843 -0.1578111201 4.789559671e-17)
(1.324193873 -0.1406084842 3.248733072e-18)
(0.8633601285 -0.1007591337 -1.014523408e-16)
(1.274041041 -0.05976881501 2.501104587e-16)
(0.851581955 -0.06314132292 -5.450528212e-16)
(1.236855799 -0.005572608497 5.730305285e-16)
(0.8036677536 -0.01681709331 -5.480612081e-16)
(1.605026475 -0.7394971235 -7.955860604e-18)
(0.9709784802 -0.5401696247 -2.652872613e-17)
(1.528126547 -0.4127137649 3.686050829e-16)
(0.8953121645 -0.2660581209 -2.253760652e-16)
(1.437633946 -0.2426358548 2.906143367e-16)
(0.8857934342 -0.1494872234 -2.271349095e-16)
(1.355321052 -0.134056769 1.604618754e-16)
(0.8849154301 -0.09493804303 -3.415580033e-17)
(1.287779439 -0.05769876941 -1.382145642e-16)
(0.864593819 -0.05882837852 3.908393155e-16)
(1.239015696 -0.006638637178 -3.961297002e-16)
(0.8065299009 -0.01464462709 4.45539674e-16)
(1.762996765 -0.6634553564 -9.568516987e-17)
(1.086355342 -0.4844027026 4.757179921e-17)
(1.616105939 -0.3703067865 -4.458229154e-16)
(0.9522665503 -0.2386359174 1.658509209e-16)
(1.48922523 -0.2177233131 -3.145448754e-16)
(0.9180999254 -0.1342337943 2.879640095e-16)
(1.383517835 -0.1201656752 -2.218412229e-16)
(0.9059246496 -0.08554782077 7.800896462e-17)
(1.299266349 -0.05133285981 2.183232933e-17)
(0.8782565704 -0.05348682653 -6.473056725e-17)
(1.239190732 -0.005119272476 5.900998572e-17)
(0.8108820004 -0.01413290895 -1.126611491e-16)
(1.900061596 -0.5542463098 4.807400271e-17)
(1.186725284 -0.4044125375 1.730891289e-17)
(1.692660493 -0.309428082 2.711403403e-16)
(1.001668202 -0.1990556414 1.563014879e-17)
(1.534273528 -0.1820717688 1.267405245e-16)
(0.9456611405 -0.1116707369 -5.223636965e-17)
(1.408561249 -0.1008536786 9.048352421e-17)
(0.9231267422 -0.07069132416 1.342565302e-17)
(1.310371372 -0.0438104246 -5.454247818e-17)
(0.8886180733 -0.04349160586 9.375730588e-17)
(1.240979824 -0.005702309304 -1.180547305e-16)
(0.8131736949 -0.01024892076 1.735954064e-16)
(2.009410249 -0.417143211 -5.830728917e-19)
(1.266512471 -0.304130606 4.486942365e-18)
(1.753552555 -0.2330201772 -2.496140703e-16)
(1.041025892 -0.1497109277 3.533651034e-17)
(1.570004821 -0.1371996333 -2.261650914e-16)
(0.9679471786 -0.08405610198 1.676641643e-16)
(1.428138757 -0.07596849241 -2.441192788e-16)
(0.9375778554 -0.05338478281 1.57271346e-16)
(1.318404766 -0.03277182071 -1.069631094e-16)
(0.8979973301 -0.03321486379 1.020250361e-16)
(1.241161131 -0.003699274751 -1.330485649e-16)
(0.8161809986 -0.00859418348 1.208134383e-16)
(2.085493253 -0.2592663136 3.014116766e-17)
(1.322189654 -0.1885442436 4.211426062e-17)
(1.796064479 -0.1449138347 1.257841744e-16)
(1.068410271 -0.09260584825 4.785859656e-17)
(1.595052702 -0.08548765128 8.334225672e-17)
(0.9831777368 -0.05171163723 1.20805332e-17)
(1.442121508 -0.04770249435 3.947194424e-17)
(0.9470189144 -0.03240543196 4.054778853e-17)
(1.324692045 -0.02128056598 -4.276578495e-17)
(0.9036158635 -0.01946232953 7.079574182e-17)
(1.2422986 -0.003712259203 -7.574108738e-17)
(0.8173132364 -0.00368496452 9.477096151e-17)
(2.124539424 -0.08824664839 -3.957838814e-17)
(1.350619506 -0.06360041047 -1.920981689e-17)
(1.817808676 -0.04961536535 -1.384531915e-16)
(1.082413178 -0.03113329353 1.371682229e-17)
(1.607838895 -0.02951619262 -1.53008639e-16)
(0.99107037 -0.01727589031 8.090290762e-17)
(1.44917055 -0.01669950513 -1.53179883e-16)
(0.9521056497 -0.0107369586 1.035449937e-16)
(1.327619344 -0.007659838962 -1.138857772e-16)
(0.9069368617 -0.006450105744 1.0986274e-16)
(1.242356895 -0.001492276558 -1.28622466e-16)
(0.8184937102 -0.001359008884 1.355909535e-16)
(2.124559663 0.08703487691 4.392696474e-17)
(1.350577052 0.06465162467 5.230039771e-17)
(1.817825934 0.04824931977 7.424397713e-17)
(1.082356363 0.03218210627 5.708494348e-17)
(1.607886765 0.0279906844 5.502858839e-17)
(0.9909592333 0.01848876466 4.358283792e-17)
(1.449279791 0.0148694711 2.689182538e-17)
(0.9519267478 0.01231408511 3.673001286e-17)
(1.327793547 0.005411494956 -1.404476539e-17)
(0.9067140002 0.008487887006 3.413148505e-17)
(1.242565293 -0.001100203199 -3.112298819e-17)
(0.8182669751 0.003743603665 3.938862973e-17)
(2.085547298 0.258100515 -6.41613263e-17)
(1.322046984 0.1895390608 -3.886683006e-17)
(1.796100961 0.1435950728 -9.898785795e-17)
(1.068265481 0.09359875877 -1.250206576e-17)
(1.595173692 0.08402404623 -1.525414812e-16)
(0.9829441798 0.05285192789 6.597905805e-17)
(1.442365618 0.04595548168 -1.820317342e-16)
(0.9467099006 0.03389310516 1.229182893e-16)
(1.324980787 0.01912357642 -1.408662473e-16)
(0.9033950194 0.02142191319 1.575285206e-16)
(1.2424325 0.00118602379 -1.838758273e-16)
(0.817435385 0.006047583305 2.234581969e-16)
(2.009480023 0.4160695254 5.41158392e-17)
(1.266314616 0.3050194685 6.563899817e-17)
(1.753598914 0.2317994835 6.402797365e-17)
(1.040797792 0.1505858305 8.1381802e-17)
(1.570183333 0.1358792544 7.046956266e-17)
(0.9675353753 0.08501984062 5.828917011e-17)
(1.428540527 0.07445334295 7.550218635e-17)
(0.9369747524 0.05460572632 2.191669361e-17)
(1.318960679 0.03095065906 2.42780105e-17)
(0.8974087386 0.0348263024 -4.938320043e-17)
(1.24162347 0.001574055878 6.104504433e-17)
(0.8159319824 0.01058174125 -6.824618281e-17)
(1.90012033 0.5532938966 -1.35760206e-16)
(1.186484307 0.4051519879 -4.18000835e-17)
(1.69267983 0.3083317203 -1.375968966e-16)
(1.001418338 0.1997856238 3.439702704e-17)
(1.534453608 0.1809124346 -2.364387257e-16)
(0.9452299556 0.1124515816 1.078608755e-16)
(1.408981259 0.09955101394 -2.620630792e-16)
(0.922538077 0.0716907689 1.754378701e-16)
(1.310887859 0.04221913729 -2.258755748e-16)
(0.8881768172 0.04491108076 3.169245248e-16)
(1.241227053 0.003740932399 -3.267916523e-16)
(0.8133363692 0.01218027797 4.023730415e-16)
(1.763008075 0.6626538394 2.062874254e-16)
(1.08613577 0.484968292 2.313157736e-17)
(1.616071986 0.3693728856 9.681767312e-17)
(0.9520121731 0.2391702607 -1.569793346e-17)
(1.489365449 0.2167968894 1.795315206e-16)
(0.9176059854 0.1347215161 9.516244692e-18)
(1.383940994 0.1192373177 1.221024697e-16)
(0.9052082088 0.08610532803 -1.001280842e-16)
(1.299844833 0.05028516553 2.078799835e-16)
(0.8776465092 0.05433180329 -3.461751105e-16)
(1.239547104 0.003808961836 2.969137113e-16)
(0.8108726783 0.01545270772 -3.116366072e-16)
(1.604957262 0.7388485488 -1.274138634e-16)
(0.9708065057 0.5405446628 1.664436948e-17)
(1.527995007 0.4119359019 -7.254055659e-17)
(0.8951392487 0.2664167883 9.413360882e-17)
(1.437664238 0.2419057387 -2.301165884e-16)
(0.8854383253 0.1497686727 8.730872129e-17)
(1.355579119 0.1333763349 -2.061401487e-16)
(0.8844349042 0.09525784633 1.251490609e-16)
(1.28807584 0.05690649907 -2.632035801e-16)
(0.8643566161 0.05947492358 5.355179222e-16)
(1.238932846 0.005498456514 -5.76988145e-16)
(0.8070409144 0.01590844516 5.745339808e-16)
(1.433936221 0.7779241936 -5.019404415e-17)
(0.8457509128 0.5688878462 4.039501252e-17)
(1.432463379 0.4337049663 -1.785225199e-16)
(0.8336064481 0.2804186077 -7.61303994e-17)
(1.381416288 0.2546874427 1.47670622e-16)
(0.8510838609 0.1577836508 -3.747760913e-17)
(1.324277348 0.1403035504 1.503657863e-16)
(0.8629540959 0.1006143289 -1.504810414e-16)
(1.274167359 0.05952774639 2.593126432e-16)
(0.8514062019 0.0631808086 -5.429786399e-16)
(1.236645492 0.005105157598 5.65950087e-16)
(0.8042098036 0.01743128197 -5.017192154e-16)
(1.258507851 0.7779910416 1.517014324e-16)
(0.7177436304 0.5689153369 -8.873336485e-17)
(1.334652561 0.4338563363 4.997278202e-16)
(0.7704881402 0.2803210711 -1.936710292e-16)
(1.323964326 0.2548766808 2.809505459e-16)
(0.8154216127 0.1574689977 -2.285033813e-16)
(1.292724922 0.1406592977 2.486089722e-16)
(0.8399601243 0.1000158041 -6.071942272e-17)
(1.261053562 0.06018440802 -7.912390744e-17)
(0.8366655882 0.06231963368 3.859687794e-16)
(1.236003268 0.006027862255 -4.016615622e-16)
(0.7997904507 0.01652761559 3.503358394e-16)
(1.087436487 0.7390260628 -5.672625885e-17)
(0.5927717252 0.5401876653 -2.348555488e-17)
(1.239134902 0.4120380605 -6.481547479e-16)
(0.7090329823 0.2661889951 2.701417662e-16)
(1.267723954 0.242010577 -5.239190123e-16)
(0.7811401584 0.1496767508 2.957068879e-16)
(1.261390366 0.133407033 -2.976812868e-16)
(0.8185709308 0.09531743979 4.498232085e-17)
(1.247049794 0.05673497496 1.566579186e-16)
(0.8238769759 0.05969449842 -5.246301115e-16)
(1.233525616 0.00507404738 5.274196969e-16)
(0.7972728508 0.01619593925 -6.13558092e-16)
(0.9293975061 0.6629527928 1.873062313e-16)
(0.4774150801 0.4846524658 -5.808013426e-17)
(1.150956587 0.3697306187 8.811681156e-16)
(0.6521423441 0.2387574636 -2.890608917e-16)
(1.215889425 0.2172273374 7.140059154e-16)
(0.7490176836 0.13405833 -5.960082066e-16)
(1.232892092 0.1199137783 5.650932564e-16)
(0.7978775284 0.08507323334 -2.919262082e-16)
(1.235197889 0.05134541278 1.335691363e-16)
(0.8105515117 0.05294177399 -7.540224746e-17)
(1.233027769 0.005159955422 1.2355536e-16)
(0.7930296987 0.0139677686 -1.839966158e-17)
(0.7921507162 0.5536510225 -1.262729857e-17)
(0.3772844451 0.4045711447 -4.384472215e-17)
(1.074382658 0.3086595354 -5.330486092e-16)
(0.6029520226 0.1993177444 -1.203009804e-16)
(1.170822949 0.181265457 -2.240605819e-16)
(0.721614061 0.1120307248 8.201276955e-17)
(1.207771336 0.09989100655 -1.737105324e-16)
(0.780829826 0.07129260475 -2.040053069e-17)
(1.223918681 0.04243720555 9.623712156e-17)
(0.8004831556 0.0445751209 -8.197436602e-17)
(1.230875485 0.00372180763 1.322789078e-16)
(0.79138763 0.01194587245 -2.14495655e-16)
(0.6828317892 0.4165167169 -1.559059109e-16)
(0.2974080637 0.3044416303 -2.871101189e-17)
(1.013321047 0.2322542988 4.849106852e-16)
(0.5635198877 0.1499562434 -9.246305003e-18)
(1.134895063 0.1363999743 4.60968175e-16)
(0.6993261753 0.08418053412 -3.778661935e-16)
(1.188019672 0.07521424007 5.873886488e-16)
(0.766427853 0.05341118824 -4.016300058e-16)
(1.215763953 0.03207695242 2.5198538e-16)
(0.791068293 0.0332397534 -2.868450741e-16)
(1.230748123 0.002977012555 3.877128225e-16)
(0.7880119913 0.008804491471 -3.669180726e-16)
(0.6065927516 0.2585196995 9.881591026e-17)