/*--------------------------------*- C++ -*----------------------------------*\
| =========                 |                                                 |
| \\      /  F ield         | foam-extend: Open Source CFD                    |
|  \\    /   O peration     | Version:  3.0                                   |
|   \\  /    A nd           | Web:         http://www.extend-project.de       |
|    \\/     M anipulation  |                                                 |
\*---------------------------------------------------------------------------*/
FoamFile
{
    version     2.0;
    format      ascii;
    class       volSymmTensorField;
    location    "13";
    object      sigma;
}
// * * * * * * * * * * * * * * * * * * * * * * * * * * * * * * * * * * * * * //

dimensions      [0 0 0 0 0 0 0];

internalField   nonuniform List<symmTensor> 
672
(
(-0.1693806629 -0.01017899983 -1.25440277e-19 0.1697891179 -2.553101655e-20 -0.0004084550373)
(-0.1558258086 -0.01187084725 -2.895434832e-19 0.1568484185 -1.532541696e-20 -0.001022609843)
(-0.13680976 -0.01174228865 -1.903932424e-19 0.1383401478 -5.607646733e-21 -0.001530387775)
(-0.1172071247 -0.01090944588 -7.934537501e-20 0.1191548478 2.241306439e-22 -0.001947723036)
(-0.09876641961 -0.009835385362 -3.127411664e-19 0.1010454728 -3.272666026e-20 -0.002279053152)
(-0.08201982894 -0.008723145212 -3.029255798e-19 0.08453600361 -1.475949752e-19 -0.002516174676)
(-0.06711122094 -0.007661633089 -4.701604917e-19 0.0697573821 -1.550454576e-19 -0.002646161163)
(-0.05407507893 -0.006700285728 -5.805205886e-19 0.05672024268 -4.20067116e-19 -0.002645163756)
(-0.04290430518 -0.005857073191 -6.033275239e-19 0.0453896217 -2.804457361e-19 -0.002485316521)
(-0.03372214079 -0.005160641612 -3.358118528e-19 0.03584837095 -1.367950994e-20 -0.002126230158)
(-0.02662834313 -0.004621518598 -1.019871126e-19 0.0281505074 1.250892911e-19 -0.001522164264)
(-0.02197394991 -0.004265874585 -3.713795587e-20 0.02258615117 -2.084647625e-19 -0.0006122012631)
(-0.1665170476 -0.03070871761 -1.037053367e-19 0.1669152254 7.376599279e-21 -0.0003981777518)
(-0.1510363039 -0.03529846501 -2.750108627e-19 0.1520333344 6.229637531e-20 -0.0009970304558)
(-0.1314668606 -0.03473357966 -2.219919064e-19 0.1329589975 1.485082216e-19 -0.001492136919)
(-0.1118925329 -0.03219696868 -4.66941853e-20 0.1137915073 -5.303233092e-20 -0.001898974424)
(-0.09372415176 -0.02900632369 -3.016271353e-19 0.09594601437 2.34681765e-20 -0.002221862613)
(-0.07733702305 -0.02573711721 -2.973934868e-19 0.07978981995 -2.494544521e-19 -0.002452796898)
(-0.06280280552 -0.0226406696 -5.627405124e-19 0.06538199553 -3.790544289e-19 -0.002579190008)
(-0.05011358019 -0.01985662564 -9.073047317e-19 0.05269141655 -5.775963242e-19 -0.002577836368)
(-0.03924550043 -0.01743579965 -4.956609548e-19 0.04166713382 -7.509099275e-20 -0.002421633387)
(-0.0303001778 -0.01546024288 -1.031353855e-19 0.03237149422 -1.114964635e-19 -0.002071316416)
(-0.02337108481 -0.01395945403 -3.395087824e-19 0.02485356403 -1.409590671e-19 -0.001482479219)
(-0.0187968426 -0.01301234118 -1.600271419e-19 0.01939286378 -1.704917892e-19 -0.0005960211806)
(-0.1608806014 -0.05047827931 -3.151890076e-20 0.1612634183 -5.236871707e-20 -0.0003828168858)
(-0.1418172209 -0.05688136377 -2.110359398e-19 0.1427757175 1.377894553e-19 -0.000958496611)
(-0.1212392587 -0.05549828783 -2.786754385e-19 0.1226735993 2.611574742e-19 -0.001434340664)
(-0.1017446571 -0.05118195727 -2.227038096e-19 0.1035698607 7.653159661e-20 -0.001825203662)
(-0.08410986509 -0.04593335397 -3.502954791e-19 0.08624510042 5.543061113e-20 -0.002135235325)
(-0.06841589205 -0.04061976825 -7.005705031e-19 0.07077264149 -1.694086101e-19 -0.002356749437)
(-0.05459901512 -0.03561735559 -1.021580126e-18 0.05707668499 -4.979328123e-20 -0.002477669871)
(-0.04257191802 -0.03113376035 -9.489349328e-19 0.04504768813 -7.684602607e-20 -0.002475770115)
(-0.03227943668 -0.02724382677 -3.327791878e-19 0.03460454669 1.139063913e-20 -0.002325110013)
(-0.02378252581 -0.02407226305 -5.100861232e-19 0.02577067967 -2.623439794e-19 -0.001988153861)
(-0.01716260615 -0.02166486815 -3.681682198e-19 0.01858507505 -2.490343103e-19 -0.001422468896)
(-0.01273425256 -0.02014870099 -6.470457306e-20 0.01330589277 -1.827468721e-19 -0.0005716402025)
(-0.1527040764 -0.06903571182 5.529085099e-20 0.1530664947 -5.436745688e-20 -0.0003624183202)
(-0.1288894787 -0.07559090919 -2.350971239e-20 0.129796864 1.656402959e-19 -0.0009073852819)
(-0.1070283335 -0.07280836732 -1.904685155e-19 0.1083860281 2.664028094e-19 -0.001357694655)
(-0.08771027018 -0.06660036314 -2.142377738e-19 0.08943764736 1.852504064e-19 -0.001727377183)
(-0.07085551342 -0.05938805239 -2.613583029e-19 0.07287586879 -4.046775618e-20 -0.002020355379)
(-0.0561488018 -0.05220646751 -4.75698585e-19 0.05837817967 1.045962442e-19 -0.002229377866)
(-0.04334445246 -0.04549881971 -6.460933574e-19 0.04568750749 3.647988175e-19 -0.002343055026)
(-0.03224854551 -0.03950655743 -1.313703023e-18 0.03458900457 3.413585902e-19 -0.002340459058)
(-0.02276389239 -0.03431500864 -7.212594445e-19 0.02496108161 1.195203706e-19 -0.002197189212)
(-0.01489641225 -0.03007497124 -8.982552708e-19 0.0167743944 6.202374118e-19 -0.001877982156)
(-0.008710905773 -0.02684438039 -7.367871795e-19 0.01005392504 2.280613706e-19 -0.001343019265)
(-0.00448832355 -0.02479094858 -1.860744923e-19 0.005027722423 2.802067026e-19 -0.0005393988733)
(-0.1423102623 -0.08600918795 -8.428661252e-22 0.1426475803 1.398152923e-19 -0.0003373180012)
(-0.1132366271 -0.09067673259 6.935977994e-20 0.1140810935 2.277075906e-19 -0.0008444663998)
(-0.09006136222 -0.08578832814 -1.784736336e-19 0.09132469712 3.195495567e-19 -0.001263334902)
(-0.07107758503 -0.07756073362 -3.154596198e-19 0.07268452445 1.55970668e-19 -0.001606939421)
(-0.05522872823 -0.06851014665 -4.375559017e-19 0.05710765272 -4.209246588e-21 -0.00187892449)
(-0.04174930044 -0.05968617878 -3.503083545e-19 0.04382187917 2.409985285e-19 -0.002072578732)
(-0.0301875405 -0.05152778964 -1.967279065e-19 0.03236490481 3.150051705e-19 -0.002177364305)
(-0.02022906869 -0.04426807399 -1.029365045e-18 0.02240302702 4.681199186e-19 -0.002173958328)
(-0.01172929322 -0.03798609856 -4.353095095e-19 0.01376913956 4.78406871e-19 -0.002039846341)
(-0.004631149415 -0.03283819863 3.730073057e-19 0.006373693977 4.238145548e-19 -0.001742544562)
(0.00102010534 -0.02888911572 -7.442959761e-19 0.0002253049866 4.596151219e-19 -0.001245410326)
(0.004984129798 -0.02633769187 -2.171052281e-19 -0.004484307424 2.262659292e-19 -0.0004998223743)
(-0.1300832208 -0.1011273371 1.411550262e-21 0.1303910728 1.78604555e-19 -0.0003078519621)
(-0.09600048777 -0.1017342816 1.020091788e-19 0.0967711001 3.039743332e-19 -0.0007706123305)
(-0.07175863464 -0.09400059641 5.287324505e-20 0.0729112239 2.359105957e-19 -0.001152589258)
(-0.05333544021 -0.08363424469 -3.569064317e-19 0.05480105445 1.538555359e-19 -0.001465614237)
(-0.03869338249 -0.07289652607 -2.281789859e-19 0.0404063839 -1.295724296e-19 -0.001713001412)
(-0.02661799123 -0.06268698193 -2.849369287e-19 0.0285066644 2.285595843e-19 -0.00188867317)
(-0.01645313445 -0.05336378316 4.086670191e-19 0.01843622524 2.429108487e-20 -0.001983090785)
(-0.007765473149 -0.04510641746 -4.326213782e-19 0.009744278937 6.487090047e-20 -0.001978805789)
(-0.0003637627173 -0.03796975559 -9.733313095e-19 0.00221927451 1.111512519e-19 -0.001855511793)
(0.005872604178 -0.03209349851 -2.233765311e-19 -0.004288648187 4.581462235e-19 -0.001583955991)
(0.01091891497 -0.02754334681 7.978700511e-19 -0.009787723252 -4.880400938e-21 -0.001131191715)
(0.01457932193 -0.02453860248 -3.783250666e-19 -0.01412576921 1.562565716e-20 -0.0004535527211)
(-0.1164347958 -0.1142291307 5.185551475e-20 0.1167092365 1.053383647e-19 -0.0002744406975)
(-0.07836064609 -0.1087338674 9.809333868e-20 0.07904752049 2.827240496e-19 -0.0006868744001)
(-0.05358008046 -0.09748160005 2.377644479e-19 0.05460712401 6.954319348e-20 -0.001027043553)
(-0.03601088665 -0.08489252245 -1.866228752e-19 0.03731632648 -1.171235558e-19 -0.001305439834)
(-0.02274888221 -0.07263839324 -7.191413477e-19 0.02427388528 -1.118972868e-19 -0.001525003072)
(-0.0121879918 -0.06131165658 -4.689069961e-19 0.01386836339 1.452897491e-19 -0.001680371583)
(-0.003495682803 -0.05111683204 -1.43190568e-19 0.005258816354 -5.668723312e-21 -0.001763133551)
(0.003863232712 -0.04213679392 4.280242887e-20 -0.002105278577 2.099064761e-19 -0.001757954135)
(0.01011964336 -0.03438517186 -1.598136183e-19 -0.008472636535 4.48206189e-19 -0.001647006824)
(0.01545072727 -0.02796379888 -5.189811971e-20 -0.01404605203 2.943839656e-19 -0.001404675244)
(0.01985136093 -0.02293360282 -4.637986603e-19 -0.01884921435 -2.068100389e-19 -0.001002146581)
(0.02317076717 -0.01952359324 -6.105792921e-20 -0.0227694523 4.77018756e-19 -0.0004013148674)
(-0.1017706108 -0.1252625228 2.734558638e-20 0.1020081605 1.146226576e-19 -0.000237549697)
(-0.06141156634 -0.1120087365 1.249740671e-19 0.06200599609 1.86036116e-19 -0.000594429753)
(-0.03686887925 -0.09672562501 1.14783954e-19 0.0377573563 3.309726341e-20 -0.0008884770439)
(-0.02050365125 -0.08189014136 -1.433292111e-20 0.02163236086 -9.020458739e-20 -0.001128709604)
(-0.008766377311 -0.06830373543 -6.503901348e-19 0.01008403152 2.116609887e-19 -0.001317654204)
(0.0002325521893 -0.05612065991 -7.215678643e-19 0.001218181247 2.302637066e-19 -0.001450733436)
(0.00745041774 -0.04533120577 -7.869915445e-19 -0.00592964558 4.888190411e-19 -0.001520772159)
(0.01349304331 -0.03588596541 -1.28454333e-19 -0.01197829854 4.426070502e-19 -0.001514744767)
(0.01861831137 -0.02774324482 -2.555078503e-19 -0.0172007712 4.576938148e-19 -0.001417540169)
(0.02304613435 -0.02094913292 -2.534288958e-19 -0.02183863141 7.191202061e-19 -0.001207502948)
(0.02678823592 -0.01555481112 4.980488524e-19 -0.02592790348 5.371835015e-19 -0.0008603324464)
(0.02973636486 -0.01178915582 -1.821990998e-19 -0.02939240063 2.380771921e-19 -0.0003439642347)
(-0.08645851949 -0.1342724235 -5.542300401e-20 0.08665621486 1.50523312e-19 -0.0001976953675)
(-0.04605083362 -0.1122035558 1.367080409e-19 0.04654540854 1.163365217e-19 -0.0004945749195)
(-0.02270944491 -0.09261818953 1.559666566e-19 0.02344828963 -3.445979709e-20 -0.0007388447113)
(-0.007935854685 -0.07559362476 -1.395605753e-19 0.008873791171 1.813212514e-19 -0.0009379364861)
(0.002159887228 -0.06086679183 7.796631299e-20 -0.001065956318 2.432989937e-19 -0.00109393091)
(0.009603387918 -0.04806412576 -5.729862271e-19 -0.008400297875 3.899124413e-19 -0.001203090042)
(0.01540659619 -0.03692065465 -3.138434598e-19 -0.01414703537 4.329412942e-19 -0.001259560822)
(0.02020381136 -0.02723071324 -3.372587115e-19 -0.01895102506 6.009863501e-19 -0.001252786307)
(0.02426284719 -0.01888788727 3.742357737e-19 -0.02309229843 9.654726337e-19 -0.001170548764)
(0.02782714606 -0.01187011044 7.411013077e-19 -0.02683172381 3.918098441e-19 -0.0009954222537)
(0.03092107564 -0.006215114487 3.20386928e-19 -0.03021317326 -2.042666092e-19 -0.0007079023854)
(0.0334737781 -0.002143635563 3.352651847e-19 -0.03319140928 -6.032869396e-20 -0.0002823688149)
(-0.070803548 -0.1413794674 -1.339789606e-19 0.07095897581 1.239102325e-19 -0.0001554278068)
(-0.03289107015 -0.110189307 -4.190891597e-20 0.03327976358 6.267200275e-20 -0.0003886934318)
(-0.01181566362 -0.08632658451 -2.786514802e-19 0.01239589755 1.493784288e-19 -0.0005802339358)
(0.0009661637458 -0.06726506535 -1.463633093e-19 -0.000230358719 3.177270684e-19 -0.0007358050268)
(0.009329439363 -0.05159261511 1.134101681e-20 -0.008472424734 3.802045178e-19 -0.0008570146283)
(0.01526449562 -0.03837065441 2.729478772e-19 -0.01432349259 3.143366604e-19 -0.0009410030216)
(0.01975685075 -0.02706260254 -1.48168275e-19 -0.01877354676 2.113690746e-19 -0.0009833039844)
(0.02342055745 -0.01729730145 1.119275019e-19 -0.02244461522 5.984023024e-19 -0.0009759422377)
(0.02651367374 -0.008900151324 8.479787646e-19 -0.02560394347 3.685404042e-19 -0.0009097302764)
(0.02928064816 -0.001775453445 8.743643213e-19 -0.0285089952 -4.286538934e-19 -0.0007716529564)
(0.03175335005 0.004054540178 -9.170584366e-20 -0.03120613059 -2.45194305e-19 -0.0005472194658)
(0.03389132637 0.008382734375 2.106214571e-19 -0.03367381517 -8.139393463e-20 -0.0002175112059)
(-0.05503133907 -0.1467521381 -9.202361785e-20 0.05514266051 4.939062316e-20 -0.0001113214363)
(-0.02220515976 -0.1069542346 -9.117972253e-20 0.02248339055 5.136150766e-20 -0.000278230783)
(-0.004461794673 -0.07915992487 -1.533388317e-19 0.004876617232 1.728871827e-19 -0.0004148225587)
(0.005944745384 -0.05831344187 -1.50282381e-20 -0.005419634661 2.348808366e-19 -0.0005251107227)
(0.0125075582 -0.04188962975 -1.36839589e-19 -0.0118973488 3.72292829e-19 -0.0006102094009)
(0.01700521571 -0.02840530482 3.282475004e-19 -0.01633705361 2.497102702e-19 -0.0006681620987)
(0.02031336583 -0.01706302589 8.48033264e-20 -0.01961743689 2.201467778e-19 -0.0006959289449)
(0.02297572833 -0.007333103745 3.530594596e-19 -0.02228753983 2.911609188e-19 -0.0006881885007)
(0.02522035048 0.001024205806 4.205601489e-19 -0.02458148798 -7.994826785e-20 -0.0006388624965)
(0.02726933983 0.008176045614 5.412107274e-20 -0.02672987737 -2.880683209e-19 -0.0005394624511)
(0.02915655725 0.01411580856 -1.287905372e-19 -0.02877592418 -2.956038096e-20 -0.0003806330689)
(0.03086412707 0.01865265423 -1.504781214e-20 -0.03071379261 -2.699027397e-20 -0.0001503344561)
(-0.03928222953 -0.1505757265 7.45825095e-20 0.03934820065 -2.985766555e-20 -6.597111553e-05)
(-0.01391079391 -0.103483343 -7.237062381e-20 0.01407547314 -3.650139234e-21 -0.0001646792277)
(-0.0004636129349 -0.07241464483 -2.25775749e-19 0.0007084691394 1.211215376e-19 -0.0002448562045)
(0.00723053076 -0.05013053158 -2.696543425e-19 -0.006921798715 2.317912862e-19 -0.0003087320452)
(0.01194450051 -0.03314695765 -1.808966956e-19 -0.01158758769 3.562598324e-19 -0.0003569128177)
(0.0150826146 -0.01951292709 1.360730401e-19 -0.01469426045 2.223827714e-19 -0.0003883541492)
(0.01733390247 -0.008207403688 -2.852894291e-19 -0.01693244172 3.259496367e-19 -0.0004014607516)
(0.01912566653 0.001435024817 5.123915815e-19 -0.01873207325 2.861827464e-19 -0.0003935932846)
(0.02063730008 0.009709823556 3.209578282e-19 -0.02027548305 -1.246152937e-19 -0.0003618170332)
(0.02204693344 0.01684586621 -1.128325853e-19 -0.02174472627 -3.147084016e-19 -0.0003022071716)
(0.0233852053 0.02285049 -6.541123904e-19 -0.02317461314 -2.616612717e-20 -0.0002105921548)
(0.02464909007 0.02754879059 1.607678277e-19 -0.02456724062 6.787135518e-22 -8.184944964e-05)
(-0.02361599665 -0.1530215305 5.709278247e-20 0.02363597154 -2.504809457e-20 -1.997488966e-05)
(-0.007595880153 -0.1006399872 -6.445928887e-20 0.007645422977 -6.072768796e-21 -4.954282352e-05)
(0.0007881622294 -0.06722277718 -2.013611314e-19 -0.0007155665033 1.003552925e-19 -7.259572614e-05)
(0.00550659396 -0.04392981968 -1.702805007e-19 -0.005417031942 2.09490418e-19 -8.956201781e-05)
(0.008339724928 -0.02657472463 -4.429843788e-20 -0.00823919345 2.954435383e-19 -0.0001005314777)
(0.01018689607 -0.01286437593 1.366220378e-20 -0.01008152837 2.598469117e-19 -0.0001053676991)
(0.01148879026 -0.001614395441 -6.94995428e-21 -0.01138487538 3.068633482e-19 -0.000103914881)
(0.01251920371 0.007939787635 2.432666463e-19 -0.01242299983 1.621223974e-19 -9.620388097e-05)
(0.01339382853 0.01613439659 -7.811502982e-20 -0.01331140213 -8.257113549e-20 -8.242640294e-05)
(0.01422929868 0.02324376587 -1.893796812e-19 -0.01416610954 -1.931627695e-19 -6.31891326e-05)
(0.01504869212 0.02928584079 -5.350633925e-19 -0.01500922299 -3.965101712e-20 -3.946912973e-05)
(0.01585725005 0.03409870248 -3.796425298e-20 -0.01584423968 -2.036515426e-20 -1.301036436e-05)
(-0.008026720076 -0.1542201536 5.202640708e-20 0.00800065479 -9.720847919e-21 2.606528642e-05)
(-0.002581705232 -0.0990630406 -4.958743274e-20 0.002516033251 1.060570949e-20 6.567198138e-05)
(0.000246189202 -0.06442020359 -1.978224074e-19 -0.0003458887054 8.150892343e-20 9.969950348e-05)
(0.001821400588 -0.04060660443 -6.272925827e-20 -0.001950916046 1.687656281e-19 0.0001295154582)
(0.002755433984 -0.02306537246 -7.74677121e-20 -0.002910981703 2.506002835e-19 0.0001555477197)
(0.003358022081 -0.009322929367 -5.687150422e-22 -0.003535065278 2.56514318e-19 0.0001770431963)
(0.00378153493 0.001891278903 1.746252492e-20 -0.003974277927 2.696148406e-19 0.0001927429975)
(0.004122181079 0.01139428501 -6.6542828e-20 -0.00432217824 1.629521024e-19 0.0001999971606)
(0.004422137311 0.01954401394 -1.80271609e-19 -0.004617685251 -1.499990304e-20 0.0001955479397)
(0.004725051985 0.02663913492 -3.16150901e-19 -0.004899406609 -1.16663754e-19 0.0001743546238)
(0.005043486827 0.03270362292 -3.683408215e-19 -0.005173887072 -3.974633063e-20 0.0001304002445)
(0.005386272997 0.0375835404 -1.112642551e-19 -0.005441506076 -3.228727343e-20 5.523307878e-05)
(0.00753432051 -0.1542417245 4.937056392e-20 -0.00760588294 6.314725301e-21 7.156243024e-05)
(0.001983384116 -0.09909118447 -2.798403746e-20 -0.002162876157 2.993564211e-20 0.0001794920412)
(-0.0009142208576 -0.06444967146 -1.768279079e-19 0.0006443981696 6.136915412e-20 0.000269822688)
(-0.002539663837 -0.04063502664 2.072396309e-20 0.00219397496 1.316275699e-19 0.0003456888763)
(-0.003510954212 -0.02309157015 -3.540900449e-20 0.003102922884 2.147084178e-19 0.0004080313282)
(-0.004137200729 -0.009345951615 -5.843607627e-21 0.003681963662 2.331434925e-19 0.0004552370669)
(-0.004568199306 0.001872438401 -1.818668864e-20 0.004083521909 2.666804192e-19 0.0004846773964)
(-0.004893771994 0.01138100982 -1.505859062e-19 0.00440260333 1.891246443e-19 0.0004911686643)
(-0.005148795272 0.01953814061 -3.357953196e-19 0.00468030481 2.307207665e-20 0.0004684904621)
(-0.005366781403 0.02664310104 -4.007853794e-19 0.00495945501 -6.749011637e-20 0.0004073263934)
(-0.005546943416 0.03272062938 -2.545663525e-19 0.005250147721 -9.997335297e-21 0.0002967956955)
(-0.005679025764 0.0376185687 -1.685081004e-19 0.005557038166 -5.439859289e-20 0.0001219875981)
(0.02313053584 -0.1530855454 5.959024043e-20 -0.0232464783 1.677897508e-20 0.0001159424554)
(0.007010610658 -0.1007229015 4.817919932e-21 -0.007301094746 3.884824873e-20 0.0002904840886)
(-0.001441007109 -0.06730951199 -1.145418997e-19 0.001005374469 5.112885969e-20 0.0004356326398)
(-0.006209493786 -0.04401359047 5.397679241e-20 0.005653255143 9.510210126e-20 0.0005562386429)
(-0.009080815374 -0.02665217405 7.092948014e-20 0.008427071379 1.868647131e-19 0.0006537439952)
(-0.01095355623 -0.01293280376 2.105157657e-20 0.01022783929 1.969543119e-19 0.0007257169459)
(-0.01226589292 -0.0016709347 1.048787301e-19 0.01149767292 2.783763907e-19 0.0007682199969)
(-0.01328557843 0.007899091714 -3.835189135e-19 0.01251192429 2.094028617e-19 0.0007736541357)
(-0.01412141162 0.01611481322 -4.114966554e-19 0.01338843617 2.996232029e-20 0.0007329754472)
(-0.01488048351 0.02325229013 -3.066250973e-19 0.01424768004 -2.115668427e-20 0.0006328034745)
(-0.01557319332 0.02933168274 -1.983616664e-19 0.01511556131 5.940582828e-20 0.0004576320074)
(-0.01618727061 0.03419616918 -3.484268698e-19 0.01600085333 -8.967176301e-20 0.000186417286)
(0.03881012065 -0.1506801788 6.660020858e-20 -0.0389687814 1.241994078e-20 0.0001586607493)
(0.01335056853 -0.1036166705 4.790847296e-20 -0.01374785377 1.792053207e-20 0.0003972852354)
(-0.0001600201917 -0.07255384735 5.446779342e-20 -0.0004350762069 6.573956387e-20 0.0005950963986)
(-0.007903757173 -0.05026534592 -3.762824849e-20 0.007145168477 6.010439913e-20 0.000758588696)
(-0.01265756202 -0.03327236513 1.618909906e-19 0.01176787441 1.568727671e-19 0.0008896876144)
(-0.01582474457 -0.01962491629 -8.064064911e-20 0.01483955232 1.620087831e-19 0.0009851922486)
(-0.01809196132 -0.008301689241 -4.853282462e-20 0.01705202813 2.579606634e-19 0.001039933191)
(-0.01988112343 0.00136440557 -4.638022069e-19 0.018837083 1.84319356e-19 0.001044040426)
(-0.02136550905 0.00967087077 -2.070835332e-19 0.02037968985 8.185903441e-20 0.0009858192018)
(-0.02271483279 0.01684922413 -4.440217148e-19 0.02186675141 9.979999335e-20 0.0008480813795)
(-0.02394834299 0.02291025518 -2.929146179e-19 0.02333735757 9.113938658e-20 0.0006109854208)
(-0.02504848937 0.02768681693 -3.239439526e-19 0.02480073512 -1.179124539e-19 0.0002477542532)
(0.05457805783 -0.1468940593 -5.201750411e-20 -0.05477725799 -5.940460439e-20 0.0001992001581)
(0.02167999287 -0.1071313172 1.141081935e-19 -0.02217860046 -5.403696646e-20 0.0004986075895)
(0.003879209506 -0.07934421363 1.867918135e-19 -0.004625508 3.783215474e-20 0.0007462984934)
(-0.006575985545 -0.05849264671 1.140834995e-19 0.005625665678 5.054110863e-20 0.0009503198667)
(-0.01318057504 -0.04205787514 1.851040193e-19 0.01206751841 7.786432539e-20 0.001113056633)
(-0.01771177891 -0.02855794849 3.923625697e-20 0.01648118246 -4.212548126e-20 0.00123059645)
(-0.02104306752 -0.01719504772 5.303496342e-19 0.0197464409 1.67992241e-19 0.001296626622)
(-0.02371366661 -0.007437404611 -9.094366927e-20 0.02241449141 3.650016963e-19 0.001299175199)
(-0.02594659358 0.0009572763892 -2.197229596e-19 0.02472249843 1.671935981e-19 0.001224095145)
(-0.02795709008 0.008159377128 -1.192346621e-19 0.02690640271 1.979568788e-19 0.001050687374)
(-0.02976943091 0.01416664587 -8.025322084e-20 0.029014321 2.798437546e-19 0.0007551099075)
(-0.03135526402 0.0187976337 -3.73939604e-19 0.03104995792 -7.83680927e-20 0.0003053060941)
(0.07037338512 -0.1415553531 -1.06235825e-19 -0.07061046857 -1.19182472e-19 0.0002370834458)
(0.03240836412 -0.1104019948 9.962935755e-20 -0.03300162505 -1.508229918e-19 0.0005932609306)
(0.01128303972 -0.08654684518 2.484424243e-19 -0.01217051193 2.965712934e-22 0.0008874722079)
(-0.00154578746 -0.06748039213 1.142571861e-19 0.0004165799864 6.028913235e-20 0.001129207474)
(-0.009952534977 -0.05179728487 -5.526795698e-21 0.008631253469 1.69652182e-20 0.001321281507)
(-0.01592578633 -0.03856024071 -2.516365738e-20 0.01446665239 -2.274025069e-19 0.001459133931)
(-0.02044913237 -0.02723220578 4.97679853e-19 0.01891372397 -1.202669437e-19 0.001535408401)
(-0.02413318968 -0.01743976386 2.417516137e-19 0.02259697188 2.890446414e-19 0.001536217798)
(-0.02723228394 -0.009005514809 -9.848999751e-20 0.02578709968 -1.34760126e-20 0.00144518426)
(-0.02998582683 -0.001830309255 4.470267319e-19 0.02874740401 -1.561133678e-19 0.001238422823)
(-0.03241827232 0.004068429483 3.855952465e-19 0.03152981072 4.32543928e-19 0.0008884616018)
(-0.03448340491 0.008493408788 -1.006869496e-19 0.03412493852 1.042500502e-19 0.0003584663913)
(0.08605459907 -0.1344787553 3.435537576e-20 -0.08632647112 -8.400777066e-20 0.0002718720499)
(0.04561508001 -0.1124431629 1.160424622e-19 -0.04629523599 -2.302480617e-19 0.0006801559782)
(0.0222323659 -0.09286458118 4.089942606e-19 -0.02324937139 -5.911130585e-20 0.001017005488)
(0.007414375238 -0.07583605376 1.745204578e-19 -0.008707603859 6.353786469e-20 0.001293228621)
(-0.002725698075 -0.06110079422 5.484788411e-20 0.001213663437 -4.408615129e-20 0.001512034638)
(-0.01021131036 -0.0482864147 -5.933521847e-20 0.008543027132 -2.781167623e-19 0.00166828323)
(-0.01605278215 -0.03712738287 3.051790752e-19 0.01429910054 -5.047429939e-19 0.00175368161)
(-0.02088209624 -0.02741583208 3.810215238e-19 0.01912946639 5.084832571e-20 0.001752629851)
(-0.02496474073 -0.01904258431 -3.734814405e-20 0.02331798352 3.762159031e-19 0.001646757214)
(-0.02854105231 -0.01198231778 -2.155933695e-19 0.0271317091 -1.901778887e-19 0.001409343215)
(-0.03163035492 -0.00626792976 5.324560064e-19 0.03062067087 -1.842667619e-19 0.001009684048)
(-0.03416087803 -0.002111257023 -3.2697522e-19 0.03375417412 9.125518635e-20 0.0004067039056)
(0.1013950748 -0.1254961658 -6.466938892e-22 -0.1016982487 -1.583690151e-19 0.0003031738395)
(0.06102444052 -0.1122669837 1.090757429e-19 -0.06178275904 -2.688988059e-19 0.0007583185229)
(0.03644961717 -0.09698861157 2.194035823e-19 -0.03758307725 -2.869698947e-19 0.001133460082)
(0.02004370931 -0.08215080059 2.122879955e-19 -0.02148429419 3.049517483e-20 0.001440584882)
(0.008262638283 -0.06855995045 -2.8632842e-19 -0.009945894787 1.250445128e-20 0.001683256503)
(-0.0007807043182 -0.05637117809 -1.133479979e-19 -0.001075121564 -1.18711315e-19 0.001855825882)
(-0.00804230542 -0.04557414077 -3.647497168e-19 0.006093128198 -5.594087121e-19 0.001949177222)
(-0.01412676502 -0.03611749988 2.965127778e-19 0.01218055454 -5.454829808e-19 0.001946210476)
(-0.01929103433 -0.02795711754 5.886971041e-19 0.01746422181 -1.694573665e-19 0.001826812525)
(-0.02375379894 -0.02113639307 6.201776323e-19 0.02219200624 3.181526506e-19 0.001561792702)
(-0.02752410935 -0.01570213422 -3.095792997e-19 0.02640647605 3.130979076e-19 0.001117633307)
(-0.03049734663 -0.01187642628 2.703184079e-19 0.03004776864 1.127906222e-19 0.0004495779883)
(0.1160892384 -0.1144876176 -4.742638598e-20 -0.1164198814 -2.376333228e-19 0.0003306430468)
(0.07802143301 -0.1090037039 9.170353706e-20 -0.07884832508 -2.702686601e-19 0.0008268920752)
(0.05321795233 -0.09775287978 -2.838505017e-20 -0.05445352768 -3.967931431e-19 0.001235575348)
(0.03561298703 -0.08516351577 8.961739223e-20 -0.03718269278 -3.622756182e-19 0.001569705748)
(0.02230954227 -0.07291027392 3.542329144e-19 -0.02414269868 1.479430153e-19 0.001833156403)
(0.01170429049 -0.0615859734 1.128404956e-19 -0.01372413305 1.976181781e-19 0.002019842557)
(0.002965627482 -0.05139444085 8.981276787e-20 -0.005085570413 2.645961099e-20 0.002119942931)
(-0.004441385369 -0.04241705836 4.286098304e-19 0.002326307849 -4.023545476e-19 0.00211507752)
(-0.01074798831 -0.03466557193 6.375613454e-19 0.008764338413 -3.379744007e-21 0.0019836499)
(-0.0161317902 -0.02823998236 6.36668901e-19 0.01443741466 1.200908083e-19 0.001694375535)
(-0.02058720032 -0.02319770839 9.441523836e-19 0.01937584656 -6.817568477e-20 0.001211353763)
(-0.02397083973 -0.01976407779 2.063288903e-19 0.02348411658 4.504935896e-19 0.0004867231503)
(0.1297690988 -0.1014088988 -1.369098784e-20 -0.1301230823 -1.768786365e-19 0.0003539834637)
(0.09570676784 -0.1020104287 6.904334777e-21 -0.09659191177 -3.058378386e-19 0.0008851439315)
(0.0714506815 -0.09427378204 -1.418154103e-19 -0.07277295744 -4.583052054e-19 0.001322275945)
(0.05299775368 -0.08390926632 1.858159229e-20 -0.05467701059 -5.90110158e-19 0.00167925691)
(0.03831868551 -0.07317854006 6.359101917e-19 -0.04027890627 -4.142810676e-19 0.001960220759)
(0.02620183726 -0.06298088482 4.704056743e-19 -0.0283605584 1.667538564e-19 0.002158721139)
(0.01599163071 -0.05367373703 5.102537445e-19 -0.01825598182 2.672354377e-20 0.002264351107)
(0.007254172421 -0.04543563517 4.868199196e-19 -0.009511847628 -2.283485907e-19 0.002257675207)
(-0.0002031954722 -0.03832030141 1.372232082e-18 -0.001912681563 -4.165975967e-19 0.002115877036)
(-0.006502845126 -0.03246663961 1.007455345e-18 0.004696885594 1.470851704e-19 0.001805959532)
(-0.01162148289 -0.02793801108 -5.162703961e-19 0.01033140551 -3.92792926e-19 0.001290077386)
(-0.01537333995 -0.02495379651 2.065285429e-19 0.01485549114 -2.587623938e-20 0.0005178488085)
(0.1420294049 -0.08631256103 2.107809544e-20 -0.1424023547 1.131485093e-20 0.0003729497942)
(0.1129851088 -0.09095593598 -1.613165853e-19 -0.1139175768 -1.7144698e-19 0.0009324680312)
(0.08980320396 -0.08605934143 -3.132253075e-19 -0.09119587916 -4.020603826e-19 0.001392675197)
(0.07079666599 -0.07783546669 1.112122232e-19 -0.07256480879 -4.390120408e-19 0.001768142805)
(0.05491731483 -0.06879808625 2.270545312e-19 -0.05698052853 -9.303956796e-19 0.002063213698)
(0.04140237757 -0.05999582356 7.183936919e-19 -0.04367353151 -3.690318856e-19 0.002271153931)
(0.02980026646 -0.05186688249 2.868199879e-21 -0.03218135872 -4.476627235e-19 0.002381092263)
(0.01979546436 -0.04464397569 7.236965076e-19 -0.02216822822 -3.756328663e-19 0.002372763862)
(0.01124118328 -0.03840584642 4.551090628e-19 -0.01346358148 -7.362288224e-19 0.002222398205)
(0.004077669159 -0.03330910878 -6.933830163e-19 -0.005973336673 -8.337569989e-19 0.001895667514)
(-0.001652709853 -0.02941751464 -7.118533096e-19 0.0002994876834 -3.791671663e-19 0.00135322217)
(-0.005721064497 -0.02693395969 2.739783161e-22 0.005178321686 -4.178105038e-19 0.0005427428111)
(0.152458922 -0.06935977678 2.192804521e-20 -0.1528462689 1.564887983e-19 0.0003873468958)
(0.1286768125 -0.07587184781 -1.605526617e-19 -0.1296451968 -3.963083404e-20 0.0009683842561)
(0.1068150911 -0.07307549376 -1.022514737e-19 -0.1082611644 -1.564679246e-19 0.001446073232)
(0.08748185624 -0.06687258511 -6.097855686e-20 -0.08931735903 -4.046640766e-19 0.001835502795)
(0.07060499383 -0.05967913313 -2.915517929e-21 -0.0727461637 -6.355649494e-19 0.002141169867)
(0.05587161685 -0.05252843188 1.605372329e-19 -0.05822774357 -8.506848561e-19 0.002356126722)
(0.04303585681 -0.04586292663 2.340225441e-20 -0.04550501565 -7.956035477e-19 0.002469158839)
(0.03190229421 -0.03992420355 3.794301821e-19 -0.03436169252 -3.986184968e-19 0.002459398317)
(0.02237108669 -0.03479807653 -5.980940488e-19 -0.02467347196 -5.041408942e-19 0.002302385263)
(0.01444494595 -0.03063661623 -9.752480769e-19 -0.01640778743 -5.376803225e-19 0.001962841473)
(0.008184808823 -0.02749814458 -2.468760843e-19 -0.009585161125 -5.795684085e-19 0.001400352302)
(0.003860139478 -0.02555819447 1.128666629e-19 -0.004421382815 5.365595957e-21 0.0005612433367)
(0.1606743871 -0.05082151802 -5.847300868e-20 -0.1610714198 8.940840941e-20 0.0003970326536)
(0.1416407295 -0.05716427991 -2.928615629e-19 -0.1426332718 -2.959114244e-20 0.0009925422413)
(0.1210664169 -0.05576192767 -3.250422908e-19 -0.1225483783 -1.71115249e-19 0.001481961402)
(0.101564464 -0.05145139954 -2.669217143e-19 -0.1034451793 -3.132371897e-19 0.001880715279)
(0.08391739945 -0.04622617421 -5.249209734e-21 -0.08611079789 -3.04623233e-19 0.002193398445)
(0.06820803924 -0.04095107843 -2.020652706e-19 -0.07062096128 -5.616235412e-19 0.002412922035)
(0.05437214259 -0.03600150914 -1.43521771e-19 -0.05689999182 -5.433698632e-19 0.002527849235)