/*--------------------------------*- C++ -*----------------------------------*\
| =========                 |                                                 |
| \\      /  F ield         | foam-extend: Open Source CFD                    |
|  \\    /   O peration     | Version:  3.0                                   |
|   \\  /    A nd           | Web:         http://www.extend-project.de       |
|    \\/     M anipulation  |                                                 |
\*---------------------------------------------------------------------------*/
FoamFile
{
    version     2.0;
    format      ascii;
    class       volVectorField;
    location    "13";
    object      u;
}
// * * * * * * * * * * * * * * * * * * * * * * * * * * * * * * * * * * * * * //

dimensions      [0 0 0 0 0 0 0];

internalField   nonuniform List<vector> 
672
(
(0.2419230785 -0.09566624309 6.160306067e-19)
(0.4906018159 -0.06805915493 3.619570466e-18)
(0.6656606291 -0.05027784476 1.166381682e-17)
(0.7678598418 -0.03778587579 -5.061750733e-18)
(0.8515076449 -0.02914063649 5.664759543e-18)
(0.8972223641 -0.02273231887 2.335809456e-18)
(0.9421726683 -0.01785968092 2.720855842e-18)
(0.9611955313 -0.01415237791 -1.039457472e-18)
(0.9868117566 -0.01089814071 6.180257399e-18)
(0.9904056157 -0.008470794531 9.484326413e-18)
(1.004779751 -0.005893102953 -2.698901999e-18)
(0.9974574958 -0.003715226003 1.805592662e-18)
(0.2836066462 -0.2770840684 -8.59049061e-19)
(0.5200447485 -0.19615276 3.801227186e-18)
(0.6872133201 -0.1439020348 1.314942001e-17)
(0.783870761 -0.1071986619 -6.172329254e-18)
(0.8636679973 -0.08168180677 -1.127073627e-18)
(0.9065287199 -0.06275594477 -2.884636235e-18)
(0.9492956189 -0.04826314203 -1.860725348e-17)
(0.9666556123 -0.03720617879 1.197122759e-17)
(0.9908011875 -0.02741289101 1.056532104e-17)
(0.9932930978 -0.02004722835 -4.101733748e-18)
(1.00648499 -0.01214775997 -1.059955723e-17)
(0.9981716312 -0.00549072474 2.141872775e-17)
(0.3646075323 -0.4446814433 -6.276451001e-18)
(0.5772549602 -0.3144829347 2.99587971e-18)
(0.7290557373 -0.2303888767 4.721712983e-18)
(0.8149227545 -0.1713142993 1.160961305e-17)
(0.8872093578 -0.130207189 -5.706252061e-18)
(0.9245030067 -0.09971296826 1.525251625e-17)
(0.9629998145 -0.0763282777 1.524228382e-17)
(0.9771048875 -0.05847690696 3.340923981e-17)
(0.9983619075 -0.04263723799 -8.305402392e-18)
(0.9986831964 -0.0307029013 1.248598634e-17)
(1.009539295 -0.01787880349 -4.242240037e-18)
(0.9992665404 -0.007077189162 1.34419597e-17)
(0.4808692089 -0.5900539524 5.0696414e-18)
(0.659358449 -0.4171196703 -2.25638999e-18)
(0.7890910592 -0.3053993938 -2.876394154e-18)
(0.8594591291 -0.2269176916 1.491992826e-18)
(0.9209555088 -0.1722824107 -1.492216508e-17)
(0.9502469311 -0.1317499028 9.745520398e-18)
(0.9826036697 -0.1006462671 -2.464086951e-17)
(0.9920233825 -0.07689621653 2.099907227e-17)
(1.009120769 -0.05580473121 6.751372621e-18)
(1.006309264 -0.03990078914 2.728079092e-17)
(1.013794694 -0.02279571466 3.086420616e-18)
(1.000690442 -0.008391845913 4.333985482e-17)
(0.6265602219 -0.705908752 1.941290812e-17)
(0.7622392485 -0.4989128985 2.720155036e-18)
(0.8643089766 -0.3651729574 5.981602383e-19)
(0.915248975 -0.2712197378 4.03660662e-18)
(0.9632144194 -0.2057982612 5.402041858e-18)
(0.9824713732 -0.1572600159 1.92590394e-17)
(1.007123991 -0.1199984224 -1.579331731e-17)
(1.010664806 -0.0915403052 7.084158333e-18)
(1.022538479 -0.06625516235 1.712891961e-17)
(1.015791724 -0.04717838019 -3.894155261e-17)
(1.019038953 -0.02665051858 -5.225130769e-18)
(1.002375904 -0.009365771679 8.061974577e-18)
(0.7943771813 -0.7864382456 2.94031149e-18)
(0.8807406984 -0.5557636525 4.294377227e-18)
(0.9509409617 -0.4067115344 -1.787527147e-17)
(0.9794969964 -0.3019996906 1.378568218e-18)
(1.01187113 -0.229073051 -1.460095166e-17)
(1.019563553 -0.1749640167 1.151260342e-17)
(1.035335894 -0.1334128742 -2.798689971e-17)
(1.032097492 -0.1016741214 -1.889224586e-17)
(1.037946547 -0.07346257663 1.129738433e-17)
(1.02665732 -0.05216941619 5.087967036e-17)
(1.025012744 -0.02924725935 -5.174102338e-17)
(1.004240375 -0.009948169437 3.694970383e-17)
(0.9759015302 -0.8276020672 -1.068788926e-18)
(1.008917984 -0.5848182085 2.825637824e-18)
(1.044640694 -0.4279314333 -1.372964031e-17)
(1.048980835 -0.3177120372 -1.673117408e-17)
(1.064484363 -0.2409392283 2.344725495e-17)
(1.059663562 -0.1839725201 9.568033494e-18)
(1.065823737 -0.1402165279 1.938519394e-17)
(1.055247392 -0.10678784 -2.65023987e-18)
(1.054571914 -0.07706482845 -1.132764368e-18)
(1.038362849 -0.05462161088 -2.433486761e-17)
(1.031416775 -0.03045472201 2.903837695e-17)
(1.006192839 -0.01010671989 1.057257683e-17)
(1.162032474 -0.8273387222 5.580340137e-18)
(1.140346474 -0.5846219371 -3.327805046e-18)
(1.140713167 -0.4277686051 -9.30148784e-19)
(1.120219445 -0.3175694314 -7.671786179e-18)
(1.118419955 -0.2408003531 3.176034453e-18)
(1.100763961 -0.1838331502 7.511575481e-18)
(1.097062973 -0.1400660336 2.233466597e-17)
(1.078956798 -0.1066238323 3.050575521e-18)
(1.071584883 -0.07687874763 6.960235322e-18)
(1.050323551 -0.05441050622 3.011643867e-17)
(1.037932953 -0.03020950056 -2.263575452e-17)
(1.008136928 -0.009832222721 5.177904498e-18)
(1.343433133 -0.7856604213 8.750789038e-18)
(1.268433132 -0.5551825226 -4.557489236e-18)
(1.234338477 -0.4062304567 -7.548926402e-18)
(1.189639284 -0.301577243 8.832933628e-18)
(1.170971772 -0.2286631972 -2.130021067e-17)
(1.140803308 -0.1745515583 5.056937139e-18)
(1.127486132 -0.132969021 -1.022519471e-17)
(1.102036973 -0.10118913 1.364767424e-17)
(1.088131817 -0.07291383936 -4.514825803e-18)
(1.061940754 -0.05154539897 -3.614786548e-17)
(1.044234801 -0.02852393678 1.110873402e-17)
(1.009977477 -0.00913584232 -2.268725141e-17)
(1.511009646 -0.7046594014 6.107246292e-18)
(1.386757874 -0.4979777637 8.856960081e-19)
(1.320825003 -0.3643963652 1.517422233e-17)
(1.25376202 -0.2705368734 3.231090071e-18)
(1.219507629 -0.2051339149 3.886383796e-18)
(1.177776252 -0.1565913547 -2.210184604e-17)
(1.155570523 -0.1192779399 3.711288989e-18)
(1.123332806 -0.09075382638 1.441424723e-19)
(1.103385846 -0.06536510255 -1.470927818e-17)
(1.072633811 -0.04616757629 -1.553866274e-17)
(1.050009013 -0.0254791064 1.419916777e-17)
(1.011623806 -0.008051209596 -5.542939501e-18)
(1.656356454 -0.5883975646 -8.020527639e-19)
(1.489385347 -0.4158747918 -4.574853211e-19)
(1.395833968 -0.3043638727 1.394754954e-18)
(1.309371178 -0.2260035498 -4.981475634e-18)
(1.261592794 -0.1713925369 5.096017967e-18)
(1.209828747 -0.130852073 -1.067714116e-17)
(1.179907833 -0.09967967047 -7.416792616e-19)
(1.141777257 -0.07584015988 -5.642363529e-18)
(1.116582775 -0.05461147331 -1.759450826e-18)
(1.081868335 -0.03854548718 4.902701113e-18)
(1.054967452 -0.02122777696 1.883576264e-18)
(1.01299637 -0.006630213489 -3.629380504e-18)
(1.772188108 -0.442705885 -6.681958349e-18)
(1.571171735 -0.3129910921 -1.589846824e-18)
(1.455606393 -0.2291415449 3.458466345e-18)
(1.353679902 -0.1702088472 3.949056877e-18)
(1.2951185 -0.1291276957 4.28849693e-18)
(1.235354632 -0.09862184477 -4.643414828e-18)
(1.199278953 -0.07515288707 1.022885523e-17)
(1.156446414 -0.05719300217 -1.103489272e-17)
(1.127062239 -0.04118785252 -5.813443841e-18)
(1.089182378 -0.02905845794 -3.207045173e-18)
(1.058863352 -0.01597916979 1.218153397e-17)
(1.014028165 -0.004941814275 -1.029329174e-17)
(1.852695188 -0.2748904927 -3.931640412e-18)
(1.628014814 -0.1944845836 -1.204364073e-18)
(1.49714396 -0.1425013104 1.827655227e-18)
(1.384465887 -0.1059492161 1.442852893e-18)
(1.318403493 -0.0804585779 3.86858345e-19)
(1.253074367 -0.06151521274 -1.5250558e-18)
(1.212713302 -0.04692702673 7.212863851e-19)
(1.166606055 -0.03574536828 -6.292391303e-18)
(1.134300495 -0.02576659393 -6.195996607e-19)
(1.094211731 -0.01817975858 -2.762256408e-18)
(1.061504293 -0.009995365504 4.787208227e-18)
(1.014671282 -0.003067186302 -3.685740885e-18)
(1.893843538 -0.09336578777 -1.920855832e-18)
(1.65706592 -0.06629704827 -6.711992403e-19)
(1.518364928 -0.04878500905 5.591484797e-19)
(1.400185853 -0.03644473535 1.014250466e-18)
(1.33028037 -0.02782184636 5.208315143e-19)
(1.262099395 -0.02138992944 -7.29982975e-19)
(1.219537323 -0.01641303444 -2.136271231e-19)
(1.171746901 -0.01256941518 -3.165804481e-18)
(1.137935089 -0.009116191779 -1.991411856e-18)
(1.096704826 -0.006451342334 -1.934581116e-18)
(1.062759058 -0.003571509634 1.81153524e-18)
(1.014895306 -0.001096585573 -2.624664102e-18)
(1.893569924 0.09276587914 -1.303045533e-19)
(1.656867981 0.06514514507 -1.331499909e-20)
(1.518204917 0.04730844657 -6.334802609e-19)
(1.400051447 0.03482119475 1.507688092e-18)
(1.330153876 0.02614396375 6.616612033e-19)
(1.261977611 0.01974444433 -3.2787997e-19)
(1.21940969 0.01486056153 5.620889717e-19)
(1.17161223 0.01117600343 -2.925627388e-18)
(1.137785408 0.007930737337 -2.584899843e-18)
(1.096538798 0.005542798466 -1.959209752e-18)
(1.062567759 0.002973464314 1.013692946e-18)
(1.014692461 0.0008767612281 -3.548229852e-18)
(1.851890065 0.2741733615 1.801472683e-18)
(1.62743166 0.1932524784 7.529670419e-19)
(1.496671768 0.1409638004 -1.297078042e-18)
(1.384068746 0.104277496 1.515297819e-18)
(1.31802928 0.07873684742 1.67481421e-18)
(1.252714111 0.05982845545 -7.422819423e-19)
(1.212335796 0.04533035489 3.143965505e-18)
(1.166208167 0.0343040564 -6.040052972e-18)
(1.133858589 0.02452493646 -3.126365018e-18)
(1.093722075 0.01720577794 -1.038451956e-18)
(1.060940598 0.009317576427 1.113544971e-18)
(1.014074292 0.002759353371 -7.517789916e-18)
(1.770894607 0.4417613582 4.123916272e-18)
(1.570232978 0.3116033756 1.545728837e-18)
(1.454845405 0.2274859069 7.042512887e-19)
(1.353039132 0.1684438646 -2.712828144e-18)
(1.29451492 0.1273212993 3.376076263e-18)
(1.234773495 0.09685543117 -5.29982953e-18)
(1.198670882 0.0734710796 -2.741331928e-18)
(1.155806004 0.05565935582 -9.690483237e-18)
(1.126352387 0.03983799826 1.918535503e-18)
(1.088396724 0.02795839041 -5.099921452e-18)
(1.057960715 0.01514791379 -1.052005735e-18)
(1.013073461 0.004464483871 -7.177187817e-18)
(1.654645503 0.5871298589 1.051896938e-19)
(1.488139728 0.4142653017 3.038964493e-18)
(1.394821661 0.3025396337 3.386167262e-18)
(1.308516869 0.2241052226 8.486588331e-19)
(1.260787572 0.1694651019 5.974835161e-18)
(1.209053319 0.1289719259 -3.908226215e-18)
(1.179097798 0.09787655854 1.404410823e-17)
(1.140925514 0.07417530774 -3.224274719e-18)
(1.115641341 0.05310817119 -2.220041288e-18)
(1.080828691 0.03726690482 -7.415686642e-18)
(1.053776763 0.02017957202 -4.413275634e-19)
(1.011739976 0.005913675576 -1.616247131e-17)
(1.508972236 0.7029918358 -7.009522087e-18)
(1.385268063 0.4960933924 -1.008715758e-19)
(1.319610511 0.3623633749 1.767162136e-18)
(1.252734112 0.2684736592 -5.686819951e-19)
(1.218538582 0.2030574981 -4.099343954e-18)
(1.176842799 0.1545714816 -9.298973837e-18)
(1.154597966 0.1173265161 1.034417479e-17)
(1.12231218 0.08892862821 3.059702921e-18)
(1.102262244 0.0636748439 -6.726760631e-18)
(1.071396488 0.04467121222 2.166288686e-17)
(1.048597795 0.02416670574 6.861118351e-18)
(1.010139705 0.00704319585 -6.9646343e-19)
(1.341178129 0.7835414697 1.662954542e-18)
(1.266774911 0.5529865295 -1.749766616e-18)
(1.232980677 0.4039604545 1.3249413e-17)
(1.18848554 0.2993264782 5.91609525e-19)
(1.169883068 0.2264175294 8.644227631e-18)
(1.139754098 0.1723732587 -6.073435477e-18)
(1.126396186 0.1308500651 1.698148483e-17)
(1.100896205 0.09918343493 1.571930767e-17)
(1.086882355 0.07101387503 -3.160261383e-18)
(1.06057027 0.04980543344 -3.380803865e-17)
(1.042680463 0.02691696843 3.440130581e-17)
(1.008350026 0.007804073195 -2.275426641e-17)
(1.159676345 0.8247425615 5.273373872e-19)
(1.138600898 0.5820953103 -1.80955624e-18)
(1.139275835 0.4252475068 8.652618408e-18)
(1.118991812 0.3151202398 1.36753173e-17)
(1.117260351 0.2383769568 -2.055486644e-17)
(1.099645588 0.1814890772 -6.185524162e-18)
(1.095905585 0.1377732484 -2.158806271e-17)
(1.077749376 0.1044311953 2.155463391e-19)
(1.070270999 0.07476276801 5.301717264e-18)
(1.04888985 0.05241921434 2.896058627e-17)
(1.036318503 0.02829937909 -2.579135425e-17)
(1.00645684 0.008167081992 -2.200457633e-19)
(0.9735650921 0.8245325757 -9.785423081e-18)
(1.007170912 0.5819617168 2.802356932e-18)
(1.043191283 0.4251595335 -4.015628757e-18)
(1.047734727 0.3150644658 3.935161396e-18)
(1.063305085 0.2383387312 1.961978819e-18)
(1.058524957 0.181463914 -2.485104335e-18)
(1.06465047 0.1377523618 -2.123409215e-17)
(1.054028322 0.1044118466 -2.659495724e-18)
(1.053256042 0.07473816881 -1.474655004e-18)
(1.036936383 0.0523859504 -2.400211379e-17)
(1.029825256 0.02825095277 2.896087237e-17)
(1.004549288 0.00812068991 4.946041411e-18)
(0.7921749382 0.7829245949 -1.540439081e-17)
(0.8790733407 0.5525957323 2.532351258e-18)
(0.9495441095 0.4037035939 4.509446351e-18)
(0.9782855016 0.2991656659 -1.629777964e-17)
(1.010721511 0.2263081081 2.837036167e-17)
(1.018451665 0.1723034724 8.139108194e-19)
(1.034195947 0.130792594 1.777320833e-17)
(1.03091899 0.0991316347 -1.38987298e-17)
(1.036687327 0.07094633975 1.377354906e-17)
(1.025304426 0.04971349513 5.891694977e-17)
(1.023521538 0.02678019903 -2.087439311e-17)
(1.002716563 0.007674837612 3.337894359e-17)
(0.6245974611 0.7020072224 -1.241162818e-17)
(0.760728949 0.4954707782 -5.473338704e-18)
(0.8630264801 0.3619571163 -2.979541967e-17)
(0.914123763 0.2682218803 -5.863582718e-18)
(0.9621421953 0.2028900331 -1.598746811e-17)
(0.9814315792 0.1544683381 3.981601377e-17)
(1.006064091 0.117245237 -1.094180723e-17)
(1.009575591 0.08885738788 6.056967313e-18)
(1.021389514 0.06358070133 2.298145762e-17)
(1.014571447 0.04453902266 1.405021308e-17)
(1.017715909 0.02396542515 -2.866658898e-17)
(1.00104299 0.006856292019 1.751191106e-18)
(0.4792332304 0.5858394327 7.33028875e-19)
(0.6580692029 0.4134538349 -7.427512519e-19)
(0.7879750937 0.3020157343 7.012039033e-19)
(0.8584640662 0.2237880212 9.307881071e-18)
(0.9200009733 0.1692618286 -1.783799508e-17)
(0.9493175345 0.1288567276 1.286767005e-17)
(0.9816624449 0.09779319036 -7.252177545e-18)
(0.9910637586 0.07410859813 1.463965448e-17)
(1.008125275 0.05301442841 -6.327946692e-18)
(1.005269524 0.03712637366 -2.336444585e-17)
(1.012693189 0.01995155087 -8.79176101e-18)
(0.9996041794 0.005710975088 5.044423426e-18)
(0.3633672501 0.440247079 1.637405513e-17)
(0.5762395744 0.3106577802 1.622148236e-18)
(0.7281499164 0.2268859219 -9.001625091e-18)
(0.8140950364 0.1680924995 -1.792460251e-17)
(0.8864071616 0.1271105937 -1.286822373e-17)
(0.9237167472 0.09675340469 3.371558437e-18)
(0.9622098662 0.07341292811 -4.078893352e-17)
(0.9763074762 0.05562563336 2.782666215e-17)
(0.9975536889 0.03977885765 7.694697821e-18)
(0.9978593732 0.02784865704 5.199276694e-18)
(1.008697553 0.01494211824 -4.431725127e-17)
(0.9984642709 0.004298199362 3.010017401e-17)
(0.2828072318 0.2725307615 5.823268968e-18)
(0.5193402493 0.1922385247 -8.182109072e-19)
(0.6865488054 0.1403364837 -5.259066194e-18)
(0.7832381266 0.1039304293 -2.667835115e-18)
(0.863042557 0.07855220045 4.137795818e-18)
(0.90590869 0.05977096122 -1.15857142e-18)
(0.9486779833 0.04532948555 1.565300758e-18)
(0.966041268 0.034338155 6.793229463e-18)
(0.9901997217 0.02453995237 -1.599580789e-17)
(0.9927057527 0.01717338337 2.045855419e-18)
(1.005922652 0.009189618189 -1.567926653e-17)
(0.9976718784 0.002690449856 4.592762525e-18)
(0.2415894298 0.09110002767 1.491835232e-18)
(0.4902227596 0.06413395567 -2.538809007e-18)
(0.6652549738 0.04670768449 -8.546443835e-18)
(0.7674388871 0.03451932882 2.076403185e-18)
(0.8510755803 0.026021935 -5.257761095e-18)
(0.8967839501 0.01976399521 -1.364893569e-18)
(0.9417413738 0.01495135432 2.883778469e-19)
(0.9607765337 0.01131361534 -6.937524219e-18)
(0.9864270181 0.008061947116 -1.28846741e-18)
(0.9900623063 0.005635687728 -4.002189443e-18)
(1.004500848 0.002982376395 -4.854156182e-18)
(0.9972595001 0.0009678151176 1.328463834e-18)
(0.2417793556 -0.0949486625 -6.068088473e-19)
(0.4903444021 -0.067232236 -3.610977553e-18)
(0.6653342665 -0.04930507981 -1.165287869e-17)
(0.7674860378 -0.03665920692 5.064450448e-18)
(0.8511034656 -0.02784503246 -5.655394058e-18)
(0.8967956637 -0.02126005624 -2.329916148e-18)
(0.9417440584 -0.01619710681 -2.712373019e-18)
(0.9607719145 -0.01229239833 1.037336254e-18)
(0.9864199666 -0.008828343654 -6.172541854e-18)
(0.9900553218 -0.006185613597 -9.468391152e-18)
(1.004497777 -0.003368859744 2.70135237e-18)
(0.9972404293 -0.0007842902855 -1.79381274e-18)
(0.2833653851 -0.2762869408 8.684415614e-19)
(0.5196982076 -0.1952728461 -3.791770103e-18)
(0.6867804655 -0.1428870948 -1.313682261e-17)
(0.7833760098 -0.1060356545 6.174649269e-18)
(0.8631222245 -0.08034735955 1.133203258e-18)
(0.9059414922 -0.06124392653 2.8863331e-18)
(0.9486826796 -0.04655408383 1.859161428e-17)
(0.9660250752 -0.03529648089 -1.196045723e-17)
(0.9901747869 -0.02528470561 -1.054691628e-17)
(0.9926814902 -0.01769890397 4.101263224e-18)
(1.005908223 -0.009547456306 1.05919007e-17)
(0.9976101673 -0.002480212209 -2.138389228e-17)
(0.364262364 -0.4438235326 6.285254914e-18)
(0.5768103104 -0.3135684414 -2.986260622e-18)
(0.7285168506 -0.2293462565 -4.711915801e-18)
(0.8143089151 -0.1701314651 -1.159653357e-17)
(0.8865267874 -0.1288524382 5.707317767e-18)
(0.9237588665 -0.09818279747 -1.52406814e-17)
(0.9622061378 -0.07459755944 -1.522492409e-17)
(0.9762680538 -0.05654560418 -3.337840086e-17)
(0.9974995253 -0.0404826766 8.300626599e-18)
(0.9978042041 -0.02832799563 -1.246725152e-17)
(1.008657476 -0.01524511481 4.24555033e-18)
(0.9983446582 -0.00403742895 -1.341746425e-17)
(0.4804128286 -0.5891580169 -5.058960208e-18)
(0.6588165314 -0.4161867402 2.264090941e-18)
(0.7884487124 -0.3043467404 2.88268313e-18)
(0.8587326997 -0.2257319387 -1.484169716e-18)
(0.9201413163 -0.1709277538 1.491806751e-17)
(0.9493529833 -0.1302240805 -9.735807438e-18)
(0.9816336591 -0.09892156181 2.462587869e-17)
(0.990985318 -0.07497459714 -2.098089829e-17)
(1.008023673 -0.0536613023 -6.744740613e-18)
(1.00516407 -0.03754138425 -2.725341104e-17)
(1.012603898 -0.02017862799 -3.083960702e-18)
(0.9994036404 -0.005380509966 -4.329231251e-17)
(0.6259940473 -0.705004229 -1.940030918e-17)
(0.761603864 -0.4979836933 -2.711194536e-18)
(0.8635704128 -0.3641288388 -5.903981483e-19)
(0.9144175315 -0.2700504111 -4.029985673e-18)
(0.9622786888 -0.2044644857 -5.396339694e-18)
(0.9814373821 -0.1557624379 -1.92451062e-17)
(1.005988874 -0.1183074925 1.579224256e-17)
(1.009435443 -0.0896608922 -7.075250448e-18)
(1.021217105 -0.06416113469 -1.71072529e-17)
(1.014388553 -0.04487896859 3.891830162e-17)
(1.017547257 -0.02410253381 5.226679331e-18)
(1.000730346 -0.006445183073 -8.047582585e-18)
(0.793705579 -0.7855529142 -2.930277207e-18)
(0.8800178549 -0.554856595 -4.28601799e-18)
(0.9501131783 -0.4056942479 1.787888803e-17)
(0.9785700952 -0.3008636211 -1.372794079e-18)
(1.010823777 -0.2277806753 1.459968664e-17)
(1.018401941 -0.17351678 -1.150210202e-17)
(1.0340482 -0.1317835475 2.798336741e-17)
(1.030691816 -0.0998682648 1.888723701e-17)
(1.036415801 -0.07145678599 -1.129030355e-17)
(1.025013485 -0.04997395923 -5.084511268e-17)
(1.023237098 -0.02682217594 5.171683883e-17)
(1.002256159 -0.007180106862 -3.692205332e-17)
(0.9751400601 -0.8267656704 1.076320658e-18)
(1.008120873 -0.5839554029 -2.818579335e-18)
(1.043737981 -0.4269600801 1.373370243e-17)
(1.047972387 -0.3166285957 1.673409283e-17)
(1.063341831 -0.2397087704 -2.344072756e-17)
(1.058391149 -0.1825990881 -9.562536394e-18)
(1.064403432 -0.1386757131 -1.937754887e-17)
(1.053686118 -0.1050872185 2.653122022e-18)
(1.0528561 -0.07518423153 1.138166842e-18)
(1.036503521 -0.05257327266 2.433800912e-17)
(1.029386758 -0.02820314219 -2.903237197e-17)
(1.003902248 -0.00755141394 -1.05610637e-17)
(1.161198996 -0.826574921 -5.575217323e-18)
(1.139488617 -0.5838195077 3.333681279e-18)
(1.139747915 -0.4268594678 9.345647254e-19)
(1.119142841 -0.3165538524 7.675038809e-18)
(1.117196957 -0.2396505525 -3.170632162e-18)
(1.099398265 -0.1825534168 -7.507251186e-18)
(1.095530118 -0.1386387107 -2.233487795e-17)
(1.077263938 -0.1050559699 -3.047708325e-18)
(1.069711542 -0.07515736501 -6.955185232e-18)
(1.048281321 -0.05254708896 -3.011482799e-17)
(1.035685967 -0.02817765027 2.264453549e-17)
(1.005584233 -0.007541767083 -5.167616917e-18)
(1.342555048 -0.7849898744 -8.748347625e-18)
(1.267534612 -0.5544573738 4.562322632e-18)
(1.23333007 -0.4053987372 7.553911871e-18)
(1.188512711 -0.3006456389 -8.834164462e-18)
(1.169689237 -0.227610811 2.131282188e-17)
(1.139366333 -0.1733849013 -5.055435048e-18)
(1.125867328 -0.1316765117 1.023672494e-17)
(1.100241685 -0.09977905991 -1.365449088e-17)
(1.086136193 -0.0713796258 4.519942319e-18)
(1.059754428 -0.04989944916 3.61850515e-17)
(1.041817671 -0.0267485348 -1.111543911e-17)
(1.007215882 -0.00715434886 2.271179838e-17)
(1.510112875 -0.7040945867 -6.106183631e-18)
(1.385836735 -0.4973399439 -8.835917431e-19)
(1.319789257 -0.3636540224 -1.517829744e-17)
(1.252601549 -0.2697011298 -3.229392368e-18)
(1.218183704 -0.2041938152 -3.895450445e-18)
(1.17628918 -0.1555532135 2.21252051e-17)
(1.153891106 -0.1181391126 -3.715865416e-18)
(1.121465212 -0.08952132455 -1.393072525e-19)
(1.101303892 -0.0640416473 1.472741522e-17)
(1.070345809 -0.04476377211 1.555478767e-17)
(1.047472135 -0.02398910764 -1.42076779e-17)
(1.008713077 -0.006409580926 5.550092118e-18)
(1.655472166 -0.587944508 8.039760253e-19)
(1.488463989 -0.4153327765 4.598030947e-19)
(1.394791996 -0.3037195688 -1.389556805e-18)
(1.308196701 -0.2252745364 4.990884851e-18)
(1.260250158 -0.1705755515 -5.104903943e-18)
(1.20831582 -0.1299554963 1.068325985e-17)
(1.178197051 -0.09870740007 7.40345956e-19)
(1.139870045 -0.07480023428 5.655269571e-18)
(1.114454046 -0.0535133692 1.758961319e-18)
(1.079523164 -0.03740042206 -4.920593068e-18)
(1.05236463 -0.02003926826 -1.881682552e-18)
(1.009998655 -0.00534782769 3.634760266e-18)
(1.771341768 -0.4423633259 6.684644005e-18)
(1.570268262 -0.3125473046 1.591147066e-18)
(1.454574538 -0.2286017152 -3.459003903e-18)
(1.352508133 -0.1695939306 -3.957111914e-18)
(1.293776306 -0.1284434202 -4.293660912e-18)
(1.233838024 -0.09787621606 4.64741193e-18)
(1.197563499 -0.07435781909 -1.026607548e-17)
(1.154531 -0.05635523367 1.105953908e-17)
(1.124924352 -0.04032511501 5.827340552e-18)
(1.086823912 -0.02818017117 3.221126062e-18)
(1.056246744 -0.01509961099 -1.222217504e-17)
(1.01100502 -0.004023947812 1.032435018e-17)
(1.851912173 -0.2746502035 3.930948094e-18)
(1.627148704 -0.1941390541 1.203433759e-18)
(1.496141231 -0.1420678972 -1.827834403e-18)
(1.38331561 -0.1054537503 -1.442346062e-18)
(1.317083086 -0.07991161941 -3.800745404e-19)
(1.25157732 -0.06092693104 1.523615498e-18)
(1.21102067 -0.04631338393 -7.148644535e-19)
(1.164713293 -0.03511459235 6.297662205e-18)
(1.132189984 -0.02514051578 6.049223612e-19)
(1.091881097 -0.01756894396 2.76825499e-18)
(1.058922657 -0.009420333238 -4.797990487e-18)
(1.011679492 -0.002508425026 3.686472747e-18)
(1.893140696 -0.09321576635 1.917579821e-18)
(1.656250988 -0.06604584079 6.685666411e-19)
(1.517405213 -0.04845949357 -5.627465951e-19)
(1.399072144 -0.03607168654 -1.012211001e-18)
(1.328999212 -0.02741665563 -5.239652532e-19)
(1.260642043 -0.02096246926 7.298855785e-19)
(1.217891243 -0.0159837311 2.169904677e-19)
(1.169904196 -0.0121458224 3.158172704e-18)
(1.135883971 -0.008724672401 1.993671741e-18)
(1.094438629 -0.006101510097 1.93060516e-18)
(1.060254926 -0.003290121974 -1.813621938e-18)
(1.011984694 -0.0008806015187 2.622167298e-18)
(1.892959719 0.09284219961 1.256804131e-19)
(1.656116837 0.06530754255 9.612113721e-21)
(1.517302204 0.04752899483 6.274283841e-19)
(1.398989804 0.03507094723 -1.504821594e-18)
(1.328929571 0.02640785632 -6.653154821e-19)
(1.260579671 0.02001024534 3.272984451e-19)
(1.217832511 0.01510815391 -5.652800756e-19)
(1.169844536 0.01139549972 2.931566129e-18)
(1.135821727 0.008096204206 2.579919723e-18)
(1.094368086 0.005642353385 1.948331816e-18)
(1.060175922 0.00297969898 -1.010077819e-18)
(1.01190359 0.0007721338717 3.542295206e-18)
(1.851376351 0.2741915478 -1.806289568e-18)
(1.626751365 0.1933329541 -7.57291378e-19)
(1.495835677 0.1410808781 1.290392141e-18)
(1.383071102 0.1044042229 -1.51321814e-18)
(1.316875845 0.07885875768 -1.674467907e-18)
(1.251391689 0.05993344486 7.448130315e-19)
(1.210845607 0.04539844796 -3.12458261e-18)
(1.164535604 0.03432517589 6.031592715e-18)
(1.132004381 0.02447340372 3.113080591e-18)
(1.091670894 0.01706950132 1.043049501e-18)
(1.058686974 0.009068874103 -1.10195994e-18)
(1.011437229 0.002361364166 7.490757613e-18)
(1.770475099 0.4417375458 -4.128795296e-18)
(1.569628037 0.3116085785 -1.550091447e-18)
(1.454083798 0.2275044486 -7.072376535e-19)
(1.352116678 0.1684494528 2.705203729e-18)
(1.293445051 0.1273048687 -3.370432358e-18)
(1.2335415 0.09680244662 5.29220589e-18)
(1.197283304 0.07336618169 2.730762221e-18)
(1.154245795 0.05548941107 9.664134748e-18)
(1.124625003 0.03958221941 -1.907603648e-18)
(1.086483558 0.02760139881 5.08488661e-18)
(1.055863197 0.0146669354 1.053573453e-18)
(1.010608973 0.003799957925 7.160154385e-18)
(1.654312286 0.5870750815 -1.122229713e-19)
(1.487610809 0.4142011604 -3.041714773e-18)
(1.394139908 0.3024617824 -3.385251054e-18)
(1.307678132 0.2239917151 -8.498325096e-19)
(1.25981155 0.16931169 -5.9667797e-18)
(1.207923482 0.1287641582 3.903402029e-18)
(1.177825053 0.09760287321 -1.402068341e-17)
(1.139490334 0.07382178853 3.21621611e-18)
(1.114052881 0.05265809 2.219031282e-18)
(1.079065166 0.03670388334 7.400192634e-18)
(1.051845057 0.01948525413 4.462184897e-19)
(1.009458897 0.005008278986 1.612304837e-17)
(1.508712307 0.7029139825 7.00097982e-18)
(1.384813339 0.4959636948 9.707608903e-20)
(1.319011234 0.3621933967 -1.766936707e-18)
(1.251986204 0.2682440492 5.678937068e-19)
(1.217664418 0.2027720421 4.098402898e-18)
(1.175825346 0.1542135527 9.287698463e-18)
(1.153449496 0.1168915261 -1.033616859e-17)
(1.121012322 0.08839947599 -3.058108808e-18)
(1.100820973 0.06304218575 6.712024268e-18)
(1.069790751 0.04391516637 -2.163365372e-17)
(1.046836528 0.02327687228 -6.852376676e-18)
(1.008047378 0.005917457138 6.895170965e-19)
(1.340977944 0.7834417151 -1.668314919e-18)
(1.266391508 0.5527936898 1.746989039e-18)
(1.232466619 0.4036996759 -1.324618386e-17)
(1.187834416 0.2989836484 -5.914072454e-19)
(1.169118264 0.2260023441 -8.63928213e-18)
(1.138857411 0.1718694395 6.067169133e-18)
(1.125380155 0.1302579686 -1.697658827e-17)
(1.099739309 0.09848526104 -1.570956398e-17)
(1.085594205 0.07020558049 3.162279886e-18)
(1.059126364 0.04886621902 3.378387869e-17)
(1.041090134 0.02584223914 -3.437744293e-17)
(1.006446261 0.006473406099 2.273482536e-17)
(1.159520226 0.8246170542 -5.298628591e-19)
(1.138284523 0.5818383436 1.807254535e-18)
(1.138846673 0.4248981207 -8.651802362e-18)
(1.118441663 0.3146673173 -1.367297156e-17)
(1.11660951 0.2378371652 2.055069344e-17)
(1.098876455 0.1808446499 6.184874947e-18)
(1.095027475 0.1370308622 2.158066596e-17)
(1.076741701 0.1035705609 -2.164685838e-19)
(1.069139645 0.07378668054 -5.30083879e-18)
(1.047611261 0.05130424021 -2.895327929e-17)
(1.034898497 0.02704819396 2.578679343e-17)
(1.004741384 0.006640398591 2.152482227e-19)
(0.9734420043 0.8243725051 9.785059793e-18)
(1.006919003 0.5816395542 -2.803789545e-18)
(1.042849355 0.424722259 4.015523757e-18)
(1.047290188 0.3145052829 -3.936025837e-18)
(1.062774351 0.2376777156 -1.960115572e-18)
(1.057889919 0.180684246 2.487518825e-18)
(1.063916947 0.1368638336 2.124328828e-17)
(1.053175838 0.1033943031 2.660272029e-18)
(1.052286507 0.07359798757 1.476489565e-18)
(1.035826379 0.05109983961 2.401295306e-17)
(1.028576653 0.02682527739 -2.896519159e-17)
(1.0030225 0.006402184756 -4.949232087e-18)
(0.7920750938 0.7827167041 1.54060248e-17)
(0.8788833296 0.5522036114 -2.532562404e-18)
(0.9492887543 0.4031789186 -4.511104731e-18)
(0.977949275 0.2985035316 1.630150386e-17)
(1.010313638 0.2255312529 -2.837818211e-17)
(1.017955587 0.1713946013 -8.06442371e-19)
(1.033611043 0.1297644434 -1.777641681e-17)
(1.030227183 0.09796296972 1.391134808e-17)
(1.035883601 0.06964709489 -1.376956821e-17)
(1.024368105 0.04825948816 -5.894123474e-17)
(1.022447089 0.02518110339 2.087915292e-17)
(1.001383365 0.00576426702 -3.339617326e-17)
(0.6245186689 0.7017377769 1.241523898e-17)
(0.7606015285 0.4950067185 5.476045563e-18)
(0.8628611617 0.3613468815 2.980488795e-17)
(0.9139000423 0.2674626483 5.867599732e-18)
(0.9618629694 0.202002983 1.599785572e-17)
(0.9810802261 0.1534378806 -3.983525136e-17)
(1.005634936 0.1160833125 1.095046306e-17)
(1.009051417 0.0875442072 -6.053800249e-18)
(1.020759919 0.06212600153 -2.299747475e-17)
(1.013816718 0.04292041241 -1.407150219e-17)
(1.01682471 0.02219169613 2.867785612e-17)
(0.9999132136 0.004753277892 -1.750991117e-18)
(0.4791770759 0.5854929743 -7.296580139e-19)
(0.6580057285 0.4129129608 7.45641636e-19)
(0.7879004697 0.301320665 -6.999148562e-19)
(0.8583549993 0.2229361733 -9.312135884e-18)
(0.9198523325 0.1682713821 1.785012065e-17)
(0.949114873 0.1277125531 -1.287277929e-17)
(0.9813931739 0.09650559144 7.254388214e-18)
(0.9907139104 0.07265843921 -1.464665461e-17)
(1.007677103 0.05141051286 6.329352314e-18)
(1.004706966 0.03534763822 2.338142561e-17)
(1.011996909 0.01800458737 8.79014283e-18)
(0.9986943781 0.003415723972 -5.04218199e-18)
(0.3633419828 0.4398130023 -1.63721183e-17)
(0.5762453279 0.3100408147 -1.618654419e-18)
(0.7281709449 0.2261107871 9.00773845e-18)
(0.8141046309 0.1671570788 1.793709661e-17)
(0.8863946933 0.1260259932 1.287969651e-17)
(0.9236677886 0.09550681245 -3.372965671e-18)
(0.9621082338 0.07200975185 4.083040969e-17)
(0.9761400796 0.05404952714 -2.785045793e-17)
(0.9972990268 0.03803444323 -7.707710537e-18)
(0.9975022577 0.02591831554 -5.209472147e-18)
(1.008214652 0.01282666868 4.436205713e-17)
(0.9977958411 0.001816573162 -3.012477128e-17)
(0.2828250253 0.2720003241 -5.818204254e-18)
(0.5194172548 0.191545207 8.238235907e-19)
(0.6866647752 0.1394857545 5.264873206e-18)
(0.7833661516 0.1029190279 2.673428029e-18)