/*--------------------------------*- C++ -*----------------------------------*\
| =========                 |                                                 |
| \\      /  F ield         | foam-extend: Open Source CFD                    |
|  \\    /   O peration     | Version:  3.0                                   |
|   \\  /    A nd           | Web:         http://www.extend-project.de       |
|    \\/     M anipulation  |                                                 |
\*---------------------------------------------------------------------------*/
FoamFile
{
    version     2.0;
    format      ascii;
    class       volVectorField;
    location    "15";
    object      u;
}
// * * * * * * * * * * * * * * * * * * * * * * * * * * * * * * * * * * * * * //

dimensions      [0 1 -1 0 0 0 0];

internalField   nonuniform List<vector> 
1512
(
(0.20123 -0.103709 -3.26687)
(0.0571401 -0.128042 -2.63177)
(0.226832 -0.0893377 -2.6384)
(0.189775 -0.257822 -3.83979)
(0.525919 -0.261148 -3.97231)
(-0.0494935 0.127517 -3.18499)
(0.0296409 0.0386817 -2.54862)
(-0.115259 0.110084 -2.54028)
(0.0414321 0.128359 -3.61451)
(-0.272425 0.0943753 -3.75584)
(0.0558781 -0.0693324 -3.28646)
(0.0509862 -0.0302283 -2.61423)
(0.0267498 -0.0794976 -2.66516)
(0.163786 -0.0685346 -3.81697)
(0.0360562 -0.172052 -3.97149)
(0.00259032 0.000526337 -3.15002)
(0.0481282 -0.00141826 -2.52412)
(-0.0633723 -0.00204301 -2.49955)
(0.0877957 -0.000369659 -3.55647)
(-0.200476 7.34067e-05 -3.66988)
(0.0559814 0.0688379 -3.28596)
(0.0507287 0.0287802 -2.61432)
(0.0258791 0.0756204 -2.66498)
(0.163469 0.0665387 -3.81697)
(0.0362967 0.171891 -3.97126)
(-0.0495899 -0.128686 -3.18483)
(0.0282616 -0.040109 -2.5487)
(-0.116317 -0.114217 -2.54044)
(0.039247 -0.129112 -3.61494)
(-0.270249 -0.0955311 -3.75584)
(0.200442 0.103933 -3.26723)
(0.0557166 0.126193 -2.63185)
(0.22438 0.0881314 -2.63843)
(0.186485 0.255268 -3.83985)
(0.522129 0.260561 -3.97201)
(-0.0125847 -0.0378267 5.74452)
(0.0397577 -0.0135206 2.76904)
(-0.0811195 -0.100883 4.01561)
(0.0354382 -0.0632064 4.61074)
(-0.0614054 -0.191369 5.05726)
(-0.0341886 -0.00652365 5.645)
(0.011706 0.00993795 2.68753)
(-0.129983 -0.0578507 3.89801)
(-0.0299747 -0.0330328 4.39335)
(-0.23103 -0.144748 4.76941)
(-0.0311808 -0.010775 5.731)
(0.0235804 0.00011129 2.74464)
(-0.129879 -0.0264837 4.00829)
(-0.0114081 -0.00741673 4.56227)
(-0.215935 -0.058003 4.98105)
(-0.0364251 -0.00022523 5.60223)
(0.0187363 0.00127269 2.66346)
(-0.14414 0.00252596 3.85717)
(-0.0284474 0.000528796 4.32797)
(-0.260504 0.00036327 4.71377)
(-0.0314054 0.0112933 5.73071)
(0.0239409 0.00118712 2.74455)
(-0.129031 0.0309502 4.00815)
(-0.0108647 0.00966841 4.56242)
(-0.216024 0.0589037 4.98054)
(-0.0336984 0.00845772 5.64477)
(0.0128206 -0.00895256 2.68797)
(-0.128303 0.0630478 3.89832)
(-0.0279403 0.0336418 4.39406)
(-0.232449 0.146718 4.76956)
(-0.0114913 0.0375648 5.74461)
(0.040859 0.0152885 2.76923)
(-0.0780303 0.102284 4.0163)
(0.038747 0.0657455 4.61088)
(-0.0568834 0.192357 5.0585)
(-0.0234825 0.0425803 -2.98892)
(-0.032183 0.0411649 -2.74118)
(0.0364467 0.101598 -2.51174)
(-0.033162 0.108575 -3.22977)
(-0.0126555 0.21245 -3.54181)
(0.0309155 -0.0134774 -2.97222)
(-0.0025722 -0.010054 -2.72005)
(0.132127 0.0358991 -2.50196)
(0.0429314 0.0205392 -3.21463)
(0.250161 0.12113 -3.49141)
(0.0141841 0.0170142 -2.97438)
(-0.0154638 0.00730451 -2.72108)
(0.112286 0.03511 -2.49821)
(0.0125709 0.0213271 -3.21672)
(0.198173 0.0815457 -3.45354)
(0.0258492 0.000325619 -2.96346)
(-0.0116896 -0.00161059 -2.70872)
(0.137699 -0.00253154 -2.48566)
(0.0353711 -0.000985628 -3.20391)
(0.268842 -0.000471711 -3.43748)
(0.0144774 -0.0173276 -2.97388)
(-0.0160005 -0.00911693 -2.72083)
(0.11154 -0.0395356 -2.49794)
(0.0117456 -0.0241749 -3.21659)
(0.19837 -0.0825589 -3.45285)
(0.0305533 0.0118218 -2.9718)
(-0.00403248 0.0083065 -2.72024)
(0.130406 -0.0409988 -2.50224)
(0.0405871 -0.0219486 -3.21506)
(0.251253 -0.123347 -3.49127)
(-0.0243608 -0.0423045 -2.98912)
(-0.0336555 -0.0431328 -2.7414)
(0.0334063 -0.103114 -2.51209)
(-0.0370367 -0.111399 -3.22964)
(-0.017206 -0.213627 -3.54231)
(0.0424018 -0.048993 4.55825)
(0.0439639 -0.0576991 2.64689)
(0.00570565 -0.0831674 3.21359)
(0.0555053 -0.127776 3.4691)
(0.048006 -0.141531 3.84636)
(-0.016483 0.0122773 4.52562)
(-0.0121724 0.0228738 2.62307)
(-0.0882244 -0.0170187 3.18114)
(-0.0529191 -0.0148914 3.43834)
(-0.184851 -0.0758679 3.72964)
(-0.00207311 -0.016314 4.51738)
(0.00835422 -0.0158493 2.61937)
(-0.0610507 -0.0275158 3.17236)
(-0.0246878 -0.0329998 3.42478)
(-0.11671 -0.0630994 3.71225)
(-0.0103854 -0.000195611 4.50829)
(0.00255575 0.00137314 2.61193)
(-0.0851468 0.00218626 3.16515)
(-0.0435836 0.000940962 3.4199)
(-0.179031 0.000517509 3.70953)
(-0.00233453 0.0163439 4.51677)
(0.00883371 0.0175255 2.61907)
(-0.0604549 0.031237 3.17198)
(-0.0239667 0.0353148 3.42457)
(-0.116854 0.0643513 3.71125)
(-0.0161566 -0.0110653 4.52509)
(-0.0109246 -0.0209501 2.62324)
(-0.0865531 0.0211744 3.18125)
(-0.0511911 0.0164209 3.43888)
(-0.185199 0.0776037 3.72885)
(0.0429085 0.0489528 4.55865)
(0.0453327 0.0590984 2.64703)
(0.0081145 0.084721 3.21379)
(0.058877 0.129764 3.46892)
(0.051229 0.142805 3.84611)
(-0.0612014 0.0606143 -1.22518)
(-0.0564086 0.0648493 -2.04302)
(-0.0394046 0.0857984 -1.38608)
(-0.0873742 0.133381 -1.80673)
(-0.112242 0.145624 -1.85565)
(0.0218387 -0.0233604 -1.2348)
(0.000606003 -0.0265648 -2.04115)
(0.0872331 0.00216805 -1.40052)
(0.0300486 -0.00405211 -1.81852)
(0.187321 0.05291 -1.87643)
(-0.003016 0.0246741 -1.21576)
(-0.0202344 0.0178194 -2.0232)
(0.0457424 0.0346018 -1.37847)
(-0.00930954 0.035568 -1.79534)
(0.0903356 0.0729539 -1.81727)
(0.0109323 7.41482e-05 -1.23225)
(-0.0139282 -0.00129965 -2.034)
(0.0783591 -0.00199919 -1.39296)
(0.0181561 -0.00103838 -1.81709)
(0.173352 -0.000616815 -1.83675)
(-0.00281731 -0.0248584 -1.21515)
(-0.0207091 -0.0194712 -2.02272)
(0.0452072 -0.0379903 -1.37809)
(-0.0100313 -0.0379361 -1.7949)
(0.090418 -0.0742335 -1.81643)
(0.0215133 0.0221636 -1.2344)
(-0.00060533 0.0247125 -2.04105)
(0.0857112 -0.0059872 -1.40063)
(0.0283318 0.00242271 -1.81853)
(0.187473 -0.0547228 -1.87551)
(-0.0617347 -0.0606894 -1.22561)
(-0.0576911 -0.0661727 -2.04329)
(-0.0416 -0.0872474 -1.38609)
(-0.0904708 -0.135285 -1.80631)
(-0.115149 -0.146814 -1.85489)
(0.0103711 -0.0220111 1.72093)
(0.0301698 -0.0226637 1.46599)
(0.00398063 -0.0337198 1.43217)
(0.0305838 -0.0352162 1.48827)
(-0.00390032 -0.0251637 1.58071)
(-0.00143317 -0.00827129 1.7272)
(-0.0043567 0.00985632 1.4709)
(-0.021611 -0.0154019 1.43952)
(-0.0200422 -0.0167712 1.50505)
(-0.0509284 -0.034569 1.5767)
(-0.00404882 -0.00497162 1.70178)
(0.00435417 -0.00850609 1.44948)
(-0.0179279 -0.00877009 1.41189)
(-0.0177255 -0.0124648 1.46732)
(-0.0408513 -0.0119768 1.52813)
(-0.00372499 5.79409e-05 1.72457)
(0.000438072 0.000771142 1.46798)
(-0.0234383 0.00109784 1.43684)
(-0.0226095 0.000699568 1.50398)
(-0.0507989 0.000433311 1.56824)
(-0.00410373 0.0050902 1.70117)
(0.00464007 0.00967843 1.44903)
(-0.0176306 0.0106579 1.41145)
(-0.0173375 0.0138069 1.4669)
(-0.0408496 0.0129932 1.52728)
(-0.00120163 0.00885019 1.72673)
(-0.00360514 -0.00838296 1.47076)
(-0.020622 0.0173178 1.43943)
(-0.0192028 0.0179999 1.505)
(-0.050545 0.0354207 1.57565)
(0.0105269 0.0222674 1.72122)
(0.0310456 0.02328 1.46613)
(0.00502461 0.0347307 1.43205)
(0.0323111 0.0359622 1.4878)
(-0.002886 0.0259851 1.57974)
(0.0130216 -0.00157674 0.996229)
(-0.0070734 -0.00283768 -0.281763)
(0.0127973 0.000726755 0.305833)
(0.00361472 -0.0142064 0.160789)
(0.0456379 -0.0264823 0.27505)
(-0.0060652 0.0157423 0.976975)
(0.00411998 0.000163827 -0.292297)
(-0.00978057 0.0139338 0.284345)
(0.00876561 0.0167252 0.145192)
(-0.0173547 0.014061 0.21467)
(0.00519419 -0.00436289 0.981708)
(0.00323273 0.00124908 -0.282855)
(0.00188087 -0.00438521 0.289827)
(0.0201824 -0.00135644 0.146289)
(0.0075447 -0.0147761 0.23278)
(-0.000103904 -0.000105929 0.97183)
(0.00465065 -0.000253523 -0.29284)
(-0.00465809 -0.000268487 0.282648)
(0.0149448 -0.000282256 0.14006)
(-0.0123562 -0.000134695 0.231857)
(0.00517314 0.0042942 0.98193)
(0.0031409 -0.00173321 -0.28255)
(0.00180973 0.00392885 0.290001)
(0.0200842 0.000942216 0.146544)
(0.00751343 0.014398 0.232937)
(-0.00618831 -0.015931 0.977145)
(0.00386332 -0.000818607 -0.292084)
(-0.0101109 -0.014294 0.284395)
(0.00859465 -0.0172559 0.145488)
(-0.0176892 -0.0141005 0.214894)
(0.01305 0.0013437 0.996309)
(-0.00743125 0.00274983 -0.281824)
(0.0126714 -0.00112269 0.305949)
(0.00310656 0.0141879 0.161054)
(0.0458017 0.0261637 0.275308)
(-0.0215819 0.017714 0.595996)
(-0.0167289 0.0189719 0.0380173)
(-0.019661 0.0200864 0.363668)
(-0.0335091 0.04002 0.207414)
(-0.0560753 0.041941 0.271376)
(0.0077231 -0.0119187 0.594307)
(-0.00186727 -0.0105421 0.0408765)
(0.0216735 -0.00672132 0.3596)
(0.000576967 -0.0111245 0.205787)
(0.0467068 0.0052189 0.256391)
(-0.00268048 0.00741319 0.591266)
(-0.00881924 0.0046077 0.0375326)
(0.00544847 0.00896124 0.358692)
(-0.0151125 0.00902331 0.202154)
(0.00861119 0.0222946 0.26431)
(0.00243618 7.71548e-06 0.592564)
(-0.007591 -0.000164116 0.0416064)
(0.0164849 -0.000368642 0.360252)
(-0.00715474 -0.000141167 0.203183)
(0.0380528 -0.000150311 0.26543)
(-0.00264308 -0.0075485 0.591236)
(-0.00888668 -0.004721 0.0374374)
(0.00534757 -0.00959478 0.358654)
(-0.0152566 -0.00944165 0.202087)
(0.00861646 -0.0225325 0.264292)
(0.00766229 0.011613 0.594276)
(-0.00200318 0.0105064 0.0408029)
(0.0214763 0.00592982 0.359564)
(0.000214681 0.010969 0.205705)
(0.0468731 -0.0057721 0.256311)
(-0.0218185 -0.0176747 0.596028)
(-0.0168067 -0.019246 0.0380168)
(-0.0201905 -0.0202358 0.36365)
(-0.0339561 -0.0405258 0.207359)
(-0.0570049 -0.0420762 0.271335)
(0.10325 0.201882 -3.2666)
(0.128788 0.0561714 -2.63187)
(0.0887835 0.227866 -2.63811)
(0.258821 0.188169 -3.83955)
(0.260819 0.527604 -3.97204)
(-0.128305 -0.0496056 -3.18503)
(-0.0389352 0.0287582 -2.54874)
(-0.110164 -0.114914 -2.53997)
(-0.128656 0.0398652 -3.61421)
(-0.0926781 -0.270984 -3.75513)
(0.0670401 0.0549187 -3.28649)
(0.0293694 0.0511947 -2.61433)
(0.0788741 0.0260185 -2.66485)
(0.0675533 0.164276 -3.81672)
(0.173675 0.0358192 -3.97074)
(-0.00242856 0.00245352 -3.15)
(0.00143125 0.0479394 -2.52415)
(0.00197046 -0.0636573 -2.49917)
(0.000458516 0.0876007 -3.55624)
(0.00113083 -0.200986 -3.66918)
(-0.0734807 0.0570659 -3.28573)
(-0.0304228 0.0512138 -2.61429)
(-0.0764832 0.0259779 -2.66461)
(-0.0678174 0.163999 -3.81677)
(-0.170825 0.0354112 -3.97089)
(0.127144 -0.050704 -3.18449)
(0.0402611 0.0308534 -2.54866)
(0.113345 -0.1186 -2.53998)
(0.129088 0.0423195 -3.61468)
(0.0938313 -0.274389 -3.75565)
(-0.10677 0.2018 -3.26737)
(-0.126083 0.0574407 -2.6317)
(-0.0926718 0.227079 -2.6381)
(-0.256007 0.189125 -3.83956)
(-0.263827 0.525503 -3.97126)
(0.0383511 -0.0131512 5.74474)
(0.0127919 0.0407386 2.7692)
(0.101513 -0.0819883 4.01584)
(0.0621435 0.0370176 4.61053)
(0.191847 -0.0626534 5.05857)
(0.00735911 -0.0340356 5.64527)
(-0.00962261 0.012592 2.68761)
(0.0579786 -0.130228 3.89785)
(0.0333879 -0.0284249 4.39296)
(0.143161 -0.232273 4.76943)
(0.0131511 -0.0302496 5.73102)
(0.00095281 0.023471 2.74473)
(0.0273154 -0.129125 4.00803)
(0.00837861 -0.0117945 4.56205)
(0.0568005 -0.215619 4.98039)
(0.00214261 -0.036324 5.60208)
(-0.000967049 0.0189528 2.66329)
(-0.00224009 -0.143903 3.85679)
(-0.000462667 -0.0282008 4.32757)
(-0.00108768 -0.260106 4.71299)
(-0.0066123 -0.0324619 5.73072)
(0.00076763 0.0233332 2.74454)
(-0.0298098 -0.129143 4.00795)
(-0.00841543 -0.0114649 4.5622)
(-0.059483 -0.21516 4.98032)
(-0.00686071 -0.0325452 5.64242)
(0.00903173 0.0100028 2.68703)
(-0.0619376 -0.126234 3.89657)
(-0.0334543 -0.0311768 4.39299)
(-0.144546 -0.228895 4.76853)
(-0.0344946 -0.0129976 5.7444)
(-0.0156819 0.0392612 2.76884)
(-0.0973027 -0.0812569 4.01497)
(-0.0653578 0.0361499 4.6105)
(-0.18874 -0.0608445 5.0564)
(-0.0429671 -0.0231091 -2.98902)
(-0.0406397 -0.0329705 -2.7413)
(-0.102017 0.036979 -2.51185)
(-0.107797 -0.0344881 -3.22943)
(-0.212596 -0.0118622 -3.54281)
(0.0127038 0.0307141 -2.97252)
(0.009751 -0.00337129 -2.72016)
(-0.0360508 0.13222 -2.5018)
(-0.0208321 0.0415451 -3.2142)
(-0.119807 0.251053 -3.49133)
(-0.0194356 0.0132693 -2.97451)
(-0.00846786 -0.015457 -2.72119)
(-0.0359715 0.111564 -2.49801)
(-0.0223627 0.0128219 -3.21639)
(-0.0804669 0.197843 -3.45295)
(-0.00246175 0.0257393 -2.96363)
(0.00122573 -0.0118824 -2.70868)
(0.00218093 0.137435 -2.48546)
(0.000833471 0.0351758 -3.20366)
(0.00117621 0.268439 -3.43688)
(0.0126501 0.0154601 -2.97414)
(0.00693941 -0.0152662 -2.72093)
(0.0383695 0.111573 -2.49786)
(0.0228906 0.0124494 -3.21652)
(0.0829836 0.197439 -3.45271)
(-0.0136048 0.0297283 -2.97031)
(-0.00839207 -0.00137302 -2.71954)
(0.0398614 0.128762 -2.50091)
(0.0217067 0.0437512 -3.21453)
(0.121294 0.248162 -3.49058)
(0.039556 -0.023003 -2.98945)
(0.0430876 -0.0316947 -2.74137)
(0.0984144 0.0365204 -2.51092)
(0.110799 -0.0339526 -3.22942)
(0.21001 -0.0134025 -3.54018)
(0.0491995 0.0422236 4.55831)
(0.0574212 0.0444362 2.64697)
(0.0833463 0.0055473 3.21362)
(0.127284 0.056286 3.46881)
(0.141537 0.0478046 3.84701)
(-0.0117202 -0.0163155 4.52587)
(-0.0225683 -0.0115884 2.62316)
(0.0171796 -0.0881242 3.18095)
(0.0149702 -0.0520436 3.43786)
(0.0749872 -0.185229 3.7294)
(0.0180077 -0.00149368 4.51755)
(0.0171045 0.00854972 2.61947)
(0.0282614 -0.0605498 3.17219)
(0.0337409 -0.0247114 3.42447)
(0.0625568 -0.116429 3.71167)
(0.00177974 -0.0103268 4.50855)
(-0.00065951 0.0027194 2.61194)
(-0.00182048 -0.0849516 3.16502)
(-0.000726751 -0.0434226 3.41968)
(-0.000857119 -0.178798 3.70904)
(-0.0130984 -0.00293645 4.51717)
(-0.0152915 0.00810496 2.6192)
(-0.030288 -0.0604404 3.17202)
(-0.0344847 -0.0244817 3.42456)
(-0.0644605 -0.11614 3.71133)
(0.0125737 -0.015928 4.52399)
(0.0213298 -0.0126719 2.62264)
(-0.020228 -0.0859823 3.18028)
(-0.0159691 -0.0530752 3.43843)
(-0.0761818 -0.183561 3.72872)
(-0.0472154 0.0420535 4.55949)
(-0.0585256 0.0434986 2.64695)
(-0.0814234 0.00569008 3.21298)
(-0.128931 0.0561334 3.46856)
(-0.14045 0.0487557 3.84416)
(-0.060794 -0.0610599 -1.22497)
(-0.0646294 -0.0568242 -2.04294)
(-0.0859635 -0.0393094 -1.38587)
(-0.132983 -0.0880685 -1.80635)
(-0.145633 -0.112154 -1.85576)
(0.0228841 0.0216899 -1.23478)
(0.0262852 9.16405e-05 -2.04116)
(-0.00232563 0.0871245 -1.40023)
(0.00395755 0.0292698 -1.81808)
(-0.0522481 0.187579 -1.87605)
(-0.0262226 -0.00352472 -1.21574)
(-0.0189344 -0.0204438 -2.02322)
(-0.0353349 0.0453037 -1.37823)
(-0.0362549 -0.00936414 -1.79493)
(-0.0725865 0.0901023 -1.81665)
(-0.00155277 0.0108834 -1.23243)
(0.000608671 -0.014076 -2.0341)
(0.00158837 0.0781923 -1.39287)
(0.000783074 0.0180005 -1.81699)
(0.000857383 0.173156 -1.83638)
(0.021952 -0.00226292 -1.21541)
(0.0174864 -0.0200821 -2.02294)
(0.0370385 0.0452385 -1.37812)
(0.0371387 -0.00958728 -1.79502)
(0.0742653 0.0898413 -1.81644)
(-0.0235676 0.021343 -1.23395)
(-0.0251281 0.000996511 -2.04072)
(0.00508321 0.0852578 -1.40015)
(-0.00284852 0.0300953 -1.81856)
(0.053478 0.186082 -1.87556)
(0.0592287 -0.0610214 -1.22643)
(0.0656857 -0.0561007 -2.04364)
(0.0844275 -0.0394582 -1.38565)
(0.1346 -0.0880897 -1.80604)
(0.144853 -0.112927 -1.85366)
(0.0220013 0.0103532 1.72068)
(0.0226431 0.0302617 1.4658)
(0.0336719 0.00409523 1.43192)
(0.035086 0.0307358 1.48791)
(0.025077 -0.00367869 1.58069)
(0.00842889 -0.00137132 1.72715)
(-0.00968192 -0.00415953 1.4708)
(0.0155008 -0.0214402 1.43926)
(0.01669 -0.019842 1.50464)
(0.0343501 -0.0508406 1.57634)
(0.00548518 -0.00392309 1.70178)
(0.00925529 0.00458224 1.44943)
(0.00918948 -0.0177563 1.41171)
(0.0127246 -0.0175815 1.467)
(0.012015 -0.0407187 1.52769)
(0.000513208 -0.0037182 1.72482)
(-0.000135225 0.000511055 1.46808)
(-0.000771377 -0.0233593 1.43687)
(-0.000502442 -0.0225205 1.50395)
(-0.000358027 -0.0507365 1.56806)
(-0.00408172 -0.00424699 1.70154)
(-0.00836177 0.00426652 1.44923)
(-0.010071 -0.0176542 1.41161)
(-0.0135086 -0.0174765 1.46707)
(-0.0128034 -0.0406031 1.52743)
(-0.00809785 -0.00145403 1.7267)
(0.0089345 -0.00412901 1.47069)
(-0.0167772 -0.0210612 1.43932)
(-0.0175372 -0.0196288 1.50521)
(-0.0349833 -0.0505731 1.57598)
(-0.0218405 0.0102991 1.7222)
(-0.0226003 0.0300827 1.4665)
(-0.0337777 0.00401884 1.43193)
(-0.0353067 0.0309411 1.4877)
(-0.0255361 -0.00354507 1.57886)
(0.00164544 0.0130161 0.996413)
(0.00281293 -0.00702962 -0.281611)
(-0.000642468 0.0126923 0.306023)
(0.0142238 0.00368364 0.160982)
(0.0265357 0.0454381 0.275202)
(-0.0157093 -0.00605354 0.977081)
(-0.000209829 0.00411061 -0.292254)
(-0.0139533 -0.00986511 0.284462)
(-0.0166112 0.00883504 0.145287)
(-0.0140382 -0.0174492 0.214807)
(0.00443568 0.00525349 0.981789)
(-0.00150702 0.00310985 -0.282833)
(0.0042761 0.00187905 0.289929)
(0.00137569 0.0200798 0.146443)
(0.0146623 0.00751776 0.233013)
(0.000106226 -8.64293e-05 0.971759)
(-5.96701e-05 0.00462394 -0.292974)
(0.0001301 -0.00465713 0.2826)
(0.0002027 0.0149045 0.139998)
(1.85507e-05 -0.0123259 0.231916)
(-0.00421506 0.00512171 0.981836)
(0.00126151 0.00324696 -0.282728)
(-0.00409742 0.00182199 0.289926)
(-0.000937594 0.0200532 0.146413)
(-0.0145109 0.00748871 0.232981)
(0.015762 -0.00592654 0.977027)
(0.000466126 0.00379462 -0.292163)
(0.0141548 -0.00957905 0.284344)
(0.0170028 0.00839472 0.145274)
(0.0141745 -0.0172226 0.214924)
(-0.00128805 0.0130585 0.996101)
(-0.00320052 -0.00712492 -0.282185)
(0.00125869 0.0128361 0.305905)
(-0.0145852 0.00351524 0.161034)
(-0.0258212 0.0456148 0.275391)
(-0.0178211 -0.0215814 0.595959)
(-0.0189334 -0.0168519 0.0379476)
(-0.0201967 -0.0196246 0.363606)
(-0.0399733 -0.0337057 0.207366)
(-0.0419972 -0.0560341 0.27128)
(0.0117741 0.00767878 0.594305)
(0.0104983 -0.00199091 0.0408384)
(0.00667309 0.0216905 0.359585)
(0.0110213 0.00033914 0.205753)
(-0.00514868 0.0467911 0.256357)
(-0.00786141 -0.00283273 0.591258)
(-0.0047471 -0.0088205 0.0374995)
(-0.00910994 0.00535024 0.358677)
(-0.0092237 -0.0150989 0.202093)
(-0.022232 0.00857119 0.264262)
(-0.000368854 0.00242396 0.5926)
(0.000149735 -0.00762462 0.0416277)
(0.00033942 0.0164577 0.360287)
(0.000109436 -0.00719154 0.203182)
(0.00022227 0.0380052 0.265441)
(0.00678842 -0.00247296 0.591248)
(0.00448859 -0.00879777 0.0374691)
(0.00944206 0.00535915 0.35868)
(0.0092115 -0.0151342 0.202094)
(0.0225371 0.00851689 0.264281)
(-0.0118465 0.00746294 0.594365)
(-0.0104153 -0.00156816 0.040802)
(-0.00606058 0.0210413 0.359626)
(-0.0109232 0.000763038 0.20573)
(0.00540562 0.0462614 0.256346)
(0.01732 -0.0216557 0.59608)
(0.0194206 -0.0166545 0.038112)
(0.0195206 -0.0197672 0.363696)
(0.0405796 -0.0336688 0.207337)
(0.0414376 -0.0563144 0.271327)
(-0.201283 0.10363 -3.26695)
(-0.0568041 0.127934 -2.63171)
(-0.226954 0.0891281 -2.63834)
(-0.189087 0.257509 -3.83969)
(-0.526331 0.260674 -3.9723)
(0.0493358 -0.127162 -3.18559)
(-0.0296533 -0.038468 -2.54876)
(0.115082 -0.109651 -2.54046)
(-0.041509 -0.127859 -3.61456)
(0.271891 -0.0933027 -3.75584)
(-0.0556573 0.0686629 -3.28699)
(-0.0509866 0.0297328 -2.61432)
(-0.0265881 0.0792565 -2.66515)
(-0.163926 0.0678413 -3.81685)
(-0.035812 0.171795 -3.97102)
(-0.0026239 -6.90133e-05 -3.15039)
(-0.0476399 0.00175064 -2.52416)
(0.0634893 0.00285998 -2.49928)
(-0.08705 0.00105439 -3.55609)
(0.200985 0.00122551 -3.66908)
(-0.0567504 -0.0723681 -3.28615)
(-0.0512207 -0.0307779 -2.61431)
(-0.0258103 -0.0763395 -2.6646)
(-0.163979 -0.0684689 -3.81645)
(-0.0351536 -0.17116 -3.97052)
(0.0513015 0.128291 -3.1848)
(-0.0307775 0.0403086 -2.54879)
(0.118738 0.113912 -2.53995)
(-0.0419851 0.129232 -3.61445)
(0.274267 0.0949452 -3.75535)
(-0.201557 -0.106351 -3.26739)
(-0.0569906 -0.125938 -2.63175)
(-0.227349 -0.0928153 -2.63776)
(-0.188561 -0.256003 -3.83916)
(-0.525693 -0.264103 -3.97047)
(0.0126002 0.0378485 5.74456)
(-0.0399443 0.0135797 2.769)
(0.0810913 0.101071 4.01559)
(-0.0358848 0.063421 4.61059)
(0.0615557 0.191778 5.05749)
(0.0343673 0.00613869 5.64581)
(-0.0116663 -0.0102413 2.68774)
(0.130115 0.057516 3.89829)
(0.0300717 0.0324179 4.39343)
(0.231368 0.144007 4.76941)
(0.0309749 0.0114587 5.73178)
(-0.0235941 0.000332583 2.7448)
(0.12972 0.0268453 4.00839)
(0.0115072 0.00802893 4.56215)
(0.215681 0.0583942 4.98057)
(0.0364396 -0.000274004 5.60282)
(-0.0191948 -0.00166014 2.66339)
(0.143994 -0.00318485 3.85701)
(0.0276977 -0.00122487 4.32738)
(0.260005 -0.00115622 4.7129)
(0.032189 -0.00774316 5.73143)
(-0.0234718 0.000803272 2.74468)
(0.129045 -0.0299059 4.00806)
(0.0112616 -0.00784931 4.56189)
(0.214982 -0.0590775 4.98005)
(0.03194 -0.00806403 5.64281)
(-0.0102094 0.00874713 2.6871)
(0.126094 -0.0624594 3.89652)
(0.0308125 -0.0336334 4.39254)
(0.229055 -0.145597 4.76862)
(0.0127042 -0.0349728 5.74463)
(-0.0398069 -0.015905 2.76881)
(0.0814996 -0.0971007 4.01475)
(-0.0369087 -0.0655137 4.60977)
(0.061053 -0.18836 5.05591)
(0.0233712 -0.0425405 -2.9891)
(0.0324338 -0.0412182 -2.74119)
(-0.0364979 -0.101764 -2.51175)
(0.0337456 -0.108817 -3.22971)
(0.012369 -0.212754 -3.54197)
(-0.0311675 0.0139489 -2.97319)
(0.00255946 0.0103657 -2.72045)
(-0.132317 -0.0355351 -2.50238)
(-0.0429791 -0.0199608 -3.21494)
(-0.250598 -0.120425 -3.49171)
(-0.0140233 -0.0174842 -2.9753)
(0.0155009 -0.00778488 -2.72142)
(-0.112158 -0.0353198 -2.4984)
(-0.0126413 -0.0218993 -3.21669)
(-0.197958 -0.081753 -3.45316)
(-0.0258418 0.000217744 -2.96437)
(0.0121005 0.00199848 -2.7089)
(-0.137497 0.00320172 -2.48572)
(-0.0346943 0.00160368 -3.2036)
(-0.268308 0.00119462 -3.43686)
(-0.0150525 0.0141575 -2.97478)
(0.0153872 0.00700608 -2.72113)
(-0.111337 0.0386259 -2.49794)
(-0.0122427 0.0225162 -3.21616)
(-0.197039 0.0827096 -3.45241)
(-0.0290262 -0.0122316 -2.97068)
(0.00162798 -0.00808457 -2.71966)
(-0.128585 0.0403664 -2.50083)
(-0.0433503 0.0218151 -3.21402)
(-0.248254 0.122133 -3.49053)
(0.023371 0.040107 -2.98962)
(0.0322357 0.0432509 -2.7413)
(-0.0366673 0.0983115 -2.51069)
(0.0347193 0.110824 -3.22858)
(0.0133509 0.20992 -3.53972)
(-0.0423297 0.0489521 4.55851)
(-0.0441003 0.0577111 2.64692)
(-0.00572786 0.0832912 3.21367)
(-0.0558427 0.127893 3.46906)
(-0.0478646 0.141704 3.8467)
(0.016666 -0.0126176 4.52665)
(0.0122354 -0.023192 2.62348)
(0.0883365 0.0167752 3.18163)
(0.0530138 0.0144078 3.43865)
(0.185104 0.0754318 3.73015)
(0.00199262 0.016526 4.5184)
(-0.00840981 0.0162012 2.61972)
(0.0609755 0.0276396 3.17265)
(0.024708 0.0332885 3.4248)
(0.116564 0.0632089 3.71208)
(0.010377 -0.000154685 4.50931)
(-0.00285553 -0.00173255 2.61217)
(0.0849425 -0.00261256 3.1653)
(0.0430704 -0.00139027 3.41967)
(0.178629 -0.000956309 3.70905)
(0.00266175 -0.0142299 4.51778)
(-0.00831944 -0.0157132 2.6194)
(0.0602596 -0.0305028 3.17207)
(0.0241947 -0.0343638 3.42425)
(0.115782 -0.0644313 3.71095)
(0.0154237 0.011559 4.52434)
(0.0123425 0.0208503 2.62274)
(0.0858355 -0.0205337 3.18016)
(0.052774 -0.0160476 3.4379)
(0.183529 -0.0767357 3.72842)
(-0.0423814 -0.047646 4.55953)
(-0.0439289 -0.0587393 2.64691)
(-0.00572437 -0.0813439 3.21268)
(-0.0566767 -0.129034 3.46786)
(-0.0489097 -0.14041 3.8435)
(0.0611318 -0.0605792 -1.22542)
(0.0565424 -0.0648601 -2.04314)
(0.0394381 -0.0859238 -1.38613)
(0.0876884 -0.133469 -1.80679)
(0.112153 -0.145741 -1.85577)
(-0.0220227 0.0236876 -1.23559)
(-0.000647037 0.0268277 -2.0417)
(-0.0873431 -0.00196239 -1.40094)
(-0.0301118 0.00444076 -1.81898)
(-0.187538 -0.0525783 -1.87685)
(0.00306556 -0.0248094 -1.21647)
(0.020294 -0.0181074 -2.02365)
(-0.0456899 -0.0346934 -1.37868)
(0.00931338 -0.0358004 -1.79544)
(-0.0902331 -0.0730137 -1.81708)
(-0.0109191 0.000267751 -1.233)
(0.0141795 0.00157612 -2.03443)
(-0.0781672 0.00236975 -1.39308)
(-0.0177138 0.00139279 -1.81706)
(-0.172975 0.000948454 -1.8364)
(0.00255213 0.0230953 -1.21576)
(0.0202753 0.0179179 -2.02313)
(-0.0450285 0.0373244 -1.37808)
(0.00985838 0.037118 -1.79469)
(-0.0894701 0.074256 -1.81607)
(-0.0208697 -0.0226142 -1.23406)
(-0.000682867 -0.0246977 -2.04077)
(-0.0851042 0.00538028 -1.39993)
(-0.0297836 -0.00277973 -1.81804)
(-0.186048 0.0538885 -1.87518)
(0.0613215 0.059647 -1.22622)
(0.0565074 0.0658634 -2.04347)
(0.0394975 0.0844002 -1.38528)
(0.0886224 0.134661 -1.80532)
(0.113084 0.144876 -1.85314)
(-0.0103045 0.0219258 1.72123)
(-0.0301597 0.0226155 1.46613)
(-0.00400078 0.0337066 1.43231)
(-0.0305851 0.0351385 1.48837)
(0.00389269 0.0251162 1.5809)
(0.0015182 0.00809936 1.72794)
(0.00442884 -0.0100436 1.47137)
(0.0216433 0.0152816 1.43997)
(0.0201269 0.016549 1.50544)
(0.0509404 0.0344353 1.57714)
(0.00406983 0.00485979 1.70246)
(-0.00438525 0.00856365 1.44985)
(0.0179172 0.00873914 1.41218)
(0.0177068 0.012406 1.46746)
(0.0408001 0.0119223 1.52814)
(0.00371614 -0.000195845 1.7253)
(-0.000540536 -0.000937616 1.46836)
(0.0233055 -0.00121538 1.43709)
(0.0223977 -0.000849678 1.50404)
(0.0506048 -0.000525998 1.56812)
(0.00414696 -0.00457204 1.70178)
(-0.00444808 -0.00886647 1.44933)
(0.0175366 -0.0103005 1.41156)
(0.0172516 -0.013673 1.46681)
(0.0403989 -0.0129933 1.52713)
(0.00126836 -0.00850486 1.72672)
(0.0038821 0.00853797 1.47065)
(0.0209511 -0.0169318 1.4391)
(0.0194632 -0.0176232 1.50476)
(0.0504559 -0.0351659 1.5756)
(-0.0104814 -0.022063 1.72195)
(-0.0302925 -0.0227702 1.46627)
(-0.00417305 -0.0338151 1.43157)
(-0.0311671 -0.03541 1.48713)
(0.00333641 -0.0255684 1.57841)
(-0.0130824 0.00166906 0.996099)
(0.00700316 0.00290995 -0.281912)
(-0.0128045 -0.000663024 0.305752)
(-0.00374106 0.0143394 0.160661)
(-0.0456093 0.0265614 0.275081)
(0.00603068 -0.0156529 0.97672)
(-0.00418291 -6.07429e-05 -0.292652)
(0.0097792 -0.0138719 0.284127)
(-0.0088436 -0.0166185 0.144899)
(0.0174131 -0.0140344 0.214542)
(-0.00524143 0.00454789 0.981511)
(-0.00322754 -0.00116827 -0.283157)
(-0.00190061 0.00447429 0.289686)
(-0.0201679 0.00152746 0.146144)
(-0.00754843 0.0148813 0.232801)
(0.000100277 0.000168064 0.971605)
(-0.00462998 0.000336425 -0.293178)
(0.0046965 0.000281629 0.2825)
(-0.0148848 0.000340189 0.139911)
(0.0123845 0.000145451 0.231868)
(-0.00512778 -0.00413547 0.98181)
(-0.00314279 0.00156542 -0.282795)
(-0.00179465 -0.00397639 0.289969)
(-0.0199272 -0.000774585 0.146528)
(-0.00745083 -0.0143343 0.233082)
(0.00594463 0.0158373 0.977102)
(-0.00367002 0.000688985 -0.292136)
(0.00962063 0.0142135 0.284463)
(-0.00832732 0.0170876 0.145427)
(0.0172911 0.0142348 0.215034)
(-0.0129742 -0.00120124 0.99627)
(0.00719419 -0.00308832 -0.282029)
(-0.0127113 0.00130469 0.306092)
(-0.0034617 -0.0144769 0.161309)
(-0.0454938 -0.0258263 0.275467)
(0.0216467 -0.0177982 0.596042)
(0.0168048 -0.0190403 0.0380668)
(0.0197339 -0.0201903 0.363704)
(0.0336518 -0.0401354 0.207452)
(0.0561314 -0.0420259 0.271378)
(-0.00772996 0.0119075 0.594386)
(0.00190361 0.010529 0.0409799)
(-0.0216778 0.00668499 0.359681)
(-0.000533924 0.0111306 0.205867)
(-0.0467553 -0.00522354 0.256447)
(0.00272513 -0.00759941 0.59132)
(0.00884404 -0.00474242 0.037613)
(-0.00542213 -0.00908547 0.358748)
(0.0151261 -0.00920109 0.202187)
(-0.00858683 -0.022426 0.264325)
(-0.0024354 2.16866e-06 0.59263)
(0.00764497 0.000159173 0.0416976)
(-0.0164716 0.000403663 0.360314)
(0.00723719 0.00016752 0.203222)
(-0.0379944 0.000146094 0.265455)
(0.00254498 0.00701664 0.591246)
(0.00879137 0.00444284 0.0374894)
(-0.00533012 0.00942841 0.358666)
(0.0151347 0.00912903 0.202074)
(-0.00845674 0.0224214 0.264253)
(-0.00737942 -0.0116841 0.594354)
(0.00158615 -0.0104415 0.0407802)
(-0.0210525 -0.00605675 0.359591)
(-0.000709913 -0.0109712 0.205694)
(-0.0463358 0.00542347 0.256292)
(0.0216657 0.0173578 0.596054)
(0.0167169 0.0193959 0.0380591)
(0.0196971 0.0194763 0.363654)
(0.0337898 0.0405452 0.207283)
(0.0563005 0.0414532 0.271323)
(-0.102608 -0.198987 -3.26731)
(-0.127454 -0.0571303 -2.63188)
(-0.091967 -0.226686 -2.6385)
(-0.255828 -0.187674 -3.83983)
(-0.26671 -0.525274 -3.97234)
(0.130829 0.0509998 -3.18534)
(0.0389911 -0.029344 -2.54876)
(0.110083 0.114998 -2.54062)
(0.129306 -0.0400719 -3.61495)
(0.0910375 0.268754 -3.75611)
(-0.0673624 -0.0552017 -3.28646)
(-0.0303013 -0.0517379 -2.61441)
(-0.080046 -0.0263715 -2.66513)
(-0.0683504 -0.164954 -3.81705)
(-0.175499 -0.0366544 -3.97136)
(0.00155152 -0.00228052 -3.15067)
(-0.00117623 -0.0481644 -2.52415)
(-0.00229087 0.0640067 -2.49961)
(-0.000886073 -0.087829 -3.55649)
(-0.000987647 0.201519 -3.66962)
(0.0730857 -0.057021 -3.28632)
(0.029779 -0.0509385 -2.6143)
(0.0759026 -0.0260208 -2.66496)
(0.0670301 -0.163532 -3.81689)
(0.170194 -0.0355261 -3.97102)
(-0.127607 0.0508111 -3.18506)
(-0.0402551 -0.030781 -2.54869)
(-0.113497 0.118645 -2.54029)
(-0.129237 -0.0421199 -3.61479)
(-0.0937299 0.274668 -3.75558)
(0.10618 -0.201192 -3.26759)
(0.126036 -0.0574939 -2.63161)
(0.0924411 -0.226594 -2.63809)
(0.255955 -0.189216 -3.83939)
(0.26369 -0.524442 -3.97075)
(-0.0387864 0.0101248 5.74465)
(-0.0146022 -0.0398684 2.76924)
(-0.0979309 0.0807616 4.01642)
(-0.06518 -0.0374919 4.61084)
(-0.185273 0.0607799 5.05925)
(-0.0102314 0.0323645 5.64528)
(0.00943129 -0.0119598 2.68807)
(-0.0581994 0.129861 3.89858)
(-0.0338081 0.0288426 4.39404)
(-0.141174 0.234366 4.77012)
(-0.0129178 0.0305538 5.73142)
(-0.000200825 -0.022966 2.74476)
(-0.0261434 0.129576 4.0085)
(-0.00776193 0.0125171 4.56272)
(-0.0547058 0.216536 4.98093)
(-0.00122928 0.0361039 5.60261)
(0.000792037 -0.0186398 2.66356)
(0.0025979 0.143502 3.85729)
(0.000994354 0.0285643 4.3281)
(0.0011868 0.259523 4.71355)
(0.00709099 0.0323748 5.73142)
(-0.000112502 -0.023571 2.7447)
(0.0304104 0.12915 4.00838)
(0.0091964 0.0110562 4.56246)
(0.0601076 0.215211 4.98049)
(0.00743215 0.0323313 5.64315)
(-0.00891517 -0.0100714 2.68722)
(0.0621035 0.126133 3.89702)
(0.0336973 0.031013 4.39324)
(0.144414 0.228633 4.76863)
(0.0351311 0.0123392 5.74463)
(0.0158588 -0.0393206 2.76879)
(0.0975213 0.080779 4.01489)
(0.0655275 -0.0362057 4.61029)
(0.188832 0.0599286 5.05545)
(0.0438637 0.0260065 -2.98915)
(0.0419997 0.0322619 -2.74143)
(0.0989191 -0.0359854 -2.51215)
(0.110095 0.035087 -3.22958)
(0.20632 0.0132751 -3.54306)
(-0.00976533 -0.0291154 -2.97242)
(-0.00933996 0.00293324 -2.7205)
(0.0362916 -0.131927 -2.50259)
(0.0213202 -0.041861 -3.21521)
(0.117542 -0.2532 -3.49216)
(0.0193068 -0.0135524 -2.97469)