/*--------------------------------*- C++ -*----------------------------------*\
| =========                 |                                                 |
| \\      /  F ield         | foam-extend: Open Source CFD                    |
|  \\    /   O peration     | Version:  3.0                                   |
|   \\  /    A nd           | Web:         http://www.extend-project.de       |
|    \\/     M anipulation  |                                                 |
\*---------------------------------------------------------------------------*/
FoamFile
{
    version     2.0;
    format      ascii;
    class       volScalarField;
    location    "14";
    object      p;
}
// * * * * * * * * * * * * * * * * * * * * * * * * * * * * * * * * * * * * * //

dimensions      [0 0 0 0 0 0 0];

internalField   nonuniform List<scalar> 
120
(
-0.286053
-0.213314
-0.223022
-0.213279
-0.213473
-0.266627
-0.198793
-0.207818
-0.198703
-0.198868
-0.22881
-0.170596
-0.178343
-0.170517
-0.170654
-0.175633
-0.130915
-0.136838
-0.130798
-0.130886
-0.110265
-0.0821836
-0.0858994
-0.0820983
-0.0821425
-0.0376127
-0.0279917
-0.0292275
-0.0278874
-0.0278731
0.0378268
0.0282406
0.029548
0.028298
0.0283577
0.110462
0.0824135
0.0861963
0.0824796
0.0825928
0.175795
0.131107
0.137087
0.131122
0.131269
0.228924
0.170734
0.178527
0.17076
0.170942
0.266678
0.198862
0.207918
0.198842
0.199036
0.286035
0.213306
0.223028
0.213302
0.213505
0.28612
0.213345
0.22305
0.2133
0.213487
0.266481
0.198708
0.207755
0.19868
0.19885
0.228898
0.170655
0.178405
0.170585
0.170715
0.175489
0.130832
0.136777
0.130779
0.130872
0.110337
0.0822195
0.0859319
0.0821252
0.0821625
0.0374407
0.0278669
0.0291137
0.0277935
0.027785
-0.037787
-0.0282546
-0.029579
-0.0283596
-0.0284254
-0.110663
-0.0825825
-0.0863665
-0.0826521
-0.082759
-0.175772
-0.131147
-0.137153
-0.131231
-0.131384
-0.229127
-0.170905
-0.1787
-0.170936
-0.171112
-0.26664
-0.19888
-0.207954
-0.19891
-0.19911
-0.28621
-0.213436
-0.223148
-0.213404
-0.213601
)
;

boundaryField
{
    out
    {
        type            implicitExtrapolation;
    }
    in
    {
        type            implicitExtrapolation;
    }
    frontAndBack
    {
        type            empty;
    }
}


// ************************************************************************* //
