/*--------------------------------*- C++ -*----------------------------------*\
| =========                 |                                                 |
| \\      /  F ield         | foam-extend: Open Source CFD                    |
|  \\    /   O peration     | Version:  3.0                                   |
|   \\  /    A nd           | Web:         http://www.extend-project.de       |
|    \\/     M anipulation  |                                                 |
\*---------------------------------------------------------------------------*/
FoamFile
{
    version     2.0;
    format      ascii;
    class       volSymmTensorField;
    location    "14";
    object      sigma;
}
// * * * * * * * * * * * * * * * * * * * * * * * * * * * * * * * * * * * * * //

dimensions      [0 0 0 0 0 0 0];

internalField   nonuniform List<symmTensor> 
120
(
(-0.131222 -0.0230791 1.92872e-19 0.131185 -1.15888e-20 3.75447e-05)
(-0.0937293 -0.0225281 5.30264e-19 0.0936501 4.35577e-19 7.91925e-05)
(-0.0552352 -0.0176708 1.17456e-18 0.0551346 -6.06886e-19 0.000100536)
(-0.0242503 -0.0134439 -8.71743e-19 0.0241579 5.45721e-20 9.23202e-05)
(-0.00183623 -0.0102572 -9.1728e-19 0.00179383 -6.68295e-21 4.23958e-05)
(-0.111738 -0.063181 3.37895e-19 0.111717 -1.02058e-19 2.06194e-05)
(-0.0688089 -0.0581795 1.65414e-18 0.0687657 -7.80051e-19 4.32117e-05)
(-0.0326632 -0.0436576 9.827e-19 0.0326093 -1.61717e-18 5.38351e-05)
(-0.00426676 -0.03117 1.39431e-18 0.00421923 -1.04556e-18 4.75232e-05)
(0.01583 -0.0216609 7.42007e-19 -0.0158497 -1.38218e-18 1.97033e-05)
(-0.0802813 -0.0884551 9.13218e-21 0.0802792 -2.98052e-19 2.0613e-06)
(-0.0315494 -0.071374 -3.47136e-19 0.0315455 -1.30519e-18 3.91644e-06)
(-0.000134917 -0.0479335 -1.32379e-18 0.000131773 -1.70889e-18 3.14401e-06)
(0.0234865 -0.0285602 -1.97468e-18 -0.0234858 -1.84997e-18 -7.28672e-07)
(0.0394836 -0.0142383 -3.27565e-18 -0.0394792 5.86264e-19 -4.41552e-06)
(-0.047715 -0.0971794 -1.01127e-19 0.0477317 -2.12113e-19 -1.66678e-05)
(0.000192246 -0.061215 -5.66584e-19 -0.00015655 -7.55215e-19 -3.56966e-05)
(0.0246198 -0.03022 -3.04168e-18 -0.024572 1.86184e-19 -4.78784e-05)
(0.04205 -0.00582164 -1.05207e-18 -0.0420009 9.55062e-19 -4.91348e-05)
(0.0531758 0.0114485 -5.86812e-19 -0.0531474 1.67504e-18 -2.84057e-05)
(-0.022423 -0.0949245 6.19228e-20 0.0224572 -1.80344e-19 -3.42223e-05)
(0.0134215 -0.0392284 -7.5955e-19 -0.0133486 -4.11148e-20 -7.28545e-05)
(0.0289487 -0.00270232 -1.03467e-19 -0.0288531 4.29592e-19 -9.567e-05)
(0.0395156 0.0248199 -3.78055e-19 -0.0394213 1.00935e-18 -9.42732e-05)
(0.0458596 0.0434709 2.8795e-18 -0.0458091 -3.97341e-20 -5.04997e-05)
(-0.00612794 -0.0905636 -2.49836e-19 0.00617739 -8.37613e-20 -4.94536e-05)
(0.00723623 -0.0222334 -1.00795e-18 -0.00713115 2.08658e-19 -0.000105076)
(0.0125618 0.0172248 7.7287e-19 -0.0124248 4.09027e-19 -0.000137036)
(0.0160712 0.0461967 2.25277e-19 -0.0159381 6.45139e-19 -0.000133144)
(0.0180654 0.0652885 6.59105e-19 -0.0179962 -3.24433e-19 -6.92882e-05)
(0.0062261 -0.0905587 -2.44986e-19 -0.00616485 -4.32908e-20 -6.12545e-05)
(-0.0071098 -0.0222242 -5.76163e-19 0.00723984 1.64425e-19 -0.000130043)
(-0.0124496 0.0172281 7.13192e-19 0.0126185 3.612e-19 -0.000168962)
(-0.0160158 0.0461908 1.90526e-19 0.0161787 4.75629e-19 -0.000162861)
(-0.0181444 0.065269 -1.0728e-18 0.0182277 -2.23222e-19 -8.32956e-05)
(0.0225172 -0.0949087 -3.43526e-19 -0.0224483 -7.26245e-21 -6.88466e-05)
(-0.0133171 -0.0392065 8.91332e-19 0.0134632 3.47599e-19 -0.000146065)
(-0.028859 -0.00269809 -4.62126e-19 0.0290482 8.75379e-20 -0.000189281)
(-0.039475 0.0247987 5.39813e-19 0.0396564 -5.42002e-20 -0.000181397)
(-0.0459354 0.043413 8.90477e-20 0.046027 -4.00408e-19 -9.16058e-05)
(0.0477991 -0.0971503 -2.11688e-19 -0.0477274 3.0885e-19 -7.16511e-05)
(-0.000123113 -0.0611942 -9.46196e-19 0.00027505 5.40947e-19 -0.000151937)
(-0.0245653 -0.0302286 -1.868e-18 0.0247618 3.45837e-19 -0.000196426)
(-0.0420321 -0.00586607 -1.2236e-18 0.0422194 7.59023e-19 -0.000187276)
(-0.0532441 0.0113558 -3.14031e-18 0.0533376 -1.19541e-19 -9.34855e-05)
(0.0803469 -0.0884118 1.17808e-19 -0.0802774 4.0949e-19 -6.9518e-05)
(0.0315827 -0.0713683 1.33752e-19 -0.0314353 9.35071e-19 -0.000147308)
(0.000154868 -0.0479676 -6.70186e-19 3.51064e-05 1.07329e-18 -0.000189975)
(-0.02349 -0.0286336 1.80241e-18 0.0236702 1.12885e-19 -0.000180154)
(-0.0395403 -0.0143577 2.38018e-18 0.0396292 2.55002e-18 -8.88706e-05)
(0.111776 -0.0631259 2.97656e-19 -0.111714 2.2516e-19 -6.25571e-05)
(0.0688153 -0.0581944 5.23922e-19 -0.0686829 2.05255e-19 -0.000132448)
(0.0326592 -0.0437198 2.13576e-18 -0.0324889 1.17905e-18 -0.000170293)
(0.00424952 -0.0312699 1.20034e-18 -0.00408909 -4.50581e-19 -0.000160432)
(-0.0158744 -0.0217959 2.35513e-18 0.0159523 -1.94668e-19 -7.79921e-05)
(0.131229 -0.0230183 1.32633e-19 -0.131177 -3.77348e-21 -5.13117e-05)
(0.0937202 -0.0225573 4.68515e-19 -0.0936117 4.42164e-20 -0.00010849)
(0.0552192 -0.0177509 1.68811e-18 -0.0550803 -1.39557e-19 -0.0001389)
(0.0242268 -0.0135587 1.4546e-19 -0.0240971 -6.12719e-19 -0.000129657)
(0.00180151 -0.0103975 -1.10824e-19 -0.00173977 -2.12291e-18 -6.17435e-05)
(0.131217 0.0230131 1.92728e-19 -0.13118 -1.1951e-20 -3.65331e-05)
(0.0937602 0.0222948 5.30048e-19 -0.0936832 4.34651e-19 -7.70771e-05)
(0.0553126 0.0172206 1.17423e-18 -0.0552147 -6.06661e-19 -9.79579e-05)
(0.0244006 0.0126714 -8.72211e-19 -0.0243107 5.43806e-20 -8.99554e-05)
(0.00211081 0.00897338 -9.16785e-19 -0.00206959 -7.40615e-21 -4.12188e-05)
(0.111745 0.0631169 3.376e-19 -0.111725 -1.02463e-19 -1.9307e-05)
(0.0689186 0.0579921 1.6535e-18 -0.0688781 -7.79865e-19 -4.04976e-05)
(0.0329069 0.0433067 9.82297e-19 -0.0328564 -1.61724e-18 -5.04787e-05)
(0.00471793 0.0305782 1.39366e-18 -0.00467364 -1.04467e-18 -4.42945e-05)
(-0.0150297 0.0206865 7.42304e-19 0.0150478 -1.38051e-18 -1.80072e-05)
(0.0803011 0.0884006 8.72266e-21 -0.0803003 -2.98295e-19 -7.8409e-07)
(0.0317044 0.0712655 -3.47636e-19 -0.0317032 -1.30548e-18 -1.23586e-06)
(0.000471519 0.0477511 -1.32432e-18 -0.000471827 -1.70965e-18 3.07569e-07)
(-0.0228691 0.0282731 -1.97568e-18 0.0228649 -1.85085e-18 4.21602e-06)
(-0.0383859 0.0137932 -3.27287e-18 0.0383796 5.85654e-19 6.34251e-06)
(0.0477416 0.0971429 -1.01608e-19 -0.0477593 -2.12061e-19 1.77196e-05)
(-3.73478e-05 0.0611975 -5.67236e-19 -5.98338e-07 -7.54581e-19 3.79461e-05)
(-0.0242868 0.0302277 -3.04143e-18 0.024236 1.86248e-19 5.08109e-05)
(-0.0414408 0.00587743 -1.05246e-18 0.0413887 9.55543e-19 5.21209e-05)
(-0.0520851 -0.0112904 -5.86293e-19 0.0520551 1.67465e-18 3.00492e-05)
(0.0224435 0.0949088 6.14415e-20 -0.0224785 -1.80191e-19 3.49969e-05)
(-0.0133118 0.0392893 -7.59876e-19 0.0132373 -4.04775e-20 7.44645e-05)
(-0.0287121 0.00287183 -1.04119e-19 0.0286144 4.30682e-19 9.77156e-05)
(-0.0390808 -0.0244741 -3.78051e-19 0.0389845 1.00966e-18 9.63001e-05)
(-0.0450733 -0.0427957 2.87482e-18 0.0450217 -3.78037e-20 5.16128e-05)
(0.0061299 0.0905612 -2.50007e-19 -0.00617975 -8.36891e-20 4.98539e-05)
(-0.00720466 0.0223397 -1.00788e-18 0.00709883 2.08969e-19 0.000105834)
(-0.0124872 -0.0169626 7.72405e-19 0.0123494 4.09585e-19 0.000137835)
(-0.0159284 -0.0456849 2.25082e-19 0.0157947 6.4527e-19 0.000133758)
(-0.0177975 -0.0643163 6.59512e-19 0.017728 -3.24395e-19 6.95454e-05)
(-0.00624723 0.0905551 -2.4499e-19 0.00618588 -4.33484e-20 6.13532e-05)
(0.00705126 0.0223306 -5.75718e-19 -0.00718132 1.64549e-19 0.000130058)
(0.0123375 -0.0169651 7.12691e-19 -0.0125061 3.61544e-19 0.000168642)
(0.0158234 -0.0456771 1.90762e-19 -0.0159855 4.76787e-19 0.000162172)
(0.0178149 -0.0642951 -1.07154e-18 -0.0178977 -2.23778e-19 8.27814e-05)
(-0.0225546 0.0948906 -3.43388e-19 0.0224859 -7.5168e-21 6.87119e-05)
(0.0131801 0.0392678 8.90498e-19 -0.0133256 3.47078e-19 0.000145524)
(0.0285831 0.00286954 -4.63277e-19 -0.0287712 8.70514e-20 0.000188097)
(0.0389871 -0.024449 5.37445e-19 -0.0391668 -5.47735e-20 0.00017968)
(0.0450847 -0.0427344 8.53654e-20 -0.0451751 -4.01375e-19 9.04442e-05)
(-0.0478405 0.0971129 -2.11623e-19 0.047769 3.08826e-19 7.14955e-05)
(-5.95684e-05 0.0611772 -9.4672e-19 -9.17314e-05 5.41352e-19 0.0001513)
(0.0241913 0.0302375 -1.8686e-18 -0.0243864 3.46572e-19 0.000195042)
(0.0413664 0.00592403 -1.22464e-18 -0.0415516 7.60599e-19 0.000185263)
(0.0520859 -0.0111956 -3.13714e-18 -0.052178 -1.18038e-19 9.21271e-05)
(-0.080382 0.0883591 1.1784e-19 0.0803125 4.09585e-19 6.95032e-05)
(-0.0317659 0.07126 1.332e-19 0.0316189 9.35752e-19 0.000146982)
(-0.000532985 0.0477847 -6.6929e-19 0.000344 1.07568e-18 0.000188986)
(0.0228155 0.0283449 1.80432e-18 -0.0229941 1.1414e-19 0.000178532)
(0.0383748 0.0139116 2.3832e-18 -0.0384625 2.55475e-18 8.77056e-05)
(-0.111801 0.0630649 2.97668e-19 0.111738 2.25246e-19 6.29161e-05)
(-0.0689537 0.058007 5.23874e-19 0.0688208 2.05949e-19 0.000132906)
(-0.0329436 0.0433674 2.13599e-18 0.0327732 1.17977e-18 0.000170358)
(-0.00475506 0.0306747 1.20213e-18 0.00459512 -4.5007e-19 0.000159937)
(0.0150086 0.0208186 2.35297e-18 -0.0150861 -1.98158e-19 7.74888e-05)
(-0.131244 0.0229538 1.327e-19 0.131192 -3.46611e-21 5.21687e-05)
(-0.09378 0.0223239 4.68732e-19 0.0936701 4.50714e-20 0.000109926)
(-0.0553361 0.0172999 1.68841e-18 0.0551959 -1.396e-19 0.000140201)
(-0.0244286 0.0127845 1.46591e-19 0.0242981 -6.12513e-19 0.000130485)
(-0.00213886 0.00911224 -1.1154e-19 0.00207687 -2.12272e-18 6.19949e-05)
)
;

boundaryField
{
    out
    {
        type            mySigma;
    }
    in
    {
        type            mySigma;
    }
    frontAndBack
    {
        type            empty;
    }
}


// ************************************************************************* //
