/*--------------------------------*- C++ -*----------------------------------*\
| =========                 |                                                 |
| \\      /  F ield         | foam-extend: Open Source CFD                    |
|  \\    /   O peration     | Version:  3.0                                   |
|   \\  /    A nd           | Web:         http://www.extend-project.de       |
|    \\/     M anipulation  |                                                 |
\*---------------------------------------------------------------------------*/
FoamFile
{
    version     2.0;
    format      ascii;
    class       volScalarField;
    location    "5";
    object      p;
}
// * * * * * * * * * * * * * * * * * * * * * * * * * * * * * * * * * * * * * //

dimensions      [0 0 0 0 0 0 0];

internalField   nonuniform List<scalar> 
7680
(
-0.254042
-0.241534
-0.232295
-0.222586
-0.215547
-0.207907
-0.202502
-0.19644
-0.192281
-0.187445
-0.184251
-0.180385
-0.177949
-0.174857
-0.173019
-0.170549
-0.169183
-0.167212
-0.166215
-0.164641
-0.163924
-0.162657
-0.162143
-0.161105
-0.160724
-0.159841
-0.159525
-0.158726
-0.15841
-0.157625
-0.157241
-0.156398
-0.155874
-0.154893
-0.154151
-0.152942
-0.15189
-0.150347
-0.148872
-0.146852
-0.253821
-0.241325
-0.232097
-0.222397
-0.215366
-0.207735
-0.202337
-0.196281
-0.192127
-0.187297
-0.184107
-0.180245
-0.177812
-0.174724
-0.172889
-0.170422
-0.169059
-0.167091
-0.166095
-0.164523
-0.163808
-0.162543
-0.162031
-0.160995
-0.160615
-0.159733
-0.159418
-0.158621
-0.158305
-0.157521
-0.157137
-0.156294
-0.15577
-0.154788
-0.154045
-0.152837
-0.151784
-0.150243
-0.148769
-0.14676
-0.253258
-0.240793
-0.231589
-0.221914
-0.214902
-0.207291
-0.201906
-0.195866
-0.191723
-0.186905
-0.183724
-0.179873
-0.177447
-0.174368
-0.172538
-0.170079
-0.16872
-0.166758
-0.165766
-0.164199
-0.163487
-0.162227
-0.161717
-0.160684
-0.160306
-0.159428
-0.159114
-0.158319
-0.158004
-0.157222
-0.156838
-0.155996
-0.155471
-0.15449
-0.153746
-0.15254
-0.151486
-0.149953
-0.148483
-0.146498
-0.252499
-0.240072
-0.230896
-0.221251
-0.21426
-0.206673
-0.201306
-0.195285
-0.191156
-0.186354
-0.183183
-0.179345
-0.176927
-0.173858
-0.172035
-0.169584
-0.16823
-0.166275
-0.165287
-0.163725
-0.163016
-0.16176
-0.161252
-0.160222
-0.159845
-0.158969
-0.158656
-0.157862
-0.157547
-0.156766
-0.156381
-0.155539
-0.155013
-0.154034
-0.153288
-0.152085
-0.151031
-0.149509
-0.148046
-0.146093
-0.251398
-0.239026
-0.229894
-0.220294
-0.213337
-0.205785
-0.200443
-0.194451
-0.190341
-0.185562
-0.182407
-0.178586
-0.176181
-0.173127
-0.171313
-0.168874
-0.167528
-0.165582
-0.1646
-0.163046
-0.162341
-0.161091
-0.160586
-0.159562
-0.159187
-0.158314
-0.158002
-0.157212
-0.156897
-0.156118
-0.155732
-0.154893
-0.154366
-0.153389
-0.152643
-0.151446
-0.150394
-0.148886
-0.147435
-0.145517
-0.250096
-0.23779
-0.228705
-0.219156
-0.212235
-0.204724
-0.199411
-0.193451
-0.189363
-0.184609
-0.181472
-0.177672
-0.17528
-0.172243
-0.170439
-0.168014
-0.166674
-0.16474
-0.163763
-0.162217
-0.161516
-0.160273
-0.15977
-0.15875
-0.158376
-0.157508
-0.157196
-0.156408
-0.156093
-0.155316
-0.15493
-0.154093
-0.153564
-0.152592
-0.151845
-0.150656
-0.149608
-0.148116
-0.146679
-0.144798
-0.248459
-0.236236
-0.227213
-0.217729
-0.210856
-0.203395
-0.198119
-0.1922
-0.188141
-0.18342
-0.180304
-0.176531
-0.174156
-0.17114
-0.169349
-0.166941
-0.165612
-0.163691
-0.162721
-0.161187
-0.16049
-0.159256
-0.158757
-0.157744
-0.157372
-0.156509
-0.156198
-0.155415
-0.1551
-0.154327
-0.153941
-0.153108
-0.15258
-0.151613
-0.150869
-0.149689
-0.148649
-0.147175
-0.145755
-0.143909
-0.24662
-0.234489
-0.225534
-0.216121
-0.2093
-0.201895
-0.196659
-0.190785
-0.186756
-0.182071
-0.178979
-0.175235
-0.172878
-0.169885
-0.168108
-0.165718
-0.164399
-0.162493
-0.16153
-0.160007
-0.159316
-0.15809
-0.157594
-0.156588
-0.156218
-0.155361
-0.15505
-0.154272
-0.153956
-0.153188
-0.152802
-0.151974
-0.151447
-0.150486
-0.149746
-0.148578
-0.147547
-0.146092
-0.144691
-0.142876
-0.244454
-0.232432
-0.223558
-0.214229
-0.20747
-0.200133
-0.194945
-0.189123
-0.185132
-0.180489
-0.177426
-0.173716
-0.171381
-0.168415
-0.166655
-0.164288
-0.162981
-0.161092
-0.160139
-0.15863
-0.157945
-0.15673
-0.156238
-0.155242
-0.154874
-0.154024
-0.153715
-0.152943
-0.152629
-0.151866
-0.151481
-0.15066
-0.150136
-0.149185
-0.148451
-0.147295
-0.146276
-0.144842
-0.143461
-0.141676
-0.242088
-0.230184
-0.221396
-0.212159
-0.205465
-0.1982
-0.193063
-0.187299
-0.183347
-0.17875
-0.175717
-0.172044
-0.169732
-0.166795
-0.165053
-0.162708
-0.161414
-0.159544
-0.1586
-0.157106
-0.156427
-0.155224
-0.154736
-0.153748
-0.153383
-0.15254
-0.152233
-0.151467
-0.151154
-0.150398
-0.150015
-0.149201
-0.148681
-0.14774
-0.147013
-0.145872
-0.144866
-0.143453
-0.142091
-0.140334
-0.239401
-0.227631
-0.218943
-0.209811
-0.203194
-0.196011
-0.190932
-0.185234
-0.181327
-0.176783
-0.173785
-0.170153
-0.167868
-0.164965
-0.163243
-0.160926
-0.159647
-0.157798
-0.156865
-0.155388
-0.154717
-0.153527
-0.153045
-0.152068
-0.151706
-0.150872
-0.150568
-0.14981
-0.1495
-0.148752
-0.148372
-0.147568
-0.147053
-0.146124
-0.145406
-0.144282
-0.14329
-0.141898
-0.140558
-0.138828
-0.236518
-0.224891
-0.216308
-0.207286
-0.20075
-0.193654
-0.188638
-0.183008
-0.179149
-0.174661
-0.171699
-0.168112
-0.165855
-0.162988
-0.161286
-0.158997
-0.157734
-0.155907
-0.154985
-0.153526
-0.152862
-0.151687
-0.15121
-0.150244
-0.149886
-0.149061
-0.14876
-0.14801
-0.147703
-0.146963
-0.146588
-0.145793
-0.145285
-0.144368
-0.14366
-0.142552
-0.141576
-0.140206
-0.138888
-0.137183
-0.233322
-0.221854
-0.21339
-0.204492
-0.198045
-0.191047
-0.1861
-0.180548
-0.176742
-0.172316
-0.169396
-0.165858
-0.163632
-0.160805
-0.159128
-0.15687
-0.155625
-0.153824
-0.152914
-0.151475
-0.150821
-0.149662
-0.149191
-0.148239
-0.147885
-0.147072
-0.146774
-0.146034
-0.145731
-0.145002
-0.144631
-0.143848
-0.143348
-0.142445
-0.141749
-0.140659
-0.139699
-0.138352
-0.137056
-0.135377
-0.229934
-0.218634
-0.210293
-0.201524
-0.195172
-0.188277
-0.183402
-0.177932
-0.174182
-0.16982
-0.166943
-0.163457
-0.161264
-0.158478
-0.156825
-0.154601
-0.153374
-0.151599
-0.150703
-0.149284
-0.148639
-0.147497
-0.147032
-0.146093
-0.145745
-0.144943
-0.144649
-0.14392
-0.14362
-0.142902
-0.142537
-0.141766
-0.141273
-0.140385
-0.139701
-0.13863
-0.137687
-0.136362
-0.135089
-0.133437
-0.226243
-0.215126
-0.206921
-0.198295
-0.192046
-0.185263
-0.180468
-0.175087
-0.171399
-0.167108
-0.164278
-0.160849
-0.158693
-0.155952
-0.154327
-0.152139
-0.150932
-0.149187
-0.148306
-0.146911
-0.146276
-0.145153
-0.144696
-0.143772
-0.143429
-0.14264
-0.142351
-0.141634
-0.14134
-0.140634
-0.140275
-0.139518
-0.139035
-0.138163
-0.137492
-0.13644
-0.135516
-0.134215
-0.132965
-0.131341
-0.222365
-0.211439
-0.203375
-0.194898
-0.188757
-0.182091
-0.177379
-0.172091
-0.168466
-0.16425
-0.161469
-0.158099
-0.15598
-0.153287
-0.15169
-0.14954
-0.148353
-0.146638
-0.145772
-0.144401
-0.143777
-0.142673
-0.142223
-0.141316
-0.140978
-0.140203
-0.139918
-0.139214
-0.138925
-0.138231
-0.137879
-0.137136
-0.136662
-0.135807
-0.13515
-0.134118
-0.133212
-0.131935
-0.130709
-0.129114
-0.218194
-0.207475
-0.199564
-0.191247
-0.185223
-0.178684
-0.174061
-0.168873
-0.165318
-0.161182
-0.158454
-0.155149
-0.153071
-0.150429
-0.148863
-0.146754
-0.145591
-0.143908
-0.143059
-0.141714
-0.141103
-0.140019
-0.139579
-0.138689
-0.138358
-0.137598
-0.137319
-0.136629
-0.136346
-0.135666
-0.135322
-0.134594
-0.134131
-0.133293
-0.13265
-0.13164
-0.130753
-0.129502
-0.128301
-0.126736
-0.213843
-0.203338
-0.195586
-0.187435
-0.181532
-0.175123
-0.170594
-0.16551
-0.162026
-0.157973
-0.155301
-0.152062
-0.150025
-0.147437
-0.145902
-0.143835
-0.142695
-0.141047
-0.140214
-0.138897
-0.138297
-0.137236
-0.136804
-0.135932
-0.135608
-0.134863
-0.13459
-0.133914
-0.133637
-0.132972
-0.132635
-0.131923
-0.13147
-0.130651
-0.130022
-0.129034
-0.128166
-0.126942
-0.125766
-0.124233
-0.20921
-0.198934
-0.191352
-0.183379
-0.177605
-0.171337
-0.166907
-0.161935
-0.158528
-0.154564
-0.15195
-0.148782
-0.146791
-0.144259
-0.142758
-0.140737
-0.139623
-0.138011
-0.137197
-0.135909
-0.135323
-0.134286
-0.133864
-0.133011
-0.132695
-0.131967
-0.131701
-0.13104
-0.13077
-0.13012
-0.129792
-0.129097
-0.128655
-0.127855
-0.127242
-0.126277
-0.12543
-0.124233
-0.123084
-0.121584
-0.204404
-0.194365
-0.186957
-0.179169
-0.173528
-0.167404
-0.163076
-0.158219
-0.154891
-0.151019
-0.148465
-0.145371
-0.143426
-0.140953
-0.139487
-0.137513
-0.136424
-0.134849
-0.134055
-0.132796
-0.132224
-0.13121
-0.130799
-0.129966
-0.129657
-0.128946
-0.128686
-0.128042
-0.127778
-0.127144
-0.126825
-0.126146
-0.125716
-0.124936
-0.124339
-0.123397
-0.12257
-0.121402
-0.12028
-0.118815
-0.199329
-0.189541
-0.182318
-0.174725
-0.169225
-0.163255
-0.159036
-0.1543
-0.151056
-0.147281
-0.144792
-0.141776
-0.13988
-0.13747
-0.136041
-0.134117
-0.133056
-0.131521
-0.130747
-0.12952
-0.128964
-0.127976
-0.127575
-0.126764
-0.126463
-0.125771
-0.125519
-0.124891
-0.124635
-0.124018
-0.123708
-0.123048
-0.12263
-0.121871
-0.121289
-0.120372
-0.119568
-0.118429
-0.117336
-0.115907
-0.19409
-0.184559
-0.177527
-0.170134
-0.164779
-0.158967
-0.154859
-0.150249
-0.147091
-0.143415
-0.140993
-0.138056
-0.13621
-0.133864
-0.132473
-0.1306
-0.129567
-0.128073
-0.12732
-0.126126
-0.125584
-0.124622
-0.124233
-0.123443
-0.123151
-0.122478
-0.122233
-0.121622
-0.121374
-0.120774
-0.120473
-0.119831
-0.119425
-0.118687
-0.118122
-0.11723
-0.116448
-0.11534
-0.114276
-0.112885
-0.188594
-0.179334
-0.172503
-0.16532
-0.160119
-0.154472
-0.150482
-0.146004
-0.142936
-0.139366
-0.137013
-0.134161
-0.132368
-0.130089
-0.128739
-0.12692
-0.125918
-0.124467
-0.123736
-0.122576
-0.122051
-0.121117
-0.120739
-0.119973
-0.119691
-0.119037
-0.1188
-0.118208
-0.117968
-0.117386
-0.117095
-0.116472
-0.116079
-0.115363
-0.114816
-0.11395
-0.113191
-0.112115
-0.111082
-0.109731
-0.182943
-0.173962
-0.167336
-0.160369
-0.155324
-0.149847
-0.145978
-0.141634
-0.138659
-0.135197
-0.132915
-0.130148
-0.12841
-0.1262
-0.124891
-0.123126
-0.122155
-0.120748
-0.120039
-0.118915
-0.118405
-0.1175
-0.117134
-0.116392
-0.116118
-0.115485
-0.115256
-0.114682
-0.11445
-0.113887
-0.113605
-0.113002
-0.112622
-0.111928
-0.111398
-0.110559
-0.109824
-0.108781
-0.107779
-0.106468
-0.17705
-0.16836
-0.161949
-0.155207
-0.150326
-0.145027
-0.141283
-0.137081
-0.134203
-0.130853
-0.128646
-0.12597
-0.124289
-0.122151
-0.120885
-0.119179
-0.118239
-0.116879
-0.116194
-0.115107
-0.114615
-0.11374
-0.113387
-0.112669
-0.112405
-0.111794
-0.111573
-0.111019
-0.110796
-0.110251
-0.10998
-0.109398
-0.109031
-0.108361
-0.107849
-0.107038
-0.106327
-0.105318
-0.10435
-0.103081
-0.171014
-0.16262
-0.156428
-0.149917
-0.145203
-0.140085
-0.13647
-0.132412
-0.129632
-0.126398
-0.124266
-0.121682
-0.120059
-0.117995
-0.116772
-0.115125
-0.114218
-0.112904
-0.112243
-0.111194
-0.110719
-0.109875
-0.109534
-0.108842
-0.108588
-0.107998
-0.107785
-0.107251
-0.107036
-0.106511
-0.10625
-0.105689
-0.105336
-0.104689
-0.104196
-0.103413
-0.102727
-0.101753
-0.100818
-0.0995928
-0.164748
-0.156663
-0.1507
-0.144429
-0.139889
-0.13496
-0.131478
-0.12757
-0.124894
-0.121779
-0.119727
-0.117239
-0.115676
-0.113689
-0.112512
-0.110926
-0.110054
-0.108789
-0.108153
-0.107144
-0.106688
-0.105875
-0.105548
-0.104882
-0.104639
-0.104071
-0.103868
-0.103354
-0.103148
-0.102644
-0.102394
-0.101854
-0.101515
-0.100893
-0.100419
-0.0996657
-0.099006
-0.0980682
-0.0971681
-0.0959876
-0.158351
-0.150581
-0.14485
-0.138823
-0.13446
-0.129723
-0.126377
-0.122622
-0.12005
-0.117057
-0.115085
-0.112694
-0.111193
-0.109284
-0.108153
-0.10663
-0.105792
-0.104577
-0.103967
-0.102997
-0.102559
-0.101779
-0.101465
-0.100826
-0.100593
-0.100048
-0.0998532
-0.0993604
-0.0991636
-0.0986798
-0.0984401
-0.0979221
-0.0975972
-0.0970002
-0.0965453
-0.095822
-0.0951886
-0.0942878
-0.0934231
-0.0922887
-0.15174
-0.144296
-0.138805
-0.133031
-0.128852
-0.124314
-0.12111
-0.117512
-0.115049
-0.112183
-0.110294
-0.108005
-0.106568
-0.104739
-0.103657
-0.102198
-0.101396
-0.100234
-0.0996499
-0.0987219
-0.0983035
-0.0975573
-0.0972579
-0.0966464
-0.0964239
-0.0959034
-0.0957179
-0.0952469
-0.0950595
-0.094597
-0.0943685
-0.0938733
-0.0935631
-0.0929921
-0.0925571
-0.0918648
-0.0912588
-0.090396
-0.089568
-0.0884812
-0.14501
-0.137897
-0.13265
-0.127133
-0.12314
-0.118805
-0.115743
-0.112306
-0.109953
-0.107214
-0.105411
-0.103224
-0.101851
-0.100104
-0.099071
-0.0976776
-0.0969121
-0.0958018
-0.0952446
-0.0943586
-0.0939595
-0.0932473
-0.092962
-0.0923784
-0.0921666
-0.09167
-0.0914936
-0.0910444
-0.0908662
-0.0904252
-0.0902077
-0.0897353
-0.0894398
-0.0888949
-0.0884801
-0.0878192
-0.0872407
-0.0864168
-0.085626
-0.0845878
-0.138082
-0.13131
-0.126316
-0.121064
-0.117263
-0.113136
-0.110222
-0.106951
-0.104712
-0.102105
-0.100389
-0.098308
-0.0970022
-0.0953402
-0.0943579
-0.0930324
-0.0923049
-0.0912489
-0.0907196
-0.0898772
-0.0894984
-0.0888215
-0.0885511
-0.0879967
-0.0877963
-0.0873247
-0.087158
-0.0867315
-0.0865631
-0.0861443
-0.0859385
-0.0854897
-0.0852094
-0.0846916
-0.0842976
-0.0836691
-0.0831191
-0.0823352
-0.0815828
-0.0805945
-0.131049
-0.124622
-0.119883
-0.1149
-0.111293
-0.107377
-0.104613
-0.101509
-0.099385
-0.0969123
-0.0952847
-0.0933104
-0.092072
-0.0904957
-0.0895643
-0.0883073
-0.0876176
-0.0866164
-0.086115
-0.0853164
-0.0849578
-0.0843163
-0.0840606
-0.0835353
-0.0833461
-0.0828995
-0.0827422
-0.0823383
-0.0821795
-0.081783
-0.0815886
-0.0811636
-0.0808985
-0.0804079
-0.0800349
-0.0794391
-0.0789179
-0.0781745
-0.077461
-0.0765234
-0.123833
-0.117762
-0.113286
-0.108578
-0.105172
-0.101473
-0.0988624
-0.0959312
-0.0939257
-0.0915907
-0.0900542
-0.0881901
-0.0870214
-0.0855333
-0.0846547
-0.0834683
-0.0828181
-0.0818734
-0.081401
-0.0806478
-0.0803104
-0.0797056
-0.0794653
-0.0789703
-0.0787928
-0.0783722
-0.0782249
-0.0778446
-0.0776958
-0.0773223
-0.0771399
-0.0767395
-0.0764902
-0.0760276
-0.0756762
-0.0751141
-0.0746225
-0.0739206
-0.0732472
-0.0723617
-0.116526
-0.110814
-0.106603
-0.102174
-0.0989697
-0.0954904
-0.0930348
-0.0902776
-0.0883916
-0.0861955
-0.0847508
-0.0829978
-0.0818991
-0.0805
-0.0796742
-0.078559
-0.0779482
-0.0770603
-0.0766168
-0.0759091
-0.0755926
-0.0750246
-0.0747995
-0.0743348
-0.0741688
-0.0737741
-0.0736365
-0.0732797
-0.0731407
-0.0727903
-0.0726197
-0.0722439
-0.0720103
-0.0715759
-0.0712461
-0.070718
-0.0702562
-0.0695965
-0.0689635
-0.0681308
-0.109054
-0.10371
-0.0997705
-0.0956274
-0.0926304
-0.089376
-0.0870796
-0.084501
-0.0827376
-0.0806841
-0.0793336
-0.0776948
-0.0766682
-0.0753604
-0.0745892
-0.0735471
-0.072977
-0.0721476
-0.0717341
-0.0710734
-0.0707787
-0.0702486
-0.0700395
-0.0696061
-0.0694522
-0.0690842
-0.0689569
-0.0686244
-0.0684957
-0.0681691
-0.0680107
-0.0676603
-0.0674429
-0.0670375
-0.06673
-0.0662368
-0.0658056
-0.0651889
-0.0645973
-0.0638186
-0.101504
-0.0965312
-0.0928659
-0.0890109
-0.0862226
-0.0831948
-0.0810587
-0.0786599
-0.07702
-0.07511
-0.0738543
-0.0723302
-0.0713759
-0.07016
-0.0694434
-0.0684747
-0.0679454
-0.0671747
-0.066791
-0.0661773
-0.0659042
-0.0654121
-0.0652186
-0.0648164
-0.0646744
-0.0643331
-0.0642158
-0.0639074
-0.0637888
-0.063486
-0.0633397
-0.0630146
-0.0628134
-0.0624371
-0.0621519
-0.0616937
-0.0612933
-0.0607202
-0.0601704
-0.0594462
-0.0938074
-0.0892136
-0.0858282
-0.0822675
-0.0796926
-0.0768963
-0.0749242
-0.0727093
-0.0711956
-0.0694324
-0.0682738
-0.0668672
-0.0659871
-0.0648653
-0.0642048
-0.0633114
-0.0628239
-0.0621135
-0.0617607
-0.0611952
-0.0609446
-0.0604914
-0.0603143
-0.0599443
-0.0598147
-0.0595008
-0.059394
-0.0591106
-0.0590025
-0.0587241
-0.0585904
-0.0582914
-0.0581067
-0.0577602
-0.0574979
-0.0570756
-0.0567067
-0.056178
-0.0556708
-0.0550023
-0.0860479
-0.0818356
-0.0787319
-0.0754671
-0.0731068
-0.0705435
-0.068736
-0.066706
-0.0653191
-0.0637033
-0.0626422
-0.0613535
-0.0605478
-0.0595203
-0.058916
-0.058098
-0.0576523
-0.0570021
-0.05668
-0.0561628
-0.0559343
-0.0555201
-0.0553591
-0.0550211
-0.0549036
-0.0546171
-0.0545206
-0.0542619
-0.0541642
-0.0539101
-0.0537888
-0.0535157
-0.0533476
-0.053031
-0.0527916
-0.0524053
-0.052068
-0.051584
-0.0511198
-0.0505075
-0.0781595
-0.0743356
-0.0715188
-0.0685557
-0.066414
-0.064088
-0.0624485
-0.0606069
-0.0593494
-0.057884
-0.0569223
-0.055754
-0.0550242
-0.0540931
-0.0535463
-0.0528054
-0.0524026
-0.0518141
-0.0515235
-0.0510557
-0.0508502
-0.0504759
-0.0503316
-0.0500265
-0.0499217
-0.0496633
-0.0495774
-0.0493442
-0.0492572
-0.0490281
-0.0489196
-0.0486731
-0.048522
-0.0482359
-0.0480199
-0.0476703
-0.0473653
-0.0469268
-0.0465063
-0.045951
-0.0702236
-0.0667899
-0.0642612
-0.0616008
-0.0596786
-0.0575907
-0.0561197
-0.0544671
-0.0533393
-0.0520247
-0.0511626
-0.0501149
-0.0494611
-0.0486265
-0.0481371
-0.0474733
-0.0471133
-0.0465864
-0.0463271
-0.0459087
-0.0457257
-0.0453913
-0.0452634
-0.044991
-0.0448985
-0.0446681
-0.0445926
-0.0443848
-0.0443082
-0.044104
-0.0440081
-0.0437882
-0.043654
-0.0433983
-0.0432057
-0.042893
-0.0426203
-0.0422276
-0.041851
-0.0413532
-0.0621771
-0.0591398
-0.0569036
-0.0545509
-0.0528517
-0.0510058
-0.0497061
-0.0482456
-0.0472497
-0.0460885
-0.0453279
-0.0444029
-0.0438266
-0.0430902
-0.0426593
-0.0420742
-0.0417579
-0.0412938
-0.0410667
-0.0406986
-0.040539
-0.0402452
-0.0401343
-0.0398954
-0.0398158
-0.039614
-0.0395493
-0.0393674
-0.0393017
-0.0391229
-0.03904
-0.0388472
-0.0387303
-0.0385057
-0.0383369
-0.0380617
-0.0378218
-0.0374755
-0.0371436
-0.036704
-0.0540989
-0.0514588
-0.0495159
-0.0474714
-0.0459956
-0.0443921
-0.0432639
-0.0419959
-0.0411319
-0.0401242
-0.0394649
-0.0386627
-0.0381638
-0.0375255
-0.0371531
-0.0366465
-0.0363736
-0.0359723
-0.0357769
-0.0354591
-0.0353225
-0.0350692
-0.0349749
-0.0347693
-0.0347023
-0.0345288
-0.0344747
-0.0343186
-0.0342635
-0.03411
-0.0340399
-0.0338741
-0.0337743
-0.0335808
-0.0334358
-0.033198
-0.0329911
-0.0326914
-0.0324041
-0.0320231
-0.0459288
-0.0436911
-0.0420453
-0.0403132
-0.0390637
-0.0377061
-0.0367517
-0.0356787
-0.0349487
-0.0340967
-0.0335403
-0.0328627
-0.0324424
-0.0319039
-0.0315909
-0.031164
-0.0309355
-0.0305979
-0.0304352
-0.0301684
-0.0300554
-0.0298434
-0.0297663
-0.0295947
-0.0295405
-0.0293961
-0.029353
-0.0292231
-0.029179
-0.0290513
-0.0289943
-0.028856
-0.0287737
-0.0286117
-0.0284909
-0.0282912
-0.0281176
-0.027865
-0.0276231
-0.0273012
-0.0377429
-0.0359078
-0.0345592
-0.0331395
-0.0321164
-0.0310044
-0.0302238
-0.0293458
-0.0287495
-0.0280531
-0.0275994
-0.0270461
-0.0267042
-0.0262652
-0.0260113
-0.025664
-0.0254795
-0.0252055
-0.0250749
-0.024859
-0.0247693
-0.0245983
-0.024538
-0.0244001
-0.0243587
-0.024243
-0.0242105
-0.0241067
-0.0240734
-0.0239712
-0.0239272
-0.0238162
-0.0237513
-0.0236207
-0.023524
-0.0233622
-0.023222
-0.0230167
-0.02282
-0.0225575
-0.0294841
-0.0280558
-0.0270075
-0.0259036
-0.0251093
-0.0242458
-0.0236409
-0.0229601
-0.0224991
-0.02196
-0.0216103
-0.0211829
-0.0209205
-0.0205822
-0.0203884
-0.0201217
-0.019982
-0.0197724
-0.0196747
-0.0195104
-0.0194446
-0.0193152
-0.0192722
-0.0191686
-0.0191402
-0.0190539
-0.0190323
-0.0189551
-0.0189328
-0.0188567
-0.0188259
-0.0187427
-0.0186954
-0.0185967
-0.0185244
-0.018401
-0.0182945
-0.0181369
-0.017986
-0.0177834
-0.0212257
-0.0202037
-0.0194552
-0.0186665
-0.0181006
-0.017485
-0.0170554
-0.0165713
-0.0162452
-0.015863
-0.0156169
-0.015315
-0.0151316
-0.0148937
-0.0147596
-0.014573
-0.0144777
-0.0143322
-0.014267
-0.014154
-0.0141116
-0.0140236
-0.0139976
-0.0139279
-0.0139123
-0.013855
-0.0138442
-0.0137932
-0.0137817
-0.0137314
-0.0137136
-0.013658
-0.0136282
-0.0135611
-0.0135131
-0.0134281
-0.0133553
-0.0132452
-0.0131402
-0.0129974
-0.0129135
-0.0123009
-0.0118548
-0.0113838
-0.0110483
-0.0106826
-0.01043
-0.0101443
-0.00995438
-0.00973051
-0.00958908
-0.00941384
-0.00931031
-0.00917381
-0.00910012
-0.00899463
-0.00894437
-0.00886365
-0.00883157
-0.00877039
-0.00875201
-0.00870584
-0.00869723
-0.00866204
-0.00865957
-0.00863162
-0.00863188
-0.00860758
-0.0086072
-0.008583
-0.00857857
-0.00855085
-0.00853882
-0.0085038
-0.00848038
-0.00843403
-0.00839509
-0.00833303
-0.00827405
-0.00819149
-0.00461803
-0.00441366
-0.00426869
-0.00411444
-0.00400835
-0.0038917
-0.0038151
-0.00372699
-0.00367261
-0.00360635
-0.00356897
-0.00351976
-0.00349561
-0.00345991
-0.00344613
-0.00342121
-0.00341554
-0.00339915
-0.00339971
-0.00339
-0.00339519
-0.00339052
-0.00339893
-0.00339785
-0.00340818
-0.00340933
-0.00342034
-0.00342241
-0.00343287
-0.00343456
-0.00344321
-0.00344317
-0.00344869
-0.00344551
-0.00344647
-0.00343863
-0.00343347
-0.00341927
-0.00340626
-0.00338385
0.00371207
0.00350603
0.00334804
0.00318379
0.00305905
0.00292516
0.00282453
0.0027138
0.00263172
0.00253933
0.00247185
0.00239414
0.00233823
0.00227235
0.00222561
0.00216931
0.00212988
0.00208135
0.00204769
0.00200543
0.00197626
0.00193898
0.00191319
0.00187976
0.00185631
0.00182571
0.00180366
0.00177489
0.00175333
0.00172546
0.00170349
0.00167557
0.00165227
0.00162335
0.00159777
0.00156688
0.00153804
0.00150415
0.00147097
0.00143301
0.0120089
0.0113946
0.0109353
0.0104543
0.0101001
0.00971708
0.00944033
0.00913196
0.00891436
0.00866433
0.0084928
0.00828905
0.00815375
0.00798706
0.00788041
0.00774354
0.00765953
0.00754666
0.00748038
0.00738664
0.00733392
0.00725515
0.00721234
0.00714482
0.00710859
0.00704889
0.00701611
0.00696098
0.0069286
0.00687484
0.0068398
0.0067842
0.00674336
0.0066826
0.00663263
0.00656323
0.00650059
0.00641883
0.00633967
0.00624154
0.0203213
0.0192974
0.0185358
0.0177369
0.0171524
0.0165194
0.0160657
0.015559
0.0152052
0.0147969
0.0145207
0.0141904
0.0139752
0.0137072
0.0135402
0.0133223
0.0131933
0.0130156
0.0129164
0.0127708
0.0126942
0.0125736
0.0125134
0.0124115
0.0123622
0.0122732
0.0122294
0.0121476
0.0121042
0.0120243
0.011976
0.0118925
0.0118339
0.0117412
0.0116666
0.0115586
0.011462
0.0113323
0.011207
0.0110487
0.0285839
0.0271534
0.0260917
0.0249773
0.0241642
0.0232831
0.0226541
0.0219505
0.0214618
0.0208964
0.0205167
0.0200608
0.0197666
0.0193981
0.0191715
0.0188734
0.0187
0.0184583
0.0183265
0.0181297
0.0180296
0.0178677
0.0177907
0.0176548
0.0175928
0.0174748
0.0174203
0.0173123
0.0172581
0.0171525
0.0170911
0.0169801
0.0169041
0.0167796
0.0166808
0.0165344
0.0164041
0.0162267
0.0160557
0.0158374
0.036843
0.0350055
0.0336434
0.0322132
0.0311712
0.0300417
0.029237
0.0283362
0.0277122
0.0269896
0.026506
0.0259243
0.0255507
0.0250816
0.024795
0.0244164
0.0241984
0.0238923
0.0237278
0.0234795
0.0233557
0.0231523
0.023058
0.022888
0.022813
0.0226658
0.0226005
0.022466
0.0224009
0.0222693
0.0221948
0.0220561
0.0219624
0.0218061
0.0216829
0.0214981
0.0213342
0.0211091
0.0208922
0.0206141
0.045036
0.0427952
0.0411355
0.0393925
0.0381238
0.0367483
0.0357696
0.0346736
0.0339158
0.0330375
0.0324511
0.031745
0.031293
0.0307244
0.0303787
0.0299205
0.0296585
0.0292889
0.0290922
0.0287931
0.0286461
0.0284017
0.0282906
0.0280869
0.0279994
0.0278235
0.0277475
0.0275871
0.0275113
0.0273541
0.0272667
0.0271007
0.0269897
0.026802
0.0266547
0.0264318
0.0262345
0.0259622
0.0256999
0.0253624
0.0532065
0.050563
0.0486062
0.0465507
0.0450557
0.0434343
0.0422818
0.0409908
0.0400992
0.0390653
0.0383761
0.0375455
0.0370151
0.0363469
0.0359419
0.0354041
0.0350979
0.0346648
0.0344357
0.0340856
0.0339152
0.0336297
0.0335017
0.0332642
0.0331638
0.0329591
0.0328724
0.0326858
0.0325991
0.0324163
0.0323159
0.0321225
0.0319941
0.0317749
0.0316035
0.0313426
0.031112
0.0307925
0.0304849
0.0300881
0.0612946
0.0582529
0.0560023
0.0536379
0.0519192
0.0500549
0.0487307
0.047247
0.0462233
0.0450357
0.044245
0.0432916
0.0426838
0.0419174
0.0414539
0.0408377
0.040488
0.0399922
0.0397313
0.0393311
0.0391377
0.0388118
0.0386672
0.0383965
0.0382837
0.0380506
0.0379535
0.0377412
0.037644
0.037436
0.0373229
0.0371024
0.036957
0.0367067
0.0365115
0.0362132
0.0359496
0.0355834
0.035231
0.0347756
0.0693416
0.0659034
0.0633601
0.0606879
0.0587461
0.0566399
0.0551444
0.0534686
0.0523131
0.0509723
0.0500804
0.0490044
0.0483194
0.0474549
0.0469331
0.0462384
0.0458453
0.0452868
0.044994
0.0445437
0.0443272
0.0439609
0.0437996
0.0434956
0.0433702
0.0431087
0.043001
0.042763
0.0426551
0.0424219
0.0422959
0.0420485
0.0418859
0.0416047
0.0413857
0.04105
0.0407535
0.0403409
0.0399439
0.0394301
0.0772901
0.0734605
0.0706285
0.0676528
0.0654911
0.0631461
0.0614819
0.0596167
0.0583313
0.0568395
0.0558479
0.0546511
0.0538901
0.052929
0.0523499
0.051578
0.0511422
0.0505221
0.0501981
0.0496985
0.0494595
0.0490534
0.0488759
0.0485393
0.0484016
0.0481123
0.0479943
0.0477311
0.0476129
0.0473549
0.0472164
0.0469425
0.046763
0.0464513
0.046209
0.0458363
0.0455075
0.045049
0.044608
0.0440366
0.0851792
0.0809608
0.0778418
0.0745644
0.0721841
0.0696018
0.0677697
0.0657162
0.0643017
0.0626596
0.0615688
0.0602519
0.0594151
0.0583579
0.0577215
0.0568728
0.0563944
0.0557129
0.0553577
0.0548089
0.0545473
0.0541016
0.0539076
0.0535384
0.0533884
0.0530713
0.0529429
0.0526545
0.0525258
0.052243
0.052092
0.0517917
0.0515954
0.0512533
0.0509877
0.0505784
0.0502174
0.0497134
0.0492286
0.0486
0.092954
0.0883528
0.0849514
0.081377
0.0787816
0.0759658
0.0739686
0.0717298
0.0701883
0.0683984
0.0672101
0.0657751
0.0648639
0.0637122
0.0630198
0.0620956
0.0615755
0.0608337
0.0604479
0.059851
0.0595673
0.0590827
0.0588729
0.0584717
0.0583098
0.0579655
0.057827
0.0575139
0.0573751
0.0570681
0.0569048
0.0565786
0.0563659
0.055994
0.0557055
0.0552601
0.0548674
0.0543185
0.0537907
0.0531058
0.100651
0.0956709
0.0919895
0.0881207
0.085312
0.0822646
0.0801037
0.0776812
0.0760136
0.0740772
0.072792
0.0712398
0.0702547
0.0690093
0.0682609
0.0672618
0.0667001
0.0658985
0.0654822
0.0648373
0.0645316
0.0640083
0.0637825
0.0633496
0.0631756
0.0628041
0.0626556
0.0623178
0.0621688
0.0618377
0.0616622
0.0613101
0.061081
0.0606795
0.0603683
0.0598871
0.059463
0.0588697
0.0582992
0.0575585
0.108219
0.102866
0.0989096
0.0947518
0.0917337
0.088459
0.0861374
0.0835346
0.0817433
0.0796631
0.078283
0.0766158
0.0755583
0.0742209
0.073418
0.0723454
0.0717431
0.0708828
0.0704368
0.069745
0.0694178
0.0688568
0.0686155
0.0681515
0.0679659
0.0675678
0.0674095
0.0670478
0.0668889
0.0665342
0.0663468
0.0659695
0.0657244
0.0652938
0.0649604
0.0644441
0.0639892
0.0633522
0.0627398
0.0619442
0.115692
0.109971
0.105742
0.101299
0.0980737
0.0945742
0.0920936
0.0893124
0.0873987
0.0851762
0.0837021
0.0819211
0.0807919
0.0793635
0.0785064
0.077361
0.0767183
0.0757999
0.0753243
0.0745859
0.0742374
0.0736388
0.073382
0.0728871
0.0726898
0.0722655
0.0720973
0.0717117
0.0715429
0.0711648
0.0709654
0.0705631
0.0703021
0.0698428
0.0694873
0.0689362
0.0684509
0.0677708
0.0671169
0.0662672
0.123021
0.116938
0.112444
0.10772
0.104292
0.100572
0.0979362
0.0949804
0.092947
0.0905852
0.0890192
0.0871269
0.0859276
0.0844101
0.0835001
0.0822836
0.0816016
0.0806264
0.080122
0.0793383
0.0789689
0.0783337
0.0780619
0.077537
0.0773284
0.0768784
0.0767008
0.0762919
0.0761136
0.0757126
0.0755017
0.0750749
0.0747985
0.074311
0.073934
0.0733489
0.0728337
0.0721114
0.0714169
0.0705141
0.130237
0.123799
0.119042
0.114042
0.110414
0.106478
0.103688
0.10056
0.0984084
0.0959092
0.0942524
0.0922502
0.0909816
0.0893762
0.0884139
0.0871271
0.0864061
0.0853748
0.0848419
0.0840132
0.0836232
0.0829517
0.082665
0.0821102
0.0818904
0.0814149
0.0812278
0.0807959
0.080608
0.0801844
0.079962
0.0795111
0.0792192
0.078704
0.0783057
0.0776871
0.0771424
0.0763785
0.075644
0.074689
0.137294
0.130509
0.125495
0.120226
0.116403
0.112254
0.109315
0.106018
0.103752
0.101118
0.0993729
0.0972634
0.0959273
0.0942362
0.093223
0.0918677
0.0911089
0.0900228
0.0894622
0.0885897
0.0881798
0.0874731
0.0871719
0.0865881
0.0863575
0.0858573
0.0856611
0.0852067
0.0850097
0.0845641
0.0843306
0.0838561
0.0835493
0.083007
0.082588
0.0819366
0.0813633
0.0805586
0.0797851
0.0787789
0.144224
0.137097
0.131831
0.126297
0.122282
0.117925
0.114838
0.111376
0.108996
0.10623
0.104398
0.102183
0.10078
0.0990047
0.0979413
0.0965185
0.0957222
0.0945823
0.0939942
0.0930787
0.0926489
0.0919074
0.0915918
0.0909794
0.090738
0.0902134
0.0900081
0.0895316
0.0893254
0.088858
0.0886135
0.0881158
0.0877943
0.0872253
0.0867858
0.0861023
0.0855007
0.0846561
0.0838441
0.0827878
0.15098
0.14352
0.138009
0.132217
0.128014
0.123454
0.120224
0.116601
0.114111
0.111217
0.1093
0.106982
0.105515
0.103657
0.102545
0.101057
0.100224
0.0990319
0.0984174
0.0974599
0.097011
0.0962357
0.0959064
0.0952663
0.0950145
0.0944662
0.0942522
0.0937542
0.0935392
0.0930508
0.0927957
0.0922755
0.0919397
0.0913448
0.0908854
0.0901706
0.0895414
0.0886579
0.0878086
0.0867034
0.157593
0.149807
0.144055
0.13801
0.133624
0.128865
0.125494
0.121714
0.119115
0.116095
0.114095
0.111677
0.110146
0.108208
0.107048
0.105495
0.104627
0.103383
0.102742
0.101744
0.101276
0.100467
0.100124
0.099457
0.0991948
0.0986232
0.0984006
0.0978815
0.0976578
0.0971486
0.0968829
0.0963406
0.0959907
0.0953704
0.0948915
0.094146
0.0934899
0.0925682
0.0916823
0.0905292
0.164019
0.155916
0.149931
0.14364
0.139077
0.134125
0.130617
0.126684
0.12398
0.120838
0.118757
0.116241
0.114649
0.112633
0.111427
0.109812
0.108909
0.107615
0.106949
0.105911
0.105425
0.104584
0.104228
0.103534
0.103262
0.102668
0.102437
0.101898
0.101666
0.101137
0.100861
0.100297
0.0999336
0.0992887
0.0987909
0.0980156
0.0973333
0.0963747
0.0954532
0.0942536
0.170286
0.161875
0.155662
0.149131
0.144394
0.139254
0.135613
0.13153
0.128723
0.125462
0.123303
0.120691
0.119039
0.116946
0.115694
0.114018
0.113082
0.11174
0.111049
0.109971
0.109467
0.108595
0.108226
0.107507
0.107225
0.106609
0.106369
0.10581
0.10557
0.105021
0.104735
0.10415
0.103773
0.103104
0.102588
0.101784
0.101076
0.100081
0.099125
0.0978801
0.176354
0.167644
0.16121
0.154448
0.149543
0.14422
0.140451
0.136223
0.133317
0.129941
0.127705
0.125002
0.123291
0.121125
0.11983
0.118095
0.117126
0.115736
0.115022
0.113907
0.113386
0.112483
0.112102
0.111357
0.111066
0.110429
0.110182
0.109603
0.109355
0.108787
0.108492
0.107887
0.107497
0.106805
0.106271
0.105438
0.104706