/*--------------------------------*- C++ -*----------------------------------*\
| =========                 |                                                 |
| \\      /  F ield         | foam-extend: Open Source CFD                    |
|  \\    /   O peration     | Version:  3.0                                   |
|   \\  /    A nd           | Web:         http://www.extend-project.de       |
|    \\/     M anipulation  |                                                 |
\*---------------------------------------------------------------------------*/
FoamFile
{
    version     2.0;
    format      ascii;
    class       volSymmTensorField;
    location    "5";
    object      sigma;
}
// * * * * * * * * * * * * * * * * * * * * * * * * * * * * * * * * * * * * * //

dimensions      [0 0 0 0 0 0 0];

internalField   nonuniform List<symmTensor> 
7680
(
(-0.172634 -0.00254759 3.54729e-22 0.172603 -7.90751e-22 3.17634e-05)
(-0.17288 -0.00291898 5.53481e-22 0.172789 -1.54118e-21 9.11067e-05)
(-0.171018 -0.00315417 -1.08674e-23 0.170871 -4.91416e-21 0.000147491)
(-0.167729 -0.00328975 -5.72378e-22 0.167528 -5.57421e-21 0.000200815)
(-0.163489 -0.0033521 -7.57156e-22 0.163238 -5.16974e-21 0.000250963)
(-0.158632 -0.00336054 -1.49744e-21 0.158334 -3.0317e-21 0.000297807)
(-0.153397 -0.00332929 -1.25941e-21 0.153056 -1.78498e-21 0.000341217)
(-0.147952 -0.0032689 -1.66061e-21 0.147571 -8.20597e-22 0.000381043)
(-0.142415 -0.00318725 -1.64119e-21 0.141998 1.5812e-21 0.000417152)
(-0.136871 -0.00309022 -8.36547e-22 0.136422 -1.50157e-22 0.000449389)
(-0.131379 -0.00298225 -1.02792e-21 0.130901 -2.63412e-21 0.000477632)
(-0.125979 -0.00286667 -8.84716e-22 0.125478 -3.58005e-21 0.000501732)
(-0.120701 -0.00274598 -1.52628e-21 0.12018 -3.60618e-21 0.000521585)
(-0.115563 -0.0026221 -3.58296e-21 0.115026 -4.02586e-22 0.000537059)
(-0.110577 -0.00249648 -7.34959e-21 0.110029 1.58782e-21 0.000548079)
(-0.105749 -0.00237022 -7.60211e-21 0.105195 3.19695e-21 0.000554538)
(-0.101085 -0.00224415 -7.45533e-21 0.100529 6.54831e-21 0.0005564)
(-0.0965848 -0.00211894 -8.22939e-21 0.0960312 9.43129e-21 0.000553595)
(-0.0922481 -0.00199508 -1.13183e-20 0.0917019 1.0829e-20 0.000546142)
(-0.0880735 -0.00187297 -1.40331e-20 0.0875395 1.14494e-20 0.000534023)
(-0.0840588 -0.00175295 -2.07661e-20 0.0835415 1.0128e-20 0.000517331)
(-0.0802015 -0.00163529 -2.18089e-20 0.0797053 1.0673e-20 0.000496124)
(-0.0764987 -0.00152024 -2.2301e-20 0.0760281 1.26293e-20 0.00047059)
(-0.0729479 -0.00140805 -2.18232e-20 0.0725071 1.44931e-20 0.000440891)
(-0.0695467 -0.00129897 -2.18493e-20 0.0691394 1.47759e-20 0.000407345)
(-0.066293 -0.00119327 -2.16902e-20 0.0659227 1.89121e-20 0.00037025)
(-0.063185 -0.00109126 -1.94959e-20 0.062855 2.20512e-20 0.000330092)
(-0.0602217 -0.000993295 -1.51023e-20 0.0599344 2.12819e-20 0.000287355)
(-0.0574025 -0.000899788 -1.59837e-20 0.0571597 1.75916e-20 0.000242736)
(-0.0547274 -0.000811219 -1.85714e-20 0.0545304 1.37563e-20 0.000196961)
(-0.0521974 -0.000728146 -1.82386e-20 0.0520464 1.08565e-20 0.000150998)
(-0.0498141 -0.000651195 -1.26091e-20 0.0497082 8.20694e-21 0.000105878)
(-0.0475806 -0.000581057 -4.23011e-21 0.0475177 5.08432e-21 6.29114e-05)
(-0.0455009 -0.000518404 -1.54161e-21 0.0454774 6.91024e-21 2.35144e-05)
(-0.0435811 -0.000463794 -1.10192e-20 0.0435917 7.84713e-21 -1.05813e-05)
(-0.0418293 -0.000417271 -1.69636e-20 0.0418668 6.94062e-21 -3.74806e-05)
(-0.0402571 -0.000377768 -1.64548e-20 0.040312 2.12385e-21 -5.49371e-05)
(-0.0388798 -0.000341306 -5.97651e-21 0.0389403 2.85209e-21 -6.04719e-05)
(-0.037718 -0.000297554 -3.92637e-21 0.0377692 3.29512e-22 -5.12241e-05)
(-0.0367945 -0.00022035 -1.07183e-21 0.0368185 -1.9211e-21 -2.40228e-05)
(-0.172509 -0.00770446 1.04441e-21 0.172477 -1.41279e-21 3.18277e-05)
(-0.172647 -0.00891004 1.32654e-21 0.172556 -2.26466e-21 9.12882e-05)
(-0.170709 -0.00969947 3.85902e-22 0.170561 -5.41786e-21 0.000147786)
(-0.167364 -0.0101846 7.28895e-22 0.167163 -5.55696e-21 0.000201217)
(-0.163085 -0.0104462 1.6536e-21 0.162834 -5.77639e-21 0.000251468)
(-0.158202 -0.0105432 1.42075e-21 0.157904 -3.13636e-21 0.000298406)
(-0.152951 -0.0105193 1.08626e-21 0.152609 -1.95131e-21 0.000341905)
(-0.147495 -0.0104066 9.86296e-22 0.147113 1.02392e-22 0.000381814)
(-0.141954 -0.0102293 6.81431e-22 0.141536 3.61771e-21 0.000418002)
(-0.136409 -0.0100053 -1.38263e-21 0.135958 1.09315e-21 0.000450315)
(-0.130919 -0.00974817 -1.94428e-21 0.13044 -2.43376e-21 0.000478629)
(-0.125524 -0.00946819 -9.83753e-22 0.125021 -2.66173e-21 0.000502798)
(-0.120252 -0.0091731 -8.05633e-22 0.11973 -9.60734e-22 0.000522717)
(-0.115121 -0.00886881 -2.32946e-21 0.114583 2.32084e-21 0.000538254)
(-0.110143 -0.00855983 -5.91982e-21 0.109594 6.50914e-21 0.000549334)
(-0.105325 -0.0082496 -6.00568e-21 0.104769 9.12909e-21 0.000555849)
(-0.100669 -0.00794078 -5.40863e-21 0.100112 1.41449e-20 0.000557765)
(-0.0961783 -0.00763542 -4.35759e-21 0.0956233 1.22837e-20 0.000555011)
(-0.0918508 -0.00733511 -8.01107e-21 0.0913032 1.36042e-20 0.000547605)
(-0.0876853 -0.00704111 -1.39516e-20 0.0871497 1.13383e-20 0.000535531)
(-0.0836795 -0.00675441 -2.13942e-20 0.0831606 1.12233e-20 0.000518879)
(-0.0798307 -0.00647582 -2.06852e-20 0.079333 1.17032e-20 0.000497708)
(-0.0761363 -0.00620604 -1.92339e-20 0.0756641 1.45132e-20 0.000472206)
(-0.0725934 -0.00594569 -1.90906e-20 0.0721509 1.5126e-20 0.000442534)
(-0.0691998 -0.00569535 -2.26342e-20 0.0687908 2.14974e-20 0.000409007)
(-0.0659531 -0.00545559 -1.45638e-20 0.0655812 2.62446e-20 0.000371926)
(-0.0628519 -0.00522701 -1.31165e-20 0.0625201 2.98369e-20 0.000331774)
(-0.0598949 -0.00501026 -1.39758e-20 0.0596058 2.47733e-20 0.000289033)
(-0.0570815 -0.00480609 -1.77542e-20 0.0568371 2.08049e-20 0.000244401)
(-0.054412 -0.00461532 -1.9342e-20 0.0542134 1.8192e-20 0.0001986)
(-0.0518871 -0.00443889 -2.00821e-20 0.0517345 1.78262e-20 0.000152598)
(-0.0495088 -0.00427785 -2.00688e-20 0.0494014 1.72029e-20 0.000107423)
(-0.04728 -0.00413338 -9.36401e-21 0.0472156 8.68703e-21 6.43835e-05)
(-0.0452049 -0.00400657 3.7776e-21 0.0451801 1.10306e-21 2.48917e-05)
(-0.0432897 -0.00389847 -5.77603e-21 0.0432991 8.75343e-21 -9.32174e-06)
(-0.0415426 -0.00380942 -1.42651e-20 0.041579 1.08433e-20 -3.63681e-05)
(-0.0399753 -0.00373866 -2.0608e-20 0.0400293 1.07386e-20 -5.40022e-05)
(-0.0386028 -0.00368235 -6.27773e-21 0.0386626 1.21719e-20 -5.97534e-05)
(-0.0374457 -0.00363148 -7.9278e-21 0.0374964 7.4757e-21 -5.07613e-05)
(-0.036527 -0.00356329 -4.81023e-21 0.0365509 3.39489e-21 -2.38595e-05)
(-0.172263 -0.0128619 1.68047e-21 0.172231 -2.10852e-21 3.18078e-05)
(-0.172186 -0.0148845 2.13215e-21 0.172095 -3.78545e-21 9.12199e-05)
(-0.170092 -0.0162156 7.72032e-22 0.169944 -5.24009e-21 0.000147678)
(-0.166636 -0.017041 2.36082e-21 0.166435 -6.31357e-21 0.000201078)
(-0.162279 -0.017495 2.60521e-21 0.162028 -5.53529e-21 0.000251304)
(-0.157343 -0.0176759 3.71652e-21 0.157045 -3.43339e-21 0.000298223)
(-0.152056 -0.0176559 3.19941e-21 0.151714 -2.59532e-21 0.00034171)
(-0.14658 -0.0174887 4.74846e-21 0.146199 -5.14177e-22 0.000381615)
(-0.141029 -0.0172143 5.42923e-21 0.140611 1.34696e-21 0.000417807)
(-0.135482 -0.0168625 -1.12469e-21 0.135032 -5.92196e-22 0.000450133)
(-0.129996 -0.016456 -4.09093e-21 0.129518 -1.63459e-21 0.000478468)
(-0.12461 -0.0160117 -7.07033e-23 0.124108 -1.36998e-21 0.000502665)
(-0.119351 -0.0155426 3.32722e-21 0.118828 2.88629e-22 0.000522621)
(-0.114234 -0.0150585 1.18908e-21 0.113696 7.3267e-21 0.000538202)
(-0.109272 -0.0145669 -4.23712e-21 0.108723 1.69934e-20 0.000549333)
(-0.104471 -0.0140736 -4.58772e-21 0.103915 1.99765e-20 0.000555906)
(-0.0998339 -0.013583 1.3134e-21 0.099276 1.95228e-20 0.000557886)
(-0.0953611 -0.0130985 -8.93331e-21 0.0948059 1.66683e-20 0.000555201)
(-0.0910521 -0.0126229 -4.84497e-21 0.0905043 1.16332e-20 0.00054787)
(-0.086905 -0.012158 -1.62383e-20 0.0863691 1.34512e-20 0.000535875)
(-0.0829172 -0.0117057 -1.97196e-20 0.0823979 1.3227e-20 0.000519306)
(-0.079086 -0.0112673 -2.09653e-20 0.0785878 1.64429e-20 0.00049822)
(-0.0754086 -0.0108438 -1.79549e-20 0.0749358 1.94159e-20 0.000472805)
(-0.0718821 -0.0104363 -2.0722e-20 0.0714389 2.48419e-20 0.000443221)
(-0.0685041 -0.0100457 -9.42397e-21 0.0680943 3.23947e-20 0.000409781)
(-0.0652723 -0.00967282 -1.00539e-20 0.0648995 3.79479e-20 0.000372785)
(-0.0621852 -0.00931855 -1.05066e-20 0.0618525 4.04893e-20 0.000332714)
(-0.0592414 -0.00898384 -1.97687e-20 0.0589514 3.40624e-20 0.000290049)
(-0.0564406 -0.00866973 -1.81581e-20 0.0561951 2.80259e-20 0.000245484)
(-0.0537828 -0.00837736 -1.73819e-20 0.053583 2.49203e-20 0.000199739)
(-0.051269 -0.00810804 -1.32923e-20 0.0511152 2.66863e-20 0.00015378)
(-0.0489011 -0.00786319 -1.58529e-20 0.0487925 3.35823e-20 0.000108631)
(-0.0466823 -0.00764439 -2.39624e-20 0.0466167 2.37931e-20 6.55969e-05)
(-0.0446168 -0.0074531 -1.03946e-20 0.0445907 4.35695e-21 2.60845e-05)
(-0.042711 -0.00729074 2.80712e-21 0.0427191 1.90746e-20 -8.18011e-06)
(-0.0409731 -0.0071578 -9.25768e-21 0.0410084 1.93193e-20 -3.53151e-05)
(-0.0394146 -0.00705366 -1.15432e-20 0.0394677 2.20259e-20 -5.30813e-05)
(-0.0380505 -0.00697449 -1.47922e-21 0.0381095 2.38067e-20 -5.90169e-05)
(-0.0369 -0.00691204 -5.46021e-21 0.0369502 1.16599e-20 -5.02672e-05)
(-0.0359859 -0.00684582 -1.24311e-21 0.0360095 3.79819e-21 -2.36743e-05)
(-0.171895 -0.0180207 2.33105e-21 0.171863 -3.01274e-21 3.1758e-05)
(-0.171498 -0.0208318 3.64927e-21 0.171407 -5.81952e-21 9.10684e-05)
(-0.169172 -0.0226835 1.8021e-21 0.169025 -4.95499e-21 0.000147432)
(-0.16555 -0.0238338 3.07159e-21 0.165349 -6.79825e-21 0.000200746)
(-0.161076 -0.0244691 4.23518e-21 0.160825 -3.29507e-21 0.000250896)
(-0.15606 -0.0247257 5.61564e-21 0.155762 -3.58128e-21 0.00029775)
(-0.150721 -0.0247041 4.44176e-21 0.15038 -2.91983e-21 0.000341182)
(-0.145214 -0.0244785 5.55994e-21 0.144833 -8.57235e-22 0.000381042)
(-0.139648 -0.0241045 4.16901e-21 0.139231 -1.03604e-22 0.000417201)
(-0.134098 -0.0236237 -3.7662e-21 0.133649 1.03768e-21 0.000449505)
(-0.128619 -0.0230673 -4.67096e-21 0.128141 2.42564e-21 0.00047783)
(-0.123246 -0.0224588 -1.16271e-21 0.122744 1.74244e-21 0.00050203)
(-0.118004 -0.0218163 5.10074e-21 0.117482 9.9669e-22 0.000522)
(-0.112909 -0.0211534 1.12868e-20 0.112371 1.14216e-20 0.000537607)
(-0.107971 -0.0204804 1.17727e-20 0.107422 2.18421e-20 0.000548776)
(-0.103196 -0.0198054 2.65056e-21 0.102641 2.50548e-20 0.000555399)
(-0.0985857 -0.0191346 4.37768e-21 0.0980283 1.3747e-20 0.00055744)
(-0.0941405 -0.0184727 -5.38979e-21 0.0935857 1.75036e-20 0.000554826)
(-0.0898592 -0.0178233 -1.46081e-20 0.0893117 1.55235e-20 0.000547576)
(-0.0857396 -0.0171894 -1.13234e-20 0.0852039 1.8799e-20 0.000535671)
(-0.0817789 -0.0165732 -2.26659e-20 0.0812597 2.13221e-20 0.000519201)
(-0.0779741 -0.0159766 -1.67085e-20 0.0774759 2.57563e-20 0.000498222)
(-0.0743223 -0.0154012 -1.27247e-20 0.0738494 2.8187e-20 0.00047292)
(-0.0708205 -0.0148482 -3.77684e-21 0.0703771 3.14674e-20 0.000443454)
(-0.0674661 -0.0143189 6.96921e-22 0.067056 3.49058e-20 0.000410137)
(-0.0642569 -0.0138144 8.47056e-21 0.0638837 4.00263e-20 0.000373265)
(-0.0611912 -0.0133358 2.33447e-21 0.0608579 4.46736e-20 0.000333317)
(-0.0582677 -0.0128844 -1.6271e-20 0.0579769 4.30745e-20 0.000290773)
(-0.0554859 -0.0124615 -2.10679e-20 0.0552395 3.72954e-20 0.000246323)
(-0.052846 -0.0120684 -2.03327e-20 0.0526453 4.02567e-20 0.000200685)
(-0.0503491 -0.0117069 -4.54e-21 0.0501943 3.55348e-20 0.000154819)
(-0.0479971 -0.0113787 7.19643e-21 0.0478874 3.14286e-20 0.000109744)
(-0.0457933 -0.0110855 -2.52881e-20 0.0457266 3.46044e-20 6.67614e-05)
(-0.0437423 -0.0108292 -2.72221e-20 0.043715 2.79832e-20 2.72708e-05)
(-0.0418502 -0.0106113 2.21045e-20 0.0418572 3.36388e-20 -7.00894e-06)
(-0.0401255 -0.0104324 -1.09206e-21 0.0401597 2.5706e-20 -3.42046e-05)
(-0.0385794 -0.0102918 -2.33787e-21 0.0386315 2.51444e-20 -5.2086e-05)
(-0.0372263 -0.0101854 6.15822e-21 0.0372845 2.06444e-20 -5.8203e-05)
(-0.036084 -0.010105 -1.64723e-20 0.0361337 7.39814e-22 -4.97097e-05)
(-0.0351746 -0.0100311 -6.23453e-21 0.0351981 -7.61905e-21 -2.3461e-05)
(-0.171404 -0.0231812 2.48993e-21 0.171372 -2.90979e-21 3.16765e-05)
(-0.170585 -0.0267414 4.30804e-21 0.170494 -4.60659e-21 9.08279e-05)
(-0.167953 -0.0290845 3.88697e-21 0.167806 -6.05175e-21 0.000147041)
(-0.164112 -0.0305383 1.87942e-21 0.163912 -7.32417e-22 0.000200216)
(-0.159484 -0.0313393 5.86202e-21 0.159233 4.34227e-22 0.00025024)
(-0.154362 -0.0316604 5.92222e-21 0.154065 -3.67541e-21 0.000296981)
(-0.148955 -0.0316292 5.71207e-21 0.148615 -2.60239e-21 0.000340312)
(-0.143407 -0.03134 7.79001e-21 0.143027 -3.83276e-23 0.000380086)
(-0.137821 -0.0308632 6.26451e-21 0.137405 2.46382e-21 0.000416173)
(-0.132268 -0.0302514 -2.46144e-21 0.13182 8.16717e-21 0.000448421)
(-0.126797 -0.0295443 -4.95293e-21 0.12632 9.23278e-21 0.000476706)
(-0.121441 -0.0287719 -5.00584e-21 0.12094 9.27952e-21 0.000500882)
(-0.116223 -0.0279568 3.68071e-21 0.115702 5.21109e-21 0.000520845)
(-0.111156 -0.0271163 2.30633e-20 0.11062 8.67855e-21 0.000536461)
(-0.106251 -0.0262636 2.19442e-20 0.105703 1.52528e-20 0.000547656)
(-0.10151 -0.025409 1.01913e-20 0.100956 1.46975e-20 0.00055432)
(-0.0969353 -0.0245601 -6.58741e-21 0.0963789 8.93602e-21 0.000556417)
(-0.0925266 -0.023723 7.16789e-22 0.0919728 1.62526e-20 0.000553877)
(-0.0882821 -0.0229023 -5.18819e-21 0.0877354 2.01775e-20 0.000546714)
(-0.084199 -0.0221017 -7.71407e-21 0.083664 2.38784e-20 0.000534912)
(-0.0802742 -0.021324 -1.8545e-20 0.0797557 3.72143e-20 0.000518557)
(-0.0765046 -0.0205717 -1.46903e-20 0.0760069 3.80405e-20 0.000497707)
(-0.0728869 -0.0198465 -3.33866e-21 0.0724144 2.54913e-20 0.000472545)
(-0.069418 -0.0191503 -2.70331e-21 0.0689748 2.63228e-20 0.000443229)
(-0.0660952 -0.0184844 1.75842e-21 0.0656851 4.04877e-20 0.000410068)
(-0.0629161 -0.0178503 1.08602e-20 0.0625427 3.99553e-20 0.00037336)
(-0.0598789 -0.0172493 1.95548e-20 0.0595454 3.49246e-20 0.000333578)
(-0.0569825 -0.0166829 -4.96412e-21 0.0566913 4.22107e-20 0.000291201)
(-0.0542263 -0.0161526 -1.26622e-20 0.0539794 4.29638e-20 0.000246914)
(-0.0516105 -0.0156602 2.79283e-21 0.0514091 3.82103e-20 0.00020143)
(-0.0491362 -0.0152074 2.73011e-21 0.0489805 1.45607e-20 0.000155705)
(-0.0468055 -0.0147961 1.00714e-20 0.0466948 2.63607e-21 0.000110754)
(-0.0446218 -0.0144286 9.73584e-21 0.0445539 1.31195e-20 6.78684e-05)
(-0.0425896 -0.0141066 -3.2017e-21 0.0425611 2.506e-20 2.84411e-05)
(-0.0407153 -0.0138317 3.08015e-20 0.0407211 1.80465e-20 -5.818e-06)
(-0.0390072 -0.0136044 1.16639e-20 0.0390403 -7.61625e-21 -3.30469e-05)
(-0.0374762 -0.0134236 1.51586e-20 0.0375272 -1.48346e-20 -5.10264e-05)
(-0.036136 -0.0132851 6.12599e-21 0.0361933 -1.68223e-20 -5.73206e-05)
(-0.035003 -0.0131802 -3.51325e-20 0.0350521 -2.28283e-20 -4.90954e-05)
(-0.0340994 -0.0130889 -1.74777e-20 0.0341226 -1.19814e-20 -2.32212e-05)
(-0.170788 -0.028344 3.08218e-21 0.170756 -1.67202e-21 3.15638e-05)
(-0.169449 -0.032603 4.06616e-21 0.169358 2.95029e-22 9.04992e-05)
(-0.166441 -0.0354006 4.26499e-21 0.166294 -1.23078e-21 0.000146506)
(-0.16233 -0.0371305 7.13982e-21 0.162131 3.61091e-21 0.000199488)
(-0.157512 -0.0380773 4.67363e-21 0.157263 4.41222e-21 0.000249334)
(-0.152262 -0.0384488 1.53754e-22 0.151966 3.56595e-21 0.000295913)
(-0.14677 -0.0383981 4.33924e-21 0.146431 2.20928e-21 0.000339099)
(-0.141173 -0.0380385 9.99195e-21 0.140794 9.97996e-22 0.000378746)
(-0.135563 -0.0374545 1.30377e-20 0.135148 1.79987e-21 0.000414724)
(-0.130005 -0.0367094 4.32896e-21 0.129559 1.25809e-20 0.000446882)
(-0.124544 -0.0358508 -4.57077e-21 0.124069 1.71609e-20 0.000475097)
(-0.11921 -0.0349145 -5.09372e-21 0.118711 1.70999e-20 0.000499223)
(-0.114021 -0.0339278 -2.54964e-21 0.113502 1.0748e-20 0.000519156)
(-0.108991 -0.0329115 2.06401e-20 0.108456 4.51548e-21 0.000534764)
(-0.104125 -0.0318813 3.1871e-20 0.103579 1.27697e-21 0.000545971)
(-0.0994264 -0.0308494 1.2788e-20 0.0988737 -4.25039e-22 0.000552669)
(-0.0948962 -0.0298251 -1.08002e-21 0.0943414 8.58941e-21 0.000554821)
(-0.0905329 -0.0288157 1.17458e-20 0.0899805 9.93376e-21 0.000552355)
(-0.0863339 -0.0278266 6.59298e-21 0.0857886 9.2906e-21 0.000545287)
(-0.0822961 -0.0268623 1.28525e-20 0.0817625 1.55577e-20 0.000533599)
(-0.0784161 -0.0259262 1.51617e-20 0.0778987 2.90938e-20 0.000517377)
(-0.0746901 -0.0250211 2.73275e-22 0.0741934 2.3277e-20 0.000496677)
(-0.0711148 -0.0241492 -2.01918e-20 0.0706431 1.55162e-20 0.00047168)
(-0.0676868 -0.0233125 7.61448e-21 0.0672443 2.27282e-20 0.000442544)
(-0.0644033 -0.0225127 3.76812e-20 0.0639937 2.89943e-20 0.000409575)
(-0.0612617 -0.0217514 1.94141e-20 0.0608887 2.98835e-20 0.000373069)
(-0.0582603 -0.0210303 2.26132e-20 0.0579268 1.26785e-20 0.000333496)
(-0.0553978 -0.020351 2.22661e-20 0.0551064 2.57793e-20 0.000291329)
(-0.0526735 -0.0197152 -2.41247e-21 0.0524262 3.4174e-20 0.000247251)
(-0.0500878 -0.0191248 -1.39375e-20 0.0498858 1.51012e-20 0.00020197)
(-0.0476417 -0.0185818 -2.88789e-20 0.0474853 -1.68974e-20 0.000156436)
(-0.0453375 -0.0180882 -4.96235e-21 0.0452258 -1.35508e-20 0.000111654)
(-0.0431785 -0.0176463 1.59896e-20 0.0431096 -1.68339e-20 6.891e-05)
(-0.0411693 -0.0172579 1.05313e-20 0.0411397 -5.90046e-21 2.95867e-05)
(-0.0393163 -0.0169244 2.79739e-20 0.039321 -3.33761e-20 -4.61721e-06)
(-0.0376277 -0.0166462 -3.30155e-20 0.0376596 -4.68923e-20 -3.18522e-05)
(-0.0361138 -0.0164219 -1.65776e-20 0.0361637 -4.63279e-20 -4.99127e-05)
(-0.0347876 -0.0162466 4.8449e-21 0.034844 -5.46231e-20 -5.63787e-05)
(-0.0336649 -0.0161114 -2.88409e-20 0.0337134 -5.15295e-20 -4.84309e-05)
(-0.0327683 -0.0159944 -1.55433e-20 0.0327913 -7.90641e-21 -2.29573e-05)
(-0.170045 -0.0335091 4.53516e-21 0.170014 1.98878e-23 3.14192e-05)
(-0.168094 -0.0384066 7.40668e-21 0.168004 1.53613e-22 9.00799e-05)
(-0.164643 -0.0416141 5.73508e-21 0.164497 2.53081e-21 0.000145824)
(-0.160216 -0.0435874 8.27681e-21 0.160017 7.05172e-21 0.00019856)
(-0.155175 -0.0446562 8.15518e-21 0.154927 6.01577e-21 0.000248177)
(-0.149773 -0.0450609 5.02295e-21 0.149478 5.12411e-21 0.000294547)
(-0.144183 -0.0449786 5.32514e-21 0.143845 2.35054e-21 0.000337543)
(-0.138527 -0.0445405 7.25452e-21 0.13815 2.19663e-21 0.000377022)
(-0.13289 -0.0438443 1.39594e-20 0.132477 2.14295e-21 0.000412853)
(-0.127328 -0.042963 1.91545e-20 0.126883 8.10843e-21 0.000444887)
(-0.121879 -0.0419517 1.08682e-20 0.121406 1.08822e-20 0.000473002)
(-0.116571 -0.0408518 3.66639e-22 0.116074 1.42727e-20 0.000497052)
(-0.111417 -0.0396948 -9.55386e-21 0.110901 1.48261e-20 0.000516935)
(-0.106429 -0.0385046 6.65723e-21 0.105897 8.02396e-21 0.000532517)
(-0.10161 -0.0372994 2.4701e-20 0.101067 -1.05846e-20 0.000543725)
(-0.0969627 -0.0360933 1.66475e-20 0.0964122 -1.07191e-20 0.000550448)
(-0.0924853 -0.0348969 1.65662e-20 0.0919326 -6.3729e-21 0.000552651)
(-0.0881758 -0.0337186 1.53083e-20 0.0876255 -9.37265e-21 0.000550262)
(-0.084031 -0.0325647 1.4741e-20 0.0834877 -1.93908e-20 0.000543295)
(-0.0800471 -0.0314403 2.52485e-20 0.0795154 -1.24375e-20 0.000531733)
(-0.0762202 -0.0303494 2.59985e-20 0.0757045 -1.85021e-21 0.000515659)
(-0.0725462 -0.029295 -3.36174e-21 0.072051 -4.36819e-22 0.00049513)
(-0.0690213 -0.0282797 -1.62872e-20 0.068551 1.51925e-20 0.000470325)
(-0.0656421 -0.0273059 9.53923e-21 0.0652007 1.32052e-20 0.000441399)
(-0.0624054 -0.0263753 3.42074e-20 0.0619967 -3.77822e-22 0.000408657)
(-0.0593086 -0.0254899 3.33154e-20 0.0589362 -3.74785e-21 0.000372391)
(-0.0563498 -0.0246515 1.43669e-20 0.0560168 -1.58465e-20 0.000333067)
(-0.0535277 -0.0238617 4.62694e-20 0.0532365 -5.28275e-21 0.000291155)
(-0.0508416 -0.0231225 5.23113e-21 0.0505943 3.40592e-20 0.000247333)
(-0.0482918 -0.0224359 -3.91893e-20 0.0480895 1.92579e-20 0.000202302)
(-0.0458794 -0.0218039 -8.32507e-20 0.0457224 1.91959e-20 0.000157004)
(-0.0436066 -0.0212287 -1.96196e-20 0.0434941 1.17683e-20 0.000112438)
(-0.0414767 -0.0207125 -8.43078e-21 0.0414068 -9.02207e-21 6.98793e-05)
(-0.0394944 -0.020257 -2.0056e-20 0.0394637 6.68724e-21 3.06998e-05)
(-0.0376658 -0.0198637 -3.67556e-20 0.0376692 -2.66491e-20 -3.41454e-06)
(-0.0359989 -0.0195324 -3.89772e-20 0.0360295 -2.93629e-20 -3.06285e-05)
(-0.0345035 -0.0192615 -3.91128e-20 0.0345523 -2.41858e-20 -4.8752e-05)
(-0.0331922 -0.0190458 -5.10175e-20 0.0332476 -3.71159e-20 -5.53828e-05)
(-0.0320804 -0.0188757 -5.74674e-20 0.0321281 -2.73698e-20 -4.77197e-05)
(-0.0311924 -0.0187275 4.74402e-21 0.031215 8.65084e-21 -2.26701e-05)
(-0.169173 -0.0386764 4.76092e-21 0.169141 1.9424e-21 3.12436e-05)
(-0.166524 -0.0441425 9.31902e-21 0.166434 -4.73326e-22 8.95719e-05)
(-0.162568 -0.0477081 9.36142e-21 0.162423 3.07473e-21 0.000144998)
(-0.157781 -0.049887 1.27499e-20 0.157583 5.49053e-21 0.000197434)
(-0.152487 -0.0510501 1.09353e-20 0.15224 1.26688e-22 0.000246772)
(-0.146912 -0.0514682 5.38854e-21 0.146619 -5.86789e-22 0.000292885)
(-0.141211 -0.0513404 2.80356e-21 0.140875 2.08499e-21 0.000335647)
(-0.13549 -0.0508144 8.89093e-21 0.135115 1.97318e-21 0.000374916)
(-0.129822 -0.05 1.36183e-20 0.129411 3.67621e-21 0.000410564)
(-0.124255 -0.0489793 1.90779e-20 0.123813 2.86604e-21 0.00044244)
(-0.118822 -0.047814 5.54164e-21 0.118352 9.17208e-21 0.000470425)
(-0.113544 -0.0465508 7.16882e-21 0.113049 9.21545e-21 0.000494374)
(-0.108431 -0.0452249 -5.50426e-21 0.107917 1.60489e-20 0.000514184)
(-0.103492 -0.0438631 1.79185e-21 0.102962 7.94734e-21 0.000529724)
(-0.0987281 -0.0424859 2.87218e-21 0.0981871 -1.03532e-20 0.000540919)
(-0.0941388 -0.0411089 9.09585e-21 0.0935912 -1.13766e-20 0.00054766)
(-0.0897222 -0.0397442 2.77407e-21 0.0891723 -1.3969e-20 0.000549911)
(-0.0854748 -0.038401 5.23284e-21 0.0849272 -2.30182e-20 0.0005476)
(-0.0813925 -0.0370865 -1.37663e-20 0.0808518 -2.98919e-20 0.000540741)
(-0.0774708 -0.0358062 1.53927e-20 0.0769415 -2.0513e-20 0.000529316)
(-0.0737051 -0.0345645 3.31417e-20 0.0731917 -1.58018e-20 0.000513407)
(-0.070091 -0.0333649 9.90558e-21 0.069598 -7.29607e-21 0.00049307)
(-0.0666244 -0.0322103 3.43863e-21 0.0661559 9.24659e-21 0.000468481)
(-0.0633015 -0.0311031 -9.40424e-21 0.0628617 9.39204e-21 0.000439795)
(-0.0601189 -0.0300454 6.93958e-21 0.0597115 -8.26998e-21 0.000407314)
(-0.0570739 -0.0290393 1.87925e-20 0.0567026 -2.87141e-20 0.000371325)
(-0.0541644 -0.0280865 -1.14368e-20 0.0538321 -1.56254e-20 0.00033229)
(-0.051389 -0.0271891 4.44682e-20 0.0510983 -2.90242e-21 0.000290677)
(-0.0487471 -0.026349 8.61631e-20 0.0484999 2.04946e-20 0.000247155)
(-0.0462387 -0.0255681 1.67911e-21 0.0460363 4.24137e-21 0.00020242)
(-0.0438651 -0.0248487 -3.28924e-20 0.0437077 3.24047e-20 0.000157405)
(-0.0416284 -0.0241928 -4.34705e-20 0.0415153 2.83643e-20 0.000113101)
(-0.0395317 -0.0236026 -3.03797e-20 0.039461 2.5831e-20 7.07706e-05)
(-0.0375797 -0.0230798 2.07977e-20 0.0375479 2.09933e-20 3.17743e-05)
(-0.0357782 -0.0226255 -5.38601e-20 0.0357804 1.24886e-20 -2.21618e-06)
(-0.0341348 -0.0222395 -6.90648e-20 0.0341642 1.53305e-20 -2.93815e-05)
(-0.0326591 -0.0219198 -5.40165e-20 0.0327067 3.27712e-20 -4.75495e-05)
(-0.0313632 -0.0216611 -5.16149e-20 0.0314175 1.6096e-20 -5.43371e-05)
(-0.0302627 -0.0214532 -3.30792e-20 0.0303097 -2.2611e-21 -4.69641e-05)
(-0.0293848 -0.0212706 1.00378e-20 0.0294072 1.06781e-20 -2.23607e-05)
(-0.168167 -0.0438454 3.73344e-21 0.168136 4.66697e-21 3.10362e-05)
(-0.164743 -0.0498011 9.44072e-21 0.164654 1.25867e-21 8.89734e-05)
(-0.160227 -0.0536668 1.22297e-20 0.160083 1.06603e-21 0.000144026)
(-0.155039 -0.0560085 1.44132e-20 0.154843 2.35145e-23 0.00019611)
(-0.149465 -0.0572348 6.06116e-21 0.14922 6.72002e-22 0.000245118)
(-0.143699 -0.0576438 1.90788e-21 0.143408 3.7275e-21 0.000290927)
(-0.137875 -0.057455 5.69931e-21 0.137542 1.47309e-21 0.000333412)
(-0.132083 -0.0568305 7.99149e-21 0.13171 7.45226e-22 0.000372431)
(-0.126382 -0.0558912 1.28099e-20 0.125974 5.70411e-21 0.000407856)
(-0.120811 -0.0547274 1.65958e-20 0.120372 9.0107e-21 0.000439542)
(-0.115397 -0.0534068 5.64514e-21 0.114929 2.25748e-20 0.000467367)
(-0.110153 -0.0519805 -4.82779e-21 0.109661 2.21307e-20 0.000491189)
(-0.105087 -0.0504874 -7.53495e-21 0.104576 2.20292e-20 0.000510905)
(-0.100203 -0.0489566 -1.73066e-20 0.0996768 1.70026e-20 0.000526386)
(-0.0955009 -0.0474107 -1.62557e-20 0.0949634 5.34013e-21 0.000537556)
(-0.0909777 -0.0458668 6.53827e-21 0.0904334 -5.89482e-21 0.000544307)
(-0.0866298 -0.0443381 -5.07184e-21 0.0860832 -6.15577e-21 0.000546603)
(-0.0824524 -0.0428345 -6.72858e-21 0.081908 -2.23686e-20 0.000544372)
(-0.0784405 -0.0413639 -2.49167e-20 0.0779029 -1.26107e-20 0.000537627)
(-0.0745888 -0.0399323 9.74125e-22 0.0740625 3.03139e-22 0.00052635)
(-0.0708922 -0.0385446 1.83471e-20 0.0703816 -4.39064e-21 0.000510622)
(-0.0673456 -0.0372044 8.969e-21 0.0668552 -2.10104e-22 0.000490497)
(-0.0639447 -0.0359149 2.00146e-20 0.0634785 -2.24637e-21 0.00046615)
(-0.0606852 -0.0346786 2.03022e-21 0.0602475 5.84702e-21 0.000437733)
(-0.0575637 -0.0334979 -2.06171e-20 0.0571581 -1.92747e-22 0.000405545)
(-0.0545771 -0.0323748 -7.59984e-21 0.0542072 -2.38023e-20 0.00036987)
(-0.0517233 -0.0313112 -3.46924e-21 0.0513921 1.59342e-20 0.000331166)
(-0.0490007 -0.0303092 1.47973e-20 0.0487108 4.31066e-20 0.000289893)
(-0.0464085 -0.0293708 4.29257e-20 0.0461618 3.17629e-20 0.000246716)
(-0.043947 -0.0284979 -2.85893e-20 0.0437446 1.43725e-20 0.000202322)
(-0.041617 -0.0276928 -3.97551e-21 0.0414593 1.46909e-20 0.000157636)
(-0.0394206 -0.0269575 -9.86052e-22 0.0393069 8.24637e-21 0.000113638)
(-0.0373609 -0.0262939 -8.83777e-21 0.0372893 1.44165e-20 7.15792e-05)
(-0.0354422 -0.0257038 1.9154e-20 0.0354094 -2.55541e-20 3.28057e-05)
(-0.0336701 -0.025188 -1.44162e-20 0.0336711 1.3784e-20 -1.02648e-06)
(-0.0320519 -0.0247463 -1.26122e-20 0.03208 1.94345e-20 -2.81151e-05)
(-0.0305967 -0.0243764 6.70629e-21 0.030643 2.49174e-20 -4.63079e-05)
(-0.0293166 -0.0240731 -6.27015e-20 0.0293699 4.53087e-21 -5.32432e-05)
(-0.028228 -0.023826 -9.92279e-20 0.0282742 2.19264e-20 -4.6165e-05)
(-0.0273615 -0.0236077 1.75255e-20 0.0273835 2.23209e-20 -2.20294e-05)
(-0.167026 -0.0490151 5.31132e-21 0.166995 3.89381e-23 3.07983e-05)
(-0.162756 -0.0553735 1.14231e-20 0.162668 -4.57629e-21 8.82867e-05)
(-0.157631 -0.0594751 1.1185e-20 0.157488 1.07852e-21 0.00014291)
(-0.152007 -0.0619324 1.11808e-20 0.151813 6.12699e-21 0.000194589)
(-0.146128 -0.0631876 7.93401e-21 0.145885 6.07755e-21 0.000243218)
(-0.140156 -0.0635631 1.09542e-20 0.139868 -3.63797e-21 0.000288676)
(-0.1342 -0.0632959 4.4822e-21 0.133869 -3.31827e-21 0.000330839)
(-0.128331 -0.0625614 8.49366e-21 0.127961 -6.07842e-22 0.000369567)
(-0.122595 -0.0614899 1.21771e-20 0.12219 1.23873e-20 0.000404735)
(-0.117022 -0.0601789 1.73588e-20 0.116586 2.49834e-20 0.000436196)
(-0.111629 -0.0587014 2.31109e-20 0.111165 3.00159e-20 0.000463832)
(-0.106424 -0.0571125 8.53862e-21 0.105936 2.77736e-20 0.000487502)
(-0.10141 -0.0554539 -6.17657e-21 0.100903 2.87007e-20 0.000507104)
(-0.0965885 -0.0537571 -6.06208e-21 0.096066 1.85313e-20 0.000522508)
(-0.0919549 -0.0520463 -2.26736e-20 0.0914212 1.17767e-20 0.00053364)
(-0.0875049 -0.0503397 -1.51426e-20 0.0869645 5.34922e-21 0.000540394)
(-0.083233 -0.0486516 -7.31462e-21 0.0826903 -2.53468e-24 0.000542731)
(-0.0791332 -0.0469926 -2.20823e-20 0.0785926 -1.30058e-20 0.000540581)
(-0.0751993 -0.045371 -1.71069e-20 0.0746654 4.37253e-21 0.000533957)
(-0.0714252 -0.0437934 3.36731e-21 0.0709023 2.31166e-20 0.000522838)
(-0.067805 -0.0422648 3.75696e-21 0.0672977 2.26775e-20 0.000507306)
(-0.0643332 -0.040789 1.52808e-21 0.0638458 1.39347e-20 0.000487414)
(-0.061005 -0.0393695 4.06516e-21 0.0605416 -5.47622e-21 0.000463333)
(-0.0578157 -0.0380089 1.83852e-20 0.0573805 -5.41849e-21 0.000435215)
(-0.0547618 -0.0367095 -1.17295e-20 0.0543585 -1.02148e-21 0.000403352)
(-0.05184 -0.0354736 -3.47261e-20 0.0514719 1.76731e-21 0.000368027)
(-0.0490478 -0.034303 4.28246e-20 0.0487181 3.73842e-20 0.000329692)
(-0.0463837 -0.0331999 8.89269e-20 0.0460949 4.4282e-20 0.000288803)
(-0.0438466 -0.0321662 8.72884e-20 0.0436006 3.42542e-20 0.000246014)
(-0.0414367 -0.0312039 -1.30954e-20 0.0412347 2.37641e-20 0.000202007)
(-0.0391548 -0.0303151 -3.11396e-20 0.0389971 -1.07394e-21 0.000157695)
(-0.0370027 -0.0295018 -3.04558e-20 0.0368887 -1.89041e-20 0.000114048)
(-0.0349834 -0.0287658 -8.27474e-21 0.0349111 -3.69055e-20 7.23027e-05)
(-0.0331007 -0.0281088 -3.19505e-20 0.033067 -3.53561e-20 3.37914e-05)
(-0.0313601 -0.0275315 3.22518e-20 0.03136 4.00141e-21 1.52443e-07)
(-0.0297685 -0.0270337 -3.10863e-20 0.0297953 -8.29089e-21 -2.6831e-05)
(-0.0283347 -0.0266131 -4.88549e-21 0.0283797 2.98382e-21 -4.50285e-05)
(-0.0270709 -0.0262646 -3.71711e-20 0.027123 2.83926e-20 -5.21019e-05)
(-0.0259947 -0.0259777 -1.60088e-20 0.02604 6.26127e-20 -4.53227e-05)
(-0.0251407 -0.0257241 1.92365e-20 0.0251624 2.00069e-20 -2.16764e-05)
(-0.165745 -0.054184 9.76172e-21 0.165714 -1.20971e-20 3.05289e-05)
(-0.160569 -0.0608511 1.58842e-20 0.160482 -1.27887e-20 8.75104e-05)
(-0.154791 -0.065119 1.85414e-20 0.154649 -2.81622e-21 0.00014165)
(-0.148702 -0.067641 2.51969e-20 0.148509 -5.87812e-21 0.000192872)
(-0.142498 -0.068888 1.25254e-20 0.142257 -4.78609e-21 0.000241072)
(-0.136307 -0.0692033 -6.32811e-22 0.136021 -4.61714e-21 0.000286132)
(-0.13021 -0.0688392 6.20646e-22 0.129882 -5.90536e-22 0.000327931)
(-0.124261 -0.067982 -2.8524e-21 0.123894 1.63433e-20 0.000366328)
(-0.11849 -0.0667705 1.26978e-20 0.118089 2.94554e-20 0.000401201)
(-0.112916 -0.0653079 3.88484e-20 0.112483 2.13246e-20 0.000432405)
(-0.107547 -0.0636719 3.58434e-20 0.107087 1.77756e-20 0.000459824)
(-0.102386 -0.0619208 1.26929e-20 0.101902 2.2915e-20 0.000483316)
(-0.0974303 -0.0600987 -2.65529e-21 0.0969275 2.98357e-20 0.000502781)
(-0.0926765 -0.0582391 -2.43745e-20 0.0921584 2.27123e-20 0.000518093)
(-0.0881181 -0.0563674 -3.49051e-20 0.087589 2.37602e-20 0.000529175)
(-0.0837483 -0.0545029 -2.62014e-20 0.0832124 2.6248e-20 0.000535923)
(-0.0795596 -0.0526605 -2.41965e-20 0.0790213 1.29063e-20 0.000538298)