/*--------------------------------*- C++ -*----------------------------------*\
| =========                 |                                                 |
| \\      /  F ield         | foam-extend: Open Source CFD                    |
|  \\    /   O peration     | Version:  3.0                                   |
|   \\  /    A nd           | Web:         http://www.extend-project.de       |
|    \\/     M anipulation  |                                                 |
\*---------------------------------------------------------------------------*/
FoamFile
{
    version     2.0;
    format      ascii;
    class       volScalarField;
    location    "27";
    object      p;
}
// * * * * * * * * * * * * * * * * * * * * * * * * * * * * * * * * * * * * * //

dimensions      [0 0 0 0 0 0 0];

internalField   nonuniform List<scalar> 
224
(
-0.257487
-0.200582
-0.197523
-0.179334
-0.18305
-0.179189
-0.175182
-0.247597
-0.192878
-0.189935
-0.172445
-0.176018
-0.172305
-0.168451
-0.228182
-0.177754
-0.175043
-0.158924
-0.162218
-0.158796
-0.155245
-0.200008
-0.155806
-0.153429
-0.139301
-0.142187
-0.139188
-0.136075
-0.164139
-0.127864
-0.125914
-0.11432
-0.116689
-0.114228
-0.111673
-0.121971
-0.0950154
-0.0935658
-0.0849497
-0.0867099
-0.0848808
-0.0829824
-0.0751062
-0.0585083
-0.0576161
-0.052311
-0.0533951
-0.0522692
-0.0511003
-0.0253651
-0.0197596
-0.0194581
-0.0176663
-0.0180322
-0.0176518
-0.017257
0.0253606
0.0197551
0.0194534
0.0176615
0.0180273
0.0176467
0.0172519
0.0751017
0.0585039
0.0576115
0.0523062
0.0533902
0.0522641
0.0510952
0.121967
0.0950111
0.0935613
0.084945
0.086705
0.0848759
0.0829774
0.164134
0.12786
0.12591
0.114315
0.116684
0.114223
0.111668
0.200004
0.155802
0.153425
0.139296
0.142183
0.139183
0.13607
0.228179
0.177751
0.175039
0.15892
0.162213
0.158792
0.155241
0.247594
0.192874
0.189932
0.172441
0.176014
0.172301
0.168448
0.257484
0.20058
0.19752
0.179331
0.183047
0.179186
0.175179
0.257489
0.200583
0.197523
0.179333
0.183049
0.179188
0.17518
0.24759
0.192872
0.18993
0.17244
0.176013
0.172301
0.168447
0.228185
0.177755
0.175043
0.158924
0.162217
0.158795
0.155244
0.200001
0.155801
0.153424
0.139296
0.142183
0.139184
0.136071
0.164141
0.127866
0.125915
0.11432
0.116689
0.114227
0.111672
0.121964
0.09501
0.093561
0.0849457
0.0867062
0.0848777
0.0829794
0.0751092
0.0585099
0.0576173
0.0523114
0.0533954
0.0522691
0.0511
0.0253582
0.0197544
0.0194535
0.0176626
0.0180288
0.017649
0.0172543
-0.0253575
-0.0197535
-0.0194522
-0.0176609
-0.0180269
-0.0176466
-0.017252
-0.0751086
-0.0585091
-0.0576162
-0.05231
-0.0533937
-0.0522671
-0.051098
-0.121964
-0.0950096
-0.0935603
-0.0849447
-0.0867049
-0.0848761
-0.0829778
-0.164141
-0.127866
-0.125915
-0.114319
-0.116688
-0.114226
-0.111671
-0.200002
-0.155801
-0.153425
-0.139296
-0.142183
-0.139184
-0.136071
-0.228186
-0.177756
-0.175044
-0.158925
-0.162218
-0.158796
-0.155244
-0.247591
-0.192873
-0.189931
-0.172442
-0.176015
-0.172303
-0.168449
-0.257491
-0.200585
-0.197525
-0.179336
-0.183052
-0.179191
-0.175183
)
;

boundaryField
{
    out
    {
        type            implicitExtrapolation;
    }
    in
    {
        type            implicitExtrapolation;
    }
    frontAndBack
    {
        type            empty;
    }
}


// ************************************************************************* //
