/*--------------------------------*- C++ -*----------------------------------*\
| =========                 |                                                 |
| \\      /  F ield         | foam-extend: Open Source CFD                    |
|  \\    /   O peration     | Version:  3.0                                   |
|   \\  /    A nd           | Web:         http://www.extend-project.de       |
|    \\/     M anipulation  |                                                 |
\*---------------------------------------------------------------------------*/
FoamFile
{
    version     2.0;
    format      ascii;
    class       volVectorField;
    location    "27";
    object      u;
}
// * * * * * * * * * * * * * * * * * * * * * * * * * * * * * * * * * * * * * //

dimensions      [0 0 0 0 0 0 0];

internalField   nonuniform List<vector> 
224
(
(0.382949 -0.135726 1.55015e-18)
(0.655478 -0.0827621 6.62483e-18)
(0.842289 -0.0518143 -4.59254e-18)
(0.906038 -0.0333706 -7.5076e-18)
(0.984537 -0.0185525 -7.49147e-18)
(0.978594 -0.0111754 2.27812e-18)
(1.02388 0.00170911 -2.7019e-18)
(0.48683 -0.386514 3.97063e-19)
(0.718821 -0.235685 -9.17818e-19)
(0.881945 -0.147552 -1.38607e-17)
(0.931578 -0.0950283 3.73754e-17)
(0.998735 -0.0528282 -7.98161e-18)
(0.987145 -0.0318182 -1.81646e-17)
(1.02257 0.00487329 -2.13394e-17)
(0.678775 -0.57846 -6.7666e-18)
(0.835863 -0.352727 -4.559e-18)
(0.95522 -0.220827 -1.72603e-17)
(0.978769 -0.142219 -5.47811e-18)
(1.02497 -0.0790617 -2.30197e-17)
(1.00295 -0.0476173 6.8601e-17)
(1.02014 0.00729508 1.83124e-17)
(0.929564 -0.68234 -3.89684e-18)
(0.988786 -0.41607 -2.97568e-18)
(1.05096 -0.260483 -5.52205e-18)
(1.04043 -0.167758 -9.2795e-20)
(1.05925 -0.0932589 -1.52859e-18)
(1.02359 -0.0561675 2.96119e-17)
(1.01698 0.00860599 -4.32004e-17)
(1.20102 -0.68234 -1.71139e-18)
(1.15431 -0.41607 -1.87458e-18)
(1.15458 -0.260482 -2.73523e-18)
(1.10717 -0.167758 -3.0156e-19)
(1.09635 -0.0932586 1.31201e-17)
(1.04593 -0.0561669 -4.15469e-17)
(1.01356 0.00860619 -3.69843e-18)
(1.4518 -0.57846 1.22898e-18)
(1.30723 -0.352727 -1.46434e-18)
(1.25032 -0.220826 -3.12741e-18)
(1.16882 -0.142218 -9.40213e-18)
(1.13062 -0.0790606 1.36906e-17)
(1.06658 -0.047616 -3.93369e-17)
(1.01039 0.00729613 4.25955e-17)
(1.64375 -0.386514 -8.28251e-19)
(1.42427 -0.235684 -3.70007e-18)
(1.3236 -0.147551 3.30969e-18)
(1.21601 -0.0950269 9.32465e-18)
(1.15685 -0.0528267 9.10967e-18)
(1.08238 -0.0318158 -1.58893e-17)
(1.00797 0.0048749 -5.6187e-18)
(1.74763 -0.135726 -1.34931e-19)
(1.48762 -0.0827612 -4.14946e-19)
(1.36325 -0.0518129 3.42724e-18)
(1.24155 -0.0333691 3.00153e-18)
(1.17105 -0.0185502 5.46591e-18)
(1.09093 -0.0111724 -6.87028e-18)
(1.00666 0.00171174 -1.71956e-18)
(1.74763 0.135726 9.463e-19)
(1.48762 0.0827618 5.97608e-19)
(1.36325 0.0518132 4.37796e-18)
(1.24155 0.0333691 -1.67995e-18)
(1.17105 0.01855 2.84626e-18)
(1.09093 0.0111721 -4.73307e-18)
(1.00666 -0.00171224 4.28608e-19)
(1.64375 0.386515 2.22671e-18)
(1.42427 0.235685 2.60128e-18)
(1.3236 0.147552 7.4164e-18)
(1.21601 0.0950268 -1.13786e-17)
(1.15685 0.0528264 3.94163e-18)
(1.08237 0.0318155 -4.63306e-18)
(1.00797 -0.00487515 5.98246e-18)
(1.4518 0.57846 4.66746e-18)
(1.30723 0.352727 3.22017e-18)
(1.25032 0.220826 8.06086e-18)
(1.16882 0.142218 5.61793e-18)
(1.13062 0.0790602 1.03574e-17)
(1.06658 0.0476156 -3.70612e-17)
(1.01039 -0.007296 -5.66241e-18)
(1.20102 0.682341 1.47044e-18)
(1.15431 0.41607 1.10601e-18)
(1.15458 0.260482 -9.08144e-20)
(1.10716 0.167757 -1.12733e-18)
(1.09634 0.0932582 -6.20505e-18)
(1.04593 0.0561665 3.20296e-18)
(1.01356 -0.00860573 3.70175e-17)
(0.929564 0.682341 -7.7701e-19)
(0.988786 0.41607 7.53016e-19)
(1.05096 0.260482 -9.66482e-19)
(1.04043 0.167758 -9.39708e-20)
(1.05924 0.0932584 -2.20621e-17)
(1.02359 0.056167 7.35849e-17)
(1.01698 -0.00860542 -8.31201e-18)
(0.678775 0.578461 -3.7442e-18)
(0.835863 0.352727 2.23314e-18)
(0.95522 0.220827 -4.78856e-19)
(0.978769 0.142218 1.15915e-17)
(1.02497 0.0790612 -2.78058e-17)
(1.00294 0.0476167 6.12264e-17)
(1.02014 -0.00729475 -7.77418e-17)
(0.48683 0.386515 2.02408e-18)
(0.718821 0.235685 8.87535e-18)
(0.881945 0.147552 -1.14373e-17)
(0.931578 0.0950279 -2.96116e-17)
(0.998734 0.0528278 -1.80696e-17)
(0.987144 0.0318176 1.88514e-17)
(1.02256 -0.00487354 3.34409e-17)
(0.38295 0.135727 -9.7668e-19)
(0.655478 0.0827625 -5.50003e-18)
(0.842289 0.0518144 7.31674e-19)
(0.906038 0.0333705 8.25748e-18)
(0.984536 0.0185521 -9.68808e-19)
(0.978593 0.0111747 1.13311e-17)
(1.02387 -0.00171015 5.34377e-19)
(0.38295 -0.135725 -1.55045e-18)
(0.655478 -0.0827601 -6.62511e-18)
(0.842289 -0.0518115 4.59202e-18)
(0.906038 -0.033367 7.50714e-18)
(0.984536 -0.0185477 7.49104e-18)
(0.978592 -0.0111689 -2.2785e-18)
(1.02387 0.00171378 2.7014e-18)
(0.486829 -0.386514 -3.97294e-19)
(0.71882 -0.235683 9.17531e-19)
(0.881944 -0.147549 1.38599e-17)
(0.931577 -0.0950245 -3.73751e-17)
(0.998733 -0.0528236 7.98121e-18)
(0.987143 -0.0318119 1.81639e-17)
(1.02256 0.00487703 2.13388e-17)
(0.678775 -0.578459 6.76636e-18)
(0.835862 -0.352725 4.55865e-18)
(0.955219 -0.220824 1.72598e-17)
(0.978767 -0.142215 5.47751e-18)
(1.02497 -0.0790572 2.30192e-17)
(1.00294 -0.0476115 -6.86008e-17)
(1.02014 0.00729819 -1.83122e-17)
(0.929563 -0.682339 3.89655e-18)
(0.988785 -0.416068 2.97532e-18)
(1.05096 -0.26048 5.52164e-18)
(1.04042 -0.167755 9.24173e-20)
(1.05924 -0.0932549 1.52826e-18)
(1.02358 -0.0561622 -2.96118e-17)
(1.01698 0.00860843 4.31987e-17)
(1.20101 -0.682339 1.71112e-18)
(1.15431 -0.416069 1.87422e-18)
(1.15458 -0.26048 2.73483e-18)
(1.10716 -0.167755 3.01158e-19)
(1.09634 -0.093255 -1.31203e-17)
(1.04593 -0.0561626 4.15463e-17)
(1.01355 0.00860855 3.69785e-18)
(1.4518 -0.57846 -1.22914e-18)
(1.30723 -0.352726 1.46399e-18)
(1.25032 -0.220825 3.12701e-18)
(1.16882 -0.142216 9.40165e-18)
(1.13062 -0.0790579 -1.36903e-17)
(1.06657 -0.0476123 3.93355e-17)
(1.01039 0.00729804 -4.25951e-17)
(1.64375 -0.386514 8.28006e-19)
(1.42427 -0.235684 3.69972e-18)
(1.32359 -0.14755 -3.31011e-18)
(1.21601 -0.0950256 -9.32481e-18)
(1.15685 -0.0528245 -9.10999e-18)
(1.08237 -0.0318135 1.58889e-17)
(1.00797 0.00487678 5.61799e-18)
(1.74763 -0.135726 1.34627e-19)
(1.48762 -0.0827611 4.14641e-19)
(1.36325 -0.0518127 -3.42769e-18)
(1.24155 -0.0333682 -3.00199e-18)
(1.17105 -0.0185493 -5.46626e-18)
(1.09092 -0.0111711 6.86981e-18)
(1.00666 0.00171274 1.71914e-18)
(1.74763 0.135726 -9.4661e-19)
(1.48762 0.0827612 -5.97908e-19)
(1.36325 0.0518132 -4.37846e-18)
(1.24155 0.0333689 1.67953e-18)
(1.17105 0.0185503 -2.84664e-18)
(1.09092 0.0111719 4.73265e-18)
(1.00666 -0.00171191 -4.2908e-19)
(1.64375 0.386514 -2.22696e-18)
(1.42427 0.235684 -2.60158e-18)
(1.32359 0.147551 -7.41718e-18)
(1.21601 0.0950263 1.13787e-17)
(1.15685 0.0528255 -3.94199e-18)
(1.08237 0.0318143 4.6325e-18)
(1.00797 -0.00487643 -5.9829e-18)
(1.4518 0.57846 -4.66772e-18)
(1.30723 0.352726 -3.22054e-18)
(1.25032 0.220825 -8.06133e-18)
(1.16882 0.142217 -5.61851e-18)
(1.13062 0.0790588 -1.03578e-17)
(1.06657 0.0476128 3.70609e-17)
(1.01039 -0.00729851 5.66233e-18)
(1.20101 0.68234 -1.47077e-18)
(1.15431 0.416069 -1.1064e-18)
(1.15458 0.260481 9.04058e-20)
(1.10716 0.167756 1.12693e-18)
(1.09634 0.0932557 6.2048e-18)
(1.04593 0.0561629 -3.20307e-18)
(1.01355 -0.00860993 -3.70188e-17)
(0.929563 0.68234 7.76702e-19)
(0.988785 0.416069 -7.53409e-19)
(1.05096 0.260481 9.6607e-19)
(1.04042 0.167755 9.35353e-20)
(1.05924 0.0932554 2.20619e-17)
(1.02358 0.0561622 -7.35859e-17)
(1.01698 -0.00861055 8.31139e-18)
(0.678775 0.57846 3.74401e-18)
(0.835862 0.352726 -2.23352e-18)
(0.955219 0.220825 4.78433e-19)
(0.978767 0.142216 -1.15921e-17)
(1.02497 0.0790574 2.78063e-17)
(1.00294 0.0476112 -6.12283e-17)
(1.02014 -0.00730066 7.77428e-17)
(0.486829 0.386514 -2.02436e-18)
(0.71882 0.235684 -8.87575e-18)
(0.881944 0.14755 1.14369e-17)
(0.931577 0.0950249 2.96117e-17)
(0.998733 0.0528236 1.80695e-17)
(0.987143 0.0318114 -1.88519e-17)
(1.02256 -0.00487939 -3.3442e-17)
(0.382949 0.135726 9.76372e-19)
(0.655478 0.0827606 5.49973e-18)
(0.842289 0.0518119 -7.32138e-19)
(0.906038 0.0333672 -8.258e-18)
(0.984536 0.0185475 9.68506e-19)
(0.978593 0.0111684 -1.13316e-17)
(1.02388 -0.00171559 -5.34843e-19)
)
;

boundaryField
{
    out
    {
        type            fixedValue;
        value           uniform (1 0 0);
    }
    in
    {
        type            myVelocity;
    }
    frontAndBack
    {
        type            empty;
    }
}


// ************************************************************************* //
