/*--------------------------------*- C++ -*----------------------------------*\
| =========                 |                                                 |
| \\      /  F ield         | foam-extend: Open Source CFD                    |
|  \\    /   O peration     | Version:  3.0                                   |
|   \\  /    A nd           | Web:         http://www.extend-project.de       |
|    \\/     M anipulation  |                                                 |
\*---------------------------------------------------------------------------*/
FoamFile
{
    version     2.0;
    format      ascii;
    class       volVectorField;
    location    "6";
    object      u;
}
// * * * * * * * * * * * * * * * * * * * * * * * * * * * * * * * * * * * * * //

dimensions      [0 0 0 0 0 0 0];

internalField   nonuniform List<vector> 
7680
(
(0.0734664 -0.0319149 1.84337e-19)
(0.193126 -0.0281432 2.08449e-19)
(0.294647 -0.0249642 9.56441e-20)
(0.381037 -0.0222484 1.66049e-19)
(0.455389 -0.0199146 7.12357e-20)
(0.519407 -0.0178938 2.01921e-19)
(0.575147 -0.0161395 1.19948e-19)
(0.623601 -0.0146081 2.06965e-19)
(0.66622 -0.0132699 3.35265e-19)
(0.703566 -0.0120949 1.44924e-19)
(0.736709 -0.0110625 9.56608e-20)
(0.765942 -0.0101516 1.08955e-19)
(0.792088 -0.00934763 6.65147e-20)
(0.815266 -0.00863571 -9.47118e-20)
(0.836136 -0.00800541 2.52219e-19)
(0.854703 -0.0074465 3.63628e-19)
(0.871516 -0.00695126 3.27823e-19)
(0.886505 -0.00651295 1.5987e-19)
(0.900146 -0.00612555 1.8492e-19)
(0.91231 -0.00578501 -2.64782e-19)
(0.923425 -0.00548632 7.57221e-20)
(0.933324 -0.00522758 1.35885e-19)
(0.942398 -0.00500432 2.422e-19)
(0.950449 -0.00481643 1.67943e-19)
(0.957846 -0.00465965 2.10329e-19)
(0.964367 -0.00453539 4.49947e-19)
(0.970365 -0.00443931 6.07841e-19)
(0.975596 -0.00437409 2.14049e-19)
(0.980406 -0.00433502 4.8165e-20)
(0.984529 -0.00432551 1.90857e-19)
(0.988305 -0.00433999 3.55463e-19)
(0.99145 -0.00438129 3.17256e-19)
(0.994297 -0.00444138 7.91159e-20)
(0.996542 -0.00451821 -4.71789e-19)
(0.998505 -0.00459452 -1.45254e-19)
(0.999864 -0.00464658 7.98068e-20)
(1.00091 -0.00461573 6.09442e-19)
(1.00132 -0.00437907 2.12146e-19)
(1.00133 -0.00367472 1.03657e-19)
(1.00061 -0.00192513 1.3694e-19)
(0.0776673 -0.0961201 1.398e-19)
(0.196841 -0.0849143 -1.00216e-19)
(0.297947 -0.0754421 1.2117e-19)
(0.383983 -0.067327 2.39052e-19)
(0.458031 -0.0603331 2.84423e-20)
(0.521785 -0.0542583 1.03596e-20)
(0.577296 -0.0489689 1.36865e-20)
(0.62555 -0.0443364 1.93884e-19)
(0.667994 -0.0402732 5.2821e-20)
(0.705186 -0.0366894 3.40202e-20)
(0.738193 -0.0335241 1.28795e-19)
(0.767306 -0.0307135 2.07081e-19)
(0.793345 -0.0282144 2.63238e-19)
(0.816427 -0.0259814 1.78916e-19)
(0.837211 -0.0239838 4.51574e-19)
(0.855701 -0.0221894 6.06792e-19)
(0.872446 -0.0205756 5.24739e-19)
(0.887372 -0.0191199 -5.60155e-20)
(0.900955 -0.0178051 -1.91549e-19)
(0.913068 -0.0166158 -3.35022e-19)
(0.924135 -0.015538 2.38565e-19)
(0.93399 -0.0145619 3.14362e-19)
(0.943023 -0.0136753 2.33718e-19)
(0.951036 -0.0128727 7.93496e-20)
(0.958397 -0.0121431 1.02244e-18)
(0.964883 -0.0114841 5.38886e-19)
(0.970848 -0.0108852 2.67654e-19)
(0.976048 -0.0103462 1.33412e-20)
(0.980826 -0.00985644 1.80043e-19)
(0.984918 -0.00941647 3.13685e-19)
(0.988662 -0.0090146 4.7661e-19)
(0.991775 -0.00864937 9.34083e-19)
(0.994589 -0.00830597 7.96626e-19)
(0.996801 -0.00797389 -5.11977e-19)
(0.998733 -0.00762849 -2.35038e-19)
(1.00006 -0.00723002 -2.59909e-19)
(1.00108 -0.00671557 1.05026e-18)
(1.00145 -0.00593699 2.85711e-19)
(1.00144 -0.00464143 2.74787e-19)
(1.00067 -0.00221641 7.59559e-19)
(0.0860632 -0.15992 2.86456e-19)
(0.204263 -0.14132 -1.61768e-19)
(0.304543 -0.125593 4.2499e-19)
(0.389871 -0.112115 4.29391e-20)
(0.46331 -0.100491 4.29386e-19)
(0.526535 -0.0903896 6.30612e-20)
(0.581587 -0.0815884 8.45062e-20)
(0.629438 -0.0738752 5.75189e-20)
(0.671528 -0.0671043 -7.99478e-19)
(0.708408 -0.0611272 -3.92065e-19)
(0.741139 -0.0558426 4.41131e-19)
(0.770007 -0.0511443 3.36571e-19)
(0.795827 -0.0469608 4.03848e-20)
(0.818714 -0.0432163 2.72184e-19)
(0.839322 -0.0398598 7.90754e-19)
(0.857653 -0.0368375 1.09866e-18)
(0.874254 -0.034112 -4.60406e-19)
(0.88905 -0.0316451 5.44133e-19)
(0.902514 -0.0294084 -6.05415e-19)
(0.914517 -0.0273752 8.60444e-20)
(0.925483 -0.0255227 2.14534e-19)
(0.935245 -0.0238331 7.01702e-19)
(0.94419 -0.0222867 3.99305e-19)
(0.952121 -0.0208724 1.3804e-18)
(0.959405 -0.0195727 4.45697e-19)
(0.965818 -0.0183812 7.08235e-19)
(0.971712 -0.0172813 1.3481e-19)
(0.976843 -0.0162701 6.93099e-19)
(0.981553 -0.0153307 4.35626e-19)
(0.985578 -0.0144614 5.28532e-19)
(0.989256 -0.013644 4.37045e-19)
(0.992302 -0.0128737 2.01385e-19)
(0.995049 -0.0121287 1.01776e-18)
(0.997193 -0.011392 1.33615e-18)
(0.999061 -0.0106313 3.54524e-20)
(1.00032 -0.0097952 8.76324e-20)
(1.00129 -0.00881498 7.81582e-19)
(1.00162 -0.00752341 -1.46345e-19)
(1.00158 -0.00566215 -1.01474e-19)
(1.00074 -0.00256872 -2.40773e-19)
(0.0986073 -0.22303 3.09351e-19)
(0.215352 -0.197118 -2.49106e-19)
(0.314401 -0.175206 2.58771e-19)
(0.398674 -0.156422 3.66405e-19)
(0.471203 -0.140219 5.9383e-19)
(0.533637 -0.126134 -2.056e-20)
(0.588 -0.113859 1.75829e-19)
(0.635246 -0.103097 2.81575e-19)
(0.676806 -0.0936481 -1.93009e-19)
(0.713217 -0.0853034 4.74344e-19)
(0.745534 -0.0779223 7.29088e-19)
(0.774033 -0.0713566 6.32249e-19)
(0.799524 -0.0655067 5.90299e-19)
(0.822115 -0.0602669 2.04004e-19)
(0.842458 -0.0555661 -8.26044e-19)
(0.86055 -0.0513289 -2.78312e-19)
(0.876933 -0.0475034 -1.04897e-18)
(0.891531 -0.0440358 -5.9324e-19)
(0.904814 -0.0408866 8.94288e-19)
(0.916651 -0.0380182 -2.11867e-19)
(0.927464 -0.0353986 1.04768e-18)
(0.937083 -0.0330023 7.35802e-19)
(0.945895 -0.0308021 7.02521e-19)
(0.953702 -0.0287816 4.81242e-21)
(0.960868 -0.0269163 1.27839e-19)
(0.967169 -0.0251965 -5.50718e-19)
(0.972956 -0.023599 -1.0737e-18)
(0.977982 -0.0221186 -8.7158e-20)
(0.982591 -0.0207321 5.18231e-19)
(0.986516 -0.0194358 1.20772e-18)
(0.990096 -0.0182051 7.54654e-19)
(0.993042 -0.017033 -1.69086e-18)
(0.995693 -0.0158902 -3.27155e-19)
(0.997739 -0.0147564 3.25061e-18)
(0.999516 -0.0135912 -9.81609e-19)
(1.00069 -0.0123374 -4.41264e-19)
(1.00159 -0.0109181 3.42865e-19)
(1.00185 -0.00915486 -1.58956e-18)
(1.00177 -0.00676336 -3.14088e-19)
(1.00084 -0.00300817 1.56545e-19)
(0.115253 -0.285188 7.3624e-19)
(0.230068 -0.252073 6.26583e-19)
(0.327484 -0.224068 -5.56222e-20)
(0.410356 -0.200059 1.67606e-18)
(0.481677 -0.179346 5.8158e-19)
(0.543061 -0.161338 1.18513e-19)
(0.596508 -0.145641 3.02342e-19)
(0.642952 -0.131879 2.54195e-19)
(0.683807 -0.119791 -1.16442e-19)
(0.719596 -0.109115 5.0937e-19)
(0.751361 -0.099669 7.36681e-19)
(0.779369 -0.0912639 1.0008e-18)
(0.804422 -0.0837727 1.4263e-18)
(0.82662 -0.0770599 -4.63284e-19)
(0.846609 -0.0710347 -1.34893e-18)
(0.864381 -0.0656006 -1.94001e-18)
(0.880474 -0.0606912 6.55665e-19)
(0.894808 -0.0562375 -4.55413e-19)
(0.907849 -0.052189 -8.63985e-20)
(0.919464 -0.048497 -1.34509e-19)
(0.930071 -0.0451211 9.88238e-19)
(0.9395 -0.0420278 7.54606e-19)
(0.948135 -0.0391826 -5.26457e-19)
(0.955776 -0.0365636 3.06692e-19)
(0.962785 -0.0341398 7.32017e-19)
(0.968936 -0.0318979 4.04829e-19)
(0.97458 -0.0298084 -1.71855e-18)
(0.979469 -0.0278639 -7.50372e-19)
(0.983945 -0.0260347 4.76965e-19)
(0.987739 -0.0243161 -1.46063e-18)
(0.991191 -0.0226764 -1.32017e-18)
(0.994012 -0.021108 -1.13201e-18)
(0.996541 -0.0195742 -2.57678e-18)
(0.998465 -0.0180542 5.18286e-19)
(1.00013 -0.016499 -2.59132e-18)
(1.00119 -0.0148521 -2.08901e-18)
(1.00201 -0.0130254 -1.93286e-18)
(1.00218 -0.0108365 -3.12306e-18)
(1.00204 -0.00795331 -2.09446e-19)
(1.00098 -0.00354011 1.63614e-18)
(0.135927 -0.346121 9.68203e-19)
(0.248344 -0.305947 9.40426e-19)
(0.343732 -0.271969 1.42249e-18)
(0.424866 -0.242838 4.0826e-19)
(0.494687 -0.217704 4.0496e-19)
(0.554766 -0.19585 1.56009e-18)
(0.607076 -0.176799 1.0604e-18)
(0.652523 -0.160094 3.7634e-19)
(0.692501 -0.145421 -5.06836e-19)
(0.727515 -0.132458 -2.80682e-19)
(0.758595 -0.120988 7.59692e-19)
(0.785991 -0.11078 3.47568e-19)
(0.810499 -0.101679 1.65832e-18)
(0.832208 -0.093522 4.49004e-19)
(0.851757 -0.0861983 -2.20841e-18)
(0.869129 -0.0795906 -1.76983e-18)
(0.884861 -0.0736181 4.41367e-19)
(0.898865 -0.0681972 -1.40192e-18)
(0.911605 -0.0632665 -9.003e-19)
(0.922943 -0.0587666 -1.10798e-18)
(0.933295 -0.0546483 -2.49521e-18)
(0.942487 -0.0508707 -2.73874e-18)
(0.950901 -0.0473918 9.37501e-19)
(0.958335 -0.0441848 8.77968e-19)
(0.965149 -0.0412117 -2.57691e-18)
(0.971116 -0.0384562 -1.48688e-18)
(0.976584 -0.0358823 -1.17398e-18)
(0.981304 -0.0334807 -2.29794e-18)
(0.985617 -0.0312153 -1.03746e-18)
(0.989254 -0.0290809 -1.61434e-18)
(0.992553 -0.0270387 8.92423e-19)
(0.995223 -0.0250821 1.06895e-18)
(0.997608 -0.0231663 -1.14029e-18)
(0.999393 -0.0212736 4.47031e-20)
(1.00093 -0.0193455 -4.11159e-18)
(1.00187 -0.0173319 4.65325e-19)
(1.00258 -0.0151303 1.46458e-18)
(1.00266 -0.0125598 -1.99645e-18)
(1.00242 -0.00922133 4.66532e-20)
(1.00118 -0.00415194 1.80854e-18)
(0.160543 -0.405573 1.22388e-18)
(0.270107 -0.358511 -3.55384e-19)
(0.36308 -0.318706 8.67992e-19)
(0.442144 -0.284577 8.44273e-19)
(0.510178 -0.25513 -1.67888e-19)
(0.568704 -0.229523 -3.48193e-19)
(0.619659 -0.2072 -5.25764e-20)
(0.663918 -0.187624 6.33228e-19)
(0.702852 -0.170428 6.16865e-19)
(0.736943 -0.155235 -1.52028e-18)
(0.767205 -0.141789 -1.57737e-18)
(0.793873 -0.129821 -1.19307e-18)
(0.817731 -0.11915 1.37702e-18)
(0.838856 -0.109584 1.40777e-18)
(0.85788 -0.100993 -9.12648e-19)
(0.874777 -0.0932395 -9.90327e-19)
(0.890078 -0.0862294 -1.47548e-18)
(0.903689 -0.0798642 -1.9782e-18)
(0.916069 -0.0740719 -1.49238e-18)
(0.927077 -0.0687828 -1.37606e-18)
(0.937124 -0.0639392 -2.81703e-18)
(0.946034 -0.0594928 -1.19662e-18)
(0.954185 -0.0553945 9.81316e-19)
(0.961373 -0.0516123 3.62598e-19)
(0.967956 -0.0481018 -1.13808e-18)
(0.973704 -0.0448435 -3.21278e-18)
(0.978965 -0.041795 3.22567e-19)
(0.983487 -0.0389459 -2.34601e-18)
(0.98761 -0.0362532 -1.25929e-18)
(0.991064 -0.033712 -8.92809e-19)
(0.994188 -0.0312764 5.67463e-18)
(0.996688 -0.028942 1.92401e-18)
(0.998912 -0.026656 1.28644e-18)
(1.00054 -0.0244061 1.23252e-18)
(1.00193 -0.022124 1.97072e-18)
(1.00274 -0.0197697 1.60082e-18)
(1.00333 -0.0172242 1.53504e-18)
(1.00329 -0.0143097 1.47781e-18)
(1.00293 -0.0105468 4.92356e-18)
(1.00145 -0.00482171 1.02801e-18)
(0.188994 -0.463285 1.42896e-18)
(0.295259 -0.409537 9.6618e-20)
(0.385441 -0.364076 6.78468e-19)
(0.462113 -0.325096 -3.55958e-19)
(0.528083 -0.291461 -1.03802e-18)
(0.584813 -0.262212 -4.73988e-19)
(0.634202 -0.236713 6.79353e-19)
(0.677087 -0.214349 2.26594e-19)
(0.714814 -0.194703 7.75302e-19)
(0.747838 -0.177345 -7.29027e-19)
(0.777155 -0.161982 8.26408e-19)
(0.802981 -0.148305 -1.00454e-18)
(0.826086 -0.13611 4.4924e-19)
(0.846536 -0.125175 -1.77717e-19)
(0.864952 -0.115353 1.10606e-18)
(0.8813 -0.106487 -1.1717e-20)
(0.896102 -0.0984692 7.10735e-19)
(0.909258 -0.0911868 -1.30701e-18)
(0.921222 -0.0845574 2.29189e-18)
(0.931848 -0.0785015 1.56879e-18)
(0.941543 -0.0729529 -1.67438e-18)
(0.950126 -0.0678563 -6.87586e-19)
(0.957975 -0.0631553 -1.1364e-18)
(0.964879 -0.0588135 9.10123e-19)
(0.971196 -0.0547797 8.70707e-19)
(0.976694 -0.051032 -1.71997e-18)
(0.981718 -0.0475213 3.15884e-18)
(0.986015 -0.0442363 2.78288e-18)
(0.989923 -0.0411274 -6.51344e-18)
(0.993172 -0.0381908 -3.57409e-18)
(0.996099 -0.0353731 -1.53706e-18)
(0.998412 -0.0326738 5.54613e-19)
(1.00046 -0.0300315 3.46221e-18)
(1.00192 -0.0274413 -3.47351e-18)
(1.00315 -0.0248249 2.01837e-19)
(1.00381 -0.022154 3.00028e-18)
(1.00427 -0.0192921 2.41414e-18)
(1.0041 -0.0160636 9.74288e-19)
(1.00356 -0.011901 2.31468e-18)
(1.00178 -0.00552285 -1.03892e-18)
(0.22116 -0.519015 1.48845e-18)
(0.323696 -0.45881 5.46319e-19)
(0.410724 -0.407887 4.56006e-19)
(0.484691 -0.364223 -6.77417e-19)
(0.548326 -0.326545 6.0165e-19)
(0.603026 -0.293778 1.11543e-18)
(0.650644 -0.265211 7.92729e-20)
(0.691976 -0.240156 4.05675e-19)
(0.728338 -0.218145 9.00273e-19)
(0.760154 -0.198696 5.88309e-19)
(0.788402 -0.181481 9.13711e-19)
(0.813275 -0.166154 1.49924e-18)
(0.83553 -0.152486 6.88559e-19)
(0.855216 -0.140229 1.30803e-18)
(0.872945 -0.129219 2.68248e-18)
(0.888671 -0.119278 -1.44702e-19)
(0.902908 -0.110287 5.63354e-19)
(0.91555 -0.102118 -5.68176e-19)
(0.927044 -0.0946796 2.90859e-18)
(0.937238 -0.0878823 2.60206e-18)
(0.946536 -0.081652 5.0593e-19)
(0.954751 -0.0759265 8.25341e-19)
(0.962257 -0.0706425 -1.35466e-18)
(0.968843 -0.0657591 -1.32856e-18)
(0.974861 -0.0612189 9.98827e-19)
(0.980078 -0.0569973 1.49218e-18)
(0.984837 -0.053039 2.30336e-18)
(0.988883 -0.0493323 4.70573e-18)
(0.992553 -0.0458208 -1.42332e-18)
(0.995575 -0.0425024 2.75561e-18)
(0.998288 -0.0393166 -3.26019e-19)
(1.0004 -0.036267 -2.0529e-18)
(1.00225 -0.0332843 -8.28903e-19)
(1.00353 -0.0303716 -2.37314e-18)
(1.00459 -0.0274405 -1.46638e-18)
(1.0051 -0.0244752 -5.31708e-19)
(1.0054 -0.0213204 -4.1958e-18)
(1.00507 -0.0178005 -2.17114e-18)
(1.00433 -0.0132578 7.49529e-18)
(1.00217 -0.00623265 -7.33186e-19)
(0.256901 -0.572519 -9.95631e-20)
(0.355294 -0.506117 -6.71738e-19)
(0.438818 -0.449949 1.03221e-18)
(0.509779 -0.401788 1.16661e-18)
(0.57082 -0.360227 5.36599e-19)
(0.623264 -0.324084 -1.60923e-18)
(0.668914 -0.292572 -8.07558e-20)
(0.70852 -0.264933 5.27312e-19)
(0.743364 -0.240651 1.45669e-18)
(0.773839 -0.219193 1.70393e-18)
(0.800898 -0.2002 -1.11605e-18)
(0.824713 -0.183289 -1.20561e-18)
(0.846022 -0.168207 1.19112e-19)
(0.864859 -0.154681 -1.71973e-18)
(0.881823 -0.142529 9.31926e-19)
(0.896858 -0.131556 1.78819e-18)
(0.910468 -0.121629 -3.4737e-19)
(0.922539 -0.112609 1.12434e-18)
(0.933511 -0.104393 2.27087e-18)
(0.943225 -0.0968833 1.31427e-18)
(0.952081 -0.0899976 1.13991e-18)
(0.959888 -0.0836675 2.80741e-19)
(0.967015 -0.0778228 8.70301e-19)
(0.973248 -0.0724185 -1.70558e-18)
(0.978936 -0.0673909 -1.76597e-18)
(0.983844 -0.0627136 4.89177e-18)
(0.988311 -0.0583246 3.93734e-19)
(0.992082 -0.0542125 -2.48478e-18)
(0.995492 -0.0503142 -7.52445e-18)
(0.998269 -0.0466298 -2.4184e-18)
(1.00075 -0.0430916 -7.21521e-19)
(1.00264 -0.0397083 8.16046e-19)
(1.00428 -0.0364023 -2.44289e-18)
(1.00537 -0.0331852 4.79582e-18)
(1.00625 -0.0299588 -3.56467e-18)
(1.00658 -0.0267186 1.91273e-18)
(1.00671 -0.023291 7.15062e-20)
(1.0062 -0.0194971 1.46804e-18)
(1.0052 -0.0145906 1.37769e-18)
(1.00262 -0.00693089 -2.98213e-18)
(0.296066 -0.623573 -1.03953e-18)
(0.38992 -0.551256 -6.00087e-19)
(0.469603 -0.490085 1.00236e-19)
(0.537272 -0.437632 -2.52733e-18)
(0.59547 -0.392367 -1.91903e-18)
(0.645441 -0.353002 1.02056e-18)
(0.688935 -0.318679 1.06494e-18)
(0.726649 -0.288575 3.50041e-18)
(0.75983 -0.262125 2.45998e-18)
(0.788835 -0.238752 -1.47276e-18)
(0.814592 -0.218062 -2.58877e-18)
(0.837245 -0.199639 -8.31586e-19)
(0.857519 -0.183208 -6.94649e-19)
(0.875425 -0.16847 6.41884e-19)
(0.891551 -0.155228 2.30287e-18)
(0.905828 -0.14327 1.9335e-18)
(0.918752 -0.13245 5.98455e-19)
(0.930196 -0.122616 3.32111e-18)
(0.940596 -0.113658 3.69376e-18)
(0.949785 -0.105468 -1.76499e-19)
(0.958158 -0.0979563 -1.71006e-18)
(0.965518 -0.0910484 -1.41479e-18)
(0.972231 -0.0846678 1.68621e-18)
(0.978079 -0.0787657 -2.9789e-20)
(0.983407 -0.0732723 -2.53075e-18)
(0.987979 -0.0681593 1.53598e-18)
(0.992129 -0.0633589 -1.81416e-18)
(0.995603 -0.0588598 1.55929e-18)
(0.998732 -0.0545926 -7.53009e-18)
(1.00124 -0.0505598 -6.39328e-18)
(1.00347 -0.0466869 -1.97654e-18)
(1.00513 -0.0429876 -1.54079e-19)
(1.00655 -0.0393766 1.3466e-18)
(1.00742 -0.0358736 3.42968e-18)
(1.0081 -0.0323707 -3.92076e-18)
(1.00824 -0.0288735 3.54744e-18)
(1.00819 -0.0251903 5.00984e-19)
(1.00747 -0.0211364 -1.43704e-18)
(1.00619 -0.0158809 1.9106e-18)
(1.00311 -0.00760487 -1.74422e-18)
(0.338485 -0.671954 3.54304e-18)
(0.427423 -0.594033 2.26957e-18)
(0.502947 -0.52812 1.12131e-18)
(0.567049 -0.4716 3.10244e-19)
(0.622169 -0.422824 -1.48171e-18)
(0.669462 -0.380405 8.72303e-19)
(0.71062 -0.343419 1.31115e-18)
(0.746284 -0.310978 3.82934e-19)
(0.777664 -0.282475 -7.78855e-19)
(0.805076 -0.257286 1.91101e-18)
(0.829422 -0.234987 2.25676e-19)
(0.850819 -0.215131 2.54587e-19)
(0.869969 -0.197421 -2.42948e-18)
(0.886867 -0.181534 -1.27666e-18)
(0.902086 -0.167259 9.59238e-19)
(0.915542 -0.154367 -1.17144e-18)
(0.927722 -0.1427 -1.233e-18)
(0.938488 -0.132096 -9.74528e-19)
(0.948268 -0.122433 5.433e-19)
(0.95689 -0.113598 1.22807e-18)
(0.96474 -0.105492 -1.94721e-18)
(0.971618 -0.098036 -1.56499e-18)
(0.977884 -0.0911468 2.57169e-18)
(0.983316 -0.0847724 2.89916e-18)
(0.988256 -0.0788369 -6.00735e-19)
(0.992466 -0.0733107 5.55103e-18)
(0.996276 -0.0681201 -1.36122e-18)
(0.999431 -0.0632544 5.2641e-19)
(1.00226 -0.058638 -7.17315e-19)
(1.00449 -0.054276 1.74348e-18)
(1.00645 -0.0500875 -2.13879e-18)
(1.00785 -0.0460909 -1.21666e-18)
(1.00904 -0.0421939 5.40588e-18)
(1.00969 -0.0384234 5.76472e-18)
(1.01015 -0.0346624 -4.21456e-18)
(1.01008 -0.0309247 -2.09297e-19)
(1.00981 -0.0270015 1.00054e-18)
(1.00886 -0.0227 -2.82678e-18)
(1.00727 -0.0171108 -7.21651e-18)
(1.00365 -0.00824372 -1.77527e-18)
(0.383979 -0.71746 3.43111e-18)
(0.467645 -0.634267 2.40006e-18)
(0.53871 -0.563894 1.17349e-18)
(0.598986 -0.503548 6.79143e-19)
(0.650804 -0.451471 3.1211e-19)
(0.695224 -0.406179 -1.41411e-18)
(0.733878 -0.366688 2.2216e-18)
(0.767343 -0.332049 1.27601e-18)
(0.796791 -0.301614 -2.09873e-20)
(0.822495 -0.274717 1.65868e-18)
(0.845328 -0.250905 2.74414e-19)
(0.865376 -0.229702 -3.13689e-18)
(0.883322 -0.210788 -6.75495e-19)
(0.899139 -0.193821 -2.18379e-18)
(0.913385 -0.178574 -1.73541e-18)
(0.925961 -0.164802 -1.68935e-18)
(0.937343 -0.152339 8.18415e-19)
(0.947382 -0.141008 1.931e-18)
(0.956499 -0.130684 2.2446e-18)
(0.964512 -0.12124 -2.42377e-18)
(0.971802 -0.112575 -1.04755e-18)
(0.978163 -0.104603 -1.17958e-18)
(0.983951 -0.097235 -1.91233e-18)
(0.988939 -0.0904158 1.30433e-18)
(0.993465 -0.0840641 1.4532e-18)
(0.997289 -0.0781489 5.51617e-18)
(1.00074 -0.0725914 1.31288e-19)
(1.00355 -0.067381 2.55073e-18)
(1.00606 -0.0624368 2.19277e-18)
(1.00799 -0.0577663 -1.30706e-18)
(1.00967 -0.0532825 9.3186e-19)
(1.0108 -0.0490084 -8.93997e-19)
(1.01173 -0.044845 -4.50726e-19)
(1.01214 -0.0408254 5.92047e-18)
(1.01237 -0.0368243 7.96296e-18)
(1.01208 -0.032862 -8.59943e-19)
(1.01158 -0.0287138 3.91833e-19)
(1.01038 -0.024177 -2.74225e-18)
(1.00843 -0.0182704 4.06393e-18)
(1.00423 -0.00884265 -3.68879e-19)
(0.432352 -0.759891 -1.03246e-19)
(0.510412 -0.671782 1.7047e-18)
(0.576734 -0.59725 1.06829e-18)
(0.632943 -0.533338 1.05742e-18)
(0.68125 -0.478181 3.55351e-18)
(0.722617 -0.430211 7.94372e-19)
(0.758607 -0.388384 1.26552e-18)
(0.789735 -0.351695 5.6029e-19)
(0.817128 -0.319459 -2.47828e-18)
(0.841016 -0.290969 -9.19194e-19)
(0.862239 -0.265746 -4.2051e-19)
(0.880853 -0.243286 -2.42923e-19)
(0.897519 -0.223249 -7.39898e-19)
(0.912186 -0.205274 -5.46487e-19)
(0.925398 -0.189121 -5.46092e-19)
(0.937038 -0.174529 3.87737e-18)
(0.947572 -0.161322 -1.94955e-19)
(0.956839 -0.149314 5.8007e-18)
(0.96525 -0.138371 4.35455e-18)
(0.972617 -0.128361 1.87891e-18)
(0.979312 -0.119174 7.64296e-19)
(0.985126 -0.11072 -4.0165e-19)
(0.990406 -0.102905 -1.79304e-18)
(0.994923 -0.0956703 2.33673e-18)
(0.999011 -0.0889302 2.34527e-19)
(1.00243 -0.0826523 -2.12319e-18)
(1.00549 -0.0767526 3.60937e-18)
(1.00795 -0.0712212 -1.06125e-18)
(1.01012 -0.065972 4.05961e-19)
(1.01173 -0.0610148 -1.90598e-18)
(1.01311 -0.0562571 -7.23418e-19)
(1.01396 -0.0517259 -3.14376e-18)
(1.01462 -0.0473159 4.55583e-18)
(1.01478 -0.043066 3.98783e-18)
(1.01476 -0.0388428 2.41649e-18)
(1.01423 -0.0346714 6.31171e-18)
(1.01347 -0.030313 -3.20396e-18)
(1.01199 -0.0255541 1.9603e-19)
(1.00967 -0.0193487 -5.67576e-18)
(1.00485 -0.00939624 -6.58686e-18)
(0.483397 -0.79907 4.72469e-19)
(0.555542 -0.706422 1.67617e-18)
(0.616861 -0.62805 8.25793e-19)
(0.668778 -0.560843 1.58369e-18)
(0.71338 -0.502844 2.31054e-18)
(0.751524 -0.452401 1.9699e-18)
(0.784703 -0.408416 8.48254e-19)
(0.813365 -0.369835 -9.37431e-19)
(0.83859 -0.335935 -3.39422e-18)
(0.86056 -0.305974 5.97577e-19)
(0.880086 -0.279448 -1.04327e-18)
(0.897186 -0.255827 -8.84261e-19)
(0.912501 -0.234753 -5.33691e-18)
(0.925955 -0.215848 -2.91698e-18)
(0.938076 -0.198857 -2.51976e-18)
(0.948729 -0.183508 -5.22564e-19)
(0.958368 -0.169614 -2.6268e-19)
(0.96682 -0.156981 -7.45207e-19)
(0.974488 -0.145466 -1.13732e-19)
(0.981173 -0.134931 -2.52248e-18)
(0.987242 -0.125262 2.7499e-18)
(0.992478 -0.116363 7.35519e-19)
(0.997223 -0.108134 1.75989e-18)
(1.00125 -0.100516 7.21108e-19)
(1.00487 -0.0934175 -1.32215e-19)
(1.00786 -0.0868047 -1.02803e-18)
(1.01052 -0.0805892 6.73559e-19)
(1.0126 -0.0747618 -1.61587e-18)
(1.01441 -0.0692316 3.00594e-18)
(1.0157 -0.0640106 2.95724e-18)
(1.01675 -0.0590012 1.60944e-18)
(1.01731 -0.0542339 1.85511e-20)
(1.01768 -0.0495979 1.68051e-18)
(1.01757 -0.0451365 -4.00272e-18)
(1.01729 -0.0407092 8.09659e-22)
(1.0165 -0.0363448 -2.05562e-18)
(1.01547 -0.0317915 -5.87709e-18)
(1.0137 -0.026825 -2.76631e-18)
(1.01098 -0.0203412 -6.01903e-18)
(1.0055 -0.00990344 -1.77855e-18)
(0.536895 -0.834825 3.36473e-18)
(0.602841 -0.738035 2.22608e-18)
(0.658915 -0.656157 1.43907e-19)
(0.706334 -0.585945 2.18445e-18)
(0.747054 -0.52535 1.52288e-18)
(0.78182 -0.472649 3.67122e-18)
(0.812053 -0.426696 2.6504e-18)
(0.83813 -0.386388 1.529e-18)
(0.861083 -0.350969 3.13996e-23)
(0.881044 -0.319665 1.04553e-18)
(0.898789 -0.29195 -6.98356e-19)
(0.914304 -0.267269 1.01206e-18)
(0.928203 -0.245249 1.03419e-18)
(0.940386 -0.225494 -6.74507e-19)
(0.951362 -0.207738 -2.12697e-18)
(0.960981 -0.191697 -4.29668e-18)
(0.969682 -0.177176 -3.93678e-18)
(0.977281 -0.163972 -5.08821e-19)
(0.98417 -0.151935 -6.52037e-18)
(0.990141 -0.140922 -1.25238e-18)
(0.995555 -0.130811 2.57292e-18)
(1.00019 -0.121506 -3.6816e-19)
(1.00437 -0.1129 -8.13651e-19)
(1.00788 -0.104932 -1.04881e-18)
(1.01102 -0.0975053 -6.67414e-19)
(1.01356 -0.0905867 -2.7726e-18)
(1.0158 -0.0840832 1.47678e-18)
(1.01749 -0.0779859 -8.84512e-19)
(1.01893 -0.0722 2.1447e-18)
(1.01986 -0.0667389 2.15711e-18)
(1.02059 -0.0615007 5.54089e-18)
(1.02084 -0.0565191 5.27602e-19)
(1.02091 -0.0516779 -5.96059e-19)
(1.02051 -0.0470243 -6.65519e-18)
(1.01995 -0.0424113 4.54355e-18)
(1.01889 -0.0378704 -8.16621e-18)
(1.01757 -0.0331382 -1.64682e-18)
(1.01548 -0.0279802 1.04528e-18)
(1.01234 -0.0212407 -1.17297e-18)
(1.00617 -0.010361 2.43268e-18)
(0.592618 -0.867007 3.08885e-18)
(0.652108 -0.766488 3.12249e-18)
(0.70272 -0.681456 -8.72816e-19)
(0.745454 -0.608537 2.80095e-18)
(0.782129 -0.545606 1.59749e-18)
(0.813377 -0.490874 1.35428e-18)
(0.840541 -0.443148 1.12661e-18)
(0.863926 -0.401285 6.6585e-19)
(0.884512 -0.364499 -1.34366e-18)
(0.90238 -0.331987 2.93476e-18)
(0.918272 -0.303201 1.59749e-18)
(0.932135 -0.277566 9.54326e-20)
(0.944559 -0.254694 -2.74237e-18)
(0.955417 -0.234174 -6.17344e-18)
(0.965203 -0.21573 -1.42356e-18)
(0.973744 -0.199066 1.28027e-18)
(0.98147 -0.18398 1.2541e-18)
(0.98818 -0.170261 -1.45862e-18)
(0.994258 -0.157753 -2.65093e-18)
(0.999486 -0.146309 5.54792e-19)
(1.00422 -0.135802 6.4888e-21)
(1.00822 -0.12613 -3.39757e-18)
(1.01182 -0.117184 -3.97562e-18)
(1.01479 -0.1089 -3.98173e-18)
(1.01743 -0.101179 6.7081e-19)
(1.0195 -0.093985 -3.14441e-18)
(1.02131 -0.0872224 9.52734e-20)
(1.02259 -0.0808826 3.18566e-18)
(1.02364 -0.0748669 4.99852e-18)
(1.02421 -0.0691904 -1.46079e-18)
(1.0246 -0.0637471 3.75683e-18)
(1.02452 -0.0585733 -1.50302e-18)
(1.02428 -0.0535483 3.87147e-18)
(1.02358 -0.0487222 4.0282e-18)
(1.02273 -0.0439423 4.96244e-18)
(1.02138 -0.0392421 -5.34613e-18)
(1.01976 -0.034348 4.72018e-18)
(1.01734 -0.0290161 -6.9387e-18)
(1.01376 -0.0220455 -5.34519e-18)
(1.00687 -0.0107693 1.94269e-18)
(0.650327 -0.895475 3.67737e-18)
(0.70313 -0.791657 8.22813e-19)
(0.748085 -0.703834 2.0125e-19)
(0.785967 -0.628521 4.16703e-18)
(0.818454 -0.563523 1.47091e-18)
(0.846058 -0.506993 -9.29614e-19)
(0.870044 -0.457699 -2.0198e-18)
(0.89064 -0.41446 5.44969e-19)
(0.908775 -0.376465 1.55686e-18)
(0.924476 -0.342884 4.93447e-19)
(0.938448 -0.313151 2.51352e-18)
(0.9506 -0.286671 7.21801e-20)
(0.961497 -0.263046 1.04348e-18)
(0.970984 -0.241848 1.3382e-18)
(0.979537 -0.222794 3.93978e-18)
(0.986963 -0.205579 1.30962e-18)
(0.993677 -0.189993 1.06125e-18)
(0.999467 -0.175818 2.01443e-19)
(1.00471 -0.162894 1.35e-18)
(1.00917 -0.151068 -2.67878e-18)
(1.01319 -0.14021 -2.83153e-19)
(1.01654 -0.130213 -1.08075e-18)
(1.01955 -0.120966 -3.88147e-19)
(1.02196 -0.112403 -4.46487e-18)
(1.02408 -0.10442 1.34703e-18)
(1.02567 -0.0969832 -2.70084e-18)
(1.02702 -0.0899914 -2.24662e-18)
(1.02787 -0.0834373 7.10654e-19)
(1.02853 -0.0772186 1.4369e-18)
(1.02873 -0.071352 -5.17909e-19)
(1.02875 -0.0657279 -2.91458e-18)
(1.02834 -0.0603846 1.11691e-18)
(1.02777 -0.0551976 -3.11078e-18)
(1.02677 -0.0502192 -1.37351e-18)
(1.0256 -0.0452919 4.83899e-18)
(1.02395 -0.0404503 7.24436e-18)
(1.02202 -0.0354124 7.68927e-18)
(1.01926 -0.0299256 1.88172e-18)
(1.01523 -0.0227504 -4.02395e-18)
(1.00759 -0.0111258 -1.62913e-19)
(0.709776 -0.92011 3.35309e-18)
(0.755692 -0.813437 1.42619e-18)
(0.794819 -0.723198 1.64857e-18)
(0.827703 -0.645813 1.79383e-18)
(0.855875 -0.579027 -2.04648e-18)
(0.879725 -0.52094 -1.98292e-18)
(0.900438 -0.47029 1.37682e-19)
(0.918161 -0.42586 1.03642e-18)
(0.933771 -0.386818 3.29892e-19)
(0.947239 -0.352311 1.9211e-18)
(0.959233 -0.321758 2.45693e-18)
(0.969623 -0.294548 -1.68167e-18)
(0.978947 -0.27027 1.68542e-18)
(0.987022 -0.248486 4.44019e-19)
(0.994304 -0.228904 -1.7267e-18)
(1.00058 -0.211211 -6.60561e-22)
(1.00625 -0.195192 1.49838e-18)
(1.0111 -0.180623 5.85151e-19)
(1.01547 -0.167339 2.08352e-18)
(1.01914 -0.155182 -3.68592e-18)
(1.02244 -0.144018 1.5946e-18)
(1.02512 -0.13374 -2.58469e-20)
(1.02751 -0.124233 -3.24986e-19)
(1.02934 -0.115428 1.28822e-18)
(1.03093 -0.107219 3.06973e-18)
(1.03202 -0.0995709 1.65865e-18)
(1.03291 -0.0923809 3.62073e-19)
(1.03333 -0.0856414 4.70804e-19)
(1.03358 -0.0792474 1.19957e-18)
(1.03339 -0.0732166 1.94764e-18)
(1.03304 -0.0674365 -1.28427e-18)
(1.03228 -0.0619469 -3.39748e-18)
(1.03138 -0.0566201 -1.31456e-18)
(1.03005 -0.0515103 3.33648e-18)
(1.02857 -0.0464555 -8.64518e-18)
(1.02661 -0.0414913 -9.26106e-18)
(1.02435 -0.0363284 4.86367e-18)
(1.02123 -0.0307072 -2.84875e-18)
(1.01673 -0.0233553 -1.00424e-18)
(1.00833 -0.0114315 3.37059e-19)
(0.770708 -0.940803 2.77051e-18)
(0.809565 -0.831732 2.41814e-18)
(0.842719 -0.739463 6.48602e-19)
(0.87048 -0.660337 1.58399e-18)
(0.894229 -0.592048 1.5186e-18)
(0.914233 -0.532654 -5.47233e-19)
(0.931589 -0.480863 -6.83672e-19)
(0.946368 -0.435433 5.73828e-19)
(0.959389 -0.395511 1.53942e-18)
(0.970569 -0.360227 2.30627e-18)
(0.980536 -0.328985 1.63044e-18)
(0.98912 -0.30116 3.06766e-18)
(0.996832 -0.276333 1.58171e-18)
(1.00346 -0.254057 -3.26503e-18)
(1.00944 -0.234031 -3.08081e-18)
(1.01454 -0.215937 -1.51942e-18)
(1.01915 -0.199553 -3.71901e-18)
(1.02302 -0.184652 -6.24044e-19)
(1.02651 -0.171064 1.35056e-18)
(1.02937 -0.158629 1.67859e-18)
(1.03192 -0.147209 1.27847e-18)
(1.03392 -0.136695 1.13732e-19)
(1.03567 -0.126968 -2.21411e-18)
(1.03692 -0.117959 -8.05248e-19)
(1.03796 -0.10956 2.28793e-20)
(1.03854 -0.101735 -1.35245e-18)
(1.03895 -0.0943783 1.86437e-18)
(1.03893 -0.0874831 -5.88318e-19)
(1.03875 -0.0809419 8.759e-19)
(1.03816 -0.0747734 -7.22063e-18)
(1.03744 -0.0688625 -9.86374e-19)
(1.03632 -0.0632504 2.41509e-18)
(1.03507 -0.0578065 -4.09352e-18)
(1.03342 -0.0525864 -3.65601e-18)
(1.03161 -0.0474247 -4.92881e-18)
(1.02932 -0.0423574 -2.21244e-19)
(1.02673 -0.0370896 -2.53019e-18)
(1.02325 -0.0313554 -3.42618e-18)
(1.01827 -0.023856 2.19832e-18)
(1.00908 -0.0116841 3.1948e-18)
(0.832866 -0.95747 -1.00852e-19)
(0.864522 -0.846466 -1.02923e-18)
(0.891583 -0.752562 -2.92582e-19)
(0.914117 -0.672034 1.7074e-18)
(0.933355 -0.602533 -6.84754e-19)
(0.949434 -0.542086 2.09172e-19)
(0.963367 -0.489376 -2.22466e-18)
(0.975142 -0.44314 -1.52331e-18)
(0.985524 -0.40251 1.26501e-18)
(0.994369 -0.366599 3.66551e-18)
(1.00227 -0.334801 3.26422e-18)
(1.00901 -0.306482 -3.81672e-19)
(1.01508 -0.281213 -3.32404e-18)
(1.02023 -0.258539 -3.37764e-18)
(1.02488 -0.238156 -2.28862e-18)
(1.02878 -0.219738 2.76797e-18)
(1.0323 -0.20306 1.28845e-18)
(1.03518 -0.187891 -1.29399e-18)
(1.03777 -0.174059 1.91428e-18)
(1.0398 -0.161399 1.22904e-18)
(1.04159 -0.149772 1.95984e-18)
(1.04289 -0.139066 1.45144e-18)
(1.044 -0.129162 -7.94332e-18)
(1.04465 -0.119989 -2.85418e-18)
(1.04513 -0.111437 6.84984e-18)
(1.0452 -0.103468 -1.14513e-18)
(1.04512 -0.0959772 1.67227e-18)
(1.04464 -0.0889565 2.28431e-18)
(1.04403 -0.0822968 -4.65388e-18)
(1.04304 -0.0760175 -2.08886e-18)
(1.04194 -0.0700015 1.05479e-18)
(1.04045 -0.0642911 5.17859e-18)
(1.03885 -0.0587532 1.94449e-18)
(1.03685 -0.0534446 6.78088e-18)
(1.03471 -0.048197 7.05152e-18)
(1.03209 -0.0430469 2.34535e-18)
(1.02916 -0.0376948 3.57859e-18)
(1.0253 -0.0318701 1.66116e-18)
(1.01983 -0.0242533 -5.06844e-18)
(1.00985 -0.0118849 1.94836e-18)
(0.895981 -0.970035 -3.27178e-19)
(0.920324 -0.857574 -9.73397e-19)
(0.941199 -0.762437 -6.70658e-20)
(0.958426 -0.68085 1.26469e-20)
(0.973083 -0.610436 -2.41761e-18)
(0.985176 -0.549194 -9.90021e-19)
(0.995634 -0.495791 -3.38398e-19)
(1.00436 -0.448946 -1.5341e-18)
(1.01206 -0.407781 -6.035e-19)
(1.01853 -0.371397 6.62758e-20)
(1.02433 -0.339181 1.90679e-19)
(1.02921 -0.310488 -4.17636e-18)
(1.0336 -0.284885 -3.59299e-18)
(1.03725 -0.261911 2.28156e-18)
(1.04056 -0.241258 -9.8206e-19)
(1.04324 -0.222595 1.13487e-18)
(1.04566 -0.205696 6.43913e-19)
(1.04753 -0.190324 9.31005e-19)
(1.0492 -0.176306 5.71087e-18)
(1.0504 -0.163476 3.3218e-19)
(1.05142 -0.151693 4.46864e-18)
(1.05201 -0.140843 3.96045e-18)
(1.05245 -0.130804 -5.34468e-18)
(1.0525 -0.121507 -3.74658e-18)
(1.05242 -0.112838 1.0267e-18)
(1.05196 -0.104761 -3.24714e-18)
(1.05138 -0.0971685 3.81075e-18)
(1.05044 -0.0900529 6.7876e-18)
(1.0494 -0.0833038 -5.82105e-18)
(1.048 -0.076941 1.5961e-18)
(1.0465 -0.070846 1.64092e-18)
(1.04464 -0.0650615 1.55089e-18)
(1.04268 -0.0594532 -1.13836e-18)