/*--------------------------------*- C++ -*----------------------------------*\
| =========                 |                                                 |
| \\      /  F ield         | foam-extend: Open Source CFD                    |
|  \\    /   O peration     | Version:  3.0                                   |
|   \\  /    A nd           | Web:         http://www.extend-project.de       |
|    \\/     M anipulation  |                                                 |
\*---------------------------------------------------------------------------*/
FoamFile
{
    version     2.0;
    format      ascii;
    class       volSymmTensorField;
    location    "18";
    object      sigma;
}
// * * * * * * * * * * * * * * * * * * * * * * * * * * * * * * * * * * * * * //

dimensions      [0 0 0 0 0 0 0];

internalField   nonuniform List<symmTensor> 
672
(
(-0.1688066769 -0.01042764318 -1.232808185e-19 0.1687813011 -2.488932015e-20 2.537571806e-05)
(-0.1555794771 -0.01199489934 -2.84853746e-19 0.1555145502 -1.514640998e-20 6.49269276e-05)
(-0.1369439373 -0.01180864781 -1.890388987e-19 0.1368461748 -6.19678189e-21 9.776249301e-05)
(-0.1177130478 -0.01095157541 -7.952469117e-20 0.1175892237 -6.867938544e-22 0.0001238241066)
(-0.09961097321 -0.009871658789 -3.096194576e-19 0.09946846106 -3.412564134e-20 0.0001425121514)
(-0.08315738616 -0.008764987162 -3.006423678e-19 0.0830045861 -1.469635626e-19 0.0001528000587)
(-0.06848845093 -0.007716857691 -4.644220678e-19 0.0683347852 -1.544271e-19 0.0001536657331)
(-0.05562950153 -0.006774614731 -5.71278222e-19 0.05548530956 -4.122621469e-19 0.0001441919679)
(-0.04456575438 -0.005954841418 -5.935961289e-19 0.04444170129 -2.73787412e-19 0.0001240530951)
(-0.03540787315 -0.005284437047 -3.323448826e-19 0.03531392186 -1.37826821e-20 9.395129458e-05)
(-0.0282455456 -0.004771388646 -1.007161048e-19 0.02818926974 1.222177851e-19 5.627586178e-05)
(-0.02341459936 -0.004434255108 -3.328382516e-20 0.0233984505 -2.045140019e-19 1.614886124e-05)
(-0.1658845202 -0.03091847965 -1.021039606e-19 0.1658617169 8.038333581e-21 2.280335397e-05)
(-0.1507726198 -0.03532517326 -2.709831413e-19 0.1507142243 6.195552306e-20 5.83954912e-05)
(-0.1315975258 -0.0346888068 -2.204516327e-19 0.1315095243 1.464101773e-19 8.800156036e-05)
(-0.1123965762 -0.03213362467 -4.835084247e-20 0.1122851775 -5.090182469e-20 0.0001113986232)
(-0.09456278234 -0.02895122174 -2.990042347e-19 0.09443472067 2.247015288e-20 0.0001280616621)
(-0.07846205619 -0.0257058552 -2.959452727e-19 0.07832505138 -2.442575401e-19 0.000137004809)
(-0.06415997289 -0.02264342895 -5.529508419e-19 0.06402268274 -3.702456787e-19 0.0001372901455)
(-0.05164052851 -0.01990098948 -8.929092781e-19 0.05151240838 -5.641610778e-19 0.0001281201261)
(-0.04087294599 -0.01752826831 -4.916035449e-19 0.0407636545 -7.454650183e-20 0.0001092914897)
(-0.03194723876 -0.01560596922 -1.050509759e-19 0.03186557214 -1.094911708e-19 8.166661762e-05)
(-0.02494784067 -0.01416203921 -3.327586315e-19 0.02490005766 -1.371961795e-19 4.778301176e-05)
(-0.02020179857 -0.01326577336 -1.574911445e-19 0.02018888865 -1.676712925e-19 1.290991574e-05)
(-0.1601777977 -0.05063207857 -3.118930646e-20 0.1601578826 -5.09534001e-20 1.991507944e-05)
(-0.1415444433 -0.05681505929 -2.086912367e-19 0.1414933589 1.36921795e-19 5.108444819e-05)
(-0.1213806194 -0.05535601393 -2.757868188e-19 0.1213035889 2.581387793e-19 7.703050201e-05)
(-0.1022607799 -0.05103023883 -2.229921123e-19 0.1021633185 7.706912536e-20 9.746134175e-05)
(-0.08495383245 -0.04580469391 -3.466269319e-19 0.08484196621 5.616823657e-20 0.0001118662333)
(-0.06953608015 -0.04053232241 -6.920181115e-19 0.06941676471 -1.633509526e-19 0.0001193154411)
(-0.05594016346 -0.03558263537 -1.006661858e-18 0.05582119654 -4.732601223e-20 0.0001189669198)
(-0.044072219 -0.03116043151 -9.40213412e-19 0.04396204727 -7.610994147e-20 0.0001101717251)
(-0.03387116884 -0.02733991195 -3.318623094e-19 0.03377829939 9.974496792e-21 9.286945314e-05)
(-0.02538772381 -0.02424498142 -5.061602227e-19 0.02531963019 -2.580512513e-19 6.809362672e-05)
(-0.01869573218 -0.02192098049 -3.65352181e-19 0.01865723185 -2.448078194e-19 3.850032317e-05)
(-0.01410358992 -0.02048426876 -6.513969039e-20 0.01409415188 -1.784215931e-19 9.438038221e-06)
(-0.1519256903 -0.06911159513 5.418215361e-20 0.1519089514 -5.319197097e-20 1.673892139e-05)
(-0.1286137646 -0.0754385434 -2.442736568e-20 0.128570703 1.652035368e-19 4.306167058e-05)
(-0.1071889058 -0.0725879772 -1.892836802e-19 0.1071239031 2.644695151e-19 6.500272736e-05)
(-0.08824558225 -0.06638443497 -2.143642459e-19 0.08816339677 1.850352659e-19 8.218547305e-05)
(-0.07170908567 -0.05921103249 -2.597975589e-19 0.07161496442 -3.468771055e-20 9.412125522e-05)
(-0.05726522531 -0.05208701824 -4.737819329e-19 0.05716526817 1.073263412e-19 9.995714646e-05)
(-0.04466772097 -0.04544855697 -6.361637731e-19 0.04456876047 3.615716556e-19 9.896049789e-05)
(-0.03371804057 -0.03953439611 -1.293814162e-18 0.03362740004 3.358848884e-19 9.064053014e-05)
(-0.02431434989 -0.03442981453 -7.146491921e-19 0.02423926299 1.201247788e-19 7.508689645e-05)
(-0.01645401304 -0.03028548996 -8.88804598e-19 0.01640052155 6.065984627e-19 5.349149377e-05)
(-0.01019607741 -0.02716006412 -7.278233618e-19 0.01016747123 2.233243034e-19 2.860618162e-05)
(-0.005821927077 -0.02521100283 -1.877694985e-19 0.005816134395 2.76099878e-19 5.792682459e-06)
(-0.1414590297 -0.08598276415 -1.985705342e-21 0.1414456892 1.392831364e-19 1.334047892e-05)
(-0.1129617931 -0.09044724086 6.636733191e-20 0.1129273301 2.271428876e-19 3.44630143e-05)
(-0.09024291489 -0.08551307096 -1.785173661e-19 0.0901908133 3.184844631e-19 5.21015946e-05)
(-0.0716307936 -0.0773093562 -3.138727318e-19 0.07156499725 1.582746553e-19 6.579635281e-05)
(-0.05608743477 -0.06831478083 -4.345865328e-19 0.05601234878 3.019551289e-21 7.508598541e-05)
(-0.04285466984 -0.05956369632 -3.525883885e-19 0.04277545831 2.429944998e-19 7.921153478e-05)
(-0.03148345772 -0.05148858421 -1.990811183e-19 0.03140589736 3.167184606e-19 7.756036945e-05)
(-0.02165699473 -0.04432042234 -1.013249076e-18 0.02158718392 4.643827573e-19 6.981081329e-05)
(-0.0132274865 -0.03813901941 -4.350322173e-19 0.01317128592 4.722393298e-19 5.620057984e-05)
(-0.006131253822 -0.03310148698 3.637841962e-19 0.006093181037 4.221890589e-19 3.807278481e-05)
(-0.0004098462536 -0.02927461698 -7.300995634e-19 0.000391607217 4.547581954e-19 1.823903663e-05)
(0.003688640057 -0.02684928693 -2.110651254e-19 -0.003690664462 2.251513287e-19 2.024404845e-06)
(-0.1291706063 -0.100974465 -2.176897422e-22 0.1291608409 1.780294771e-19 9.765462212e-06)
(-0.09572784272 -0.1014374022 9.728822322e-20 0.0957024379 3.029622272e-19 2.540481221e-05)
(-0.07195563114 -0.0936947234 4.881480369e-20 0.0719171314 2.375697844e-19 3.849974565e-05)
(-0.05389611427 -0.08337724172 -3.557884693e-19 0.05384760124 1.57532642e-19 4.851302757e-05)
(-0.03954321631 -0.07271390088 -2.289037722e-19 0.03948819836 -1.18549397e-19 5.501795071e-05)
(-0.02769581793 -0.06259155238 -2.882507948e-19 0.02763845596 2.312251637e-19 5.736197348e-05)
(-0.01770375972 -0.05336345424 3.928104453e-19 0.01764869606 3.340773257e-20 5.506365405e-05)
(-0.009133536245 -0.04520804055 -4.291354501e-19 0.009085561119 7.305617584e-20 4.797512601e-05)
(-0.001792247397 -0.03818190609 -9.583952886e-19 0.001755763792 1.157321658e-19 3.648360495e-05)
(0.004445241669 -0.03242664626 -2.299157103e-19 -0.004467306685 4.509812768e-19 2.206501664e-05)
(0.009555768594 -0.02801157374 7.832493741e-19 -0.009563333072 2.531466591e-21 7.564478747e-06)
(0.01332835432 -0.02515227246 -3.744337117e-19 -0.01332655539 2.064097945e-20 -1.798925565e-06)
(-0.115480969 -0.1139287661 4.969982685e-20 0.1154749039 1.05475195e-19 6.065082822e-06)
(-0.07808925995 -0.1083791575 9.23703218e-20 0.07807324393 2.830299468e-19 1.601601621e-05)
(-0.0537800921 -0.09716768326 2.291071792e-19 0.05375570111 7.489051263e-20 2.439098509e-05)
(-0.03655993705 -0.08465741094 -1.884792192e-19 0.0365293538 -1.068541691e-19 3.058324571e-05)
(-0.02356677243 -0.07249710284 -7.158411851e-19 0.02353256586 -1.016728721e-19 3.420657391e-05)
(-0.01321301141 -0.06127095495 -4.688543183e-19 0.01317828484 1.50172977e-19 3.472656185e-05)
(-0.00467492394 -0.05118106091 -1.533591502e-19 0.004643124037 2.409665176e-21 3.179990235e-05)
(0.002580694308 -0.04231075893 3.059270206e-20 -0.002606150791 2.143125115e-19 2.54564832e-05)
(0.008784847561 -0.03467657791 -1.650452196e-19 -0.00880107271 4.46384446e-19 1.622514892e-05)
(0.01411709686 -0.02838357428 -5.152782997e-20 -0.01412279738 2.958544178e-19 5.700526026e-06)
(0.01857172973 -0.02349806138 -4.607073693e-19 -0.01856845571 -1.993210726e-19 -3.274017297e-06)
(0.02197610895 -0.02025144157 -5.882815091e-20 -0.02197047354 4.728714239e-19 -5.635410438e-06)
(-0.1008032542 -0.1247994921 2.533591154e-20 0.1008009653 1.14862897e-19 2.288961524e-06)
(-0.06113879825 -0.1116047288 1.188780436e-19 0.06113237232 1.882667813e-19 6.425938058e-06)
(-0.03705384425 -0.09642213155 1.060238266e-19 0.03704387186 3.943956932e-20 9.972391848e-06)
(-0.02101486315 -0.08169903771 -2.195421857e-20 0.02100260337 -8.098766396e-20 1.225977903e-05)
(-0.009521788216 -0.06822656355 -6.477396345e-19 0.009508839201 2.150473263e-19 1.294901526e-05)
(-0.0007071468139 -0.05615664019 -7.179184796e-19 0.0006955150824 2.336159351e-19 1.163173146e-05)
(0.006375425974 -0.04548035056 -7.834597012e-19 -0.006383535702 4.859955529e-19 8.109727673e-06)
(0.01232791211 -0.03615064985 -1.370546884e-19 -0.0123305024 4.42210034e-19 2.590291903e-06)
(0.01740686315 -0.02813008247 -2.595720258e-19 -0.01740260299 4.577220516e-19 -4.260157022e-06)
(0.02183250656 -0.02146947711 -2.57130191e-19 -0.02182175495 7.122938862e-19 -1.075160778e-05)
(0.02561395779 -0.01622734578 4.892246993e-19 -0.0255998807 5.353204328e-19 -1.407708173e-05)
(0.02861572102 -0.01264263574 -1.763748579e-19 -0.02860632258 2.411806213e-19 -9.398445164e-06)
(-0.08551098195 -0.1336397097 -5.688174484e-20 0.08551249061 1.505948068e-19 -1.508662378e-06)
(-0.04577314387 -0.1117571812 1.307487125e-19 0.04577637226 1.193686051e-19 -3.228392421e-06)
(-0.02285766964 -0.09233760964 1.472737376e-19 0.02286221861 -2.798710761e-20 -4.548975654e-06)
(-0.008378370002 -0.07546081748 -1.475317165e-19 0.008384561723 1.848353662e-19 -6.191720873e-06)
(0.001502354647 -0.06086807792 6.879045215e-20 -0.001493911092 2.467607091e-19 -8.443555067e-06)
(0.008786243644 -0.04819035987 -5.731910282e-19 -0.008774663754 3.909140709e-19 -1.157988961e-05)
(0.01447316919 -0.03716715197 -3.157749285e-19 -0.01445751733 4.348330629e-19 -1.565185942e-05)
(0.01919215854 -0.02759730716 -3.413757421e-19 -0.01917188132 5.996203296e-19 -2.027722092e-05)
(0.02320844591 -0.01938009377 3.605184351e-19 -0.0231837826 9.580463431e-19 -2.466331496e-05)
(0.02676389208 -0.01249983717 7.284047527e-19 -0.02673684797 3.979344426e-19 -2.704411308e-05)
(0.02987846919 -0.007003649542 3.130258313e-19 -0.02985378315 -1.933291621e-19 -2.468603983e-05)
(0.03245056348 -0.003131085166 3.354038612e-19 -0.03243752535 -5.425230484e-20 -1.303812915e-05)
(-0.06991211956 -0.1405797758 -1.350303946e-19 0.06991739549 1.242655191e-19 -5.275923186e-06)
(-0.03260491641 -0.1097056158 -4.619010118e-20 0.03261772947 6.570463503e-20 -1.281305817e-05)
(-0.01190429808 -0.08607430567 -2.827110956e-19 0.01192326738 1.523705688e-19 -1.896929789e-05)
(0.0006247196126 -0.06719548943 -1.531065631e-19 -0.0006002100383 3.189501907e-19 -2.45095743e-05)
(0.008806716806 -0.05167655183 -1.569777184e-23 -0.008777053156 3.804890719e-19 -2.966364937e-05)
(0.01460857964 -0.03859055595 2.60758317e-19 -0.01457400917 3.178536962e-19 -3.457046917e-05)
(0.01900366098 -0.02740916864 -1.561327409e-19 -0.01896452879 2.170127323e-19 -3.913219385e-05)
(0.02259984633 -0.01776799999 1.022065928e-19 -0.02255704735 5.974495927e-19 -4.279897961e-05)
(0.02565162415 -0.009499608959 8.291131712e-19 -0.0256069613 3.727490542e-19 -4.466284608e-05)
(0.02840025491 -0.002516394197 8.551525062e-19 -0.02835734416 -4.120063677e-19 -4.291074814e-05)
(0.03087173849 0.00314794221 -9.481600109e-20 -0.03083681857 -2.379703249e-19 -3.491992035e-05)
(0.03299364442 0.007258330501 2.064719845e-19 -0.03297715805 -7.768173935e-20 -1.648637103e-05)
(-0.05423226044 -0.1457986084 -9.376744355e-20 0.05424122038 5.024087632e-20 -8.959944079e-06)
(-0.02190790361 -0.1064364993 -9.519890956e-20 0.02193009775 5.370045679e-20 -2.219413664e-05)
(-0.004469494002 -0.07893402658 -1.582942115e-19 0.004502580275 1.745886226e-19 -3.308627234e-05)
(0.005734866087 -0.05830230256 -2.241009805e-20 -0.005692431633 2.360373337e-19 -4.243445458e-05)
(0.01215447639 -0.04204977186 -1.451275872e-19 -0.01210406841 3.719766492e-19 -5.040798265e-05)
(0.01654703758 -0.02871154629 3.137746991e-19 -0.01649003015 2.529239038e-19 -5.700742214e-05)
(0.01977703017 -0.0175019778 7.419826188e-20 -0.01971504135 2.235036007e-19 -6.198882557e-05)
(0.02238168816 -0.007900311183 3.396168671e-19 -0.02231704556 2.942658704e-19 -6.464259413e-05)
(0.02458480677 0.0003246248915 4.069228793e-19 -0.02452084635 -7.218793227e-20 -6.396041507e-05)
(0.02660404472 0.007330209908 4.701822757e-20 -0.02654593715 -2.804408938e-19 -5.8107577e-05)
(0.02846631119 0.0130964056 -1.299816322e-19 -0.02842169922 -2.821440192e-20 -4.46119728e-05)
(0.03012294971 0.01739555365 -1.610356032e-20 -0.03010326856 -2.562301561e-20 -1.968115249e-05)
(-0.03860844044 -0.149491556 7.147362767e-20 0.03862095185 -2.876527338e-20 -1.251141439e-05)
(-0.0136014621 -0.1029334387 -7.676664692e-20 0.01363270701 -1.931891992e-21 -3.124490885e-05)
(-0.0003730882581 -0.07220656572 -2.301629872e-19 0.0004197956972 1.219156673e-19 -4.670743912e-05)
(0.007177500962 -0.05016404162 -2.751195915e-19 -0.007117781318 2.318739014e-19 -5.971964468e-05)
(0.01179017762 -0.03336692815 -1.882444379e-19 -0.0117197904 3.556976249e-19 -7.038722173e-05)
(0.01485288628 -0.01988804484 1.246380474e-19 -0.01477431286 2.239246439e-19 -7.857342355e-05)
(0.01704546845 -0.008721117319 -2.916185569e-19 -0.01696157671 3.259746358e-19 -8.389174866e-05)
(0.01878898886 0.0007884373413 4.976032464e-19 -0.0187035021 2.885545777e-19 -8.548676476e-05)
(0.02025822456 0.008926251275 3.097012886e-19 -0.02017595824 -1.193314527e-19 -8.226631755e-05)
(0.02162599087 0.01590992651 -1.165519783e-19 -0.02155358537 -3.096626944e-19 -7.240549983e-05)
(0.02291530879 0.02173158762 -6.465674704e-19 -0.02286168952 -2.695815376e-20 -5.361926953e-05)
(0.0240959483 0.02617173921 1.60234669e-19 -0.02407336934 1.113589358e-21 -2.257895795e-05)
(-0.02309418865 -0.151838678 5.432573988e-20 0.02311007159 -2.448564844e-20 -1.588293398e-05)
(-0.007275678454 -0.1000590469 -6.898177038e-20 0.007315523106 -5.213219391e-21 -3.984465179e-05)
(0.0009880427347 -0.0670188101 -2.061971319e-19 -0.0009283922499 1.005529639e-19 -5.965048477e-05)
(0.005627686201 -0.04398700606 -1.774726451e-19 -0.005551554152 2.092152249e-19 -7.61320486e-05)
(0.008404490456 -0.02683007028 -5.301696095e-20 -0.008315160518 2.945405197e-19 -8.932993875e-05)
(0.01020740555 -0.01328252662 3.831279895e-21 -0.0101084329 2.594430034e-19 -9.897265005e-05)
(0.01147067895 -0.002176863977 -1.611170714e-20 -0.01136614074 3.065091219e-19 -0.0001045382105)
(0.01246261319 0.007239197043 2.328238868e-19 -0.01235757441 1.629885957e-19 -0.0001050387785)
(0.01329422421 0.01529103108 -8.359434913e-20 -0.01319490703 -8.055574896e-20 -9.931718502e-05)
(0.01407635722 0.02224045487 -1.917821371e-19 -0.01399076865 -1.910920969e-19 -8.558857637e-05)
(0.0148242238 0.02808873162 -5.306221416e-19 -0.01476243058 -3.972260449e-20 -6.179322416e-05)
(0.01552149083 0.03262331739 -3.737196399e-20 -0.01549636862 -1.996123272e-20 -2.512221273e-05)
(-0.007674859664 -0.1529770326 4.908313677e-20 0.007693890676 -9.726790138e-21 -1.903101243e-05)
(-0.00225424317 -0.09845221709 -5.438149255e-20 0.002302125016 1.031323122e-20 -4.78818467e-05)
(0.0005589298393 -0.06420358908 -2.027729182e-19 -0.0004871834869 8.111163323e-20 -7.174635243e-05)
(0.002123824928 -0.04066193737 -7.134543197e-20 -0.002032369273 1.679120248e-19 -9.14556552e-05)
(0.003048526014 -0.02332634168 -8.603686808e-20 -0.002941542023 2.487206637e-19 -0.0001069839912)
(0.003639241568 -0.009752601395 -1.031859974e-20 -0.00352131111 2.549439714e-19 -0.0001179304581)
(0.004045143874 0.001311926034 8.194019507e-21 -0.003921497736 2.675342644e-19 -0.000123646138)
(0.00435806632 0.01067108707 -7.327495127e-20 -0.004235037132 1.615791262e-19 -0.0001230291884)
(0.004615710959 0.018671258 -1.839042831e-19 -0.004500833529 -1.49088854e-20 -0.0001148774291)
(0.004855820703 0.02559771352 -3.164522236e-19 -0.004758343722 -1.161549712e-19 -9.74769816e-05)
(0.005083220362 0.03145668365 -3.674661986e-19 -0.005014193313 -3.93945026e-20 -6.902704894e-05)
(0.005292350538 0.03603987575 -1.108067014e-19 -0.005265067799 -3.190654587e-20 -2.728273881e-05)
(0.007708631309 -0.1529802902 4.631208567e-20 -0.007686715398 5.715587869e-21 -2.191591067e-05)
(0.002312220292 -0.09845244968 -3.317521367e-20 -0.002256965489 2.842736643e-20 -5.525480317e-05)
(-0.0004933529867 -0.06420305633 -1.82392818e-19 0.0005761947107 6.03975611e-20 -8.284172406e-05)
(-0.002059740466 -0.0406615703 1.127048106e-20 0.002165235927 1.30276011e-19 -0.0001054954606)
(-0.002992565333 -0.0233264825 -4.527858284e-20 0.003115689497 2.116654071e-19 -0.0001231241635)
(-0.003597405338 -0.00975329863 -1.576644418e-20 0.003732609236 2.302087895e-19 -0.000135203898)
(-0.00402387064 0.001310789102 -2.777781298e-20 0.004164840205 2.626517736e-19 -0.0001409695647)
(-0.004364823065 0.01066975694 -1.551726976e-19 0.004504046616 1.85362654e-19 -0.0001392235511)
(-0.004659215855 0.01867010528 -3.365977737e-19 0.004787955659 2.091750271e-20 -0.0001287398038)
(-0.004946294414 0.02559727662 -4.00910252e-19 0.005054201153 -6.713958726e-20 -0.0001079067391)
(-0.005232566273 0.03145768068 -2.558153837e-19 0.00530778072 -9.642838672e-21 -7.521444794e-05)
(-0.005514095849 0.03604372328 -1.667189616e-19 0.005543119092 -5.413610247e-20 -2.902324241e-05)
(0.02313069096 -0.1518478936 5.651346255e-20 -0.0231061889 1.574076314e-20 -2.450206388e-05)
(0.007333061696 -0.100059736 -9.925526355e-22 -0.007271189173 3.634286365e-20 -6.187252322e-05)
(-0.0009247379665 -0.06701747298 -1.216283702e-19 0.001017537106 4.913417427e-20 -9.279913982e-05)
(-0.005566833925 -0.04398632122 4.499406896e-20 0.005684910915 9.355682156e-20 -0.0001180769905)
(-0.008352427673 -0.02683102397 5.960105443e-20 0.008489976471 1.828225844e-19 -0.0001375487984)
(-0.01017004665 -0.01328526204 1.2367886e-20 0.01032062315 1.933064093e-19 -0.000150576498)
(-0.01145450089 -0.002181052792 9.698500376e-20 0.01161079184 2.711548033e-19 -0.0001562909538)
(-0.0124752113 0.007234252571 -3.826432349e-19 0.01262863079 2.021234785e-19 -0.0001534194866)
(-0.01334453615 0.01528637924 -4.129066026e-19 0.01348526945 2.814300795e-20 -0.0001407333024)
(-0.01417493568 0.0222376211 -3.074654526e-19 0.01429168715 -2.022392733e-20 -0.0001167514683)
(-0.01498343466 0.02808974784 -1.990670758e-19 0.01506371756 5.701002471e-20 -8.028289968e-05)
(-0.01575588892 0.03263219668 -3.444428125e-19 0.01578621449 -8.85351096e-20 -3.032556789e-05)
(0.03865005257 -0.1495051518 6.385179792e-20 -0.03862329369 1.142467994e-20 -2.675888431e-05)
(0.01365767546 -0.1029345624 4.13176337e-20 -0.01359001894 1.520266778e-20 -6.765651739e-05)
(0.0004320573416 -0.07220517696 4.484079085e-20 -0.0003305565455 6.175540629e-20 -0.0001015007961)
(-0.007122789872 -0.05016423616 -4.659934895e-20 0.0072518417 5.743124865e-20 -0.0001290518279)
(-0.01174549916 -0.03337022034 1.498786763e-19 0.01189558807 1.512331561e-19 -0.0001500889154)
(-0.01482398383 -0.01989466542 -8.765253158e-20 0.01498785315 1.546823637e-19 -0.0001638693146)
(-0.01703888037 -0.008730591379 -5.715927852e-20 0.01720831384 2.472145794e-19 -0.0001694334699)
(-0.01881253848 0.0007771360084 -4.657484437e-19 0.01897799285 1.779886252e-19 -0.0001654543708)
(-0.02032124604 0.008914665325 -2.115809127e-19 0.02047196778 7.906936106e-20 -0.0001507217416)
(-0.02173964221 0.01590030945 -4.419224876e-19 0.02186355525 9.700557319e-20 -0.0001239130431)
(-0.02309280432 0.02172694198 -2.928916286e-19 0.02317698329 8.957881679e-20 -8.417897322e-05)
(-0.02435374953 0.02617801182 -3.233714119e-19 0.02438492759 -1.160061527e-19 -3.117806644e-05)
(0.05428067804 -0.1458141228 -5.366449887e-20 -0.05425201766 -5.947530861e-20 -2.86603817e-05)
(0.0219623981 -0.1064380064 1.069144211e-19 -0.0218898577 -5.56777348e-20 -7.254040207e-05)
(0.004522453649 -0.07893372707 1.757974192e-19 -0.004413606586 3.335498757e-20 -0.0001088470633)
(-0.005688596716 -0.05830519979 1.030829979e-19 0.005826891791 4.627350789e-20 -0.0001382950748)
(-0.01211989227 -0.04205772829 1.754886123e-19 0.01228049508 7.205526488e-20 -0.0001606028094)
(-0.01652963014 -0.02872486872 3.023159342e-20 0.01670456439 -4.615740547e-20 -0.0001749342504)
(-0.01978339535 -0.01752014294 5.129869834e-19 0.01996364901 1.56701188e-19 -0.0001802536589)
(-0.02241992651 -0.007922150995 -9.999157416e-20 0.02259512742 3.488555508e-19 -0.0001752009068)
(-0.02466474882 0.0003008674897 -2.230868672e-19 0.02482335295 1.595438146e-19 -0.0001586041309)
(-0.02673761731 0.007307121568 -1.296644851e-19 0.0268669402 1.90027685e-19 -0.0001293228901)
(-0.02866781263 0.01307743071 -8.818172304e-20 0.02875468081 2.724412547e-19 -8.686817615e-05)
(-0.03041132961 0.01738755117 -3.791340448e-19 0.03044290417 -7.605767309e-20 -3.157455289e-05)
(0.06996812358 -0.1405941575 -1.079890758e-19 -0.06993793742 -1.189218635e-19 -3.018616618e-05)
(0.03265717949 -0.1097074205 9.238262448e-20 -0.03258070772 -1.514093189e-19 -7.647176378e-05)
(0.01195010339 -0.08607647613 2.366399048e-19 -0.01183534342 -4.731646022e-21 -0.000114759979)
(-0.0005883667201 -0.06720330482 1.043178529e-19 0.0007340769427 5.320051994e-20 -0.0001457102225)
(-0.008783883416 -0.05169199826 -1.239810818e-20 0.008952866965 9.471793754e-21 -0.0001689835488)
(-0.01460442992 -0.03861399973 -3.388770987e-20 0.01478809224 -2.286735176e-19 -0.0001836623194)
(-0.01902480744 -0.0274401569 4.820781346e-19 0.01921345727 -1.252536082e-19 -0.000188649836)
(-0.02265464492 -0.01780545133 2.281581771e-19 0.02283721843 2.70286737e-19 -0.00018257351)
(-0.02575039488 -0.00954189485 -1.077596455e-19 0.02591471396 -1.860166694e-20 -0.0001643190773)
(-0.02855570692 -0.00256108195 4.342213883e-19 0.02868865573 -1.560431526e-19 -0.0001329488113)
(-0.03109929315 0.003104089478 3.696415521e-19 0.03118763921 4.157860324e-19 -8.834606226e-05)
(-0.03331493828 0.007221828747 -1.044146374e-19 0.03334646274 1.000366258e-19 -3.152445179e-05)
(0.08557425863 -0.1336496296 3.134857365e-20 -0.08554293779 -8.41736524e-20 -3.132084386e-05)
(0.04582268822 -0.1117591484 1.084192855e-19 -0.04574327696 -2.297163224e-19 -7.941126302e-05)
(0.02289577568 -0.09234368364 3.970611011e-19 -0.02277659442 -6.300962441e-20 -0.0001191812612)
(0.008404279294 -0.07547586929 1.647567542e-19 -0.008253053142 5.481040412e-20 -0.0001512261512)
(-0.001491714293 -0.06089397212 5.130369449e-20 0.001666868088 -5.062565388e-20 -0.0001751537952)
(-0.00879564119 -0.0482275024 -6.647694479e-20 0.008985618984 -2.794570215e-19 -0.000189977794)
(-0.01450915241 -0.03721528515 2.979567091e-19 0.01470370796 -4.980293238e-19 -0.0001945555464)
(-0.01926323967 -0.0276556786 3.72787895e-19 0.01945076174 3.830914161e-20 -0.0001875220703)
(-0.02332531065 -0.01944756692 -4.20135223e-20 0.02349314808 3.540091072e-19 -0.0001678374289)
(-0.02693988096 -0.01257464797 -2.266573111e-19 0.02707466411 -1.888767861e-19 -0.0001347831474)
(-0.03012994209 -0.007083456234 5.192889213e-19 0.03021856321 -1.839560359e-19 -8.862111836e-05)
(-0.03280159903 -0.003211045942 -3.287045503e-19 0.03283263726 8.498545435e-20 -3.103822689e-05)
(0.1008723823 -0.1248017309 -2.693207919e-21 -0.1008403276 -1.575142976e-19 -3.205463165e-05)
(0.06118515699 -0.1116066759 1.027731526e-19 -0.06110382334 -2.67690078e-19 -8.133365642e-05)
(0.03708431471 -0.09643340459 2.127614269e-19 -0.0369622405 -2.858150004e-19 -0.0001220742117)
(0.0210307667 -0.08172344093 2.080032151e-19 -0.02087596711 2.194783712e-20 -0.0001547995894)
(0.009521030236 -0.06826560093 -2.854377293e-19 -0.009341960787 2.254222177e-21 -0.000179069449)
(0.0006854112104 -0.05621073392 -1.172354849e-19 -0.0004915696728 -1.255086392e-19 -0.0001938415375)
(-0.006424503016 -0.04554955129 -3.627422648e-19 0.006622445866 -5.52419867e-19 -0.0001979428497)
(-0.01241282363 -0.03623475923 2.871853231e-19 0.01260285829 -5.390866006e-19 -0.0001900346586)
(-0.01753841929 -0.0282287942 5.71415985e-19 0.01770758584 -1.730657618e-19 -0.0001691665541)
(-0.02202435783 -0.02158218045 6.057409788e-19 0.02215920867 3.015464454e-19 -0.0001348508365)
(-0.0258829905 -0.0163532424 -3.085491534e-19 0.02597071796 3.004906127e-19 -8.772745544e-05)
(-0.02898776226 -0.01277981523 2.609672495e-19 0.02901790114 1.07533575e-19 -3.01388832e-05)
(0.1155534688 -0.1139205765 -4.872492055e-20 -0.1155210858 -2.359643098e-19 -3.238292814e-05)
(0.07813196201 -0.1083808604 8.762221991e-20 -0.07804973502 -2.692888038e-19 -8.222698986e-05)
(0.05380353173 -0.09718513299 -2.992412537e-20 -0.05368010962 -3.940372823e-19 -0.0001234221064)
(0.03656714588 -0.08469278596 8.774058854e-20 -0.03641073299 -3.61127855e-19 -0.0001564128924)
(0.02355653661 -0.0725513394 3.431271715e-19 -0.02337582031 1.330742296e-19 -0.0001807162986)
(0.01318151443 -0.0613444668 1.065113795e-19 -0.0129862668 1.814102061e-19 -0.0001952476295)
(0.004616137001 -0.05127429466 7.74614851e-20 -0.004417318643 1.380461885e-20 -0.0001988183587)
(-0.002675003165 -0.04242425097 4.143073751e-19 0.002865136584 -3.997966942e-19 -0.0001901334195)
(-0.008925270857 -0.03481112484 6.209973354e-19 0.009093615016 -1.254012504e-20 -0.0001683441588)
(-0.01431713346 -0.02854011058 6.133044145e-19 0.01445033435 1.099965738e-19 -0.0001332008963)
(-0.01884819336 -0.02367785684 9.248214789e-19 0.01893390759 -7.469548491e-20 -8.571423219e-05)
(-0.02235550842 -0.02045653967 2.052948178e-19 0.02238436219 4.34340379e-19 -2.885376959e-05)
(0.1292431671 -0.1009539084 -1.519815391e-20 -0.1292108608 -1.76430846e-19 -3.230627515e-05)
(0.09576640756 -0.1014386177 5.463154663e-21 -0.09568431514 -3.047821316e-19 -8.209241556e-05)
(0.07197306961 -0.09371887089 -1.397126301e-19 -0.07184984159 -4.551222762e-19 -0.0001232280186)
(0.05389662949 -0.0834244781 1.401614029e-20 -0.05374055598 -5.848707958e-19 -0.0001560735099)
(0.03952631341 -0.07278444323 6.239604943e-19 -0.03934620418 -4.135007725e-19 -0.0001801092252)
(0.02765821375 -0.06268578193 4.565889454e-19 -0.02746399241 1.493685271e-19 -0.0001942213399)
(0.01763993038 -0.05348226366 4.984985751e-19 -0.01744270985 1.179489664e-20 -0.0001972205251)
(0.009035795955 -0.04535281414 4.709835266e-19 -0.008847925138 -2.354829686e-19 -0.000187870817)
(0.001650630783 -0.03835471386 1.335655433e-18 -0.001485195464 -4.170043667e-19 -0.0001654353182)
(-0.0046435155 -0.03263021972 9.921324366e-19 0.004773419507 1.285499916e-19 -0.0001299040075)
(-0.009826697293 -0.02824958776 -5.001111403e-19 0.009909341654 -3.92977075e-19 -8.264436048e-05)
(-0.01369775836 -0.02543138491 2.157072123e-19 0.01372497289 -3.11316899e-20 -2.721452814e-05)
(0.1415277799 -0.08594897243 1.980286005e-20 -0.1414959496 8.922565546e-21 -3.183027029e-05)
(0.1129957184 -0.09044774041 -1.593393943e-19 -0.1129147746 -1.734087147e-19 -8.094375619e-05)
(0.09025564186 -0.08554389421 -3.10786463e-19 -0.09013412789 -4.021058924e-19 -0.0001215139714)
(0.07162704981 -0.07736845294 1.056984319e-19 -0.07147323684 -4.390385257e-19 -0.0001538129707)
(0.05606723655 -0.06840156978 2.17331472e-19 -0.05588994554 -9.16533119e-19 -0.0001772910107)
(0.04281528793 -0.05967850455 7.05043588e-19 -0.04262446953 -3.714006135e-19 -0.0001908184015)
(0.03142004631 -0.0516327565 2.581716635e-21 -0.03122682738 -4.495713795e-19 -0.0001932189317)
(0.0215627181 -0.04449622139 7.023938482e-19 -0.02137938865 -3.808886378e-19 -0.0001833294531)
(0.01309344951 -0.03834983788 4.444431519e-19 -0.01293291767 -7.311301579e-19 -0.0001605318438)
(0.005946009488 -0.03335193392 -6.692526871e-19 -0.005820956582 -8.224365568e-19 -0.000125052906)
(0.0001590242004 -0.02957088199 -6.93274976e-19 -8.042783937e-05 -3.772445871e-19 -7.859636107e-05)
(-0.00402866832 -0.02720286476 7.630090426e-21 0.004053927909 -4.118400619e-19 -2.525958884e-05)
(0.1519865984 -0.06906491802 2.145604242e-20 -0.1519556335 1.526254191e-19 -3.096492675e-05)
(0.1286425433 -0.07543815162 -1.58401735e-19 -0.1285637371 -4.31716692e-20 -7.880626596e-05)
(0.107198297 -0.07262489081 -1.021784848e-19 -0.107079978 -1.600933731e-19 -0.0001183190225)
(0.08824015517 -0.0664544433 -6.088971965e-20 -0.08809047117 -4.04388642e-19 -0.0001496840012)
(0.07168914066 -0.05931275834 -8.312485417e-21 -0.07151681238 -6.304430903e-19 -0.0001723282838)
(0.05722859414 -0.0522207183 1.563434981e-19 -0.05704347478 -8.382963601e-19 -0.000185119359)
(0.04461039762 -0.04561598846 2.019278879e-20 -0.04442349019 -7.850300646e-19 -0.0001869074289)
(0.03363433227 -0.03973864396 3.694638541e-19 -0.03345771848 -3.998713707e-19 -0.0001766137914)
(0.02419685969 -0.03467551269 -5.844125406e-19 -0.02404311609 -5.005980647e-19 -0.0001537436068)
(0.01629323038 -0.03057902062 -9.54950657e-19 -0.01617447792 -5.29130798e-19 -0.0001187524582)
(0.009980051451 -0.0275099958 -2.399278247e-19 -0.00990639743 -5.678233603e-19 -7.365402092e-05)
(0.005530720145 -0.02563340721 1.161092878e-19 -0.005507693309 3.14906834e-21 -2.302683616e-05)
(0.1602270537 -0.05057411756 -5.720186862e-20 -0.1601973288 8.702517625e-20 -2.972486886e-05)
(0.1415675807 -0.05681368592 -2.881527112e-19 -0.1414918642 -3.223099337e-20 -7.571652757e-05)
(0.1213879531 -0.05539790206 -3.204020945e-19 -0.121274254 -1.735126252e-19 -0.0001136990209)
(0.102256077 -0.05110929712 -2.647016581e-19 -0.1021123167 -3.138145798e-19 -0.000143760334)
(0.08493745638 -0.04591883645 -1.039625939e-20 -0.0847721448 -3.067791609e-19 -0.0001653115822)