/*--------------------------------*- C++ -*----------------------------------*\
| =========                 |                                                 |
| \\      /  F ield         | foam-extend: Open Source CFD                    |
|  \\    /   O peration     | Version:  3.0                                   |
|   \\  /    A nd           | Web:         http://www.extend-project.de       |
|    \\/     M anipulation  |                                                 |
\*---------------------------------------------------------------------------*/
FoamFile
{
    version     2.0;
    format      ascii;
    class       volScalarField;
    location    "5";
    object      p;
}
// * * * * * * * * * * * * * * * * * * * * * * * * * * * * * * * * * * * * * //

dimensions      [0 2 -2 0 0 0 0];

internalField   nonuniform List<scalar> 
1512
(
2.6999
2.71385
2.70238
2.73197
2.67777
2.58407
2.59337
2.58476
2.60209
2.56227
2.55729
2.57144
2.56418
2.59156
2.55889
2.36817
2.37583
2.37077
2.38522
2.36021
2.30616
2.31966
2.31468
2.34091
2.31859
2.13609
2.14541
2.1443
2.16416
2.15717
2.01271
2.02798
2.02143
2.05691
2.02675
8.23834
8.27742
8.26619
8.35278
8.3009
8.25691
8.29141
8.28886
8.34606
8.33505
8.37903
8.41666
8.41459
8.477
8.46935
8.3565
8.38669
8.38642
8.43174
8.43169
8.55416
8.58979
8.59371
8.63905
8.65896
8.51568
8.54338
8.54376
8.58157
8.58488
8.73952
8.77188
8.7846
8.80471
8.86793
-1.6142
-1.62227
-1.62797
-1.6331
-1.66046
-1.64226
-1.65078
-1.654
-1.66501
-1.67914
-1.64489
-1.6524
-1.65476
-1.664
-1.67442
-1.70652
-1.71611
-1.71727
-1.73095
-1.73611
-1.7149
-1.7228
-1.72301
-1.73647
-1.73683
-1.77462
-1.7843
-1.78372
-1.79747
-1.79466
-1.79418
-1.8022
-1.80035
-1.81767
-1.80831
6.95793
6.93406
6.92977
6.90894
6.88245
6.96899
6.94683
6.94634
6.91764
6.91385
6.98788
6.96557
6.96637
6.93667
6.93718
6.95648
6.93235
6.93469
6.90031
6.90877
6.99866
6.97512
6.98076
6.93984
6.96275
6.94951
6.92335
6.92786
6.88809
6.90692
7.00141
6.97448
6.98766
6.92648
6.98517
0.210443
0.226423
0.216709
0.255626
0.211268
0.190137
0.20381
0.199319
0.221688
0.20266
0.231839
0.247646
0.244073
0.270508
0.256078
0.168149
0.179355
0.177281
0.193185
0.18519
0.235065
0.249942
0.250289
0.267464
0.271263
0.16453
0.174806
0.174388
0.187733
0.187531
0.231884
0.245635
0.250619
0.256522
0.28302
2.80727
2.79776
2.79219
2.79082
2.76165
2.80582
2.79644
2.79474
2.78397
2.77586
2.82416
2.81523
2.81459
2.80395
2.79999
2.78517
2.77384
2.77466
2.75854
2.76157
2.82249
2.81259
2.81602
2.79598
2.81091
2.77072
2.75797
2.76067
2.74086
2.75269
2.81556
2.80383
2.81313
2.77834
2.82154
1.34654
1.35291
1.34474
1.36995
1.33076
1.33425
1.33893
1.33575
1.34619
1.33207
1.37319
1.37958
1.3773
1.39057
1.38066
1.31894
1.32124
1.32055
1.32453
1.32165
1.38264
1.38797
1.38981
1.39324
1.40243
1.32017
1.32133
1.32237
1.32313
1.32846
1.38645
1.39022
1.39734
1.38738
1.4222
1.54638
1.54914
1.54156
1.56086
1.52396
1.53669
1.53809
1.5353
1.54094
1.52835
1.57171
1.57455
1.57267
1.58053
1.57207
1.52138
1.52048
1.52018
1.51955
1.51819
1.57988
1.58166
1.58389
1.58194
1.59254
1.52065
1.51854
1.52
1.51602
1.52297
1.58282
1.58298
1.59062
1.57492
1.61174
2.37851
2.39116
2.38288
2.40905
2.36913
2.49246
2.50118
2.49689
2.51137
2.49114
2.61536
2.62719
2.62042
2.63992
2.60871
2.63812
2.64528
2.63854
2.64861
2.61618
2.74106
2.75318
2.74525
2.76528
2.72898
2.71623
2.72498
2.7169
2.73023
2.69342
2.72162
2.73369
2.72229
2.746
2.69298
8.51165
8.54814
8.55542
8.5971
8.63517
8.25642
8.28462
8.28387
8.32878
8.32718
8.39263
8.43269
8.43623
8.49292
8.51222
8.13385
8.16199
8.16222
8.20738
8.20985
8.30504
8.34612
8.34666
8.41194
8.41732
8.12673
8.15832
8.15627
8.21092
8.20242
8.26024
8.30004
8.29587
8.37076
8.3518
-1.68849
-1.69728
-1.69762
-1.71407
-1.71581
-1.6818
-1.69227
-1.69321
-1.7083
-1.71226
-1.61655
-1.62461
-1.62567
-1.63973
-1.64414
-1.64296
-1.65389
-1.65555
-1.67186
-1.6794
-1.58162
-1.58947
-1.59161
-1.60352
-1.61298
-1.61611
-1.62597
-1.6288
-1.64247
-1.65493
-1.59922
-1.60799
-1.61216
-1.62234
-1.64263
7.00372
6.97796
6.98723
6.93576
6.97471
6.92814
6.90161
6.90406
6.86617
6.87649
7.02164
6.99992
7.00472
6.96777
6.9871
6.92255
6.89653
6.89856
6.86181
6.86907
7.01604
6.99492
6.99725
6.966
6.97402
6.93839
6.91389
6.91372
6.88138
6.88018
6.98261
6.95842
6.9584
6.92723
6.92258
0.242621
0.257127
0.258498
0.272071
0.281385
0.154568
0.164433
0.162446
0.177094
0.169833
0.261492
0.277702
0.277309
0.297605
0.298214
0.145871
0.155326
0.153027
0.16667
0.157659
0.259979
0.276684
0.274336
0.299267
0.290739
0.166758
0.178331
0.174459
0.193685
0.177205
0.230828
0.246449
0.240866
0.271037
0.245358
2.83325
2.82221
2.82805
2.80086
2.82681
2.76765
2.75444
2.75537
2.73672
2.741
2.85534
2.84677
2.84943
2.83235
2.84393
2.76777
2.75466
2.7552
2.73668
2.73852
2.85604
2.84795
2.84856
2.83623
2.83831
2.78512
2.77361
2.77233
2.75823
2.7525
2.82891
2.81902
2.81722
2.80689
2.79619
1.38794
1.3927
1.39611
1.39476
1.41161
1.30005
1.30085
1.30023
1.30264
1.30065
1.40237
1.40926
1.41032
1.41739
1.42325
1.28826
1.28882
1.28791
1.28977
1.28589
1.39764
1.40508
1.40407
1.41609
1.41235
1.30681
1.30938
1.30671
1.31401
1.30238
1.36744
1.37351
1.36938
1.38571
1.36558
1.58601
1.58714
1.59111
1.58397
1.60288
1.50229
1.49983
1.4996
1.49725
1.49684
1.60101
1.60434
1.60579
1.60745
1.61467
1.49211
1.48948
1.48894
1.4862
1.4838
1.59689
1.60077
1.60014
1.60674
1.60439
1.51007
1.50938
1.50707
1.50957
1.49944
1.56732
1.56977
1.56616
1.57662
1.55859
1.62607
1.64578
1.6411
1.69158
1.6707
1.64994
1.66031
1.66127
1.69062
1.69366
1.81367
1.83078
1.82835
1.86877
1.85971
1.8302
1.83881
1.83697
1.86045
1.85054
2.0648
2.08252
2.07782
2.11939
2.1002
2.09722
2.10761
2.10096
2.12806
2.09789
2.31302
2.33148
2.32099
2.36616
2.31962
8.94544
8.97301
8.98388
8.99436
9.0491
8.90475
8.93502
8.9363
8.9696
8.97541
8.78939
8.81724
8.81879
8.84983
8.85685
8.80209
8.83648
8.83529
8.8808
8.87567
8.61426
8.64414
8.63969
8.68783
8.66716
8.64581
8.68286
8.68142
8.73402
8.72604
8.44372
8.47801
8.46546
8.54238
8.48286
-1.9139
-1.92052
-1.9181
-1.93128
-1.91809
-1.89222
-1.89997
-1.89823
-1.90813
-1.9
-1.87563
-1.88324
-1.88287
-1.89325
-1.89049
-1.83201
-1.83915
-1.8393
-1.84801
-1.84818
-1.80551
-1.81273
-1.8145
-1.82068
-1.82797
-1.76004
-1.76665
-1.76872
-1.77592
-1.78477
-1.73376
-1.74044
-1.74558
-1.74664
-1.77027
6.97498
6.94721
6.95998
6.89957
6.95615
7.00296
6.97953
6.98526
6.9472
6.97138
6.94699
6.92048
6.92543
6.88194
6.90123
7.02468
7.00444
7.00728
6.97779
6.98857
6.93573
6.91044
6.9105
6.87837
6.87521
7.02235
7.00294
7.00355
6.97665
6.97792
6.93141
6.90677
6.90132
6.88167
6.85171
0.201052
0.214382
0.21869
0.225711
0.250243
0.198014
0.210768
0.211572
0.22679
0.231438
0.180846
0.193406
0.193171
0.208684
0.209542
0.21377
0.228388
0.226812
0.247066
0.241256
0.177899
0.19142
0.187287
0.212016
0.194654
0.223397
0.239539
0.236423
0.260605
0.246772
0.179409
0.194965
0.18505
0.224963
0.179418
2.77699
2.7649
2.77381
2.7404
2.78221
2.79579
2.78558
2.78946
2.77168
2.78856
2.75806
2.7459
2.74881
2.72733
2.73962
2.82105
2.81322
2.81457
2.8031
2.8086
2.75958
2.74838
2.74721
2.73518
2.72856
2.83074
2.82389
2.82334
2.81461
2.81148
2.76866
2.75883
2.75259
2.75274
2.72164
1.36436
1.36743
1.37409
1.36449
1.39789
1.36817
1.37179
1.37404
1.37628
1.38653
1.33851
1.34119
1.34248
1.34343
1.34971
1.38104
1.38681
1.38659
1.3947
1.39391
1.32913
1.33288
1.33006
1.34085
1.32803
1.3821
1.38924
1.38734
1.39922
1.39018
1.32438
1.33007
1.32153
1.34711
1.30665
1.5591
1.55857
1.5658
1.55048
1.58605
1.56623
1.56656
1.56923
1.56673
1.57864
1.53372
1.53287
1.53457
1.53017
1.53799
1.58074
1.58327
1.58345
1.58696
1.58776
1.52557
1.52578
1.52338
1.5288
1.51754
1.58212
1.58595
1.58441
1.59151
1.58398
1.52259
1.52468
1.5167
1.53642
1.49825
1.94698
1.96804
1.95985
2.01402
1.97803
1.7403
1.75132
1.74822
1.78062
1.76431
1.75541
1.77491
1.77208
1.82051
1.81022
1.56045
1.56965
1.56944
1.59737
1.59483
1.62998
1.64911
1.64734
1.69517
1.68993
1.51833
1.52932
1.52914
1.5627
1.5618
1.6048
1.62646
1.62044
1.67746
1.65347
8.67237
8.70254
8.69502
8.7504
8.71559
8.9056
8.94213
8.94151
8.98699
8.98342
8.77593
8.80134
8.79722
8.83393
8.81391
9.02452
9.06093
9.05924
9.10488
9.09723
8.86349
8.88792
8.88684
8.91501
8.90885
9.03446
9.06765
9.06877
9.10457
9.10849
8.92281
8.94965
8.95415
8.97617
8.99897
-1.83925
-1.84516
-1.84812
-1.85007
-1.86262
-1.85259
-1.8584
-1.85894
-1.86478
-1.86686
-1.90397
-1.91103
-1.91197
-1.91751
-1.92081
-1.89546
-1.90127
-1.90092
-1.907
-1.9048
-1.93875
-1.94603
-1.94589
-1.9536
-1.95181
-1.91853
-1.92497
-1.92363
-1.9309
-1.92443
-1.92881
-1.93474
-1.9339
-1.94203
-1.93602
6.92857
6.90274
6.90171
6.87217
6.86294
7.04277
7.02376
7.02672
6.99798
7.00826
6.91271
6.88569
6.88673
6.85059
6.85131
7.05824
7.03998
7.04316
7.01611
7.02818
6.91808
6.89042
6.89382
6.85203
6.86385
7.03453
7.01351
7.01843
6.98402
7.00493
6.95123
6.92384
6.93138
6.8816
6.91487
0.169372
0.184179
0.177499
0.209791
0.18081
0.23408
0.250613
0.248835
0.271694
0.264535
0.151435
0.163569
0.160098
0.181723
0.167391
0.236218
0.252544
0.251177
0.273663
0.268816
0.153177
0.164846
0.163376
0.180345
0.175239
0.220791
0.235623
0.23611
0.254469
0.257041
0.180013
0.193675
0.194424
0.210077
0.216748
2.75095
2.7404
2.73779
2.73025
2.71676
2.8336
2.82724
2.82855
2.81869
2.82325
2.72667
2.71418
2.71382
2.69883
2.69564
2.83833
2.83231
2.83396
2.8249
2.83164
2.72593
2.71294
2.71459
2.69486
2.70111
2.81676
2.80868
2.81198
2.79751
2.81181
2.75565
2.74396
2.74874
2.7244
2.74716
1.32321
1.32791
1.32297
1.33992
1.31729
1.40245
1.40994
1.40962
1.41986
1.418
1.30936
1.31154
1.30948
1.31662
1.30711
1.4117
1.4192
1.4192
1.42943
1.42962
1.31415
1.31579
1.31581
1.318
1.31809
1.39544
1.40117
1.40298
1.40834
1.41625
1.34331
1.34669
1.34942
1.34868
1.36319
1.51965
1.52075
1.5164
1.52754
1.50725
1.6006
1.60479
1.60489
1.61038
1.61014
1.50439
1.50305
1.50142
1.50323
1.49535
1.60996
1.61423
1.61465
1.62028
1.62211
1.50854
1.50666
1.50711
1.50398
1.50567
1.59276
1.59519
1.59738
1.59801
1.60753
1.53809
1.53788
1.54114
1.53469
1.55137
2.09884
2.19243
2.38585
2.39176
2.63225
2.59755
2.73368
1.86074
1.99185
2.20346
2.30914
2.52595
2.57459
2.70848
1.97305
1.9826
2.29081
2.30542
2.61731
2.60051
2.77029
1.69583
1.81326
2.02548
2.16228
2.39901
2.47495
2.62456
1.84943
1.82214
2.12729
2.11918
2.45418
2.43942
2.64701
1.65792
1.70011
1.89623
1.97899
2.21848
2.28401
2.50623
1.78205
1.76925
1.98725
1.92873
2.23407
2.17438
2.4167
8.80805
8.62107
8.70793
8.51602
8.60352
8.43722
8.47005
9.0206
8.82791
8.7967
8.59769
8.51842
8.35952
8.30421
8.87138
8.82422
8.79919
8.6838
8.67236
8.50907
8.54898
9.14424
9.00853
8.93606
8.76574
8.59965
8.46099
8.3066
8.92366
8.96321
8.86262
8.85215
8.73568
8.64829
8.60102
9.11269
9.06288
8.95392
8.87189
8.67565
8.59392
8.3959
8.97672
8.97946
8.86898
8.93495
8.7645
8.79572
8.639
-1.84262
-1.81623
-1.76719
-1.75919
-1.68185
-1.68596
-1.64653
-1.86346
-1.84175
-1.79634
-1.77842
-1.72355
-1.70512
-1.67008
-1.91018
-1.8851
-1.83027
-1.8
-1.7134
-1.69391
-1.634
-1.90619
-1.8912
-1.8598
-1.82643
-1.77996
-1.74053
-1.70984
-1.95284
-1.92132
-1.88864
-1.8399
-1.77182
-1.73032
-1.6767
-1.92848
-1.90969
-1.89172
-1.85335
-1.81894
-1.77311
-1.73487
-1.94031
-1.91241
-1.90512
-1.85697
-1.81972
-1.78239
-1.74427
6.85779
6.84477
6.86844
6.85541
6.90052
6.89434
6.89838
6.97285
6.92879
6.92469
6.88128
6.87474
6.86326
6.8517
6.80511
6.84836
6.82571
6.86057
6.87574
6.9003
6.92134
6.98155
6.94499
6.91114
6.89031
6.84386
6.86003
6.81343
6.78852
6.87351
6.80015
6.89449
6.85055
6.92542
6.90515
6.94791
6.96083
6.89917
6.92377
6.84911
6.8961
6.82674
6.83794
6.90539
6.80956
6.93988
6.84192
6.95514
6.8782
0.248072
0.194108
0.281868
0.210626
0.31474
0.244359
0.295293
0.294013
0.238861
0.275925
0.217763
0.241299
0.197518
0.211308
0.219626
0.207362
0.262139
0.234182
0.312324
0.26421
0.335743
0.301348
0.260686
0.270088
0.235107
0.222249
0.203838
0.180714
0.203375
0.224729
0.237219
0.258157
0.287241
0.281515
0.319217
0.269024
0.260395
0.247531
0.246711
0.212947
0.218603
0.186322
0.22426
0.235901
0.224072
0.271265
0.256916
0.286076
0.27178
2.73412
2.71729
2.75459
2.73616
2.79239
2.77596
2.79449
2.81237
2.77882
2.78933
2.75519
2.76028
2.74733
2.74438
2.68357
2.71547
2.71721
2.74319
2.77391
2.78497
2.81602
2.81495
2.78926
2.7745
2.76133
2.73286
2.74401
2.7101
2.66445
2.73015
2.68867
2.76416
2.74549
2.79955
2.79703
2.78303
2.79454
2.75487
2.77807
2.72577
2.76329
2.71511
2.70424
2.75157
2.6881
2.78895
2.72605
2.8102
2.76449
1.36632
1.32059
1.39018
1.33074
1.41908
1.36153
1.40049
1.43241
1.37981
1.40451
1.34777
1.36021
1.32007
1.32441
1.33464
1.33925
1.37271
1.35916
1.41832
1.38199
1.43766
1.44342
1.406
1.4039
1.37047
1.3443
1.32859
1.29338
1.32014
1.36147
1.34987
1.38906
1.39547
1.40417
1.4231
1.41196
1.41004
1.38322
1.38681
1.33894
1.35021
1.304
1.34921
1.37488
1.3386
1.40607
1.36758
1.41581
1.38351
1.54865
1.509
1.57042
1.51973
1.60042
1.55153
1.58577
1.61857
1.56997
1.59047
1.53817
1.54794
1.5131
1.51515
1.51312
1.52457
1.5496
1.54483
1.59666
1.56995
1.61956
1.62855
1.59385
1.58802
1.55853
1.53049
1.51984
1.48366
1.49805
1.54593
1.52604
1.5737
1.5731
1.59124
1.60447
1.59732
1.59868
1.56791
1.5755
1.52538
1.54178
1.49395
1.53016
1.56099
1.51712
1.59249
1.5472
1.6035
1.56734
)
;

boundaryField
{
    inlet
    {
        type            fixedValue;
        value           uniform 4;
    }
    wall
    {
        type            zeroGradient;
    }
    outlet
    {
        type            fixedValue;
        value           uniform 1;
    }
}


// ************************************************************************* //
