/*--------------------------------*- C++ -*----------------------------------*\
| =========                 |                                                 |
| \\      /  F ield         | foam-extend: Open Source CFD                    |
|  \\    /   O peration     | Version:  3.0                                   |
|   \\  /    A nd           | Web:         http://www.extend-project.de       |
|    \\/     M anipulation  |                                                 |
\*---------------------------------------------------------------------------*/
FoamFile
{
    version     2.0;
    format      ascii;
    class       volSymmTensorField;
    location    "5";
    object      sigma;
}
// * * * * * * * * * * * * * * * * * * * * * * * * * * * * * * * * * * * * * //

dimensions      [0 1 -1 0 0 0 0];

internalField   nonuniform List<symmTensor> 
1512
(
(-0.0221569 -0.0390385 0.175097 -0.0595566 0.154526 0.0817135)
(-0.0247316 -0.0387788 0.172476 -0.0572719 0.1523 0.0820036)
(-0.0259524 -0.0377558 0.183821 -0.0546406 0.161458 0.0805929)
(-0.0270087 -0.0358435 0.18727 -0.0502254 0.164381 0.0772342)
(-0.0275972 -0.0326731 0.188115 -0.043505 0.165978 0.0711022)
(-0.0326843 -0.0478051 0.207615 -0.0426855 0.118725 0.0753698)
(-0.0347777 -0.0467277 0.203308 -0.0409413 0.116458 0.0757191)
(-0.035722 -0.0448961 0.215835 -0.0386089 0.122573 0.0743309)
(-0.0362385 -0.0422622 0.218629 -0.0348678 0.123922 0.0711064)
(-0.0353957 -0.0378618 0.219076 -0.0293139 0.124676 0.0647096)
(-0.035211 -0.0552424 0.232207 -0.0262803 0.0756102 0.0614913)
(-0.0372901 -0.0523613 0.226589 -0.0246556 0.0741474 0.0619457)
(-0.0378031 -0.0491984 0.24001 -0.0228709 0.0774076 0.060674)
(-0.037665 -0.0445934 0.241917 -0.0200408 0.0780856 0.0577058)
(-0.0355822 -0.0386596 0.240532 -0.0161283 0.078662 0.0517105)
(-0.0537154 -0.0518425 0.256024 0.00269084 0.0253703 0.0510245)
(-0.0544106 -0.0479277 0.247979 0.0028536 0.0251475 0.051557)
(-0.0536189 -0.0438516 0.260927 0.00331865 0.0253633 0.0503003)
(-0.0516547 -0.038386 0.260967 0.00420143 0.0256057 0.0474532)
(-0.0468007 -0.0320275 0.257478 0.00530971 0.0266784 0.041491)
(-0.0536043 -0.0389781 0.264681 0.0217954 -0.0326548 0.0318089)
(-0.0530951 -0.0360733 0.255233 0.0206103 -0.0307083 0.0324847)
(-0.0508289 -0.0333243 0.267568 0.0194588 -0.0332143 0.03137)
(-0.046837 -0.0296527 0.266105 0.0179681 -0.0323939 0.0288689)
(-0.0403137 -0.0281557 0.260427 0.0169607 -0.029395 0.023353)
(-0.0670242 -0.020069 0.263964 0.0484319 -0.0950859 0.0185923)
(-0.0636885 -0.0161972 0.253229 0.0443459 -0.0901728 0.0193426)
(-0.0591862 -0.0127549 0.264273 0.0409931 -0.0950211 0.0181931)
(-0.0536445 -0.00840442 0.261537 0.0380055 -0.0930172 0.015639)
(-0.044631 -0.00635322 0.255816 0.0347905 -0.0873012 0.00984045)
(-0.0329461 -0.00896567 0.241265 0.0327798 -0.16176 0.000166313)
(-0.0333142 -0.00840463 0.229901 0.0322303 -0.153125 0.00108388)
(-0.0313861 -0.00826191 0.238552 0.0313093 -0.159999 7.68751e-05)
(-0.0293312 -0.00906865 0.234187 0.0313739 -0.156896 -0.00204268)
(-0.0304121 -0.00923282 0.225039 0.0380024 -0.148281 -0.00759025)
(-0.00849416 -0.00798794 -0.0222318 -0.0174963 -0.0235776 0.0259905)
(-0.0081909 -0.00820586 -0.0206618 -0.0180211 -0.0223018 0.026212)
(-0.00904057 -0.0085049 -0.0226859 -0.0179206 -0.0239799 0.0269612)
(-0.00970851 -0.0095338 -0.0241018 -0.0184755 -0.0251787 0.028184)
(-0.00941411 -0.0110886 -0.0243653 -0.0208026 -0.0248467 0.0302167)
(0.000896947 -0.0120767 -0.0339796 -0.0227048 -0.0219072 0.0218079)
(0.000352027 -0.0116541 -0.0313761 -0.0223418 -0.0206226 0.0219898)
(-0.000759727 -0.0110667 -0.0332521 -0.0220014 -0.021524 0.0227611)
(-0.00225474 -0.0101776 -0.0341104 -0.0217599 -0.0218881 0.0240147)
(-0.00436557 -0.00956443 -0.0339002 -0.02178 -0.0215062 0.0261456)
(0.000642442 -0.0184382 -0.0391421 -0.01506 -0.0168073 0.0144176)
(0.000595193 -0.0183904 -0.036376 -0.0151625 -0.0161425 0.0145673)
(-0.000354503 -0.0178151 -0.0382692 -0.0150616 -0.0166562 0.0154161)
(-0.00175447 -0.0170706 -0.0388982 -0.0150621 -0.016918 0.0168166)
(-0.00373952 -0.0166986 -0.0379764 -0.0156098 -0.0168998 0.0193494)
(0.000500801 -0.0231608 -0.0508709 -0.00693181 -0.00987542 0.00643101)
(0.000478406 -0.0229834 -0.0467592 -0.00702036 -0.00985058 0.00654195)
(-0.000187198 -0.0221721 -0.0478767 -0.00730353 -0.00996413 0.00749073)
(-0.00124977 -0.0208795 -0.047186 -0.00785428 -0.0101436 0.00910405)
(-0.00326213 -0.0190275 -0.0449023 -0.00888965 -0.0106205 0.0121518)
(-0.0029552 -0.0260913 -0.0528686 0.00612188 0.000676696 -0.00316669)
(-0.00282457 -0.0259578 -0.048738 0.00592919 -0.000258923 -0.00310462)
(-0.00327152 -0.025105 -0.0495429 0.00533687 -0.000234925 -0.00206535)
(-0.00394809 -0.0237881 -0.0486068 0.00423316 -0.000755765 -0.000285064)
(-0.00568885 -0.0217037 -0.0458543 0.00240012 -0.00223414 0.00328873)
(-0.00378128 -0.0244473 -0.057795 0.0176079 0.0137564 -0.0138267)
(-0.00387385 -0.0245577 -0.0530303 0.0176656 0.0114792 -0.0137918)
(-0.00434564 -0.0238933 -0.0532672 0.0169415 0.0113429 -0.0125959)
(-0.0051991 -0.0227668 -0.0515508 0.0156704 0.0100798 -0.0104713)
(-0.00711181 -0.0213439 -0.0485086 0.0132047 0.00714079 -0.00609284)
(-0.00518926 -0.0213214 -0.0515318 0.029155 0.0288348 -0.0239658)
(-0.00486179 -0.0213288 -0.0468739 0.0288651 0.0251519 -0.0240033)
(-0.0046473 -0.0206475 -0.0463783 0.0273749 0.0246445 -0.0227276)
(-0.00515991 -0.0194636 -0.0442444 0.0256423 0.0227008 -0.0204824)
(-0.00557831 -0.0178219 -0.0401227 0.0210026 0.0179813 -0.0154242)
(-0.0174696 -0.0206414 0.887701 -0.0163103 0.710614 0.0337799)
(-0.0174171 -0.0208369 0.838244 -0.0163724 0.671305 0.0337895)
(-0.0170496 -0.0206514 0.795545 -0.0159641 0.637772 0.0330137)
(-0.0160672 -0.0206404 0.733531 -0.0152028 0.589771 0.03127)
(-0.0130004 -0.01956 0.653722 -0.0147778 0.530416 0.0277782)
(-0.0173462 -0.0186204 1.01857 -0.0138544 0.494394 0.0312007)
(-0.017825 -0.0183327 0.962101 -0.0133907 0.467239 0.0312157)
(-0.0175593 -0.017649 0.913652 -0.0128556 0.444115 0.030415)
(-0.0169281 -0.0165949 0.843464 -0.0117218 0.410858 0.0286498)
(-0.0149244 -0.0148916 0.755617 -0.0101657 0.370024 0.0250901)
(-0.0189135 -0.019731 1.10196 -0.00684549 0.254108 0.0257589)
(-0.0192383 -0.0193407 1.04052 -0.00656763 0.240079 0.0258059)
(-0.0188623 -0.0187661 0.98793 -0.00623025 0.228185 0.0250926)
(-0.0181348 -0.0177164 0.911996 -0.00537151 0.211108 0.0235063)
(-0.0156982 -0.0165514 0.817083 -0.00453872 0.190162 0.0202369)
(-0.0232794 -0.0150026 1.12985 0.00163287 0.000775833 0.0216465)
(-0.0234428 -0.0144386 1.06705 0.00174143 0.00072905 0.0217014)
(-0.0228841 -0.0138086 1.01353 0.00193424 0.000740608 0.0209499)
(-0.021817 -0.0124937 0.935953 0.00249632 0.000734006 0.0193207)
(-0.0190128 -0.010883 0.838891 0.00303338 0.000850546 0.0159794)
(-0.0220732 -0.00996846 1.10542 0.00676117 -0.253422 0.0153121)
(-0.0220444 -0.00955644 1.04341 0.00664413 -0.239348 0.0154003)
(-0.0212461 -0.0092325 0.990633 0.00651611 -0.22738 0.01473)
(-0.0195935 -0.00845267 0.914315 0.0063145 -0.210183 0.013279)
(-0.0163609 -0.00870277 0.818879 0.00618513 -0.18882 0.0101758)
(-0.0235077 -0.00179174 1.02444 0.0134742 -0.495614 0.0100335)
(-0.0230049 -0.00104654 0.967019 0.0128762 -0.468096 0.0101287)
(-0.0220322 -0.000493295 0.918344 0.0126138 -0.444822 0.00941836)
(-0.0205282 0.000598384 0.847555 0.0126361 -0.411256 0.00789207)
(-0.0172378 0.000165188 0.759022 0.0126047 -0.369668 0.00463314)
(-0.00910004 0.00213319 0.894355 0.00427968 -0.715329 0.00482036)
(-0.00972479 0.00218555 0.843571 0.00477613 -0.675065 0.00494866)
(-0.00935911 0.00210805 0.80039 0.00507079 -0.641174 0.00428831)
(-0.00911276 0.001811 0.737471 0.00621649 -0.592531 0.00289626)
(-0.00913223 0.000773767 0.656326 0.00950438 -0.532035 -0.000372155)
(-0.0165863 -0.0143431 -0.3715 -0.0194761 -0.295502 0.0360624)
(-0.0148943 -0.0146748 -0.348118 -0.0209735 -0.276926 0.0358678)
(-0.0143936 -0.0150786 -0.320326 -0.0221167 -0.255026 0.0365103)
(-0.0138343 -0.0166422 -0.287478 -0.0243724 -0.229527 0.0382067)
(-0.0116754 -0.0172557 -0.245908 -0.0299231 -0.198191 0.0415984)
(0.00450934 -0.0152081 -0.428742 -0.0338373 -0.20477 0.029328)
(0.00344978 -0.0139851 -0.401869 -0.0325832 -0.191876 0.0291334)
(0.0018958 -0.0126644 -0.370125 -0.0316821 -0.176748 0.0297863)
(-0.000436527 -0.0114023 -0.332794 -0.0311094 -0.159169 0.0315459)
(-0.00406841 -0.0108016 -0.286537 -0.0308911 -0.137836 0.0349595)
(0.00521973 -0.0255648 -0.46262 -0.0234463 -0.102556 0.0182266)
(0.00522888 -0.0250343 -0.43381 -0.0232878 -0.0960004 0.0180589)
(0.00443437 -0.0242916 -0.399752 -0.0232445 -0.0883058 0.0188101)
(0.00229886 -0.0233931 -0.359756 -0.0230821 -0.079363 0.0207832)
(-0.000981849 -0.0233354 -0.310434 -0.0236584 -0.0685167 0.0246403)
(0.00541761 -0.0357402 -0.474303 -0.0131363 0.00491349 0.00771867)
(0.00562018 -0.0343169 -0.444682 -0.0131841 0.00491443 0.00756389)
(0.00514911 -0.0325591 -0.409798 -0.0135181 0.00491462 0.00836897)
(0.00337642 -0.0298864 -0.368813 -0.0138685 0.00492743 0.0104921)
(-1.19485e-05 -0.0264329 -0.31842 -0.0146336 0.00494048 0.0146455)
(-0.00269295 -0.0414853 -0.459954 0.00871826 0.111705 -0.00602531)
(-0.00174126 -0.0400013 -0.431305 0.00789424 0.105187 -0.00615298)
(-0.00140389 -0.0381103 -0.397462 0.00663811 0.0975368 -0.00523422)
(-0.00183218 -0.034981 -0.357728 0.00468658 0.0886691 -0.0028544)
(-0.00342967 -0.031038 -0.308759 0.00163138 0.0779187 0.0017983)
(-0.00946046 -0.0370278 -0.424074 0.0278443 0.212318 -0.0183838)
(-0.0084056 -0.0363367 -0.39747 0.0269058 0.199556 -0.0185002)
(-0.00787018 -0.0351753 -0.366096 0.0253976 0.18461 -0.0175275)
(-0.00784299 -0.032731 -0.32922 0.0228608 0.167283 -0.0150178)
(-0.00843729 -0.029839 -0.283589 0.0185362 0.146293 -0.0100989)
(-0.0153558 -0.026524 -0.36554 0.0466853 0.30048 -0.0313295)
(-0.0131968 -0.0260869 -0.342517 0.0446183 0.282197 -0.0314215)
(-0.0113406 -0.0251015 -0.315213 0.0416809 0.260692 -0.0303402)
(-0.0100853 -0.0230836 -0.282965 0.0376634 0.235698 -0.0275781)
(-0.00920471 -0.0212265 -0.242195 0.0314496 0.205057 -0.0222449)
(-0.0211039 -0.0249178 0.406324 -0.0227706 0.325889 0.0438744)
(-0.0208513 -0.0250901 0.381034 -0.0229576 0.305806 0.0438089)
(-0.0205809 -0.0249384 0.358136 -0.022538 0.287823 0.0431189)
(-0.0194697 -0.0249723 0.325802 -0.0219238 0.262818 0.0413934)
(-0.0162176 -0.0240416 0.286165 -0.0219162 0.23325 0.0381337)
(-0.0192815 -0.0245855 0.467546 -0.0209064 0.226515 0.0401879)
(-0.019926 -0.024054 0.438464 -0.0202006 0.21256 0.0401266)
(-0.0199734 -0.0231837 0.412258 -0.0194516 0.200074 0.039425)
(-0.0195693 -0.0217917 0.375423 -0.01813 0.182701 0.0376993)
(-0.0181334 -0.0198822 0.331477 -0.0161928 0.162381 0.0343262)
(-0.0223634 -0.0261325 0.503757 -0.0101154 0.115314 0.0324788)
(-0.0226173 -0.0256595 0.472594 -0.00982729 0.108223 0.0324446)
(-0.022424 -0.0249493 0.444517 -0.0094109 0.101883 0.0318349)
(-0.0217877 -0.0236984 0.40506 -0.00850708 0.0930403 0.0302948)
(-0.0197134 -0.0223889 0.357828 -0.00754672 0.0826318 0.0272601)
(-0.0267633 -0.0224767 0.517374 0.000660065 -0.00160584 0.0261032)
(-0.0268179 -0.0216949 0.485191 0.000743174 -0.00160689 0.0260747)
(-0.0263394 -0.0207937 0.456272 0.000867385 -0.00160537 0.025472)
(-0.025232 -0.0191107 0.415726 0.00124472 -0.00160867 0.0239873)
(-0.022683 -0.016926 0.367353 0.00161436 -0.00160971 0.0210686)
(-0.0268829 -0.0171345 0.502649 0.0103498 -0.118217 0.0165331)
(-0.0266345 -0.0165191 0.471543 0.0100993 -0.111141 0.0165352)
(-0.0258722 -0.0159078 0.443574 0.0098407 -0.10482 0.0160315)
(-0.0241396 -0.0147287 0.404239 0.00937869 -0.0960076 0.0147609)
(-0.0210812 -0.0141277 0.35715 0.00885614 -0.0856284 0.0122251)
(-0.027454 -0.00778733 0.46563 0.0193498 -0.228774 0.00810421)
(-0.0268208 -0.00707707 0.436623 0.0187028 -0.214858 0.00811806)
(-0.0258744 -0.0064112 0.410591 0.0182315 -0.202454 0.00764294)
(-0.0242735 -0.00523588 0.373962 0.0178215 -0.185189 0.00645198)
(-0.0211818 -0.00522876 0.330269 0.0171031 -0.16499 0.00407868)
(-0.0147963 -0.00214626 0.403736 0.0156145 -0.327031 -0.000818189)
(-0.0148987 -0.00206606 0.378575 0.0156788 -0.307059 -0.00078015)
(-0.0142996 -0.00197628 0.355924 0.0154802 -0.289279 -0.00118054)
(-0.0136265 -0.0020018 0.32387 0.0158184 -0.264516 -0.00219187)
(-0.0128955 -0.00253161 0.284569 0.0171984 -0.235242 -0.00430293)
(-0.0184929 -0.0193884 -0.0379175 -0.0200316 -0.030589 0.0385245)
(-0.0176057 -0.0196288 -0.0362208 -0.0208042 -0.0292445 0.03841)
(-0.0171891 -0.0197106 -0.0298377 -0.0211151 -0.0242086 0.0383043)
(-0.0162921 -0.020362 -0.0250158 -0.0217948 -0.0204922 0.0380869)
(-0.0136368 -0.0200538 -0.0185035 -0.0241742 -0.0156438 0.0378109)
(-0.0085008 -0.0195538 -0.0445307 -0.0253085 -0.0217647 0.0338093)
(-0.00930721 -0.0187441 -0.0425166 -0.0243895 -0.0208044 0.0336967)
(-0.00998148 -0.0177126 -0.0351791 -0.0236095 -0.0173342 0.033591)
(-0.0107451 -0.0164248 -0.0296814 -0.0226632 -0.0148327 0.0334083)
(-0.0115685 -0.0151422 -0.0222698 -0.0215041 -0.011626 0.0330726)
(-0.00980922 -0.0247277 -0.0485246 -0.0150766 -0.0109914 0.0248858)
(-0.00994547 -0.024257 -0.0463999 -0.0148553 -0.0105094 0.0248007)
(-0.0101578 -0.0235877 -0.0385672 -0.0146239 -0.00875107 0.0247817)
(-0.010712 -0.022544 -0.0327091 -0.0140692 -0.00748523 0.0247812)
(-0.0110376 -0.0218282 -0.0249961 -0.0137703 -0.0058832 0.024808)
(-0.0121506 -0.0269932 -0.0501159 -0.00507832 0.000573556 0.0172289)
(-0.0121015 -0.0259621 -0.0478704 -0.00505319 0.000578016 0.0171547)
(-0.0120437 -0.0247484 -0.0398114 -0.00512306 0.000577547 0.0171668)
(-0.0122067 -0.0227027 -0.0337745 -0.00506314 0.000578796 0.0172699)
(-0.0123224 -0.0200623 -0.0258768 -0.00516479 0.00057147 0.0174872)
(-0.0154526 -0.0265951 -0.0485483 0.00926253 0.0121401 0.00619007)
(-0.0149193 -0.0256187 -0.046395 0.00877344 0.0116591 0.00614588)
(-0.0143623 -0.024499 -0.0385842 0.00810805 0.00990231 0.00625423)
(-0.0136011 -0.0225407 -0.032733 0.0070305 0.00863536 0.00657065)
(-0.0126875 -0.0206288 -0.0250136 0.00550066 0.00700885 0.0071868)
(-0.0187038 -0.0194922 -0.0445653 0.0220454 0.0229079 -0.00334157)
(-0.0179084 -0.0187944 -0.0425014 0.0212818 0.0219333 -0.00337337)
(-0.0171833 -0.0179434 -0.0352033 0.0204116 0.0184807 -0.0032283)
(-0.0163197 -0.0162496 -0.0297193 0.019139 0.0159868 -0.00281924)
(-0.0149588 -0.0150622 -0.0223132 0.0169886 0.0127537 -0.0020298)
(-0.0137347 -0.0123595 -0.0378478 0.0273235 0.0317322 -0.0135888)
(-0.0129121 -0.0121372 -0.0360827 0.0265063 0.0303454 -0.0135943)
(-0.0118199 -0.0116942 -0.0297471 0.0251862 0.0253532 -0.0133663)
(-0.0109772 -0.0109218 -0.0249404 0.0237364 0.0216609 -0.0127592)
(-0.0104673 -0.010513 -0.0184142 0.0221345 0.0168024 -0.0116671)
(-0.0181883 -0.0208875 0.0914385 -0.021977 0.0731193 0.0401652)
(-0.0178451 -0.0210866 0.0848532 -0.0223292 0.0678901 0.0401742)
(-0.0177311 -0.0210433 0.0821164 -0.0221445 0.0657578 0.0398755)
(-0.0170833 -0.0213608 0.0755459 -0.0220255 0.0606742 0.0391088)
(-0.0147094 -0.020893 0.0681094 -0.0228473 0.0551215 0.0375566)
(-0.0133305 -0.0213543 0.104755 -0.0225825 0.0503692 0.0359129)
(-0.0140069 -0.020808 0.0972026 -0.0219116 0.0467452 0.0359185)
(-0.014385 -0.0199495 0.0940668 -0.0212301 0.0452393 0.0356151)
(-0.0146643 -0.0187306 0.0865539 -0.0201991 0.041649 0.0348634)
(-0.0144567 -0.0172073 0.0783948 -0.0188128 0.0377509 0.0332695)
(-0.015047 -0.0249305 0.112294 -0.0127614 0.0254845 0.0278084)
(-0.0153003 -0.024493 0.104225 -0.0125327 0.0236522 0.0278329)
(-0.0154094 -0.0237689 0.100879 -0.0122082 0.0228964 0.0276176)
(-0.0155162 -0.0226201 0.0928427 -0.0115313 0.0210788 0.0270474)
(-0.0148428 -0.021531 0.0839211 -0.0109732 0.0190686 0.025816)
(-0.0184605 -0.0243233 0.11527 -0.00215992 -0.000496763 0.0206204)
(-0.0185278 -0.0235333 0.106937 -0.00211793 -0.000489349 0.0206457)
(-0.0183496 -0.0225014 0.103448 -0.00210205 -0.000482741 0.0204517)
(-0.0180301 -0.0207305 0.0951746 -0.00193053 -0.000468877 0.0199607)
(-0.0170225 -0.0184374 0.0860278 -0.00188359 -0.000455923 0.0189061)
(-0.0199226 -0.0216978 0.111736 0.00941013 -0.0263323 0.0105124)
(-0.0196515 -0.021028 0.103736 0.00909524 -0.0245019 0.0105563)
(-0.0190925 -0.0201896 0.100425 0.00863634 -0.0237418 0.0104561)
(-0.0180461 -0.0187269 0.0924444 0.00787868 -0.0219122 0.0101674)
(-0.016376 -0.0175754 0.0836071 0.00686708 -0.0199015 0.00950889)
(-0.0218826 -0.0141693 0.103817 0.0206229 -0.0509237 0.00125962)
(-0.0212775 -0.0135029 0.0963753 0.0199698 -0.0473382 0.00130768)
(-0.0205103 -0.0127095 0.0932897 0.0192663 -0.0458453 0.00124395)
(-0.019472 -0.0112806 0.0858675 0.0184234 -0.0422753 0.00104853)
(-0.0175863 -0.0106694 0.0778343 0.0169871 -0.0384326 0.000599127)
(-0.0129949 -0.00829592 0.090307 0.0212846 -0.07313 -0.00828975)
(-0.0128475 -0.0081766 0.0838828 0.0210776 -0.0680143 -0.00823005)
(-0.0121277 -0.0079118 0.0812294 0.0203484 -0.065932 -0.00822071)
(-0.011644 -0.00756135 0.0747896 0.0198922 -0.0609194 -0.00824822)
(-0.0113644 -0.00756719 0.0675558 0.0197744 -0.0554848 -0.00840998)
(-0.0179344 -0.0202914 0.141146 -0.0213476 0.11075 0.039282)
(-0.0175196 -0.0204979 0.131457 -0.021763 0.103115 0.0392826)
(-0.0173728 -0.0204731 0.128781 -0.0216506 0.101091 0.0390234)
(-0.0167179 -0.0208403 0.119941 -0.0216513 0.0943419 0.0383692)
(-0.0143573 -0.0204143 0.10927 -0.0226908 0.0863537 0.0370481)
(-0.0123651 -0.0206937 0.161408 -0.022637 0.0747526 0.0350021)
(-0.0130446 -0.0201274 0.150534 -0.0219541 0.0695927 0.0349987)
(-0.0134625 -0.0192554 0.147539 -0.0212732 0.0681484 0.0347358)
(-0.0138194 -0.0180483 0.137621 -0.0202804 0.0634032 0.0340998)
(-0.0137711 -0.0165837 0.126303 -0.0189719 0.0577595 0.0327431)
(-0.0139436 -0.0245036 0.170826 -0.0129467 0.0355114 0.0268903)
(-0.0141768 -0.0240775 0.159558 -0.0127288 0.0330201 0.0269057)
(-0.0143059 -0.0233652 0.156383 -0.0124234 0.0323032 0.0267294)
(-0.0144936 -0.0222475 0.14603 -0.0117791 0.0299723 0.0262727)
(-0.0139957 -0.0212285 0.133936 -0.0112819 0.0271115 0.0252775)
(-0.017117 -0.0243353 0.172437 -0.00259017 -0.00405142 0.0197071)
(-0.0171711 -0.0235409 0.161214 -0.00255263 -0.00395822 0.0197237)
(-0.0170191 -0.0224951 0.157917 -0.00255188 -0.00393691 0.019571)
(-0.0167951 -0.0207135 0.147495 -0.00240266 -0.00386408 0.0191978)
(-0.0159977 -0.0184116 0.135433 -0.00238687 -0.00390541 0.0183846)
(-0.018838 -0.0221587 0.163755 0.00921749 -0.0420112 0.00962047)
(-0.0185417 -0.0214658 0.153456 0.00888657 -0.0395604 0.00965515)
(-0.0179913 -0.0205894 0.150352 0.00839646 -0.0388225 0.00959482)
(-0.0170178 -0.0190725 0.140653 0.00759659 -0.0365207 0.00942119)
(-0.0155182 -0.0178266 0.129582 0.00651784 -0.0340478 0.00900034)
(-0.0209572 -0.0148333 0.149479 0.020532 -0.0770811 0.000425165)
(-0.0203494 -0.0141816 0.140304 0.0198855 -0.0725548 0.000463965)
(-0.0196033 -0.0133852 0.137413 0.019163 -0.0711386 0.000440316)
(-0.0186266 -0.0119293 0.128608 0.0182669 -0.0668376 0.00035969)
(-0.0168907 -0.0112343 0.118849 0.0167462 -0.062336 0.000144514)
(-0.0127945 -0.00887966 0.12768 0.0218696 -0.107049 -0.00907507)
(-0.0125616 -0.00874955 0.120196 0.0215864 -0.10095 -0.00902482)
(-0.0117864 -0.00845993 0.117738 0.0207623 -0.0989562 -0.00897584)
(-0.0112674 -0.00805167 0.110432 0.0201571 -0.0930941 -0.00888966)
(-0.010981 -0.00800664 0.102205 0.0198006 -0.0867857 -0.00881961)
(0.0173282 0.00968506 -0.144166 -0.0615416 0.217907 0.0442135)
(0.0157748 0.0104607 -0.139062 -0.0605522 0.211021 0.0447775)
(0.0141455 0.0107717 -0.146955 -0.057654 0.22104 0.0435086)
(0.0132587 0.0105975 -0.147164 -0.0539029 0.221033 0.0406442)
(0.0175674 0.00993146 -0.142845 -0.0519196 0.216785 0.0343522)
(0.0253024 -0.00123252 -0.0867523 -0.0874843 0.232558 0.0621819)
(0.0224294 0.00161451 -0.0843164 -0.0850051 0.227146 0.0625757)
(0.0201811 0.00387977 -0.0900012 -0.0813029 0.23984 0.0611217)
(0.0184614 0.00695573 -0.0904473 -0.0762447 0.242218 0.0577833)
(0.0168982 0.00755903 -0.0877257 -0.0677003 0.241759 0.050802)
(0.00751881 -0.0165891 -0.0361268 -0.0753603 0.237759 0.0678415)
(0.00678306 -0.014536 -0.0351292 -0.0749954 0.232804 0.0682124)
(0.00607018 -0.0127155 -0.0379889 -0.0729169 0.246289 0.0668467)
(0.00537506 -0.01026 -0.0383024 -0.0690502 0.249226 0.0636751)
(0.00508176 -0.00973238 -0.036918 -0.0622786 0.248293 0.0571968)
(-0.00335692 -0.0260104 0.0126659 -0.080658 0.231516 0.0840149)
(-0.00313666 -0.0240235 0.0125586 -0.08113 0.228113 0.0842667)
(-0.00271962 -0.0219528 0.0126702 -0.0800269 0.242634 0.0827465)
(-0.00167403 -0.0191889 0.0127933 -0.0775855 0.247246 0.0792596)
(-0.000514498 -0.0160148 0.0133353 -0.0717676 0.248486 0.0722821)
(-0.0166454 -0.0307305 0.0574814 -0.0658975 0.221626 0.0825429)
(-0.015978 -0.0298919 0.0567359 -0.0668255 0.218585 0.0828035)
(-0.0152168 -0.0287399 0.0599906 -0.0661523 0.232606 0.0813691)
(-0.0137209 -0.0270023 0.0610742 -0.064266 0.237213 0.077987)
(-0.0115331 -0.0237949 0.0615061 -0.0597711 0.238402 0.0713043)
(-0.0204327 -0.0328038 0.0986469 -0.070089 0.204544 0.0905217)
(-0.0203389 -0.033138 0.0975336 -0.0703785 0.202328 0.0907174)
(-0.0196948 -0.032729 0.103846 -0.0694472 0.215743 0.089142)
(-0.0179808 -0.0323006 0.105953 -0.0674811 0.220864 0.0854619)
(-0.0151481 -0.0296674 0.10644 -0.0630248 0.223462 0.078173)
(-0.0290298 -0.0336654 0.140692 -0.0557228 0.185144 0.0847526)
(-0.02915 -0.0340292 0.138772 -0.0558572 0.182604 0.0850072)
(-0.0289857 -0.0337594 0.147789 -0.0545641 0.193939 0.0835499)
(-0.0276689 -0.0330475 0.150994 -0.0524255 0.197798 0.0800943)
(-0.0232677 -0.0308619 0.151766 -0.0502971 0.198494 0.0735649)
(0.0172432 -0.00772873 0.020443 -0.0214173 -0.0401058 0.00417406)
(0.0168279 -0.00756363 0.017998 -0.0211112 -0.0370021 0.00428333)
(0.0155128 -0.00692094 0.0185251 -0.0208031 -0.0378179 0.00529032)
(0.0140429 -0.0055076 0.0181678 -0.0210454 -0.0377262 0.00700249)
(0.0091859 -0.00424649 0.015485 -0.0197146 -0.0360588 0.0105287)
(0.00673283 -0.0123619 0.00973764 -0.0194159 -0.0435374 0.0126831)
(0.00688018 -0.0125135 0.00836083 -0.0197375 -0.040674 0.0128573)
(0.0063514 -0.0121853 0.008992 -0.0201281 -0.0424787 0.0137767)
(0.00549364 -0.011526 0.0088828 -0.0208469 -0.0431561 0.0153533)
(0.00342177 -0.0110876 0.00734927 -0.0217508 -0.0428261 0.0183291)
(-0.00125865 -0.0131469 0.00159656 -0.0194111 -0.0405449 0.0206697)
(-0.00144079 -0.0130599 0.000991882 -0.0194244 -0.037937 0.0208652)
(-0.00192493 -0.0125731 0.001326 -0.0197821 -0.0399862 0.021707)
(-0.00280959 -0.0117476 0.00131951 -0.0202795 -0.0411095 0.0230891)
(-0.00462148 -0.0103108 0.000554745 -0.0209273 -0.0408033 0.0255488)
(-0.00893655 -0.0113845 -0.00486571 -0.0169903 -0.0396493 0.0259268)
(-0.00901019 -0.0112983 -0.00486105 -0.0171418 -0.0372363 0.026152)
(-0.00929114 -0.0108907 -0.00493129 -0.017624 -0.0397715 0.0269151)
(-0.00972412 -0.0102503 -0.00504116 -0.0184399 -0.0412068 0.028164)
(-0.0107879 -0.0093426 -0.00531333 -0.0194773 -0.0413262 0.0302652)
(-0.0117538 -0.0085937 -0.00950397 -0.0178831 -0.0338442 0.0296369)
(-0.0118904 -0.00859449 -0.0090489 -0.0179866 -0.0319137 0.0298769)
(-0.0120317 -0.00837788 -0.00965676 -0.0185849 -0.0344971 0.0306166)
(-0.0123718 -0.00821515 -0.0100842 -0.0194185 -0.0363854 0.0317903)
(-0.0135646 -0.00849379 -0.0101184 -0.0201343 -0.0369694 0.0336989)
(-0.0132338 -0.00556995 -0.0138724 -0.0173555 -0.0318896 0.0305893)
(-0.0129474 -0.0052744 -0.0129974 -0.0178867 -0.0300938 0.0308341)
(-0.0129438 -0.0049752 -0.0141558 -0.0185983 -0.0326965 0.0315421)
(-0.0130684 -0.00464115 -0.0148671 -0.0196203 -0.0346317 0.0326887)
(-0.0139458 -0.00406849 -0.014628 -0.0206043 -0.0356757 0.0345501)
(-0.0059262 -0.00662748 -0.0180492 -0.0235789 -0.0259249 0.0295051)
(-0.0064683 -0.0068996 -0.0167843 -0.0232726 -0.0243394 0.0297409)
(-0.00699664 -0.0073538 -0.0183875 -0.0234728 -0.0263841 0.0304694)
(-0.00787893 -0.00868867 -0.0195989 -0.0237571 -0.0280189 0.031636)
(-0.0115838 -0.00993471 -0.0191256 -0.0219998 -0.0284949 0.0335835)
(0.000476854 0.010702 -0.712742 -0.0208429 0.891353 0.0203661)
(0.000397283 0.0109617 -0.672995 -0.0208233 0.841219 0.020426)
(0.000327614 0.0110266 -0.639258 -0.0200152 0.79824 0.0196876)
(0.000924643 0.011339 -0.59099 -0.0190005 0.735818 0.0180759)
(0.00253033 0.0102198 -0.530977 -0.0170657 0.655192 0.0145353)
(0.00581488 0.00499187 -0.493963 -0.0312663 1.02022 0.0254514)
(0.00560402 0.00542091 -0.466827 -0.0310768 0.963631 0.0254728)
(0.00561538 0.00553328 -0.443696 -0.0302706 0.915251 0.0246552)
(0.00601275 0.00617473 -0.410428 -0.0288758 0.845113 0.022863)
(0.00628022 0.00512581 -0.369179 -0.0254172 0.757199 0.019137)
(0.00236804 -0.00216172 -0.253003 -0.0301355 1.10211 0.0277675)
(0.00228615 -0.00180267 -0.239056 -0.0300843 1.04072 0.0277981)
(0.00216811 -0.00160297 -0.227125 -0.0292249 0.988103 0.0270568)
(0.00213665 -0.00101841 -0.210042 -0.0275489 0.912282 0.0254122)
(0.00189425 -0.001228 -0.18885 -0.0238752 0.81736 0.021981)
(-0.000464635 -0.00747856 0.000236298 -0.0325746 1.12634 0.0330393)
(-0.000319438 -0.00719827 0.000213912 -0.0327159 1.06428 0.0330354)
(-0.000155501 -0.00688749 0.000222275 -0.032039 1.01107 0.0321945)
(0.000534824 -0.00623499 0.000224086 -0.030892 0.934122 0.0303572)
(0.00104752 -0.00543629 0.000293452 -0.0276872 0.837653 0.0266397)
(-0.00441697 -0.0126341 0.253054 -0.028616 1.10045 0.0330329)
(-0.00430198 -0.0125998 0.239131 -0.0287412 1.03934 0.0330432)
(-0.00419339 -0.0123612 0.227242 -0.0280877 0.986808 0.0322811)
(-0.003702 -0.0120526 0.210227 -0.0268678 0.911172 0.0305698)
(-0.00347799 -0.0114165 0.189263 -0.0235777 0.816504 0.0270557)
(-0.00779444 -0.0151698 0.493108 -0.0283088 1.01738 0.0361032)
(-0.00748934 -0.0150943 0.466152 -0.0285947 0.961253 0.036084)
(-0.00708435 -0.0145959 0.443095 -0.0281372 0.91298 0.0352216)
(-0.00614653 -0.0141797 0.409981 -0.0271636 0.843138 0.0333101)
(-0.00510006 -0.0124924 0.369118 -0.0243344 0.755565 0.0294344)
(-0.00976011 -0.0199668 0.710196 -0.0251501 0.888156 0.0349102)
(-0.0101288 -0.0202926 0.670915 -0.0247887 0.838677 0.0349175)
(-0.0101586 -0.0203037 0.637348 -0.0239704 0.79593 0.0341291)
(-0.00977214 -0.0207427 0.589401 -0.0225752 0.733955 0.0323473)
(-0.00963217 -0.0195963 0.529963 -0.0190668 0.653985 0.028699)
(0.0329458 -0.00926795 0.3008 -0.0387781 -0.366742 0.00583227)
(0.0303507 -0.00863521 0.28236 -0.0360342 -0.343519 0.00568347)
(0.0271688 -0.00759698 0.260643 -0.0336837 -0.315936 0.00651495)
(0.0228179 -0.00518084 0.235389 -0.0314826 -0.28334 0.00866466)
(0.0153774 -0.00379612 0.204397 -0.0281795 -0.242087 0.0128021)
(0.0118167 -0.0211125 0.211693 -0.0292159 -0.425514 0.0173992)
(0.0113752 -0.0208206 0.198834 -0.0285927 -0.3987 0.0172175)
(0.0103535 -0.0202744 0.183755 -0.028277 -0.367034 0.0179234)
(0.00848489 -0.0185622 0.166265 -0.0282976 -0.329801 0.0198127)
(0.00498557 -0.0167861 0.145052 -0.0284388 -0.283681 0.0234532)
(-0.00135612 -0.024168 0.110131 -0.0234613 -0.461313 0.0248174)
(-0.00203381 -0.0229631 0.103571 -0.0226067 -0.432456 0.0246405)
(-0.00311196 -0.0215319 0.0958687 -0.0222372 -0.398328 0.0253491)
(-0.00468455 -0.0190385 0.0869367 -0.0225377 -0.358248 0.0272222)
(-0.00750866 -0.0157209 0.0761007 -0.0233197 -0.308811 0.0308283)
(-0.0167462 -0.01825 0.00253972 -0.0176031 -0.475119 0.0343493)
(-0.0167556 -0.0175185 0.00254547 -0.0173896 -0.445326 0.0341452)
(-0.0170998 -0.0166106 0.00255388 -0.0176446 -0.410206 0.0347444)
(-0.0173013 -0.0152427 0.00257234 -0.0190981 -0.368935 0.0363994)
(-0.0180294 -0.0134961 0.0025955 -0.0215587 -0.318154 0.0395881)
(-0.0176545 -0.0100776 -0.105385 -0.0192328 -0.462623 0.0368873)
(-0.0178417 -0.0102779 -0.0987963 -0.0188495 -0.433687 0.0366912)
(-0.0182623 -0.0103742 -0.0910526 -0.0190603 -0.399455 0.0373226)
(-0.0187487 -0.0108015 -0.0820557 -0.0202577 -0.359251 0.0390063)
(-0.0203019 -0.0120671 -0.0711399 -0.0219336 -0.309651 0.0422355)
(-0.0193594 -0.00562762 -0.207679 -0.0219705 -0.42781 0.04133)
(-0.0186726 -0.0049363 -0.194746 -0.0224376 -0.400861 0.0411102)
(-0.0184497 -0.00420635 -0.179568 -0.0232011 -0.369015 0.0416508)
(-0.0187099 -0.00404093 -0.161942 -0.0244404 -0.331563 0.0431503)
(-0.0199098 -0.00403174 -0.140553 -0.0261086 -0.285154 0.0460184)
(-0.000587767 -0.0115858 -0.297943 -0.0388913 -0.369532 0.0394791)
(-0.00287398 -0.0121569 -0.279361 -0.0364028 -0.346141 0.0392768)
(-0.00512871 -0.0129021 -0.257453 -0.0347659 -0.31834 0.0398946)
(-0.00854918 -0.0150935 -0.23195 -0.0329789 -0.285481 0.0415281)
(-0.0155702 -0.0158432 -0.200616 -0.0291559 -0.243889 0.0447261)
(0.00731107 0.0104093 -0.327445 -0.0309024 0.404984 0.0235914)
(0.00684388 0.0106957 -0.307419 -0.0304125 0.379751 0.0235686)
(0.00636126 0.0108856 -0.289538 -0.0293631 0.356955 0.0230019)
(0.00628588 0.0113717 -0.264665 -0.0278715 0.324722 0.0215856)
(0.00626163 0.0105546 -0.23526 -0.0250166 0.285179 0.018755)
(0.00825215 0.00311268 -0.228711 -0.040208 0.466889 0.0319558)
(0.00801161 0.00349915 -0.214769 -0.0399179 0.437812 0.0319063)
(0.00787148 0.00367615 -0.20231 -0.0391079 0.411629 0.0312365)
(0.00794742 0.00429348 -0.184985 -0.037541 0.374817 0.0295936)
(0.00774604 0.00345801 -0.164714 -0.0340818 0.330874 0.0263358)
(0.00366147 -0.00520648 -0.117727 -0.0402894 0.503781 0.0366279)
(0.00347756 -0.0047038 -0.110646 -0.0400623 0.472612 0.0365847)
(0.00327962 -0.00431663 -0.104315 -0.0392268 0.44451 0.0359472)
(0.00305796 -0.00349066 -0.0954966 -0.0374027 0.405012 0.0343447)
(0.00255886 -0.00312854 -0.0851163 -0.0337076 0.357701 0.0311487)
(-0.00196014 -0.0109627 -0.000804796 -0.0418657 0.518255 0.0438259)
(-0.00183902 -0.0105704 -0.000814215 -0.0419103 0.486016 0.0437493)
(-0.0017351 -0.0101211 -0.000828947 -0.0412651 0.456978 0.0430002)
(-0.00122287 -0.00928681 -0.000854623 -0.0399631 0.416295 0.0411859)
(-0.000851716 -0.00821427 -0.000891305 -0.0367651 0.367731 0.0376168)
(-0.00646311 -0.0158206 0.116267 -0.0382809 0.504229 0.044744)
(-0.00637659 -0.015781 0.109162 -0.0383065 0.473033 0.0446831)
(-0.00624386 -0.0155199 0.10279 -0.0377443 0.444882 0.0439881)
(-0.00579261 -0.0151681 0.0939096 -0.0364466 0.405335 0.0422393)
(-0.00557451 -0.0146416 0.0834444 -0.0331996 0.35797 0.0387741)
(-0.0116612 -0.0188115 0.227408 -0.0364001 0.467618 0.0480613)
(-0.0112346 -0.0185868 0.213436 -0.0367381 0.438511 0.0479727)
(-0.0107674 -0.0180005 0.20092 -0.0364266 0.412259 0.047194)