/*--------------------------------*- C++ -*----------------------------------*\
| =========                 |                                                 |
| \\      /  F ield         | foam-extend: Open Source CFD                    |
|  \\    /   O peration     | Version:  3.0                                   |
|   \\  /    A nd           | Web:         http://www.extend-project.de       |
|    \\/     M anipulation  |                                                 |
\*---------------------------------------------------------------------------*/
FoamFile
{
    version     2.0;
    format      ascii;
    class       volVectorField;
    location    "41";
    object      u;
}
// * * * * * * * * * * * * * * * * * * * * * * * * * * * * * * * * * * * * * //

dimensions      [0 0 0 0 0 0 0];

internalField   nonuniform List<vector> 
7680
(
(0.119666 -0.026727 4.35056e-17)
(0.155941 -0.0215347 4.96854e-17)
(0.333706 -0.0190721 -4.35591e-17)
(0.349713 -0.0146066 3.92386e-17)
(0.487028 -0.0131668 -2.28279e-17)
(0.492188 -0.00954684 2.19377e-17)
(0.600677 -0.00849542 -1.05426e-17)
(0.599156 -0.00559644 -8.89867e-18)
(0.687146 -0.00469675 -1.9738e-17)
(0.681005 -0.0023523 -1.37322e-17)
(0.754252 -0.00153054 -2.22382e-17)
(0.744701 0.000407211 2.80456e-17)
(0.807145 0.00118177 -3.71891e-17)
(0.79498 0.0028229 3.11378e-17)
(0.849367 0.00357336 -1.47613e-17)
(0.835118 0.00499537 4.33604e-17)
(0.883422 0.00574057 -3.56643e-17)
(0.867428 0.00699906 6.04701e-17)
(0.911114 0.00775035 -4.13329e-17)
(0.893582 0.00888807 4.8213e-17)
(0.933764 0.00964835 -4.59973e-17)
(0.914805 0.0107018 4.85333e-17)
(0.952347 0.0114677 -4.08203e-17)
(0.932014 0.0124712 5.7999e-17)
(0.967599 0.0132362 -4.26882e-17)
(0.945901 0.0142213 4.31279e-17)
(0.980075 0.0149798 -2.16204e-17)
(0.957002 0.0159662 3.01952e-17)
(0.990217 0.0167185 -2.21616e-17)
(0.965733 0.0176929 1.58638e-17)
(0.998391 0.0184552 -1.28142e-17)
(0.972424 0.0193337 1.0653e-17)
(1.00489 0.0201349 -8.32598e-18)
(0.9774 0.0208262 4.90459e-18)
(1.00968 0.0213902 8.78243e-18)
(0.981573 0.0228045 -6.104e-18)
(1.01103 0.0210952 2.02158e-17)
(0.988749 0.0272037 -1.86258e-17)
(1.00407 0.0193006 2.22801e-17)
(1.00377 0.0489368 -1.86434e-17)
(0.123752 -0.0918566 -4.97093e-17)
(0.159357 -0.0770158 -7.15576e-17)
(0.33702 -0.0706857 5.08847e-17)
(0.352466 -0.058116 -4.77767e-17)
(0.489793 -0.0544875 -3.16357e-18)
(0.494493 -0.0443728 2.27341e-18)
(0.603015 -0.0418429 1.41687e-17)
(0.601123 -0.0339301 3.43347e-17)
(0.689151 -0.0318913 4.62712e-17)
(0.682704 -0.0256835 5.13738e-17)
(0.75599 -0.0239223 1.82683e-17)
(0.74618 -0.0189691 -4.60471e-18)
(0.808658 -0.017397 2.05893e-17)
(0.796265 -0.0133676 -9.7617e-18)
(0.850678 -0.0119255 -2.71606e-17)
(0.836222 -0.00859474 -4.33122e-17)
(0.884539 -0.00723153 4.55897e-17)
(0.868356 -0.00444502 -9.84903e-17)
(0.912038 -0.00311814 7.8735e-17)
(0.894329 -0.000764169 -8.9402e-17)
(0.934484 0.000557697 6.28263e-17)
(0.915361 0.00256416 -7.36741e-17)
(0.952847 0.00389974 4.73776e-17)
(0.932357 0.00562425 -8.89973e-17)
(0.967844 0.00698115 4.14334e-17)
(0.945997 0.00847058 -5.06644e-17)
(0.980009 0.00985264 -4.87843e-19)
(0.956794 0.0111286 -2.69386e-17)
(0.989737 0.0125556 -8.35476e-18)
(0.96513 0.013601 1.81927e-18)
(0.997318 0.0151438 -6.46816e-18)
(0.971324 0.0159169 6.79321e-18)
(1.00295 0.0176582 3.51437e-19)
(0.975822 0.0184853 -7.50643e-18)
(1.00656 0.0194211 -3.88553e-18)
(0.979983 0.0238462 -1.16238e-17)
(1.00706 0.0161469 1.62063e-17)
(0.987116 0.0379995 -3.41697e-18)
(1.00321 0.00228394 -9.52386e-18)
(0.996532 0.0657726 3.1298e-17)
(0.132079 -0.156753 4.95458e-17)
(0.166391 -0.131714 6.34539e-17)
(0.34337 -0.121554 -9.70209e-17)
(0.357738 -0.10073 1.05495e-16)
(0.494609 -0.0949868 -2.22286e-17)
(0.498471 -0.0785087 -8.84635e-18)
(0.60666 -0.0746043 -6.07852e-17)
(0.604133 -0.0618283 -1.36571e-17)
(0.69189 -0.0587372 -9.45788e-17)
(0.684965 -0.0488131 -7.02549e-17)
(0.758016 -0.0461778 -3.47067e-17)
(0.747845 -0.0383604 1.34188e-18)
(0.810121 -0.0360296 -1.15696e-17)
(0.797455 -0.0297747 -2.55009e-18)
(0.851695 -0.0276419 6.9319e-17)
(0.837031 -0.0225777 6.11416e-17)
(0.885203 -0.0205517 -4.48068e-17)
(0.868859 -0.0164218 1.33438e-16)
(0.912422 -0.0144306 -1.21195e-16)
(0.894584 -0.011048 1.11426e-16)
(0.934652 -0.00904158 -7.45462e-17)
(0.915417 -0.00626011 1.15568e-16)
(0.952854 -0.00420772 -8.26412e-17)
(0.932257 -0.00190429 1.38237e-16)
(0.967745 0.000209959 -5.02525e-17)
(0.945783 0.00214269 9.85646e-17)
(0.979861 0.00432597 -1.55634e-17)
(0.956504 0.00597398 5.62642e-17)
(0.9896 0.0082311 8.95697e-18)
(0.964809 0.00963863 5.68039e-18)
(0.997256 0.0119539 -4.65098e-19)
(0.971017 0.0131372 1.37297e-17)
(1.00298 0.0152342 -3.0171e-19)
(0.975578 0.0167156 5.83462e-18)
(1.00636 0.0165179 5.37495e-18)
(0.980081 0.0223837 -9.53612e-18)
(1.00469 0.0120792 1.32382e-17)
(0.989271 0.0324767 -1.99222e-17)
(0.994476 0.006359 2.67049e-17)
(1.00125 0.0526322 -3.02536e-17)
(0.144652 -0.220781 -1.64217e-17)
(0.176996 -0.186196 -1.12832e-16)
(0.353356 -0.172216 2.54527e-16)
(0.366104 -0.143423 -2.42267e-16)
(0.502692 -0.135521 8.28937e-17)
(0.505257 -0.112672 2.25372e-17)
(0.613281 -0.10731 9.26333e-17)
(0.609734 -0.089616 2.43197e-17)
(0.697374 -0.0854025 5.47686e-17)
(0.689645 -0.0716905 5.40031e-17)
(0.762606 -0.0681304 9.74798e-17)
(0.751787 -0.0573615 -4.07663e-17)
(0.813987 -0.0542459 1.61257e-17)
(0.800785 -0.0456604 -4.34167e-18)
(0.854955 -0.0428456 -8.22427e-17)
(0.839843 -0.0359268 -1.84609e-17)
(0.887944 -0.0332882 3.83612e-18)
(0.871223 -0.0276829 -1.42542e-16)
(0.914709 -0.0251169 1.5995e-16)
(0.896553 -0.0205721 -1.48582e-16)
(0.936536 -0.0179998 8.59262e-17)
(0.917031 -0.0143247 -1.35881e-16)
(0.954373 -0.0116925 7.73489e-17)
(0.933545 -0.00873771 -9.86952e-17)
(0.968929 -0.00601312 -1.62981e-17)
(0.946761 -0.0036617 -6.22747e-17)
(0.980737 -0.000823607 -4.08908e-17)
(0.957186 0.00100588 -1.40861e-17)
(0.990196 0.00398837 -6.05232e-17)
(0.965202 0.00533802 2.83451e-17)
(0.997602 0.0085105 -1.70783e-17)
(0.971101 0.00950509 -1.23084e-18)
(1.00312 0.0125848 -5.64916e-17)
(0.975188 0.0146204 1.0673e-16)
(1.00653 0.0140653 -8.51947e-17)
(0.978403 0.0259569 4.12412e-17)
(1.00616 0.00492014 2.07498e-17)
(0.984197 0.0499043 -2.91529e-17)
(0.99954 -0.0134871 1.74747e-17)
(0.992914 0.066196 -3.5916e-17)
(0.161367 -0.284026 -1.83424e-17)
(0.191131 -0.23955 2.42181e-17)
(0.366331 -0.221864 -4.08911e-16)
(0.376941 -0.18503 3.43524e-16)
(0.51281 -0.175077 -1.03965e-16)
(0.513708 -0.14602 -8.04764e-17)
(0.621226 -0.139322 -1.47282e-16)
(0.61641 -0.116884 1.82165e-17)
(0.703647 -0.111647 -3.34707e-17)
(0.694954 -0.0943098 -3.13657e-17)
(0.767574 -0.0898981 -1.13081e-16)
(0.756018 -0.0763326 2.36166e-17)
(0.817924 -0.0724761 4.95231e-17)
(0.804156 -0.0617145 -2.83734e-17)
(0.85807 -0.0582247 1.2177e-16)
(0.842518 -0.0496087 -7.04904e-17)
(0.890392 -0.0463231 7.33711e-17)
(0.873326 -0.0394012 3.06658e-17)
(0.916611 -0.0361868 -4.84135e-17)
(0.898179 -0.0306338 5.52993e-17)
(0.937983 -0.0273912 5.73924e-18)
(0.91825 -0.022958 1.44225e-16)
(0.95544 -0.0196184 -7.69794e-17)
(0.934409 -0.0161025 7.06934e-17)
(0.969674 -0.0126217 5.0221e-17)
(0.947304 -0.00985345 7.23241e-17)
(0.981199 -0.00620244 1.39874e-17)
(0.957415 -0.00404799 2.24939e-17)
(0.990396 -0.000202025 1.04374e-16)
(0.965088 0.00142385 -3.01592e-17)
(0.997553 0.00544688 4.31134e-17)
(0.970579 0.0066894 1.6808e-17)
(1.00295 0.0103355 -3.06021e-17)
(0.974087 0.0126164 2.63473e-17)
(1.00707 0.0117475 1.09892e-17)
(0.97582 0.0234597 -3.09923e-17)
(1.01065 0.00327771 7.49037e-18)
(0.976872 0.040975 -3.76561e-17)
(1.01286 -0.00348078 4.3963e-17)
(0.977677 0.0481005 3.61786e-17)
(0.182189 -0.345859 8.13197e-17)
(0.208733 -0.292118 1.24148e-16)
(0.3828 -0.270724 4.58416e-16)
(0.390757 -0.226193 -2.58411e-16)
(0.526052 -0.214146 8.63102e-17)
(0.524839 -0.178948 1.11874e-16)
(0.631997 -0.17084 2.02197e-16)
(0.625536 -0.143663 -6.77364e-17)
(0.712506 -0.13734 2.54442e-18)
(0.702527 -0.116355 4.5301e-18)
(0.774931 -0.11105 2.57278e-16)
(0.762354 -0.0946461 -1.30155e-16)
(0.824076 -0.0900316 8.40792e-17)
(0.809483 -0.0770342 -1.31189e-16)
(0.863233 -0.0728838 -3.74388e-17)
(0.847006 -0.0624946 -9.39588e-17)
(0.894728 -0.058611 1.41152e-16)
(0.877109 -0.0502859 -1.44885e-16)
(0.920245 -0.046504 1.33968e-16)
(0.901362 -0.0398555 -7.7764e-17)
(0.941019 -0.0360469 1.43813e-17)
(0.920918 -0.0307852 -1.55368e-16)
(0.957965 -0.0268559 3.70564e-17)
(0.936636 -0.0227556 2.3235e-17)
(0.971777 -0.0186376 -1.41088e-16)
(0.94916 -0.0155225 2.90312e-17)
(0.982985 -0.0111567 -8.94709e-17)
(0.958983 -0.00890424 9.29423e-18)
(0.992011 -0.00421154 -1.49107e-16)
(0.966473 -0.00276495 1.25474e-17)
(0.999217 0.0023517 -1.42957e-16)
(0.971864 0.00311093 7.22395e-17)
(1.00499 0.00831318 -1.18999e-16)
(0.975062 0.00989754 1.01319e-16)
(1.01006 0.0110729 -1.73103e-16)
(0.975034 0.022888 8.22023e-17)
(1.01593 0.00237444 1.29847e-17)
(0.971273 0.0466839 -5.19825e-17)
(1.02061 -0.0125536 -8.30962e-18)
(0.970216 0.0592507 -6.6645e-17)
(0.207012 -0.406367 -9.4385e-17)
(0.229725 -0.343205 -2.65032e-16)
(0.402175 -0.318288 -3.46772e-16)
(0.406972 -0.266069 8.06489e-17)
(0.541295 -0.25207 -6.16743e-17)
(0.537615 -0.210927 3.42635e-17)
(0.644102 -0.201545 -2.31108e-16)
(0.635757 -0.169824 1.4396e-16)
(0.722198 -0.162524 3.27976e-17)
(0.710786 -0.138067 -8.56799e-17)
(0.782746 -0.131946 -2.22868e-16)
(0.769068 -0.112863 6.54715e-17)
(0.830407 -0.107538 1.99655e-17)
(0.814961 -0.0924551 1.79638e-16)
(0.868371 -0.0876577 4.49231e-17)
(0.851479 -0.075642 4.91163e-18)
(0.898892 -0.0711395 -4.28532e-17)
(0.88075 -0.0615546 -1.76714e-18)
(0.923599 -0.0571532 -6.8675e-17)
(0.904301 -0.0495451 -8.09684e-18)
(0.943685 -0.0450942 -2.42035e-17)
(0.923253 -0.0391222 6.70737e-17)
(0.960038 -0.0345101 2.61302e-17)
(0.938434 -0.0299081 -2.49217e-17)
(0.973323 -0.0250513 7.69541e-17)
(0.950462 -0.0216131 -5.82199e-17)
(0.984038 -0.0164371 1.09228e-16)
(0.959791 -0.0140277 -5.52212e-17)
(0.99257 -0.00843481 2.16412e-16)
(0.966746 -0.00702414 -3.91019e-17)
(0.999243 -0.000889386 2.61526e-16)
(0.971521 -0.000476791 -6.30085e-17)
(1.00447 0.00594501 6.7001e-17)
(0.973995 0.00647276 -6.95195e-18)
(1.00943 0.00967751 1.06839e-16)
(0.972753 0.0180694 -6.8382e-17)
(1.01744 0.00394224 6.92866e-17)
(0.965008 0.036525 -7.83396e-17)
(1.0296 -0.00165942 1.88133e-16)
(0.953221 0.0420307 -2.16773e-17)
(0.235724 -0.464948 2.20976e-16)
(0.254019 -0.392968 1.51541e-16)
(0.424845 -0.364524 4.04928e-16)
(0.425999 -0.30501 1.60615e-16)
(0.559469 -0.289021 1.77497e-17)
(0.552898 -0.242069 -2.56509e-16)
(0.658838 -0.231348 2.30998e-16)
(0.64825 -0.195148 -2.46415e-16)
(0.734278 -0.186818 3.72522e-17)
(0.721122 -0.158915 -2.42241e-17)
(0.792743 -0.151948 2.78278e-16)
(0.777692 -0.130186 -2.90581e-16)
(0.838743 -0.124143 1.23758e-16)
(0.822196 -0.106953 -3.57092e-16)
(0.875353 -0.101528 5.18983e-17)
(0.857573 -0.0878451 -1.08241e-16)
(0.904752 -0.0827697 1.30451e-16)
(0.885893 -0.0718709 -1.31742e-16)
(0.928518 -0.0669199 1.31561e-16)
(0.908645 -0.0582929 1.12281e-17)
(0.94781 -0.053287 -2.40733e-17)
(0.926921 -0.0465537 5.39568e-19)
(0.963494 -0.0413535 -6.12981e-17)
(0.941533 -0.0362267 9.73646e-17)
(0.976229 -0.0307179 -8.04628e-17)
(0.953092 -0.0269852 3.02794e-17)
(0.986526 -0.0210495 -1.05778e-16)
(0.96206 -0.0185882 1.19151e-16)
(0.994799 -0.0120526 -3.729e-16)
(0.968773 -0.0108733 4.81931e-17)
(1.00141 -0.00347377 -2.51115e-16)
(0.973413 -0.00367691 7.56514e-17)
(1.00682 0.00462349 -3.28118e-17)
(0.975708 0.00377906 8.84298e-19)
(1.0122 0.0103396 -9.10126e-17)
(0.973601 0.0150659 7.97741e-17)
(1.02118 0.00792722 7.98062e-18)
(0.962846 0.032431 -4.16715e-17)
(1.03521 0.00287671 1.21039e-17)
(0.946906 0.0433762 -2.37575e-16)
(0.268225 -0.521683 -2.4414e-16)
(0.28151 -0.440909 -2.03575e-16)
(0.450284 -0.409178 -3.8131e-16)
(0.447309 -0.342462 -5.64096e-16)
(0.579571 -0.32465 -9.27939e-17)
(0.569776 -0.272121 4.26211e-16)
(0.674889 -0.260209 -1.78133e-16)
(0.661837 -0.219745 3.00101e-16)
(0.747218 -0.2105 5.3306e-17)
(0.732182 -0.179337 -1.18147e-16)
(0.803261 -0.171606 -9.1802e-17)
(0.786763 -0.14733 2.17621e-16)
(0.847344 -0.14062 -2.8155e-17)
(0.829673 -0.121474 2.44256e-16)
(0.88241 -0.115441 1.86123e-16)
(0.86375 -0.100235 -1.17024e-16)
(0.910542 -0.0945802 1.61708e-16)
(0.890993 -0.0825046 -1.05075e-16)
(0.933247 -0.0769745 1.15499e-16)
(0.912836 -0.0674583 -6.04283e-17)
(0.951634 -0.0618511 -9.40356e-18)
(0.930327 -0.0544737 3.09585e-17)
(0.966528 -0.048631 -5.22607e-17)
(0.944246 -0.0430775 -3.09091e-17)
(0.978554 -0.0368661 2.23858e-17)
(0.955174 -0.0329148 4.33975e-17)
(0.98819 -0.0261925 -6.90595e-17)
(0.963546 -0.0237396 2.68042e-16)
(0.995816 -0.0162913 1.73539e-17)
(0.969677 -0.0154193 1.9201e-16)
(1.00176 -0.00688676 7.23197e-17)
(0.973747 -0.00787808 -5.14216e-17)
(1.00646 0.00206443 6.95218e-17)
(0.975525 -0.000631332 -8.7941e-17)
(1.01112 0.00938114 8.62303e-17)
(0.972974 0.00872211 -7.77667e-17)
(1.01969 0.011795 7.16425e-17)
(0.960835 0.0208723 -1.90162e-16)
(1.03572 0.0151952 3.3994e-16)
(0.938165 0.0294381 -9.18192e-17)
(0.304336 -0.57601 5.25063e-16)
(0.312073 -0.487021 2.64937e-16)
(0.478765 -0.452011 4.971e-16)
(0.471218 -0.378528 8.43113e-16)
(0.602365 -0.358864 2.96208e-16)
(0.588948 -0.300957 -4.32459e-16)
(0.693338 -0.287801 8.32412e-17)
(0.677482 -0.243192 -3.65896e-16)
(0.762313 -0.232992 -1.73703e-16)
(0.745105 -0.198643 3.17211e-16)
(0.815732 -0.190127 4.37656e-17)
(0.797529 -0.163374 -1.13046e-16)
(0.857725 -0.155999 1.09074e-16)
(0.838698 -0.134906 -3.24113e-16)
(0.891095 -0.12829 -5.3823e-17)
(0.871349 -0.111546 3.15427e-17)
(0.917826 -0.105355 -1.46576e-16)
(0.897408 -0.0920708 4.35875e-19)
(0.939358 -0.0860229 -9.01964e-17)
(0.918257 -0.0755726 8.99979e-17)
(0.956753 -0.0694379 2.83705e-17)
(0.93491 -0.0613664 4.35379e-17)
(0.970806 -0.0549595 1.57434e-17)
(0.948118 -0.0489316 1.11812e-16)
(0.982119 -0.0420877 -1.94332e-16)
(0.958446 -0.0378744 2.55489e-16)
(0.991161 -0.0304065 -1.81946e-16)
(0.966318 -0.0279154 1.09998e-17)
(0.9983 -0.0195358 -2.98886e-16)
(0.97204 -0.0188904 1.45016e-16)
(1.00384 -0.0091173 -2.46186e-16)
(0.975768 -0.0107154 2.35346e-16)
(1.00814 0.00104702 -3.00491e-16)
(0.977249 -0.00312116 3.52425e-16)
(1.01216 0.0103779 -3.21463e-16)
(0.974563 0.00502851 2.12468e-16)
(1.01936 0.0173577 -1.36235e-16)
(0.962416 0.0129509 4.99034e-17)
(1.03394 0.025953 -4.77465e-17)
(0.937239 0.0234401 -2.97127e-16)
(0.343957 -0.628002 -8.97047e-16)
(0.345595 -0.53099 -5.32767e-16)
(0.509832 -0.492981 -4.45444e-16)
(0.497259 -0.412905 -1.00105e-15)
(0.626976 -0.391579 -3.62163e-16)
(0.609634 -0.328559 2.22291e-16)
(0.713052 -0.314314 -8.04434e-17)
(0.694193 -0.265794 4.64635e-16)
(0.778267 -0.254758 2.5504e-16)
(0.758766 -0.217419 -3.54581e-16)
(0.82876 -0.208204 -1.45589e-16)
(0.808789 -0.179146 -1.18058e-16)
(0.868435 -0.17116 -2.33488e-17)
(0.848031 -0.148275 7.81348e-17)
(0.899934 -0.141104 1.0785e-16)
(0.879111 -0.122966 -7.6799e-17)
(0.925127 -0.116247 2.12397e-16)
(0.903867 -0.101889 -5.29245e-17)
(0.94537 -0.0953134 2.75743e-16)
(0.923619 -0.0840582 -2.88482e-16)
(0.961661 -0.0773758 5.47803e-17)
(0.939328 -0.0687322 -1.21795e-16)
(0.974748 -0.0617387 -2.57929e-17)
(0.951709 -0.0553517 -1.22754e-17)
(0.985195 -0.0478625 -1.13403e-16)
(0.9613 -0.0435024 1.20213e-16)
(0.993435 -0.0353021 -2.11842e-16)
(0.968506 -0.0329026 3.54469e-16)
(0.999806 -0.0236512 -1.36555e-16)
(0.973632 -0.0234064 4.66887e-18)
(1.00458 -0.0125087 5.32676e-17)
(0.976854 -0.0149722 -9.46948e-18)
(1.00807 -0.00152072 6.04638e-18)
(0.978014 -0.00752783 -1.70533e-17)
(1.01101 0.00952303 3.34036e-17)
(0.97559 -0.00101033 -1.1454e-17)
(1.01608 0.0215685 1.37509e-16)
(0.964687 0.00228673 -1.63159e-16)
(1.02818 0.0380356 3.18304e-16)
(0.937698 0.0123734 -2.46068e-17)
(0.386847 -0.677145 8.0446e-16)
(0.381897 -0.572669 5.36949e-16)
(0.543633 -0.531688 4.10723e-16)
(0.525636 -0.445489 8.62523e-16)
(0.654 -0.422482 2.18339e-16)
(0.632366 -0.354606 2.33891e-16)
(0.734901 -0.339235 -6.29764e-17)
(0.712724 -0.286975 -2.06317e-16)
(0.796124 -0.275074 -3.62564e-16)
(0.774058 -0.23486 3.96537e-16)
(0.843495 -0.224935 1.78615e-17)
(0.821519 -0.193644 4.38851e-16)
(0.880688 -0.185056 -2.76064e-17)
(0.858696 -0.160416 1.12798e-16)
(0.910177 -0.152716 4.90832e-17)
(0.888086 -0.133192 1.5126e-16)
(0.93371 -0.125986 -2.55438e-16)
(0.911442 -0.110539 1.25668e-16)
(0.952561 -0.103492 -2.49913e-16)
(0.930017 -0.091395 3.74324e-16)
(0.96767 -0.0842316 -1.08757e-16)
(0.944727 -0.0749607 1.18469e-16)
(0.97974 -0.0674534 2.08403e-17)
(0.956252 -0.0606331 1.93411e-16)
(0.9893 -0.0525715 -1.83718e-16)
(0.965101 -0.047962 1.8325e-16)
(0.996751 -0.0390963 -1.39309e-16)
(0.971659 -0.0366373 -1.1227e-17)
(1.00239 -0.0265747 -1.40332e-16)
(0.976209 -0.0264914 1.70699e-16)
(1.00644 -0.01455 -1.66467e-16)
(0.978912 -0.0174882 3.32769e-17)
(1.00907 -0.00256086 -3.29054e-17)
(0.979681 -0.00975634 2.0979e-16)
(1.01069 0.0101155 -3.40727e-16)
(0.977573 -0.00436379 2.108e-16)
(1.01292 0.0261756 -1.9675e-16)
(0.96894 -0.00522794 1.01766e-16)
(1.02059 0.0482667 -2.39419e-16)
(0.942969 0.0049364 -1.84348e-16)
(0.432906 -0.723505 -2.8197e-16)
(0.420877 -0.61191 -3.14706e-16)
(0.579793 -0.568267 -3.94223e-16)
(0.555962 -0.476195 -5.75996e-16)
(0.682694 -0.451715 -3.99682e-16)
(0.656501 -0.379277 -4.3094e-16)
(0.757933 -0.362939 4.46297e-17)
(0.732266 -0.307189 1.23883e-16)
(0.814809 -0.294545 4.39973e-17)
(0.790076 -0.251663 -1.8644e-17)
(0.858797 -0.241118 -1.22647e-16)
(0.834761 -0.20777 -5.31505e-16)
(0.893309 -0.19864 -1.10865e-16)
(0.869712 -0.172402 -3.74123e-16)
(0.920634 -0.16421 -5.08179e-17)
(0.897288 -0.143445 -4.33619e-16)
(0.942386 -0.13577 3.67168e-16)
(0.91914 -0.11937 -4.10637e-16)
(0.959744 -0.111857 3.51797e-16)
(0.93645 -0.0990479 -5.62523e-16)
(0.973575 -0.0914013 1.94079e-16)
(0.950077 -0.0816293 -1.78678e-16)
(0.984526 -0.073606 -3.26735e-17)
(0.960659 -0.0664771 -2.04462e-17)
(0.993085 -0.0578491 -7.44052e-17)
(0.968678 -0.0531214 2.69079e-16)
(0.999613 -0.0436141 -1.91104e-16)
(0.974503 -0.0412426 2.27934e-16)
(1.00437 -0.0304181 6.2347e-17)
(0.978418 -0.0306714 -5.68902e-17)
(1.00755 -0.0177567 1.47448e-16)
(0.980609 -0.0213714 -2.03232e-17)
(1.00927 -0.00503399 1.08972e-18)
(0.981103 -0.0135613 -1.21774e-16)
(1.00957 0.00905348 3.46031e-16)
(0.979568 -0.00903298 -3.33321e-16)
(1.00886 0.0289647 3.29082e-16)
(0.973744 -0.0128745 -2.8272e-16)
(1.01147 0.0568834 3.70531e-16)
(0.949793 -0.00259039 2.65664e-17)
(0.481841 -0.766623 1.57759e-16)
(0.462291 -0.648448 2.64601e-16)
(0.618333 -0.602193 3.11975e-16)
(0.588316 -0.50475 4.59541e-16)
(0.713483 -0.47879 5.50998e-16)
(0.682403 -0.402101 4.12033e-16)
(0.782808 -0.384773 3.31276e-17)
(0.753368 -0.32575 2.00877e-16)
(0.835125 -0.312347 -1.9332e-17)
(0.807479 -0.26695 4.60265e-17)
(0.87555 -0.255781 1.21836e-16)
(0.849241 -0.22048 5.23254e-16)
(0.907231 -0.210821 3.79969e-16)
(0.881838 -0.183048 5.19146e-16)
(0.932262 -0.174392 4.77914e-17)
(0.907488 -0.152413 6.14981e-16)
(0.952122 -0.144313 -4.94964e-16)
(0.927743 -0.126957 6.49828e-16)
(0.96789 -0.119032 -2.81815e-16)
(0.94371 -0.105481 4.80182e-16)
(0.980364 -0.0974176 -1.39595e-16)
(0.95619 -0.087086 1.60326e-16)
(0.990136 -0.0786226 -9.80588e-17)
(0.965779 -0.0710952 8.4353e-17)
(0.997647 -0.0619877 2.35849e-17)
(0.972925 -0.0570076 -2.98401e-16)
(1.00322 -0.0469625 2.42365e-16)
(0.97797 -0.0444809 -3.02237e-16)
(1.00706 -0.0330338 5.80604e-17)
(0.981181 -0.033331 -1.96428e-16)
(1.00928 -0.0196655 6.98591e-17)
(0.982744 -0.0235262 -2.15006e-16)
(1.00992 -0.00620657 1.37166e-16)
(0.982801 -0.0154007 1.46092e-17)
(1.0087 0.00893153 -1.65049e-16)
(0.981732 -0.0113986 2.84228e-16)
(1.00483 0.0312563 -2.51028e-16)
(0.979105 -0.0176142 2.02996e-16)
(1.00179 0.0627204 -1.48696e-16)
(0.958835 -0.00753164 -2.26132e-16)
(0.533544 -0.806559 -6.03619e-16)
(0.506064 -0.682286 -6.22732e-17)
(0.658965 -0.633749 -4.46598e-16)
(0.622406 -0.531252 -3.2494e-16)
(0.745767 -0.504033 -5.26163e-16)
(0.70957 -0.423411 -3.63045e-16)
(0.808757 -0.405256 -2.71434e-16)
(0.775398 -0.343224 -1.30989e-16)
(0.856211 -0.329185 -5.52298e-16)
(0.825568 -0.281489 2.6128e-16)
(0.892851 -0.269788 -3.90546e-16)
(0.864228 -0.232715 -3.09185e-16)
(0.921534 -0.222592 -7.7133e-16)
(0.894337 -0.193444 -5.04845e-16)
(0.944145 -0.184366 -2.23405e-16)
(0.917959 -0.16132 -3.44057e-16)
(0.962014 -0.152819 4.12091e-16)
(0.936537 -0.134645 -6.17618e-16)
(0.976113 -0.126321 4.50019e-16)
(0.951094 -0.112159 -5.84952e-16)
(0.98716 -0.103686 3.18712e-16)
(0.962371 -0.0929224 -2.78094e-16)
(0.995688 -0.0840243 1.97641e-16)
(0.970917 -0.0762262 -1.04529e-16)
(1.00209 -0.0666471 9.09693e-17)
(0.977149 -0.0615479 9.35445e-17)
(1.00663 -0.0509793 3.65492e-17)
(0.981391 -0.0485292 2.55109e-17)
(1.00951 -0.0364809 2.16715e-16)
(0.983907 -0.0369708 -2.85097e-17)
(1.01079 -0.0225785 1.91524e-16)
(0.984904 -0.0268173 -1.08583e-16)
(1.01042 -0.00854473 2.23383e-16)
(0.984621 -0.0183979 -1.98731e-16)
(1.00786 0.00747095 2.10059e-16)
(0.984028 -0.0143974 -2.43879e-16)
(1.00112 0.0317213 1.4911e-16)
(0.984377 -0.0213715 -1.98465e-16)
(0.992512 0.0659308 7.72157e-17)
(0.9681 -0.0108354 -2.48502e-17)
(0.587686 -0.842913 7.73143e-16)
(0.551874 -0.713064 7.74416e-17)
(0.701582 -0.662322 3.23716e-16)
(0.658181 -0.555299 5.08907e-16)
(0.779793 -0.526827 3.45276e-16)
(0.738198 -0.442631 5.80639e-16)
(0.836234 -0.423638 1.51867e-16)
(0.798712 -0.358856 3.24155e-16)
(0.878642 -0.344175 4.57488e-16)
(0.844789 -0.294365 -8.03825e-17)
(0.911341 -0.282139 1.94473e-16)
(0.880215 -0.243423 4.39198e-16)
(0.936892 -0.232856 7.25911e-16)
(0.90772 -0.202416 6.34529e-16)
(0.956966 -0.192949 2.46377e-16)
(0.929213 -0.168881 1.59765e-16)
(0.972741 -0.160025 -4.43896e-16)
(0.946024 -0.141042 5.37491e-16)
(0.985079 -0.132378 -4.44538e-16)
(0.959091 -0.117583 2.7306e-16)
(0.994619 -0.108768 -5.25858e-18)
(0.969093 -0.0975182 3.28571e-17)
(1.00183 -0.0882686 6.86623e-17)
(0.976529 -0.0801071 -1.27084e-16)
(1.00705 -0.0701589 1.05357e-16)
(0.981776 -0.0648005 -3.40157e-16)
(1.01051 -0.0538409 2.07874e-16)
(0.985134 -0.0512211 -3.49446e-16)
(1.01235 -0.0387577 5.5117e-17)
(0.986852 -0.0391585 -2.23569e-16)
(1.01257 -0.0243235 9.96948e-17)
(0.987149 -0.0285556 -1.97598e-16)
(1.01107 -0.00980879 1.10774e-16)
(0.986367 -0.0197595 -3.62514e-16)
(1.00712 0.00664732 2.74852e-16)
(0.986047 -0.0155622 -1.21966e-16)
(0.997787 0.0314188 -6.82535e-19)
(0.989158 -0.0226843 2.17701e-16)
(0.984092 0.0662793 -1.21992e-16)
(0.97748 -0.012073 2.12931e-16)
(0.644147 -0.875744 -8.13649e-16)
(0.599694 -0.740917 1.97516e-16)
(0.745989 -0.68831 -6.69693e-16)
(0.695451 -0.577139 -2.64937e-16)
(0.81511 -0.547641 -6.93656e-16)
(0.767926 -0.460211 -2.64896e-16)
(0.86465 -0.440546 -1.89028e-16)
(0.822846 -0.373288 -4.30766e-17)
(0.901758 -0.35809 -7.57477e-16)
(0.86463 -0.306388 4.0046e-16)
(0.930333 -0.29373 -3.394e-16)
(0.896678 -0.253557 -3.50788e-16)
(0.95262 -0.242613 -6.25637e-16)
(0.921475 -0.211041 -7.57149e-16)
(0.97006 -0.201232 -2.85731e-16)
(0.940763 -0.176286 -1.18916e-16)
(0.983669 -0.167104 3.73474e-16)
(0.955752 -0.147448 -4.02009e-16)
(0.994195 -0.138461 2.88038e-16)
(0.96729 -0.123162 -2.39925e-16)
(1.00219 -0.114016 1.81504e-16)
(0.975988 -0.102407 -2.41022e-16)
(1.00805 -0.0928088 7.78024e-17)
(0.982297 -0.0844123 -9.32673e-17)
(1.01208 -0.0740933 2.28931e-16)
(0.986558 -0.0686085 -2.18797e-17)
(1.01445 -0.0572517 1.8619e-16)
(0.989046 -0.0545994 2.61944e-17)
(1.01526 -0.0417069 3.55182e-16)
(0.990004 -0.0421549 -2.01173e-16)
(1.01449 -0.0268539 4.33238e-16)
(0.98966 -0.0311866 -2.79463e-16)
(1.01198 -0.0119489 3.94629e-16)
(0.98841 -0.0219654 -9.08658e-17)
(1.00685 0.0048297 2.99165e-16)
(0.988149 -0.0170656 -5.0196e-16)
(0.995427 0.0296492 4.3197e-16)
(0.993219 -0.0229347 -4.74474e-16)
(0.977322 0.0642881 1.57368e-16)
(0.985666 -0.0116842 -1.48946e-16)
(0.702567 -0.904712 8.4153e-16)
(0.649111 -0.765414 1.36896e-16)
(0.791951 -0.711049 2.72508e-16)
(0.734031 -0.596274 6.58092e-16)
(0.851789 -0.565772 7.20595e-16)
(0.79879 -0.475506 3.2299e-16)
(0.894261 -0.455168 -7.92386e-17)
(0.847974 -0.385729 1.57366e-16)
(0.925925 -0.370018 5.37122e-16)
(0.885343 -0.31664 -2.84569e-16)
(0.950249 -0.303563 2.86398e-16)
(0.913902 -0.262086 3.63032e-16)
(0.969158 -0.250789 5.30074e-16)
(0.935891 -0.218192 4.94724e-16)
(0.983862 -0.208076 4.56762e-16)
(0.952884 -0.182315 3.71049e-17)
(0.995212 -0.172856 -2.05254e-16)
(0.965965 -0.152552 1.59728e-16)
(1.00384 -0.143303 -2.89302e-17)
(0.975895 -0.12749 8.07391e-19)
(1.0102 -0.118087 6.91589e-17)
(0.983213 -0.106072 -9.62388e-17)
(1.01464 -0.0962168 2.48209e-16)
(0.988317 -0.0875007 -3.86779e-16)
(1.0174 -0.0769248 1.75608e-16)
(0.991507 -0.0711846 -3.88826e-16)
(1.01861 -0.0595767 6.59561e-17)
(0.993033 -0.0567119 -2.85724e-16)
(1.01832 -0.0435878 -2.10554e-17)
(0.993126 -0.0438439 -1.69592e-16)
(1.01647 -0.028355 -1.94712e-16)
(0.992025 -0.0324863 4.10799e-17)
(1.01289 -0.0131752 -1.77244e-16)
(0.990177 -0.0228556 -2.0516e-16)
(1.00665 0.00355484 4.99564e-17)
(0.989732 -0.0172122 2.27809e-16)
(0.993731 0.0273586 -1.23153e-16)
(0.996168 -0.0215134 2.99888e-16)
(0.972332 0.0602788 -2.03683e-16)
(0.992549 -0.0101097 2.82946e-16)
(0.762815 -0.929878 -8.54586e-16)
(0.700158 -0.786802 -4.66808e-16)
(0.839371 -0.731021 -3.97336e-16)
(0.773842 -0.613073 -2.71206e-16)
(0.889531 -0.581799 -1.14208e-15)
(0.830567 -0.489051 -1.48989e-16)
(0.92465 -0.468209 -1.5387e-16)
(0.873791 -0.39687 -8.18609e-18)
(0.950667 -0.380771 -4.70018e-16)
(0.906587 -0.325941 2.16135e-16)
(0.970598 -0.312539 -5.94695e-17)
(0.931549 -0.269945 -5.79152e-16)
(0.98603 -0.258363 -2.47512e-16)
(0.950655 -0.224899 -3.96675e-16)
(0.99793 -0.214524 -2.29508e-16)
(0.965302 -0.188091 -1.1101e-16)
(1.00698 -0.178385 4.07524e-16)
(0.976447 -0.157565 -3.24981e-16)
(1.01368 -0.14807 3.54807e-16)
(0.984754 -0.131871 -4.38823e-16)
(1.01841 -0.122216 2.73426e-16)
(0.990692 -0.109922 -1.56079e-16)
(1.02143 -0.0998045 4.54957e-17)
(0.994605 -0.0908979 7.46221e-17)
(1.02294 -0.0800478 2.15022e-16)
(0.996752 -0.0741879 1.21648e-16)
(1.02302 -0.0622974 1.26165e-16)
(0.997355 -0.0593634 1.24788e-16)
(1.02168 -0.0459565 1.17897e-16)
(0.996633 -0.0461684 1.73025e-16)
(1.01883 -0.0304175 2.09076e-16)
(0.994817 -0.0344798 -4.88867e-17)
(1.01429 -0.0150084 2.0483e-16)
(0.992348 -0.0244007 2.02047e-16)
(1.00714 0.00163591 9.53206e-17)
(0.991388 -0.0176839 -4.19211e-16)
(0.99322 0.0242238 4.13524e-16)
(0.998112 -0.019574 -3.727e-16)
(0.96947 0.0550424 1.86528e-16)
(0.997399 -0.00778573 -2.51185e-16)
(0.824512 -0.950964 1.08274e-15)
(0.752334 -0.804605 9.4228e-16)
(0.88789 -0.747541 3.258e-16)
(0.814564 -0.626976 3.07931e-16)
(0.928235 -0.594964 9.24558e-16)
(0.863138 -0.500165 1.19309e-16)
(0.955889 -0.478829 2.31593e-16)
(0.900305 -0.405913 1.50011e-16)
(0.976159 -0.389437 2.10532e-16)
(0.92844 -0.333397 -1.39447e-16)
(0.991604 -0.319689 -1.63521e-17)
(0.949721 -0.276153 4.35357e-16)
(1.00347 -0.264316 3.10956e-16)
(0.965864 -0.230109 2.79919e-16)
(1.01248 -0.219515 4.0681e-17)
(0.978088 -0.19249 3.22109e-17)
(1.01915 -0.18259 -3.72587e-16)
(0.987221 -0.161295 1.38407e-16)
(1.02384 -0.151621 -4.62855e-17)
(0.993829 -0.135039 1.14613e-16)
(1.02686 -0.125213 3.19246e-17)
(0.998309 -0.112607 -5.83567e-17)
(1.02838 -0.102325 1.54171e-16)
(1.00095 -0.0931582 -2.21642e-16)
(1.02856 -0.082154 -1.21857e-17)
(1.00196 -0.0760657 -3.49254e-16)
(1.02743 -0.0640401 1.382e-16)
(1.00155 -0.0608877 -3.42593e-16)
(1.02498 -0.0473832 1.21061e-16)
(0.999919 -0.0473623 -3.80014e-16)
(1.02108 -0.0315843 -8.3013e-17)
(0.9973 -0.035362 -6.06754e-17)
(1.01555 -0.0160347 -2.35587e-16)
(0.99412 -0.0249074 -2.20765e-16)
(1.00763 0.000297736 -2.09522e-16)
(0.992442 -0.0172519 1.94654e-16)
(0.993367 0.0211122 -2.51883e-16)
(0.998813 -0.0169173 1.63925e-16)
(0.968533 0.0491699 -1.19755e-16)
(1.00038 -0.00543815 3.62967e-16)
(0.887513 -0.968036 -1.22089e-15)
(0.805734 -0.819159 -9.38207e-16)
(0.937508 -0.761153 -5.95359e-16)
(0.856231 -0.638445 3.08436e-17)
(0.967753 -0.605925 -8.1795e-16)
(0.896416 -0.509443 1.30004e-16)
(0.987725 -0.487777 -4.64212e-16)
(0.927358 -0.413572 -1.23626e-16)
(1.0021 -0.396844 -3.43931e-17)
(0.950717 -0.339818 1.99562e-16)
(1.01295 -0.325898 7.10066e-17)
(0.96824 -0.281603 -2.36333e-16)
(1.02119 -0.26958 -1.35682e-16)
(0.981373 -0.234785 -5.20127e-16)
(1.02728 -0.22402 1.32028e-16)
(0.991149 -0.19654 -3.83651e-17)
(1.03154 -0.186474 3.73885e-16)
(0.998263 -0.16483 -3.09972e-16)
(1.03424 -0.154991 1.82769e-16)
(1.00318 -0.138147 -2.24884e-16)
(1.03555 -0.12815 7.31738e-17)
(1.00623 -0.115354 -1.03762e-17)
(1.03562 -0.104893 -1.68163e-16)
(1.00764 -0.0955943 2.03703e-17)
(1.03451 -0.0844036 3.00823e-16)
(1.00758 -0.0782256 2.16931e-17)
(1.03224 -0.0660112 7.96202e-17)
(1.00621 -0.0627959 1.53646e-16)
(1.02874 -0.04911 3.30798e-17)
(1.00373 -0.0490317 1.78246e-16)
(1.02387 -0.0331053 9.36401e-17)
(1.00034 -0.036785 2.34873e-16)
(1.01745 -0.0174359 9.49821e-17)
(0.996409 -0.0259665 3.74551e-16)
(1.00885 -0.00136463 2.27352e-16)
(0.993692 -0.0172759 -7.91558e-17)
(0.994539 0.0178614 1.98455e-16)
(0.998709 -0.014525 -5.53597e-17)
(0.969385 0.0434761 -3.36666e-17)
(1.00129 -0.00343729 -1.72097e-16)
(0.951429 -0.980881 1.22343e-15)
(0.859773 -0.829968 8.73425e-16)
(0.987751 -0.771178 4.88959e-16)
(0.898398 -0.646884 1.40721e-16)
(1.00782 -0.613906 3.79811e-16)
(0.930136 -0.516191 -4.77029e-18)
(1.02006 -0.494218 3.94506e-16)
(0.954806 -0.419067 8.32011e-17)
(1.02848 -0.402106 -9.02887e-17)
(0.973338 -0.344353 -1.67165e-16)
(1.03469 -0.330247 1.28944e-16)
(0.987052 -0.285388 -4.92147e-17)
(1.03924 -0.273212 -5.51213e-17)
(0.99712 -0.23797 7.11747e-16)
(1.04234 -0.227078 -3.93798e-16)
(1.00439 -0.199239 1.42495e-16)
(1.04414 -0.189066 -1.52281e-16)
(1.00942 -0.16713 2.22098e-17)
(1.04476 -0.157196 2.00321e-16)
(1.01258 -0.14011 -1.06775e-16)
(1.0443 -0.130029 9.30921e-17)
(1.01412 -0.117027 5.99379e-17)
(1.04283 -0.106492 1.04957e-16)
(1.01421 -0.0970095 -1.98966e-16)
(1.04036 -0.0857562 1.27682e-16)
(1.01299 -0.0794032 -2.95261e-16)
(1.03687 -0.0671443 3.59513e-17)
(1.01058 -0.0637458 2.85767e-17)