/*--------------------------------*- C++ -*----------------------------------*\
| =========                 |                                                 |
| \\      /  F ield         | foam-extend: Open Source CFD                    |
|  \\    /   O peration     | Version:  3.0                                   |
|   \\  /    A nd           | Web:         http://www.extend-project.de       |
|    \\/     M anipulation  |                                                 |
\*---------------------------------------------------------------------------*/
FoamFile
{
    version     2.0;
    format      ascii;
    class       volSymmTensorField;
    location    "3";
    object      sigma;
}
// * * * * * * * * * * * * * * * * * * * * * * * * * * * * * * * * * * * * * //

dimensions      [0 0 0 0 0 0 0];

internalField   nonuniform List<symmTensor> 
3012
(
(-0.0145819 0.0833906 -0.00148837 -0.0220438 -0.00281445 2.41168e-19)
(0.0602841 0.123009 0.00629689 -0.0534382 0.00247356 1.15255e-18)
(0.109628 0.0611704 -0.00081386 -0.0732339 -0.00243048 -1.21217e-20)
(0.0334448 0.0282044 0.00829541 -0.0401811 0.00432263 1.67451e-19)
(0.0583568 0.0179633 0.0371088 -0.0566818 0.0564378 1.92108e-19)
(-0.0384623 0.155992 -0.041744 0.022759 -0.0314563 1.93646e-19)
(-0.00609222 0.282219 0.0309861 0.00370404 0.0505548 6.69562e-18)
(0.0944456 0.12206 -0.0420704 -0.0781195 -0.0315546 -3.23582e-19)
(0.00941666 0.12034 0.00495808 -0.0375256 0.00443504 6.51501e-19)
(0.105135 0.120208 -0.0132166 -0.0766689 -0.0155487 4.13114e-19)
(0.00494645 0.0523947 -0.0121979 -0.0296361 -0.0153682 1.86869e-19)
(0.0970932 0.0540657 0.00595372 -0.0726764 0.00487513 7.73101e-21)
(0.0199973 0.0203057 0.00286129 -0.0188345 0.00224428 4.08542e-19)
(-0.0182552 0.0127557 -0.00171132 -0.0128765 -0.000853321 8.88796e-20)
(0.0592898 0.00697359 -0.0013827 -0.0273816 -0.000613875 1.36386e-20)
(0.0189178 0.00204618 0.00351154 -0.0209033 0.00309517 4.97136e-20)
(0.0738138 0.0228793 0.0358186 -0.0708572 0.0539601 2.22479e-19)
(-0.041596 0.151143 -0.0438588 0.0257163 -0.0333051 2.31896e-19)
(-0.016757 0.267892 0.0295841 0.0129614 0.0468072 5.52217e-18)
(0.101779 0.120373 -0.0440363 -0.0851325 -0.0333445 -2.4274e-19)
(0.0249076 0.00201978 -0.000505822 -0.0183879 0.000494018 -2.17568e-21)
(0.0188085 -0.00988594 -0.00194786 -0.0332402 -0.00109849 1.87418e-20)
(0.0414063 0.0119675 -0.0019854 -0.0248188 -0.000965399 2.60244e-20)
(0.0357742 -0.00109971 -0.000171174 -0.0443783 0.000662549 1.1024e-19)
(0.120216 0.0809944 -0.00735573 -0.085099 -0.00485266 -1.72076e-20)
(0.0560361 0.149634 0.00991224 -0.0553119 0.0104803 1.65293e-18)
(0.0473924 0.0313115 0.012344 -0.0490492 0.0131677 1.78516e-19)
(-0.0136154 0.0932712 -0.0077517 -0.0206803 -0.00527922 2.23758e-19)
(-0.0215126 0.0499774 0.00134533 -0.00919703 -0.000705644 1.81574e-19)
(0.040772 0.0171381 0.00178664 -0.0126575 -0.000741717 9.53962e-22)
(4.13639e-05 0.0176098 0.000405681 -0.0147456 -0.00378176 7.30179e-20)
(0.0230366 0.0517867 -0.000418133 -0.00577835 -0.00419365 3.1749e-19)
(0.000600051 0.0130902 0.00132521 -0.0128885 -0.00248312 6.2689e-20)
(0.0361596 0.0102255 0.00147443 -0.00847891 -0.00072365 1.70251e-22)
(-0.0243622 0.0394369 0.00105018 -0.00538472 -0.000728994 1.4684e-19)
(0.0144077 0.0395186 0.000536753 -0.000113899 -0.00295608 3.06414e-19)
(0.060697 0.167874 0.0111871 -0.0593335 0.0112256 1.86283e-18)
(0.124396 0.0899223 -0.00773095 -0.0910654 -0.00543887 -3.58099e-20)
(-0.0127684 0.105255 -0.00814992 -0.0198695 -0.0059043 2.34127e-19)
(0.047955 0.035669 0.0139284 -0.0500706 0.0141121 1.96972e-19)
(0.0123973 -0.00808052 0.00178222 -0.0119467 0.00145141 2.38981e-19)
(0.0400221 -0.00772413 -0.000899336 -0.0165147 -0.00026799 1.02414e-20)
(0.013683 -0.00188439 0.00212826 -0.0148539 0.00196357 2.80522e-20)
(-0.0124439 -0.00454834 -0.00116211 -0.0103762 -0.000467498 5.26202e-20)
(0.00373598 0.0115947 0.00213831 -0.0144871 -0.00150054 6.49684e-20)
(0.0153783 0.0371695 0.00130437 -0.00307136 -0.0020937 3.40757e-19)
(-0.0251098 0.0356192 0.000852042 -0.00581865 -0.000783435 1.39042e-19)
(0.0420166 0.00952452 0.00130819 -0.012707 -0.000717613 1.0167e-21)
(-0.0109974 -0.000964212 0.000771101 0.0181169 -0.000944943 1.44479e-19)
(0.00897039 -0.00832529 0.00062912 0.0080789 -0.000335091 8.22427e-22)
(-0.0208708 0.0123679 0.000355213 0.00296177 -0.00039388 6.03164e-20)
(0.00111197 0.00789579 0.00120917 -0.00741999 -0.000608496 2.73703e-20)
(-0.016554 0.07684 -0.00163334 -0.0207375 -0.00256592 2.27272e-19)
(0.055058 0.113683 0.00602694 -0.0486166 0.0025754 1.06973e-18)
(0.0323123 0.025462 0.00788305 -0.0387193 0.0043432 1.51316e-19)
(0.105339 0.0559735 -0.000984904 -0.0682126 -0.00220294 -1.64835e-21)
(-0.000280141 0.166307 0.0236727 -0.0100668 0.0317754 1.78523e-18)
(-0.0222155 0.0850847 -0.0416963 0.00548165 -0.0356122 3.13858e-19)
(0.141006 0.0192135 0.0271777 -0.132066 0.0374363 1.38524e-19)
(0.155604 0.0982441 -0.0420034 -0.137418 -0.0354901 1.20485e-19)
(-0.0129799 0.18917 0.0258196 0.00488029 0.0347781 2.3727e-18)
(-0.0327444 0.101455 -0.0437539 0.0166079 -0.0365016 3.04391e-19)
(0.121029 0.0143648 0.0303144 -0.114175 0.0426894 2.58434e-19)
(0.136904 0.0955228 -0.0438707 -0.119513 -0.0363545 1.88513e-21)
(0.0246992 0.0286772 0.00310809 -0.0256819 0.00323024 4.6746e-19)
(-0.0159703 0.0156083 -0.00266037 -0.0167424 -0.00117187 9.23431e-20)
(0.068564 0.0139073 -0.00237295 -0.0345451 -0.000911089 1.99493e-20)
(0.0252056 0.00296009 0.00375753 -0.0255694 0.00418637 5.30988e-20)
(0.0604431 0.0047958 -0.002908 -0.0341015 -0.000928662 2.84169e-20)
(0.0300567 -0.00207889 0.00141713 -0.0262058 0.00289854 2.21619e-20)
(0.0310165 0.000387187 0.00134206 -0.0370354 0.00251376 2.57553e-19)
(0.00251079 -0.00657532 -0.00300115 -0.0266831 -0.00114869 4.4939e-20)
(0.0147885 0.0144651 0.000525191 0.003615 -0.000449785 2.41783e-21)
(0.0113543 0.0388454 -0.00181453 0.00633523 -0.00348431 1.31317e-19)
(-0.0020159 0.0165263 -0.00138985 -0.012805 -0.003417 4.04177e-20)
(-0.00885349 0.0410372 0.000468748 -0.0123698 -0.000285625 1.34845e-19)
(-0.0168128 0.0237756 0.000303157 -0.000142455 -0.000520785 7.45007e-20)
(-0.00209109 0.00025042 0.000375697 0.0174166 -0.000670518 5.79522e-22)
(-0.0113296 0.0158483 -0.00037643 0.022576 -0.00208791 1.05284e-19)
(-0.00465581 0.0091933 -3.15003e-05 -0.00491437 -0.00195813 2.63405e-20)
(0.0302071 0.0488184 0.00390334 -0.0318332 0.0044038 6.09875e-19)
(-0.0165607 0.0278641 -0.00366737 -0.019178 -0.0017066 1.14659e-19)
(0.031651 0.00726178 0.00474795 -0.0315872 0.00563832 6.29987e-20)
(0.0813985 0.0260465 -0.00335993 -0.0441991 -0.00140572 2.47599e-20)
(0.0400416 -0.0160642 -0.00135039 -0.0203809 -0.000274951 1.47624e-20)
(0.0167729 -0.0099776 0.00124158 -0.0157901 0.00177104 1.91702e-20)
(0.0183623 -0.0262732 0.00115616 -0.0204516 0.00150903 1.62815e-19)
(-0.0033443 -0.0211644 -0.00151287 -0.015267 -0.000461295 3.10813e-20)
(-0.00167861 0.00928578 0.000818655 -0.00779778 -0.00168399 3.70208e-20)
(0.0131004 0.000225155 0.000841213 0.00707943 -0.000612813 5.37287e-22)
(-0.020816 0.0236509 0.000585193 -0.000927866 -0.000570773 9.15702e-20)
(-0.0032957 0.0168635 0.000315352 0.0142801 -0.00198921 1.70497e-19)
(0.11111 0.120589 -0.0149223 -0.0819607 -0.01632 3.91714e-19)
(0.0131095 0.124068 0.00523588 -0.0399072 0.00562438 7.18211e-19)
(0.00465221 0.0550969 -0.0139584 -0.0300405 -0.0161672 1.89839e-19)
(0.0998518 0.0539929 0.00622964 -0.0767142 0.00618742 1.40086e-20)
(-0.00563305 0.080251 -0.0254138 -0.0225419 -0.0174419 2.11294e-19)
(0.0986995 0.0299268 0.0129465 -0.0888401 0.0241471 1.579e-19)
(0.0358566 0.154875 0.0110529 -0.0481022 0.0205012 1.80991e-18)
(0.139078 0.102277 -0.0256044 -0.108497 -0.0171985 1.29284e-19)
(0.0551849 -0.000557869 -0.00251683 -0.0315821 -0.000799423 2.51026e-20)
(0.0271339 -0.00385681 0.00108204 -0.0236171 0.00236218 1.7626e-20)
(0.0305778 -0.00828495 0.00107912 -0.0360472 0.00209543 2.10088e-19)
(0.00421219 -0.0116555 -0.00260559 -0.0258519 -0.00100342 3.99482e-20)
(0.0082249 0.0117296 0.000299737 0.0082188 -0.000501501 1.80033e-21)
(-0.00175351 0.014316 -0.00120709 -0.0115874 -0.00292864 3.33923e-20)
(0.00462951 0.0330853 -0.00157202 0.0112674 -0.00297519 1.09142e-19)
(-0.00845419 0.035843 0.000298422 -0.0105312 -0.000326182 1.12508e-19)
(0.0363188 0.0130819 -0.00136305 -0.0220508 -0.000841923 2.59303e-20)
(0.0378004 0.000583774 -0.000381874 -0.0462651 0.00026842 7.9076e-20)
(0.0241801 -0.00682695 -0.00132053 -0.0364933 -0.000963119 9.55672e-21)
(0.0240899 0.00487336 -0.00083032 -0.0175458 -0.000109849 -9.8424e-21)
(-0.024251 0.0270792 0.000373239 -0.00605601 -0.000735559 1.19384e-19)
(0.043168 0.00523961 0.000825875 -0.01384 -0.000618753 2.36288e-21)
(0.0127544 0.0279079 0.00197548 -0.00371087 -0.000838676 3.45161e-19)
(0.00708196 0.00826299 0.00276094 -0.0152202 -0.000176595 6.03706e-20)
(-0.0189627 0.00442313 -0.00101497 0.0218576 -0.00116825 1.32534e-20)
(0.0109656 0.00169392 -0.000909119 -0.0134378 -0.00110788 4.65955e-21)
(-0.0182251 0.000199418 -0.000612606 0.020759 -0.000594341 -8.57745e-23)
(0.0101262 0.0060341 -0.000447983 -0.0130733 -0.00042388 1.77323e-20)
(0.0162281 -0.029473 -0.00125976 -0.0197591 -0.000856532 1.79072e-21)
(0.0293334 -0.0428452 -0.000291767 -0.0305934 5.6679e-05 2.86289e-20)
(0.00763587 -0.00534503 -0.000522581 -0.0067462 -7.08616e-05 5.23957e-21)
(0.0201003 -0.0174311 -0.00117571 -0.0161954 -0.000757098 6.8673e-21)
(0.137465 0.204078 0.00249716 -0.127787 -0.00891533 1.492e-18)
(0.0267245 0.137701 0.00367947 -0.0532155 -0.00361882 3.17847e-19)
(0.160667 0.106514 0.00460738 -0.135015 -0.00310435 -7.56988e-21)
(0.052671 0.0503156 0.00512833 -0.0615626 -0.0071138 2.88486e-19)
(0.25863 0.213542 -0.0245782 -0.249113 -0.0357464 6.93269e-19)
(0.0593145 0.0478012 -0.0227539 -0.0679274 -0.0346063 6.21234e-19)
(0.232397 0.112237 0.0183523 -0.218604 0.00918315 -1.5779e-19)
(0.0762058 0.137212 0.0174132 -0.0909081 0.00904958 3.3209e-19)
(0.131538 0.233177 0.00656185 -0.124385 -0.00362248 1.83362e-18)
(0.0255264 0.153137 0.000123309 -0.0506814 -0.00579102 2.5627e-19)
(0.0559088 0.0574754 0.00948713 -0.0626836 -0.001486 2.637e-19)
(0.16103 0.12666 0.000740123 -0.136317 -0.0052867 -5.695e-20)
(0.264849 0.184689 -0.0323799 -0.254606 -0.041263 4.98386e-19)
(0.232152 0.0946681 0.0224773 -0.219908 0.0170984 -2.46945e-19)
(0.0445698 0.0493549 -0.0308181 -0.0538519 -0.0403423 8.65454e-19)
(0.0650835 0.130249 0.0209842 -0.0782702 0.0172028 4.39506e-19)
(0.118374 0.0750766 -0.00614461 -0.0823148 -0.00397585 -1.08576e-20)
(0.0451609 0.0297763 0.0112538 -0.0475432 0.0115067 1.69145e-19)
(-0.0136752 0.0880566 -0.00659376 -0.0216466 -0.0044226 2.23223e-19)
(0.0564203 0.139711 0.00896936 -0.0548741 0.00898209 1.48761e-18)
(0.201845 0.0769211 0.0236732 -0.189565 0.0253408 -9.67425e-20)
(0.0193039 0.0782482 -0.0370547 -0.0324152 -0.0397288 6.20258e-19)
(0.041879 0.161891 0.0205994 -0.0554651 0.0244924 7.78341e-19)
(0.22016 0.160093 -0.0380547 -0.205689 -0.0400075 3.67596e-19)
(0.197392 0.0796141 0.0210066 -0.18339 0.0176601 -1.47754e-19)
(0.0247778 0.0611316 -0.0311001 -0.0372317 -0.0378767 6.5943e-19)
(0.041199 0.145492 0.0186234 -0.0564627 0.0173528 6.37091e-19)
(0.21835 0.166377 -0.032337 -0.204577 -0.038412 4.416e-19)
(0.00423719 0.00875522 0.00107 -0.00724637 0.000181619 1.59943e-20)
(-0.0155808 -0.000235839 0.000103099 0.00440323 -0.000185637 3.32791e-20)
(-0.0161276 -0.0217912 0.000737852 0.0193802 -0.000142399 9.66164e-20)
(0.00235143 -0.0159191 0.000372198 0.00855081 -3.51944e-05 2.72324e-22)
(-0.00569755 0.00796593 0.000792759 0.0144121 -0.00127504 1.75936e-19)
(0.0146725 -0.00381958 0.000761249 0.00512868 -0.000444314 2.45167e-22)
(-0.0220433 0.0173325 0.000464211 0.00117109 -0.000479381 7.58848e-20)
(0.000475878 0.00840149 0.00130353 -0.00813391 -0.000905377 3.32292e-20)
(0.0262268 0.0147173 -0.00113961 -0.01327 -0.000777197 2.2162e-20)
(0.0196715 -0.00279058 -0.00108661 -0.0307489 -0.000887726 1.03686e-20)
(0.0149084 0.00572935 -0.000941945 -0.00809415 -0.000433393 -7.14221e-21)
(0.0321944 0.00551196 -0.000472894 -0.0408466 9.36633e-07 5.75466e-20)
(-0.0120009 0.122762 -0.0144787 -0.016022 -0.00964886 2.22173e-19)
(0.0585021 0.202466 0.0157915 -0.0588685 0.0185753 2.59357e-18)
(0.12826 0.107798 -0.0142481 -0.0994193 -0.0092246 -6.64758e-20)
(0.0548503 0.0380495 0.0193349 -0.0553864 0.0221742 2.05908e-19)
(-0.000397466 0.0149171 0.000896976 -0.0127559 -0.00297131 6.31932e-20)
(0.0351693 0.0123011 0.0015322 -0.00802246 -0.000729006 2.55491e-22)
(-0.0230732 0.0425757 0.00112443 -0.00634005 -0.000705891 1.53681e-19)
(0.015895 0.0424782 0.000129937 -0.000513055 -0.00339499 2.91427e-19)
(0.178544 0.0571369 0.0221099 -0.166038 0.0262697 -1.87094e-20)
(0.193612 0.138463 -0.0379118 -0.17651 -0.0365505 3.2628e-19)
(0.0301672 0.156144 0.0196246 -0.0441965 0.0244877 9.94837e-19)
(0.0075737 0.074519 -0.0371165 -0.0230846 -0.0364304 5.30053e-19)
(0.0312624 0.141956 0.0142749 -0.0501868 0.0108143 6.33456e-19)
(0.171985 0.0781135 0.0165326 -0.154623 0.0111391 -1.11339e-19)
(0.0223826 0.0572913 -0.0236068 -0.0366951 -0.0321991 5.10106e-19)
(0.185051 0.166584 -0.0250255 -0.169109 -0.0327809 6.23619e-19)
(-0.00966968 0.132073 -0.0109625 -0.0179101 -0.00906912 2.27207e-19)
(0.0683723 0.213126 0.0146804 -0.0667087 0.0142654 2.4476e-18)
(0.129485 0.113494 -0.010657 -0.101409 -0.0086388 -1.17963e-19)
(0.0489952 0.0436172 0.0181792 -0.0512251 0.01752 2.7108e-19)
(0.0608587 0.0269795 0.00201953 -0.0454352 0.00530572 3.79658e-20)
(0.00307067 0.0332937 -0.00851215 -0.0337485 -0.00612321 8.85719e-20)
(0.0289507 0.0741275 0.00183406 -0.0487934 0.00468983 5.15725e-19)
(0.0882306 0.0665168 -0.00878506 -0.0530466 -0.00591605 1.32875e-19)
(0.0225464 0.0785795 0.00164764 -0.0450414 0.00379747 4.74294e-19)
(0.0821565 0.0728893 -0.00850769 -0.0484776 -0.00683463 1.55144e-19)
(0.060919 0.0313918 0.00182572 -0.0429822 0.0042137 2.80084e-20)
(0.00323459 0.0352144 -0.00812033 -0.0322552 -0.00698624 9.80609e-20)
(0.0334743 0.0173842 -0.00156215 -0.0182355 -0.00107625 3.01997e-20)
(0.0197114 -0.00194754 -0.00148737 -0.0327429 -0.00119157 1.37444e-20)
(0.0212308 0.00636026 -0.000776711 -0.0136077 -0.000123943 -6.38012e-21)
(0.0328371 0.00851225 -0.000352108 -0.042602 0.000248968 8.60243e-20)
(0.0373885 0.0696491 -0.00108607 -0.0179518 -0.00563732 4.04959e-19)
(0.055338 0.02628 0.00243815 -0.0248641 -0.000703907 9.11354e-23)
(-0.0202317 0.063792 0.00186712 -0.0131565 -0.000702668 2.37371e-19)
(0.00201334 0.0229315 -8.73813e-05 -0.0185705 -0.00515151 9.43882e-20)
(0.0248098 0.0258402 0.00300818 -0.0268279 0.00335771 4.50899e-19)
(-0.0146467 0.0127435 -0.00290283 -0.0174608 -0.00117574 8.66494e-20)
(0.0265694 0.00213606 0.00361292 -0.0260905 0.00426555 5.03808e-20)
(0.0687446 0.0134005 -0.00264232 -0.0351393 -0.000907812 2.22803e-20)
(0.0207955 0.0256232 0.0030147 -0.0187576 0.0021552 4.36337e-19)
(0.0611881 0.00897949 -0.00122569 -0.028408 -0.000662239 1.40739e-20)
(-0.0195503 0.0170075 -0.00158507 -0.0126411 -0.0009026 9.73646e-20)
(0.0189205 0.00333685 0.00373292 -0.021628 0.00305842 4.85954e-20)
(-0.0160733 -0.0373366 0.00063254 0.0174449 0.000244397 7.79237e-20)
(-0.00171918 -0.0208117 0.00025074 0.00822802 0.000124395 2.57099e-22)
(0.00477014 0.00932741 0.000899837 -0.00611256 0.000567143 1.07376e-20)
(-0.0106831 -0.0105572 -2.9235e-05 0.00413512 -8.94422e-05 2.27167e-20)
(0.0262081 -0.0319431 -0.000328314 -0.0280639 6.32284e-05 3.0142e-20)
(0.0157935 -0.0237643 -0.00123709 -0.0205661 -0.000645011 1.27994e-21)
(0.0207797 -0.0129515 -0.00116749 -0.0154848 -0.000555275 6.51792e-21)
(0.0111276 -0.00620382 -0.000562733 -0.00978692 -6.50385e-05 6.99623e-22)
(0.0832181 0.0279788 -0.00391353 -0.0459262 -0.00155231 2.85707e-20)
(0.0344625 0.00741097 0.00462789 -0.0333116 0.00601953 5.72243e-20)
(0.0312341 0.0491353 0.0038239 -0.0342049 0.00477541 6.10087e-19)
(-0.0144227 0.0267802 -0.00417218 -0.0211158 -0.00184981 1.10384e-19)
(-0.00877554 0.00587602 -0.000861033 0.0128079 -0.00120993 1.19969e-20)
(0.0105196 0.006623 -0.000513791 -0.0144365 -0.000471183 1.67681e-20)
(0.00917939 0.00269667 -0.000788675 -0.0126309 -0.00118104 4.14643e-21)
(-0.0099955 0.00209607 -0.000710829 0.0133445 -0.000680601 -5.3611e-22)
(-0.000904746 0.0181382 5.6876e-05 -0.0143432 -0.00403621 7.19258e-20)
(-0.0203686 0.0506773 0.00131514 -0.00944637 -0.000612461 1.83313e-19)
(0.0226628 0.0512871 -0.000730804 -0.0046898 -0.00439112 2.90426e-19)
(0.0380779 0.0168419 0.00172048 -0.0110085 -0.000659553 2.68406e-21)
(0.0319407 -0.0160321 9.18086e-05 -0.037319 0.000862971 1.13187e-19)
(0.0135317 -0.0166516 -0.00200505 -0.026748 -0.000947151 2.19724e-20)
(0.0186637 -0.00285065 -0.000109333 -0.0148376 0.000857495 3.9051e-22)
(0.0372458 -0.00141603 -0.00196672 -0.0224583 -0.000805921 1.433e-20)
(0.00630688 0.00583924 -0.00129414 -0.0159553 -0.001954 1.72911e-20)
(0.000275966 0.00853483 -0.000409882 0.00888505 -0.000550513 5.44423e-22)
(0.00872587 0.0184862 -0.00024412 -0.0196399 -0.000313672 6.70053e-20)
(0.0036757 0.0207606 -0.00146141 0.00776138 -0.00194049 4.51701e-20)
(0.0543819 0.0275501 0.00244296 -0.0247972 -0.00056075 1.05423e-21)
(0.0400123 0.071106 -0.00174414 -0.0193074 -0.00610818 3.78099e-19)
(0.00131169 0.0244609 -0.000790547 -0.018885 -0.00568925 9.25626e-20)
(-0.0175985 0.0660935 0.00189657 -0.0151382 -0.000543462 2.482e-19)
(0.0280328 0.00393749 -0.000263151 -0.0206606 0.000998188 1.73892e-21)
(0.01567 -0.00629912 -0.00250608 -0.0326834 -0.00141693 2.76809e-20)
(0.0458486 0.015503 -0.00254713 -0.0263655 -0.00126522 3.20447e-20)
(0.0335928 0.00448382 1.31525e-05 -0.043391 0.00106105 1.47458e-19)
(0.0342514 0.00862965 -0.000174436 -0.0444265 0.000680168 1.19768e-19)
(0.0420746 0.0188648 -0.00211064 -0.0242457 -0.00124881 3.65317e-20)
(0.0270376 0.0070004 -0.000527714 -0.019247 0.000449915 -1.40323e-21)
(0.0186768 -0.00270641 -0.00204887 -0.0340816 -0.00138383 1.7892e-20)
(0.0636656 0.0292051 0.00221023 -0.0474225 0.00550107 3.96579e-20)
(0.0027309 0.03586 -0.00904227 -0.0335525 -0.0067649 9.74206e-20)
(0.0276719 0.0790608 0.00198674 -0.0483941 0.00486895 5.41268e-19)
(0.0901092 0.0709096 -0.00934884 -0.0547188 -0.00656724 1.47266e-19)
(0.0246035 0.0822789 0.00191089 -0.0467211 0.00448801 5.22194e-19)
(0.0643867 0.0316478 0.00213253 -0.0468161 0.00503301 3.82799e-20)
(0.0878107 0.0748123 -0.00933721 -0.0531143 -0.00715018 1.68794e-19)
(0.00291307 0.037276 -0.00896351 -0.0329636 -0.00731955 1.01754e-19)
(0.135312 0.105832 -0.0225488 -0.10284 -0.0161229 1.83668e-19)
(0.0355302 0.138266 0.00765791 -0.0526683 0.0146896 1.30183e-18)
(0.000862203 0.0689369 -0.0221494 -0.0301951 -0.0162883 2.05413e-19)
(0.102503 0.0388893 0.00882179 -0.0884403 0.0169767 9.45614e-20)
(-0.00259428 0.0037439 0.000493014 -0.00307196 -0.000891065 1.67703e-20)
(-0.0178661 0.00808538 0.000188569 0.00521941 -0.000414225 4.18757e-20)
(-0.0208333 -0.0036203 0.000207426 0.0273597 -0.00106407 7.80367e-20)
(-0.00814358 -0.0100358 0.000309987 0.0199377 -0.000450633 1.67401e-22)
(0.00689447 -0.0345532 0.000947741 -0.00674089 0.000754727 1.1085e-19)
(0.0222863 -0.0230575 -0.00048686 -0.00845477 -7.89496e-05 5.85079e-21)
(0.00721552 -0.00741449 0.00108734 -0.00782751 0.000967021 1.23764e-20)
(-0.00731587 -0.0210485 -0.000684808 -0.00607864 -0.000256571 2.5021e-20)
(0.0697745 0.0350739 0.00263809 -0.0515979 0.00571693 3.41106e-20)
(0.0248046 0.090857 0.00232452 -0.0475182 0.00507642 5.86744e-19)
(0.00264448 0.0418871 -0.010061 -0.0331054 -0.00830497 1.11297e-19)
(0.093609 0.0820507 -0.0104847 -0.0585077 -0.00814208 1.7268e-19)
(0.015247 0.000959814 0.00215372 -0.0146208 0.00171387 2.96863e-19)
(0.0474066 -0.00337277 -0.00105565 -0.0205691 -0.000379943 1.18564e-20)
(0.0159369 -0.00126206 0.00259915 -0.017357 0.00231697 3.47738e-20)
(-0.0145209 0.000720751 -0.00134258 -0.0116039 -0.000592969 6.5122e-20)
(0.0211645 0.0196226 0.00283764 -0.0210187 0.00253686 4.08372e-19)
(-0.0165789 0.011373 -0.00201974 -0.0144364 -0.000900782 8.53859e-20)
(0.0612183 0.00765921 -0.00171643 -0.0292008 -0.00065914 1.59899e-20)
(0.0210416 0.00157583 0.0034528 -0.0222321 0.00337761 4.73792e-20)
(-0.014446 0.0896426 -0.00291332 -0.0213016 -0.0034668 2.42674e-19)
(0.0608129 0.135808 0.00759124 -0.055534 0.00441749 1.31751e-18)
(0.0369115 0.0308326 0.0097883 -0.0423329 0.00656995 1.76212e-19)
(0.114101 0.0697972 -0.0022852 -0.0783036 -0.00304072 -2.34967e-20)
(0.00472334 0.00817732 0.0010521 -0.00723975 0.000298885 1.40995e-20)
(0.00196194 -0.0182712 0.000330229 0.00794934 1.55426e-05 5.80956e-22)
(-0.0148083 -0.00313941 5.63085e-05 0.00470513 -0.000152898 2.95881e-20)
(-0.0163673 -0.0263924 0.00073784 0.0190463 -1.83109e-05 9.06751e-20)
(0.0854765 0.271354 0.0182049 -0.0830962 0.0153213 3.18292e-18)
(0.000986935 0.166332 -0.0129237 -0.0225266 -0.0126684 2.08942e-19)
(0.0497387 0.0535625 0.0221651 -0.0524142 0.0185544 2.1708e-19)
(0.135734 0.144756 -0.0127694 -0.11396 -0.0122972 -1.41104e-19)
(0.0655224 0.285958 0.0232092 -0.0648223 0.0263126 4.16752e-18)
(0.0500676 0.045985 0.0276719 -0.0512371 0.0301347 2.48876e-19)
(-0.0084868 0.169517 -0.0209407 -0.0107719 -0.0172516 1.90833e-19)
(0.126777 0.145701 -0.0209463 -0.1071 -0.0169764 -1.82346e-19)
(0.003154 0.0109427 0.00202213 -0.0131866 -0.00130106 5.73179e-20)
(-0.0249344 0.0317941 0.000744694 -0.00425627 -0.000707841 1.23191e-19)
(0.0106626 0.0309368 0.00126026 0.000813608 -0.00185454 3.0389e-19)
(0.0366032 0.00666235 0.00117224 -0.0089252 -0.000644834 5.44002e-23)
(0.072372 0.0373225 0.00286606 -0.0531854 0.00564124 3.47815e-20)
(0.0228552 0.0948475 0.00250272 -0.0465722 0.00503058 5.99916e-19)
(0.0024491 0.0438402 -0.0104751 -0.0324922 -0.00906214 1.17938e-19)
(0.0946188 0.0861653 -0.0109602 -0.0599305 -0.00892923 1.92504e-19)
(0.00927799 0.0227943 0.00173308 -0.000225793 -0.00093781 3.05027e-19)
(-0.023862 0.0247389 0.000411771 -0.00465339 -0.00065351 1.07385e-19)
(0.0378306 0.0027701 0.000835006 -0.0103335 -0.00054798 1.70122e-21)
(0.0058806 0.0084373 0.002469 -0.0139785 -0.000329257 5.14918e-20)
(-0.0148058 0.0864542 -0.00444427 -0.0211051 -0.00355291 2.34026e-19)
(0.0575013 0.133695 0.00817563 -0.0539993 0.00641004 1.35456e-18)
(0.0400522 0.0294573 0.0103951 -0.0440346 0.00868635 1.67526e-19)
(0.114928 0.0699538 -0.00389899 -0.0786432 -0.00310911 -1.86603e-20)
(0.13303 0.100906 -0.0213268 -0.0993614 -0.0143799 1.72548e-19)
(0.0378801 0.135622 0.00746232 -0.0538581 0.0148162 1.31256e-18)
(9.32583e-05 0.0681022 -0.021012 -0.0306431 -0.0145895 1.97255e-19)
(0.0965654 0.0353229 0.00865609 -0.0836731 0.0172451 1.04021e-19)
(0.0562244 0.0601997 -0.00529061 -0.0279504 -0.00516599 1.39269e-19)
(0.0431105 0.0266647 0.000836912 -0.0250075 0.00157566 1.25213e-20)
(0.0146121 0.0612863 0.00080776 -0.0369502 0.00156191 2.91013e-19)
(0.00392675 0.0261591 -0.00490746 -0.0278773 -0.00525428 6.56221e-20)
(0.0164915 -0.0242625 0.00124594 -0.0179616 0.00145433 1.71285e-19)
(0.0390736 -0.0153932 -0.00121579 -0.0192688 -0.000246793 1.27215e-20)
(-0.00476284 -0.0187045 -0.00139542 -0.0140598 -0.000437435 3.36009e-20)
(0.016195 -0.00845068 0.00137282 -0.0157113 0.00175322 1.92512e-20)
(0.0321755 0.0456396 0.00123367 -0.0477772 0.00358527 3.85586e-19)
(0.0051658 0.0172694 -0.0060229 -0.0337914 -0.00365547 6.69635e-20)
(0.0482709 0.015458 0.00126298 -0.0365739 0.00403894 2.7828e-20)
(0.076735 0.0435039 -0.00614405 -0.0441435 -0.00343012 8.00805e-20)
(-0.00481313 0.0766818 -0.02291 -0.0251422 -0.0149716 2.03386e-19)
(0.0925543 0.0295493 0.011498 -0.0829124 0.022184 1.49605e-19)
(0.0387589 0.147256 0.00977691 -0.050916 0.0188217 1.70717e-18)
(0.135659 0.0977776 -0.0230783 -0.103164 -0.014705 1.16152e-19)
(0.0468387 -0.00894663 -0.00177153 -0.0240244 -0.000426934 1.81969e-20)
(0.0208681 -0.0158327 0.0013647 -0.0238088 0.00189336 2.06007e-19)
(0.0198626 -0.00713827 0.00147852 -0.0183165 0.00222235 2.20919e-20)
(-0.00419388 -0.0149008 -0.00192415 -0.0172435 -0.00062697 3.85477e-20)
(0.00528074 0.00464618 0.000516632 0.0121492 -0.000659114 8.54785e-22)
(-0.0161568 0.0299824 0.000424067 -0.0033018 -0.00050922 9.63249e-20)
(-0.00364079 0.0238979 -0.000681788 0.017109 -0.00258408 1.22679e-19)
(-0.00400992 0.0114997 -0.000277546 -0.0074093 -0.00245483 3.26747e-20)
(-0.000358612 -0.000551426 0.00046188 0.016212 -0.000645368 -2.52006e-22)
(-0.0178583 0.023028 0.000350445 0.000482676 -0.000524415 7.41394e-20)
(-0.0110207 0.0144767 -0.000232603 0.0218195 -0.00202052 1.09055e-19)
(-0.00435357 0.00937689 0.000142328 -0.00488687 -0.00186195 2.82954e-20)
(-0.00337365 0.00825868 -0.000382119 -0.00540562 -0.00170953 1.692e-20)
(-0.0105745 0.00159549 -7.1226e-05 0.0225949 -0.000701617 3.26933e-23)
(-0.0109594 0.0211742 6.60123e-06 -0.00258741 -0.000497538 5.61722e-20)
(-0.0157459 0.0147646 -0.000606764 0.0261082 -0.00173505 6.46111e-20)
(0.025163 -0.0349379 0.000672878 -0.0281436 0.00123099 1.0068e-19)
(0.0388183 -0.018417 -0.00137159 -0.0223988 -0.000321658 1.39372e-20)
(0.017685 -0.011278 0.0005571 -0.0158936 0.00125124 8.44838e-21)
(0.00532925 -0.0280999 -0.00146414 -0.0205556 -0.00047965 1.73038e-20)
(-0.013751 -0.038079 0.000675604 0.0149578 0.000324446 8.2462e-20)
(-0.000188874 -0.0222699 0.000222657 0.00680158 0.000126592 1.27314e-22)
(0.0053616 0.00853566 0.000950022 -0.00658346 0.000658087 1.22176e-20)
(-0.00907194 -0.0105802 -6.76981e-05 0.00245338 -9.37035e-05 2.3284e-20)
(0.00359966 0.00722331 0.000667529 -0.00549374 0.000140139 1.04715e-20)
(-0.0131912 -0.00665593 0.000120403 0.00712683 -8.96942e-05 2.13292e-20)
(-0.0105448 -0.0210684 0.000350341 0.0164241 5.12839e-05 6.34755e-22)
(-0.0255244 -0.0321404 0.000395461 0.02759 -0.000121457 5.65631e-20)
(-0.00298199 0.0104891 -0.000555472 -0.00755972 -0.00215561 2.38737e-20)
(-0.00282667 0.00487576 0.000117491 0.0171224 -0.000658315 6.0847e-22)
(-0.00852558 0.021129 -0.000847625 0.0209875 -0.00220334 8.73695e-20)
(-0.0114553 0.0264342 0.00014706 -0.00470642 -0.000470019 7.73964e-20)
(0.0260477 -0.02446 0.000903303 -0.0296931 0.00156363 1.47217e-19)
(0.0446933 -0.0120738 -0.00172748 -0.0250844 -0.00044337 1.73816e-20)
(0.00336553 -0.0209186 -0.00183204 -0.0215854 -0.000621236 2.75328e-20)
(0.0206145 -0.00821196 0.000866191 -0.0184038 0.00170014 1.49037e-20)
(-0.00496939 0.0874406 0.00249023 -0.0261638 0.000890103 3.78757e-19)
(0.064161 0.0902899 -0.00587319 -0.0370866 -0.00918944 3.28105e-19)
(0.000982285 0.0364288 -0.00498098 -0.023908 -0.00898934 1.29082e-19)
(0.0651503 0.0396749 0.00306547 -0.0381147 0.00094155 8.40434e-21)
(-0.00721767 0.0892583 0.00275029 -0.0249084 0.000618714 3.7858e-19)
(0.0651785 0.0941958 -0.00549852 -0.0392454 -0.00954714 3.76221e-19)
(0.0693456 0.0414332 0.00341618 -0.0411083 0.000673792 7.30638e-21)
(0.0020977 0.0367459 -0.00451003 -0.0241034 -0.00925654 1.36908e-19)
(0.0872572 0.0451237 -0.00691845 -0.0517601 -0.00351547 8.48476e-20)
(0.0524196 0.0145261 0.00217791 -0.0420229 0.00553856 3.62302e-20)
(0.00258337 0.0211837 -0.00684746 -0.0342336 -0.00378061 8.55305e-20)
(0.0356158 0.0518704 0.00197074 -0.0498172 0.00479137 4.80807e-19)
(0.00100535 0.0314734 -0.00519575 -0.0253225 -0.00648816 7.38779e-20)
(0.00649318 0.0726815 0.00126139 -0.0322705 0.00145168 3.22631e-19)
(0.0482769 0.0320275 0.00144529 -0.0269041 0.00148539 1.35054e-20)
(0.0571067 0.0715128 -0.00572797 -0.0282994 -0.00646394 1.86793e-19)
(0.00489646 0.0118703 0.00240348 -0.0157621 -0.00146461 7.12702e-20)
(-0.0254008 0.0384838 0.000881074 -0.00696548 -0.000859387 1.5017e-19)
(0.0471219 0.0117822 0.00137291 -0.0163746 -0.000777924 6.02449e-22)
(0.0189576 0.0422294 0.00150594 -0.00654802 -0.0021149 3.80034e-19)
(0.0795665 0.0391852 0.00381821 -0.0618267 0.00796819 4.67741e-20)
(0.00219051 0.0502189 -0.0128584 -0.0334544 -0.0102603 1.36989e-19)
(0.0278182 0.105487 0.00331522 -0.0498683 0.00700123 7.40407e-19)
(0.106211 0.092343 -0.0132963 -0.0705479 -0.0100818 1.94557e-19)
(0.0842663 0.039975 0.00451228 -0.0669218 0.00918619 5.49481e-20)
(0.0025139 0.053817 -0.0142081 -0.0338051 -0.0111542 1.51315e-19)
(0.0298353 0.112312 0.0039185 -0.0513013 0.00807036 8.1522e-19)
(0.112049 0.0961074 -0.0146759 -0.0765306 -0.0109772 2.05599e-19)
(0.0100541 0.0136384 -0.0038087 -0.0319277 -0.00305433 4.95173e-20)
(0.0370631 0.0166731 0.000146652 -0.0246446 0.00150736 8.08364e-21)
(0.0269049 0.0370982 0.000321609 -0.0428683 0.00153332 2.30071e-19)
(0.0548864 0.0395417 -0.0039857 -0.0293947 -0.00290127 7.46847e-20)
(0.0530114 0.0141937 0.00483295 -0.0465616 0.00900275 7.90111e-20)
(0.0375671 0.0713953 0.00408118 -0.0470582 0.00750405 7.58416e-19)
(-0.0072473 0.0359491 -0.00809022 -0.0287904 -0.00390063 1.22629e-19)
(0.100458 0.0490718 -0.00800025 -0.0613978 -0.00356743 6.27082e-20)
(0.0175268 0.0254281 0.0028056 -0.0132868 0.00124898 4.1152e-19)
(-0.0217025 0.0196277 -0.000860043 -0.009922 -0.000803157 1.02905e-19)
(0.0142546 0.00469947 0.0035523 -0.0186772 0.00208368 5.1642e-20)
(0.0546684 0.00698353 -0.000459329 -0.0229501 -0.000598364 9.24083e-21)
(0.12404 0.163224 -0.00382539 -0.109074 -0.0148755 1.0213e-18)
(0.0136697 0.122254 0.00657587 -0.0425349 -0.00103941 4.24657e-19)
(0.139788 0.0777607 0.00795362 -0.112585 -0.000629196 -5.85519e-20)
(0.0335172 0.04364 -0.0017733 -0.0468595 -0.0136981 2.73544e-19)
(0.0517757 0.0149307 0.00548783 -0.0466714 0.00947137 9.08832e-20)
(-0.00878607 0.0405372 -0.00794364 -0.0278523 -0.00379052 1.30282e-19)
(0.0387592 0.0765833 0.00458493 -0.0465971 0.00782589 8.17709e-19)
(0.10216 0.0500165 -0.00779804 -0.0628245 -0.00344752 5.14486e-20)
(0.0576985 0.0475597 -0.00458721 -0.0668924 -0.0193382 3.7037e-19)
(0.190774 0.111983 0.00975134 -0.170678 -2.92481e-05 -1.24994e-19)
(0.0523558 0.142492 0.00872786 -0.0734014 -0.000521119 3.59657e-19)
(0.19009 0.216972 -0.00693982 -0.179984 -0.0207718 1.19835e-18)
(-0.000297248 0.0155339 -0.00179085 -0.0144457 -0.0032236 3.56246e-20)
(-0.00298419 0.037846 0.000255388 -0.0158761 -0.000141153 1.28223e-19)
(0.0125491 0.0368064 -0.00213671 0.00501373 -0.00324045 1.04538e-19)
(0.0125043 0.0150078 0.000227123 0.00356234 -0.000321179 2.62491e-21)
(-0.0352364 -0.0276846 0.000103628 0.0367256 -0.000252457 2.22342e-20)
(-0.0169797 -0.00750223 -2.24188e-05 0.0138317 -0.000169394 1.05771e-20)