/*--------------------------------*- C++ -*----------------------------------*\
| =========                 |                                                 |
| \\      /  F ield         | foam-extend: Open Source CFD                    |
|  \\    /   O peration     | Version:  3.0                                   |
|   \\  /    A nd           | Web:         http://www.extend-project.de       |
|    \\/     M anipulation  |                                                 |
\*---------------------------------------------------------------------------*/
FoamFile
{
    version     2.0;
    format      ascii;
    class       volVectorField;
    location    "3";
    object      u;
}
// * * * * * * * * * * * * * * * * * * * * * * * * * * * * * * * * * * * * * //

dimensions      [0 0 0 0 0 0 0];

internalField   nonuniform List<vector> 
3012
(
(0.676843 -0.120341 0.0504761)
(0.842378 0.12147 -0.0371673)
(0.450783 0.219221 -0.0593482)
(0.554101 -0.042629 0.0524818)
(1.61216 -0.46207 0.635847)
(1.42262 0.916841 -0.072184)
(-0.738843 1.44779 -0.56561)
(-0.58788 -1.36275 0.0743152)
(0.316521 0.346837 0.015356)
(0.366145 -0.325933 0.0943904)
(0.935292 0.298784 -0.092526)
(0.987158 -0.248239 -0.0229905)
(0.988355 0.0996668 -0.0140667)
(0.938375 -0.21353 0.00403026)
(0.731546 0.1876 -0.00785742)
(0.590096 -0.0874649 0.0212564)
(-0.399791 -1.26964 0.603631)
(1.69732 -1.46816 -0.0475907)
(2.49224 1.40261 -0.454944)
(-1.33889 1.43219 0.0397805)
(0.843394 -0.188607 0.0299149)
(1.20459 0.002195 -0.0405202)
(0.626509 0.00129706 0.0399566)
(0.839519 0.415254 -0.0240943)
(0.362898 -0.190048 -0.0499748)
(0.417413 0.128458 -0.0812035)
(0.85077 -0.210495 0.0995694)
(0.784656 0.25594 0.0413883)
(0.635193 0.0729415 0.0130114)
(1.00117 -0.0184247 -0.0167272)
(0.805153 0.185762 -0.0178541)
(0.695766 -0.17072 0.0244832)
(0.715976 0.225448 -0.00242701)
(1.06747 0.0541315 -0.0150671)
(0.622547 -0.0455069 0.0116654)
(0.794084 -0.214853 0.00946021)
(0.889126 0.0100162 -0.128952)
(0.564143 0.105555 -0.066714)
(0.553961 -0.166246 0.0582262)
(0.614554 0.141207 0.156437)
(0.998319 0.115588 -0.017223)
(0.697333 0.216092 0.00137588)
(0.63751 -0.152485 0.025747)
(0.983612 -0.160312 -0.00544405)
(0.70838 0.125168 -0.00453359)
(0.884076 -0.175458 0.0116149)
(0.67765 -0.0770248 0.0136989)
(0.98309 0.129856 -0.018554)
(0.93704 -0.215506 0.0132414)
(1.11858 0.202557 -0.0104354)
(0.705536 -0.0847148 0.0071095)
(0.664067 0.185392 -0.00769146)
(0.610941 0.191746 0.0484965)
(0.422919 -0.101316 -0.00936056)
(0.7596 -0.00168853 0.0225036)
(0.666084 -0.126621 -0.0580282)
(0.116422 0.571346 -0.173736)
(1.02282 0.542815 -0.238202)
(1.55819 -0.247164 0.211808)
(0.378817 -0.788983 0.231738)
(-0.33159 1.02768 -0.18361)
(1.27146 0.582572 -0.310785)
(1.00705 -0.368439 0.257206)
(-0.0682329 -0.770728 0.297039)
(0.92603 0.12706 -0.0236124)
(0.888149 -0.178693 -0.00271229)
(0.668537 0.112885 -0.00179709)
(0.638157 -0.0737422 0.0331993)
(0.724104 0.127968 0.0203276)
(0.662193 -0.0974191 0.0385184)
(0.973268 0.137164 -0.0291065)
(0.966666 -0.17275 -0.0225874)
(1.06328 -0.00913148 -0.00104805)
(0.780988 -0.182914 0.0380409)
(0.819332 0.189496 -0.0352008)
(0.663476 0.0220213 -9.64363e-05)
(0.760254 -0.0888422 0.00315044)
(1.08614 -0.00356181 -0.0048011)
(0.868867 -0.142074 0.0301813)
(0.801853 0.169319 -0.0259313)
(0.951076 0.145177 -0.0285485)
(0.857761 -0.193307 0.00140997)
(0.564984 -0.0850305 0.0383976)
(0.605891 0.18953 -0.00518285)
(0.732271 0.13518 0.0113214)
(0.70466 -0.153663 0.0321651)
(0.937685 0.236424 -0.0232165)
(1.12607 -0.107625 -0.0142547)
(0.763257 0.197159 -0.0153569)
(1.03021 0.054887 -0.00988393)
(0.633523 -0.0447429 0.00702179)
(0.848526 -0.1882 0.0212169)
(0.271655 -0.27768 0.109915)
(0.364749 0.348485 0.0159037)
(0.879786 0.223314 -0.112094)
(0.934254 -0.320027 -0.0246282)
(1.02495 0.00949834 -0.106328)
(0.693289 -0.458134 0.148519)
(0.656197 0.509112 -0.123314)
(0.0810141 -0.0850137 0.10294)
(0.790231 0.284699 0.0210559)
(0.633144 -0.0627759 0.0344793)
(1.03909 0.034595 -0.0258295)
(0.896621 -0.117219 -0.0241129)
(0.989658 0.0163546 0.00464016)
(0.792201 0.168527 -0.0360349)
(0.945268 -0.179972 0.0402418)
(0.619132 -0.142771 -0.0045174)
(0.946705 0.0439374 0.0447338)
(0.913365 -0.00844202 -0.0212055)
(0.908185 0.001501 -0.0449462)
(0.8698 0.0363864 0.0277301)
(0.668034 -0.104626 0.0108661)
(0.934516 0.160962 -0.0151141)
(0.930637 -0.163067 0.00272177)
(0.685027 0.114833 0.00562328)
(0.8231 -0.397581 0.012644)
(0.886711 0.102415 -0.0126633)
(0.973367 0.15667 0.00816589)
(0.447946 0.213161 -0.00626682)
(0.702358 -0.259878 -0.0102067)
(1.19219 0.102028 -0.0121383)
(0.745747 -0.077577 0.0143712)
(0.508149 0.18167 0.00913071)
(0.832925 -0.186421 -0.0434273)
(0.447603 0.104767 0.235403)
(0.683452 0.264697 -0.258044)
(0.784662 0.0421239 0.0632666)
(0.561564 -1.16326 0.271179)
(0.354114 0.320221 -0.271174)
(1.48598 0.578031 -0.446049)
(-0.154542 0.109803 0.367796)
(-0.274982 0.687784 -0.0201093)
(1.24775 0.714962 0.227525)
(1.28157 -0.565386 0.0345191)
(-0.115745 -0.744882 -0.238708)
(1.11881 0.587729 0.438217)
(-0.0749717 0.434805 -0.467614)
(0.37586 -0.369305 -0.439992)
(0.323255 -0.143389 0.388872)
(0.40074 -0.221841 0.00876953)
(0.687294 0.0337516 0.191513)
(0.578105 -0.0253847 -0.0112166)
(0.48661 0.0893881 -0.158079)
(1.84551 -0.6185 -0.11019)
(1.07541 0.900336 -0.455029)
(-0.805771 0.904053 0.0261962)
(0.103557 -1.25779 0.452664)
(1.91038 -0.252217 -0.171686)
(0.956637 0.804037 -0.367698)
(-0.509814 0.719612 0.0550172)
(-0.0928679 -1.66514 0.369667)
(0.458051 0.125379 0.000235903)
(0.850056 -0.395108 0.0041126)
(1.18384 -0.101345 0.00540196)
(1.07838 0.350504 -0.00672894)
(1.06225 -0.0757959 0.012068)
(0.959725 0.167942 -0.00892472)
(0.724823 -0.236165 0.00624776)
(0.685384 0.16946 -0.00531959)
(0.847452 -0.00790929 0.0498161)
(0.938399 -0.0131832 -0.0489887)
(0.950946 -0.131803 0.0219759)
(0.950881 -0.0355303 -0.0177229)
(0.647805 0.179279 0.121687)
(0.535827 0.0382991 -0.236)
(0.556416 -0.158581 -0.129954)
(0.845042 0.0954362 0.277303)
(0.635542 0.230645 -0.0163302)
(1.03845 0.142865 -0.0184192)
(0.593194 -0.241388 0.0143162)
(0.998439 -0.197942 0.021121)
(0.0641226 -1.84259 0.0289687)
(-1.55917 0.709868 0.364508)
(1.66343 2.24095 -0.10359)
(2.20901 -0.788459 -0.368121)
(0.127493 0.162759 0.15391)
(0.712869 -0.0755143 -0.206223)
(0.724482 0.181996 -0.353953)
(0.651706 -0.0693549 0.354671)
(0.610643 -0.151499 0.222462)
(0.792782 -0.0155608 -0.119076)
(0.365878 0.0679397 -0.234933)
(0.605829 -0.107307 0.139781)
(0.776365 -0.262279 0.0380794)
(0.978342 0.080309 -0.0530679)
(0.716299 0.265098 -0.0313298)
(0.481367 0.0255053 0.0531456)
(0.496982 0.287313 -0.0179517)
(0.490215 -0.22694 0.0494442)
(0.90659 -0.274108 0.0209274)
(1.02473 0.168106 -0.0504828)
(0.912527 -0.0121551 0.0437854)
(0.887313 -0.0731061 -0.0433918)
(0.974245 0.0537504 0.021345)
(1.0273 0.0366883 -0.0171376)
(0.637647 -0.329258 0.031237)
(1.02803 -0.0447451 -0.0230251)
(0.452218 0.0602579 0.0186768)
(0.767416 0.229543 -0.0251275)
(0.984534 0.0494191 -0.0178535)
(0.893504 -0.182921 0.00152972)
(0.521933 -0.122408 0.0230933)
(0.714375 0.280628 -0.00584741)
(1.00174 0.00176882 -0.017646)
(0.788985 0.244897 -0.0065951)
(0.803173 -0.190044 0.00187031)
(0.588202 0.0200703 0.0267162)
(1.56743 -0.176545 -0.00116489)
(1.20648 0.428424 -0.00314696)
(0.432472 0.159921 0.00590204)
(0.86687 -0.720154 0.00155485)
(1.34838 -0.12339 -0.0147562)
(1.01243 -0.48682 -0.023931)
(0.770866 0.15608 0.0229926)
(0.691259 -0.392934 0.0176124)
(0.662028 0.193939 0.00228114)
(0.550676 -0.0676312 0.0463371)
(0.943703 0.0972551 -0.0357015)
(0.859644 -0.19455 -0.0057082)
(1.12059 0.148052 0.022854)
(0.8445 0.132919 -0.00619838)
(0.919577 0.229144 -0.0225339)
(0.931659 0.347306 0.00983968)
(0.671975 0.257524 -0.00596688)
(0.535051 -0.188708 0.011019)
(0.930574 -0.191752 0.0118758)
(0.981297 0.0928511 -0.0126913)
(0.994155 -0.0874597 -0.0257719)
(0.900851 -0.0829937 -0.0276979)
(0.845313 -0.178174 0.0327162)
(0.820022 0.0641327 0.0260682)
(0.919209 0.114842 -0.03424)
(0.871316 0.103999 0.00930228)
(0.802018 0.0275542 -0.00774148)
(0.986904 0.0583374 0.0364875)
(0.996199 0.0545436 -0.0224736)
(0.796879 -0.213064 0.0308712)
(0.682987 0.209314 -0.02648)
(0.552384 -0.0669576 0.0185352)
(0.769443 -0.239474 0.0265499)
(1.09958 0.0437391 -0.0434976)
(0.678596 0.238833 0.0422465)
(0.959094 0.188032 -0.0220251)
(1.00896 0.106154 -0.023158)
(0.830407 0.136797 0.0443157)
(0.677686 -0.102471 0.0281403)
(1.02486 -0.186407 -0.0442791)
(0.871317 -0.197337 0.0387102)
(0.953521 0.11348 -0.0568967)
(0.545395 0.220523 -0.0317645)
(0.565404 -0.207926 0.0570606)
(0.868975 0.261252 -0.0229979)
(0.729348 -0.238527 0.0266046)
(0.484297 0.136646 0.0627768)
(0.947071 -0.00442573 -0.0634307)
(0.0618012 -0.236321 0.137172)
(0.397733 0.550818 -0.0865336)
(1.04024 0.151534 -0.138001)
(0.801949 -0.504424 0.104565)
(0.732417 0.193215 -0.0132675)
(0.734662 -0.112593 0.00452162)
(1.12747 -0.0137122 0.0189166)
(0.942664 0.296981 -0.00663521)
(1.10752 -0.0324792 -0.0158144)
(0.804699 0.187132 0.00205921)
(0.63714 -0.147157 0.0239568)
(0.918818 -0.280556 -0.00595947)
(0.876657 -0.231849 0.0337177)
(0.445151 0.238118 -0.0283134)
(0.974738 0.175043 -0.0564682)
(0.539223 -0.240635 0.0581695)
(0.818602 0.0188192 -0.0214908)
(0.886251 0.0314132 0.0017026)
(0.730387 0.01658 0.0329499)
(0.897261 -0.0571345 -0.00600925)
(1.05786 0.0815208 -0.0243442)
(0.919887 -0.254621 -0.00262152)
(0.746284 0.324845 -0.000702487)
(0.486222 -0.068511 0.0333352)
(0.688238 0.150053 0.0705774)
(0.382036 0.0667848 -0.0433005)
(0.784938 -0.0879123 0.056843)
(0.486828 -0.231857 -0.079569)
(0.569238 0.278136 0.00427047)
(1.23973 0.385031 -0.00544665)
(0.607961 -0.315722 0.00309224)
(1.24657 -0.352651 0.00113833)
(1.20944 -0.294304 -0.44254)
(0.294436 -0.125803 0.268002)
(0.566306 0.0954973 0.49451)
(0.497569 0.553619 -0.278085)
(-0.107082 -1.42635 -0.350471)
(1.35093 1.27541 0.380634)
(-0.817304 0.612346 0.228382)
(1.69021 -0.797655 -0.228699)
(0.733948 0.156996 -0.00958605)
(0.634314 -0.0594532 0.0123593)
(0.791301 -0.105305 0.017299)
(0.894553 0.0144849 -0.0173178)
(0.855257 -0.262669 0.0276221)
(0.61971 0.259533 -0.0235546)
(0.937656 0.124463 -0.0598205)
(0.455978 -0.0859331 0.0603557)
(0.917046 -0.0799736 -0.00253237)
(0.673845 -0.21314 0.00671151)
(0.912334 0.0642687 -0.00930891)
(0.660551 0.173414 0.0127934)
(0.693609 -0.189132 0.0773989)
(0.908552 -0.0481439 -0.0845197)
(0.489575 -0.00222901 0.0966317)
(0.66964 0.243854 -0.0885859)
(0.269234 -0.145246 0.0837109)
(0.509613 0.450636 -0.0934012)
(1.08505 0.128717 -0.08493)
(0.753808 -0.442593 0.108569)
(0.610002 -0.0902342 0.0488184)
(0.885869 -0.172902 0.0120941)
(0.662884 0.211524 -0.0105669)
(0.976082 0.115392 -0.0479873)
(1.08954 0.115746 -0.0165463)
(0.853844 0.267501 0.00479254)
(1.03266 -0.219358 -0.00796782)
(0.599505 -0.0569846 0.0227913)
(0.84461 0.183204 -0.0311825)
(0.952783 -0.0214212 -0.039038)
(0.801094 -0.205671 0.0391382)
(0.579877 0.0182927 0.0381906)
(1.04344 0.097642 -0.167989)
(0.734348 -0.397711 0.197649)
(0.506594 0.527181 -0.158032)
(0.148282 -0.128877 0.166415)
(0.754962 0.241332 0.00958)
(1.09433 0.167678 -0.0232955)
(0.587464 -0.147483 0.031647)
(1.07887 -0.258491 -0.0123074)
(1.1164 0.0544441 -0.00623573)
(0.710677 -0.100094 0.00430098)
(0.909627 -0.169705 0.0291558)
(0.782894 0.223043 -0.0251678)
(1.09459 0.0935262 -0.00350703)
(0.756675 -0.210435 0.00263347)
(1.00846 -0.132557 0.0206573)
(0.729646 0.187655 -0.0161309)
(0.72316 0.261486 -0.0352167)
(1.16703 0.143049 -0.00179017)
(0.730782 -0.080544 3.30684e-06)
(0.951196 -0.153426 0.0392175)
(1.30399 0.101292 -0.0269465)
(0.820579 0.352428 0.0190061)
(0.422466 -0.106621 0.0377357)
(1.0393 -0.509306 -0.0220006)
(1.2652 -0.0659744 -0.00404483)
(1.16804 0.51347 -0.000801126)
(0.510237 0.193792 0.00954909)
(0.905256 -0.263763 -0.000284544)
(0.619683 -0.000741503 -0.00196439)
(1.05687 -0.470888 0.00350634)
(1.03614 0.177227 -0.00657035)
(1.25085 0.0285519 0.00555268)
(0.832411 0.110549 -0.0346272)
(0.985692 0.0130423 -0.00145242)
(0.920281 -0.107968 0.0394935)
(0.752661 -0.0898931 7.30897e-05)
(1.01465 0.033513 -0.0260859)
(0.852844 0.195504 0.0177525)
(0.920703 -0.120397 -0.0208127)
(0.691047 -0.0275037 0.0355515)
(0.476179 0.0725712 0.0122567)
(0.659284 -0.17602 0.0520353)
(0.797188 0.220936 -0.0477348)
(0.896171 -0.0647359 -0.0161386)
(0.484459 0.179862 0.0163351)
(0.547728 -0.220881 0.056779)
(0.951843 -0.109252 -0.0207605)
(0.831574 0.205523 -0.0528217)
(0.523419 0.102332 0.0358947)
(0.722676 -0.228032 0.0452024)
(0.926322 -0.0124098 -0.0376159)
(0.845457 0.18008 -0.036075)
(0.921659 0.152093 -0.0505927)
(0.553417 0.157445 -0.00653135)
(0.937555 -0.123833 0.00677178)
(0.651634 -0.20785 0.0526691)
(0.660855 0.167054 0.00177213)
(0.629426 -0.17487 0.012583)
(0.881362 0.0781298 -0.0163874)
(0.893189 -0.0931087 0.00751376)
(0.847136 -0.309018 0.0481667)
(0.904742 0.151618 -0.0898648)
(0.555547 0.273792 -0.0404102)
(0.357212 -0.118723 0.0883103)
(0.854983 -0.366517 0.0428825)
(1.02619 0.165408 -0.0818768)
(0.552561 0.410927 -0.0373007)
(0.291912 -0.120414 0.0792036)
(0.95202 0.0101764 -0.040699)
(0.819116 -0.119802 0.0223226)
(0.867503 0.0473095 -0.0181485)
(0.79878 0.0601751 0.0409084)
(0.653152 -0.119356 0.0610337)
(0.719809 0.0365745 -0.0482994)
(0.781802 0.00798874 -0.0190552)
(0.61158 0.0638616 0.0150964)
(0.941363 0.0196074 -0.0112718)
(0.816397 -0.149668 0.00639374)
(0.623948 0.0166487 0.0186803)
(0.793802 0.184085 -0.0108442)
(0.284002 0.222414 0.10227)
(0.758362 0.300594 0.152283)
(0.359944 -0.199292 -0.172335)
(0.791233 -0.233877 -0.0948529)
(0.663133 -0.134912 0.0667118)
(0.819301 -0.0773532 -0.0177257)
(0.799522 0.0897549 -0.0531397)
(0.557714 0.037679 0.0140119)
(0.686971 0.152392 -0.0303079)
(0.999872 0.446207 -0.416794)
(0.273585 -0.121944 0.379148)
(1.14845 -0.491324 0.0392874)
(0.93651 0.143656 -0.0399688)
(0.648695 0.0830066 -0.00600413)
(0.811621 -0.113905 0.0428532)
(0.930804 -0.044049 0.00652006)
(1.04282 -0.154415 0.00692099)
(0.513428 -0.0300533 -0.000866323)
(0.85518 0.0803069 -0.00498049)
(0.764831 0.184596 0.00156105)
(0.522002 -0.020651 -0.00269761)
(0.753458 0.181982 -0.000110859)
(0.835619 -0.0126696 0.00732329)
(1.01765 -0.255332 -0.00626703)
(0.874976 -0.0396163 -0.0286796)
(0.931481 0.0140145 -0.0288915)
(0.794809 -0.11934 0.0378023)
(0.736013 0.0909619 0.0266499)
(1.03696 -0.0113489 -0.0429641)
(0.670109 -0.300163 0.074092)
(0.39022 0.0426856 0.0399953)
(0.75278 0.376129 -0.0603454)
(0.893143 0.0398674 -0.0368025)
(0.700124 -0.263877 0.0679038)
(0.341607 -0.0539885 0.0322909)
(0.63481 0.274696 -0.0562794)
(1.06964 -0.0617067 0.0264416)
(0.734518 0.0712427 -0.0244734)
(1.10842 -0.0178286 0.00290602)
(0.966801 -0.367144 -0.0027859)
(0.268294 -0.100974 0.0613841)
(0.691908 -0.29009 0.112934)
(0.940323 0.00671651 -0.0632852)
(0.621477 0.383969 -0.095547)
(0.473054 0.0501281 0.0269535)
(1.24044 0.148858 -0.0201342)
(1.13257 -0.27435 -0.0137519)
(1.04192 0.467487 0.0122261)
(1.06928 -0.966511 -0.611725)
(2.70575 1.5651 -0.267286)
(0.542267 -0.723046 0.178233)
(-1.69074 0.880736 0.59509)
(0.594769 -0.170205 0.0493629)
(0.809898 -0.22476 0.0587975)
(0.572953 0.23345 -0.045918)
(1.03905 0.0690607 -0.05095)
(0.992017 0.62328 -0.00559013)
(0.453356 -0.0172147 0.00275527)
(1.46102 0.0417051 0.00171712)
(1.05126 -0.427103 0.00263882)
(0.661175 -0.133064 -0.201336)
(0.418814 -0.0752248 -0.230525)
(0.568495 0.18461 0.195152)
(0.387899 0.13215 0.207738)
(0.682596 -0.245846 0.106108)
(0.33892 0.0469145 0.0553105)
(0.852524 0.0579032 -0.0591866)
(0.696107 0.253292 -0.0852784)
(0.90177 -0.107443 0.0217953)
(0.961609 0.0512015 -0.0419011)
(0.72061 0.21809 -0.0176544)
(0.652404 -0.125055 0.0424177)
(0.912427 0.163605 -0.0655357)
(0.688556 0.221976 -0.00889686)
(0.903425 -0.229637 0.00901344)
(0.47455 -0.0239242 0.0671558)
(0.932636 0.0915376 -0.0300901)
(0.919957 -0.160516 -0.00316849)
(0.572715 -0.0828712 0.0405094)
(0.716076 0.199598 -0.0012333)
(0.512416 1.00595 -0.417738)
(-0.206627 0.246896 0.00964802)
(2.09869 0.344268 0.244113)
(0.418834 -1.09191 0.409277)
(0.645938 0.0743906 0.0361318)
(0.824092 -0.137471 0.000780474)
(0.834455 0.0731901 -0.00179599)
(0.849033 0.056808 -0.0356953)
(0.720103 0.140449 -0.0307375)
(0.982475 -0.00341027 -0.0274076)
(0.730912 -0.14337 0.0395374)
(0.718095 -0.019151 0.0268273)
(0.619583 0.155189 -0.0145611)
(0.849002 0.142411 -0.0457063)
(0.8036 -0.15897 0.0203732)
(0.527811 -0.066604 0.0381246)
(0.719808 0.0962016 -0.017182)
(0.935706 0.0367358 -0.0145013)
(0.823835 -0.130799 0.010114)
(0.865303 -0.0187743 0.0244304)
(-0.0670713 -0.922695 0.151813)
(0.0675348 0.30719 0.66053)
(1.94016 -0.565841 -0.594462)
(0.571432 0.948735 -0.157969)
(0.652132 0.072766 -0.0304027)
(0.935445 -0.0564448 0.0519663)
(0.969275 -0.18932 0.0361032)
(1.1824 0.241242 -0.0524294)
(0.922848 -0.0171068 -0.0467347)
(0.678311 0.207703 -0.0318503)
(0.638199 -0.265453 0.037959)
(0.445926 0.00468509 0.038914)
(0.947488 -0.207904 -0.0168646)
(1.026 0.125222 0.052332)
(0.899675 0.102884 -0.0512615)
(0.927451 -0.0613561 0.0231401)
(0.878635 -0.0591431 -0.0146833)
(0.80718 -0.0417633 0.0466871)
(0.830053 -0.00236575 -0.0455177)
(0.915136 -0.0689325 0.0185181)
(0.80023 0.199966 -0.0235993)
(0.549975 0.027161 0.0097911)
(0.751896 -0.226013 0.0183592)
(0.954072 -0.0397484 -0.00299684)
(0.608141 1.49229 0.415809)
(1.05805 -1.59304 -0.423164)
(2.27308 0.675123 0.699802)
(-0.950655 -0.106598 -0.720689)
(1.02867 -0.135821 0.00657801)
(0.620843 -0.21408 0.0448742)
(0.495883 0.127414 -0.00581824)
(0.877153 0.285724 -0.0417574)
(0.88042 0.0843171 -0.0272474)
(0.66645 0.129195 -0.0145317)
(0.735333 -0.161234 0.0210928)
(0.581925 -0.0105915 0.0213577)
(0.64568 0.122582 0.0147515)
(0.826935 -0.0882743 -0.0053022)
(0.668297 -0.0786255 0.0163098)
(0.842623 0.131394 -0.0211337)
(0.745846 0.124298 0.0010282)
(0.772279 -0.125842 0.00482452)
(1.04437 0.0934694 -0.00817822)
(0.95289 -0.155644 0.00599575)
(1.00647 0.0602371 0.00553767)
(0.906802 -0.247259 0.0487834)
(0.763647 0.225347 -0.045399)
(0.504711 -0.0818628 -0.00477995)
(0.806745 0.23379 -0.0300554)
(0.678171 -0.273197 0.0380135)
(1.0314 -0.07142 -0.0293124)
(0.517609 0.0509303 0.026428)
(1.05655 0.1057 -0.0328569)
(0.584532 -0.161614 0.041406)
(0.906609 -0.168911 -0.031079)
(0.633227 0.291565 0.0281003)
(0.61896 0.0543947 0.0252025)
(0.688044 -0.137162 0.0191205)
(0.86399 -0.061933 -0.0153844)
(0.7808 0.129138 -0.0239069)
(0.85574 -0.0350336 0.0342741)
(0.793731 -0.0275717 -0.000919889)
(0.768945 0.124581 -0.0323234)
(0.972616 0.0646914 -0.000143318)
(0.922366 0.140392 -0.0292531)
(0.861507 -0.173417 0.0178475)
(0.665785 0.13984 -0.0104129)
(0.611922 -0.0933927 0.0230817)
(1.03291 0.0199957 -0.0126464)
(0.858578 -0.239999 0.00612389)
(0.541696 -0.00668782 0.0195003)
(0.818555 0.257774 -0.0105524)
(0.887227 -0.246241 -0.0217888)
(1.02707 -0.00140758 -0.0270516)
(0.614459 -0.0235192 0.0358755)
(0.864424 0.156268 0.0203327)
(-2.50226 1.39066 0.79574)
(0.555167 -3.82019 0.270361)
(1.14 1.9009 -0.303102)
(3.27107 0.7745 -0.793134)
(0.60611 0.0364651 0.0294146)
(0.836772 -0.0211689 -0.0188225)
(0.688661 -0.119193 0.0183893)
(0.700065 0.137763 -0.0229642)
(0.892544 0.0111014 -0.034972)
(0.648858 -0.166225 0.0326576)
(0.580394 0.0344083 0.0285609)
(0.690045 0.124419 -0.0275301)
(0.869048 0.209304 -0.114391)
(0.935731 -0.249618 -0.0144603)
(0.376863 0.216175 0.00890939)
(0.439728 -0.282072 0.116784)
(0.298004 1.29615 0.13922)
(1.13128 -0.903746 -0.133646)
(1.48717 0.269781 0.637295)
(-0.991551 -0.733237 -0.642112)
(0.850667 0.590213 0.0093005)
(-0.161897 0.470921 -0.307045)
(0.217116 -0.704256 -0.0117799)
(1.10316 -0.0594343 0.345456)
(0.458965 0.061592 0.0361835)
(0.648237 -0.260374 0.0504869)
(0.953127 0.0228272 -0.0441495)
(0.708427 0.216946 -0.0446607)
(0.629828 0.088521 -0.00527908)
(0.79757 0.139305 -0.0165436)
(0.999803 -0.0496962 0.0130145)
(0.654825 -0.260022 0.0128024)
(0.580207 0.0924095 0.0890402)
(0.540662 -0.114642 -0.00169464)
(0.741805 0.140756 0.0140413)
(0.807218 -0.0750809 -0.101619)
(1.18611 -0.0998676 -0.00273578)
(0.698021 -0.420107 0.00153495)
(0.540973 0.244438 0.0101676)
(1.03853 0.242345 -0.00353181)
(1.34304 -0.262839 0.00899231)
(0.910892 -0.585128 0.00417881)
(1.07235 0.368688 -0.00671236)
(0.423991 -0.107555 -0.00447076)
(0.453201 -0.103351 0.10019)
(0.818311 -0.186851 0.0607785)
(0.740931 0.141048 -0.117295)
(0.589799 0.0964219 -0.0551064)
(0.985186 -0.0499837 -0.000762985)
(0.94898 0.157889 -0.00629978)
(0.818575 -0.148176 0.00291523)
(0.697115 0.0913746 0.00851801)
(0.852247 -0.462726 -0.000856943)
(0.414625 0.336581 0.0123954)
(1.10241 0.598132 -0.00202852)
(1.47658 0.0893688 -0.00674553)
(0.93361 0.165527 -0.0345976)
(0.594137 0.210577 -0.0132493)
(0.869745 -0.228881 0.0189887)
(0.489797 -0.1274 0.0283968)
(1.03496 -0.41519 0.232122)
(-0.102252 -0.552744 0.204028)
(1.0628 0.7419 -0.209873)
(-0.306992 0.701281 -0.184902)
(0.488881 0.0455423 0.0302791)
(0.61128 -0.212261 0.0593495)
(0.722276 0.156997 -0.0536643)
(0.884475 -0.0544411 -0.037344)
(0.655064 0.0494664 0.251058)
(0.431201 0.0236929 -0.0401501)
(0.576986 -0.113921 -0.213524)
(0.503153 -0.0678093 0.0349516)
(0.956277 0.424002 -0.346068)
(-0.123389 0.765604 -0.180289)
(1.23516 -0.828201 0.262572)
(-0.504558 -0.879803 0.338633)
(0.976268 0.0488148 -0.229017)
(0.804991 0.263418 -0.0422501)
(0.721819 -0.534093 0.0535441)
(0.236621 0.131622 0.197946)
(0.787664 -0.586279 -0.12211)
(0.920903 0.201298 0.254685)
(-0.0752383 -0.25187 -0.274665)
(0.263284 0.456808 0.131719)
(0.798295 0.0744372 -0.164851)
(0.614724 -0.0866757 0.197425)
(0.47001 0.09512 -0.0303909)
(0.748454 -0.0531497 0.0231469)
(0.580757 0.0190745 -0.00904418)
(0.824828 -0.157812 0.00545108)
(1.02567 -0.215794 0.0130843)
(1.07106 0.308267 -0.00790738)
(0.830691 0.106821 -0.0110994)
(0.999132 0.121145 -0.00637882)
(0.807366 -0.184592 0.00408209)
(1.10433 -0.0726425 0.0168748)
(-2.41341 1.50176 0.404847)
(1.6186 1.39758 -0.400551)
(3.14981 -0.28565 0.0816408)
(-0.167925 -3.56588 0.372939)
(0.664959 -0.132176 0.0190179)
(0.984377 0.0774005 -0.0238139)
(0.660866 0.18544 -0.0213492)
(0.861073 -0.122416 0.0271303)
(0.841279 0.0167696 -0.0472167)
(0.531221 0.0165372 0.0394499)
(0.655764 -0.166356 0.0178482)
(0.683766 0.161504 -0.00907533)
(0.814894 0.00594386 0.0342138)
(0.910483 0.106395 -0.0258771)
(0.972678 -0.069084 -0.0214525)
(0.87254 0.0194245 0.0198932)
(0.898603 0.079448 0.0243046)
(0.929823 -0.0815748 0.0330276)
(0.933202 -0.0179583 -0.0258901)
(1.03942 -0.0378325 -0.0251843)
(1.02486 -0.0444705 0.00239547)
(0.802742 -0.0750195 0.0332493)
(0.874386 0.0139313 -0.00264233)
(0.868794 0.0592053 -0.0311838)
(1.45731 1.3443 0.309543)
(0.95738 -0.196463 1.13266)
(1.55017 -1.31013 -0.312499)
(-1.6742 -0.513406 -1.10875)
(1.05027 -0.032739 0.0119734)
(0.992638 0.147107 -0.00605997)
(0.785679 -0.299183 0.00389837)
(0.635413 0.173803 -0.00461152)
(0.881213 0.00575187 0.00724508)
(0.906528 0.0296481 -0.00628069)
(1.01264 -0.00179031 -0.0342531)
(0.988067 0.0391501 0.0364185)
(0.964667 0.534467 -0.00336379)
(0.601557 0.0870092 0.0107446)
(1.38993 -0.210919 -0.00355644)
(0.666905 -0.282833 0.00126381)
(0.899129 -0.0590168 0.00178876)
(0.597388 0.136937 0.0344217)
(1.00141 0.0818668 -0.00297295)
(0.741794 0.0192095 -0.0327779)
(0.69948 0.0883841 0.0378063)
(0.880415 -0.146985 -0.0217068)
(0.727616 0.0304374 -0.0281059)
(0.94337 -0.131288 0.0204683)
(0.896953 0.176575 -0.0218961)
(0.773287 0.0553197 0.0418756)
(0.80465 -0.095398 0.0275021)
(1.03233 -0.0269581 -0.0422516)
(0.0463214 -0.177908 -0.00302534)
(0.839479 -0.471138 -0.369605)
(0.650216 0.162519 -0.00204851)
(0.537637 0.310429 0.424152)
(0.687939 0.077117 0.0153971)
(0.807899 0.00533287 -0.0624728)
(0.600099 -0.113703 -0.00517156)
(0.659012 0.059296 0.051973)
(0.320237 0.141569 0.0611805)
(0.553669 -0.333307 -0.0767391)
(0.77931 -0.0111465 -0.0681764)
(0.733708 0.233634 0.0971776)
(0.968132 0.344956 -0.112464)
(0.213117 0.414908 -0.0148462)
(0.241006 -0.402763 0.111077)
(0.998636 -0.368124 0.0126447)
(0.830429 -0.0562522 -0.074805)
(0.573041 -0.116295 0.0964655)
(0.573765 0.109537 -0.105955)
(0.601802 0.0229308 0.0976632)
(0.294091 0.2967 -0.0754078)
(0.860813 0.364499 0.11585)
(0.216512 -0.182626 -0.125087)
(0.888014 -0.244119 0.0905789)
(0.807004 0.129075 -0.0983016)
(0.285313 -0.256751 0.104797)
(0.796098 -0.16583 -0.109261)
(0.401962 0.31477 0.0933514)
(0.999942 -0.0152046 0.000713356)
(0.691221 0.106506 -0.00146234)
(0.742266 -0.130042 0.0439487)
(0.863082 0.152186 -0.0409796)
(0.542058 -0.0146141 0.0279959)
(0.717921 -0.26901 0.0446444)
(0.767075 0.195339 -0.0364415)
(0.99671 -0.0430101 -0.0296456)
(1.08446 0.142903 -0.151718)
(0.417977 0.638222 -0.0436483)
(0.0477141 -0.238879 0.150937)
(0.85783 -0.507635 0.0476933)
(0.93386 -0.149482 0.00140703)
(0.593888 0.194244 -0.00218325)
(0.900006 0.191917 -0.0455906)
(0.566871 -0.124579 0.0467263)
(1.02902 0.0297339 -0.071487)
(0.707152 -0.361671 0.0608801)
(0.321302 -0.04885 0.0687831)
(0.62938 0.370404 -0.0499316)
(0.676656 0.0581534 0.0240327)
(0.942549 0.137998 -0.0309979)
(0.720036 -0.141012 0.0407487)
(0.961256 -0.155059 -0.0265385)
(0.772403 0.0359019 -0.0638252)
(0.706333 0.123202 0.00753713)
(0.694928 -0.159827 0.00246332)
(0.51429 0.00807922 0.0554339)
(0.839732 0.0996787 -0.0486027)
(0.760435 -0.116872 0.014917)
(0.625695 -0.0675603 0.0397728)
(0.589325 0.104927 -0.00898034)
(0.786126 0.314638 -0.0491208)
(0.683105 -0.297003 0.0613255)
(0.939541 0.00593684 -0.0510145)
(0.322703 0.0956963 0.0476944)
(0.489747 -0.442655 -0.000548662)
(0.472654 0.342516 0.000593178)
(1.1918 0.738454 0.00180186)
(1.60012 -0.345711 0.00241185)
(1.70414 -0.18187 -0.00415622)
(0.336558 -0.0412289 0.00537104)
(0.902672 0.674246 -0.00253176)
(0.773533 -0.718618 -0.00029181)
(0.544718 -0.329622 0.0761161)
(0.338426 0.198426 -0.00870173)
(0.907915 0.240765 -0.0733474)
(0.947629 -0.187279 0.0093831)
(0.698935 -0.309614 0.0313682)
(0.937442 0.0495298 -0.0477847)
(0.436667 0.0817312 0.0449535)
(0.73368 0.211855 -0.027667)
(0.653587 0.0955804 0.00657756)
(0.762449 0.0712244 -0.0233528)
(0.759287 -0.0527202 0.00190108)
(0.638068 -0.0600091 0.0187684)
(0.708479 -0.0959112 0.0140595)
(0.922849 0.0743531 -0.0191074)
(0.845866 -0.112392 0.00246398)
(0.693094 0.120824 0.00663861)
(0.665788 0.125507 -0.0065269)
(0.916924 -0.157619 0.00232548)
(0.890321 0.119066 -0.0238991)
(0.612664 -0.114584 0.0345551)
(0.545505 0.128057 -0.005189)
(0.609844 -0.156656 0.0531966)
(0.895609 -0.161656 0.0048452)
(0.877731 0.162968 -0.0533803)
(0.816768 0.0843993 -0.0287434)
(0.72475 -0.16308 0.0363879)
(0.69455 0.019103 0.0273116)
(0.934992 -0.0596643 -0.0283516)
(0.571855 0.195714 -0.00233446)
(0.916106 0.105656 -0.0152718)
(1.07182 0.132384 -0.00102671)
(0.832687 -0.368789 0.0147834)
(1.07631 -0.756476 -0.0539876)
(0.0730606 0.940461 0.016197)
(1.21585 0.290636 -0.264329)
(-0.483896 -0.606622 0.27039)
(0.886759 0.108668 -0.0372244)
(0.879018 -0.0885769 0.00503107)
(0.683946 -0.00307179 0.0384566)
(0.7506 0.126479 -0.00488498)
(1.31267 0.528786 -0.217653)
(-0.346261 -0.633721 0.215622)
(1.19162 -0.952029 0.0835456)
(-0.031743 0.987483 -0.0957152)
(1.03459 -0.211597 -0.13782)
(0.901201 0.303494 -0.112674)
(0.159254 0.247015 0.107741)
(0.376166 -0.579681 0.121754)
(0.520711 0.127383 0.0075159)
(1.18815 0.224809 -0.0181736)
(0.893431 -0.253766 -0.00816353)
(0.79378 -0.142951 0.0249356)
(1.45546 0.631116 0.246509)
(-0.0577118 0.988022 0.125257)
(-0.456007 -0.610941 -0.224904)
(1.00546 -0.837431 -0.130544)
(0.854697 -0.619929 0.0678873)
(1.05662 0.195681 -0.438386)
(0.161883 0.808025 -0.0787972)
(-0.0448715 -0.24597 0.433412)
(0.968362 0.068236 -0.200965)
(0.746835 -0.439083 0.0534476)
(0.207038 -0.168343 0.194512)
(0.523112 0.431679 -0.0576148)
(0.452192 0.140608 0.0459754)
(0.498637 -0.199939 0.0532802)
(0.800604 -0.126687 -0.0544394)
(0.804617 0.137787 -0.0432981)
(0.663438 -0.195066 -0.000967479)
(0.81404 0.2338 -0.0231065)
(1.15432 0.0633097 0.00140349)
(1.04562 -0.245846 0.0277002)
(0.649569 -0.292958 0.0230551)
(1.24192 -0.177299 -0.0159689)
(0.644484 0.321929 0.0124044)
(1.15057 0.30948 -0.0165378)
(0.478394 0.00947707 0.173995)
(0.656693 -0.207543 -0.0458681)
(0.71374 0.0121275 -0.191552)
(0.70428 0.0462849 0.0615996)
(0.688176 0.055092 0.0322487)
(0.720132 -0.154986 0.031739)
(1.02895 -0.0115498 -0.033316)
(0.787514 0.198228 -0.025289)
(0.890173 -0.099246 0.0120216)
(0.841314 0.0580394 -0.0393563)
(0.776853 0.0236469 -0.0100354)
(0.720567 -0.0468329 0.0407163)
(0.578599 0.301383 0.165513)
(0.277553 0.029367 0.0524534)
(0.826303 -0.0796066 -0.0416116)
(0.424166 -0.236103 -0.179108)
(0.723296 0.227591 -0.0529842)
(0.983362 -0.0511413 -0.0336605)
(0.707299 -0.237452 0.0680852)
(0.498571 -0.0444659 0.0303621)
(0.910987 0.00991212 -0.0406442)
(0.651958 -0.287043 0.0487982)
(0.433308 0.0687572 0.036948)
(0.720595 0.183888 -0.0412105)
(0.534103 0.21722 0.0069686)
(0.972752 -0.151523 -0.0103897)
(0.870829 0.228201 -0.0635349)
(0.517001 -0.176181 0.0674111)
(0.797448 0.106856 0.0322804)
(0.777774 -0.107346 0.0343614)
(0.920257 0.0389325 -0.0272199)
(0.935956 -0.022033 -0.0336978)
(0.911975 0.0758097 -0.0411618)
(0.847196 0.0170947 0.0427857)
(0.798214 0.00494122 -0.00980117)
(0.872482 -0.0674956 0.0117725)
(0.730942 -0.352436 0.0824339)
(1.10883 0.0927098 -0.0555211)
(0.540019 0.504983 -0.0675442)
(0.284905 -0.105187 0.0531771)
(0.966949 -0.00223805 0.00389707)
(0.830456 0.127378 -0.0396268)
(0.748416 -0.0572313 -0.00382813)
(0.889398 -0.0760578 0.0418809)
(0.944375 0.188177 -0.0255139)
(1.05244 -0.196059 -0.0126933)
(0.722639 0.175296 0.00934243)
(0.586348 -0.130189 0.0353324)
(0.698401 0.2096 -0.0102024)
(0.866884 -0.188184 0.00565505)
(0.545461 -0.0752624 0.0386479)
(0.935151 0.0663006 -0.028321)
(1.02767 -0.0576163 -0.042484)
(0.629298 -0.324187 0.0473247)
(0.827385 0.433621 -0.0398379)
(0.298236 0.126833 0.0397005)
(0.953076 -0.0385274 0.00338761)
(0.871386 0.175766 -0.0396995)
(0.657163 0.0573207 -0.00352745)
(0.766162 -0.0918347 0.0417518)
(0.944206 -0.170517 0.0073728)
(0.663515 0.148453 -0.000249235)