/*--------------------------------*- C++ -*----------------------------------*\
| =========                 |                                                 |
| \\      /  F ield         | foam-extend: Open Source CFD                    |
|  \\    /   O peration     | Version:  3.0                                   |
|   \\  /    A nd           | Web:         http://www.extend-project.de       |
|    \\/     M anipulation  |                                                 |
\*---------------------------------------------------------------------------*/
FoamFile
{
    version     2.0;
    format      ascii;
    class       volScalarField;
    location    "38";
    object      p;
}
// * * * * * * * * * * * * * * * * * * * * * * * * * * * * * * * * * * * * * //

dimensions      [0 0 0 0 0 0 0];

internalField   nonuniform List<scalar> 
576
(
-7.24659
-7.31549
-5.67811
-5.77989
-4.86556
-5.01966
-4.51092
-4.66043
-4.4496
-4.55671
-4.60043
-4.63915
-7.12221
-7.19002
-5.58072
-5.68078
-4.78215
-4.9336
-4.43362
-4.58057
-4.37338
-4.47865
-4.52165
-4.55971
-6.87674
-6.94214
-5.38832
-5.4849
-4.61724
-4.76347
-4.2807
-4.42258
-4.22251
-4.32416
-4.36564
-4.40239
-6.51283
-6.57485
-5.10322
-5.19474
-4.37297
-4.51151
-4.05427
-4.18867
-3.99919
-4.09547
-4.13478
-4.16959
-6.03825
-6.09568
-4.73132
-4.81613
-4.05426
-4.18267
-3.75875
-3.88334
-3.70766
-3.79692
-3.83334
-3.8656
-5.45959
-5.5116
-4.27794
-4.35468
-3.66579
-3.78194
-3.39863
-3.51131
-3.35246
-3.43318
-3.46613
-3.49531
-4.78828
-4.83382
-3.75188
-3.81915
-3.21498
-3.31682
-2.98065
-3.07946
-2.94014
-3.01092
-3.0398
-3.06538
-4.03429
-4.07273
-3.16112
-3.21784
-2.70878
-2.79463
-2.51137
-2.59465
-2.47727
-2.53692
-2.56127
-2.58283
-3.212
-3.24253
-2.51677
-2.5619
-2.15661
-2.22493
-1.99942
-2.06571
-1.97224
-2.01973
-2.0391
-2.05626
-2.33405
-2.3563
-1.82887
-1.86171
-1.56717
-1.61686
-1.45297
-1.50116
-1.43324
-1.46777
-1.48185
-1.49433
-1.41683
-1.43028
-1.11014
-1.13006
-0.951269
-0.981425
-0.881926
-0.91118
-0.86994
-0.890892
-0.899431
-0.907001
-0.474724
-0.479279
-0.371974
-0.378694
-0.318754
-0.328904
-0.295533
-0.305371
-0.291539
-0.298582
-0.301445
-0.30399
0.474898
0.479441
0.372137
0.378793
0.318898
0.328968
0.295667
0.305442
0.291648
0.298656
0.301532
0.30407
1.41697
1.43042
1.11028
1.13014
0.951396
0.981474
0.882047
0.911239
0.870039
0.890956
0.899509
0.907072
2.33426
2.35649
1.82906
1.86183
1.56733
1.61695
1.45311
1.50125
1.43336
1.46785
1.48195
1.49442
3.21211
3.24265
2.51689
2.56196
2.15672
2.22498
1.99952
2.06576
1.97233
2.01978
2.03917
2.05632
4.03453
4.07295
3.16133
3.21799
2.70896
2.79473
2.51153
2.59476
2.4774
2.53702
2.56138
2.58293
4.78836
4.8339
3.75198
3.8192
3.21507
3.31686
2.98074
3.07951
2.94021
3.01097
3.03987
3.06545
5.45986
5.51184
4.27816
4.35485
3.66597
3.78207
3.39879
3.51144
3.3526
3.4333
3.46625
3.49543
6.0383
6.09575
4.73139
4.81618
4.05433
4.18271
3.75883
3.8834
3.70773
3.79698
3.83341
3.86567
6.51311
6.57511
5.10344
5.19493
4.37316
4.51166
4.05443
4.18882
3.99933
4.09561
4.13491
4.16971
6.87675
6.94218
5.38836
5.48495
4.61729
4.76352
4.28077
4.42265
4.22258
4.32423
4.36572
4.40246
7.12251
7.1903
5.58094
5.68099
4.78232
4.9338
4.43377
4.58075
4.37352
4.47881
4.52178
4.55985
7.24657
7.31553
5.67814
5.77993
4.86561
5.01972
4.51098
4.66052
4.44968
4.5568
4.60051
4.63924
7.24651
7.31548
5.6781
5.77991
4.86558
5.0197
4.51096
4.66051
4.44966
4.5568
4.60051
4.63924
7.12256
7.19034
5.58097
5.68104
4.78234
4.93384
4.43379
4.58078
4.37354
4.47884
4.5218
4.55987
6.87667
6.94212
5.38831
5.48493
4.61725
4.76353
4.28074
4.42266
4.22257
4.32424
4.36572
4.40247
6.51318
6.57515
5.10348
5.19499
4.37318
4.51173
4.05445
4.18888
3.99936
4.09566
4.13494
4.16975
6.0382
6.09567
4.73131
4.81616
4.05427
4.18273
3.75879
3.88342
3.70772
3.797
3.83342
3.86569
5.45994
5.5119
4.2782
4.35493
3.666
3.78216
3.39881
3.51152
3.35263
3.43337
3.4663
3.49548
4.78823
4.8338
3.75188
3.81918
3.215
3.31689
2.98068
3.07954
2.94019
3.01101
3.03987
3.06547
4.03462
4.07302
3.16138
3.2181
2.709
2.79486
2.51156
2.59486
2.47744
2.53711
2.56144
2.583
3.21195
3.24252
2.51677
2.56194
2.15663
2.22501
1.99945
2.06579
1.9723
2.01982
2.03917
2.05635
2.33437
2.35658
1.82913
1.86196
1.56738
1.61709
1.45315
1.50138
1.43342
1.46796
1.48202
1.49451
1.41678
1.43027
1.11014
1.1301
0.951289
0.9815
0.881963
0.911271
0.869997
0.890987
0.899509
0.907092
0.475041
0.479561
0.372225
0.378949
0.318963
0.32914
0.295718
0.305587
0.291713
0.298778
0.301618
0.304167
-0.474942
-0.479445
-0.372139
-0.378746
-0.318877
-0.328891
-0.295628
-0.305351
-0.291589
-0.298561
-0.301452
-0.303978
-1.41665
-1.43013
-1.11003
-1.12988
-0.951189
-0.981236
-0.881863
-0.91102
-0.869865
-0.890758
-0.899337
-0.906895
-2.3343
-2.35649
-1.82906
-1.86178
-1.56731
-1.61686
-1.45307
-1.50116
-1.4333
-1.46776
-1.48187
-1.49433
-3.21178
-3.24235
-2.51663
-2.5617
-2.15651
-2.22473
-1.99934
-2.06554
-1.97216
-2.01958
-2.039
-2.05615
-4.03458
-4.07295
-3.16133
-3.21793
-2.70893
-2.79465
-2.51149
-2.59466
-2.47733
-2.53692
-2.56129
-2.58284
-4.78803
-4.8336
-3.75172
-3.81893
-3.21486
-3.31661
-2.98056
-3.07928
-2.94004
-3.01077
-3.03969
-3.06527
-5.45991
-5.51184
-4.27816
-4.35479
-3.66595
-3.78198
-3.39874
-3.51134
-3.35253
-3.4332
-3.46616
-3.49533
-6.03796
-6.09544
-4.73113
-4.81591
-4.05412
-4.18247
-3.75865
-3.88318
-3.70757
-3.79678
-3.83324
-3.8655
-6.51317
-6.57512
-5.10345
-5.19489
-4.37313
-4.51159
-4.05439
-4.18874
-3.99927
-4.09552
-4.13483
-4.16962
-6.8764
-6.94187
-5.3881
-5.48468
-4.61708
-4.76329
-4.2806
-4.42244
-4.22243
-4.32404
-4.36556
-4.4023
-7.12256
-7.19031
-5.58093
-5.68097
-4.78228
-4.93374
-4.43372
-4.58067
-4.37345
-4.47872
-4.5217
-4.55975
-7.24621
-7.3152
-5.67788
-5.77966
-4.8654
-5.01947
-4.51082
-4.66029
-4.44953
-4.5566
-4.60036
-4.63908
)
;

boundaryField
{
    out
    {
        type            implicitExtrapolation;
    }
    in
    {
        type            implicitExtrapolation;
    }
    frontAndBack
    {
        type            empty;
    }
}


// ************************************************************************* //
