/*--------------------------------*- C++ -*----------------------------------*\
| =========                 |                                                 |
| \\      /  F ield         | foam-extend: Open Source CFD                    |
|  \\    /   O peration     | Version:  3.0                                   |
|   \\  /    A nd           | Web:         http://www.extend-project.de       |
|    \\/     M anipulation  |                                                 |
\*---------------------------------------------------------------------------*/
FoamFile
{
    version     2.0;
    format      ascii;
    class       volSymmTensorField;
    location    "38";
    object      sigma;
}
// * * * * * * * * * * * * * * * * * * * * * * * * * * * * * * * * * * * * * //

dimensions      [0 0 0 0 0 0 0];

internalField   nonuniform List<symmTensor> 
576
(
(1.95662 -0.0688855 3.02186e-18 -1.95533 3.74502e-18 4.9295e-36)
(2.02816 0.154737 8.0944e-18 -2.02673 -3.32155e-17 -1.65291e-34)
(2.34045 0.226254 -3.13638e-19 -2.33856 -1.64076e-17 -1.9721e-35)
(2.12935 0.252818 -2.41081e-18 -2.12897 -3.83279e-18 1.65696e-35)
(1.93295 0.248178 8.73731e-18 -1.93064 -3.37629e-18 2.44409e-35)
(1.64985 0.23131 6.94173e-18 -1.64999 1.74853e-18 1.1377e-36)
(1.39197 0.211526 -1.08426e-17 -1.38951 -5.33386e-18 -6.95069e-36)
(1.10719 0.185523 -1.51045e-17 -1.10735 2.46208e-17 -1.87873e-34)
(0.860274 0.163874 -2.04867e-17 -0.858059 1.22343e-17 -1.20373e-34)
(0.590465 0.137666 -1.40383e-17 -0.590128 8.34617e-18 -2.36177e-35)
(0.358838 0.115721 1.66516e-18 -0.35721 -1.22409e-17 5.94486e-35)
(0.109843 0.0950612 -1.16398e-17 -0.108661 -1.12435e-17 -5.33754e-36)
(2.12284 -0.165743 -1.85324e-17 -2.12155 -1.18291e-17 -9.50902e-35)
(1.97132 0.457119 -4.49242e-17 -1.9699 2.46385e-17 4.04174e-34)
(2.22653 0.660192 -3.1025e-18 -2.22467 1.38411e-17 2.2172e-34)
(1.97817 0.731267 3.30252e-18 -1.97779 -1.5714e-17 -2.89318e-35)
(1.77671 0.715793 1.51603e-17 -1.77443 -1.52061e-17 -2.26608e-36)
(1.49682 0.665146 -1.14988e-17 -1.49696 1.11466e-17 0)
(1.24619 0.606712 -1.91118e-17 -1.24376 4.38104e-17 -4.36479e-34)
(0.973806 0.530639 4.42636e-17 -0.97396 8.03135e-18 1.93678e-34)
(0.736566 0.46716 2.654e-17 -0.734388 1.82568e-17 4.37687e-34)
(0.480076 0.3907 1.42988e-17 -0.479747 1.25635e-18 -4.07573e-34)
(0.259212 0.326611 -3.12896e-17 -0.257613 2.11326e-19 -3.04873e-34)
(0.0188978 0.265845 -2.95159e-17 -0.0177384 2.95278e-17 4.18609e-34)
(2.42201 -0.14666 4.71264e-18 -2.42078 3.71472e-18 -7.86551e-35)
(1.862 0.739154 1.84784e-17 -1.86064 1.38317e-17 -4.03347e-35)
(2.01188 1.04099 -2.61344e-17 -2.01009 -2.04198e-17 -2.76307e-34)
(1.69586 1.13221 -5.09739e-17 -1.6955 4.62155e-17 -4.90579e-34)
(1.48565 1.10139 -1.93711e-17 -1.48345 7.19381e-18 3.45421e-34)
(1.21239 1.01691 3.79082e-17 -1.21253 1.67388e-17 -1.98722e-34)
(0.975682 0.922427 8.57868e-17 -0.973346 -2.70165e-17 1.02293e-33)
(0.726735 0.801848 4.23184e-18 -0.726886 9.7254e-18 1.24696e-34)
(0.507858 0.70071 8.12069e-17 -0.505757 -9.60954e-18 1.43317e-33)
(0.276453 0.580241 2.98108e-17 -0.276137 2.24252e-18 1.02631e-33)
(0.0759042 0.478956 -1.58521e-17 -0.0743612 2.95304e-17 -9.92947e-34)
(-0.147881 0.38164 4.14028e-17 0.148999 3.96189e-17 1.11702e-33)
(2.79287 0.0442197 2.4165e-18 -2.79169 5.03296e-18 0)
(1.70831 0.989789 -1.06466e-18 -1.70701 -3.00307e-17 0)
(1.72097 1.34134 -3.63105e-17 -1.71926 5.87933e-17 3.21107e-34)
(1.31954 1.41651 8.41789e-17 -1.31919 -4.5449e-17 5.61324e-34)
(1.0994 1.36372 -4.27178e-17 -1.09731 1.71552e-17 -4.11071e-34)
(0.836521 1.24548 4.95424e-17 -0.836659 -3.53328e-17 7.79959e-34)
(0.619393 1.11896 -3.93668e-17 -0.617175 8.11284e-18 -1.05949e-33)
(0.402397 0.962315 1.06519e-16 -0.402542 -5.72181e-17 2.70404e-34)
(0.20872 0.829875 4.30946e-17 -0.206726 -7.10805e-17 -2.20153e-33)
(0.0112899 0.674835 1.79546e-17 -0.0109913 -3.10318e-17 -8.60453e-34)
(-0.16166 0.543855 4.68894e-17 0.163123 7.90449e-18 -2.90637e-34)
(-0.362576 0.415387 1.02282e-16 0.363636 -1.15582e-16 -1.87126e-34)
(3.15564 0.434032 -1.05575e-17 -3.15455 -7.5393e-20 0)
(1.52097 1.20136 -3.1875e-17 -1.51978 2.86389e-17 7.35566e-35)
(1.38592 1.54487 4.00429e-17 -1.38434 -1.97852e-17 -4.55931e-34)
(0.897812 1.56182 -4.34932e-17 -0.897498 1.7096e-17 -5.25606e-34)
(0.669843 1.47955 7.74814e-17 -0.667908 -5.74994e-17 -6.90836e-34)
(0.42152 1.32795 -8.79476e-17 -0.421651 -4.20771e-18 3.57639e-34)
(0.228245 1.17438 -1.65609e-17 -0.226192 -3.9173e-17 0)
(0.0484144 0.991873 -1.26998e-16 -0.0485505 -2.09891e-17 1.62467e-33)
(-0.11567 0.83585 -1.16832e-16 0.117515 2.39492e-17 2.76754e-33)
(-0.274011 0.657598 -6.99967e-17 0.274286 -8.19729e-18 9.71966e-35)
(-0.415052 0.505965 1.46492e-17 0.416406 -5.68035e-17 -1.65453e-33)
(-0.588788 0.352967 -1.25336e-16 0.589769 -1.84815e-18 1.87126e-34)
(3.42472 1.01611 3.78561e-18 -3.42373 1.25274e-17 0)
(1.31202 1.37026 2.82243e-17 -1.31093 -1.57731e-17 1.37869e-34)
(1.04184 1.64809 -1.57329e-17 -1.04041 -1.28471e-17 -5.45163e-35)
(0.483553 1.56566 -1.36768e-17 -0.483264 6.21804e-18 0)
(0.253322 1.4469 -5.884e-17 -0.251568 2.55047e-17 2.40494e-34)
(0.0241277 1.2629 1.92002e-17 -0.0242452 -1.91988e-17 -1.97831e-34)
(-0.14255 1.08773 -1.25465e-16 0.14441 6.81749e-17 7.09806e-34)
(-0.283637 0.890012 1.53453e-16 0.283513 -7.02471e-18 -2.21752e-33)
(-0.416402 0.71853 1.73397e-17 0.418074 -2.67453e-17 -1.99918e-33)
(-0.534679 0.52882 -7.29903e-17 0.534927 5.57204e-17 1.53419e-33)
(-0.642749 0.365932 1.20801e-17 0.643975 2.06505e-17 0)
(-0.787206 0.195438 -1.95941e-17 0.788094 4.93304e-17 0)
(3.52206 1.75008 2.86439e-18 -3.5212 4.68284e-18 0)
(1.09314 1.49696 -1.50925e-17 -1.09219 5.04076e-17 -6.24873e-34)
(0.721787 1.66048 1.07594e-16 -0.720533 -3.8443e-17 2.11125e-33)
(0.126014 1.44543 -1.39484e-17 -0.125766 -2.60191e-17 0)
(-0.0977636 1.28507 4.13818e-17 0.0992998 -1.79256e-17 -7.6968e-35)
(-0.302986 1.07044 -5.45876e-17 0.302879 1.93708e-17 6.33138e-35)
(-0.441816 0.879077 1.38892e-16 0.443445 -1.21935e-17 6.17252e-34)
(-0.546005 0.675905 1.14644e-16 0.545893 -3.86423e-17 2.52815e-34)
(-0.648273 0.496519 -1.74835e-16 0.649736 3.39918e-17 -1.53086e-33)
(-0.729389 0.305977 4.4578e-17 0.729603 1.74408e-17 -5.51567e-34)
(-0.806495 0.140388 -1.24684e-17 0.807568 -2.22229e-17 0)
(-0.921706 -0.0409403 -1.93329e-17 0.922482 3.80095e-17 0)
(3.38988 2.56723 4.96103e-18 -3.38914 5.4011e-18 0)
(0.874323 1.58551 6.11649e-17 -0.873519 -1.01671e-18 4.61804e-34)
(0.452014 1.60262 -4.19805e-17 -0.450953 -1.66839e-17 -1.79508e-33)
(-0.136397 1.23547 -6.6872e-17 0.136609 3.76797e-17 -1.95884e-35)
(-0.342758 1.03149 2.30213e-17 0.344055 -1.2367e-17 -1.88049e-35)
(-0.519118 0.788978 1.32961e-17 0.519028 -4.95352e-17 2.08395e-34)
(-0.630121 0.58629 2.35185e-17 0.631497 1.39677e-17 0)
(-0.702008 0.3854 -7.97062e-17 0.701913 -2.87016e-17 -5.27153e-34)
(-0.77665 0.204271 -1.64179e-16 0.777886 3.83046e-17 3.43847e-33)
(-0.826599 0.0210873 3.77719e-17 0.826778 2.21314e-17 5.71683e-34)
(-0.877188 -0.140516 -3.41419e-17 0.878093 1.09046e-17 7.18024e-34)
(-0.964927 -0.327072 8.87061e-17 0.965582 -7.49059e-18 -1.19129e-33)
(2.99998 3.38016 2.37159e-17 -2.9994 -1.44728e-18 7.06746e-35)
(0.66266 1.64253 -3.52019e-17 -0.662023 -7.85258e-18 -5.46985e-35)
(0.248374 1.50264 -6.6703e-17 -0.247531 4.49903e-17 -2.0796e-34)
(-0.281733 0.981555 1.60502e-16 0.281898 -4.90747e-17 9.916e-34)
(-0.458723 0.735754 -1.56216e-16 0.459755 4.73009e-17 -3.9814e-34)
(-0.601577 0.469196 1.37471e-16 0.6015 -8.12794e-18 1.0476e-33)
(-0.68568 0.259213 7.18795e-17 0.686775 -9.81446e-17 -1.98342e-33)
(-0.731558 0.0655421 -2.02634e-16 0.731478 -1.01357e-17 2.5395e-33)
(-0.782751 -0.113149 -3.2251e-17 0.783734 4.5551e-17 -1.32042e-33)
(-0.80938 -0.284108 -1.89889e-18 0.809519 1.8618e-19 8.78654e-38)
(-0.83939 -0.43761 7.6723e-18 0.840109 4.6407e-17 -3.17071e-34)
(-0.902571 -0.625323 8.50388e-17 0.903089 -1.91462e-17 1.19129e-33)
(2.35908 4.09556 7.2761e-18 -2.35866 1.47621e-17 0)
(0.461788 1.67586 2.76278e-17 -0.461322 -8.3839e-18 5.78822e-35)
(0.114366 1.39165 5.70603e-17 -0.11375 1.33664e-18 1.94113e-34)
(-0.307496 0.733666 -1.22755e-16 0.307617 2.91704e-17 -1.18024e-33)
(-0.443666 0.451933 1.2277e-16 0.444418 -1.2519e-17 6.25455e-34)
(-0.548944 0.166208 -4.15724e-17 0.548887 3.89433e-17 -3.89148e-34)
(-0.607536 -0.0480394 -8.94843e-17 0.608334 -8.40793e-18 -6.62225e-34)
(-0.634142 -0.232675 5.91445e-17 0.634081 -1.30821e-17 -6.1944e-34)
(-0.666464 -0.406956 6.39187e-17 0.667181 3.26771e-17 -8.80155e-34)
(-0.678022 -0.564496 5.72084e-17 0.678122 7.25995e-18 5.6047e-35)
(-0.693744 -0.708623 1.69569e-16 0.694267 -2.87534e-17 1.64854e-34)
(-0.735706 -0.895161 -8.49009e-17 0.736082 -3.21478e-18 -1.84506e-35)
(1.50852 4.62774 7.42518e-18 -1.50826 -2.0462e-18 0)
(0.271765 1.69303 -4.55305e-17 -0.271484 1.58879e-17 -5.3209e-35)
(0.0410199 1.29869 -5.25264e-17 -0.040647 -2.32199e-18 -1.21008e-34)
(-0.230726 0.538219 6.82906e-17 0.230795 -1.02567e-17 -4.92035e-35)
(-0.316607 0.230146 -6.43842e-17 0.317063 2.01872e-17 2.93522e-35)
(-0.381129 -0.068935 1.4881e-17 0.381089 -1.87403e-17 0)
(-0.415602 -0.285382 -4.20202e-17 0.416087 3.0396e-17 -3.8952e-34)
(-0.42886 -0.462084 2.65449e-17 0.428817 2.8971e-17 2.09171e-34)
(-0.44638 -0.632061 -1.62744e-17 0.446815 8.1169e-18 -4.70792e-34)
(-0.450049 -0.778415 -1.31772e-18 0.450104 2.32237e-17 -8.29639e-34)
(-0.456978 -0.914555 -6.35903e-18 0.457293 -3.09923e-17 2.3796e-34)
(-0.480744 -1.09923 3.43685e-17 0.480969 -3.01862e-17 6.0274e-34)
(0.519041 4.91148 1.51726e-18 -0.518951 -1.29728e-17 0)
(0.0896294 1.69999 3.58486e-18 -0.0895314 -1.14987e-17 -5.96814e-35)
(0.00882432 1.24614 -9.3032e-18 -0.0086957 2.09119e-17 -4.12146e-35)
(-0.0850041 0.430847 -1.28063e-17 0.085025 8.83782e-19 9.33985e-36)
(-0.114356 0.108842 4.22026e-17 0.114512 -1.29837e-17 -3.73364e-36)
(-0.136097 -0.1971 -1.21191e-17 0.136077 1.71677e-18 1.18832e-35)
(-0.147464 -0.414441 8.24033e-18 0.14763 3.13194e-18 -1.97666e-36)
(-0.151407 -0.586564 -1.88408e-17 0.151386 6.61936e-18 -2.0752e-34)
(-0.156915 -0.753953 2.58938e-17 0.157063 -2.64976e-18 -9.94134e-35)
(-0.157564 -0.893997 -1.29481e-17 0.157576 2.9066e-18 -1.9376e-34)
(-0.159435 -1.02559 -4.06363e-18 0.15954 2.92591e-19 -2.66195e-34)
(-0.167106 -1.20898 7.27552e-18 0.167178 -9.90303e-18 4.41195e-35)
(-0.519045 4.91147 2.79499e-18 0.518961 9.6401e-18 2.04272e-35)
(-0.0896418 1.69999 2.22372e-17 0.0895476 1.54096e-17 3.51814e-35)
(-0.00883219 1.24614 2.93576e-18 0.00870944 3.81538e-18 3.35363e-35)
(0.0849937 0.430842 -8.87039e-18 -0.0850254 1.00624e-19 -4.97438e-35)
(0.114347 0.108837 -1.14794e-17 -0.114498 -8.32175e-18 9.50731e-35)
(0.136083 -0.197105 1.07435e-17 -0.136085 2.81431e-18 1.75363e-35)
(0.147455 -0.414445 -7.74664e-18 -0.147614 -1.02078e-17 6.7997e-36)
(0.151397 -0.586567 -1.57911e-18 -0.151398 -2.27487e-17 1.45315e-34)
(0.156911 -0.753956 -9.69639e-18 -0.157055 -4.11587e-18 1.9633e-34)
(0.157562 -0.893997 -7.32094e-18 -0.157594 1.03345e-17 1.65302e-34)
(0.159429 -1.02559 -7.38675e-19 -0.159539 1.61032e-17 4.26295e-36)
(0.167108 -1.20898 -2.85677e-19 -0.167192 -2.62053e-18 -1.52646e-35)
(-1.50853 4.62776 1.38397e-17 1.50828 -3.33815e-18 -2.09582e-35)
(-0.271779 1.69303 -4.77884e-17 0.271502 -1.09438e-17 4.25365e-34)
(-0.0410309 1.29869 -4.79702e-17 0.0406643 4.2858e-18 5.20111e-35)
(0.230714 0.538221 -2.54156e-17 -0.230793 2.0244e-17 -2.59015e-34)
(0.316597 0.230146 2.61161e-17 -0.317048 2.25341e-18 9.45151e-35)
(0.381114 -0.0689359 9.52708e-18 -0.381095 -3.40104e-17 0)
(0.415593 -0.285386 -7.80535e-17 -0.416072 -2.8646e-17 1.18816e-34)
(0.428849 -0.462085 2.29141e-17 -0.428829 -6.19327e-18 -1.50994e-34)
(0.446376 -0.632065 6.79246e-17 -0.446807 -8.07511e-18 -6.71644e-34)
(0.450046 -0.778413 4.31636e-17 -0.450121 2.0694e-17 -8.96404e-35)
(0.456972 -0.91456 -2.53991e-17 -0.457294 -7.46015e-19 7.28519e-35)
(0.480749 -1.09923 -3.63509e-17 -0.480986 1.37366e-17 1.65118e-34)
(-2.35908 4.09555 -8.31111e-18 2.35867 -2.41213e-17 1.83625e-34)
(-0.461795 1.67584 7.90504e-17 0.461333 9.67193e-18 -7.53579e-34)
(-0.114372 1.39165 5.55675e-17 0.113762 2.90756e-18 9.60133e-35)
(0.30749 0.733661 -3.76918e-17 -0.307619 -6.179e-18 4.46194e-34)
(0.44366 0.451926 -1.13096e-16 -0.444409 7.60641e-18 1.29483e-34)
(0.548936 0.166201 -2.12399e-17 -0.548897 -4.05959e-18 -2.85257e-34)
(0.607532 -0.0480493 1.065e-16 -0.608325 1.21613e-17 1.10202e-34)
(0.634137 -0.232679 -2.93204e-17 -0.634096 -7.70856e-18 1.60152e-34)
(0.666464 -0.406964 4.39558e-17 -0.667178 -8.41124e-19 1.65243e-33)
(0.678021 -0.564492 4.98901e-17 -0.678138 -1.38617e-17 9.83061e-34)
(0.693742 -0.708628 -6.0989e-18 -0.69427 -3.02738e-17 9.07433e-34)
(0.735707 -0.895155 8.54969e-17 -0.736094 2.73015e-17 -9.37571e-34)
(-3 3.38017 2.85034e-18 2.99943 1.09973e-17 0)
(-0.662671 1.64253 -1.32758e-17 0.662039 -1.61764e-17 0)
(-0.248389 1.50264 -6.3796e-17 0.247552 -3.89156e-17 1.20857e-33)
(0.281721 0.981554 1.57921e-16 -0.281895 1.53132e-17 -1.23976e-34)
(0.458713 0.73575 7.76281e-18 -0.459742 2.57287e-17 5.21793e-34)
(0.601566 0.469192 -4.08942e-17 -0.601508 5.65311e-17 5.23688e-34)
(0.685675 0.259204 -1.52749e-16 -0.686767 -2.71757e-17 -1.91349e-33)
(0.731551 0.0655389 3.43685e-17 -0.73149 3.3886e-17 1.24678e-33)
(0.782751 -0.113157 -3.53044e-17 -0.783734 1.43439e-17 6.43277e-34)
(0.809375 -0.284104 8.09323e-18 -0.809533 -6.44012e-17 5.20269e-34)
(0.83939 -0.437617 1.89323e-18 -0.840117 -2.37422e-17 1.95397e-34)
(0.902576 -0.625322 8.10964e-17 -0.903107 -3.50212e-17 1.50508e-33)
(-3.38987 2.56722 3.56605e-18 3.38915 -1.01344e-17 0)
(-0.874323 1.5855 -5.87002e-18 0.873526 -3.11203e-17 5.82488e-34)
(-0.452023 1.60262 7.46569e-17 0.450967 6.16608e-17 -7.10564e-34)
(0.136392 1.23547 -1.45722e-16 -0.13661 -2.3186e-17 -5.42975e-34)
(0.342754 1.03148 1.54225e-16 -0.344049 2.71737e-17 -5.91551e-34)
(0.519115 0.788974 -5.24338e-17 -0.519038 1.08262e-17 -1.24282e-34)
(0.630122 0.58628 3.56872e-17 -0.631496 3.55053e-17 0)
(0.702008 0.385398 -7.58789e-17 -0.701927 3.82239e-17 1.0143e-33)
(0.776657 0.204263 -1.77269e-16 -0.777892 -1.07607e-17 -3.50278e-33)
(0.826596 0.0210919 -1.13338e-16 -0.82679 -1.58683e-17 -3.11766e-33)
(0.877192 -0.140521 3.43324e-17 -0.878103 4.95172e-17 1.59221e-33)
(0.964929 -0.327067 -1.71481e-16 -0.965592 -5.54588e-17 -1.50508e-33)
(-3.52209 1.75008 8.07058e-18 3.52123 -1.35832e-17 0)
(-1.09315 1.49695 3.65826e-17 1.09221 1.10729e-17 -3.00629e-34)
(-0.721805 1.66048 3.71121e-17 0.720554 2.24005e-18 -7.49551e-34)
(-0.126026 1.44543 1.80055e-17 0.125771 3.19105e-17 0)
(0.0977546 1.28506 -7.2228e-17 -0.0992917 -2.62286e-17 1.69383e-34)
(0.30298 1.07044 9.44487e-17 -0.302887 1.4799e-17 -1.39336e-34)
(0.441815 0.879067 -7.24127e-17 -0.443446 -5.42324e-17 2.2575e-33)
(0.546004 0.6759 1.91248e-16 -0.545906 5.87425e-17 -2.89986e-33)
(0.648278 0.496512 6.52607e-17 -0.649746 3.39255e-17 1.20707e-33)
(0.729386 0.305979 -3.76112e-17 -0.729614 6.28543e-18 -2.37829e-34)
(0.806501 0.140384 2.24888e-18 -0.807582 -9.83733e-18 0)
(0.921712 -0.040936 3.38443e-17 -0.922499 5.83529e-17 0)
(-3.42471 1.0161 -4.9263e-18 3.42374 -1.46416e-18 0)
(-1.31202 1.37026 -3.89949e-17 1.31094 -3.31336e-17 4.53114e-35)
(-1.04185 1.64808 6.49063e-17 1.04042 1.92211e-17 7.31428e-34)
(-0.483558 1.56565 5.75287e-18 0.483267 -1.08617e-17 0)
(-0.253327 1.44689 6.88664e-17 0.251573 2.67073e-17 -3.22919e-34)
(-0.0241274 1.26289 -4.9284e-17 0.0242369 -2.95499e-17 2.65634e-34)
(0.142554 1.08772 5.73605e-17 -0.144415 5.33897e-17 8.15947e-34)
(0.283642 0.890011 -2.97828e-17 -0.283526 2.17568e-17 5.18182e-33)
(0.416414 0.718527 -1.14366e-16 -0.418087 -8.66616e-17 -2.92609e-33)
(0.534679 0.528824 1.05662e-16 -0.534935 -4.34274e-18 2.40484e-33)
(0.642758 0.365933 -2.60089e-18 -0.643989 1.80041e-17 0)
(0.78721 0.195445 1.55226e-17 -0.788105 2.07157e-17 0)
(-3.15566 0.434014 7.81456e-18 3.15458 -1.30909e-18 0)
(-1.52098 1.20136 -8.57556e-18 1.51979 3.46354e-17 4.62243e-34)
(-1.38593 1.54485 -6.98054e-17 1.38435 -4.94832e-17 -6.50926e-34)
(-0.897823 1.56181 -5.63799e-18 0.897502 -5.93013e-18 1.00478e-33)
(-0.66985 1.47954 -1.22047e-17 0.66791 -2.98e-17 5.63838e-34)
(-0.421519 1.32794 6.9859e-17 0.421641 5.88447e-17 -1.02979e-34)
(-0.228241 1.17437 -7.76351e-17 0.226182 2.07584e-17 0)
(-0.0484063 0.99187 -6.00198e-17 0.0485351 -8.98416e-18 -2.71195e-33)
(0.115681 0.835849 -6.20433e-17 -0.117533 -9.34031e-18 -2.67923e-34)
(0.274014 0.6576 1.2944e-17 -0.274297 -8.17515e-18 -7.94638e-35)
(0.415061 0.50597 1.62882e-18 -0.416424 8.35737e-19 9.80433e-34)
(0.588794 0.352976 7.6088e-17 -0.589784 3.72969e-17 1.21676e-33)
(-2.79286 0.0442095 -1.12415e-18 2.7917 1.17931e-17 7.98096e-35)
(-1.70831 0.989783 -1.11658e-17 1.70702 -1.35409e-17 -6.17686e-35)
(-1.72098 1.34133 1.58147e-18 1.71928 -1.07959e-17 -8.2593e-34)
(-1.31954 1.4165 8.53014e-17 1.3192 3.22343e-17 -7.09162e-34)
(-1.09941 1.36372 -8.02556e-17 1.09731 -2.25009e-17 1.09521e-34)
(-0.836517 1.24548 8.58135e-17 0.836652 -7.51212e-19 -6.93804e-34)
(-0.619388 1.11896 7.39522e-17 0.617167 7.48581e-17 2.96225e-34)
(-0.402387 0.962317 -4.53874e-17 0.402529 2.01889e-17 3.61281e-34)
(-0.208709 0.829881 5.20508e-17 0.206712 1.7008e-17 9.31909e-34)
(-0.0112861 0.67484 1.02715e-17 0.0109836 2.49148e-17 6.22644e-34)
(0.161667 0.543865 1.98516e-18 -0.163135 2.71148e-17 5.80849e-34)
(0.36258 0.415398 -2.79623e-17 -0.363646 -5.36994e-17 -1.21676e-33)
(-2.42202 -0.146685 -3.72491e-18 2.42079 -1.24828e-17 0)
(-1.86201 0.739141 9.63779e-18 1.86065 -8.11109e-18 3.2409e-34)
(-2.0119 1.04097 -7.73073e-19 2.0101 1.00328e-17 6.42795e-36)
(-1.69587 1.1322 -6.10817e-17 1.6955 -5.87554e-17 3.10329e-35)
(-1.48566 1.10138 7.23767e-17 1.48344 2.00312e-17 -2.05946e-34)
(-1.21238 1.01691 -7.16525e-17 1.21253 -4.00958e-17 5.93551e-34)
(-0.97568 0.922426 2.92085e-17 0.973333 -4.40374e-17 7.17824e-34)
(-0.726722 0.801851 1.25747e-16 0.726872 2.1966e-17 -1.41381e-33)
(-0.507851 0.700719 6.49868e-17 0.50574 -2.21341e-17 -2.02039e-33)
(-0.276446 0.580246 7.33211e-17 0.276127 -7.98206e-18 -1.56761e-33)
(-0.0758992 0.47897 9.16093e-17 0.074348 2.62651e-17 -1.73498e-33)
(0.147884 0.381651 -8.20635e-17 -0.14901 -5.32355e-20 -2.59305e-34)
(-2.12284 -0.165753 -2.43856e-17 2.12156 5.71233e-18 0)
(-1.97132 0.457108 -2.77294e-17 1.96991 -1.49847e-17 -4.30899e-34)
(-2.22654 0.660178 6.49093e-18 2.22467 -2.44212e-17 -4.42738e-35)
(-1.97817 0.731257 2.15297e-17 1.9778 3.37626e-17 5.71418e-35)
(-1.77671 0.715789 -4.09958e-17 1.77442 -2.65463e-17 -8.3219e-35)
(-1.49681 0.665148 1.60248e-17 1.49696 1.39383e-17 0)
(-1.24619 0.606717 -4.17693e-17 1.24376 -1.42407e-17 6.79214e-35)
(-0.973793 0.530647 5.97548e-18 0.973952 -4.32643e-17 -5.5299e-35)
(-0.736564 0.467172 -2.92776e-17 0.734379 -2.88625e-17 -2.80671e-35)
(-0.480067 0.390706 -1.8914e-17 0.479739 -4.44182e-17 2.018e-34)
(-0.259212 0.326627 -2.00287e-18 0.257607 -3.41429e-17 8.35353e-34)
(-0.018894 0.265861 2.96705e-17 0.0177301 4.85581e-17 -4.80537e-34)
(-1.95663 -0.0688999 -5.16717e-19 1.95533 6.79334e-18 0)
(-2.02815 0.15471 6.37331e-18 2.02671 3.15893e-17 1.50659e-34)
(-2.34046 0.226239 -8.1149e-19 2.33856 6.48846e-18 9.88922e-37)
(-2.12935 0.252796 1.23581e-17 2.12897 -1.55732e-17 1.7479e-36)
(-1.93296 0.248174 1.57966e-17 1.93062 1.84312e-17 2.22911e-35)
(-1.64984 0.23131 -8.30357e-18 1.64999 -3.80711e-18 1.18447e-35)
(-1.39197 0.211534 1.57438e-17 1.3895 4.53997e-18 -2.45222e-35)
(-1.10718 0.185533 -2.42181e-17 1.10734 -8.04269e-18 7.57809e-35)
(-0.860278 0.16389 -4.55173e-18 0.858053 2.51824e-18 -1.59393e-36)
(-0.590456 0.137673 -3.42582e-17 0.590123 -4.66469e-18 1.66872e-35)
(-0.358839 0.11574 -2.00173e-17 0.357205 -3.98518e-18 7.9383e-35)
(-0.109841 0.0950753 2.42989e-18 0.108656 -1.69781e-17 -3.04267e-35)
(-1.95663 0.0688814 3.02192e-18 1.95533 3.74547e-18 -4.92982e-36)
(-2.02815 -0.154726 8.09427e-18 2.02672 -3.32162e-17 1.65296e-34)
(-2.34046 -0.226257 -3.13688e-19 2.33856 -1.64077e-17 1.97213e-35)
(-2.12935 -0.252809 -2.41062e-18 2.12897 -3.83308e-18 -1.65699e-35)
(-1.93296 -0.248181 8.73722e-18 1.93063 -3.37633e-18 -2.44426e-35)
(-1.64984 -0.231305 6.94156e-18 1.64999 1.74858e-18 -1.13774e-36)
(-1.39198 -0.211527 -1.08426e-17 1.3895 -5.33396e-18 6.95028e-36)
(-1.10718 -0.185518 -1.51045e-17 1.10735 2.46213e-17 1.87876e-34)
(-0.860281 -0.163875 -2.04866e-17 0.858057 1.22346e-17 1.20377e-34)
(-0.590456 -0.137664 -1.40384e-17 0.590125 8.34672e-18 2.36215e-35)
(-0.358841 -0.115723 1.66512e-18 0.357209 -1.22409e-17 -5.94484e-35)
(-0.109841 -0.0950588 -1.16398e-17 0.108658 -1.12437e-17 5.33757e-36)
(-2.12283 0.165742 -1.85327e-17 2.12155 -1.18292e-17 9.50913e-35)
(-1.97132 -0.457121 -4.49246e-17 1.96991 2.46386e-17 -4.04186e-34)
(-2.22653 -0.660193 -3.10244e-18 2.22466 1.38413e-17 -2.2172e-34)
(-1.97816 -0.731268 3.30304e-18 1.97779 -1.57143e-17 2.89308e-35)
(-1.77671 -0.715794 1.51606e-17 1.77442 -1.52061e-17 2.26846e-36)
(-1.49681 -0.665142 -1.14989e-17 1.49697 1.11463e-17 0)
(-1.24619 -0.606712 -1.91114e-17 1.24376 4.38108e-17 4.36484e-34)
(-0.973796 -0.530633 4.42643e-17 0.973958 8.0319e-18 -1.93681e-34)
(-0.736572 -0.467159 2.65402e-17 0.734385 1.82572e-17 -4.37708e-34)
(-0.480067 -0.390697 1.42981e-17 0.479742 1.25676e-18 4.07567e-34)
(-0.25922 -0.326612 -3.12904e-17 0.257615 2.11321e-19 3.0489e-34)
(-0.0188974 -0.265845 -2.95159e-17 0.0177348 2.95281e-17 -4.18611e-34)
(-2.42201 0.146667 4.71305e-18 2.42078 3.71442e-18 7.86582e-35)
(-1.86201 -0.739158 1.84781e-17 1.86065 1.38325e-17 4.03363e-35)
(-2.01189 -1.04098 -2.61348e-17 2.01009 -2.042e-17 2.76309e-34)
(-1.69586 -1.13221 -5.09744e-17 1.6955 4.62166e-17 4.90589e-34)
(-1.48566 -1.10139 -1.93711e-17 1.48345 7.19369e-18 -3.45429e-34)
(-1.21238 -1.01691 3.79085e-17 1.21254 1.67389e-17 1.9872e-34)
(-0.97569 -0.922425 8.57878e-17 0.973342 -2.70169e-17 -1.02295e-33)
(-0.726726 -0.80184 4.23216e-18 0.726886 9.72557e-18 -1.247e-34)
(-0.507863 -0.70071 8.12073e-17 0.505753 -9.60996e-18 -1.43318e-33)
(-0.276445 -0.580238 2.98107e-17 0.276134 2.24219e-18 -1.02633e-33)
(-0.0759098 -0.478959 -1.58526e-17 0.0743615 2.95303e-17 9.92964e-34)
(0.147879 -0.381635 4.14018e-17 -0.149 3.96196e-17 -1.11704e-33)
(-2.79286 -0.0442128 2.41662e-18 2.79168 5.03285e-18 0)
(-1.7083 -0.989794 -1.06503e-18 1.70701 -3.00309e-17 0)
(-1.72097 -1.34134 -3.631e-17 1.71926 5.87933e-17 -3.21112e-34)
(-1.31953 -1.41651 8.41793e-17 1.31919 -4.54488e-17 -5.61338e-34)
(-1.09941 -1.36372 -4.27185e-17 1.09731 1.7155e-17 4.11076e-34)
(-0.836517 -1.24548 4.95414e-17 0.836661 -3.53333e-17 -7.7995e-34)
(-0.6194 -1.11896 -3.93659e-17 0.617174 8.11249e-18 1.05948e-33)
(-0.402392 -0.962307 1.0652e-16 0.402544 -5.72186e-17 -2.70384e-34)
(-0.208724 -0.829875 4.30949e-17 0.206724 -7.10818e-17 2.20157e-33)
(-0.0112853 -0.674832 1.79553e-17 0.010991 -3.1033e-17 8.60491e-34)
(0.161654 -0.543858 4.68904e-17 -0.163121 7.9047e-18 2.90643e-34)
(0.362574 -0.415386 1.02281e-16 -0.363636 -1.15584e-16 1.87129e-34)
(-3.15564 -0.434024 -1.05572e-17 3.15456 -7.5347e-20 0)
(-1.52097 -1.20137 -3.18755e-17 1.51978 2.86395e-17 -7.35528e-35)
(-1.38592 -1.54487 4.00425e-17 1.38434 -1.97853e-17 4.55934e-34)
(-0.897808 -1.56182 -4.34928e-17 0.897497 1.70956e-17 5.25611e-34)
(-0.66985 -1.47955 7.74819e-17 0.667907 -5.74998e-17 6.90829e-34)
(-0.421516 -1.32794 -8.79486e-17 0.421654 -4.20755e-18 -3.5764e-34)
(-0.228251 -1.17438 -1.65614e-17 0.226189 -3.91732e-17 0)
(-0.0484098 -0.991865 -1.26999e-16 0.0485539 -2.09891e-17 -1.62465e-33)
(0.115666 -0.835851 -1.16832e-16 -0.11752 2.39489e-17 -2.76758e-33)
(0.274015 -0.657593 -6.99957e-17 -0.274285 -8.1973e-18 -9.72348e-35)
(0.415048 -0.505968 1.46489e-17 -0.416407 -5.68037e-17 1.65458e-33)
(0.588786 -0.352964 -1.25334e-16 -0.589768 -1.8481e-18 -1.87129e-34)
(-3.42471 -1.01609 3.78618e-18 3.42373 1.25278e-17 0)
(-1.31201 -1.37027 2.8224e-17 1.31093 -1.57731e-17 -1.37877e-34)
(-1.04185 -1.64808 -1.57332e-17 1.04041 -1.28471e-17 5.45252e-35)
(-0.483547 -1.56566 -1.36776e-17 0.483263 6.21821e-18 0)
(-0.253329 -1.4469 -5.88395e-17 0.251569 2.55049e-17 -2.40493e-34)
(-0.0241258 -1.26289 1.91997e-17 0.0242493 -1.91986e-17 1.9783e-34)
(0.142542 -1.08773 -1.25464e-16 -0.14441 6.81757e-17 -7.09786e-34)
(0.283637 -0.890007 1.53453e-16 -0.283507 -7.0231e-18 2.21749e-33)
(0.416398 -0.718532 1.73381e-17 -0.418076 -2.67461e-17 1.9992e-33)
(0.534679 -0.528816 -7.29909e-17 -0.534923 5.57209e-17 -1.53421e-33)
(0.642745 -0.365936 1.20804e-17 -0.643974 2.06507e-17 0)
(0.787204 -0.195436 -1.95948e-17 -0.788092 4.93312e-17 0)
(-3.52207 -1.75007 2.86471e-18 3.52121 4.68299e-18 0)
(-1.09314 -1.49696 -1.50922e-17 1.09219 5.04076e-17 6.24881e-34)
(-0.721792 -1.66048 1.07595e-16 0.720536 -3.84434e-17 -2.11124e-33)
(-0.126009 -1.44543 -1.39484e-17 0.125765 -2.60192e-17 0)
(0.0977589 -1.28508 4.13818e-17 -0.0992998 -1.79253e-17 7.69608e-35)
(0.302988 -1.07044 -5.45875e-17 -0.302875 1.93707e-17 -6.33079e-35)
(0.44181 -0.879081 1.38892e-16 -0.443447 -1.21928e-17 -6.17274e-34)
(0.546005 -0.675901 1.14645e-16 -0.545886 -3.8644e-17 -2.528e-34)
(0.648269 -0.496522 -1.74835e-16 -0.649739 3.39907e-17 1.53085e-33)
(0.729388 -0.305974 4.45779e-17 -0.729598 1.74414e-17 5.51597e-34)
(0.806493 -0.140391 -1.24682e-17 -0.807569 -2.2223e-17 0)
(0.921703 0.0409423 -1.93337e-17 -0.922479 3.80102e-17 0)
(-3.38988 -2.56722 4.9614e-18 3.38915 5.40143e-18 0)
(-0.874317 -1.58551 6.11646e-17 0.873515 -1.01751e-18 -4.61799e-34)
(-0.452019 -1.60262 -4.198e-17 0.450957 -1.66847e-17 1.79508e-33)
(0.136402 -1.23547 -6.68725e-17 -0.13661 3.76804e-17 1.96175e-35)
(0.342754 -1.03149 2.30218e-17 -0.344056 -1.23667e-17 1.88194e-35)
(0.51912 -0.788977 1.32957e-17 -0.519025 -4.95349e-17 -2.08398e-34)
(0.630117 -0.586295 2.35179e-17 -0.631499 1.39669e-17 0)
(0.702007 -0.3854 -7.97059e-17 -0.701908 -2.87026e-17 5.27157e-34)
(0.776648 -0.204275 -1.64179e-16 -0.777889 3.83052e-17 -3.43852e-33)
(0.826596 -0.0210866 3.77719e-17 -0.826773 2.21319e-17 -5.71676e-34)
(0.877187 0.140512 -3.41412e-17 -0.878095 1.0906e-17 -7.18026e-34)
(0.964923 0.327073 8.87052e-17 -0.965578 -7.49148e-18 1.19132e-33)
(-2.99999 -3.38016 2.37158e-17 2.99941 -1.44715e-18 -7.0675e-35)
(-0.662654 -1.64253 -3.52014e-17 0.662019 -7.85324e-18 5.46989e-35)
(-0.248378 -1.50264 -6.67037e-17 0.247534 4.49915e-17 2.07928e-34)
(0.281738 -0.981553 1.60502e-16 -0.281899 -4.90749e-17 -9.91628e-34)
(0.458721 -0.735759 -1.56217e-16 -0.459756 4.73012e-17 3.98139e-34)
(0.60158 -0.469196 1.37472e-16 -0.601499 -8.12788e-18 -1.04762e-33)
(0.68568 -0.259218 7.1879e-17 -0.686778 -9.81452e-17 1.98342e-33)
(0.731557 -0.0655421 -2.02636e-16 -0.731473 -1.01354e-17 -2.53949e-33)
(0.782751 0.113145 -3.22522e-17 -0.783737 4.55521e-17 1.32046e-33)
(0.809377 0.284108 -1.89953e-18 -0.809514 1.86599e-19 -6.74734e-38)
(0.839391 0.437607 7.67074e-18 -0.840111 4.6408e-17 3.17117e-34)
(0.902568 0.625323 8.504e-17 -0.903086 -1.91474e-17 -1.19132e-33)
(-2.35909 -4.09555 7.27599e-18 2.35867 1.47622e-17 0)
(-0.461786 -1.67585 2.76284e-17 0.461321 -8.38393e-18 -5.78758e-35)
(-0.114369 -1.39165 5.70599e-17 0.113754 1.3362e-18 -1.94112e-34)
(0.307498 -0.733661 -1.22754e-16 -0.307616 2.91708e-17 1.18025e-33)
(0.443666 -0.451935 1.2277e-16 -0.44442 -1.25186e-17 -6.2547e-34)
(0.548946 -0.166206 -4.15722e-17 -0.548886 3.89421e-17 3.89175e-34)
(0.607537 0.0480357 -8.94836e-17 -0.608338 -8.4069e-18 6.62236e-34)
(0.634141 0.232675 5.91445e-17 -0.634079 -1.30805e-17 6.19421e-34)
(0.666466 0.406952 6.39186e-17 -0.667185 3.26773e-17 8.80129e-34)
(0.67802 0.564494 5.72089e-17 -0.678119 7.26127e-18 -5.60741e-35)
(0.693745 0.70862 1.69568e-16 -0.694269 -2.8755e-17 -1.64973e-34)
(0.735703 0.895159 -8.49011e-17 -0.736079 -3.21602e-18 1.84975e-35)
(-1.50853 -4.62774 7.42502e-18 1.50827 -2.04653e-18 0)
(-0.271762 -1.69302 -4.55304e-17 0.271482 1.58877e-17 5.3201e-35)
(-0.0410215 -1.29869 -5.2526e-17 0.0406481 -2.32173e-18 1.21006e-34)
(0.230729 -0.538217 6.82901e-17 -0.230795 -1.02563e-17 4.92033e-35)
(0.316608 -0.230149 -6.43837e-17 -0.317066 2.01871e-17 -2.93508e-35)
(0.381131 0.0689359 1.48809e-17 -0.381087 -1.87403e-17 0)
(0.415605 0.285379 -4.20205e-17 -0.416092 3.03963e-17 3.89513e-34)
(0.42886 0.462083 2.65458e-17 -0.428815 2.89711e-17 -2.09173e-34)
(0.446383 0.632058 -1.62739e-17 -0.446818 8.11666e-18 4.70793e-34)
(0.450048 0.778413 -1.31687e-18 -0.450101 2.32235e-17 8.29642e-34)
(0.456979 0.914554 -6.3575e-18 -0.457295 -3.09925e-17 -2.37938e-34)
(0.480742 1.09922 3.43679e-17 -0.480967 -3.01864e-17 -6.02747e-34)
(-0.519049 -4.91147 1.51718e-18 0.518959 -1.29728e-17 0)
(-0.0896297 -1.69999 3.58447e-18 0.0895336 -1.14987e-17 5.96842e-35)
(-0.00882702 -1.24614 -9.30346e-18 0.00869895 2.09119e-17 4.12145e-35)
(0.0850032 -0.430844 -1.28061e-17 -0.0850228 8.84157e-19 -9.33959e-36)
(0.114357 -0.108842 4.22024e-17 -0.114513 -1.29836e-17 3.73163e-36)
(0.136096 0.197102 -1.2119e-17 -0.136076 1.71664e-18 -1.18826e-35)
(0.147467 0.41444 8.24015e-18 -0.147633 3.13201e-18 1.97591e-36)
(0.151406 0.586564 -1.88406e-17 -0.151385 6.61951e-18 2.07523e-34)
(0.156919 0.753952 2.58938e-17 -0.157066 -2.64979e-18 9.94144e-35)
(0.157563 0.893996 -1.2948e-17 -0.157576 2.90631e-18 1.93763e-34)
(0.159438 1.02559 -4.06355e-18 -0.159542 2.92668e-19 2.66196e-34)
(0.167104 1.20898 7.2757e-18 -0.167176 -9.90312e-18 -4.41198e-35)
(0.51904 -4.91146 2.79468e-18 -0.518957 9.64005e-18 -2.04272e-35)
(0.0896441 -1.69999 2.22377e-17 -0.0895502 1.54096e-17 -3.51771e-35)
(0.00883229 -1.24614 2.93601e-18 -0.00870996 3.81535e-18 -3.35359e-35)
(-0.0849922 -0.430841 -8.87007e-18 0.0850252 1.00832e-19 4.97433e-35)
(-0.114344 -0.108838 -1.14793e-17 0.114495 -8.32166e-18 -9.50742e-35)
(-0.136082 0.197105 1.07435e-17 0.136086 2.81429e-18 -1.75365e-35)
(-0.147451 0.414444 -7.74643e-18 0.14761 -1.02077e-17 -6.79925e-36)
(-0.151397 0.586566 -1.57957e-18 0.1514 -2.27486e-17 -1.45311e-34)
(-0.156908 0.753955 -9.69677e-18 0.157052 -4.11593e-18 -1.96324e-34)
(-0.157562 0.893995 -7.32152e-18 0.157596 1.03343e-17 -1.65298e-34)
(-0.159427 1.02559 -7.38724e-19 0.159538 1.61031e-17 -4.26248e-36)
(-0.167109 1.20898 -2.8547e-19 0.167194 -2.62054e-18 1.52648e-35)
(1.50852 -4.62775 1.38397e-17 -1.50827 -3.33848e-18 2.09592e-35)
(0.271779 -1.69303 -4.77884e-17 -0.2715 -1.09443e-17 -4.25375e-34)