/*--------------------------------*- C++ -*----------------------------------*\
| =========                 |                                                 |
| \\      /  F ield         | foam-extend: Open Source CFD                    |
|  \\    /   O peration     | Version:  3.0                                   |
|   \\  /    A nd           | Web:         http://www.extend-project.de       |
|    \\/     M anipulation  |                                                 |
\*---------------------------------------------------------------------------*/
FoamFile
{
    version     2.0;
    format      ascii;
    class       volScalarField;
    location    "71";
    object      p;
}
// * * * * * * * * * * * * * * * * * * * * * * * * * * * * * * * * * * * * * //

dimensions      [0 0 0 0 0 0 0];

internalField   nonuniform List<scalar> 
7680
(
-0.235781
-0.223429
-0.21427
-0.204596
-0.197579
-0.189877
-0.184456
-0.178254
-0.174053
-0.169022
-0.165777
-0.161683
-0.159209
-0.155884
-0.154047
-0.151372
-0.150074
-0.147957
-0.147124
-0.145497
-0.145077
-0.143881
-0.143852
-0.143032
-0.143384
-0.142876
-0.143579
-0.143294
-0.144247
-0.144092
-0.145085
-0.14502
-0.14582
-0.145855
-0.146372
-0.14626
-0.146356
-0.145216
-0.144073
-0.141092
-0.235726
-0.223362
-0.214194
-0.20451
-0.197485
-0.189775
-0.184347
-0.178138
-0.17393
-0.168892
-0.165638
-0.161535
-0.159049
-0.155713
-0.153861
-0.151171
-0.149851
-0.147716
-0.14685
-0.145198
-0.144731
-0.143502
-0.1434
-0.142538
-0.142781
-0.142226
-0.142786
-0.142477
-0.143289
-0.143203
-0.144183
-0.144393
-0.145521
-0.146092
-0.147403
-0.147894
-0.148961
-0.148072
-0.147463
-0.143757
-0.234913
-0.222586
-0.213442
-0.203784
-0.196775
-0.189082
-0.183663
-0.177464
-0.173258
-0.168222
-0.164965
-0.160857
-0.158362
-0.155014
-0.153146
-0.150435
-0.149094
-0.14693
-0.146038
-0.144349
-0.143854
-0.142585
-0.142463
-0.141565
-0.141806
-0.141232
-0.141809
-0.141504
-0.142313
-0.142246
-0.143096
-0.143319
-0.144076
-0.144649
-0.145436
-0.145947
-0.146692
-0.145869
-0.145327
-0.14137
-0.23434
-0.22203
-0.212897
-0.20325
-0.19625
-0.188565
-0.183151
-0.176956
-0.172751
-0.167717
-0.164456
-0.160344
-0.157839
-0.154481
-0.152595
-0.149866
-0.148495
-0.146303
-0.145363
-0.143634
-0.143064
-0.141738
-0.141503
-0.140532
-0.140611
-0.139955
-0.140323
-0.139958
-0.140553
-0.140503
-0.141243
-0.14162
-0.142514
-0.143352
-0.144521
-0.145261
-0.146398
-0.145768
-0.145663
-0.141894
-0.233041
-0.220794
-0.211705
-0.202105
-0.195134
-0.187483
-0.182088
-0.175915
-0.171721
-0.166699
-0.163439
-0.15933
-0.156817
-0.15345
-0.151547
-0.148797
-0.147395
-0.145167
-0.14418
-0.142396
-0.141758
-0.140357
-0.140025
-0.13896
-0.138911
-0.138149
-0.138353
-0.137882
-0.138274
-0.138121
-0.138617
-0.138877
-0.139505
-0.140199
-0.14116
-0.141802
-0.142828
-0.142361
-0.142012
-0.139611
-0.231955
-0.219752
-0.210695
-0.201128
-0.194181
-0.186555
-0.181175
-0.175022
-0.170836
-0.165825
-0.162566
-0.15846
-0.15594
-0.152567
-0.150644
-0.147877
-0.14644
-0.144181
-0.143136
-0.141302
-0.140573
-0.1391
-0.138632
-0.137475
-0.137233
-0.136367
-0.136322
-0.135749
-0.135862
-0.135621
-0.135853
-0.136012
-0.136412
-0.136942
-0.137661
-0.13813
-0.138902
-0.138518
-0.138168
-0.136398
-0.230178
-0.218065
-0.209071
-0.199571
-0.192668
-0.185091
-0.179742
-0.173623
-0.169456
-0.164468
-0.161218
-0.157122
-0.154599
-0.151222
-0.149284
-0.146498
-0.145027
-0.142728
-0.141624
-0.139725
-0.138897
-0.137325
-0.136701
-0.135406
-0.134935
-0.133898
-0.133556
-0.132797
-0.132596
-0.132174
-0.132176
-0.132133
-0.132417
-0.132652
-0.133186
-0.133319
-0.133784
-0.133334
-0.13333
-0.131343
-0.228583
-0.216543
-0.207601
-0.198156
-0.191293
-0.183758
-0.178437
-0.17235
-0.168201
-0.163234
-0.159992
-0.155908
-0.153381
-0.150006
-0.148051
-0.145252
-0.143748
-0.14142
-0.140259
-0.138311
-0.137394
-0.135753
-0.134999
-0.133615
-0.132966
-0.131828
-0.131258
-0.13039
-0.129916
-0.129338
-0.128992
-0.128648
-0.12841
-0.12813
-0.127876
-0.127512
-0.127164
-0.126681
-0.126296
-0.12515
-0.226339
-0.214414
-0.205554
-0.196196
-0.189392
-0.181923
-0.176644
-0.170606
-0.166485
-0.161552
-0.158325
-0.154261
-0.151738
-0.148368
-0.146402
-0.143592
-0.142058
-0.139697
-0.138477
-0.136467
-0.135445
-0.133702
-0.132771
-0.131237
-0.130314
-0.128979
-0.12804
-0.126947
-0.126087
-0.125287
-0.124722
-0.124155
-0.124021
-0.123461
-0.123482
-0.122832
-0.122561
-0.122122
-0.121772
-0.121741
-0.224242
-0.212418
-0.203632
-0.194352
-0.187602
-0.180193
-0.174954
-0.168962
-0.164869
-0.159969
-0.156759
-0.152717
-0.150197
-0.146837
-0.144862
-0.142048
-0.14049
-0.138111
-0.136847
-0.134803
-0.133714
-0.131922
-0.130899
-0.129307
-0.128268
-0.126874
-0.125802
-0.12465
-0.123636
-0.122728
-0.121921
-0.121069
-0.120429
-0.119296
-0.118371
-0.117077
-0.115689
-0.115172
-0.114387
-0.115705
-0.221543
-0.209859
-0.201173
-0.192
-0.185324
-0.177997
-0.172812
-0.166882
-0.162827
-0.157974
-0.154788
-0.150777
-0.14827
-0.144926
-0.14295
-0.140138
-0.138561
-0.136165
-0.134857
-0.132771
-0.131598
-0.129729
-0.128557
-0.126845
-0.125563
-0.124001
-0.122575
-0.121215
-0.119776
-0.118645
-0.11748
-0.116402
-0.115657
-0.114279
-0.113553
-0.112045
-0.111003
-0.110623
-0.110364
-0.112684
-0.218956
-0.2074
-0.198808
-0.189734
-0.183129
-0.175879
-0.170748
-0.164878
-0.160861
-0.156054
-0.152893
-0.148916
-0.146422
-0.1431
-0.141126
-0.138324
-0.136737
-0.13434
-0.133012
-0.130916
-0.129714
-0.127832
-0.126631
-0.124909
-0.12361
-0.122057
-0.120645
-0.119319
-0.117928
-0.116837
-0.115705
-0.114598
-0.113734
-0.11217
-0.111024
-0.109243
-0.107607
-0.107205
-0.106734
-0.109541
-0.215814
-0.204423
-0.19595
-0.187002
-0.180486
-0.173334
-0.168269
-0.162475
-0.158507
-0.153759
-0.150632
-0.146699
-0.144227
-0.140936
-0.138972
-0.136188
-0.1346
-0.132208
-0.130862
-0.128756
-0.127514
-0.1256
-0.124322
-0.122543
-0.121109
-0.119467
-0.117837
-0.116396
-0.114697
-0.113482
-0.111998
-0.1108
-0.109656
-0.108063
-0.106846
-0.105081
-0.10359
-0.103243
-0.103001
-0.105869
-0.212747
-0.201511
-0.193153
-0.184325
-0.177896
-0.170839
-0.16584
-0.160122
-0.156203
-0.151514
-0.148423
-0.144535
-0.142088
-0.138831
-0.136882
-0.134124
-0.132544
-0.130172
-0.128833
-0.126746
-0.125519
-0.123632
-0.122393
-0.12066
-0.119313
-0.117751
-0.116282
-0.114968
-0.113517
-0.112486
-0.111312
-0.110358
-0.109529
-0.108223
-0.107271
-0.105765
-0.104455
-0.104197
-0.103976
-0.106498
-0.209179
-0.198131
-0.189909
-0.181227
-0.174901
-0.167958
-0.163037
-0.157409
-0.153549
-0.148931
-0.145885
-0.142054
-0.139638
-0.136426
-0.134501
-0.131778
-0.130215
-0.127872
-0.126546
-0.124483
-0.123267
-0.121401
-0.12017
-0.118455
-0.117109
-0.115561
-0.114074
-0.112773
-0.111261
-0.110269
-0.108983
-0.108157
-0.107226
-0.106206
-0.105309
-0.104162
-0.103088
-0.10294
-0.102801
-0.104781
-0.205646
-0.194779
-0.186692
-0.178152
-0.171928
-0.165098
-0.160256
-0.154717
-0.150918
-0.146373
-0.143372
-0.1396
-0.13722
-0.134056
-0.132157
-0.129476
-0.127938
-0.125635
-0.12434
-0.122322
-0.121158
-0.119353
-0.118216
-0.11659
-0.115409
-0.11399
-0.112766
-0.111647
-0.110505
-0.109767
-0.108942
-0.108489
-0.108095
-0.107604
-0.107342
-0.106745
-0.106308
-0.106315
-0.106369
-0.107629
-0.201667
-0.191011
-0.183078
-0.174701
-0.168595
-0.161894
-0.157142
-0.151707
-0.147977
-0.143516
-0.140569
-0.136865
-0.134527
-0.131421
-0.129558
-0.126928
-0.125423
-0.123168
-0.121911
-0.119945
-0.118831
-0.117087
-0.116024
-0.114474
-0.113401
-0.112076
-0.110994
-0.109988
-0.109005
-0.108424
-0.107749
-0.107566
-0.107342
-0.107314
-0.107366
-0.107309
-0.107327
-0.107502
-0.107702
-0.108234
-0.197684
-0.187234
-0.179455
-0.17124
-0.165253
-0.158681
-0.15402
-0.14869
-0.145031
-0.140656
-0.137765
-0.134132
-0.131839
-0.128793
-0.126969
-0.124393
-0.122926
-0.120725
-0.119515
-0.117612
-0.116568
-0.114905
-0.113959
-0.112518
-0.111634
-0.110452
-0.109655
-0.108834
-0.108232
-0.107893
-0.107672
-0.107839
-0.108138
-0.108622
-0.109314
-0.109803
-0.110496
-0.110808
-0.111228
-0.111017
-0.193312
-0.183094
-0.175486
-0.167452
-0.161596
-0.155168
-0.150609
-0.145395
-0.141816
-0.137535
-0.134707
-0.131154
-0.128912
-0.125935
-0.124155
-0.121642
-0.120218
-0.118079
-0.116919
-0.115083
-0.114107
-0.112524
-0.111678
-0.110336
-0.109599
-0.108539
-0.107942
-0.107265
-0.106904
-0.106743
-0.106776
-0.10721
-0.107782
-0.108687
-0.109757
-0.110718
-0.111877
-0.112324
-0.112898
-0.11205
-0.188895
-0.178908
-0.171473
-0.163621
-0.157898
-0.151616
-0.14716
-0.142065
-0.138567
-0.134385
-0.131622
-0.128151
-0.125963
-0.123057
-0.121323
-0.118874
-0.117495
-0.115419
-0.11431
-0.112542
-0.111635
-0.110133
-0.10939
-0.108147
-0.107565
-0.106626
-0.106248
-0.10571
-0.105628
-0.105631
-0.105977
-0.106634
-0.107545
-0.108775
-0.110254
-0.111564
-0.113161
-0.113675
-0.11438
-0.113001
-0.184149
-0.174414
-0.167166
-0.159512
-0.153933
-0.147809
-0.143466
-0.138499
-0.13509
-0.131013
-0.128321
-0.12494
-0.12281
-0.119982
-0.118298
-0.115919
-0.114587
-0.112578
-0.11152
-0.109822
-0.108979
-0.107555
-0.106897
-0.105745
-0.105282
-0.104443
-0.104222
-0.103792
-0.103893
-0.104013
-0.104546
-0.10535
-0.106445
-0.107886
-0.109584
-0.111122
-0.112965
-0.11352
-0.114287
-0.112545
-0.179316
-0.169836
-0.162779
-0.155326
-0.149894
-0.143932
-0.139704
-0.134869
-0.131551
-0.127584
-0.124966
-0.121677
-0.119608
-0.116859
-0.115227
-0.112919
-0.111633
-0.109691
-0.108678
-0.107044
-0.106251
-0.104892
-0.104296
-0.103209
-0.102822
-0.102049
-0.101918
-0.101545
-0.101742
-0.101905
-0.10252
-0.10336
-0.104515
-0.106009
-0.107765
-0.10936
-0.11127
-0.111806
-0.112564
-0.110643
-0.174216
-0.165007
-0.158153
-0.150914
-0.145638
-0.139847
-0.135741
-0.131046
-0.127825
-0.123974
-0.121433
-0.118242
-0.116237
-0.113573
-0.111994
-0.109761
-0.108523
-0.106648
-0.105681
-0.104111
-0.103365
-0.102068
-0.101523
-0.100497
-0.100167
-0.0994497
-0.0993801
-0.0990505
-0.0993064
-0.0994869
-0.100146
-0.100967
-0.102133
-0.103567
-0.105289
-0.106802
-0.108644
-0.109112
-0.109805
-0.107887
-0.168988
-0.160056
-0.153409
-0.146389
-0.141274
-0.13566
-0.13168
-0.12713
-0.124009
-0.120278
-0.117819
-0.11473
-0.112791
-0.110214
-0.10869
-0.106532
-0.10534
-0.103531
-0.102599
-0.101085
-0.100363
-0.0991087
-0.0985707
-0.0975696
-0.0972186
-0.0964991
-0.0963665
-0.095997
-0.0961339
-0.0962213
-0.0966965
-0.0973525
-0.0982624
-0.0994563
-0.10085
-0.102114
-0.103618
-0.103984
-0.104522
-0.102812
-0.163554
-0.154913
-0.148482
-0.141691
-0.136743
-0.131313
-0.127465
-0.123064
-0.120048
-0.116442
-0.114067
-0.111083
-0.109212
-0.106726
-0.105258
-0.103179
-0.102033
-0.100292
-0.0993997
-0.0979436
-0.0972526
-0.0960467
-0.0955285
-0.0945634
-0.0942174
-0.0935165
-0.0933707
-0.0929923
-0.0930986
-0.0931261
-0.0935515
-0.0940518
-0.094863
-0.0957667
-0.0969455
-0.0978596
-0.0990502
-0.0992609
-0.0996417
-0.0982785
-0.157952
-0.149608
-0.143401
-0.136846
-0.132072
-0.126832
-0.123121
-0.118876
-0.115969
-0.112493
-0.110206
-0.107332
-0.105533
-0.103141
-0.101731
-0.0997316
-0.0986303
-0.0969545
-0.0960902
-0.0946819
-0.0939943
-0.0928118
-0.0922559
-0.0912793
-0.0908301
-0.0900692
-0.0897268
-0.0892236
-0.0890202
-0.0888344
-0.0888345
-0.0889955
-0.089265
-0.0896857
-0.0902003
-0.0906156
-0.091139
-0.0911783
-0.0912936
-0.0904536
-0.152208
-0.144171
-0.138193
-0.13188
-0.127284
-0.12224
-0.118668
-0.114583
-0.111788
-0.108444
-0.106247
-0.103485
-0.10176
-0.0994631
-0.0981135
-0.0961962
-0.0951437
-0.0935382
-0.0927125
-0.0913631
-0.0907035
-0.0895677
-0.0890275
-0.0880839
-0.0876368
-0.0868919
-0.0865422
-0.0860291
-0.085821
-0.0855693
-0.0855724
-0.085542
-0.0857713
-0.0858069
-0.0861139
-0.0860544
-0.0862023
-0.0860609
-0.0860158
-0.0857442
-0.146253
-0.138535
-0.132796
-0.126735
-0.122324
-0.117483
-0.114057
-0.110138
-0.107459
-0.104255
-0.102152
-0.099508
-0.0978592
-0.0956631
-0.0943751
-0.0925428
-0.0915364
-0.0899992
-0.0891998
-0.0878974
-0.0872326
-0.0861134
-0.0855145
-0.0845425
-0.0839498
-0.0831137
-0.0824931
-0.0818053
-0.0811764
-0.0806406
-0.0800787
-0.0796181
-0.0791629
-0.0786109
-0.0781367
-0.0774854
-0.0768989
-0.0765611
-0.0762652
-0.0766552
-0.140221
-0.132825
-0.127327
-0.121521
-0.117298
-0.112662
-0.109384
-0.105634
-0.103073
-0.100008
-0.0980011
-0.0954754
-0.0939046
-0.0918101
-0.0905864
-0.0888422
-0.0878896
-0.0864295
-0.0856767
-0.0844425
-0.083821
-0.0827636
-0.0822107
-0.0812972
-0.0807641
-0.0799855
-0.0794572
-0.0788207
-0.0783375
-0.0778143
-0.0774445
-0.076879
-0.0765687
-0.0757164
-0.0751637
-0.0741157
-0.0732151
-0.0727526
-0.0723211
-0.0732903
-0.133939
-0.126879
-0.121634
-0.116095
-0.112067
-0.107646
-0.104522
-0.100949
-0.0985105
-0.0955932
-0.0936857
-0.0912848
-0.0897956
-0.087808
-0.0866506
-0.0849975
-0.0840962
-0.0827108
-0.0819904
-0.0808103
-0.0801916
-0.0791585
-0.0785568
-0.0776224
-0.0769547
-0.0760905
-0.0753031
-0.0744974
-0.0736129
-0.072826
-0.0719504
-0.0710285
-0.0702048
-0.0689307
-0.0679528
-0.0665247
-0.0653534
-0.0647776
-0.064352
-0.0658356
-0.127643
-0.12092
-0.115927
-0.110654
-0.106822
-0.102616
-0.0996464
-0.0962491
-0.0939343
-0.0911638
-0.0893564
-0.08708
-0.0856732
-0.0837933
-0.0827054
-0.0811473
-0.0803075
-0.0790089
-0.078349
-0.0772529
-0.0767044
-0.0757596
-0.0752552
-0.0744226
-0.0739048
-0.0731636
-0.072607
-0.0719418
-0.0713755
-0.0707128
-0.0701779
-0.0692917
-0.0686573
-0.0672718
-0.0661363
-0.0645193
-0.062898
-0.0622424
-0.0614736
-0.0631981
-0.121057
-0.114689
-0.109961
-0.104968
-0.101342
-0.097361
-0.0945526
-0.0913401
-0.0891541
-0.0865376
-0.0848348
-0.0826893
-0.0813685
-0.0796015
-0.0785849
-0.0771247
-0.0763434
-0.0751284
-0.0745132
-0.0734843
-0.0729602
-0.0720595
-0.0715435
-0.0707194
-0.0701287
-0.0693448
-0.0686288
-0.0678636
-0.0670609
-0.0662691
-0.065521
-0.064556
-0.0639402
-0.0626126
-0.0618974
-0.0604425
-0.059476
-0.0588855
-0.0584908
-0.0601429
-0.114523
-0.108503
-0.104037
-0.0993206
-0.0958976
-0.0921399
-0.0894918
-0.0864621
-0.0844043
-0.0819403
-0.0803417
-0.0783259
-0.0770916
-0.0754374
-0.0744951
-0.0731365
-0.0724241
-0.0713055
-0.070764
-0.0698344
-0.0694052
-0.0686176
-0.0682427
-0.0675579
-0.0671857
-0.0665749
-0.0661735
-0.0656055
-0.0651706
-0.06456
-0.06407
-0.0632151
-0.0624947
-0.0611931
-0.0599041
-0.058426
-0.0566801
-0.055926
-0.054825
-0.0559597
-0.107661
-0.102011
-0.0978221
-0.0933972
-0.0901878
-0.0866649
-0.0841844
-0.0813467
-0.0794225
-0.0771185
-0.0756281
-0.0737482
-0.0726034
-0.071067
-0.0702004
-0.0689455
-0.068299
-0.0672728
-0.0667902
-0.0659425
-0.0655651
-0.0648466
-0.0645112
-0.0638757
-0.0635204
-0.0629316
-0.0625188
-0.061955
-0.0615138
-0.0609532
-0.0605942
-0.0599716
-0.0597621
-0.0589759
-0.0587135
-0.0578275
-0.0572318
-0.0565981
-0.0559561
-0.0560786
-0.100913
-0.0956239
-0.0917048
-0.087565
-0.0845653
-0.0812722
-0.078957
-0.0763078
-0.0745156
-0.0723687
-0.0709857
-0.0692395
-0.0681839
-0.0667644
-0.065975
-0.0648261
-0.0642523
-0.0633281
-0.062925
-0.0621844
-0.0619105
-0.0613153
-0.0611319
-0.060647
-0.0605172
-0.0601088
-0.0599943
-0.0596237
-0.0594733
-0.0590809
-0.0588102
-0.0583094
-0.0577976
-0.0571321
-0.0563208
-0.0555821
-0.0546644
-0.0539984
-0.0532375
-0.0524795
-0.0938031
-0.0888976
-0.0852648
-0.0814275
-0.0786486
-0.0755982
-0.0734557
-0.0710045
-0.0693495
-0.0673671
-0.0660949
-0.064488
-0.0635241
-0.0622253
-0.0615142
-0.0604725
-0.0599697
-0.0591437
-0.0588105
-0.0581629
-0.0579643
-0.0574592
-0.057362
-0.0569631
-0.0569336
-0.056605
-0.056608
-0.0563196
-0.0563211
-0.0560624
-0.0560415
-0.0558285
-0.0557855
-0.0556103
-0.0555336
-0.0552582
-0.0550872
-0.0544901
-0.0542784
-0.0525959
-0.0868692
-0.0823337
-0.0789778
-0.075433
-0.072869
-0.0700541
-0.0680807
-0.0658225
-0.0643023
-0.0624805
-0.0613176
-0.0598473
-0.0589736
-0.0577937
-0.0571599
-0.0562254
-0.0557938
-0.0550695
-0.0548108
-0.054267
-0.054159
-0.0537679
-0.0537938
-0.0535256
-0.0536667
-0.0534849
-0.053704
-0.0535682
-0.0537876
-0.053679
-0.0537977
-0.0537604
-0.0537691
-0.0538634
-0.0539394
-0.0539906
-0.0541232
-0.0536672
-0.0531657
-0.0519711
-0.0795392
-0.0754001
-0.072339
-0.0691056
-0.0667684
-0.0642028
-0.0624062
-0.0603507
-0.0589701
-0.057316
-0.0562651
-0.0549359
-0.0541542
-0.0530958
-0.0525403
-0.0517133
-0.0513534
-0.0507283
-0.0505432
-0.0500963
-0.0500752
-0.0497843
-0.0499236
-0.0497623
-0.0500557
-0.0499857
-0.0503973
-0.0503698
-0.0507987
-0.0507914
-0.0510907
-0.0511753
-0.0513262
-0.0516155
-0.0518882
-0.0521682
-0.0525664
-0.0521566
-0.0515941
-0.0502851
-0.0724465
-0.0686854
-0.0659069
-0.0629719
-0.0608536
-0.0585281
-0.0569033
-0.055044
-0.0538002
-0.052309
-0.0513682
-0.0501767
-0.0494849
-0.0485452
-0.0480646
-0.0473426
-0.0470476
-0.0465182
-0.0463933
-0.046037
-0.0460763
-0.045874
-0.046078
-0.0460034
-0.046369
-0.0463818
-0.0468804
-0.0469342
-0.0474877
-0.0475821
-0.0480917
-0.0483423
-0.0488245
-0.0493568
-0.0500028
-0.050485
-0.0511788
-0.0507028
-0.0506265
-0.0479485
-0.064927
-0.0615728
-0.0590962
-0.0564801
-0.0545933
-0.0525223
-0.0510772
-0.0494241
-0.0483213
-0.0469995
-0.0461707
-0.0451207
-0.0445193
-0.0436998
-0.0432947
-0.0426774
-0.0424499
-0.0420155
-0.0419598
-0.0416955
-0.0418186
-0.0417132
-0.0420332
-0.0420672
-0.0425997
-0.0427312
-0.0434498
-0.0436095
-0.044384
-0.0445142
-0.0451001
-0.0452509
-0.0454802
-0.0458006
-0.0458898
-0.0462078
-0.0464107
-0.0458192
-0.0453594
-0.042407
-0.0577039
-0.0547341
-0.0525441
-0.050231
-0.048566
-0.0467383
-0.045467
-0.0440123
-0.0430469
-0.0418892
-0.0411703
-0.0402579
-0.0397447
-0.0390422
-0.0387078
-0.0381906
-0.0380193
-0.0376709
-0.0376573
-0.0374654
-0.0376128
-0.0375632
-0.0378799
-0.0379465
-0.0384345
-0.0385682
-0.0392023
-0.0393386
-0.040048
-0.0401648
-0.0408664
-0.0410758
-0.0417973
-0.0422767
-0.0431849
-0.0436813
-0.0445608
-0.0440115
-0.0436846
-0.0408303
-0.0500263
-0.0474718
-0.0455894
-0.0436011
-0.0421711
-0.0406019
-0.0395122
-0.038266
-0.0374421
-0.0364546
-0.0358465
-0.0350746
-0.0346491
-0.0340638
-0.0337998
-0.0333821
-0.0332706
-0.0330091
-0.033053
-0.0329419
-0.0331574
-0.0331907
-0.0336043
-0.0337649
-0.0344015
-0.0346438
-0.0354907
-0.0357302
-0.0366779
-0.0368211
-0.0376316
-0.0376687
-0.0380956
-0.0381402
-0.0381861
-0.0381744
-0.0379608
-0.0372099
-0.0362354
-0.0340485
-0.0427017
-0.0405362
-0.0389433
-0.0372612
-0.0360547
-0.0347309
-0.0338158
-0.032769
-0.0320827
-0.0312593
-0.0307601
-0.0301247
-0.0297849
-0.0293136
-0.0291157
-0.0287925
-0.0287283
-0.0285427
-0.0286125
-0.0285565
-0.0287667
-0.0288275
-0.0291844
-0.0293328
-0.029831
-0.030007
-0.0306089
-0.0307225
-0.0313424
-0.0313173
-0.031848
-0.0317139
-0.0321311
-0.0320335
-0.0324591
-0.0323592
-0.0327298
-0.0320756
-0.0316597
-0.0301422
-0.0348983
-0.0331547
-0.0318735
-0.0305205
-0.0295515
-0.0284888
-0.0277564
-0.0269194
-0.0263741
-0.0257208
-0.0253308
-0.024834
-0.0245783
-0.0242205
-0.024087
-0.023857
-0.0238431
-0.0237348
-0.0238477
-0.0238585
-0.0241148
-0.0242394
-0.0246614
-0.0248804
-0.0254858
-0.0257483
-0.026523
-0.0267347
-0.027589
-0.0276306
-0.0283715
-0.0281742
-0.0285738
-0.0281938
-0.0281711
-0.0276753
-0.0273175
-0.0265402
-0.0257696
-0.0247443
-0.027502
-0.0261502
-0.02516
-0.0241148
-0.0233702
-0.0225537
-0.0219959
-0.0213584
-0.0209501
-0.0204602
-0.0201774
-0.0198153
-0.0196426
-0.0193954
-0.0193236
-0.0191826
-0.0192092
-0.0191684
-0.0192968
-0.0193504
-0.0195861
-0.0197215
-0.0200644
-0.0202498
-0.0206824
-0.020852
-0.0213203
-0.0213695
-0.0217665
-0.0215807
-0.0217626
-0.0212945
-0.0211674
-0.0205013
-0.0201312
-0.0193886
-0.0189174
-0.0180906
-0.0174579
-0.0167761
-0.019606
-0.0186806
-0.0180048
-0.0172916
-0.0167857
-0.0162319
-0.015857
-0.0154298
-0.0151617
-0.0148411
-0.0146653
-0.0144399
-0.0143475
-0.0142102
-0.014197
-0.0141434
-0.0142114
-0.0142393
-0.0143972
-0.0145052
-0.014766
-0.0149478
-0.0153238
-0.0155569
-0.0160503
-0.0162808
-0.0168638
-0.0169961
-0.0175814
-0.0174915
-0.0179172
-0.0175133
-0.017593
-0.0168997
-0.0165623
-0.0157184
-0.0150915
-0.0142487
-0.0135186
-0.0129968
-0.0121684
-0.0116357
-0.0112511
-0.0108459
-0.0105641
-0.0102562
-0.0100553
-0.0098268
-0.0096944
-0.00953568
-0.00946541
-0.00937218
-0.00936027
-0.0093301
-0.0093751
-0.00940575
-0.00951005
-0.00959947
-0.00976858
-0.00991303
-0.0101511
-0.0103388
-0.0106412
-0.0108411
-0.0111832
-0.0113329
-0.0116542
-0.0116542
-0.0118452
-0.0115804
-0.0114938
-0.0108969
-0.0104194
-0.00954751
-0.00872033
-0.00775016
-0.00680081
-0.00594046
-0.00512346
-0.00471682
-0.00421377
-0.00410992
-0.00404089
-0.00396903
-0.00392639
-0.00388173
-0.00386325
-0.0038447
-0.00385137
-0.0038609
-0.0038955
-0.00393697
-0.00400211
-0.00407877
-0.00417762
-0.00429134
-0.00443024
-0.00458246
-0.00477116
-0.00496211
-0.0052105
-0.00543382
-0.00574643
-0.00597956
-0.00634696
-0.00653943
-0.00692366
-0.00699007
-0.00730632
-0.00714001
-0.0072523
-0.00677692
-0.00654543
-0.00578963
-0.00518535
-0.00430255
-0.00348615
-0.00269022
-0.00191866
-0.00153924
0.00323435
0.00294644
0.00272529
0.00249021
0.00231006
0.00211016
0.00195607
0.00177756
0.00163687
0.00146753
0.00132946
0.00115843
0.00101523
0.000834777
0.000680342
0.000486205
0.000313314
0.000103393
-9.61748e-05
-0.000321051
-0.000552234
-0.000783086
-0.00104088
-0.00125178
-0.0015125
-0.00165127
-0.00186131
-0.0018471
-0.00191396
-0.00165628
-0.00145979
-0.000911342
-0.000362908
0.000416614
0.00127143
0.00211767
0.00306378
0.00378699
0.00456574
0.00490464
0.0112128
0.0104958
0.00995928
0.00939111
0.00897233
0.0085098
0.00817416
0.00778663
0.00750822
0.00717192
0.00693086
0.00662685
0.00640907
0.00612396
0.00591883
0.00564419
0.00544072
0.00517083
0.00495701
0.00468866
0.00445474
0.00419151
0.00393523
0.00369526
0.00342876
0.00325323
0.0030135
0.00296965
0.00283013
0.00299629
0.00306425
0.00348458
0.00385405
0.00448178
0.00513776
0.00583893
0.00661574
0.00724501
0.00793982
0.00828645
0.0186403
0.0175342
0.0167098
0.0158372
0.0151978
0.014493
0.0139868
0.0134046
0.0129942
0.0125007
0.0121583
0.0117276
0.011434
0.0110483
0.0107897
0.0104378
0.0102016
0.00987663
0.00965074
0.00934923
0.00912556
0.00885142
0.00863118
0.0084024
0.00820222
0.00805721
0.00791685
0.00791421
0.0079023
0.00810251
0.00830591
0.00872702
0.00920061
0.00977447
0.0104613
0.0110615
0.0117889
0.0123168
0.0129247
0.0132612
0.0266075
0.0250742
0.023936
0.022732
0.0218553
0.0208895
0.0202032
0.0194135
0.0188668
0.0182078
0.0177639
0.0172017
0.0168351
0.016346
0.0160383
0.0156069
0.0153417
0.0149571
0.0147185
0.0143728
0.0141483
0.0138399
0.0136245
0.013364
0.0131655
0.0129814
0.0128281
0.0127677
0.0127158
0.0128295
0.0129579
0.0132598
0.0136229
0.0140527
0.0146002
0.0150557
0.0156335
0.0160549
0.0165496
0.016873
0.0339828
0.0320649
0.0306425
0.0291378
0.0280434
0.0268387
0.0259845
0.0250031
0.0243268
0.0235135
0.0229707
0.0222847
0.0218445
0.0212578
0.0208984
0.0203926
0.0200955
0.019658
0.0194062
0.0190279
0.0188084
0.0184867
0.0182945
0.0180381
0.0178803
0.0177136
0.0176152
0.0175768
0.0175854
0.0177115
0.0178882
0.0181753
0.0185502
0.0189275
0.0194333
0.0198087
0.0203021
0.0206393
0.021032
0.0213069
0.0419035
0.0395623
0.0378291
0.035996
0.0346668
0.0332035
0.0321709
0.0309841
0.0301731
0.0291959
0.0285528
0.0277365
0.0272242
0.0265348
0.0261267
0.0255412
0.0252148
0.0247164
0.0244509
0.0240259
0.0238042
0.0234444
0.023256
0.022963
0.0228082
0.0225976
0.0224926
0.0223935
0.0223758
0.0224164
0.0225383
0.0227125
0.0229981
0.0232419
0.023625
0.0238648
0.0242239
0.0244503
0.0247551
0.0249327
0.049195
0.0464757
0.0444628
0.0423341
0.040791
0.0390929
0.0378956
0.0365207
0.0355829
0.0344547
0.033715
0.0327782
0.0321943
0.0314103
0.0309521
0.0302949
0.0299376
0.0293881
0.029109
0.0286522
0.0284325
0.0280585
0.0278865
0.0275944
0.0274677
0.0272691
0.0271992
0.0271167
0.0271337
0.0271863
0.0273315
0.0275042
0.0277905
0.0280135
0.0283686
0.0285671
0.0288726
0.0290403
0.0292757
0.0293915
0.0570339
0.0538972
0.0515778
0.0491252
0.0473503
0.0453972
0.0440239
0.0424462
0.0413752
0.0400851
0.0392461
0.0381801
0.0375243
0.036638
0.0361306
0.0353931
0.0350049
0.0343928
0.0340976
0.0335912
0.0333664
0.0329505
0.0327798
0.0324471
0.0323227
0.0320773
0.0320031
0.0318592
0.0318552
0.0318252
0.0319215
0.0319897
0.0321948
0.0323011
0.0325555
0.0326418
0.0328464
0.0329229
0.0330505
0.0331565
0.0642101
0.0607032
0.0581101
0.0553681
0.0533839
0.0512011
0.0496666
0.0479051
0.0467102
0.0452727
0.0443397
0.0431563
0.0424312
0.041453
0.0408972
0.0400902
0.0396722
0.0390108
0.038702
0.0381647
0.0379409
0.0375105
0.0373532
0.0370201
0.0369187
0.0366832
0.0366376
0.0365091
0.0365336
0.03652
0.0366399
0.0367225
0.0369443
0.0370598
0.0373227
0.0374
0.0375948
0.0376293
0.0377215
0.0377449
0.071932
0.0680157
0.0651215
0.0620617
0.0598497
0.0574162
0.0557085
0.0537474
0.0524211
0.050824
0.0497925
0.0484813
0.0476843
0.0466041
0.0459979
0.04511
0.044659
0.0439333
0.0436054
0.0430159
0.0427835
0.0423085
0.0421495
0.0417739
0.0416738
0.0413917
0.0413444
0.0411584
0.0411685
0.0410804
0.0411589
0.0411494
0.0412925
0.041307
0.0414649
0.041445
0.04154
0.0414863
0.0414982
0.041427
0.0789615
0.0746847
0.0715238
0.0681819
0.0657658
0.0631086
0.0612438
0.0591037
0.0576568
0.0559162
0.0547933
0.053368
0.0525036
0.0513343
0.0506813
0.049726
0.0492461
0.0484724
0.0481313
0.0475114
0.0472796
0.0467896
0.046643
0.0462655
0.0461866
0.0459122
0.0458911
0.0457182
0.0457551
0.0456824
0.0457861
0.0457951
0.0459648
0.046001
0.0461912
0.0461816
0.0463005
0.0462101
0.0461966
0.0459974
0.0865317
0.0818554
0.0784002
0.0747477
0.0721087
0.0692061
0.0671714
0.0648357
0.0632595
0.0613619
0.0601415
0.05859
0.0576535
0.0563829
0.0556782
0.0546416
0.0541262
0.053287
0.0529235
0.0522496
0.0520052
0.0514691
0.0513172
0.0508969
0.0508174
0.0504988
0.0504783
0.0502544
0.0502863
0.0501513
0.0502328
0.0501674
0.050286
0.050242
0.0503524
0.0502639
0.0502906
0.0501153
0.0500034
0.049695
0.0933837
0.088358
0.0846442
0.0807182
0.077881
0.0747613
0.0725741
0.0700646
0.0683712
0.0663345
0.0650253
0.0633631
0.0623612
0.0610039
0.0602537
0.0591514
0.058608
0.0577215
0.0573451
0.0566405
0.0563965
0.055844
0.0557037
0.0552789
0.0552193
0.0549045
0.0549083
0.0546921
0.0547483
0.054621
0.0547234
0.0546652
0.0548023
0.0547661
0.0548973
0.0548076
0.0548482
0.054633
0.0544896
0.0540765
0.100768
0.0953545
0.0913545
0.0871264
0.084072
0.0807134
0.0783601
0.0756596
0.0738394
0.071649
0.0702434
0.0684571
0.067383
0.0659254
0.0651224
0.0639388
0.0633576
0.062405
0.0620027
0.0612433
0.0609826
0.0603832
0.0602332
0.0597661
0.059702
0.0593457
0.0593483
0.0590873
0.0591416
0.0589623
0.0590555
0.0589364
0.0590485
0.0589458
0.0590326
0.0588755
0.0588561
0.0585685
0.05835
0.0578542
0.107412
0.101662
0.0974122
0.0929202
0.0896743
0.086106
0.0836052
0.0807368
0.0788031
0.076478
0.0749863
0.0730926
0.0719551
0.0704132
0.0695658
0.0683178
0.0677089
0.0667092
0.0662938
0.0655025
0.0652413
0.064623
0.0644831
0.0640072
0.0639613
0.0636029
0.0636279
0.0633667
0.0634427
0.0632605
0.0633693
0.0632417
0.0633607
0.0632433
0.063329
0.0631475
0.0631167
0.0627815
0.0625246
0.0619472
0.114578
0.108453
0.103926
0.0991418
0.0956853
0.0918853
0.0892231
0.086169
0.0841114
0.0816365
0.08005
0.0780348
0.0768254
0.0751847
0.0742835
0.072955
0.0723064
0.0712405
0.0707963
0.06995
0.0696683
0.0690032
0.0688489
0.0683319
0.068276
0.067879
0.0678968
0.0675961
0.0676652
0.0674388
0.0675367
0.0673572
0.0674558
0.0672791
0.0673308
0.0670857
0.0670073
0.0666054
0.0662872
0.065642
0.120984
0.114537
0.10977
0.104733
0.101092
0.0970906
0.0942863
0.0910705
0.0889035
0.0862986
0.0846288
0.0825097
0.0812386
0.0795157
0.0785711
0.0771789
0.0765026
0.0753891
0.0749308
0.0740504
0.0737666
0.0730786
0.0729322
0.0724006
0.0723601
0.0719533
0.0719907
0.0716806
0.0717689
0.0715287
0.0716399
0.0714387
0.0715397
0.0713322
0.0713733
0.0710878
0.0709855
0.0705304
0.0701703
0.0694535
0.127898
0.121091
0.116058
0.110739
0.106896
0.102671
0.09971
0.096315
0.0940274
0.0912773
0.0895147
0.0872775
0.0859352
0.0841158
0.083117
0.0816457
0.0809283
0.0797495
0.0792602
0.0783255
0.078018
0.0772844
0.0771196
0.0765488
0.0764933
0.0760517
0.0760756
0.0757322
0.0758063
0.0755307
0.0756238
0.0753817
0.0754566
0.0752007
0.0752045
0.0748638
0.0747124
0.0741975
0.0737778
0.0729997
0.134039
0.126925
0.121663
0.116102
0.112082
0.107665
0.104568
0.101018
0.098625
0.0957501
0.093907
0.0915694
0.090167
0.0882676
0.0872258
0.0856915
0.0849458
0.0837182
0.0832132
0.0822414
0.0819292
0.0811676
0.0810071
0.0804145
0.0803702
0.0799096
0.0799489
0.0795854
0.0796754
0.0793748
0.0794798
0.0792049
0.0792829
0.0789856
0.0789805
0.0785912
0.0784173
0.0778477
0.0773899
0.0765481
0.140671
0.133213
0.127696
0.121867
0.117652
0.11302
0.109773
0.10605
0.103541
0.100526
0.098593
0.0961412
0.0946691
0.092676
0.0915803
0.089969
0.0891817
0.0878906
0.0873531
0.086329
0.085991
0.0851861
0.0850044
0.0843763
0.0843136
0.0838236
0.0838455
0.083457
0.0835287
0.0832049
0.083288
0.0829881
0.0830379
0.0827102
0.0826681
0.0822407
0.0820201
0.0814036
0.0808906
0.0799939
0.146518
0.13877
0.133035
0.126977
0.122594
0.117779
0.114402
0.110532
0.107922
0.104788
0.102778
0.100229
0.0986985
0.0966275
0.0954892
0.0938152
0.0929986
0.0916571
0.0911018
0.0900369
0.0896904
0.0888518
0.0886693
0.0880114
0.0879538
0.0874346
0.0874654
0.0870452
0.087127
0.0867662
0.0868576
0.0865138
0.0865665
0.0861887
0.0861406
0.0856595
0.0854216
0.0847513
0.0842073
0.0832578
0.152839
0.144764
0.138787
0.132473
0.127904
0.122885
0.119365
0.11533
0.112608
0.10934
0.107243
0.104585
0.102986
0.100825
0.0996339
0.097886
0.0970278
0.0956256
0.0950374
0.0939228
0.0935498
0.0926713
0.0924667
0.0917778
0.0917008
0.0911592
0.0911719
0.0907371
0.0908007
0.0904315
0.0905032
0.090154
0.0901837
0.0897983
0.0897216
0.0892246
0.0889503
0.0882501
0.0876612
0.0866649
0.158366
0.150018
0.143837
0.137307
0.13258
0.127389
0.123745
0.119571
0.116753
0.113371
0.111199
0.108449
0.106794
0.104557
0.103323
0.101513
0.100624
0.0991704
0.0985612
0.0974024
0.0970162
0.096098
0.0958862
0.0951592
0.0950791
0.0944983
0.0945102
0.0940324
0.0940962
0.0936785
0.0937499
0.0933468
0.0933736
0.0929307
0.0928465
0.0922923
0.092003
0.0912516
0.0906376
0.0896008
0.164347
0.155692
0.149281
0.142509
0.137607