/*--------------------------------*- C++ -*----------------------------------*\
| =========                 |                                                 |
| \\      /  F ield         | foam-extend: Open Source CFD                    |
|  \\    /   O peration     | Version:  3.0                                   |
|   \\  /    A nd           | Web:         http://www.extend-project.de       |
|    \\/     M anipulation  |                                                 |
\*---------------------------------------------------------------------------*/
FoamFile
{
    version     2.0;
    format      ascii;
    class       volSymmTensorField;
    location    "71";
    object      sigma;
}
// * * * * * * * * * * * * * * * * * * * * * * * * * * * * * * * * * * * * * //

dimensions      [0 0 0 0 0 0 0];

internalField   nonuniform List<symmTensor> 
7680
(
(-0.181356 -0.00359536 -1.91378e-20 0.181463 -2.39833e-20 -0.000107149)
(-0.180934 -0.00407174 5.86129e-20 0.18124 1.11757e-19 -0.000306108)
(-0.178458 -0.00441334 -4.16386e-22 0.178954 -1.0348e-19 -0.000496159)
(-0.174514 -0.00464767 -1.87732e-22 0.175193 5.97695e-20 -0.000678937)
(-0.169726 -0.00480948 1.21128e-20 0.170582 -4.17025e-20 -0.000855655)
(-0.164283 -0.00491095 -8.11968e-21 0.16531 2.32734e-20 -0.00102719)
(-0.15857 -0.00497216 2.58814e-20 0.159764 -7.39173e-20 -0.00119416)
(-0.152608 -0.00499931 9.84177e-21 0.153965 -1.5061e-20 -0.001357)
(-0.146648 -0.00500434 8.52846e-21 0.148164 -9.67753e-20 -0.00151598)
(-0.14065 -0.00499082 1.99898e-20 0.142321 -4.89577e-22 -0.00167118)
(-0.13478 -0.00496622 -3.75849e-20 0.136603 -1.16303e-19 -0.00182262)
(-0.12898 -0.00493306 1.93166e-20 0.13095 5.88428e-20 -0.00196992)
(-0.123362 -0.00489646 1.6458e-21 0.125475 -1.01057e-19 -0.00211272)
(-0.117869 -0.0048587 -3.37341e-20 0.120119 7.05522e-20 -0.00225003)
(-0.112578 -0.00482385 -2.47755e-20 0.114959 -1.45807e-20 -0.00238092)
(-0.107438 -0.0047945 5.5221e-21 0.109942 1.2964e-19 -0.002504)
(-0.102501 -0.00477447 -1.15257e-20 0.105119 -1.06847e-19 -0.00261783)
(-0.097726 -0.00476703 -4.04754e-22 0.100447 2.21273e-19 -0.00272121)
(-0.0931444 -0.00477623 1.94053e-20 0.0959569 -1.23329e-19 -0.00281257)
(-0.0887244 -0.00480613 -2.91182e-21 0.091616 2.02626e-19 -0.00289159)
(-0.0844814 -0.00486099 -2.94043e-20 0.0874384 -6.89433e-20 -0.00295698)
(-0.0803904 -0.00494547 -3.11696e-20 0.0834002 1.70218e-19 -0.00300985)
(-0.0764522 -0.0050634 -3.01841e-20 0.0795015 -2.53509e-20 -0.00304923)
(-0.0726468 -0.00521908 -2.79458e-20 0.0757245 2.04822e-19 -0.00307772)
(-0.0689622 -0.00541408 5.35669e-21 0.0720562 -2.05227e-20 -0.00309399)
(-0.0653814 -0.00564991 -6.56825e-20 0.0684823 1.6438e-19 -0.00310092)
(-0.0618819 -0.00592228 1.56782e-20 0.0649776 9.95186e-20 -0.00309567)
(-0.0584506 -0.00622489 -1.16674e-20 0.0615283 1.31646e-19 -0.00307771)
(-0.0550579 -0.00654228 2.19848e-20 0.0581005 1.02077e-19 -0.00304268)
(-0.0516993 -0.00685118 -4.9358e-20 0.0546799 4.70981e-20 -0.00298058)
(-0.0483439 -0.00711799 -2.57192e-21 0.0512344 6.34871e-20 -0.00289056)
(-0.0450039 -0.00728938 -3.94541e-20 0.0477537 -7.22233e-21 -0.00274984)
(-0.0416603 -0.00730328 2.82661e-20 0.0442322 3.49039e-20 -0.00257193)
(-0.038354 -0.00706947 -6.10813e-20 0.040685 -6.79011e-21 -0.00233101)
(-0.03512 -0.00648876 1.48932e-20 0.0371775 1.3925e-20 -0.00205746)
(-0.0320553 -0.0054705 -8.14607e-20 0.0337964 3.71975e-20 -0.00174113)
(-0.0293363 -0.00391332 7.8541e-21 0.0307401 -1.18824e-19 -0.00140388)
(-0.0271445 -0.00183922 1.03866e-21 0.0281883 7.07709e-20 -0.00104386)
(-0.0257622 0.000523872 -3.35907e-20 0.0264225 -1.05166e-19 -0.000660383)
(-0.0253185 0.00328595 3.59671e-20 0.0255561 -8.2572e-21 -0.000237527)
(-0.181261 -0.00903707 2.02849e-20 0.181374 3.09239e-20 -0.000112695)
(-0.180729 -0.0103367 -3.86676e-20 0.181051 8.20244e-20 -0.000321794)
(-0.178173 -0.0112208 -3.45552e-20 0.178694 3.61319e-20 -0.000521585)
(-0.174172 -0.0117799 4.80799e-20 0.174886 -1.15187e-20 -0.000713894)
(-0.169345 -0.012121 -1.6154e-20 0.170245 -4.54676e-21 -0.000900092)
(-0.163875 -0.012285 3.99532e-21 0.164956 5.45584e-20 -0.00108116)
(-0.158145 -0.0123322 -3.51539e-20 0.159402 7.2892e-20 -0.00125781)
(-0.152174 -0.0122823 -1.20521e-20 0.153604 2.3495e-20 -0.00143052)
(-0.146211 -0.0121699 -6.52661e-21 0.147811 1.47701e-19 -0.00159962)
(-0.140214 -0.0120055 8.95279e-21 0.141979 1.17239e-19 -0.0017652)
(-0.13435 -0.0118095 5.58845e-20 0.136277 -1.48803e-20 -0.00192732)
(-0.128558 -0.011588 7.10833e-21 0.130644 7.31395e-20 -0.00208557)
(-0.122952 -0.0113534 2.78506e-20 0.125191 -7.79225e-20 -0.00223961)
(-0.117473 -0.0111102 5.3526e-20 0.119861 6.61e-20 -0.00238837)
(-0.112198 -0.0108663 3.54311e-20 0.114729 -1.557e-19 -0.00253092)
(-0.107078 -0.0106259 -6.38323e-20 0.109744 -1.30552e-20 -0.00266576)
(-0.102164 -0.0103947 7.27513e-20 0.104955 -3.85911e-21 -0.00279139)
(-0.0974146 -0.0101775 -1.89556e-20 0.100321 -5.26188e-20 -0.00290653)
(-0.0928633 -0.00997907 -9.48967e-21 0.0958728 9.04366e-20 -0.00300955)
(-0.0884785 -0.00980519 1.43411e-20 0.0915785 -4.76472e-20 -0.00310005)
(-0.0842765 -0.00966054 -6.32444e-20 0.0874533 1.09463e-20 -0.00317683)
(-0.0802331 -0.00955217 4.39055e-20 0.0834741 -8.57448e-20 -0.00324096)
(-0.0763504 -0.00948462 -1.15413e-20 0.0796423 4.23221e-20 -0.00329187)
(-0.0726085 -0.0094657 2.21485e-20 0.0759406 -1.43215e-19 -0.00333216)
(-0.0689964 -0.00949894 -9.7818e-20 0.0723578 -7.82901e-21 -0.00336141)
(-0.0654963 -0.0095907 9.09803e-20 0.0688787 -9.30032e-20 -0.00338236)
(-0.0620858 -0.00974123 -4.45145e-20 0.0654795 -4.02005e-21 -0.00339372)
(-0.0587484 -0.00995004 4.89386e-21 0.0621426 -5.68144e-20 -0.00339427)
(-0.0554521 -0.0102102 -7.137e-20 0.0588338 -7.05251e-20 -0.00338172)
(-0.052184 -0.0105034 -3.85854e-20 0.0555286 1.1908e-20 -0.00334459)
(-0.0489055 -0.0108091 -3.87712e-20 0.0521896 -3.50265e-20 -0.0032841)
(-0.0456091 -0.0110734 -3.85433e-20 0.0487856 -5.70617e-22 -0.00317643)
(-0.0422605 -0.0112489 3.6746e-20 0.045296 -2.05995e-20 -0.00303551)
(-0.0388619 -0.011227 1.95564e-20 0.0416988 -6.13202e-20 -0.00283694)
(-0.0354324 -0.0109122 1.76602e-20 0.0380368 2.40579e-20 -0.00260438)
(-0.0320246 -0.0101538 -1.29405e-19 0.034349 -2.22715e-21 -0.00232439)
(-0.0288396 -0.00882029 -3.25611e-20 0.0308371 6.23857e-23 -0.00199746)
(-0.0261056 -0.00682365 1.05175e-20 0.0276973 2.4695e-20 -0.00159164)
(-0.0242117 -0.00431435 -8.94527e-20 0.0252948 -2.45102e-20 -0.00108316)
(-0.0236796 -0.00129791 -1.18349e-20 0.0240944 2.4197e-20 -0.000414789)
(-0.181034 -0.0144811 2.05903e-20 0.181152 -6.31528e-20 -0.000117965)
(-0.180283 -0.016589 6.97223e-20 0.180619 3.9979e-20 -0.000336793)
(-0.177567 -0.0180027 -2.09062e-20 0.178113 -2.29335e-19 -0.000545949)
(-0.173455 -0.018877 -3.00837e-20 0.174202 1.34114e-19 -0.000747447)
(-0.168548 -0.0193904 7.09324e-20 0.169491 -1.41762e-19 -0.000942818)
(-0.163026 -0.019612 4.63815e-20 0.164159 -1.53732e-20 -0.00113315)
(-0.157262 -0.0196416 2.50549e-20 0.158581 -1.22103e-19 -0.00131924)
(-0.151272 -0.0195124 5.83614e-20 0.152774 1.64493e-20 -0.00150163)
(-0.145302 -0.0192813 8.86097e-20 0.146982 -2.51794e-20 -0.00168069)
(-0.139306 -0.0189654 -8.81805e-20 0.141162 -2.19029e-21 -0.00185655)
(-0.133449 -0.0185978 -5.32983e-20 0.135478 -1.67129e-19 -0.00202928)
(-0.12767 -0.0181882 -3.41312e-20 0.129868 8.09958e-20 -0.00219846)
(-0.122081 -0.017756 5.33985e-21 0.124444 -6.6695e-20 -0.00236373)
(-0.116623 -0.0173077 -9.82246e-20 0.119147 6.60643e-20 -0.00252399)
(-0.111372 -0.0168551 -9.07632e-20 0.11405 6.99467e-20 -0.00267823)
(-0.106278 -0.0164038 1.14865e-19 0.109103 1.10799e-19 -0.00282486)
(-0.101393 -0.0159612 -3.32838e-20 0.104355 5.31738e-20 -0.00296228)
(-0.0966768 -0.0155333 6.33529e-20 0.0997658 1.71734e-19 -0.00308901)
(-0.0921624 -0.0151255 5.7934e-20 0.0953657 -1.56142e-19 -0.00320331)
(-0.0878192 -0.014745 -8.66935e-20 0.0911238 1.40126e-19 -0.00330457)
(-0.0836645 -0.0143964 -5.16251e-20 0.0870561 -4.19826e-20 -0.00339151)
(-0.0796753 -0.014089 -2.05284e-20 0.0831403 1.37746e-19 -0.00346501)
(-0.0758548 -0.0138276 -6.91887e-20 0.0793795 -9.20212e-21 -0.00352465)
(-0.0721847 -0.013623 -8.38346e-20 0.0757576 7.04881e-20 -0.00357291)
(-0.0686549 -0.0134807 4.4899e-20 0.0722651 2.00109e-19 -0.00361012)
(-0.0652489 -0.0134111 -6.43719e-20 0.0688878 1.09445e-19 -0.00363896)
(-0.0619438 -0.0134196 5.9278e-20 0.0656039 2.08637e-19 -0.00366004)
(-0.0587232 -0.0135109 -6.94783e-20 0.062395 4.535e-20 -0.00367172)
(-0.0555517 -0.0136886 8.73345e-20 0.0592273 1.81964e-19 -0.00367559)
(-0.0524128 -0.01394 -8.4488e-22 0.0560709 -3.61886e-21 -0.00365813)
(-0.0492578 -0.0142619 -1.39293e-20 0.0528842 1.04381e-19 -0.00362636)
(-0.0460669 -0.014605 -2.06972e-20 0.0496187 8.30824e-20 -0.00355177)
(-0.042785 -0.0149434 -5.97642e-20 0.0462374 2.00736e-19 -0.00345235)
(-0.039377 -0.0151667 4.13915e-21 0.0426753 -2.81343e-19 -0.00329827)
(-0.0358359 -0.0151927 6.86566e-20 0.0389408 2.20437e-19 -0.00310498)
(-0.0321208 -0.0148408 -9.49649e-20 0.0349773 -9.14181e-20 -0.00285644)
(-0.0284473 -0.0139452 2.61216e-20 0.0309703 1.29108e-20 -0.00252294)
(-0.0249079 -0.0123705 -3.91348e-20 0.0269739 1.38606e-19 -0.00206596)
(-0.0221005 -0.0100867 -3.19572e-20 0.0235301 -6.65053e-20 -0.00142965)
(-0.020687 -0.00754442 1.2401e-20 0.021235 2.06433e-19 -0.000548027)
(-0.180672 -0.0199329 7.17055e-20 0.180795 8.62271e-20 -0.000123033)
(-0.179596 -0.022817 -1.00914e-19 0.179947 4.48917e-20 -0.000351139)
(-0.176644 -0.0247387 -1.21699e-20 0.177213 3.07551e-19 -0.000569238)
(-0.172366 -0.0259127 1.40204e-19 0.173146 -2.31964e-19 -0.000779533)
(-0.167343 -0.0265874 -1.20405e-19 0.168327 9.06427e-20 -0.000983717)
(-0.161744 -0.0268587 2.10112e-20 0.162927 7.47538e-20 -0.00118297)
(-0.155929 -0.0268656 -2.19143e-20 0.157307 9.10083e-20 -0.00137821)
(-0.149911 -0.0266536 5.97809e-20 0.151481 -2.8093e-20 -0.00157001)
(-0.143928 -0.0263019 1.40931e-20 0.145687 -9.44938e-20 -0.0017588)
(-0.137933 -0.0258337 -6.8641e-20 0.139878 -5.31039e-20 -0.00194472)
(-0.132085 -0.0252946 1.01389e-19 0.134213 5.73994e-20 -0.00212787)
(-0.126323 -0.0246975 7.84151e-20 0.128631 1.87304e-20 -0.00230782)
(-0.120756 -0.0240689 4.02581e-20 0.123241 -1.61236e-19 -0.00248421)
(-0.115325 -0.0234171 1.51802e-19 0.117981 1.28476e-19 -0.00265584)
(-0.110104 -0.0227575 7.24119e-20 0.112926 -1.32096e-20 -0.00282166)
(-0.105043 -0.0220968 -1.15024e-19 0.108023 3.31067e-19 -0.00297992)
(-0.100194 -0.0214442 1.76951e-19 0.103323 -2.09762e-19 -0.00312889)
(-0.0955169 -0.0208064 -2.22786e-19 0.0987838 2.31422e-19 -0.00326683)
(-0.0910445 -0.0201893 -1.3807e-20 0.0944364 -1.44799e-19 -0.00339182)
(-0.0867469 -0.0196011 1.10408e-19 0.0902498 1.44387e-19 -0.00350286)
(-0.0826428 -0.0190462 -5.74849e-20 0.0862413 -1.44257e-19 -0.0035985)
(-0.0787099 -0.0185351 7.61069e-20 0.082389 1.44881e-20 -0.00367909)
(-0.0749531 -0.0180726 -6.95989e-20 0.0786974 1.039e-20 -0.00374424)
(-0.0713556 -0.0176715 1.93926e-19 0.0751513 1.66306e-19 -0.00379575)
(-0.0679088 -0.0173385 -2.52482e-20 0.0717433 -1.22518e-19 -0.00383447)
(-0.0645985 -0.017087 1.06379e-19 0.0684608 8.09588e-20 -0.00386237)
(-0.0614019 -0.016927 -7.75179e-20 0.0652833 2.23879e-21 -0.00388143)
(-0.0583054 -0.0168672 -2.64457e-20 0.0621951 9.92295e-20 -0.00388968)
(-0.0552707 -0.0169218 -9.32394e-20 0.0591616 -1.53671e-19 -0.0038909)
(-0.052283 -0.0170835 -1.22156e-19 0.0561557 1.04573e-19 -0.00387269)
(-0.0492844 -0.0173703 7.22504e-20 0.0531283 -3.2885e-20 -0.00384389)
(-0.0462504 -0.0177392 1.02086e-19 0.0500306 5.06303e-20 -0.00378024)
(-0.0431034 -0.0182047 -3.3936e-19 0.0468015 1.05807e-19 -0.00369815)
(-0.039783 -0.0186576 -9.59545e-21 0.0433574 -1.11551e-20 -0.00357442)
(-0.0362325 -0.0190898 2.54085e-19 0.0396478 9.85546e-20 -0.00341529)
(-0.0323387 -0.0192783 -3.6051e-19 0.0355412 5.20325e-20 -0.0032025)
(-0.0282347 -0.0191682 2.25823e-19 0.031125 7.4443e-20 -0.00289034)
(-0.0238712 -0.0184459 -6.05182e-20 0.0262846 9.51314e-20 -0.0024134)
(-0.0199455 -0.0170736 -9.99518e-22 0.0216519 -9.84263e-20 -0.00170637)
(-0.0170491 -0.0153186 -9.67553e-20 0.0177168 -1.86392e-19 -0.000667713)
(-0.180176 -0.0253864 3.99811e-20 0.180303 -1.60781e-19 -0.000127766)
(-0.17867 -0.0290096 2.34184e-19 0.179034 -2.57547e-19 -0.000364623)
(-0.175408 -0.0314096 -1.20416e-19 0.175999 -3.36529e-19 -0.000591178)
(-0.170913 -0.0328619 -1.45657e-19 0.171723 -5.49685e-20 -0.000809814)
(-0.165737 -0.033682 2.58351e-19 0.166759 6.73055e-21 -0.00102238)
(-0.160036 -0.0339922 7.12068e-20 0.161266 -1.79362e-19 -0.00123016)
(-0.154155 -0.0339687 -1.86351e-20 0.155589 -1.72867e-19 -0.00143417)
(-0.148101 -0.0336693 -7.63928e-20 0.149736 8.65163e-20 -0.00163502)
(-0.142101 -0.0331942 7.34713e-20 0.143934 4.24786e-20 -0.00183321)
(-0.136106 -0.0325725 -1.6243e-20 0.138135 1.13809e-19 -0.0020289)
(-0.13027 -0.031862 1.44379e-20 0.132492 -2.08202e-19 -0.00222221)
(-0.124529 -0.0310785 -2.09621e-19 0.126942 1.25713e-19 -0.00241269)
(-0.11899 -0.0302553 9.09678e-20 0.12159 -1.40286e-19 -0.00259996)
(-0.113592 -0.0294023 -1.32006e-21 0.116374 1.93291e-19 -0.00278275)
(-0.108408 -0.0285385 1.23338e-19 0.111368 -2.07722e-20 -0.00295992)
(-0.103387 -0.0276715 -3.53019e-20 0.106516 1.83743e-19 -0.00312954)
(-0.0985798 -0.026812 -7.01166e-20 0.10187 -2.78937e-19 -0.0032897)
(-0.0939466 -0.0259674 1.5196e-19 0.0973849 1.00375e-19 -0.00343832)
(-0.089521 -0.0251438 -7.34199e-20 0.0930941 5.15672e-20 -0.00357319)
(-0.0852728 -0.0243502 -5.06294e-20 0.0889656 -4.79103e-20 -0.00369278)
(-0.0812217 -0.0235903 -2.0719e-19 0.085017 2.15377e-19 -0.00379526)
(-0.0773465 -0.0228759 1.14569e-19 0.0812267 1.70551e-19 -0.0038802)
(-0.0736535 -0.0222109 5.91352e-20 0.0776004 1.11874e-19 -0.0039469)
(-0.0701278 -0.02161 -1.51362e-19 0.074124 -1.86762e-19 -0.00399615)
(-0.0667621 -0.02108 -5.81383e-20 0.0707911 3.02184e-19 -0.00402896)
(-0.0635455 -0.0206372 1.05038e-19 0.0675918 -5.24031e-20 -0.00404635)
(-0.0604549 -0.0202941 1.12805e-19 0.0645064 1.78007e-19 -0.00405149)
(-0.0574819 -0.0200633 -1.91188e-19 0.0615242 4.54901e-20 -0.00404232)
(-0.0545845 -0.0199661 7.31809e-20 0.0586095 3.41882e-19 -0.00402497)
(-0.0517551 -0.0200012 1.19129e-19 0.0557442 1.96219e-19 -0.00398903)
(-0.0489274 -0.0202015 -1.05447e-19 0.0528727 3.12095e-19 -0.00394529)
(-0.0460859 -0.0205345 2.295e-19 0.0499602 -7.3502e-20 -0.00387429)
(-0.0431377 -0.0210462 -8.31776e-20 0.0469274 2.16631e-19 -0.00378964)
(-0.040028 -0.0216443 -9.2305e-20 0.0437029 1.18978e-19 -0.00367484)
(-0.036664 -0.0223902 1.91964e-19 0.0401895 3.20606e-19 -0.00352554)
(-0.0328956 -0.0230595 -8.04157e-20 0.0362234 -6.38399e-20 -0.00332786)
(-0.0287401 -0.0237165 6.47933e-20 0.0317652 2.46821e-20 -0.00302515)
(-0.0238647 -0.0238872 -1.8715e-19 0.0264099 9.67846e-20 -0.00254521)
(-0.0187591 -0.0236515 -3.89662e-19 0.0205787 -5.78689e-20 -0.00181965)
(-0.0123315 -0.0226199 1.56938e-19 0.0130514 1.7094e-19 -0.000719891)
(-0.179539 -0.0308475 2.35441e-20 0.179671 9.46901e-20 -0.000132235)
(-0.177508 -0.0351552 -2.19168e-19 0.177885 3.45023e-19 -0.00037728)
(-0.173865 -0.0379959 1.72189e-19 0.174477 -3.18258e-20 -0.000611756)
(-0.169104 -0.0396996 2.19097e-19 0.169942 3.8514e-19 -0.000838226)
(-0.16374 -0.0406457 -1.93093e-19 0.164799 9.0719e-21 -0.00105869)
(-0.157914 -0.0409812 -4.78572e-20 0.159189 -7.13493e-20 -0.00127453)
(-0.151953 -0.0409179 1.38426e-19 0.15344 1.28895e-19 -0.00148685)
(-0.145854 -0.0405251 2.14337e-19 0.14755 -8.97587e-20 -0.00169633)
(-0.139835 -0.0399232 4.27009e-20 0.141738 -9.80752e-20 -0.00190351)
(-0.13384 -0.0391469 -2.58527e-19 0.135948 1.43839e-19 -0.00210857)
(-0.128019 -0.0382652 9.0489e-20 0.13033 2.31802e-19 -0.00231166)
(-0.122303 -0.037297 1.11264e-19 0.124816 1.19809e-19 -0.00251228)
(-0.116798 -0.0362818 4.00464e-20 0.119508 1.21764e-20 -0.00271007)
(-0.111438 -0.035231 3.01439e-19 0.114342 -1.92725e-19 -0.00290364)
(-0.106297 -0.034167 7.73949e-20 0.109389 3.08942e-20 -0.00309177)
(-0.101322 -0.0330982 -2.33731e-19 0.104595 -7.48343e-20 -0.00327229)
(-0.0965636 -0.0320365 1.40399e-20 0.100007 1.82523e-19 -0.00344308)
(-0.0919797 -0.0309902 5.01975e-20 0.0955814 2.11629e-19 -0.00360167)
(-0.0876051 -0.029965 -1.12558e-19 0.0913505 4.03114e-20 -0.00374545)
(-0.0834092 -0.0289705 2.47095e-19 0.0872813 2.46703e-19 -0.00387218)
(-0.0794127 -0.0280096 1.06328e-19 0.0833922 2.03083e-19 -0.00397956)
(-0.0755949 -0.0270947 -5.16347e-20 0.0796609 2.0574e-19 -0.00406599)
(-0.0719635 -0.0262283 -3.17192e-19 0.0760938 -1.93261e-19 -0.00413028)
(-0.0685058 -0.0254265 3.49372e-19 0.0726775 2.58279e-19 -0.00417169)
(-0.0652152 -0.0246948 9.1167e-20 0.0694063 6.91596e-20 -0.00419103)
(-0.062085 -0.0240519 -7.35884e-20 0.0662729 3.02912e-19 -0.00418797)
(-0.0590909 -0.0235103 1.11314e-19 0.0632572 -1.32186e-19 -0.00416628)
(-0.0562312 -0.0230864 1.57839e-19 0.0603554 1.30851e-19 -0.0041242)
(-0.0534585 -0.0228044 5.53669e-20 0.0575279 -1.06436e-19 -0.00406941)
(-0.050775 -0.0226689 -5.67475e-20 0.0547707 -1.02115e-19 -0.0039957)
(-0.048102 -0.0227207 -1.00538e-19 0.0520167 -5.67379e-19 -0.0039147)
(-0.0454407 -0.0229355 -3.05018e-20 0.0492562 2.37576e-20 -0.0038155)
(-0.0426723 -0.0233819 1.57931e-20 0.0463806 -3.30563e-19 -0.00370831)
(-0.0397775 -0.0239722 8.70719e-20 0.0433617 6.92382e-20 -0.0035842)
(-0.0365957 -0.0248467 1.83362e-19 0.040027 -3.21654e-19 -0.0034313)
(-0.0330558 -0.0257586 -6.54503e-19 0.0362917 -1.47725e-19 -0.00323592)
(-0.0289724 -0.0270533 4.59318e-19 0.0319119 -1.88941e-19 -0.00293946)
(-0.0241832 -0.0280669 -6.58038e-20 0.0266546 -6.0199e-20 -0.0024714)
(-0.0186326 -0.0298406 8.51291e-20 0.0203979 -4.94035e-19 -0.00176526)
(-0.0127966 -0.0277831 -3.06178e-19 0.0134969 7.52357e-20 -0.000700279)
(-0.178763 -0.0363087 2.00768e-19 0.178899 -1.32456e-19 -0.000136312)
(-0.176112 -0.0412432 1.42425e-19 0.176501 2.15879e-20 -0.000388911)
(-0.172022 -0.0444792 -1.91607e-19 0.172653 -3.75807e-20 -0.000630711)
(-0.166949 -0.0464019 1.29452e-21 0.167813 -3.36448e-19 -0.000864443)
(-0.161365 -0.0474502 3.91102e-21 0.162457 1.14622e-19 -0.00109225)
(-0.155394 -0.0477945 -9.56917e-21 0.15671 4.23577e-19 -0.00131562)
(-0.14934 -0.0476802 -7.14669e-20 0.150875 4.9539e-21 -0.00153574)
(-0.143189 -0.0471869 -2.36121e-19 0.144942 1.35159e-19 -0.00175334)
(-0.137147 -0.0464541 2.97754e-19 0.139116 -2.13834e-20 -0.00196901)
(-0.131153 -0.0455215 2.21478e-19 0.133336 8.97817e-20 -0.00218295)
(-0.125349 -0.0444692 -4.89874e-20 0.127744 -1.37945e-20 -0.00239534)
(-0.119664 -0.0433181 -3.67427e-19 0.12227 1.51728e-19 -0.00260566)
(-0.114198 -0.0421142 -1.76321e-19 0.117011 -9.31052e-21 -0.00281351)
(-0.108884 -0.0408699 -5.26397e-20 0.111901 2.98428e-19 -0.00301741)
(-0.103793 -0.039611 3.42906e-19 0.107009 -1.70865e-19 -0.00321604)
(-0.0988705 -0.0383463 1.08927e-19 0.102277 -2.60925e-20 -0.00340698)
(-0.0941661 -0.0370893 1.07283e-19 0.097754 1.11848e-20 -0.00358788)
(-0.0896371 -0.0358485 8.90729e-20 0.0933929 -3.77247e-20 -0.00375579)
(-0.0853177 -0.0346295 -3.09552e-20 0.0892254 -1.21684e-19 -0.00390768)
(-0.0811769 -0.0334427 1.20943e-19 0.0852174 -2.3319e-19 -0.00404048)
(-0.0772361 -0.0322894 -1.32073e-19 0.0813874 5.09583e-21 -0.00415125)
(-0.0734748 -0.0311831 -4.97377e-20 0.0777119 -3.42937e-19 -0.00423704)
(-0.0699017 -0.0301242 -1.67899e-20 0.0741976 2.05215e-19 -0.00429592)
(-0.0665059 -0.0291305 5.07414e-20 0.0708311 -1.43647e-19 -0.00432528)
(-0.0632812 -0.028205 1.459e-19 0.0676066 -1.093e-19 -0.00432534)
(-0.0602249 -0.0273695 -3.41289e-20 0.064519 -7.42695e-20 -0.00429412)
(-0.0573116 -0.0266339 -9.63428e-20 0.061547 -9.38534e-22 -0.00423538)
(-0.0545453 -0.0260208 -3.84843e-20 0.0586934 -3.22015e-19 -0.00414808)
(-0.0518737 -0.0255516 -1.97061e-19 0.0559142 6.36347e-19 -0.00404049)
(-0.0493068 -0.0252426 -2.65086e-19 0.0532195 -5.54694e-20 -0.00391267)
(-0.0467539 -0.0251326 -9.39217e-20 0.0505297 3.71894e-19 -0.00377583)
(-0.0442299 -0.0252213 4.2773e-19 0.047861 1.36167e-19 -0.0036311)
(-0.041587 -0.0255785 -1.91094e-20 0.0450717 -1.73636e-19 -0.00348465)
(-0.0388492 -0.0261695 -1.25953e-19 0.042185 2.31669e-19 -0.00333586)
(-0.0357778 -0.0271446 1.41093e-19 0.0389463 -1.52239e-19 -0.00316854)
(-0.0324591 -0.0283746 -2.04317e-20 0.0354239 -3.68331e-20 -0.0029648)
(-0.0285188 -0.0302154 4.33752e-21 0.0311913 2.72423e-20 -0.00267249)
(-0.0243784 -0.0322485 -4.75577e-19 0.0266084 -8.4649e-20 -0.00223002)
(-0.0195281 -0.035447 -2.68598e-19 0.0211044 -1.59147e-19 -0.00157628)
(-0.0167658 -0.0361284 3.23864e-19 0.0173942 6.29265e-19 -0.00062834)
(-0.177841 -0.0417757 8.98626e-20 0.177981 1.70936e-19 -0.000140069)
(-0.174487 -0.0472624 -3.04355e-20 0.174886 -4.11675e-20 -0.000399551)
(-0.169889 -0.0508416 -1.95862e-20 0.170537 1.33402e-19 -0.000648034)
(-0.164461 -0.0529457 1.53016e-19 0.16535 7.57551e-19 -0.000888408)
(-0.158628 -0.0540692 2.4962e-19 0.159751 8.90431e-20 -0.00112296)
(-0.152493 -0.0544036 1.80082e-20 0.153846 -4.11722e-19 -0.00135326)
(-0.146333 -0.0542253 1.84476e-20 0.147914 -5.32877e-20 -0.00158058)
(-0.140124 -0.0536232 1.7766e-19 0.14193 -1.3836e-19 -0.00180571)
(-0.134058 -0.052755 -7.69584e-20 0.136087 -2.11881e-20 -0.00202929)
(-0.128066 -0.0516644 -1.34222e-19 0.130317 -1.32631e-19 -0.00225154)
(-0.122283 -0.0504419 2.93165e-19 0.124756 -1.0383e-19 -0.00247263)
(-0.116633 -0.0491103 2.33673e-19 0.119325 -2.24212e-19 -0.00269206)
(-0.111212 -0.0477216 7.59467e-20 0.114122 1.10429e-19 -0.00290937)
(-0.105951 -0.046289 8.13784e-20 0.109074 -4.33847e-21 -0.003123)
(-0.100917 -0.0448414 -1.3641e-19 0.104248 -3.72995e-19 -0.00333151)
(-0.0960538 -0.0433881 -1.08851e-19 0.0995861 1.15553e-19 -0.00353223)
(-0.0914105 -0.041944 1.26652e-19 0.0951331 -3.24112e-19 -0.00372254)
(-0.0869422 -0.0405177 -2.78623e-20 0.0908411 8.94252e-20 -0.00389899)
(-0.0826833 -0.039115 -1.81179e-19 0.0867414 -4.9232e-19 -0.0040581)
(-0.0786016 -0.0377465 3.66617e-19 0.0827975 1.13207e-19 -0.00419588)
(-0.0747191 -0.0364123 1.10201e-19 0.0790278 -1.13731e-19 -0.00430864)
(-0.0710152 -0.0351267 8.4808e-20 0.0754072 9.47122e-20 -0.00439201)
(-0.0674998 -0.0338876 -1.92732e-19 0.0719428 1.40394e-19 -0.00444307)
(-0.0641629 -0.0327147 4.77201e-20 0.0686202 9.80169e-20 -0.00445725)
(-0.0609999 -0.0316075 1.33239e-19 0.0654338 1.25469e-19 -0.00443389)
(-0.0580108 -0.0305914 2.17622e-19 0.0623801 -2.93779e-19 -0.00436932)
(-0.0551701 -0.0296718 -2.57017e-19 0.0594372 2.30851e-19 -0.00426711)
(-0.052487 -0.0288785 9.40627e-19 0.056614 -5.42378e-19 -0.00412696)
(-0.0499061 -0.0282279 3.1365e-19 0.053864 4.68281e-19 -0.00395792)
(-0.0474452 -0.0277514 -2.21363e-19 0.0512112 -5.65644e-19 -0.00376605)
(-0.0450062 -0.0274828 -2.41839e-19 0.0485688 4.66202e-19 -0.00356259)
(-0.0426214 -0.0274546 -5.88538e-19 0.0459805 -4.9883e-20 -0.00335905)
(-0.0401314 -0.0277334 1.11621e-19 0.0432889 1.70692e-19 -0.00315751)
(-0.0376085 -0.0283563 7.52002e-20 0.0405721 2.78693e-19 -0.00296358)
(-0.0347933 -0.0294651 -2.60511e-19 0.0375501 1.26472e-19 -0.00275676)
(-0.0318936 -0.0310786 -4.6264e-19 0.0344145 2.49036e-20 -0.00252094)
(-0.028481 -0.0334654 4.49727e-19 0.0306957 2.72378e-19 -0.00221472)
(-0.0252108 -0.0364804 -2.85431e-19 0.0270157 2.70651e-19 -0.00180488)
(-0.0213438 -0.0405872 7.34778e-19 0.0225847 -1.78708e-19 -0.00124091)
(-0.0198926 -0.042826 -5.97785e-19 0.0203811 8.71054e-20 -0.000488498)
(-0.176774 -0.0472398 1.17266e-19 0.176918 -1.36062e-19 -0.000143383)
(-0.172637 -0.0532025 1.50932e-19 0.173046 -1.11999e-19 -0.000409014)
(-0.167475 -0.057066 2.2827e-19 0.168138 -1.03078e-19 -0.000663481)
(-0.161655 -0.0593095 1.22236e-19 0.162565 -7.5538e-19 -0.00090982)
(-0.155546 -0.0604774 -4.95366e-19 0.156697 -5.22136e-19 -0.00115045)
(-0.149231 -0.0607805 -3.47133e-20 0.150618 1.34777e-19 -0.00138702)
(-0.142955 -0.0605235 1.76333e-20 0.144576 2.25055e-19 -0.00162089)
(-0.136684 -0.0598036 -1.70801e-19 0.138537 -1.62611e-21 -0.00185289)
(-0.130592 -0.0587947 2.62255e-19 0.132676 3.27583e-19 -0.00208371)
(-0.124604 -0.0575441 2.6089e-19 0.126918 -4.87836e-19 -0.00231359)
(-0.118846 -0.056152 -2.96347e-19 0.121389 3.03369e-19 -0.00254274)
(-0.113237 -0.0546426 -6.83519e-20 0.116007 -3.20441e-19 -0.0027706)
(-0.107867 -0.0530734 8.56061e-21 0.110864 7.12758e-20 -0.00299673)
(-0.102665 -0.0514583 -2.83591e-19 0.105885 -1.25516e-19 -0.00321944)
(-0.097696 -0.0498293 3.35273e-19 0.101133 2.4792e-19 -0.00343719)
(-0.0928998 -0.0481959 1.74127e-19 0.0965469 -2.50864e-19 -0.00364709)
(-0.0883247 -0.0465743 -9.36925e-20 0.092171 4.48938e-19 -0.00384626)
(-0.0839237 -0.0449736 8.92334e-20 0.0879544 -2.86857e-19 -0.00403076)
(-0.0797312 -0.0433993 -2.65733e-19 0.0839278 2.67878e-19 -0.00419665)
(-0.075713 -0.0418626 3.35109e-19 0.0800521 -4.18892e-20 -0.00433907)
(-0.071892 -0.0403623 -6.604e-20 0.0763457 -1.88994e-19 -0.00445364)
(-0.0682466 -0.0389139 1.86558e-19 0.0727811 -8.26184e-20 -0.00453444)
(-0.0647879 -0.0375125 1.03748e-19 0.0693656 -1.52784e-19 -0.00457766)
(-0.0615065 -0.0361801 -4.62433e-20 0.066083 -3.29436e-20 -0.00457659)
(-0.0583989 -0.0349118 -3.60543e-19 0.0629285 1.77894e-19 -0.00452958)
(-0.0554678 -0.0337378 2.44708e-19 0.0598988 -5.18414e-19 -0.00443099)
(-0.0526893 -0.0326566 -5.78161e-19 0.0569729 1.29149e-19 -0.00428353)
(-0.0500766 -0.031708 -1.30154e-19 0.0541643 1.9875e-19 -0.00408769)
(-0.0475766 -0.030898 2.52783e-19 0.0514277 2.62214e-20 -0.00385119)
(-0.0452126 -0.0302779 -1.1695e-19 0.0488006 -2.58262e-19 -0.003588)
(-0.0428926 -0.029866 6.52779e-19 0.0461978 1.78448e-19 -0.00330522)
(-0.0406602 -0.0297342 1.66207e-19 0.0436913 -2.56029e-19 -0.00303112)
(-0.038371 -0.0299226 -1.41504e-20 0.04113 5.97286e-19 -0.00275892)
(-0.0361353 -0.0305443 2.63605e-19 0.0386457 -7.34377e-19 -0.00251045)
(-0.0337176 -0.0316752 -1.44998e-19 0.0359789 5.49365e-19 -0.00226127)
(-0.0314188 -0.0334773 4.63375e-20 0.0334162 -1.80139e-19 -0.00199742)
(-0.0288206 -0.0360176 2.11498e-19 0.0305217 4.94484e-19 -0.00170114)
(-0.0266653 -0.039404 -8.73481e-19 0.0280099 -3.27798e-19 -0.00134461)
(-0.0240855 -0.0435585 -4.20428e-19 0.0249932 1.33511e-19 -0.000907725)
(-0.0236095 -0.0464739 5.55928e-19 0.023978 4.06265e-19 -0.000368485)
(-0.175554 -0.0527059 -9.88439e-20 0.175701 6.95565e-19 -0.000146324)
(-0.170567 -0.0590531 -1.52223e-19 0.170984 3.36272e-19 -0.00041734)
(-0.164792 -0.0631363 -3.64582e-19 0.165469 1.20697e-19 -0.000677053)
(-0.158546 -0.0654727 1.77237e-20 0.159475 5.59073e-19 -0.000928636)
(-0.15214 -0.0666516 5.85298e-19 0.153314 6.98567e-19 -0.00117462)
(-0.145629 -0.0669001 2.11098e-19 0.147046 2.89638e-19 -0.00141675)
(-0.13923 -0.0665484 -2.24372e-20 0.140886 -8.14687e-20 -0.00165644)
(-0.132893 -0.0657004 2.56766e-19 0.134787 -2.74235e-19 -0.00189458)
(-0.126775 -0.0645452 -4.05899e-19 0.128907 -2.6619e-19 -0.0021319)
(-0.120794 -0.0631325 -1.91444e-19 0.123162 2.47235e-19 -0.00236866)
(-0.115065 -0.0615714 3.32131e-19 0.11767 5.05437e-19 -0.00260508)
(-0.109502 -0.059887 -2.06122e-19 0.112342 4.6733e-19 -0.00284059)
(-0.104191 -0.0581422 2.09154e-19 0.107266 3.06941e-19 -0.00307474)
(-0.0990557 -0.056351 4.45519e-20 0.102361 3.40387e-19 -0.00330574)
(-0.094159 -0.0545484 -4.39077e-19 0.097691 5.87493e-20 -0.00353196)
(-0.0894378 -0.0527441 1.57346e-19 0.093188 -1.45946e-20 -0.00375026)
(-0.084939 -0.0509558 7.51224e-20 0.0888966 -2.41978e-20 -0.00395757)
(-0.0806131 -0.0491925 -1.0226e-19 0.0847626 -2.04915e-19 -0.00414949)
(-0.0764945 -0.0474602 -5.86659e-20 0.0808162 -2.65045e-19 -0.00432164)
(-0.0725469 -0.0457704 -2.05485e-19 0.0770153 4.47312e-19 -0.00446837)
(-0.068794 -0.0441211 7.55252e-20 0.0733786 -2.06264e-20 -0.00458457)
(-0.0652126 -0.0425286 -3.98002e-20 0.0698756 4.03302e-19 -0.00466304)
(-0.0618157 -0.0409858 -2.66326e-20 0.0665147 -1.23269e-19 -0.00469898)
(-0.0585934 -0.0395168 4.87415e-19 0.0632773 1.47398e-19 -0.00468392)
(-0.0555455 -0.0381123 -4.29072e-19 0.0601607 2.20901e-19 -0.00461519)
(-0.0526751 -0.0368072 1.11827e-19 0.0571607 -9.09929e-20 -0.00448566)
(-0.0499632 -0.0355923 4.54367e-19 0.0542608 5.6581e-19 -0.00429752)
(-0.0474251 -0.0345168 5.10821e-19 0.0514771 1.75136e-19 -0.00405193)
(-0.0450153 -0.0335745 -1.4665e-19 0.0487722 3.83511e-19 -0.00375691)
(-0.042761 -0.0328342 -4.8295e-19 0.0461929 4.70141e-19 -0.00343184)
(-0.0405844 -0.0322957 -2.09759e-19 0.043668 4.70012e-20 -0.00308361)
(-0.0385396 -0.0320626 3.96104e-20 0.0412894 -9.00173e-21 -0.00274983)
(-0.0365118 -0.0321418 -2.7545e-19 0.0389322 -3.61048e-20 -0.00242044)
(-0.034637 -0.0327011 9.62053e-20 0.0367599 -1.88766e-19 -0.00212286)
(-0.0327342 -0.0337371 4.56236e-19 0.0345647 2.56618e-19 -0.00183041)
(-0.0311266 -0.0354989 -4.84283e-19 0.0326569 -3.28616e-19 -0.0015303)
(-0.0294662 -0.0378409 7.76524e-19 0.0306857 2.96796e-20 -0.00121948)
(-0.0283811 -0.0410058 -3.19739e-19 0.0292765 -1.3068e-19 -0.000895412)
(-0.0270236 -0.0444662 1.10808e-18 0.0275812 5.23441e-19 -0.000557527)
(-0.0272506 -0.0468675 -7.07291e-19 0.0274748 -3.35178e-19 -0.000224275)
(-0.174183 -0.0581645 6.00773e-20 0.174331 -4.6468e-19 -0.000148779)
(-0.168283 -0.0648045 1.25625e-20 0.168707 -5.55629e-19 -0.000424359)
(-0.161853 -0.0690374 2.08553e-19 0.162542 1.62087e-19 -0.00068853)
(-0.155153 -0.0714167 1.14541e-19 0.156098 -7.8838e-20 -0.000944584)
(-0.14843 -0.07257 -7.80839e-19 0.149625 -1.48253e-19 -0.00119516)
(-0.141713 -0.0727386 -3.04934e-20 0.143155 -8.74551e-19 -0.00144207)
(-0.135184 -0.0722748 -2.82475e-19 0.136871 -6.13435e-20 -0.0016868)
(-0.128779 -0.0712879 -1.30285e-19 0.130709 -3.02741e-19 -0.00193028)
(-0.122636 -0.0699801 5.69658e-19 0.12481 5.83428e-19 -0.00217329)
(-0.116665 -0.0684029 5.64599e-19 0.119081 -5.04682e-20 -0.00241609)
(-0.11097 -0.0666734 -1.34224e-20 0.113629 -5.18172e-20 -0.00265894)
(-0.10546 -0.0648171 6.38476e-20 0.108361 -8.36331e-19 -0.00290126)
(-0.100215 -0.0629017 -1.7302e-19 0.103357 1.16546e-19 -0.00314257)
(-0.095154 -0.0609412 -6.40811e-20 0.0985351 -7.61057e-19 -0.00338103)
(-0.0903382 -0.0589734 1.29443e-19 0.0939532 -9.16528e-20 -0.00361493)
(-0.0857005 -0.057008 -2.65823e-20 0.0895415 -2.18713e-19 -0.00384096)
(-0.0812869 -0.0550641 -1.28953e-19 0.0853428 1.78442e-19 -0.00405587)