/*--------------------------------*- C++ -*----------------------------------*\
| =========                 |                                                 |
| \\      /  F ield         | foam-extend: Open Source CFD                    |
|  \\    /   O peration     | Version:  3.0                                   |
|   \\  /    A nd           | Web:         http://www.extend-project.de       |
|    \\/     M anipulation  |                                                 |
\*---------------------------------------------------------------------------*/
FoamFile
{
    version     2.0;
    format      ascii;
    class       volVectorField;
    location    "1";
    object      v;
}
// * * * * * * * * * * * * * * * * * * * * * * * * * * * * * * * * * * * * * //

dimensions      [0 0 0 0 0 0 0];

internalField   nonuniform List<vector> 
27
(
(0.176643 0.041631 0.000985395)
(0.56806 0.931731 0.831292)
(0.515431 0.920261 0.531557)
(0.784484 0.893906 0.118352)
(0.126462 0.624407 0.00622945)
(0.370995 0.876312 0.367247)
(0.96673 0.0525795 0.769221)
(0.58651 0.512203 0.569185)
(0.811172 0.852681 0.111869)
(0.374959 0.58678 0.192952)
(0.783484 0.266314 0.728417)
(0.846053 0.134039 0.868966)
(0.944288 0.366065 0.774415)
(0.525121 0.182497 0.792261)
(0.971011 0.702077 0.532812)
(0.418716 0.378232 0.29637)
(0.882522 0.494525 0.525435)
(0.818931 0.069927 0.58515)
(0.681571 0.992644 0.158915)
(0.415004 0.610365 0.358774)
(0.452489 0.278501 0.180893)
(0.00918198 0.0233282 0.307928)
(0.306805 0.449752 0.439128)
(0.586702 0.355701 0.654159)
(0.0147172 0.861146 0.605927)
(0.886719 0.924289 0.0150574)
(0.798389 0.545893 0.654019)
)
;

boundaryField
{
    boundary
    {
        type            fixedValue;
        value           uniform (1 2 3);
    }
}


// ************************************************************************* //
