/*--------------------------------*- C++ -*----------------------------------*\
| =========                 |                                                 |
| \\      /  F ield         | foam-extend: Open Source CFD                    |
|  \\    /   O peration     | Version:  3.0                                   |
|   \\  /    A nd           | Web:         http://www.extend-project.de       |
|    \\/     M anipulation  |                                                 |
\*---------------------------------------------------------------------------*/
FoamFile
{
    version     2.0;
    format      ascii;
    class       volSymmTensorField;
    location    "6.7";
    object      sigma;
}
// * * * * * * * * * * * * * * * * * * * * * * * * * * * * * * * * * * * * * //

dimensions      [0 0 0 0 0 0 0];

internalField   nonuniform List<symmTensor> 
400
(
(0.40719 0.121454 1.89916e-316 -0.555988 2.22079e-316 0.148798)
(0.753583 -0.0623038 1.9268e-316 -0.501758 2.41008e-316 -0.251825)
(0.904827 -0.294503 1.83912e-316 -0.466263 2.33034e-316 -0.438564)
(0.87471 -0.448526 1.72339e-316 -0.38824 2.14767e-316 -0.486469)
(0.811104 -0.615823 1.57744e-316 -0.338767 1.91621e-316 -0.472337)
(0.681857 -0.727819 1.44015e-316 -0.267752 1.69935e-316 -0.414105)
(0.555849 -0.828343 1.30196e-316 -0.215664 1.47883e-316 -0.340185)
(0.403893 -0.896157 1.17824e-316 -0.151664 1.29958e-316 -0.252229)
(0.258601 -0.943895 1.06256e-316 -0.0981765 1.12183e-316 -0.160424)
(0.0976532 -0.969339 9.59336e-317 -0.0355381 9.87382e-317 -0.0621151)
(-0.0608287 -0.971904 8.66068e-317 0.0227006 8.5076e-317 0.0381281)
(-0.231353 -0.954766 7.81443e-317 0.0890794 7.53016e-317 0.142273)
(-0.399334 -0.911643 7.06727e-317 0.15412 6.48818e-317 0.245214)
(-0.570386 -0.849622 6.35222e-317 0.225308 5.77604e-317 0.345078)
(-0.723271 -0.754503 5.74278e-317 0.292271 4.98221e-317 0.431)
(-0.857414 -0.647591 5.09314e-317 0.362838 4.45535e-317 0.494576)
(-0.925666 -0.491093 4.58025e-317 0.41583 3.87823e-317 0.509836)
(-0.92902 -0.345024 3.96592e-317 0.473199 3.50205e-317 0.455821)
(-0.756435 -0.128272 3.5476e-317 0.488668 3.14889e-317 0.267767)
(-0.388901 0.0497292 2.99841e-317 0.506754 2.87342e-317 -0.117852)
(0.261293 0.106395 9.43114e-317 -0.635662 1.41818e-316 0.374369)
(0.55078 0.0150469 1.05316e-316 -0.644846 1.87532e-316 0.094066)
(0.658034 -0.110406 1.0776e-316 -0.593044 1.9678e-316 -0.0649898)
(0.67688 -0.211165 1.06594e-316 -0.535779 1.88698e-316 -0.141102)
(0.629111 -0.315941 1.0258e-316 -0.461073 1.72068e-316 -0.168038)
(0.54624 -0.393972 9.76873e-317 -0.382719 1.5412e-316 -0.16352)
(0.447313 -0.462334 9.19599e-317 -0.305032 1.34977e-316 -0.142281)
(0.33031 -0.506439 8.61901e-317 -0.220425 1.18641e-316 -0.109884)
(0.212744 -0.53679 8.03228e-317 -0.140427 1.02546e-316 -0.0723172)
(0.0823323 -0.545188 7.46449e-317 -0.0518156 8.9925e-317 -0.0305166)
(-0.045923 -0.539847 6.91783e-317 0.0335607 7.74782e-317 0.0123623)
(-0.182938 -0.51528 6.39161e-317 0.126829 6.82613e-317 0.0561084)
(-0.316045 -0.478756 5.90254e-317 0.218882 5.88927e-317 0.0971633)
(-0.446953 -0.42841 5.41811e-317 0.31341 5.23036e-317 0.133543)
(-0.565667 -0.367904 4.98409e-317 0.407084 4.53459e-317 0.158584)
(-0.654493 -0.304493 4.52005e-317 0.488761 4.05981e-317 0.165732)
(-0.708786 -0.228673 4.12228e-317 0.567697 3.54782e-317 0.141089)
(-0.675021 -0.168765 3.65528e-317 0.606485 3.17285e-317 0.0685364)
(-0.555436 -0.0860191 3.27109e-317 0.635721 2.80007e-317 -0.0802842)
(-0.252025 -0.0457827 2.84176e-317 0.588563 2.53319e-317 -0.336538)
(0.244128 0.264778 2.16394e-317 -0.707695 7.91169e-317 0.463567)
(0.467941 0.181412 3.80594e-317 -0.682486 1.39394e-316 0.214546)
(0.54634 0.0954811 4.90118e-317 -0.617989 1.59354e-316 0.0716487)
(0.548331 0.00754587 5.63067e-317 -0.542397 1.58883e-316 -0.00593334)
(0.508886 -0.0760586 6.0352e-317 -0.464151 1.48286e-316 -0.044735)
(0.442481 -0.145065 6.23396e-317 -0.383817 1.34519e-316 -0.0586645)
(0.369331 -0.202092 6.24993e-317 -0.310666 1.19126e-316 -0.0586653)
(0.28142 -0.238664 6.15985e-317 -0.232102 1.05197e-316 -0.0493175)
(0.195498 -0.259528 5.97957e-317 -0.159908 9.15923e-317 -0.0355894)
(0.0965262 -0.258824 5.74916e-317 -0.077975 8.03543e-317 -0.0185512)
(-0.00159517 -0.24393 5.48377e-317 0.00281008 6.96062e-317 -0.00121491)
(-0.110962 -0.210201 5.19541e-317 0.0948342 6.11299e-317 0.0161277)
(-0.222374 -0.169253 4.9019e-317 0.192124 5.29412e-317 0.0302502)
(-0.335356 -0.116987 4.586e-317 0.295507 4.67108e-317 0.0398483)
(-0.448123 -0.0688275 4.27439e-317 0.408502 4.06241e-317 0.0396205)
(-0.534985 -0.0217334 3.90914e-317 0.509872 3.61115e-317 0.0251125)
(-0.603887 0.010849 3.52419e-317 0.617785 3.17266e-317 -0.0138981)
(-0.589541 0.0299994 3.02263e-317 0.67862 2.81875e-317 -0.0890787)
(-0.504492 0.0351249 2.41567e-317 0.726405 2.42472e-317 -0.221913)
(-0.240374 0.0261105 1.6984e-317 0.683554 1.8675e-317 -0.44318)
(0.156645 0.339369 -4.63583e-317 -0.584845 1.86556e-317 0.4282)
(0.328423 0.277553 -2.49556e-317 -0.563273 8.93238e-317 0.23485)
(0.386979 0.21205 -5.85143e-318 -0.501112 1.1789e-316 0.114134)
(0.396415 0.133019 9.15898e-318 -0.43964 1.24773e-316 0.0432252)
(0.369701 0.0646008 2.07282e-317 -0.373272 1.20386e-316 0.00357093)
(0.327582 0.00384804 2.90046e-317 -0.311808 1.11556e-316 -0.0157739)
(0.280996 -0.0414863 3.46874e-317 -0.257575 1.00317e-316 -0.0234214)
(0.224426 -0.0675691 3.82775e-317 -0.201104 8.95087e-317 -0.0233213)
(0.171372 -0.0785513 4.02576e-317 -0.151801 7.86204e-317 -0.0195708)
(0.106125 -0.065155 4.10303e-317 -0.0927923 6.93431e-317 -0.0133323)
(0.0429482 -0.0416137 4.09184e-317 -0.0357551 6.04344e-317 -0.0071931)
(-0.034765 0.00572751 4.01563e-317 0.0364469 5.32838e-317 -0.00168191)
(-0.114557 0.0515823 3.89857e-317 0.114125 4.6517e-317 0.000432139)
(-0.204667 0.114037 3.74789e-317 0.206888 4.14609e-317 -0.0022206)
(-0.298115 0.155137 3.58719e-317 0.312275 3.68716e-317 -0.0141601)
(-0.378418 0.198104 3.40695e-317 0.417894 3.40374e-317 -0.039476)
(-0.450494 0.196331 3.23304e-317 0.537334 3.19601e-317 -0.0868396)
(-0.447859 0.176574 3.03277e-317 0.61399 3.16302e-317 -0.166132)
(-0.394235 0.105909 2.82372e-317 0.687392 3.14524e-317 -0.293157)
(-0.172842 0.00169563 2.47337e-317 0.656623 2.96211e-317 -0.483782)
(0.156717 0.454717 -7.65402e-317 -0.602743 -1.8683e-317 0.446026)
(0.283925 0.390126 -5.58205e-317 -0.530931 4.90298e-317 0.247006)
(0.326034 0.333488 -3.4476e-317 -0.455876 8.04239e-317 0.129842)
(0.316894 0.24474 -1.65351e-317 -0.378761 9.20203e-317 0.0618672)
(0.301142 0.176733 -1.91406e-318 -0.324037 9.27417e-317 0.0228941)
(0.266779 0.108959 9.2391e-318 -0.26893 8.83763e-317 0.00215122)
(0.244665 0.063612 1.74767e-317 -0.236261 8.12424e-317 -0.00840327)
(0.209185 0.0348902 2.33449e-317 -0.19692 7.35695e-317 -0.0122655)
(0.185584 0.0269942 2.73259e-317 -0.17232 6.55258e-317 -0.0132643)
(0.145458 0.042725 2.98896e-317 -0.133145 5.82199e-317 -0.0123132)
(0.110115 0.074019 3.14027e-317 -0.0980766 5.11487e-317 -0.012038)
(0.0528776 0.129863 3.21679e-317 -0.0400989 4.50845e-317 -0.0127787)
(-0.00906074 0.187665 3.24913e-317 0.0266011 3.93611e-317 -0.0175404)
(-0.0938823 0.265093 3.25311e-317 0.121405 3.46616e-317 -0.0275227)
(-0.189881 0.316696 3.26332e-317 0.237649 3.03815e-317 -0.0477673)
(-0.290615 0.376888 3.28109e-317 0.373149 2.71955e-317 -0.0825341)
(-0.39216 0.368632 3.35418e-317 0.534183 2.47445e-317 -0.142023)
(-0.434201 0.354458 3.45507e-317 0.672508 2.37781e-317 -0.238307)
(-0.419715 0.238598 3.62968e-317 0.813535 2.4548e-317 -0.39382)
(-0.21324 0.107619 3.69696e-317 0.853972 2.9064e-317 -0.640732)
(0.110042 0.585109 -9.65201e-317 -0.533643 -4.49085e-317 0.423601)
(0.185974 0.486639 -7.74776e-317 -0.422555 1.68137e-317 0.236582)
(0.217584 0.402333 -5.55401e-317 -0.344409 4.83404e-317 0.126825)
(0.201014 0.29572 -3.61976e-317 -0.264639 6.29849e-317 0.0636257)
(0.198334 0.212749 -1.96688e-317 -0.225999 6.76434e-317 0.0276653)
(0.178151 0.139082 -6.64146e-318 -0.18624 6.71284e-317 0.00808862)
(0.179069 0.0879568 3.45188e-318 -0.176709 6.35027e-317 -0.00235979)
(0.168265 0.0609712 1.09428e-317 -0.161032 5.87174e-317 -0.00723319)
(0.173707 0.0538469 1.63665e-317 -0.163977 5.3139e-317 -0.00973062)
(0.163051 0.0782203 2.01341e-317 -0.152038 4.77291e-317 -0.0110125)
(0.160729 0.117445 2.26356e-317 -0.147482 4.22567e-317 -0.0132472)
(0.131709 0.191078 2.41834e-317 -0.114484 3.73471e-317 -0.0172247)
(0.102254 0.265646 2.50644e-317 -0.0765906 3.25884e-317 -0.025663)
(0.0338694 0.371569 2.55083e-317 0.00665921 2.85116e-317 -0.0405287)
(-0.0396802 0.446336 2.57706e-317 0.106733 2.47291e-317 -0.0670525)
(-0.151266 0.539452 2.60485e-317 0.262444 2.18185e-317 -0.111178)
(-0.25313 0.546634 2.66191e-317 0.438148 1.96397e-317 -0.185018)
(-0.343574 0.546799 2.75493e-317 0.648846 1.908e-317 -0.305272)
(-0.35402 0.412491 2.90313e-317 0.855257 2.06662e-317 -0.501237)
(-0.203048 0.244252 2.99942e-317 1.01758 2.57921e-317 -0.814535)
(0.0971554 0.711262 -8.83792e-317 -0.485617 -5.19918e-317 0.388462)
(0.134994 0.578347 -7.45117e-317 -0.344856 -3.72092e-318 0.209862)
(0.159251 0.461547 -5.6319e-317 -0.269681 2.41742e-317 0.11043)
(0.133137 0.334458 -3.93618e-317 -0.188181 3.94184e-317 0.0550443)
(0.144112 0.232076 -2.44475e-317 -0.168328 4.64356e-317 0.0242155)
(0.132393 0.146006 -1.227e-317 -0.139994 4.86692e-317 0.00760087)
(0.154686 0.0840457 -2.62346e-318 -0.153249 4.78422e-317 -0.00143677)
(0.161561 0.0479401 4.7926e-318 -0.155609 4.5455e-317 -0.00595176)
(0.192616 0.0360029 1.03427e-317 -0.183715 4.20332e-317 -0.00890065)
(0.204396 0.0545247 1.43985e-317 -0.193263 3.82932e-317 -0.0111332)
(0.229596 0.0969673 1.72849e-317 -0.214669 3.42662e-317 -0.014927)
(0.221867 0.172318 1.92859e-317 -0.200993 3.03559e-317 -0.020874)
(0.215256 0.26339 2.06837e-317 -0.183081 2.64042e-317 -0.0321754)
(0.155398 0.386016 2.16759e-317 -0.104564 2.26976e-317 -0.0508336)
(0.0863437 0.495281 2.25734e-317 -0.00302356 1.90576e-317 -0.0833201)
(-0.0473806 0.627315 2.34985e-317 0.184 1.58077e-317 -0.136619)
(-0.179657 0.683471 2.49003e-317 0.406077 1.3035e-317 -0.22642)
(-0.331455 0.745056 2.67423e-317 0.706049 1.15766e-317 -0.374594)
(-0.393885 0.656775 2.96189e-317 1.01684 1.29702e-317 -0.622955)
(-0.266412 0.561989 3.26961e-317 1.30505 2.11785e-317 -1.03864)
(0.0506308 0.835457 -8.01937e-317 -0.346323 -5.29213e-317 0.295692)
(0.0501752 0.648747 -7.01968e-317 -0.206026 -1.59752e-317 0.155851)
(0.0630345 0.483734 -5.53362e-317 -0.142345 7.54499e-318 0.0793101)
(0.0368132 0.334657 -4.07236e-317 -0.0745154 2.21428e-317 0.0377022)
(0.0549389 0.206366 -2.73334e-317 -0.0703119 3.02401e-317 0.015373)
(0.0553577 0.111933 -1.61201e-317 -0.0590511 3.41887e-317 0.00369347)
(0.091171 0.0358058 -6.97647e-318 -0.088822 3.52477e-317 -0.00234899)
(0.116761 -0.00417143 1.6899e-319 -0.111398 3.46008e-317 -0.00536333)
(0.167112 -0.0232908 5.61979e-318 -0.159657 3.27542e-317 -0.00745514)
(0.203361 -0.00375566 9.62894e-318 -0.193765 3.03115e-317 -0.0095951)
(0.255074 0.0409312 1.24638e-317 -0.241554 2.73894e-317 -0.0135199)
(0.275225 0.128768 1.43442e-317 -0.254936 2.43183e-317 -0.0202886)
(0.30168 0.239143 1.54668e-317 -0.268915 2.1033e-317 -0.032765)
(0.264175 0.39565 1.59949e-317 -0.210317 1.77435e-317 -0.0538581)
(0.228039 0.549819 1.60795e-317 -0.137802 1.43369e-317 -0.0902375)
(0.0912568 0.743398 1.58708e-317 0.0596805 1.10424e-317 -0.150937)
(-0.0237857 0.868413 1.55442e-317 0.277677 7.95546e-318 -0.253891)
(-0.227322 1.00591 1.53134e-317 0.653984 5.76778e-318 -0.426663)
(-0.3025 0.981102 1.55548e-317 1.02202 5.81768e-318 -0.719517)
(-0.249336 0.926638 1.66999e-317 1.4601 1.07452e-317 -1.21076)
(0.0144056 0.908448 -5.8553e-317 -0.18179 -4.46266e-317 0.167385)
(-0.0151584 0.694329 -5.36211e-317 -0.0654302 -2.08649e-317 0.0805886)
(-0.00650261 0.494916 -4.39169e-317 -0.0297741 -2.85753e-318 0.0362768)
(-0.0285926 0.33083 -3.3371e-317 0.0149461 9.86553e-318 0.0136465)
(-0.000871042 0.181444 -2.32648e-317 -0.00156439 1.7993e-317 0.00243543)
(0.0096338 0.0753436 -1.43807e-317 -0.00680816 2.27862e-317 -0.00282564)
(0.0580482 -0.0156195 -6.95036e-318 -0.0528604 2.5076e-317 -0.00518779)
(0.0973171 -0.0690612 -9.4992e-319 -0.0912134 2.56903e-317 -0.00610377)
(0.165033 -0.0997276 3.72553e-318 -0.157941 2.50789e-317 -0.00709221)
(0.220254 -0.0951351 7.25093e-318 -0.211619 2.37097e-317 -0.00863465)
(0.296126 -0.0554119 9.79341e-318 -0.283659 2.17578e-317 -0.0124673)
(0.339874 0.0212087 1.15059e-317 -0.320516 1.9475e-317 -0.0193578)
(0.394738 0.143438 1.25418e-317 -0.36218 1.68751e-317 -0.0325585)
(0.377348 0.30431 1.29841e-317 -0.322516 1.40877e-317 -0.0548316)
(0.360631 0.504187 1.29835e-317 -0.266779 1.10553e-317 -0.0938523)
(0.218891 0.737877 1.25357e-317 -0.0597107 7.87074e-318 -0.15918)
(0.0863659 0.959333 1.1864e-317 0.185314 4.61538e-318 -0.27168)
(-0.174541 1.19903 1.09835e-317 0.637437 1.66924e-318 -0.462896)
(-0.316863 1.31762 1.0407e-317 1.11165 3.42511e-319 -0.79479)
(-0.315545 1.44779 1.11009e-317 1.68898 3.51785e-318 -1.37343)
(-0.0354275 0.945538 -4.5084e-317 0.0321504 -3.65743e-317 0.00327708)
(-0.0921085 0.699181 -4.2728e-317 0.103128 -2.13207e-317 -0.0110197)
(-0.100952 0.469398 -3.61717e-317 0.115359 -8.00964e-318 -0.0144064)
(-0.113974 0.297815 -2.82883e-317 0.127986 2.53044e-318 -0.0140121)
(-0.0882259 0.130771 -2.02654e-317 0.100313 9.98209e-318 -0.012087)
(-0.066712 0.0198504 -1.30123e-317 0.076671 1.48934e-317 -0.009959)
(-0.0162835 -0.0853188 -6.76105e-318 0.0242151 1.77241e-317 -0.00793164)
(0.035187 -0.146669 -1.65988e-318 -0.0288537 1.90313e-317 -0.00633334)
(0.109278 -0.189827 2.35797e-318 -0.103699 1.91713e-317 -0.00557932)
(0.181735 -0.193563 5.36528e-318 -0.17568 1.85128e-317 -0.00605524)
(0.271637 -0.160357 7.47086e-318 -0.262773 1.72336e-317 -0.00886314)
(0.340897 -0.0838047 8.75953e-318 -0.3258 1.55444e-317 -0.0150968)
(0.421517 0.0496982 9.29649e-318 -0.394057 1.34933e-317 -0.0274597)
(0.436188 0.235588 9.11443e-318 -0.386847 1.11853e-317 -0.049341)
(0.458066 0.485009 8.19583e-318 -0.370136 8.5992e-318 -0.0879307)
(0.33937 0.791789 6.53368e-318 -0.185398 5.77867e-318 -0.153972)
(0.249495 1.11989 4.02001e-318 0.0190945 2.74545e-318 -0.268589)
(-0.0317748 1.48838 8.39961e-319 0.498111 -4.13903e-319 -0.466336)
(-0.153628 1.74833 -2.97295e-318 0.965323 -3.18864e-318 -0.811695)
(-0.238859 1.99331 -5.50906e-318 1.64664 -5.17554e-318 -1.40778)
(-0.0886925 0.921709 -2.69733e-317 0.266262 -2.64373e-317 -0.17757)
(-0.161329 0.680244 -2.74878e-317 0.27061 -1.95161e-317 -0.109282)
(-0.174397 0.444022 -2.45701e-317 0.242024 -1.06033e-317 -0.0676268)
(-0.174878 0.27001 -1.97869e-317 0.217456 -2.40688e-318 -0.0425778)
(-0.147661 0.0945616 -1.44802e-317 0.174708 4.11978e-318 -0.0270461)
(-0.117224 -0.0245728 -9.31505e-318 0.134623 8.85959e-318 -0.0173987)
(-0.0647983 -0.141172 -4.71898e-318 0.0759153 1.19664e-317 -0.011117)
(-0.00533063 -0.216472 -8.29541e-319 0.0123189 1.3746e-317 -0.00698831)
(0.0752374 -0.273456 2.29096e-318 -0.0706079 1.44581e-317 -0.00462941)
(0.159902 -0.296875 4.66466e-318 -0.156046 1.43861e-317 -0.00385565)
(0.265311 -0.276675 6.32715e-318 -0.259673 1.37043e-317 -0.00563815)
(0.355861 -0.223294 7.31483e-318 -0.345172 1.25947e-317 -0.0106891)
(0.464582 -0.0910657 7.66513e-318 -0.442759 1.11366e-317 -0.0218225)
(0.510101 0.078063 7.36046e-318 -0.468187 9.42359e-318 -0.0419144)
(0.566941 0.363153 6.40185e-318 -0.488612 7.46973e-318 -0.078329)
(0.471882 0.684706 4.67837e-318 -0.33091 5.27603e-318 -0.140972)
(0.391287 1.12452 2.13724e-318 -0.139942 2.8242e-318 -0.251345)
(0.0772953 1.58905 -1.25079e-318 0.36655 -9.11699e-320 -0.443845)
(-0.119504 2.05944 -5.48555e-318 0.90845 -3.47577e-318 -0.788946)
(-0.305405 2.55836 -8.82719e-318 1.723 -7.79658e-318 -1.4176)
(-0.127413 0.841 -2.0206e-317 0.475526 -1.90239e-317 -0.348113)
(-0.226022 0.609604 -2.06e-317 0.42819 -1.58632e-317 -0.202169)
(-0.262019 0.380793 -1.84811e-317 0.37896 -1.02293e-317 -0.116942)
(-0.252426 0.219436 -1.48904e-317 0.32076 -4.19631e-318 -0.0683343)
(-0.232427 0.0440178 -1.07578e-317 0.272495 1.1625e-318 -0.0400676)
(-0.193476 -0.0745529 -6.7785e-318 0.217037 5.36129e-318 -0.0235614)
(-0.146207 -0.19894 -3.16803e-318 0.159553 8.3267e-318 -0.0133455)
(-0.0811421 -0.282575 -1.23413e-319 0.0880515 1.01879e-317 -0.00690934)
(-0.00577367 -0.351772 2.33117e-318 0.00859327 1.11209e-317 -0.0028196)
(0.0861959 -0.388938 4.16881e-318 -0.0854906 1.134e-317 -0.000705377)
(0.189193 -0.381981 5.39842e-318 -0.188271 1.10008e-317 -0.000921944)
(0.296651 -0.341765 6.01902e-318 -0.292313 1.02612e-317 -0.00433762)
(0.413192 -0.213295 6.01481e-318 -0.400163 9.21437e-318 -0.0130291)
(0.494344 -0.0393123 5.35398e-318 -0.464304 7.95507e-318 -0.0300397)
(0.579834 0.278354 3.93455e-318 -0.518486 6.53623e-318 -0.0613478)
(0.539118 0.659659 1.70332e-318 -0.42262 4.97431e-318 -0.116499)
(0.516567 1.21048 -1.62183e-318 -0.302642 3.24016e-318 -0.213924)
(0.245277 1.8301 -5.88317e-318 0.140379 1.02779e-318 -0.385656)
(0.119922 2.49489 -1.15176e-317 0.573002 -2.39038e-318 -0.692924)
(-0.124307 3.17162 -1.67887e-317 1.35891 -9.40351e-318 -1.2346)
(-0.186256 0.742613 -1.20906e-317 0.696636 -1.44662e-317 -0.51038)
(-0.280854 0.537825 -1.24988e-317 0.563997 -1.51013e-317 -0.283142)
(-0.322823 0.330663 -1.12363e-317 0.480755 -1.15445e-317 -0.157932)
(-0.299613 0.174591 -8.91068e-318 0.388628 -6.75573e-318 -0.0890153)
(-0.285288 0.00588299 -6.24971e-318 0.335565 -1.94558e-318 -0.0502771)
(-0.240583 -0.115677 -3.59875e-318 0.268899 2.06798e-318 -0.0283159)
(-0.198621 -0.242747 -1.15301e-318 0.21374 5.06723e-318 -0.0151192)
(-0.131535 -0.334363 9.83028e-319 0.138409 7.09165e-318 -0.00687426)
(-0.0597525 -0.412888 2.73581e-318 0.06124 8.27425e-318 -0.00148747)
(0.0346741 -0.465589 4.0666e-318 -0.0365391 8.79976e-318 0.00186497)
(0.140197 -0.474656 4.94704e-318 -0.143193 8.81702e-318 0.00299569)
(0.258937 -0.460939 5.35699e-318 -0.260357 8.47561e-318 0.00142005)
(0.393664 -0.349761 5.28327e-318 -0.388876 7.87985e-318 -0.00478794)
(0.506179 -0.211649 4.69216e-318 -0.488306 7.13196e-318 -0.0178733)
(0.633682 0.110596 3.55445e-318 -0.590603 6.30412e-318 -0.0430788)
(0.642775 0.461855 1.80264e-318 -0.55515 5.42431e-318 -0.0876246)
(0.664531 1.09185 -6.60082e-319 -0.497642 4.45526e-318 -0.166888)
(0.398992 1.7358 -3.82951e-318 -0.0923491 3.03701e-318 -0.306643)
(0.210422 2.61365 -7.94071e-318 0.353483 2.04889e-319 -0.563905)
(-0.209162 3.51071 -1.22273e-317 1.27333 -6.39344e-318 -1.06416)
(-0.202108 0.565091 -1.1975e-317 0.821909 -9.59959e-318 -0.619802)
(-0.331798 0.412498 -1.00206e-317 0.671638 -1.12373e-317 -0.33984)
(-0.392604 0.249887 -7.2945e-318 0.578094 -9.40731e-318 -0.185489)
(-0.364367 0.120451 -5.09599e-318 0.466439 -5.89105e-318 -0.102073)
(-0.353105 -0.0306184 -2.98877e-318 0.40934 -1.99389e-318 -0.0562356)
(-0.302113 -0.146177 -1.18069e-318 0.332897 1.38412e-318 -0.0307842)
(-0.265576 -0.27001 5.01195e-319 0.281256 3.95043e-318 -0.0156802)
(-0.198347 -0.364626 1.95988e-318 0.204632 5.7078e-318 -0.00628528)
(-0.139214 -0.447783 3.17788e-318 0.139075 6.75981e-318 0.000139428)
(-0.0487061 -0.511179 4.09085e-318 0.0441929 7.25855e-318 0.00451316)
(0.0383585 -0.533257 4.65774e-318 -0.0454623 7.33353e-318 0.00710377)
(0.158696 -0.538483 4.84033e-318 -0.166077 7.11267e-318 0.00738016)
(0.276413 -0.445568 4.60094e-318 -0.280576 6.69796e-318 0.00416298)
(0.414722 -0.325109 3.91821e-318 -0.410117 6.18787e-318 -0.00460426)
(0.54137 -0.0049887 2.71931e-318 -0.51911 5.67226e-318 -0.0222598)
(0.62499 0.368097 1.03345e-318 -0.570683 5.20892e-318 -0.0543069)
(0.687836 1.06862 -1.32936e-318 -0.577893 4.77903e-318 -0.109943)
(0.551495 1.85268 -4.15737e-318 -0.345488 4.12328e-318 -0.206007)
(0.47481 2.93235 -7.83007e-318 -0.100966 2.09699e-318 -0.373844)
(0.118401 4.06795 -1.20075e-317 0.540352 -3.94865e-318 -0.658753)
(-0.253046 0.449368 -7.73835e-318 0.955665 -1.41469e-317 -0.702619)
(-0.349703 0.311812 -5.36543e-318 0.720605 -1.69171e-317 -0.370903)
(-0.419045 0.17661 -2.66262e-318 0.61656 -1.40622e-317 -0.197515)
(-0.379677 0.0521674 -1.22481e-318 0.486263 -9.42921e-318 -0.106585)
(-0.376744 -0.0840248 -1.33872e-319 0.434502 -4.95058e-318 -0.0577573)
(-0.323468 -0.194207 7.67205e-319 0.354582 -1.24442e-318 -0.0311142)
(-0.294279 -0.309906 1.66253e-318 0.309743 1.48968e-318 -0.0154642)
(-0.230244 -0.400325 2.52804e-318 0.235925 3.40009e-318 -0.00568098)
(-0.181176 -0.48261 3.29526e-318 0.179984 4.62796e-318 0.00119232)
(-0.0985357 -0.549355 3.89309e-318 0.0922809 5.34929e-318 0.00625484)
(-0.0219704 -0.583152 4.25922e-318 0.0120998 5.69461e-318 0.00987057)
(0.0936669 -0.6072 4.35193e-318 -0.105459 5.7849e-318 0.011792)
(0.211887 -0.542814 4.15071e-318 -0.222978 5.71584e-318 0.0110905)
(0.366059 -0.465022 3.65313e-318 -0.372552 5.57851e-318 0.00649297)
(0.525636 -0.182475 2.8775e-318 -0.521415 5.45164e-318 -0.00422109)
(0.66374 0.1167 1.8697e-318 -0.640059 5.39113e-318 -0.023681)
(0.801633 0.813484 6.82245e-319 -0.745865 5.36229e-318 -0.055768)
(0.704537 1.49474 -6.13822e-319 -0.598754 5.15512e-318 -0.105784)
(0.617207 2.69052 -1.98731e-318 -0.428861 3.82746e-318 -0.188346)
(-0.0304343 3.83124 -4.03364e-318 0.402401 -2.281e-319 -0.371967)
(-0.246107 0.223004 -4.98137e-319 0.951401 -4.19276e-318 -0.705294)
(-0.389999 0.166923 1.59806e-318 0.757122 -9.2362e-318 -0.367122)
(-0.456116 0.105416 3.44497e-318 0.64797 -8.22058e-318 -0.191854)
(-0.415824 0.0108939 3.32885e-318 0.517765 -4.88774e-318 -0.101941)
(-0.403288 -0.0913195 3.08076e-318 0.457884 -1.64889e-318 -0.0545967)
(-0.343923 -0.189953 2.92147e-318 0.373064 9.7619e-319 -0.0291407)
(-0.31687 -0.287585 3.04587e-318 0.33109 2.83348e-318 -0.0142206)
(-0.256258 -0.370986 3.34638e-318 0.261085 4.06643e-318 -0.00482652)
(-0.223253 -0.444319 3.70594e-318 0.221215 4.79664e-318 0.00203809)
(-0.153852 -0.510225 4.01196e-318 0.146484 5.15883e-318 0.00736783)
(-0.106451 -0.547788 4.17536e-318 0.0947107 5.25353e-318 0.0117406)
(-0.0064462 -0.583013 4.14022e-318 -0.0084487 5.1717e-318 0.0148949)
(0.072203 -0.541318 3.87047e-318 -0.088652 4.99097e-318 0.016449)
(0.228765 -0.490273 3.37123e-318 -0.244152 4.78568e-318 0.0153872)
(0.346425 -0.247681 2.63163e-318 -0.357492 4.63027e-318 0.0110672)
(0.552877 0.0276504 1.7627e-318 -0.555519 4.58837e-318 0.00264217)
(0.670164 0.708962 7.48183e-319 -0.662806 4.64078e-318 -0.00735736)
(0.792787 1.4673 -1.7776e-319 -0.780675 4.69587e-318 -0.012112)
(0.788274 2.796 -1.06373e-318 -0.802144 3.97534e-318 0.0138691)
(0.488647 4.27184 -2.54663e-318 -0.639923 1.3168e-318 0.151276)
(-0.265711 0.142705 7.68816e-318 0.930993 -1.98061e-317 -0.665282)
(-0.336873 0.0536375 6.79552e-318 0.668421 -2.2039e-317 -0.331548)
(-0.412894 -0.00963956 6.11354e-318 0.582256 -1.69843e-317 -0.169361)
(-0.36648 -0.10025 4.67166e-318 0.455351 -1.06039e-317 -0.0888711)
(-0.362427 -0.193053 3.55995e-318 0.409736 -6.10445e-318 -0.0473093)
(-0.307618 -0.273325 2.93789e-318 0.332852 -2.80653e-318 -0.0252338)
(-0.287286 -0.355954 2.73198e-318 0.299555 -5.99771e-319 -0.0122686)
(-0.235681 -0.421406 2.81225e-318 0.239673 9.37144e-319 -0.00399216)
(-0.213538 -0.484134 3.00551e-318 0.21127 1.98008e-318 0.00226782)
(-0.159294 -0.540345 3.20136e-318 0.151904 2.69372e-318 0.00739012)
(-0.127425 -0.580984 3.31095e-318 0.115499 3.17137e-318 0.0119259)
(-0.0469156 -0.622778 3.28877e-318 0.031161 3.49122e-318 0.0157546)
(0.0176785 -0.610439 3.11923e-318 -0.0363577 3.70899e-318 0.0186792)
(0.160496 -0.596581 2.8264e-318 -0.18066 3.87709e-318 0.0201639)
(0.287683 -0.42611 2.46994e-318 -0.307956 4.0334e-318 0.0202727)
(0.50854 -0.248105 2.15271e-318 -0.528414 4.2121e-318 0.0198736)
(0.706902 0.316613 2.04299e-318 -0.732075 4.37463e-318 0.0251728)
(0.845322 0.838043 2.19336e-318 -0.89782 4.43682e-318 0.0524972)
(0.952151 2.06392 2.8845e-318 -1.0985 3.98607e-318 0.146353)
(0.175091 3.06945 3.06436e-318 -0.532092 2.76167e-318 0.357001)
(-0.238431 -0.0839699 2.86809e-317 0.774439 1.05803e-317 -0.536008)
(-0.3671 -0.0733265 2.16736e-317 0.629012 -1.35418e-319 -0.261912)
(-0.397001 -0.0303475 1.44261e-317 0.528747 -9.53754e-319 -0.131746)
(-0.348841 -0.0936681 9.51749e-318 0.417524 8.10954e-319 -0.0686838)
(-0.32395 -0.127256 6.23819e-318 0.360513 2.36342e-318 -0.0365631)
(-0.261488 -0.192091 4.53792e-318 0.281134 3.4561e-318 -0.0196461)
(-0.243857 -0.237074 3.67612e-318 0.253456 4.12572e-318 -0.00959907)
(-0.196993 -0.286863 3.36358e-318 0.20007 4.48406e-318 -0.00307715)
(-0.192414 -0.324089 3.28564e-318 0.190338 4.6184e-318 0.00207524)
(-0.154666 -0.363768 3.29476e-318 0.148203 4.59248e-318 0.00646298)
(-0.154448 -0.390665 3.27482e-318 0.143827 4.45677e-318 0.0106206)
(-0.0996999 -0.418562 3.17112e-318 0.0852824 4.25199e-318 0.0144175)
(-0.085798 -0.414194 2.95124e-318 0.067891 4.01795e-318 0.017907)
(0.032923 -0.40058 2.63159e-318 -0.053614 3.79189e-318 0.0206911)
(0.0828097 -0.284718 2.22817e-318 -0.106228 3.60737e-318 0.0234185)
(0.334144 -0.137464 1.86195e-318 -0.361477 3.49743e-318 0.0273333)
(0.419325 0.303669 1.58743e-318 -0.459916 3.42541e-318 0.0405917)
(0.8324 0.815944 1.58891e-318 -0.916693 3.35969e-318 0.0842933)
(0.84377 1.97124 1.91969e-318 -1.07808 3.00128e-318 0.234311)
(0.94419 3.49529 1.93917e-318 -1.69506 2.23074e-318 0.750867)
(-0.168835 -0.0969945 1.93946e-317 0.524617 -2.42038e-317 -0.355781)
(-0.168429 -0.190078 1.29928e-317 0.335728 -2.05035e-317 -0.167299)
(-0.215819 -0.230903 7.36872e-318 0.298961 -1.45698e-317 -0.0831421)
(-0.17959 -0.279031 4.30349e-318 0.222967 -9.03692e-318 -0.043377)
(-0.171825 -0.335359 2.56834e-318 0.19509 -6.10376e-318 -0.0232645)
(-0.135846 -0.36596 1.75658e-318 0.148566 -4.10882e-318 -0.01272)
(-0.125096 -0.406582 1.41645e-318 0.131419 -2.81731e-318 -0.00632249)
(-0.0980373 -0.430701 1.35138e-318 0.100118 -1.83865e-318 -0.00208035)
(-0.0952656 -0.460815 1.3962e-318 0.0938351 -1.07809e-318 0.00143051)
(-0.0743219 -0.488314 1.47108e-318 0.0697854 -4.50227e-319 0.0045365)
(-0.074832 -0.515912 1.51775e-318 0.0672076 7.69359e-320 0.00762445)
(-0.0438591 -0.550573 1.51361e-318 0.0332494 5.27069e-319 0.0106097)
(-0.0332405 -0.569037 1.45457e-318 0.0196484 9.09199e-319 0.013592)
(0.0394588 -0.597375 1.36635e-318 -0.0558093 1.23024e-318 0.0163505)
(0.0878772 -0.559812 1.30329e-318 -0.107367 1.48726e-318 0.0194893)
(0.248368 -0.527936 1.33463e-318 -0.272387 1.67945e-318 0.0240189)
(0.384778 -0.284706 1.60548e-318 -0.421192 1.79862e-318 0.0364146)
(0.60412 -0.0899292 2.08707e-318 -0.677621 1.82522e-318 0.0735013)
(0.898823 0.657172 2.99772e-318 -1.09382 1.79014e-318 0.194996)
(0.190808 0.964813 3.69926e-318 -0.718251 1.95927e-318 0.527443)
(-0.0667396 -0.329795 3.63017e-317 0.181811 3.59176e-317 -0.115072)
(-0.175705 -0.259193 2.45677e-317 0.232561 1.70108e-317 -0.056856)
(-0.128895 -0.115581 1.21565e-317 0.157437 1.1399e-317 -0.0285419)
(-0.0891168 -0.13632 6.97488e-318 0.10425 8.60321e-318 -0.0151336)
(-0.065254 -0.0756433 3.86503e-318 0.073538 7.7576e-318 -0.00828396)
(-0.0201662 -0.0989652 2.61545e-318 0.0248609 7.20124e-318 -0.00469473)
(-0.0207844 -0.0708166 1.96197e-318 0.0232026 6.8845e-318 -0.00241819)
(0.00300084 -0.0816381 1.71241e-318 -0.00213214 6.55383e-318 -0.0008687)
(-0.0130992 -0.0642407 1.59394e-318 0.0126015 6.22049e-318 0.000497673)
(-0.00372979 -0.059142 1.54135e-318 0.00198084 5.85079e-318 0.00174895)
(-0.0316488 -0.0449508 1.48824e-318 0.0285954 5.46273e-318 0.00305344)
(-0.0223715 -0.0180332 1.41098e-318 0.018004 5.06588e-318 0.00436753)
(-0.0597533 -0.00210723 1.291e-318 0.0539932 4.681e-318 0.00576008)
(-0.0221276 0.0604769 1.1341e-318 0.0149902 4.32468e-318 0.0071374)
(-0.0642757 0.0869795 9.38147e-319 0.0554972 3.99939e-318 0.00877853)
(0.0777643 0.211438 7.70006e-319 -0.0887376 3.70898e-318 0.0109732)
(0.0316994 0.274667 6.43496e-319 -0.0480315 3.38485e-318 0.0163321)
(0.483767 0.505896 6.81677e-319 -0.51563 2.95502e-318 0.0318631)
(0.348143 0.734521 8.86082e-319 -0.444236 2.32203e-318 0.0960933)
(1.2094 1.7249 9.9616e-319 -1.67578 1.30391e-318 0.466376)
)
;

boundaryField
{
    cavity
    {
        type            mySigma;
    }
    lid
    {
        type            fixedValue;
        value           uniform (0.1 -0.3 0 -0.1 0 0);
    }
    frontAndBack
    {
        type            empty;
    }
}


// ************************************************************************* //
