/*--------------------------------*- C++ -*----------------------------------*\
| =========                 |                                                 |
| \\      /  F ield         | foam-extend: Open Source CFD                    |
|  \\    /   O peration     | Version:  3.0                                   |
|   \\  /    A nd           | Web:         http://www.extend-project.de       |
|    \\/     M anipulation  |                                                 |
\*---------------------------------------------------------------------------*/
FoamFile
{
    version     2.0;
    format      ascii;
    class       volScalarField;
    location    "6.7";
    object      Theta;
}
// * * * * * * * * * * * * * * * * * * * * * * * * * * * * * * * * * * * * * //

dimensions      [0 0 0 0 0 0 0];

internalField   nonuniform List<scalar> 
400
(
0.21712
-0.0501533
-0.0802205
-0.131961
-0.0935713
-0.079469
-0.0270036
0.00767601
0.0605357
0.101125
0.153026
0.192785
0.243315
0.273637
0.317305
0.320347
0.339503
0.274837
0.223278
-0.0239555
0.556546
0.339027
0.27974
0.191406
0.183659
0.147602
0.151975
0.136328
0.141497
0.131784
0.134378
0.121804
0.120016
0.0963233
0.0873403
0.0404431
0.0152944
-0.0786468
-0.149862
-0.343223
0.437138
0.230999
0.192714
0.124446
0.128587
0.107644
0.120623
0.11612
0.129507
0.129848
0.142405
0.141505
0.152867
0.143965
0.150943
0.121202
0.112269
0.0339216
-0.0222853
-0.211627
0.43172
0.27917
0.237512
0.177027
0.173549
0.14857
0.152952
0.140792
0.145645
0.13789
0.143144
0.135566
0.142085
0.129328
0.134602
0.104746
0.0957158
0.0226279
-0.0360451
-0.194681
0.319843
0.169196
0.149977
0.102461
0.113694
0.100576
0.116092
0.114794
0.130553
0.134302
0.152794
0.159098
0.183382
0.187509
0.216286
0.203444
0.221944
0.154261
0.116625
-0.0854623
0.27389
0.151632
0.139144
0.102627
0.114768
0.104461
0.118346
0.116625
0.130588
0.133785
0.152412
0.160462
0.189118
0.199312
0.238854
0.236457
0.271572
0.211012
0.184482
-0.0439357
0.194153
0.0870186
0.08927
0.063415
0.081919
0.0778763
0.0954391
0.0985017
0.116527
0.12514
0.150526
0.166624
0.207677
0.230155
0.291328
0.303822
0.371071
0.31313
0.314568
0.0145642
0.138814
0.0710494
0.0786703
0.0648994
0.0810014
0.0791427
0.0923741
0.0939865
0.107673
0.114184
0.136639
0.152576
0.194332
0.221735
0.290355
0.31513
0.39797
0.352984
0.367144
0.0406516
0.0714162
0.0454099
0.0589199
0.0569468
0.0698503
0.0704005
0.0795092
0.0805308
0.0907309
0.0960135
0.116737
0.13299
0.177742
0.210014
0.292278
0.328476
0.443021
0.406427
0.464955
0.0779951
0.0095623
0.0368581
0.0548357
0.0658797
0.0731979
0.074651
0.0762765
0.073477
0.0752091
0.0743751
0.0857539
0.0959087
0.131529
0.161948
0.237895
0.283313
0.39716
0.385731
0.445267
0.0864762
-0.0491687
0.0356791
0.0513564
0.0754586
0.0740033
0.0764207
0.0695482
0.0628221
0.0556411
0.0479144
0.0495861
0.0517058
0.0790817
0.10418
0.181013
0.230628
0.371176
0.377486
0.50981
0.134682
-0.110218
0.0249412
0.0494448
0.0858449
0.0806612
0.0836468
0.0691462
0.0570317
0.0388155
0.021132
0.00747133
-0.00342944
0.00354189
0.0170258
0.0684728
0.119794
0.230959
0.276526
0.377325
0.127864
-0.151139
0.0381006
0.0535627
0.103222
0.0887455
0.0931978
0.0696451
0.0522268
0.0225373
-0.00598068
-0.0350833
-0.061521
-0.0732039
-0.076823
-0.0394274
0.00360854
0.132217
0.201292
0.414262
0.215844
-0.1967
0.0242928
0.0560214
0.11522
0.102157
0.107237
0.0780912
0.0546355
0.0134676
-0.027407
-0.0751559
-0.120126
-0.160663
-0.185978
-0.192037
-0.159052
-0.0950721
0.0216609
0.141721
0.190915
-0.204257
0.0504886
0.0693236
0.140663
0.120962
0.128353
0.0915791
0.0624776
0.00967413
-0.0438034
-0.109301
-0.174603
-0.240573
-0.293844
-0.327839
-0.320814
-0.253759
-0.120418
0.153197
0.327571
-0.210344
0.0510771
0.0901296
0.166104
0.151166
0.158026
0.117247
0.0816689
0.0185505
-0.0475715
-0.131074
-0.216917
-0.313862
-0.396268
-0.483837
-0.502504
-0.530726
-0.359542
-0.267947
0.263715
-0.162987
0.0986031
0.124939
0.209533
0.190253
0.198284
0.150796
0.109195
0.0358526
-0.0421875
-0.141734
-0.248176
-0.371421
-0.488089
-0.613008
-0.677565
-0.724856
-0.566019
-0.307799
0.397885
-0.0915243
0.149649
0.189152
0.269756
0.251442
0.254195
0.20179
0.152576
0.0714765
-0.0171243
-0.129171
-0.253153
-0.400492
-0.548161
-0.722079
-0.831349
-0.982298
-0.835402
-0.845876
0.230102
0.0354624
0.235033
0.264688
0.345398
0.320735
0.319329
0.259303
0.203026
0.114298
0.0167413
-0.105689
-0.245281
-0.412559
-0.592639
-0.804621
-0.974476
-1.17418
-1.09229
-1.02408
0.197425
0.241933
0.389162
0.407454
0.466156
0.428874
0.409678
0.342575
0.275037
0.18445
0.0796558
-0.0426164
-0.192415
-0.363857
-0.570808
-0.803485
-1.04266
-1.30477
-1.36388
-1.52288
-0.273186
)
;

boundaryField
{
    cavity
    {
        type            implicitExtrapolation;
    }
    lid
    {
        type            implicitExtrapolation;
    }
    frontAndBack
    {
        type            empty;
    }
}


// ************************************************************************* //
