/*--------------------------------*- C++ -*----------------------------------*\
| =========                 |                                                 |
| \\      /  F ield         | foam-extend: Open Source CFD                    |
|  \\    /   O peration     | Version:  3.0                                   |
|   \\  /    A nd           | Web:         http://www.extend-project.de       |
|    \\/     M anipulation  |                                                 |
\*---------------------------------------------------------------------------*/
FoamFile
{
    version     2.0;
    format      ascii;
    class       volVectorField;
    location    "7";
    object      u;
}
// * * * * * * * * * * * * * * * * * * * * * * * * * * * * * * * * * * * * * //

dimensions      [0 0 0 0 0 0 0];

internalField   nonuniform List<vector> 
400
(
(-0.0182399 -0.0525099 0)
(-0.0329147 0.0220305 0)
(-0.127359 0.049483 0)
(-0.17049 0.0430583 0)
(-0.242175 0.0381527 0)
(-0.27494 0.0289529 0)
(-0.323606 0.0215193 0)
(-0.337242 0.0148288 0)
(-0.365883 0.00841487 0)
(-0.358781 0.00300554 0)
(-0.369863 -0.00381453 0)
(-0.339939 -0.00877504 0)
(-0.33606 -0.0177996 0)
(-0.279098 -0.0222298 0)
(-0.265095 -0.0362352 0)
(-0.173424 -0.036184 0)
(-0.163805 -0.0620744 0)
(-0.0216902 -0.0291345 0)
(-0.0732707 -0.0761035 0)
(0.145106 0.102439 0)
(-0.0591462 0.103507 0)
(-0.0974811 0.0811057 0)
(-0.154886 0.087241 0)
(-0.181826 0.0717827 0)
(-0.23134 0.0664177 0)
(-0.254766 0.0525753 0)
(-0.291961 0.0407555 0)
(-0.304273 0.0273394 0)
(-0.325643 0.0129041 0)
(-0.322259 0.000699744 0)
(-0.327875 -0.0153664 0)
(-0.306907 -0.0253761 0)
(-0.298998 -0.0433986 0)
(-0.259715 -0.0490463 0)
(-0.24337 -0.069699 0)
(-0.187067 -0.0652558 0)
(-0.171807 -0.0897048 0)
(-0.107325 -0.0612619 0)
(-0.0955108 -0.0904419 0)
(-0.0532118 -0.0301162 0)
(-0.0251451 0.0975735 0)
(-0.0777243 0.111273 0)
(-0.129004 0.129746 0)
(-0.167599 0.115101 0)
(-0.211112 0.106697 0)
(-0.23717 0.0844498 0)
(-0.26849 0.0659957 0)
(-0.282036 0.0428877 0)
(-0.299538 0.0210672 0)
(-0.299835 -0.000500035 0)
(-0.30338 -0.0243926 0)
(-0.28987 -0.0430824 0)
(-0.280234 -0.0696709 0)
(-0.252893 -0.0825408 0)
(-0.231823 -0.112551 0)
(-0.19186 -0.111171 0)
(-0.161919 -0.143993 0)
(-0.113783 -0.106882 0)
(-0.0746095 -0.130741 0)
(-0.0322153 -0.0456546 0)
(-0.0378745 0.204672 0)
(-0.0920097 0.182719 0)
(-0.138575 0.176038 0)
(-0.168306 0.152842 0)
(-0.203609 0.134868 0)
(-0.222153 0.108558 0)
(-0.248109 0.0841811 0)
(-0.257599 0.056728 0)
(-0.272742 0.0291091 0)
(-0.272657 0.00283577 0)
(-0.276399 -0.026853 0)
(-0.266463 -0.0500336 0)
(-0.259199 -0.0815833 0)
(-0.240103 -0.0985327 0)
(-0.222581 -0.131403 0)
(-0.196438 -0.135601 0)
(-0.167389 -0.167838 0)
(-0.138443 -0.148283 0)
(-0.0847196 -0.171745 0)
(-0.0567802 -0.136296 0)
(-0.0298467 0.227 0)
(-0.0823199 0.21081 0)
(-0.126138 0.205791 0)
(-0.160536 0.179886 0)
(-0.1932 0.160158 0)
(-0.214807 0.128386 0)
(-0.237617 0.1008 0)
(-0.249282 0.0667684 0)
(-0.262054 0.0353932 0)
(-0.264947 0.00240459 0)
(-0.267408 -0.0312203 0)
(-0.261961 -0.0608408 0)
(-0.253757 -0.0963798 0)
(-0.24021 -0.119343 0)
(-0.220467 -0.156126 0)
(-0.19907 -0.166052 0)
(-0.165066 -0.201423 0)
(-0.136308 -0.188795 0)
(-0.079872 -0.211634 0)
(-0.0442539 -0.186439 0)
(-0.0323881 0.316585 0)
(-0.081433 0.278857 0)
(-0.124742 0.254388 0)
(-0.15293 0.219936 0)
(-0.182276 0.189002 0)
(-0.198066 0.152707 0)
(-0.217852 0.118306 0)
(-0.225622 0.0807626 0)
(-0.237019 0.0443841 0)
(-0.238625 0.00783026 0)
(-0.241647 -0.0301001 0)
(-0.237773 -0.0638349 0)
(-0.231732 -0.103308 0)
(-0.222528 -0.131622 0)
(-0.205563 -0.17212 0)
(-0.190604 -0.190384 0)
(-0.158224 -0.229808 0)
(-0.136103 -0.232584 0)
(-0.0784093 -0.26298 0)
(-0.0447215 -0.259755 0)
(-0.032226 0.340634 0)
(-0.0781942 0.303076 0)
(-0.119979 0.277545 0)
(-0.148728 0.237558 0)
(-0.175969 0.20525 0)
(-0.192991 0.163807 0)
(-0.210187 0.128126 0)
(-0.21949 0.0856812 0)
(-0.228733 0.0481591 0)
(-0.232646 0.00685262 0)
(-0.234396 -0.0321506 0)
(-0.233765 -0.0707049 0)
(-0.227021 -0.1114 0)
(-0.221414 -0.145103 0)
(-0.203484 -0.187427 0)
(-0.191098 -0.212579 0)
(-0.157143 -0.254954 0)
(-0.134804 -0.267586 0)
(-0.077776 -0.302117 0)
(-0.0409464 -0.308908 0)
(-0.032023 0.42679 0)
(-0.0705139 0.36718 0)
(-0.110906 0.325307 0)
(-0.132641 0.276094 0)
(-0.157312 0.233232 0)
(-0.168518 0.186792 0)
(-0.183311 0.144602 0)
(-0.188545 0.0990992 0)
(-0.196621 0.0573527 0)
(-0.198639 0.0133764 0)
(-0.200909 -0.0289951 0)
(-0.200804 -0.0710871 0)
(-0.196165 -0.115368 0)
(-0.193542 -0.154683 0)
(-0.17871 -0.201758 0)
(-0.171521 -0.235868 0)
(-0.140687 -0.285107 0)
(-0.124941 -0.31094 0)
(-0.070393 -0.35599 0)
(-0.039672 -0.37792 0)
(-0.0338341 0.442966 0)
(-0.0697917 0.38229 0)
(-0.108769 0.340031 0)
(-0.128484 0.284138 0)
(-0.150308 0.241115 0)
(-0.160383 0.189706 0)
(-0.172032 0.147995 0)
(-0.177368 0.0988384 0)
(-0.183014 0.0581319 0)
(-0.186612 0.0110982 0)
(-0.187648 -0.0299203 0)
(-0.19055 -0.0752423 0)
(-0.185728 -0.118284 0)
(-0.187013 -0.161996 0)
(-0.172419 -0.208688 0)
(-0.168997 -0.249675 0)
(-0.138248 -0.300481 0)
(-0.124837 -0.336842 0)
(-0.0706902 -0.386546 0)
(-0.0401969 -0.418464 0)
(-0.0314118 0.530193 0)
(-0.0550978 0.443062 0)
(-0.0903043 0.38445 0)
(-0.100756 0.317805 0)
(-0.11865 0.265099 0)
(-0.121907 0.208399 0)
(-0.130448 0.161418 0)
(-0.131101 0.109925 0)
(-0.135249 0.0664735 0)
(-0.136327 0.0179704 0)
(-0.137875 -0.0249896 0)
(-0.140613 -0.0727971 0)
(-0.138397 -0.118529 0)
(-0.142223 -0.167437 0)
(-0.132122 -0.21903 0)
(-0.134427 -0.269141 0)
(-0.109377 -0.328262 0)
(-0.105098 -0.377538 0)
(-0.0565329 -0.43989 0)
(-0.0377275 -0.488435 0)
(-0.0338662 0.529277 0)
(-0.0548936 0.441668 0)
(-0.0876488 0.386041 0)
(-0.0934804 0.312639 0)
(-0.106835 0.262244 0)
(-0.106304 0.20141 0)
(-0.110509 0.157053 0)
(-0.109504 0.103522 0)
(-0.110769 0.0632823 0)
(-0.112655 0.0137332 0)
(-0.113246 -0.0255158 0)
(-0.119188 -0.0744604 0)
(-0.117845 -0.116248 0)
(-0.126874 -0.167674 0)
(-0.118765 -0.215706 0)
(-0.127334 -0.271504 0)
(-0.104056 -0.328803 0)
(-0.105375 -0.388751 0)
(-0.0567919 -0.453223 0)
(-0.0405298 -0.512421 0)
(-0.0277043 0.618755 0)
(-0.0300267 0.497992 0)
(-0.0549179 0.4235 0)
(-0.0489401 0.337155 0)
(-0.0556705 0.277886 0)
(-0.0473758 0.211966 0)
(-0.0469664 0.164471 0)
(-0.0408174 0.110059 0)
(-0.0399104 0.0695424 0)
(-0.0387264 0.0204527 0)
(-0.0397615 -0.0183437 0)
(-0.0446859 -0.067946 0)
(-0.0466369 -0.110434 0)
(-0.0573317 -0.165945 0)
(-0.0557111 -0.217831 0)
(-0.0700643 -0.282994 0)
(-0.0563818 -0.349296 0)
(-0.0695297 -0.423976 0)
(-0.031916 -0.504167 0)
(-0.034501 -0.585604 0)
(-0.0316319 0.586844 0)
(-0.0305243 0.46935 0)
(-0.0507553 0.405257 0)
(-0.0362166 0.31353 0)
(-0.0355157 0.260656 0)
(-0.0201745 0.192632 0)
(-0.0137449 0.150395 0)
(-0.00402025 0.096394 0)
(0.000236712 0.0611711 0)
(0.00142572 0.0136528 0)
(0.000807133 -0.0193765 0)
(-0.00754218 -0.0672702 0)
(-0.0119963 -0.103135 0)
(-0.0294722 -0.157982 0)
(-0.0326354 -0.202203 0)
(-0.0565747 -0.269971 0)
(-0.0476055 -0.32843 0)
(-0.0708322 -0.412435 0)
(-0.0330574 -0.487744 0)
(-0.0405849 -0.57876 0)
(-0.0182101 0.68076 0)
(0.0109878 0.518358 0)
(0.00573625 0.429664 0)
(0.0333774 0.322094 0)
(0.0443714 0.261831 0)
(0.0666182 0.190132 0)
(0.079239 0.148233 0)
(0.093162 0.09603 0)
(0.100198 0.064104 0)
(0.104383 0.0199828 0)
(0.103594 -0.00916624 0)
(0.0975319 -0.0548009 0)
(0.0896321 -0.0880207 0)
(0.0730637 -0.144686 0)
(0.0617791 -0.189981 0)
(0.0348474 -0.26721 0)
(0.0290409 -0.334214 0)
(-0.00632816 -0.437853 0)
(0.0100066 -0.534036 0)
(-0.0260371 -0.659314 0)
(-0.0301838 0.593963 0)
(0.00674374 0.445744 0)
(0.00997967 0.383124 0)
(0.0534595 0.27507 0)
(0.0764246 0.227449 0)
(0.109675 0.157776 0)
(0.130255 0.123861 0)
(0.149443 0.0754904 0)
(0.160163 0.0500722 0)
(0.165148 0.010476 0)
(0.164207 -0.012194 0)
(0.154984 -0.05285 0)
(0.142769 -0.0780756 0)
(0.118463 -0.12942 0)
(0.0982681 -0.163176 0)
(0.0580725 -0.236388 0)
(0.0411662 -0.286436 0)
(-0.0114777 -0.392772 0)
(0.00308259 -0.467721 0)
(-0.0431198 -0.594927 0)
(0.00658316 0.704126 0)
(0.0793504 0.479537 0)
(0.112409 0.383453 0)
(0.162638 0.255903 0)
(0.19935 0.205697 0)
(0.232582 0.136371 0)
(0.259187 0.108544 0)
(0.277842 0.0662615 0)
(0.290875 0.0486119 0)
(0.296989 0.0162557 0)
(0.296377 0.00142473 0)
(0.290833 -0.0328139 0)
(0.276788 -0.0508345 0)
(0.258664 -0.099421 0)
(0.231742 -0.128759 0)
(0.197908 -0.209277 0)
(0.162482 -0.263905 0)
(0.107345 -0.399232 0)
(0.0802493 -0.502194 0)
(-0.00160319 -0.699616 0)
(-0.0357335 0.508027 0)
(0.0689069 0.340022 0)
(0.120673 0.300123 0)
(0.200458 0.188459 0)
(0.256176 0.157713 0)
(0.304085 0.0981608 0)
(0.340385 0.0788482 0)
(0.364818 0.0441217 0)
(0.381694 0.0313302 0)
(0.389217 0.00548677 0)
(0.388592 -0.00541619 0)
(0.381354 -0.0325267 0)
(0.362531 -0.045072 0)
(0.338127 -0.083469 0)
(0.298132 -0.101484 0)
(0.249402 -0.166235 0)
(0.189559 -0.195101 0)
(0.106982 -0.310032 0)
(0.0601816 -0.358636 0)
(-0.0479232 -0.516605 0)
(0.104406 0.671001 0)
(0.189912 0.324767 0)
(0.297959 0.252369 0)
(0.344205 0.120779 0)
(0.407969 0.102323 0)
(0.433394 0.0524701 0)
(0.468324 0.0481674 0)
(0.480997 0.0254009 0)
(0.496429 0.0247539 0)
(0.500582 0.0100112 0)
(0.500622 0.010045 0)
(0.497732 -0.00589304 0)
(0.482033 -0.00667128 0)
(0.471227 -0.0340417 0)
(0.435034 -0.0390621 0)
(0.41222 -0.0998149 0)
(0.346131 -0.120767 0)
(0.299953 -0.26943 0)
(0.191741 -0.347258 0)
(0.0901889 -0.687785 0)
(0.085735 0.213879 0)
(0.286581 0.146212 0)
(0.467048 0.146484 0)
(0.562432 0.0791299 0)
(0.655844 0.0690788 0)
(0.697117 0.0383846 0)
(0.741394 0.0318656 0)
(0.758682 0.0167238 0)
(0.776916 0.0125419 0)
(0.782505 0.00219443 0)
(0.783052 -0.00157453 0)
(0.780125 -0.0128636 0)
(0.761761 -0.0174439 0)
(0.74778 -0.0353372 0)
(0.699289 -0.0413981 0)
(0.663929 -0.0763824 0)
(0.558198 -0.0821083 0)
(0.47652 -0.155254 0)
(0.270546 -0.148918 0)
(0.108463 -0.235167 0)
(0.294803 0.298925 0)
(0.218465 -0.0551431 0)
(0.386206 -0.0230934 0)
(0.342151 -0.0674702 0)
(0.398155 -0.0318305 0)
(0.379684 -0.0324292 0)
(0.404414 -0.012672 0)
(0.399206 -0.00929197 0)
(0.412219 0.0018486 0)
(0.414014 0.00489275 0)
(0.419774 0.0135174 0)
(0.426461 0.0165505 0)
(0.42399 0.0268452 0)
(0.436386 0.0295783 0)
(0.418718 0.0458414 0)
(0.441226 0.0421603 0)
(0.384753 0.0672593 0)
(0.426422 0.0184838 0)
(0.247757 0.0206302 0)
(0.29758 -0.309376 0)
)
;

boundaryField
{
    cavity
    {
        type            myImplicitVelocity;
    }
    lid
    {
        type            fixedValue;
        value           uniform (1 0 0);
    }
    frontAndBack
    {
        type            empty;
    }
}


// ************************************************************************* //
