/*--------------------------------*- C++ -*----------------------------------*\
| =========                 |                                                 |
| \\      /  F ield         | foam-extend: Open Source CFD                    |
|  \\    /   O peration     | Version:  3.0                                   |
|   \\  /    A nd           | Web:         http://www.extend-project.de       |
|    \\/     M anipulation  |                                                 |
\*---------------------------------------------------------------------------*/
FoamFile
{
    version     2.0;
    format      ascii;
    class       volSymmTensorField;
    location    "6.6";
    object      sigma;
}
// * * * * * * * * * * * * * * * * * * * * * * * * * * * * * * * * * * * * * //

dimensions      [0 0 0 0 0 0 0];

internalField   nonuniform List<symmTensor> 
400
(
(0.385482 0.109085 1.83387e-316 -0.526045 2.15438e-316 0.140564)
(0.714097 -0.0631864 1.86445e-316 -0.47563 2.34449e-316 -0.238467)
(0.857904 -0.280663 1.78146e-316 -0.44249 2.268e-316 -0.415413)
(0.830506 -0.424768 1.67084e-316 -0.369294 2.09006e-316 -0.461212)
(0.77038 -0.580989 1.5301e-316 -0.322281 1.86385e-316 -0.448099)
(0.648564 -0.685839 1.39767e-316 -0.255277 1.65249e-316 -0.393287)
(0.528835 -0.779671 1.26406e-316 -0.205522 1.4372e-316 -0.323313)
(0.384897 -0.843269 1.14444e-316 -0.144855 1.26294e-316 -0.240043)
(0.246622 -0.887956 1.03255e-316 -0.093729 1.08968e-316 -0.152893)
(0.0938115 -0.91196 9.32739e-317 -0.0341998 9.5938e-317 -0.0596117)
(-0.057051 -0.914572 8.42617e-317 0.0214202 8.2644e-317 0.0356308)
(-0.219015 -0.898739 7.60936e-317 0.0845356 7.32069e-317 0.134479)
(-0.378851 -0.858719 6.88951e-317 0.146607 6.30847e-317 0.232244)
(-0.541177 -0.800829 6.20165e-317 0.214232 5.62431e-317 0.326945)
(-0.686592 -0.712162 5.61819e-317 0.278114 4.85525e-317 0.408478)
(-0.813677 -0.612129 4.99602e-317 0.34501 4.35301e-317 0.468667)
(-0.878631 -0.465666 4.51134e-317 0.395491 3.7985e-317 0.483141)
(-0.881555 -0.328702 3.92653e-317 0.449699 3.44642e-317 0.431856)
(-0.717762 -0.124728 3.53895e-317 0.464209 3.11785e-317 0.253553)
(-0.369123 0.0428901 3.01188e-317 0.481207 2.87152e-317 -0.112085)
(0.247999 0.096389 8.93031e-317 -0.602391 1.36361e-316 0.354392)
(0.523807 0.0116101 1.00487e-316 -0.613113 1.81671e-316 0.0893061)
(0.626174 -0.105246 1.03319e-316 -0.564881 1.90971e-316 -0.0612931)
(0.644746 -0.199037 1.02562e-316 -0.511215 1.83222e-316 -0.133531)
(0.599477 -0.296689 9.89597e-317 -0.440272 1.6705e-316 -0.159206)
(0.520904 -0.369623 9.44391e-317 -0.365798 1.49617e-316 -0.155107)
(0.426648 -0.43347 8.90528e-317 -0.291576 1.30982e-316 -0.135072)
(0.315338 -0.474847 8.3584e-317 -0.210878 1.15128e-316 -0.104459)
(0.203173 -0.503253 7.79901e-317 -0.134324 9.94737e-317 -0.0688492)
(0.0789809 -0.511181 7.25587e-317 -0.0497367 8.72491e-317 -0.0292442)
(-0.0434046 -0.506192 6.73189e-317 0.0319534 7.51535e-317 0.0114512)
(-0.17392 -0.483158 6.22701e-317 0.121 6.62472e-317 0.0529195)
(-0.300903 -0.448994 5.75798e-317 0.209029 5.71492e-317 0.0918743)
(-0.425591 -0.401816 5.29366e-317 0.299262 5.07996e-317 0.126329)
(-0.53879 -0.345325 4.87939e-317 0.388739 4.40467e-317 0.150051)
(-0.623321 -0.286117 4.43681e-317 0.466573 3.94863e-317 0.156748)
(-0.675028 -0.215479 4.06237e-317 0.541701 3.45332e-317 0.133327)
(-0.642594 -0.159881 3.62206e-317 0.578123 3.09728e-317 0.0644709)
(-0.528654 -0.0826572 3.2698e-317 0.605262 2.74991e-317 -0.076608)
(-0.239463 -0.0454552 2.87201e-317 0.558832 2.52951e-317 -0.319369)
(0.231808 0.242148 1.86925e-317 -0.671905 7.50862e-317 0.440098)
(0.446267 0.167006 3.50613e-317 -0.650728 1.34285e-316 0.20446)
(0.521356 0.0889375 4.61866e-317 -0.590259 1.53992e-316 0.0689027)
(0.524219 0.00794985 5.36856e-317 -0.519326 1.53722e-316 -0.0048936)
(0.486514 -0.0692111 5.79454e-317 -0.444605 1.43526e-316 -0.0419088)
(0.423378 -0.133544 6.01298e-317 -0.368042 1.30241e-316 -0.0553356)
(0.35325 -0.186577 6.04733e-317 -0.297775 1.15338e-316 -0.0554746)
(0.269235 -0.220892 5.97394e-317 -0.222488 1.01871e-316 -0.0467468)
(0.186863 -0.2403 5.80943e-317 -0.153075 8.86916e-317 -0.0337886)
(0.0922056 -0.239613 5.59384e-317 -0.0744903 7.78276e-317 -0.0177153)
(-0.00174866 -0.225516 5.34264e-317 0.00304918 6.7413e-317 -0.00130053)
(-0.106288 -0.193697 5.06804e-317 0.0912147 5.92211e-317 0.0150735)
(-0.212812 -0.155232 4.78769e-317 0.184382 5.12803e-317 0.0284296)
(-0.320687 -0.106072 4.485e-317 0.283255 4.52543e-317 0.0374321)
(-0.428363 -0.0612317 4.18602e-317 0.391238 3.9334e-317 0.0371254)
(-0.51108 -0.017473 3.83362e-317 0.487878 3.49461e-317 0.0232028)
(-0.576736 0.0118668 3.4616e-317 0.590708 3.06484e-317 -0.0139723)
(-0.56245 0.0282375 2.97354e-317 0.647952 2.71737e-317 -0.0855017)
(-0.48111 0.0306497 2.38251e-317 0.692765 2.33485e-317 -0.211654)
(-0.22857 0.0193192 1.68673e-317 0.649969 1.8113e-317 -0.4214)
(0.150689 0.312602 -4.68785e-317 -0.56204 1.64142e-317 0.41135)
(0.315774 0.258408 -2.58331e-317 -0.541902 8.53131e-317 0.226128)
(0.371841 0.200316 -6.87857e-318 -0.482315 1.13288e-316 0.110474)
(0.380758 0.127601 8.05646e-318 -0.423202 1.20193e-316 0.0424437)
(0.354852 0.0647673 1.95921e-317 -0.359181 1.16104e-316 0.00432879)
(0.314167 0.0078772 2.78609e-317 -0.299783 1.07681e-316 -0.0143838)
(0.269196 -0.0343471 3.35536e-317 -0.247336 9.68775e-317 -0.0218591)
(0.214712 -0.0590253 3.71692e-317 -0.19276 8.64832e-317 -0.021952)
(0.163633 -0.0692382 3.91871e-317 -0.145138 7.59792e-317 -0.0184946)
(0.100963 -0.0566405 4.00072e-317 -0.0882673 6.70404e-317 -0.0126954)
(0.0403084 -0.0343063 3.99495e-317 -0.0333759 5.84337e-317 -0.00693248)
(-0.0341894 0.0105077 3.9246e-317 0.0360022 5.15408e-317 -0.00181276)
(-0.110636 0.0538674 3.81325e-317 0.110522 4.49994e-317 0.000113744)
(-0.196933 0.11296 3.66784e-317 0.199488 4.01296e-317 -0.0025555)
(-0.286346 0.151432 3.51072e-317 0.300398 3.56957e-317 -0.0140518)
(-0.363219 0.191639 3.33198e-317 0.401578 3.2978e-317 -0.0383589)
(-0.432102 0.188523 3.15527e-317 0.515795 3.09822e-317 -0.0836937)
(-0.42953 0.168228 2.94826e-317 0.589082 3.06859e-317 -0.159551)
(-0.378047 0.0983144 2.72597e-317 0.659058 3.05074e-317 -0.281011)
(-0.165823 -0.00356424 2.36705e-317 0.629169 2.8619e-317 -0.463346)
(0.151272 0.422721 -7.47482e-317 -0.583871 -1.90732e-317 0.432599)
(0.274134 0.365871 -5.46719e-317 -0.514323 4.6321e-317 0.240188)
(0.314482 0.315991 -3.38269e-317 -0.441279 7.68099e-317 0.126797)
(0.305354 0.233827 -1.62612e-317 -0.36628 8.82235e-317 0.0609266)
(0.289627 0.171116 -1.93367e-318 -0.312744 8.90993e-317 0.0231163)
(0.256084 0.107352 9.00539e-318 -0.258977 8.50313e-317 0.00289365)
(0.234287 0.0649209 1.70876e-317 -0.226848 7.82458e-317 -0.00743903)
(0.199776 0.0376328 2.28502e-317 -0.18843 7.09162e-317 -0.0113464)
(0.176729 0.0302596 2.67649e-317 -0.164301 6.3199e-317 -0.0124285)
(0.137942 0.0450821 2.9293e-317 -0.126272 5.61854e-317 -0.0116693)
(0.103851 0.0747907 3.07933e-317 -0.0923602 4.93805e-317 -0.0114907)
(0.0488535 0.127788 3.1562e-317 -0.0365277 4.3549e-317 -0.0123258)
(-0.0104752 0.1826 3.18971e-317 0.0274298 3.80377e-317 -0.0169546)
(-0.0917241 0.256097 3.19513e-317 0.118352 3.35248e-317 -0.0266278)
(-0.183426 0.304718 3.20586e-317 0.229514 2.94182e-317 -0.0460886)
(-0.279804 0.361459 3.22261e-317 0.359316 2.63878e-317 -0.079512)
(-0.376652 0.352338 3.29099e-317 0.513272 2.40776e-317 -0.13662)
(-0.416839 0.33731 3.38342e-317 0.645918 2.32199e-317 -0.229079)
(-0.402534 0.224361 3.54343e-317 0.780947 2.40228e-317 -0.378413)
(-0.20459 0.0964845 3.5965e-317 0.820142 2.83758e-317 -0.615552)
(0.108339 0.549987 -9.30347e-317 -0.524466 -4.3722e-317 0.416126)
(0.182175 0.459986 -7.47765e-317 -0.414928 1.54442e-317 0.232754)
(0.212283 0.383128 -5.35751e-317 -0.337499 4.58463e-317 0.125216)
(0.19522 0.283097 -3.48258e-317 -0.258489 6.01095e-317 0.0632689)
(0.191744 0.205599 -1.87816e-317 -0.219743 6.47567e-317 0.0279989)
(0.171284 0.135648 -6.12373e-318 -0.180001 6.44015e-317 0.00871703)
(0.171454 0.0873551 3.68758e-318 -0.169851 6.10121e-317 -0.00160304)
(0.160342 0.0613813 1.09728e-317 -0.153827 5.64805e-317 -0.00651535)
(0.165104 0.0545639 1.62496e-317 -0.156058 5.11558e-317 -0.00904552)
(0.154425 0.0774459 1.99173e-317 -0.144005 4.59808e-317 -0.0104201)
(0.151943 0.114691 2.23555e-317 -0.139307 4.07288e-317 -0.0126364)
(0.123881 0.184589 2.38677e-317 -0.107325 3.6018e-317 -0.0165566)
(0.0955738 0.255503 2.47325e-317 -0.0708767 3.14467e-317 -0.024697)
(0.0299661 0.356241 2.51731e-317 0.00907558 2.75433e-317 -0.0390417)
(-0.0404261 0.427219 2.54353e-317 0.104958 2.39324e-317 -0.0645319)
(-0.147339 0.515682 2.57099e-317 0.254305 2.119e-317 -0.106966)
(-0.244783 0.521781 2.62577e-317 0.422721 1.91807e-317 -0.177939)
(-0.331523 0.521257 2.71431e-317 0.625135 1.87718e-317 -0.293612)
(-0.341248 0.391546 2.85306e-317 0.823486 2.0434e-317 -0.482238)
(-0.196087 0.229579 2.93617e-317 0.980262 2.54233e-317 -0.784175)
(0.0963924 0.675222 -8.39772e-317 -0.48225 -4.97177e-317 0.385858)
(0.133638 0.550464 -7.09036e-317 -0.342668 -3.93623e-318 0.20903)
(0.156702 0.441005 -5.35542e-317 -0.26721 2.27439e-317 0.110508)
(0.130057 0.320468 -3.73058e-317 -0.185625 3.74567e-317 0.0555676)
(0.139554 0.223593 -2.29851e-317 -0.164512 4.43128e-317 0.0249574)
(0.126967 0.141428 -1.12685e-317 -0.135347 4.65711e-317 0.00837968)
(0.147557 0.0824156 -1.9784e-318 -0.146902 4.58663e-317 -0.000654341)
(0.153293 0.0476565 5.1714e-318 -0.14804 4.36399e-317 -0.00525278)
(0.18256 0.0361095 1.05259e-317 -0.174337 4.03956e-317 -0.00822349)
(0.193342 0.0534684 1.44429e-317 -0.182835 3.68301e-317 -0.0105068)
(0.217215 0.0937693 1.7236e-317 -0.203008 3.2975e-317 -0.0142067)
(0.209541 0.165442 1.918e-317 -0.18954 2.92268e-317 -0.0200017)
(0.203181 0.252165 2.0549e-317 -0.172312 2.5435e-317 -0.0308689)
(0.14578 0.369034 2.15374e-317 -0.0969467 2.18858e-317 -0.0488333)
(0.0799425 0.473101 2.24504e-317 8.00372e-05 1.84131e-317 -0.0800226)
(-0.0480696 0.598982 2.34092e-317 0.179314 1.53429e-317 -0.131245)
(-0.174112 0.652241 2.48542e-317 0.391638 1.27713e-317 -0.217526)
(-0.319573 0.710772 2.67442e-317 0.679586 1.15293e-317 -0.360013)
(-0.378493 0.625828 2.96479e-317 0.977469 1.3107e-317 -0.598977)
(-0.256297 0.534536 3.26827e-317 1.25551 2.13489e-317 -0.999213)
(0.0524026 0.79907 -7.56314e-317 -0.351487 -5.01047e-317 0.299084)
(0.0529545 0.621156 -6.63067e-317 -0.211285 -1.5334e-317 0.15833)
(0.0651818 0.464092 -5.22463e-317 -0.146392 7.00402e-318 0.0812098)
(0.038048 0.321454 -3.8339e-317 -0.0772457 2.09855e-317 0.0391977)
(0.0544142 0.198953 -2.5554e-317 -0.0710036 2.88062e-317 0.0165894)
(0.0532282 0.108262 -1.48231e-317 -0.057898 3.2665e-317 0.00466983)
(0.0868217 0.0353126 -6.06006e-318 -0.0852914 3.37447e-317 -0.00153031)
(0.110391 -0.0033893 7.94808e-319 -0.105687 3.31736e-317 -0.00470424)
(0.158199 -0.0219431 6.02789e-318 -0.15134 3.14337e-317 -0.00685903)
(0.192364 -0.00374159 9.87948e-318 -0.183314 2.91088e-317 -0.00904928)
(0.241637 0.0386913 1.26064e-317 -0.228767 2.63107e-317 -0.0128692)
(0.260592 0.122179 1.44206e-317 -0.241154 2.33619e-317 -0.0194386)
(0.285801 0.227405 1.55131e-317 -0.254383 2.02015e-317 -0.0314173)
(0.249714 0.376507 1.60452e-317 -0.198025 1.70385e-317 -0.0516896)
(0.215172 0.523643 1.61678e-317 -0.128595 1.37703e-317 -0.0865765)
(0.084181 0.708305 1.60335e-317 0.0606549 1.06329e-317 -0.144836)
(-0.0256909 0.827889 1.58197e-317 0.269335 7.73543e-318 -0.243644)
(-0.220607 0.959592 1.57381e-317 0.630193 5.78403e-318 -0.409587)
(-0.292032 0.936751 1.61535e-317 0.983083 6.11019e-318 -0.691051)
(-0.240589 0.886259 1.73999e-317 1.40428 1.13418e-317 -1.16369)
(0.0175736 0.874137 -5.4363e-317 -0.193989 -4.17177e-317 0.176415)
(-0.00998616 0.668001 -4.99293e-317 -0.0763232 -1.96905e-317 0.0863093)
(-0.00175263 0.476173 -4.09005e-317 -0.0382403 -2.74118e-318 0.0399929)
(-0.0250631 0.318258 -3.09797e-317 0.00893006 9.34872e-318 0.016133)
(0.000573971 0.174595 -2.14263e-317 -0.00474281 1.71305e-317 0.00416884)
(0.00901267 0.0724308 -1.29944e-317 -0.00741077 2.17527e-317 -0.0016019)
(0.0547229 -0.0151186 -5.92782e-318 -0.0504518 2.39845e-317 -0.00427113)
(0.0914128 -0.0667127 -2.10546e-319 -0.0859836 2.46048e-317 -0.00542924)
(0.155846 -0.0964201 4.24863e-318 -0.149327 2.40395e-317 -0.00651861)
(0.208196 -0.0923678 7.61404e-318 -0.200068 2.27371e-317 -0.00812824)
(0.28054 -0.0546564 1.00443e-317 -0.268693 2.08642e-317 -0.0118475)
(0.322074 0.0183347 1.1686e-317 -0.303555 1.8665e-317 -0.0185191)
(0.37441 0.134962 1.26885e-317 -0.343242 1.61527e-317 -0.0311673)
(0.357562 0.288517 1.31363e-317 -0.305027 1.34558e-317 -0.0525356)
(0.341703 0.47944 1.31821e-317 -0.251812 1.05239e-317 -0.0898916)
(0.206078 0.702753 1.28284e-317 -0.0535919 7.45716e-318 -0.152487)
(0.0800431 0.914738 1.23101e-317 0.18022 4.35268e-318 -0.260263)
(-0.169395 1.14443 1.16423e-317 0.612966 1.62405e-318 -0.443571)
(-0.304106 1.25916 1.13489e-317 1.06595 6.20976e-319 -0.761849)
(-0.302442 1.38513 1.22809e-317 1.6194 4.32892e-318 -1.31696)
(-0.0306106 0.913996 -4.15916e-317 0.0129056 -3.39099e-317 0.017705)
(-0.0839963 0.675466 -3.95313e-317 0.0862842 -1.99226e-317 -0.00228791)
(-0.0923857 0.453111 -3.34644e-317 0.101432 -7.49376e-318 -0.00904655)
(-0.10684 0.287175 -2.60732e-317 0.117493 2.45136e-318 -0.0106533)
(-0.0829504 0.125776 -1.85054e-317 0.0928743 9.53546e-318 -0.00992384)
(-0.0638798 0.0186383 -1.16406e-317 0.0724323 1.42317e-317 -0.00855251)
(-0.0161202 -0.0828698 -5.71178e-318 0.0231015 1.69541e-317 -0.00698128)
(0.0323131 -0.142143 -8.69101e-319 -0.0266053 1.822e-317 -0.00570775)
(0.102954 -0.18389 2.94649e-318 -0.0978393 1.83628e-317 -0.00511477)
(0.171824 -0.187824 5.80108e-318 -0.166134 1.77325e-317 -0.00569036)
(0.257652 -0.156299 7.79719e-318 -0.249234 1.64966e-317 -0.00841866)
(0.323554 -0.0834285 9.01517e-318 -0.309109 1.48574e-317 -0.0144456)
(0.400494 0.0440707 9.51803e-318 -0.374223 1.28604e-317 -0.0262714)
(0.414218 0.221323 9.33875e-318 -0.366993 1.06063e-317 -0.0472247)
(0.435082 0.459703 8.46462e-318 -0.35098 8.07705e-318 -0.0841022)
(0.321442 0.752448 6.89397e-318 -0.174187 5.32159e-318 -0.147255)
(0.235781 1.06658 4.53396e-318 0.0210548 2.37731e-318 -0.256836)
(-0.0329869 1.41911 1.57107e-318 0.478977 -6.26861e-319 -0.44599)
(-0.148853 1.66981 -1.93408e-318 0.92533 -3.09855e-318 -0.776477)
(-0.229743 1.907 -4.16097e-318 1.57712 -4.43128e-318 -1.34738)
(-0.0821834 0.893913 -2.42785e-317 0.240328 -2.41682e-317 -0.158144)
(-0.15118 0.659118 -2.49107e-317 0.249086 -1.8084e-317 -0.0979062)
(-0.163569 0.42938 -2.22963e-317 0.22443 -9.86475e-318 -0.0608606)
(-0.165783 0.260628 -1.78628e-317 0.204267 -2.19119e-318 -0.0384846)
(-0.140311 0.0904441 -1.29026e-317 0.16483 3.97838e-318 -0.0245182)
(-0.112477 -0.0247432 -8.04909e-318 0.12831 8.48689e-318 -0.0158335)
(-0.0627 -0.137511 -3.72143e-318 0.0728243 1.14563e-317 -0.0101244)
(-0.00644917 -0.210117 -5.46634e-320 0.0128414 1.31623e-317 -0.00639221)
(0.0704022 -0.265146 2.88624e-318 -0.0661625 1.38447e-317 -0.00423961)
(0.15105 -0.287744 5.11943e-318 -0.147446 1.37698e-317 -0.0036042)
(0.251618 -0.268572 6.67753e-318 -0.246282 1.31015e-317 -0.00533665)
(0.337911 -0.217575 7.59301e-318 -0.327694 1.20131e-317 -0.0102169)
(0.441532 -0.0911665 7.90154e-318 -0.42069 1.05783e-317 -0.0208411)
(0.484741 0.070452 7.58538e-318 -0.444699 8.88606e-318 -0.0400427)
(0.538872 0.343003 6.64949e-318 -0.46411 6.95001e-318 -0.0747623)
(0.447961 0.650307 4.98502e-318 -0.313435 4.77293e-318 -0.134526)
(0.371452 1.07112 2.55349e-318 -0.131671 2.34874e-318 -0.239781)
(0.0721174 1.51566 -6.75012e-319 0.351298 -4.88211e-319 -0.423415)
(-0.114273 1.96709 -4.66596e-318 0.866911 -3.64287e-318 -0.752638)
(-0.290773 2.44592 -7.71627e-318 1.64311 -7.34822e-318 -1.35233)
(-0.120213 0.818498 -1.82434e-317 0.445435 -1.72708e-317 -0.325222)
(-0.21382 0.592491 -1.86219e-317 0.402673 -1.46159e-317 -0.188853)
(-0.248254 0.36901 -1.66459e-317 0.35742 -9.4859e-318 -0.109166)
(-0.240218 0.211976 -1.3275e-317 0.303961 -3.8732e-318 -0.0637429)
(-0.221543 0.041273 -9.38625e-318 0.258865 1.17445e-318 -0.0373217)
(-0.185186 -0.0735334 -5.64375e-318 0.207115 5.15724e-318 -0.0219289)
(-0.140194 -0.194006 -2.24816e-318 0.152571 7.98365e-318 -0.0123776)
(-0.0783708 -0.274592 6.10309e-319 0.0847643 9.76049e-318 -0.00639353)
(-0.00634022 -0.341337 2.90928e-318 0.00890117 1.06496e-317 -0.00256095)
(0.081405 -0.377012 4.62148e-318 -0.0807783 1.08496e-317 -0.000626687)
(0.179808 -0.370407 5.75427e-318 -0.178957 1.0507e-317 -0.000850487)
(0.282287 -0.331952 6.30352e-318 -0.278134 9.77076e-318 -0.00415276)
(0.393488 -0.208993 6.25229e-318 -0.381064 8.72819e-318 -0.0124238)
(0.470698 -0.0428823 5.56645e-318 -0.442056 7.46828e-318 -0.0286426)
(0.552194 0.260873 4.14542e-318 -0.49378 6.0406e-318 -0.0584143)
(0.513118 0.624639 1.93208e-318 -0.402236 4.46022e-318 -0.110882)
(0.491705 1.15133 -1.34792e-318 -0.288196 2.70754e-318 -0.20351)
(0.233053 1.74278 -5.54117e-318 0.133758 5.04401e-319 -0.366811)
(0.113668 2.37956 -1.10623e-317 0.545368 -2.77911e-318 -0.659036)
(-0.119152 3.0279 -1.61453e-317 1.29374 -9.33266e-318 -1.17459)
(-0.177457 0.723858 -1.06689e-317 0.661984 -1.30655e-317 -0.484527)
(-0.26753 0.523531 -1.09923e-317 0.536044 -1.39726e-317 -0.268514)
(-0.307592 0.320537 -9.76784e-318 0.457143 -1.07826e-317 -0.149551)
(-0.286094 0.168406 -7.5711e-318 0.370251 -6.33263e-318 -0.0841568)
(-0.272641 0.00385076 -5.07689e-318 0.320071 -1.79466e-318 -0.0474307)
(-0.230372 -0.113926 -2.60212e-318 0.25704 2.01744e-318 -0.0266688)
(-0.19032 -0.237086 -3.25051e-319 0.204504 4.87744e-318 -0.014184)
(-0.126284 -0.325293 1.65835e-318 0.132709 6.80986e-318 -0.00642586)
(-0.0576489 -0.400931 3.27859e-318 0.0589756 7.93553e-318 -0.00132675)
(0.0326196 -0.451337 4.49803e-318 -0.0344263 8.42738e-318 0.00180665)
(0.133351 -0.459931 5.28791e-318 -0.136234 8.42561e-318 0.00288303)
(0.246719 -0.446564 5.62618e-318 -0.248069 8.07151e-318 0.00135032)
(0.375066 -0.339974 5.49666e-318 -0.370536 7.46422e-318 -0.00452986)
(0.482321 -0.207741 4.86318e-318 -0.465351 6.6996e-318 -0.0169693)
(0.603581 0.100474 3.69288e-318 -0.56273 5.84633e-318 -0.0408509)
(0.612281 0.436131 1.91269e-318 -0.529208 4.92988e-318 -0.0830731)
(0.632977 1.03819 -5.74949e-319 -0.474861 3.9197e-318 -0.158115)
(0.380731 1.65345 -3.77261e-318 -0.0903306 2.47054e-318 -0.2904)
(0.201861 2.49271 -7.90922e-318 0.33197 -3.0842e-319 -0.533831)
(-0.196617 3.35047 -1.21406e-317 1.20371 -6.65407e-318 -1.0071)
(-0.193416 0.552701 -1.0921e-317 0.786634 -8.68085e-318 -0.593218)
(-0.31708 0.402384 -8.88088e-318 0.64192 -1.04453e-317 -0.32484)
(-0.37548 0.241931 -6.14812e-318 0.55248 -8.83814e-318 -0.177001)
(-0.348408 0.115372 -4.01548e-318 0.445631 -5.552e-318 -0.0972228)
(-0.337757 -0.0324796 -2.01357e-318 0.3912 -1.85819e-318 -0.0534432)
(-0.288957 -0.144486 -3.29324e-319 0.318162 1.361e-318 -0.0292058)
(-0.25391 -0.264632 1.22425e-318 0.268735 3.81181e-318 -0.014825)
(-0.189454 -0.355633 2.56144e-318 0.195381 5.49012e-318 -0.00592731)
(-0.132742 -0.435679 3.66855e-318 0.132556 6.49055e-318 0.000185601)
(-0.0460731 -0.496204 4.4854e-318 0.0417643 6.95672e-318 0.00430878)
(0.0372108 -0.517157 4.97032e-318 -0.0439989 7.01147e-318 0.00678804)
(0.152179 -0.521798 5.08389e-318 -0.159212 6.77592e-318 0.00703289)
(0.264531 -0.432552 4.78707e-318 -0.268549 6.34723e-318 0.00401848)
(0.396426 -0.317219 4.05211e-318 -0.392149 5.81831e-318 -0.0042775)
(0.517159 -0.0109977 2.80329e-318 -0.496246 5.27625e-318 -0.0209125)
(0.596855 0.344944 1.05866e-318 -0.545738 4.77566e-318 -0.0511174)
(0.656812 1.01392 -1.37791e-318 -0.55338 4.30334e-318 -0.103432)
(0.52719 1.76108 -4.30263e-318 -0.333534 3.60481e-318 -0.193656)
(0.453807 2.79151 -8.10808e-318 -0.102695 1.5787e-318 -0.351112)
(0.113388 3.87432 -1.23522e-317 0.505047 -4.3963e-318 -0.618435)
(-0.243519 0.439456 -6.80998e-318 0.919573 -1.31952e-317 -0.676054)
(-0.335308 0.304008 -4.39196e-318 0.691609 -1.6072e-317 -0.356301)
(-0.401826 0.170334 -1.69571e-318 0.591204 -1.34231e-317 -0.189379)
(-0.363605 0.048485 -3.06652e-319 0.465597 -9.00555e-318 -0.101993)
(-0.360745 -0.0848704 7.03876e-319 0.415887 -4.71462e-318 -0.0551418)
(-0.309314 -0.191748 1.50998e-318 0.338972 -1.15776e-318 -0.0296575)
(-0.281175 -0.303949 2.30319e-318 0.295872 1.46529e-318 -0.0146969)
(-0.219486 -0.390896 3.06802e-318 0.224883 3.29492e-318 -0.00539689)
(-0.17238 -0.469974 3.74155e-318 0.171216 4.46678e-318 0.00116311)
(-0.0930599 -0.533633 4.25526e-318 0.0871052 5.14849e-318 0.00595467)
(-0.0198892 -0.565665 4.54638e-318 0.0104691 5.4654e-318 0.00942007)
(0.0907352 -0.588178 4.57232e-318 -0.101975 5.53268e-318 0.01124)
(0.203363 -0.526061 4.31021e-318 -0.213995 5.4426e-318 0.0106328)
(0.350602 -0.451224 3.75188e-318 -0.356926 5.28281e-318 0.00632478)
(0.502329 -0.18079 2.91079e-318 -0.498664 5.12939e-318 -0.00366562)
(0.634384 0.105176 1.82274e-318 -0.612569 5.03673e-318 -0.0218149)
(0.765267 0.77041 5.31269e-319 -0.713716 4.97535e-318 -0.0515512)
(0.674224 1.42062 -8.96912e-319 -0.576639 4.73436e-318 -0.0975846)
(0.590796 2.56104 -2.45062e-318 -0.417796 3.38517e-318 -0.173)
(-0.0241217 3.64957 -4.63257e-318 0.365364 -7.21198e-319 -0.341242)
(-0.237004 0.21859 1.35982e-319 0.91793 -3.74409e-318 -0.680926)
(-0.374673 0.162316 2.26826e-318 0.728516 -8.7839e-318 -0.353843)
(-0.438143 0.0997913 4.13244e-318 0.622681 -7.85981e-318 -0.184537)
(-0.398409 0.00701712 4.01326e-318 0.496258 -4.64838e-318 -0.0978489)
(-0.386081 -0.0936343 3.73229e-318 0.438365 -1.53079e-318 -0.0522833)
(-0.328391 -0.189275 3.51709e-318 0.356256 9.92869e-319 -0.0278654)
(-0.302117 -0.284102 3.57121e-318 0.315682 2.77171e-318 -0.0135658)
(-0.243513 -0.364212 3.7959e-318 0.248129 3.94643e-318 -0.00461619)
(-0.211642 -0.434697 4.08045e-318 0.209694 4.63634e-318 0.00194757)
(-0.144896 -0.497477 4.31673e-318 0.137894 4.97036e-318 0.00700203)
(-0.0994209 -0.533135 4.41581e-318 0.0882273 5.04503e-318 0.0111936)
(-0.00367084 -0.566285 4.32183e-318 -0.0105212 4.9481e-318 0.0141921)
(0.0714877 -0.52591 3.99636e-318 -0.0872232 4.7535e-318 0.0157355)
(0.221028 -0.476621 3.43935e-318 -0.235827 4.53388e-318 0.0147983)
(0.3333 -0.244464 2.63533e-318 -0.344202 4.36279e-318 0.0109024)
(0.530316 0.0184208 1.68593e-318 -0.533595 4.30257e-318 0.00327871)
(0.642235 0.668331 5.65779e-319 -0.636858 4.34039e-318 -0.00537666)
(0.759331 1.39027 -4.90568e-319 -0.751155 4.38235e-318 -0.0081766)
(0.75447 2.65531 -1.55215e-318 -0.774512 3.64426e-318 0.0200416)
(0.466954 4.05848 -3.18711e-318 -0.62424 8.92579e-319 0.157286)
(-0.257428 0.138987 8.3511e-318 0.901697 -1.89101e-317 -0.644269)
(-0.323944 0.0505774 7.45025e-318 0.644285 -2.13098e-317 -0.320341)
(-0.397149 -0.012854 6.73659e-318 0.560406 -1.64376e-317 -0.163257)
(-0.351094 -0.101862 5.27432e-318 0.43657 -1.02369e-317 -0.0854763)
(-0.346871 -0.192814 4.12336e-318 0.392263 -5.86693e-318 -0.0453925)
(-0.293272 -0.270704 3.45071e-318 0.317452 -2.67105e-318 -0.0241796)
(-0.273424 -0.350729 3.18547e-318 0.285156 -5.3821e-319 -0.0117313)
(-0.223295 -0.413571 3.2024e-318 0.227133 9.41664e-319 -0.00383803)
(-0.201878 -0.473675 3.33302e-318 0.199722 1.94287e-318 0.00215582)
(-0.149553 -0.527182 3.46999e-318 0.142536 2.62457e-318 0.00701697)
(-0.119035 -0.56566 3.5238e-318 0.107669 3.07737e-318 0.011366)
(-0.0418112 -0.605119 3.44928e-318 0.0268043 3.37747e-318 0.0150069)
(0.0197415 -0.592695 3.22784e-318 -0.0375937 3.57838e-318 0.0178522)
(0.156393 -0.578898 2.87952e-318 -0.175724 3.73065e-318 0.0193308)
(0.277352 -0.415443 2.46018e-318 -0.296985 3.87343e-318 0.0196337)
(0.48863 -0.245129 2.06674e-318 -0.508248 4.04038e-318 0.019618)
(0.676908 0.293819 1.86137e-318 -0.702385 4.19612e-318 0.0254773)
(0.810607 0.79121 1.90349e-318 -0.863777 4.25401e-318 0.05317)
(0.910754 1.95867 2.46374e-318 -1.0569 3.78351e-318 0.146148)
(0.173407 2.9175 2.5206e-318 -0.528245 2.45196e-318 0.354838)
(-0.230495 -0.0844204 2.86703e-317 0.750361 1.06905e-317 -0.519865)
(-0.353569 -0.0749524 2.18072e-317 0.607022 9.44752e-320 -0.253453)
(-0.381665 -0.0350702 1.4695e-317 0.508839 -7.58806e-319 -0.127174)
(-0.33374 -0.0973869 9.85376e-318 0.399883 9.38295e-319 -0.066144)
(-0.309209 -0.131074 6.60273e-318 0.344331 2.42056e-318 -0.0351223)
(-0.248151 -0.193958 4.89031e-318 0.267001 3.45284e-318 -0.0188504)
(-0.230849 -0.237801 3.99902e-318 0.240041 4.0738e-318 -0.00919195)
(-0.185291 -0.285579 3.64438e-318 0.188262 4.39361e-318 -0.0029709)
(-0.180663 -0.321373 3.52228e-318 0.178695 4.49887e-318 0.00196773)
(-0.14416 -0.359099 3.48767e-318 0.138028 4.4517e-318 0.00613111)
(-0.143791 -0.384687 3.42621e-318 0.133673 4.29994e-318 0.0101187)
(-0.0911911 -0.410946 3.28257e-318 0.077464 4.08359e-318 0.0137271)
(-0.0777735 -0.406512 3.02359e-318 0.0606727 3.84037e-318 0.0171008)
(0.0358512 -0.393017 2.66162e-318 -0.05565 3.60698e-318 0.0197988)
(0.0836407 -0.282227 2.20978e-318 -0.106196 3.41816e-318 0.0225548)
(0.323663 -0.141336 1.78456e-318 -0.350231 3.3078e-318 0.0265685)
(0.405205 0.278706 1.43714e-318 -0.445056 3.24262e-318 0.039851)
(0.798733 0.76642 1.35996e-318 -0.881582 3.19309e-318 0.0828492)
(0.809329 1.86366 1.60581e-318 -1.03807 2.84083e-318 0.228744)
(0.901247 3.31016 1.54319e-318 -1.62814 2.01684e-318 0.726895)
(-0.164516 -0.0984622 1.96904e-317 0.51032 -2.34832e-317 -0.345804)
(-0.160953 -0.19058 1.33078e-317 0.323027 -2.00365e-317 -0.162075)
(-0.206833 -0.230952 7.67636e-318 0.287152 -1.424e-317 -0.080319)
(-0.170463 -0.278134 4.60831e-318 0.212264 -8.82392e-318 -0.0418006)
(-0.162708 -0.332899 2.85378e-318 0.185066 -5.94475e-318 -0.0223585)
(-0.1273 -0.362526 2.01826e-318 0.139514 -3.98952e-318 -0.0122136)
(-0.116769 -0.401607 1.64919e-318 0.122826 -2.72317e-318 -0.00605703)
(-0.0903223 -0.424664 1.55313e-318 0.0923362 -1.76503e-318 -0.00201385)
(-0.0875773 -0.453316 1.5668e-318 0.0862215 -1.02033e-318 0.00135584)
(-0.0672364 -0.479433 1.61193e-318 0.0629367 -4.04926e-319 0.00429969)
(-0.0677252 -0.505488 1.63032e-318 0.0604615 1.12044e-319 0.00726377)
(-0.0378847 -0.538358 1.59788e-318 0.0277879 5.54085e-319 0.0100968)
(-0.0278106 -0.555538 1.51066e-318 0.0148369 9.29614e-319 0.0129736)
(0.0419352 -0.582318 1.3918e-318 -0.0575597 1.24599e-318 0.0156246)
(0.0879537 -0.545853 1.29383e-318 -0.106671 1.50017e-318 0.0187171)
(0.241678 -0.515238 1.28559e-318 -0.264885 1.69093e-318 0.023207)
(0.371126 -0.282622 1.51192e-318 -0.406563 1.80826e-318 0.0354367)
(0.581781 -0.096914 1.95365e-318 -0.653453 1.83099e-318 0.0716718)
(0.860101 0.614939 2.83827e-318 -1.04969 1.7783e-318 0.189585)
(0.18972 0.909524 3.51115e-318 -0.702078 1.88413e-318 0.512358)
(-0.0630247 -0.328681 3.57382e-317 0.174589 3.57564e-317 -0.111564)
(-0.167963 -0.260205 2.42593e-317 0.223037 1.71237e-317 -0.0550742)
(-0.121557 -0.120591 1.21013e-317 0.149132 1.1515e-317 -0.0275749)
(-0.0822554 -0.141429 7.00711e-318 0.0968403 8.69091e-318 -0.0145849)
(-0.0590146 -0.0831471 3.94815e-318 0.0669743 7.79147e-318 -0.00795967)
(-0.0150563 -0.106004 2.70634e-318 0.0195654 7.18611e-318 -0.0045091)
(-0.0156081 -0.0792738 2.05012e-318 0.0179233 6.82297e-318 -0.0023152)
(0.00747949 -0.0898334 1.78932e-318 -0.00663728 6.4531e-318 -0.000842213)
(-0.00792909 -0.0734451 1.65843e-318 0.00745668 6.08667e-318 0.000472416)
(0.00118973 -0.0685881 1.59295e-318 -0.00284461 5.69032e-318 0.00165488)
(-0.0254744 -0.0553053 1.52797e-318 0.0225647 5.28113e-318 0.00290962)
(-0.0164473 -0.0294729 1.4396e-318 0.0122942 4.86788e-318 0.00415313)
(-0.0520643 -0.014637 1.30879e-318 0.0465684 4.47137e-318 0.00549583)
(-0.0158766 0.0453562 1.14004e-318 0.0090654 4.10795e-318 0.00681119)
(-0.0559191 0.0699838 9.29792e-319 0.0475067 3.78132e-318 0.00841242)
(0.0799544 0.189119 7.43307e-319 -0.090513 3.49646e-318 0.0105586)
(0.036432 0.247701 5.93615e-319 -0.0522413 3.1853e-318 0.0158093)
(0.466951 0.468523 6.10626e-319 -0.497865 2.77773e-318 0.0309135)
(0.33855 0.681191 8.02886e-319 -0.431383 2.16199e-318 0.0928328)
(1.15328 1.62087 9.0209e-319 -1.6004 1.14315e-318 0.447117)
)
;

boundaryField
{
    cavity
    {
        type            mySigma;
    }
    lid
    {
        type            fixedValue;
        value           uniform (0.1 -0.3 0 -0.1 0 0);
    }
    frontAndBack
    {
        type            empty;
    }
}


// ************************************************************************* //
