/*--------------------------------*- C++ -*----------------------------------*\
| =========                 |                                                 |
| \\      /  F ield         | foam-extend: Open Source CFD                    |
|  \\    /   O peration     | Version:  3.0                                   |
|   \\  /    A nd           | Web:         http://www.extend-project.de       |
|    \\/     M anipulation  |                                                 |
\*---------------------------------------------------------------------------*/
FoamFile
{
    version     2.0;
    format      ascii;
    class       volScalarField;
    location    "24";
    object      p;
}
// * * * * * * * * * * * * * * * * * * * * * * * * * * * * * * * * * * * * * //

dimensions      [0 0 0 0 0 0 0];

internalField   nonuniform List<scalar> 
168
(
-0.254736
-0.19469
-0.198185
-0.178776
-0.188542
-0.17929
-0.241944
-0.184911
-0.188235
-0.169799
-0.179075
-0.170283
-0.217044
-0.165876
-0.168856
-0.152313
-0.16063
-0.152736
-0.181249
-0.138518
-0.141009
-0.127189
-0.134136
-0.12754
-0.136373
-0.104218
-0.106089
-0.0956879
-0.100908
-0.0959365
-0.0846568
-0.0646927
-0.0658599
-0.0593948
-0.0626397
-0.05955
-0.0286973
-0.021925
-0.0223192
-0.0201231
-0.0212149
-0.020153
0.0287045
0.0219443
0.0223317
0.0201545
0.0212539
0.0202192
0.0846609
0.0647053
0.0658652
0.0594148
0.0626615
0.0595983
0.136386
0.104237
0.106105
0.0957102
0.10094
0.095982
0.181255
0.138522
0.141006
0.127185
0.134124
0.127537
0.217062
0.16589
0.168867
0.152315
0.160637
0.15274
0.241952
0.184913
0.188232
0.169785
0.179054
0.170252
0.25475
0.194692
0.198186
0.178764
0.188521
0.179258
0.254721
0.194685
0.198181
0.178775
0.188545
0.179284
0.241978
0.18494
0.188259
0.169825
0.179093
0.170308
0.217038
0.165894
0.168872
0.152353
0.160676
0.152793
0.181286
0.138562
0.14105
0.127249
0.1342
0.127626
0.136371
0.104241
0.10611
0.0957387
0.100962
0.0960091
0.0846943
0.0647364
0.0659004
0.0594524
0.0627014
0.0596262
0.0286936
0.0219359
0.0223287
0.0201479
0.0212404
0.0201905
-0.0286717
-0.0219162
-0.0223094
-0.020134
-0.0212377
-0.020209
-0.0846711
-0.0647157
-0.0658779
-0.0594369
-0.0626909
-0.0596318
-0.136359
-0.104227
-0.1061
-0.0957293
-0.100966
-0.0960327
-0.181269
-0.138547
-0.141036
-0.127242
-0.134198
-0.127631
-0.217035
-0.165886
-0.168867
-0.152349
-0.160677
-0.15281
-0.241966
-0.184933
-0.188255
-0.169832
-0.17911
-0.170331
-0.254719
-0.19468
-0.198178
-0.178781
-0.188547
-0.179301
)
;

boundaryField
{
    out
    {
        type            implicitExtrapolation;
    }
    in
    {
        type            implicitExtrapolation;
    }
    frontAndBack
    {
        type            empty;
    }
}


// ************************************************************************* //
