/*--------------------------------*- C++ -*----------------------------------*\
| =========                 |                                                 |
| \\      /  F ield         | OpenFOAM: The Open Source CFD Toolbox           |
|  \\    /   O peration     | Version:  2.2.0                                 |
|   \\  /    A nd           | Web:      www.OpenFOAM.org                      |
|    \\/     M anipulation  |                                                 |
\*---------------------------------------------------------------------------*/
FoamFile
{
    version     2.0;
    format      ascii;
    class       volVectorField;
    location    "10";
    object      s;
}
// * * * * * * * * * * * * * * * * * * * * * * * * * * * * * * * * * * * * * //

dimensions      [0 1 -1 0 0 0 0];

internalField   nonuniform List<vector> 
7920
(
(0.523158 0.458642 0.106401)
(0.49602 0.434442 0.167376)
(0.465889 0.407511 0.231754)
(0.433009 0.378085 0.298362)
(0.397503 0.346422 0.365651)
(0.35807 0.31152 0.431278)
(0.317778 0.277599 0.492455)
(0.265373 0.234654 0.542751)
(0.559378 0.373579 0.148112)
(0.530266 0.353632 0.207688)
(0.497974 0.331417 0.270554)
(0.46282 0.307171 0.335624)
(0.424688 0.281015 0.401507)
(0.383188 0.252781 0.466319)
(0.339101 0.224943 0.527917)
(0.289063 0.193288 0.583222)
(0.575552 0.283729 0.215213)
(0.545735 0.268708 0.271078)
(0.512655 0.25195 0.329963)
(0.476689 0.233689 0.390911)
(0.437635 0.213992 0.45274)
(0.39546 0.193105 0.51397)
(0.3505 0.172426 0.573009)
(0.301084 0.151399 0.628198)
(0.571501 0.193948 0.314874)
(0.542835 0.184014 0.362241)
(0.510908 0.172853 0.412242)
(0.476125 0.160652 0.464152)
(0.438219 0.147437 0.517105)
(0.397393 0.133528 0.570063)
(0.353772 0.119747 0.62194)
(0.307307 0.106765 0.671872)
(0.554872 0.110367 0.435095)
(0.528942 0.105134 0.468942)
(0.499712 0.0991598 0.505226)
(0.467603 0.0925672 0.543603)
(0.432231 0.0853501 0.583647)
(0.393888 0.0777392 0.624822)
(0.352617 0.0701681 0.666538)
(0.309224 0.0633494 0.708446)
(0.539316 0.0353502 0.52557)
(0.515925 0.0337952 0.547586)
(0.489158 0.0319854 0.572128)
(0.459447 0.0299648 0.599194)
(0.4263 0.0277239 0.628716)
(0.390038 0.0253445 0.660521)
(0.350663 0.022964 0.694334)
(0.309416 0.0208634 0.730054)
(0.539316 -0.0353503 0.52557)
(0.515925 -0.0337955 0.547586)
(0.489158 -0.031986 0.572128)
(0.459447 -0.0299657 0.599194)
(0.4263 -0.0277248 0.628716)
(0.390038 -0.0253453 0.660521)
(0.350663 -0.0229643 0.694334)
(0.309416 -0.020863 0.730054)
(0.554871 -0.110367 0.435095)
(0.528941 -0.105135 0.468942)
(0.499711 -0.0991603 0.505226)
(0.467602 -0.0925679 0.543603)
(0.43223 -0.0853508 0.583647)
(0.393887 -0.0777396 0.624822)
(0.352616 -0.0701682 0.666539)
(0.309224 -0.063349 0.708447)
(0.571501 -0.193948 0.314875)
(0.542834 -0.184014 0.362241)
(0.510907 -0.172854 0.412242)
(0.476124 -0.160652 0.464152)
(0.438218 -0.147437 0.517105)
(0.397392 -0.133528 0.570063)
(0.353771 -0.119747 0.62194)
(0.307307 -0.106765 0.671873)
(0.575551 -0.283729 0.215213)
(0.545735 -0.268708 0.271078)
(0.512654 -0.25195 0.329963)
(0.476688 -0.233689 0.390911)
(0.437634 -0.213992 0.45274)
(0.395459 -0.193105 0.51397)
(0.350499 -0.172426 0.573009)
(0.301084 -0.151398 0.628199)
(0.559378 -0.373579 0.148112)
(0.530265 -0.353632 0.207688)
(0.497973 -0.331417 0.270554)
(0.462819 -0.307171 0.335624)
(0.424687 -0.281015 0.401507)
(0.383187 -0.252781 0.466319)
(0.339101 -0.224942 0.527917)
(0.289063 -0.193286 0.583222)
(0.523155 -0.458639 0.106401)
(0.496017 -0.434439 0.167376)
(0.465886 -0.407509 0.231755)
(0.433006 -0.378083 0.298363)
(0.3975 -0.34642 0.365652)
(0.358067 -0.311518 0.431279)
(0.317775 -0.277598 0.492456)
(0.26537 -0.234652 0.542751)
(0.223327 0.195767 0.0289838)
(0.225657 0.197622 0.0524973)
(0.226857 0.198511 0.0796175)
(0.227168 0.198652 0.110551)
(0.225692 0.197387 0.145204)
(0.221848 0.194292 0.183086)
(0.215111 0.189881 0.222401)
(0.20257 0.181313 0.260738)
(0.251741 0.168298 0.0421775)
(0.253363 0.169577 0.0664647)
(0.253686 0.170101 0.0943802)
(0.252905 0.17003 0.126155)
(0.250017 0.168878 0.161803)
(0.244694 0.166614 0.20105)
(0.235702 0.163353 0.242931)
(0.222575 0.158981 0.286296)
(0.278419 0.137467 0.065992)
(0.278809 0.13802 0.0906468)
(0.277773 0.138026 0.118881)
(0.275418 0.137562 0.150957)
(0.270798 0.136336 0.186998)
(0.263631 0.134429 0.226952)
(0.252804 0.131892 0.270428)
(0.238034 0.129415 0.316989)
(0.305461 0.103854 0.104358)
(0.303902 0.103679 0.12757)
(0.300897 0.103173 0.154171)
(0.296414 0.102332 0.184478)
(0.289696 0.101047 0.218744)
(0.280531 0.0994174 0.257145)
(0.267984 0.0975324 0.29974)
(0.252333 0.0961578 0.346648)
(0.330608 0.0658677 0.15356)
(0.32658 0.0652939 0.172895)
(0.321184 0.0645662 0.195429)
(0.314213 0.0636358 0.221597)
(0.305166 0.0625024 0.251827)
(0.293847 0.0612272 0.286547)
(0.279546 0.0598897 0.326194)
(0.262775 0.0590214 0.371334)
(0.347042 0.0227827 0.191969)
(0.3411 0.022471 0.207293)
(0.333895 0.0221214 0.22575)
(0.325093 0.0217063 0.247897)
(0.314385 0.0212417 0.274314)
(0.301574 0.0207479 0.305613)
(0.286094 0.02026 0.34246)
(0.268556 0.0199659 0.385676)
(0.347042 -0.0227827 0.191969)
(0.3411 -0.0224709 0.207293)
(0.333895 -0.0221211 0.22575)
(0.325093 -0.0217059 0.247898)
(0.314385 -0.0212414 0.274315)
(0.301574 -0.0207478 0.305614)
(0.286094 -0.0202602 0.342461)
(0.268556 -0.0199664 0.385677)
(0.330608 -0.0658677 0.15356)
(0.32658 -0.0652937 0.172896)
(0.321184 -0.0645659 0.19543)
(0.314213 -0.0636355 0.221598)
(0.305166 -0.062502 0.251828)
(0.293847 -0.0612271 0.286549)
(0.279547 -0.0598899 0.326196)
(0.262775 -0.0590219 0.371337)
(0.305461 -0.103854 0.104359)
(0.303902 -0.103679 0.127571)
(0.300897 -0.103173 0.154172)
(0.296414 -0.102331 0.18448)
(0.289696 -0.101046 0.218747)
(0.280531 -0.0994172 0.257148)
(0.267984 -0.0975326 0.299744)
(0.252333 -0.0961583 0.346652)
(0.278418 -0.137466 0.0659926)
(0.278808 -0.13802 0.0906477)
(0.277773 -0.138026 0.118882)
(0.275417 -0.137562 0.150959)
(0.270798 -0.136336 0.187)
(0.263631 -0.134429 0.226955)
(0.252803 -0.131892 0.270433)
(0.238034 -0.129416 0.316995)
(0.251741 -0.168298 0.0421781)
(0.253363 -0.169577 0.0664656)
(0.253686 -0.170101 0.0943816)
(0.252905 -0.170029 0.126158)
(0.250017 -0.168877 0.161806)
(0.244693 -0.166614 0.201055)
(0.235701 -0.163354 0.242937)
(0.222574 -0.158982 0.286304)
(0.223328 -0.195768 0.0289839)
(0.225658 -0.197623 0.0524975)
(0.226858 -0.198512 0.0796179)
(0.227169 -0.198653 0.110552)
(0.225693 -0.197388 0.145205)
(0.221849 -0.194293 0.183089)
(0.215112 -0.189882 0.222406)
(0.202571 -0.181314 0.260747)
(0.126885 0.111117 0.00403624)
(0.128855 0.11252 0.0138473)
(0.130861 0.113926 0.0252857)
(0.132662 0.115155 0.038559)
(0.13408 0.116113 0.0537576)
(0.134749 0.116569 0.0708583)
(0.13398 0.116505 0.0893681)
(0.131048 0.115276 0.10823)
(0.143485 0.0958651 0.00557627)
(0.145227 0.0970461 0.0160547)
(0.146905 0.098225 0.0282573)
(0.148285 0.099311 0.0424204)
(0.149113 0.100226 0.0587096)
(0.149108 0.100969 0.0772413)
(0.147346 0.101411 0.0979406)
(0.143991 0.102281 0.120534)
(0.159365 0.0786498 0.00936548)
(0.160672 0.0794697 0.0205926)
(0.161795 0.0802731 0.0336454)
(0.162537 0.0810355 0.0487879)
(0.162609 0.0816974 0.0662542)
(0.161752 0.0823208 0.0862814)
(0.159198 0.0828364 0.109062)
(0.154977 0.0840308 0.134757)
(0.17604 0.0598249 0.0163015)
(0.17657 0.0602042 0.0279243)
(0.176791 0.060558 0.0414328)
(0.176598 0.0609176 0.0571126)
(0.175682 0.061243 0.0752566)
(0.173871 0.0616231 0.0961954)
(0.17053 0.0620563 0.120305)
(0.165848 0.0631396 0.148025)
(0.191806 0.0381915 0.0257574)
(0.191234 0.0382054 0.0371451)
(0.190248 0.038194 0.0504451)
(0.188853 0.0382045 0.0659675)
(0.186729 0.0382117 0.0840621)
(0.183786 0.0382875 0.105137)
(0.179516 0.0384458 0.129699)
(0.174136 0.0390427 0.158385)
(0.202227 0.0132669 0.033375)
(0.20074 0.0132131 0.044249)
(0.198787 0.01315 0.0570535)
(0.196454 0.0131003 0.0721205)
(0.193418 0.0130558 0.0898417)
(0.189645 0.0130454 0.110675)
(0.184702 0.0130779 0.135203)
(0.178811 0.0132723 0.164164)
(0.202227 -0.0132669 0.0333751)
(0.200741 -0.0132132 0.044249)
(0.198787 -0.0131502 0.0570535)
(0.196454 -0.0131005 0.0721205)
(0.193418 -0.013056 0.0898417)
(0.189646 -0.0130453 0.110675)
(0.184702 -0.0130774 0.135203)
(0.178811 -0.0132714 0.164164)
(0.191806 -0.0381915 0.0257575)
(0.191234 -0.0382055 0.0371451)
(0.190248 -0.0381942 0.0504452)
(0.188853 -0.0382047 0.0659676)
(0.186729 -0.0382118 0.0840622)
(0.183786 -0.0382874 0.105137)
(0.179517 -0.0384453 0.129699)
(0.174136 -0.0390418 0.158384)
(0.17604 -0.059825 0.0163016)
(0.17657 -0.0602044 0.0279244)
(0.176791 -0.0605583 0.0414329)
(0.176598 -0.0609179 0.0571126)
(0.175683 -0.0612432 0.0752567)
(0.173871 -0.0616231 0.0961955)
(0.170531 -0.062056 0.120305)
(0.165849 -0.0631388 0.148025)
(0.159366 -0.0786501 0.00936551)
(0.160673 -0.0794701 0.0205926)
(0.161796 -0.0802736 0.0336454)
(0.162538 -0.0810361 0.0487878)
(0.162609 -0.0816978 0.0662541)
(0.161753 -0.082321 0.0862813)
(0.159199 -0.0828362 0.109061)
(0.154978 -0.0840301 0.134756)
(0.143485 -0.0958655 0.00557626)
(0.145228 -0.0970466 0.0160546)
(0.146905 -0.0982256 0.0282572)
(0.148286 -0.0993116 0.0424203)
(0.149113 -0.100226 0.0587093)
(0.149109 -0.100969 0.0772408)
(0.147347 -0.101411 0.0979398)
(0.143992 -0.102281 0.120533)
(0.126885 -0.111117 0.00403639)
(0.128854 -0.11252 0.0138475)
(0.130861 -0.113926 0.0252859)
(0.132662 -0.115155 0.0385592)
(0.13408 -0.116113 0.0537577)
(0.134749 -0.116569 0.0708581)
(0.13398 -0.116505 0.0893675)
(0.131048 -0.115275 0.108228)
(0.0664032 0.0581559 -0.00567111)
(0.0675684 0.059009 -0.00124384)
(0.0686987 0.059819 0.00397675)
(0.0698693 0.0606588 0.0101005)
(0.0708914 0.0614013 0.017228)
(0.0716932 0.0620294 0.0254007)
(0.0718131 0.062439 0.034508)
(0.0711146 0.0625509 0.0440865)
(0.0751146 0.050208 -0.00944184)
(0.0761741 0.050961 -0.00466373)
(0.0771568 0.0516954 0.000999535)
(0.078128 0.0524764 0.00769457)
(0.078874 0.0532176 0.0155805)
(0.0793487 0.0539866 0.024802)
(0.0790112 0.0546624 0.0354824)
(0.0780926 0.0558146 0.0476179)
(0.0833916 0.0411869 -0.0152373)
(0.0842533 0.0417572 -0.00985064)
(0.0850026 0.0423261 -0.00344797)
(0.0856833 0.0429381 0.00415387)
(0.0860932 0.0435466 0.0131632)
(0.0861724 0.0442173 0.0238051)
(0.0854944 0.0448915 0.0363381)
(0.0841626 0.0460665 0.0510085)
(0.0920643 0.0313195 -0.0239223)
(0.092566 0.0316492 -0.0175647)
(0.0929294 0.0319892 -0.0100498)
(0.0931842 0.0323684 -0.00117329)
(0.0931598 0.032773 0.00929675)
(0.0928094 0.0332583 0.021625)
(0.091803 0.0338182 0.0361343)
(0.0902811 0.0347927 0.0531929)
(0.100189 0.0199734 -0.0346722)
(0.100168 0.0200755 -0.0269765)
(0.0999975 0.0201894 -0.0180181)
(0.0996921 0.020329 -0.00759567)
(0.0991217 0.0204965 0.00451625)
(0.0982497 0.020726 0.0185851)
(0.0968298 0.0210263 0.0349486)
(0.0949842 0.0215871 0.0540299)
(0.105533 0.00693233 -0.0429253)
(0.105072 0.00693947 -0.0341008)
(0.104463 0.00695238 -0.0239703)
(0.103713 0.00697535 -0.0123472)
(0.102721 0.00701168 0.000977156)
(0.10146 0.00707345 0.0162594)
(0.0997302 0.00716671 0.0338344)
(0.0976407 0.00735287 0.0541463)
(0.105533 -0.00693234 -0.0429253)
(0.105072 -0.00693947 -0.0341007)
(0.104463 -0.00695239 -0.0239702)
(0.103713 -0.00697537 -0.012347)
(0.102721 -0.00701172 0.000977422)
(0.10146 -0.00707355 0.0162598)
(0.0997302 -0.00716689 0.0338349)
(0.0976407 -0.00735316 0.0541468)
(0.100189 -0.0199734 -0.034672)
(0.100168 -0.0200755 -0.0269763)
(0.0999975 -0.0201894 -0.0180177)
(0.0996921 -0.020329 -0.00759515)
(0.0991216 -0.0204965 0.00451695)
(0.0982497 -0.0207261 0.018586)
(0.0968297 -0.0210264 0.0349497)
(0.0949841 -0.0215874 0.0540313)
(0.0920643 -0.0313195 -0.0239221)
(0.092566 -0.0316492 -0.0175644)
(0.0929294 -0.0319892 -0.0100493)
(0.0931841 -0.0323684 -0.0011726)
(0.0931598 -0.032773 0.00929769)
(0.0928094 -0.0332583 0.0216262)
(0.0918029 -0.0338183 0.0361359)
(0.090281 -0.0347929 0.053195)
(0.0833914 -0.0411868 -0.015237)
(0.0842532 -0.0417572 -0.00985023)
(0.0850024 -0.0423261 -0.00344738)
(0.0856832 -0.0429381 0.0041547)
(0.086093 -0.0435465 0.0131644)
(0.0861722 -0.0442173 0.0238066)
(0.0854942 -0.0448915 0.0363402)
(0.0841624 -0.0460665 0.0510113)
(0.0751144 -0.0502079 -0.00944154)
(0.0761739 -0.0509609 -0.00466329)
(0.0771566 -0.0516953 0.00100019)
(0.0781278 -0.0524763 0.00769553)
(0.0788737 -0.0532174 0.0155818)
(0.0793485 -0.0539865 0.0248039)
(0.0790109 -0.0546624 0.0354851)
(0.0780924 -0.0558145 0.0476216)
(0.0664032 -0.0581559 -0.00567102)
(0.0675684 -0.059009 -0.00124368)
(0.0686987 -0.059819 0.00397705)
(0.0698693 -0.0606589 0.0101011)
(0.0708913 -0.0614014 0.0172289)
(0.071693 -0.0620295 0.0254021)
(0.0718129 -0.0624391 0.0345103)
(0.0711142 -0.062551 0.0440901)
(0.0333795 0.0292224 -0.0109307)
(0.0339707 0.0296356 -0.00940865)
(0.0345933 0.0300651 -0.00756315)
(0.0352278 0.0305014 -0.00532288)
(0.0358189 0.0309129 -0.00261732)
(0.0363213 0.0312861 0.000620087)
(0.0365023 0.0315657 0.00442088)
(0.0363377 0.0317672 0.00869576)
(0.0377659 0.0252355 -0.0175492)
(0.0383069 0.0256079 -0.0158489)
(0.0388546 0.0259974 -0.0137391)
(0.0393923 0.0264093 -0.0111154)
(0.0398484 0.0268211 -0.00785928)
(0.0401904 0.0272642 -0.00383378)
(0.0401543 0.0276791 0.00111856)
(0.0398794 0.0283874 0.00712313)
(0.0419334 0.0207049 -0.0284842)
(0.0423848 0.0209941 -0.0262605)
(0.0428165 0.0212977 -0.0234854)
(0.0432181 0.021628 -0.0200231)
(0.0435128 0.0219708 -0.0157167)
(0.0436666 0.02236 -0.0103825)
(0.0434737 0.0227674 -0.00380211)
(0.043002 0.0234585 0.00425321)
(0.0462892 0.0157428 -0.045521)
(0.0465765 0.015917 -0.0420338)
(0.046818 0.0161018 -0.0378156)
(0.0470207 0.0163152 -0.032721)
(0.0471082 0.0165501 -0.0265874)
(0.0470602 0.0168376 -0.0192298)
(0.0467181 0.0171747 -0.010431)
(0.0461598 0.0177376 5.05893e-05)
(0.0503477 0.0100342 -0.0670302)
(0.0503931 0.0100951 -0.0613809)
(0.0503723 0.0101617 -0.0548566)
(0.0503118 0.0102496 -0.0473405)
(0.0501375 0.0103555 -0.0387068)
(0.0498428 0.0105006 -0.0288149)
(0.0493075 0.0106884 -0.0174946)
(0.0485952 0.0110151 -0.00453812)
(0.0530049 0.00348077 -0.0837114)
(0.0528446 0.00348857 -0.0760703)
(0.0526089 0.00349844 -0.0674989)
(0.0523381 0.00351679 -0.0579215)
(0.0519613 0.00354291 -0.0472578)
(0.0514815 0.00358464 -0.0354144)
(0.0507996 0.00364446 -0.0222647)
(0.0499699 0.00375324 -0.00763095)
(0.0530049 -0.00348077 -0.0837114)
(0.0528447 -0.00348858 -0.0760703)
(0.052609 -0.00349847 -0.0674989)
(0.0523381 -0.00351681 -0.0579214)
(0.0519613 -0.0035429 -0.0472578)
(0.0514815 -0.00358458 -0.0354144)
(0.0507997 -0.00364432 -0.0222647)
(0.04997 -0.00375299 -0.00763089)
(0.0503478 -0.0100342 -0.0670302)
(0.0503932 -0.0100951 -0.0613809)
(0.0503724 -0.0101617 -0.0548566)
(0.0503119 -0.0102496 -0.0473405)
(0.0501376 -0.0103555 -0.0387068)
(0.0498429 -0.0105005 -0.0288148)
(0.0493076 -0.0106882 -0.0174945)
(0.0485953 -0.0110149 -0.004538)
(0.0462894 -0.0157428 -0.045521)
(0.0465767 -0.0159171 -0.0420337)
(0.0468181 -0.0161019 -0.0378155)
(0.0470209 -0.0163153 -0.0327209)
(0.0471084 -0.0165501 -0.0265873)
(0.0470603 -0.0168376 -0.0192297)
(0.0467183 -0.0171747 -0.0104309)
(0.04616 -0.0177374 5.0709e-05)
(0.0419337 -0.0207051 -0.0284841)
(0.0423851 -0.0209943 -0.0262604)
(0.0428168 -0.0212978 -0.0234854)
(0.0432183 -0.0216281 -0.020023)
(0.0435131 -0.021971 -0.0157166)
(0.0436668 -0.0223601 -0.0103824)
(0.043474 -0.0227674 -0.00380202)
(0.0430022 -0.0234583 0.00425326)
(0.0377661 -0.0252357 -0.0175492)
(0.0383071 -0.0256081 -0.0158489)
(0.0388548 -0.0259976 -0.0137391)
(0.0393926 -0.0264095 -0.0111154)
(0.0398486 -0.0268212 -0.00785925)
(0.0401907 -0.0272644 -0.00383375)
(0.0401546 -0.0276792 0.00111857)
(0.0398797 -0.0283873 0.00712307)
(0.0333797 -0.0292226 -0.0109307)
(0.0339708 -0.0296357 -0.00940861)
(0.0345934 -0.0300653 -0.0075631)
(0.0352279 -0.0305016 -0.00532282)
(0.035819 -0.030913 -0.00261726)
(0.0363213 -0.0312863 0.000620136)
(0.0365025 -0.0315659 0.00442089)
(0.0363377 -0.0317672 0.00869567)
(0.0158897 0.013913 -0.0134655)
(0.0161786 0.0141191 -0.0133485)
(0.0164678 0.0143211 -0.013133)
(0.016774 0.0145355 -0.0127758)
(0.0170573 0.0147358 -0.0122195)
(0.017305 0.0149234 -0.0113925)
(0.0174036 0.0150673 -0.0102047)
(0.0173448 0.0151848 -0.00855634)
(0.0179686 0.0120097 -0.0215055)
(0.018233 0.0121958 -0.0213084)
(0.0184879 0.0123828 -0.0209318)
(0.0187484 0.0125866 -0.0202997)
(0.0189689 0.0127895 -0.0193129)
(0.0191414 0.013011 -0.017846)
(0.0191397 0.0132212 -0.0157357)
(0.0190321 0.0135768 -0.0127988)
(0.019938 0.00984789 -0.035031)
(0.0201594 0.0099936 -0.0343664)
(0.0203627 0.0101432 -0.0333774)
(0.0205599 0.0103087 -0.0319571)
(0.0207069 0.0104807 -0.0299747)
(0.020793 0.0106768 -0.0272742)
(0.0207207 0.0108836 -0.0236679)
(0.020524 0.0112275 -0.0189485)
(0.0219867 0.00748073 -0.0563066)
(0.0221302 0.00757034 -0.0542419)
(0.0222488 0.00766522 -0.0516569)
(0.022354 0.00777456 -0.0484384)
(0.0224074 0.00789519 -0.0444604)
(0.0224019 0.00804181 -0.0395842)
(0.0222636 0.00821343 -0.0336558)
(0.0220299 0.00849283 -0.0265121)
(0.0238899 0.0047635 -0.0832964)
(0.0239191 0.00479715 -0.0786584)
(0.0239198 0.00483502 -0.0733391)
(0.0239031 0.00488267 -0.0672643)
(0.0238375 0.00493999 -0.0603623)
(0.0237194 0.00501621 -0.0525616)
(0.0234941 0.00511353 -0.0437864)
(0.0231917 0.00527677 -0.033953)
(0.0251331 0.0016513 -0.104279)
(0.0250656 0.0016567 -0.0972129)
(0.0249689 0.00166388 -0.0894057)
(0.0248547 0.00167477 -0.0808365)
(0.0246967 0.00168979 -0.0714946)
(0.0244938 0.00171224 -0.0613736)
(0.0242019 0.00174352 -0.050462)
(0.0238464 0.00179792 -0.038732)
(0.0251331 -0.0016513 -0.104279)
(0.0250656 -0.00165671 -0.0972128)
(0.0249689 -0.0016639 -0.0894057)
(0.0248547 -0.0016748 -0.0808364)
(0.0246967 -0.00168982 -0.0714945)
(0.0244938 -0.00171227 -0.0613735)
(0.0242019 -0.00174355 -0.0504619)
(0.0238464 -0.00179794 -0.0387319)
(0.0238899 -0.0047635 -0.0832964)
(0.0239191 -0.00479716 -0.0786584)
(0.0239198 -0.00483504 -0.073339)
(0.0239031 -0.00488269 -0.0672642)
(0.0238375 -0.00494001 -0.0603622)
(0.0237194 -0.00501624 -0.0525614)
(0.0234941 -0.00511356 -0.0437861)
(0.0231917 -0.00527679 -0.0339527)
(0.0219868 -0.00748075 -0.0563066)
(0.0221302 -0.00757036 -0.0542418)
(0.0222488 -0.00766525 -0.0516568)
(0.0223541 -0.00777459 -0.0484383)
(0.0224074 -0.00789522 -0.0444602)
(0.0224019 -0.00804184 -0.0395839)
(0.0222636 -0.00821345 -0.0336555)
(0.02203 -0.00849283 -0.0265117)
(0.0199381 -0.00984791 -0.035031)
(0.0201594 -0.00999362 -0.0343663)
(0.0203628 -0.0101432 -0.0333773)
(0.0205599 -0.0103088 -0.0319569)
(0.0207069 -0.0104807 -0.0299745)
(0.020793 -0.0106769 -0.0272739)
(0.0207207 -0.0108837 -0.0236675)
(0.020524 -0.0112275 -0.0189479)
(0.0179686 -0.0120098 -0.0215054)
(0.018233 -0.0121958 -0.0213083)
(0.0184879 -0.0123828 -0.0209316)
(0.0187484 -0.0125866 -0.0202995)
(0.0189689 -0.0127895 -0.0193127)
(0.0191414 -0.013011 -0.0178456)
(0.0191397 -0.0132212 -0.0157351)
(0.0190321 -0.0135767 -0.012798)
(0.0158897 -0.013913 -0.0134655)
(0.0161786 -0.0141191 -0.0133485)
(0.0164678 -0.0143211 -0.013133)
(0.016774 -0.0145355 -0.0127756)
(0.0170573 -0.0147358 -0.0122193)
(0.017305 -0.0149235 -0.0113922)
(0.0174035 -0.0150674 -0.0102042)
(0.0173447 -0.0151848 -0.00855562)
(0.00704021 0.00616245 -0.0147171)
(0.00716872 0.00625074 -0.0152916)
(0.00730254 0.00634097 -0.0158786)
(0.00744191 0.0064348 -0.016446)
(0.00757327 0.00652382 -0.0169447)
(0.00768905 0.00660731 -0.0172999)
(0.0077397 0.00667184 -0.0173949)
(0.00772265 0.00672755 -0.0170359)
(0.00796553 0.00532225 -0.0234514)
(0.0080836 0.00540246 -0.0239927)
(0.00820176 0.0054853 -0.0244679)
(0.00832093 0.00557463 -0.024813)
(0.00842435 0.00566464 -0.0249398)
(0.00850675 0.00576304 -0.0247283)
(0.00851327 0.0058572 -0.0240151)
(0.00847493 0.00601794 -0.0225891)
(0.00884426 0.0043669 -0.0382394)
(0.00894416 0.00443002 -0.0383399)
(0.00903876 0.00449562 -0.0382279)
(0.00913018 0.00456824 -0.0378094)
(0.00920083 0.00464424 -0.0369679)
(0.009245 0.00473125 -0.0355614)
(0.00922021 0.00482363 -0.0334195)
(0.0091424 0.00497783 -0.0303476)
(0.00975808 0.00331883 -0.061576)
(0.00982469 0.00335777 -0.0602102)
(0.00988088 0.00339876 -0.0584276)
(0.00993203 0.00344669 -0.0561311)
(0.00996094 0.00349977 -0.0532134)
(0.00996452 0.00356473 -0.0495595)
(0.00991048 0.0036412 -0.0450485)
(0.00981582 0.00376594 -0.0395586)
(0.0106064 0.00211402 -0.091226)
(0.0106238 0.00212867 -0.0870875)
(0.0106269 0.00214454 -0.0823629)
(0.0106246 0.0021654 -0.0770001)
(0.0106006 0.00219049 -0.0709539)
(0.0105544 0.00222428 -0.0641881)
(0.0104617 0.00226767 -0.0566751)
(0.0103362 0.00234045 -0.048395)
(0.0111598 0.000732923 -0.114294)
(0.0111352 0.000735268 -0.107516)
(0.0110947 0.000738083 -0.10009)
(0.0110495 0.000742827 -0.0920236)
(0.0109845 0.000749355 -0.0833397)
(0.0109008 0.00075929 -0.0740761)
(0.0107786 0.000773217 -0.0642793)
(0.0106293 0.00079742 -0.0539984)
(0.0111598 -0.000732924 -0.114294)
(0.0111352 -0.000735272 -0.107516)
(0.0110947 -0.000738089 -0.10009)
(0.0110495 -0.000742834 -0.0920236)
(0.0109845 -0.000749358 -0.0833397)
(0.0109008 -0.000759287 -0.0740761)
(0.0107786 -0.000773203 -0.0642793)
(0.0106293 -0.000797396 -0.0539984)
(0.0106064 -0.00211403 -0.091226)
(0.0106238 -0.00212868 -0.0870874)
(0.0106269 -0.00214455 -0.0823629)
(0.0106246 -0.00216541 -0.0770001)
(0.0106006 -0.00219049 -0.0709539)
(0.0105544 -0.00222428 -0.0641881)
(0.0104618 -0.00226766 -0.0566751)
(0.0103362 -0.00234043 -0.0483949)
(0.00975812 -0.00331884 -0.061576)
(0.00982472 -0.00335779 -0.0602101)
(0.00988092 -0.00339878 -0.0584276)
(0.00993207 -0.00344671 -0.0561311)
(0.00996098 -0.00349978 -0.0532134)
(0.00996455 -0.00356474 -0.0495594)
(0.00991052 -0.0036412 -0.0450484)
(0.00981585 -0.00376592 -0.0395585)
(0.00884431 -0.00436692 -0.0382393)
(0.0089442 -0.00443004 -0.0383399)
(0.0090388 -0.00449564 -0.0382279)
(0.00913022 -0.00456827 -0.0378094)
(0.00920087 -0.00464426 -0.0369679)
(0.00924504 -0.00473127 -0.0355613)
(0.00922025 -0.00482364 -0.0334194)
(0.00914243 -0.00497782 -0.0303474)
(0.00796557 -0.00532228 -0.0234514)
(0.00808364 -0.00540249 -0.0239927)
(0.00820179 -0.00548534 -0.0244679)
(0.00832096 -0.00557466 -0.0248129)
(0.00842438 -0.00566466 -0.0249398)
(0.00850678 -0.00576306 -0.0247283)
(0.0085133 -0.00585721 -0.024015)
(0.00847498 -0.00601791 -0.022589)
(0.00704024 -0.00616248 -0.0147171)
(0.00716874 -0.00625077 -0.0152915)
(0.00730257 -0.00634101 -0.0158786)
(0.00744193 -0.00643485 -0.0164459)
(0.00757329 -0.00652387 -0.0169447)
(0.00768906 -0.00660735 -0.0172998)
(0.00773972 -0.00667189 -0.0173948)
(0.00772263 -0.00672757 -0.0170357)
(0.00294107 0.00257482 -0.0152873)
(0.00299561 0.00261312 -0.0161774)
(0.00304981 0.00265012 -0.0171306)
(0.00310774 0.00268981 -0.0181206)
(0.00316169 0.00272691 -0.0191018)
(0.00320943 0.00276193 -0.0199982)
(0.00323028 0.00278892 -0.0206814)
(0.00322249 0.0028125 -0.0209139)
(0.00332693 0.00222338 -0.0243409)
(0.00337695 0.00225807 -0.0252201)
(0.00342468 0.00229244 -0.0260848)
(0.00347414 0.00233031 -0.0268773)
(0.00351646 0.00236808 -0.0275143)
(0.00355026 0.00240941 -0.0278784)
(0.00355279 0.00244904 -0.0278063)
(0.00353649 0.00251613 -0.0270745)
(0.00369332 0.00182406 -0.0397108)
(0.00373554 0.00185135 -0.0401621)
(0.00377371 0.00187891 -0.0404519)
(0.00381159 0.00190982 -0.0404929)
(0.0038404 0.00194193 -0.0401747)
(0.00385843 0.00197863 -0.0393622)
(0.003848 0.00201761 -0.037893)
(0.00381558 0.00208199 -0.0355789)
(0.00407336 0.00138579 -0.0639988)
(0.00410142 0.00140269 -0.0629535)
(0.00412397 0.00142017 -0.061539)
(0.00414509 0.00144068 -0.0596656)
(0.00415671 0.00146324 -0.0572346)
(0.00415798 0.0014907 -0.0541421)
(0.0041355 0.00152295 -0.0502827)
(0.00409618 0.00157503 -0.0455539)
(0.00442597 0.000882441 -0.0948774)
(0.00443324 0.000888941 -0.0909676)
(0.00443408 0.000895945 -0.0865156)
(0.00443295 0.000905014 -0.0814792)
(0.00442275 0.00091583 -0.0758258)
(0.00440345 0.000930218 -0.0695353)
(0.00436504 0.000948606 -0.0626026)
(0.00431305 0.000979078 -0.0550377)
(0.00465579 0.000305869 -0.118909)
(0.00464542 0.000306972 -0.112262)
(0.00462835 0.000308298 -0.10501)
(0.00460941 0.000310405 -0.0971737)
(0.00458225 0.000313254 -0.0887913)
(0.00454744 0.0003175 -0.0799212)
(0.00449682 0.000323403 -0.070637)
(0.00443506 0.00033353 -0.0610234)
(0.0046558 -0.00030587 -0.118909)
(0.00464542 -0.000306975 -0.112262)
(0.00462835 -0.000308304 -0.10501)
(0.00460941 -0.000310411 -0.0971737)
(0.00458225 -0.000313261 -0.0887913)
(0.00454744 -0.000317504 -0.0799212)
(0.00449682 -0.000323404 -0.070637)
(0.00443506 -0.000333527 -0.0610233)
(0.00442598 -0.000882443 -0.0948774)
(0.00443325 -0.000888945 -0.0909675)
(0.00443409 -0.000895951 -0.0865156)
(0.00443296 -0.00090502 -0.0814792)
(0.00442275 -0.000915836 -0.0758258)
(0.00440346 -0.000930222 -0.0695353)
(0.00436505 -0.000948608 -0.0626026)
(0.00431305 -0.000979076 -0.0550377)
(0.00407338 -0.0013858 -0.0639988)
(0.00410144 -0.0014027 -0.0629534)
(0.00412399 -0.00142018 -0.061539)
(0.00414511 -0.00144069 -0.0596656)
(0.00415673 -0.00146325 -0.0572346)
(0.00415799 -0.00149071 -0.0541421)
(0.00413552 -0.00152296 -0.0502826)
(0.0040962 -0.00157502 -0.0455539)
(0.00369335 -0.00182407 -0.0397108)
(0.00373556 -0.00185136 -0.0401621)
(0.00377373 -0.00187893 -0.0404519)
(0.00381161 -0.00190984 -0.0404929)
(0.00384042 -0.00194195 -0.0401747)
(0.00385844 -0.00197864 -0.0393621)
(0.00384802 -0.00201762 -0.037893)
(0.00381559 -0.00208198 -0.0355788)
(0.00332694 -0.0022234 -0.0243409)
(0.00337697 -0.00225808 -0.0252201)
(0.0034247 -0.00229246 -0.0260848)
(0.00347415 -0.00233033 -0.0268773)
(0.00351647 -0.00236809 -0.0275142)
(0.00355027 -0.00240942 -0.0278783)
(0.0035528 -0.00244905 -0.0278062)
(0.00353651 -0.00251611 -0.0270744)
(0.00294108 -0.00257482 -0.0152872)
(0.00299561 -0.00261313 -0.0161774)
(0.00304981 -0.00265014 -0.0171305)
(0.00310775 -0.00268983 -0.0181206)
(0.00316169 -0.00272693 -0.0191018)
(0.00320942 -0.00276194 -0.0199982)
(0.00323028 -0.00278895 -0.0206814)
(0.00322247 -0.00281251 -0.0209138)
(0.00110012 0.000962912 -0.0155288)
(0.00111974 0.000976168 -0.0165526)
(0.00114107 0.000990488 -0.0176607)
(0.00116293 0.00100502 -0.0188295)
(0.00118374 0.00101895 -0.0200147)
(0.00120207 0.00103197 -0.0211398)
(0.00121046 0.00104202 -0.0220715)
(0.0012081 0.00105102 -0.0225538)
(0.00124514 0.00083193 -0.024717)
(0.00126302 0.000844008 -0.025739)
(0.00128193 0.000857179 -0.0267685)
(0.00130058 0.000871044 -0.0277501)
(0.00131703 0.000885164 -0.0286026)
(0.0013301 0.0009005 -0.0292098)
(0.00133162 0.000915295 -0.0294085)
(0.00132608 0.000940438 -0.0289701)
(0.00138327 0.000682993 -0.0403319)
(0.00139822 0.000692494 -0.0409314)
(0.00141352 0.000702965 -0.041391)
(0.00142782 0.000714255 -0.0416261)
(0.00143917 0.000726202 -0.041529)
(0.00144631 0.000739784 -0.0409673)
(0.00144293 0.0007543 -0.0397824)
(0.00143136 0.000778315 -0.0377885)
(0.00152648 0.000519175 -0.0650201)
(0.00153616 0.000524983 -0.0641102)
(0.00154553 0.000531565 -0.0628513)
(0.00155353 0.000539002 -0.0611567)
(0.00155838 0.000547337 -0.0589314)
(0.00155919 0.000557453 -0.0560761)
(0.00155122 0.000569411 -0.0524921)
(0.00153693 0.000588762 -0.0480852)
(0.00165935 0.000330741 -0.0964153)
(0.00166127 0.000332866 -0.0926024)
(0.00166243 0.000335476 -0.0882658)
(0.00166208 0.000338715 -0.0833676)
(0.0016587 0.000342678 -0.0778803)
(0.00165176 0.000347954 -0.071791)
(0.00163776 0.000354755 -0.0651038)
(0.00161863 0.000366059 -0.0578416)
(0.00174585 0.000114662 -0.120852)
(0.0017412 0.000114971 -0.114261)
(0.0017356 0.000115456 -0.107083)
(0.00172856 0.000116188 -0.0993443)
(0.0017188 0.00011722 -0.0910898)
(0.00170602 0.000118766 -0.0823864)
(0.0016874 0.00012094 -0.0733193)
(0.00166457 0.000124687 -0.0639882)
(0.00174586 -0.000114662 -0.120852)
(0.0017412 -0.000114973 -0.114261)
(0.0017356 -0.000115458 -0.107083)
(0.00172856 -0.000116191 -0.0993443)
(0.0017188 -0.000117222 -0.0910898)
(0.00170603 -0.000118767 -0.0823864)
(0.00168741 -0.000120939 -0.0733193)
(0.00166457 -0.000124684 -0.0639882)
(0.00165935 -0.000330742 -0.0964153)
(0.00166128 -0.000332867 -0.0926024)
(0.00166244 -0.000335479 -0.0882658)
(0.00166208 -0.000338717 -0.0833676)
(0.0016587 -0.00034268 -0.0778804)
(0.00165177 -0.000347955 -0.071791)
(0.00163776 -0.000354754 -0.0651039)
(0.00161864 -0.000366057 -0.0578416)
(0.00152649 -0.000519178 -0.0650201)
(0.00153617 -0.000524987 -0.0641102)
(0.00154554 -0.000531569 -0.0628513)
(0.00155353 -0.000539007 -0.0611567)
(0.00155839 -0.000547342 -0.0589314)
(0.0015592 -0.000557456 -0.0560761)
(0.00155122 -0.000569412 -0.0524921)
(0.00153694 -0.000588759 -0.0480853)
(0.00138328 -0.000682998 -0.0403319)
(0.00139823 -0.000692499 -0.0409314)
(0.00141353 -0.000702971 -0.041391)
(0.00142782 -0.000714261 -0.0416261)
(0.00143917 -0.000726208 -0.041529)
(0.00144632 -0.000739789 -0.0409673)
(0.00144293 -0.000754303 -0.0397824)
(0.00143136 -0.000778312 -0.0377885)
(0.00124515 -0.000831936 -0.024717)
(0.00126302 -0.000844015 -0.025739)
(0.00128194 -0.000857186 -0.0267685)
(0.00130059 -0.000871052 -0.0277501)
(0.00131703 -0.00088517 -0.0286025)
(0.0013301 -0.000900504 -0.0292098)
(0.00133162 -0.000915296 -0.0294085)
(0.00132609 -0.000940431 -0.02897)
(0.00110012 -0.000962914 -0.0155288)
(0.00111974 -0.000976171 -0.0165526)
(0.00114108 -0.000990493 -0.0176607)
(0.00116293 -0.00100503 -0.0188295)
(0.00118374 -0.00101896 -0.0200147)
(0.00120207 -0.00103198 -0.0211398)
(0.00121046 -0.00104203 -0.0220714)
(0.00120808 -0.00105102 -0.0225537)
(0.000227954 0.000199387 -0.0156188)
(0.000234405 0.00020397 -0.0166921)
(0.000237769 0.0002057 -0.0178577)
(0.000243094 0.00020908 -0.0190924)
(0.000247429 0.000211614 -0.0203528)
(0.000251582 0.000214233 -0.021562)
(0.000253611 0.000216165 -0.0225848)
(0.000253439 0.000217931 -0.0231584)
(0.000258257 0.000172439 -0.0248569)
(0.00026462 0.000176515 -0.0259317)
(0.000267314 0.000178173 -0.0270221)
(0.00027205 0.000181369 -0.0280734)
(0.000275441 0.000183996 -0.0290052)
(0.000278517 0.000187118 -0.0297017)
(0.000279125 0.000190077 -0.0299995)
(0.000278378 0.000195239 -0.0296681)
(0.000287217 0.000141711 -0.0405623)
(0.000293244 0.000144958 -0.0412164)