/*--------------------------------*- C++ -*----------------------------------*\
| =========                 |                                                 |
| \\      /  F ield         | foam-extend: Open Source CFD                    |
|  \\    /   O peration     | Version:  3.0                                   |
|   \\  /    A nd           | Web:         http://www.extend-project.de       |
|    \\/     M anipulation  |                                                 |
\*---------------------------------------------------------------------------*/
FoamFile
{
    version     2.0;
    format      ascii;
    class       volSymmTensorField;
    location    "14";
    object      sigma;
}
// * * * * * * * * * * * * * * * * * * * * * * * * * * * * * * * * * * * * * //

dimensions      [0 0 0 0 0 0 0];

internalField   nonuniform List<symmTensor> 
2688
(
(-0.1782241483 -0.004897230748 4.316395239e-20 0.1780785262 4.075534302e-22 0.0001456220948)
(-0.1748767576 -0.005768792657 6.45200254e-20 0.1744801692 5.723261866e-21 0.0003965883818)
(-0.1677382691 -0.006154713474 1.1572013e-20 0.167116146 5.007631872e-20 0.0006221230608)
(-0.1587233276 -0.006251590046 -4.410549571e-22 0.1578977953 6.286402139e-20 0.0008255323454)
(-0.1489083389 -0.006175822429 2.178575614e-20 0.1478993608 7.982083473e-20 0.001008978078)
(-0.1388897966 -0.005997635421 3.782895708e-20 0.1377161436 6.098178938e-20 0.001173652979)
(-0.1290086348 -0.005760512947 4.81432029e-20 0.1276884188 7.456615616e-20 0.001320216052)
(-0.1194473532 -0.005491693422 2.1977667e-20 0.1179986534 4.12941282e-20 0.001448699826)
(-0.1103056922 -0.0052084874 -3.448698209e-21 0.1087468291 3.501578598e-20 0.001558863066)
(-0.1016286501 -0.004922016578 8.22975034e-21 0.09997862754 5.475944396e-21 0.001650022562)
(-0.09343466474 -0.00463936806 2.261899066e-20 0.09171332635 5.065773171e-20 0.001721338384)
(-0.08572479908 -0.004365270209 3.235944448e-20 0.08395318473 6.878553737e-20 0.001771614349)
(-0.07849235559 -0.004102614084 6.170370391e-20 0.07669277318 5.113581152e-20 0.001799582407)
(-0.07172832042 -0.003853548475 3.380807399e-20 0.06992463619 6.622674698e-20 0.001803684231)
(-0.0654218978 -0.00361923285 -3.164164016e-20 0.06363953057 8.500787687e-20 0.001782367235)
(-0.05956709527 -0.00340085592 -2.317571067e-21 0.05783323014 9.06878561e-20 0.001733865124)
(-0.05415734636 -0.003198913657 2.579767735e-20 0.05250084404 7.743360391e-20 0.001656502321)
(-0.04919516287 -0.003014379003 -8.312724529e-21 0.04764667046 1.179117753e-19 0.001548492414)
(-0.04468184542 -0.002847607321 -7.327160543e-22 0.04327362611 8.646915456e-20 0.001408219308)
(-0.04063127123 -0.002699764329 3.484663271e-20 0.03939719218 9.78417754e-20 0.001234079059)
(-0.03705473711 -0.002571317593 4.270216705e-20 0.03603002159 1.499814564e-20 0.001024715518)
(-0.03397955778 -0.002463750382 1.804695911e-20 0.03320062794 2.795782318e-20 0.0007789298388)
(-0.03142885729 -0.002378049502 2.32377495e-21 0.03093298083 -4.845117641e-21 0.0004958764598)
(-0.02944420077 -0.002313127645 -1.156419382e-21 0.02926910039 -5.539211271e-20 0.0001751003721)
(-0.1777086036 -0.01468002122 3.774679451e-20 0.1775634332 -1.994749134e-21 0.0001451703852)
(-0.173939549 -0.017255435 7.429828952e-20 0.1735442135 2.875109862e-21 0.0003953355134)
(-0.1665604761 -0.0183897063 3.677186318e-20 0.1659402924 2.298391422e-20 0.0006201836735)
(-0.1574166677 -0.01866671596 4.812759096e-21 0.1565937222 4.908610882e-20 0.0008229455467)
(-0.1475423326 -0.0184319439 1.466124575e-20 0.1465365054 6.843310068e-20 0.001005827176)
(-0.1375084455 -0.017893872 3.562218609e-20 0.1363384705 4.58761071e-20 0.001169975049)
(-0.1276395757 -0.01718155554 3.926396097e-20 0.1263235038 7.891001591e-20 0.001316071828)
(-0.1181078234 -0.0163757742 -4.41519081e-21 0.1166636771 2.875198965e-20 0.00144414625)
(-0.1090061701 -0.01552787636 -3.362177937e-20 0.1074522116 5.729122247e-20 0.00155395841)
(-0.1003750747 -0.01467082245 1.205163369e-20 0.09873024542 1.31304825e-20 0.001644829259)
(-0.09222998369 -0.01382559886 5.678633313e-20 0.09051406086 3.019502328e-20 0.001715922828)
(-0.08456986635 -0.01300618862 3.785357452e-20 0.0828038192 1.926466084e-20 0.001766047153)
(-0.07738668159 -0.01222113456 5.803867632e-20 0.07559274493 3.794334545e-21 0.001793936661)
(-0.07067038357 -0.01147677723 6.936783078e-20 0.06887234708 4.241839183e-20 0.001798036485)
(-0.06440956676 -0.01077653296 3.299311524e-20 0.06263277123 6.976262235e-20 0.001776795525)
(-0.05859766074 -0.01012391839 2.610365106e-20 0.05686921035 1.320726076e-19 0.001728450388)
(-0.05322782521 -0.009520413429 8.418817429e-20 0.05157649627 2.38796879e-20 0.001651328941)
(-0.04830217638 -0.008968915253 3.315925548e-20 0.04675852582 1.684861704e-19 0.001543650562)
(-0.04382189031 -0.008470464576 2.136342275e-20 0.04241808208 1.795714377e-19 0.00140380823)
(-0.03980047129 -0.008028473838 3.460641274e-20 0.03857026382 3.959267355e-20 0.001230207468)
(-0.03624909909 -0.00764433244 -3.297117055e-20 0.03522760015 3.286459338e-20 0.001021498943)
(-0.03319467636 -0.007322520056 1.54604094e-20 0.03241819096 1.371778476e-19 0.000776485396)
(-0.03066013862 -0.007065984268 -6.998495913e-20 0.03016581797 9.133420448e-20 0.0004943206442)
(-0.02868793759 -0.006871468269 3.26666034e-20 0.02851338669 -5.29514018e-20 0.0001745508922)
(-0.1766778381 -0.02442794129 2.634816362e-20 0.1765335979 2.648235957e-20 0.0001442402351)
(-0.1720788238 -0.02859079605 6.044027526e-20 0.1716860244 3.864465565e-21 0.0003927993916)
(-0.1642270697 -0.03040394291 3.966617829e-20 0.1636108711 -3.123470779e-20 0.0006161986326)
(-0.1548302603 -0.03082074721 2.665952767e-20 0.1540125913 1.473636712e-20 0.0008176690154)
(-0.144840079 -0.03040511478 1.595605242e-20 0.1438406805 5.995580254e-20 0.000999398501)
(-0.1347767617 -0.02949708595 4.107512486e-20 0.1336142456 5.162044775e-20 0.001162516036)
(-0.1249329325 -0.02830710496 4.756323779e-20 0.1236252261 8.905469139e-20 0.001307706396)
(-0.1154601883 -0.0269667668 -5.566985554e-21 0.1140251962 8.674376387e-20 0.001434992128)
(-0.1064381411 -0.02555966588 -1.309079891e-20 0.1048940092 9.59904803e-20 0.001544131966)
(-0.09789829058 -0.02413939655 -3.803124469e-20 0.09626384167 9.557861806e-20 0.001634448903)
(-0.08985019351 -0.02274004547 1.203528129e-20 0.08814508325 1.118414259e-19 0.001705110265)
(-0.08228870118 -0.02138428547 4.099634213e-21 0.08053377163 3.777565588e-20 0.001754929548)
(-0.07520313104 -0.02008594281 7.394444636e-20 0.07342048305 -1.363185292e-20 0.001782647988)
(-0.06858140991 -0.01885526597 1.118281895e-19 0.06679468934 1.041472408e-20 0.001786720568)
(-0.06241093721 -0.01769775691 7.234303225e-20 0.06064533022 7.081260939e-20 0.00176560699)
(-0.05668400961 -0.01661909961 1.419408373e-20 0.05496645279 9.226062605e-20 0.001717556812)
(-0.05139324882 -0.01562167576 5.405222449e-20 0.0497523374 6.153798694e-20 0.001640911426)
(-0.04653998696 -0.01471019644 2.68216722e-19 0.0450060832 1.688993519e-20 0.001533903757)
(-0.04212514122 -0.0138863532 -2.239384051e-20 0.04073020172 6.315194581e-20 0.001394939503)
(-0.0381614771 -0.01315572105 -1.052761446e-19 0.0369390426 5.254037582e-20 0.001222434501)
(-0.03465996964 -0.01252058858 1.724629021e-19 0.03364492325 2.513289941e-20 0.00101504639)
(-0.03164672059 -0.01198833123 2.143695099e-19 0.03087513798 -1.922285006e-20 0.0007715826186)
(-0.02914425958 -0.01156380846 -1.519935263e-19 0.02865305919 1.322367094e-19 0.0004912003848)
(-0.02719677942 -0.0112418771 -2.542149407e-20 0.02702332964 -5.742068033e-20 0.0001734497798)
(-0.1751325744 -0.03411750121 1.018350929e-22 0.1749897229 4.391486198e-20 0.0001428515456)
(-0.1693221171 -0.03967751884 2.641182996e-20 0.1689330914 -3.566760877e-20 0.0003890256812)
(-0.1607815816 -0.04205609036 4.181792295e-20 0.1601713016 -8.777086124e-20 0.0006102800248)
(-0.1510172397 -0.04254691316 5.547616325e-20 0.1502074149 9.782285645e-22 0.000809824773)
(-0.1408600083 -0.04191476917 4.340498212e-20 0.1398701775 3.509140935e-20 0.0009898307714)
(-0.1307559463 -0.04062041723 5.081340519e-20 0.1296045407 6.364825723e-20 0.001151405632)
(-0.1209509394 -0.03894882018 8.778959653e-20 0.1196557082 7.596077065e-20 0.001295231183)
(-0.111566539 -0.03707792905 5.419123544e-21 0.1101452122 1.313035891e-19 0.001421326759)
(-0.1026627973 -0.03512066776 3.849411272e-21 0.1011333467 5.90724618e-20 0.001529450571)
(-0.09425813746 -0.03314929403 5.317122118e-20 0.09263920763 4.520785975e-20 0.001618929834)
(-0.08635352357 -0.03120969034 4.147159661e-20 0.08466458611 6.433425818e-20 0.001688937464)
(-0.07893779581 -0.02933229238 -7.046665636e-20 0.07719949932 1.014682305e-20 0.001738296495)
(-0.07199641344 -0.02753560801 -2.130878761e-20 0.07023065503 6.398593464e-20 0.001765758413)
(-0.06551434251 -0.02583332696 1.514946627e-19 0.0637445495 1.185077737e-20 0.001769793006)
(-0.05947723895 -0.02423275734 1.180201727e-19 0.0577283641 1.835555903e-19 0.001748874848)
(-0.05387574565 -0.0227414885 9.005993073e-20 0.05217447371 -8.059894619e-21 0.001701271937)
(-0.04870169779 -0.0213626744 2.611583994e-20 0.04707635379 -7.042781162e-20 0.001625344002)
(-0.04395527514 -0.02010266209 7.512183968e-20 0.04243593228 -1.313855872e-19 0.001519342863)
(-0.03963701365 -0.01896373541 1.825418935e-19 0.0382553214 -1.017852061e-19 0.001381692252)
(-0.03575860338 -0.01795348376 7.02800212e-21 0.03454778003 -5.09068524e-21 0.00121082335)
(-0.0323307423 -0.01707506674 -1.406474889e-19 0.03132533632 1.167292226e-20 0.001005405978)
(-0.02937834545 -0.0163385938 2.193698388e-19 0.0286140892 -3.007780712e-20 0.0007642562553)
(-0.02692331232 -0.0157507587 6.635316229e-20 0.02643677528 1.291761724e-19 0.0004865370441)
(-0.02501238733 -0.01530496868 -1.855444997e-20 0.02484058418 -2.923297945e-20 0.0001718031546)
(-0.1730739884 -0.04372491718 -4.50975734e-20 0.1729329752 5.832274167e-20 0.0001410132026)
(-0.1657097026 -0.0504235926 -5.007485517e-20 0.1653256753 -2.346531335e-20 0.0003840273054)
(-0.1562878736 -0.05321353169 2.97145535e-20 0.1556854294 -5.966675438e-20 0.0006024441503)
(-0.1460554475 -0.05368912612 8.961996463e-20 0.1452560124 1.894634832e-20 0.0007994351059)
(-0.1356878747 -0.05279218226 5.729680513e-20 0.1347107253 3.835125782e-20 0.0009771493967)
(-0.1255357218 -0.05108942179 7.606832001e-20 0.1243990497 4.534331048e-20 0.001136672109)
(-0.1157847212 -0.0489309913 1.341798966e-19 0.1145060425 3.039075646e-20 0.001278678721)
(-0.1065177552 -0.04653513976 2.449497379e-20 0.1051145692 1.263312635e-19 0.001403185955)
(-0.09776972452 -0.04404015281 -6.673133414e-20 0.09625977172 3.556783136e-20 0.001509952798)
(-0.08954225485 -0.04153427358 -2.588551737e-20 0.08794394218 2.590038744e-20 0.001598312671)
(-0.0818252773 -0.03907340505 4.751734815e-20 0.08015783026 -6.769740831e-21 0.001667447043)
(-0.07459991544 -0.03669448801 8.960236127e-21 0.07288372349 1.127870717e-20 0.001716191945)
(-0.06784667741 -0.03441989305 3.114535486e-20 0.06610336415 1.049639007e-19 0.001743313262)
(-0.06154673089 -0.03226611756 1.803202602e-19 0.05979943122 4.465545567e-20 0.001747299666)
(-0.05568349844 -0.03024189373 1.755521974e-19 0.05395685313 6.137771931e-20 0.001726645303)
(-0.05024550259 -0.02835635958 -1.441359099e-19 0.04856586139 -2.597047499e-19 0.001679641204)
(-0.04522357042 -0.02661326506 -8.169502719e-20 0.0436189001 -1.337088334e-19 0.001604670322)
(-0.04061639863 -0.02502035449 9.693450776e-20 0.03911638979 4.020128877e-20 0.001500008834)
(-0.03642402915 -0.02358042826 3.811952501e-20 0.03505992583 6.223826459e-20 0.001364103328)
(-0.03265676629 -0.02230288641 1.033261661e-19 0.03146135991 2.655690729e-20 0.001195406377)
(-0.02932495575 -0.02119171679 9.383496257e-20 0.02833235145 1.610679627e-19 0.0009926043015)
(-0.02645198268 -0.02025954346 2.73036855e-19 0.02569745574 1.659263485e-19 0.0007545269401)
(-0.02405891855 -0.01951479495 1.172845003e-19 0.02357857417 -1.074470528e-20 0.0004803443801)
(-0.02219576452 -0.01895002393 -1.227269457e-19 0.02202614754 2.836315955e-19 0.0001696169793)
(-0.1705038049 -0.05322591853 -5.34095157e-20 0.1703650722 1.573666598e-20 0.000138732779)
(-0.1612936475 -0.06074415982 -1.074176686e-19 0.1609158247 1.829257457e-20 0.0003778228127)
(-0.1508284446 -0.06375543859 1.118488174e-20 0.1502357278 -2.808482785e-20 0.0005927168528)
(-0.140045405 -0.06410585729 1.008613366e-19 0.1392588701 3.730871833e-20 0.0007865348462)
(-0.129434354 -0.06288476418 7.781499182e-20 0.1284729571 9.85711231e-21 0.0009613968196)
(-0.1192318518 -0.06074661035 5.435460971e-20 0.1181134875 2.059367668e-21 0.001118364326)
(-0.109551842 -0.05809518152 1.750033315e-19 0.1082937383 8.634029634e-21 0.001258103682)
(-0.1004310831 -0.05518154198 1.538737468e-19 0.09905045363 -4.446656385e-20 0.001380629495)
(-0.09187449329 -0.05216443996 1.815565539e-20 0.09038879096 -1.587218052e-19 0.001485702336)
(-0.08386369418 -0.04914479502 -4.83826075e-20 0.08229102976 1.236594378e-19 0.001572664419)
(-0.07637548409 -0.04618633826 -5.847471597e-22 0.07473477584 5.419366618e-20 0.001640708256)
(-0.06938180864 -0.04333096082 1.514939261e-20 0.06769312171 5.396741569e-20 0.001688686929)
(-0.0628572908 -0.04060388588 3.229348367e-21 0.06114190667 1.092373806e-19 0.001715384132)
(-0.0567785867 -0.03802363583 6.707750572e-20 0.05505927438 1.35421331e-19 0.001719312319)
(-0.0511264696 -0.03559989702 7.810471426e-21 0.04942748045 -7.825126705e-21 0.001698989145)
(-0.04588694412 -0.03334291592 -2.433832487e-19 0.04423421022 7.069564059e-20 0.001652733907)
(-0.04104964135 -0.03125682202 4.897956721e-20 0.03947068407 3.13718971e-19 0.001578957289)
(-0.03661149029 -0.02935046012 1.952074536e-19 0.03513552542 2.120337097e-19 0.00147596487)
(-0.03257194311 -0.02762705107 1.273079774e-19 0.03122971184 2.057151171e-19 0.001342231263)
(-0.02893964879 -0.02609755108 3.4444503e-20 0.02776341354 2.269426707e-19 0.001176235256)
(-0.02572452882 -0.02476672602 1.488779725e-20 0.02474784388 3.111590404e-19 0.0009766849371)
(-0.02294813011 -0.02364944997 6.028616266e-20 0.02220570231 4.595586906e-19 0.000742427794)
(-0.02063052418 -0.02275575885 3.822622526e-19 0.02015788034 3.48840464e-19 0.0004726438402)
(-0.01882555658 -0.02207807466 -1.535123384e-20 0.01865865778 4.179602582e-19 0.0001668987936)
(-0.1674244157 -0.0625957003 -2.315662207e-20 0.1672883976 -2.947933243e-20 0.0001360180398)
(-0.1561365238 -0.07056324176 -1.147146547e-19 0.1557660901 4.154560811e-21 0.0003704337346)
(-0.1445022246 -0.07357558193 -2.581386516e-20 0.143921094 -2.760052309e-21 0.0005811305697)
(-0.133107568 -0.07367358722 1.371236065e-19 0.1323364013 -3.989342966e-20 0.0007711666703)
(-0.122232013 -0.07205987715 1.001108099e-19 0.1212893876 -8.782127286e-20 0.000942625404)
(-0.1119829626 -0.06945544091 1.916160496e-20 0.1108864199 7.286391052e-20 0.001096542711)
(-0.1023930677 -0.06630428804 9.847202018e-20 0.1011594939 5.082000814e-21 0.001233573841)
(-0.09344689418 -0.06288160203 4.689879364e-20 0.09209316288 -2.184321678e-19 0.001353731302)
(-0.08511545722 -0.05936090284 4.209049047e-20 0.08365867871 -7.74864449e-20 0.001456778503)
(-0.07735778227 -0.05585194421 2.164969079e-19 0.07581571365 4.66969445e-20 0.001542068625)
(-0.0701358447 -0.0524237392 -1.916532063e-21 0.06852703643 -8.796671171e-21 0.001608808268)
(-0.06341124113 -0.0491213248 2.661499568e-20 0.06175537008 1.327032655e-19 0.001655871045)
(-0.05715196607 -0.0459716035 7.95401473e-20 0.05546990353 2.201823951e-19 0.001682062537)
(-0.05132959764 -0.04299421491 1.063125836e-19 0.04964367464 1.750536164e-19 0.001685922996)
(-0.04592193352 -0.04019925387 1.964976396e-19 0.04425593546 9.31274702e-21 0.00166599806)
(-0.04091214549 -0.03759756568 1.454728303e-20 0.03929150578 2.435159627e-19 0.001620639703)
(-0.03628852223 -0.03519340814 5.60652862e-20 0.03474023136 7.576906035e-20 0.001548290874)
(-0.03204599649 -0.03299638332 6.879125301e-20 0.03059870482 7.427938175e-22 0.001447291673)
(-0.02818335216 -0.03101001857 2.205402823e-19 0.02686720282 -1.325545401e-20 0.001316149335)
(-0.02470735917 -0.02924653074 3.4767046e-19 0.02355398475 5.292174145e-20 0.001153374416)
(-0.02162744889 -0.02771140244 5.854438306e-19 0.02066974798 -4.624259384e-21 0.0009577009058)
(-0.01896306803 -0.02642145323 4.411175433e-19 0.01823506983 3.851377278e-19 0.000727998204)
(-0.01673313945 -0.02538817938 4.160732869e-19 0.01626968089 2.823670142e-19 0.0004634585575)
(-0.01499579779 -0.02460471853 -1.076938739e-19 0.01483214213 -3.896481838e-20 0.0001636556661)
(-0.1638390552 -0.07180882966 -1.159301413e-20 0.1637061777 -4.187766502e-21 0.0001328775043)
(-0.1503098396 -0.07981520124 -8.171975378e-20 0.1499479559 -1.709615705e-20 0.0003618836862)
(-0.1374219571 -0.08258472551 -3.522222683e-20 0.1368542355 -7.741247549e-20 0.0005677215432)
(-0.1253790791 -0.08228975591 7.364332421e-20 0.1246257008 -1.03262884e-19 0.0007533782788)
(-0.114231708 -0.0802081027 1.792417743e-19 0.1133108148 -6.178213131e-20 0.000920893236)
(-0.1039467553 -0.07710375278 1.14354647e-19 0.1028754809 9.775144687e-20 0.001071274418)
(-0.09446849719 -0.07344603553 -1.666207946e-20 0.09326333317 -1.015952519e-20 0.001205164015)
(-0.08572481236 -0.06952459814 1.779099792e-20 0.08440223954 -1.14988139e-19 0.001322572818)
(-0.07764992317 -0.06552141364 2.90280899e-20 0.07622665521 1.22668945e-19 0.001423267959)
(-0.07017836609 -0.06155080571 7.832704843e-20 0.06867174991 2.915401391e-20 0.001506616181)
(-0.0632560664 -0.05768424422 8.694038943e-20 0.06168422565 7.570985049e-20 0.001571840745)
(-0.05683343216 -0.05396791001 2.345826425e-19 0.05521559235 1.083174689e-19 0.001617839811)
(-0.05087130111 -0.05042908421 1.087193605e-19 0.04922785679 1.558757054e-19 0.001643444318)
(-0.04533577503 -0.04708751704 -5.38157997e-20 0.04368854791 5.912886272e-20 0.001647227118)
(-0.04020145011 -0.04395310805 5.823247236e-20 0.03857368432 5.456071207e-20 0.001627765796)
(-0.03544844473 -0.04103673643 5.650137805e-20 0.03386499476 4.587898449e-20 0.00158344997)
(-0.03106360555 -0.0383425111 -6.948566527e-20 0.02955084629 -4.289874038e-20 0.001512759253)
(-0.0270397033 -0.03588040913 1.21229472e-19 0.0256256304 -8.458013233e-20 0.001414072896)
(-0.02337479669 -0.03365413723 1.400310284e-19 0.02208886109 -1.19490172e-19 0.001285935604)
(-0.02007360417 -0.03167684197 2.563837641e-22 0.01894671013 -1.118815006e-19 0.001126894037)
(-0.01714501089 -0.02995465531 3.528422155e-19 0.01620929785 -3.550446654e-22 0.0009357130447)
(-0.01460615365 -0.02850600311 8.865985813e-19 0.01389486656 -4.232213648e-20 0.0007112870879)
(-0.01247468286 -0.0273436768 6.439780006e-19 0.0120218593 -3.261190551e-19 0.0004528235585)
(-0.01081331176 -0.02646245971 3.124317204e-20 0.0106534086 -1.76831279e-19 0.0001599031631)
(-0.1597519531 -0.08083923758 4.809073094e-20 0.1596226325 -8.780895425e-20 0.0001293206123)
(-0.1438922513 -0.08844593709 -7.582249096e-20 0.1435400522 -9.494396058e-20 0.0003521991113)
(-0.1297112196 -0.09071255956 -2.309393813e-20 0.129158688 -1.974288345e-19 0.0005525315073)
(-0.1170100752 -0.08987513503 -6.843070972e-21 0.1162768501 5.078830136e-20 0.0007332250773)
(-0.1055984857 -0.08724586344 1.771630794e-19 0.1047022173 2.723294868e-20 0.000896268423)
(-0.09529570001 -0.08360651307 2.06150274e-19 0.09425306125 2.419897395e-20 0.00104263876)
(-0.08595317722 -0.07943577276 -1.300570503e-20 0.08478021364 -4.032398289e-20 0.001172963585)
(-0.07743932979 -0.0750274144 -1.867723216e-20 0.07615207776 2.062416833e-21 0.001287252035)
(-0.06964982278 -0.0705651015 1.453996273e-19 0.06826454657 1.005301624e-19 0.001385276206)
(-0.06249357157 -0.06616316509 6.69020492e-20 0.06102715304 1.687359519e-19 0.001466418535)
(-0.05589973138 -0.06189251026 2.188204502e-20 0.05436980943 4.931452553e-20 0.001529921948)
(-0.04980704141 -0.05779832138 1.602965656e-19 0.04823232881 7.516373506e-20 0.001574712598)
(-0.0441688904 -0.05390686801 2.77233585e-19 0.04256923958 1.155732275e-19 0.001599650826)
(-0.03894568691 -0.05023693572 8.450069358e-20 0.03734234076 7.933390502e-20 0.001603346146)
(-0.03410871041 -0.04679758407 1.165733825e-19 0.03252429801 1.509624441e-19 0.001584412398)
(-0.02963490715 -0.04359912357 3.75328058e-20 0.02809362589 1.134818836e-19 0.001541281255)
(-0.02550963319 -0.04064521813 -1.232730318e-19 0.02403716027 3.174775916e-20 0.001472472915)
(-0.02172339998 -0.03794581232 -2.444997888e-19 0.02034698944 1.251494299e-19 0.001376410544)
(-0.01827350679 -0.03550465472 3.445725538e-20 0.01702182673 2.146497112e-19 0.001251680059)
(-0.01516250493 -0.03333546662 1.843097289e-19 0.01406563573 2.38785003e-19 0.0010968692)
(-0.01239868724 -0.03144495473 9.70387658e-20 0.01148790943 2.349574533e-19 0.0009107778068)
(-0.009996728427 -0.02985278679 -4.517641366e-20 0.009304398432 -5.468852543e-20 0.000692329995)
(-0.0079729087 -0.02857287159 4.280840871e-19 0.007532156383 -2.572064425e-19 0.0004407523169)
(-0.006394635179 -0.02760263184 2.974605126e-19 0.006238996842 -3.365982383e-19 0.000155638337)
(-0.1551685393 -0.08966020179 8.954995011e-20 0.1550431809 -7.892872604e-20 0.0001253583647)
(-0.1369676124 -0.09641376136 -3.622941487e-21 0.1366262021 -1.800668258e-19 0.0003414102603)
(-0.1215011739 -0.09790911087 -7.914784991e-20 0.1209655659 -7.652500036e-21 0.0005356080217)
(-0.108159662 -0.0963755544 5.326534709e-20 0.1074488918 1.45963711e-19 0.0007107702044)
(-0.09650711378 -0.09311732797 9.407158505e-20 0.09563828566 3.650612598e-20 0.0008688281142)
(-0.08621233408 -0.08890781383 2.408095182e-19 0.08520160864 -3.840674076e-20 0.001010725432)
(-0.07703230727 -0.084218501 4.460394648e-20 0.07589523419 -4.768299592e-20 0.001137073081)
(-0.06877500958 -0.07933656468 1.986189251e-21 0.06752713068 2.882121416e-20 0.001247878898)
(-0.06129696979 -0.07444034724 1.635101979e-19 0.059954049 1.101430567e-19 0.001342920793)
(-0.05448115401 -0.06963946007 1.369811275e-19 0.05305955465 1.345864159e-19 0.001421599362)
(-0.04823976006 -0.06500111365 -1.678293907e-20 0.04675658039 4.472540422e-20 0.001483179676)
(-0.04249975877 -0.06056728041 1.881781571e-19 0.040973139 1.090160593e-19 0.00152661977)
(-0.03720704443 -0.05636178008 3.13009296e-19 0.03565623158 -3.439298498e-20 0.001550812855)
(-0.0323163086 -0.05240132154 2.227903208e-19 0.03076189879 -1.675675433e-19 0.001554409817)
(-0.02779551429 -0.04869345852 2.795173963e-19 0.02625944946 -8.082017579e-20 0.001536064835)
(-0.02361842525 -0.0452473094 1.856472958e-19 0.02212416881 -9.242899415e-20 0.001494256439)
(-0.01976891182 -0.04206578816 6.16886516e-20 0.01834136195 -4.011384021e-20 0.001427549867)
(-0.01623520122 -0.03915838392 2.715018481e-19 0.01490078471 -3.32191572e-20 0.00133441651)
(-0.01301382338 -0.03652874589 -6.039362219e-20 0.01180033537 2.331107546e-19 0.001213488008)
(-0.01010510779 -0.03419079965 -9.032240311e-21 0.009041710678 1.813248153e-19 0.001063397112)
(-0.007516719129 -0.03215174872 1.676388549e-19 0.006633736438 3.132170663e-19 0.0008829826909)
(-0.005260778391 -0.03043212157 -1.698254352e-19 0.004589576524 2.737113542e-19 0.0006712018672)
(-0.003352123519 -0.02904675888 -4.347808028e-19 0.002924820972 -2.140710028e-19 0.0004273025469)
(-0.001862786889 -0.02799674769 1.692818701e-19 0.001711896411 -1.100765404e-19 0.0001508904782)
(-0.1500956204 -0.09824439464 3.645271698e-20 0.1499746172 -4.855027603e-21 0.0001210032208)
(-0.1296229065 -0.1036899407 -5.526931213e-21 0.1292933553 -5.10247164e-20 0.0003295511401)
(-0.112927129 -0.1041455867 -6.536053192e-20 0.1124101243 1.770200502e-19 0.0005170047042)
(-0.09899165886 -0.1017629242 4.844779565e-20 0.09830557392 7.911820303e-20 0.0006860849397)
(-0.08713735777 -0.09779553312 2.334834366e-20 0.08629869803 3.268253407e-21 0.000838659734)
(-0.07688429832 -0.09298204249 2.692237434e-19 0.07590866203 -1.117658713e-19 0.00097563629)
(-0.06789618156 -0.08777006237 1.501382304e-19 0.06679857423 -8.473523801e-20 0.001097607329)
(-0.0599214284 -0.08242937647 1.591062756e-19 0.05871684896 -1.268557157e-19 0.001204579436)
(-0.05277806614 -0.07712595052 3.170323742e-19 0.05148172867 -4.172200691e-20 0.001296337474)
(-0.04632360448 -0.07195992213 3.501871209e-19 0.04495130229 -9.216576011e-20 0.001372302194)
(-0.04045364313 -0.06699166163 3.373155002e-20 0.03902187948 -3.412333034e-20 0.001431763645)
(-0.03508367264 -0.06225770415 3.428087308e-20 0.03360995761 1.446732627e-20 0.001473715031)
(-0.03015230152 -0.05777797626 9.556969979e-20 0.02865521522 -7.605738167e-20 0.001497086302)
(-0.02560867615 -0.05356599455 2.620274959e-20 0.02410810249 -9.034278775e-20 0.001500573662)
(-0.02141756204 -0.04962713965 8.592426112e-20 0.01993468636 1.928001562e-19 0.001482875673)
(-0.01754963963 -0.045968713 6.505795141e-20 0.01610711745 1.848105787e-19 0.001442522174)
(-0.0139873528 -0.04259257279 -9.707911925e-20 0.01260922563 -6.383262614e-20 0.001378127172)
(-0.01071669303 -0.03950732854 1.12234588e-19 0.009428477588 -1.936027758e-20 0.001288215446)
(-0.007733435765 -0.03671638727 4.980339992e-19 0.006561967598 3.636924092e-19 0.001171468167)
(-0.005035697088 -0.03423350562 2.562466723e-19 0.004009128757 2.104299143e-19 0.001026568332)
(-0.00263049082 -0.03206630226 6.224320427e-19 0.001778093167 6.374620426e-20 0.0008523976535)
(-0.0005273546998 -0.03023577907 2.193242603e-19 -0.0001205951961 -4.424841008e-19 0.0006479498959)
(0.00126035708 -0.02875751708 -4.828565753e-19 -0.00167285457 -4.517394583e-19 0.0004124974896)
(0.002656239561 -0.02763728865 -9.061832e-20 -0.002801900311 2.668645129e-20 0.0001456607496)
(-0.1445415851 -0.1065639504 2.087766413e-20 0.1444253163 5.562956004e-20 0.0001162688467)
(-0.1219461317 -0.1102588915 -8.703223938e-21 0.1216294725 7.393847205e-20 0.0003166591171)
(-0.1041250221 -0.1094146412 -5.255610337e-20 0.1036282418 1.79974041e-19 0.0004967803091)
(-0.08967024065 -0.1060355422 4.227407259e-20 0.08901099327 1.112676399e-20 0.0006592473758)
(-0.07766914355 -0.1012827118 -6.489012287e-20 0.07686328479 -5.111516508e-20 0.0008058587657)
(-0.06749924994 -0.09583421886 1.102624571e-19 0.06656176745 -5.517521557e-20 0.0009374824929)
(-0.05873500256 -0.09009747622 1.093725356e-19 0.05768031131 -8.311193715e-20 0.001054691249)
(-0.05106798843 -0.08431432269 -6.478127747e-20 0.04991049778 -6.874121922e-20 0.001157490649)
(-0.04427957406 -0.07863145261 1.407232003e-19 0.04303390078 2.496878527e-21 0.001245673274)
(-0.03820312281 -0.07313488904 3.159577568e-19 0.03688444052 3.809586866e-21 0.001318682284)
(-0.03271853742 -0.067875093 2.892102754e-19 0.03134270239 -1.753798179e-20 0.001375835023)
(-0.02773050266 -0.06288099384 1.213267662e-19 0.02631433913 8.882081775e-20 0.001416163529)
(-0.0231708011 -0.05816721929 8.018530481e-20 0.02173216322 8.478236103e-20 0.001438637882)
(-0.01898340167 -0.05374300824 2.278680116e-19 0.01754139755 8.296247958e-20 0.001442004122)
(-0.0151301088 -0.04961092001 4.298868293e-19 0.01370509946 2.685055646e-19 0.001425009335)
(-0.01157872879 -0.04577583093 3.215771278e-19 0.01019248965 -1.826235147e-19 0.00138623914)
(-0.008310392203 -0.04223824707 -8.417605244e-20 0.006986031465 -3.2330845e-19 0.001324360738)
(-0.005308975907 -0.03900548365 1.30186359e-19 0.004071019865 3.323166003e-20 0.001237956042)
(-0.002569539194 -0.03608056712 5.711830718e-19 0.001443779212 -1.038878821e-19 0.001125759982)
(-8.805470876e-05 -0.03347671828 1.45072592e-19 -0.0008984544785 -3.992407116e-19 0.0009865091873)
(0.002129126104 -0.03120189007 -3.589271536e-21 -0.002948257893 -4.814039157e-19 0.0008191317891)
(0.004075015869 -0.02927717414 2.015505921e-19 -0.004697677312 -6.193101157e-19 0.0006226614434)
(0.005737759664 -0.02771870171 -2.546432595e-19 -0.006134156715 -7.725147251e-20 0.0003963970511)
(0.007037022311 -0.02653792034 4.539764141e-20 -0.007176997258 1.830062523e-19 0.0001399749473)
(-0.1385165819 -0.1145905799 1.443629643e-20 0.1384054116 8.271392669e-20 0.00011117033)
(-0.114024189 -0.1161180196 5.254790073e-20 0.1137214138 7.147500904e-20 0.0003027751714)
(-0.095227911 -0.1137300484 -5.044395479e-20 0.0947529117 1.453822054e-19 0.0004749993)
(-0.08035559825 -0.1092176642 9.424322384e-20 0.07972525501 -1.160748634e-19 0.0006303432387)
(-0.06827774118 -0.103609803 -5.446106371e-20 0.06750721083 -6.984660792e-20 0.0007705303442)
(-0.05823980126 -0.09749947071 2.271580661e-20 0.05734341459 5.058759711e-20 0.0008963866686)
(-0.04973372433 -0.09123839949 1.625845863e-19 0.04872526106 -1.127678877e-20 0.001008463278)
(-0.0423987618 -0.0850304775 4.260301031e-20 0.04129199698 2.470707086e-20 0.00110676482)
(-0.03598262531 -0.07899659642 1.025162893e-20 0.03479153273 1.283844314e-19 0.00119109258)
(-0.03029662972 -0.07320427329 9.897362856e-20 0.02903571582 1.36363698e-19 0.001260913907)
(-0.02520640578 -0.06769115884 1.952289461e-19 0.0238908298 2.314096416e-20 0.001315575979)
(-0.02060687869 -0.06247652914 2.803232122e-19 0.01925272607 7.336827291e-20 0.001354152628)
(-0.01642370779 -0.05756838801 2.305222213e-19 0.01504805021 -2.047821142e-19 0.001375657573)
(-0.01259623957 -0.05297067406 -4.090998984e-20 0.01121734915 -5.247889411e-20 0.001378890419)
(-0.009083667321 -0.04868251577 3.410911384e-19 0.007721016652 -2.06755081e-19 0.001362650669)
(-0.005851237417 -0.04470579186 1.106342879e-19 0.004525652983 -3.884081728e-19 0.001325584434)
(-0.002878932686 -0.04103937738 2.52103238e-20 0.001612516598 -2.052935146e-19 0.001266416087)
(-0.0001487074485 -0.03768890163 -8.906598717e-20 -0.001035082641 -6.625594423e-20 0.00118379009)
(0.002345032833 -0.03465687855 1.367004377e-19 -0.003421531663 4.935289884e-20 0.00107649883)
(0.004608328578 -0.03195564431 2.756809604e-19 -0.005551665755 -1.613443248e-19 0.0009433371772)
(0.006635489817 -0.02959340646 -9.03503668e-20 -0.007418772391 1.063769642e-21 0.0007832825736)
(0.008421986452 -0.02759097777 -3.197629718e-20 -0.009017397492 8.818651836e-22 0.00059541104)
(0.009957448327 -0.02596485334 -2.426925621e-20 -0.01033649794 3.471329226e-19 0.000379049614)
(0.01115822665 -0.02473307854 3.217503312e-21 -0.01129207646 -1.316204812e-20 0.0001338498039)
(-0.1320327024 -0.122295718 1.294630721e-20 0.1319269787 6.445413152e-20 0.0001057237067)