/*--------------------------------*- C++ -*----------------------------------*\
| =========                 |                                                 |
| \\      /  F ield         | foam-extend: Open Source CFD                    |
|  \\    /   O peration     | Version:  3.0                                   |
|   \\  /    A nd           | Web:         http://www.extend-project.de       |
|    \\/     M anipulation  |                                                 |
\*---------------------------------------------------------------------------*/
FoamFile
{
    version     2.0;
    format      ascii;
    class       volScalarField;
    location    "14";
    object      p;
}
// * * * * * * * * * * * * * * * * * * * * * * * * * * * * * * * * * * * * * //

dimensions      [0 0 0 0 0 0 0];

internalField   nonuniform List<scalar> 
576
(
-6.69842
-6.72222
-5.28277
-5.25251
-4.566
-4.49543
-4.27373
-4.10902
-4.23631
-4.01271
-4.28501
-4.22176
-6.58186
-6.60582
-5.19111
-5.16211
-4.48744
-4.41833
-4.20058
-4.03881
-4.16398
-3.94437
-4.21203
-4.14987
-6.35692
-6.37938
-5.01341
-4.98465
-4.33323
-4.26639
-4.05578
-3.89968
-4.02039
-3.80824
-4.0667
-4.00667
-6.019
-6.04086
-4.74718
-4.72059
-4.10374
-4.04055
-3.84134
-3.69351
-3.80795
-3.60708
-3.85187
-3.79503
-5.58203
-5.6016
-4.40239
-4.37698
-3.80516
-3.74638
-3.56155
-3.42445
-3.5305
-3.34418
-3.57116
-3.51844
-5.04585
-5.0641
-3.97995
-3.95731
-3.44045
-3.38742
-3.2204
-3.09653
-3.19245
-3.02404
-3.22927
-3.18161
-4.42685
-4.44216
-3.49125
-3.47106
-3.01768
-2.97107
-2.82453
-2.71585
-2.79997
-2.65224
-2.83223
-2.79042
-3.7289
-3.74233
-2.94132
-2.9245
-2.54258
-2.50343
-2.37999
-2.28848
-2.35938
-2.23495
-2.3866
-2.35139
-2.96986
-2.98009
-2.34224
-2.32871
-2.02456
-1.99334
-1.89504
-1.82216
-1.87858
-1.77955
-1.90024
-1.87223
-2.1579
-2.16557
-1.70215
-1.69242
-1.47144
-1.44881
-1.37741
-1.32448
-1.36547
-1.29359
-1.38126
-1.36094
-1.31051
-1.31496
-1.03364
-1.02768
-0.89352
-0.87977
-0.836408
-0.804311
-0.829121
-0.785607
-0.838725
-0.826437
-0.439722
-0.441156
-0.346955
-0.344958
-0.300034
-0.295473
-0.280933
-0.270269
-0.278485
-0.264108
-0.281784
-0.277745
0.438007
0.439769
0.345334
0.343415
0.298399
0.29373
0.27925
0.268306
0.276855
0.261857
0.27994
0.275664
1.30856
1.31343
1.03191
1.02607
0.891852
0.877988
0.834733
0.802338
0.827499
0.783373
0.836894
0.824375
2.15656
2.16448
1.70073
1.69108
1.46999
1.44716
1.3759
1.32261
1.36396
1.29147
1.37952
1.35897
2.96774
2.97857
2.3405
2.32719
2.02301
1.9916
1.89355
1.82026
1.8771
1.77748
1.89854
1.87032
3.72812
3.74166
2.94021
2.92346
2.54141
2.50194
2.3788
2.28676
2.35811
2.23307
2.38507
2.34967
4.42472
4.44075
3.48963
3.46971
3.01635
2.96948
2.82335
2.71414
2.79878
2.65046
2.8308
2.78881
5.04561
5.06384
3.97933
3.9566
3.43967
3.3862
3.2196
3.09508
3.19156
3.0225
3.22809
3.18024
5.58018
5.60029
4.40096
4.37578
3.80414
3.74499
3.56075
3.42306
3.52973
3.34283
3.57015
3.51725
6.01927
6.04092
4.74728
4.72008
4.10352
4.03969
3.84098
3.69248
3.8075
3.60596
3.85112
3.79408
6.35537
6.37818
5.01238
4.98363
4.3327
4.26528
4.0555
3.89871
4.02013
3.8074
4.0662
4.006
6.58273
6.60631
5.19172
5.1619
4.48774
4.41789
4.20062
4.03824
4.16397
3.94369
4.2117
4.14937
6.69746
6.7214
5.28223
5.25185
4.566
4.4949
4.27387
4.10868
4.23657
4.0125
4.28515
4.22175
6.69759
6.72149
5.28236
5.25195
4.56613
4.49501
4.274
4.10882
4.23668
4.01267
4.28527
4.2219
6.58313
6.60658
5.19211
5.16218
4.48814
4.41821
4.20099
4.03865
4.1643
3.94417
4.21208
4.14981
6.35603
6.37862
5.01302
4.98408
4.33336
4.26581
4.05611
3.89939
4.02067
3.8082
4.06681
4.00671
6.02018
6.04153
4.74816
4.72071
4.10443
4.04043
3.84184
3.69341
3.80825
3.60706
3.85197
3.79507
5.58133
5.60106
4.40206
4.37657
3.80528
3.74591
3.56182
3.42423
3.53067
3.34421
3.57122
3.51849
5.04697
5.06476
3.98065
3.95754
3.44102
3.3873
3.22087
3.09647
3.19268
3.02414
3.22937
3.18171
4.42627
4.4418
3.49112
3.4708
3.01789
2.97074
2.82481
2.71572
2.80007
2.65233
2.83226
2.79049
3.72983
3.74284
2.94187
2.92467
2.54313
2.50334
2.38042
2.28851
2.35954
2.23514
2.38669
2.35153
2.96957
2.97985
2.34228
2.32851
2.02485
1.99312
1.8953
1.82215
1.87865
1.7797
1.90029
1.87233
2.1585
2.16586
1.70261
1.69249
1.47193
1.44878
1.37775
1.3246
1.36561
1.29381
1.38137
1.3611
1.31053
1.31485
1.03384
1.02754
0.893843
0.879678
0.836645
0.804399
0.829215
0.78579
0.838822
0.826577
0.440061
0.441284
0.347325
0.344968
0.300425
0.295487
0.281196
0.270413
0.278615
0.264311
0.28191
0.277908
-0.437803
-0.439728
-0.34503
-0.343435
-0.298055
-0.293701
-0.279009
-0.268159
-0.276715
-0.261663
-0.279802
-0.275497
-1.30839
-1.31337
-1.03163
-1.02607
-0.891543
-0.877952
-0.834517
-0.802206
-0.827362
-0.783204
-0.836757
-0.824215
-2.15627
-2.1643
-1.70037
-1.69099
-1.46961
-1.44705
-1.37561
-1.32243
-1.36375
-1.29127
-1.37933
-1.35878
-2.96766
-2.97852
-2.34027
-2.3272
-2.02273
-1.99156
-1.89334
-1.82016
-1.87693
-1.77735
-1.89838
-1.87017
-3.72787
-3.74136
-2.93986
-2.92329
-2.541
-2.50179
-2.37844
-2.28656
-2.3578
-2.23287
-2.38479
-2.34943
-4.42453
-4.44063
-3.48933
-3.46974
-3.01603
-2.96946
-2.82311
-2.71408
-2.79856
-2.6504
-2.83059
-2.78867
-5.04558
-5.0635
-3.97916
-3.95638
-3.43929
-3.38606
-3.21919
-3.0949
-3.19114
-3.02233
-3.22769
-3.17995
-5.5797
-5.60002
-4.40042
-4.37583
-3.80371
-3.74505
-3.56048
-3.42313
-3.52951
-3.34291
-3.56998
-3.51719
-6.0195
-6.04071
-4.74742
-4.71998
-4.1033
-4.03968
-3.84063
-3.69243
-3.80709
-3.60589
-3.85079
-3.79385
-6.35457
-6.37766
-5.01157
-4.9836
-4.33218
-4.26536
-4.05522
-3.89891
-4.01993
-3.80762
-4.06616
-4.00603
-6.58321
-6.6065
-5.19202
-5.16205
-4.48757
-4.41805
-4.20027
-4.03829
-4.16356
-3.9437
-4.2113
-4.14917
-6.69638
-6.72053
-5.28133
-5.2516
-4.5654
-4.49484
-4.27358
-4.10883
-4.23625
-4.01281
-4.28498
-4.22182
)
;

boundaryField
{
    out
    {
        type            implicitExtrapolation;
    }
    in
    {
        type            implicitExtrapolation;
    }
    frontAndBack
    {
        type            empty;
    }
}


// ************************************************************************* //
