/*--------------------------------*- C++ -*----------------------------------*\
| =========                 |                                                 |
| \\      /  F ield         | foam-extend: Open Source CFD                    |
|  \\    /   O peration     | Version:  3.0                                   |
|   \\  /    A nd           | Web:         http://www.extend-project.de       |
|    \\/     M anipulation  |                                                 |
\*---------------------------------------------------------------------------*/
FoamFile
{
    version     2.0;
    format      ascii;
    class       volSymmTensorField;
    location    "14";
    object      sigma;
}
// * * * * * * * * * * * * * * * * * * * * * * * * * * * * * * * * * * * * * //

dimensions      [0 0 0 0 0 0 0];

internalField   nonuniform List<symmTensor> 
576
(
(1.94874 -0.0551413 2.67242e-18 -1.81199 2.64978e-18 3.90129e-36)
(1.98703 0.142508 7.70443e-18 -1.84601 -2.90439e-17 -1.46625e-34)
(2.27284 0.216594 6.249e-19 -2.1797 -1.45881e-17 -1.62035e-35)
(2.06511 0.233102 -1.22925e-18 -1.93431 -5.2637e-18 1.41389e-35)
(1.86211 0.233206 8.51828e-18 -1.79987 -2.50052e-18 2.26817e-35)
(1.64343 0.216069 6.4086e-18 -1.50167 -8.0037e-20 4.10314e-36)
(1.32051 0.195277 -9.55348e-18 -1.2898 -4.05156e-18 -1.33931e-35)
(1.17641 0.17779 -1.39837e-17 -1.01609 2.16722e-17 -1.69827e-34)
(0.812352 0.148061 -2.04418e-17 -0.783868 1.21206e-17 -1.15193e-34)
(0.695512 0.135166 -1.33606e-17 -0.555622 5.7753e-18 -1.31347e-35)
(0.381961 0.104272 3.80104e-19 -0.309917 -1.11412e-17 5.49422e-35)
(0.220008 0.093719 -1.16647e-17 -0.119768 -1.14117e-17 -5.82973e-36)
(2.09685 -0.130339 -1.6488e-17 -1.96208 -1.01292e-17 -8.5499e-35)
(1.9362 0.420847 -4.17193e-17 -1.79756 2.2393e-17 3.57283e-34)
(2.16272 0.631366 -5.10701e-18 -2.0708 1.17532e-17 2.07958e-34)
(1.92619 0.674747 6.32385e-19 -1.7978 -1.26391e-17 -1.69526e-35)
(1.71561 0.672758 1.39858e-17 -1.6544 -1.45644e-17 -1.38658e-35)
(1.50069 0.62207 -1.06565e-17 -1.36116 1.27991e-17 0)
(1.18661 0.560696 -1.97916e-17 -1.15652 3.98097e-17 -4.07541e-34)
(1.04878 0.509398 4.09862e-17 -0.89113 7.83573e-18 1.81012e-34)
(0.701242 0.422833 2.58095e-17 -0.673313 1.71915e-17 3.80599e-34)
(0.587962 0.384746 1.58891e-17 -0.45053 -1.52185e-19 -4.20783e-34)
(0.292493 0.295206 -2.84589e-17 -0.22171 1.50071e-18 -2.6375e-34)
(0.132221 0.263606 -2.9555e-17 -0.0337509 2.71712e-17 4.00636e-34)
(2.36305 -0.100358 3.42541e-18 -2.23325 4.65454e-18 -7.1526e-35)
(1.83789 0.683012 1.83156e-17 -1.70418 1.00969e-17 -4.04023e-35)
(1.95483 0.99498 -2.15864e-17 -1.8663 -1.64492e-17 -2.50267e-34)
(1.66695 1.04645 -4.53496e-17 -1.54296 3.96543e-17 -3.90597e-34)
(1.4424 1.03608 -2.02695e-17 -1.38339 7.8015e-18 2.22391e-34)
(1.23501 0.95251 3.5301e-17 -1.10039 1.30239e-17 -1.21555e-34)
(0.937988 0.85351 8.20486e-17 -0.909011 -2.36162e-17 9.74983e-34)
(0.811945 0.771413 6.07463e-18 -0.659756 8.93044e-18 9.36659e-35)
(0.495662 0.635246 7.68712e-17 -0.468766 -8.82526e-18 1.37973e-33)
(0.389189 0.573563 3.08207e-17 -0.256536 3.1739e-18 9.07362e-34)
(0.127625 0.434054 -1.59917e-17 -0.0593205 3.02127e-17 -8.58292e-34)
(-0.0291077 0.381438 4.3973e-17 0.124148 3.50924e-17 1.0794e-33)
(2.6923 0.0852794 2.41394e-18 -2.56903 3.0758e-18 0)
(1.69903 0.918769 -7.33619e-19 -1.57224 -2.47609e-17 0)
(1.67321 1.28112 -3.70769e-17 -1.58931 5.19259e-17 3.01093e-34)
(1.32047 1.31242 8.0322e-17 -1.20303 -4.13088e-17 4.68662e-34)
(1.07959 1.28422 -3.83123e-17 -1.02372 1.41429e-17 -4.1287e-34)
(0.883261 1.16945 4.74496e-17 -0.755783 -3.23978e-17 7.56549e-34)
(0.610171 1.03725 -3.90589e-17 -0.582745 7.34483e-18 -9.95363e-34)
(0.500265 0.929001 9.83936e-17 -0.356173 -5.30366e-17 2.63752e-34)
(0.226493 0.754365 4.1383e-17 -0.201038 -6.72485e-17 -2.09578e-33)
(0.1295 0.671427 1.63219e-17 -0.00389069 -2.34099e-17 -6.63796e-34)
(-0.0864472 0.495127 4.45602e-17 0.151127 2.48113e-18 -3.93897e-34)
(-0.237577 0.421419 1.01409e-16 0.327563 -1.03418e-16 -1.14591e-34)
(3.01093 0.451226 -9.09172e-18 -2.89692 4.30396e-19 0)
(1.5274 1.12217 -3.16417e-17 -1.40996 2.57417e-17 7.81095e-35)
(1.34867 1.47387 4.05927e-17 -1.27079 -1.84582e-17 -3.92191e-34)
(0.930906 1.45259 -4.45157e-17 -0.822052 1.86162e-17 -4.72054e-34)
(0.67544 1.39575 7.5419e-17 -0.623597 -5.31767e-17 -6.4011e-34)
(0.493591 1.25168 -8.29267e-17 -0.375411 -2.53954e-18 3.18412e-34)
(0.249801 1.09192 -1.46321e-17 -0.224393 -3.64986e-17 0)
(0.158644 0.963142 -1.19673e-16 -0.0250745 -2.06053e-17 1.52212e-33)
(-0.0658924 0.763325 -1.13516e-16 0.0894614 2.20659e-17 2.61251e-33)
(-0.151438 0.662093 -7.50885e-17 0.267834 -9.38832e-18 5.22327e-35)
(-0.315568 0.464737 1.73771e-17 0.375495 -5.4421e-17 -1.46464e-33)
(-0.458727 0.370148 -1.33815e-16 0.542108 -1.82909e-18 1.14591e-34)
(3.24268 0.991194 3.47e-18 -3.13935 1.11947e-17 0)
(1.33323 1.28973 2.72432e-17 -1.22697 -1.45516e-17 1.27751e-34)
(1.0152 1.5701 -1.376e-17 -0.944803 -1.13039e-17 -8.3339e-35)
(0.545862 1.46452 -1.01695e-17 -0.447492 3.25029e-18 0)
(0.282523 1.36868 -5.8488e-17 -0.235658 2.31293e-17 2.44583e-34)
(0.118199 1.19784 2.15183e-17 -0.0114103 -1.90075e-17 -2.01195e-34)
(-0.0927641 1.01653 -1.21909e-16 0.115706 6.26848e-17 7.07767e-34)
(-0.164354 0.873201 1.48745e-16 0.285064 -1.097e-17 -2.11326e-33)
(-0.337854 0.661947 1.96216e-17 0.359136 -2.01602e-17 -1.89646e-33)
(-0.410784 0.545695 -6.74317e-17 0.515976 4.9191e-17 1.32154e-33)
(-0.522801 0.343375 7.74012e-18 0.576965 2.12207e-17 0)
(-0.655312 0.228442 -1.39368e-17 0.730677 4.34392e-17 0)
(3.31545 1.66814 3.25198e-18 -3.2249 4.50533e-18 0)
(1.12565 1.42087 -1.58528e-17 -1.03251 4.6634e-17 -5.75838e-34)
(0.70491 1.57882 1.01842e-16 -0.643067 -3.77467e-17 1.91219e-33)
(0.21013 1.36371 -1.52338e-17 -0.123871 -2.15888e-17 0)
(-0.0501983 1.22091 4.19306e-17 0.0913192 -1.7473e-17 -8.26674e-35)
(-0.194198 1.02627 -5.3917e-17 0.287841 2.02114e-17 6.80018e-35)
(-0.370627 0.829345 1.32487e-16 0.39073 -1.35125e-17 5.26982e-34)
(-0.423582 0.677125 1.10685e-16 0.529389 -3.12275e-17 2.44295e-34)
(-0.548936 0.466801 -1.6799e-16 0.567584 3.41021e-17 -1.55083e-33)
(-0.608884 0.338827 4.36461e-17 0.701056 1.42579e-17 -3.28888e-34)
(-0.674091 0.145782 -1.36745e-17 0.721556 -1.98824e-17 0)
(-0.793079 0.0115514 -1.76572e-17 0.859118 3.49427e-17 0)
(3.17792 2.41972 4.09502e-18 -3.10163 5.50349e-18 0)
(0.912973 1.51839 5.82675e-17 -0.834494 -1.98488e-18 4.23219e-34)
(0.442949 1.52015 -4.10964e-17 -0.39086 -1.16201e-17 -1.62876e-33)
(-0.0416351 1.18101 -6.06982e-17 0.114271 3.29869e-17 4.13593e-37)
(-0.284895 0.98728 1.85136e-17 0.319507 -1.1863e-17 4.02672e-37)
(-0.406126 0.772156 1.58632e-17 0.484986 -4.5708e-17 1.91807e-34)
(-0.547775 0.564859 2.06514e-17 0.564681 1.11408e-17 0)
(-0.584395 0.408491 -7.73151e-17 0.673475 -2.55763e-17 -4.14666e-34)
(-0.668185 0.208542 -1.58386e-16 0.683881 3.30568e-17 3.05932e-33)
(-0.71543 0.0719143 3.7001e-17 0.793012 2.1522e-17 5.601e-34)
(-0.743492 -0.101354 -3.57774e-17 0.783454 8.69092e-18 6.07591e-34)
(-0.846012 -0.253189 9.30208e-17 0.901602 -6.50273e-18 -1.06145e-33)
(2.80407 3.16583 2.21483e-17 -2.74323 -1.38157e-18 6.45006e-35)
(0.701499 1.58647 -3.16172e-17 -0.638995 -6.35855e-18 -4.99197e-35)
(0.244894 1.42122 -6.49304e-17 -0.203389 3.97715e-17 -2.12419e-34)
(-0.189226 0.957501 1.53612e-16 0.247047 -4.51796e-17 8.75356e-34)
(-0.399956 0.71391 -1.4896e-16 0.427487 4.47901e-17 -3.88249e-34)
(-0.496412 0.482009 1.29837e-16 0.559158 -9.02837e-18 9.50195e-34)
(-0.60417 0.268545 7.0902e-17 0.617606 -8.95841e-17 -1.84285e-33)
(-0.62763 0.111459 -1.9278e-16 0.698462 -8.82682e-18 2.36335e-33)
(-0.678745 -0.0726448 -2.93098e-17 0.69123 4.11389e-17 -1.19637e-33)
(-0.714019 -0.215274 -2.87648e-18 0.775685 6.17532e-19 -3.12604e-35)
(-0.717176 -0.36328 1.0225e-17 0.748952 4.25045e-17 -2.19547e-34)
(-0.800379 -0.530326 7.98729e-17 0.844571 -1.7448e-17 1.06145e-33)
(2.20059 3.82195 6.72159e-18 -2.1565 1.32633e-17 0)
(0.494649 1.63086 2.52497e-17 -0.449261 -7.69109e-18 5.52183e-35)
(0.113933 1.31221 5.58249e-17 -0.0838123 1.11015e-18 1.72192e-34)
(-0.23025 0.738179 -1.18823e-16 0.272218 2.75107e-17 -1.0439e-33)
(-0.393506 0.451133 1.18179e-16 0.413446 -1.20389e-17 5.80889e-34)
(-0.463567 0.206398 -4.10778e-17 0.509094 3.68617e-17 -3.31014e-34)
(-0.538879 -0.0102291 -8.48418e-17 0.548597 -8.4082e-18 -6.08773e-34)
(-0.552554 -0.166106 5.71952e-17 0.603912 -1.2331e-17 -5.81908e-34)
(-0.580434 -0.333265 6.25861e-17 0.589481 3.08555e-17 -8.14667e-34)
(-0.604673 -0.479756 5.4229e-17 0.649363 6.14845e-18 3.29894e-35)
(-0.595589 -0.60251 1.68542e-16 0.618623 -2.58692e-17 9.86427e-35)
(-0.656985 -0.78169 -8.41967e-17 0.689012 -2.1233e-18 1.94125e-35)
(1.40543 4.30954 6.88619e-18 -1.37858 -1.84963e-18 0)
(0.293645 1.65673 -4.36514e-17 -0.266029 1.46432e-17 -5.1858e-35)
(0.0416439 1.22114 -5.03796e-17 -0.0233377 -1.58415e-18 -1.07438e-34)
(-0.179605 0.564758 6.51737e-17 0.205057 -9.46795e-18 -4.05376e-35)
(-0.283003 0.245596 -6.19933e-17 0.29506 1.85239e-17 1.9972e-35)
(-0.325534 -0.00781116 1.47564e-17 0.353086 -1.68427e-17 0)
(-0.369924 -0.225763 -4.12739e-17 0.375783 2.83417e-17 -3.70041e-34)
(-0.376793 -0.379907 2.53297e-17 0.407815 2.76674e-17 1.94431e-34)
(-0.389716 -0.533112 -1.62472e-17 0.39518 8.43888e-18 -4.52896e-34)
(-0.403815 -0.681819 -2.23502e-18 0.43078 2.22831e-17 -8.00223e-34)
(-0.393422 -0.78443 -8.35497e-18 0.407327 -2.94485e-17 2.41428e-34)
(-0.431051 -0.972051 3.44177e-17 0.450377 -2.92909e-17 5.83935e-34)
(0.483168 4.56956 1.28834e-18 -0.47424 -1.15734e-17 0)
(0.0969819 1.6685 4.08254e-18 -0.0877193 -9.92399e-18 -5.25022e-35)
(0.00899857 1.16973 -8.59081e-18 -0.00289731 1.83414e-17 -3.63445e-35)
(-0.0673773 0.469336 -1.16182e-17 0.0758128 9.64418e-19 8.40837e-36)
(-0.10271 0.133113 4.03081e-17 0.106639 -1.18441e-17 3.53162e-37)
(-0.116993 -0.12468 -1.16884e-17 0.126059 1.27108e-18 1.04331e-35)
(-0.131574 -0.343031 9.23144e-18 0.133446 3.21667e-18 -6.34241e-37)
(-0.133646 -0.49601 -1.85277e-17 0.143784 5.87395e-18 -1.93901e-34)
(-0.137236 -0.641395 2.55915e-17 0.139001 -2.46947e-18 -9.89968e-35)
(-0.141831 -0.791076 -1.28138e-17 0.150598 2.33764e-18 -1.8499e-34)
(-0.137496 -0.882576 -3.69054e-18 0.14202 4.50475e-19 -2.55933e-34)
(-0.150115 -1.07452 6.86122e-18 0.156397 -9.42839e-18 4.19999e-35)
(-0.483434 4.56959 2.45817e-18 0.474447 8.50758e-18 1.80215e-35)
(-0.0979042 1.6684 2.16087e-17 0.0887516 1.38742e-17 2.86447e-35)
(-0.00950974 1.16967 3.03007e-18 0.00338064 4.18458e-18 3.22615e-35)
(0.066641 0.469259 -8.51783e-18 -0.0753198 2.67683e-20 -4.61835e-35)
(0.102218 0.133063 -1.0275e-17 -0.106438 -7.81355e-18 8.92845e-35)
(0.116413 -0.124748 9.93469e-18 -0.125959 2.44635e-18 1.59959e-35)
(0.131215 -0.343074 -7.62247e-18 -0.133341 -9.73898e-18 8.13177e-36)
(0.133222 -0.496045 -1.68411e-18 -0.144123 -2.12453e-17 1.32907e-34)
(0.136972 -0.641449 -9.71325e-18 -0.138927 -4.1189e-18 1.87039e-34)
(0.141641 -0.79108 -7.72031e-18 -0.151209 9.62286e-18 1.52083e-34)
(0.137323 -0.882617 -8.55472e-19 -0.142252 1.55138e-17 6.06634e-36)
(0.15013 -1.07452 -6.04162e-19 -0.156992 -2.38478e-18 -1.37884e-35)
(-1.40574 4.3098 1.33687e-17 1.3789 -3.06248e-18 -1.97942e-35)
(-0.294503 1.65651 -4.65732e-17 0.267023 -9.99344e-18 3.84197e-34)
(-0.0421008 1.22099 -4.5342e-17 0.0238025 3.53649e-18 4.81112e-35)
(0.178925 0.564548 -2.45303e-17 -0.204613 1.90745e-17 -2.41472e-34)
(0.28256 0.245454 2.48556e-17 -0.294882 2.53693e-18 8.78917e-35)
(0.325015 -0.00800371 9.20137e-18 -0.353033 -3.17047e-17 0)
(0.369601 -0.225887 -7.45536e-17 -0.37571 -2.64168e-17 1.11401e-34)
(0.376414 -0.380007 2.18051e-17 -0.408177 -6.31193e-18 -1.39698e-34)
(0.389501 -0.533265 6.53767e-17 -0.395155 -7.06029e-18 -6.25262e-34)
(0.403651 -0.681832 4.17599e-17 -0.431397 1.90718e-17 -7.63897e-35)
(0.393298 -0.784547 -2.36787e-17 -0.407604 -8.76763e-19 6.33776e-35)
(0.431091 -0.972059 -3.56918e-17 -0.450986 1.30603e-17 1.54617e-34)
(-2.20105 3.82218 -8.65255e-18 2.15687 -2.18663e-17 1.64742e-34)
(-0.495478 1.63045 7.49711e-17 0.450182 9.25499e-18 -6.75069e-34)
(-0.114362 1.31195 5.23621e-17 0.0842462 2.38565e-18 8.47134e-35)
(0.229626 0.737837 -3.59977e-17 -0.271861 -6.43401e-18 3.83901e-34)
(0.393119 0.450901 -1.07711e-16 -0.41331 6.37319e-18 1.45261e-34)
(0.463134 0.206107 -2.06283e-17 -0.509128 -3.45454e-18 -2.96252e-34)
(0.538607 -0.0104217 1.03015e-16 -0.548586 1.17553e-17 9.95167e-35)
(0.552247 -0.166253 -2.88152e-17 -0.604317 -7.80524e-18 1.77169e-34)
(0.580296 -0.33349 4.36408e-17 -0.58955 -6.30308e-19 1.54141e-33)
(0.604548 -0.479768 4.77475e-17 -0.649992 -1.35357e-17 9.81535e-34)
(0.595546 -0.60267 -5.99985e-18 -0.61898 -3.01824e-17 8.67865e-34)
(0.657061 -0.781681 8.23458e-17 -0.689646 2.58139e-17 -9.24069e-34)
(-2.80472 3.16622 1.81662e-18 2.74395 9.14683e-18 0)
(-0.702175 1.58598 -1.00807e-17 0.63981 -1.41752e-17 0)
(-0.245197 1.42091 -6.3315e-17 0.203766 -3.59272e-17 1.0793e-33)
(0.188744 0.957078 1.51239e-16 -0.24682 1.59463e-17 -1.40395e-34)
(0.399699 0.71362 5.11625e-18 -0.427425 2.32332e-17 4.87868e-34)
(0.496119 0.481666 -3.62683e-17 -0.559309 5.16627e-17 4.6529e-34)
(0.603995 0.26831 -1.46311e-16 -0.617682 -2.44785e-17 -1.81646e-33)
(0.627432 0.111296 3.45034e-17 -0.698921 3.34353e-17 1.16384e-33)
(0.678718 -0.0728972 -3.37065e-17 -0.691419 1.37501e-17 6.16754e-34)
(0.71396 -0.21527 1.08741e-17 -0.776327 -5.96005e-17 3.99475e-34)
(0.717245 -0.363442 -1.38783e-18 -0.749409 -2.22914e-17 2.56649e-34)
(0.800519 -0.530294 8.71545e-17 -0.845237 -3.35825e-17 1.40555e-33)
(-3.17871 2.4199 4.34802e-18 3.10239 -9.22543e-18 0)
(-0.913572 1.51772 -8.46464e-18 0.835216 -2.90294e-17 5.31301e-34)
(-0.443211 1.51976 7.33363e-17 0.391184 5.60941e-17 -6.33251e-34)
(0.0412557 1.18053 -1.37516e-16 -0.114172 -2.2315e-17 -4.39211e-34)
(0.284739 0.98696 1.48862e-16 -0.31952 2.7956e-17 -5.23322e-34)
(0.405951 0.771817 -5.11059e-17 -0.48525 8.59904e-18 -1.04091e-34)
(0.547697 0.564618 3.49229e-17 -0.564857 3.39455e-17 0)
(0.584306 0.408356 -7.43836e-17 -0.673986 3.46125e-17 8.88652e-34)
(0.668273 0.208312 -1.70245e-16 -0.684203 -9.84795e-18 -3.26634e-33)
(0.715445 0.0719589 -1.12527e-16 -0.793665 -1.14006e-17 -2.93992e-33)
(0.74367 -0.101463 3.44218e-17 -0.784013 4.64372e-17 1.44179e-33)
(0.846205 -0.253097 -1.7359e-16 -0.902291 -5.09692e-17 -1.40555e-33)
(-3.31662 1.66826 6.86536e-18 3.22606 -1.2652e-17 0)
(-1.12608 1.42017 3.58425e-17 1.03306 1.00155e-17 -2.87177e-34)
(-0.705034 1.57842 3.43582e-17 0.643298 2.8781e-18 -6.84048e-34)
(-0.210337 1.36324 1.52258e-17 0.123824 2.77595e-17 0)
(0.0501909 1.22061 -7.00599e-17 -0.0914351 -2.42441e-17 1.43556e-34)
(0.194158 1.02597 8.95215e-17 -0.288209 1.31262e-17 -1.1809e-34)
(0.370667 0.829131 -7.19275e-17 -0.391009 -4.96367e-17 2.066e-33)
(0.423597 0.677043 1.8032e-16 -0.529936 5.3917e-17 -2.61425e-33)
(0.549128 0.466634 6.85084e-17 -0.568016 3.09869e-17 1.10818e-33)
(0.608971 0.338926 -3.82679e-17 -0.701708 4.37421e-18 -1.69928e-34)
(0.674359 0.145762 4.63978e-18 -0.722191 -7.09441e-18 0)
(0.793333 0.011718 2.96424e-17 -0.859829 5.39683e-17 0)
(-3.24372 0.99096 -3.66044e-18 3.14047 -1.30551e-18 0)
(-1.33351 1.28887 -3.82626e-17 1.22743 -3.06971e-17 3.61826e-35)
(-1.01532 1.56965 6.25946e-17 0.94493 1.94912e-17 6.70109e-34)
(-0.545992 1.46407 6.83795e-18 0.447364 -8.40026e-18 0)
(-0.28247 1.36841 6.65936e-17 0.235468 2.49668e-17 -2.94197e-34)
(-0.118185 1.19764 -4.5523e-17 0.0109917 -2.69091e-17 2.42006e-34)
(0.0928812 1.01639 5.41646e-17 -0.116058 5.04309e-17 8.11999e-34)
(0.164432 0.873219 -1.93205e-17 -0.285607 1.85254e-17 4.76045e-33)
(0.33812 0.661898 -1.10515e-16 -0.359643 -8.18532e-17 -2.5539e-33)
(0.410931 0.545884 1.00464e-16 -0.516597 -3.05731e-18 2.074e-33)
(0.523127 0.343493 -1.60315e-18 -0.577629 1.80943e-17 0)
(0.655603 0.228718 1.22947e-17 -0.731371 1.94621e-17 0)
(-3.01237 0.450699 6.61571e-18 2.89819 -9.41199e-19 0)
(-1.52763 1.12133 -6.17701e-18 1.41029 3.06041e-17 4.14797e-34)
(-1.34867 1.4735 -6.37632e-17 1.27084 -4.49014e-17 -6.03573e-34)
(-0.930891 1.45222 -7.9881e-18 0.821833 -9.10037e-18 8.41352e-34)
(-0.675288 1.39555 -1.08873e-17 0.623332 -2.45998e-17 4.87816e-34)
(-0.493481 1.2516 6.40791e-17 0.374981 5.27504e-17 -1.20558e-34)
(-0.249587 1.09187 -7.20747e-17 0.223971 1.88146e-17 0)
(-0.158499 0.963259 -5.73764e-17 0.0245607 -5.34139e-18 -2.57047e-33)
(0.0662144 0.763396 -6.59917e-17 -0.0900046 -9.33747e-18 -8.64534e-35)
(0.151634 0.662365 1.45946e-17 -0.268421 -8.57576e-18 -5.85824e-35)
(0.315906 0.464988 -3.79087e-18 -0.376147 3.09868e-18 1.02106e-33)
(0.459021 0.370535 8.00964e-17 -0.542764 3.35631e-17 1.07013e-33)
(-2.69328 0.084404 -1.04803e-18 2.57013 1.01889e-17 7.41954e-35)
(-1.69895 0.917869 -9.17966e-18 1.57237 -1.17517e-17 -5.74232e-35)
(-1.67316 1.28076 -5.19438e-18 1.58922 -1.11886e-17 -7.09837e-34)
(-1.32045 1.31212 8.48818e-17 1.20283 3.18204e-17 -5.99536e-34)
(-1.07938 1.28411 -7.86106e-17 1.02336 -2.48362e-17 1.58615e-34)
(-0.883166 1.16949 8.24268e-17 0.755387 2.58223e-18 -6.47605e-34)
(-0.609953 1.03731 7.54237e-17 0.582335 6.76965e-17 2.42457e-34)
(-0.500131 0.92924 -4.36622e-17 0.355721 1.76919e-17 3.83378e-34)
(-0.226194 0.754576 4.76979e-17 0.200544 1.4742e-17 8.32928e-34)
(-0.129305 0.671801 1.05917e-17 0.00339426 2.30272e-17 5.8678e-34)
(0.0867479 0.495525 -3.5673e-18 -0.151696 2.06402e-17 3.80102e-34)
(0.237848 0.421938 -2.33053e-17 -0.328134 -4.693e-17 -1.07013e-33)
(-2.36419 -0.101634 -3.37233e-18 2.23418 -1.09107e-17 0)
(-1.83789 0.681964 8.83626e-18 1.70422 -7.18605e-18 2.84965e-34)
(-1.95484 0.99472 4.27062e-18 1.86621 9.00676e-18 5.11913e-36)
(-1.66687 1.04618 -5.92279e-17 1.5427 -5.24078e-17 6.33208e-35)
(-1.44221 1.03599 6.91142e-17 1.38308 1.96142e-17 -2.32581e-34)
(-1.23495 0.952681 -6.52942e-17 1.10008 -3.76269e-17 5.19752e-34)
(-0.937749 0.853644 2.36378e-17 0.908601 -3.81186e-17 6.91217e-34)
(-0.81182 0.771738 1.17562e-16 0.65941 1.94483e-17 -1.34066e-33)
(-0.495409 0.635581 6.52041e-17 0.468337 -2.12674e-17 -1.90768e-33)
(-0.389002 0.574026 6.55802e-17 0.256122 -6.63663e-18 -1.49997e-33)
(-0.127405 0.434572 9.86204e-17 0.058861 2.32967e-17 -1.3839e-33)
(0.0293172 0.382044 -7.87734e-17 -0.124602 -9.1535e-19 -3.67217e-34)
(-2.09753 -0.131872 -2.19563e-17 1.96287 4.69175e-18 0)
(-1.93591 0.42019 -2.57107e-17 1.79745 -1.3376e-17 -3.80961e-34)
(-2.16263 0.631135 2.79539e-18 2.07084 -2.18815e-17 -3.60623e-35)
(-1.92621 0.674675 2.11259e-17 1.79762 2.85364e-17 5.43792e-35)
(-1.71539 0.672885 -3.86868e-17 1.65417 -2.46317e-17 -7.46508e-35)
(-1.50066 0.622346 1.37082e-17 1.36101 1.20029e-17 0)
(-1.18644 0.560956 -3.92288e-17 1.15626 -1.51349e-17 9.4599e-35)
(-1.04869 0.509822 7.36776e-18 0.890888 -3.94714e-17 -5.7438e-35)
(-0.701074 0.423243 -2.77423e-17 0.673044 -2.73738e-17 -3.23683e-36)
(-0.587833 0.385283 -1.87204e-17 0.450258 -4.13391e-17 2.11581e-34)
(-0.292377 0.295802 -3.79319e-18 0.22141 -2.83222e-17 7.13877e-34)
(-0.132101 0.26433 2.97768e-17 0.0334488 4.49875e-17 -4.5904e-34)
(-1.94897 -0.0568862 -4.93234e-19 1.81198 7.08211e-18 0)
(-1.98663 0.141732 6.16555e-18 1.84574 2.72694e-17 1.31418e-34)
(-2.27291 0.216305 -1.94926e-20 2.17953 5.17224e-18 3.91512e-36)
(-2.06496 0.233038 1.11316e-17 1.93414 -1.2047e-17 -7.95665e-37)
(-1.86199 0.233278 1.49686e-17 1.79971 1.65205e-17 1.72909e-35)
(-1.6435 0.216386 -7.30791e-18 1.50145 -2.03619e-18 1.07603e-35)
(-1.32043 0.195577 1.44731e-17 1.28974 3.99925e-18 -2.21127e-35)
(-1.17642 0.178232 -2.44018e-17 1.01593 -6.85445e-18 7.59069e-35)
(-0.812303 0.148551 -4.78026e-18 0.783794 1.69746e-18 6.6579e-36)
(-0.69547 0.135723 -3.29409e-17 0.555554 -4.26341e-18 1.46872e-35)
(-0.38199 0.104933 -2.00331e-17 0.309813 -4.59558e-18 7.93222e-35)
(-0.21999 0.0944585 2.87528e-18 0.119658 -1.52816e-17 -2.88698e-35)
(-1.94875 0.0552696 2.67192e-18 1.81176 2.65319e-18 -3.90206e-36)
(-1.98662 -0.142496 7.70308e-18 1.84571 -2.90484e-17 1.4666e-34)
(-2.27292 -0.216434 6.27975e-19 2.17954 -1.45899e-17 1.61955e-35)
(-2.06499 -0.233172 -1.22798e-18 1.93418 -5.26424e-18 -1.41338e-35)
(-1.86202 -0.233154 8.51693e-18 1.79976 -2.50368e-18 -2.26803e-35)
(-1.64354 -0.216108 6.40642e-18 1.50152 -8.0848e-20 -4.10477e-36)
(-1.32048 -0.195316 -9.55441e-18 1.28979 -4.05282e-18 1.33846e-35)
(-1.17645 -0.177821 -1.39837e-17 1.01601 2.16712e-17 1.69824e-34)
(-0.812377 -0.148053 -2.04411e-17 0.783877 1.21211e-17 1.15188e-34)
(-0.695497 -0.135207 -1.336e-17 0.555632 5.77537e-18 1.31327e-35)
(-0.382064 -0.104264 3.80351e-19 0.309913 -1.11409e-17 -5.49409e-35)
(-0.220043 -0.0937657 -1.16644e-17 0.119747 -1.14108e-17 5.82788e-36)
(-2.09689 0.130396 -1.64887e-17 1.96225 -1.01294e-17 8.54982e-35)
(-1.93587 -0.420972 -4.17227e-17 1.79736 2.23915e-17 -3.57356e-34)
(-2.16265 -0.631279 -5.10674e-18 2.07087 1.17572e-17 -2.07948e-34)
(-1.92628 -0.674847 6.32026e-19 1.79772 -1.26382e-17 1.69174e-35)
(-1.71548 -0.672794 1.39864e-17 1.6543 -1.45635e-17 1.38947e-35)
(-1.50078 -0.622115 -1.06557e-17 1.36123 1.28e-17 0)
(-1.18657 -0.560735 -1.97912e-17 1.15642 3.98113e-17 4.0753e-34)
(-1.04877 -0.509446 4.09855e-17 0.891126 7.8372e-18 -1.81002e-34)
(-0.701287 -0.4228 2.58091e-17 0.673284 1.71919e-17 -3.80594e-34)
(-0.587908 -0.384795 1.58884e-17 0.450489 -1.51707e-19 4.2078e-34)
(-0.292591 -0.295188 -2.84572e-17 0.2217 1.50222e-18 2.6374e-34)
(-0.132253 -0.263675 -2.95559e-17 0.0337105 2.71703e-17 -4.00612e-34)
(-2.36321 0.100419 3.42719e-18 2.23322 4.65312e-18 7.15445e-35)
(-1.8378 -0.682777 1.83161e-17 1.70406 1.00986e-17 4.04163e-35)
(-1.95485 -0.994894 -2.15845e-17 1.86625 -1.64524e-17 2.50267e-34)
(-1.66695 -1.04642 -4.53473e-17 1.54284 3.96524e-17 3.90517e-34)
(-1.44233 -1.03596 -2.02695e-17 1.38328 7.80473e-18 -2.22313e-34)
(-1.23512 -0.952538 3.52997e-17 1.10042 1.30213e-17 1.21484e-34)
(-0.937948 -0.853496 8.20482e-17 0.908847 -2.3618e-17 -9.74966e-34)
(-0.811928 -0.771427 6.07557e-18 0.659784 8.9311e-18 -9.36704e-35)
(-0.49573 -0.63524 7.68714e-17 0.468703 -8.82698e-18 -1.37973e-33)
(-0.389114 -0.57359 3.08207e-17 0.256492 3.17377e-18 -9.07357e-34)
(-0.127729 -0.434061 -1.59939e-17 0.0593123 3.02114e-17 8.58246e-34)
(0.0290828 -0.381458 4.39735e-17 -0.124185 3.50908e-17 -1.07939e-33)
(-2.69206 -0.0852735 2.41278e-18 2.56896 3.0733e-18 0)
(-1.6988 -0.918717 -7.36848e-19 1.57211 -2.47621e-17 0)
(-1.67316 -1.28097 -3.70766e-17 1.58925 5.19257e-17 -3.01172e-34)
(-1.32051 -1.31245 8.03215e-17 1.20298 -4.13088e-17 -4.68552e-34)
(-1.07951 -1.28416 -3.83119e-17 1.0236 1.41409e-17 4.12912e-34)
(-0.88334 -1.16946 4.74487e-17 0.755805 -3.23974e-17 -7.56546e-34)
(-0.610182 -1.03726 -3.90562e-17 0.582631 7.34695e-18 9.95352e-34)
(-0.500246 -0.929015 9.83922e-17 0.356202 -5.30371e-17 -2.63743e-34)
(-0.226579 -0.754371 4.13821e-17 0.20099 -6.72479e-17 2.09576e-33)
(-0.129436 -0.671434 1.63232e-17 0.00388102 -2.341e-17 6.63811e-34)
(0.086356 -0.49515 4.456e-17 -0.151128 2.47956e-18 3.93931e-34)
(0.237556 -0.421447 1.01409e-16 -0.327592 -1.03416e-16 1.14591e-34)
(-3.01106 -0.451187 -9.09049e-18 2.89693 4.30265e-19 0)
(-1.52738 -1.1222 -3.16455e-17 1.40991 2.57443e-17 -7.81196e-35)
(-1.34863 -1.47375 4.05912e-17 1.27084 -1.84576e-17 3.92254e-34)
(-0.93089 -1.45264 -4.45156e-17 0.821943 1.86207e-17 4.71979e-34)
(-0.675388 -1.39568 7.5419e-17 0.62357 -5.31782e-17 6.40085e-34)
(-0.493619 -1.2517 -8.29276e-17 0.375426 -2.53679e-18 -3.18395e-34)
(-0.249808 -1.09192 -1.46321e-17 0.224277 -3.64983e-17 0)
(-0.158592 -0.963131 -1.1967e-16 0.0251132 -2.06028e-17 -1.52206e-33)
(0.0658199 -0.76334 -1.13516e-16 -0.0895314 2.20665e-17 -2.61248e-33)
(0.151504 -0.66208 -7.50891e-17 -0.267844 -9.38845e-18 -5.22945e-35)
(0.315497 -0.464765 1.73785e-17 -0.375515 -5.44206e-17 1.46467e-33)
(0.458701 -0.370152 -1.33816e-16 -0.542129 -1.8289e-18 -1.14591e-34)
(-3.24244 -0.991084 3.47112e-18 3.13926 1.11951e-17 0)
(-1.33313 -1.28975 2.72414e-17 1.2269 -1.45515e-17 -1.2776e-34)
(-1.01522 -1.56992 -1.3761e-17 0.944889 -1.13059e-17 8.33778e-35)
(-0.545887 -1.46457 -1.01695e-17 0.447392 3.25e-18 0)
(-0.282512 -1.36861 -5.8487e-17 0.235677 2.31304e-17 -2.44586e-34)
(-0.118241 -1.19784 2.15186e-17 0.0114122 -1.90085e-17 2.01197e-34)
(0.0927085 -1.01654 -1.21907e-16 -0.115783 6.26856e-17 -7.07735e-34)
(0.164392 -0.873186 1.48743e-16 -0.285021 -1.09733e-17 2.11319e-33)
(0.33777 -0.661983 1.96218e-17 -0.359199 -2.01624e-17 1.89645e-33)
(0.410824 -0.545683 -6.74308e-17 -0.515957 4.91903e-17 -1.32154e-33)
(0.522751 -0.343418 7.73952e-18 -0.576988 2.12207e-17 0)
(0.655288 -0.228448 -1.39356e-17 -0.730679 4.34392e-17 0)
(-3.31548 -1.66809 3.25262e-18 3.225 4.50529e-18 0)
(-1.12555 -1.42102 -1.58526e-17 1.03236 4.66345e-17 5.75856e-34)
(-0.704863 -1.57871 1.01843e-16 0.643194 -3.77478e-17 -1.91222e-33)
(-0.210096 -1.36377 -1.5235e-17 0.123736 -2.15886e-17 0)
(0.0502334 -1.22086 4.19309e-17 -0.0912841 -1.74744e-17 8.26607e-35)
(0.194221 -1.02626 -5.39179e-17 -0.287857 2.02118e-17 -6.79964e-35)
(0.370576 -0.829356 1.32486e-16 -0.390798 -1.35135e-17 -5.2694e-34)
(0.423637 -0.67709 1.10684e-16 -0.529351 -3.12304e-17 -2.44198e-34)
(0.548869 -0.466833 -1.67991e-16 -0.567647 3.41035e-17 1.55067e-33)
(0.608906 -0.338803 4.36467e-17 -0.701034 1.42573e-17 3.28918e-34)
(0.67406 -0.145813 -1.36745e-17 -0.721589 -1.98806e-17 0)
(0.793049 -0.0115515 -1.76576e-17 -0.859115 3.4943e-17 0)
(-3.17779 -2.41952 4.09645e-18 3.10157 5.50429e-18 0)
(-0.912888 -1.51849 5.82651e-17 0.834348 -1.98428e-18 -4.2323e-34)
(-0.442958 -1.52004 -4.10905e-17 0.391007 -1.16229e-17 1.62888e-33)
(0.0416507 -1.18106 -6.06969e-17 -0.114394 3.29856e-17 -4.01916e-37)
(0.284884 -0.987242 1.85156e-17 -0.319446 -1.18622e-17 -3.69233e-37)
(0.406158 -0.772149 1.58637e-17 -0.484998 -4.57064e-17 -1.91801e-34)
(0.547711 -0.564885 2.06486e-17 -0.564733 1.11391e-17 0)
(0.58444 -0.408459 -7.73147e-17 -0.673431 -2.55736e-17 4.14593e-34)
(0.668137 -0.208581 -1.58385e-16 -0.683944 3.30578e-17 -3.05924e-33)
(0.715434 -0.0719001 3.69994e-17 -0.79298 2.1522e-17 -5.60065e-34)
(0.74348 0.101325 -3.57765e-17 -0.783486 8.69331e-18 -6.07559e-34)
(0.845975 0.253178 9.30199e-17 -0.901584 -6.5042e-18 1.06146e-33)
(-2.80404 -3.16575 2.21487e-17 2.74338 -1.38183e-18 -6.45058e-35)
(-0.701342 -1.58663 -3.1616e-17 0.638789 -6.36196e-18 4.99238e-35)
(-0.244859 -1.42116 -6.49331e-17 0.203514 3.97725e-17 2.12329e-34)
(0.189293 -0.957546 1.53612e-16 -0.247178 -4.51795e-17 -8.75334e-34)
(0.399953 -0.713894 -1.48961e-16 -0.427437 4.47899e-17 3.88191e-34)
(0.496474 -0.48199 1.29838e-16 -0.55917 -9.02851e-18 -9.5016e-34)
(0.604121 -0.268578 7.09039e-17 -0.617654 -8.95831e-17 1.84278e-33)
(0.627667 -0.111424 -1.92781e-16 -0.698412 -8.82611e-18 -2.36326e-33)
(0.678718 0.0726113 -2.9309e-17 -0.691283 4.11382e-17 1.19635e-33)
(0.71401 0.215282 -2.87798e-18 -0.775648 6.18492e-19 3.13088e-35)
(0.717177 0.363264 1.02243e-17 -0.748976 4.25045e-17 2.19561e-34)
(0.800353 0.530314 7.9873e-17 -0.844554 -1.74488e-17 -1.06146e-33)
(-2.20061 -3.82173 6.72167e-18 2.15655 1.32624e-17 0)
(-0.494529 -1.63093 2.52498e-17 0.449041 -7.69005e-18 -5.52072e-35)
(-0.113951 -1.31214 5.58238e-17 0.0839256 1.11021e-18 -1.7218e-34)
(0.230304 -0.738198 -1.18822e-16 -0.272334 2.75105e-17 1.04385e-33)
(0.393472 -0.451133 1.18178e-16 -0.413402 -1.20382e-17 -5.80869e-34)
(0.46362 -0.206372 -4.10782e-17 -0.509096 3.68604e-17 3.3103e-34)
(0.538837 0.0101915 -8.48394e-17 -0.548645 -8.40705e-18 6.08751e-34)
(0.552574 0.166132 5.71962e-17 -0.603861 -1.23291e-17 5.81895e-34)
(0.580421 0.333239 6.25862e-17 -0.589529 3.08552e-17 8.14635e-34)
(0.604655 0.479752 5.42299e-17 -0.649329 6.14973e-18 -3.30212e-35)
(0.595592 0.602498 1.68541e-16 -0.618639 -2.5871e-17 -9.87486e-35)
(0.656957 0.781666 -8.41968e-17 -0.688994 -2.12442e-18 -1.93698e-35)
(-1.40547 -4.30945 6.88649e-18 1.37876 -1.84965e-18 0)
(-0.293463 -1.6568 -4.36517e-17 0.265809 1.46409e-17 5.18512e-35)
(-0.0416265 -1.2211 -5.03783e-17 0.0234266 -1.58367e-18 1.07425e-34)
(0.179702 -0.564769 6.51729e-17 -0.205165 -9.46661e-18 4.05364e-35)
(0.282997 -0.245615 -6.19935e-17 -0.295039 1.85229e-17 -1.99731e-35)
(0.3256 0.00783954 1.47564e-17 -0.353082 -1.68418e-17 0)
(0.369913 0.225726 -4.12754e-17 -0.375835 2.83412e-17 3.70012e-34)
(0.376813 0.379922 2.53307e-17 -0.407767 2.76665e-17 -1.94425e-34)
(0.389723 0.533094 -1.6247e-17 -0.39522 8.43873e-18 4.52886e-34)
(0.403805 0.681806 -2.23409e-18 -0.430752 2.22829e-17 8.00216e-34)
(0.393431 0.784425 -8.35361e-18 -0.407334 -2.94478e-17 -2.41397e-34)
(0.431036 0.97203 3.44174e-17 -0.450362 -2.9291e-17 -5.83937e-34)
(-0.483282 -4.56942 1.28833e-18 0.474403 -1.15732e-17 0)
(-0.0968536 -1.6685 4.08317e-18 0.0875242 -9.92391e-18 5.24997e-35)
(-0.00901653 -1.16968 -8.59241e-18 0.0029715 1.83409e-17 3.63419e-35)
(0.0674534 -0.469315 -1.1617e-17 -0.0759 9.64655e-19 -8.4064e-36)
(0.102702 -0.133129 4.03076e-17 -0.106638 -1.18435e-17 -3.51209e-37)
(0.117042 0.124714 -1.16883e-17 -0.126049 1.27088e-18 -1.04331e-35)
(0.131575 0.343005 9.23196e-18 -0.133499 3.21665e-18 6.34953e-37)
(0.13366 0.496017 -1.85281e-17 -0.143746 5.87409e-18 1.93894e-34)
(0.137246 0.641387 2.55913e-17 -0.139032 -2.46923e-18 9.89951e-35)
(0.141824 0.791056 -1.2814e-17 -0.150579 2.33726e-18 1.84986e-34)
(0.137503 0.882572 -3.69061e-18 -0.142021 4.50747e-19 2.5593e-34)
(0.150104 1.07449 6.8616e-18 -0.156385 -9.42839e-18 -4.19997e-35)
(0.483342 -4.56955 2.45807e-18 -0.474274 8.50678e-18 -1.802e-35)
(0.0980445 -1.66839 2.16095e-17 -0.0889139 1.38735e-17 -2.8637e-35)
(0.00951537 -1.16963 3.03126e-18 -0.00332265 4.18485e-18 -3.22603e-35)
(-0.066554 -0.469226 -8.51759e-18 0.0752528 2.70342e-20 4.61809e-35)
(-0.1022 -0.133074 -1.0274e-17 0.106423 -7.81325e-18 -8.92804e-35)
(-0.116365 0.124783 9.93446e-18 0.125976 2.44612e-18 -1.59947e-35)
(-0.131196 0.34306 -7.62208e-18 0.133292 -9.73882e-18 -8.13382e-36)
(-0.133204 0.49605 -1.68449e-18 0.144152 -2.12448e-17 -1.32904e-34)
(-0.136959 0.641449 -9.71358e-18 0.138907 -4.1191e-18 -1.87034e-34)
(-0.141639 0.791062 -7.72083e-18 0.151217 9.62269e-18 -1.5208e-34)
(-0.137317 0.882617 -8.5547e-19 0.142255 1.55138e-17 -6.06619e-36)
(-0.150134 1.07449 -6.0399e-19 0.157002 -2.38464e-18 1.37878e-35)
(1.40564 -4.30973 1.33696e-17 -1.37873 -3.06275e-18 1.97955e-35)
(0.294608 -1.65646 -4.65756e-17 -0.267136 -9.99469e-18 -3.84192e-34)