/*--------------------------------*- C++ -*----------------------------------*\
| =========                 |                                                 |
| \\      /  F ield         | foam-extend: Open Source CFD                    |
|  \\    /   O peration     | Version:  3.0                                   |
|   \\  /    A nd           | Web:         http://www.extend-project.de       |
|    \\/     M anipulation  |                                                 |
\*---------------------------------------------------------------------------*/
FoamFile
{
    version     2.0;
    format      ascii;
    class       volVectorField;
    location    "14";
    object      u;
}
// * * * * * * * * * * * * * * * * * * * * * * * * * * * * * * * * * * * * * //

dimensions      [0 0 0 0 0 0 0];

internalField   nonuniform List<vector> 
576
(
(0.0493343 -0.0266646 4.48497e-20)
(0.139852 -0.0336188 2.97727e-19)
(0.248849 -0.0469615 -5.12678e-19)
(0.382809 -0.0490755 -6.68218e-19)
(0.485001 -0.0524867 -6.0115e-21)
(0.60965 -0.0501986 4.77635e-19)
(0.696207 -0.0488403 4.01482e-19)
(0.793154 -0.0432222 5.01998e-19)
(0.866564 -0.037585 -1.19694e-20)
(0.918365 -0.0295669 1.0239e-19)
(0.982129 -0.0185908 6.13842e-19)
(0.981518 -0.00831171 -1.62221e-19)
(0.0631702 -0.0782258 2.82099e-19)
(0.157291 -0.0988132 -4.01626e-18)
(0.273229 -0.137925 -2.6138e-18)
(0.408277 -0.144198 -8.70704e-19)
(0.512238 -0.154198 1.35968e-18)
(0.635708 -0.147503 -3.44592e-19)
(0.721559 -0.143499 -3.71838e-19)
(0.815596 -0.127019 7.42227e-18)
(0.886082 -0.11045 6.01451e-18)
(0.93372 -0.0868957 7.90168e-19)
(0.991783 -0.0546306 -4.11503e-18)
(0.985835 -0.0244201 -4.44886e-18)
(0.0898441 -0.124454 -4.56446e-19)
(0.191021 -0.157257 2.06187e-18)
(0.320287 -0.219474 -7.99258e-19)
(0.457492 -0.229496 -5.53951e-18)
(0.564875 -0.245393 -2.66246e-18)
(0.686055 -0.234753 4.1847e-18)
(0.770546 -0.228388 7.85e-18)
(0.858957 -0.202157 2.20358e-18)
(0.923788 -0.175797 1.00527e-17)
(0.963386 -0.138315 3.70926e-18)
(1.01044 -0.0869585 1.2259e-18)
(0.994175 -0.0388834 1.07501e-17)
(0.127603 -0.162211 -3.99386e-19)
(0.23874 -0.204995 9.58983e-19)
(0.386884 -0.286082 -2.71128e-18)
(0.527129 -0.29914 5.47237e-18)
(0.639328 -0.319867 -6.90323e-18)
(0.757287 -0.305998 -1.01332e-18)
(0.839841 -0.297694 -6.22934e-19)
(0.920294 -0.263506 1.02382e-17)
(0.977129 -0.229147 7.9059e-18)
(1.00535 -0.180287 1.04466e-17)
(1.03682 -0.113349 7.37166e-18)
(1.00598 -0.0506797 2.36052e-17)
(0.173816 -0.188898 -2.23557e-19)
(0.297157 -0.238742 -1.15428e-18)
(0.468407 -0.333168 2.53092e-19)
(0.612387 -0.348391 -5.16288e-19)
(0.730497 -0.372526 3.77671e-18)
(0.844509 -0.356379 -9.35089e-18)
(0.924699 -0.346711 -5.87589e-18)
(0.99541 -0.306894 -1.78656e-17)
(1.04245 -0.266883 -1.73106e-17)
(1.05675 -0.209978 -6.90984e-18)
(1.06914 -0.132019 -5.63737e-18)
(1.02043 -0.0590294 -2.62429e-17)
(0.225393 -0.202727 2.43044e-19)
(0.362356 -0.256225 1.61723e-18)
(0.559383 -0.357561 -4.74018e-20)
(0.707518 -0.373895 -3.808e-18)
(0.832214 -0.399796 -7.90879e-19)
(0.941822 -0.382468 -2.30228e-18)
(1.01937 -0.372089 -7.14985e-18)
(1.07921 -0.329357 1.19706e-18)
(1.11532 -0.28642 -7.41383e-18)
(1.11408 -0.225345 -1.38345e-17)
(1.10518 -0.141685 2.15206e-18)
(1.03655 -0.063347 -7.29229e-18)
(0.27876 -0.202722 5.10503e-19)
(0.429817 -0.256236 5.58149e-19)
(0.653532 -0.357571 7.32555e-18)
(0.805979 -0.373911 1.44335e-18)
(0.937496 -0.399811 4.57099e-19)
(1.04255 -0.382487 -1.56251e-18)
(1.11736 -0.372104 9.33753e-19)
(1.16595 -0.329374 4.19086e-18)
(1.19076 -0.286433 -1.57813e-18)
(1.17344 -0.225355 3.40247e-18)
(1.1425 -0.141695 -9.30552e-19)
(1.05324 -0.063347 -4.70419e-18)
(0.330339 -0.188918 3.12867e-19)
(0.495017 -0.238785 1.03556e-18)
(0.744508 -0.333213 4.67534e-18)
(0.901114 -0.348441 -4.49615e-18)
(1.03922 -0.372573 7.80213e-18)
(1.13987 -0.356431 -5.59178e-18)
(1.21203 -0.346753 -3.91783e-18)
(1.24976 -0.306936 5.3136e-19)
(1.26364 -0.26692 -1.23952e-17)
(1.23078 -0.21 5.35386e-18)
(1.17855 -0.132047 6.52017e-19)
(1.06936 -0.0590265 1.11462e-17)
(0.376557 -0.162223 4.55955e-19)
(0.55345 -0.205051 8.65465e-19)
(0.826052 -0.286137 -2.97006e-18)
(0.986395 -0.299217 4.8799e-18)
(1.1304 -0.319937 -4.90516e-18)
(1.22711 -0.306079 7.49721e-18)
(1.29691 -0.297763 -2.34352e-18)
(1.32489 -0.263575 -1.52149e-17)
(1.32898 -0.22921 -1.39997e-17)
(1.28219 -0.180328 -5.17029e-18)
(1.21087 -0.113397 -1.19587e-17)
(1.08381 -0.0506795 1.17943e-17)
(0.414315 -0.124487 7.97095e-19)
(0.601186 -0.157344 1.99982e-18)
(0.892654 -0.21956 2.84529e-20)
(1.05605 -0.229597 3.74326e-18)
(1.20487 -0.245491 3.15357e-19)
(1.29836 -0.234859 5.08534e-18)
(1.36622 -0.228474 7.67185e-18)
(1.38625 -0.202244 -2.87199e-18)
(1.38233 -0.175874 3.35543e-18)
(1.32417 -0.138362 5.74116e-18)
(1.23726 -0.0870176 4.94973e-18)
(1.09561 -0.0388765 -5.57293e-18)
(0.441001 -0.0782576 2.1041e-19)
(0.634929 -0.0989056 -2.09415e-19)
(0.939738 -0.138013 1.7457e-18)
(1.10529 -0.144322 -2.83926e-18)
(1.25753 -0.154307 2.27191e-18)
(1.34874 -0.147627 -1.36346e-19)
(1.41523 -0.143607 -9.02247e-19)
(1.42963 -0.127123 7.00084e-18)
(1.42006 -0.110547 6.24596e-18)
(1.35386 -0.0869596 8.85793e-18)
(1.25593 -0.0547057 1.36796e-17)
(1.10396 -0.024421 -2.00264e-18)
(0.454826 -0.0267013 -4.4703e-20)
(0.652412 -0.0337258 -2.03169e-18)
(0.964125 -0.0470567 -1.36811e-18)
(1.1308 -0.0492054 2.2686e-18)
(1.2848 -0.0526007 -1.64422e-18)
(1.37483 -0.0503261 4.76153e-19)
(1.44061 -0.0489455 -1.44421e-18)
(1.4521 -0.0433306 1.53009e-18)
(1.4396 -0.0376798 2.12206e-19)
(1.36923 -0.0296246 1.17933e-18)
(1.2656 -0.0186633 1.31508e-18)
(1.10828 -0.00829863 2.32072e-18)
(0.454827 0.0266775 -3.49423e-20)
(0.652421 0.0337577 1.60609e-18)
(0.964131 0.0471113 1.73739e-18)
(1.13081 0.0492702 2.04634e-18)
(1.28481 0.0526967 1.79024e-18)
(1.37484 0.050411 6.77535e-20)
(1.44062 0.0490574 2.35543e-18)
(1.45212 0.0434216 -3.20858e-18)
(1.43961 0.0377601 -3.41345e-18)
(1.36924 0.0297349 -4.33948e-18)
(1.26561 0.0186528 -1.83384e-20)
(1.10828 0.00839163 1.26855e-18)
(0.441017 0.0782374 4.04672e-19)
(0.63497 0.098944 -1.30673e-18)
(0.93977 0.138073 -2.41762e-19)
(1.10534 0.144394 1.39885e-18)
(1.25757 0.15441 3.64884e-18)
(1.34879 0.14772 6.92584e-19)
(1.41526 0.143724 -4.87043e-18)
(1.42968 0.127223 -2.91896e-18)
(1.42009 0.110633 -6.32402e-18)
(1.35388 0.0870746 -5.07966e-18)
(1.25596 0.0547006 7.83645e-19)
(1.10396 0.0245128 -4.34339e-18)
(0.414331 0.124466 8.4292e-20)
(0.601241 0.157392 -3.65713e-18)
(0.892693 0.219629 -5.43758e-19)
(1.05612 0.229684 -5.49339e-18)
(1.20493 0.245605 1.15694e-18)
(1.29843 0.23497 -6.59209e-19)
(1.36627 0.228602 2.82153e-18)
(1.38631 0.202361 9.44664e-19)
(1.38238 0.175971 3.14929e-18)
(1.32421 0.138486 2.49014e-18)
(1.23731 0.0870224 -2.095e-19)
(1.09561 0.0389659 -1.00761e-17)
(0.376589 0.162213 -8.7854e-19)
(0.553535 0.205118 2.1335e-18)
(0.826113 0.286222 -3.12867e-18)
(0.986498 0.299328 -8.29553e-19)
(1.13048 0.32007 -7.13146e-18)
(1.22721 0.306214 5.68875e-18)
(1.29698 0.297909 9.74053e-18)
(1.32498 0.263715 6.71694e-18)
(1.32905 0.229322 1.69622e-17)
(1.28224 0.180466 1.25203e-17)
(1.21092 0.113416 -3.96392e-18)
(1.08381 0.0507663 5.58863e-18)
(0.330362 0.188906 -6.10796e-19)
(0.495103 0.238871 -1.3908e-18)
(0.744566 0.333314 -5.7756e-18)
(0.901224 0.348579 5.77088e-18)
(1.0393 0.372729 -1.10221e-18)
(1.13998 0.356597 2.92686e-18)
(1.21212 0.346919 2.75085e-18)
(1.24986 0.307106 5.329e-18)
(1.26372 0.267052 1.1214e-17)
(1.23084 0.210153 8.89759e-18)
(1.17861 0.132083 4.24987e-18)
(1.06935 0.0591097 2.45388e-17)
(0.278801 0.202724 -6.83955e-19)
(0.429926 0.256351 -1.99329e-18)
(0.653609 0.357695 -1.70001e-18)
(0.80611 0.374083 -3.00452e-18)
(0.937591 0.399993 1.51203e-18)
(1.04268 0.382687 -3.62222e-18)
(1.11746 0.372295 -4.38807e-18)
(1.16607 0.329574 -1.51926e-17)
(1.19085 0.286587 3.30903e-18)
(1.17351 0.225525 -6.12984e-18)
(1.14257 0.141751 -1.20851e-19)
(1.05323 0.0634277 -8.5685e-18)
(0.225419 0.202727 -2.40501e-19)
(0.362446 0.256366 4.92237e-19)
(0.55944 0.357704 -1.078e-18)
(0.707635 0.3741 -2.56042e-19)
(0.832295 0.400005 -3.79159e-18)
(0.941938 0.382704 3.08838e-19)
(1.01945 0.372306 -6.9422e-18)
(1.07931 0.32959 1.53725e-17)
(1.11541 0.286598 1.62484e-17)
(1.11415 0.225533 -8.68745e-18)
(1.10525 0.14176 5.07004e-18)
(1.03654 0.063426 -4.86954e-18)
(0.173855 0.188913 -2.69122e-19)
(0.297261 0.238916 -9.47335e-19)
(0.468478 0.33334 6.82485e-18)
(0.612512 0.34863 -2.55435e-18)
(0.730583 0.372764 3.30954e-18)
(0.844628 0.356648 -5.54785e-18)
(0.924789 0.346952 4.7645e-18)
(0.995511 0.307152 1.27239e-17)
(1.04254 0.267084 -7.91256e-19)
(1.05681 0.210178 -6.29384e-18)
(1.0692 0.132111 -5.73533e-18)
(1.02042 0.0591049 -2.01986e-17)
(0.127623 0.162224 -5.90521e-19)
(0.238814 0.205189 2.26316e-18)
(0.386921 0.286264 -9.23962e-19)
(0.527221 0.299408 -3.7971e-18)
(0.639388 0.320126 1.11103e-18)
(0.757378 0.306294 -7.87309e-18)
(0.839911 0.297961 3.02852e-19)
(0.920372 0.263789 2.08584e-18)
(0.9772 0.229373 -1.30844e-17)
(1.0054 0.180506 -7.71394e-18)
(1.03688 0.113461 -1.25365e-17)
(1.00597 0.0507588 -2.95711e-18)
(0.0898741 0.124478 1.24578e-19)
(0.191087 0.157484 -1.63217e-19)
(0.320327 0.219683 -9.16362e-19)
(0.457577 0.229789 3.91648e-18)
(0.564924 0.245679 -5.8666e-18)
(0.686132 0.235074 4.31463e-18)
(0.770606 0.228672 -2.32318e-18)
(0.859017 0.202456 -1.4863e-17)
(0.923849 0.176037 -1.17973e-17)
(0.963418 0.138538 -1.53606e-17)
(1.01048 0.0870801 -1.33083e-17)
(0.99417 0.0389565 1.84691e-17)
(0.06318 0.0782489 7.73377e-19)
(0.157334 0.0990527 3.3845e-18)
(0.273235 0.138135 1.52414e-18)
(0.408324 0.144516 -1.82525e-18)
(0.512265 0.154495 3.21657e-18)
(0.635748 0.147841 -1.00056e-18)
(0.721595 0.143806 6.90044e-19)
(0.815627 0.127334 -1.93335e-18)
(0.886119 0.11071 8.56101e-19)
(0.933731 0.0871361 -1.31948e-18)
(0.991816 0.0547672 -2.10749e-18)
(0.985827 0.0245024 -7.97567e-18)
(0.0493605 0.0266858 8.1987e-20)
(0.139854 0.033876 1.64899e-19)
(0.248854 0.0471769 2.23853e-19)
(0.38282 0.0494017 -2.80748e-19)
(0.485001 0.0527897 -1.65948e-18)
(0.609657 0.0505402 4.5873e-19)
(0.69622 0.049147 -1.05812e-18)
(0.793158 0.0435405 -5.3486e-19)
(0.866583 0.0378444 -1.98128e-18)
(0.918359 0.0298018 1.28435e-18)
(0.982148 0.0187239 -1.12303e-18)
(0.981509 0.00838156 -1.34512e-18)
(0.0493573 -0.026697 -4.51046e-20)
(0.139838 -0.0336042 -2.97461e-19)
(0.248845 -0.0469919 5.1254e-19)
(0.382802 -0.0490728 6.68037e-19)
(0.484989 -0.0525067 5.80965e-21)
(0.609639 -0.050198 -4.77577e-19)
(0.696208 -0.0488541 -4.01335e-19)
(0.793142 -0.0432127 -5.01788e-19)
(0.866572 -0.037595 1.22469e-20)
(0.918351 -0.0295573 -1.02319e-19)
(0.982138 -0.0185934 -6.13693e-19)
(0.981511 -0.00830749 1.62219e-19)
(0.0631706 -0.0782615 -2.82482e-19)
(0.157288 -0.0987891 4.01664e-18)
(0.273208 -0.137954 2.61402e-18)
(0.408271 -0.144197 8.71146e-19)
(0.512231 -0.154218 -1.35963e-18)
(0.635695 -0.147508 3.4471e-19)
(0.721562 -0.143519 3.71904e-19)
(0.815579 -0.127014 -7.4222e-18)
(0.886086 -0.110467 -6.01464e-18)
(0.933706 -0.086896 -7.90201e-19)
(0.991787 -0.0546417 4.11491e-18)
(0.985832 -0.0244274 4.44865e-18)
(0.089859 -0.124494 4.56131e-19)
(0.191015 -0.157237 -2.06176e-18)
(0.320285 -0.219512 7.98989e-19)
(0.457493 -0.229487 5.5393e-18)
(0.564869 -0.245413 2.66217e-18)
(0.686048 -0.234759 -4.18475e-18)
(0.770553 -0.228396 -7.84997e-18)
(0.858942 -0.202153 -2.20378e-18)
(0.923796 -0.175805 -1.0053e-17)
(0.963378 -0.138307 -3.70946e-18)
(1.01044 -0.0869644 -1.22622e-18)
(0.994178 -0.0388795 -1.07498e-17)
(0.127604 -0.162243 3.99251e-19)
(0.23872 -0.204963 -9.58645e-19)
(0.386866 -0.286106 2.71172e-18)
(0.527112 -0.299132 -5.47163e-18)
(0.639316 -0.319878 6.90328e-18)
(0.757268 -0.306005 1.01388e-18)
(0.839842 -0.297701 6.22958e-19)
(0.920275 -0.263508 -1.02381e-17)
(0.977131 -0.229157 -7.9058e-18)
(1.00535 -0.180286 -1.04464e-17)
(1.03682 -0.113359 -7.37178e-18)
(1.00598 -0.0506791 -2.36049e-17)
(0.173832 -0.188937 2.23417e-19)
(0.297152 -0.238717 1.15422e-18)
(0.468414 -0.333198 -2.52875e-19)
(0.612385 -0.348385 5.16151e-19)
(0.730499 -0.372536 -3.77675e-18)
(0.844501 -0.35639 9.35062e-18)
(0.924708 -0.346712 5.87601e-18)
(0.995397 -0.306899 1.78654e-17)
(1.04246 -0.266886 1.73106e-17)
(1.05675 -0.209973 6.91009e-18)
(1.06913 -0.132026 5.63767e-18)
(1.02043 -0.0590221 2.62427e-17)
(0.225395 -0.202757 -2.43067e-19)
(0.362329 -0.256198 -1.61735e-18)
(0.559371 -0.35758 4.76342e-20)
(0.707499 -0.37389 3.808e-18)
(0.832205 -0.3998 7.9105e-19)
(0.941802 -0.38248 2.30227e-18)
(1.01937 -0.372087 7.15006e-18)
(1.07919 -0.329368 -1.19712e-18)
(1.11532 -0.286422 7.41397e-18)
(1.11408 -0.225345 1.38344e-17)
(1.10517 -0.141694 -2.15183e-18)
(1.03656 -0.0633398 7.29233e-18)
(0.278777 -0.20276 -5.106e-19)
(0.42981 -0.256214 -5.58134e-19)
(0.65354 -0.357589 -7.32564e-18)
(0.805974 -0.373908 -1.4433e-18)
(0.937501 -0.399812 -4.57206e-19)
(1.04254 -0.382499 1.56261e-18)
(1.11737 -0.372099 -9.33702e-19)
(1.16594 -0.329384 -4.19057e-18)
(1.19076 -0.286434 1.5783e-18)
(1.17344 -0.225354 -3.40219e-18)
(1.14249 -0.141704 9.30542e-19)
(1.05324 -0.063338 4.70412e-18)
(0.33034 -0.188947 -3.12846e-19)
(0.494995 -0.238764 -1.03584e-18)
(0.744503 -0.333225 -4.67518e-18)
(0.901098 -0.348439 4.49586e-18)
(1.03921 -0.372571 -7.80186e-18)
(1.13985 -0.356444 5.59146e-18)
(1.21203 -0.346746 3.91781e-18)
(1.24975 -0.306946 -5.31032e-19)
(1.26364 -0.26692 1.2395e-17)
(1.23078 -0.209999 -5.3535e-18)
(1.17854 -0.132055 -6.52191e-19)
(1.06936 -0.0590169 -1.11465e-17)
(0.376572 -0.162258 -4.55957e-19)
(0.553444 -0.205037 -8.65554e-19)
(0.82606 -0.286149 2.97047e-18)
(0.986389 -0.299218 -4.87979e-18)
(1.13041 -0.319933 4.90524e-18)
(1.2271 -0.30609 -7.49709e-18)
(1.29691 -0.297755 2.34322e-18)
(1.32489 -0.263584 1.52149e-17)
(1.32897 -0.22921 1.39995e-17)
(1.28219 -0.180327 5.17026e-18)
(1.21086 -0.113405 1.19584e-17)
(1.08382 -0.050671 -1.17944e-17)
(0.414321 -0.124514 -7.97098e-19)
(0.601172 -0.157332 -1.99974e-18)
(0.892654 -0.219568 -2.86847e-20)
(1.05603 -0.229598 -3.74308e-18)
(1.20487 -0.245486 -3.15427e-19)
(1.29835 -0.23487 -5.08535e-18)
(1.36622 -0.228465 -7.67149e-18)
(1.38624 -0.202251 2.87169e-18)
(1.38233 -0.175874 -3.35555e-18)
(1.32417 -0.138359 -5.74153e-18)
(1.23726 -0.0870247 -4.95021e-18)
(1.09562 -0.0388687 5.573e-18)
(0.441016 -0.0782848 -2.10385e-19)
(0.634927 -0.0988998 2.0941e-19)
(0.939747 -0.13802 -1.74538e-18)
(1.10529 -0.144326 2.83909e-18)
(1.25753 -0.154302 -2.27175e-18)
(1.34874 -0.147638 1.3635e-19)
(1.41523 -0.143599 9.02227e-19)
(1.42963 -0.127129 -7.00076e-18)
(1.42006 -0.110547 -6.24593e-18)
(1.35386 -0.0869569 -8.85787e-18)
(1.25593 -0.0547115 -1.36796e-17)
(1.10396 -0.0244147 2.00247e-18)
(0.454835 -0.0267218 4.47321e-20)
(0.652407 -0.0337222 2.03164e-18)
(0.964128 -0.0470613 1.36812e-18)
(1.13079 -0.0492111 -2.26853e-18)
(1.2848 -0.052596 1.64414e-18)
(1.37483 -0.0503362 -4.76083e-19)
(1.4406 -0.0489398 1.4442e-18)
(1.4521 -0.0433351 -1.53004e-18)
(1.43959 -0.0376801 -2.12287e-19)
(1.36923 -0.0296221 -1.17931e-18)
(1.26559 -0.0186675 -1.31508e-18)
(1.10828 -0.00829374 -2.32076e-18)
(0.45484 0.0266619 3.49456e-20)
(0.652425 0.0337594 -1.60603e-18)
(0.964139 0.0471088 -1.7373e-18)
(1.13081 0.0492642 -2.04633e-18)
(1.28481 0.0527017 -1.79018e-18)
(1.37485 0.0504026 -6.77325e-20)
(1.44062 0.049062 -2.35531e-18)
(1.45212 0.0434187 3.20857e-18)
(1.43961 0.0377598 3.41347e-18)
(1.36924 0.029737 4.33951e-18)
(1.2656 0.0186505 1.83498e-20)
(1.10828 0.00839509 -1.26852e-18)
(0.441025 0.0782275 -4.04677e-19)
(0.634974 0.0989448 1.30682e-18)
(0.939774 0.138072 2.41974e-19)
(1.10534 0.144388 -1.39874e-18)
(1.25757 0.154414 -3.64876e-18)
(1.34879 0.147713 -6.92579e-19)
(1.41526 0.143727 4.87052e-18)
(1.42968 0.127221 2.9189e-18)
(1.42009 0.110632 6.32381e-18)
(1.35389 0.087076 5.0795e-18)
(1.25595 0.0546997 -7.83604e-19)
(1.10395 0.0245147 4.34343e-18)
(0.414339 0.124464 -8.42124e-20)
(0.60125 0.157394 3.65698e-18)
(0.8927 0.219632 5.43732e-19)
(1.05612 0.22968 5.49339e-18)
(1.20493 0.245612 -1.15664e-18)
(1.29844 0.234966 6.59121e-19)
(1.36627 0.228606 -2.82174e-18)
(1.38632 0.202361 -9.44668e-19)
(1.38238 0.175971 -3.14935e-18)
(1.32422 0.138487 -2.49022e-18)
(1.23731 0.0870233 2.09608e-19)
(1.09561 0.0389663 1.00759e-17)
(0.376592 0.162216 8.78487e-19)
(0.553543 0.205119 -2.13335e-18)
(0.826118 0.286228 3.1289e-18)
(0.986503 0.299324 8.29544e-19)
(1.13048 0.320077 7.13158e-18)
(1.22722 0.306211 -5.68865e-18)
(1.29698 0.29791 -9.74018e-18)
(1.32499 0.263716 -6.71723e-18)
(1.32904 0.229321 -1.69623e-17)
(1.28225 0.180466 -1.25204e-17)
(1.21092 0.113417 3.9638e-18)
(1.08381 0.0507645 -5.58912e-18)
(0.330363 0.188916 6.1072e-19)
(0.495114 0.238874 1.39102e-18)
(0.744571 0.333324 5.77522e-18)
(0.901234 0.34858 -5.77036e-18)
(1.0393 0.37274 1.10178e-18)
(1.13999 0.356599 -2.92626e-18)
(1.21212 0.346925 -2.75067e-18)
(1.24987 0.307111 -5.32828e-18)
(1.26372 0.267053 -1.12128e-17)
(1.23085 0.210156 -8.89667e-18)
(1.17861 0.132087 -4.25004e-18)
(1.06936 0.0591072 -2.45372e-17)
(0.278801 0.202742 6.83903e-19)
(0.429937 0.256351 1.99318e-18)
(0.653614 0.357711 1.70005e-18)
(0.806119 0.374081 3.00435e-18)
(0.937596 0.400007 -1.51167e-18)
(1.04269 0.382688 3.62188e-18)
(1.11746 0.372299 4.38868e-18)
(1.16607 0.329579 1.51922e-17)
(1.19085 0.286585 -3.30916e-18)
(1.17351 0.225526 6.12995e-18)
(1.14256 0.141751 1.20847e-19)
(1.05324 0.0634219 8.56841e-18)
(0.225408 0.202748 2.40362e-19)
(0.362457 0.256365 -4.92046e-19)
(0.559441 0.35772 1.07733e-18)
(0.707645 0.374104 2.56228e-19)
(0.832299 0.400021 3.79115e-18)
(0.941948 0.382712 -3.08386e-19)
(1.01946 0.372317 6.94204e-18)
(1.07932 0.329603 -1.53725e-17)
(1.11541 0.286605 -1.62473e-17)
(1.11416 0.225542 8.68669e-18)
(1.10525 0.141767 -5.06972e-18)
(1.03655 0.0634228 4.86951e-18)
(0.173853 0.188947 2.69132e-19)
(0.297277 0.238913 9.4704e-19)
(0.468485 0.33337 -6.8248e-18)
(0.612526 0.34863 2.55425e-18)
(0.730588 0.372788 -3.30944e-18)
(0.844643 0.356655 5.54774e-18)
(0.924793 0.346962 -4.76413e-18)
(0.99552 0.30716 -1.27239e-17)
(1.04254 0.267083 7.92518e-19)
(1.05681 0.210178 6.29377e-18)
(1.06919 0.13211 5.7363e-18)
(1.02043 0.0590978 2.01983e-17)
(0.1276 0.162252 5.90367e-19)
(0.238827 0.205182 -2.26294e-18)
(0.38692 0.286279 9.24113e-19)
(0.527229 0.299411 3.79674e-18)
(0.639393 0.32014 -1.11087e-18)
(0.757385 0.306301 7.87302e-18)
(0.839911 0.297974 -3.03124e-19)
(0.920378 0.263803 -2.08537e-18)
(0.977197 0.229383 1.30849e-17)
(1.00541 0.180514 7.71382e-18)
(1.03687 0.113468 1.25367e-17)
(1.00598 0.050757 2.95693e-18)
(0.0898692 0.124526 -1.24661e-19)
(0.191103 0.157482 1.63127e-19)
(0.320331 0.219723 9.1604e-19)
(0.457593 0.229793 -3.91608e-18)
(0.564922 0.245708 5.86623e-18)
(0.686151 0.235086 -4.31471e-18)
(0.770608 0.228685 2.32269e-18)
(0.85903 0.202462 1.48632e-17)
(0.923847 0.176039 1.17971e-17)
(0.963431 0.138536 1.53605e-17)
(1.01047 0.0870799 1.33085e-17)
(0.99418 0.0389531 -1.84699e-17)
(0.0631525 0.0782793 -7.73728e-19)
(0.157351 0.0990394 -3.38408e-18)
(0.273241 0.138156 -1.52402e-18)
(0.408329 0.144516 1.825e-18)
(0.512276 0.154511 -3.2164e-18)
(0.635757 0.147839 1.00062e-18)
(0.721596 0.14382 -6.89658e-19)
(0.815635 0.127335 1.93349e-18)
(0.886114 0.110717 -8.56146e-19)
(0.933743 0.0871392 1.31952e-18)
(0.991807 0.0547692 2.10749e-18)
(0.98584 0.0244984 7.97545e-18)
(0.0493564 0.026735 -8.20761e-20)
(0.13986 0.0338683 -1.6502e-19)
(0.248866 0.0472145 -2.2387e-19)
(0.382832 0.0494101 2.80971e-19)
(0.485001 0.0528165 1.65922e-18)
(0.609673 0.0505523 -4.58642e-19)
(0.696223 0.0491647 1.05783e-18)
(0.793171 0.0435433 5.34747e-19)
(0.866584 0.0378552 1.9813e-18)
(0.918377 0.0297978 -1.2843e-18)
(0.982141 0.0187285 1.1231e-18)
(0.981527 0.00838382 1.34511e-18)
)
;

boundaryField
{
    out
    {
        type            fixedValue;
        value           uniform (1 0 0);
    }
    in
    {
        type            fixedValue;
        value           uniform (0 0 0);
    }
    frontAndBack
    {
        type            empty;
    }
}


// ************************************************************************* //
