/*--------------------------------*- C++ -*----------------------------------*\
| =========                 |                                                 |
| \\      /  F ield         | foam-extend: Open Source CFD                    |
|  \\    /   O peration     | Version:  3.0                                   |
|   \\  /    A nd           | Web:         http://www.extend-project.de       |
|    \\/     M anipulation  |                                                 |
\*---------------------------------------------------------------------------*/
FoamFile
{
    version     2.0;
    format      ascii;
    class       volScalarField;
    location    "15";
    object      p;
}
// * * * * * * * * * * * * * * * * * * * * * * * * * * * * * * * * * * * * * //

dimensions      [0 0 0 0 0 0 0];

internalField   nonuniform List<scalar> 
480
(
-0.244636
-0.202165
-0.192418
-0.173086
-0.172468
-0.163225
-0.165291
-0.160272
-0.160799
-0.155271
-0.240398
-0.198671
-0.189096
-0.170105
-0.169502
-0.160424
-0.16246
-0.15753
-0.158051
-0.152616
-0.232164
-0.191872
-0.182627
-0.16429
-0.163711
-0.154947
-0.156916
-0.152157
-0.152662
-0.14741
-0.219854
-0.181717
-0.172975
-0.155622
-0.155086
-0.146797
-0.148674
-0.144173
-0.144661
-0.139681
-0.203897
-0.168544
-0.160444
-0.144362
-0.143873
-0.136195
-0.137946
-0.133777
-0.134236
-0.129611
-0.184345
-0.15241
-0.145103
-0.130582
-0.130156
-0.12323
-0.124831
-0.121072
-0.1215
-0.117311
-0.16175
-0.133752
-0.127354
-0.114628
-0.114268
-0.108204
-0.109624
-0.106334
-0.106721
-0.103036
-0.136277
-0.112722
-0.107352
-0.0966533
-0.0963711
-0.0912813
-0.0924995
-0.0897396
-0.0900818
-0.0869674
-0.108579
-0.0898422
-0.0855801
-0.0770759
-0.0768685
-0.0728303
-0.0738205
-0.0716319
-0.0719189
-0.0694258
-0.0789089
-0.0653344
-0.0622623
-0.0561107
-0.0559857
-0.053075
-0.0538221
-0.0522465
-0.0524749
-0.0506499
-0.0479911
-0.0397816
-0.0379388
-0.0342279
-0.0341786
-0.032434
-0.0329177
-0.0319749
-0.032135
-0.0310074
-0.016136
-0.0134536
-0.0128797
-0.0116841
-0.0117141
-0.0111712
-0.0113839
-0.0110933
-0.011183
-0.0107769
0.0158948
0.0130346
0.0123439
0.0110214
0.0109224
0.0102662
0.0103367
0.0099776
0.00996648
0.00964572
0.0477705
0.0393952
0.037444
0.0336153
0.0334464
0.0315971
0.0319494
0.0309436
0.0310109
0.0299638
0.0787282
0.0650114
0.0618469
0.0555952
0.055369
0.0523699
0.0530061
0.0513784
0.0515295
0.0497755
0.108454
0.0896083
0.0852763
0.0766972
0.0764144
0.072311
0.0732194
0.070994
0.0712255
0.06879
0.136221
0.112598
0.107186
0.0964423
0.0961164
0.0909896
0.0921617
0.0893836
0.0896972
0.0866237
0.161769
0.133749
0.127339
0.114603
0.114235
0.108165
0.109578
0.106291
0.106679
0.103016
0.184443
0.152531
0.145245
0.130749
0.130352
0.123452
0.125088
0.121352
0.121813
0.117626
0.204068
0.168785
0.160736
0.144713
0.144287
0.136667
0.138492
0.134368
0.134888
0.130246
0.220091
0.182064
0.1734
0.156138
0.155695
0.147492
0.149479
0.14504
0.145615
0.140601
0.232451
0.192303
0.18316
0.164936
0.164477
0.155821
0.157928
0.153244
0.153858
0.148555
0.24072
0.199159
0.189701
0.170841
0.170375
0.161421
0.163613
0.158769
0.159412
0.153916
0.244969
0.202678
0.193054
0.173861
0.173388
0.164276
0.166508
0.161579
0.162233
0.156637
0.244912
0.202635
0.193016
0.17383
0.17336
0.164253
0.166486
0.161559
0.162214
0.156618
0.240764
0.199193
0.18973
0.170863
0.170393
0.161434
0.163622
0.158773
0.159412
0.15391
0.23238
0.192249
0.183112
0.164896
0.164438
0.155785
0.157892
0.153207
0.153818
0.14851
0.220121
0.182087
0.173419
0.156148
0.155701
0.147491
0.149472
0.145025
0.145592
0.140566
0.203983
0.168719
0.160677
0.14466
0.144234
0.136614
0.138436
0.134307
0.134821
0.130168
0.184459
0.152541
0.14525
0.130744
0.13034
0.123431
0.125057
0.12131
0.121757
0.117555
0.16167
0.133668
0.127264
0.114532
0.114161
0.108089
0.109495
0.106198
0.106575
0.102899
0.136223
0.112592
0.107173
0.096418
0.0960818
0.0909416
0.0920999
0.0893057
0.0896018
0.086511
0.10834
0.0895118
0.0851826
0.0766048
0.0763161
0.072206
0.0731023
0.0708644
0.0710794
0.0686294
0.0787166
0.0649897
0.0618156
0.0555494
0.0553091
0.0522929
0.0529101
0.0512627
0.0513913
0.0496199
0.0476449
0.0392837
0.0373324
0.0335019
0.0333233
0.0314637
0.0317989
0.0307774
0.0308236
0.0297626
0.0158735
0.0129996
0.0122965
0.0109564
0.0108398
0.0101632
0.0102102
0.0098288
0.00979131
0.00945404
-0.0162692
-0.0135763
-0.0130051
-0.0118141
-0.0118569
-0.0113269
-0.0115602
-0.0112874
-0.0114011
-0.0110077
-0.048017
-0.0398245
-0.0379965
-0.0343055
-0.0342761
-0.0325539
-0.0330635
-0.0321442
-0.0323325
-0.03122
-0.0790435
-0.0654615
-0.0623941
-0.0562486
-0.0561378
-0.0532411
-0.0540101
-0.0524525
-0.0527055
-0.0508916
-0.108602
-0.0898854
-0.0856393
-0.0771557
-0.0769686
-0.0729529
-0.0739689
-0.0718032
-0.0721175
-0.0696378
-0.136406
-0.112846
-0.107481
-0.0967876
-0.0965189
-0.0914421
-0.0926808
-0.0899372
-0.0903018
-0.0871969
-0.161764
-0.133787
-0.127404
-0.114698
-0.114357
-0.108313
-0.109756
-0.106486
-0.106897
-0.103223
-0.184462
-0.15252
-0.145217
-0.1307
-0.130286
-0.123369
-0.124986
-0.12124
-0.121686
-0.117505
-0.203895
-0.168561
-0.160475
-0.14441
-0.143936
-0.136274
-0.138043
-0.13389
-0.134368
-0.129752
-0.219951
-0.181807
-0.173065
-0.155714
-0.155184
-0.1469
-0.148788
-0.144295
-0.144794
-0.139819
-0.23214
-0.191865
-0.182631
-0.164307
-0.163738
-0.154986
-0.156966
-0.152217
-0.152734
-0.147487
-0.240472
-0.198734
-0.189157
-0.170162
-0.169561
-0.160483
-0.162522
-0.157594
-0.158119
-0.152686
-0.244588
-0.202131
-0.192389
-0.173066
-0.172452
-0.163216
-0.165286
-0.160271
-0.160802
-0.155277
)
;

boundaryField
{
    out
    {
        type            implicitExtrapolation;
    }
    in
    {
        type            implicitExtrapolation;
    }
    frontAndBack
    {
        type            empty;
    }
}


// ************************************************************************* //
