/*--------------------------------*- C++ -*----------------------------------*\
| =========                 |                                                 |
| \\      /  F ield         | foam-extend: Open Source CFD                    |
|  \\    /   O peration     | Version:  3.0                                   |
|   \\  /    A nd           | Web:         http://www.extend-project.de       |
|    \\/     M anipulation  |                                                 |
\*---------------------------------------------------------------------------*/
FoamFile
{
    version     2.0;
    format      ascii;
    class       volVectorField;
    location    "15";
    object      u;
}
// * * * * * * * * * * * * * * * * * * * * * * * * * * * * * * * * * * * * * //

dimensions      [0 0 0 0 0 0 0];

internalField   nonuniform List<vector> 
480
(
(0.282739 -0.101376 2.73763e-19)
(0.543925 -0.0677751 1.69979e-18)
(0.723274 -0.0469727 -3.65637e-18)
(0.817176 -0.032817 3.92624e-18)
(0.89714 -0.0230805 2.48043e-18)
(0.932214 -0.0160596 -2.17088e-18)
(0.973414 -0.010357 -1.29168e-17)
(0.981264 -0.00621435 9.84254e-18)
(1.00392 -0.00194698 -8.10773e-18)
(0.994728 0.00245017 -8.42429e-18)
(0.335607 -0.299232 1.8695e-18)
(0.579393 -0.200661 2.50917e-18)
(0.748011 -0.139823 -1.90981e-17)
(0.834639 -0.0985134 -1.64379e-17)
(0.909616 -0.070207 1.38655e-17)
(0.941117 -0.0498644 3.87289e-18)
(0.979413 -0.033398 6.37703e-18)
(0.985172 -0.0214876 -2.037e-17)
(1.00563 -0.0090879 2.75897e-17)
(0.994626 0.00146962 4.71664e-18)
(0.43786 -0.476642 -2.21834e-18)
(0.648026 -0.319833 2.75192e-18)
(0.795925 -0.223106 1.21626e-17)
(0.868507 -0.157449 1.13276e-17)
(0.933871 -0.112492 2.28877e-17)
(0.958478 -0.0802016 -7.09671e-18)
(0.991188 -0.0540862 3.051e-18)
(0.992919 -0.0352045 9.6634e-19)
(1.00914 -0.0155156 2.84395e-17)
(0.994775 0.000580164 -5.20084e-17)
(0.582518 -0.62152 1.05499e-18)
(0.745147 -0.417175 3.44642e-17)
(0.863747 -0.291155 1.22791e-17)
(0.916477 -0.205616 -6.45833e-18)
(0.968248 -0.147064 -8.09198e-18)
(0.983116 -0.105008 -1.56996e-18)
(1.00793 -0.0710139 -4.08839e-19)
(1.00397 -0.046424 -8.94979e-18)
(1.01419 -0.0207902 -4.07905e-17)
(0.995124 -0.000141654 6.47102e-17)
(0.759713 -0.723991 -8.38381e-18)
(0.864132 -0.486059 6.6321e-18)
(0.946864 -0.339336 1.18428e-17)
(0.97528 -0.239736 1.30322e-17)
(1.01041 -0.171568 -1.73077e-17)
(1.01335 -0.122595 -3.53478e-18)
(1.0285 -0.0830278 -1.24165e-17)
(1.01755 -0.0543821 -1.53708e-17)
(1.02044 -0.0245501 4.74854e-17)
(0.995595 -0.000643997 -6.8351e-17)
(0.957353 -0.77708 1.11468e-17)
(0.996877 -0.521793 -1.76243e-17)
(1.03962 -0.364372 -2.01383e-17)
(1.04092 -0.257485 -2.05965e-17)
(1.0575 -0.184339 -4.04861e-18)
(1.04712 -0.131765 -5.67088e-18)
(1.05149 -0.0893124 5.52218e-17)
(1.03274 -0.0585368 -2.73143e-17)
(1.02744 -0.0265448 3.32978e-17)
(0.996104 -0.000903459 -1.02328e-17)
(1.16196 -0.777173 1.12402e-17)
(1.13433 -0.521945 -1.19664e-17)
(1.13569 -0.364552 -2.22554e-17)
(1.10893 -0.257653 -2.91303e-17)
(1.1063 -0.184501 -2.17751e-19)
(1.08213 -0.131892 1.33171e-17)
(1.07533 -0.0894373 1.20637e-17)
(1.04848 -0.0586116 5.85622e-19)
(1.0347 -0.0266419 2.9459e-17)
(0.996564 -0.000931831 -2.95601e-18)
(1.35958 -0.72428 -5.18714e-18)
(1.26713 -0.486504 -9.3327e-19)
(1.22854 -0.339863 5.35721e-18)
(1.17468 -0.240221 7.93032e-18)
(1.1535 -0.172041 1.25526e-17)
(1.116 -0.122966 3.27663e-18)
(1.09841 -0.0833978 -6.66624e-18)
(1.0637 -0.054607 6.77759e-18)
(1.04173 -0.0248476 -2.85862e-17)
(0.996902 -0.000766071 4.81745e-17)
(1.53673 -0.622011 1.77572e-18)
(1.38622 -0.417889 9.29473e-18)
(1.31184 -0.291979 1.4144e-17)
(1.23369 -0.206374 6.38684e-18)
(1.19588 -0.147798 -1.03343e-17)
(1.14641 -0.105593 6.30598e-19)
(1.11914 -0.0716018 -4.38367e-19)
(1.07734 -0.0468076 3.43963e-18)
(1.04802 -0.0212919 -3.13652e-18)
(0.997065 -0.000469954 1.0721e-17)
(1.68134 -0.477357 1.57588e-18)
(1.48348 -0.320772 1.72184e-19)
(1.37991 -0.224161 1.10343e-17)
(1.28195 -0.158407 8.16893e-18)
(1.23056 -0.113423 5.78504e-18)
(1.1713 -0.080954 -5.89502e-18)
(1.13611 -0.0548583 1.0298e-18)
(1.08849 -0.0357534 -2.16451e-18)
(1.05316 -0.0162338 -1.28632e-17)
(0.997029 -0.000115379 2.64958e-18)
(1.78355 -0.30018 9.25515e-19)
(1.55228 -0.201777 -7.91442e-19)
(1.42811 -0.141022 3.08345e-18)
(1.31614 -0.0995878 2.36108e-19)
(1.25517 -0.071247 -6.40662e-21)
(1.18897 -0.0507295 2.45467e-18)
(1.14817 -0.034306 2.89732e-18)
(1.09638 -0.022212 1.6442e-18)
(1.05679 -0.0100273 -5.76638e-18)
(0.996795 0.000217723 3.04673e-18)
(1.83639 -0.102573 5.82467e-19)
(1.58792 -0.0690093 -8.47967e-19)
(1.45315 -0.0482278 2.3055e-18)
(1.33395 -0.0339175 1.14741e-18)
(1.26802 -0.0241473 -6.76007e-19)
(1.1982 -0.0169777 1.35782e-18)
(1.15449 -0.0113538 1.51827e-18)
(1.10048 -0.0071146 1.13836e-18)
(1.05866 -0.00311204 -4.09182e-18)
(0.996398 0.00046372 4.74954e-19)
(1.83627 0.101997 2.15832e-19)
(1.58798 0.0684758 -1.15416e-18)
(1.4533 0.0479006 2.48812e-18)
(1.33415 0.0341242 1.7808e-18)
(1.26823 0.0246694 -1.67803e-18)
(1.19838 0.0179936 1.17731e-19)
(1.15465 0.0124325 6.74469e-19)
(1.10051 0.00849568 7.35092e-19)
(1.05866 0.0040331 -4.05871e-18)
(0.99589 0.00056762 5.21817e-19)
(1.7832 0.299578 -2.57989e-20)
(1.55243 0.201309 -2.00629e-18)
(1.42856 0.140803 2.77968e-18)
(1.31671 0.0998985 3.41971e-18)
(1.25578 0.0718657 -4.11953e-18)
(1.18948 0.0517972 -8.34689e-19)
(1.14862 0.0354194 -2.07971e-18)
(1.09648 0.0235487 4.15907e-18)
(1.05679 0.0109072 -8.04132e-18)
(0.995338 0.000505056 1.97284e-18)
(1.6808 0.476711 1.18722e-18)
(1.48371 0.320429 -3.37314e-18)
(1.38059 0.224146 -6.60556e-18)
(1.28282 0.158909 -3.21884e-18)
(1.23152 0.114218 -5.49504e-18)
(1.17211 0.0821155 3.00093e-18)
(1.13682 0.0560336 -8.68273e-19)
(1.08868 0.0370066 -5.57133e-19)
(1.05319 0.0170374 -5.08706e-18)
(0.994814 0.000271121 1.64217e-17)
(1.53605 0.621321 8.2301e-19)
(1.38648 0.417715 -1.52823e-17)
(1.31266 0.292231 -5.6492e-18)
(1.23477 0.207126 5.08903e-18)
(1.19709 0.148823 8.24305e-18)
(1.14745 0.106873 7.39506e-19)
(1.12006 0.0728545 -1.22494e-18)
(1.07764 0.0479488 4.7687e-18)
(1.0481 0.021996 1.7993e-17)
(0.994384 -0.000106275 -2.79284e-17)
(1.35882 0.723564 6.24834e-18)
(1.26737 0.486527 2.30322e-18)
(1.22939 0.340411 -4.13408e-18)
(1.17586 0.241241 -5.70405e-18)
(1.15483 0.173307 1.14508e-17)
(1.1172 0.124365 1.60102e-19)
(1.09948 0.0847255 -4.47244e-19)
(1.06412 0.0556203 8.30009e-18)
(1.04189 0.0254436 -3.71648e-17)
(0.994098 -0.000585481 4.80065e-17)
(1.16118 0.776474 -1.14687e-17)
(1.13451 0.522171 1.77866e-17)
(1.13647 0.365382 1.93857e-17)
(1.11008 0.258918 2.01623e-17)
(1.10764 0.185981 -1.20292e-18)
(1.08341 0.133387 2.35736e-21)
(1.0765 0.0908209 -5.06004e-17)
(1.04906 0.059497 1.96268e-17)
(1.03499 0.0271383 -2.41862e-17)
(0.993983 -0.00110468 -2.55126e-18)
(0.956598 0.776455 -1.43701e-17)
(0.996938 0.522209 8.69767e-18)
(1.04023 0.365433 1.63313e-17)
(1.04195 0.258931 2.28455e-17)
(1.05874 0.185966 -6.26188e-18)
(1.0484 0.133307 -1.62921e-17)
(1.05269 0.0907149 -2.97578e-18)
(1.03349 0.0593067 -2.7322e-18)
(1.02786 0.0269639 -1.97251e-17)
(0.994045 -0.00160514 -7.76605e-18)
(0.759013 0.723512 4.64868e-18)
(0.864044 0.486637 -5.30334e-18)
(0.947239 0.340547 -2.0581e-17)
(0.9761 0.24127 -2.49609e-17)
(1.01149 0.173246 -1.72959e-17)
(1.01457 0.12412 5.52947e-19)
(1.02969 0.0844004 1.5235e-17)
(1.01848 0.0550607 -6.62174e-18)
(1.02101 0.024926 5.02892e-17)
(0.994261 -0.00202814 -6.9846e-17)
(0.581878 0.621259 -6.2727e-18)
(0.744889 0.417873 -1.87281e-17)
(0.863849 0.292412 -3.07224e-17)
(0.91705 0.207124 -1.51828e-17)
(0.9691 0.148679 2.57122e-17)
(0.984244 0.10644 3.90665e-18)
(1.00907 0.0722997 -5.24213e-19)
(1.00505 0.04704 -2.31271e-18)
(1.0149 0.0211609 5.25433e-18)
(0.994596 -0.0023353 -8.88326e-18)
(0.437265 0.476664 -2.03619e-18)
(0.647599 0.320603 7.18994e-18)
(0.795761 0.224306 -2.01812e-17)
(0.868836 0.158819 -1.49954e-17)
(0.934501 0.11393 -1.41447e-17)
(0.959496 0.081466 1.52897e-17)
(0.992263 0.0552284 -6.67476e-18)
(0.99412 0.0357868 5.5028e-18)
(1.00995 0.0159179 3.63232e-17)
(0.994995 -0.00250405 -6.76094e-18)
(0.335017 0.299582 8.79118e-20)
(0.578814 0.201457 8.44935e-18)
(0.747624 0.140871 3.86287e-18)
(0.834762 0.0996426 1.23443e-17)
(0.910057 0.071367 7.8808e-18)
(0.942032 0.0508939 -1.39592e-17)
(0.980416 0.0343456 -1.09375e-17)
(0.986449 0.0220584 -9.24935e-18)
(1.00651 0.00954839 9.47384e-18)
(0.99541 -0.00253874 -1.27053e-17)
(0.282104 0.102078 -8.62542e-19)
(0.543225 0.0685592 3.08064e-18)
(0.722736 0.0477996 -2.94521e-19)
(0.817163 0.0336346 -4.66514e-18)
(0.897456 0.0238927 3.82998e-20)
(0.933053 0.0168074 7.58778e-20)
(0.974356 0.0110708 6.58553e-18)
(0.982559 0.00678297 -2.50104e-18)
(1.00481 0.00247805 1.20612e-17)
(0.995793 -0.00246193 4.72933e-18)
(0.282126 -0.102394 -2.59031e-19)
(0.543266 -0.0690307 -1.6907e-18)
(0.722798 -0.0485581 3.6792e-18)
(0.817252 -0.0347009 -3.9361e-18)
(0.897564 -0.0252517 -2.4862e-18)
(0.933185 -0.0184709 2.19082e-18)
(0.974502 -0.0130108 1.30463e-17)
(0.982726 -0.00900842 -9.92982e-18)
(1.00497 -0.00481921 8.22179e-18)
(0.996119 -0.00231399 8.60744e-18)
(0.335091 -0.299902 -1.85575e-18)
(0.578935 -0.201929 -2.50134e-18)
(0.747816 -0.141624 1.91813e-17)
(0.835025 -0.100697 1.65329e-17)
(0.910385 -0.0727088 -1.39462e-17)
(0.942423 -0.052534 -3.90599e-18)
(0.980858 -0.0362573 -6.43509e-18)
(0.986943 -0.024248 2.0612e-17)
(1.00701 -0.0118535 -2.79078e-17)
(0.996374 -0.00214184 -4.77665e-18)
(0.437391 -0.47699 2.23493e-18)
(0.647808 -0.321073 -2.74596e-18)
(0.796082 -0.225047 -1.21896e-17)
(0.869278 -0.159848 -1.13695e-17)
(0.935043 -0.115237 -2.30115e-17)
(0.960147 -0.0830574 7.14762e-18)
(0.992993 -0.057084 -3.07497e-18)
(0.994938 -0.0379041 -9.40728e-19)
(1.01078 -0.018152 -2.87741e-17)
(0.996577 -0.00199007 5.25912e-17)
(0.582069 -0.621589 -1.04963e-18)
(0.745189 -0.418338 -3.45273e-17)
(0.864308 -0.293131 -1.22977e-17)
(0.917669 -0.208115 6.49674e-18)
(0.969862 -0.149931 8.13528e-18)
(0.985146 -0.107959 1.59839e-18)
(1.01009 -0.0740693 4.25837e-19)
(1.00617 -0.0490521 9.03702e-18)
(1.01604 -0.0232882 4.11396e-17)
(0.996753 -0.00189305 -6.52976e-17)
(0.759273 -0.723846 8.39666e-18)
(0.864446 -0.487088 -6.64044e-18)
(0.947836 -0.341233 -1.18513e-17)
(0.9769 -0.242202 -1.3048e-17)
(1.01246 -0.174422 1.73862e-17)
(1.01572 -0.125539 3.58502e-18)
(1.03098 -0.0860557 1.24983e-17)
(1.0199 -0.0569329 1.54804e-17)
(1.02245 -0.026914 -4.78436e-17)
(0.996951 -0.00186403 6.8796e-17)
(0.956943 -0.776784 -1.11405e-17)
(0.997448 -0.522638 1.76435e-17)
(1.04097 -0.366068 2.01673e-17)
(1.04292 -0.259786 2.06307e-17)
(1.05993 -0.18704 4.08515e-18)
(1.04979 -0.1346 5.71244e-18)
(1.05424 -0.0922236 -5.53642e-17)
(1.03519 -0.0610099 2.74067e-17)
(1.02959 -0.0287776 -3.35138e-17)
(0.997213 -0.0018969 1.03179e-17)
(1.16162 -0.776791 -1.12263e-17)
(1.13513 -0.52256 1.1976e-17)
(1.13736 -0.365948 2.2268e-17)
(1.11123 -0.25967 2.91406e-17)
(1.10902 -0.186929 2.45389e-19)
(1.08502 -0.134524 -1.32823e-17)
(1.0783 -0.0921543 -1.20995e-17)
(1.05102 -0.060998 -5.23095e-19)
(1.03698 -0.0287476 -2.95108e-17)
(0.997581 -0.00195879 3.10809e-18)
(1.35936 -0.723851 5.19445e-18)
(1.26812 -0.48686 9.42904e-19)
(1.23042 -0.340882 -5.31689e-18)
(1.17717 -0.241868 -7.86197e-18)
(1.1564 -0.174098 -1.25191e-17)
(1.11901 -0.12532 -3.28298e-18)
(1.1015 -0.0858498 6.60789e-18)
(1.06631 -0.0568929 -6.71592e-18)
(1.04413 -0.026814 2.83237e-17)
(0.998075 -0.00200391 -4.77126e-17)
(1.53671 -0.621565 -1.76486e-18)
(1.38734 -0.417968 -9.26974e-18)
(1.31382 -0.292587 -1.40775e-17)
(1.23624 -0.207598 -6.33445e-18)
(1.19882 -0.149431 1.02098e-17)
(1.14945 -0.107614 -6.74239e-19)
(1.12227 -0.0737418 4.42112e-19)
(1.08003 -0.0489603 -3.40034e-18)
(1.05055 -0.0230992 3.09989e-18)
(0.998694 -0.00197057 -1.05561e-17)
(1.68158 -0.476884 -1.58037e-18)
(1.48469 -0.320583 -1.99607e-19)
(1.38188 -0.224358 -1.09857e-17)
(1.28441 -0.159206 -8.11346e-18)
(1.2334 -0.114614 -5.73375e-18)
(1.17425 -0.0826186 5.77675e-18)
(1.1392 -0.0566515 -9.98757e-19)
(1.09125 -0.0377324 2.13601e-18)
(1.05582 -0.01784 1.24674e-17)
(0.999409 -0.00180415 -2.59565e-18)
(1.7841 -0.299661 -9.38235e-19)
(1.55352 -0.201337 7.53545e-19)
(1.42995 -0.140852 -3.11247e-18)
(1.31841 -0.0999915 -3.00551e-19)
(1.25778 -0.0720277 -5.31853e-20)
(1.19175 -0.0520333 -2.36398e-18)
(1.15113 -0.0357443 -2.79968e-18)
(1.09919 -0.023958 -1.50599e-18)
(1.05957 -0.0113841 5.66563e-18)
(1.00017 -0.00145464 -2.92347e-18)
(1.83728 -0.101959 -5.9891e-19)
(1.58915 -0.0683593 8.24014e-19)
(1.45478 -0.0477609 -2.32254e-18)
(1.33593 -0.0339972 -1.13935e-18)
(1.27031 -0.0245727 6.61953e-19)
(1.20073 -0.0179449 -1.3733e-18)
(1.15725 -0.0124374 -1.59862e-18)
(1.10332 -0.00856744 -1.11231e-18)
(1.06155 -0.004155 3.94269e-18)
(1.00089 -0.00090085 -6.07788e-19)
(1.8375 0.102754 -2.36699e-19)
(1.58917 0.0692947 1.14219e-18)
(1.45468 0.048569 -2.52034e-18)
(1.33578 0.0342843 -1.78374e-18)
(1.27014 0.0245144 1.68344e-18)
(1.2006 0.0173317 -1.40218e-19)
(1.15714 0.0116829 -8.05522e-19)
(1.10335 0.00740499 -6.63354e-19)
(1.06161 0.0033626 3.9872e-18)
(1.00151 -0.000142473 -6.91547e-19)
(1.78474 0.300534 5.21467e-21)
(1.55357 0.202244 1.99685e-18)
(1.42967 0.141582 -2.85854e-18)
(1.31798 0.100201 -3.51712e-18)
(1.25729 0.0718992 4.19467e-18)
(1.19136 0.0513962 8.6289e-19)
(1.15082 0.0349854 2.14384e-18)
(1.09926 0.0228762 -4.3989e-18)
(1.05975 0.0106699 8.38589e-18)
(1.00194 0.000782494 -1.95164e-18)
(1.68259 0.4779 -1.21098e-18)
(1.48479 0.321438 3.36856e-18)
(1.38146 0.224943 6.63614e-18)
(1.28375 0.159275 3.25414e-18)
(1.23264 0.114359 5.59163e-18)
(1.17364 0.0819406 -3.06422e-18)
(1.13871 0.0558878 8.87219e-19)
(1.09132 0.0368026 5.33233e-19)
(1.05607 0.0172723 5.37429e-18)
(1.0021 0.0018147 -1.69846e-17)
(1.538 0.622767 -8.3629e-19)
(1.38752 0.418757 1.53319e-17)
(1.31335 0.292989 5.65927e-18)
(1.23544 0.207491 -5.13784e-18)
(1.19788 0.149019 -8.32004e-18)
(1.14866 0.106893 -7.70611e-19)
(1.12163 0.0729823 1.2163e-18)
(1.08007 0.0482378 -4.84591e-18)
(1.05083 0.0227299 -1.82748e-17)
(1.00197 0.00286605 2.85344e-17)
(1.36084 0.725251 -6.26757e-18)
(1.26839 0.487579 -2.31464e-18)
(1.22997 0.34109 4.11977e-18)
(1.17632 0.241582 5.70229e-18)
(1.15537 0.17353 -1.15327e-17)
(1.11811 0.124569 -1.85659e-19)
(1.10075 0.0851124 4.3999e-19)
(1.06626 0.0564098 -8.37235e-18)
(1.04438 0.0266705 3.76329e-17)
(1.00153 0.00384352 -4.84822e-17)
(1.16317 0.778369 1.14592e-17)
(1.13551 0.523218 -1.78105e-17)
(1.13701 0.36599 -1.9426e-17)
(1.11044 0.259239 -2.02036e-17)
(1.10801 0.186246 1.18883e-18)
(1.08406 0.133778 -2.86031e-21)
(1.07747 0.0914697 5.07564e-17)
(1.05083 0.0607639 -1.96854e-17)
(1.03714 0.0288337 2.43712e-17)
(1.00082 0.00464957 2.4681e-18)
(0.958465 0.778487 1.43556e-17)
(0.997941 0.523255 -8.69443e-18)
(1.0408 0.366 -1.63187e-17)
(1.04225 0.259278 -2.28267e-17)
(1.05901 0.186311 6.25434e-18)
(1.04882 0.133908 1.62615e-17)
(1.05338 0.0916296 2.93616e-18)
(1.03482 0.0610098 2.65088e-18)
(1.0296 0.0290713 1.96468e-17)
(0.999878 0.0052054 7.59179e-18)
(0.760688 0.725598 -4.65399e-18)
(0.865054 0.487688 5.30564e-18)
(0.947871 0.341134 2.05686e-17)
(0.976414 0.241708 2.49203e-17)
(1.0117 0.173742 1.72452e-17)
(1.0148 0.124963 -5.78417e-19)
(1.0301 0.085598 -1.52226e-17)
(1.01932 0.0571353 6.51347e-18)
(1.02228 0.0273754 -5.00887e-17)
(0.998806 0.00545341 6.93324e-17)
(0.583323 0.623296 6.26187e-18)
(0.745893 0.418948 1.86978e-17)
(0.86456 0.293092 3.06619e-17)
(0.917385 0.207737 1.51335e-17)
(0.969278 0.149401 -2.56031e-17)
(0.984273 0.107562 -3.88907e-18)
(1.00922 0.073792 5.07781e-19)
(1.00539 0.0494119 2.24036e-18)
(1.01567 0.0238634 -5.22468e-18)
(0.997695 0.00537118 8.67536e-18)
(0.438459 0.478556 2.03545e-18)
(0.648578 0.321718 -7.17417e-18)
(0.79652 0.225152 2.01164e-17)
(0.869175 0.159685 1.49227e-17)
(0.934623 0.114958 1.40883e-17)
(0.959326 0.0829 -1.51669e-17)
(0.992129 0.0570281 6.64178e-18)
(0.993956 0.0383737 -5.47616e-18)
(1.01022 0.0187839 -3.59266e-17)
(0.996652 0.00497027 6.69757e-18)
(0.335979 0.301239 -8.2017e-20)
(0.579728 0.202622 -8.42223e-18)
(0.748375 0.141941 -3.84958e-18)
(0.835044 0.100827 -1.22963e-17)
(0.910076 0.0727592 -7.83653e-18)
(0.941632 0.0526621 1.38693e-17)
(0.979988 0.0364515 1.08262e-17)
(0.985801 0.024782 9.11969e-18)
(1.00629 0.0124883 -9.34331e-18)
(0.995766 0.00429781 1.25836e-17)
(0.282864 0.103435 8.72456e-19)
(0.544038 0.0697761 -3.06165e-18)
(0.723396 0.0491277 3.00124e-19)
(0.817315 0.0351699 4.64835e-18)
(0.897295 0.0256783 -2.94365e-20)
(0.932389 0.0189087 -7.51278e-20)
(0.973606 0.0134683 -6.53173e-18)
(0.981476 0.00957142 2.46757e-18)
(1.00414 0.00541507 -1.18991e-17)
(0.995111 0.00342502 -4.60733e-18)
)
;

boundaryField
{
    out
    {
        type            fixedValue;
        value           uniform (1 0 0);
    }
    in
    {
        type            myVelocity;
    }
    frontAndBack
    {
        type            empty;
    }
}


// ************************************************************************* //
