/*--------------------------------*- C++ -*----------------------------------*\
| =========                 |                                                 |
| \\      /  F ield         | foam-extend: Open Source CFD                    |
|  \\    /   O peration     | Version:  3.0                                   |
|   \\  /    A nd           | Web:         http://www.extend-project.de       |
|    \\/     M anipulation  |                                                 |
\*---------------------------------------------------------------------------*/
FoamFile
{
    version     2.0;
    format      ascii;
    class       volSymmTensorField;
    location    "5";
    object      sigma;
}
// * * * * * * * * * * * * * * * * * * * * * * * * * * * * * * * * * * * * * //

dimensions      [0 0 0 0 0 0 0];

internalField   nonuniform List<symmTensor> 
3012
(
(0.0151921 -0.0234729 -0.012324 0.0284065 -0.00793186 1.06056e-18)
(0.0394248 -0.0249146 0.0180022 -0.0475148 0.0159292 5.83681e-18)
(0.0479918 -0.0744363 -0.01173 -0.0929067 -0.0075689 4.78785e-19)
(0.0340867 -0.0669223 0.0195382 -0.0247474 0.0177861 3.64254e-19)
(0.0828585 -0.235397 0.0351307 -0.0849397 0.0736601 2.50855e-19)
(-0.0187498 -0.0573253 -0.0336445 0.0376614 -0.0197705 9.32773e-19)
(0.0297993 0.0386822 0.0312492 -0.0274012 0.0683014 3.19057e-17)
(0.130977 -0.145436 -0.0337091 -0.15014 -0.0195951 1.54004e-18)
(0.0429329 0.0143334 -0.00530051 -0.0114785 -0.0139054 3.06196e-18)
(0.046218 0.0111005 0.00149022 -0.0786964 -0.00828892 2.44641e-18)
(0.0311343 -0.0452408 0.00302329 0.00172274 -0.00784485 6.12697e-19)
(0.0200688 -0.0551189 -0.00499384 -0.051882 -0.0144604 3.63247e-20)
(0.0154039 -0.0743237 0.00456885 -0.0170482 0.00485166 1.96785e-18)
(0.0206641 -0.0564422 -0.00549703 0.0166883 -0.001944 3.6556e-19)
(0.0057932 -0.0664083 -0.00516258 -0.0445102 -0.00164273 2.50705e-19)
(0.0154789 -0.0458964 0.0045657 -0.0125287 0.00523327 6.54494e-20)
(0.0869305 -0.222317 0.0271499 -0.0905441 0.0583465 2.51895e-19)
(-0.0270699 -0.0547523 -0.0307982 0.0462597 -0.018414 9.79694e-19)
(0.018414 0.0388096 0.0246167 -0.0144172 0.053298 2.63228e-17)
(0.13291 -0.133704 -0.0311494 -0.15241 -0.0184542 1.5054e-18)
(0.0144885 -0.0340358 -0.00494664 -0.0231914 -0.00427818 -1.75156e-19)
(0.0524401 -0.0554821 -0.00412342 -0.0339011 -0.00350971 6.27858e-20)
(0.0200928 -0.0262441 -0.00408116 -0.0389733 -0.00319444 -2.52551e-20)
(0.0609043 -0.0517829 -0.00297735 -0.0518324 -0.00268585 3.16574e-19)
(0.0753212 -0.0671225 -0.0179232 -0.117893 -0.00799598 7.39045e-19)
(0.0538197 -0.00829881 0.0180218 -0.0551858 0.0237255 8.23376e-18)
(0.0408354 -0.0780192 0.0194623 -0.0384465 0.0260425 3.27123e-19)
(0.0126773 -0.0257607 -0.0183124 0.0288509 -0.00847108 9.62996e-19)
(0.014075 -0.0198068 -0.00233595 0.0207142 -0.00537352 7.97484e-19)
(-0.0269782 -0.0555555 -0.00227925 -0.00900404 -0.00589675 1.01442e-19)
(0.0162981 -0.0364614 0.00711431 0.0039525 -6.67687e-05 1.83913e-19)
(-0.0223663 -0.0357155 0.0062768 0.00323639 -0.000602513 1.62279e-18)
(0.0117082 -0.0373113 0.00710617 0.00524228 0.00106617 1.51281e-19)
(-0.0294066 -0.0595707 -0.00212684 -0.00568818 -0.00456076 1.08197e-19)
(0.00811278 -0.0268808 -0.00227403 0.0257979 -0.00419099 6.38826e-19)
(-0.0263768 -0.0459704 0.00637071 0.0105354 0.000481847 1.54267e-18)
(0.058042 0.00124244 0.0219347 -0.0601045 0.0275974 9.26615e-18)
(0.084266 -0.0708278 -0.0198089 -0.124647 -0.00929745 7.69394e-19)
(0.00933239 -0.0226669 -0.0202521 0.0300757 -0.00984487 1.00394e-18)
(0.0428247 -0.086556 0.0236941 -0.0398759 0.0301916 3.64831e-19)
(0.0112006 -0.0828289 0.00239931 -0.0119463 0.00259816 1.09006e-18)
(0.00123644 -0.0675654 -0.0035779 -0.0294933 -0.00104556 1.5428e-19)
(0.0123648 -0.0457959 0.00215505 -0.0105907 0.00264931 1.29085e-20)
(0.0189486 -0.0634927 -0.00394043 0.00824633 -0.00139385 1.99309e-19)
(0.0129191 -0.040111 0.00773461 0.00197488 0.00265659 1.4487e-19)
(-0.0192194 -0.05253 0.00702212 0.00554264 0.00196768 1.73297e-18)
(0.00964086 -0.0325442 -0.00271208 0.0259084 -0.00371446 6.07119e-19)
(-0.0226952 -0.0633854 -0.00244917 -0.0141653 -0.0039086 1.35132e-19)
(-0.0375104 -0.0529186 0.00321592 0.029631 0.000599282 7.1524e-19)
(-0.0371107 -0.0524175 -0.000988495 0.0160798 -0.00165672 5.88964e-20)
(-0.009638 -0.0338724 -0.00117702 0.0299662 -0.00157962 2.49567e-19)
(-0.00462416 -0.030001 0.00367187 0.0131614 0.00109699 5.40952e-20)
(0.0164923 -0.0256843 -0.0114647 0.0279485 -0.00693552 9.93692e-19)
(0.0358621 -0.0290675 0.0163145 -0.0434972 0.0146112 5.40273e-18)
(0.0332262 -0.0633742 0.017651 -0.0242759 0.0163048 3.23652e-19)
(0.0430212 -0.072422 -0.0109102 -0.0888319 -0.00660935 4.64567e-19)
(0.0150126 0.0180314 -0.000978168 -0.00345631 0.00169011 8.48665e-18)
(-0.0243125 -0.0640248 -0.0177897 0.0450186 -0.0165045 1.27793e-18)
(0.107956 -0.148722 -0.00146926 -0.119036 0.0023466 -1.2356e-20)
(0.176458 -0.0694429 -0.0192205 -0.197571 -0.0171345 1.76589e-18)
(0.0277479 0.0177031 0.00705683 -0.0187622 0.0157237 1.12926e-17)
(-0.0165827 -0.0623733 -0.0221351 0.0364374 -0.0177464 1.20304e-18)
(0.119138 -0.177131 0.0064449 -0.12764 0.0180167 1.29396e-19)
(0.1791 -0.0999624 -0.0233412 -0.199355 -0.0182963 1.53443e-18)
(0.0245327 -0.068976 0.00398327 -0.023906 0.00538268 2.24161e-18)
(0.0249965 -0.0545232 -0.00660648 0.0146431 -0.00223598 3.73146e-19)
(0.0133778 -0.0609691 -0.00633627 -0.0543811 -0.00189925 3.08572e-19)
(0.0177848 -0.0442343 0.00382675 -0.0170772 0.00567161 6.1246e-20)
(0.0276322 -0.0509197 -0.00543438 -0.0584279 -0.00220913 2.37479e-19)
(0.0259284 -0.0404984 -0.00193669 -0.031145 -0.000445924 -5.67831e-20)
(0.0522743 -0.0711345 -0.000714869 -0.0461826 0.000697733 1.05374e-18)
(0.0485661 -0.0611029 -0.00556651 -0.0185973 -0.00260389 1.26001e-19)
(-0.0430865 -0.0251053 -0.00285634 0.0191866 -0.00561433 2.02938e-20)
(-0.035899 -0.0131218 0.00104565 0.0163992 -0.00335351 6.30694e-19)
(0.00667552 -0.0173445 0.00152819 0.0134039 -0.00331341 8.82144e-20)
(0.00977165 -0.00841325 -0.00208817 0.0134872 -0.00461389 5.2646e-19)
(-0.0149146 -0.02159 -0.00142997 0.0337516 -0.00307495 2.40475e-19)
(-0.0579491 -0.0409318 -0.00199085 0.0385648 -0.00392034 2.45322e-20)
(-0.0534112 -0.0325703 0.00187284 0.0410229 -0.00184164 4.48239e-19)
(-0.0151411 -0.0271232 0.00215921 0.0279671 -0.00171201 3.15048e-20)
(0.0317705 -0.0590627 0.0050442 -0.0305074 0.00733232 2.96776e-18)
(0.0268612 -0.0477095 -0.00824815 0.0166673 -0.00282549 4.7278e-19)
(0.021695 -0.0434546 0.00501694 -0.0215905 0.00786878 8.74791e-20)
(0.0225994 -0.057367 -0.00799662 -0.0674475 -0.00247568 3.97078e-19)
(0.0107386 -0.0756786 -0.00366627 -0.0339469 -0.00117829 1.40622e-19)
(0.0130814 -0.0618304 -0.000913939 -0.0142543 -0.000222173 -7.23261e-20)
(0.0246857 -0.0960583 7.77898e-05 -0.0226625 0.000745217 5.60147e-19)
(0.0248395 -0.0834415 -0.00397944 -0.00241755 -0.00159346 5.97366e-20)
(-0.0026014 -0.0284488 0.00404573 0.015488 5.72875e-06 7.54786e-20)
(-0.044088 -0.0497104 -0.0014047 0.0187293 -0.00315425 6.10956e-20)
(-0.00518558 -0.0266857 -0.00139588 0.0297584 -0.00274847 3.68046e-19)
(-0.041503 -0.044708 0.00354258 0.0293691 -0.000423087 8.4989e-19)
(0.0531755 0.00986915 -0.000480036 -0.0865303 -0.00909295 2.36495e-18)
(0.0451176 0.0139901 -0.00548236 -0.0151646 -0.0136145 3.38718e-18)
(0.0302082 -0.0460966 0.00103026 0.00338427 -0.00866497 6.43031e-19)
(0.0230734 -0.0569999 -0.00522853 -0.0532361 -0.0141453 2.74938e-20)
(0.00920057 -0.0526217 -0.0191381 0.0261009 -0.0123129 8.56538e-19)
(0.0485512 -0.0981114 -0.000936956 -0.0611917 0.0111147 1.28924e-19)
(0.0565969 0.00501962 -0.000718994 -0.0431965 0.00968375 8.90019e-18)
(0.104763 -0.0432612 -0.0197978 -0.140725 -0.012218 1.5347e-18)
(0.0281312 -0.0541663 -0.00495065 -0.0556825 -0.00221188 1.98896e-19)
(0.0270042 -0.0435318 -0.00243533 -0.0317309 -0.0012592 -7.57498e-20)
(0.0516903 -0.0749829 -0.00105427 -0.0461594 0.000117936 7.95979e-19)
(0.0486252 -0.0646347 -0.00510326 -0.0218442 -0.00260605 9.21415e-20)
(-0.0469724 -0.0231056 -0.00289478 0.0256585 -0.00517767 1.42399e-20)
(0.00086438 -0.0156906 0.000960228 0.0171475 -0.00316944 6.24248e-20)
(-0.0403373 -0.0131877 0.000539139 0.0228401 -0.0031698 4.9424e-19)
(0.00369895 -0.00858205 -0.00203746 0.0170843 -0.00417503 4.11206e-19)
(0.0231657 -0.0180077 -0.00262792 -0.0393059 -0.00305726 -1.68272e-19)
(0.0679226 -0.0382524 -0.00339178 -0.0589807 -0.00341624 6.76197e-20)
(0.0646365 -0.0344483 -0.00268796 -0.0486139 -0.00335701 4.18647e-20)
(0.0246073 -0.0175502 -0.00611066 -0.0333781 -0.00630869 -2.82955e-19)
(0.0101107 -0.0401222 -0.00316628 0.0250395 -0.00275561 5.06699e-19)
(-0.0171623 -0.0667764 -0.00281963 -0.0193431 -0.00277315 1.54297e-19)
(-0.0130915 -0.0610604 0.0066515 0.00296455 0.00303633 1.73354e-18)
(0.0123745 -0.0424896 0.00722151 -0.000980707 0.00373618 1.32968e-19)
(-0.0346414 -0.00467154 -0.00297077 0.0314596 -0.00350087 3.27263e-20)
(0.000100732 -0.00466759 -0.00276407 0.00310715 -0.00334683 -1.57678e-21)
(-0.0388882 -0.00657544 -0.00231452 0.0356789 -0.00253602 -3.18583e-21)
(0.0030148 -0.00343066 -0.0016706 0.00016396 -0.00190134 2.93711e-20)
(0.0291204 -0.0507792 -0.004336 -0.0247947 -0.00368118 -5.91377e-21)
(0.0376397 -0.0649168 -0.00218622 -0.0363422 -0.00169439 5.37399e-20)
(0.0119805 -0.0239113 -0.00318579 -0.0131329 -0.00252964 -3.32366e-20)
(0.0194389 -0.0371076 -0.00417724 -0.0238971 -0.00347001 2.71864e-20)
(0.0860846 0.0374203 0.0343728 -0.0972711 0.0185018 7.87753e-18)
(0.00310938 0.00420077 -0.0221791 0.0278061 -0.0240163 1.49573e-18)
(0.076337 -0.0815296 -0.0209172 -0.10802 -0.0230819 4.24399e-19)
(0.0206814 -0.100226 0.0374349 -0.00882156 0.0210695 6.61708e-19)
(0.167895 0.0899451 0.0219933 -0.178666 -0.00143268 4.1337e-18)
(-0.0506668 -0.0949427 0.0251736 0.061738 0.000830357 1.5821e-18)
(0.088655 -0.0481553 -0.0367599 -0.105637 -0.0524565 -3.45751e-19)
(-0.0262246 0.0288605 -0.0393977 0.0428858 -0.0550442 1.57133e-18)
(0.0895144 0.0554385 0.0391207 -0.0979042 0.0275531 9.57241e-18)
(0.00292204 0.00424786 -0.0272044 0.0266353 -0.0243135 1.2883e-18)
(0.0260968 -0.112442 0.0423066 -0.0170728 0.0304455 5.26538e-19)
(0.0884988 -0.0798559 -0.026095 -0.11878 -0.0233001 5.23889e-19)
(0.16965 0.0644453 0.0115058 -0.181253 -0.00862364 3.28451e-18)
(0.0817656 -0.0648444 -0.0370288 -0.0968328 -0.0543888 -7.35648e-19)
(-0.0725184 -0.093966 0.014423 0.0842893 -0.00662838 2.22453e-18)
(-0.0375478 0.0133685 -0.0401169 0.0524451 -0.0570021 1.87968e-18)
(0.0697178 -0.065927 -0.0165595 -0.113563 -0.00713279 6.75684e-19)
(0.0389479 -0.0728385 0.0188262 -0.0355788 0.0242642 3.18354e-19)
(0.0150237 -0.0264415 -0.0169802 0.0276805 -0.00761119 9.55484e-19)
(0.0528901 -0.0133813 0.0174059 -0.0551617 0.0220331 7.43298e-18)
(0.0829999 -0.091193 -0.019078 -0.0981865 -0.0342223 -5.19562e-19)
(-0.0515738 -0.0716574 -0.00159768 0.0680338 -0.0129732 1.90175e-18)
(-0.0194123 0.0268294 -0.0212222 0.0347644 -0.034069 3.66969e-18)
(0.168538 0.0342368 -0.00391016 -0.185125 -0.0142267 2.59295e-18)
(0.0745243 -0.085504 -0.0232897 -0.0918408 -0.0415922 -5.12054e-19)
(-0.0478789 -0.0829613 0.00716305 0.0636429 -0.0100453 1.86379e-18)
(-0.0202056 0.0204089 -0.025698 0.0374584 -0.0425505 2.86525e-18)
(0.146825 0.0407987 0.00468585 -0.162532 -0.0115106 3.08179e-18)
(-0.00950242 -0.0343866 0.00276295 0.0135743 0.00174309 3.25415e-20)
(-0.0142379 -0.0420905 -0.000897369 0.0270324 -0.000667558 1.41372e-19)
(-0.0305583 -0.0583792 0.00237697 0.0269272 0.00125261 4.85085e-19)
(-0.0292697 -0.0542332 -0.000546734 0.0160027 -0.000446406 4.53925e-20)
(-0.0359516 -0.0513371 0.00379877 0.026312 0.000581833 8.67324e-19)
(-0.0369054 -0.0528758 -0.00125604 0.012314 -0.00222614 6.90621e-20)
(-0.00569065 -0.0322236 -0.00141329 0.0294138 -0.00204839 3.1472e-19)
(-0.001567 -0.0304546 0.00430635 0.0119771 0.0011027 6.86741e-20)
(0.0119693 -0.0164761 -0.00194637 -0.0265034 -0.00279359 -1.1479e-19)
(0.0432444 -0.0242671 -0.00201579 -0.0287521 -0.00309911 -1.36102e-20)
(0.00434735 -0.014763 -0.00676981 -0.0134443 -0.0075655 -1.49405e-19)
(0.0548527 -0.0301793 -0.00387615 -0.0456876 -0.00432745 -1.55075e-19)
(0.00101298 -0.0238601 -0.0264024 0.0328573 -0.0127289 9.7119e-19)
(0.0630172 0.0204652 0.026963 -0.0630977 0.0382345 1.2868e-17)
(0.105194 -0.0765543 -0.026032 -0.139793 -0.0121521 9.46265e-19)
(0.0484774 -0.112496 0.0294102 -0.047697 0.0415741 3.50781e-19)
(0.0117118 -0.035926 0.00676547 0.00639098 0.000350482 1.54662e-19)
(-0.030791 -0.0562577 -0.00208869 -0.00377117 -0.00496875 9.84556e-20)
(0.00910684 -0.0236714 -0.00216747 0.0242961 -0.00452135 6.70764e-19)
(-0.026982 -0.040777 0.00603179 0.00994649 -0.000178295 1.48312e-18)
(0.0834856 -0.100678 -0.0135088 -0.099036 -0.0245798 -3.21871e-19)
(0.161011 0.00862039 -0.00851546 -0.180684 -0.0145701 2.3957e-18)
(-0.00329745 0.0230139 -0.014525 0.0191257 -0.0243446 4.74527e-18)
(-0.0343352 -0.0694208 -0.00651593 0.0537812 -0.0135882 1.66788e-18)
(-0.00319021 0.0234394 -0.0198172 0.0246504 -0.0366637 2.86766e-18)
(0.0647654 -0.0791033 -0.0175969 -0.0864223 -0.0359091 -2.74766e-19)
(-0.0220823 -0.0791937 0.0116273 0.0404461 -0.0082169 1.45493e-18)
(0.117257 0.0404485 0.00909155 -0.135461 -0.00962896 3.66432e-18)
(0.000634082 -0.0181445 -0.0271006 0.0325052 -0.0153724 1.02876e-18)
(0.0649301 0.0269405 0.0310217 -0.067276 0.039168 1.23235e-17)
(0.10335 -0.0838579 -0.0265799 -0.1372 -0.0147395 8.46395e-19)
(0.0464866 -0.116997 0.0337296 -0.0434915 0.0425262 5.04874e-19)
(0.00775897 -0.0309965 -0.00425679 -0.0286681 -0.00380306 4.23271e-21)
(0.0457275 -0.036551 -0.00635888 -0.00552765 -0.00610072 3.25102e-19)
(0.0611502 -0.0194625 -0.00326905 -0.039898 -0.0029805 2.40999e-18)
(0.0279139 -0.0121978 -0.00684786 -0.0683572 -0.00586118 8.57308e-19)
(0.0581012 -0.0116165 -0.0035992 -0.033825 -0.00498823 2.19324e-18)
(0.0218534 -0.00491407 -0.00498613 -0.0602629 -0.00646642 9.69526e-19)
(0.00243203 -0.0280375 -0.00450211 -0.0266574 -0.00599484 3.52053e-21)
(0.0442802 -0.0322862 -0.00436311 -0.00584614 -0.00661984 3.30581e-19)
(0.014948 -0.0156421 -0.00230715 -0.0321018 -0.00307251 -7.11782e-20)
(0.0517175 -0.0283356 -0.00233126 -0.0346648 -0.00337223 2.34305e-20)
(0.01062 -0.015813 -0.00625102 -0.0208442 -0.00690603 -1.857e-19)
(0.0597595 -0.0318944 -0.00360934 -0.0494201 -0.003981 5.55583e-20)
(-0.0118575 -0.0291922 0.00777603 -0.00976774 -0.000612228 2.086e-18)
(-0.0166979 -0.0574583 -0.00274779 -0.0224637 -0.00753469 1.21742e-19)
(0.0206409 -0.0142836 -0.00292182 0.0172436 -0.0070302 1.0661e-18)
(0.0238182 -0.0391441 0.00882899 -0.000992906 2.36349e-05 2.51685e-19)
(0.0268731 -0.0699757 0.00344607 -0.0251285 0.00487637 2.14429e-18)
(0.0261537 -0.0560292 -0.00661756 0.0129058 -0.00215843 3.42475e-19)
(0.0179111 -0.043094 0.00319093 -0.0183572 0.00500191 4.79538e-20)
(0.0150706 -0.0591841 -0.0063652 -0.0554344 -0.0017964 3.12607e-19)
(0.0143399 -0.0718668 0.00526696 -0.0169422 0.00531282 2.12077e-18)
(0.00570485 -0.0668218 -0.00526447 -0.0455861 -0.00181764 2.52658e-19)
(0.0201949 -0.0538162 -0.00561582 0.0183203 -0.00209721 4.07654e-19)
(0.0164165 -0.0459822 0.00536944 -0.0124743 0.00581377 6.87512e-20)
(-0.0254368 -0.0666547 0.00202807 0.0238868 0.00185183 4.36654e-19)
(-0.0252993 -0.0584434 -0.000586654 0.0174746 -0.00023905 3.94166e-20)
(-0.0129949 -0.0416675 0.00229521 0.0148096 0.00224638 2.2524e-20)
(-0.0156596 -0.0535655 -0.000982085 0.0231924 -0.000586254 1.12692e-19)
(0.0390748 -0.0580795 -0.00226073 -0.0371525 -0.00181202 3.67072e-20)
(0.0307928 -0.0446461 -0.00452102 -0.0249339 -0.0035658 -4.50519e-21)
(0.0140346 -0.0277352 -0.00436444 -0.0200637 -0.00333792 1.45025e-20)
(0.00692651 -0.0153573 -0.00313541 -0.00866215 -0.00252459 -4.89292e-20)
(0.0251044 -0.05352 -0.00829574 -0.0698861 -0.00250231 4.20739e-19)
(0.0220359 -0.0420455 0.00420681 -0.0234187 0.00745239 7.06819e-20)
(0.03604 -0.0571297 0.00433167 -0.0333293 0.00700669 2.95523e-18)
(0.0295827 -0.0479792 -0.00848547 0.0138982 -0.00285737 4.47824e-19)
(-0.0286218 -0.00321598 -0.00321832 0.024184 -0.00403935 1.46394e-20)
(0.0147337 -0.00517879 -0.00181963 -0.0105213 -0.00219588 7.57413e-21)
(0.00870847 -0.00512006 -0.0030728 -0.00424493 -0.00391501 -6.91196e-21)
(-0.0353403 -0.00392369 -0.00250422 0.0310978 -0.00290662 -5.13711e-21)
(0.0162632 -0.0343608 0.00661979 0.00468825 -0.000808084 1.77306e-19)
(0.0145276 -0.0173918 -0.00223354 0.0191121 -0.00547014 8.01076e-19)
(-0.0243053 -0.0333497 0.00580111 0.00439478 -0.0012693 1.49577e-18)
(-0.029136 -0.0535289 -0.0022665 -0.00562769 -0.00605486 9.06539e-20)
(0.0524309 -0.0640607 -0.00227006 -0.0468625 -0.00157178 3.94988e-19)
(0.0437398 -0.0536216 -0.00485291 -0.0271512 -0.00351341 4.71826e-20)
(0.0122109 -0.0262666 -0.0035547 -0.0173325 -0.00256241 -6.51153e-20)
(0.0193515 -0.0358182 -0.00475672 -0.0363372 -0.00321476 8.83515e-20)
(0.0113909 -0.0139128 -0.00210054 0.00142705 -0.00418408 2.94596e-20)
(-0.0392477 -0.0112734 -0.00326968 0.0272891 -0.00459407 -8.07863e-21)
(0.0180425 -0.0112156 -0.0022462 -0.00628602 -0.00342649 2.11675e-19)
(-0.0311987 -0.0066215 -0.00235668 0.0185725 -0.00420335 1.83935e-19)
(-0.0175914 -0.0536021 -0.00270887 -0.0205828 -0.00790935 1.07022e-19)
(-0.01092 -0.0243238 0.006976 -0.0121036 -0.00153157 1.96269e-18)
(0.0248104 -0.0369975 0.00800878 -0.000652702 -0.000970099 2.53958e-19)
(0.0236915 -0.0111679 -0.00280864 0.0132784 -0.00732598 1.11645e-18)
(0.0110049 -0.0338818 -0.00475395 -0.0209135 -0.00395371 -1.34899e-19)
(0.0500817 -0.0544608 -0.00440698 -0.0282035 -0.0036108 8.65513e-20)
(0.0176032 -0.0280795 -0.00440593 -0.0398243 -0.00329177 6.95991e-20)
(0.0586556 -0.0523734 -0.00295265 -0.0483373 -0.00252333 5.20527e-19)
(0.0616598 -0.0375319 -0.00327023 -0.0509105 -0.00322986 3.23617e-19)
(0.0176478 -0.017928 -0.00332541 -0.0378737 -0.00319703 -1.29723e-20)
(0.0132976 -0.0187085 -0.00545766 -0.0237841 -0.00542826 -1.98925e-19)
(0.0544336 -0.035241 -0.00333634 -0.034402 -0.00350069 6.34203e-20)
(0.00763275 -0.0316529 -0.00432064 -0.0296068 -0.0042801 1.08677e-20)
(0.0448903 -0.0365034 -0.00621414 -0.00444721 -0.00642907 3.51714e-19)
(0.0604628 -0.0171785 -0.00340315 -0.0381967 -0.00347762 2.54266e-18)
(0.0286809 -0.0104163 -0.00675773 -0.0693163 -0.00621691 9.4641e-19)
(0.0592734 -0.0124071 -0.00359521 -0.0354152 -0.00458657 2.45646e-18)
(0.00541891 -0.0307763 -0.0044632 -0.0291239 -0.00546898 1.10851e-20)
(0.026514 -0.00658479 -0.00582182 -0.0662218 -0.00656029 1.03207e-18)
(0.0442569 -0.0342881 -0.00518515 -0.00461639 -0.00672133 3.56128e-19)
(0.0896496 -0.0209981 -0.0147532 -0.127583 -0.0112148 1.62907e-18)
(0.0575195 0.00425375 -0.00383878 -0.0386541 -0.000727175 6.29911e-18)
(0.021818 -0.0503479 -0.013834 0.015594 -0.0112065 7.83808e-19)
(0.0407437 -0.0758668 -0.00415073 -0.0589755 -0.000364802 7.26037e-20)
(-0.0126345 -0.021009 0.00157792 0.0202113 -0.000787218 1.80769e-20)
(-0.0182591 -0.0252107 -0.000831555 0.0324661 -0.00150284 1.41925e-19)
(-0.0548662 -0.0455652 0.00121906 0.0476607 -0.00110033 3.51106e-19)
(-0.0537799 -0.0444978 -0.000956773 0.03913 -0.00181759 2.79653e-20)
(0.00728908 -0.0906684 0.000895328 -0.00759541 0.000766947 4.29387e-19)
(0.000523266 -0.0677726 -0.00222699 -0.0170031 -0.000748318 7.54168e-20)
(0.00854174 -0.0407703 0.000555642 -0.00759916 0.000533173 -1.48946e-20)
(0.0131452 -0.0661074 -0.00264945 0.00268245 -0.00118083 7.74678e-20)
(0.00732077 -0.0337364 -0.00449736 -0.0317756 -0.00574744 2.08222e-20)
(0.0601311 -0.0080903 -0.0037455 -0.0355206 -0.00497698 2.74674e-18)
(0.043442 -0.0350993 -0.0053968 -0.00328165 -0.00716428 3.96605e-19)
(0.0311532 -0.00429956 -0.00611727 -0.0713833 -0.00702555 1.14366e-18)
(0.0129442 -0.0820367 0.00310608 -0.0139274 0.00321734 1.38867e-18)
(0.00246996 -0.0681216 -0.00405429 -0.0348313 -0.00122119 1.88025e-19)
(0.013304 -0.0458034 0.00293952 -0.0111632 0.00333903 2.84677e-20)
(0.0199887 -0.0621896 -0.00440951 0.0112277 -0.00155117 2.55605e-19)
(0.019026 -0.0742023 0.00407267 -0.0195776 0.00472992 1.95193e-18)
(0.0224805 -0.0574394 -0.00573351 0.0148665 -0.00192375 3.45345e-19)
(0.0082199 -0.0649227 -0.0054234 -0.0469265 -0.00160512 2.61198e-19)
(0.0157339 -0.0458118 0.00398431 -0.0138642 0.00501649 5.39809e-20)
(0.0127306 -0.0230577 -0.014548 0.0299974 -0.00854113 1.0587e-18)
(0.0433795 -0.017731 0.0193382 -0.0497746 0.019326 6.65524e-18)
(0.0365704 -0.0718141 0.0209168 -0.0290399 0.0214647 3.68978e-19)
(0.0574339 -0.0732442 -0.0139593 -0.101393 -0.00809905 5.50886e-19)
(-0.00985645 -0.0360223 0.00260963 0.0132651 0.00180688 2.75874e-20)
(-0.0269979 -0.0564359 -0.000560094 0.0149752 -0.000333173 4.38567e-20)
(-0.0148199 -0.0448204 -0.000931108 0.0264047 -0.000596101 1.2893e-19)
(-0.0287692 -0.061592 0.00224987 0.0257705 0.00134154 4.63021e-19)
(0.0802442 0.0605914 0.0467238 -0.0833211 0.0507179 1.60305e-17)
(-0.00145122 -0.0122947 -0.0356697 0.0270886 -0.0240675 9.95236e-19)
(0.0485455 -0.155448 0.0505385 -0.0450418 0.0546527 3.17773e-19)
(0.119808 -0.100435 -0.0349719 -0.145939 -0.0232507 8.93785e-19)
(0.0798062 0.0607386 0.0469852 -0.0809901 0.0630997 2.06578e-17)
(0.0645814 -0.182854 0.0509942 -0.0630586 0.0675837 3.57288e-19)
(-0.000195607 -0.0232313 -0.038373 0.0232256 -0.0242003 9.08679e-19)
(0.13928 -0.113527 -0.0378864 -0.1627 -0.0235256 1.10586e-18)
(0.0100224 -0.0386586 0.00699518 0.00387184 0.00237101 1.25161e-19)
(0.00683874 -0.0329575 -0.00244831 0.02667 -0.00328268 5.37628e-19)
(-0.0223609 -0.0526533 0.00634703 0.00961293 0.00171685 1.54359e-18)
(-0.0255652 -0.0616597 -0.00219166 -0.0091725 -0.00346487 1.2123e-19)
(0.00776566 -0.0355106 -0.00451664 -0.0334895 -0.00663039 2.4608e-20)
(0.0589447 -0.00564919 -0.00386031 -0.0331417 -0.00585958 2.81255e-18)
(0.0423345 -0.0354328 -0.00485358 -0.00263196 -0.00737995 4.16902e-19)
(0.0323594 -0.00291658 -0.00566492 -0.0720726 -0.00729783 1.26017e-18)
(-0.0162457 -0.0604803 0.00615829 0.00614148 0.00256589 1.54369e-18)
(0.00735422 -0.0392291 -0.00274757 0.0256074 -0.00257387 4.64913e-19)
(-0.0199541 -0.0649527 -0.00242566 -0.0142659 -0.0026139 1.34139e-19)
(0.00969614 -0.0403335 0.00672127 0.00157477 0.00324054 1.04421e-19)
(0.0140167 -0.0258446 -0.0152276 0.0291426 -0.00748362 9.95436e-19)
(0.046837 -0.0186186 0.0184251 -0.0512764 0.019995 6.80562e-18)
(0.0371071 -0.0703061 0.0199476 -0.0315197 0.0221049 3.34306e-19)
(0.061545 -0.0695167 -0.0147303 -0.105911 -0.00702227 6.01579e-19)
(0.0863098 -0.0246232 -0.0156503 -0.125742 -0.01061 1.51901e-18)
(0.0602537 0.00110683 -0.00290242 -0.0427618 0.0022256 6.46009e-18)
(0.0231106 -0.0489626 -0.0148876 0.0157252 -0.0106959 7.61941e-19)
(0.0385665 -0.0739775 -0.00322901 -0.0553319 0.00282212 9.23082e-20)
(0.00295031 -0.00330823 -0.00231234 -0.0346771 -0.00549482 7.50771e-19)
(-0.0102386 -0.0217662 -0.00420883 -0.0141085 -0.00707072 -1.43858e-20)
(0.050114 -0.0098108 -0.00315878 -0.0260451 -0.00562368 1.26573e-18)
(0.0402482 -0.0255643 -0.00177772 -0.00821464 -0.0055935 2.03681e-19)
(0.022089 -0.0937485 0.000517844 -0.0207255 0.00111013 6.52239e-19)
(0.00986155 -0.0738269 -0.00358879 -0.0333216 -0.00110067 1.34994e-19)
(0.024743 -0.0789139 -0.003914 -0.00217035 -0.00151149 8.67747e-20)
(0.0149726 -0.0573702 -0.000278717 -0.0154664 0.000434509 -4.8532e-20)
(0.0609011 -0.0398755 -0.00280167 -0.0444397 -0.00163231 1.75518e-18)
(0.0482666 -0.0455041 -0.00627102 -0.0111779 -0.00466892 2.36405e-19)
(0.0102367 -0.031457 -0.00408038 -0.0261517 -0.00258483 -3.03526e-20)
(0.0245355 -0.0241041 -0.00650169 -0.0620611 -0.00433836 5.14385e-19)
(0.013771 -0.0497251 -0.0189209 0.0237969 -0.0111492 8.21712e-19)
(0.0432824 -0.0887293 -0.000228024 -0.055701 0.0118495 1.41039e-19)
(0.0588994 0.000834426 -5.17973e-05 -0.0456844 0.0104718 8.34952e-18)
(0.0954384 -0.0406393 -0.0194926 -0.133715 -0.0109841 1.4137e-18)
(0.0122938 -0.0672369 -0.00424373 -0.039183 -0.00139982 1.74859e-19)
(0.0278564 -0.0872997 0.000186389 -0.0249751 0.00104525 7.83291e-19)
(0.0139854 -0.0525293 -0.000820936 -0.0159414 4.18779e-05 -6.36589e-20)
(0.0273124 -0.0736985 -0.004507 -0.00132537 -0.00180567 9.34663e-20)
(-0.0508562 -0.0395823 -0.00218469 0.0286743 -0.00445613 2.86644e-20)
(-0.00554845 -0.0187508 -0.00161503 0.0271176 -0.00361417 3.435e-19)
(-0.0465212 -0.0297992 0.00210188 0.0316918 -0.00207441 5.63357e-19)
(-0.00537591 -0.0256863 0.00247999 0.0207421 -0.00195272 5.36183e-20)
(-0.05607 -0.0421949 -0.00172791 0.0360797 -0.00359463 3.03244e-20)
(-0.0141116 -0.0218345 -0.00131488 0.0334888 -0.00286706 2.58182e-19)
(-0.0520239 -0.0353984 0.00208749 0.0401216 -0.00166491 5.03877e-19)
(-0.0135753 -0.0256212 0.00245257 0.0259861 -0.00144709 4.06802e-20)
(-0.0219966 -0.0186107 0.000600055 0.0336992 -0.00220498 -1.52029e-20)
(-0.0628206 -0.0278279 -0.00281914 0.0475375 -0.00406727 3.85248e-21)
(-0.0195907 -0.0148929 -0.00178705 0.0344596 -0.00304844 9.13464e-20)
(-0.0567292 -0.0215663 0.000462819 0.0453458 -0.0020732 1.6968e-19)
(0.039362 -0.0952382 -0.00136995 -0.0363825 -0.000901355 9.0498e-20)
(0.0222228 -0.0736885 -0.0033403 -0.0413684 -0.00158944 1.0653e-19)
(0.023494 -0.063364 -0.00312288 -0.0258317 -0.00305029 -1.61646e-19)
(0.0388911 -0.0853841 -0.00360594 -0.0203686 -0.00201264 -4.79433e-20)
(-0.0222597 -0.0692507 0.00207636 0.0208886 0.00199365 4.564e-19)
(-0.0235681 -0.0622004 -0.000746287 0.015642 -0.000304868 4.24482e-20)
(-0.0119196 -0.0433221 0.00231476 0.0135744 0.00236771 2.56369e-20)
(-0.0129465 -0.0541313 -0.00114327 0.0205752 -0.000655363 1.15909e-19)
(-0.0185797 -0.032732 0.00214073 0.0210931 0.00141486 2.32866e-20)
(-0.0245785 -0.043043 -0.000341865 0.0314486 -0.000340945 9.79944e-20)
(-0.0374337 -0.050551 -4.71066e-05 0.0303285 -0.000122227 2.55e-20)
(-0.0402193 -0.0572904 0.00173173 0.0379194 0.000951977 3.02264e-19)
(-0.0114276 -0.0176448 0.00104714 0.0255252 -0.00240064 1.70616e-20)
(-0.056067 -0.0279943 -0.00273444 0.0378269 -0.00439389 1.10426e-20)
(-0.0508293 -0.0207295 0.000792848 0.0371365 -0.00234146 3.24639e-19)
(-0.0100613 -0.0132298 -0.00182296 0.0278069 -0.00343012 2.17272e-19)
(0.0408405 -0.0872215 -0.00100982 -0.0371934 -0.000337919 3.95283e-19)
(0.0219931 -0.0656696 -0.00389249 -0.0448837 -0.00169877 1.41374e-19)
(0.0398053 -0.0749109 -0.00413022 -0.0175803 -0.00210677 1.5978e-20)
(0.0229832 -0.0527103 -0.00251135 -0.0258806 -0.0020986 -1.17098e-19)
(0.0384689 0.00269376 -0.00326771 -0.00385078 -0.00956647 1.74027e-18)
(0.0051624 -0.00314815 0.00387827 -0.0355138 -0.00517327 1.85531e-18)
(0.033741 -0.0330086 0.00502603 -0.00254266 -0.00482242 3.6485e-19)
(-0.00800965 -0.0430887 -0.00334241 -0.027482 -0.0103847 7.11938e-20)
(0.0357406 0.00233899 -0.00342827 0.00018333 -0.0101177 1.74077e-18)
(0.00689149 -0.00316617 0.00535259 -0.0359717 -0.00451472 2.10093e-18)
(-0.00521364 -0.0460035 -0.00334069 -0.0316704 -0.0108372 9.01934e-20)
(0.0327801 -0.0361208 0.00659269 -0.00278076 -0.00403683 3.83178e-19)
(0.0332995 -0.0281719 -0.00786287 -0.0745178 -0.00424308 5.94028e-19)
(0.0176488 -0.0342896 -0.00305885 -0.0317989 -0.000381872 -1.29846e-21)
(0.0493268 -0.0482224 -0.00766276 -0.00874736 -0.00460664 3.06914e-19)
(0.0635098 -0.0427914 -0.00198884 -0.0486073 0.000248817 2.27167e-18)
(0.0365044 -0.0249166 -8.767e-05 -0.00374281 -0.00571598 2.37462e-19)
(0.0449557 -0.00264091 -0.00307518 -0.0169198 -0.00676637 1.44719e-18)
(-0.0139873 -0.0262132 -0.00381937 -0.0145626 -0.00798021 1.2949e-20)
(-0.000506581 -0.00069926 -0.000821255 -0.0317319 -0.00572343 1.04069e-18)
(0.0154533 -0.0421142 0.00841793 -0.000351177 0.00313762 1.60799e-19)
(0.0116608 -0.0327169 -0.00306841 0.0256347 -0.00396481 6.55979e-19)
(-0.0189914 -0.0657314 -0.00276988 -0.0196785 -0.00413146 1.51543e-19)
(-0.0156513 -0.0530859 0.00766669 0.00183333 0.0023995 1.93064e-18)
(0.0160643 -0.0418939 -0.00456546 -0.039775 -0.00513299 3.98336e-20)
(0.0393903 -0.038692 -0.0071977 0.00152385 -0.00826432 4.97982e-19)
(0.0598691 -0.00371705 -0.0039764 -0.0358451 -0.00464481 3.52849e-18)
(0.0453834 -0.0045851 -0.00799781 -0.0865021 -0.0081483 1.33853e-18)
(0.0186201 -0.0464092 -0.00453324 -0.0417046 -0.00485718 4.76794e-20)
(0.0383882 -0.0407386 -0.00790547 0.00239501 -0.00862361 5.51123e-19)
(0.0616676 -0.00169002 -0.004019 -0.0382219 -0.00448028 3.94343e-18)
(0.0517181 -0.00522505 -0.00877588 -0.0927762 -0.00852611 1.42745e-18)
(0.048111 -0.0274569 -0.00333034 -0.0193069 -0.00449096 1.49772e-19)
(0.00167469 -0.0164558 -0.00492203 -0.0184947 -0.00561849 -8.70054e-20)
(0.0575253 -0.0246963 -0.00330059 -0.040568 -0.00387482 9.05283e-19)
(0.0115239 -0.011196 -0.00354669 -0.0404016 -0.00422903 3.37906e-19)
(0.0248244 -0.0401276 0.00103711 -0.0335307 0.00666384 9.35338e-20)
(0.0552659 -0.0408518 0.00147486 -0.0454602 0.0063565 3.70396e-18)
(0.0373784 -0.0448547 -0.0108597 0.00784892 -0.00437249 4.84066e-19)
(0.0424974 -0.0376463 -0.0109171 -0.0887397 -0.00398205 6.69609e-19)
(0.00493152 -0.0697928 0.00591109 -0.00989552 0.00487391 2.02473e-18)
(0.0167263 -0.0508535 -0.00480021 0.0207848 -0.00216171 4.3621e-19)
(0.0151936 -0.0464317 0.00618112 -0.00888463 0.00548882 8.74323e-20)
(-0.00210163 -0.06844 -0.00442238 -0.0367939 -0.00195509 2.20332e-19)
(0.0611071 0.0193948 0.0236592 -0.0781997 0.00568266 5.5318e-18)
(0.00664232 0.0110357 -0.0138483 0.0266556 -0.0220752 1.92966e-18)
(0.0470648 -0.0773596 -0.0124827 -0.0811991 -0.0215502 1.90399e-19)
(0.0165784 -0.078176 0.0262198 0.00127815 0.00749699 7.23271e-19)
(0.0257284 -0.0426288 0.00257137 -0.0325672 0.00865501 1.20134e-19)
(0.0349314 -0.0423517 -0.0114883 0.0107614 -0.00435339 5.2444e-19)
(0.0539803 -0.0385514 0.00282349 -0.0459772 0.00809944 4.01702e-18)
(0.0437313 -0.040862 -0.0114815 -0.0905179 -0.00396524 6.46413e-19)
(-0.00496794 -0.103873 0.0380208 0.0170248 0.012712 9.00444e-19)
(0.080511 -0.0707921 -0.0265475 -0.105334 -0.0348547 1.22148e-19)
(-0.00550975 0.0171444 -0.0283188 0.0297636 -0.0363503 1.62301e-18)
(0.118827 0.0645928 0.0347063 -0.130368 0.0103291 6.58791e-18)
(0.00746418 -0.0160381 6.65179e-05 0.0123847 -0.00388862 7.98336e-20)
(0.0128563 -0.00848381 -0.00225267 0.00765093 -0.0044955 4.93601e-19)
(-0.0343403 -0.00781329 -0.000382027 0.0149837 -0.00389594 4.96308e-19)
(-0.042843 -0.0181815 -0.00317879 0.0218422 -0.00564167 7.02398e-21)