/*--------------------------------*- C++ -*----------------------------------*\
| =========                 |                                                 |
| \\      /  F ield         | foam-extend: Open Source CFD                    |
|  \\    /   O peration     | Version:  3.0                                   |
|   \\  /    A nd           | Web:         http://www.extend-project.de       |
|    \\/     M anipulation  |                                                 |
\*---------------------------------------------------------------------------*/
FoamFile
{
    version     2.0;
    format      ascii;
    class       volVectorField;
    location    "27";
    object      u;
}
// * * * * * * * * * * * * * * * * * * * * * * * * * * * * * * * * * * * * * //

dimensions      [0 0 0 0 0 0 0];

internalField   nonuniform List<vector> 
168
(
(0.881475 -0.13058 -7.37575e-17)
(0.348868 -0.0920424 1.79584e-16)
(1.32855 -0.0469932 -2.08603e-16)
(0.594435 -0.0308801 2.7259e-16)
(1.43822 -0.0118785 -2.14957e-16)
(0.638083 -0.00312846 2.02826e-16)
(0.994503 -0.365386 4.55211e-17)
(0.428974 -0.258199 -3.3714e-16)
(1.36881 -0.130368 1.43102e-16)
(0.621113 -0.0858662 -4.3864e-16)
(1.44774 -0.0311094 1.64855e-16)
(0.639639 -0.00527028 -7.83953e-18)
(1.19799 -0.527735 -4.21427e-16)
(0.572742 -0.372408 6.34903e-16)
(1.44084 -0.187796 -1.49519e-16)
(0.66877 -0.123529 6.01813e-16)
(1.46436 -0.044311 -2.25538e-16)
(0.641971 -0.00659691 -1.64405e-16)
(1.45205 -0.58574 7.6107e-16)
(0.752513 -0.4135 -6.85016e-16)
(1.53126 -0.208294 1.31396e-16)
(0.728455 -0.137077 -4.44121e-16)
(1.48549 -0.0488284 -1.00591e-17)
(0.645019 -0.00702767 4.37014e-16)
(1.70593 -0.527829 -3.76329e-16)
(0.931607 -0.372314 4.14304e-16)
(1.62098 -0.187754 8.99109e-17)
(0.787656 -0.123368 1.95938e-16)
(1.50613 -0.0440479 1.03701e-16)
(0.647324 -0.00606624 -2.93745e-16)
(1.90962 -0.365407 1.48566e-16)
(1.07575 -0.257466 -2.68638e-16)
(1.69352 -0.12986 -5.00815e-17)
(0.835687 -0.0851611 -1.37015e-16)
(1.5229 -0.0303737 -2.0747e-17)
(0.650504 -0.0040471 1.1495e-16)
(2.02276 -0.13062 -9.85529e-17)
(1.15541 -0.0918093 2.07301e-16)
(1.73342 -0.0466516 2.26106e-17)
(0.861752 -0.0305081 1.06041e-16)
(1.53225 -0.0109145 4.16069e-17)
(0.650389 -0.00188723 -9.17272e-17)
(2.02268 0.129832 9.77777e-17)
(1.15546 0.0923976 -2.34063e-16)
(1.73342 0.045911 -1.85041e-18)
(0.862288 0.0310415 -1.49017e-16)
(1.53175 0.0102247 2.96735e-17)
(0.652344 0.00238047 1.06158e-17)
(1.90971 0.365006 -1.59735e-16)
(1.07568 0.257961 2.98948e-16)
(1.69335 0.129679 -3.91194e-17)
(0.835334 0.0851592 2.24182e-16)
(1.52299 0.0307815 -1.84965e-17)
(0.649164 0.00293914 -9.59946e-17)
(1.70602 0.527223 3.853e-16)
(0.931887 0.372822 -5.05825e-16)
(1.62094 0.186735 3.4563e-17)
(0.788392 0.124412 -3.83674e-16)
(1.50553 0.042324 5.79284e-17)
(0.648912 0.00809548 2.15326e-16)
(1.45173 0.585761 -7.40512e-16)
(0.752419 0.413575 6.54577e-16)
(1.53077 0.208583 -5.9085e-17)
(0.728244 0.136524 3.90277e-16)
(1.48515 0.0499244 4.94839e-17)
(0.644549 0.00537287 -4.68623e-16)
(1.19794 0.527658 3.67087e-16)
(0.573258 0.373017 -3.66331e-16)
(1.44061 0.186871 -2.30139e-16)
(0.669552 0.125005 -9.53501e-17)
(1.4638 0.0422838 -2.69316e-16)
(0.642816 0.00890436 4.89123e-16)
(0.994022 0.365336 3.12381e-17)
(0.429073 0.257885 1.4628e-16)
(1.36844 0.130623 2.99824e-16)
(0.620989 0.0850016 -2.68262e-17)
(1.44767 0.0321561 1.72412e-16)
(0.639189 0.00384065 -2.19254e-16)
(0.881026 0.130726 8.83204e-18)
(0.349173 0.0927521 -2.60723e-17)
(1.32797 0.0462759 -1.24734e-16)
(0.59498 0.0324201 1.0108e-16)
(1.43734 0.0101789 -2.02691e-16)
(0.63884 0.00506452 2.7814e-16)
(0.881525 -0.129763 7.40565e-17)
(0.348852 -0.091697 -1.79159e-16)
(1.32874 -0.0450179 2.08715e-16)
(0.594039 -0.03049 -2.72677e-16)
(1.43875 -0.00840121 2.15347e-16)
(0.636845 -0.00102072 -2.03599e-16)
(0.994338 -0.364505 -4.58344e-17)
(0.428337 -0.257193 3.36775e-16)
(1.3682 -0.129106 -1.4335e-16)
(0.620525 -0.0836691 4.38932e-16)
(1.44659 -0.0300793 -1.65506e-16)
(0.638723 0.000250425 8.99945e-18)
(1.19843 -0.526552 4.21726e-16)
(0.571873 -0.372154 -6.34552e-16)
(1.44102 -0.185987 1.49691e-16)
(0.667452 -0.123068 -6.02109e-16)
(1.46432 -0.0414187 2.26072e-16)
(0.63937 -0.00498505 1.63419e-16)
(1.45222 -0.584763 -7.61448e-16)
(0.751154 -0.413106 6.8475e-16)
(1.53072 -0.206876 -1.31634e-16)
(0.726775 -0.135827 4.44548e-16)
(1.48452 -0.0475712 9.40203e-18)
(0.641436 -0.00281815 -4.35955e-16)
(1.70605 -0.526709 3.76666e-16)
(0.930313 -0.372401 -4.13995e-16)
(1.62084 -0.18652 -8.96937e-17)
(0.785791 -0.123082 -1.96276e-16)
(1.50551 -0.0424703 -1.03079e-16)
(0.643789 -0.00473504 2.92699e-16)
(1.90963 -0.364531 -1.48866e-16)
(1.07413 -0.257556 2.68279e-16)
(1.6928 -0.128752 4.99141e-17)
(0.833364 -0.0849165 1.37245e-16)
(1.52197 -0.029242 2.02241e-17)
(0.644946 -0.00248459 -1.14004e-16)
(2.02255 -0.130218 9.88669e-17)
(1.15412 -0.0920112 -2.06938e-16)
(1.73303 -0.0462933 -2.23903e-17)
(0.85977 -0.0304465 -1.06252e-16)
(1.53137 -0.0107018 -4.10636e-17)
(0.646245 -0.00120898 9.08154e-17)
(2.02249 0.130096 -9.80654e-17)
(1.15381 0.0920439 2.33658e-16)
(1.73268 0.0462125 1.67874e-18)
(0.859752 0.0303401 1.4913e-16)
(1.53099 0.0108398 -3.00742e-17)
(0.646221 0.000785925 -9.87881e-18)
(1.90969 0.36445 1.60024e-16)
(1.07445 0.257827 -2.98575e-16)
(1.69299 0.128895 3.93106e-17)
(0.833542 0.0850879 -2.24399e-16)
(1.52204 0.0294362 1.89972e-17)
(0.645225 0.00265642 9.5177e-17)
(1.70597 0.526748 -3.85586e-16)
(0.930223 0.37226 5.05489e-16)
(1.6205 0.186348 -3.47761e-17)
(0.785999 0.122811 3.83957e-16)
(1.50507 0.0426254 -5.84937e-17)
(0.643862 0.00376626 -2.145e-16)
(1.45226 0.584729 7.4083e-16)
(0.751353 0.41346 -6.54231e-16)
(1.53077 0.206828 5.93099e-17)
(0.726929 0.136407 -3.90535e-16)
(1.48452 0.047103 -4.89663e-17)
(0.641611 0.00403714 4.67801e-16)
(1.19824 0.526705 -3.67401e-16)
(0.571835 0.371993 3.66018e-16)
(1.44064 0.18601 2.29854e-16)
(0.667727 0.122611 9.57034e-17)
(1.4637 0.0420895 2.68607e-16)
(0.639799 0.00336666 -4.87947e-16)
(0.994593 0.364501 -3.09292e-17)
(0.428412 0.257684 -1.45871e-16)
(1.36851 0.12862 -2.99645e-16)
(0.620443 0.0847922 2.66836e-17)
(1.44716 0.0287611 -1.71924e-16)
(0.638214 0.00162948 2.18376e-16)
(0.881522 0.129737 -9.16675e-18)
(0.34867 0.09142 2.57209e-17)
(1.3285 0.0451495 1.24452e-16)
(0.594232 0.0297305 -1.00783e-16)
(1.43807 0.00938249 2.02027e-16)
(0.637637 -0.000625416 -2.77025e-16)
)
;

boundaryField
{
    out
    {
        type            fixedValue;
        value           uniform (1 0 0);
    }
    in
    {
        type            myVelocity;
    }
    frontAndBack
    {
        type            empty;
    }
}


// ************************************************************************* //
