/*--------------------------------*- C++ -*----------------------------------*\
| =========                 |                                                 |
| \\      /  F ield         | foam-extend: Open Source CFD                    |
|  \\    /   O peration     | Version:  3.0                                   |
|   \\  /    A nd           | Web:         http://www.extend-project.de       |
|    \\/     M anipulation  |                                                 |
\*---------------------------------------------------------------------------*/
FoamFile
{
    version     2.0;
    format      ascii;
    class       volSymmTensorField;
    location    "16";
    object      sigma;
}
// * * * * * * * * * * * * * * * * * * * * * * * * * * * * * * * * * * * * * //

dimensions      [0 0 0 0 0 0 0];

internalField   nonuniform List<symmTensor> 
1920
(
(-0.17629 -0.00577336 4.99094e-20 0.1763 -1.14682e-20 -1.0451e-05)
(-0.171037 -0.00683754 9.63402e-20 0.171065 1.52469e-20 -2.78146e-05)
(-0.1613 -0.00720404 1.09006e-19 0.161343 1.06209e-20 -4.30927e-05)
(-0.149692 -0.00719145 9.79536e-20 0.149748 3.96532e-20 -5.66717e-05)
(-0.137546 -0.00697363 7.75799e-20 0.137615 6.50606e-20 -6.88161e-05)
(-0.125526 -0.00664773 7.8501e-20 0.125605 5.34391e-20 -7.96676e-05)
(-0.113969 -0.00626986 6.26885e-20 0.114058 9.56306e-20 -8.93121e-05)
(-0.103029 -0.00587283 7.59737e-20 0.103126 8.01139e-20 -9.77485e-05)
(-0.092773 -0.00547602 7.12816e-20 0.0928779 1.21202e-19 -0.000104939)
(-0.0832193 -0.00509136 6.35162e-20 0.08333 1.36771e-19 -0.000110765)
(-0.0743638 -0.00472569 3.7436e-20 0.0744789 1.49505e-19 -0.000115071)
(-0.066197 -0.0043839 1.95578e-20 0.0663146 1.26052e-19 -0.000117612)
(-0.0587052 -0.00406849 4.82e-20 0.0588233 1.12122e-19 -0.000118099)
(-0.0518868 -0.00378226 6.12978e-20 0.052003 1.27908e-19 -0.000116133)
(-0.0457385 -0.00352643 2.66509e-20 0.0458498 1.03469e-19 -0.000111261)
(-0.0402796 -0.00330374 5.26828e-20 0.0403825 1.80354e-20 -0.000102892)
(-0.0355254 -0.00311539 6.24916e-20 0.0356157 -2.34357e-20 -9.03621e-05)
(-0.031523 -0.00296499 2.27569e-20 0.0315958 -3.3701e-20 -7.28345e-05)
(-0.0283122 -0.00285482 1.95247e-20 0.0283616 -6.85102e-20 -4.93852e-05)
(-0.0259718 -0.00278682 -3.91427e-21 0.0259906 -3.91495e-20 -1.88716e-05)
(-0.175534 -0.0172952 5.40682e-20 0.175544 6.29056e-21 -1.04061e-05)
(-0.169661 -0.0204201 9.781e-20 0.169689 1.49922e-20 -2.76944e-05)
(-0.15961 -0.0214831 1.10423e-19 0.159653 -2.82016e-22 -4.29058e-05)
(-0.147861 -0.0214267 1.28255e-19 0.147918 -5.18969e-21 -5.64253e-05)
(-0.135675 -0.020765 9.66448e-20 0.135743 5.05491e-20 -6.85161e-05)
(-0.123671 -0.0197853 9.08934e-20 0.12375 6.34718e-20 -7.93195e-05)
(-0.112163 -0.0186534 9.00308e-20 0.112252 9.78386e-20 -8.89211e-05)
(-0.10129 -0.017466 7.02908e-20 0.101387 1.9607e-19 -9.732e-05)
(-0.0911099 -0.0162805 7.71796e-20 0.0912144 2.39793e-19 -0.000104479)
(-0.0816345 -0.0151319 6.22867e-20 0.0817448 2.20533e-19 -0.000110279)
(-0.0728563 -0.0140403 4.71577e-20 0.0729709 2.09391e-19 -0.000114567)
(-0.0647632 -0.0130202 3.15792e-20 0.0648803 1.99009e-19 -0.000117097)
(-0.0573399 -0.0120789 8.07488e-20 0.0574575 1.57358e-19 -0.000117582)
(-0.0505834 -0.0112247 7.90807e-20 0.0506991 1.68239e-19 -0.000115626)
(-0.0444898 -0.0104611 -5.15011e-21 0.0446005 2.18254e-19 -0.000110777)
(-0.039077 -0.00979616 -6.95859e-20 0.0391794 2.33419e-19 -0.000102445)
(-0.03436 -0.00923354 -4.50024e-20 0.03445 2.12487e-19 -8.99705e-05)
(-0.0303847 -0.00878394 1.77238e-20 0.0304572 1.32926e-19 -7.25197e-05)
(-0.0271901 -0.00845409 3.68203e-20 0.0272393 8.41781e-20 -4.91723e-05)
(-0.024855 -0.0082498 5.82745e-20 0.0248737 -3.73209e-20 -1.87906e-05)
(-0.174025 -0.0287426 4.82781e-20 0.174035 1.07803e-20 -1.0315e-05)
(-0.166941 -0.0337277 7.75044e-20 0.166969 1.01314e-20 -2.74519e-05)
(-0.156277 -0.0353788 7.4151e-20 0.15632 6.48986e-21 -4.2531e-05)
(-0.144254 -0.0352232 1.09556e-19 0.14431 -2.15702e-20 -5.59337e-05)
(-0.131989 -0.0340933 1.30078e-19 0.132057 -5.25853e-21 -6.79209e-05)
(-0.120019 -0.0324539 1.02287e-19 0.120097 6.87704e-20 -7.86324e-05)
(-0.10861 -0.0305726 1.57928e-19 0.108698 1.06276e-19 -8.81527e-05)
(-0.0978697 -0.0286059 2.31492e-19 0.0979662 2.01565e-19 -9.64808e-05)
(-0.0878396 -0.026646 1.50218e-19 0.0879431 2.57485e-19 -0.000103579)
(-0.0785189 -0.0247492 9.92898e-20 0.0786283 2.16185e-19 -0.000109331)
(-0.0698935 -0.022948 8.61105e-20 0.0700071 2.13327e-19 -0.000113582)
(-0.0619459 -0.0212653 2.43354e-20 0.062062 2.49788e-19 -0.000116091)
(-0.054658 -0.0197127 8.6439e-20 0.0547745 1.15198e-19 -0.000116573)
(-0.0480238 -0.0183037 2.05618e-19 0.0481384 1.35184e-19 -0.000114634)
(-0.042038 -0.0170438 2.38322e-19 0.0421478 1.53438e-19 -0.000109826)
(-0.0367164 -0.0159461 2.05258e-19 0.036818 2.48174e-19 -0.000101566)
(-0.0320732 -0.0150166 9.30084e-20 0.0321624 2.31916e-19 -8.91985e-05)
(-0.0281515 -0.0142726 -8.05139e-21 0.0282234 6.71317e-20 -7.18975e-05)
(-0.0249891 -0.0137252 -8.29389e-20 0.0250379 -4.6414e-20 -4.87505e-05)
(-0.0226648 -0.0133841 -7.39207e-20 0.0226834 4.43094e-21 -1.86295e-05)
(-0.17177 -0.0400665 4.26973e-20 0.17178 4.15775e-21 -1.018e-05)
(-0.162937 -0.0465863 6.05858e-20 0.162964 2.78209e-20 -2.70926e-05)
(-0.15139 -0.04865 4.89595e-20 0.151432 4.03061e-20 -4.19749e-05)
(-0.138975 -0.0483055 6.33959e-20 0.13903 2.87538e-20 -5.52034e-05)
(-0.126601 -0.0466681 1.36623e-19 0.126668 -3.55169e-20 -6.70354e-05)
(-0.114685 -0.0443593 1.80967e-19 0.114763 -1.80667e-20 -7.76088e-05)
(-0.103423 -0.0417367 1.97054e-19 0.10351 5.11784e-21 -8.70069e-05)
(-0.0928805 -0.0390087 2.91002e-19 0.0929757 -2.32783e-20 -9.52282e-05)
(-0.0830713 -0.0362978 2.45353e-19 0.0831735 -3.5458e-21 -0.000102236)
(-0.0739785 -0.0336788 1.18366e-19 0.0740864 5.70384e-20 -0.000107914)
(-0.0655777 -0.0311942 1.74976e-19 0.0656898 1.13408e-19 -0.000112111)
(-0.0578438 -0.0288743 5.45727e-20 0.0579584 1.81754e-19 -0.000114588)
(-0.0507548 -0.0267345 -1.4253e-20 0.0508698 9.51151e-20 -0.000115064)
(-0.0443003 -0.0247921 1.64549e-19 0.0444134 4.91186e-20 -0.00011315)
(-0.0384731 -0.0230548 2.10493e-19 0.0385815 1.24197e-20 -0.000108405)
(-0.0332858 -0.0215399 3.18566e-19 0.033386 -2.35827e-19 -0.000100251)
(-0.0287511 -0.0202554 3.99678e-20 0.0288391 -1.38351e-19 -8.80443e-05)
(-0.0249086 -0.0192249 -1.24467e-19 0.0249796 -2.10565e-19 -7.09672e-05)
(-0.0217941 -0.0184635 -4.69831e-20 0.0218423 -2.44195e-20 -4.81198e-05)
(-0.0194863 -0.0179848 4.98414e-20 0.0195047 1.12479e-19 -1.83885e-05)
(-0.168779 -0.0512181 2.54676e-20 0.168789 4.52226e-20 -1.00015e-05)
(-0.157735 -0.0588356 2.80911e-20 0.157762 9.7946e-20 -2.66178e-05)
(-0.145079 -0.0610763 1.24654e-20 0.14512 1.05785e-19 -4.12396e-05)
(-0.132177 -0.0604228 -3.86788e-20 0.132232 1.62237e-19 -5.42371e-05)
(-0.119675 -0.0582255 1.71468e-23 0.119741 6.46953e-20 -6.58631e-05)
(-0.107837 -0.0552348 8.82506e-20 0.107914 -8.63666e-21 -7.62528e-05)
(-0.0967706 -0.051882 1.69462e-19 0.0968561 -1.21897e-19 -8.54879e-05)
(-0.0864857 -0.0484173 2.03673e-19 0.0865792 -5.64106e-20 -9.35669e-05)
(-0.0769641 -0.0449873 2.67986e-19 0.0770645 -5.93259e-20 -0.000100454)
(-0.0681671 -0.041681 1.78924e-19 0.0682731 1.50906e-19 -0.000106034)
(-0.0600574 -0.0385488 2.61535e-19 0.0601676 9.35712e-20 -0.000110159)
(-0.0526005 -0.0356264 1.5264e-19 0.0527131 1.26254e-19 -0.000112593)
(-0.045769 -0.0329317 -3.14417e-20 0.045882 1.71067e-19 -0.000113061)
(-0.0395472 -0.0304852 3.60277e-20 0.0396584 2.80317e-19 -0.000111181)
(-0.0339257 -0.0282958 -1.60997e-20 0.0340322 2.29342e-20 -0.000106519)
(-0.0289124 -0.0263847 7.68083e-21 0.0290109 -1.59241e-19 -9.85069e-05)
(-0.0245188 -0.0247616 2.0615e-19 0.0246053 -1.01967e-19 -8.65124e-05)
(-0.0207797 -0.0234553 -1.30242e-20 0.0208494 -3.09407e-20 -6.97325e-05)
(-0.0177284 -0.0224846 1.93932e-19 0.0177757 1.15753e-19 -4.72827e-05)
(-0.0154434 -0.0218675 -7.90644e-20 0.0154615 1.5355e-19 -1.80687e-05)
(-0.165065 -0.0621496 -1.98152e-20 0.165074 1.54646e-19 -9.78047e-06)
(-0.151448 -0.0703337 -4.84463e-20 0.151474 2.59346e-19 -2.60294e-05)
(-0.13751 -0.0724654 -9.84145e-21 0.13755 2.24878e-19 -4.03282e-05)
(-0.124055 -0.0713576 1.65925e-20 0.124109 1.34253e-19 -5.30391e-05)
(-0.111419 -0.0685372 -9.12194e-20 0.111483 1.40802e-19 -6.44091e-05)
(-0.0996878 -0.0648502 -7.29385e-20 0.0997623 8.53247e-20 -7.45704e-05)
(-0.0888634 -0.0607815 -1.62204e-20 0.088947 6.53965e-20 -8.36028e-05)
(-0.0788934 -0.0566107 2.02168e-19 0.0789849 9.09579e-20 -9.15048e-05)
(-0.0697204 -0.0525009 3.48691e-19 0.0698186 -9.16831e-21 -9.82408e-05)
(-0.0612807 -0.0485506 2.84593e-19 0.0613844 1.25856e-19 -0.000103699)
(-0.053522 -0.0448148 1.75976e-19 0.0536298 8.7908e-20 -0.000107734)
(-0.0463987 -0.0413324 2.2697e-19 0.0465088 1.65647e-19 -0.000110115)
(-0.0398771 -0.0381226 2.35075e-19 0.0399877 1.87635e-19 -0.000110574)
(-0.0339356 -0.0352079 9.72223e-20 0.0340443 3.86586e-19 -0.000108735)
(-0.0285617 -0.0325978 -1.84228e-19 0.0286659 -1.75508e-21 -0.000104175)
(-0.0237586 -0.0303164 -1.02852e-19 0.0238549 4.36217e-20 -9.63402e-05)
(-0.0195356 -0.0283746 4.36634e-20 0.0196202 -9.53707e-20 -8.46098e-05)
(-0.0159222 -0.0268059 -1.64745e-20 0.0159904 -5.24334e-21 -6.8199e-05)
(-0.0129487 -0.025632 3.00295e-19 0.0129949 -1.62522e-19 -4.62431e-05)
(-0.0106933 -0.0248754 8.24351e-21 0.0107109 -2.67734e-20 -1.76714e-05)
(-0.160643 -0.072814 7.06757e-21 0.160652 1.45509e-19 -9.51753e-06)
(-0.144208 -0.0809608 -6.84884e-20 0.144234 2.79906e-19 -2.53296e-05)
(-0.128879 -0.0826591 -8.57441e-20 0.128918 1.32395e-19 -3.92443e-05)
(-0.114839 -0.0809328 -2.81977e-20 0.114891 9.04539e-21 -5.16139e-05)
(-0.102078 -0.0774188 -6.32815e-20 0.102141 1.49988e-19 -6.2679e-05)
(-0.090487 -0.0730203 -5.45044e-20 0.0905596 1.03295e-19 -7.25681e-05)
(-0.0799514 -0.0682529 -9.95899e-21 0.0800328 1.08544e-19 -8.13588e-05)
(-0.0703486 -0.0634117 7.07308e-20 0.0704376 -4.75198e-20 -8.90496e-05)
(-0.0615785 -0.058668 2.64341e-19 0.0616741 -1.28462e-19 -9.56057e-05)
(-0.05355 -0.0541236 4.36685e-19 0.053651 -6.15486e-20 -0.000100918)
(-0.0461942 -0.0498351 3.38429e-19 0.046299 1.70267e-20 -0.000104846)
(-0.0394532 -0.045842 3.46284e-19 0.0395604 -2.29014e-20 -0.000107164)
(-0.0332868 -0.0421631 4.57199e-19 0.0333944 -1.60351e-19 -0.000107611)
(-0.0276665 -0.0388216 4.09806e-19 0.0277723 -6.96114e-20 -0.000105822)
(-0.0225767 -0.0358272 -1.45617e-19 0.0226781 -3.96071e-19 -0.000101385)
(-0.018015 -0.0332053 -9.30964e-20 0.0181088 -3.29099e-19 -9.37601e-05)
(-0.0139888 -0.0309683 8.58281e-21 0.0140711 -2.18934e-19 -8.23441e-05)
(-0.0105213 -0.0291526 1.05668e-21 0.0105876 -6.34609e-19 -6.63731e-05)
(-0.00763942 -0.0277827 -4.5628e-20 0.00768442 -3.05753e-19 -4.50051e-05)
(-0.00542101 -0.0268856 2.46896e-19 0.00543821 -4.69185e-19 -1.71984e-05)
(-0.155533 -0.0831656 6.8688e-20 0.155542 6.95045e-20 -9.21397e-06)
(-0.136163 -0.0906231 3.86552e-20 0.136188 3.19688e-20 -2.45216e-05)
(-0.119405 -0.0915387 -1.39156e-19 0.119443 -9.60337e-21 -3.79925e-05)
(-0.104784 -0.0890178 -2.85283e-20 0.104834 9.82857e-21 -4.9968e-05)
(-0.0919258 -0.0847355 6.01841e-20 0.0919865 5.97707e-21 -6.06806e-05)
(-0.0805144 -0.0796107 -1.00213e-19 0.0805847 1.94173e-20 -7.0255e-05)
(-0.0703127 -0.0741648 -7.76541e-20 0.0703915 -6.47848e-20 -7.87661e-05)
(-0.061124 -0.0686935 -7.29311e-20 0.0612102 -1.24148e-19 -8.62125e-05)
(-0.0528037 -0.0633667 2.61851e-20 0.0528963 3.14714e-20 -9.25605e-05)
(-0.0452317 -0.0582836 3.98591e-19 0.0453294 -7.26621e-20 -9.77044e-05)
(-0.0383217 -0.0534987 2.04566e-19 0.0384232 1.23882e-19 -0.000101508)
(-0.0320033 -0.049049 8.00494e-20 0.032107 -4.13516e-20 -0.000103753)
(-0.0262291 -0.0449519 1.80176e-19 0.0263333 -1.72908e-19 -0.000104186)
(-0.0209635 -0.0412294 3.42524e-19 0.0210659 -2.07273e-19 -0.000102455)
(-0.0161878 -0.0378906 -3.70315e-19 0.016286 -3.38881e-19 -9.81596e-05)
(-0.0118938 -0.0349615 -2.53869e-19 0.0119846 -6.43728e-20 -9.07777e-05)
(-0.00808652 -0.0324549 -3.03864e-19 0.00816625 -4.16281e-19 -7.97252e-05)
(-0.00478261 -0.0304096 -5.15445e-19 0.00484687 -4.57898e-19 -6.42625e-05)
(-0.00200549 -0.028852 -2.52225e-19 0.00204906 1.63862e-19 -4.35742e-05)
(0.000167778 -0.0278138 1.49386e-19 -0.000151127 -8.50371e-20 -1.66517e-05)
(-0.149757 -0.0931601 4.24937e-20 0.149766 3.00847e-20 -8.87085e-06)
(-0.127472 -0.0992544 5.7696e-20 0.127496 -7.63495e-20 -2.36085e-05)
(-0.109321 -0.0990276 -9.36311e-20 0.109357 -6.68222e-20 -3.65779e-05)
(-0.0941626 -0.0955322 -9.84056e-20 0.0942107 -3.58641e-20 -4.81076e-05)
(-0.0812537 -0.0904068 1.86592e-20 0.0813121 -3.97326e-20 -5.84217e-05)
(-0.0700673 -0.0845425 -2.70456e-20 0.0701349 -3.17737e-20 -6.764e-05)
(-0.0602431 -0.0784413 -1.79926e-19 0.0603189 -2.40005e-20 -7.58349e-05)
(-0.0515099 -0.0723836 -8.30343e-20 0.051593 8.48157e-21 -8.30047e-05)
(-0.0436782 -0.0665282 -1.21177e-19 0.0437673 2.37279e-19 -8.91172e-05)
(-0.0365987 -0.0609657 1.41857e-19 0.0366928 2.64279e-19 -9.40705e-05)
(-0.030168 -0.0557441 4.45678e-19 0.0302658 3.10996e-19 -9.77331e-05)
(-0.0243029 -0.0508957 8.07339e-20 0.0244028 -2.86889e-20 -9.98958e-05)
(-0.0189493 -0.0464343 -1.91613e-19 0.0190496 1.63483e-19 -0.000100314)
(-0.0140642 -0.0423795 3.23076e-19 0.0141629 1.87169e-20 -9.86475e-05)
(-0.009626 -0.0387389 -2.598e-19 0.00972051 1.45777e-19 -9.45126e-05)
(-0.00562022 -0.0355379 -3.77518e-19 0.00570763 3.20069e-20 -8.74056e-05)
(-0.00204983 -0.0327894 -8.14995e-19 0.00212659 1.06609e-19 -7.67643e-05)
(0.00107534 -0.0305331 -4.90282e-19 -0.00101346 6.12889e-19 -6.18762e-05)
(0.00373561 -0.0287968 -1.84962e-19 -0.00369365 4.77822e-19 -4.19564e-05)
(0.0058549 -0.0276172 -2.57136e-19 -0.00583886 3.04046e-19 -1.60336e-05)
(-0.143339 -0.102755 -5.01164e-20 0.143348 9.76696e-20 -8.48983e-06)
(-0.118298 -0.106818 -1.38354e-20 0.118321 -3.99582e-20 -2.25943e-05)
(-0.0988673 -0.105094 -9.30624e-20 0.0989023 -8.1549e-20 -3.50065e-05)
(-0.0832554 -0.100448 -1.32642e-19 0.0833015 -8.31974e-22 -4.60411e-05)
(-0.07036 -0.0944084 -5.33829e-20 0.0704159 2.93724e-20 -5.59123e-05)
(-0.0594499 -0.0877947 -1.45177e-19 0.0595146 1.17117e-19 -6.4735e-05)
(-0.0500453 -0.0810641 -2.12673e-19 0.0501178 1.01415e-19 -7.25781e-05)
(-0.0418031 -0.0744661 -1.47954e-19 0.0418825 1.67928e-19 -7.94405e-05)
(-0.0344903 -0.068139 9.05461e-20 0.0345755 2.44498e-19 -8.52911e-05)
(-0.02793 -0.0621582 9.05801e-20 0.02802 2.91909e-19 -9.00324e-05)
(-0.0220023 -0.0565618 3.36593e-19 0.0220958 -4.1845e-20 -9.35386e-05)
(-0.0166119 -0.051374 4.10901e-19 0.0167075 -3.1291e-19 -9.56093e-05)
(-0.0116981 -0.0466039 3.68447e-20 0.0117941 2.57321e-20 -9.60101e-05)
(-0.00721128 -0.0422668 2.02803e-19 0.00730569 -3.97638e-22 -9.44164e-05)
(-0.00312663 -0.0383684 5.77244e-20 0.00321709 -6.93026e-20 -9.04597e-05)
(0.000575969 -0.0349319 -2.32345e-20 -0.000492311 -4.09617e-20 -8.36583e-05)
(0.00389586 -0.0319702 1.29156e-19 -0.00382238 1.16081e-19 -7.34738e-05)
(0.00682987 -0.0295225 -2.99884e-19 -0.00677065 2.55431e-19 -5.92244e-05)
(0.00936213 -0.0276174 1.68866e-20 -0.00932197 5.56525e-20 -4.01587e-05)
(0.0114179 -0.0262968 -4.50204e-19 -0.0114026 4.59354e-19 -1.53468e-05)
(-0.136309 -0.111908 -6.55448e-20 0.136317 4.43825e-20 -8.07228e-06)
(-0.108805 -0.113306 -1.16557e-19 0.108827 -2.7911e-20 -2.14831e-05)
(-0.0882816 -0.10975 -1.26928e-19 0.0883149 -3.95318e-20 -3.32848e-05)
(-0.0723386 -0.10379 -1.03515e-19 0.0723824 -3.24078e-21 -4.37766e-05)
(-0.0595391 -0.0967723 -1.36623e-19 0.0595922 2.11044e-19 -5.31625e-05)
(-0.0489623 -0.0894038 4.09578e-20 0.0490238 1.281e-19 -6.15514e-05)
(-0.0400175 -0.0820726 -1.16876e-19 0.0400866 -9.07008e-21 -6.90091e-05)
(-0.0322957 -0.074982 -1.02441e-19 0.0323713 4.65368e-20 -7.55344e-05)
(-0.0255239 -0.0682408 1.85166e-19 0.025605 -5.21446e-20 -8.10979e-05)
(-0.0195 -0.0619033 3.22459e-19 0.0195856 -1.80215e-19 -8.56069e-05)
(-0.0140891 -0.0559939 4.13211e-20 0.0141781 -3.39513e-19 -8.89416e-05)
(-0.00918521 -0.0505262 1.39571e-19 0.00927613 -2.80781e-19 -9.09115e-05)
(-0.00472168 -0.0455028 3.62532e-19 0.00481298 -7.97054e-20 -9.12937e-05)
(-0.00064281 -0.0409334 4.56423e-19 0.00073259 -2.72709e-19 -8.97794e-05)
(0.00307901 -0.036821 3.31654e-20 -0.00299299 -2.74e-19 -8.60181e-05)
(0.00646921 -0.0331857 -2.1695e-19 -0.00638966 -1.85026e-19 -7.95516e-05)
(0.0095293 -0.0300398 5.77927e-20 -0.00945943 -2.18476e-19 -6.98679e-05)
(0.0122625 -0.0274207 1.21323e-19 -0.0122062 1.39539e-19 -5.63185e-05)
(0.0146566 -0.0253574 4.73602e-19 -0.0146184 2.80563e-19 -3.81887e-05)
(0.0166387 -0.0238968 2.098e-19 -0.0166241 -1.89802e-19 -1.45942e-05)
(-0.128695 -0.120581 7.6407e-21 0.128702 -4.09025e-20 -7.62019e-06)
(-0.0991508 -0.118739 -6.06404e-20 0.0991711 -8.64628e-20 -2.02797e-05)
(-0.077791 -0.113051 -1.4047e-19 0.0778224 -5.604e-20 -3.14203e-05)
(-0.0616755 -0.105634 -4.22301e-20 0.0617168 2.157e-20 -4.13244e-05)
(-0.0490708 -0.0975852 -3.29562e-20 0.0491209 1.69231e-19 -5.01844e-05)
(-0.0388891 -0.0894625 2.38583e-20 0.0389472 -1.02484e-19 -5.81034e-05)
(-0.0304427 -0.0815617 -9.61428e-20 0.0305078 -1.0164e-19 -6.51436e-05)
(-0.0232647 -0.074027 -1.03275e-19 0.023336 -1.58317e-19 -7.13037e-05)
(-0.0170478 -0.0669287 -1.21023e-19 0.0171243 -2.05413e-19 -7.65561e-05)
(-0.0115684 -0.0602948 1.56625e-19 0.0116492 -2.5597e-19 -8.08132e-05)
(-0.00667887 -0.0541325 5.1809e-20 0.00676283 -1.60122e-19 -8.39621e-05)
(-0.00226413 -0.0484426 -7.40673e-20 0.00234995 -7.39219e-20 -8.58229e-05)
(0.00174727 -0.0432197 -1.08773e-19 -0.00166109 -1.94394e-19 -8.61849e-05)
(0.00541626 -0.0384667 2.7711e-20 -0.0053315 -8.39295e-20 -8.47565e-05)
(0.00877271 -0.034183 4.17776e-19 -0.0086915 -4.45275e-20 -8.12069e-05)
(0.0118468 -0.0303846 -1.01971e-19 -0.0117717 -1.14626e-19 -7.51031e-05)
(0.014642 -0.0270828 -5.45984e-20 -0.014576 1.14304e-20 -6.59619e-05)
(0.0171674 -0.0243124 9.63297e-20 -0.0171142 4.09604e-20 -5.31706e-05)
(0.0194142 -0.0221017 1.23336e-19 -0.0193782 -2.34634e-19 -3.60546e-05)
(0.0213119 -0.0205034 1.83747e-19 -0.0212981 -3.29069e-19 -1.37788e-05)
(-0.12053 -0.128738 3.66378e-20 0.120537 -6.27271e-20 -7.13525e-06)
(-0.0894817 -0.123164 7.42027e-20 0.0895007 -1.68358e-19 -1.89891e-05)
(-0.0676038 -0.115092 -9.50625e-20 0.0676333 -7.49788e-20 -2.94205e-05)
(-0.0515064 -0.106102 -5.31008e-20 0.0515451 3.70254e-20 -3.86942e-05)
(-0.0392099 -0.0969839 1.85866e-19 0.0392569 -6.86296e-20 -4.69903e-05)
(-0.0294894 -0.0881145 5.27433e-20 0.0295438 -1.7853e-19 -5.44053e-05)
(-0.0215776 -0.079678 -4.55912e-20 0.0216386 -1.17975e-19 -6.09975e-05)
(-0.0149612 -0.071747 -2.41589e-19 0.015028 -7.52735e-20 -6.67659e-05)
(-0.00930556 -0.0643468 -4.58109e-19 0.00937725 1.48073e-20 -7.16845e-05)
(-0.00437026 -0.0574738 -2.30302e-19 0.00444594 -4.1111e-20 -7.56716e-05)
(2.00516e-06 -0.0511157 -4.46103e-20 7.6616e-05 -3.51653e-20 -7.86212e-05)
(0.00393333 -0.0452579 -6.88977e-20 -0.00385296 2.7299e-20 -8.03648e-05)
(0.00749866 -0.0398863 -2.00818e-19 -0.00741795 9.92098e-20 -8.07052e-05)
(0.0107629 -0.0349953 -4.17556e-19 -0.0106835 2.0403e-19 -7.93691e-05)
(0.0137576 -0.0305806 -9.77396e-20 -0.0136816 -3.07657e-22 -7.60465e-05)
(0.016517 -0.0266531 -5.00809e-20 -0.0164466 3.34546e-20 -7.03319e-05)
(0.019046 -0.0232227 -1.999e-20 -0.0189843 -8.68379e-20 -6.17725e-05)
(0.0213591 -0.0203206 -1.08122e-19 -0.0213093 -8.87606e-20 -4.97945e-05)
(0.0234507 -0.017974 -1.37081e-19 -0.0234169 -1.22703e-19 -3.37659e-05)
(0.0252528 -0.016241 3.28615e-20 -0.0252399 3.79491e-20 -1.29044e-05)
(-0.11185 -0.136342 7.82488e-20 0.111857 -1.20385e-19 -6.61974e-06)
(-0.0799287 -0.126652 3.47129e-20 0.0799463 -1.00707e-19 -1.76169e-05)
(-0.0579029 -0.116004 1.85322e-20 0.0579302 -5.20565e-20 -2.72944e-05)
(-0.0420406 -0.105357 -1.1358e-20 0.0420764 -8.45337e-20 -3.58978e-05)
(-0.0301775 -0.0951498 1.18634e-19 0.0302211 -1.97203e-19 -4.35942e-05)
(-0.0209869 -0.0855493 1.56554e-19 0.0210374 -2.06792e-19 -5.04733e-05)
(-0.0136436 -0.0766131 7.16402e-20 0.0137002 -4.83742e-20 -5.65892e-05)
(-0.00760152 -0.0683327 1.22823e-19 0.00766346 -2.62173e-21 -6.19409e-05)
(-0.00250674 -0.0606824 -2.08545e-19 0.00257325 -7.50975e-20 -6.65047e-05)
(0.00189236 -0.0536237 -4.00352e-19 -0.00182215 -1.73591e-19 -7.02045e-05)
(0.00575927 -0.047122 -3.09468e-19 -0.00568633 -1.10453e-20 -7.29421e-05)
(0.00922039 -0.0411462 -1.25157e-19 -0.00914583 1.89424e-19 -7.45611e-05)
(0.0123527 -0.0356719 -3.97385e-20 -0.0122778 3.36363e-19 -7.48785e-05)
(0.0152236 -0.0306849 -5.81297e-20 -0.01515 1.47368e-19 -7.36404e-05)
(0.0178658 -0.0261762 -3.23986e-19 -0.0177952 1.49343e-19 -7.05592e-05)
(0.0203162 -0.0221509 -3.74264e-19 -0.020251 1.04025e-19 -6.52584e-05)
(0.0225815 -0.0186174 -3.6763e-19 -0.0225242 1.66088e-19 -5.73176e-05)
(0.0246801 -0.0156022 -1.62161e-19 -0.0246339 2.62344e-19 -4.62044e-05)
(0.0266093 -0.0131313 -2.06239e-19 -0.026578 -5.98201e-20 -3.1332e-05)
(0.0283045 -0.0112681 -3.46892e-19 -0.0282925 2.41041e-19 -1.19745e-05)
(-0.102692 -0.143362 3.49302e-20 0.102699 -5.34208e-20 -6.07564e-06)
(-0.0706032 -0.129293 4.71207e-20 0.0706194 -2.4285e-20 -1.61688e-05)
(-0.0488389 -0.115946 8.34638e-20 0.048864 -7.74375e-20 -2.50507e-05)
(-0.0334487 -0.103598 -1.0758e-20 0.0334816 -1.62395e-19 -3.29467e-05)
(-0.0221524 -0.0923006 -4.78768e-20 0.0221925 -1.98614e-19 -4.00102e-05)
(-0.0135622 -0.0819936 2.68016e-21 0.0136085 -1.32052e-19 -4.63238e-05)
(-0.00681914 -0.0725958 6.07871e-20 0.00687108 -1.24339e-20 -5.1937e-05)
(-0.00135919 -0.0640111 1.41416e-19 0.00141604 -4.88727e-20 -5.68491e-05)
(0.00318107 -0.0561585 1.39967e-19 -0.00312003 -2.13166e-19 -6.10383e-05)
(0.00705825 -0.0489621 -2.83626e-19 -0.00699382 -1.82048e-19 -6.4435e-05)
(0.0104382 -0.0423634 -2.58513e-19 -0.0103712 2.58378e-20 -6.69489e-05)
(0.0134485 -0.0363133 2.43388e-20 -0.0133801 1.20119e-19 -6.84365e-05)
(0.0161666 -0.0307772 2.19475e-19 -0.0160979 8.11454e-20 -6.87296e-05)
(0.0186609 -0.0257309 1.6418e-19 -0.0185933 -4.43397e-20 -6.75951e-05)
(0.0209644 -0.0211609 3.64177e-19 -0.0208996 1.16791e-19 -6.47686e-05)
(0.0231156 -0.0170658 1.47881e-19 -0.0230557 6.13252e-20 -5.99044e-05)
(0.0251223 -0.0134523 7.68735e-20 -0.0250697 -7.56928e-21 -5.26165e-05)
(0.0270062 -0.0103417 -4.33128e-20 -0.0269638 -1.15806e-19 -4.24159e-05)
(0.028767 -0.00775825 3.87406e-20 -0.0287382 -9.49754e-20 -2.87637e-05)
(0.0303438 -0.00577054 4.97619e-20 -0.0303329 -8.19288e-20 -1.09933e-05)
(-0.0930959 -0.149767 4.35368e-21 0.0931014 -1.48242e-20 -5.50547e-06)
(-0.0615935 -0.131193 -2.88998e-21 0.0616082 2.50401e-20 -1.46512e-05)
(-0.0405261 -0.1151 1.67014e-19 0.0405488 -1.12056e-19 -2.26992e-05)
(-0.0258572 -0.101048 -3.85571e-21 0.0258871 -1.57428e-19 -2.98538e-05)
(-0.0152659 -0.088682 -1.38007e-19 0.0153021 -1.43925e-19 -3.62541e-05)
(-0.00734645 -0.0777024 -1.40857e-19 0.00738842 -3.63887e-20 -4.1975e-05)
(-0.00123263 -0.0678833 6.01086e-20 0.00127969 -1.29545e-20 -4.70613e-05)
(0.00364124 -0.0590369 5.72644e-20 -0.00358973 -8.33612e-20 -5.15127e-05)
(0.00763809 -0.051025 1.57944e-19 -0.00758278 -2.33789e-19 -5.53094e-05)
(0.0110127 -0.0437324 -2.02839e-19 -0.0109543 -9.1981e-20 -5.83883e-05)
(0.013929 -0.0370765 -2.01305e-19 -0.0138683 -1.61456e-19 -6.06678e-05)
(0.0165129 -0.0309894 -1.93611e-19 -0.0164509 -9.78942e-20 -6.20176e-05)
(0.0188403 -0.0254258 1.378e-19 -0.018778 -5.76034e-20 -6.22851e-05)
(0.0209787 -0.0203513 6.35873e-20 -0.0209174 -2.24051e-19 -6.1259e-05)
(0.0229607 -0.0157478 1.33447e-19 -0.022902 -1.74431e-21 -5.86994e-05)
(0.0248254 -0.0116072 4.51079e-19 -0.0247711 -1.79069e-19 -5.42929e-05)
(0.0265813 -0.00793408 1.87247e-19 -0.0265336 -2.07235e-19 -4.76892e-05)
(0.0282519 -0.0047443 1.95694e-19 -0.0282134 -2.34873e-19 -3.8445e-05)
(0.029839 -0.00206004 -2.19995e-19 -0.029813 -2.51735e-19 -2.60717e-05)
(0.0312863 4.50046e-05 1.1859e-19 -0.0312763 -3.867e-20 -9.96478e-06)
(-0.0831018 -0.155532 3.37571e-20 0.0831067 -3.83468e-21 -4.91147e-06)
(-0.052963 -0.132467 1.10692e-19 0.052976 -5.17766e-20 -1.30703e-05)
(-0.0330384 -0.113663 8.06309e-20 0.0330587 -9.9358e-20 -2.02496e-05)
(-0.0193444 -0.0979479 6.9119e-20 0.019371 -1.02801e-19 -2.6632e-05)
(-0.00959656 -0.0845574 8.96399e-21 0.0096289 -1.48412e-19 -3.23416e-05)
(-0.0024169 -0.0729487 -1.24978e-19 0.00245434 -8.60582e-20 -3.74451e-05)
(0.00304133 -0.0627503 2.41373e-21 -0.00299935 -6.82028e-20 -4.19827e-05)
(0.0073285 -0.0536822 -6.00827e-20 -0.00728255 -1.15049e-19 -4.59543e-05)
(0.0107966 -0.0455483 -1.58813e-19 -0.0107472 -3.51557e-20 -4.93421e-05)
(0.0136916 -0.0381946 1.54067e-20 -0.0136395 -2.50658e-20 -5.20901e-05)
(0.0161711 -0.0315137 -1.70132e-19 -0.016117 -2.5246e-19 -5.41254e-05)
(0.0183562 -0.0254195 -5.15295e-19 -0.0183008 -4.57948e-20 -5.53317e-05)
(0.0203193 -0.0198558 -2.81382e-19 -0.0202637 -3.0205e-20 -5.55727e-05)
(0.0221254 -0.0147781 -4.04121e-19 -0.0220708 -1.38152e-20 -5.46595e-05)
(0.0238058 -0.0101636 -1.73762e-19 -0.0237534 1.12397e-19 -5.2378e-05)
(0.0253988 -0.00599738 -1.64812e-19 -0.0253504 -1.39373e-19 -4.84481e-05)
(0.0269131 -0.00228209 -1.96072e-19 -0.0268706 1.18994e-19 -4.25572e-05)
(0.0283733 0.000972251 1.72314e-20 -0.028339 2.80869e-20 -3.43091e-05)
(0.0297824 0.00374557 -1.28065e-19 -0.0297592 -3.70952e-20 -2.32678e-05)
(0.0310892 0.0059594 -1.24784e-19 -0.0310803 5.97889e-20 -8.89357e-06)
(-0.0727528 -0.16063 8.78972e-20 0.0727571 -3.57883e-20 -4.29635e-06)
(-0.0447485 -0.133238 1.18424e-19 0.0447599 -6.27454e-20 -1.1433e-05)
(-0.0264079 -0.111838 9.87703e-20 0.0264256 -8.47639e-20 -1.77128e-05)
(-0.0139381 -0.0945459 7.35109e-21 0.0139613 -7.31205e-20 -2.32955e-05)
(-0.00516876 -0.0801971 6.43042e-20 0.00519705 -1.42654e-19 -2.82896e-05)
(0.00120534 -0.0680124 -6.58539e-20 -0.00117258 -1.04112e-19 -3.27538e-05)
(0.00598444 -0.0574783 -1.14577e-20 -0.00594772 -5.31224e-20 -3.67232e-05)
(0.00968681 -0.0482253 -1.66895e-20 -0.00964661 -1.45619e-20 -4.01978e-05)
(0.012643 -0.0400013 -3.17513e-20 -0.0125999 -3.47982e-20 -4.31623e-05)
(0.0150834 -0.0326141 -3.01649e-20 -0.0150378 -1.33746e-19 -4.55677e-05)
(0.017155 -0.0259331 -7.31348e-20 -0.0171076 -1.20536e-19 -4.73501e-05)
(0.0189705 -0.0198541 -2.04181e-19 -0.0189221 3.86156e-20 -4.84077e-05)
(0.0205973 -0.0143105 -1.04846e-19 -0.0205487 -6.3179e-20 -4.86212e-05)
(0.0220962 -0.00924813 -3.63648e-19 -0.0220483 -2.87643e-20 -4.7825e-05)
(0.023496 -0.00463965 -1.08727e-19 -0.0234501 9.4941e-26 -4.58314e-05)
(0.0248333 -0.000463377 -2.52581e-19 -0.0247909 -5.22401e-21 -4.23951e-05)
(0.0261165 0.00327987 -1.66596e-19 -0.0260793 1.4887e-19 -3.72421e-05)
(0.0273699 0.00658581 -3.18418e-20 -0.0273398 -4.16119e-20 -3.00258e-05)
(0.0285974 0.00943656 -3.38456e-19 -0.028577 9.28355e-20 -2.03639e-05)
(0.0297533 0.0117492 1.64809e-19 -0.0297455 1.52135e-20 -7.78406e-06)
(-0.0620933 -0.165041 -5.74705e-22 0.0620969 -4.11454e-21 -3.66257e-06)
(-0.0369606 -0.133626 9.85882e-21 0.0369703 -1.49844e-20 -9.74619e-06)
(-0.0206245 -0.109825 2.4381e-20 0.0206396 -1.71571e-20 -1.50992e-05)
(-0.00961568 -0.0910859 9.02447e-20 0.00963554 -7.24571e-20 -1.98581e-05)
(-0.00195216 -0.0758674 2.12493e-20 0.00197627 -1.34782e-19 -2.41152e-05)
(0.00355539 -0.0631693 -8.93071e-20 -0.00352747 -8.55936e-20 -2.79209e-05)
(0.00763474 -0.0523447 -9.08532e-20 -0.00760344 -1.87436e-20 -3.13051e-05)
(0.0107559 -0.0429405 2.32279e-20 -0.0107216 -2.38657e-21 -3.42679e-05)
(0.0132182 -0.0346521 1.1891e-19 -0.0131814 -1.083e-19 -3.67964e-05)
(0.0152294 -0.0272524 -2.89406e-20 -0.0151905 -1.63762e-19 -3.88488e-05)
(0.016922 -0.0205882 -9.71477e-20 -0.0168816 -1.15688e-19 -4.03708e-05)
(0.0183974 -0.0145391 -7.04807e-20 -0.0183561 -7.01651e-20 -4.12754e-05)
(0.019716 -0.0090288 -2.72252e-20 -0.0196746 -1.23953e-19 -4.14605e-05)
(0.0209326 -0.00399393 -1.71886e-19 -0.0208918 -1.57041e-19 -4.07848e-05)
(0.0220731 0.000597091 -2.98414e-19 -0.022034 -5.35821e-20 -3.90878e-05)
(0.0231709 0.00477213 -2.30031e-19 -0.0231347 3.93551e-20 -3.616e-05)
(0.0242337 0.00853222 -2.09541e-19 -0.0242019 1.72876e-19 -3.17673e-05)
(0.0252844 0.0118785 1.17317e-19 -0.0252588 2.3401e-19 -2.56136e-05)
(0.0263275 0.0147952 1.06593e-19 -0.0263101 5.28127e-20 -1.73728e-05)
(0.0273231 0.0171954 3.75458e-20 -0.0273165 -9.75567e-20 -6.64128e-06)
(-0.0511688 -0.168745 -1.86753e-20 0.0511718 1.5771e-21 -3.01297e-06)
(-0.0295841 -0.133746 -3.26429e-20 0.0295922 1.7126e-23 -8.01718e-06)
(-0.0156378 -0.107814 -2.60104e-20 0.0156502 -1.17903e-20 -1.24203e-05)
(-0.00630613 -0.0877992 -2.28274e-20 0.00632246 -5.24283e-20 -1.63346e-05)
(0.000136166 -0.0718204 -7.82019e-20 -0.000116329 -6.31483e-20 -1.98365e-05)
(0.00472253 -0.0586797 -1.16363e-19 -0.00469957 -1.78791e-20 -2.29672e-05)
(0.0080845 -0.0476111 -2.58221e-20 -0.00805875 -2.89543e-20 -2.57516e-05)
(0.0106291 -0.0380863 -5.36757e-20 -0.0106009 -5.99353e-20 -2.81898e-05)
(0.012615 -0.0297542 -1.70021e-20 -0.0125847 -1.09072e-19 -3.02715e-05)
(0.0142215 -0.0223558 -6.27685e-20 -0.0141895 -9.60595e-20 -3.19623e-05)
(0.0155628 -0.0157185 -1.7363e-20 -0.0155296 -1.16721e-19 -3.32174e-05)
(0.0167261 -0.00970687 -1.23622e-19 -0.0166921 -1.24981e-19 -3.39651e-05)
(0.0177632 -0.0042361 -1.15109e-19 -0.0177291 -1.20108e-19 -3.41212e-05)
(0.0187213 0.00076522 -2.30147e-19 -0.0186877 -8.23803e-20 -3.35689e-05)
(0.0196227 0.00533252 -1.93389e-19 -0.0195905 2.50242e-20 -3.21759e-05)
(0.0204963 0.00949924 -2.26667e-19 -0.0204665 4.18985e-20 -2.97692e-05)
(0.0213492 0.0132681 -2.24017e-19 -0.0213231 1.57872e-19 -2.61558e-05)
(0.0222016 0.0166451 9.68694e-20 -0.0221805 1.20386e-19 -2.10913e-05)
(0.0230579 0.0196163 7.49906e-20 -0.0230436 -1.56196e-20 -1.43069e-05)
(0.0238848 0.0220916 5.72414e-21 -0.0238793 1.98139e-20 -5.46987e-06)
(-0.040026 -0.171728 -2.65644e-20 0.0400284 2.71374e-21 -2.3502e-06)
(-0.0225803 -0.133703 -5.10066e-20 0.0225866 2.49506e-21 -6.25321e-06)
(-0.0113598 -0.105979 -5.41705e-20 0.0113695 -8.30044e-21 -9.68723e-06)
(-0.0038934 -0.0848947 -6.48672e-20 0.00390614 -2.68276e-20 -1.27401e-05)
(0.00122763 -0.0682835 -7.63991e-20 -0.00121216 -1.62746e-20 -1.54715e-05)
(0.00484596 -0.0547789 -1.29369e-20 -0.00482804 -1.8606e-20 -1.79137e-05)
(0.00747602 -0.0435137 -3.58863e-21 -0.00745593 -4.29748e-20 -2.00863e-05)