/*--------------------------------*- C++ -*----------------------------------*\
| =========                 |                                                 |
| \\      /  F ield         | foam-extend: Open Source CFD                    |
|  \\    /   O peration     | Version:  3.0                                   |
|   \\  /    A nd           | Web:         http://www.extend-project.de       |
|    \\/     M anipulation  |                                                 |
\*---------------------------------------------------------------------------*/
FoamFile
{
    version     2.0;
    format      ascii;
    class       volVectorField;
    location    "16";
    object      u;
}
// * * * * * * * * * * * * * * * * * * * * * * * * * * * * * * * * * * * * * //

dimensions      [0 0 0 0 0 0 0];

internalField   nonuniform List<vector> 
1920
(
(0.148352 -0.0597109 5.60748e-18)
(0.341565 -0.0472429 1.84453e-18)
(0.491253 -0.0380728 1.79314e-18)
(0.597351 -0.0309868 -5.19274e-19)
(0.68511 -0.0255851 4.14378e-18)
(0.747781 -0.0212606 1.04526e-18)
(0.802987 -0.017844 3.45497e-18)
(0.84178 -0.0150305 2.28931e-18)
(0.878336 -0.0127232 6.29473e-19)
(0.902876 -0.0107849 -7.35804e-19)
(0.927956 -0.00912459 -2.04953e-18)
(0.943339 -0.0077148 7.1277e-19)
(0.960902 -0.00643974 1.98458e-18)
(0.969971 -0.00535663 -8.25418e-19)
(0.98231 -0.00430815 -6.97596e-19)
(0.986696 -0.00342703 9.07358e-19)
(0.995186 -0.00250248 -7.49566e-18)
(0.995826 -0.00173995 -2.03467e-18)
(1.0013 -0.000883344 -3.52571e-18)
(0.998755 -6.66315e-05 9.085e-19)
(0.163941 -0.178114 9.65567e-18)
(0.353899 -0.140922 1.16984e-18)
(0.501192 -0.113568 2.65108e-18)
(0.605441 -0.092431 -5.27124e-18)
(0.69179 -0.0763182 -2.76643e-18)
(0.753331 -0.0634187 -1.11556e-19)
(0.807646 -0.0532273 -2.33537e-18)
(0.845704 -0.0448348 7.95425e-18)
(0.881657 -0.0379521 5.83646e-18)
(0.905691 -0.0321704 6.23578e-18)
(0.930338 -0.0272177 3.54145e-18)
(0.945353 -0.0230123 5.3795e-18)
(0.962583 -0.0192088 1.64661e-18)
(0.971369 -0.0159778 1.45674e-18)
(0.983435 -0.01285 2.47032e-18)
(0.98759 -0.0102215 1.21926e-17)
(0.995839 -0.00746324 1.39704e-17)
(0.99628 -0.00518824 1.21319e-17)
(1.00153 -0.00263285 5.26848e-18)
(0.998772 -0.000194598 3.98623e-18)
(0.19485 -0.29347 4.7067e-18)
(0.378354 -0.232191 6.15551e-19)
(0.5209 -0.18712 4.64728e-18)
(0.621481 -0.152293 4.81316e-18)
(0.705034 -0.125745 -1.83963e-18)
(0.764337 -0.104491 1.61887e-18)
(0.816882 -0.0876997 6.17087e-18)
(0.853484 -0.073872 -8.21191e-18)
(0.888243 -0.0625317 -8.52873e-18)
(0.911274 -0.0530055 -5.45925e-18)
(0.935061 -0.0448453 -5.10842e-18)
(0.949347 -0.0379163 -1.67885e-18)
(0.965917 -0.0316493 4.28001e-19)
(0.974142 -0.0263256 -2.49068e-18)
(0.985665 -0.0211721 -1.10384e-17)
(0.989364 -0.016841 -9.97327e-18)
(0.997134 -0.0122963 -1.83896e-17)
(0.99718 -0.00854776 -8.17043e-18)
(1.00198 -0.0043373 -1.53735e-17)
(0.998806 -0.000319263 1.1528e-17)
(0.240552 -0.403805 7.42564e-18)
(0.414513 -0.319486 3.62479e-18)
(0.55004 -0.257471 4.4791e-18)
(0.645197 -0.20955 4.42451e-18)
(0.724616 -0.173021 2.32845e-18)
(0.780609 -0.143776 -1.01862e-17)
(0.83054 -0.120671 -6.3944e-18)
(0.864988 -0.101645 -8.49425e-18)
(0.897981 -0.0860413 -1.74768e-17)
(0.919528 -0.0729337 -2.05111e-18)
(0.942045 -0.0617054 -1.16225e-18)
(0.955252 -0.0521714 -9.61244e-18)
(0.970845 -0.0435482 9.86871e-18)
(0.978242 -0.036223 8.74808e-19)
(0.988962 -0.0291318 3.93618e-18)
(0.991987 -0.0231723 -1.15888e-17)
(0.999049 -0.0169189 -7.7341e-18)
(0.998511 -0.011761 6.22793e-18)
(1.00266 -0.00596754 1.40111e-17)
(0.998855 -0.000438483 2.92861e-18)
(0.300264 -0.50723 1.28255e-17)
(0.461757 -0.401315 7.40232e-18)
(0.588114 -0.323416 7.23474e-18)
(0.676185 -0.263221 1.15008e-17)
(0.750201 -0.217336 1.63856e-17)
(0.80187 -0.180601 1.05107e-17)
(0.848384 -0.151579 1.24145e-18)
(0.880019 -0.127679 9.51801e-18)
(0.910704 -0.108079 4.99056e-18)
(0.930313 -0.091614 6.83633e-18)
(0.951169 -0.0775099 1.72371e-18)
(0.962966 -0.0655339 -1.0915e-17)
(0.977285 -0.054702 4.85909e-18)
(0.983598 -0.0455007 1.40929e-17)
(0.99327 -0.0365932 -1.12452e-17)
(0.995413 -0.0291072 3.14607e-17)
(1.00155 -0.0212521 -1.49258e-17)
(1.00025 -0.0147731 1.4299e-17)
(1.00354 -0.00749571 -1.27745e-17)
(0.99892 -0.00055024 -1.79925e-18)
(0.372966 -0.601976 1.81763e-17)
(0.519277 -0.476278 1.49142e-17)
(0.634469 -0.383827 1.21902e-17)
(0.713912 -0.312389 -1.89188e-17)
(0.781352 -0.257932 2.92773e-18)
(0.827755 -0.214336 -4.53127e-19)
(0.87011 -0.179892 2.65108e-17)
(0.898319 -0.151529 1.34932e-18)
(0.926195 -0.128267 6.15863e-19)
(0.943444 -0.108727 -2.07587e-17)
(0.962279 -0.091988 8.68717e-18)
(0.972359 -0.0777751 -5.18375e-18)
(0.985125 -0.0649198 2.72036e-18)
(0.99012 -0.0539997 -1.72085e-17)
(0.998515 -0.0434283 -1.45897e-20)
(0.999585 -0.0345441 5.76924e-18)
(1.0046 -0.0252217 -2.79445e-18)
(1.00237 -0.0175324 3.2916e-18)
(1.00461 -0.0088956 4.69997e-19)
(0.998999 -0.000652622 -2.51593e-17)
(0.457412 -0.686422 -6.25565e-18)
(0.58609 -0.543091 -1.12406e-17)
(0.688313 -0.437671 -9.47401e-18)
(0.757735 -0.356211 1.96153e-18)
(0.817535 -0.294115 2.8023e-18)
(0.857823 -0.244403 -1.96672e-18)
(0.895345 -0.205128 -5.62214e-18)
(0.919576 -0.172785 -1.04077e-17)
(0.944189 -0.146261 1.1571e-17)
(0.958697 -0.123979 -1.58455e-17)
(0.975183 -0.104892 -1.3319e-18)
(0.98327 -0.0886856 -2.44505e-17)
(0.994232 -0.0740269 -1.01271e-18)
(0.997695 -0.0615749 -4.09531e-17)
(1.00461 -0.0495205 -1.67955e-17)
(1.00443 -0.0393899 -3.26292e-19)
(1.00813 -0.0287597 -8.6523e-18)
(1.00483 -0.0199917 -2.31434e-17)
(1.00586 -0.0101434 1.74588e-17)
(0.99909 -0.000743881 -2.51409e-17)
(0.552158 -0.759124 -9.13515e-19)
(0.661053 -0.600612 -3.43942e-17)
(0.748724 -0.484026 -5.81801e-19)
(0.806902 -0.393939 5.03407e-18)
(0.858131 -0.325266 -1.83998e-17)
(0.891558 -0.270289 -4.66024e-18)
(0.923659 -0.226853 2.15358e-18)
(0.943425 -0.191085 2.28569e-18)
(0.964377 -0.161751 3.11372e-17)
(0.975809 -0.13711 -4.4036e-18)
(0.989661 -0.116002 1.77692e-17)
(0.995511 -0.0980785 -1.40557e-18)
(1.00445 -0.0818673 3.96549e-17)
(1.00619 -0.0680965 -1.60309e-17)
(1.01144 -0.0547653 2.15021e-17)
(1.00987 -0.0435617 3.26694e-17)
(1.0121 -0.0318057 -1.99897e-17)
(1.00759 -0.022109 5.76386e-17)
(1.00726 -0.0112175 9.73923e-19)
(0.999192 -0.00082246 5.16785e-17)
(0.655583 -0.818837 3.7795e-18)
(0.742882 -0.647855 -5.83061e-18)
(0.814669 -0.522099 -5.62102e-18)
(0.860573 -0.424926 3.91218e-18)
(0.902446 -0.350851 1.19006e-17)
(0.928382 -0.29155 -1.17255e-17)
(0.954566 -0.244698 1.12656e-17)
(0.969459 -0.206116 4.66055e-18)
(0.986414 -0.174475 8.33447e-18)
(0.99449 -0.147895 2.86597e-17)
(1.00547 -0.125127 -1.53381e-17)
(1.00887 -0.105793 -3.33663e-17)
(1.0156 -0.088307 3.21115e-17)
(1.01547 -0.0734529 -1.93215e-17)
(1.0189 -0.0590732 -2.44315e-18)
(1.0158 -0.0469883 -1.60738e-17)
(1.01644 -0.0343075 2.28456e-17)
(1.0106 -0.023848 3.23622e-17)
(1.00879 -0.0120998 -2.6619e-17)
(0.999304 -0.000887009 2.74724e-17)
(0.765918 -0.864539 1.31063e-17)
(0.830177 -0.684015 -1.46092e-18)
(0.88502 -0.55124 4.46816e-19)
(0.91783 -0.448643 6.13342e-18)
(0.949722 -0.370433 5.64795e-18)
(0.967667 -0.307822 1.15729e-17)
(0.987538 -0.258355 5.73146e-18)
(0.997232 -0.21762 1.6731e-17)
(1.00992 -0.184213 -6.58015e-18)
(1.01442 -0.15615 -9.00865e-18)
(1.02233 -0.13211 -5.5216e-18)
(1.02313 -0.111698 -2.15938e-17)
(1.0275 -0.0932356 -1.12526e-17)
(1.02537 -0.0775525 5.80313e-18)
(1.02686 -0.0623701 -2.79254e-17)
(1.02213 -0.0496108 1.86586e-17)
(1.02106 -0.0362222 -5.38454e-17)
(1.01381 -0.025179 5.22453e-19)
(1.01042 -0.012775 -2.63274e-17)
(0.999424 -0.000936428 2.28188e-17)
(0.881273 -0.895449 -1.43528e-17)
(0.921446 -0.70847 -6.31842e-19)
(0.958572 -0.570948 5.04539e-18)
(0.977693 -0.464683 -3.54037e-18)
(0.999149 -0.383677 2.35391e-17)
(1.00874 -0.318827 -2.64535e-17)
(1.02201 -0.267592 -9.55772e-18)
(1.02627 -0.225401 -8.4716e-18)
(1.0345 -0.190799 -3.4618e-18)
(1.03525 -0.161732 -3.16056e-17)
(1.03995 -0.136833 -7.01153e-19)
(1.03803 -0.115691 2.34634e-17)
(1.03994 -0.0965691 -5.01023e-18)
(1.03572 -0.0803252 -2.40506e-17)
(1.03519 -0.0646001 -6.87488e-18)
(1.02875 -0.0513845 7.34277e-18)
(1.02589 -0.0375172 2.12589e-17)
(1.01717 -0.0260791 3.83634e-18)
(1.01213 -0.0132318 1.37605e-17)
(0.999549 -0.000969854 -7.70135e-17)
(0.999677 -0.911037 -1.62371e-17)
(1.01513 -0.720803 -1.44259e-17)
(1.03407 -0.580887 -4.87442e-19)
(1.03914 -0.472772 4.85191e-18)
(1.04988 -0.390356 -1.27746e-17)
(1.0509 -0.324377 -7.68398e-18)
(1.05739 -0.27225 5.59537e-18)
(1.05607 -0.229324 -4.98506e-18)
(1.05973 -0.19412 1.96894e-17)
(1.05664 -0.164548 1.30335e-17)
(1.05805 -0.139215 1.04664e-18)
(1.05333 -0.117705 4.60877e-18)
(1.05271 -0.0982501 2.80789e-18)
(1.04634 -0.0817235 4.53231e-17)
(1.04373 -0.0657245 -2.61424e-17)
(1.03555 -0.052279 -1.28572e-18)
(1.03085 -0.0381703 -2.68945e-18)
(1.02062 -0.0265331 -3.97466e-18)
(1.01387 -0.013462 -1.88267e-17)
(0.999677 -0.000986729 3.12548e-17)
(1.1191 -0.911037 -7.21108e-18)
(1.10961 -0.720803 -1.516e-17)
(1.11021 -0.580887 -3.09975e-18)
(1.10111 -0.472772 1.00662e-17)
(1.10105 -0.390356 -2.36944e-17)
(1.09342 -0.324377 -5.94333e-18)
(1.09308 -0.27225 -4.92693e-18)
(1.08614 -0.229324 6.62933e-18)
(1.08518 -0.19412 1.87323e-17)
(1.07821 -0.164548 1.85691e-17)
(1.0763 -0.139215 1.74214e-18)
(1.06876 -0.117705 2.13171e-18)
(1.06559 -0.0982501 -8.64894e-19)
(1.05705 -0.0817235 7.08823e-18)
(1.05234 -0.0657246 1.95443e-17)
(1.0424 -0.0522789 8.07231e-19)
(1.03586 -0.0381703 2.35585e-18)
(1.0241 -0.0265331 1.31431e-18)
(1.01564 -0.0134621 1.73587e-17)
(0.999806 -0.000986732 4.89193e-19)
(1.23751 -0.895449 -1.30898e-17)
(1.20329 -0.70847 9.89852e-18)
(1.18571 -0.570948 -8.19965e-18)
(1.16256 -0.464683 -6.03198e-18)
(1.15179 -0.383677 1.33558e-18)
(1.13558 -0.318827 -5.40173e-18)
(1.12846 -0.267591 1.67022e-18)
(1.11594 -0.2254 -2.14584e-17)
(1.11041 -0.190799 -2.72867e-17)
(1.09959 -0.161732 5.02277e-18)
(1.09439 -0.136833 1.26698e-17)
(1.08406 -0.115691 1.3089e-17)
(1.07836 -0.0965689 -3.98684e-18)
(1.06767 -0.0803251 -1.88188e-17)
(1.06088 -0.0645999 3.01543e-18)
(1.0492 -0.0513844 3.42452e-18)
(1.04082 -0.0375171 2.40255e-17)
(1.02755 -0.0260791 1.00151e-18)
(1.01739 -0.0132317 -1.00572e-17)
(0.999934 -0.000969891 3.31986e-17)
(1.35286 -0.86454 5.556e-18)
(1.29456 -0.684015 2.9749e-18)
(1.25926 -0.55124 -9.94788e-18)
(1.22242 -0.448642 -1.65763e-18)
(1.20121 -0.370433 5.84023e-18)
(1.17665 -0.307822 1.62981e-17)
(1.16294 -0.258355 1.4696e-18)
(1.14498 -0.21762 7.00255e-18)
(1.13499 -0.184213 -2.18962e-17)
(1.12043 -0.156149 7.97382e-18)
(1.11202 -0.13211 -8.44792e-19)
(1.09896 -0.111698 1.59982e-19)
(1.0908 -0.0932356 -2.57429e-17)
(1.07802 -0.0775524 7.24887e-19)
(1.06921 -0.0623701 -2.40345e-17)
(1.05582 -0.0496107 -2.71233e-17)
(1.04565 -0.0362221 -1.84314e-17)
(1.03091 -0.0251789 -2.3028e-17)
(1.01909 -0.012775 1.11306e-17)
(1.00006 -0.00093644 -4.71271e-17)
(1.4632 -0.818838 2.25422e-18)
(1.38186 -0.647856 8.01478e-18)
(1.32961 -0.522099 -1.29734e-17)
(1.27967 -0.424926 -2.01766e-18)
(1.24849 -0.350851 3.34954e-18)
(1.21594 -0.291549 1.43495e-17)
(1.19591 -0.244697 -5.47172e-18)
(1.17275 -0.206116 2.91837e-19)
(1.1585 -0.174474 -7.21478e-18)
(1.14036 -0.147895 5.99378e-18)
(1.12888 -0.125126 -7.28794e-18)
(1.11322 -0.105793 2.35054e-17)
(1.1027 -0.0883068 -4.47904e-18)
(1.08792 -0.0734527 2.82184e-18)
(1.07717 -0.0590729 2.07565e-17)
(1.06215 -0.0469881 -1.94389e-17)
(1.05027 -0.0343073 1.55596e-17)
(1.03412 -0.0238479 -1.87515e-17)
(1.02072 -0.0120996 2.06263e-17)
(1.00018 -0.000887007 8.16003e-18)
(1.56662 -0.759125 -1.99096e-18)
(1.46369 -0.600612 -1.12198e-17)
(1.39556 -0.484026 2.91383e-18)
(1.33335 -0.393939 -4.35712e-18)
(1.2928 -0.325266 -1.24197e-17)
(1.25276 -0.270288 3.49056e-18)
(1.22682 -0.226853 -9.83093e-19)
(1.19878 -0.191085 3.08759e-18)
(1.18053 -0.161751 2.08735e-17)
(1.15904 -0.13711 -1.06842e-17)
(1.14468 -0.116002 -7.41764e-18)
(1.12658 -0.0980783 2.53381e-17)
(1.11385 -0.0818671 2.63219e-18)
(1.09719 -0.0680963 2.78923e-17)
(1.08463 -0.0547651 -1.8943e-18)
(1.06808 -0.0435616 1.35436e-17)
(1.05461 -0.0318055 1.731e-17)
(1.03713 -0.0221088 -6.50351e-18)
(1.02225 -0.0112173 3.41694e-18)
(1.00029 -0.000822356 -3.776e-18)
(1.66137 -0.686424 -5.10013e-18)
(1.53865 -0.543091 -2.47149e-18)
(1.45597 -0.437671 -3.51501e-18)
(1.38251 -0.356211 3.64647e-18)
(1.3334 -0.294115 -5.51321e-18)
(1.28649 -0.244403 1.53723e-18)
(1.25513 -0.205127 7.11131e-20)
(1.22263 -0.172785 -1.04969e-18)
(1.20072 -0.14626 -1.02562e-17)
(1.17615 -0.123979 1.14439e-18)
(1.15916 -0.104892 -3.01323e-18)
(1.13882 -0.0886853 -4.187e-18)
(1.12407 -0.0740266 -1.71136e-17)
(1.10569 -0.0615747 2.67609e-18)
(1.09146 -0.0495202 -8.83009e-18)
(1.07352 -0.0393897 -2.34732e-18)
(1.05858 -0.0287594 5.46016e-19)
(1.03989 -0.0199915 -1.45279e-17)
(1.02365 -0.010143 2.59252e-17)
(1.00039 -0.000743678 -2.2455e-17)
(1.74581 -0.601978 7.37356e-18)
(1.60546 -0.476278 6.6435e-18)
(1.50981 -0.383827 4.34848e-18)
(1.42634 -0.312389 -7.42543e-18)
(1.36958 -0.257932 -8.81867e-19)
(1.31656 -0.214335 4.09167e-18)
(1.28036 -0.179892 6.14305e-18)
(1.24389 -0.151528 -1.93291e-19)
(1.21872 -0.128267 -9.90843e-18)
(1.1914 -0.108726 6.65749e-19)
(1.17206 -0.0919878 2.33879e-18)
(1.14973 -0.0777748 1.25167e-18)
(1.13318 -0.0649196 -2.80726e-18)
(1.11327 -0.0539995 -1.32315e-18)
(1.09755 -0.0434281 1.24548e-17)
(1.07836 -0.0345438 1.79916e-18)
(1.06212 -0.0252214 1.14612e-17)
(1.04235 -0.0175321 -4.9529e-18)
(1.0249 -0.00889523 -1.59265e-17)
(1.00049 -0.000652212 3.9212e-18)
(1.81852 -0.507231 3.97393e-18)
(1.66298 -0.401316 3.79237e-18)
(1.55617 -0.323416 2.63219e-18)
(1.46406 -0.263221 2.65265e-18)
(1.40073 -0.217335 4.77803e-18)
(1.34245 -0.180601 4.5278e-18)
(1.30209 -0.151578 -2.32981e-18)
(1.26219 -0.127679 3.53242e-18)
(1.23421 -0.108078 2.65665e-18)
(1.20453 -0.0916136 3.743e-18)
(1.18317 -0.0775095 -4.84446e-18)
(1.15912 -0.0655337 3.55791e-18)
(1.14102 -0.0547017 -2.19314e-19)
(1.11979 -0.0455004 5.13758e-18)
(1.1028 -0.0365928 -2.38727e-18)
(1.08254 -0.0291069 1.22285e-19)
(1.06516 -0.0212517 6.93582e-18)
(1.04447 -0.0147727 -4.47984e-18)
(1.02597 -0.00749516 3.88204e-18)
(1.00056 -0.000549636 1.16631e-18)
(1.87823 -0.403806 2.60072e-18)
(1.71023 -0.319487 2.39858e-18)
(1.59424 -0.257471 1.6497e-18)
(1.49505 -0.20955 1.46167e-18)
(1.42632 -0.17302 1.48967e-18)
(1.36371 -0.143776 -3.16175e-18)
(1.31993 -0.120671 -1.24819e-18)
(1.27722 -0.101645 -3.45547e-18)
(1.24693 -0.086041 -1.1554e-18)
(1.21532 -0.0729334 1.11527e-18)
(1.1923 -0.0617052 -6.81931e-19)
(1.16684 -0.0521712 3.79096e-18)
(1.14746 -0.043548 -1.03135e-18)
(1.12515 -0.0362228 3.32815e-18)
(1.10711 -0.0291315 1.1041e-17)
(1.08596 -0.0231719 -2.49485e-18)
(1.06766 -0.0169185 1.24487e-18)
(1.04621 -0.0117605 -8.0775e-19)
(1.02686 -0.00596694 -1.4927e-19)
(1.00063 -0.000437576 -2.69956e-18)
(1.92393 -0.293472 1.22558e-18)
(1.74639 -0.232191 1.52518e-18)
(1.62338 -0.18712 9.59247e-19)
(1.51877 -0.152293 2.1865e-18)
(1.4459 -0.125745 1.3072e-18)
(1.37998 -0.104491 -1.62889e-18)
(1.33359 -0.0876991 1.83546e-19)
(1.28872 -0.0738716 -2.34782e-18)
(1.25667 -0.0625313 -1.56394e-18)
(1.22357 -0.0530053 -6.11682e-19)
(1.19928 -0.044845 3.25313e-19)
(1.17274 -0.0379161 -1.19601e-19)
(1.15239 -0.031649 -4.17964e-20)
(1.12925 -0.0263254 1.23694e-18)
(1.1104 -0.0211717 1.19197e-18)
(1.08858 -0.0168406 -2.41125e-18)
(1.06958 -0.0122957 -2.88752e-18)
(1.04754 -0.00854717 -2.18158e-18)
(1.02753 -0.00433653 2.16274e-18)
(1.00068 -0.000318086 -2.96993e-18)
(1.95484 -0.178116 1.22848e-18)
(1.77084 -0.140923 9.92146e-19)
(1.64309 -0.113568 5.70592e-19)
(1.53481 -0.0924305 2.74187e-19)
(1.45914 -0.0763175 2.46119e-19)
(1.39099 -0.063418 -7.91858e-19)
(1.34283 -0.0532267 -1.0438e-19)
(1.2965 -0.0448344 -6.09508e-19)
(1.26325 -0.0379518 4.66361e-20)
(1.22916 -0.0321701 1.55829e-18)
(1.204 -0.0272175 3.53612e-19)
(1.17674 -0.0230122 1.04178e-18)
(1.15572 -0.0192086 6.06881e-19)
(1.13202 -0.0159775 1.22856e-18)
(1.11263 -0.0128497 1.49922e-18)
(1.09036 -0.010221 1.19193e-18)
(1.07087 -0.00746265 1.34286e-18)
(1.04844 -0.0051875 1.66185e-18)
(1.02799 -0.00263201 1.00908e-18)
(1.00071 -0.000193063 6.40148e-19)
(1.97043 -0.0597123 4.45618e-19)
(1.78317 -0.0472435 5.48981e-19)
(1.65303 -0.0380727 2.52233e-19)
(1.5429 -0.0309865 2.38509e-19)
(1.46582 -0.0255846 2.46182e-19)
(1.39654 -0.0212602 -3.03097e-19)
(1.34749 -0.0178436 1.12154e-19)
(1.30043 -0.0150302 -2.99987e-19)
(1.26658 -0.0127228 2.49015e-19)
(1.23197 -0.0107846 9.52394e-19)
(1.20639 -0.0091243 8.30891e-19)
(1.17875 -0.00771457 8.98456e-19)
(1.1574 -0.00643943 5.99795e-19)
(1.13342 -0.00535633 1.17195e-18)
(1.11376 -0.00430772 1.2946e-18)
(1.09125 -0.00342655 1.03874e-18)
(1.07153 -0.0025018 1.43258e-18)
(1.04889 -0.00173915 1.6096e-18)
(1.02822 -0.000882365 8.06969e-19)
(1.00073 -6.4801e-05 1.13616e-18)
(1.97043 0.0597128 -4.2996e-19)
(1.78317 0.0472446 1.65721e-19)
(1.65303 0.038074 -7.64873e-20)
(1.5429 0.0309878 3.27995e-19)
(1.46582 0.025586 1.9168e-19)
(1.39654 0.0212615 1.93326e-20)
(1.34749 0.0178448 1.47678e-19)
(1.30043 0.0150313 -1.46248e-19)
(1.26658 0.0127238 3.28168e-19)
(1.23197 0.0107855 6.43392e-19)
(1.20639 0.00912498 8.64491e-19)
(1.17875 0.00771511 7.47095e-19)
(1.1574 0.00643983 6.11414e-19)
(1.13342 0.00535659 1.09844e-18)
(1.11376 0.00430786 1.23614e-18)
(1.09125 0.00342657 6.34687e-19)
(1.07153 0.00250177 1.06172e-18)
(1.04889 0.00173904 7.40559e-19)
(1.02822 0.000882298 6.78684e-19)
(1.00073 6.46633e-05 8.17375e-19)
(1.95484 0.178116 -1.45217e-18)
(1.77084 0.140924 -1.44106e-19)
(1.64309 0.113569 -5.21173e-19)
(1.53481 0.0924319 4.11896e-19)
(1.45914 0.0763188 3.07652e-19)
(1.39099 0.0634193 1.34287e-19)
(1.34283 0.0532279 2.19201e-19)
(1.2965 0.0448355 -1.09526e-20)
(1.26325 0.0379527 6.18808e-19)
(1.22916 0.0321709 4.98272e-19)
(1.204 0.0272182 8.71527e-19)
(1.17674 0.0230127 7.35258e-19)
(1.15572 0.019209 8.08349e-19)
(1.13202 0.0159778 1.07286e-18)
(1.11263 0.0128498 1.57468e-18)
(1.09036 0.010221 5.46319e-19)
(1.07087 0.00746262 7.2645e-19)
(1.04844 0.0051874 4.67139e-20)
(1.02799 0.00263195 8.87254e-19)
(1.00071 0.000192948 3.87968e-19)
(1.92393 0.293472 -1.51935e-18)
(1.74639 0.232193 -4.644e-19)
(1.62338 0.187121 -1.08019e-18)
(1.51877 0.152294 -1.20752e-18)
(1.4459 0.125746 -4.01802e-19)
(1.37998 0.104492 6.11022e-20)
(1.33359 0.0877002 -1.13901e-18)
(1.28872 0.0738726 2.10145e-18)
(1.25667 0.0625322 2.78988e-18)
(1.22357 0.0530061 1.8826e-18)
(1.19928 0.0448456 2.00279e-18)
(1.17274 0.0379166 2.13583e-18)
(1.15239 0.0316494 5.86259e-19)
(1.12925 0.0263256 1.34647e-18)
(1.1104 0.0211718 3.14057e-18)
(1.08858 0.0168406 3.1455e-18)
(1.06958 0.0122957 5.35411e-18)
(1.04754 0.00854709 2.02073e-18)
(1.02753 0.00433649 2.88509e-18)
(1.00068 0.000318024 -8.72667e-19)
(1.87823 0.403807 -2.83707e-18)
(1.71023 0.319488 -1.34266e-18)
(1.59424 0.257472 -1.23805e-18)
(1.49505 0.209551 -1.16648e-18)
(1.42632 0.173021 -1.87188e-18)
(1.36371 0.143777 2.13261e-18)
(1.31993 0.120672 6.56071e-19)
(1.27722 0.101646 1.10105e-18)
(1.24693 0.0860418 3.39374e-18)
(1.21532 0.0729341 2.18694e-19)
(1.1923 0.0617058 3.93126e-19)
(1.16684 0.0521717 3.70496e-18)
(1.14746 0.0435483 -1.58448e-18)
(1.12515 0.036223 3.0371e-19)
(1.10711 0.0291316 -7.33911e-19)
(1.08596 0.023172 1.29883e-18)
(1.06766 0.0169185 2.37311e-18)
(1.04621 0.0117604 -2.61912e-18)
(1.02686 0.0059669 -3.25941e-18)
(1.00063 0.000437578 7.46948e-19)
(1.81852 0.507232 -4.76691e-18)
(1.66298 0.401317 -2.24851e-18)
(1.55617 0.323417 -2.00151e-18)
(1.46406 0.263222 -2.30394e-18)
(1.40073 0.217336 -5.5042e-18)
(1.34245 0.180602 -3.19277e-18)
(1.30209 0.151579 -2.08913e-18)
(1.26219 0.12768 -3.83824e-18)
(1.23421 0.108079 -3.13062e-18)
(1.20453 0.0916144 -1.82899e-18)
(1.18317 0.0775101 -5.58227e-19)
(1.15912 0.0655342 4.02538e-18)
(1.14102 0.0547021 -3.09628e-19)
(1.11979 0.0455006 -2.0487e-18)
(1.1028 0.0365929 3.75311e-18)
(1.08254 0.029107 -1.01293e-17)
(1.06516 0.0212517 4.75406e-18)
(1.04447 0.0147727 -4.81267e-18)
(1.02597 0.00749515 4.02451e-18)
(1.00056 0.000549734 2.15107e-18)
(1.74582 0.601979 -6.5523e-18)
(1.60546 0.47628 -3.85075e-18)
(1.50981 0.383828 -3.39965e-18)
(1.42634 0.31239 8.25171e-18)
(1.36958 0.257933 -7.94028e-19)
(1.31656 0.214336 1.39403e-18)
(1.28036 0.179893 -9.71438e-18)
(1.24389 0.151529 -2.61056e-19)
(1.21872 0.128267 -1.68971e-18)
(1.1914 0.108727 7.69139e-18)
(1.17206 0.0919883 -3.15192e-18)
(1.14973 0.0777752 2.8448e-18)
(1.13318 0.0649199 -7.82885e-19)
(1.11327 0.0539997 9.83502e-18)
(1.09755 0.0434282 7.34434e-20)
(1.07836 0.0345438 -1.38701e-18)
(1.06211 0.0252214 7.98522e-19)
(1.04235 0.017532 -1.48497e-18)
(1.0249 0.00889522 -1.62773e-18)
(1.00049 0.000652395 8.58076e-18)
(1.66137 0.686425 3.09395e-18)
(1.53865 0.543093 7.6201e-18)
(1.45597 0.437672 5.05157e-18)
(1.38251 0.356212 -1.13021e-18)
(1.3334 0.294116 -7.76087e-19)
(1.28649 0.244404 2.14387e-18)
(1.25513 0.205128 3.46952e-18)
(1.22263 0.172786 4.07007e-18)
(1.20072 0.146261 -7.14497e-18)
(1.17615 0.123979 4.72117e-18)
(1.15916 0.104892 -4.7718e-19)
(1.13882 0.0886857 1.10661e-17)
(1.12407 0.0740269 -2.27153e-18)
(1.10569 0.0615749 1.84754e-17)
(1.09146 0.0495203 4.87826e-18)
(1.07352 0.0393897 -2.00896e-18)
(1.05858 0.0287594 2.80809e-18)
(1.03989 0.0199915 6.20447e-18)
(1.02365 0.010143 -8.98114e-18)
(1.00039 0.000743977 5.87141e-18)
(1.56662 0.759127 -6.37834e-19)
(1.46369 0.600613 1.81599e-17)
(1.39556 0.484027 -4.65741e-19)
(1.33335 0.39394 -2.9417e-18)
(1.2928 0.325266 9.21673e-18)
(1.25276 0.270289 3.4312e-18)
(1.22682 0.226854 -1.587e-18)
(1.19878 0.191086 -2.60321e-18)
(1.18053 0.161752 -1.71945e-17)
(1.15904 0.13711 -1.14898e-19)
(1.14468 0.116002 -9.0507e-18)
(1.12658 0.0980786 1.32275e-18)
(1.11385 0.0818673 -2.35107e-17)
(1.09719 0.0680964 6.40885e-18)
(1.08463 0.0547652 -1.30358e-17)
(1.06808 0.0435615 -1.84478e-17)
(1.05461 0.0318054 8.81155e-18)
(1.03713 0.0221088 -3.33465e-17)
(1.02225 0.0112173 1.72744e-18)
(1.00029 0.000822737 -3.00841e-17)
(1.4632 0.818839 -3.80562e-18)
(1.38186 0.647858 1.48793e-18)
(1.32961 0.522101 2.22332e-18)
(1.27967 0.424927 -2.41366e-18)
(1.24849 0.350852 -8.55252e-18)
(1.21593 0.29155 7.08391e-18)
(1.19591 0.244698 -6.36802e-18)
(1.17275 0.206116 -3.35214e-18)
(1.1585 0.174475 -3.9295e-18)
(1.14036 0.147895 -1.60738e-17)
(1.12888 0.125127 1.1432e-17)
(1.11322 0.105793 2.03727e-17)
(1.1027 0.0883069 -1.86163e-17)
(1.08792 0.0734528 1.02806e-17)
(1.07717 0.0590729 2.48669e-18)
(1.06215 0.0469881 9.93291e-18)
(1.05027 0.0343072 -1.25323e-17)
(1.03412 0.0238479 -1.50156e-17)
(1.02072 0.0120997 2.05256e-17)
(1.00018 0.000887495 -1.372e-17)
(1.35286 0.864542 -9.01001e-18)
(1.29456 0.684017 -8.71119e-20)
(1.25926 0.551241 -1.16658e-18)
(1.22242 0.448643 -3.3586e-18)
(1.20121 0.370434 -4.07288e-18)
(1.17665 0.307822 -7.17457e-18)
(1.16294 0.258355 -1.38317e-18)
(1.14498 0.21762 -1.06754e-17)
(1.13499 0.184213 5.57854e-18)
(1.12043 0.15615 9.93921e-18)
(1.11202 0.13211 3.31452e-18)
(1.09896 0.111698 9.61658e-18)
(1.0908 0.0932356 7.57154e-18)
(1.07802 0.0775524 -6.08246e-18)
(1.06921 0.06237 1.78228e-17)
(1.05581 0.0496106 -1.51788e-17)
(1.04565 0.036222 3.79457e-17)
(1.03091 0.0251789 2.97546e-18)
(1.01909 0.012775 1.78466e-17)
(1.00006 0.000936974 -9.6464e-18)
(1.23751 0.895451 1.31197e-17)
(1.20329 0.708472 5.39455e-19)
(1.18571 0.570949 -3.52961e-18)
(1.16256 0.464684 4.43606e-18)
(1.15179 0.383678 -1.70768e-17)
(1.13558 0.318828 2.26838e-17)
(1.12846 0.267592 9.20916e-18)
(1.11594 0.225401 8.44107e-18)
(1.11041 0.190799 1.73407e-18)
(1.09959 0.161733 2.32005e-17)
(1.09439 0.136833 -2.29538e-18)
(1.08406 0.115692 -2.44602e-17)
(1.07836 0.096569 2.47079e-19)
(1.06767 0.0803251 1.4327e-17)
(1.06088 0.0645998 2.00067e-18)
(1.04919 0.0513844 -6.77064e-18)
(1.04082 0.037517 -2.11673e-17)
(1.02755 0.0260792 -3.48035e-18)
(1.01739 0.0132317 -1.36502e-17)
(0.999935 0.000970487 6.21617e-17)
(1.1191 0.911039 1.45647e-17)
(1.10961 0.720805 1.30495e-17)
(1.11021 0.580888 2.03517e-18)
(1.10111 0.472773 -3.81758e-18)
(1.10105 0.390357 1.55431e-17)
(1.09342 0.324378 5.55254e-18)
(1.09308 0.27225 -5.28373e-18)
(1.08613 0.229325 4.85093e-18)
(1.08518 0.19412 -1.84401e-17)
(1.07821 0.164548 -1.73432e-17)
(1.07629 0.139215 -4.16417e-18)
(1.06876 0.117705 -5.97495e-18)
(1.06559 0.09825 -4.44738e-18)
(1.05705 0.0817234 -4.51917e-17)
(1.05234 0.0657244 1.93163e-17)
(1.0424 0.0522788 3.22323e-19)
(1.03586 0.0381701 1.2066e-18)
(1.0241 0.0265331 3.05198e-18)
(1.01564 0.013462 1.463e-17)
(0.999807 0.000987303 -3.65494e-17)
(0.999679 0.91104 6.29314e-18)
(1.01513 0.720805 1.32167e-17)
(1.03407 0.580888 4.86324e-18)
(1.03914 0.472773 -9.90275e-18)
(1.04988 0.390357 2.49591e-17)
(1.0509 0.324378 3.82528e-18)
(1.05739 0.27225 5.05285e-18)
(1.05607 0.229325 -4.2256e-18)
(1.05973 0.19412 -1.38508e-17)
(1.05664 0.164548 -2.01225e-17)
(1.05805 0.139215 -3.74021e-18)
(1.05333 0.117705 -4.16238e-18)
(1.05271 0.09825 2.68002e-18)
(1.04634 0.0817234 -3.73373e-18)
(1.04373 0.0657244 -2.24513e-17)
(1.03555 0.0522788 -1.28002e-19)
(1.03085 0.0381701 -4.61959e-18)
(1.02062 0.0265331 -9.61437e-19)
(1.01387 0.013462 -2.01838e-17)
(0.999677 0.000987283 -3.25197e-18)
(0.881276 0.895452 1.41822e-17)
(0.921447 0.708472 -1.47274e-17)
(0.958572 0.570949 1.10537e-17)
(0.977693 0.464683 7.53616e-18)
(0.999149 0.383678 -4.80431e-18)
(1.00874 0.318828 2.23725e-18)
(1.02201 0.267592 -3.67518e-18)
(1.02627 0.225401 2.71935e-17)
(1.0345 0.190799 3.8539e-17)
(1.03525 0.161732 -4.40172e-18)
(1.03995 0.136833 -1.51053e-17)
(1.03803 0.115691 -1.7655e-17)
(1.03994 0.0965689 8.22505e-18)
(1.03572 0.0803251 2.18814e-17)
(1.03518 0.0645998 5.02922e-19)
(1.02875 0.0513843 7.96955e-19)
(1.02589 0.037517 -2.76862e-17)
(1.01717 0.026079 3.44705e-18)
(1.01212 0.0132316 1.21554e-17)
(0.999549 0.000970284 -3.56198e-17)
(0.76592 0.864542 -8.80143e-18)
(0.830178 0.684017 -4.71167e-18)
(0.88502 0.551241 1.37586e-17)
(0.91783 0.448643 1.25321e-18)
(0.949722 0.370434 -9.30212e-18)
(0.967667 0.307822 -2.56502e-17)
(0.987537 0.258355 -2.64597e-18)
(0.997232 0.21762 -1.2141e-17)
(1.00992 0.184213 2.87361e-17)
(1.01442 0.15615 -9.76028e-18)
(1.02232 0.13211 2.84694e-18)
(1.02313 0.111698 -4.26616e-18)
(1.0275 0.0932355 3.48492e-17)
(1.02537 0.0775524 -9.51186e-18)
(1.02686 0.0623699 2.95983e-17)
(1.02213 0.0496106 3.68677e-17)
(1.02106 0.0362219 2.32829e-17)
(1.01381 0.0251788 3.31294e-17)
(1.01042 0.0127748 -2.0988e-17)
(0.999424 0.000936731 6.78506e-17)
(0.655585 0.81884 -2.07554e-18)
(0.742883 0.647858 -1.14873e-17)
(0.81467 0.522101 1.81765e-17)
(0.860573 0.424927 2.05352e-18)
(0.902446 0.350852 -3.03999e-18)
(0.928382 0.29155 -2.136e-17)
(0.954565 0.244698 8.39841e-18)
(0.969459 0.206116 -1.55558e-18)
(0.986414 0.174475 6.79758e-18)
(0.994489 0.147895 -7.4423e-18)
(1.00546 0.125126 1.33438e-17)
(1.00887 0.105793 -4.0858e-17)
(1.0156 0.0883068 3.11441e-18)
(1.01547 0.0734527 -1.47545e-17)
(1.0189 0.0590728 -3.88063e-17)
(1.0158 0.046988 2.08962e-17)
(1.01644 0.0343071 -3.41566e-17)
(1.0106 0.0238477 2.38614e-17)
(1.00879 0.0120995 -3.6282e-17)
(0.999304 0.000887072 -1.85409e-17)
(0.55216 0.759128 5.40259e-18)
(0.661054 0.600614 2.16772e-17)
(0.748725 0.484027 -8.65735e-18)
(0.806902 0.39394 4.9655e-18)
(0.858131 0.325266 2.44638e-17)
(0.891557 0.270289 -4.05507e-18)
(0.923658 0.226853 5.36085e-19)
(0.943425 0.191086 -5.45156e-18)
(0.964376 0.161751 -3.77251e-17)
(0.975809 0.13711 2.02217e-17)
(0.98966 0.116002 1.49368e-17)
(0.99551 0.0980785 -4.02047e-17)
(1.00445 0.0818672 -1.06089e-18)
(1.00619 0.0680963 -5.14317e-17)
(1.01144 0.054765 7.12078e-18)
(1.00987 0.0435615 -2.85562e-17)
(1.0121 0.0318053 -3.32456e-17)
(1.00759 0.0221087 8.32415e-18)
(1.00726 0.0112171 -6.60464e-18)
(0.999192 0.000822273 8.60398e-18)
(0.457413 0.686426 1.02573e-17)
(0.586091 0.543093 2.06369e-18)
(0.688313 0.437672 5.06558e-18)
(0.757735 0.356212 -1.10582e-17)
(0.817535 0.294115 9.69545e-18)
(0.857823 0.244403 -3.68218e-18)
(0.895345 0.205128 -9.8302e-19)
(0.919575 0.172785 3.40123e-18)
(0.944188 0.146261 2.66e-17)
(0.958696 0.123979 -4.74484e-18)
(0.975182 0.104892 5.20698e-18)
(0.983269 0.0886855 1.57802e-17)
(0.994232 0.0740268 4.00847e-17)
(0.997694 0.0615747 1.85847e-18)
(1.00461 0.0495202 1.94165e-17)
(1.00443 0.0393895 7.98252e-18)
(1.00813 0.0287592 7.17636e-19)
(1.00483 0.0199912 3.11859e-17)
(1.00586 0.0101428 -5.02399e-17)
(0.999089 0.000743337 4.66548e-17)
(0.372967 0.60198 -1.92213e-17)
(0.519278 0.47628 -1.88374e-17)
(0.634469 0.383828 -1.3745e-17)
(0.713912 0.31239 1.61903e-17)
(0.781352 0.257932 -9.11307e-19)
(0.827755 0.214336 -1.07696e-17)
(0.870109 0.179892 -1.42102e-17)
(0.898319 0.151529 -2.95636e-19)
(0.926195 0.128267 2.02608e-17)
(0.943444 0.108727 -3.33943e-18)
(0.962278 0.0919881 -6.79707e-18)
(0.972359 0.0777752 -4.7705e-18)
(0.985125 0.0649198 2.56785e-18)
(0.990119 0.0539996 5.43266e-18)
(0.998514 0.043428 -3.22171e-17)
(0.999584 0.0345437 -1.69484e-18)
(1.0046 0.0252211 -2.97118e-17)
(1.00237 0.0175318 1.24804e-17)
(1.00461 0.00889489 4.68083e-17)
(0.998998 0.00065171 -1.49119e-17)
(0.300265 0.507233 -7.49205e-18)
(0.461758 0.401318 -8.72644e-18)
(0.588114 0.323417 -7.28089e-18)
(0.676185 0.263222 -1.26124e-17)
(0.750201 0.217336 -1.56103e-17)
(0.80187 0.180601 -1.01121e-17)
(0.848384 0.151579 1.12788e-17)
(0.880019 0.127679 -9.30408e-18)
(0.910704 0.108079 -1.38012e-17)
(0.930313 0.0916142 -1.15646e-17)
(0.951169 0.07751 1.53878e-17)
(0.962966 0.065534 -1.17161e-17)
(0.977284 0.054702 2.70716e-19)
(0.983597 0.0455005 -1.44606e-17)
(0.993269 0.0365928 1.17009e-17)
(0.995412 0.0291067 6.253e-18)
(1.00155 0.0212515 -1.45302e-17)
(1.00025 0.0147723 1.5153e-17)
(1.00354 0.00749481 -1.75488e-17)
(0.998919 0.000548879 -1.87199e-20)
(0.240553 0.403808 -3.5545e-18)
(0.414513 0.319489 -4.48514e-18)
(0.550041 0.257472 -3.35894e-18)
(0.645198 0.209551 -5.8209e-18)
(0.724616 0.173021 -2.89249e-18)
(0.780609 0.143777 1.70475e-17)
(0.83054 0.120672 4.5478e-18)
(0.864988 0.101645 1.69068e-17)
(0.897981 0.0860416 5.53528e-18)
(0.919528 0.072934 -1.85349e-18)
(0.942044 0.0617057 2.14512e-19)
(0.955251 0.0521716 -1.05308e-17)
(0.970845 0.0435482 7.42253e-18)