/*--------------------------------*- C++ -*----------------------------------*\
| =========                 |                                                 |
| \\      /  F ield         | foam-extend: Open Source CFD                    |
|  \\    /   O peration     | Version:  3.0                                   |
|   \\  /    A nd           | Web:         http://www.extend-project.de       |
|    \\/     M anipulation  |                                                 |
\*---------------------------------------------------------------------------*/
FoamFile
{
    version     2.0;
    format      ascii;
    class       volSymmTensorField;
    location    "23";
    object      sigma;
}
// * * * * * * * * * * * * * * * * * * * * * * * * * * * * * * * * * * * * * //

dimensions      [0 0 0 0 0 0 0];

internalField   nonuniform List<symmTensor> 
480
(
(-0.164037 -0.0121537 2.36733e-20 0.164045 -3.77297e-21 -8.25665e-06)
(-0.146702 -0.013756 1.0616e-19 0.146722 -3.3926e-20 -2.01231e-05)
(-0.124241 -0.0131327 1.04926e-19 0.124271 1.75117e-19 -2.96476e-05)
(-0.102135 -0.0117949 -7.19068e-20 0.102172 1.21442e-19 -3.70602e-05)
(-0.0820653 -0.0103028 1.18769e-19 0.0821076 -2.04915e-19 -4.22678e-05)
(-0.0644381 -0.00888866 4.03465e-19 0.0644829 -8.79589e-20 -4.47916e-05)
(-0.0493227 -0.00764049 3.90766e-19 0.0493667 -1.86409e-19 -4.40322e-05)
(-0.0368751 -0.0066329 4.76557e-20 0.0369141 -4.48078e-20 -3.90285e-05)
(-0.0272068 -0.0058917 4.88097e-19 0.0272356 -7.31506e-19 -2.87636e-05)
(-0.0208849 -0.00549688 5.40287e-20 0.0208967 -1.85049e-19 -1.18067e-05)
(-0.15977 -0.03606 1.3537e-21 0.159778 -1.31604e-20 -8.05645e-06)
(-0.13997 -0.0402573 1.58854e-19 0.13999 -1.14757e-19 -1.96416e-05)
(-0.11704 -0.0382111 3.48851e-19 0.117069 -1.86611e-19 -2.89471e-05)
(-0.0952036 -0.0341896 -2.59666e-20 0.0952398 -1.6374e-19 -3.61963e-05)
(-0.0756578 -0.0297702 -2.13777e-19 0.0756991 -1.98394e-19 -4.12899e-05)
(-0.058595 -0.0256017 2.22461e-19 0.0586387 -1.82116e-20 -4.37606e-05)
(-0.0439991 -0.0219286 3.363e-19 0.0440422 -2.28121e-19 -4.30189e-05)
(-0.0319592 -0.018959 7.75328e-20 0.0319973 -1.8233e-19 -3.81305e-05)
(-0.0225674 -0.0167624 -5.3441e-19 0.0225955 -5.1779e-19 -2.80963e-05)
(-0.016348 -0.0155441 1.48352e-19 0.0163595 2.92381e-19 -1.15296e-05)
(-0.151522 -0.0585171 -5.21821e-20 0.151529 -4.59284e-20 -7.73716e-06)
(-0.127257 -0.0636747 -4.18078e-21 0.127276 -2.46614e-19 -1.8868e-05)
(-0.103529 -0.0597581 1.99571e-20 0.103557 -2.14748e-19 -2.781e-05)
(-0.0822437 -0.0530604 -1.45704e-19 0.0822785 -2.20489e-20 -3.478e-05)
(-0.0637097 -0.0458915 -1.89633e-19 0.0637494 3.55762e-19 -3.96818e-05)
(-0.0477262 -0.0391889 3.68288e-19 0.0477683 1.38799e-19 -4.20642e-05)
(-0.0341211 -0.0333017 9.28554e-20 0.0341624 -3.74115e-20 -4.13594e-05)
(-0.02286 -0.028531 -1.77302e-19 0.0228967 -1.30704e-19 -3.66645e-05)
(-0.0140004 -0.02498 -1.37601e-19 0.0140274 6.15916e-19 -2.70157e-05)
(-0.00798986 -0.0229575 6.47221e-19 0.00800094 -4.79075e-19 -1.10846e-05)
(-0.139846 -0.078726 -1.61451e-19 0.139853 -1.25704e-20 -7.28702e-06)
(-0.109971 -0.0824174 -4.19077e-19 0.109988 2.30483e-19 -1.77769e-05)
(-0.0853679 -0.0759753 2.49137e-20 0.0853941 3.31351e-19 -2.62113e-05)
(-0.0649368 -0.0666241 2.34309e-19 0.0649696 2.92606e-19 -3.27941e-05)
(-0.0478343 -0.0569818 8.3696e-20 0.0478718 4.12596e-19 -3.74315e-05)
(-0.0333526 -0.0480826 1.38292e-19 0.0333923 -1.06361e-19 -3.96939e-05)
(-0.0211189 -0.040303 2.62551e-19 0.0211579 -8.5516e-20 -3.90421e-05)
(-0.0109398 -0.0339781 3.62789e-19 0.0109745 -1.25476e-20 -3.46192e-05)
(-0.00282747 -0.029228 1.93362e-19 0.00285299 -6.28529e-19 -2.55117e-05)
(0.00287089 -0.0264348 -8.80716e-19 -0.00286042 9.37e-20 -1.04664e-05)
(-0.125484 -0.0961168 3.16245e-20 0.12549 -1.57355e-20 -6.71265e-06)
(-0.0899607 -0.0955202 -3.35945e-19 0.0899771 5.59036e-19 -1.63844e-05)
(-0.0647351 -0.0858112 -2.56622e-19 0.0647593 5.99612e-19 -2.4172e-05)
(-0.0454865 -0.0738583 -2.35552e-20 0.0455167 4.10526e-19 -3.02626e-05)
(-0.0301442 -0.0620883 4.15229e-19 0.0301788 -1.29123e-19 -3.4565e-05)
(-0.0174643 -0.0514074 3.43057e-20 0.017501 -5.4734e-19 -3.66769e-05)
(-0.00686333 -0.0421296 4.87231e-19 0.00689943 -8.99866e-19 -3.60956e-05)
(0.00202067 -0.0345532 -2.6633e-19 -0.00198865 -7.60624e-19 -3.20211e-05)
(0.00922464 -0.028797 -1.77033e-19 -0.00920103 -7.1538e-19 -2.36047e-05)
(0.0145125 -0.0252795 5.22295e-19 -0.0145028 3.27937e-19 -9.68479e-06)
(-0.109267 -0.110392 6.89357e-20 0.109273 1.68105e-19 -6.02194e-06)
(-0.0692526 -0.102759 3.48423e-19 0.0692673 3.83953e-19 -1.47092e-05)
(-0.0440053 -0.0890973 3.20332e-19 0.0440271 3.08273e-19 -2.17193e-05)
(-0.0262901 -0.0746388 1.99688e-19 0.0263174 -6.23873e-20 -2.7218e-05)
(-0.0129347 -0.0611232 -6.31177e-20 0.0129658 -7.51164e-19 -3.1118e-05)
(-0.00222137 -0.049106 -5.5628e-19 0.00225442 -1.10574e-18 -3.30495e-05)
(0.00661734 -0.0387495 -1.13946e-18 -0.00658479 -5.49382e-19 -3.2553e-05)
(0.0140929 -0.0302459 9.40864e-20 -0.014064 -4.79223e-19 -2.88978e-05)
(0.0202874 -0.0236936 -1.12082e-18 -0.020266 -2.77658e-19 -2.13135e-05)
(0.0250731 -0.019511 5.10658e-19 -0.0250643 -3.87539e-19 -8.74678e-06)
(-0.0920138 -0.121531 -3.81829e-20 0.092019 2.3335e-19 -5.22494e-06)
(-0.0497555 -0.104654 5.93938e-19 0.0497683 5.01669e-20 -1.27755e-05)
(-0.0254011 -0.0865509 8.22294e-19 0.02542 -2.80612e-19 -1.88869e-05)
(-0.00958387 -0.069742 6.42188e-19 0.00960757 -7.60468e-19 -2.37007e-05)
(0.00165866 -0.0548651 -4.02382e-19 -0.00163153 -9.06066e-19 -2.71338e-05)
(0.0103707 -0.0419398 -1.02214e-18 -0.0103419 -5.5962e-19 -2.88549e-05)
(0.0174436 -0.0309026 -1.25236e-18 -0.0174152 2.29702e-19 -2.84548e-05)
(0.023493 -0.0217822 -6.95859e-19 -0.0234677 -3.6743e-19 -2.52839e-05)
(0.0286351 -0.0146404 -1.6026e-18 -0.0286165 3.26769e-19 -1.86619e-05)
(0.0328352 -0.00986349 2.42416e-19 -0.0328276 -1.20624e-19 -7.66155e-06)
(-0.0744332 -0.129758 9.52295e-20 0.0744376 -1.44818e-20 -4.33348e-06)
(-0.0329928 -0.102362 2.70628e-19 0.0330034 -2.06717e-19 -1.0611e-05)
(-0.0106703 -0.0796448 1.93328e-19 0.0106861 -3.96467e-19 -1.57145e-05)
(0.00288632 -0.0607114 -1.14882e-19 -0.00286657 -4.96951e-19 -1.97584e-05)
(0.0119766 -0.0448297 -6.63295e-19 -0.0119539 -2.38266e-19 -2.26652e-05)
(0.018761 -0.0313661 -6.57165e-19 -0.0187368 4.93429e-20 -2.41472e-05)
(0.024168 -0.0199846 -5.31272e-19 -0.0241441 1.58059e-19 -2.38521e-05)
(0.0288524 -0.0105133 -5.75699e-19 -0.0288311 1.77299e-19 -2.12227e-05)
(0.0329487 -0.00296705 -3.37995e-19 -0.032933 -7.32934e-20 -1.56809e-05)
(0.0364896 0.00232256 -1.10914e-18 -0.0364832 1.42612e-19 -6.44137e-06)
(-0.0570495 -0.135473 -3.14595e-20 0.0570529 -6.48516e-20 -3.36095e-06)
(-0.0198952 -0.0974779 -2.58944e-19 0.0199034 -1.50879e-19 -8.24762e-06)
(-0.000838739 -0.0703647 -4.83051e-19 0.000850987 -1.02924e-19 -1.22477e-05)
(0.0101166 -0.0496088 -4.11315e-19 -0.0101012 4.68515e-20 -1.54463e-05)
(0.0170795 -0.0330297 -2.89191e-20 -0.0170617 3.25264e-20 -1.77727e-05)
(0.0220825 -0.01931 -4.04796e-19 -0.0220635 3.29165e-20 -1.8988e-05)
(0.0259916 -0.00783046 -3.41642e-19 -0.0259728 6.71118e-20 -1.8803e-05)
(0.0294252 0.00179108 -3.2331e-19 -0.0294085 1.94611e-19 -1.6764e-05)
(0.0325169 0.00959099 -5.6058e-20 -0.0325044 -8.16901e-20 -1.24055e-05)
(0.0353363 0.0153026 -5.72363e-19 -0.0353312 3.18464e-19 -5.10008e-06)
(-0.0401594 -0.139163 -5.08198e-20 0.0401617 -4.71189e-20 -2.3219e-06)
(-0.0106864 -0.091767 -1.40204e-19 0.0106921 -1.62243e-19 -5.72049e-06)
(0.00392533 -0.060891 -6.88382e-19 -0.0039168 -2.86027e-20 -8.53724e-06)
(0.011983 -0.0386889 -6.31733e-19 -0.0119722 1.47049e-19 -1.08265e-05)
(0.0168795 -0.0216598 -4.33414e-19 -0.016867 2.01149e-19 -1.25256e-05)
(0.0202777 -0.0078661 -6.02337e-20 -0.0202642 1.38067e-19 -1.34487e-05)
(0.0228824 0.00356721 -3.47169e-19 -0.022869 1.42777e-19 -1.33762e-05)
(0.0252007 0.0132134 -1.27834e-20 -0.0251887 3.34594e-19 -1.1967e-05)
(0.0273457 0.0211561 5.56488e-19 -0.0273368 3.20838e-20 -8.87825e-06)
(0.0293938 0.0271911 -1.09496e-19 -0.0293902 -1.47669e-20 -3.65452e-06)
(-0.0238274 -0.141305 -5.85455e-20 0.0238286 -3.09026e-20 -1.23273e-06)
(-0.00487995 -0.0868814 -1.02907e-19 0.00488302 -1.077e-19 -3.06883e-06)
(0.00431389 -0.0532532 -3.67367e-19 -0.00430925 -1.2086e-20 -4.64004e-06)
(0.00924326 -0.030046 -2.71679e-19 -0.00923729 1.18726e-19 -5.96876e-06)
(0.0121422 -0.0127557 -2.79611e-19 -0.0121352 1.22907e-19 -7.00177e-06)
(0.0140995 0.00102484 -4.48274e-19 -0.0140919 9.98071e-20 -7.6105e-06)
(0.0155757 0.0123642 -4.15064e-19 -0.015568 1.8536e-19 -7.64962e-06)
(0.0169033 0.0219804 -1.13377e-19 -0.0168964 2.99109e-19 -6.8995e-06)
(0.0181587 0.0299934 4.07553e-19 -0.0181536 5.38321e-20 -5.1483e-06)
(0.0193993 0.0362474 -3.73404e-20 -0.0193972 -1.91662e-20 -2.12484e-06)
(-0.00791869 -0.142276 -7.92938e-20 0.0079188 -1.60671e-20 -1.10437e-07)
(-0.00138533 -0.0840942 -1.45322e-19 0.00138566 -7.38489e-20 -3.34245e-07)
(0.00174962 -0.0490115 -2.90023e-19 -0.001749 -1.2436e-20 -6.16884e-07)
(0.00340404 -0.0252883 -3.84371e-19 -0.00340309 1.12523e-19 -9.48332e-07)
(0.00435731 -0.00787938 -3.75572e-19 -0.00435602 1.06105e-19 -1.28609e-06)
(0.00498835 0.00587484 -3.52371e-19 -0.00498679 8.7312e-20 -1.56203e-06)
(0.00545775 0.0171474 -1.67882e-19 -0.00545604 1.64589e-19 -1.70945e-06)
(0.00588158 0.026734 -1.12572e-19 -0.00587994 2.61382e-19 -1.6367e-06)
(0.0062882 0.0347747 2.87996e-19 -0.00628693 9.73214e-20 -1.27001e-06)
(0.00669907 0.0411392 1.56683e-19 -0.00669854 -2.35514e-20 -5.32586e-07)
(0.0078349 -0.14228 -7.67694e-20 -0.00783592 -4.89296e-21 1.02607e-06)
(0.00129211 -0.0840964 -2.11685e-19 -0.00129455 -6.22701e-20 2.4378e-06)
(-0.00185604 -0.049012 -1.7942e-19 0.00185258 -2.34448e-20 3.46562e-06)
(-0.00352733 -0.0252875 -3.22191e-19 0.00352318 1.08849e-19 4.15206e-06)
(-0.00450087 -0.0078775 -4.28774e-19 0.00449635 1.03743e-19 4.52778e-06)
(-0.00515531 0.00587754 -3.08625e-19 0.00515071 6.31928e-20 4.59797e-06)
(-0.00564957 0.017151 -2.73533e-20 0.00564522 1.14583e-19 4.34778e-06)
(-0.00609872 0.0267383 -1.63528e-19 0.00609499 2.15312e-19 3.73597e-06)
(-0.00652664 0.0347804 6.52611e-20 0.00652394 8.34379e-20 2.6935e-06)
(-0.00695286 0.0411448 1.71772e-19 0.00695176 -2.59442e-20 1.09582e-06)
(0.0237482 -0.141318 -9.11553e-20 -0.0237504 9.62393e-21 2.15796e-06)
(0.0047888 -0.0868876 -2.51899e-19 -0.004794 -5.44257e-20 5.2008e-06)
(-0.00442 -0.0532546 -2.96192e-20 0.00441246 -4.27676e-20 7.53891e-06)
(-0.00936752 -0.0300438 -5.23193e-20 0.00935828 1.04492e-19 9.24676e-06)
(-0.0122878 -0.0127506 -5.32661e-19 0.0122775 9.62552e-20 1.03422e-05)
(-0.0142693 0.00103218 -3.34192e-19 0.0142585 4.85712e-20 1.07663e-05)
(-0.0157712 0.012374 -2.49214e-19 0.0157608 3.88067e-20 1.04208e-05)
(-0.0171249 0.0219922 1.89611e-19 0.0171158 1.68202e-19 9.12923e-06)
(-0.018403 0.0300088 -4.13429e-19 0.0183963 7.20482e-20 6.67704e-06)
(-0.0196589 0.0362626 7.62922e-20 0.0196561 -1.44647e-20 2.73437e-06)
(0.0400883 -0.139181 -3.83951e-20 -0.0400916 4.35654e-20 3.26485e-06)
(0.0105988 -0.0917755 -2.82548e-19 -0.0106067 -1.66048e-20 7.90549e-06)
(-0.00403089 -0.060893 -3.92219e-19 0.00401936 -9.32375e-20 1.15302e-05)
(-0.0121089 -0.038686 -2.88299e-19 0.0120947 1.06167e-20 1.42446e-05)
(-0.0170287 -0.0216529 -3.9617e-19 0.0170126 6.51028e-20 1.60528e-05)
(-0.0204525 -0.00785618 -1.09815e-19 0.0204357 5.57922e-20 1.68316e-05)
(-0.0230845 0.00358038 -1.83704e-19 0.0230681 5.29842e-20 1.63995e-05)
(-0.0254302 0.0132294 -5.86117e-20 0.0254157 6.77319e-20 1.44445e-05)
(-0.0276002 0.021177 -1.79387e-19 0.0275895 -6.27307e-20 1.06068e-05)
(-0.0296635 0.0272117 3.54359e-19 0.0296592 1.27185e-20 4.35178e-06)
(0.0569878 -0.135491 -4.53392e-20 -0.0569921 5.37278e-20 4.32729e-06)
(0.0198118 -0.0974868 -4.50247e-19 -0.0198223 -5.37358e-20 1.05035e-05)
(0.00073387 -0.0703671 -1.38055e-19 -0.000749237 -1.12361e-19 1.53677e-05)
(-0.0102445 -0.0496063 1.1339e-19 0.0102254 -2.27187e-20 1.90549e-05)
(-0.0172327 -0.0330232 1.48619e-19 0.0172112 2.06049e-19 2.15553e-05)
(-0.022263 -0.0193003 -2.87e-19 0.0222403 1.64567e-19 2.26827e-05)
(-0.0262012 -0.00781753 -2.97154e-19 0.026179 -9.49759e-20 2.21738e-05)
(-0.0296638 0.0018068 5.3318e-21 0.0296442 -1.19774e-19 1.95837e-05)
(-0.0327831 0.00961162 1.92909e-20 0.0327687 1.94096e-20 1.44107e-05)
(-0.0356177 0.0153228 -6.92097e-19 0.0356118 7.96581e-20 5.91904e-06)
(0.0743796 -0.129772 4.79087e-20 -0.0743849 -3.41791e-20 5.32492e-06)
(0.0329132 -0.10237 2.21663e-19 -0.0329261 9.64436e-20 1.29453e-05)
(0.0105661 -0.0796472 1.64013e-19 -0.0105851 1.12157e-19 1.8978e-05)
(-0.0030158 -0.0607101 3.98254e-20 0.00299221 9.46586e-20 2.3585e-05)
(-0.0121333 -0.0448254 4.37145e-20 0.0121065 1.70473e-19 2.67428e-05)
(-0.0189465 -0.0313595 -5.68889e-19 0.0189183 2.21686e-19 2.82046e-05)
(-0.0243842 -0.0199756 -8.02169e-19 0.0243565 -3.1518e-19 2.76287e-05)
(-0.0290989 -0.0105023 -4.48467e-19 0.0290744 1.9091e-19 2.4443e-05)
(-0.0332253 -0.00295253 -1.44145e-18 0.0332073 -6.16524e-19 1.80102e-05)
(-0.0367812 0.00233664 9.09471e-19 0.0367738 2.15145e-20 7.40262e-06)
(0.0919648 -0.121537 -1.07905e-19 -0.0919711 -2.98769e-19 6.23927e-06)
(0.0496781 -0.104658 4.92279e-19 -0.0496933 -1.34722e-19 1.51849e-05)
(0.0252974 -0.086553 5.38965e-19 -0.0253197 5.56809e-20 2.22919e-05)
(0.00945356 -0.0697426 3.69465e-19 -0.00948131 3.63861e-19 2.77472e-05)
(-0.00181732 -0.0548645 -4.97885e-19 0.0017858 3.28196e-19 3.15137e-05)
(-0.0105592 -0.0419383 -8.71721e-19 0.0105259 5.0902e-19 3.3288e-05)
(-0.0176637 -0.0309002 -1.50552e-18 0.017631 -8.27566e-21 3.26552e-05)
(-0.0237442 -0.0217791 -1.85584e-19 0.0237152 -7.72654e-20 2.89247e-05)
(-0.0289178 -0.0146362 -1.18397e-18 0.0288965 2.58856e-19 2.1333e-05)
(-0.0331329 -0.00985988 -4.248e-19 0.0331241 -6.46811e-19 8.77323e-06)
(0.109218 -0.110389 -3.38282e-20 -0.109225 -1.95148e-19 7.05186e-06)
(0.0691755 -0.102759 2.38166e-20 -0.0691926 -4.27265e-19 1.7177e-05)
(0.0439019 -0.089099 -6.17832e-20 -0.0439272 -5.03428e-19 2.52423e-05)
(0.02616 -0.0746415 -1.30257e-19 -0.0261915 -1.85016e-19 3.1456e-05)
(0.0127761 -0.0611267 -5.73341e-19 -0.0128119 2.86493e-19 3.57685e-05)
(0.00203292 -0.0491103 -4.67892e-19 -0.00207074 4.42376e-19 3.78252e-05)
(-0.0068375 -0.0387546 1.5511e-19 0.00680035 7.69643e-19 3.71451e-05)
(-0.0143443 -0.0302519 -3.86942e-19 0.0143114 4.45978e-19 3.29304e-05)
(-0.0205703 -0.0237014 -4.28482e-19 0.020546 1.05638e-18 2.43041e-05)
(-0.025371 -0.0195195 -5.05618e-19 0.025361 -6.39373e-19 9.99867e-06)
(0.12543 -0.0961064 -1.3357e-20 -0.125438 2.52938e-20 7.74701e-06)
(0.0898818 -0.095517 -5.15166e-19 -0.0899007 -3.09897e-19 1.88823e-05)
(0.0646317 -0.0858124 -8.32689e-19 -0.0646594 -6.3835e-19 2.77697e-05)
(0.0453576 -0.0738627 -5.77919e-19 -0.0453922 -5.39202e-19 3.46356e-05)
(0.0299878 -0.0620953 7.69414e-20 -0.0300272 1.59594e-19 3.94191e-05)
(0.0172787 -0.0514166 4.80616e-19 -0.0173204 3.45721e-19 4.17209e-05)
(0.00664678 -0.0421413 5.76912e-19 -0.00668778 4.5397e-19 4.10026e-05)
(-0.00226782 -0.0345672 4.03808e-19 0.00223144 3.58602e-19 3.63738e-05)
(-0.00950202 -0.0288153 4.58976e-19 0.00947516 1.1992e-18 2.68594e-05)
(-0.014805 -0.0252987 -9.76171e-19 0.0147939 1.05319e-19 1.1053e-05)
(0.139784 -0.0787114 -1.48043e-19 -0.139793 3.64463e-20 8.3099e-06)
(0.109889 -0.0824121 -5.34007e-19 -0.109909 9.95912e-20 2.02646e-05)
(0.0852642 -0.0759761 -5.91797e-19 -0.0852941 -1.38876e-19 2.982e-05)
(0.0648098 -0.0666293 1.51944e-19 -0.064847 -2.29471e-19 3.7217e-05)
(0.0476815 -0.0569907 7.67313e-19 -0.0477239 -6.75312e-21 4.23846e-05)
(0.0331719 -0.0480945 3.36133e-19 -0.0332168 2.67283e-19 4.48872e-05)
(0.0209087 -0.0403185 2.81037e-19 -0.0209528 4.38306e-22 4.4139e-05)
(0.0107003 -0.0339968 6.50964e-19 -0.0107395 2.32062e-19 3.91738e-05)
(0.00256004 -0.0292526 3.53707e-19 -0.00258898 4.63215e-19 2.89369e-05)
(-0.00315343 -0.0264606 2.73869e-19 0.00314152 6.96199e-19 1.19092e-05)
(0.151451 -0.0585028 -2.53243e-20 -0.15146 1.15768e-19 8.7294e-06)
(0.127171 -0.0636694 -1.57743e-19 -0.127193 4.50684e-19 2.12955e-05)
(0.103425 -0.0597587 -3.05388e-19 -0.103456 4.93193e-19 3.13504e-05)
(0.0821188 -0.0530654 1.16079e-19 -0.0821579 2.55894e-19 3.9145e-05)
(0.063561 -0.0459003 2.59965e-19 -0.0636056 -2.26067e-19 4.46009e-05)
(0.0475512 -0.0392008 4.54527e-19 -0.0475985 -2.40194e-19 4.72542e-05)
(0.0339183 -0.0333171 2.42465e-19 -0.0339648 -2.10786e-19 4.6484e-05)
(0.0226294 -0.02855 1.09374e-18 -0.0226706 -3.03669e-19 4.1267e-05)
(0.0137446 -0.0250051 9.15916e-19 -0.0137751 9.19956e-20 3.04893e-05)
(0.00771902 -0.0229843 -7.55672e-20 -0.00773157 2.14342e-19 1.25484e-05)
(0.159692 -0.0360508 2.17488e-20 -0.159701 8.24383e-20 8.99595e-06)
(0.139881 -0.0402539 1.57312e-20 -0.139903 2.40959e-19 2.1952e-05)
(0.116936 -0.0382117 7.49761e-20 -0.116968 4.83702e-19 3.23262e-05)
(0.0950805 -0.0341934 2.80687e-19 -0.0951209 2.8707e-19 4.03754e-05)
(0.0755126 -0.0297766 1.08621e-19 -0.0755587 1.11899e-19 4.60157e-05)
(0.058425 -0.0256105 -1.39299e-19 -0.0584738 -1.25626e-19 4.8765e-05)
(0.0438028 -0.0219404 2.19212e-19 -0.0438508 1.9995e-20 4.79796e-05)
(0.0317364 -0.0189736 6.38789e-19 -0.031779 -3.40782e-19 4.26e-05)
(0.022322 -0.0167822 5.41711e-19 -0.0223534 -3.88136e-19 3.14754e-05)
(0.0160876 -0.015566 7.36645e-20 -0.0161005 9.06662e-20 1.29523e-05)
(0.163954 -0.0121529 2.96736e-20 -0.163963 3.0083e-20 9.10432e-06)
(0.146611 -0.0137561 5.59936e-20 -0.146633 4.62714e-20 2.22202e-05)
(0.124136 -0.0131336 2.41322e-20 -0.124169 2.30097e-19 3.27263e-05)
(0.102013 -0.0117966 3.09785e-20 -0.102054 9.6172e-21 4.08809e-05)
(0.0819222 -0.0103055 1.59401e-19 -0.0819688 -9.46831e-20 4.65972e-05)
(0.0642711 -0.00889244 2.77561e-19 -0.0643204 1.29791e-19 4.93849e-05)
(0.0491302 -0.00764577 3.92957e-19 -0.0491788 2.20812e-19 4.85909e-05)
(0.0366571 -0.00664003 4.3389e-19 -0.0367002 -1.24389e-19 4.31415e-05)
(0.0269677 -0.00590183 6.08358e-19 -0.0269996 -2.6982e-19 3.18724e-05)
(0.0206311 -0.0055096 7.39011e-20 -0.0206442 1.60479e-19 1.31124e-05)
(0.163942 0.0122423 2.37161e-20 -0.163951 -3.79019e-21 9.05127e-06)
(0.146602 0.0138164 1.06288e-19 -0.146624 -3.39901e-20 2.20927e-05)
(0.12413 0.0131788 1.04963e-19 -0.124162 1.7521e-19 3.25397e-05)
(0.102007 0.0118335 -7.19843e-20 -0.102048 1.21314e-19 4.06474e-05)
(0.0819173 0.0103377 1.18914e-19 -0.0819636 -2.05354e-19 4.63285e-05)
(0.0642664 0.00892165 4.03837e-19 -0.0643155 -8.80555e-20 4.90953e-05)
(0.0491258 0.00767183 3.90899e-19 -0.0491741 -1.85875e-19 4.82989e-05)
(0.0366532 0.00666093 4.7648e-20 -0.036696 -4.4836e-20 4.28736e-05)
(0.0269651 0.00591157 4.88534e-19 -0.0269968 -7.31713e-19 3.16659e-05)
(0.0206342 0.00547427 5.38337e-20 -0.0206473 -1.84469e-19 1.30217e-05)
(0.159656 0.0361336 1.38894e-21 -0.159665 -1.32036e-20 8.83824e-06)
(0.139856 0.0403097 1.59016e-19 -0.139878 -1.14877e-19 2.15723e-05)
(0.116917 0.0382534 3.48916e-19 -0.116948 -1.86418e-19 3.17701e-05)
(0.0950644 0.0342273 -2.61843e-20 -0.0951041 -1.63556e-19 3.96793e-05)
(0.0754981 0.0298062 -2.13701e-19 -0.0755434 -1.9909e-19 4.5215e-05)
(0.0584113 0.0256373 2.22713e-19 -0.0584592 -1.85044e-20 4.7902e-05)
(0.04379 0.0219641 3.36592e-19 -0.0438371 -2.28394e-19 4.71097e-05)
(0.031725 0.0189926 7.68563e-20 -0.0317668 -1.81388e-19 4.18024e-05)
(0.0223143 0.0167907 -5.34499e-19 -0.0223451 -5.19947e-19 3.08613e-05)
(0.0160967 0.0155324 1.48554e-19 -0.0161093 2.92424e-19 1.26834e-05)
(0.151394 0.0585731 -5.21777e-20 -0.151402 -4.59394e-20 8.46868e-06)
(0.127132 0.0637165 -4.05261e-21 -0.127152 -2.46802e-19 2.06682e-05)
(0.103395 0.0597937 2.01568e-20 -0.103425 -2.15112e-19 3.04316e-05)
(0.0820933 0.0530936 -1.45675e-19 -0.0821313 -2.23515e-20 3.79947e-05)
(0.063538 0.0459247 -1.89428e-19 -0.0635813 3.55357e-19 4.32776e-05)
(0.0475295 0.0392228 3.68285e-19 -0.0475753 1.39104e-19 4.58278e-05)
(0.0338978 0.0333365 9.27214e-20 -0.0339428 -3.74224e-20 4.5046e-05)
(0.0226111 0.028565 -1.77689e-19 -0.0226511 -1.30956e-19 3.99481e-05)
(0.0137322 0.0250111 -1.37264e-19 -0.0137617 6.15002e-19 2.94732e-05)
(0.00773327 0.0229541 6.46012e-19 -0.00774537 -4.76489e-19 1.21028e-05)
(0.13971 0.078764 -1.61457e-19 -0.139718 -1.25996e-20 7.95065e-06)
(0.109837 0.0824468 -4.18776e-19 -0.109857 2.30023e-19 1.93996e-05)
(0.0852248 0.0760015 2.51814e-20 -0.0852533 3.31203e-19 2.85528e-05)
(0.0647767 0.0666496 2.34261e-19 -0.0648123 2.92917e-19 3.56301e-05)
(0.0476516 0.057008 8.3386e-20 -0.0476921 4.13177e-19 4.05589e-05)
(0.0331436 0.0481098 1.38102e-19 -0.0331865 -1.06315e-19 4.2919e-05)
(0.0208819 0.0403315 2.62509e-19 -0.020924 -8.55729e-20 4.21549e-05)
(0.0106764 0.0340063 3.62415e-19 -0.0107137 -1.2133e-20 3.73542e-05)
(0.00254365 0.029255 1.91356e-19 -0.00257118 -6.26899e-19 2.75355e-05)
(-0.00313519 0.0264349 -8.79153e-19 0.0031239 9.06919e-20 1.12952e-05)
(0.125344 0.0961375 3.15867e-20 -0.125351 -1.56557e-20 7.29391e-06)
(0.0898223 0.0955367 -3.359e-19 -0.0898401 5.59084e-19 1.77914e-05)
(0.064586 0.0858262 -2.56475e-19 -0.0646122 5.99563e-19 2.61712e-05)
(0.0453192 0.0738731 -2.3428e-20 -0.0453518 4.10443e-19 3.26336e-05)
(0.029953 0.0621038 4.14817e-19 -0.0299901 -1.28542e-19 3.71153e-05)
(0.0172457 0.0514235 3.41119e-20 -0.0172849 -5.47498e-19 3.9237e-05)
(0.00661545 0.0421465 4.8741e-19 -0.00665395 -9.00343e-19 3.8498e-05)
(-0.00229586 0.0345699 -2.66721e-19 0.00226178 -7.61255e-19 3.40764e-05)
(-0.00952146 0.0288131 -1.73928e-19 0.00949637 -7.20231e-19 2.50895e-05)
(-0.0147842 0.0252784 5.21815e-19 0.0147739 3.28901e-19 1.02772e-05)
(0.109126 0.110396 6.90717e-20 -0.109132 1.68016e-19 6.51235e-06)
(0.0691121 0.102762 3.48272e-19 -0.069128 3.84255e-19 1.58773e-05)
(0.0438533 0.0891 3.20055e-19 -0.0438767 3.08688e-19 2.33372e-05)
(0.0261192 0.0746411 1.99253e-19 -0.0261482 -6.18968e-20 2.90693e-05)
(0.012739 0.0611253 -6.31085e-20 -0.012772 -7.51222e-19 3.30216e-05)
(0.0019976 0.0491079 -5.561e-19 -0.00203247 -1.10635e-18 3.48631e-05)
(-0.00687115 0.038751 -1.13674e-18 0.00683699 -5.52534e-19 3.4158e-05)
(-0.0143746 0.0302467 9.43487e-20 0.0143444 -4.79493e-19 3.01903e-05)
(-0.0205916 0.0236938 -1.11859e-18 0.0205694 -2.80616e-19 2.21935e-05)
(-0.0253493 0.0195049 5.11416e-19 0.0253402 -3.88303e-19 9.07413e-06)
(0.0918731 0.12152 -3.80125e-20 -0.0918788 2.33232e-19 5.62088e-06)
(0.0496153 0.104644 5.93929e-19 -0.049629 5.02168e-20 1.36949e-05)
(0.0252494 0.0865409 8.22088e-19 -0.0252695 -2.80415e-19 2.01075e-05)
(0.00941313 0.0697311 6.41827e-19 -0.00943814 -7.60068e-19 2.50098e-05)
(-0.00185411 0.0548529 -4.01785e-19 0.00182575 -9.06318e-19 2.83625e-05)
(-0.0105943 0.0419262 -1.0208e-18 0.0105644 -5.60575e-19 2.98892e-05)
(-0.0176973 0.0308874 -1.25117e-18 0.017668 2.28855e-19 2.92271e-05)
(-0.0237745 0.0217656 -6.94779e-19 0.0237488 -3.68055e-19 2.57795e-05)
(-0.0289394 0.0146228 -1.60053e-18 0.0289205 3.25103e-19 1.89097e-05)
(-0.0331117 0.00985092 2.42573e-19 0.033104 -1.21344e-19 7.71147e-06)
(0.0742947 0.129731 9.52547e-20 -0.0742994 -1.44831e-20 4.63782e-06)
(0.0328554 0.102339 2.70876e-19 -0.0328667 -2.06874e-19 1.12888e-05)
(0.0105221 0.0796224 1.9384e-19 -0.0105386 -3.96796e-19 1.65485e-05)
(-0.00305286 0.0606879 -1.14076e-19 0.00303232 -4.97468e-19 2.05396e-05)
(-0.0121671 0.0448041 -6.62107e-19 0.0121438 -2.38974e-19 2.32363e-05)
(-0.0189789 0.031338 -6.56238e-19 0.0189544 4.88205e-20 2.4422e-05)
(-0.0244153 0.0199538 -5.3101e-19 0.0243914 1.58124e-19 2.38131e-05)
(-0.0291272 0.0104807 -5.75088e-19 0.0291062 1.77051e-19 2.09422e-05)
(-0.0332456 0.00293315 -3.40768e-19 0.0332303 -7.07079e-20 1.53131e-05)
(-0.0367619 -0.00234055 -1.1081e-18 0.0367557 1.41462e-19 6.22156e-06)
(0.0569156 0.13543 -3.1301e-20 -0.0569192 -6.4922e-20 3.58154e-06)
(0.0197631 0.0974424 -2.58397e-19 -0.0197718 -1.51113e-19 8.70509e-06)
(0.000696925 0.0703313 -4.82139e-19 -0.000709655 -1.03395e-19 1.27294e-05)
(-0.0102755 0.0495747 -4.10529e-19 0.0102598 4.61698e-20 1.57469e-05)
(-0.017261 0.0329932 -2.90747e-20 0.0172433 3.22846e-20 1.77457e-05)
(-0.0222903 0.0192705 -4.04389e-19 0.0222717 3.27045e-20 1.85725e-05)
(-0.0262275 0.00778764 -3.41361e-19 0.0262095 6.70585e-20 1.80271e-05)
(-0.0296878 -0.00183587 -3.23269e-19 0.0296721 1.94497e-19 1.57786e-05)
(-0.0328006 -0.00963652 -5.64504e-20 0.0327891 -8.10267e-20 1.14787e-05)
(-0.0356013 -0.0153225 -5.71754e-19 0.0355967 3.18176e-19 4.635e-06)
(0.0400339 0.139102 -5.06751e-20 -0.0400363 -4.71709e-20 2.47296e-06)
(0.0105626 0.0917195 -1.39919e-19 -0.0105686 -1.62286e-19 5.99455e-06)
(-0.00405809 0.0608483 -6.87451e-19 0.00404937 -2.89561e-20 8.72582e-06)
(-0.0121317 0.0386469 -6.30796e-19 0.0121209 1.46408e-19 1.07274e-05)
(-0.0170495 0.0216159 -4.32824e-19 0.0170375 2.00478e-19 1.20015e-05)
(-0.0204726 0.00781961 -6.06509e-20 0.0204601 1.37945e-19 1.24602e-05)
(-0.0231039 -0.00361687 -3.46993e-19 0.023092 1.4251e-19 1.1989e-05)
(-0.025448 -0.0132645 -1.38896e-20 0.0254376 3.34121e-19 1.03973e-05)
(-0.0276132 -0.0212065 5.53094e-19 0.0276057 3.31829e-20 7.48861e-06)
(-0.0296508 -0.0272082 -1.10094e-19 0.0296479 -1.38943e-20 2.98691e-06)
(0.0237152 0.141228 -5.84292e-20 -0.0237165 -3.09405e-20 1.33199e-06)
(0.00476756 0.0868236 -1.02733e-19 -0.00477077 -1.07724e-19 3.20705e-06)
(-0.00443552 0.0532039 -3.66917e-19 0.00443091 -1.22778e-20 4.61211e-06)
(-0.00938032 0.0299996 -2.71424e-19 0.00937474 1.18374e-19 5.57529e-06)
(-0.0122995 0.0127089 -2.79449e-19 0.0122934 1.22673e-19 6.11265e-06)
(-0.0142806 -0.0010734 -4.47648e-19 0.0142744 9.96349e-20 6.20209e-06)
(-0.0157823 -0.012415 -4.144e-19 0.0157765 1.84978e-19 5.8156e-06)
(-0.0171352 -0.0220316 -1.13645e-19 0.0171303 2.98323e-19 4.90331e-06)
(-0.0184104 -0.0300417 4.05535e-19 0.018407 5.40412e-20 3.42087e-06)
(-0.0196503 -0.036257 -3.72335e-20 0.019649 -1.88824e-20 1.30918e-06)
(0.00782564 0.142184 -7.91989e-20 -0.00782582 -1.6083e-20 1.80227e-07)
(0.00128738 0.0840287 -1.45196e-19 -0.00128778 -7.38648e-20 3.9466e-07)
(-0.00185877 0.0489586 -2.89708e-19 0.00185831 -1.25502e-20 4.65288e-07)
(-0.00352923 0.0252409 -3.84007e-19 0.00352884 1.12283e-19 3.8757e-07)
(-0.00450254 0.00783361 -3.75368e-19 0.00450235 1.05873e-19 1.90717e-07)
(-0.00515702 -0.00592094 -3.52033e-19 0.0051571 8.69994e-20 -8.22445e-08)
(-0.00565135 -0.0171943 -1.67818e-19 0.00565172 1.64222e-19 -3.74314e-07)
(-0.00610038 -0.0267799 -1.12798e-19 0.00610098 2.60724e-19 -5.96749e-07)
(-0.00652749 -0.0348149 2.86204e-19 0.00652814 9.70097e-20 -6.44454e-07)
(-0.00694857 -0.0411382 1.5593e-19 0.00694893 -2.30627e-20 -3.64346e-07)
(-0.00790331 0.142179 -7.67139e-20 0.00790427 -4.88927e-21 -9.62753e-07)
(-0.00137314 0.0840271 -2.11572e-19 0.00137553 -6.22825e-20 -2.39372e-06)
(0.00175993 0.0489588 -1.79304e-19 -0.00175629 -2.35187e-20 -3.64207e-06)
(0.00341321 0.0252424 -3.21897e-19 -0.00340846 1.08743e-19 -4.74451e-06)
(0.00436583 0.00783602 -4.28599e-19 -0.00436017 1.03562e-19 -5.65975e-06)
(0.00499648 -0.0059178 -3.08662e-19 -0.0049902 6.28213e-20 -6.28143e-06)
(0.00546554 -0.0171903 -2.82257e-20 -0.00545907 1.14283e-19 -6.4706e-06)
(0.0058888 -0.0267753 -1.63524e-19 -0.0058828 2.15088e-19 -6.0047e-06)
(0.00629417 -0.0348091 6.34654e-20 -0.00628954 8.28571e-20 -4.63481e-06)
(0.0066992 -0.0411326 1.70545e-19 -0.0066972 -2.56484e-20 -2.0042e-06)
(-0.0237881 0.141215 -9.11252e-20 0.0237902 9.63713e-21 -2.07639e-06)
(-0.00485155 0.0868192 -2.51845e-19 0.00485665 -5.44443e-20 -5.10895e-06)
(0.00433658 0.0532045 -2.99473e-20 -0.00432895 -4.29031e-20 -7.63785e-06)
(0.0092629 0.0300036 -5.26862e-20 -0.00925317 1.04447e-19 -9.73099e-06)
(0.0121603 0.0127155 -5.32212e-19 -0.012149 9.63665e-20 -1.13361e-05)
(0.0141169 -0.00106477 -3.33969e-19 -0.0141047 4.8426e-20 -1.22868e-05)
(0.0155926 -0.0124043 -2.49453e-19 -0.0155802 3.84464e-20 -1.23662e-05)
(0.016919 -0.0220191 1.88136e-19 -0.0169078 1.68243e-19 -1.12254e-05)
(0.0181713 -0.0300257 -4.12804e-19 -0.0181628 7.25128e-20 -8.47972e-06)
(0.0193956 -0.0362418 7.67372e-20 -0.019392 -1.4701e-20 -3.58094e-06)
(-0.0400987 0.139086 -3.84383e-20 0.0401018 4.35813e-20 -3.14298e-06)
(-0.0106436 0.0917137 -2.82548e-19 0.0106513 -1.65624e-20 -7.70686e-06)
(0.00395895 0.0608493 -3.92077e-19 -0.00394749 -9.31721e-20 -1.1457e-05)
(0.0120118 0.0386525 -2.88088e-19 -0.0119973 1.07241e-20 -1.44909e-05)
(0.0169061 0.0216252 -3.95332e-19 -0.0168894 6.52781e-20 -1.67467e-05)
(0.0203033 0.00783152 -1.09944e-19 -0.0202853 5.55276e-20 -1.80015e-05)
(0.0229073 -0.00360206 -1.83832e-19 -0.0228894 5.29375e-20 -1.79667e-05)
(0.0252239 -0.0132473 -5.89695e-20 -0.0252078 6.81442e-20 -1.61758e-05)
(0.0273641 -0.0211846 -1.77347e-19 -0.027352 -6.26491e-20 -1.21185e-05)
(0.0293868 -0.0271872 3.50921e-19 -0.0293817 1.14784e-20 -5.07029e-06)
(-0.0569711 0.135413 -4.53603e-20 0.0569752 5.37685e-20 -4.14432e-06)
(-0.0198406 0.097437 -4.49825e-19 0.0198508 -5.3493e-20 -1.01444e-05)
(-0.00079642 0.0703327 -1.37812e-19 0.000811457 -1.12294e-19 -1.5037e-05)
(0.0101527 0.0495806 1.13226e-19 -0.0101338 -2.29551e-20 -1.89469e-05)
(0.0171127 0.0330027 1.48405e-19 -0.0170909 2.05776e-19 -2.18043e-05)
(0.0221145 0.0192827 -2.87208e-19 -0.0220912 1.64382e-19 -2.33347e-05)
(0.0260229 0.00780272 -2.97273e-19 -0.0259997 -9.50584e-20 -2.31838e-05)
(0.0294545 -0.00181829 4.63562e-21 -0.0294337 -1.20108e-19 -2.07784e-05)
(0.0325399 -0.0096142 1.65795e-20 -0.0325244 1.8561e-20 -1.54947e-05)
(0.0353265 -0.015301 -6.89621e-19 -0.0353201 8.09248e-20 -6.44885e-06)
(-0.0743422 0.12972 4.78238e-20 0.0743472 -3.41887e-20 -5.06562e-06)
(-0.0329302 0.102336 2.21712e-19 0.0329426 9.64959e-20 -1.23847e-05)
(-0.0106221 0.0796243 1.64163e-19 0.0106404 1.12199e-19 -1.83239e-05)
(0.00292727 0.060693 3.99276e-20 -0.00290424 9.45224e-20 -2.30327e-05)
(0.0120142 0.0448117 4.28538e-20 -0.0119878 1.69791e-19 -2.64349e-05)
(0.0187973 0.0313475 -5.69333e-19 -0.0187691 2.2151e-19 -2.82093e-05)
(0.0242035 0.0199653 -8.026e-19 -0.0241755 -3.15127e-19 -2.79435e-05)
(0.0288856 0.0104941 -4.49202e-19 -0.0288607 1.91431e-19 -2.49696e-05)
(0.0329749 0.0029502 -1.43761e-18 -0.0329563 -6.14148e-19 -1.85627e-05)
(0.0364778 -0.00232393 9.09631e-19 -0.0364701 2.17952e-20 -7.69901e-06)
(-0.0919161 0.121518 -1.07859e-19 0.091922 -2.98703e-19 -5.89181e-06)
(-0.0496888 0.104645 4.91995e-19 0.0497032 -1.34973e-19 -1.43928e-05)