/*--------------------------------*- C++ -*----------------------------------*\
| =========                 |                                                 |
| \\      /  F ield         | foam-extend: Open Source CFD                    |
|  \\    /   O peration     | Version:  3.0                                   |
|   \\  /    A nd           | Web:         http://www.extend-project.de       |
|    \\/     M anipulation  |                                                 |
\*---------------------------------------------------------------------------*/
FoamFile
{
    version     2.0;
    format      ascii;
    class       volVectorField;
    location    "23";
    object      u;
}
// * * * * * * * * * * * * * * * * * * * * * * * * * * * * * * * * * * * * * //

dimensions      [0 0 0 0 0 0 0];

internalField   nonuniform List<vector> 
480
(
(0.282594 -0.103013 3.43804e-19)
(0.543801 -0.0695959 1.75552e-18)
(0.723252 -0.0490829 -3.60894e-18)
(0.817403 -0.0352235 3.97443e-18)
(0.897518 -0.0258109 2.54611e-18)
(0.932818 -0.0191082 -2.13085e-18)
(0.974063 -0.0137514 -1.29287e-17)
(0.982057 -0.00992052 9.93798e-18)
(1.00455 -0.00597289 -8.11575e-18)
(0.995526 -0.00308435 -8.44359e-18)
(0.335662 -0.300758 1.93471e-18)
(0.579523 -0.202522 2.56827e-18)
(0.748289 -0.142061 -1.90365e-17)
(0.8352 -0.101084 -1.63932e-17)
(0.910368 -0.0731169 1.39638e-17)
(0.942122 -0.0530671 3.94363e-18)
(0.980508 -0.0369327 6.45545e-18)
(0.986431 -0.0252428 -2.04331e-17)
(1.00677 -0.0131437 2.7813e-17)
(0.996059 -0.00367682 4.8267e-18)
(0.438107 -0.478037 -2.13022e-18)
(0.64843 -0.321687 2.85237e-18)
(0.796543 -0.225407 1.22135e-17)
(0.869442 -0.160115 1.1389e-17)
(0.935035 -0.115508 2.29972e-17)
(0.959909 -0.0834871 -7.05847e-18)
(0.992748 -0.0576835 3.12466e-18)
(0.994635 -0.0389421 1.00284e-18)
(1.01079 -0.0195291 2.86599e-17)
(0.996741 -0.00415075 -5.22258e-17)
(0.582943 -0.62277 1.13919e-18)
(0.745837 -0.418968 3.4477e-17)
(0.864728 -0.29344 1.23452e-17)
(0.917807 -0.20829 -6.3961e-18)
(0.969842 -0.150092 -8.04866e-18)
(0.984978 -0.108291 -1.5425e-18)
(1.00995 -0.0745885 -3.65648e-19)
(1.00612 -0.0500811 -8.96983e-18)
(1.01634 -0.0246918 -4.08876e-17)
(0.997545 -0.00446778 6.50343e-17)
(0.76031 -0.72509 -8.27297e-18)
(0.865108 -0.487735 6.71372e-18)
(0.948209 -0.341522 1.18865e-17)
(0.977002 -0.242325 1.30442e-17)
(1.01243 -0.17451 -1.7287e-17)
(1.01563 -0.125785 -3.5304e-18)
(1.03097 -0.0864888 -1.23952e-17)
(1.02012 -0.0578956 -1.53903e-17)
(1.02307 -0.0282711 4.77086e-17)
(0.998425 -0.00459783 -6.8484e-17)
(0.958116 -0.778025 1.11606e-17)
(0.998121 -0.523298 -1.75212e-17)
(1.0413 -0.366373 -2.0068e-17)
(1.043 -0.259895 -2.05441e-17)
(1.0599 -0.187094 -4.04049e-18)
(1.04978 -0.134772 -5.61736e-18)
(1.05437 -0.0925698 5.53325e-17)
(1.03569 -0.0618451 -2.73254e-17)
(1.03051 -0.0300183 3.34819e-17)
(0.999336 -0.00452219 -1.01998e-17)
(1.16289 -0.777962 1.12512e-17)
(1.13581 -0.523233 -1.19113e-17)
(1.13766 -0.366295 -2.22003e-17)
(1.11132 -0.2598 -2.90676e-17)
(1.10904 -0.186978 -1.93157e-19)
(1.08512 -0.134632 1.33283e-17)
(1.07858 -0.0924068 1.21588e-17)
(1.05178 -0.061654 5.9697e-19)
(1.03819 -0.0298024 2.95525e-17)
(1.00022 -0.00423849 -2.93042e-18)
(1.36067 -0.724907 -5.10389e-18)
(1.26881 -0.487537 -9.0061e-19)
(1.23074 -0.341289 5.34816e-18)
(1.17731 -0.242037 7.8965e-18)
(1.15649 -0.174165 1.25582e-17)
(1.11925 -0.125367 3.32369e-18)
(1.10195 -0.0860051 -6.59281e-18)
(1.06731 -0.0573239 6.77341e-18)
(1.04558 -0.0276308 -2.84262e-17)
(1.00104 -0.00375402 4.80334e-17)
(1.53799 -0.62247 1.81675e-18)
(1.38805 -0.418642 9.29813e-18)
(1.31419 -0.293052 1.41262e-17)
(1.23646 -0.207812 6.38784e-18)
(1.19903 -0.149518 -1.02114e-17)
(1.14984 -0.1076 6.82219e-19)
(1.12289 -0.0737878 -4.12146e-19)
(1.08121 -0.0491423 3.46809e-18)
(1.05219 -0.0236367 -3.11227e-18)
(1.00173 -0.00309418 1.0723e-17)
(1.68276 -0.477634 1.61762e-18)
(1.4854 -0.321235 2.42861e-19)
(1.38232 -0.224867 1.10409e-17)
(1.28477 -0.159448 8.16992e-18)
(1.23377 -0.114711 5.7631e-18)
(1.17482 -0.0825309 -5.80381e-18)
(1.13999 -0.0565803 1.02934e-18)
(1.09255 -0.037653 -2.13022e-18)
(1.05758 -0.0180836 -1.26691e-17)
(1.00227 -0.00228951 2.66857e-18)
(1.78512 -0.300261 9.58471e-19)
(1.55424 -0.201953 -7.40761e-19)
(1.43051 -0.14137 3.13549e-18)
(1.31893 -0.100236 3.0512e-19)
(1.25834 -0.0721022 5.10778e-20)
(1.19248 -0.0518599 2.41813e-18)
(1.15208 -0.0355401 2.86908e-18)
(1.10057 -0.0236302 1.5986e-18)
(1.06138 -0.0113327 -5.7149e-18)
(1.00262 -0.00138541 3.02193e-18)
(1.83809 -0.102441 6.04273e-19)
(1.58987 -0.068915 -8.23566e-19)
(1.45546 -0.0482487 2.32957e-18)
(1.33663 -0.0341979 1.15001e-18)
(1.27107 -0.0245907 -6.62154e-19)
(1.20163 -0.017664 1.37641e-18)
(1.15834 -0.0120935 1.57171e-18)
(1.10472 -0.00801385 1.13478e-18)
(1.06335 -0.00383395 -4.02229e-18)
(1.00276 -0.000425621 5.52807e-19)
(1.83807 0.102354 2.29074e-19)
(1.58987 0.0688134 -1.14787e-18)
(1.45547 0.0481615 2.51388e-18)
(1.33664 0.0341687 1.78995e-18)
(1.27109 0.0245993 -1.68439e-18)
(1.20165 0.0177333 1.3141e-19)
(1.15836 0.0121774 7.45603e-19)
(1.10472 0.00814116 7.02005e-19)
(1.06334 0.0039202 -4.03e-18)
(1.0027 0.000537265 6.05312e-19)
(1.78505 0.300166 -2.2835e-20)
(1.55424 0.201855 -2.01318e-18)
(1.43054 0.141292 2.81197e-18)
(1.31898 0.100216 3.46923e-18)
(1.2584 0.0721199 -4.17566e-18)
(1.19253 0.0519333 -8.54827e-19)
(1.15212 0.0356261 -2.12295e-18)
(1.10057 0.0237505 4.28513e-18)
(1.06137 0.0114122 -8.22696e-18)
(1.00244 0.00145937 1.95878e-18)
(1.68265 0.477524 1.17398e-18)
(1.4854 0.321145 -3.41051e-18)
(1.38238 0.224807 -6.64528e-18)
(1.28485 0.159447 -3.25433e-18)
(1.23386 0.114745 -5.56391e-18)
(1.17489 0.0826114 3.02452e-18)
(1.14005 0.0566698 -8.92423e-19)
(1.09256 0.0377601 -5.61906e-19)
(1.05756 0.0181505 -5.23828e-18)
(1.002 0.00229417 1.66919e-17)
(1.53785 0.622342 7.94345e-19)
(1.38804 0.418562 -1.53087e-17)
(1.31425 0.293015 -5.68315e-18)
(1.23656 0.207833 5.08919e-18)
(1.19915 0.149573 8.27818e-18)
(1.14994 0.10769 7.40019e-19)
(1.12297 0.0738811 -1.24342e-18)
(1.08122 0.0492315 4.80016e-18)
(1.05218 0.0236867 1.81376e-17)
(1.0014 0.00300908 -2.82792e-17)
(1.36052 0.724759 6.19065e-18)
(1.26879 0.487467 2.28304e-18)
(1.2308 0.341277 -4.13716e-18)
(1.17741 0.242081 -5.70463e-18)
(1.15662 0.174241 1.14762e-17)
(1.11936 0.125464 1.63002e-19)
(1.10205 0.086101 -4.84618e-19)
(1.06733 0.0573922 8.33112e-18)
(1.04557 0.0276618 -3.74804e-17)
(1.00069 0.00357338 4.8239e-17)
(1.16273 0.777797 -1.1477e-17)
(1.13578 0.523173 1.77449e-17)
(1.13771 0.366305 1.93809e-17)
(1.11142 0.259864 2.01758e-17)
(1.10916 0.187071 -1.21749e-18)
(1.08525 0.134734 -4.4606e-20)
(1.07869 0.0925023 -5.08031e-17)
(1.05183 0.0617009 1.96641e-17)
(1.03819 0.0298146 -2.43474e-17)
(0.9999 0.00397231 -2.57378e-18)
(0.957957 0.777849 -1.43783e-17)
(0.998076 0.523246 8.64458e-18)
(1.04133 0.366399 1.62691e-17)
(1.04309 0.259972 2.2787e-17)
(1.06002 0.187197 -6.3086e-18)
(1.04991 0.134872 -1.63283e-17)
(1.05449 0.0926606 -3.01183e-18)
(1.03576 0.061872 -2.73932e-18)
(1.03053 0.0300141 -1.97443e-17)
(0.999073 0.00419511 -7.78838e-18)
(0.760162 0.724913 4.54438e-18)
(0.865049 0.487688 -5.37233e-18)
(0.948215 0.341554 -2.0643e-17)
(0.977066 0.242404 -2.50009e-17)
(1.01253 0.174611 -1.73233e-17)
(1.01575 0.125877 5.21024e-19)
(1.03108 0.0865695 1.52151e-17)
(1.02021 0.0579055 -6.60976e-18)
(1.02311 0.0282547 5.02562e-17)
(0.998248 0.00424581 -6.97726e-17)
(0.582813 0.622601 -6.33657e-18)
(0.745766 0.418923 -1.87489e-17)
(0.864708 0.29347 -3.07585e-17)
(0.917847 0.208359 -1.52238e-17)
(0.969917 0.150181 2.56053e-17)
(0.985087 0.108366 3.8749e-18)
(1.01006 0.0746533 -5.61647e-19)
(1.00623 0.0500778 -2.34204e-18)
(1.0164 0.024668 5.23472e-18)
(0.997463 0.00413246 -8.89494e-18)
(0.437995 0.477886 -2.11181e-18)
(0.648349 0.321641 7.07868e-18)
(0.7965 0.225422 -2.02136e-17)
(0.86946 0.160163 -1.50261e-17)
(0.93509 0.11557 -1.41533e-17)
(0.960009 0.0835387 1.51869e-17)
(0.992854 0.0577271 -6.71403e-18)
(0.994756 0.0389303 5.44676e-18)
(1.01087 0.0195037 3.61559e-17)
(0.99675 0.00387446 -6.82618e-18)
(0.335568 0.300635 1.11565e-20)
(0.579436 0.202472 8.35858e-18)
(0.748229 0.142055 3.78278e-18)
(0.835202 0.101101 1.22507e-17)
(0.910407 0.0731447 7.79872e-18)
(0.942216 0.0530889 -1.39768e-17)
(0.980612 0.0369504 -1.09587e-17)
(0.986567 0.0252258 -9.26479e-18)
(1.00686 0.0131206 9.38331e-18)
(0.996137 0.00349413 -1.27487e-17)
(0.282512 0.102925 -9.38575e-19)
(0.543715 0.0695419 3.00431e-18)
(0.723185 0.0490487 -3.5313e-19)
(0.817396 0.0352022 -4.70385e-18)
(0.897549 0.0257964 -1.9482e-20)
(0.932908 0.0190955 2.13848e-20)
(0.974166 0.0137407 6.52342e-18)
(0.982201 0.00990184 -2.54309e-18)
(1.00464 0.00595605 1.19583e-17)
(0.995643 0.0030205 4.60304e-18)
(0.282434 -0.101768 -3.43752e-19)
(0.543619 -0.0680911 -1.7555e-18)
(0.723065 -0.0472545 3.61332e-18)
(0.817254 -0.0330413 -3.97342e-18)
(0.89738 -0.0232454 -2.54928e-18)
(0.932714 -0.0161239 2.13264e-18)
(0.97394 -0.010318 1.29424e-17)
(0.981945 -0.00599684 -9.94417e-18)
(1.00435 -0.00150008 8.11979e-18)
(0.995284 0.00248425 8.46093e-18)
(0.335339 -0.299496 -1.93523e-18)
(0.579147 -0.201047 -2.56963e-18)
(0.747874 -0.140291 1.90459e-17)
(0.834774 -0.0989778 1.64046e-17)
(0.909906 -0.0706376 -1.39769e-17)
(0.941632 -0.0501689 -3.94643e-18)
(0.979942 -0.0335863 -6.46497e-18)
(0.985802 -0.0213878 2.04629e-17)
(1.00599 -0.00874053 -2.7858e-17)
(0.995062 0.00191781 -4.82835e-18)
(0.437614 -0.476785 2.13018e-18)
(0.647874 -0.320263 -2.85415e-18)
(0.795912 -0.223721 -1.22196e-17)
(0.868758 -0.158113 -1.13941e-17)
(0.934261 -0.113151 -2.30082e-17)
(0.959049 -0.0807199 7.06666e-18)
(0.991748 -0.0544804 -3.12768e-18)
(0.993498 -0.0352243 -1.00223e-18)
(1.00943 -0.0152751 -2.86842e-17)
(0.994978 0.00135408 5.22853e-17)
(0.582291 -0.621554 -1.13908e-18)
(0.74511 -0.417618 -3.44854e-17)
(0.863902 -0.291858 -1.23453e-17)
(0.916878 -0.20642 6.40421e-18)
(0.968779 -0.14789 8.05861e-18)
(0.983763 -0.105698 1.54552e-18)
(1.00854 -0.0715784 3.64747e-19)
(1.00449 -0.0465685 8.97719e-18)
(1.01443 -0.020662 4.092e-17)
(0.995022 0.000822811 -6.51161e-17)
(0.759501 -0.72394 8.2749e-18)
(0.864226 -0.486477 -6.70948e-18)
(0.9472 -0.340063 -1.18824e-17)
(0.975851 -0.240607 -1.30434e-17)
(1.0111 -0.172491 1.72917e-17)
(1.01408 -0.123405 3.53151e-18)
(1.02917 -0.0837214 1.23851e-17)
(1.01803 -0.0546516 1.53943e-17)
(1.02062 -0.0245417 -4.77701e-17)
(0.995179 0.000353043 6.8535e-17)
(0.957171 -0.776965 -1.11605e-17)
(0.997096 -0.522152 1.75276e-17)
(1.04013 -0.365051 2.00741e-17)
(1.04165 -0.258351 2.05511e-17)
(1.05832 -0.185281 4.03657e-18)
(1.04793 -0.132639 5.61487e-18)
(1.05222 -0.0900858 -5.53672e-17)
(1.03317 -0.0589314 2.73329e-17)
(1.02759 -0.0266557 -3.35028e-17)
(0.995426 -3.40094e-05 1.0205e-17)
(1.16182 -0.77702 -1.12502e-17)
(1.13466 -0.522212 1.19107e-17)
(1.13634 -0.365126 2.21956e-17)
(1.10978 -0.258444 2.90583e-17)
(1.10723 -0.185395 1.87794e-19)
(1.083 -0.132778 -1.3325e-17)
(1.0761 -0.0902481 -1.21515e-17)
(1.04888 -0.0591222 -5.89091e-19)
(1.03483 -0.0268713 -2.95338e-17)
(0.995738 -0.000319036 2.94488e-18)
(1.35951 -0.7241 5.1042e-18)
(1.26755 -0.48666 8.9649e-19)
(1.22928 -0.340285 -5.35356e-18)
(1.17559 -0.240889 -7.90043e-18)
(1.15448 -0.172831 -1.25576e-17)
(1.11688 -0.12382 -3.31729e-18)
(1.09919 -0.084203 6.59467e-18)
(1.06407 -0.0552227 -6.75962e-18)
(1.04185 -0.0251813 2.84202e-17)
(0.996082 -0.000494693 -4.79904e-17)
(1.53676 -0.621817 -1.81603e-18)
(1.38669 -0.417919 -9.29906e-18)
(1.31261 -0.29223 -1.4121e-17)
(1.2346 -0.206887 -6.38259e-18)
(1.19684 -0.148457 1.01979e-17)
(1.14726 -0.106384 -6.81339e-19)
(1.11989 -0.0723756 4.12477e-19)
(1.0777 -0.0475059 -3.458e-18)
(1.04816 -0.0217154 3.11187e-18)
(0.996428 -0.000556314 -1.07055e-17)
(1.6815 -0.477141 -1.61845e-18)
(1.48398 -0.320683 -2.44921e-19)
(1.38064 -0.22424 -1.10322e-17)
(1.28277 -0.158767 -8.16053e-18)
(1.23142 -0.113938 -5.76e-18)
(1.17206 -0.0816703 5.79045e-18)
(1.13679 -0.0555792 -1.02948e-18)
(1.08884 -0.0365116 2.12537e-18)
(1.05332 -0.0167187 1.26284e-17)
(0.996742 -0.000513892 -2.66833e-18)
(1.78384 -0.299937 -9.60912e-19)
(1.55276 -0.201579 7.35989e-19)
(1.42874 -0.140958 -3.13401e-18)
(1.31683 -0.0998111 -3.08571e-19)
(1.25587 -0.0716412 -5.74047e-20)
(1.1896 -0.0513695 -2.40956e-18)
(1.14874 -0.0349734 -2.85711e-18)
(1.09672 -0.0229977 -1.58485e-18)
(1.05698 -0.0105488 5.69561e-18)
(0.996996 -0.000379567 -3.01126e-18)
(1.83683 -0.102281 -6.07765e-19)
(1.58837 -0.0687335 8.19977e-19)
(1.45363 -0.0480621 -2.33012e-18)
(1.33445 -0.0340499 -1.14934e-18)
(1.26852 -0.0244529 6.59079e-19)
(1.19866 -0.0175604 -1.3758e-18)
(1.15492 -0.0119701 -1.57656e-18)
(1.1008 -0.00790086 -1.13134e-18)
(1.05887 -0.00363635 4.00246e-18)
(0.997164 -0.000180268 -5.68034e-19)
(1.83685 0.10235 -2.33507e-19)
(1.58836 0.0687998 1.14516e-18)
(1.45362 0.0481053 -2.51601e-18)
(1.33443 0.0340312 -1.78837e-18)
(1.26849 0.024397 1.68229e-18)
(1.19864 0.0174459 -1.34592e-19)
(1.15491 0.0118472 -7.61554e-19)
(1.1008 0.00774082 -6.90435e-19)
(1.05888 0.00352906 4.01291e-18)
(0.997228 5.75962e-05 -6.2842e-19)
(1.78389 0.30001 1.79079e-20)
(1.55275 0.201639 2.00945e-18)
(1.4287 0.140989 -2.8213e-18)
(1.31677 0.0997814 -3.47993e-18)
(1.25581 0.0715752 4.18005e-18)
(1.18954 0.0512503 8.58763e-19)
(1.1487 0.034848 2.12706e-18)
(1.09672 0.0228447 -4.31008e-18)
(1.05699 0.0104482 8.25669e-18)
(0.997181 0.000295911 -1.95196e-18)
(1.68157 0.477221 -1.17914e-18)
(1.48396 0.32073 3.40712e-18)
(1.38057 0.22425 6.64538e-18)
(1.28268 0.158717 3.25775e-18)
(1.23132 0.113854 5.57767e-18)
(1.17198 0.0815429 -3.02948e-18)
(1.13672 0.0554495 8.94003e-19)
(1.08883 0.0363718 5.56635e-19)
(1.05334 0.0166305 5.28403e-18)
(0.997024 0.00050195 -1.67627e-17)
(1.53685 0.621905 -7.96891e-19)
(1.38667 0.417949 1.53126e-17)
(1.31252 0.292212 5.68602e-18)
(1.23448 0.206811 -5.09124e-18)
(1.19671 0.14835 -8.28211e-18)
(1.14715 0.106247 -7.4395e-19)
(1.1198 0.0722412 1.23941e-18)
(1.07769 0.0473839 -4.81162e-18)
(1.04817 0.0216438 -1.81767e-17)
(0.99677 0.000637101 2.83314e-17)
(1.35961 0.724193 -6.19285e-18)
(1.26753 0.48667 -2.27955e-18)
(1.22919 0.340235 4.1403e-18)
(1.17547 0.240786 5.70672e-18)
(1.15434 0.1727 -1.149e-17)
(1.11675 0.123673 -1.70684e-19)
(1.09908 0.0840647 4.64124e-19)
(1.06404 0.0551212 -8.34796e-18)
(1.04186 0.0251283 3.75122e-17)
(0.996441 0.000674029 -4.8293e-17)
(1.16193 0.777115 1.14748e-17)
(1.13466 0.522202 -1.77437e-17)
(1.13626 0.365047 -1.93828e-17)
(1.10966 0.258316 -2.01776e-17)
(1.10709 0.185243 1.20764e-18)
(1.08286 0.132624 3.71213e-20)
(1.07598 0.0901089 5.08022e-17)
(1.04883 0.0590418 -1.96741e-17)
(1.03482 0.0268366 2.43719e-17)
(0.996071 0.000586321 2.55914e-18)
(0.957273 0.777055 1.43757e-17)
(0.997102 0.522124 -8.64618e-18)
(1.04007 0.364949 -1.62739e-17)
(1.04154 0.258205 -2.27955e-17)
(1.05819 0.185116 6.29912e-18)
(1.0478 0.132486 1.63241e-17)
(1.0521 0.0899499 3.01858e-18)
(1.0331 0.0588704 2.73077e-18)
(1.02756 0.0266367 1.97601e-17)
(0.995696 0.000363615 7.76524e-18)
(0.759595 0.724017 -4.54567e-18)
(0.864248 0.486434 5.36725e-18)
(0.947168 0.339948 2.06315e-17)
(0.975769 0.240456 2.49846e-17)
(1.01099 0.172325 1.73144e-17)
(1.01396 0.123257 -5.16845e-19)
(1.02905 0.0835942 -1.52053e-17)
(1.01794 0.0546067 6.60429e-18)
(1.02058 0.0245342 -5.02101e-17)
(0.995362 1.85169e-06 6.97051e-17)
(0.582376 0.62161 6.33479e-18)
(0.74515 0.417564 1.87417e-17)
(0.8639 0.291741 3.07492e-17)
(0.916823 0.206275 1.52175e-17)
(0.968692 0.147735 -2.55925e-17)
(0.983645 0.105566 -3.86714e-18)
(1.00843 0.0714656 5.59661e-19)
(1.00438 0.0465356 2.33946e-18)
(1.01436 0.0206607 -5.22759e-18)
(0.995106 -0.000485462 8.86997e-18)
(0.437691 0.476811 2.1115e-18)
(0.647931 0.320203 -7.07575e-18)
(0.795938 0.223613 2.02096e-17)
(0.868728 0.157987 1.5021e-17)
(0.934196 0.113019 1.41442e-17)
(0.958941 0.0806097 -1.5173e-17)
(0.991635 0.0543877 6.70669e-18)
(0.993372 0.0351989 -5.44537e-18)
(1.00935 0.0152749 -3.61071e-17)
(0.994971 -0.00107683 6.81306e-18)
(0.335412 0.299486 -1.12554e-20)
(0.579218 0.200986 -8.35579e-18)
(0.747924 0.140202 -3.77636e-18)
(0.834765 0.098881 -1.22413e-17)
(0.90986 0.070539 -7.7932e-18)
(0.941533 0.0500874 1.39651e-17)
(0.979834 0.0335181 1.09471e-17)
(0.985663 0.0213663 9.24841e-18)
(1.0059 0.008737 -9.37639e-18)
(0.994983 -0.00173564 1.27319e-17)
(0.282508 0.101719 9.38423e-19)
(0.5437 0.0680322 -3.00276e-18)
(0.723128 0.0471916 3.55361e-19)
(0.817258 0.0329815 4.70187e-18)
(0.897347 0.0231881 1.91438e-20)
(0.932621 0.0160762 -1.87999e-20)
(0.973836 0.0102776 -6.51298e-18)
(0.981801 0.00597652 2.53997e-18)
(1.00425 0.00149014 -1.19429e-17)
(0.995167 -0.00242158 -4.58908e-18)
)
;

boundaryField
{
    out
    {
        type            fixedValue;
        value           uniform (1 0 0);
    }
    in
    {
        type            myVelocity;
    }
    frontAndBack
    {
        type            empty;
    }
}


// ************************************************************************* //
