/*--------------------------------*- C++ -*----------------------------------*\
| =========                 |                                                 |
| \\      /  F ield         | foam-extend: Open Source CFD                    |
|  \\    /   O peration     | Version:  3.0                                   |
|   \\  /    A nd           | Web:         http://www.extend-project.de       |
|    \\/     M anipulation  |                                                 |
\*---------------------------------------------------------------------------*/
FoamFile
{
    version     2.0;
    format      ascii;
    class       volVectorField;
    location    "40";
    object      s;
}
// * * * * * * * * * * * * * * * * * * * * * * * * * * * * * * * * * * * * * //

dimensions      [0 1 -1 0 0 0 0];

internalField   nonuniform List<vector> 
5120
(
(1.46697 0.0288076 -6.95313e-20)
(1.34698 0.0264514 -2.75634e-20)
(1.24508 0.0244502 -7.4969e-21)
(1.15749 0.0227302 3.03422e-21)
(1.0814 0.021236 2.44398e-20)
(1.01468 0.0199258 6.06114e-20)
(0.955712 0.0187678 8.10733e-20)
(0.903212 0.0177368 7.6928e-20)
(0.856176 0.0168131 7.22778e-20)
(0.813792 0.0159808 6.64733e-20)
(0.775403 0.015227 5.76863e-20)
(0.740471 0.014541 5.49879e-20)
(0.708548 0.0139141 4.72064e-20)
(0.679263 0.013339 2.59903e-20)
(0.652301 0.0128096 1.85981e-20)
(0.627397 0.0123205 2.98125e-20)
(0.604324 0.0118674 3.94386e-20)
(0.582887 0.0114464 3.40524e-20)
(0.562918 0.0110543 2.89382e-20)
(0.544272 0.0106881 2.28753e-20)
(0.526821 0.0103454 2.07751e-20)
(0.510454 0.010024 5.49112e-21)
(0.495073 0.00972199 -1.36563e-20)
(0.480591 0.00943761 -3.58822e-21)
(0.466932 0.00916939 1.39694e-20)
(0.454029 0.00891599 8.44094e-21)
(0.441818 0.00867621 3.51665e-20)
(0.430248 0.00844899 3.14249e-20)
(0.419268 0.00823337 2.85527e-20)
(0.408834 0.00802847 2.31454e-20)
(0.398907 0.00783354 1.68937e-20)
(0.389453 0.00764788 1.15612e-20)
(1.46471 0.0863785 -2.29796e-19)
(1.34491 0.0793134 -9.05548e-20)
(1.24316 0.073313 -5.2903e-20)
(1.15571 0.0681556 -3.31454e-20)
(1.07973 0.0636751 -6.97522e-21)
(1.01312 0.0597467 6.06608e-20)
(0.954238 0.0562744 9.79111e-20)
(0.90182 0.0531831 7.11191e-20)
(0.854855 0.0504135 6.96318e-20)
(0.812537 0.0479178 5.93681e-20)
(0.774207 0.0456574 5.94699e-20)
(0.739329 0.0436005 2.97133e-20)
(0.707456 0.0417209 -1.26036e-20)
(0.678216 0.0399965 8.40189e-21)
(0.651296 0.0384089 -1.45565e-20)
(0.62643 0.0369425 3.24634e-20)
(0.603392 0.0355839 3.44428e-20)
(0.581988 0.0343217 -1.62436e-21)
(0.56205 0.0331459 3.30026e-20)
(0.543433 0.0320479 2.16483e-20)
(0.526009 0.0310204 6.93173e-20)
(0.509667 0.0300566 -1.49322e-20)
(0.494309 0.029151 -2.90217e-20)
(0.47985 0.0282983 8.82148e-21)
(0.466212 0.027494 3.96716e-20)
(0.453328 0.0267342 1.21599e-19)
(0.441137 0.0260152 1.02112e-19)
(0.429584 0.0253339 8.98467e-20)
(0.418621 0.0246874 8.2135e-20)
(0.408203 0.024073 5.87407e-20)
(0.398292 0.0234885 1.14206e-19)
(0.388852 0.0229318 2.20619e-21)
(1.46019 0.143816 -2.51612e-19)
(1.34076 0.132053 -1.50856e-19)
(1.23932 0.122063 -5.39291e-20)
(1.15214 0.113476 -9.31832e-20)
(1.0764 0.106016 3.38945e-20)
(1.00999 0.0994755 7.171e-20)
(0.951293 0.0936942 1.43825e-19)
(0.899037 0.0885474 5.29024e-20)
(0.852217 0.0839361 7.22197e-20)
(0.810029 0.0797809 4.6e-20)
(0.771818 0.0760175 8.24622e-20)
(0.737047 0.0725928 1.52393e-20)
(0.705272 0.0694633 -1.0605e-20)
(0.676123 0.0665923 -2.86629e-20)
(0.649286 0.0639491 2.39859e-21)
(0.624497 0.0615076 -4.19283e-20)
(0.60153 0.0592456 -5.16849e-20)
(0.580192 0.057144 -5.98925e-20)
(0.560316 0.0551863 9.69645e-20)
(0.541756 0.0533583 6.83952e-20)
(0.524385 0.0516474 1.14186e-19)
(0.508094 0.0500429 -6.72679e-21)
(0.492784 0.048535 5.12605e-21)
(0.478369 0.0471153 2.99965e-20)
(0.464774 0.0457762 1.0553e-19)
(0.451929 0.0445112 1.44999e-19)
(0.439776 0.0433141 1.55063e-19)
(0.428259 0.0421798 1.3907e-19)
(0.417329 0.0411033 1.74182e-19)
(0.406943 0.0400804 2.01415e-19)
(0.397063 0.0391073 3.2673e-20)
(0.387652 0.0381804 1.66014e-20)
(1.45342 0.201032 -2.40779e-19)
(1.33454 0.184589 -1.93393e-19)
(1.23358 0.170624 -7.9183e-20)
(1.1468 0.158621 5.53961e-21)
(1.07141 0.148194 5.99984e-20)
(1.00531 0.139051 6.65875e-20)
(0.946881 0.13097 1.68888e-19)
(0.894867 0.123775 7.8421e-20)
(0.848265 0.117329 4.92306e-20)
(0.806272 0.111521 -6.7875e-21)
(0.768239 0.10626 -3.90994e-20)
(0.733629 0.101473 -2.89798e-20)
(0.702002 0.0970986 -1.42874e-20)
(0.672987 0.0930854 1.24144e-19)
(0.646274 0.0893906 9.32597e-20)
(0.6216 0.0859778 -1.51833e-19)
(0.59874 0.0828159 -1.40906e-20)
(0.577502 0.0798782 1.85525e-19)
(0.557717 0.0771417 1.39076e-19)
(0.539243 0.0745864 1.05915e-20)
(0.521953 0.0721949 -1.26643e-19)
(0.505737 0.069952 6.86987e-20)
(0.490498 0.0678442 1.62705e-20)
(0.476151 0.0658596 2.40346e-19)
(0.462618 0.0639879 2.37496e-19)
(0.449833 0.0622195 2.2697e-19)
(0.437736 0.0605463 2.64419e-19)
(0.426272 0.0589606 7.36137e-20)
(0.415394 0.0574559 2.83892e-19)
(0.405056 0.0560261 2.29245e-19)
(0.395221 0.0546657 1.81244e-19)
(0.385854 0.0533702 8.00309e-20)
(1.4444 0.257938 -6.15071e-19)
(1.32626 0.236841 -2.90449e-19)
(1.22593 0.218922 -9.75708e-20)
(1.13968 0.203522 -1.37873e-20)
(1.06476 0.190143 1.02426e-19)
(0.999074 0.178412 1.12359e-19)
(0.94101 0.168043 -5.45314e-21)
(0.889318 0.158812 7.4505e-20)
(0.843004 0.150542 4.2765e-20)
(0.801272 0.143089 -7.30831e-20)
(0.763474 0.136339 2.71541e-20)
(0.72908 0.130197 -7.71368e-20)
(0.697648 0.124584 -1.25155e-19)
(0.668814 0.119435 -4.3232e-20)
(0.642267 0.114694 -7.89374e-20)
(0.617746 0.110315 -1.73532e-19)
(0.595028 0.106258 -5.81252e-20)
(0.57392 0.102489 -3.94742e-20)
(0.554259 0.0989781 3.47299e-20)
(0.535899 0.0956995 -2.66231e-20)
(0.518716 0.092631 -3.29889e-19)
(0.502601 0.0897532 -1.45064e-20)
(0.487457 0.0870487 1.07333e-19)
(0.473198 0.0845024 1.43864e-21)
(0.459749 0.0821008 3.85459e-19)
(0.447044 0.0798319 2.12426e-19)
(0.435022 0.077685 2.79799e-19)
(0.423629 0.0756506 3.0196e-19)
(0.412818 0.0737199 4.08144e-19)
(0.402544 0.0718853 2.44973e-19)
(0.39277 0.0701399 4.74652e-19)
(0.383462 0.0684776 3.15533e-19)
(1.43316 0.314446 -9.89379e-19)
(1.31594 0.288727 -3.62401e-19)
(1.21639 0.266883 -8.96339e-20)
(1.13082 0.248109 -4.53521e-20)
(1.05648 0.231798 4.97291e-21)
(0.991299 0.217498 -6.32572e-20)
(0.933687 0.204857 1.78429e-20)
(0.882397 0.193604 2.9096e-20)
(0.836444 0.183522 -1.15914e-19)
(0.795037 0.174437 -1.68434e-19)
(0.757533 0.166208 1.8025e-20)
(0.723406 0.15872 5.74091e-20)
(0.692219 0.151878 1.13047e-19)
(0.663609 0.1456 -1.05597e-19)
(0.637269 0.139821 -1.89252e-19)
(0.612939 0.134483 -1.70432e-19)
(0.590397 0.129537 -2.45458e-19)
(0.569454 0.124942 1.76474e-19)
(0.549946 0.120662 1.08042e-19)
(0.531729 0.116665 2.29017e-20)
(0.51468 0.112924 -1.12059e-19)
(0.49869 0.109416 -7.82546e-20)
(0.483663 0.106119 3.14056e-20)
(0.469515 0.103015 2.87941e-19)
(0.456172 0.100087 4.43425e-19)
(0.443565 0.0973212 3.03084e-19)
(0.431636 0.094704 6.85166e-19)
(0.420332 0.0922238 3.39271e-19)
(0.409605 0.0898702 5.72679e-19)
(0.399412 0.0876337 8.12537e-19)
(0.389714 0.0855059 1.16158e-18)
(0.380478 0.0834794 1.87949e-18)
(1.41971 0.37047 -9.58049e-19)
(1.30359 0.340168 -4.00739e-19)
(1.20497 0.314433 -1.03202e-19)
(1.1202 0.292313 5.53923e-21)
(1.04656 0.273097 3.89072e-20)
(0.981996 0.256248 -2.28954e-20)
(0.924924 0.241356 7.16907e-20)
(0.874116 0.228098 6.5152e-20)
(0.828594 0.216219 8.60925e-20)
(0.787576 0.205515 5.32015e-21)
(0.750424 0.19582 1.04759e-19)
(0.716617 0.186999 -4.47693e-20)
(0.685723 0.178937 -1.04787e-19)
(0.657381 0.171541 -2.84133e-19)
(0.631288 0.164732 -3.98819e-19)
(0.607186 0.158443 -5.58053e-19)
(0.584856 0.152616 -2.589e-19)
(0.56411 0.147203 -2.96592e-19)
(0.544784 0.14216 -3.13804e-19)
(0.526739 0.137451 -3.82826e-19)
(0.50985 0.133043 -4.14785e-19)
(0.49401 0.12891 -2.66877e-19)
(0.479124 0.125026 -3.06947e-19)
(0.465109 0.121369 -1.06252e-19)
(0.451891 0.117919 -7.70795e-20)
(0.439402 0.11466 -8.3236e-20)
(0.427586 0.111577 5.8282e-19)
(0.416388 0.108655 2.83428e-19)
(0.405761 0.105882 1.05861e-19)
(0.395663 0.103247 1.76781e-19)
(0.386057 0.10074 8.57315e-19)
(0.376907 0.0983525 1.68193e-18)
(1.40408 0.425922 -6.75379e-19)
(1.28923 0.391084 -3.12662e-19)
(1.1917 0.361497 -1.51893e-19)
(1.10786 0.336067 7.82264e-20)
(1.03503 0.313974 1.98686e-20)
(0.971178 0.294604 4.68285e-20)
(0.914736 0.277482 1.70422e-19)
(0.864487 0.262239 8.70884e-20)
(0.819467 0.248583 3.46731e-19)
(0.7789 0.236277 2.74352e-19)
(0.742157 0.225131 1.4557e-19)
(0.708723 0.214989 9.60461e-21)
(0.678169 0.20572 -2.19876e-19)
(0.65014 0.197218 -2.79473e-19)
(0.624334 0.18939 -5.60411e-19)
(0.600498 0.182159 -4.56722e-19)
(0.578414 0.17546 -4.00208e-19)
(0.557896 0.169236 -2.8328e-19)
(0.538783 0.163438 -6.62637e-19)
(0.520936 0.158024 -3.00838e-19)
(0.504233 0.152958 -4.4731e-19)
(0.488568 0.148205 -1.59156e-19)
(0.473846 0.14374 -5.0166e-19)
(0.459986 0.139535 -1.9814e-19)
(0.446913 0.135569 4.29075e-20)
(0.434562 0.131823 -1.06097e-19)
(0.422875 0.128278 1.69573e-19)
(0.411801 0.124918 -1.42547e-20)
(0.401291 0.12173 -3.23844e-19)
(0.391305 0.118701 -1.53872e-19)
(0.381804 0.115819 1.33677e-19)
(0.372755 0.113074 1.61446e-19)
(1.38627 0.480717 -1.33963e-19)
(1.27288 0.441398 -1.83507e-19)
(1.17659 0.408004 9.82373e-20)
(1.09382 0.379302 2.38436e-19)
(1.02191 0.354367 3.2335e-19)
(0.958863 0.332505 4.42864e-19)
(0.903136 0.31318 5.55509e-19)
(0.853525 0.295977 3.27234e-19)
(0.809076 0.280563 3.80736e-19)
(0.769023 0.266674 3.69545e-19)
(0.732747 0.254094 1.95886e-19)
(0.699736 0.242647 1.41115e-19)
(0.66957 0.232187 -1.33615e-20)
(0.641896 0.22259 -6.56476e-20)
(0.616417 0.213755 -1.3156e-19)
(0.592883 0.205594 -3.09866e-19)
(0.571079 0.198033 -1.17964e-19)
(0.550822 0.191008 -1.69033e-19)
(0.531951 0.184465 -4.22638e-19)
(0.514331 0.178354 -5.76368e-19)
(0.49784 0.172636 -5.9618e-19)
(0.482373 0.167272 -1.33484e-19)
(0.467838 0.162232 -1.12824e-19)
(0.454153 0.157487 -1.92687e-19)
(0.441246 0.153011 -2.35613e-19)
(0.429052 0.148782 -3.9917e-19)
(0.417513 0.144781 -4.38353e-19)
(0.406579 0.140989 -5.96015e-19)
(0.396203 0.137391 -6.67582e-19)
(0.386343 0.133972 -7.9206e-19)
(0.376963 0.130719 -5.39179e-19)
(0.368028 0.127621 -3.83497e-19)
(1.36633 0.534771 8.05544e-20)
(1.25457 0.491031 1.72715e-19)
(1.15966 0.453882 1.3995e-19)
(1.07808 0.421953 2.44768e-19)
(1.00721 0.394214 -3.24096e-21)
(0.94507 0.369893 4.72054e-19)
(0.890145 0.348396 3.35051e-19)
(0.841247 0.329258 3.16815e-20)
(0.797437 0.312111 4.29127e-20)
(0.757961 0.29666 3.6143e-19)
(0.722206 0.282666 3.87023e-19)
(0.68967 0.269932 3.55986e-19)
(0.659938 0.258295 1.16452e-19)
(0.632662 0.247619 1.62524e-19)
(0.60755 0.23779 -6.8319e-20)
(0.584354 0.228712 -6.83788e-20)
(0.562864 0.220301 -6.75592e-20)
(0.542898 0.212486 -3.11852e-19)
(0.524299 0.205207 -3.0573e-19)
(0.506932 0.198409 -5.07221e-19)
(0.490678 0.192048 -4.09266e-19)
(0.475434 0.186081 -5.20477e-19)
(0.461108 0.180474 -1.09697e-19)
(0.44762 0.175195 -2.51256e-19)
(0.434898 0.170216 -2.7946e-19)
(0.42288 0.165512 -3.57164e-19)
(0.411507 0.161061 -7.90307e-19)
(0.40073 0.156843 -7.69944e-19)
(0.390503 0.15284 -8.837e-19)
(0.380785 0.149037 -1.1616e-18)
(0.37154 0.145418 -1.60127e-18)
(0.362734 0.141971 -2.64522e-18)
(1.34428 0.588001 3.05742e-19)
(1.23433 0.539907 5.57012e-19)
(1.14095 0.49906 1.442e-19)
(1.06068 0.463953 3.62106e-19)
(0.990956 0.433453 1.15616e-19)
(0.92982 0.406711 3.77243e-19)
(0.875781 0.383074 3.89035e-19)
(0.827672 0.362031 1.74791e-19)
(0.784569 0.343178 1.36653e-19)
(0.74573 0.326189 3.195e-19)
(0.710552 0.310802 1.843e-19)
(0.678541 0.2968 2.8834e-19)
(0.649289 0.284005 1.35091e-20)
(0.622453 0.272266 -2.93767e-19)
(0.597746 0.261459 -2.26186e-19)
(0.574925 0.251477 -3.18557e-19)
(0.553781 0.242229 -2.30178e-19)
(0.534137 0.233636 -2.41496e-19)
(0.515839 0.225632 -9.54611e-19)
(0.498752 0.218158 -8.57491e-19)
(0.48276 0.211164 -4.49654e-19)
(0.467762 0.204603 -6.60489e-19)
(0.453667 0.198438 -2.99885e-19)
(0.440397 0.192633 -5.10415e-19)
(0.42788 0.187159 -2.272e-19)
(0.416056 0.181986 -7.41629e-19)
(0.404867 0.177092 -9.12129e-19)
(0.394264 0.172455 -6.43643e-19)
(0.384202 0.168053 -7.04279e-19)
(0.374641 0.163871 -5.08934e-19)
(0.365544 0.159892 1.67102e-19)
(0.356881 0.156103 2.11835e-18)
(1.32016 0.640324 5.20197e-19)
(1.21218 0.58795 4.86907e-19)
(1.12047 0.543469 1.42578e-19)
(1.04165 0.505237 3.71816e-19)
(0.973175 0.472024 4.06642e-19)
(0.913135 0.442902 5.6151e-19)
(0.860066 0.417162 3.60179e-19)
(0.812821 0.394246 2.3609e-19)
(0.770491 0.373715 3.09493e-19)
(0.732349 0.355215 4.76796e-19)
(0.697802 0.338458 2.50703e-19)
(0.666366 0.323211 6.94676e-20)
(0.637638 0.309277 -4.39433e-20)
(0.611284 0.296494 -1.41954e-19)
(0.58702 0.284725 -2.27808e-19)
(0.564609 0.273855 -2.69704e-19)
(0.543845 0.263784 -2.81508e-19)
(0.524553 0.254426 -3.11443e-19)
(0.506583 0.24571 -1.08448e-18)
(0.489802 0.237571 -6.05516e-19)
(0.474098 0.229954 -6.57066e-19)
(0.459368 0.22281 -6.29196e-19)
(0.445527 0.216096 -6.49166e-19)
(0.432494 0.209775 -5.38775e-19)
(0.420203 0.203813 -9.4495e-19)
(0.40859 0.19818 -6.31541e-19)
(0.397602 0.192851 -8.04492e-19)
(0.387189 0.1878 -9.90492e-19)
(0.377308 0.183008 -5.33359e-19)
(0.367918 0.178453 -4.70046e-19)
(0.358985 0.17412 -1.47953e-18)
(0.350477 0.169994 -3.14245e-18)
(1.294 0.691659 1.00101e-18)
(1.18816 0.635087 3.38982e-19)
(1.09827 0.587039 7.01931e-20)
(1.02101 0.545743 1.01902e-19)
(0.953893 0.509866 3.00739e-19)
(0.895043 0.478411 3.418e-19)
(0.843025 0.450606 1.12357e-19)
(0.796716 0.425854 3.93353e-19)
(0.755225 0.403676 2.19648e-19)
(0.717838 0.383693 4.40234e-20)
(0.683976 0.365593 -1.32319e-19)
(0.653163 0.349123 -1.91427e-19)
(0.625004 0.334072 3.47022e-19)
(0.599172 0.320264 2.05139e-21)
(0.575389 0.307552 -2.7038e-19)
(0.553422 0.29581 -2.5217e-19)
(0.533069 0.284931 -3.12028e-19)
(0.51416 0.274824 -4.69642e-19)
(0.496545 0.265409 -7.69685e-19)
(0.480098 0.256618 -6.89907e-19)
(0.464704 0.24839 -9.85045e-19)
(0.450267 0.240673 -5.23966e-19)
(0.436699 0.233421 -6.66997e-19)
(0.423925 0.226593 -7.55122e-19)
(0.411877 0.220153 -7.39942e-19)
(0.400495 0.214069 -7.19607e-19)
(0.389724 0.208312 -6.62538e-19)
(0.379518 0.202857 -4.21324e-19)
(0.369832 0.197679 -8.68604e-20)
(0.360628 0.19276 -1.9972e-19)
(0.351872 0.18808 -1.34216e-18)
(0.343533 0.183622 -3.30859e-18)
(1.26585 0.741928 5.0792e-20)
(1.16231 0.681244 3.26955e-20)
(1.07438 0.629705 7.85919e-20)
(0.9988 0.585407 2.81402e-19)
(0.93314 0.546923 2.48268e-19)
(0.875571 0.513181 2.33822e-19)
(0.824685 0.483356 2.01884e-19)
(0.779383 0.456804 1.86348e-19)
(0.738795 0.433015 1.36325e-19)
(0.702221 0.411579 4.59646e-19)
(0.669096 0.392164 -1.59046e-19)
(0.638953 0.374497 -4.71949e-19)
(0.611407 0.358352 8.98253e-20)
(0.586137 0.343541 5.61055e-19)
(0.562871 0.329905 -1.16647e-19)
(0.541382 0.317309 -1.56147e-19)
(0.521472 0.30564 2.73448e-19)
(0.502974 0.294798 -4.44892e-19)
(0.485743 0.284699 -9.50472e-19)
(0.469653 0.275268 -7.67581e-19)
(0.454594 0.266442 -2.94289e-19)
(0.440471 0.258164 -5.70056e-19)
(0.427199 0.250385 -7.74547e-19)
(0.414702 0.243061 -5.92691e-19)
(0.402916 0.236153 -5.48826e-19)
(0.391782 0.229627 -3.05045e-19)
(0.381245 0.223452 -3.34639e-19)
(0.371261 0.2176 5.16779e-19)
(0.361786 0.212047 8.05914e-19)
(0.352783 0.20677 8.50239e-19)
(0.344217 0.201749 1.0723e-18)
(0.336059 0.196968 3.01583e-18)
(1.23575 0.791053 -8.77374e-19)
(1.13467 0.726351 -5.86943e-20)
(1.04883 0.671399 -5.1889e-19)
(0.975047 0.624168 -4.79299e-19)
(0.910949 0.583136 1.89912e-19)
(0.854748 0.54716 -5.18524e-20)
(0.805072 0.51536 -9.66959e-20)
(0.760848 0.48705 -5.88441e-19)
(0.721225 0.461686 -1.62151e-19)
(0.685521 0.438831 2.07574e-19)
(0.653184 0.41813 5.57734e-20)
(0.623757 0.399293 -8.31641e-20)
(0.596867 0.382079 3.46763e-19)
(0.572197 0.366287 2.88615e-19)
(0.549485 0.351749 3.95246e-19)
(0.528507 0.338319 4.13614e-19)
(0.50907 0.325877 6.69022e-19)
(0.491012 0.314317 3.83404e-19)
(0.474191 0.303549 6.17681e-20)
(0.458484 0.293494 3.12622e-19)
(0.443783 0.284084 4.33288e-19)
(0.429996 0.275258 3.93625e-19)
(0.417039 0.266964 1.40536e-19)
(0.40484 0.259155 3.75685e-19)
(0.393334 0.25179 3.9904e-19)
(0.382464 0.244831 1.2357e-18)
(0.372179 0.238247 1.02461e-18)
(0.362432 0.232008 8.78008e-19)
(0.353182 0.226087 1.68327e-18)
(0.344393 0.22046 8.75221e-19)
(0.336031 0.215108 1.41749e-18)
(0.328067 0.210009 3.67421e-18)
(1.20374 0.838959 -2.90128e-19)
(1.10528 0.770338 -4.71321e-19)
(1.02166 0.712059 -6.03262e-19)
(0.94979 0.661967 -9.42485e-20)
(0.887353 0.61845 -2.5479e-19)
(0.832608 0.580295 -4.13411e-19)
(0.784219 0.54657 -1.85084e-19)
(0.74114 0.516546 -2.50182e-19)
(0.702543 0.489645 -4.40535e-19)
(0.667764 0.465406 -5.62833e-19)
(0.636264 0.443452 -1.63161e-19)
(0.6076 0.423474 3.19352e-19)
(0.581406 0.405218 -3.667e-19)
(0.557376 0.388469 -1.2438e-19)
(0.535252 0.37305 5.16134e-19)
(0.514817 0.358807 7.28497e-19)
(0.495884 0.345612 6.88815e-19)
(0.478294 0.333352 2.64305e-19)
(0.461908 0.321932 3.33078e-19)
(0.446608 0.311268 5.07138e-19)
(0.432288 0.301288 3.21298e-19)
(0.418858 0.291928 6.09313e-19)
(0.406237 0.283131 2.20313e-19)
(0.394354 0.274849 5.71994e-19)
(0.383146 0.267038 8.97846e-19)
(0.372557 0.259658 1.36883e-18)
(0.362538 0.252675 1.08178e-18)
(0.353044 0.246058 2.64698e-19)
(0.344034 0.239778 3.37599e-19)
(0.335472 0.233811 1.80401e-20)
(0.327327 0.228134 -3.39048e-19)
(0.319569 0.222727 4.1661e-20)
(1.16987 0.88557 -3.48216e-19)
(1.07419 0.813137 -8.92502e-19)
(0.992919 0.75162 -2.20446e-19)
(0.923069 0.698745 -1.80108e-19)
(0.862388 0.652811 -5.22407e-19)
(0.809184 0.612536 -3.83724e-19)
(0.762156 0.576937 -1.42412e-19)
(0.720289 0.545244 1.55149e-19)
(0.682778 0.516849 6.32619e-20)
(0.648978 0.491263 1.90375e-20)
(0.618364 0.468089 -2.42946e-20)
(0.590506 0.447002 7.19776e-19)
(0.565049 0.427731 4.5016e-19)
(0.541695 0.410052 2.49096e-20)
(0.520194 0.393776 8.0101e-20)
(0.500333 0.378742 3.34617e-19)
(0.481933 0.364814 1.64579e-19)
(0.464838 0.351873 5.72163e-19)
(0.448913 0.339818 4.61756e-19)
(0.434043 0.328562 1.21661e-18)
(0.420126 0.318027 5.85661e-19)
(0.407074 0.308147 8.20771e-19)
(0.394808 0.298862 1.28304e-18)
(0.383259 0.29012 7.99215e-19)
(0.372367 0.281874 1.10202e-18)
(0.362076 0.274084 7.19748e-19)
(0.352339 0.266714 1.15777e-18)
(0.343112 0.259729 8.17524e-20)
(0.334355 0.2531 -7.0461e-20)
(0.326034 0.246801 4.99124e-19)
(0.318118 0.240809 -3.29245e-19)
(0.310579 0.235102 -2.34371e-18)
(1.1342 0.930817 -4.94137e-19)
(1.04143 0.854683 -2.95714e-19)
(0.962645 0.790022 -3.18833e-19)
(0.894925 0.734446 -1.44285e-19)
(0.836094 0.686165 -2.53932e-19)
(0.784512 0.643832 -4.00501e-19)
(0.738918 0.606414 -1.32586e-19)
(0.698327 0.573102 -3.40448e-20)
(0.66196 0.543257 -2.74538e-19)
(0.629191 0.516363 -2.40676e-19)
(0.59951 0.492005 -1.13693e-20)
(0.572502 0.46984 5.4007e-19)
(0.547821 0.449585 4.94145e-19)
(0.525179 0.431003 6.86035e-19)
(0.504333 0.413895 4.03239e-19)
(0.485078 0.398093 3.88142e-19)
(0.467239 0.383453 -1.97904e-20)
(0.450665 0.369851 4.86814e-19)
(0.435226 0.357181 4.75747e-19)
(0.420809 0.345349 6.89335e-19)
(0.407317 0.334276 6.51676e-19)
(0.394662 0.323891 6.5534e-19)
(0.38277 0.314131 6.20125e-19)
(0.371574 0.304943 7.58222e-19)
(0.361013 0.296276 1.47141e-18)
(0.351036 0.288088 7.29841e-19)
(0.341596 0.280341 9.42976e-19)
(0.33265 0.272999 2.66514e-19)
(0.324161 0.266032 2.0401e-19)
(0.316094 0.259411 7.80794e-19)
(0.308419 0.253113 1.63083e-18)
(0.301109 0.247114 2.61598e-18)
(1.09679 0.974628 -2.82551e-19)
(1.00708 0.89491 -2.6017e-19)
(0.930886 0.827206 -3.13095e-19)
(0.865401 0.769014 -1.92032e-19)
(0.808511 0.718461 -6.74395e-19)
(0.75863 0.674136 -5.86287e-19)
(0.71454 0.634956 -5.07367e-20)
(0.675289 0.600077 -4.86732e-20)
(0.640122 0.568826 5.15726e-20)
(0.608433 0.540667 2.14987e-19)
(0.579732 0.515163 1.9587e-19)
(0.553615 0.491954 3.5538e-19)
(0.529748 0.470746 3.39559e-19)
(0.507853 0.451289 8.40133e-19)
(0.487695 0.433376 4.71521e-19)
(0.469075 0.416831 8.73933e-19)
(0.451824 0.401501 7.56974e-19)
(0.435797 0.387259 1.01702e-18)
(0.420867 0.373992 1.2335e-18)
(0.406926 0.361604 5.12706e-19)
(0.393879 0.35001 6.58749e-19)
(0.381642 0.339136 5.55026e-19)
(0.370142 0.328917 7.77539e-19)
(0.359315 0.319295 7.94139e-19)
(0.349103 0.310221 1.19386e-18)
(0.339456 0.301648 1.29801e-20)
(0.330327 0.293536 2.97558e-19)
(0.321676 0.285848 3.22794e-19)
(0.313466 0.278553 1.77925e-19)
(0.305665 0.271621 3.4271e-19)
(0.298244 0.265026 7.29514e-19)
(0.291175 0.258745 2.28044e-19)
(1.05768 1.01694 -1.77915e-19)
(0.971166 0.933758 -2.07263e-19)
(0.897693 0.863115 -3.54787e-19)
(0.834542 0.802397 -7.23485e-19)
(0.779681 0.749649 -5.88418e-19)
(0.731579 0.7034 -2.26571e-19)
(0.689061 0.66252 -4.96132e-19)
(0.651209 0.626126 -1.14777e-19)
(0.617296 0.593519 -6.63134e-20)
(0.586738 0.564137 -5.09751e-20)
(0.55906 0.537526 -1.51761e-19)
(0.533874 0.51331 3.01709e-19)
(0.510858 0.491181 6.64399e-19)
(0.489744 0.47088 8.46698e-19)
(0.470305 0.452189 7.55124e-19)
(0.452349 0.434925 9.23328e-19)
(0.435713 0.41893 1.10351e-18)
(0.420257 0.40407 1.59291e-18)
(0.40586 0.390227 1.16047e-18)
(0.392416 0.377301 1.26428e-18)
(0.379834 0.365203 1.04113e-18)
(0.368033 0.353857 1.02231e-18)
(0.356944 0.343195 1.27269e-18)
(0.346503 0.333156 1.24806e-18)
(0.336655 0.323687 1.6601e-18)
(0.327351 0.314742 1.03841e-18)
(0.318548 0.306278 1.37683e-18)
(0.310205 0.298257 7.66304e-19)
(0.302289 0.290645 6.29196e-19)
(0.294766 0.283412 5.60887e-19)
(0.287609 0.276531 9.35742e-19)
(0.280793 0.269977 2.72284e-19)
(1.01694 1.05768 -1.31885e-19)
(0.933758 0.971166 -1.25797e-19)
(0.863115 0.897693 -3.32267e-19)
(0.802397 0.834542 -7.34492e-19)
(0.749649 0.779681 -5.89205e-19)
(0.7034 0.731579 -1.66236e-19)
(0.66252 0.689061 -6.69616e-19)
(0.626126 0.651209 -4.08624e-19)
(0.593519 0.617296 -1.58221e-19)
(0.564137 0.586738 1.82628e-19)
(0.537526 0.55906 -2.10708e-20)
(0.51331 0.533874 3.03393e-19)
(0.491181 0.510858 6.68586e-19)
(0.470879 0.489744 6.26898e-19)
(0.452189 0.470305 7.85094e-19)
(0.434925 0.452349 9.55187e-19)
(0.41893 0.435713 1.08681e-18)
(0.40407 0.420257 1.26363e-18)
(0.390227 0.40586 1.44469e-18)
(0.377301 0.392416 1.4207e-18)
(0.365203 0.379834 1.12665e-18)
(0.353857 0.368033 1.05787e-18)
(0.343195 0.356944 1.11868e-18)
(0.333156 0.346503 9.10631e-19)
(0.323687 0.336655 6.82144e-19)
(0.314742 0.327351 1.3205e-18)
(0.306278 0.318548 9.68738e-19)
(0.298257 0.310205 1.38365e-18)
(0.290645 0.302289 9.27187e-19)
(0.283412 0.294766 8.77823e-19)
(0.276531 0.287609 1.40097e-19)
(0.269977 0.280793 3.73831e-20)
(0.974628 1.09679 -1.34899e-19)
(0.89491 1.00708 6.05668e-21)
(0.827206 0.930886 -2.51385e-19)
(0.769014 0.865401 -2.38353e-19)
(0.718461 0.808511 -6.95656e-19)
(0.674136 0.75863 -6.47298e-19)
(0.634956 0.71454 -2.32651e-19)
(0.600077 0.675289 -3.13618e-19)
(0.568826 0.640122 -3.18549e-19)
(0.540667 0.608433 3.30516e-19)
(0.515163 0.579732 6.09956e-19)
(0.491954 0.553615 2.62928e-19)
(0.470746 0.529748 9.00861e-20)
(0.451289 0.507853 2.26116e-19)
(0.433376 0.487695 7.98758e-19)
(0.416831 0.469075 1.0238e-18)
(0.401501 0.451825 1.01493e-18)
(0.387259 0.435797 9.16777e-19)
(0.373992 0.420867 9.48467e-19)
(0.361604 0.406926 9.07187e-19)
(0.35001 0.393879 8.87156e-19)
(0.339136 0.381642 8.90531e-19)
(0.328917 0.370142 3.14033e-19)
(0.319295 0.359315 6.25098e-19)
(0.310221 0.349103 -8.25223e-19)
(0.301648 0.339456 8.85237e-20)
(0.293536 0.330327 9.38033e-20)
(0.285848 0.321676 3.6527e-19)
(0.278553 0.313466 2.82217e-19)
(0.271621 0.305665 -7.189e-19)
(0.265026 0.298244 -1.03321e-18)
(0.258745 0.291175 -2.67337e-19)
(0.930817 1.1342 -2.15176e-19)
(0.854683 1.04143 7.94944e-20)
(0.790022 0.962645 -7.76328e-20)
(0.734446 0.894925 -2.66266e-19)
(0.686165 0.836094 -2.72508e-19)
(0.643832 0.784512 -5.48184e-19)
(0.606414 0.738918 -3.37633e-19)
(0.573102 0.698327 -2.56471e-19)
(0.543257 0.66196 -4.55046e-19)
(0.516363 0.629191 -1.5433e-19)
(0.492005 0.59951 3.70699e-19)
(0.46984 0.572502 9.97676e-20)
(0.449585 0.547821 1.71663e-19)
(0.431003 0.525179 3.48968e-19)
(0.413895 0.504333 1.70072e-19)
(0.398093 0.485078 3.56302e-19)
(0.383453 0.467239 1.04945e-18)
(0.369851 0.450665 4.14959e-19)
(0.357181 0.435226 5.42919e-19)
(0.345349 0.420809 3.59693e-19)
(0.334276 0.407317 6.15915e-19)
(0.323891 0.394662 5.76655e-19)
(0.314131 0.38277 2.49346e-19)
(0.304943 0.371574 1.64156e-19)
(0.296276 0.361013 5.92114e-20)
(0.288088 0.351036 6.47126e-19)
(0.280341 0.341596 -1.75938e-19)
(0.272999 0.33265 1.39526e-19)
(0.266032 0.324161 6.49794e-19)
(0.259411 0.316094 -2.99371e-19)
(0.253113 0.308419 -1.35251e-18)
(0.247114 0.301109 -2.507e-18)
(0.88557 1.16987 1.43842e-19)
(0.813137 1.07419 -3.55155e-19)
(0.75162 0.992919 -5.07251e-20)
(0.698745 0.923069 -1.77936e-19)
(0.652811 0.862388 -4.55483e-19)
(0.612536 0.809184 -6.44817e-19)
(0.576937 0.762156 -3.87985e-19)
(0.545244 0.720289 -5.55433e-20)
(0.516849 0.682778 -5.98894e-20)
(0.491263 0.648978 4.94626e-20)
(0.468089 0.618364 2.48241e-19)
(0.447002 0.590506 1.30333e-19)
(0.427731 0.565049 1.61842e-19)
(0.410052 0.541695 -1.44267e-19)
(0.393776 0.520194 1.36665e-19)
(0.378742 0.500333 1.01298e-19)
(0.364814 0.481933 5.9234e-19)
(0.351873 0.464838 1.04491e-18)
(0.339818 0.448913 5.56458e-19)
(0.328562 0.434043 2.63972e-19)
(0.318027 0.420126 7.84125e-19)
(0.308147 0.407074 7.33527e-19)
(0.298862 0.394808 9.00058e-19)
(0.29012 0.383259 8.76066e-19)
(0.281874 0.372367 7.41451e-19)
(0.274084 0.362076 5.52157e-19)
(0.266714 0.352339 -5.13923e-19)
(0.259729 0.343112 6.14636e-19)
(0.2531 0.334355 8.41127e-19)
(0.246801 0.326034 4.39196e-19)
(0.240809 0.318118 1.1148e-18)
(0.235102 0.310579 2.74991e-18)
(0.838959 1.20374 7.26432e-19)
(0.770338 1.10528 2.04521e-20)
(0.712059 1.02166 -3.90116e-19)
(0.661967 0.94979 -3.87451e-20)
(0.61845 0.887353 -1.34055e-19)
(0.580295 0.832608 -7.37071e-19)
(0.54657 0.784219 -4.80899e-19)
(0.516546 0.74114 -4.779e-19)
(0.489645 0.702543 -5.47469e-19)
(0.465406 0.667764 -6.49981e-19)
(0.443452 0.636264 -8.59965e-20)
(0.423474 0.6076 -3.92175e-19)
(0.405218 0.581406 -4.78237e-19)
(0.388469 0.557376 -2.28449e-19)
(0.37305 0.535252 4.15753e-19)
(0.358807 0.514817 2.70984e-19)
(0.345612 0.495884 1.16264e-18)
(0.333352 0.478294 7.93689e-19)
(0.321932 0.461908 3.48461e-19)
(0.311268 0.446608 8.4354e-20)
(0.301288 0.432288 7.11034e-19)
(0.291928 0.418858 5.43626e-19)
(0.283131 0.406237 7.50996e-19)
(0.274849 0.394354 6.54778e-19)
(0.267038 0.383146 3.91739e-19)
(0.259658 0.372557 -4.89634e-20)
(0.252675 0.362538 3.68033e-19)
(0.246058 0.353044 6.72904e-19)
(0.239778 0.344034 1.25733e-19)
(0.233811 0.335472 -2.68645e-19)
(0.228134 0.327327 -2.30132e-19)
(0.222727 0.319569 -6.03419e-19)
(0.791053 1.23575 1.13783e-18)
(0.726351 1.13467 3.39039e-19)
(0.671399 1.04883 -2.90134e-19)
(0.624168 0.975047 -4.38444e-19)
(0.583136 0.910949 2.01409e-19)
(0.54716 0.854748 -2.52187e-19)
(0.51536 0.805072 -4.62618e-19)
(0.48705 0.760848 -8.6291e-19)
(0.461686 0.721225 -1.97841e-19)
(0.438831 0.685521 -9.07984e-20)
(0.41813 0.653184 -2.52908e-19)
(0.399293 0.623757 -1.83702e-19)
(0.382079 0.596867 -3.19443e-20)
(0.366287 0.572197 2.52646e-19)
(0.351749 0.549485 4.97032e-19)
(0.338319 0.528507 3.0489e-19)
(0.325877 0.50907 1.45646e-19)
(0.314317 0.491012 6.63619e-19)
(0.303549 0.474191 9.69867e-19)
(0.293494 0.458484 7.59817e-19)
(0.284084 0.443783 7.31214e-19)
(0.275258 0.429996 8.45778e-19)
(0.266964 0.417039 1.10854e-18)
(0.259155 0.40484 7.45858e-19)
(0.25179 0.393334 4.01579e-19)
(0.244831 0.382464 -6.75362e-20)
(0.238247 0.372179 2.57373e-19)
(0.232008 0.362432 2.49241e-19)
(0.226087 0.353182 -9.22028e-19)
(0.22046 0.344393 -8.20097e-19)
(0.215108 0.336031 -1.71124e-18)
(0.210009 0.328067 -3.3114e-18)
(0.741928 1.26585 1.24253e-19)
(0.681244 1.16231 2.23574e-20)
(0.629705 1.07438 3.31776e-19)
(0.585407 0.9988 2.60905e-19)
(0.546923 0.93314 2.18124e-19)
(0.513181 0.875571 1.42691e-19)
(0.483356 0.824685 -3.50394e-19)
(0.456804 0.779383 -2.14812e-19)
(0.433015 0.738795 4.56364e-19)
(0.411579 0.702221 -2.04443e-19)
(0.392164 0.669096 -1.48854e-19)
(0.374497 0.638953 -4.91864e-19)
(0.358352 0.611407 -1.64917e-19)
(0.343541 0.586137 2.87549e-19)
(0.329905 0.562871 4.50672e-20)
(0.317309 0.541382 3.11852e-19)
(0.30564 0.521472 -6.55429e-19)
(0.294798 0.502974 -2.61995e-19)
(0.284699 0.485743 1.7751e-19)
(0.275268 0.469653 1.27793e-19)
(0.266442 0.454594 -5.41953e-19)
(0.258164 0.440471 -1.92136e-19)
(0.250385 0.427199 3.12508e-19)
(0.243061 0.414702 -2.89856e-19)
(0.236153 0.402916 -4.50449e-19)
(0.229627 0.391782 -5.03205e-19)
(0.223452 0.381245 -3.31432e-19)
(0.2176 0.371261 -1.0941e-18)
(0.212047 0.361786 -1.32497e-18)
(0.20677 0.352783 -1.34523e-18)
(0.201749 0.344217 -1.27018e-18)
(0.196968 0.336059 -2.94811e-18)
(0.691659 1.294 -8.23777e-19)
(0.635087 1.18816 -9.93638e-21)
(0.587039 1.09827 3.28889e-19)
(0.545743 1.02101 -5.86414e-20)
(0.509866 0.953893 2.4798e-19)
(0.47841 0.895043 1.64511e-19)
(0.450606 0.843025 -1.38135e-19)
(0.425853 0.796716 -5.45733e-20)
(0.403676 0.755225 2.32179e-19)
(0.383693 0.717838 -3.36912e-19)
(0.365593 0.683976 -2.02781e-19)
(0.349123 0.653163 2.89325e-20)
(0.334072 0.625004 4.14528e-20)
(0.320264 0.599172 3.44984e-21)
(0.307552 0.575389 4.67621e-20)
(0.29581 0.553422 -3.21611e-19)
(0.284931 0.533069 -4.89782e-19)
(0.274824 0.51416 -2.57087e-19)
(0.265409 0.496545 1.03522e-20)
(0.256618 0.480098 -1.39264e-19)
(0.24839 0.464704 -9.85309e-20)
(0.240673 0.450267 -4.18168e-19)
(0.233421 0.436699 -2.74232e-19)
(0.226593 0.423925 -3.96113e-19)
(0.220153 0.411877 -3.56119e-19)
(0.214069 0.400495 -8.15256e-19)
(0.208312 0.389724 -6.67783e-19)
(0.202857 0.379518 -6.04405e-19)
(0.197679 0.369832 -4.11081e-19)
(0.19276 0.360629 -2.96865e-19)
(0.18808 0.351872 1.30347e-18)
(0.183622 0.343533 2.92729e-18)
(0.640324 1.32016 -3.07039e-19)
(0.58795 1.21218 1.32902e-19)
(0.543469 1.12047 3.623e-19)
(0.505237 1.04165 2.52861e-19)
(0.472024 0.973175 4.13881e-19)
(0.442902 0.913135 2.79673e-19)
(0.417162 0.860066 9.39336e-20)
(0.394246 0.812821 1.92661e-19)
(0.373715 0.770491 8.4864e-20)
(0.355215 0.732349 -6.18357e-20)