/*--------------------------------*- C++ -*----------------------------------*\
| =========                 |                                                 |
| \\      /  F ield         | foam-extend: Open Source CFD                    |
|  \\    /   O peration     | Version:  3.0                                   |
|   \\  /    A nd           | Web:         http://www.extend-project.de       |
|    \\/     M anipulation  |                                                 |
\*---------------------------------------------------------------------------*/
FoamFile
{
    version     2.0;
    format      ascii;
    class       volSymmTensorField;
    location    "1.5";
    object      sigma;
}
// * * * * * * * * * * * * * * * * * * * * * * * * * * * * * * * * * * * * * //

dimensions      [0 0 0 0 0 0 0];

internalField   nonuniform List<symmTensor> 
400
(
(0.0152901 -0.0095808 5.31973e-317 -0.0137592 6.91452e-317 -0.00153094)
(0.0361142 -0.00735409 5.7741e-317 -0.0201595 7.41542e-317 -0.0159547)
(0.0459738 -0.00371279 5.46274e-317 -0.0222099 6.56423e-317 -0.0237639)
(0.0501383 -0.00295996 5.02495e-317 -0.02309 5.66645e-317 -0.0270483)
(0.0484391 -0.00286935 4.31988e-317 -0.0213627 4.38774e-317 -0.0270764)
(0.0435493 -0.00428654 3.60807e-317 -0.0188928 3.62194e-317 -0.0246566)
(0.0360246 -0.00588804 2.9263e-317 -0.0151232 2.63982e-317 -0.0209014)
(0.0269319 -0.00763778 2.34142e-317 -0.0110421 2.23479e-317 -0.0158898)
(0.0169461 -0.00892422 1.8716e-317 -0.00638105 1.59901e-317 -0.0105651)
(0.00625197 -0.00967684 1.52055e-317 -0.00165739 1.49678e-317 -0.00459458)
(-0.00449683 -0.00971678 1.27875e-317 0.00330571 1.10799e-317 0.00119112)
(-0.0153821 -0.00904621 1.1305e-317 0.00814366 1.19632e-317 0.00723843)
(-0.0257449 -0.00781447 1.05719e-317 0.0130108 9.45733e-318 0.012734)
(-0.0353265 -0.00609967 1.03818e-317 0.0173784 1.12422e-317 0.0179481)
(-0.043431 -0.00449416 1.05049e-317 0.0214517 9.17052e-318 0.0219793)
(-0.0488438 -0.00306465 1.05651e-317 0.0241976 1.08606e-317 0.0246463)
(-0.050958 -0.00311209 1.03433e-317 0.0260748 8.16347e-318 0.0248832)
(-0.0469334 -0.00388964 8.35922e-318 0.0251318 8.22357e-318 0.0218017)
(-0.0368714 -0.00751467 6.00281e-318 0.022666 3.87634e-318 0.0142054)
(-0.0155199 -0.00966612 -2.22212e-318 0.0153889 -7.60604e-319 0.000131038)
(0.0198596 -0.00682654 1.70653e-317 -0.0324155 3.21766e-317 0.0125559)
(0.0399292 -0.00302783 2.3562e-317 -0.0363203 4.44678e-317 -0.00360896)
(0.0493716 0.00142224 2.81463e-317 -0.0373263 4.40923e-317 -0.0120453)
(0.051716 0.00433684 2.97493e-317 -0.0359632 4.06135e-317 -0.0157528)
(0.0494249 0.00659093 2.8982e-317 -0.0326316 3.32667e-317 -0.0167932)
(0.0439768 0.00749897 2.66877e-317 -0.0281861 2.82672e-317 -0.0157907)
(0.0363794 0.00797166 2.36195e-317 -0.0224992 2.16829e-317 -0.0138802)
(0.0271893 0.00787517 2.04043e-317 -0.0162697 1.85655e-317 -0.0109197)
(0.0171829 0.00781352 1.74559e-317 -0.00937277 1.41457e-317 -0.0078101)
(0.00638379 0.00776485 1.50223e-317 -0.00227026 1.31e-317 -0.00411353)
(-0.00444278 0.00793318 1.32147e-317 0.00509844 1.04788e-317 -0.00065566)
(-0.0154314 0.00829708 1.20543e-317 0.0123652 1.09125e-317 0.00306621)
(-0.0258107 0.00863207 1.15037e-317 0.019559 9.47713e-318 0.00625171)
(-0.0354779 0.00892619 1.14916e-317 0.0261895 1.08642e-317 0.00928843)
(-0.043644 0.00853138 1.19253e-317 0.0322991 1.02247e-317 0.0113449)
(-0.0495868 0.00757412 1.26862e-317 0.0370927 1.23304e-317 0.0124941)
(-0.0523151 0.0051066 1.36717e-317 0.0406063 1.24291e-317 0.0117088)
(-0.0501202 0.00184599 1.4538e-317 0.0417666 1.523e-317 0.00835365)
(-0.0406691 -0.00300857 1.55319e-317 0.0401077 1.60262e-317 0.000561393)
(-0.0202357 -0.00717472 1.45019e-317 0.0346681 1.70808e-317 -0.0144324)
(0.0212078 -0.00796321 2.31542e-317 -0.0400647 2.72035e-317 0.0188569)
(0.0437742 -0.00173841 2.37232e-317 -0.0464547 3.13091e-317 0.00268054)
(0.0535524 0.00479482 2.41958e-317 -0.0474944 3.12265e-317 -0.00605802)
(0.0554975 0.0103226 2.42645e-317 -0.0453187 2.90496e-317 -0.0101788)
(0.0522405 0.0149473 2.3235e-317 -0.040479 2.51457e-317 -0.0117614)
(0.0458323 0.017842 2.15928e-317 -0.034374 2.15239e-317 -0.0114583)
(0.0375358 0.0199678 1.95445e-317 -0.0271783 1.76404e-317 -0.0103574)
(0.027856 0.0210143 1.74349e-317 -0.0195305 1.48886e-317 -0.00832555)
(0.0177065 0.0218096 1.55071e-317 -0.0115188 1.22404e-317 -0.00618768)
(0.00681835 0.0222419 1.39458e-317 -0.00328817 1.08025e-317 -0.00353018)
(-0.00394786 0.0226203 1.28701e-317 0.00505752 9.38302e-318 -0.00110966)
(-0.0150892 0.0228874 1.23522e-317 0.0135436 9.01637e-318 0.00154561)
(-0.0257252 0.0227099 1.2439e-317 0.0220211 8.49215e-318 0.00370407)
(-0.0360765 0.0221083 1.31648e-317 0.0303337 8.85594e-318 0.00574279)
(-0.0451778 0.0201685 1.45789e-317 0.0382709 8.92303e-318 0.00690691)
(-0.0523663 0.0171912 1.66993e-317 0.0450802 9.77748e-318 0.00728613)
(-0.0563384 0.0121086 1.96779e-317 0.0504353 1.03377e-317 0.00590319)
(-0.0547246 0.00588946 2.31601e-317 0.0526043 1.19071e-317 0.00212023)
(-0.0449755 -0.00150451 2.7765e-317 0.0509373 1.44605e-317 -0.00596186)
(-0.0217774 -0.00851201 3.13168e-317 0.0427593 2.16057e-317 -0.0209819)
(0.0226191 -0.00675529 9.78225e-318 -0.0469458 1.58545e-317 0.0243267)
(0.0462655 0.00202499 1.16597e-317 -0.0537026 2.04093e-317 0.00743708)
(0.0554269 0.0105813 1.42809e-317 -0.0535057 2.11448e-317 -0.00192121)
(0.0563314 0.0173324 1.58991e-317 -0.0497521 2.03262e-317 -0.00657927)
(0.0520378 0.0228443 1.66047e-317 -0.0433895 1.82046e-317 -0.00864821)
(0.0448488 0.0261462 1.64065e-317 -0.036025 1.6092e-317 -0.00882382)
(0.0363292 0.0285944 1.56352e-317 -0.0281359 1.36698e-317 -0.00819331)
(0.0267477 0.0297712 1.45842e-317 -0.0200935 1.18734e-317 -0.00665421)
(0.0171721 0.0307454 1.35149e-317 -0.0121634 1.0089e-317 -0.00500867)
(0.00694562 0.0313328 1.26236e-317 -0.00407848 9.05658e-318 -0.00286714)
(-0.00296859 0.0319307 1.20424e-317 0.00392957 8.03928e-318 -0.000960979)
(-0.0135083 0.0324577 1.18497e-317 0.0123471 7.71442e-318 0.00116119)
(-0.0236711 0.0324942 1.2079e-317 0.0208815 7.32412e-318 0.00278958)
(-0.0341314 0.0321002 1.27215e-317 0.0298459 7.55382e-318 0.00428551)
(-0.043707 0.0300463 1.37244e-317 0.0387998 7.68431e-318 0.00490719)
(-0.0520267 0.0267585 1.49935e-317 0.0473009 8.47573e-318 0.00472575)
(-0.0573783 0.0206003 1.63334e-317 0.0546297 9.34609e-318 0.00274857)
(-0.0570435 0.0128039 1.75968e-317 0.0587421 1.12567e-317 -0.00169862)
(-0.0479763 0.0027236 1.83406e-317 0.0585372 1.39264e-317 -0.0105609)
(-0.0233374 -0.00761098 1.86798e-317 0.0497851 1.78392e-317 -0.0264477)
(0.0247997 -0.00521845 2.31878e-317 -0.0552151 2.00522e-317 0.0304154)
(0.0499638 0.0058562 2.04097e-317 -0.0619287 1.70648e-317 0.0119649)
(0.0585521 0.0160899 1.84927e-317 -0.0601085 1.57119e-317 0.00155637)
(0.0582825 0.0233485 1.73771e-317 -0.0544351 1.45607e-317 -0.00384737)
(0.0527317 0.0289685 1.62834e-317 -0.0462906 1.31756e-317 -0.00644113)
(0.0445678 0.0317845 1.52597e-317 -0.0375224 1.17758e-317 -0.00704533)
(0.03567 0.0337558 1.42135e-317 -0.0289307 1.03237e-317 -0.0067393)
(0.026073 0.034378 1.32278e-317 -0.0205525 9.09461e-318 -0.00552051)
(0.0170304 0.0350459 1.23893e-317 -0.0128871 7.98741e-318 -0.00414323)
(0.00742476 0.0355132 1.17931e-317 -0.00512313 7.19891e-318 -0.00230162)
(-0.0016305 0.0363133 1.15206e-317 0.00230165 6.5644e-318 -0.000671154)
(-0.0116319 0.037321 1.16389e-317 0.0105043 6.24283e-318 0.00112755)
(-0.0213921 0.0380708 1.22007e-317 0.018962 6.05626e-318 0.00243005)
(-0.0321728 0.0386096 1.32485e-317 0.0286415 6.17441e-318 0.0035313)
(-0.0424978 0.0373528 1.48289e-317 0.0387909 6.4575e-318 0.00370687)
(-0.0523722 0.0347908 1.69561e-317 0.0494196 7.15422e-318 0.00295257)
(-0.0595826 0.0284456 1.97346e-317 0.0593497 8.27996e-318 0.00023294)
(-0.0609555 0.0198692 2.29315e-317 0.0662002 1.03849e-317 -0.00524465)
(-0.0527395 0.00731364 2.69174e-317 0.0683388 1.42721e-317 -0.0155992)
(-0.0260854 -0.00622837 3.06638e-317 0.059835 2.23891e-317 -0.0337496)
(0.0263848 -0.0020478 1.41391e-317 -0.0643491 1.52284e-317 0.0379643)
(0.0518622 0.0113198 1.37805e-317 -0.0691484 1.36881e-317 0.0172862)
(0.0590264 0.0227215 1.41031e-317 -0.0643822 1.21968e-317 0.00535581)
(0.0569607 0.0292389 1.40871e-317 -0.0559056 1.10009e-317 -0.00105512)
(0.0501605 0.0337224 1.38779e-317 -0.0458542 9.86851e-318 -0.00430629)
(0.0412285 0.0347605 1.33728e-317 -0.0358626 8.84141e-318 -0.00536591)
(0.0324977 0.035207 1.27192e-317 -0.0271301 7.84932e-318 -0.00536762)
(0.0234998 0.0344462 1.20373e-317 -0.0191008 7.00535e-318 -0.00439906)
(0.0157134 0.0342646 1.14527e-317 -0.0124998 6.25282e-318 -0.00321359)
(0.00748386 0.0343351 1.10663e-317 -0.00591785 5.68835e-318 -0.00156601)
(8.28869e-05 0.0353549 1.09543e-317 3.26395e-05 5.2351e-318 -0.000115526)
(-0.00856706 0.0371512 1.11672e-317 0.00710005 4.97662e-318 0.00146701)
(-0.0170773 0.0392469 1.17263e-317 0.0145516 4.83863e-318 0.00252574)
(-0.0274423 0.0416923 1.26207e-317 0.0241443 4.92452e-318 0.00329802)
(-0.0378163 0.0424866 1.37975e-317 0.0347804 5.20877e-318 0.0030359)
(-0.0490079 0.0422192 1.51604e-317 0.047365 5.88785e-318 0.00164292)
(-0.0580604 0.0371344 1.65068e-317 0.060079 7.0948e-318 -0.00201859)
(-0.0619564 0.0292048 1.77379e-317 0.070871 9.27035e-318 -0.00891462)
(-0.0556129 0.0145043 1.83745e-317 0.0770226 1.27788e-317 -0.0214097)
(-0.0282427 -0.00256138 1.88797e-317 0.070893 1.77368e-317 -0.0426503)
(0.0288828 0.00418288 2.50551e-317 -0.0760246 1.94187e-317 0.0471418)
(0.0537642 0.0182993 2.1488e-317 -0.076657 1.31412e-317 0.0228928)
(0.0587086 0.0293156 1.84787e-317 -0.0675535 1.01644e-317 0.00884499)
(0.0541986 0.0334085 1.64779e-317 -0.0553676 8.50326e-318 0.00116908)
(0.0460939 0.0353449 1.48212e-317 -0.0432827 7.40765e-318 -0.00281112)
(0.0364866 0.0335526 1.35374e-317 -0.0321649 6.58692e-318 -0.0043217)
(0.0282505 0.0316372 1.24693e-317 -0.0236871 5.89488e-318 -0.00456341)
(0.0201862 0.0289608 1.16178e-317 -0.0164177 5.31207e-318 -0.00376844)
(0.01405 0.0275227 1.09969e-317 -0.0113792 4.80489e-318 -0.00267083)
(0.00756963 0.0269532 1.06457e-317 -0.006447 4.39993e-318 -0.00112263)
(0.00224558 0.0280885 1.06058e-317 -0.00249888 4.07959e-318 0.0002533)
(-0.00464506 0.0306727 1.09169e-317 0.00293688 3.87925e-318 0.00170818)
(-0.0114185 0.0343983 1.1611e-317 0.00881283 3.79774e-318 0.00260562)
(-0.0209832 0.0392044 1.27152e-317 0.017882 3.90194e-318 0.0031012)
(-0.0310022 0.0430132 1.42639e-317 0.0285881 4.24724e-318 0.00241407)
(-0.043536 0.0463411 1.62663e-317 0.0432172 4.99697e-318 0.000318763)
(-0.0546651 0.0443361 1.88296e-317 0.0591523 6.36999e-318 -0.00448719)
(-0.0622116 0.0392712 2.17737e-317 0.0754627 8.80218e-318 -0.0132511)
(-0.0590066 0.0242649 2.55036e-317 0.0878417 1.31148e-317 -0.0288351)
(-0.0319585 0.005529 2.90927e-317 0.0871115 2.12773e-317 -0.055153)
(0.0301178 0.0149395 1.70473e-317 -0.0877329 1.60428e-317 0.0576151)
(0.0520828 0.0278474 1.61107e-317 -0.0811269 1.17683e-317 0.0290441)
(0.0542639 0.0364436 1.5554e-317 -0.0667468 8.82656e-318 0.0124829)
(0.0469873 0.036188 1.4696e-317 -0.0503838 7.0177e-318 0.00339649)
(0.0381687 0.0340906 1.38153e-317 -0.0368281 5.86844e-318 -0.00134064)
(0.0284741 0.0284207 1.28625e-317 -0.0252037 5.09522e-318 -0.00327042)
(0.0214848 0.023403 1.1959e-317 -0.0177717 4.52042e-318 -0.0037131)
(0.0150426 0.0183516 1.1179e-317 -0.0120067 4.06677e-318 -0.00303595)
(0.0111626 0.015357 1.05975e-317 -0.00918271 3.68442e-318 -0.0019799)
(0.00706704 0.0139796 1.02707e-317 -0.00659455 3.36792e-318 -0.00047249)
(0.00440386 0.0151886 1.02439e-317 -0.00528611 3.10837e-318 0.000882242)
(1.3609e-05 0.01862 1.05478e-317 -0.00228639 2.92699e-318 0.00227278)
(-0.00420107 0.0242675 1.11951e-317 0.00112903 2.84093e-318 0.00307204)
(-0.0119881 0.0319448 1.2178e-317 0.0086351 2.91121e-318 0.00335302)
(-0.0204972 0.0397438 1.34546e-317 0.0182046 3.22124e-318 0.00229262)
(-0.0334953 0.0481185 1.49482e-317 0.0339961 3.94059e-318 -0.00050073)
(-0.0457527 0.0512407 1.64808e-317 0.0522927 5.32666e-318 -0.00653994)
(-0.0574437 0.0517268 1.79596e-317 0.0749349 7.80981e-318 -0.0174912)
(-0.0580328 0.0388834 1.88783e-317 0.0949182 1.19007e-317 -0.0368854)
(-0.0342959 0.0208084 1.96611e-317 0.103868 1.7843e-317 -0.0695718)
(0.0315831 0.031324 2.53703e-317 -0.0998729 1.90018e-317 0.0682898)
(0.0485905 0.0389865 2.19256e-317 -0.0828983 1.16001e-317 0.0343078)
(0.0475921 0.041846 1.88e-317 -0.0626471 7.8231e-318 0.015055)
(0.0373227 0.0352542 1.65882e-317 -0.0419592 5.75795e-318 0.00463644)
(0.028286 0.0276743 1.47085e-317 -0.0275806 4.59715e-318 -0.000705457)
(0.0189568 0.0176601 1.32246e-317 -0.0160359 3.90442e-318 -0.0029209)
(0.0137159 0.00917038 1.20056e-317 -0.0102755 3.44261e-318 -0.00344038)
(0.00928632 0.00174678 1.10543e-317 -0.00650054 3.0955e-318 -0.00278578)
(0.00796927 -0.00290264 1.03781e-317 -0.00628935 2.8023e-318 -0.00167992)
(0.00652175 -0.00518085 1.00012e-317 -0.00638612 2.5437e-318 -0.000135626)
(0.00677478 -0.00409243 9.95191e-318 -0.00805345 2.3172e-318 0.00127867)
(0.00520365 -0.000161202 1.02556e-317 -0.00788866 2.13942e-318 0.00268502)
(0.00399376 0.00717928 1.09362e-317 -0.00746735 2.04171e-318 0.00347358)
(-0.00147596 0.0173804 1.20162e-317 -0.0021634 2.08963e-318 0.00363936)
(-0.00771815 0.0295075 1.35284e-317 0.00540454 2.38789e-318 0.00231361)
(-0.0206494 0.0434753 1.54913e-317 0.0217114 3.12212e-318 -0.00106202)
(-0.0334109 0.0538631 1.80205e-317 0.0416748 4.58326e-318 -0.00826387)
(-0.0499759 0.0629303 2.09653e-317 0.071466 7.2457e-318 -0.0214902)
(-0.0552356 0.056997 2.47392e-317 0.100538 1.19473e-317 -0.0453025)
(-0.0377164 0.0454456 2.83399e-317 0.124159 2.04857e-317 -0.0864429)
(0.0303286 0.0527451 1.84345e-317 -0.107014 1.63347e-317 0.0766856)
(0.0398182 0.0514293 1.74267e-317 -0.0776991 1.07401e-317 0.0378809)
(0.0365004 0.0453723 1.66413e-317 -0.0530115 7.0897e-318 0.0165112)
(0.0239817 0.0309371 1.54628e-317 -0.029195 4.97237e-318 0.00521331)
(0.0159281 0.0168332 1.4238e-317 -0.0155108 3.785e-318 -0.000417315)
(0.00786614 0.00222212 1.29789e-317 -0.00515372 3.11252e-318 -0.00271242)
(0.0049365 -0.00987563 1.18245e-317 -0.00175076 2.69844e-318 -0.00318573)
(0.00293786 -0.0195943 1.08559e-317 -0.000468819 2.40119e-318 -0.00246904)
(0.00423733 -0.0258615 1.0137e-317 -0.00297806 2.14763e-318 -0.00125927)
(0.00553985 -0.0290421 9.71175e-318 -0.00591309 1.90875e-318 0.000373244)
(0.00859956 -0.0281495 9.61293e-318 -0.0104973 1.67964e-318 0.00189772)
(0.0100247 -0.0239144 9.86241e-318 -0.0134086 1.47372e-318 0.00338398)
(0.0119952 -0.015032 1.04727e-317 -0.0162479 1.32288e-318 0.0042527)
(0.00955731 -0.00251793 1.14447e-317 -0.0139844 1.29107e-318 0.00442707)
(0.00657397 0.0141813 1.27626e-317 -0.00960503 1.4879e-318 0.00303106)
(-0.0048236 0.0342166 1.43838e-317 0.00548643 2.10999e-318 -0.00066283)
(-0.0160484 0.0536759 1.61793e-317 0.024687 3.48066e-318 -0.00863861)
(-0.036478 0.0739691 1.80695e-317 0.0601813 6.12909e-318 -0.0237034)
(-0.0449597 0.0797133 1.95406e-317 0.0964825 1.076e-317 -0.0515229)
(-0.0376392 0.0802561 2.08546e-317 0.138681 1.7993e-317 -0.101041)
(0.0279544 0.0759604 2.48644e-317 -0.107691 1.82593e-317 0.0797368)
(0.028708 0.0614195 2.18288e-317 -0.0664235 1.03919e-317 0.0377155)
(0.0235882 0.0430834 1.89865e-317 -0.0392109 6.30148e-318 0.0156227)
(0.00957031 0.0205355 1.68534e-317 -0.0138998 4.14011e-318 0.00432951)
(0.00318659 -0.000462572 1.49149e-317 -0.00212471 3.03543e-318 -0.00106188)
(-0.00304315 -0.0189191 1.32782e-317 0.00618856 2.4625e-318 -0.00314541)
(-0.00342238 -0.0341776 1.1878e-317 0.00682411 2.13161e-318 -0.00340173)
(-0.00286861 -0.0455574 1.07518e-317 0.00539471 1.88995e-318 -0.0025261)
(0.000938025 -0.0531324 9.92266e-318 0.00020749 1.66598e-318 -0.00114552)
(0.00484232 -0.0570803 9.41519e-318 -0.00546769 1.43251e-318 0.00062537)
(0.0104669 -0.0565665 9.25015e-318 -0.0127763 1.18563e-318 0.00230938)
(0.0147494 -0.0525577 9.44457e-318 -0.0186859 9.40983e-319 0.00393648)
(0.0198128 -0.0428559 1.00172e-317 -0.0247806 7.30002e-319 0.00496785)
(0.020607 -0.0292242 1.09891e-317 -0.0258953 6.17108e-319 0.00528826)
(0.021287 -0.0087602 1.24018e-317 -0.0253292 7.17586e-319 0.00404216)
(0.0121672 0.016052 1.42962e-317 -0.0125873 1.23626e-318 0.000420149)
(0.00351274 0.045408 1.68211e-317 0.00417112 2.52597e-318 -0.00768386)
(-0.0202591 0.0778072 1.98846e-317 0.0438015 5.17998e-318 -0.0235424)
(-0.031546 0.101191 2.39553e-317 0.0854749 1.02023e-317 -0.0539289)
(-0.0371564 0.121546 2.79111e-317 0.147874 1.95769e-317 -0.110718)
(0.020586 0.0963776 1.91101e-317 -0.0937328 1.60904e-317 0.0731469)
(0.0129351 0.0675474 1.82712e-317 -0.0456898 9.56304e-318 0.0327547)
(0.00797573 0.0356231 1.75423e-317 -0.0204041 5.64275e-318 0.0124284)
(-0.00540077 0.0054347 1.62156e-317 0.00300223 3.57391e-318 0.00239854)
(-0.00911879 -0.0222544 1.47266e-317 0.0112569 2.55631e-318 -0.00213808)
(-0.0126185 -0.0439451 1.31747e-317 0.016332 2.05796e-318 -0.00371353)
(-0.010465 -0.0618842 1.17464e-317 0.0140873 1.7789e-318 -0.0036222)
(-0.00739839 -0.0744608 1.05451e-317 0.00992308 1.56389e-318 -0.00252469)
(-0.00166023 -0.0830208 9.63474e-318 0.00260932 1.34454e-318 -0.000949095)
(0.00434305 -0.087569 9.04931e-318 -0.00532124 1.09663e-318 0.000978188)
(0.0117072 -0.0874503 8.8084e-318 -0.014548 8.16967e-319 0.00284079)
(0.018308 -0.0838977 8.92017e-318 -0.0229511 5.1872e-319 0.00464315)
(0.0257128 -0.0737671 9.39284e-318 -0.0316211 2.28471e-319 0.00590831)
(0.0297469 -0.059655 1.02319e-317 -0.0362483 8.79437e-322 0.00650137)
(0.0340427 -0.0359566 1.14413e-317 -0.0397077 -6.07058e-320 0.00566505)
(0.0286646 -0.00715798 1.30212e-317 -0.0312522 2.42314e-319 0.00258764)
(0.0243945 0.0323904 1.4926e-317 -0.0196903 1.27271e-318 -0.00470417)
(0.000553327 0.0769801 1.71429e-317 0.0190835 3.6923e-318 -0.0196369)
(-0.00982551 0.121373 1.92899e-317 0.0591842 8.52369e-318 -0.0493587)
(-0.0292354 0.164834 2.1472e-317 0.136716 1.71658e-317 -0.107481)
(0.0116444 0.105524 2.4387e-317 -0.0669723 1.72329e-317 0.0553279)
(-0.00288433 0.0637153 2.18832e-317 -0.0194204 8.87644e-318 0.0223047)
(-0.00763913 0.0185217 1.9417e-317 0.000945384 4.82799e-318 0.00669374)
(-0.0189341 -0.0168142 1.7298e-317 0.0196501 2.9418e-318 -0.00071598)
(-0.0197133 -0.0498037 1.51918e-317 0.0235127 2.12679e-318 -0.0037994)
(-0.0200169 -0.0730756 1.3298e-317 0.0246339 1.76732e-318 -0.004617)
(-0.015423 -0.0925152 1.16419e-317 0.019499 1.56131e-318 -0.00407598)
(-0.00999564 -0.105335 1.02918e-317 0.0127183 1.3718e-318 -0.00272269)
(-0.00274054 -0.114257 9.27568e-318 0.00368549 1.14842e-318 -0.000944949)
(0.00489871 -0.119072 8.60707e-318 -0.00603424 8.76986e-319 0.00113554)
(0.0134207 -0.119395 8.28929e-318 -0.0165923 5.6074e-319 0.00317161)
(0.0218248 -0.116663 8.32107e-318 -0.0269813 2.10566e-319 0.00515654)
(0.0310074 -0.106976 8.70586e-318 -0.0376874 -1.50982e-319 0.00667996)
(0.0380457 -0.0937634 9.45308e-318 -0.0456738 -4.79659e-319 0.0076281)
(0.0456932 -0.0686366 1.06012e-317 -0.0530745 -6.84553e-319 0.00738131)
(0.0446115 -0.0386909 1.22057e-317 -0.0498915 -5.82721e-319 0.00527994)
(0.0450468 0.00914433 1.44605e-317 -0.0447759 1.80877e-319 -0.000270907)
(0.022697 0.0620703 1.73755e-317 -0.0104473 2.29477e-318 -0.0122497)
(0.0130829 0.129223 2.16224e-317 0.0241395 7.0304e-318 -0.0372224)
(-0.0202609 0.197009 2.61339e-317 0.109726 1.70105e-317 -0.0894647)
(-0.00342926 0.101128 2.0247e-317 -0.0217641 1.54306e-317 0.0251933)
(-0.0198055 0.0505363 1.95329e-317 0.0123322 7.91755e-318 0.00747328)
(-0.0231263 -0.00496634 1.87088e-317 0.0236158 4.17031e-318 -0.000489456)
(-0.0292617 -0.0437049 1.69846e-317 0.0334527 2.5659e-318 -0.00419097)
(-0.0268918 -0.0805261 1.50267e-317 0.0323461 1.93601e-318 -0.00545427)
(-0.0233689 -0.104445 1.30606e-317 0.0287692 1.67234e-318 -0.00540036)
(-0.0168713 -0.124489 1.13089e-317 0.0212751 1.49861e-318 -0.00440379)
(-0.00953446 -0.13695 9.86968e-318 0.0123508 1.30429e-318 -0.00281631)
(-0.00165905 -0.145752 8.78164e-318 0.00253623 1.05635e-318 -0.000877179)
(0.00675713 -0.150547 8.04999e-318 -0.00807471 7.52739e-319 0.00131758)
(0.0153204 -0.151224 7.66592e-318 -0.0188087 3.98019e-319 0.00348834)
(0.0245306 -0.149379 7.61505e-318 -0.0301571 5.18769e-322 0.00562656)
(0.0341603 -0.140507 7.88451e-318 -0.0415597 -4.24229e-319 0.00739935)
(0.0434664 -0.128729 8.46466e-318 -0.0521928 -8.48128e-319 0.00872637)
(0.0531894 -0.103129 9.35485e-318 -0.0623752 -1.20612e-318 0.00918579)
(0.0572409 -0.073249 1.05661e-317 -0.0656007 -1.35275e-318 0.00835982)
(0.0623923 -0.0186393 1.2118e-317 -0.0677458 -9.71629e-319 0.0053535)
(0.0466161 0.0403493 1.40771e-317 -0.0448948 6.13368e-319 -0.00172132)
(0.041227 0.128237 1.63453e-317 -0.02413 4.68605e-318 -0.017097)
(2.80718e-05 0.216196 1.91917e-317 0.0514065 1.35985e-317 -0.0514346)
(-0.0169089 0.0733531 2.5415e-317 0.0280303 1.59247e-317 -0.0111214)
(-0.0335283 0.0214245 2.29757e-317 0.0426653 6.97774e-318 -0.00913692)
(-0.0362591 -0.0388727 2.02701e-317 0.0441827 3.46141e-318 -0.00792354)
(-0.0360744 -0.0772628 1.76305e-317 0.0436076 2.242e-318 -0.00753323)
(-0.0304461 -0.11472 1.50197e-317 0.0373879 1.84772e-318 -0.00694187)
(-0.0229115 -0.137404 1.27263e-317 0.0289806 1.68467e-318 -0.00606905)
(-0.0147324 -0.156378 1.07957e-317 0.0194151 1.52788e-318 -0.00468272)
(-0.00585396 -0.167551 9.26669e-318 0.00878228 1.31264e-318 -0.00292833)
(0.00216211 -0.175502 8.12886e-318 -0.00126716 1.03217e-318 -0.000894955)
(0.0108014 -0.179868 7.3606e-318 -0.0121486 6.9438e-319 0.00134723)
(0.0188261 -0.180783 6.93131e-318 -0.022409 3.08416e-319 0.00358293)
(0.0282379 -0.17982 6.8147e-318 -0.0340464 -1.19213e-319 0.00580851)
(0.0376828 -0.172435 6.9868e-318 -0.0454437 -5.79919e-319 0.0077609)
(0.0487757 -0.162926 7.42786e-318 -0.0581865 -1.0594e-318 0.00941076)
(0.0600348 -0.139155 8.14352e-318 -0.0705643 -1.5148e-318 0.0105295)
(0.069437 -0.112328 9.15683e-318 -0.08046 -1.83675e-318 0.011023)
(0.0789496 -0.0560135 1.06471e-317 -0.0897933 -1.7698e-318 0.0108437)
(0.0711828 0.00137172 1.26739e-317 -0.0809876 -7.2098e-319 0.00980484)
(0.0676963 0.10321 1.61259e-317 -0.0750483 2.63017e-318 0.00735199)
(0.017078 0.200843 2.046e-317 -0.0157778 1.13215e-317 -0.00130023)
(-0.0348994 0.0317696 2.32671e-317 0.0834485 1.45084e-317 -0.0485491)
(-0.0427862 -0.0188262 2.1723e-317 0.0666345 6.32469e-318 -0.0238484)
(-0.04457 -0.0787852 1.97215e-317 0.0583404 3.24685e-318 -0.0137704)
(-0.0355504 -0.115498 1.69716e-317 0.0453728 2.32724e-318 -0.00982239)
(-0.0272528 -0.151281 1.42774e-317 0.0350132 2.02722e-318 -0.00776032)
(-0.0160583 -0.171667 1.18896e-317 0.0223521 1.85506e-318 -0.00629386)
(-0.00717881 -0.188467 9.92439e-318 0.0118546 1.64751e-318 -0.00467583)
(0.00232599 -0.197756 8.39554e-318 0.000542899 1.37626e-318 -0.00286889)
(0.00957248 -0.204402 7.27154e-318 -0.00872355 1.04835e-318 -0.000848931)
(0.0175251 -0.208048 6.5099e-318 -0.0188664 6.76386e-319 0.00134135)
(0.0241006 -0.20907 6.06825e-318 -0.0276398 2.68871e-319 0.00353919)
(0.0326571 -0.208864 5.90641e-318 -0.0384064 -1.70542e-319 0.00574925)
(0.0406184 -0.203204 5.98707e-318 -0.0483909 -6.42715e-319 0.00777252)
(0.0521268 -0.196155 6.27023e-318 -0.0617479 -1.14419e-318 0.00962113)
(0.0628657 -0.175312 6.72296e-318 -0.0741119 -1.65508e-318 0.0112462)
(0.0768842 -0.152376 7.3082e-318 -0.0897257 -2.11176e-318 0.0128415)
(0.0882986 -0.0971175 8.01897e-318 -0.103537 -2.33188e-318 0.0152385)
(0.0932779 -0.042985 8.897e-318 -0.113464 -1.85151e-318 0.020186)
(0.0925783 0.0672146 9.98874e-318 -0.124869 4.76047e-319 0.0322909)
(0.0486469 0.170535 1.21886e-317 -0.10765 7.04915e-318 0.0590031)
(-0.0453168 -0.0325581 2.78431e-317 0.118934 1.36308e-317 -0.0736172)
(-0.0457932 -0.0750054 2.41211e-317 0.078317 5.22166e-318 -0.0325239)
(-0.0453687 -0.124896 1.98323e-317 0.0620266 2.80484e-318 -0.0166579)
(-0.0285053 -0.156637 1.62012e-317 0.0391221 2.29305e-318 -0.0106168)
(-0.0176114 -0.186371 1.30583e-317 0.0253784 2.11631e-318 -0.00776698)
(-0.00361525 -0.202861 1.05835e-317 0.00966308 1.94328e-318 -0.00604783)
(0.00543324 -0.215964 8.65796e-318 -0.0010371 1.69496e-318 -0.00439615)
(0.0148666 -0.222877 7.21486e-318 -0.0121853 1.38452e-318 -0.00268137)
(0.0209153 -0.227774 6.17494e-318 -0.0201121 1.03159e-318 -0.000803209)
(0.0277154 -0.230471 5.47493e-318 -0.0289255 6.52196e-319 0.00121012)
(0.0325428 -0.231402 5.06007e-318 -0.0357824 2.52784e-319 0.00323962)
(0.0397938 -0.231639 4.88359e-318 -0.0450924 -1.66312e-319 0.0052986)
(0.0459186 -0.227835 4.90314e-318 -0.0531557 -6.0773e-319 0.00723712)
(0.0571837 -0.223176 5.07228e-318 -0.066282 -1.07555e-318 0.00909823)
(0.0669842 -0.207102 5.35249e-318 -0.077931 -1.56163e-318 0.0109468)
(0.0849362 -0.189758 5.69645e-318 -0.0981084 -2.03448e-318 0.0131722)
(0.0982248 -0.142777 6.17387e-318 -0.115448 -2.38306e-318 0.0172231)
(0.115341 -0.10018 6.76735e-318 -0.141829 -2.30719e-318 0.0264886)
(0.116784 0.001127 8.23593e-318 -0.167218 -8.96245e-319 0.0504346)
(0.0669101 0.0865187 1.08589e-317 -0.175182 4.02699e-318 0.108272)
(-0.0498452 -0.10758 2.50327e-317 0.129403 1.42425e-317 -0.0795575)
(-0.035397 -0.142167 2.15761e-317 0.0679026 6.81903e-318 -0.0325056)
(-0.0316961 -0.178265 1.74422e-317 0.0474284 4.22621e-318 -0.0157323)
(-0.00891245 -0.203261 1.38137e-317 0.0184818 3.316e-318 -0.00956937)
(0.00260486 -0.224668 1.08632e-317 0.00416213 2.77702e-318 -0.00676699)
(0.0169361 -0.236286 8.61902e-318 -0.0117628 2.3283e-318 -0.00517331)
(0.0246212 -0.244947 6.93436e-318 -0.0209048 1.89432e-318 -0.00371646)
(0.0326659 -0.249179 5.70373e-318 -0.0304067 1.47061e-318 -0.00225916)
(0.0368604 -0.25221 4.83157e-318 -0.0361811 1.05597e-318 -0.000679318)
(0.0419063 -0.253732 4.24904e-318 -0.042911 6.50022e-319 0.00100469)
(0.0446725 -0.254554 3.90045e-318 -0.0473783 2.48984e-319 0.00270578)
(0.0499539 -0.254811 3.73914e-318 -0.0544006 -1.54163e-319 0.0044468)
(0.053539 -0.252959 3.72216e-318 -0.0596544 -5.66451e-319 0.00611543)
(0.0628664 -0.250143 3.7982e-318 -0.0706329 -9.94238e-319 0.00776648)
(0.069581 -0.239782 3.90604e-318 -0.0790922 -1.43762e-318 0.00951126)
(0.0879583 -0.227661 3.95527e-318 -0.0997321 -1.8793e-318 0.0117737)
(0.0980635 -0.192378 3.84498e-318 -0.11426 -2.24511e-318 0.0161965)
(0.126544 -0.159656 3.49705e-318 -0.153424 -2.35308e-318 0.0268806)
(0.124333 -0.0722524 2.72519e-318 -0.181217 -1.55923e-318 0.0568847)
(0.103345 0.0109086 2.99644e-318 -0.244788 1.18691e-318 0.141444)
(-0.0409392 -0.17437 2.21772e-317 0.0998159 6.11756e-318 -0.0588767)
(-0.00618032 -0.211332 1.77655e-317 0.029567 2.08884e-318 -0.0233867)
(-0.000223549 -0.226236 1.28936e-317 0.0114573 1.53906e-318 -0.0112338)
(0.0224902 -0.242997 9.75771e-318 -0.0156619 1.61186e-318 -0.00682835)
(0.0324925 -0.254434 7.40306e-318 -0.0276904 1.56579e-318 -0.00480211)
(0.0444385 -0.260873 5.7647e-318 -0.0407675 1.41475e-318 -0.00367103)
(0.0498614 -0.265222 4.57958e-318 -0.0472351 1.19846e-318 -0.00262634)
(0.0555387 -0.267351 3.737e-318 -0.0539364 9.52559e-319 -0.00160237)
(0.0577888 -0.26873 3.14693e-318 -0.0572964 6.96573e-319 -0.000492374)
(0.0608242 -0.269576 2.75492e-318 -0.0615116 4.39595e-319 0.000687421)
(0.0618266 -0.269972 2.51963e-318 -0.0637054 1.85235e-319 0.00187881)
(0.0649605 -0.270411 2.40605e-318 -0.0680703 -6.65062e-320 0.00310972)
(0.0664036 -0.269594 2.38327e-318 -0.070703 -3.16602e-319 0.00429943)
(0.0729406 -0.268672 2.41267e-318 -0.078438 -5.66926e-319 0.00549741)
(0.0768779 -0.263229 2.45105e-318 -0.0836716 -8.19482e-319 0.00679363)
(0.0926957 -0.257267 2.43172e-318 -0.10119 -1.07366e-318 0.00849421)
(0.100961 -0.236597 2.33448e-318 -0.112853 -1.3176e-318 0.0118923)
(0.132513 -0.220094 2.06669e-318 -0.152865 -1.52243e-318 0.0203528)
(0.137349 -0.166414 1.9554e-318 -0.183418 -1.47394e-318 0.0460696)
(0.112835 -0.134363 2.53019e-318 -0.241226 -5.20844e-319 0.128391)
(0.0350903 -0.291873 1.28611e-317 -0.0228553 1.97179e-317 -0.0122349)
(0.0375798 -0.285218 1.01797e-317 -0.0296334 1.26203e-317 -0.00794641)
(0.0539217 -0.269325 6.91383e-318 -0.0497185 8.59943e-318 -0.00420325)
(0.0672279 -0.274023 4.90646e-318 -0.0645486 5.99511e-318 -0.00267932)
(0.0728874 -0.272594 3.5236e-318 -0.0709704 4.36977e-318 -0.00191702)
(0.0792029 -0.274908 2.63603e-318 -0.0777162 3.20781e-318 -0.00148665)
(0.0808664 -0.275142 2.03181e-318 -0.0798039 2.34417e-318 -0.00106257)
(0.0833265 -0.275689 1.62063e-318 -0.0826742 1.66635e-318 -0.00065225)
(0.0834881 -0.276106 1.34233e-318 -0.0832833 1.11279e-318 -0.000204775)
(0.0846141 -0.275459 1.1627e-318 -0.0848855 6.40225e-319 0.000271362)
(0.0841357 -0.275974 1.05706e-318 -0.0848844 2.16776e-319 0.000748694)
(0.0852834 -0.274098 1.00779e-318 -0.0865332 -1.80383e-319 0.00124984)
(0.0845462 -0.274686 9.97074e-319 -0.0862791 -5.68808e-319 0.0017329)
(0.0874271 -0.270774 1.00185e-318 -0.0896537 -9.55973e-319 0.00222659)
(0.0869772 -0.271392 9.87148e-319 -0.0897364 -1.33555e-318 0.00275923)
(0.0961607 -0.263669 8.87569e-319 -0.0995944 -1.68053e-318 0.00343368)
(0.0960459 -0.265034 5.92622e-319 -0.100799 -1.89707e-318 0.00475265)
(0.123457 -0.251755 -3.46587e-320 -0.131474 -1.84555e-318 0.0080169)
(0.110931 -0.259783 -1.40561e-318 -0.130015 -1.1722e-318 0.0190839)
(0.129888 -0.211046 -2.33662e-318 -0.196676 2.985e-319 0.0667886)
)
;

boundaryField
{
    cavity
    {
        type            mySigma;
    }
    lid
    {
        type            fixedValue;
        value           uniform (0.1 -0.3 0 -0.1 0 0);
    }
    frontAndBack
    {
        type            empty;
    }
}


// ************************************************************************* //
