/*--------------------------------*- C++ -*----------------------------------*\
| =========                 |                                                 |
| \\      /  F ield         | foam-extend: Open Source CFD                    |
|  \\    /   O peration     | Version:  3.0                                   |
|   \\  /    A nd           | Web:         http://www.extend-project.de       |
|    \\/     M anipulation  |                                                 |
\*---------------------------------------------------------------------------*/
FoamFile
{
    version     2.0;
    format      ascii;
    class       volVectorField;
    location    "1.5";
    object      u;
}
// * * * * * * * * * * * * * * * * * * * * * * * * * * * * * * * * * * * * * //

dimensions      [0 0 0 0 0 0 0];

internalField   nonuniform List<vector> 
400
(
(-0.000506762 -0.0177088 5.70141e-316)
(-0.0617505 0.0326485 5.05659e-316)
(-0.100673 0.0351695 3.76731e-316)
(-0.157091 0.0506848 3.64644e-316)
(-0.204709 0.0438963 2.29427e-316)
(-0.248522 0.0405597 2.51107e-316)
(-0.286826 0.0298856 1.33457e-316)
(-0.314345 0.0202812 1.76347e-316)
(-0.335247 0.00922111 7.50362e-317)
(-0.345358 -0.0018104 1.31274e-316)
(-0.345872 -0.0127516 3.98417e-317)
(-0.338151 -0.024166 1.02965e-316)
(-0.317926 -0.0357546 1.58616e-317)
(-0.291837 -0.0464126 8.11868e-317)
(-0.253291 -0.0579755 -5.35578e-318)
(-0.209325 -0.0626855 5.84421e-317)
(-0.160437 -0.0700374 -2.82086e-317)
(-0.102584 -0.055418 2.5731e-317)
(-0.0621067 -0.0517099 -4.31282e-317)
(3.16964e-05 0.00100014 -2.58911e-317)
(-0.0328295 0.0677886 1.61462e-316)
(-0.0726196 0.0873647 2.18217e-316)
(-0.119103 0.0802903 2.09185e-316)
(-0.154239 0.0860917 2.08327e-316)
(-0.191437 0.0734097 1.75519e-316)
(-0.218919 0.0691613 1.61086e-316)
(-0.24686 0.0533735 1.25128e-316)
(-0.264713 0.0431779 1.13089e-316)
(-0.279985 0.0257619 8.22469e-317)
(-0.286695 0.0127002 7.61936e-317)
(-0.286783 -0.0054091 5.09921e-317)
(-0.281591 -0.0188825 4.96667e-317)
(-0.266363 -0.0370026 2.80433e-317)
(-0.249489 -0.0482112 2.91938e-317)
(-0.221344 -0.0651489 9.08917e-318)
(-0.193951 -0.0703686 1.09883e-317)
(-0.156582 -0.0839987 -8.93101e-318)
(-0.120553 -0.0782156 -8.81201e-318)
(-0.0745314 -0.0851213 -2.87188e-317)
(-0.0328259 -0.0635986 -4.64077e-317)
(-0.0264957 0.0996663 3.21421e-316)
(-0.0755934 0.124983 2.72405e-316)
(-0.127631 0.122404 2.27114e-316)
(-0.169633 0.129171 1.96622e-316)
(-0.21478 0.111446 1.56158e-316)
(-0.245347 0.101184 1.38498e-316)
(-0.278262 0.076177 1.05663e-316)
(-0.296833 0.0558588 9.58127e-317)
(-0.314379 0.0281616 6.91263e-317)
(-0.321411 0.00326492 6.42929e-317)
(-0.322057 -0.0253108 4.12641e-317)
(-0.317589 -0.0509483 3.86261e-317)
(-0.300964 -0.0796377 1.61512e-317)
(-0.284202 -0.101786 1.20731e-317)
(-0.251278 -0.128464 -1.4275e-317)
(-0.221034 -0.1405 -2.60331e-317)
(-0.174974 -0.159717 -6.3474e-317)
(-0.131363 -0.153138 -9.74225e-317)
(-0.0784831 -0.155728 -1.54683e-316)
(-0.0263573 -0.128663 -2.42885e-316)
(-0.0290949 0.17364 3.27608e-317)
(-0.0797644 0.197128 8.913e-317)
(-0.134161 0.182685 1.03479e-316)
(-0.169983 0.18403 1.11464e-316)
(-0.213717 0.155899 1.04371e-316)
(-0.236344 0.140205 9.54881e-317)
(-0.266613 0.107436 8.14585e-317)
(-0.279263 0.0821355 6.973e-317)
(-0.295097 0.0482687 5.56829e-317)
(-0.299923 0.018372 4.5105e-317)
(-0.300766 -0.0160567 3.2482e-317)
(-0.298359 -0.0470739 2.31222e-317)
(-0.283752 -0.0825368 1.13038e-317)
(-0.273006 -0.110639 2.43438e-318)
(-0.242742 -0.146385 -8.83835e-318)
(-0.220707 -0.164853 -1.61409e-317)
(-0.175638 -0.196389 -2.41703e-317)
(-0.138152 -0.195243 -2.22795e-317)
(-0.0824875 -0.211286 -1.88042e-317)
(-0.0280534 -0.184178 1.24137e-317)
(-0.0332005 0.214933 2.72217e-316)
(-0.0921763 0.239607 2.04652e-316)
(-0.156946 0.218417 1.67179e-316)
(-0.196526 0.215233 1.33807e-316)
(-0.248517 0.179983 1.09487e-316)
(-0.271676 0.15689 9.06594e-317)
(-0.307087 0.118413 7.35121e-317)
(-0.319274 0.0849549 6.03106e-317)
(-0.337884 0.0467299 4.68088e-317)
(-0.342942 0.00848665 3.61444e-317)
(-0.344826 -0.0297231 2.41517e-317)
(-0.34401 -0.0694596 1.39727e-317)
(-0.328289 -0.109218 1.27362e-318)
(-0.319826 -0.146491 -1.1136e-317)
(-0.284808 -0.18818 -2.80586e-317)
(-0.263594 -0.215215 -4.80155e-317)
(-0.208728 -0.254791 -7.58639e-317)
(-0.16726 -0.258214 -1.16613e-316)
(-0.0982204 -0.282055 -1.66031e-316)
(-0.0328452 -0.250888 -2.53712e-316)
(-0.0386217 0.302827 2.27024e-317)
(-0.0958342 0.328632 6.6869e-317)
(-0.166732 0.291132 7.74344e-317)
(-0.19766 0.280109 8.2703e-317)
(-0.250504 0.231697 7.74939e-317)
(-0.264172 0.199328 6.94409e-317)
(-0.298112 0.152978 5.91211e-317)
(-0.30347 0.111516 4.87603e-317)
(-0.320954 0.0689612 3.81176e-317)
(-0.323368 0.0234756 2.8123e-317)
(-0.325779 -0.0180452 1.79331e-317)
(-0.327185 -0.0658908 8.14027e-318)
(-0.313479 -0.110763 -2.20583e-318)
(-0.312226 -0.158506 -1.23764e-317)
(-0.278927 -0.210231 -2.28995e-317)
(-0.268695 -0.249849 -3.19574e-317)
(-0.21185 -0.306707 -3.92527e-317)
(-0.180753 -0.319752 -3.76022e-317)
(-0.102882 -0.3646 -3.15418e-317)
(-0.0391036 -0.328413 6.81565e-318)
(-0.0526629 0.355464 2.5856e-316)
(-0.112833 0.376754 1.8143e-316)
(-0.199757 0.324688 1.43075e-316)
(-0.225245 0.302952 1.09376e-316)
(-0.285388 0.246899 8.77605e-317)
(-0.292433 0.204681 7.03781e-317)
(-0.329327 0.156197 5.63002e-317)
(-0.330169 0.107392 4.42394e-317)
(-0.349329 0.0657549 3.32397e-317)
(-0.350698 0.0143455 2.30842e-317)
(-0.354813 -0.0249208 1.30191e-317)
(-0.359335 -0.0791829 2.91581e-318)
(-0.34687 -0.122114 -8.10012e-318)
(-0.353053 -0.178779 -2.03915e-317)
(-0.317948 -0.231518 -3.52351e-317)
(-0.318136 -0.283546 -5.428e-317)
(-0.251524 -0.348599 -7.89742e-317)
(-0.228566 -0.37413 -1.17794e-316)
(-0.127291 -0.436677 -1.6381e-316)
(-0.0577561 -0.400971 -2.52302e-316)
(-0.070446 0.468103 2.75039e-317)
(-0.113256 0.47704 6.74552e-317)
(-0.210491 0.400858 7.35095e-317)
(-0.216206 0.361979 7.52682e-317)
(-0.275388 0.293026 6.82139e-317)
(-0.267741 0.237254 5.91037e-317)
(-0.30098 0.184477 4.88509e-317)
(-0.292819 0.126739 3.86786e-317)
(-0.309711 0.0855254 2.87796e-317)
(-0.307231 0.0273749 1.92225e-317)
(-0.311984 -0.00987793 9.77824e-318)
(-0.318069 -0.0721942 2.70585e-319)
(-0.309098 -0.114718 -9.60833e-318)
(-0.323806 -0.184472 -1.98859e-317)
(-0.293049 -0.242931 -3.05275e-317)
(-0.311014 -0.315487 -4.0477e-317)
(-0.2438 -0.398919 -4.88722e-317)
(-0.247555 -0.448585 -4.89244e-317)
(-0.128913 -0.545995 -4.4562e-317)
(-0.0826851 -0.520781 -5.01635e-318)
(-0.101393 0.538703 2.49911e-316)
(-0.126408 0.516844 1.69476e-316)
(-0.244664 0.424805 1.31534e-316)
(-0.231071 0.364028 9.85987e-317)
(-0.294252 0.29351 7.80088e-317)
(-0.272941 0.225705 6.14388e-317)
(-0.305411 0.177021 4.81742e-317)
(-0.289407 0.113856 3.66982e-317)
(-0.30617 0.0789278 2.63909e-317)
(-0.301207 0.0182666 1.67575e-317)
(-0.308351 -0.01121 7.3678e-318)
(-0.317742 -0.0765041 -2.17966e-318)
(-0.313357 -0.10987 -1.23941e-317)
(-0.338814 -0.18697 -2.38627e-317)
(-0.311541 -0.236507 -3.74523e-317)
(-0.349915 -0.325718 -5.49522e-317)
(-0.275832 -0.407105 -7.75203e-317)
(-0.308918 -0.485988 -1.14142e-316)
(-0.153742 -0.603081 -1.58005e-316)
(-0.130595 -0.612269 -2.48622e-316)
(-0.13246 0.681725 3.42364e-317)
(-0.108669 0.607805 7.36362e-317)
(-0.236246 0.492728 7.63273e-317)
(-0.193045 0.399321 7.50962e-317)
(-0.25011 0.323267 6.58876e-317)
(-0.213507 0.238368 5.53584e-317)
(-0.238994 0.192114 4.44529e-317)
(-0.214813 0.121457 3.40483e-317)
(-0.227843 0.0926841 2.42486e-317)
(-0.218284 0.0284159 1.49629e-317)
(-0.225872 0.0068512 5.92543e-318)
(-0.233695 -0.0635316 -3.15197e-318)
(-0.234144 -0.0889052 -1.25885e-317)
(-0.263695 -0.178915 -2.25785e-317)
(-0.244654 -0.223913 -3.31379e-317)
(-0.300219 -0.341997 -4.3582e-317)
(-0.231201 -0.431155 -5.31238e-317)
(-0.307789 -0.56147 -5.53151e-317)
(-0.130965 -0.716471 -5.37968e-317)
(-0.182176 -0.793833 -1.53119e-317)
(-0.170573 0.760442 2.4314e-316)
(-0.103402 0.608536 1.62305e-316)
(-0.248043 0.497469 1.25734e-316)
(-0.178887 0.369614 9.39643e-317)
(-0.232749 0.305829 7.39437e-317)
(-0.181933 0.209153 5.76589e-317)
(-0.201794 0.17342 4.45269e-317)
(-0.169914 0.100813 3.32052e-317)
(-0.18079 0.0811897 2.31384e-317)
(-0.167883 0.0184864 1.38587e-317)
(-0.178356 0.00691843 4.95013e-318)
(-0.187179 -0.0620921 -3.97721e-318)
(-0.195747 -0.0736881 -1.33988e-317)
(-0.233174 -0.167169 -2.38681e-317)
(-0.225191 -0.191522 -3.61208e-317)
(-0.301566 -0.327649 -5.18611e-317)
(-0.235132 -0.389824 -7.2208e-317)
(-0.355449 -0.571753 -1.06417e-316)
(-0.138185 -0.715042 -1.48109e-316)
(-0.256678 -0.900277 -2.42057e-316)
(-0.176639 0.915762 4.16556e-317)
(-0.0495917 0.663697 8.28472e-317)
(-0.182427 0.54795 8.24309e-317)
(-0.0947906 0.372685 7.81934e-317)
(-0.133402 0.314931 6.66006e-317)
(-0.0776882 0.200753 5.44778e-317)
(-0.0876628 0.173457 4.26802e-317)
(-0.0530948 0.0972224 3.18982e-317)
(-0.0595049 0.0873614 2.20912e-317)
(-0.0424524 0.0259307 1.30579e-317)
(-0.0529133 0.0256165 4.46117e-318)
(-0.0549688 -0.0432459 -4.03955e-318)
(-0.0684486 -0.0413569 -1.27789e-317)
(-0.0975977 -0.143721 -2.20376e-317)
(-0.101251 -0.152395 -3.1949e-317)
(-0.175239 -0.321881 -4.20694e-317)
(-0.125915 -0.370632 -5.18305e-317)
(-0.27534 -0.637003 -5.5465e-317)
(-0.0600715 -0.793428 -5.61545e-317)
(-0.289474 -1.13675 -2.02327e-317)
(-0.177623 0.948484 2.39117e-316)
(-0.0247601 0.605326 1.60314e-316)
(-0.14575 0.528186 1.24579e-316)
(-0.045873 0.318996 9.32772e-317)
(-0.0673971 0.283842 7.29094e-317)
(-0.00479739 0.163544 5.62456e-317)
(-0.00344207 0.147678 4.28052e-317)
(0.0355086 0.0741924 3.13918e-317)
(0.0330248 0.0714761 2.14646e-317)
(0.0534405 0.0151625 1.25277e-317)
(0.0399709 0.0218331 4.16625e-318)
(0.0407485 -0.0416577 -4.02381e-318)
(0.0162613 -0.0283776 -1.24619e-317)
(-0.0121268 -0.128174 -2.16491e-317)
(-0.036679 -0.11297 -3.21655e-317)
(-0.117403 -0.294013 -4.55426e-317)
(-0.0932045 -0.291551 -6.26817e-317)
(-0.270187 -0.617015 -9.30706e-317)
(-0.0484669 -0.693585 -1.30388e-316)
(-0.339954 -1.19139 -2.26463e-316)
(-0.0865161 1.06746 5.38808e-317)
(0.0593786 0.622605 9.77114e-317)
(0.00375479 0.552395 9.21877e-317)
(0.0843383 0.296516 8.3484e-317)
(0.0901251 0.271414 6.86409e-317)
(0.14075 0.140009 5.44856e-317)
(0.152813 0.134026 4.16494e-317)
(0.187262 0.0631821 3.05006e-317)
(0.18848 0.0703099 2.07414e-317)
(0.211493 0.020686 1.20684e-317)
(0.198549 0.0381023 4.04359e-318)
(0.210408 -0.0188245 -3.68861e-318)
(0.182763 0.00836226 -1.14677e-317)
(0.177135 -0.091421 -1.95668e-317)
(0.140022 -0.0561436 -2.81185e-317)
(0.0967171 -0.263571 -3.68069e-317)
(0.0858476 -0.232658 -4.49913e-317)
(-0.0518074 -0.65877 -4.76757e-317)
(0.0915113 -0.720114 -4.68414e-317)
(-0.239945 -1.43536 -9.41086e-318)
(-0.0317201 0.968079 2.47215e-316)
(0.0792554 0.528177 1.67407e-316)
(0.0891608 0.501445 1.28691e-316)
(0.162516 0.243484 9.52204e-317)
(0.204384 0.233068 7.30102e-317)
(0.25467 0.108521 5.5253e-317)
(0.282544 0.107239 4.12609e-317)
(0.317608 0.0440698 2.9752e-317)
(0.323325 0.0524327 2.00732e-317)
(0.348824 0.00978666 1.16074e-317)
(0.333323 0.0273422 3.92084e-318)
(0.350937 -0.0219584 -3.37445e-318)
(0.311743 0.00701621 -1.06925e-317)
(0.315512 -0.0833477 -1.8383e-317)
(0.248595 -0.0372245 -2.68092e-317)
(0.216897 -0.238098 -3.71085e-317)
(0.144415 -0.162252 -4.96426e-317)
(0.0157374 -0.608989 -7.33848e-317)
(0.077793 -0.53912 -1.01399e-316)
(-0.245101 -1.30306 -1.90097e-316)
(0.177476 1.02112 9.28114e-317)
(0.165494 0.520916 1.25441e-316)
(0.298119 0.480893 1.07668e-316)
(0.319104 0.201869 9.01645e-317)
(0.391653 0.195764 7.06062e-317)
(0.41937 0.0755439 5.39649e-317)
(0.453537 0.0826438 4.0134e-317)
(0.479457 0.0298277 2.87919e-317)
(0.48616 0.0458927 1.92932e-317)
(0.512159 0.0142661 1.1137e-317)
(0.497569 0.0393329 3.82572e-318)
(0.526675 0.00234223 -3.03693e-318)
(0.488208 0.0413642 -9.76526e-318)
(0.521568 -0.035978 -1.65477e-317)
(0.447927 0.026622 -2.33757e-317)
(0.482133 -0.175275 -2.98433e-317)
(0.366241 -0.0723387 -3.4805e-317)
(0.373742 -0.595241 -3.3221e-317)
(0.256123 -0.512413 -2.51559e-317)
(0.110114 -1.53633 2.74823e-317)
(0.258581 0.73753 2.80437e-316)
(0.202736 0.438322 1.78464e-316)
(0.441543 0.389434 1.32179e-316)
(0.460174 0.169618 9.39895e-317)
(0.577175 0.156586 7.00201e-317)
(0.603092 0.0586413 5.16918e-317)
(0.650427 0.0610241 3.78719e-317)
(0.673267 0.0186 2.69121e-317)
(0.682454 0.0294729 1.79602e-317)
(0.708344 0.00417912 1.03486e-317)
(0.692757 0.0222492 3.58234e-318)
(0.727059 -0.00771591 -2.7171e-318)
(0.682193 0.0211448 -8.83706e-318)
(0.727073 -0.0426968 -1.5032e-317)
(0.626868 0.0058293 -2.14003e-317)
(0.678083 -0.165687 -2.8555e-317)
(0.475062 -0.0688967 -3.61297e-317)
(0.497405 -0.519627 -5.12942e-317)
(0.197167 -0.346272 -6.67915e-317)
(0.0197012 -1.06152 -1.33111e-316)
(0.388918 0.70921 2.19185e-316)
(0.265473 0.391752 1.85046e-316)
(0.599475 0.305216 1.38176e-316)
(0.583091 0.105301 1.02436e-316)
(0.7095 0.0959091 7.51547e-317)
(0.714415 0.0214192 5.47711e-317)
(0.75795 0.0322418 3.94586e-317)
(0.772072 0.00578198 2.76534e-317)
(0.778462 0.0218262 1.82325e-317)
(0.804824 0.00860921 1.03822e-317)
(0.789318 0.0302185 3.49422e-318)
(0.833952 0.0147205 -2.85329e-318)
(0.792717 0.0487515 -8.98454e-318)
(0.866102 0.00931529 -1.49901e-317)
(0.770786 0.0692478 -2.07477e-317)
(0.895592 -0.0650282 -2.5496e-317)
(0.668108 0.0572307 -2.73178e-317)
(0.901668 -0.401533 -1.96683e-317)
(0.362934 -0.188343 -5.01635e-319)
(0.762477 -1.36461 8.22444e-317)
(0.819801 0.342252 2.2202e-316)
(0.530217 0.302357 1.11924e-316)
(0.914146 0.18814 8.27332e-317)
(0.904334 0.0917627 5.73094e-317)
(1.03103 0.0678104 4.3359e-317)
(1.03349 0.0210089 3.23737e-317)
(1.07171 0.0204001 2.40928e-317)
(1.07543 0.00265573 1.73206e-317)
(1.08059 0.00871272 1.16828e-317)
(1.09565 -0.000511001 6.81393e-318)
(1.08608 0.00913431 2.45223e-318)
(1.11904 -0.00212001 -1.60788e-318)
(1.09127 0.0122707 -5.48839e-318)
(1.14786 -0.0157248 -9.31852e-318)
(1.06954 0.00526792 -1.30576e-317)
(1.15784 -0.0843165 -1.71025e-317)
(0.93244 -0.0485695 -2.12199e-317)
(1.05274 -0.316018 -3.08503e-317)
(0.506764 -0.238016 -4.23861e-317)
(0.312872 -0.400619 -9.39979e-317)
(-0.127415 -0.0740515 6.48113e-316)
(0.581827 0.324765 4.02921e-316)
(1.00987 0.080907 2.69749e-316)
(1.05462 0.030019 1.80989e-316)
(1.21322 0.0145188 1.2608e-316)
(1.18893 -0.00824547 8.85631e-317)
(1.22231 0.0032405 6.21765e-317)
(1.22244 -0.00252493 4.26538e-317)
(1.21639 0.0087474 2.75629e-317)
(1.25257 0.00631906 1.5225e-317)
(1.22964 0.0194256 4.4847e-318)
(1.3118 0.0169106 -5.46194e-318)
(1.26864 0.0389128 -1.52444e-317)
(1.42235 0.030796 -2.50804e-317)
(1.31832 0.0731704 -3.47194e-317)
(1.59436 0.0252606 -4.28148e-317)
(1.24296 0.126846 -4.55788e-317)
(1.77981 -0.14247 -3.28841e-317)
(0.440301 0.239546 5.91677e-318)
(1.84368 -0.841034 1.38481e-316)
)
;

boundaryField
{
    cavity
    {
        type            myImplicitVelocity;
    }
    lid
    {
        type            fixedValue;
        value           uniform (1 0 0);
    }
    frontAndBack
    {
        type            empty;
    }
}


// ************************************************************************* //
