/*--------------------------------*- C++ -*----------------------------------*\
| =========                 |                                                 |
| \\      /  F ield         | foam-extend: Open Source CFD                    |
|  \\    /   O peration     | Version:  3.0                                   |
|   \\  /    A nd           | Web:         http://www.extend-project.de       |
|    \\/     M anipulation  |                                                 |
\*---------------------------------------------------------------------------*/
FoamFile
{
    version     2.0;
    format      ascii;
    class       volSymmTensorField;
    location    "39";
    object      sigma;
}
// * * * * * * * * * * * * * * * * * * * * * * * * * * * * * * * * * * * * * //

dimensions      [0 0 0 0 0 0 0];

internalField   nonuniform List<symmTensor> 
672
(
(-0.1682188594 -0.0101247977 -9.505724294e-20 0.1682317686 -6.021291699e-20 -1.29092069e-05)
(-0.1551545419 -0.01173242336 -4.740939196e-19 0.1551872283 1.129740556e-19 -3.268638856e-05)
(-0.1369562352 -0.01169358795 -1.663972918e-19 0.1370052756 6.8850051e-19 -4.904037453e-05)
(-0.1172617189 -0.01080070594 -2.376773716e-19 0.1173238205 2.894334515e-19 -6.21015674e-05)
(-0.09973085705 -0.009796638273 -8.544094473e-19 0.09980272863 1.53149204e-18 -7.187158014e-05)
(-0.08297935648 -0.008693846199 -4.840159308e-19 0.08305724164 -6.728757563e-19 -7.788516369e-05)
(-0.06866398648 -0.007664910413 -5.154161814e-19 0.06874379718 2.165103428e-18 -7.981070065e-05)
(-0.05583485486 -0.006769446867 -2.257331998e-19 0.0559118578 -1.476981035e-18 -7.700293816e-05)
(-0.04482696632 -0.005934370876 -8.892625263e-19 0.04489606346 8.205167083e-19 -6.909714486e-05)
(-0.03598466073 -0.005331792698 -7.267749899e-21 0.03604033676 -1.416420647e-18 -5.567603119e-05)
(-0.0286766608 -0.004814069813 -2.577115579e-20 0.02871347729 2.088740384e-18 -3.68164885e-05)
(-0.02422771759 -0.004529698651 1.181437696e-19 0.02424075185 -2.944038586e-18 -1.303425876e-05)
(-0.1655023963 -0.03016865036 -4.201608367e-20 0.1655143632 2.488024932e-19 -1.196686302e-05)
(-0.1505495001 -0.03462676398 -4.761905795e-19 0.1505798584 -4.640765852e-19 -3.035831532e-05)
(-0.1317171112 -0.03437325432 -9.622071129e-20 0.1317626239 1.918868288e-19 -4.551262224e-05)
(-0.1120784119 -0.03169100329 9.429576607e-19 0.1121360333 -1.266565343e-18 -5.762141956e-05)
(-0.0947801669 -0.0287112878 -9.363808773e-19 0.09484682405 -1.102505435e-20 -6.665715046e-05)
(-0.07837311799 -0.02547051654 8.046017807e-19 0.07844528754 -1.286239285e-18 -7.216955064e-05)
(-0.06442456598 -0.02245554934 -1.25194603e-18 0.06449843806 -6.241372884e-19 -7.387207997e-05)
(-0.05189926056 -0.01985207412 -1.787386317e-18 0.0519704104 -2.008316353e-18 -7.114983398e-05)
(-0.04119979214 -0.01742714924 -1.021011006e-18 0.04126349101 6.291896479e-19 -6.369886248e-05)
(-0.03254884761 -0.01570811453 2.962658518e-19 0.0325999977 -3.616381807e-19 -5.115008791e-05)
(-0.02539334857 -0.01423537629 -1.683196355e-18 0.02542701194 3.027931831e-20 -3.366337766e-05)
(-0.02101058667 -0.01349381611 4.471587189e-19 0.02102239768 -3.295750983e-19 -1.181101395e-05)
(-0.1601682773 -0.04953764526 -4.345057011e-19 0.1601791522 2.637564108e-19 -1.087491225e-05)
(-0.1416944718 -0.05578422563 -5.71898241e-19 0.141722072 2.134796889e-19 -2.760021655e-05)
(-0.1216966412 -0.0548939541 -1.168351332e-18 0.1217380418 1.502248267e-18 -4.140060375e-05)
(-0.1021878988 -0.05036146525 -8.723524569e-20 0.1022403023 -6.738930897e-19 -5.240345959e-05)
(-0.08534818921 -0.04544776964 -1.180846874e-18 0.08540878857 1.695669142e-18 -6.059935609e-05)
(-0.0696026971 -0.04017336076 -7.16167116e-19 0.06966824919 -1.19413647e-18 -6.555208596e-05)
(-0.05636377321 -0.03530162039 -1.55879409e-18 0.05643077898 1.181960729e-18 -6.700576789e-05)
(-0.04440856182 -0.03108821447 4.523008079e-19 0.04447296723 -7.74750798e-19 -6.440540929e-05)
(-0.03431572799 -0.02719115174 4.927665672e-20 0.0343732218 1.4215996e-18 -5.749381474e-05)
(-0.0260042689 -0.0244065723 5.994243752e-20 0.02605025046 -2.463958848e-18 -4.598155917e-05)
(-0.01916959795 -0.02203621336 -8.880581493e-19 0.01919968174 1.278763815e-18 -3.008378785e-05)
(-0.01487110551 -0.02083200149 6.492940313e-19 0.01488154809 -2.463169918e-18 -1.044257682e-05)
(-0.1524121344 -0.06782693962 5.937519734e-19 0.1524217794 -1.27542168e-18 -9.645040802e-06)
(-0.1292608454 -0.07422945195 2.632369159e-19 0.1292853408 3.875563422e-19 -2.449545853e-05)
(-0.1077639536 -0.07206084246 -2.973312809e-19 0.1078007207 -2.292628252e-19 -3.676708856e-05)
(-0.08849932113 -0.06558813084 4.273239622e-19 0.08854584563 9.79505189e-19 -4.65244997e-05)
(-0.07233525767 -0.0588105879 -5.20070968e-19 0.072389033 -9.582978605e-19 -5.37753299e-05)
(-0.05753903731 -0.05166726484 -2.653764128e-19 0.05759714263 3.839339974e-19 -5.810531767e-05)
(-0.04529659771 -0.04513962104 -1.324706237e-18 0.04535588951 3.69457859e-19 -5.929179868e-05)
(-0.03416000547 -0.03947234646 -2.881045616e-18 0.03421685161 5.687521598e-19 -5.684613418e-05)
(-0.02490349598 -0.03427771291 -1.463946852e-18 0.0249540584 -1.50216306e-18 -5.056241894e-05)
(-0.01709446834 -0.03051729832 -1.514718203e-18 0.0171347004 2.697729263e-18 -4.02320574e-05)
(-0.01069005476 -0.02731902853 -1.187859427e-18 0.0107161793 -1.49313435e-18 -2.612454053e-05)
(-0.0065352021 -0.02566946831 3.231939133e-19 0.006544141712 1.602975565e-18 -8.93961154e-06)
(-0.142504138 -0.0846983585 1.426604228e-19 0.1425124355 5.266589092e-19 -8.2974998e-06)
(-0.1141700533 -0.08925432996 8.49782711e-19 0.1141911413 1.072348182e-19 -2.108805415e-05)
(-0.09110983467 -0.08502280517 -7.391136232e-19 0.09114151121 5.795637031e-19 -3.167653815e-05)
(-0.0722547708 -0.07650973732 -7.152557417e-20 0.07229483685 -4.08400043e-19 -4.006604547e-05)
(-0.0569750897 -0.06796111881 -1.313278314e-18 0.05702136979 -1.978134496e-19 -4.628008628e-05)
(-0.04335923264 -0.05915933889 3.201361918e-19 0.04340916429 5.402904974e-19 -4.993165278e-05)
(-0.03234463111 -0.0512306771 4.213781237e-19 0.03239546836 2.085601995e-19 -5.083725721e-05)
(-0.02220614358 -0.04430513874 -1.410347921e-18 0.0222547202 1.04640436e-18 -4.857661253e-05)
(-0.01398202214 -0.03804183779 1.072603192e-18 0.01402502394 1.292654929e-18 -4.30017998e-05)
(-0.00677911021 -0.03341043637 1.120682004e-18 0.006813093198 -1.958627239e-19 -3.398298856e-05)
(-0.0009275004227 -0.02949539754 -3.205495721e-18 0.0009493430078 9.607576589e-19 -2.184258514e-05)
(0.003053368492 -0.02740041344 4.412337526e-19 -0.003046039861 1.610551771e-19 -7.328631227e-06)
(-0.1307703084 -0.09989308779 -1.007060163e-18 0.1307771537 1.006547497e-18 -6.845280928e-06)
(-0.09749278278 -0.10046495 2.778539896e-19 0.09751019898 6.666697526e-19 -1.741620813e-05)
(-0.07310839301 -0.09334901423 -7.772949919e-19 0.07313457997 1.042217224e-18 -2.618695611e-05)
(-0.05488928173 -0.08270575382 -4.894772621e-19 0.05492238479 1.386728572e-18 -3.310305602e-05)
(-0.04068437638 -0.07250447368 -8.145488997e-20 0.04072257665 -2.160291991e-19 -3.820027501e-05)
(-0.02842989324 -0.06228565339 -1.20940713e-18 0.02847101881 1.028814384e-18 -4.112557288e-05)
(-0.01878662503 -0.05324355499 7.688245716e-19 0.01882836339 -2.415151579e-19 -4.173835756e-05)
(-0.009789537526 -0.04528234288 -1.690033509e-18 0.009829227645 3.107255296e-19 -3.969011891e-05)
(-0.002699090193 -0.03820014115 -3.229858351e-18 0.002733985204 -1.559417187e-18 -3.489501101e-05)
(0.003789689521 -0.03282396302 8.22768103e-19 -0.003762389075 1.834727102e-18 -2.730044546e-05)
(0.009024818207 -0.02829886422 1.754935427e-18 -0.009007537833 -7.977167275e-19 -1.728037326e-05)
(0.01277418672 -0.02577775915 -6.399650449e-19 -0.01276856594 4.668440627e-19 -5.620784166e-06)
(-0.1175601196 -0.1132438602 4.834564648e-19 0.1175654295 -5.826091254e-19 -5.309836877e-06)
(-0.08033319152 -0.107824376 4.647182542e-20 0.08034672391 7.033680766e-19 -1.35323918e-05)
(-0.0551762652 -0.09707002318 1.899431931e-18 0.05519663931 -1.172129101e-18 -2.037410967e-05)
(-0.03787512342 -0.08424085898 -1.628967923e-18 0.03790085538 -2.207853313e-20 -2.573195892e-05)
(-0.02492424972 -0.07252396705 2.925255761e-19 0.02495389681 -2.477637604e-18 -2.964709589e-05)
(-0.01414386608 -0.06114141461 -9.213633473e-19 0.01417567563 1.418873927e-18 -3.180954472e-05)
(-0.005948768033 -0.05127968212 1.729310738e-18 0.005980889564 -1.857653812e-18 -3.212153078e-05)
(0.001844348517 -0.04251188926 -3.787182643e-19 -0.001814036146 1.120239007e-18 -3.031237131e-05)
(0.007746584145 -0.03486824844 1.722742293e-18 -0.007720226421 4.884821063e-19 -2.635772389e-05)
(0.01347757572 -0.02887576828 -1.824088829e-18 -0.01345729203 1.15521819e-18 -2.028369192e-05)
(0.01803748595 -0.02386634727 -6.096423741e-19 -0.01802497648 -3.112483991e-18 -1.250947209e-05)
(0.02151832692 -0.02093108329 -1.013611538e-18 -0.02151447816 3.035241877e-18 -3.848762047e-06)
(-0.1032266346 -0.1246712767 1.496927239e-19 0.1032303415 2.967827309e-19 -3.706884601e-06)
(-0.06372389341 -0.1116299442 -4.624874296e-19 0.06373337457 5.280704268e-19 -9.481153064e-06)
(-0.03861628893 -0.0966573358 -7.661126495e-19 0.03863059518 6.584488032e-19 -1.430625334e-05)
(-0.02256510074 -0.0816423206 9.007181399e-19 0.02258313985 -1.067907133e-19 -1.803910652e-05)
(-0.01102265947 -0.0685659401 -2.800151894e-18 0.01104338023 1.881375872e-18 -2.072075933e-05)
(-0.001778788412 -0.0562676451 -5.455149181e-19 0.001800879908 -1.176014752e-19 -2.209149577e-05)
(0.004979456393 -0.04586517146 -2.595935594e-18 -0.00495735953 1.257685498e-18 -2.209686307e-05)
(0.01154055845 -0.03650793923 6.268715264e-19 -0.0115200105 8.138649583e-19 -2.054794679e-05)
(0.01629122189 -0.02854291761 -2.023463821e-18 -0.01627373962 -7.04181771e-19 -1.748227056e-05)
(0.02121755585 -0.02205986077 6.430735829e-19 -0.02120455244 1.556860294e-18 -1.300341394e-05)
(0.02509133812 -0.01668292967 6.957958674e-19 -0.02508376597 1.440222627e-18 -7.572150242e-06)
(0.02824683417 -0.01336230235 -9.85733423e-19 -0.02824481339 6.498123736e-19 -2.020777871e-06)
(-0.08809270418 -0.1341767074 2.640830344e-19 0.0880947645 2.153132834e-19 -2.060324838e-06)
(-0.04850818942 -0.1124717962 7.222636614e-19 0.04851350773 7.893967569e-19 -5.318307902e-06)
(-0.02448304 -0.09296225308 8.743284425e-19 0.02449110645 -9.03805007e-19 -8.06645564e-06)
(-0.01004323571 -0.07583544188 -5.222269931e-19 0.01005336469 9.421107132e-20 -1.012898066e-05)
(-4.915157721e-05 -0.06157054485 1.233813014e-18 6.069459703e-05 -3.479191004e-19 -1.154301982e-05)
(0.007652452083 -0.04858570732 -2.006795882e-18 -0.007640347126 5.512728123e-19 -1.210495615e-05)
(0.01303606557 -0.03788283596 9.017878095e-19 -0.01302426212 5.687670063e-19 -1.180344803e-05)
(0.01840353273 -0.02813079507 -1.850022426e-18 -0.01839299757 1.239306746e-19 -1.053515889e-05)
(0.02207446398 -0.02004491941 2.184259266e-18 -0.02206606628 2.130159855e-18 -8.397700149e-06)
(0.02620307765 -0.01318962427 -1.9944724e-18 -0.026197506 1.065237332e-18 -5.571651236e-06)
(0.02938850982 -0.007548674954 2.436381527e-18 -0.02938595791 -2.006605772e-18 -2.55190562e-06)
(0.03217426326 -0.003872932983 -1.739551957e-18 -0.03217408653 1.34260113e-18 -1.7672722e-07)
(-0.07243983378 -0.141825788 -2.316617615e-19 0.07244022128 5.059650367e-19 -3.875017594e-07)
(-0.03527255093 -0.1111544961 -5.162664914e-19 0.03527364223 -4.414680309e-19 -1.091306367e-06)
(-0.01347308975 -0.08711004675 4.831011034e-20 0.01347481754 -5.191397134e-20 -1.727783039e-06)
(-0.001016251164 -0.06803159143 -1.019423354e-18 0.001018345295 1.416222559e-18 -2.094131578e-06)
(0.007315621836 -0.05276046909 9.353383407e-19 -0.007313400678 3.852386535e-19 -2.221158155e-06)
(0.01350046357 -0.03928605265 -6.466338596e-19 -0.0134984983 1.361340355e-18 -1.965269082e-06)
(0.01762729878 -0.02847147155 -2.382715954e-19 -0.01762594036 -8.655221313e-19 -1.358416372e-06)
(0.02185462366 -0.01847986976 1.317224153e-20 -0.02185423942 1.868036206e-18 -3.842407537e-07)
(0.0245760741 -0.01042857468 4.557230136e-19 -0.02457687419 2.277974136e-20 8.000925521e-07)
(0.02790561022 -0.00329768727 1.77350149e-18 -0.02790755044 -1.12377268e-18 1.940219881e-06)
(0.03043480109 0.002508934085 -1.147864249e-18 -0.03043731249 3.763315087e-19 2.511398353e-06)
(0.03279953203 0.006507783513 1.197700948e-18 -0.03280121022 -5.379023419e-19 1.678190269e-06)
(-0.05648574009 -0.1477251917 -4.912105436e-19 0.05648445314 3.840913085e-19 1.286948439e-06)
(-0.02428242201 -0.1085880419 -1.148338061e-20 0.02427927957 3.844518211e-19 3.142442164e-06)
(-0.005859549673 -0.08036157253 -8.521208533e-19 0.005854925535 7.858343753e-19 4.624138385e-06)
(0.004261191456 -0.05958136934 -2.035375098e-20 -0.004267148786 -2.825833539e-19 5.957329577e-06)
(0.01083483056 -0.04349720207 -5.356668795e-19 -0.01084194916 4.548103645e-19 7.118600065e-06)
(0.01555774227 -0.02969374428 5.466385505e-19 -0.01556593112 -8.634953731e-20 8.188853144e-06)
(0.01856035214 -0.01889466221 1.921375534e-19 -0.01856944551 4.110710453e-19 9.093368539e-06)
(0.02173633898 -0.008779136695 -4.089385692e-19 -0.02174609932 -4.745092025e-20 9.760344354e-06)
(0.02364027423 -0.0008529398078 9.226150792e-19 -0.02365025034 6.069117627e-20 9.976105875e-06)
(0.02620615343 0.006467178993 -8.518980401e-19 -0.02621556789 -2.185349421e-19 9.414467696e-06)
(0.02810390275 0.01237833044 7.371894386e-19 -0.02811143286 1.367925246e-19 7.530107532e-06)
(0.03001320592 0.01663775413 -1.232371867e-18 -0.03001670857 9.126513834e-20 3.502647892e-06)
(-0.04038691185 -0.1520016329 7.86980701e-20 0.0403839664 -1.442719203e-20 2.945446414e-06)
(-0.01547564049 -0.1056889891 -3.060089417e-19 0.01546830567 -6.329827413e-19 7.334825213e-06)
(-0.001470259312 -0.07397027386 1.294266254e-19 0.001459343615 -4.506927207e-20 1.091569645e-05)
(0.006004158984 -0.05182470449 -3.803556096e-19 -0.006018090826 2.105617375e-19 1.393184249e-05)
(0.01074814123 -0.03512555668 -5.624636514e-20 -0.01076450937 8.324614303e-19 1.636813546e-05)
(0.01406610236 -0.02111511825 -2.524745595e-19 -0.01408434358 2.48185719e-19 1.824122605e-05)
(0.0160861351 -0.01039639904 -2.479229857e-19 -0.01610556947 2.438247149e-19 1.943436605e-05)
(0.01828498735 -0.0002297646632 3.492458098e-19 -0.01830477594 1.133803193e-18 1.978858806e-05)
(0.01952089285 0.007533663908 2.005045776e-19 -0.01953992813 -3.121209614e-19 1.90352778e-05)
(0.02133382069 0.01498311627 -2.937700576e-19 -0.02135060229 -5.262204451e-19 1.678160376e-05)
(0.02265460556 0.02093884165 -7.60188805e-19 -0.02266707125 1.964175339e-19 1.246568854e-05)
(0.02405142426 0.02542086263 3.794963448e-19 -0.02405671559 -1.534375923e-19 5.291320954e-06)
(-0.02423566412 -0.1547737077 2.077374269e-19 0.02423110017 4.973112009e-20 4.563959208e-06)
(-0.008484423529 -0.1032538536 -7.167601391e-20 0.008472994161 4.135918377e-20 1.142936847e-05)
(0.0002735026727 -0.06902737323 -7.246356848e-19 -0.0002905654879 3.848296298e-19 1.706281519e-05)
(0.004860111677 -0.04592547782 -3.368095434e-19 -0.004881834684 5.391311607e-20 2.172300717e-05)
(0.007722570962 -0.02881619388 -5.270675946e-19 -0.007747974087 4.582373608e-19 2.540312534e-05)
(0.009692103285 -0.01468676589 1.785817358e-19 -0.009720158369 -4.48643679e-20 2.805508382e-05)
(0.01084279281 -0.004059714927 -6.03322236e-19 -0.01087231432 5.932963988e-19 2.952150529e-05)
(0.01214243447 0.00612247326 3.37977539e-19 -0.01217199197 -2.23913172e-19 2.955750036e-05)
(0.01281632887 0.01374173659 -2.420649062e-19 -0.01284417277 5.310852499e-20 2.784389839e-05)
(0.01391543241 0.02127041117 -2.912033632e-19 -0.01393935715 -3.841133362e-19 2.392474525e-05)
(0.01467520593 0.02724735442 -7.613672584e-19 -0.01469243768 1.962993205e-19 1.723175105e-05)
(0.01555735289 0.03187392599 -9.552392635e-21 -0.01556435739 -2.552922429e-19 7.00449993e-06)
(-0.008075389517 -0.1561351081 5.615117913e-20 0.008069263926 1.918485754e-20 6.125591105e-06)
(-0.002687757515 -0.101879421 -1.081808716e-19 0.002672377924 -2.911257837e-19 1.537959119e-05)
(0.0002889044004 -0.06634247646 -1.960366234e-19 -0.0003118990266 1.28250047e-19 2.299462619e-05)
(0.001833550623 -0.04274735528 -1.882554159e-19 -0.001862791288 2.782299747e-20 2.92406644e-05)
(0.002785371016 -0.0254332462 -1.446442376e-19 -0.002819490619 5.205322945e-19 3.411960236e-05)
(0.003439289777 -0.01124843518 -2.533539673e-19 -0.003476808634 2.162969822e-19 3.751885639e-05)
(0.003804312442 -0.0006805779628 -1.052775699e-19 -0.003843554795 4.203554715e-19 3.924235249e-05)
(0.004240580692 0.0095063527 -2.004220537e-19 -0.004279543094 4.12322383e-19 3.896240151e-05)
(0.004445551264 0.01703885104 -4.285962871e-19 -0.004481863619 7.4470056e-20 3.631235511e-05)
(0.004825315007 0.0246096382 -2.94066671e-19 -0.004856094673 -2.065866301e-19 3.07796661e-05)
(0.005073020091 0.03058704491 -5.876268951e-19 -0.005094814263 2.025376478e-19 2.179417199e-05)
(0.00538805992 0.03529564509 6.921332725e-20 -0.005396698622 -1.956233502e-19 8.638701394e-06)
(0.008084332035 -0.1561358274 1.476910452e-19 -0.008091939859 1.202392861e-19 7.607823659e-06)
(0.00268895345 -0.1018794376 -1.376104781e-20 -0.002708085762 5.075733539e-20 1.913231241e-05)
(-0.0002991875942 -0.06634361723 -4.25577643e-19 0.000270555604 2.252734613e-19 2.863199022e-05)
(-0.001849503467 -0.04274646985 -2.499592886e-20 0.001813118846 1.873786367e-20 3.638462014e-05)
(-0.002817675662 -0.0254352118 -1.486730044e-19 0.002775275215 3.779182661e-19 4.240044652e-05)
(-0.003464332546 -0.01124528449 -7.436034958e-20 0.003417828805 6.398347991e-20 4.650374093e-05)
(-0.003859673685 -0.0006836843451 -1.283354882e-20 0.003811211669 3.473833936e-19 4.846201644e-05)
(-0.004263607565 0.009512386677 -3.3824791e-19 0.00421573916 -3.29668897e-20 4.786840485e-05)
(-0.00451158365 0.01703591257 -3.903550199e-19 0.004467269644 4.27035478e-20 4.431400616e-05)
(-0.004829265936 0.02461787517 -6.715872411e-19 0.004792030761 -2.455729533e-19 3.723517478e-05)
(-0.005108496719 0.03058834573 -1.7291675e-19 0.005082427427 1.672836114e-19 2.606929178e-05)
(-0.005337776574 0.03530575632 -5.776591921e-19 0.005327622044 -2.580170756e-19 1.015453039e-05)
(0.02424500131 -0.15477571 5.261894745e-20 -0.02425399652 7.222025339e-20 8.995209018e-06)
(0.008485474105 -0.1032538153 -5.808401696e-20 -0.008508118958 -1.021226581e-19 2.264485317e-05)
(-0.0002826536522 -0.06903038011 -2.315034763e-19 0.0002487437775 1.181577245e-19 3.390987471e-05)
(-0.004876477739 -0.0459228564 -1.884507028e-19 0.004833405619 -2.316301453e-19 4.307212049e-05)
(-0.007752537553 -0.02882094546 -1.970818091e-19 0.007702387183 4.472904737e-19 5.015037016e-05)
(-0.009719095912 -0.01467775744 -2.868612147e-19 0.009664188305 7.902541536e-21 5.490760675e-05)
(-0.0108944841 -0.004066531225 -2.897940094e-19 0.0108374061 4.646110656e-19 5.707800434e-05)
(-0.01216954193 0.006139470826 -6.186292154e-19 0.01211336143 5.386194532e-19 5.618049742e-05)
(-0.01287861402 0.01373678302 -6.748638705e-19 0.01282684537 1.900020937e-19 5.176865095e-05)
(-0.01392419429 0.02129342235 -8.441298812e-20 0.01388095928 -7.773148948e-20 4.323501071e-05)
(-0.01470958254 0.02725358753 -6.570242109e-19 0.01467955243 4.238399499e-19 3.003011767e-05)
(-0.01550826041 0.03190064766 8.657094246e-20 0.01549670811 -2.851732714e-19 1.155230013e-05)
(0.04039693686 -0.1520046647 1.987957705e-19 -0.04040720448 1.736522864e-19 1.026762302e-05)
(0.01547666141 -0.1056892513 6.7043418e-20 -0.01550253108 6.649410787e-20 2.586966642e-05)
(0.001463370612 -0.07397478218 1.072789324e-19 -0.001502128153 3.554862008e-19 3.875754075e-05)
(-0.006020686816 -0.05182084563 -2.505165708e-19 0.005971473134 -2.483990367e-20 4.921368196e-05)
(-0.01077351602 -0.03513217853 3.733513636e-19 0.01071625121 4.194381393e-19 5.726481735e-05)
(-0.01409520534 -0.02110129599 -3.42693718e-19 0.01403258965 5.154748443e-20 6.261568529e-05)
(-0.01613071994 -0.01040552633 1.850407279e-19 0.01606574975 3.195948415e-19 6.497018784e-05)
(-0.01831679047 -0.0002033949607 -6.334401062e-19 0.0182530116 -2.298884057e-19 6.377887805e-05)
(-0.01957571527 0.007527738964 4.297258226e-20 0.01951715167 -1.724954076e-19 5.856359194e-05)
(-0.02134921171 0.01501886422 -1.242796887e-18 0.0213005314 -1.274676317e-19 4.868031577e-05)
(-0.02268636977 0.02094971927 1.168233714e-19 0.02265276885 4.685303386e-19 3.360091457e-05)
(-0.0240129907 0.02546044579 -1.181056255e-18 0.02400019528 -4.985242796e-19 1.279542486e-05)
(0.05649648678 -0.1477288685 -6.095277356e-19 -0.05650789865 -2.321492706e-19 1.141187865e-05)
(0.02428337359 -0.1085888617 2.06492072e-19 -0.02431214365 -1.774951707e-19 2.87700632e-05)
(0.005855628482 -0.08036681959 -1.202858946e-19 -0.005898747489 1.032940252e-19 4.311900733e-05)
(-0.004277929176 -0.05957705558 4.914783862e-19 0.004223191163 -1.738961449e-19 5.473801357e-05)
(-0.01085421031 -0.04350398101 -5.618591065e-19 0.01079054856 -2.259896322e-20 6.366175279e-05)
(-0.01558996985 -0.02967751122 1.498500947e-19 0.0155204298 -6.708658942e-20 6.954005645e-05)
(-0.01859549759 -0.01890340128 1.389886959e-19 0.01852344702 1.567674697e-19 7.205056685e-05)
(-0.02177546542 -0.008747902032 1.577023699e-19 0.02170488337 1.112905757e-18 7.058204685e-05)
(-0.02368488928 -0.0008574013667 -1.344453998e-18 0.02362025869 4.129036173e-19 6.463059757e-05)
(-0.02623114871 0.006510829688 1.327084412e-18 0.02617762516 5.59819038e-19 5.352355115e-05)
(-0.02813185936 0.01239409363 -1.311753374e-18 0.02809509923 1.58752105e-19 3.676013579e-05)
(-0.0299826501 0.01669096253 8.421535518e-19 0.02996876471 4.818670691e-20 1.388538992e-05)
(0.07245112335 -0.141829821 1.065480729e-20 -0.07246353447 -2.691121312e-19 1.241111829e-05)
(0.03527383141 -0.111156266 2.008966745e-20 -0.03530513779 -5.846565186e-19 3.13063815e-05)
(0.01347256756 -0.08711517735 -7.390137064e-21 -0.01351950288 -5.632649222e-20 4.693532846e-05)
(0.0009999953483 -0.06802737341 -2.368605488e-19 -0.001059566062 9.432372385e-20 5.957071395e-05)
(-0.007328749808 -0.05276508035 -4.229582642e-19 0.007259495416 2.583434704e-19 6.925439181e-05)
(-0.01353499116 -0.03926906324 2.01552293e-19 0.01345940529 -5.266576915e-19 7.558587128e-05)
(-0.01765354464 -0.02847527017 2.461292407e-19 0.01757532438 -7.130655734e-19 7.822025225e-05)
(-0.02190009872 -0.01844693636 4.49046408e-19 0.02182360651 5.36670987e-19 7.649221297e-05)
(-0.02461198865 -0.01042545446 2.630222685e-19 0.02454211024 -9.63946533e-19 6.98784114e-05)
(-0.02793932339 -0.003250592793 -4.408217548e-19 0.02788163752 -7.538513818e-19 5.768586155e-05)
(-0.03045963435 0.002532891639 9.36474416e-19 0.03042018608 1.839960944e-18 3.944827715e-05)
(-0.03277599972 0.006566426592 -6.307430261e-19 0.0327612054 -4.334167131e-19 1.479432157e-05)
(0.08810412471 -0.134180978 5.414277482e-19 -0.08811737991 4.752772685e-19 1.325520432e-05)
(0.04851010331 -0.1124747608 2.047666648e-19 -0.04854355326 -1.505147368e-19 3.34499538e-05)
(0.02448604131 -0.09296641033 1.029647055e-18 -0.0245362039 4.40195811e-19 5.016258858e-05)
(0.01002839874 -0.07583160888 8.456678587e-19 -0.01009205447 1.319516168e-19 6.365572709e-05)
(4.235232393e-05 -0.06157122289 -2.285867634e-20 -0.000116330527 -4.244263442e-19 7.39782031e-05)
(-0.007687399027 -0.04856895969 2.673864974e-19 0.007606715175 1.942319529e-19 8.068385223e-05)
(-0.01305313601 -0.03787927295 -1.045888875e-19 0.01296972609 -9.465539662e-19 8.340991715e-05)
(-0.01845242281 -0.02809795758 6.059579044e-19 0.01837097788 4.985559884e-19 8.144493679e-05)
(-0.02210047938 -0.02003234057 -1.514597738e-18 0.02202622654 1.683674549e-18 7.425284478e-05)
(-0.02624278604 -0.01314156254 1.370196621e-18 0.02618165724 -5.297888192e-19 6.112879703e-05)
(-0.02940873343 -0.007516365434 -5.315566091e-19 0.02936708697 -1.616866631e-18 4.164646051e-05)
(-0.03216033516 -0.003813439582 5.508735034e-19 0.03214481402 9.048680376e-19 1.55211432e-05)
(0.1032377642 -0.124676007 -6.454774831e-19 -0.1032516955 -7.628103347e-19 1.39312965e-05)
(0.06372705574 -0.1116343705 4.675905597e-19 -0.06376222667 -2.411970427e-19 3.517092505e-05)
(0.03862272626 -0.0966599217 -1.203511549e-18 -0.0386754828 -2.211170622e-18 5.275654118e-05)
(0.02255261916 -0.08163930353 7.763528557e-20 -0.02261955661 1.334974588e-18 6.693745176e-05)
(0.0110213134 -0.06856123993 -2.339672963e-18 -0.01109908196 -1.232422423e-18 7.776856161e-05)
(0.001744953128 -0.05625310971 7.436514227e-19 -0.001829717075 5.652809865e-19 8.476394675e-05)
(-0.004989472327 -0.04585161184 -2.076881826e-18 0.00490192517 -2.473089562e-18 8.754715696e-05)
(-0.01159074935 -0.03647944818 7.853297718e-19 0.01150537951 -8.09996362e-20 8.53698383e-05)
(-0.01631014403 -0.02851749873 8.079867942e-19 0.01623245439 -2.165392603e-18 7.768963824e-05)
(-0.02126060472 -0.02201517609 5.063787393e-19 0.02119680586 1.685726236e-18 6.37988626e-05)
(-0.02510815409 -0.0166399591 -2.115710979e-18 0.02506483731 4.562946685e-19 4.331677807e-05)
(-0.02823646366 -0.01329718289 1.80756043e-18 0.02822041357 7.80099196e-19 1.605009303e-05)
(0.1175704896 -0.1132495973 1.665291691e-19 -0.1175849226 -7.755455164e-19 1.443297299e-05)
(0.08033805244 -0.1078302883 4.579688258e-20 -0.08037450277 4.587920699e-19 3.645032424e-05)
(0.05518542816 -0.09707047413 8.25877093e-19 -0.05524011599 5.048049592e-19 5.468782981e-05)
(0.03786595158 -0.0842381208 -8.943489493e-20 -0.03793532977 -1.594946219e-18 6.937819291e-05)
(0.02492617843 -0.07251284071 2.211470221e-18 -0.02500676044 2.038509731e-18 8.05820037e-05)
(0.01411345978 -0.06112801748 -4.553053445e-19 -0.01420123908 -4.246082017e-19 8.777929823e-05)
(0.005941411991 -0.05125476167 7.210755638e-19 -0.006031997073 1.848236844e-18 9.058508201e-05)
(-0.001891618682 -0.04248580607 9.398575662e-19 0.001803395677 -1.714716438e-18 8.822300429e-05)
(-0.007764175842 -0.03482848539 -6.891504973e-19 0.007684024148 1.412035019e-18 8.015169476e-05)
(-0.01351875202 -0.02883283761 1.716044036e-18 0.01345308299 -4.220348456e-19 6.566902826e-05)
(-0.01805371161 -0.02381143935 1.733656555e-18 0.01800926673 -1.073811617e-18 4.444488423e-05)
(-0.02150643995 -0.02086609601 6.866639795e-19 0.02149006102 1.719110929e-18 1.637893736e-05)
(0.1307798941 -0.09990062544 2.846845227e-19 -0.1307946461 -6.416721329e-19 1.475195819e-05)
(0.09750000853 -0.100472227 8.456564221e-19 -0.09753727805 -1.266242249e-18 3.72695201e-05)
(0.07312008408 -0.09334708948 -1.312878229e-18 -0.07317601313 -1.846593618e-18 5.592904893e-05)
(0.05488429778 -0.08270273304 -2.98588972e-19 -0.05495524164 -1.73632887e-19 7.09438639e-05)
(0.04068882329 -0.07248658472 -1.602117555e-19 -0.04077120249 -2.434540087e-18 8.237920561e-05)
(0.02840481722 -0.06227274083 4.60988458e-19 -0.02849450524 2.263791694e-18 8.968802221e-05)
(0.0187810079 -0.05320693968 4.839496833e-19 -0.01887348902 -1.982714426e-18 9.248111881e-05)
(0.009748094914 -0.04525798743 -5.452209667e-19 -0.009838059427 1.829654062e-18 8.99645136e-05)
(0.002682899978 -0.03814540637 3.015757994e-18 -0.002764503806 -2.87238832e-18 8.160382874e-05)
(-0.003826395167 -0.03278172302 9.444938132e-19 0.003759683146 3.029145507e-18 6.671202066e-05)
(-0.009040042906 -0.0282305982 -2.237444336e-18 0.008995030076 -2.836626106e-18 4.50128303e-05)
(-0.01276229044 -0.02570957072 1.060024989e-18 0.01274578957 1.894400459e-18 1.650086988e-05)
(0.1425131122 -0.08470881406 4.834689261e-19 -0.1425279982 -1.370868982e-19 1.488602946e-05)
(0.1141800704 -0.08926281356 -1.493201176e-18 -0.1142176908 5.199285407e-19 3.762042934e-05)
(0.09112304689 -0.08501882801 -4.662918562e-19 -0.09117951407 -8.656355788e-19 5.646718233e-05)
(0.07225441617 -0.07650576852 1.479306897e-18 -0.07232603355 8.054175701e-19 7.161737616e-05)
(0.05697936913 -0.06793754455 3.533128418e-19 -0.0570625095 -2.952246814e-18 8.314037454e-05)
(0.04334094064 -0.05914588142 1.997329397e-18 -0.04343140913 3.006483622e-19 9.046849373e-05)
(0.03233557881 -0.05118457168 -1.831786553e-18 -0.03242879257 -6.31038605e-19 9.3213756e-05)
(0.02217353904 -0.04428109418 2.822124905e-18 -0.02226411288 -8.790146702e-19 9.057383678e-05)
(0.01396014586 -0.03797475258 -5.012437869e-19 -0.01404217486 -5.621324975e-19 8.202899462e-05)
(0.006750464094 -0.03336625735 -2.186918731e-18 -0.006817379066 -2.505222847e-18 6.691497217e-05)
(0.0009087583802 -0.02941409264 1.096444909e-19 -0.0009537724929 1.174538195e-18 4.501411264e-05)
(-0.003038757577 -0.02731937786 -7.890734953e-19 0.003022342115 -2.148107457e-18 1.641546181e-05)
(0.1524213251 -0.06784113494 8.254517606e-19 -0.1524361569 1.205199898e-18 1.483178095e-05)
(0.1292739957 -0.07423869078 5.378354152e-19 -0.1293114921 -3.073945689e-19 3.749646534e-05)
(0.1077783537 -0.07205490797 1.290359271e-18 -0.1078346467 9.120620031e-19 5.629290793e-05)
(0.088503334 -0.06558190787 -1.509892704e-18 -0.08857472172 -9.294944455e-19 7.138772171e-05)
(0.07233825289 -0.05878215298 -1.460497835e-20 -0.07242110615 3.062275022e-19 8.285326521e-05)
(0.05752711634 -0.05165010417 -7.749900438e-19 -0.0576172252 -1.685155584e-18 9.010885865e-05)
(0.04528234933 -0.04508612789 2.507968477e-19 -0.04537512139 -1.209827027e-18 9.277205711e-05)
(0.03413541575 -0.03944301571 -5.710138676e-19 -0.03422545884 6.267465291e-19 9.004309404e-05)
(0.02487385536 -0.03420076491 -7.528566339e-19 -0.02495527769 -1.037217062e-18 8.142233133e-05)
(0.01707287366 -0.03046551232 -7.676306344e-19 -0.01713915127 5.332283927e-19 6.627760546e-05)
(0.01066549959 -0.0272250917 1.696560452e-19 -0.0107099507 -2.046090049e-18 4.445111196e-05)
(0.006554898968 -0.02557833517 1.73883733e-19 -0.006571023814 1.961833862e-18 1.61248464e-05)
(0.1601789209 -0.04955650453 -3.024160098e-19 -0.1601935124 -9.181148493e-20 1.459145759e-05)
(0.1417109647 -0.05579382585 -2.07784388e-18 -0.1417478658 8.870844539e-20 3.690106857e-05)
(0.121711872 -0.05488704369 -1.005290161e-18 -0.1217672825 -1.108896454e-18 5.541050852e-05)
(0.1021958348 -0.05035227326 -7.138262956e-19 -0.1022660944 -8.615046806e-19 7.025964349e-05)
(0.08534927967 -0.0454166122 1.259765665e-18 -0.08543080287 -5.157462798e-19 8.152320128e-05)
(0.06959676393 -0.04015120282 -8.714038073e-19 -0.06968537827 -8.503825021e-19 8.861433748e-05)