/*--------------------------------*- C++ -*----------------------------------*\
| =========                 |                                                 |
| \\      /  F ield         | foam-extend: Open Source CFD                    |
|  \\    /   O peration     | Version:  3.0                                   |
|   \\  /    A nd           | Web:         http://www.extend-project.de       |
|    \\/     M anipulation  |                                                 |
\*---------------------------------------------------------------------------*/
FoamFile
{
    version     2.0;
    format      ascii;
    class       volSymmTensorField;
    location    "14";
    object      sigma;
}
// * * * * * * * * * * * * * * * * * * * * * * * * * * * * * * * * * * * * * //

dimensions      [0 0 0 0 0 0 0];

internalField   nonuniform List<symmTensor> 
672
(
(-0.1668074668 -0.01038951656 -1.018037533e-19 0.1664182046 -1.997779289e-19 0.0003892622607)
(-0.1528080804 -0.01192694335 -5.344843369e-19 0.1518361997 3.015204146e-20 0.0009718806709)
(-0.1349756234 -0.01192740849 -1.26760439e-19 0.1335205659 1.550535781e-19 0.001455057498)
(-0.115438015 -0.01118120761 -1.032778152e-19 0.1135825929 3.518350554e-19 0.001855422047)
(-0.09799363427 -0.01030489032 -7.471804507e-19 0.09581144887 7.282813139e-19 0.002182185392)
(-0.08157572883 -0.009425836675 -3.919472914e-19 0.07915186807 -2.790319598e-19 0.002423860761)
(-0.06725691228 -0.008638916565 -5.069900322e-19 0.06468159156 1.204813093e-18 0.002575320716)
(-0.05456672621 -0.008034022085 -2.906390721e-19 0.05196499953 -7.676400536e-19 0.002601726685)
(-0.04358160662 -0.007586976939 -8.720265538e-19 0.04109742818 -1.345428586e-19 0.002484178445)
(-0.03455234934 -0.007383112459 -1.534357743e-19 0.03239285845 -3.811727221e-19 0.002159490893)
(-0.0272604128 -0.00742167305 2.735592194e-20 0.0256777854 8.2669512e-19 0.001582627394)
(-0.02229442779 -0.007813647368 -7.349661592e-21 0.02163836392 -1.406129841e-18 0.0006560638772)
(-0.1639429406 -0.03056429752 -8.324255908e-20 0.1635575767 3.580739847e-19 0.0003853639319)
(-0.1481318158 -0.03463254549 -4.52005785e-19 0.1471694621 -2.85947046e-19 0.0009623536679)
(-0.1297100481 -0.03427886398 -1.003280334e-19 0.1282691777 4.037497581e-19 0.001440870433)
(-0.1101855179 -0.03175723772 7.029041814e-19 0.1083483021 -1.041901756e-18 0.001837215772)
(-0.09296528206 -0.02884098318 -8.272237015e-19 0.09080497289 2.289030371e-19 0.002160309175)
(-0.07682926131 -0.02587446112 5.922133816e-19 0.07443040949 -1.065212303e-18 0.002398851825)
(-0.06281684764 -0.02312211251 -9.340111163e-19 0.0602691636 -4.746786177e-19 0.002547684032)
(-0.05035935516 -0.02083014032 -1.785126115e-18 0.04778680206 -1.790465879e-18 0.002572553093)
(-0.03957084558 -0.01890017467 -5.953996302e-19 0.03711602045 6.211770908e-19 0.002454825138)
(-0.03063963071 -0.01759226147 1.664025408e-19 0.02850713167 -2.805933702e-19 0.002132499037)
(-0.02332622058 -0.01684777161 -1.24604097e-18 0.02176484159 7.065968286e-20 0.001561378987)
(-0.01827362843 -0.01688384886 2.113735035e-19 0.01762735297 -3.718758096e-19 0.0006462754622)
(-0.1583504369 -0.04998865543 -3.616541693e-19 0.1579738261 1.385905349e-19 0.0003766108102)
(-0.1391843531 -0.05557174581 -5.956520876e-19 0.138243829 1.979604528e-19 0.0009405240705)
(-0.119701403 -0.05447383118 -9.44822551e-19 0.1182934206 1.12304456e-18 0.001407982389)
(-0.1002559121 -0.05010459548 -6.96230924e-20 0.09846097734 -4.97482817e-19 0.001794934715)
(-0.08350724897 -0.04519557351 -8.888975488e-19 0.08139727941 1.133868222e-18 0.002109969558)
(-0.06795804488 -0.04022739548 -8.759359234e-19 0.06561591368 -8.873795632e-19 0.002342131198)
(-0.05457717923 -0.03561772264 -1.330522178e-18 0.05209073763 5.462389076e-19 0.002486441601)
(-0.04261947325 -0.03171852694 3.787078271e-20 0.04010990936 -3.215953669e-19 0.002509563897)
(-0.03227439967 -0.02837649447 2.047887484e-19 0.0298808291 6.326349611e-19 0.002393570572)
(-0.02358454505 -0.02599172208 -3.668530699e-19 0.02150630793 -1.58202051e-18 0.002078237125)
(-0.01637441498 -0.02445704902 -5.077126149e-19 0.01485343578 2.055095001e-19 0.001520979197)
(-0.01117232365 -0.02405728738 1.305855493e-19 0.01054297332 -1.211115814e-18 0.0006293503339)
(-0.1502585536 -0.06821952588 6.178238668e-19 0.1498956914 -1.185310122e-18 0.0003628622135)
(-0.126647526 -0.07375215091 1.958165248e-19 0.1257412875 3.343999936e-19 0.0009062384676)
(-0.1058125692 -0.07132257636 -2.378768908e-19 0.1044562167 -1.238463337e-19 0.001356352534)
(-0.08655220128 -0.06499904409 1.918395948e-19 0.08482355329 7.8136276e-19 0.001728648)
(-0.0705105454 -0.05818156385 -3.690556143e-19 0.06847933367 -7.465580053e-19 0.002031211727)
(-0.05582299196 -0.05135467907 -3.300992815e-19 0.05356938889 2.117896428e-19 0.002253603071)
(-0.04335940667 -0.04506771513 -9.671720775e-19 0.04096836569 6.326573897e-19 0.002391040982)
(-0.03214876134 -0.03970092323 -2.767204276e-18 0.02973710817 3.235599319e-19 0.002411653174)
(-0.02245568711 -0.0350665028 -9.871777428e-19 0.02015729901 -9.676518293e-19 0.002298388098)
(-0.01418944284 -0.03166986564 -1.564539591e-18 0.01219560512 2.079153083e-18 0.001993837722)
(-0.007127972137 -0.02931655804 -8.830742393e-19 0.00567034132 -7.467764513e-19 0.001457630817)
(-0.001871438155 -0.02845753362 2.379693869e-19 0.001269272124 9.017608119e-19 0.0006021660306)
(-0.1399832072 -0.08489176855 1.531756317e-19 0.1396387985 5.484314213e-19 0.0003444087049)
(-0.1114627315 -0.08846261714 7.82176542e-19 0.1106026022 1.299075344e-19 0.0008601293426)
(-0.08923405869 -0.08398507943 -6.45714816e-19 0.0879470608 6.436904114e-19 0.001286997895)
(-0.07032453926 -0.07559226233 -3.996195853e-20 0.06868482383 -3.08488962e-19 0.001639715428)
(-0.0552095555 -0.06697887107 -1.171548994e-18 0.05328374013 -1.0995339e-19 0.001925815377)
(-0.0416160169 -0.05847946289 1.608649617e-19 0.03948053938 4.774496283e-19 0.002135477525)
(-0.03029884856 -0.05074144867 3.386401887e-19 0.02803459662 2.307270056e-19 0.002264251935)
(-0.02002119111 -0.04408482007 -1.578531707e-18 0.01773905709 9.594425285e-19 0.00228213402)
(-0.01117094101 -0.03831723664 9.31819835e-19 0.008997650415 1.077795599e-18 0.002173290592)
(-0.003416995751 -0.0339913631 9.439533209e-19 0.001533199095 -6.499142246e-20 0.001883796656)
(0.003342301304 -0.03085976149 -2.86648242e-18 -0.004718410925 7.503112529e-19 0.001376109622)
(0.00865428284 -0.02943515559 9.689574828e-20 -0.009222327633 2.594393666e-19 0.0005680447935)
(-0.127902491 -0.09973755678 -8.409999324e-19 0.1275810525 9.207988127e-19 0.00032143854)
(-0.09472284635 -0.0993037322 2.94537654e-19 0.09392007347 5.19852346e-19 0.0008027728812)
(-0.0713357885 -0.09202984621 -5.286510587e-19 0.07013498456 8.607935464e-19 0.00120080394)
(-0.05300765334 -0.08146107232 -6.390727125e-19 0.05147838551 1.079530315e-18 0.001529267827)
(-0.03901501438 -0.07119261893 1.888533747e-19 0.0372199688 -3.48693503e-19 0.001795045583)
(-0.02669738019 -0.06124073482 -1.192511313e-18 0.02470832045 8.195626304e-19 0.001989059747)
(-0.01668455081 -0.05231760862 1.154905611e-18 0.01457730965 -1.40249151e-19 0.002107241163)
(-0.007489496243 -0.04458676879 -1.652254281e-18 0.005367612142 1.609168901e-21 0.0021218841)
(0.0004014166538 -0.03786947312 -2.662074965e-18 -0.002419992769 -1.035380836e-18 0.002018576115)
(0.007488264609 -0.03272908522 7.038122689e-19 -0.009235955385 1.244400033e-18 0.001747690776)
(0.01388952077 -0.02880156053 1.835829438e-18 -0.01516456257 -2.369090885e-19 0.001275041799)
(0.01913847538 -0.02676027277 -5.906245553e-19 -0.01966388954 -2.637836035e-20 0.0005254141591)
(-0.1144194571 -0.1125983435 3.631598047e-19 0.1141251173 -4.156187055e-19 0.0002943397856)
(-0.07755073466 -0.106248725 -2.32125932e-20 0.07681564788 6.418321419e-19 0.0007350867716)
(-0.05352718157 -0.09549574951 1.581255355e-18 0.05242801068 -7.619305159e-19 0.001099170892)
(-0.03607246885 -0.08268212497 -1.368277064e-18 0.0346733211 -9.816712902e-20 0.001399147748)
(-0.02337630459 -0.07091922031 -1.086957574e-19 0.02173512331 -1.870936554e-18 0.001641181283)
(-0.0124632994 -0.05974481671 -6.125657755e-19 0.01064625774 1.047695558e-18 0.001817041658)
(-0.00385443687 -0.04990984877 1.069577674e-18 0.001931328815 -1.363990039e-18 0.001923108054)
(0.004187605085 -0.04131395605 1.250430661e-19 -0.006121944446 6.886850151e-19 0.001934339362)
(0.01099627563 -0.03384902164 9.106987528e-19 -0.01283423896 7.991325687e-19 0.001837963321)
(0.01741248984 -0.02800428502 -1.132796734e-18 -0.01900177547 6.010643237e-19 0.001589285635)
(0.02329258208 -0.02333666266 -1.13732268e-18 -0.02445050721 -2.278409045e-18 0.001157925126)
(0.02845758206 -0.0206550329 -3.724971551e-19 -0.02893397481 2.015803362e-18 0.0004763927492)
(-0.09993562078 -0.1234213948 3.036477123e-19 0.09967211359 1.48282538e-19 0.0002635071986)
(-0.06100223464 -0.1096073019 -3.003449446e-19 0.0603441731 4.838911391e-19 0.0006580615375)
(-0.03711132115 -0.09485387815 -4.243592792e-19 0.03612773796 4.076926921e-19 0.000983583197)
(-0.02087582185 -0.07978571331 8.361606992e-19 0.01962456216 -2.9523362e-19 0.001251259693)
(-0.009618579126 -0.06670506054 -2.311134773e-18 0.008152099849 1.572913728e-18 0.001466479277)
(-0.0001860523476 -0.05453815614 -5.924527321e-19 -0.001435883075 -2.371050322e-19 0.001621935423)
(0.00701059951 -0.04406043075 -1.967263515e-18 -0.008725127931 1.230264494e-18 0.00171452842)
(0.01385593131 -0.03479491078 4.043019426e-19 -0.01557809953 5.363208192e-19 0.001722168223)
(0.01958364044 -0.02680162863 -1.407743916e-18 -0.02121757218 -3.963676813e-19 0.001633931733)
(0.02520921311 -0.02033198541 3.684958593e-19 -0.02661980957 1.220519228e-18 0.001410596464)
(0.03050267911 -0.01501912225 9.320433608e-19 -0.03152869221 1.509531744e-18 0.0010260131)
(0.03538937367 -0.01168949836 -1.004969614e-18 -0.03581064043 5.164896643e-19 0.0004212667514)
(-0.0848114642 -0.1322497853 1.712830352e-19 0.08458211555 3.245848234e-19 0.0002293486447)
(-0.04593080603 -0.1099893901 6.293590965e-19 0.04535803964 6.605722426e-19 0.0005727663846)
(-0.02313384783 -0.09095634867 5.811150672e-19 0.02227818277 -6.699935021e-19 0.0008556650595)
(-0.008496190791 -0.07370319901 -2.890330927e-19 0.007408473528 8.884417744e-20 0.001087717263)
(0.001203077596 -0.05949137156 7.161369971e-19 -0.002476525071 -3.716735423e-20 0.001273447476)
(0.009121418304 -0.04655348143 -1.542647533e-18 -0.01052799976 4.522934237e-19 0.001406581452)
(0.01494392002 -0.03566900331 1.402693193e-19 -0.01642844392 6.785136746e-19 0.001484523905)
(0.02060571089 -0.02593078369 -1.057658785e-18 -0.02209417301 5.476902957e-20 0.001488462116)
(0.02525432456 -0.01758245386 1.148545367e-18 -0.02666370003 2.13526107e-18 0.001409375475)
(0.03009263964 -0.01061648879 -8.798534625e-19 -0.03130673339 7.396574683e-19 0.001214093751)
(0.03467442873 -0.004693032374 1.265250017e-18 -0.0355553859 -1.387565791e-18 0.0008809571632)
(0.03917882204 -0.000712074477 -4.937001105e-19 -0.03953939153 5.30360955e-19 0.0003605694856)
(-0.06935115188 -0.139201888 -1.839247225e-19 0.06915873073 3.984991122e-19 0.0001924211435)
(-0.03293450643 -0.1082264049 -2.733147763e-19 0.03245399672 -3.520055498e-19 0.0004805097111)
(-0.012292807 -0.08493128372 1.094645926e-19 0.01157542726 -1.37650276e-19 0.0007173797422)
(0.0003580583894 -0.06565557214 -8.084547017e-19 -0.00126910987 1.198273788e-18 0.0009110514806)
(0.008407555945 -0.05050314271 1.023880863e-18 -0.009472723876 2.971050855e-19 0.00106516793)
(0.01481654821 -0.03698955803 -4.528052209e-19 -0.01599105808 1.082830704e-18 0.00117450987)
(0.0193527762 -0.025886708 -2.809802526e-20 -0.02058985471 -6.995228352e-19 0.001237078508)
(0.02386671716 -0.01582904348 -2.569517851e-20 -0.02510418226 1.504186912e-18 0.001237465093)
(0.02749720323 -0.007282156794 7.855240413e-19 -0.02866595964 2.404195895e-19 0.001168756414)
(0.03149143282 9.479243787e-05 1.472188374e-18 -0.0324954898 -1.215229811e-18 0.00100405698)
(0.03530797631 0.006498390318 -7.461387909e-19 -0.03603449097 2.382922563e-19 0.0007265146642)
(0.03927655435 0.01113198997 8.081371998e-19 -0.03957296039 -3.598818373e-19 0.0002964060394)
(-0.05377677561 -0.1444422768 -4.89613239e-19 0.05362365186 3.718957305e-19 0.0001531237573)
(-0.02227643901 -0.1052516898 -6.832541329e-20 0.02189400715 2.702175986e-19 0.0003824318551)
(-0.004856906872 -0.07803508086 -8.319171026e-19 0.004286446966 7.263852586e-19 0.0005704599057)
(0.005436192296 -0.05699352574 2.149739659e-20 -0.006159686273 -1.453092665e-19 0.0007234939775)
(0.01176494036 -0.04109322857 -5.95244004e-19 -0.01260913679 4.173393854e-19 0.0008441964298)
(0.0166921579 -0.02717220931 6.682093287e-19 -0.01762066395 1.000047012e-19 0.0009285060474)
(0.02005004856 -0.0159905123 -3.925911546e-20 -0.02102497331 2.264893316e-19 0.0009749247515)
(0.0234819347 -0.00573562019 -1.867128009e-20 -0.02445365729 2.024214759e-19 0.0009717225846)
(0.02616128069 0.002891624547 4.711260346e-19 -0.02707526507 -1.254036287e-19 0.0009139843821)
(0.02932445352 0.01059534473 -2.058187164e-19 -0.03010604729 -1.682892609e-19 0.000781593771)
(0.03229381168 0.01738208014 5.0897874e-20 -0.03285636329 1.945080698e-19 0.0005625516117)
(0.03561229266 0.0225700443 -3.781724944e-19 -0.0358401341 -7.328766174e-20 0.0002278414368)
(-0.0382305389 -0.1481547734 6.179241321e-20 0.03811839869 -7.890163501e-20 0.0001121402084)
(-0.01388745876 -0.1020116279 -1.316194653e-19 0.01360738592 -4.693192475e-19 0.0002800728474)
(-0.000653554642 -0.07152587927 2.67832669e-20 0.0002363415361 -8.356691621e-20 0.0004172131059)
(0.006957989739 -0.04906791361 -1.194886231e-19 -0.007486011325 1.58003487e-19 0.0005280215861)
(0.0115168012 -0.03261087747 -1.569612978e-19 -0.01213100764 7.432430638e-19 0.0006142064414)
(0.01500255933 -0.01841747526 3.812613455e-20 -0.01567539199 1.064411488e-19 0.0006728326579)
(0.0172969432 -0.00723941543 -2.807091041e-19 -0.01799995433 2.815556305e-19 0.000703011132)
(0.01971105798 0.003128057505 4.750185857e-19 -0.02040771711 9.070871845e-19 0.0006966591263)
(0.02152340733 0.01176208699 2.343771728e-19 -0.02217445931 -2.478696557e-19 0.0006510519884)
(0.02383177659 0.01970489891 -3.348176176e-19 -0.02438454377 -5.479974108e-19 0.0005527671803)
(0.02592774358 0.02676620996 -5.775902641e-19 -0.02632259753 9.106947624e-20 0.0003948539481)
(0.02842433467 0.03244918413 1.969591489e-19 -0.02858282907 -4.898126649e-20 0.0001584943978)
(-0.02277242353 -0.1505079407 2.19847064e-19 0.02270257704 -1.683525804e-20 6.984648906e-05)
(-0.007384401204 -0.09932192466 -7.019314788e-20 0.007209817911 -2.409214255e-20 0.0001745832925)
(0.000895064988 -0.06649007032 -5.715217855e-19 -0.00115444762 2.535379106e-19 0.0002593826318)
(0.00557159235 -0.04304062607 -3.333967129e-19 -0.00589844834 1.606989614e-19 0.0003268559897)
(0.008327174555 -0.02621649889 -3.860717667e-19 -0.008704835855 3.784961405e-19 0.0003776613002)
(0.01040826621 -0.01185852222 1.631609306e-19 -0.01081834353 1.451409822e-19 0.0004100773145)
(0.01173893796 -0.0007249983705 -5.038863241e-19 -0.01216260541 4.491045811e-19 0.0004236674431)
(0.01319044611 0.009710066386 3.990887475e-19 -0.01360465039 2.775256956e-20 0.0004142042859)
(0.01421183841 0.01829142683 -2.170073737e-19 -0.01459274714 -9.985909721e-20 0.0003809087285)
(0.01567350102 0.02643088793 -1.061872296e-19 -0.01599094304 -2.10028794e-19 0.0003174420265)
(0.0168666586 0.03363537175 -8.294296508e-19 -0.01708839583 8.286194463e-20 0.0002217372238)
(0.01851785777 0.03967459363 1.917064029e-19 -0.01860405839 -1.260337205e-19 8.620061267e-05)
(-0.007399334725 -0.1516331278 7.348930013e-20 0.00737233949 -3.109860359e-20 2.69952345e-05)
(-0.002122228261 -0.09779982738 -3.686211434e-20 0.002054613717 -1.365188192e-19 6.761454366e-05)
(0.0007095763035 -0.06374204864 -2.277864724e-19 -0.0008090105602 6.691185935e-20 9.943425677e-05)
(0.002292307574 -0.03978334212 -5.001433145e-20 -0.002415479101 9.810958401e-20 0.0001231715274)
(0.00322785944 -0.02277750305 -1.349981468e-19 -0.003366359149 3.903534288e-19 0.000138499709)
(0.00392933499 -0.008340678212 -8.290606017e-20 -0.004074168307 2.087652145e-19 0.0001448333172)
(0.004368843562 0.002755339846 -7.559225867e-20 -0.004511147017 3.29362282e-19 0.0001423034551)
(0.004881593915 0.01322720716 -1.057233936e-19 -0.005011963363 3.281512116e-19 0.000130369448)
(0.005187872851 0.02175827483 -3.342699075e-19 -0.005298239028 -1.915383137e-21 0.0001103661766)
(0.005756794896 0.03000520086 -3.318499529e-19 -0.005839489447 -1.82359793e-19 8.269455076e-05)
(0.00609257342 0.03724878748 -4.425604861e-19 -0.00614281474 7.285002154e-20 5.024131947e-05)
(0.006762553997 0.04347327975 -8.619418685e-20 -0.00677812257 -9.390305724e-20 1.556857291e-05)
(0.007935763553 -0.1516011202 1.359499315e-19 -0.007919695833 4.729606284e-20 -1.606771937e-05)
(0.002697151644 -0.09776712778 9.297623917e-21 -0.002657426563 4.148398713e-20 -3.972508075e-05)
(-8.976487719e-05 -0.06370818697 -2.957457275e-19 0.0001507259992 1.224062109e-19 -6.096112196e-05)
(-0.001655945132 -0.03975067022 9.309591299e-21 0.00173686922 7.913548227e-20 -8.092408773e-05)
(-0.002545054197 -0.02274690467 -5.060112151e-20 0.002646058329 3.114686478e-19 -0.000101004132)
(-0.003212347897 -0.008307364697 -5.732500214e-20 0.003332935094 1.961321457e-19 -0.0001205871967)
(-0.003632618824 0.00277459988 6.237752071e-20 0.003771783195 2.989695555e-19 -0.0001391643707)
(-0.004042372453 0.0132638566 -2.606651748e-19 0.00419583829 1.556607021e-19 -0.0001534658372)
(-0.004422518493 0.02175191122 -3.682926073e-19 0.004582896968 -1.029516392e-21 -0.0001603784751)
(-0.004729846273 0.03004196419 -4.853656147e-19 0.004882372072 -9.988212026e-20 -0.0001525257993)
(-0.005280202761 0.03722131187 -2.673055434e-19 0.005402596175 8.465273903e-20 -0.0001223934131)
(-0.005545742473 0.04346940662 -3.404786025e-19 0.005602104007 -1.091662838e-19 -5.63615339e-05)
(0.02329463269 -0.1504140294 1.107166718e-19 -0.02323604361 3.235070172e-20 -5.85890803e-05)
(0.007945944751 -0.09922564735 -6.606877925e-20 -0.007800140364 2.157551197e-21 -0.0001458043867)
(-0.0002879428888 -0.0663902169 -1.595591643e-19 0.0005073205104 6.88718343e-20 -0.0002193776216)
(-0.004945138736 -0.04294375092 -2.037430137e-19 0.005227459065 -1.200738903e-19 -0.0002823203287)
(-0.007650740641 -0.02612478199 -2.718399972e-20 0.00798773288 3.506633705e-19 -0.0003369922383)
(-0.009698622909 -0.01175877552 -2.861284848e-19 0.01008031248 2.046150162e-20 -0.0003816895684)
(-0.01099658801 -0.0006621370488 -8.455153769e-20 0.01141200626 3.480272821e-19 -0.0004154182539)
(-0.01235913733 0.009819714236 -6.77189878e-19 0.01279050593 4.805783326e-19 -0.0004313685996)
(-0.01341358734 0.01828854213 -3.692835426e-19 0.01383810968 5.658118766e-20 -0.0004245223467)
(-0.01464868678 0.02653272399 -3.184556113e-19 0.01502974547 -6.259132893e-20 -0.0003810586901)
(-0.01598141258 0.03356608553 -2.681513501e-19 0.01627029612 3.167275097e-19 -0.0002888835396)
(-0.0172481806 0.03964620286 -3.15826661e-19 0.01737290041 -2.192895613e-19 -0.0001247198082)
(0.03872545314 -0.1480045529 1.971344788e-19 -0.0386252045 1.376693046e-19 -0.0001002486372)
(0.01442307808 -0.1018569172 9.928741314e-20 -0.01417349003 9.594619574e-20 -0.0002495880553)
(0.001235786632 -0.07136451556 2.53117178e-19 -0.0008615221183 3.155481887e-19 -0.0003742645139)
(-0.006351463168 -0.04890930099 -1.786457455e-19 0.006830541748 -2.328914942e-21 -0.0004790785803)
(-0.01085357098 -0.03245802892 4.74989994e-19 0.01142097911 3.698176605e-19 -0.0005674081275)
(-0.01430686297 -0.01825145669 -2.911435819e-19 0.01494328965 1.715328966e-19 -0.0006364266794)
(-0.01654137285 -0.007125813241 2.563451193e-19 0.01722621903 3.287355312e-19 -0.0006848461786)
(-0.01888739936 0.003312011217 -5.127555953e-19 0.01958968928 -5.063572138e-20 -0.000702289921)
(-0.02066029192 0.01177740384 -5.981982277e-20 0.02134249507 -1.442980719e-19 -0.0006822031452)
(-0.02278976674 0.01988285684 -9.204381684e-19 0.02339403031 3.658155695e-20 -0.0006042635714)
(-0.02493266789 0.02667524119 -1.37126649e-19 0.02538489315 3.070461596e-19 -0.0004522252599)
(-0.02706172105 0.03243871969 -7.515098425e-19 0.02725427297 -2.654434258e-19 -0.0001925519174)
(0.0542339061 -0.1442446094 -5.836435721e-19 -0.05409354824 -2.750733397e-19 -0.0001403578612)
(0.02277612614 -0.1050459722 1.30537534e-19 -0.02242654191 -1.67506489e-19 -0.0003495842249)
(0.005404660981 -0.07781826054 -1.030836023e-19 -0.004881248699 4.327959619e-20 -0.0005234122824)
(-0.004857985511 -0.05677600842 3.271693139e-19 0.005526367945 -8.97021966e-20 -0.000668382434)
(-0.01112221219 -0.04087743121 -4.006826676e-19 0.01191099417 -3.549835362e-20 -0.0007887819753)
(-0.01601897353 -0.02694006346 -9.780337547e-22 0.01689975964 -9.762961693e-20 -0.000880786117)
(-0.01928478376 -0.01581024363 4.238416684e-19 0.02022751225 8.237004796e-20 -0.0009427284868)
(-0.02268177982 -0.005483746399 -1.146419978e-19 0.02364277508 1.009598802e-18 -0.0009609952671)
(-0.02522195808 0.002968077789 -7.801422749e-19 0.02614938487 3.072540214e-19 -0.0009274267867)
(-0.02828944382 0.01083806827 7.153110164e-19 0.02910527805 4.862049782e-19 -0.000815834231)
(-0.03113814304 0.0173420983 -5.735137649e-19 0.03174411363 2.709369656e-19 -0.0006059705885)
(-0.03409032615 0.02263765926 6.939800551e-20 0.03434585014 -1.404352677e-19 -0.0002555239869)
(0.06976304663 -0.1389677302 9.711889055e-20 -0.06958443687 -1.995451165e-19 -0.0001786097654)
(0.03339146988 -0.1079793605 3.25579685e-20 -0.03294662849 -5.202413422e-19 -0.0004448413846)
(0.01279945106 -0.08466739729 3.344856236e-19 -0.01213404452 1.272070934e-19 -0.0006654065328)
(0.000186043512 -0.06538340247 -2.119970433e-19 0.0006624313145 -4.448089764e-21 -0.0008484748265)
(-0.007791636244 -0.05022353405 -2.644974232e-20 0.008790886063 4.281305648e-19 -0.0009992498192)
(-0.01416873109 -0.03668776246 1.179083112e-19 0.01528164297 -5.541184759e-19 -0.001112911878)
(-0.01858703769 -0.02561868061 5.253070573e-19 0.01977461474 -4.368865004e-19 -0.00118757705)
(-0.02308242558 -0.01549577332 4.224027832e-19 0.02428889839 4.704354206e-19 -0.001206472817)
(-0.0265009176 -0.007087422652 2.733010396e-19 0.02766109552 -6.999562312e-19 -0.001160177914)
(-0.03043489253 0.000422462694 -2.454869472e-19 0.03145167118 -7.354736535e-19 -0.001016778652)
(-0.03399671779 0.006579137611 8.102045295e-19 0.0347492153 1.691197952e-18 -0.0007524975119)
(-0.03756922402 0.01127447701 -4.294802288e-19 0.03788531394 -2.391616235e-19 -0.000316089917)
(0.08517454583 -0.1319912925 4.246912646e-19 -0.08496011124 3.965241889e-19 -0.000214434584)
(0.04634094128 -0.1097115145 1.832819341e-19 -0.04580684006 -2.676421047e-19 -0.0005341012263)
(0.02359516768 -0.0906541358 7.915017926e-19 -0.02279677625 2.628911499e-19 -0.0007983914314)
(0.009000868646 -0.07338094142 7.062028051e-19 -0.007983858648 2.324050638e-19 -0.001017009998)
(-0.0006199539216 -0.05914858108 -1.893799347e-19 0.00181592044 -5.406557482e-19 -0.001195966518)
(-0.008502692533 -0.04617832399 1.775922568e-19 0.009832261108 2.480838604e-19 -0.001329568575)
(-0.01418264272 -0.03530170485 1.314932911e-20 0.01559830935 -1.129937649e-18 -0.001415666631)
(-0.01983310416 -0.0254982522 2.872031422e-19 0.02126778234 5.683307221e-19 -0.001434678187)
(-0.02420104319 -0.01724169655 -9.626212643e-19 0.02557697067 1.470109234e-18 -0.001375927481)
(-0.02900938478 -0.01016096165 7.249498681e-19 0.03021182148 -5.585849602e-19 -0.001202436701)
(-0.03322238892 -0.004434987628 8.089812105e-20 0.03410953064 -1.354022018e-18 -0.0008871417122)
(-0.0373390336 -0.0004259116853 -1.487819173e-19 0.03771020569 4.956666282e-19 -0.0003711720891)
(0.1002498419 -0.1231505306 -5.073709223e-19 -0.1000023164 -5.963736271e-19 -0.0002475255077)
(0.06136529194 -0.1093083324 3.888316115e-19 -0.0607487954 -1.549213991e-19 -0.0006164965409)
(0.03752663345 -0.09452145161 -7.219813596e-19 -0.03660554565 -1.68295484e-18 -0.0009210878028)
(0.0213377916 -0.07941775318 6.411315868e-20 -0.02016538982 9.788554332e-19 -0.001172401781)
(0.01016343305 -0.06630017293 -1.666883787e-18 -0.008786221537 -5.863816788e-19 -0.001377211509)
(0.0007685251612 -0.05408944571 5.355254289e-19 0.0007604694325 6.439406439e-20 -0.001528994594)
(-0.006268855518 -0.04358462316 -1.566183726e-18 0.007894295082 -1.5970538e-18 -0.001625439564)
(-0.0131076055 -0.03426530356 6.464432126e-19 0.014751945 -7.380990516e-19 -0.0016443395)
(-0.01850608613 -0.02627857698 9.97523306e-19 0.02008011767 -1.266697973e-18 -0.001574031537)
(-0.02411860846 -0.01975593177 3.492262395e-19 0.02549143208 9.988574404e-19 -0.001372823614)
(-0.02895297165 -0.01448514379 -1.644127031e-18 0.02996380189 9.780333322e-19 -0.001010830244)
(-0.03342786909 -0.0111644412 1.310840592e-18 0.03384983506 2.715162742e-19 -0.0004219659662)
(0.1146884189 -0.1123259151 -8.259886979e-21 -0.1144109507 -7.771949942e-19 -0.0002774681825)
(0.07786902377 -0.1059381512 2.261299715e-19 -0.07717795891 2.035288113e-19 -0.0006910648546)
(0.05389777423 -0.095140637 5.077062776e-19 -0.05286569193 2.928700935e-19 -0.001032082307)
(0.0364895213 -0.08227385313 -1.29403362e-19 -0.03517663505 -1.476038825e-18 -0.001312886248)
(0.02387702804 -0.07045404194 1.872153684e-18 -0.02233611589 1.719105459e-18 -0.001540912148)
(0.01300211214 -0.05921994551 -5.048947847e-19 -0.01129319884 -1.669773869e-19 -0.001708913291)
(0.004556997183 -0.0493148453 7.660405376e-19 -0.002742584362 1.357299255e-18 -0.001814412821)
(-0.003474056798 -0.04066390552 6.324302456e-19 0.005306966245 -1.267891959e-18 -0.001832909448)
(-0.009943241235 -0.03311612921 -3.105745137e-19 0.01169508579 9.51712344e-19 -0.001751844557)
(-0.0163222435 -0.02724574382 1.327602022e-18 0.01784766873 -1.735930437e-19 -0.001525425231)
(-0.02172322937 -0.02249628003 1.841521231e-18 0.02284450772 -1.109913699e-18 -0.001121278349)
(-0.02640996608 -0.01984871523 4.917634236e-19 0.02687707997 1.520012382e-18 -0.0004671138891)
(0.1281322716 -0.09947213804 3.047393323e-19 -0.1278283225 -5.447458705e-19 -0.000303949177)
(0.0950004551 -0.09898857454 6.629203632e-19 -0.09424343122 -1.0995752e-18 -0.0007570238824)
(0.07166400643 -0.09165781887 -1.151090268e-18 -0.07053377809 -1.416850359e-18 -0.001130228335)
(0.05337730168 -0.08101754818 -1.58857152e-19 -0.05194026565 -4.0877663e-19 -0.001437036028)
(0.03946526918 -0.07067010958 9.783428386e-20 -0.0377798177 -1.799704801e-18 -0.001685451474)
(0.02718429165 -0.06064277504 5.955127451e-19 -0.02531670548 1.658245714e-18 -0.00186758617)
(0.01733226379 -0.05159998944 4.62192072e-19 -0.01535143343 -1.04036604e-18 -0.001980830355)
(0.008155399748 -0.04381742984 -2.39556996e-19 -0.006156722052 8.524639117e-19 -0.001998677696)
(0.00060189497 -0.03690841392 2.825084971e-18 0.0013059411 -1.667105935e-18 -0.00190783607)
(-0.006435622424 -0.03177589863 9.405673916e-19 0.008094588831 1.828669141e-18 -0.001658966407)
(-0.01236791024 -0.02761613506 -1.894935876e-18 0.01358554103 -1.592460104e-18 -0.001217630791)
(-0.01713590447 -0.02559109193 5.662791042e-19 0.01764220323 6.55274409e-19 -0.0005062987526)
(0.1401817104 -0.08463898291 3.592946724e-19 -0.1398549848 -1.238980729e-20 -0.0003267255728)
(0.1117052627 -0.08814755607 -1.079536731e-18 -0.1108915278 2.524249854e-19 -0.000813734824)
(0.08952247694 -0.08359966895 -5.479564436e-19 -0.08830788463 -7.280644708e-19 -0.001214592304)
(0.07064551772 -0.07511783353 1.412707168e-18 -0.06910180658 6.9277109e-19 -0.001543711134)
(0.05560067163 -0.06640417035 2.287724297e-19 -0.05379109162 -2.776479877e-18 -0.001809580014)
(0.04204202067 -0.05781411614 1.741564671e-18 -0.04003826958 3.4983929e-19 -0.002003751089)
(0.0308583232 -0.04991155949 -1.59635493e-18 -0.0287347969 -7.29307608e-19 -0.002123526303)
(0.0206269891 -0.04320684159 2.35314191e-18 -0.01848630386 -5.128384646e-19 -0.00214068524)
(0.01204220195 -0.03714135761 -2.184952924e-19 -0.010000825 -9.229045533e-19 -0.002041376953)
(0.004418771757 -0.03285011489 -2.153641925e-18 -0.0026455309 -1.908429677e-18 -0.001773240857)
(-0.001976769971 -0.02931075364 -8.18651634e-20 0.003276941549 6.195999282e-19 -0.001300171578)
(-0.006761620852 -0.02780097377 -3.957854921e-19 0.007301656451 -1.449970673e-18 -0.0005400355993)
(0.1504343235 -0.06798164767 6.979021556e-19 -0.1500888418 1.132220845e-18 -0.000345481719)
(0.1268605814 -0.07343988398 3.205063474e-19 -0.1260000715 -1.819369638e-19 -0.0008605098233)
(0.1060641274 -0.07092635185 1.051650164e-18 -0.1047799578 7.863653253e-19 -0.001284169568)
(0.08682227588 -0.06449844776 -1.199022878e-18 -0.08519062816 -8.754668561e-19 -0.001631647723)
(0.07083401835 -0.0575617925 -1.57022183e-19 -0.06892223954 1.703868129e-19 -0.001911778807)
(0.05617354932 -0.05062365632 -2.856071281e-19 -0.05405787515 -1.69333016e-18 -0.00211567417)
(0.04380036152 -0.04414109377 -1.556379388e-19 -0.04155985154 -1.133501698e-18 -0.002240509978)
(0.03265785466 -0.03869505689 4.256579889e-20 -0.03040112359 3.130686662e-19 -0.00225673107)
(0.02313120594 -0.03371192391 -1.162295805e-18 -0.02098122547 -6.725725989e-19 -0.002149980472)
(0.01506774388 -0.03029067469 -4.702725638e-19 -0.0132021372 -4.518595963e-22 -0.00186560668)
(0.008254163506 -0.02745749523 7.754443028e-20 -0.006887972922 -1.392615237e-18 -0.001366190584)
(0.00358621753 -0.02638252349 1.876330266e-19 -0.003019764951 1.143735287e-18 -0.0005664525799)
(0.1585112042 -0.04976523262 -3.770358643e-19 -0.1581510627 7.842951845e-20 -0.0003601415435)
(0.1393726465 -0.05526196346 -1.600748017e-18 -0.138475617 6.670333329e-20 -0.0008970295455)
(0.1199168787 -0.05406801122 -1.009534737e-18 -0.1185783825 -7.548472407e-19 -0.001338496204)
(0.1004720441 -0.04958101268 -6.372038793e-19 -0.09877173542 -8.094487409e-19 -0.001700308677)
(0.08375599265 -0.04453821407 1.120126011e-18 -0.08176441248 -1.492619123e-19 -0.001991580167)
(0.06821939637 -0.03943598178 -9.464113673e-19 -0.06601635543 -7.596838031e-19 -0.002203040934)
(0.05488468003 -0.03461197505 -5.408030199e-20 -0.05255285022 -3.514607984e-19 -0.002331829813)
(0.04300193374 -0.03058879661 1.997732648e-18 -0.04065462843 -1.242935267e-18 -0.002347305313)