/*--------------------------------*- C++ -*----------------------------------*\
| =========                 |                                                 |
| \\      /  F ield         | OpenFOAM: The Open Source CFD Toolbox           |
|  \\    /   O peration     | Version:  2.2.0                                 |
|   \\  /    A nd           | Web:      www.OpenFOAM.org                      |
|    \\/     M anipulation  |                                                 |
\*---------------------------------------------------------------------------*/
FoamFile
{
    version     2.0;
    format      ascii;
    class       volVectorField;
    location    "16";
    object      s;
}
// * * * * * * * * * * * * * * * * * * * * * * * * * * * * * * * * * * * * * //

dimensions      [0 1 -1 0 0 0 0];

internalField   nonuniform List<vector> 
7920
(
(0.530411 0.465011 0.106215)
(0.50343 0.440965 0.16709)
(0.473331 0.414095 0.231366)
(0.440514 0.384732 0.297831)
(0.405208 0.353334 0.365014)
(0.365495 0.318103 0.43038)
(0.325315 0.284642 0.491552)
(0.273086 0.241494 0.541253)
(0.567312 0.37888 0.14787)
(0.538398 0.359054 0.207355)
(0.506145 0.336871 0.270125)
(0.471186 0.31271 0.335067)
(0.433178 0.2867 0.400828)
(0.39177 0.258272 0.465441)
(0.347677 0.230861 0.526924)
(0.298286 0.198646 0.581876)
(0.584014 0.287908 0.214922)
(0.554399 0.272982 0.270718)
(0.521358 0.256253 0.329532)
(0.485606 0.238073 0.390381)
(0.446646 0.218447 0.452111)
(0.404518 0.197464 0.513196)
(0.35967 0.177026 0.572131)
(0.310281 0.155607 0.627065)
(0.58018 0.196901 0.314517)
(0.551715 0.187029 0.361833)
(0.519866 0.175901 0.411779)
(0.48534 0.163764 0.463608)
(0.447545 0.150591 0.51647)
(0.40689 0.136663 0.569305)
(0.363428 0.123059 0.621048)
(0.31704 0.109852 0.67078)
(0.56351 0.112094 0.434701)
(0.537765 0.106895 0.468518)
(0.508653 0.100949 0.50477)
(0.476804 0.0943931 0.543089)
(0.441542 0.0871912 0.583064)
(0.403387 0.0795716 0.624145)
(0.362263 0.0720644 0.665741)
(0.318834 0.0651153 0.707496)
(0.547857 0.0359141 0.525152)
(0.524637 0.0343693 0.547148)
(0.498027 0.0325728 0.57167)
(0.468585 0.0305654 0.598687)
(0.435568 0.028332 0.628148)
(0.399535 0.0259565 0.659865)
(0.360326 0.0236063 0.693555)
(0.319076 0.0214849 0.729128)
(0.547857 -0.0359141 0.525152)
(0.524637 -0.0343694 0.547148)
(0.498027 -0.032573 0.57167)
(0.468584 -0.0305657 0.598687)
(0.435568 -0.0283323 0.628148)
(0.399534 -0.0259567 0.659865)
(0.360326 -0.0236064 0.693555)
(0.319076 -0.0214848 0.729128)
(0.56351 -0.112094 0.434701)
(0.537765 -0.106895 0.468518)
(0.508652 -0.100949 0.50477)
(0.476803 -0.0943933 0.543089)
(0.441541 -0.0871914 0.583064)
(0.403387 -0.0795717 0.624145)
(0.362262 -0.0720645 0.665741)
(0.318834 -0.0651152 0.707496)
(0.580179 -0.196901 0.314517)
(0.551714 -0.187029 0.361833)
(0.519866 -0.175901 0.411779)
(0.485339 -0.163764 0.463608)
(0.447545 -0.150591 0.51647)
(0.406889 -0.136663 0.569305)
(0.363427 -0.123059 0.621048)
(0.31704 -0.109852 0.670781)
(0.584014 -0.287908 0.214922)
(0.554398 -0.272981 0.270718)
(0.521358 -0.256252 0.329532)
(0.485605 -0.238073 0.390381)
(0.446646 -0.218448 0.452111)
(0.404518 -0.197464 0.513196)
(0.35967 -0.177026 0.572131)
(0.310281 -0.155607 0.627065)
(0.567311 -0.37888 0.14787)
(0.538398 -0.359054 0.207355)
(0.506144 -0.33687 0.270125)
(0.471185 -0.312709 0.335067)
(0.433177 -0.286699 0.400828)
(0.39177 -0.258271 0.465441)
(0.347677 -0.23086 0.526924)
(0.298287 -0.198645 0.581876)
(0.53041 -0.46501 0.106215)
(0.503429 -0.440964 0.167091)
(0.47333 -0.414095 0.231366)
(0.440513 -0.384732 0.297831)
(0.405207 -0.353334 0.365014)
(0.365494 -0.318102 0.43038)
(0.325314 -0.284642 0.491553)
(0.273085 -0.241493 0.541253)
(0.218463 0.191472 0.0294534)
(0.220584 0.193097 0.0532336)
(0.22187 0.194003 0.0806486)
(0.222041 0.193956 0.111954)
(0.220606 0.192702 0.146989)
(0.216747 0.18942 0.185419)
(0.20996 0.185094 0.225112)
(0.198068 0.176377 0.264313)
(0.246861 0.165 0.0428498)
(0.248294 0.166096 0.0673947)
(0.248687 0.166591 0.095597)
(0.247803 0.166375 0.127728)
(0.244923 0.16517 0.163761)
(0.239642 0.162785 0.203515)
(0.230628 0.159508 0.24585)
(0.217844 0.154992 0.289974)
(0.273125 0.13481 0.0670418)
(0.273345 0.135214 0.0919431)
(0.272356 0.135149 0.120453)
(0.269904 0.134555 0.152872)
(0.265275 0.133233 0.189293)
(0.258095 0.131208 0.229729)
(0.247291 0.128582 0.273687)
(0.232597 0.125964 0.320957)
(0.300326 0.102068 0.105984)
(0.298642 0.101806 0.129394)
(0.295624 0.101223 0.15622)
(0.291061 0.100305 0.186815)
(0.284287 0.0989458 0.221412)
(0.275098 0.0972555 0.260232)
(0.262521 0.0953214 0.303294)
(0.246878 0.0938601 0.35084)
(0.325396 0.0647931 0.155943)
(0.321301 0.064164 0.175395)
(0.315825 0.0633536 0.198072)
(0.308797 0.0623634 0.224442)
(0.299653 0.0611532 0.254925)
(0.288288 0.0598172 0.289987)
(0.273933 0.0584063 0.33005)
(0.257088 0.0574568 0.375759)
(0.34194 0.0224362 0.194945)
(0.335977 0.0221137 0.210306)
(0.328639 0.0217375 0.228828)
(0.319794 0.0213118 0.251101)
(0.308959 0.02083 0.2777)
(0.296087 0.0203299 0.309274)
(0.280527 0.0198349 0.346491)
(0.26288 0.019536 0.390228)
(0.34194 -0.0224361 0.194945)
(0.335977 -0.0221137 0.210306)
(0.328639 -0.0217374 0.228828)
(0.319794 -0.0213116 0.251101)
(0.308959 -0.0208298 0.2777)
(0.296087 -0.0203297 0.309274)
(0.280527 -0.0198349 0.346491)
(0.26288 -0.0195362 0.390228)
(0.325396 -0.0647932 0.155943)
(0.321301 -0.064164 0.175396)
(0.315826 -0.0633535 0.198072)
(0.308797 -0.0623632 0.224442)
(0.299654 -0.0611531 0.254925)
(0.288288 -0.0598171 0.289987)
(0.273934 -0.0584064 0.33005)
(0.257088 -0.057457 0.37576)
(0.300326 -0.102069 0.105984)
(0.298642 -0.101806 0.129395)
(0.295624 -0.101223 0.156221)
(0.291061 -0.100305 0.186815)
(0.284287 -0.0989456 0.221412)
(0.275099 -0.0972554 0.260233)
(0.262522 -0.0953215 0.303295)
(0.246878 -0.0938603 0.350841)
(0.273126 -0.13481 0.067042)
(0.273346 -0.135214 0.0919434)
(0.272356 -0.135149 0.120453)
(0.269905 -0.134555 0.152872)
(0.265275 -0.133233 0.189294)
(0.258095 -0.131208 0.22973)
(0.247291 -0.128582 0.273688)
(0.232597 -0.125965 0.320959)
(0.246861 -0.165 0.04285)
(0.248294 -0.166096 0.067395)
(0.248687 -0.166591 0.0955974)
(0.247803 -0.166375 0.127729)
(0.244923 -0.16517 0.163762)
(0.239642 -0.162785 0.203516)
(0.230628 -0.159509 0.245852)
(0.217844 -0.154993 0.289976)
(0.218464 -0.191472 0.0294535)
(0.220585 -0.193097 0.0532336)
(0.221871 -0.194003 0.0806488)
(0.222041 -0.193956 0.111954)
(0.220606 -0.192702 0.146989)
(0.216747 -0.18942 0.18542)
(0.20996 -0.185094 0.225113)
(0.198068 -0.176378 0.264316)
(0.130711 0.114483 0.00391918)
(0.13279 0.115998 0.0136492)
(0.134792 0.117427 0.0249992)
(0.13667 0.118735 0.0381589)
(0.138097 0.119745 0.0532186)
(0.138837 0.120221 0.0701743)
(0.137977 0.120248 0.088483)
(0.135203 0.118887 0.107216)
(0.147799 0.0987628 0.00541173)
(0.149646 0.100032 0.015815)
(0.151323 0.101239 0.0279345)
(0.152785 0.102396 0.0419897)
(0.153608 0.10334 0.0581498)
(0.15368 0.104141 0.07653)
(0.151839 0.104614 0.0970422)
(0.14845 0.105508 0.119442)
(0.163718 0.0808137 0.00910916)
(0.165108 0.0816932 0.0202652)
(0.166241 0.0825328 0.0332359)
(0.167043 0.0833456 0.0482711)
(0.167115 0.0840334 0.0656067)
(0.166297 0.0847089 0.0854727)
(0.163709 0.0852428 0.108053)
(0.159367 0.0865117 0.133519)
(0.180668 0.0614176 0.0159188)
(0.181249 0.0618419 0.0274861)
(0.181497 0.0622469 0.0409253)
(0.181345 0.0626546 0.0565131)
(0.180439 0.0630245 0.0745405)
(0.178668 0.0634684 0.0953278)
(0.175305 0.0639482 0.119249)
(0.170559 0.0651247 0.146726)
(0.196463 0.0391312 0.0252136)
(0.195908 0.0391616 0.0365662)
(0.194972 0.0391829 0.0498127)
(0.193598 0.0392118 0.0652604)
(0.1915 0.0392401 0.0832515)
(0.188593 0.039342 0.104184)
(0.184328 0.0395104 0.128562)
(0.178907 0.0401512 0.156998)
(0.206991 0.013586 0.0327157)
(0.205497 0.0135409 0.0435727)
(0.203608 0.0134956 0.0563385)
(0.201281 0.013458 0.0713469)
(0.198279 0.0134297 0.0889782)
(0.194541 0.0134382 0.109681)
(0.189612 0.013488 0.134033)
(0.183697 0.0137136 0.162749)
(0.206991 -0.013586 0.0327157)
(0.205497 -0.0135409 0.0435728)
(0.203608 -0.0134957 0.0563385)
(0.201281 -0.0134581 0.0713469)
(0.198279 -0.0134297 0.0889782)
(0.194541 -0.0134381 0.109681)
(0.189612 -0.0134877 0.134033)
(0.183697 -0.0137131 0.162749)
(0.196463 -0.0391312 0.0252136)
(0.195908 -0.0391617 0.0365662)
(0.194972 -0.039183 0.0498127)
(0.193598 -0.0392119 0.0652604)
(0.1915 -0.0392401 0.0832514)
(0.188593 -0.039342 0.104184)
(0.184328 -0.0395101 0.128562)
(0.178907 -0.0401507 0.156997)
(0.180668 -0.0614176 0.0159188)
(0.181249 -0.0618419 0.0274861)
(0.181497 -0.062247 0.0409253)
(0.181345 -0.0626547 0.0565131)
(0.180439 -0.0630246 0.0745405)
(0.178668 -0.0634684 0.0953277)
(0.175305 -0.063948 0.119248)
(0.170559 -0.0651242 0.146726)
(0.163718 -0.0808138 0.00910917)
(0.165108 -0.0816933 0.0202652)
(0.166241 -0.0825329 0.0332359)
(0.167043 -0.0833458 0.0482711)
(0.167116 -0.0840335 0.0656066)
(0.166297 -0.084709 0.0854726)
(0.163709 -0.0852427 0.108053)
(0.159367 -0.0865113 0.133519)
(0.147799 -0.0987629 0.00541172)
(0.149646 -0.100032 0.0158149)
(0.151323 -0.101239 0.0279345)
(0.152785 -0.102396 0.0419896)
(0.153608 -0.10334 0.0581496)
(0.15368 -0.104141 0.0765298)
(0.15184 -0.104614 0.0970419)
(0.14845 -0.105508 0.119441)
(0.130711 -0.114483 0.00391922)
(0.13279 -0.115998 0.0136493)
(0.134792 -0.117427 0.0249993)
(0.13667 -0.118735 0.0381589)
(0.138097 -0.119745 0.0532185)
(0.138837 -0.120221 0.0701742)
(0.137977 -0.120248 0.0884827)
(0.135203 -0.118887 0.107216)
(0.0652626 0.0571484 -0.00549513)
(0.0663826 0.0579481 -0.000963912)
(0.0675263 0.0587544 0.00437554)
(0.06868 0.0595595 0.0106442)
(0.069691 0.0602838 0.0179383)
(0.0705222 0.0608807 0.0263067)
(0.0705917 0.061291 0.0356257)
(0.0700713 0.0613056 0.0454303)
(0.0739598 0.0494283 -0.00916882)
(0.074975 0.0501366 -0.00428287)
(0.0759699 0.0508605 0.00150467)
(0.0769287 0.0516128 0.0083493)
(0.0776582 0.0523217 0.0164102)
(0.078162 0.0530786 0.025833)
(0.0777917 0.0537092 0.0367495)
(0.0769022 0.0548378 0.0491303)
(0.0819972 0.04049 -0.0148013)
(0.0828161 0.0410228 -0.009311)
(0.0835751 0.0415755 -0.00278802)
(0.0842392 0.0421584 0.0049575)
(0.0846335 0.0427327 0.0141363)
(0.0847197 0.043386 0.0249754)
(0.0840289 0.0440075 0.0377448)
(0.0826727 0.0451743 0.0526796)
(0.0906524 0.030835 -0.0232076)
(0.0911159 0.0311451 -0.0167615)
(0.0914829 0.0314767 -0.00914067)
(0.0917208 0.0318435 -0.000136103)
(0.0916792 0.0322333 0.0104894)
(0.0913326 0.0327179 0.0230034)
(0.0903096 0.0332548 0.0377443)
(0.0887762 0.0342378 0.0550728)
(0.0986567 0.0196629 -0.0336023)
(0.0986071 0.019751 -0.0258532)
(0.0984379 0.0198538 -0.0168235)
(0.0981199 0.0199807 -0.00630914)
(0.097536 0.0201323 0.0059238)
(0.0966656 0.0203521 0.0201471)
(0.0952385 0.0206255 0.0367154)
(0.0933826 0.0211791 0.0560517)
(0.103991 0.00683041 -0.0415704)
(0.103509 0.006836 -0.0327263)
(0.102898 0.00684817 -0.0225573)
(0.102138 0.00687112 -0.0108743)
(0.101135 0.00690725 0.00254184)
(0.0998746 0.00697197 0.0179532)
(0.0981391 0.00706445 0.0357126)
(0.0960404 0.00725743 0.0562675)
(0.103991 -0.00683041 -0.0415704)
(0.103509 -0.00683599 -0.0327263)
(0.102898 -0.00684814 -0.0225572)
(0.102138 -0.00687109 -0.0108742)
(0.101135 -0.00690724 0.00254194)
(0.0998746 -0.00697201 0.0179533)
(0.0981391 -0.00706458 0.0357127)
(0.0960404 -0.00725768 0.0562677)
(0.0986567 -0.0196629 -0.0336022)
(0.0986072 -0.019751 -0.0258531)
(0.098438 -0.0198538 -0.0168233)
(0.0981199 -0.0199807 -0.00630892)
(0.097536 -0.0201323 0.00592408)
(0.0966656 -0.0203521 0.0201474)
(0.0952386 -0.0206257 0.0367158)
(0.0933826 -0.0211793 0.0560522)
(0.0906524 -0.030835 -0.0232075)
(0.0911158 -0.031145 -0.0167614)
(0.0914829 -0.0314767 -0.00914046)
(0.0917208 -0.0318435 -0.000135813)
(0.0916792 -0.0322333 0.0104897)
(0.0913326 -0.0327179 0.0230038)
(0.0903096 -0.0332549 0.0377449)
(0.0887762 -0.034238 0.0550736)
(0.0819971 -0.04049 -0.0148012)
(0.0828161 -0.0410228 -0.00931081)
(0.0835751 -0.0415754 -0.00278776)
(0.0842392 -0.0421583 0.00495786)
(0.0846335 -0.0427327 0.0141367)
(0.0847197 -0.043386 0.024976)
(0.0840289 -0.0440076 0.0377456)
(0.0826726 -0.0451745 0.0526807)
(0.0739597 -0.0494283 -0.00916868)
(0.0749749 -0.0501365 -0.00428267)
(0.0759698 -0.0508604 0.00150496)
(0.0769286 -0.0516127 0.0083497)
(0.0776581 -0.0523216 0.0164107)
(0.0781618 -0.0530786 0.0258338)
(0.0777916 -0.0537093 0.0367506)
(0.076902 -0.0548381 0.0491318)
(0.0652627 -0.0571484 -0.00549509)
(0.0663826 -0.0579481 -0.00096384)
(0.0675263 -0.0587545 0.00437567)
(0.0686799 -0.0595596 0.0106444)
(0.0696909 -0.0602838 0.0179387)
(0.0705221 -0.0608808 0.0263073)
(0.0705915 -0.0612911 0.0356267)
(0.0700712 -0.0613059 0.0454319)
(0.0342188 0.0299617 -0.0109472)
(0.0348231 0.0303919 -0.00943815)
(0.0354486 0.0308321 -0.00760756)
(0.0360945 0.0312838 -0.00538749)
(0.0366838 0.0317066 -0.00270635)
(0.0372098 0.0320916 0.000499858)
(0.0373582 0.0323903 0.00426715)
(0.0372551 0.0325603 0.00849886)
(0.0387378 0.0258893 -0.0175674)
(0.0392889 0.0262754 -0.0158778)
(0.0398396 0.0266764 -0.0137806)
(0.0403874 0.0271031 -0.0111746)
(0.040837 0.0275211 -0.00793999)
(0.0411973 0.0279865 -0.00394538)
(0.0411322 0.0284019 0.000975949)
(0.0408404 0.0291336 0.00692598)
(0.0428973 0.0211847 -0.0285097)
(0.0433526 0.0214823 -0.0262967)
(0.0437885 0.0217969 -0.0235349)
(0.0441931 0.0221369 -0.0200916)
(0.0444814 0.0224852 -0.0158095)
(0.0446397 0.0228919 -0.0105097)
(0.0444281 0.0232981 -0.00396795)
(0.0439171 0.024023 0.00402795)
(0.0473458 0.0161071 -0.0455422)
(0.0476279 0.0162891 -0.0420632)
(0.0478739 0.0164879 -0.0378563)
(0.0480728 0.0167127 -0.0327786)
(0.0481533 0.0169595 -0.0266676)
(0.0481063 0.0172675 -0.0193428)
(0.0477458 0.0176151 -0.0105831)
(0.0471621 0.0182143 -0.000161461)
(0.0514282 0.0102521 -0.067042)
(0.0514597 0.0103146 -0.0614009)
(0.0514446 0.0103883 -0.0548885)
(0.0513741 0.0104797 -0.0473904)
(0.0511938 0.01059 -0.0387816)
(0.050896 0.0107428 -0.0289252)
(0.0503479 0.0109313 -0.0176493)
(0.0496154 0.0112745 -0.0047571)
(0.0541342 0.0035565 -0.083708)
(0.0539535 0.00356591 -0.0760756)
(0.0537228 0.00358001 -0.0675172)
(0.0534371 0.00360142 -0.0579587)
(0.0530537 0.00363176 -0.047321)
(0.0525678 0.00367921 -0.0355142)
(0.0518737 0.00374356 -0.0224107)
(0.0510262 0.00386276 -0.00784236)
(0.0541342 -0.0035565 -0.083708)
(0.0539536 -0.00356591 -0.0760756)
(0.0537229 -0.00358002 -0.0675172)
(0.0534371 -0.00360143 -0.0579587)
(0.0530537 -0.00363174 -0.047321)
(0.0525678 -0.00367914 -0.0355142)
(0.0518737 -0.00374342 -0.0224107)
(0.0510263 -0.00386252 -0.0078424)
(0.0514283 -0.0102521 -0.067042)
(0.0514598 -0.0103146 -0.0614009)
(0.0514447 -0.0103883 -0.0548886)
(0.0513742 -0.0104797 -0.0473905)
(0.0511938 -0.01059 -0.0387816)
(0.0508961 -0.0107428 -0.0289252)
(0.050348 -0.0109312 -0.0176493)
(0.0496154 -0.0112743 -0.0047572)
(0.0473459 -0.0161071 -0.0455422)
(0.047628 -0.0162891 -0.0420633)
(0.047874 -0.0164879 -0.0378563)
(0.0480729 -0.0167128 -0.0327786)
(0.0481534 -0.0169595 -0.0266676)
(0.0481064 -0.0172675 -0.0193429)
(0.0477458 -0.017615 -0.0105832)
(0.0471623 -0.0182141 -0.00016164)
(0.0428975 -0.0211848 -0.0285097)
(0.0433527 -0.0214824 -0.0262967)
(0.0437887 -0.021797 -0.0235349)
(0.0441932 -0.022137 -0.0200917)
(0.0444816 -0.0224853 -0.0158096)
(0.0446398 -0.0228919 -0.0105098)
(0.0444282 -0.023298 -0.00396813)
(0.0439172 -0.0240228 0.00402768)
(0.038738 -0.0258894 -0.0175674)
(0.0392891 -0.0262755 -0.0158779)
(0.0398398 -0.0266765 -0.0137806)
(0.0403876 -0.0271032 -0.0111747)
(0.0408372 -0.0275212 -0.00794013)
(0.0411975 -0.0279865 -0.00394558)
(0.0411325 -0.0284019 0.000975667)
(0.0408407 -0.0291334 0.00692557)
(0.0342189 -0.0299617 -0.0109472)
(0.0348232 -0.030392 -0.00943815)
(0.0354487 -0.0308322 -0.00760758)
(0.0360947 -0.0312839 -0.00538753)
(0.036684 -0.0317066 -0.00270644)
(0.03721 -0.0320917 0.00049971)
(0.0373585 -0.0323903 0.0042669)
(0.0372553 -0.0325602 0.00849842)
(0.0158236 0.0138535 -0.0134277)
(0.0161062 0.0140512 -0.0132892)
(0.0164006 0.0142545 -0.0130487)
(0.0167065 0.0144643 -0.0126618)
(0.0169885 0.0146619 -0.0120711)
(0.0172464 0.0148459 -0.0112056)
(0.0173304 0.0149897 -0.00997324)
(0.0173113 0.0150832 -0.00828496)
(0.0179179 0.0119744 -0.021445)
(0.018176 0.0121532 -0.0212247)
(0.0184361 0.0123401 -0.020821)
(0.0186968 0.01254 -0.0201572)
(0.0189149 0.0127372 -0.0191332)
(0.0190967 0.0129596 -0.0176251)
(0.019084 0.0131589 -0.0154645)
(0.0189781 0.013515 -0.0124817)
(0.0198389 0.0097974 -0.0349338)
(0.0200538 0.0099367 -0.0342464)
(0.020262 0.0100849 -0.0332309)
(0.0204576 0.0102457 -0.0317798)
(0.0206023 0.0104116 -0.0297613)
(0.0206917 0.0106067 -0.0270201)
(0.0206135 0.0108018 -0.0233641)
(0.0204062 0.0111504 -0.018593)
(0.0218948 0.00744901 -0.0561444)
(0.0220316 0.00753578 -0.0540595)
(0.0221541 0.00763121 -0.0514504)
(0.0222569 0.00773947 -0.0482036)
(0.0223079 0.00785892 -0.0441917)
(0.0223046 0.00800819 -0.0392762)
(0.0221607 0.00817629 -0.0332987)
(0.0219223 0.00846373 -0.0261004)
(0.0237782 0.00474048 -0.0830522)
(0.0238017 0.00477164 -0.0784013)
(0.0238061 0.00480858 -0.0730652)
(0.0237869 0.00485415 -0.0669699)
(0.0237201 0.00490916 -0.0600415)
(0.0236032 0.00498456 -0.0522081)
(0.0233754 0.00507669 -0.04339)
(0.0230695 0.00524138 -0.0335049)
(0.0250259 0.00164429 -0.103969)
(0.0249532 0.00164958 -0.0968968)
(0.0248597 0.00165723 -0.08908)
(0.0247429 0.00166844 -0.080497)
(0.024584 0.00168399 -0.0711351)
(0.0243817 0.00170768 -0.0609869)
(0.0240881 0.00173929 -0.0500369)
(0.0237299 0.00179648 -0.0382575)
(0.0250259 -0.00164429 -0.103969)
(0.0249532 -0.00164958 -0.0968968)
(0.0248597 -0.00165723 -0.08908)
(0.0247429 -0.00166845 -0.080497)
(0.024584 -0.001684 -0.071135)
(0.0243817 -0.00170772 -0.0609868)
(0.0240881 -0.00173935 -0.0500368)
(0.0237299 -0.00179657 -0.0382574)
(0.0237782 -0.00474048 -0.0830522)
(0.0238017 -0.00477164 -0.0784013)
(0.0238061 -0.00480858 -0.0730652)
(0.0237869 -0.00485416 -0.0669698)
(0.0237201 -0.00490918 -0.0600414)
(0.0236032 -0.00498459 -0.052208)
(0.0233754 -0.00507674 -0.0433898)
(0.0230695 -0.00524146 -0.0335047)
(0.0218948 -0.007449 -0.0561444)
(0.0220316 -0.00753578 -0.0540595)
(0.0221541 -0.00763121 -0.0514503)
(0.0222568 -0.00773947 -0.0482035)
(0.0223079 -0.00785893 -0.0441916)
(0.0223045 -0.00800821 -0.039276)
(0.0221607 -0.00817633 -0.0332984)
(0.0219223 -0.00846379 -0.0261001)
(0.0198389 -0.00979738 -0.0349337)
(0.0200537 -0.00993668 -0.0342464)
(0.0202619 -0.0100849 -0.0332308)
(0.0204576 -0.0102457 -0.0317797)
(0.0206023 -0.0104116 -0.0297611)
(0.0206916 -0.0106067 -0.0270199)
(0.0206134 -0.0108018 -0.0233638)
(0.0204062 -0.0111504 -0.0185927)
(0.0179179 -0.0119743 -0.021445)
(0.018176 -0.0121532 -0.0212246)
(0.0184361 -0.0123401 -0.0208209)
(0.0186968 -0.0125399 -0.0201571)
(0.0189148 -0.0127371 -0.019133)
(0.0190966 -0.0129596 -0.0176249)
(0.0190839 -0.0131589 -0.0154642)
(0.018978 -0.013515 -0.0124813)
(0.0158236 -0.0138535 -0.0134277)
(0.0161061 -0.0140511 -0.0132892)
(0.0164005 -0.0142545 -0.0130486)
(0.0167064 -0.0144643 -0.0126617)
(0.0169885 -0.0146619 -0.012071)
(0.0172464 -0.0148459 -0.0112054)
(0.0173303 -0.0149898 -0.00997292)
(0.0173112 -0.0150832 -0.00828447)
(0.0071599 0.00626813 -0.0147113)
(0.00728854 0.00635783 -0.0152832)
(0.00742285 0.00645025 -0.0158673)
(0.00756278 0.00654584 -0.0164318)
(0.00769272 0.00663634 -0.0169274)
(0.00781252 0.00672149 -0.0172799)
(0.00785503 0.00678878 -0.0173714)
(0.00785266 0.00683655 -0.0170121)
(0.00810848 0.00541866 -0.0234413)
(0.00822594 0.00549993 -0.0239795)
(0.00834463 0.00558504 -0.0244512)
(0.00846405 0.00567625 -0.0247928)
(0.00856509 0.00576674 -0.0249157)
(0.00865051 0.00586916 -0.0247011)
(0.00864959 0.00596185 -0.0239831)
(0.00860831 0.00612711 -0.0225573)
(0.00897991 0.00443463 -0.038223)
(0.00907782 0.00449805 -0.0383207)
(0.0091731 0.00456566 -0.0382056)
(0.00926321 0.00463923 -0.0377841)
(0.0093313 0.00471551 -0.0369394)
(0.00937523 0.00480534 -0.0355306)
(0.00934496 0.00489584 -0.0333854)
(0.00925829 0.00505642 -0.0303135)
(0.0099106 0.00337173 -0.0615462)
(0.00997336 0.00341136 -0.0601778)
(0.0100301 0.00345505 -0.0583924)
(0.0100785 0.00350472 -0.0560933)
(0.0101045 0.00355978 -0.0531728)
(0.0101069 0.00362855 -0.0495167)
(0.0100474 0.00370632 -0.0450029)
(0.00994675 0.00383832 -0.0395126)
(0.0107623 0.00214561 -0.0911787)
(0.0107741 0.00216003 -0.0870391)
(0.0107777 0.00217716 -0.0823133)
(0.0107714 0.00219832 -0.0769496)
(0.0107446 0.00222396 -0.0709026)
(0.0106961 0.00225895 -0.0641364)
(0.0105991 0.00230182 -0.0566227)
(0.0104681 0.00237755 -0.0483435)
(0.0113255 0.00074412 -0.114232)
(0.011294 0.000746628 -0.107454)
(0.0112537 0.000750239 -0.100029)
(0.0112035 0.000755498 -0.0919627)
(0.0111354 0.000762782 -0.0832793)
(0.0110487 0.000773794 -0.0740166)
(0.0109222 0.000788474 -0.0642204)
(0.0107677 0.000814724 -0.053941)
(0.0113255 -0.00074412 -0.114232)
(0.011294 -0.000746628 -0.107454)
(0.0112537 -0.000750239 -0.100029)
(0.0112035 -0.000755496 -0.0919627)
(0.0111354 -0.000762774 -0.0832793)
(0.0110487 -0.000773775 -0.0740166)
(0.0109222 -0.00078844 -0.0642204)
(0.0107678 -0.00081467 -0.053941)
(0.0107624 -0.00214561 -0.0911787)
(0.0107741 -0.00216003 -0.0870391)
(0.0107778 -0.00217717 -0.0823133)
(0.0107714 -0.00219833 -0.0769496)
(0.0107446 -0.00222396 -0.0709026)
(0.0106962 -0.00225894 -0.0641364)
(0.0105991 -0.00230179 -0.0566227)
(0.0104681 -0.0023775 -0.0483435)
(0.00991064 -0.00337174 -0.0615463)
(0.0099734 -0.00341137 -0.0601778)
(0.0100301 -0.00345506 -0.0583924)
(0.0100785 -0.00350474 -0.0560933)
(0.0101046 -0.00355979 -0.0531728)
(0.010107 -0.00362855 -0.0495167)
(0.0100475 -0.0037063 -0.0450029)
(0.00994679 -0.00383828 -0.0395126)
(0.00897996 -0.00443465 -0.038223)
(0.00907787 -0.00449808 -0.0383207)
(0.00917315 -0.00456568 -0.0382056)
(0.00926326 -0.00463926 -0.0377841)
(0.00933136 -0.00471553 -0.0369395)
(0.00937528 -0.00480535 -0.0355306)
(0.00934501 -0.00489584 -0.0333855)
(0.00925833 -0.0050564 -0.0303136)
(0.00810853 -0.00541869 -0.0234413)
(0.00822599 -0.00549997 -0.0239796)
(0.00834469 -0.00558507 -0.0244512)
(0.00846411 -0.00567627 -0.0247928)
(0.00856516 -0.00576677 -0.0249157)
(0.00865058 -0.00586917 -0.0247011)
(0.00864966 -0.00596185 -0.0239831)
(0.00860838 -0.00612708 -0.0225574)
(0.00715993 -0.00626817 -0.0147113)
(0.00728858 -0.00635786 -0.0152833)
(0.00742289 -0.00645028 -0.0158673)
(0.00756283 -0.00654587 -0.0164319)
(0.00769278 -0.00663637 -0.0169274)
(0.00781257 -0.00672151 -0.01728)
(0.00785509 -0.0067888 -0.0173715)
(0.0078527 -0.00683655 -0.0170122)
(0.00296503 0.00259557 -0.0152808)
(0.00301848 0.00263242 -0.0161675)
(0.00307432 0.00267036 -0.0171166)
(0.00313251 0.00270957 -0.0181019)
(0.00318663 0.00274661 -0.0190778)
(0.00323658 0.00278143 -0.0199683)
(0.00325452 0.00280866 -0.0206447)
(0.00325404 0.00282793 -0.0208717)
(0.00335812 0.00224401 -0.0243305)
(0.00340695 0.00227744 -0.0252059)
(0.00345633 0.00231243 -0.0260661)
(0.00350604 0.00234991 -0.0268535)
(0.00354822 0.00238707 -0.0274845)
(0.00358399 0.00242913 -0.0278423)
(0.00358399 0.00246704 -0.0277623)
(0.00356773 0.00253527 -0.0270242)
(0.00371902 0.00183651 -0.0396943)
(0.00375978 0.00186262 -0.0401418)
(0.00379951 0.00189045 -0.0404273)
(0.00383711 0.00192071 -0.0404633)
(0.00386566 0.00195206 -0.0401394)
(0.00388426 0.00198897 -0.0393205)
(0.00387215 0.00202606 -0.0378438)
(0.00383703 0.00209224 -0.0355223)
(0.00410423 0.00139626 -0.0639718)
(0.00413052 0.00141261 -0.0629229)
(0.00415435 0.00143062 -0.0615044)
(0.00417477 0.00145109 -0.0596263)
(0.004186 0.00147377 -0.0571898)
(0.00418747 0.00150208 -0.0540911)
(0.00416339 0.00153406 -0.0502241)
(0.00412255 0.00158848 -0.0454873)
(0.00445678 0.000888487 -0.0948377)
(0.00446207 0.000894448 -0.0909254)
(0.00446402 0.000901524 -0.0864703)
(0.00446187 0.000910254 -0.0814304)
(0.00445128 0.000920821 -0.0757725)
(0.00443178 0.00093523 -0.0694768)
(0.00439223 0.00095286 -0.0625375)
(0.00433887 0.000984042 -0.054965)
(0.00468978 0.000308123 -0.118859)
(0.00467723 0.00030916 -0.112211)
(0.00466106 0.00031065 -0.104957)
(0.00464083 0.000312816 -0.097118)
(0.0046132 0.000315814 -0.0887319)
(0.00457792 0.000320341 -0.0798574)
(0.00452622 0.00032637 -0.0705671)
(0.00446315 0.000337165 -0.0609461)
(0.00468978 -0.000308123 -0.118859)
(0.00467723 -0.00030916 -0.112211)
(0.00466106 -0.000310651 -0.104957)
(0.00464083 -0.000312819 -0.097118)
(0.0046132 -0.000315818 -0.0887319)
(0.00457791 -0.000320347 -0.0798573)
(0.00452622 -0.00032638 -0.0705671)
(0.00446315 -0.000337179 -0.060946)
(0.00445678 -0.000888487 -0.0948377)
(0.00446207 -0.000894449 -0.0909254)
(0.00446402 -0.000901525 -0.0864703)
(0.00446187 -0.000910256 -0.0814304)
(0.00445128 -0.000920824 -0.0757725)
(0.00443178 -0.000935235 -0.0694768)
(0.00439222 -0.000952869 -0.0625375)
(0.00433886 -0.000984054 -0.0549649)
(0.00410422 -0.00139626 -0.0639718)
(0.00413052 -0.00141261 -0.0629229)
(0.00415435 -0.00143062 -0.0615043)
(0.00417476 -0.00145109 -0.0596262)
(0.00418599 -0.00147377 -0.0571898)
(0.00418747 -0.00150208 -0.0540911)
(0.00416339 -0.00153406 -0.050224)
(0.00412255 -0.00158849 -0.0454872)
(0.00371901 -0.0018365 -0.0396943)
(0.00375978 -0.00186262 -0.0401418)
(0.0037995 -0.00189045 -0.0404273)
(0.00383711 -0.00192071 -0.0404633)
(0.00386565 -0.00195207 -0.0401393)
(0.00388426 -0.00198897 -0.0393205)
(0.00387214 -0.00202607 -0.0378437)
(0.00383702 -0.00209225 -0.0355222)
(0.00335811 -0.00224401 -0.0243305)
(0.00340694 -0.00227744 -0.0252059)
(0.00345632 -0.00231243 -0.0260661)
(0.00350603 -0.0023499 -0.0268535)
(0.00354821 -0.00238706 -0.0274845)
(0.00358398 -0.00242913 -0.0278422)
(0.00358399 -0.00246704 -0.0277623)
(0.00356772 -0.00253526 -0.0270241)
(0.00296503 -0.00259557 -0.0152808)
(0.00301847 -0.00263242 -0.0161675)
(0.00307431 -0.00267035 -0.0171166)
(0.0031325 -0.00270957 -0.0181019)
(0.00318662 -0.00274661 -0.0190777)
(0.00323657 -0.00278143 -0.0199683)
(0.00325451 -0.00280866 -0.0206447)
(0.00325402 -0.00282794 -0.0208716)
(0.001117 0.00097779 -0.0155275)
(0.00113719 0.000991673 -0.0165506)
(0.00115828 0.00100596 -0.0176579)
(0.00118027 0.00102073 -0.0188258)
(0.00120076 0.00103469 -0.0200098)
(0.00121967 0.00104783 -0.0211337)
(0.00122664 0.00105809 -0.0220639)
(0.00122663 0.00106553 -0.0225451)
(0.00126532 0.000845507 -0.024715)
(0.00128374 0.000858101 -0.0257363)
(0.00130239 0.000871287 -0.0267649)
(0.00132116 0.000885404 -0.0277454)
(0.00133715 0.000899423 -0.0285966)
(0.00135071 0.000915276 -0.0292025)
(0.0013509 0.000929609 -0.0293993)
(0.00134503 0.000955391 -0.0289596)
(0.00140175 0.000692191 -0.0403292)
(0.00141713 0.000702027 -0.040928)
(0.00143213 0.000712507 -0.0413869)
(0.00144633 0.000723904 -0.041621)
(0.00145717 0.000735725 -0.0415227)
(0.00146426 0.000749624 -0.0409597)
(0.00145985 0.000763629 -0.039773)
(0.00144686 0.000788566 -0.0377775)
(0.0015472 0.000526346 -0.0650165)
(0.00155711 0.000532493 -0.0641059)
(0.0015661 0.000539269 -0.0628461)
(0.00157382 0.000546968 -0.0611505)
(0.00157812 0.000555508 -0.0589239)
(0.00157875 0.000566157 -0.0560672)
(0.00156982 0.000578212 -0.0524812)
(0.00155462 0.000598694 -0.0480723)
(0.00168035 0.000334982 -0.0964114)
(0.00168234 0.000337222 -0.0925978)
(0.00168308 0.000339882 -0.0882603)
(0.00168228 0.000343167 -0.083361)
(0.00167835 0.000347148 -0.0778725)
(0.00167106 0.000352571 -0.0717816)
(0.00165628 0.000359223 -0.0650925)
(0.00163633 0.000370957 -0.057828)
(0.00176825 0.000116172 -0.120848)
(0.00176351 0.000116558 -0.114257)
(0.00175741 0.000117115 -0.107078)
(0.00174981 0.000117926 -0.0993376)
(0.00173945 0.000119051 -0.0910816)
(0.00172621 0.000120749 -0.0823766)
(0.00170684 0.000123018 -0.0733074)
(0.00168322 0.000127072 -0.0639739)
(0.00176825 -0.000116172 -0.120848)
(0.00176351 -0.000116558 -0.114257)
(0.00175742 -0.000117115 -0.107078)
(0.00174981 -0.000117925 -0.0993376)
(0.00173945 -0.00011905 -0.0910816)
(0.00172621 -0.000120747 -0.0823766)
(0.00170685 -0.000123014 -0.0733074)
(0.00168322 -0.000127066 -0.0639739)
(0.00168036 -0.000334983 -0.0964114)
(0.00168234 -0.000337223 -0.0925978)
(0.00168308 -0.000339883 -0.0882603)
(0.00168229 -0.000343167 -0.083361)
(0.00167835 -0.000347148 -0.0778725)
(0.00167107 -0.00035257 -0.0717816)
(0.00165628 -0.00035922 -0.0650925)
(0.00163633 -0.000370952 -0.057828)
(0.00154721 -0.000526348 -0.0650165)
(0.00155712 -0.000532495 -0.0641059)
(0.00156611 -0.000539271 -0.0628461)
(0.00157383 -0.00054697 -0.0611505)
(0.00157813 -0.000555509 -0.0589239)
(0.00157876 -0.000566157 -0.0560672)
(0.00156982 -0.000578211 -0.0524812)
(0.00155462 -0.00059869 -0.0480723)
(0.00140176 -0.000692195 -0.0403292)
(0.00141714 -0.000702031 -0.040928)
(0.00143213 -0.000712511 -0.0413869)
(0.00144634 -0.000723908 -0.041621)
(0.00145718 -0.000735729 -0.0415227)
(0.00146427 -0.000749627 -0.0409597)
(0.00145986 -0.000763631 -0.039773)
(0.00144687 -0.000788564 -0.0377775)
(0.00126532 -0.000845511 -0.024715)
(0.00128375 -0.000858106 -0.0257363)
(0.0013024 -0.000871291 -0.0267649)
(0.00132117 -0.000885408 -0.0277454)
(0.00133716 -0.000899427 -0.0285966)
(0.00135072 -0.000915278 -0.0292025)
(0.00135091 -0.00092961 -0.0293993)
(0.00134505 -0.000955388 -0.0289596)
(0.00111701 -0.000977795 -0.0155275)
(0.00113719 -0.000991678 -0.0165506)
(0.00115828 -0.00100597 -0.0176579)
(0.00118027 -0.00102074 -0.0188258)
(0.00120077 -0.0010347 -0.0200098)
(0.00121968 -0.00104783 -0.0211337)
(0.00122664 -0.0010581 -0.0220639)
(0.00122663 -0.00106553 -0.0225451)
(0.000237137 0.000207538 -0.0156155)
(0.000241466 0.000210426 -0.0166871)
(0.00024601 0.000213402 -0.0178508)
(0.000250742 0.000216462 -0.0190835)
(0.00025518 0.000219344 -0.0203417)
(0.000259282 0.000222039 -0.0215486)
(0.00026086 0.000224092 -0.0225689)
(0.000261018 0.000225577 -0.0231405)
(0.000268964 0.000179698 -0.024852)
(0.000272908 0.000182328 -0.0259252)
(0.000276921 0.000185086 -0.0270137)
(0.000280953 0.000188026 -0.0280629)
(0.000284415 0.000190946 -0.0289924)
(0.000287363 0.000194241 -0.0296865)
(0.00028748 0.000197194 -0.0299817)
(0.000286402 0.00020262 -0.029648)
(0.000298351 0.000147306 -0.0405553)
(0.000301638 0.000149359 -0.0412079)