/*--------------------------------*- C++ -*----------------------------------*\
| =========                 |                                                 |
| \\      /  F ield         | foam-extend: Open Source CFD                    |
|  \\    /   O peration     | Version:  3.0                                   |
|   \\  /    A nd           | Web:         http://www.extend-project.de       |
|    \\/     M anipulation  |                                                 |
\*---------------------------------------------------------------------------*/
FoamFile
{
    version     2.0;
    format      ascii;
    class       volScalarField;
    location    "8";
    object      p;
}
// * * * * * * * * * * * * * * * * * * * * * * * * * * * * * * * * * * * * * //

dimensions      [0 0 0 0 0 0 0];

internalField   nonuniform List<scalar> 
2000
(
-0.0764488
-0.0565513
-0.0415412
-0.0291515
-0.0156834
-0.00997888
0.00388583
0.00378976
0.0182041
0.0148992
-0.0529235
-0.0352723
-0.0227924
-0.0128103
-0.0020916
0.00240331
0.0136375
0.0138343
0.0266945
0.0232784
-0.0360919
-0.018825
-0.00674595
0.00497841
0.0149384
0.0207886
0.0310729
0.0308799
0.0420046
0.0359493
-0.00837823
0.00607702
0.0153173
0.0237495
0.0305111
0.035461
0.0408683
0.0427267
0.0477754
0.0454812
0.00753247
0.0214101
0.0304764
0.040129
0.0469322
0.0516
0.0581046
0.05801
0.0643214
0.0597079
0.0400246
0.0507307
0.0561309
0.0627092
0.0650465
0.0697787
0.069615
0.0730256
0.0710761
0.0726194
0.0540213
0.0637472
0.0696946
0.076548
0.080821
0.0833628
0.0876601
0.0864502
0.0902406
0.0861365
0.0906706
0.0969238
0.0985528
0.102867
0.102045
0.105416
0.103165
0.105518
0.102498
0.103472
0.103222
0.10821
0.110674
0.11512
0.116411
0.117992
0.120248
0.118884
0.121815
0.118282
0.141788
0.143018
0.141265
0.142835
0.14003
0.140924
0.139002
0.138001
0.137889
0.134913
-0.186427
-0.158626
-0.138152
-0.123703
-0.106767
-0.100094
-0.087112
-0.0827526
-0.0760993
-0.0696758
-0.187283
-0.159362
-0.139277
-0.123863
-0.107803
-0.0994438
-0.0879073
-0.0812826
-0.0765614
-0.0678224
-0.177904
-0.151112
-0.130069
-0.117471
-0.0983951
-0.094263
-0.0779878
-0.076477
-0.0662493
-0.0624848
-0.177703
-0.150859
-0.131137
-0.116131
-0.100197
-0.0916665
-0.0805149
-0.0723991
-0.0683913
-0.0573712
-0.162637
-0.137207
-0.116564
-0.104415
-0.0851468
-0.0806625
-0.0637068
-0.0618309
-0.0503066
-0.0467804
-0.157661
-0.132474
-0.114084
-0.0994144
-0.0846421
-0.0760715
-0.0644173
-0.0575297
-0.0490453
-0.0421112
-0.140762
-0.116995
-0.0973299
-0.0854464
-0.0665909
-0.0619173
-0.0445509
-0.0427542
-0.0298383
-0.0265878
-0.128742
-0.105726
-0.0891663
-0.0757322
-0.0622216
-0.0549993
-0.0426512
-0.0381068
-0.0261784
-0.0221141
-0.111861
-0.0899329
-0.0720805
-0.060233
-0.0430905
-0.0386307
-0.0218213
-0.0218727
-0.00708938
-0.00694447
-0.0932236
-0.0727507
-0.058085
-0.0465519
-0.0341292
-0.029559
-0.0168096
-0.0172938
-0.00291893
-0.00414486
-0.0712258
-0.0604805
-0.0664361
-0.0514374
-0.0591903
-0.0433318
-0.0501391
-0.0366272
-0.0413948
-0.0305214
-0.0348177
-0.0246515
-0.0304721
-0.0200361
-0.0255685
-0.0164553
-0.0188621
-0.0103385
-0.0111057
-0.00018078
-0.0716443
-0.060012
-0.0677236
-0.0524518
-0.0610106
-0.0456182
-0.0517748
-0.0390428
-0.0416005
-0.0318425
-0.0326384
-0.0249154
-0.0270455
-0.0203347
-0.023471
-0.017321
-0.0192748
-0.011034
-0.0125449
0.00034492
-0.0606947
-0.0540993
-0.0565647
-0.0454503
-0.0502409
-0.0372161
-0.0426981
-0.0313277
-0.0355572
-0.0271207
-0.030111
-0.0219157
-0.0261926
-0.0162292
-0.020773
-0.0115491
-0.0144015
-0.005415
-0.00956561
0.00247922
-0.0611415
-0.0521802
-0.0568225
-0.0465321
-0.0509789
-0.0402396
-0.0432287
-0.033179
-0.0338424
-0.0258768
-0.0252279
-0.0194975
-0.0201364
-0.0158904
-0.0178759
-0.0136971
-0.0163075
-0.00799036
-0.0121797
0.00222875
-0.0434092
-0.042371
-0.0409989
-0.035331
-0.0367879
-0.0282065
-0.0313765
-0.0235794
-0.0258715
-0.0201914
-0.0213905
-0.0149683
-0.0178439
-0.00892202
-0.0126873
-0.00425931
-0.00814755
0.000858904
-0.0075842
0.00569252
-0.0381985
-0.0391009
-0.0360086
-0.0332616
-0.0327441
-0.0271646
-0.028543
-0.0212332
-0.022808
-0.0161646
-0.0175086
-0.0114452
-0.0142601
-0.00890413
-0.0126014
-0.00747666
-0.0121239
-0.00333138
-0.00984401
0.00351087
-0.0215503
-0.0250604
-0.0213913
-0.0199943
-0.0186488
-0.0142478
-0.0156469
-0.011608
-0.0122051
-0.00940022
-0.010132
-0.004779
-0.00802714
0.000513647
-0.00413912
0.00304432
-0.00115959
0.00364523
-0.00242395
0.00398058
-0.0136832
-0.0210156
-0.0134376
-0.0158823
-0.0122802
-0.0108592
-0.0100353
-0.00793029
-0.00861969
-0.00542812
-0.00861809
-0.00275238
-0.00834511
-0.000677364
-0.00643896
-0.000225053
-0.00436364
0.000602292
-0.00355894
0.00240957
0.00211603
-0.00632999
-0.000759698
-0.00367554
-0.00106474
-0.000741363
0.000203283
0.00170369
0.00114615
0.00368198
0.000179514
0.00633309
-0.00138115
0.00865099
0.000594372
0.00676632
0.00360486
0.00306463
0.00330021
-0.000188516
0.0110917
0.00355627
0.00893272
0.00631352
0.00652458
0.00647427
0.00504488
0.00587155
0.00405846
0.00574348
0.00185306
0.00663804
0.000923931
0.00711486
0.00290104
0.00653345
0.00413021
0.00430284
0.00261434
0.00110362
0.018842
0.0185249
0.015049
0.0132625
0.0134113
0.0111274
0.0128682
0.0112169
0.0115834
0.0124185
0.00756892
0.0119574
0.00333988
0.0104287
0.00307547
0.0069801
0.00508121
0.00336142
0.00491735
-0.000676632
0.0398656
0.0319742
0.0323136
0.0268101
0.0251268
0.0224604
0.0191255
0.0187416
0.0141806
0.0164435
0.0110862
0.0154112
0.0108709
0.01387
0.0115114
0.0111999
0.0105777
0.00600355
0.00699522
-0.000647397
0.037773
0.0340418
0.0310033
0.0261111
0.0259664
0.0217428
0.0229382
0.0212239
0.0196789
0.019694
0.0141802
0.0149781
0.00888475
0.0101352
0.00638885
0.00632216
0.00684098
0.0031184
0.00667978
-0.00191173
0.0557709
0.0475208
0.0475382
0.0430647
0.0385055
0.0377732
0.0308662
0.0306991
0.0239469
0.0261532
0.0198812
0.0239823
0.0197907
0.020488
0.0192706
0.0149943
0.016821
0.00635943
0.0118116
-0.00354186
0.0504838
0.0446968
0.0430488
0.0383007
0.0367436
0.03385
0.0315712
0.0318797
0.0267033
0.0273699
0.0207576
0.0196219
0.0146149
0.0125007
0.0107922
0.00737663
0.0101835
0.00243809
0.00930227
-0.00417223
0.0666134
0.0577548
0.0587142
0.0529737
0.0488909
0.0480526
0.0401888
0.0398279
0.0324332
0.0333921
0.0278569
0.0292457
0.0268902
0.024181
0.0239955
0.0170259
0.0193467
0.00678833
0.0133463
-0.00394532
0.0602064
0.0547847
0.0530928
0.0494211
0.0465638
0.0448387
0.039022
0.0409359
0.0325773
0.0354785
0.0266418
0.0267718
0.0203866
0.0182531
0.0172189
0.0114535
0.0153068
0.00430528
0.0114762
-0.00402379
0.0745766
0.0675825
0.0669648
0.060413
0.0570185
0.0544196
0.0470619
0.0472867
0.0380764
0.0401119
0.0328091
0.0336809
0.0305731
0.0267864
0.0252585
0.0175744
0.0186511
0.00685297
0.0119648
-0.00250589
0.0689197
0.0635759
0.0614384
0.058242
0.0548499
0.053181
0.0459834
0.0477258
0.0381552
0.0421811
0.0321902
0.0333088
0.0264005
0.0242232
0.0233765
0.0165067
0.0196597
0.00789939
0.0126613
-0.00216605
0.0812138
0.0757264
0.0720694
0.0671811
0.0623574
0.0587573
0.0524901
0.0519783
0.0425029
0.0454432
0.0355198
0.0384357
0.0320497
0.0297225
0.0264962
0.0182569
0.0190354
0.00689233
0.0111346
-0.00192067
0.0754705
0.0697033
0.0669619
0.0654448
0.0597841
0.0597974
0.0518518
0.0524456
0.0440101
0.0465046
0.0366909
0.0387087
0.0300829
0.0295258
0.0261733
0.0196537
0.0220796
0.00929467
0.0137634
-0.00176862
0.0859731
0.0805597
0.0754183
0.0722687
0.0648678
0.0634891
0.055552
0.0562763
0.0470147
0.0492345
0.0399712
0.041618
0.0348763
0.0326351
0.0289529
0.0211457
0.0209346
0.00874168
0.0118827
-0.00204561
0.0783178
0.0754076
0.0702455
0.0701086
0.0628832
0.0638072
0.055361
0.0563469
0.0472764
0.0493589
0.0393086
0.0419346
0.0328096
0.0330977
0.0278268
0.0217669
0.0225185
0.0101235
0.0135326
-0.0013076
0.0861354
0.0831063
0.0760016
0.0748224
0.065838
0.0673216
0.0572233
0.0613929
0.050764
0.0546532
0.0451449
0.0455676
0.0387876
0.0355245
0.0317935
0.0241984
0.0233068
0.0112221
0.0132478
-0.00147123
0.0793699
0.0819548
0.0709746
0.0743161
0.0632594
0.0668123
0.0557423
0.0598754
0.0474742
0.0519565
0.0406056
0.0435822
0.0357537
0.0346024
0.0301477
0.0233468
0.0228724
0.0109728
0.0136074
-0.00126562
0.0854485
0.0845295
0.0750231
0.0764855
0.0664071
0.0691112
0.0593943
0.0641239
0.0538761
0.0585132
0.0483253
0.0489931
0.0411833
0.0372724
0.034291
0.0256252
0.0260681
0.0134034
0.0147277
-0.000196086
0.081427
0.0861227
0.0707406
0.0785035
0.0617358
0.0697423
0.0552495
0.0622675
0.048653
0.0546794
0.0428964
0.0454782
0.0384723
0.0354743
0.032724
0.0241367
0.0252877
0.0108225
0.0159214
-0.00283453
0.0862586
0.086155
0.07412
0.0792759
0.0655639
0.0714354
0.0593802
0.0658678
0.054667
0.059579
0.0493238
0.0500258
0.0420587
0.0378184
0.0356004
0.0258576
0.0279987
0.0141997
0.0160314
-0.000124575
0.0834037
0.0873404
0.0711972
0.080591
0.0619439
0.071639
0.0558185
0.064589
0.0505988
0.0575644
0.0460418
0.0472743
0.0419544
0.0357201
0.0359586
0.0240658
0.0276314
0.011312
0.0163916
-0.00244118
0.0852204
0.0874966
0.0726202
0.0809416
0.0637214
0.0728122
0.0573206
0.066697
0.0527021
0.0594377
0.0484472
0.0490707
0.0430028
0.0369434
0.0365951
0.0248956
0.028241
0.0130454
0.0158392
-0.000812952
0.13674
0.12142
0.101575
0.089756
0.0710253
0.0660334
0.0510435
0.0471027
0.0359718
0.029541
0.13289
0.120943
0.10694
0.0936819
0.0813449
0.0706534
0.0600374
0.0525626
0.0485047
0.0408777
0.137762
0.124506
0.109684
0.0977979
0.08397
0.0790352
0.0683223
0.0618679
0.0542998
0.0434766
0.131199
0.121272
0.110014
0.0992296
0.090616
0.0796322
0.0755322
0.0659351
0.0663452
0.0542589
0.13927
0.125122
0.116969
0.101488
0.095515
0.0858406
0.0812511
0.0703749
0.0664628
0.0529112
0.131132
0.120493
0.114165
0.102519
0.0994529
0.0856855
0.0871917
0.0743824
0.0774164
0.06467
0.140729
0.124289
0.122373
0.103798
0.104372
0.0912828
0.0903151
0.0791265
0.0749937
0.062807
0.131808
0.119758
0.116911
0.104511
0.104058
0.0897382
0.0923492
0.0803107
0.0848466
0.0732824
0.14135
0.124964
0.125549
0.107883
0.110908
0.0971888
0.0973319
0.0855822
0.082208
0.0717564
0.13218
0.119426
0.117375
0.105299
0.105607
0.0921916
0.095991
0.0847436
0.0905012
0.0797914
0.141212
0.126645
0.127067
0.11168
0.114921
0.0999435
0.101378
0.0876355
0.0872806
0.0770521
0.133853
0.121276
0.118977
0.107556
0.108594
0.0966239
0.100604
0.0902149
0.0950886
0.085261
0.139533
0.126963
0.12572
0.113331
0.11453
0.101152
0.10189
0.0887816
0.0889812
0.0816181
0.137883
0.125748
0.123206
0.111923
0.11273
0.101992
0.104583
0.0962725
0.0964164
0.0900124
0.136857
0.125386
0.123383
0.113151
0.112951
0.102376
0.101509
0.0921695
0.0896507
0.0871939
0.142368
0.129672
0.127666
0.115575
0.115494
0.105853
0.106247
0.0995487
0.0965409
0.0920261
0.135853
0.123808
0.123133
0.112973
0.113014
0.103548
0.102838
0.09534
0.0923524
0.0904404
0.144338
0.12973
0.130087
0.116116
0.117248
0.106292
0.107269
0.0980914
0.0978233
0.0912033
0.138677
0.123824
0.126437
0.113125
0.115905
0.104196
0.106196
0.0964038
0.0956329
0.0910129
0.142726
0.126452
0.129967
0.11451
0.118208
0.105287
0.108014
0.0970439
0.0976019
0.0912474
0.272678
0.281525
0.283696
0.294956
0.297909
0.311559
0.317882
0.33386
0.345542
0.365394
0.255875
0.267836
0.267553
0.279553
0.282201
0.294698
0.300078
0.31399
0.323411
0.34095
0.251201
0.25805
0.258075
0.267363
0.269737
0.281496
0.287039
0.300774
0.310686
0.327562
0.237603
0.245183
0.24359
0.251792
0.252842
0.262745
0.265747
0.277357
0.284025
0.298508
0.230535
0.233695
0.233899
0.238733
0.241482
0.248951
0.25442
0.264129
0.272549
0.285765
0.215012
0.216748
0.216878
0.220757
0.221562
0.227998
0.229774
0.237837
0.242236
0.252844
0.203007
0.204917
0.205108
0.208292
0.210394
0.214824
0.219426
0.225048
0.231552
0.240451
0.186045
0.185687
0.186969
0.187084
0.188998
0.19069
0.192971
0.195912
0.198754
0.204426
0.169911
0.173876
0.172203
0.175516
0.176442
0.178534
0.18203
0.183892
0.18817
0.192157
0.151893
0.153555
0.152864
0.15292
0.153826
0.152741
0.15451
0.152887
0.153729
0.153966
0.350748
0.35345
0.363323
0.367696
0.381366
0.38989
0.406666
0.422193
0.442525
0.471132
0.348466
0.349919
0.361515
0.364628
0.37913
0.387088
0.403527
0.419044
0.438681
0.46694
0.343655
0.351231
0.356802
0.365467
0.375634
0.386906
0.401805
0.418462
0.438109
0.466315
0.336112
0.339525
0.349941
0.355881
0.367933
0.37882
0.392591
0.409674
0.427534
0.454685
0.330725
0.339848
0.345228
0.354421
0.364094
0.37557
0.389541
0.406166
0.424826
0.451552
0.317824
0.325809
0.333116
0.342756
0.352141
0.365373
0.376901
0.394656
0.410672
0.43594
0.312648
0.324104
0.327668
0.339312
0.345767
0.359314
0.36996
0.387284
0.403585
0.428388
0.298772
0.309696
0.314167
0.326562
0.332873
0.347279
0.356654
0.373826
0.387907
0.41078
0.293112
0.30696
0.307221
0.320812
0.323559
0.338355
0.345709
0.362993
0.376664
0.399158
0.279055
0.294875
0.293637
0.307441
0.310383
0.324085
0.33145
0.346807
0.358775
0.37896
0.286584
0.291314
0.29322
0.296227
0.296715
0.301648
0.299831
0.305561
0.305899
0.307762
0.314099
0.312257
0.321209
0.321638
0.326551
0.332127
0.333052
0.339671
0.341878
0.345728
0.285906
0.292743
0.290558
0.298276
0.293824
0.303191
0.297899
0.306273
0.304567
0.307539
0.31214
0.311033
0.317826
0.318706
0.32256
0.327759
0.329515
0.335303
0.338996
0.341765
0.285768
0.291284
0.290989
0.296517
0.294065
0.301206
0.296716
0.304181
0.301919
0.305851
0.310041
0.310058
0.317885
0.319683
0.323576
0.330461
0.329508
0.337562
0.336989
0.342553
0.282253
0.289492
0.286071
0.295329
0.289106
0.300702
0.292753
0.304873
0.298587
0.306748
0.30583
0.308749
0.3117
0.313032
0.315991
0.319631
0.321133
0.325832
0.328675
0.330175
0.284687
0.290639
0.28783
0.295186
0.291073
0.298211
0.293526
0.299803
0.296601
0.300698
0.302496
0.303733
0.309451
0.311132
0.315731
0.319497
0.321275
0.326079
0.326304
0.330012
0.277134
0.284569
0.279416
0.290231
0.281962
0.293969
0.285665
0.297445
0.291028
0.300086
0.297962
0.301088
0.30359
0.302726
0.306398
0.307472
0.309628
0.312085
0.314219
0.315086
0.281205
0.286217
0.283577
0.2902
0.287021
0.29263
0.289609
0.293045
0.291085
0.293347
0.293198
0.295306
0.298036
0.299619
0.304627
0.305205
0.308285
0.310443
0.311191
0.312797
0.274401
0.281249
0.274346
0.285518
0.275746
0.287296
0.278878
0.288969
0.283611
0.289967
0.288943
0.291223
0.291613
0.292158
0.29177
0.292373
0.29388
0.294325
0.29746
0.296154
0.275058
0.279635
0.276421
0.284331
0.279265
0.287432
0.281386
0.28821
0.281878
0.287601
0.284472
0.286462
0.287357
0.287219
0.28853
0.290986
0.288784
0.294524
0.291121
0.2947
0.275081
0.278793
0.273615
0.281661
0.272155
0.283227
0.273153
0.283094
0.276751
0.282526
0.279699
0.28083
0.279552
0.278116
0.27721
0.276825
0.276016
0.278762
0.276439
0.279615
0.27133
0.273139
0.272448
0.277373
0.272467
0.281058
0.272331
0.28223
0.272694
0.279397
0.274655
0.275631
0.275118
0.274194
0.274641
0.276808
0.273501
0.278175
0.269738
0.274637
0.275024
0.276457
0.271956
0.277711
0.268284
0.279316
0.268672
0.277909
0.272063
0.273695
0.273279
0.26904
0.26934
0.265438
0.262734
0.262961
0.257942
0.259909
0.253197
0.253714
0.268964
0.270108
0.268107
0.273576
0.265665
0.275257
0.264178
0.273038
0.265094
0.267649
0.266377
0.264028
0.26362
0.262832
0.259465
0.262205
0.256556
0.259836
0.251239
0.25327
0.272822
0.273866
0.268186
0.273581
0.264475
0.273381
0.265787
0.270494
0.268416
0.264733
0.265226
0.259937
0.257707
0.255466
0.250734
0.249655
0.245337
0.2441
0.239883
0.238877
0.267501
0.26795
0.26487
0.268381
0.262576
0.266343
0.2599
0.262253
0.258333
0.258784
0.255444
0.256303
0.249285
0.253382
0.244321
0.247987
0.242214
0.242113
0.237356
0.234922
0.269763
0.269402
0.264805
0.266351
0.261621
0.264219
0.262341
0.261937
0.262204
0.257736
0.255089
0.254198
0.246258
0.248678
0.240618
0.240114
0.235663
0.232709
0.230503
0.225965
0.26743
0.266031
0.263801
0.263027
0.261289
0.258565
0.256353
0.254713
0.251537
0.25274
0.245187
0.248749
0.237271
0.242685
0.232768
0.235405
0.23042
0.22814
0.225545
0.221142
0.2648
0.262932
0.260662
0.258169
0.258009
0.255126
0.25653
0.25417
0.253467
0.251378
0.246773
0.247898
0.239536
0.24205
0.233184
0.233916
0.226966
0.225944
0.221852
0.216917
0.267022
0.264615
0.262222
0.259445
0.25792
0.254468
0.250634
0.250612
0.244723
0.246052
0.238852
0.239507
0.230133
0.232775
0.224057
0.226891
0.219636
0.22008
0.214384
0.214271
0.258727
0.25693
0.254801
0.253041
0.252509
0.249681
0.249755
0.248003
0.245699
0.245201
0.240534
0.242448
0.23455
0.237702
0.227405
0.229648
0.219798
0.220935
0.212717
0.211232
0.264641
0.261744
0.258912
0.255559
0.253203
0.250358
0.245706
0.24589
0.239456
0.239355
0.233326
0.232999
0.22445
0.227132
0.21803
0.221901
0.212066
0.215816
0.205244
0.210504
0.254452
0.252119
0.250864
0.24892
0.249448
0.245203
0.245676
0.24271
0.240001
0.241059
0.234862
0.238804
0.22957
0.23395
0.222576
0.225321
0.214031
0.216463
0.204229
0.207186
0.261177
0.256993
0.255812
0.251368
0.249303
0.246433
0.241744
0.241181
0.234652
0.234046
0.227598
0.228875
0.220143
0.223711
0.214632
0.21792
0.208585
0.212156
0.200918
0.206086
0.251078
0.248249
0.24769
0.24606
0.247011
0.242682
0.243327
0.239311
0.237519
0.237997
0.232358
0.235275
0.226664
0.229816
0.218756
0.220733
0.209301
0.210691
0.198574
0.201751
0.257903
0.25377
0.252063
0.249394
0.245607
0.244174
0.238515
0.23748
0.231307
0.229511
0.224679
0.223985
0.219255
0.218732
0.214067
0.212716
0.207636
0.20782
0.199667
0.201689
0.248678
0.245123
0.245717
0.243863
0.244251
0.241299
0.240945
0.237191
0.236245
0.234973
0.230688
0.23209
0.224447
0.226198
0.216715
0.216829
0.206958
0.205708
0.196024
0.196757
0.254635
0.252495
0.247096
0.24944
0.241229
0.242921
0.236021
0.234599
0.230099
0.22725
0.224489
0.221317
0.219301
0.21532
0.213762
0.208876
0.207523
0.203626
0.199465
0.197245
0.248451
0.243838
0.24575
0.242073
0.242575
0.239374
0.238586
0.235236
0.233654
0.232389
0.228116
0.229014
0.222855
0.222446
0.216152
0.213632
0.207036
0.203139
0.196921
0.193451
0.251619
0.250008
0.244165
0.247662
0.239091
0.241316
0.235485
0.233614
0.230277
0.227965
0.225376
0.222029
0.22038
0.215665
0.214035
0.208787
0.207396
0.200928
0.199933
0.192137
0.249556
0.245923
0.244765
0.243677
0.240353
0.239477
0.236592
0.234106
0.231432
0.229869
0.226532
0.224854
0.221901
0.218523
0.215153
0.211024
0.207409
0.201048
0.199563
0.190496
0.266108
0.258574
0.251882
0.24233
0.231936
0.215982
0.203975
0.186465
0.172761
0.154279
0.248807
0.233949
0.232313
0.220044
0.214111
0.201551
0.190792
0.176828
0.162943
0.148427
0.245475
0.237109
0.232941
0.224919
0.217587
0.204295
0.193805
0.180669
0.167124
0.15311
0.235375
0.220087
0.21805
0.206283
0.200649
0.189369
0.180263
0.167658
0.156468
0.144344
0.23068
0.221128
0.218132
0.209852
0.203244
0.193069
0.183649
0.17455
0.162264
0.150591
0.22496
0.209585
0.208773
0.196166
0.191857
0.181047
0.174472
0.161485
0.152533
0.1413
0.219937
0.209162
0.209827
0.197809
0.193742
0.183277
0.175577
0.167095
0.158682
0.146624
0.214505
0.201635
0.200712
0.186155
0.185788
0.172847
0.171098
0.156681
0.150605
0.139023
0.210277
0.203146
0.202453
0.190954
0.188769
0.176632
0.172364
0.160769
0.157268
0.143599
0.203351
0.196927
0.191394
0.180156
0.179037
0.166957
0.167257
0.152457
0.149455
0.137087
0.20045
0.200324
0.19331
0.187709
0.183738
0.17321
0.170703
0.157118
0.156784
0.141979
0.194191
0.194969
0.184233
0.179604
0.174323
0.166093
0.164753
0.151513
0.150058
0.137525
0.193132
0.197447
0.184477
0.184752
0.177295
0.170603
0.167345
0.154699
0.154772
0.14033
0.189051
0.193161
0.180114
0.181992
0.172418
0.169172
0.164333
0.154857
0.152749
0.141186
0.190165
0.193411
0.179567
0.181836
0.171902
0.16833
0.163097
0.152875
0.151089
0.138484
0.186852
0.18989
0.178722
0.182395
0.171524
0.171672
0.164664
0.158884
0.155773
0.145
0.189924
0.188613
0.179202
0.178289
0.170687
0.166989
0.161158
0.152413
0.14878
0.137492
0.18758
0.185287
0.17899
0.179086
0.171243
0.170815
0.164383
0.15967
0.156476
0.145278
0.191439
0.182966
0.181476
0.175234
0.172469
0.167166
0.162268
0.154085
0.150436
0.138506
0.190923
0.181142
0.181048
0.175174
0.171987
0.168352
0.163125
0.157037
0.153857
0.141813
)
;

boundaryField
{
    down
    {
        type            symmetryPlane;
    }
    right
    {
        type            fixedValue;
        value           uniform 0;
    }
    up
    {
        type            symmetryPlane;
    }
    left
    {
        type            zeroGradient;
    }
    cylinder
    {
        type            implicitExtrapolation;
    }
    defaultFaces
    {
        type            empty;
    }
}


// ************************************************************************* //
