/*--------------------------------*- C++ -*----------------------------------*\
| =========                 |                                                 |
| \\      /  F ield         | foam-extend: Open Source CFD                    |
|  \\    /   O peration     | Version:  3.0                                   |
|   \\  /    A nd           | Web:         http://www.extend-project.de       |
|    \\/     M anipulation  |                                                 |
\*---------------------------------------------------------------------------*/
FoamFile
{
    version     2.0;
    format      ascii;
    class       volVectorField;
    location    "3";
    object      u;
}
// * * * * * * * * * * * * * * * * * * * * * * * * * * * * * * * * * * * * * //

dimensions      [0 0 0 0 0 0 0];

internalField   nonuniform List<vector> 
7680
(
(0.0778441 -0.0377806 2.44118e-18)
(0.180178 -0.0325063 9.62868e-18)
(0.282691 -0.029669 6.44829e-19)
(0.357421 -0.0265676 -3.20107e-19)
(0.432541 -0.0242945 1.74008e-18)
(0.487338 -0.0221233 5.77092e-18)
(0.544342 -0.0204271 8.58571e-19)
(0.585357 -0.0188117 -3.94335e-19)
(0.62972 -0.017526 -6.3608e-19)
(0.661011 -0.0162723 -1.01023e-18)
(0.696318 -0.0152829 9.35195e-19)
(0.720562 -0.0142913 5.72937e-19)
(0.74924 -0.0135138 -4.4267e-19)
(0.768245 -0.0127302 -4.53073e-18)
(0.791968 -0.0121019 1.48387e-18)
(0.806993 -0.0114833 1.02686e-18)
(0.826949 -0.0109633 -2.40973e-18)
(0.83889 -0.0104728 1.9942e-18)
(0.855946 -0.0100367 3.56066e-18)
(0.865455 -0.00964482 -3.42726e-18)
(0.880258 -0.00927752 4.86212e-19)
(0.887815 -0.00896253 -1.34786e-18)
(0.900859 -0.00865183 1.38591e-18)
(0.906823 -0.00839879 2.24108e-18)
(0.918486 -0.00813353 -4.04904e-18)
(0.923133 -0.00793189 1.32506e-18)
(0.933711 -0.00770203 2.35265e-18)
(0.937249 -0.00754361 6.19841e-19)
(0.946977 -0.0073406 -1.59596e-18)
(0.949564 -0.00721827 9.7019e-20)
(0.958637 -0.00703519 1.21591e-18)
(0.960395 -0.00694253 -9.93175e-19)
(0.968971 -0.00677406 -2.52904e-19)
(0.969994 -0.00670589 -1.02142e-18)
(0.978208 -0.0065477 1.15257e-18)
(0.978567 -0.00650341 -2.52303e-19)
(0.986537 -0.0063333 1.73677e-18)
(0.986247 -0.00645868 -1.1383e-18)
(0.994368 -0.00529101 -5.12956e-19)
(0.991626 -0.010898 -9.18118e-19)
(0.0821974 -0.0994147 -8.85061e-18)
(0.18363 -0.0846329 -1.65758e-17)
(0.285965 -0.0769543 -1.10704e-17)
(0.360318 -0.068353 1.17251e-17)
(0.435199 -0.0619143 -1.41624e-17)
(0.489709 -0.0557585 -4.98838e-18)
(0.546521 -0.0508786 -4.57755e-18)
(0.587337 -0.0462328 6.14968e-18)
(0.631549 -0.0425222 1.28941e-17)
(0.662694 -0.0389619 8.60946e-18)
(0.697884 -0.0360938 -2.58567e-18)
(0.722012 -0.0333212 1.71295e-19)
(0.750589 -0.0310577 6.78816e-18)
(0.769501 -0.0288606 5.30024e-19)
(0.793133 -0.0270372 -4.48005e-18)
(0.808084 -0.0252749 -4.84559e-18)
(0.827956 -0.0237779 1.0659e-17)
(0.839841 -0.0223563 -1.15468e-17)
(0.85682 -0.0211064 5.31849e-18)
(0.866287 -0.0199578 -7.02704e-18)
(0.881023 -0.0188998 5.14227e-18)
(0.88855 -0.017972 -1.55593e-18)
(0.901534 -0.0170665 1.72078e-18)
(0.907477 -0.0163189 -1.2653e-17)
(0.91909 -0.0155349 1.12546e-17)
(0.923721 -0.0149358 -3.9668e-18)
(0.934258 -0.0142466 -7.69482e-19)
(0.937782 -0.0137712 -4.53158e-18)
(0.947479 -0.0131533 5.25985e-19)
(0.950054 -0.0127811 7.27481e-19)
(0.959102 -0.0122148 1.2575e-19)
(0.960849 -0.0119291 3.30203e-18)
(0.969405 -0.0113992 3.93104e-18)
(0.970419 -0.0111866 -7.28327e-18)
(0.978614 -0.0106813 1.55897e-18)
(0.978966 -0.0105368 -5.98593e-18)
(0.986916 -0.0100059 7.4612e-18)
(0.986637 -0.0102442 -1.87745e-18)
(0.99465 -0.00761505 -6.98425e-19)
(0.992357 -0.0185657 1.00458e-17)
(0.0903752 -0.160517 1.7156e-17)
(0.190779 -0.136677 3.45997e-18)
(0.29239 -0.123823 2.19371e-17)
(0.36598 -0.109645 -1.10484e-17)
(0.44025 -0.0990558 1.51145e-17)
(0.494206 -0.0889664 -5.3962e-19)
(0.550568 -0.0810074 -1.03623e-18)
(0.590976 -0.0734159 -4.55539e-19)
(0.634862 -0.0673499 -3.19917e-17)
(0.665698 -0.0615079 -2.13252e-17)
(0.700638 -0.0567961 5.32981e-18)
(0.724528 -0.0522248 -1.06666e-18)
(0.752903 -0.048493 -8.68508e-18)
(0.77163 -0.0448744 -2.0387e-18)
(0.795099 -0.0418584 1.67065e-17)
(0.809906 -0.0389685 2.27261e-17)
(0.829648 -0.0364863 -1.5352e-17)
(0.841419 -0.0341622 2.81106e-17)
(0.858296 -0.0320885 -2.48252e-17)
(0.867671 -0.0302103 1.0836e-17)
(0.882326 -0.0284558 -7.65524e-18)
(0.889779 -0.0269347 7.92311e-18)
(0.902697 -0.0254317 -9.26781e-18)
(0.908581 -0.0242009 2.18834e-17)
(0.920137 -0.0228955 -7.30156e-18)
(0.924721 -0.0219041 1.21148e-17)
(0.935208 -0.0207522 -1.11192e-18)
(0.938694 -0.0199606 8.36439e-18)
(0.948345 -0.0189257 -6.95845e-19)
(0.950891 -0.0183022 -2.57239e-18)
(0.959893 -0.0173544 -1.66524e-18)
(0.961619 -0.0168728 5.80782e-19)
(0.97013 -0.0159879 2.6937e-18)
(0.971129 -0.015627 2.52871e-18)
(0.979281 -0.0147854 -1.05095e-18)
(0.979624 -0.014537 -3.57828e-19)
(0.98753 -0.0136576 2.88832e-18)
(0.987272 -0.0140096 -2.05974e-18)
(0.995084 -0.00993152 1.17643e-18)
(0.993589 -0.0261911 -4.95694e-18)
(0.102764 -0.221124 -1.44229e-17)
(0.201084 -0.188009 -4.6733e-17)
(0.30171 -0.170284 2.88863e-17)
(0.374215 -0.150687 -4.94082e-17)
(0.447709 -0.135998 9.88223e-18)
(0.50091 -0.122002 3.58294e-19)
(0.556686 -0.110923 6.32476e-18)
(0.596514 -0.10037 1.16396e-17)
(0.639941 -0.0919282 2.96557e-18)
(0.670324 -0.0838214 1.66301e-17)
(0.704902 -0.0772658 7.41053e-18)
(0.728433 -0.0709374 -3.39408e-18)
(0.756522 -0.065745 -7.13239e-19)
(0.774962 -0.060732 1.34774e-17)
(0.798199 -0.0565414 -2.49187e-17)
(0.812774 -0.0525259 1.07575e-17)
(0.832323 -0.0490842 -2.11822e-17)
(0.843908 -0.045846 -1.88342e-17)
(0.86062 -0.0429733 3.03495e-17)
(0.869846 -0.0403536 -1.82906e-17)
(0.884357 -0.0379209 9.79934e-18)
(0.891691 -0.0357995 -9.73622e-18)
(0.904484 -0.0337121 1.32565e-17)
(0.910274 -0.0319964 -1.267e-17)
(0.921721 -0.0301803 -3.20714e-18)
(0.926228 -0.0287984 -1.09679e-17)
(0.936621 -0.0271928 -5.66945e-18)
(0.940046 -0.0260886 -3.19983e-19)
(0.949614 -0.0246428 -2.18879e-18)
(0.952112 -0.0237719 1.06868e-17)
(0.961041 -0.0224443 1.39261e-17)
(0.962729 -0.0217711 -1.27803e-17)
(0.971173 -0.0205286 -4.61166e-18)
(0.972144 -0.0200251 3.13925e-17)
(0.980233 -0.018841 -1.57961e-17)
(0.980557 -0.0184954 4.75018e-18)
(0.988396 -0.0172606 1.27057e-17)
(0.988163 -0.0177263 -8.46333e-18)
(0.995675 -0.0122114 2.58223e-18)
(0.995321 -0.0337194 -1.10004e-18)
(0.118859 -0.280638 1.26432e-17)
(0.2149 -0.238593 1.93062e-17)
(0.314217 -0.215935 -9.76577e-17)
(0.385243 -0.19093 1.1723e-16)
(0.457604 -0.172212 -9.47148e-18)
(0.50974 -0.154382 -4.73835e-17)
(0.564669 -0.140298 -2.08415e-17)
(0.603709 -0.126863 -4.14976e-19)
(0.646502 -0.11612 2.96787e-18)
(0.676287 -0.105784 6.049e-18)
(0.710373 -0.0974283 -1.19457e-17)
(0.73344 -0.0893463 3.0904e-18)
(0.761136 -0.0827225 1.90513e-17)
(0.779211 -0.076322 -2.21553e-17)
(0.802127 -0.0709707 1.60871e-17)
(0.816412 -0.0658528 -3.08683e-17)
(0.8357 -0.0614532 3.21153e-17)
(0.847052 -0.0573322 -2.64441e-18)
(0.863551 -0.0536587 -1.1383e-18)
(0.872588 -0.0503258 -4.857e-20)
(0.886924 -0.0472157 2.12433e-17)
(0.894105 -0.0445155 2.53227e-17)
(0.90675 -0.0418459 -2.09449e-17)
(0.912416 -0.0396603 3.44368e-18)
(0.923735 -0.0373355 1.77395e-17)
(0.928144 -0.0355734 1.62643e-17)
(0.938422 -0.033516 -1.18304e-17)
(0.941769 -0.0321063 2.20995e-18)
(0.951233 -0.0302535 1.46748e-17)
(0.953669 -0.0291396 -1.44113e-17)
(0.962501 -0.0274399 -7.72199e-18)
(0.964143 -0.026577 4.32519e-18)
(0.972496 -0.0249886 -2.26309e-17)
(0.973432 -0.0243409 1.29063e-17)
(0.981433 -0.0228289 -8.08553e-18)
(0.981736 -0.0223809 -6.65809e-18)
(0.989483 -0.0208067 -7.4318e-18)
(0.989286 -0.0213792 -1.22668e-17)
(0.996409 -0.0144531 3.89813e-18)
(0.997539 -0.0411249 1.55921e-17)
(0.13899 -0.339123 -1.49289e-18)
(0.231879 -0.288212 5.2798e-17)
(0.329538 -0.260773 9.74059e-17)
(0.398772 -0.230506 -8.8347e-17)
(0.469811 -0.207826 -4.3014e-18)
(0.52068 -0.186232 9.26976e-17)
(0.574612 -0.169145 4.43602e-17)
(0.612684 -0.152864 -5.3184e-19)
(0.654709 -0.139834 -2.96337e-17)
(0.683743 -0.127317 4.4325e-18)
(0.717229 -0.117184 5.66044e-17)
(0.739707 -0.107405 -6.27694e-18)
(0.766929 -0.0993711 1.49703e-17)
(0.784537 -0.0916251 1.72444e-18)
(0.807073 -0.0851386 -2.83659e-17)
(0.820984 -0.0789375 -9.51653e-18)
(0.839959 -0.0736098 3.58665e-17)
(0.85101 -0.0686108 -1.87589e-17)
(0.867245 -0.0641646 1.23904e-17)
(0.876042 -0.0601193 2.17714e-18)
(0.890151 -0.0563539 -1.76243e-17)
(0.897138 -0.0530758 -4.1006e-17)
(0.909587 -0.049842 1.77436e-17)
(0.915097 -0.0471878 1.52527e-17)
(0.926245 -0.0443701 -3.54998e-17)
(0.930529 -0.0422291 3.85533e-18)
(0.940656 -0.0397341 2.54516e-18)
(0.943904 -0.03802 -9.85627e-18)
(0.953233 -0.0357706 -2.12833e-18)
(0.955591 -0.0344158 -1.3016e-17)
(0.964301 -0.0323493 -5.56473e-18)
(0.965882 -0.0313 8.93222e-18)
(0.974121 -0.0293661 -1.2878e-17)
(0.975012 -0.0285797 1.50059e-17)
(0.982905 -0.0267368 -4.24854e-17)
(0.983176 -0.0261953 1.57375e-17)
(0.990812 -0.0242774 1.82604e-17)
(0.990654 -0.024962 -1.686e-17)
(0.997294 -0.0166472 -9.54454e-18)
(1.00024 -0.0483841 1.27067e-17)
(0.162767 -0.396017 2.49544e-17)
(0.25213 -0.336514 -9.54521e-17)
(0.347863 -0.304418 -2.04052e-17)
(0.414944 -0.269006 6.52743e-17)
(0.484349 -0.242479 1.6484e-17)
(0.533676 -0.217214 -3.90572e-17)
(0.586383 -0.197245 -5.2082e-17)
(0.623303 -0.1782 1.54377e-17)
(0.664399 -0.162965 3.26315e-17)
(0.692552 -0.148311 -3.89651e-17)
(0.725315 -0.136455 -6.28046e-17)
(0.747106 -0.124999 -2.16681e-17)
(0.773752 -0.115597 2.03502e-17)
(0.790817 -0.106524 3.99851e-17)
(0.812885 -0.098929 -1.26491e-17)
(0.826363 -0.0916715 9.52531e-19)
(0.844954 -0.0854301 -3.23168e-17)
(0.855656 -0.079584 -1.00754e-17)
(0.871574 -0.0743739 -2.67473e-17)
(0.880087 -0.0696441 -9.12702e-18)
(0.893932 -0.0652318 -1.26404e-17)
(0.900689 -0.0613986 1.04063e-17)
(0.912913 -0.0576086 1.6192e-17)
(0.918237 -0.0545051 -9.24601e-18)
(0.929191 -0.0512007 8.21022e-18)
(0.933324 -0.0486975 -2.96074e-17)
(0.943279 -0.0457696 1.86637e-17)
(0.946407 -0.0437653 -3.08485e-17)
(0.955579 -0.0411255 3.29784e-17)
(0.957843 -0.0395399 -9.62049e-18)
(0.966408 -0.0371163 6.56411e-17)
(0.967918 -0.0358863 -1.12237e-17)
(0.976021 -0.0336206 -4.18508e-20)
(0.976859 -0.0326966 1.21887e-17)
(0.984622 -0.0305394 2.08619e-17)
(0.984858 -0.0298995 -5.24726e-18)
(0.992358 -0.0276567 -2.43973e-18)
(0.99225 -0.0284412 -5.58112e-18)
(0.998315 -0.0187772 3.88346e-17)
(1.00341 -0.0554455 -3.80263e-18)
(0.190316 -0.451384 3.64961e-18)
(0.275481 -0.383525 -1.80768e-17)
(0.368935 -0.346868 3.9239e-17)
(0.433539 -0.306452 -1.42073e-17)
(0.501104 -0.276172 -6.8791e-17)
(0.548673 -0.247348 -5.78237e-17)
(0.599992 -0.224544 5.05756e-17)
(0.635577 -0.202811 -3.10969e-17)
(0.675612 -0.185414 1.67227e-17)
(0.702733 -0.168698 -2.30614e-17)
(0.73467 -0.15516 6.68001e-17)
(0.755655 -0.142096 -6.36371e-17)
(0.781646 -0.131359 7.76832e-18)
(0.798072 -0.121011 -6.30653e-17)
(0.819615 -0.11234 1.30839e-17)
(0.832582 -0.104059 -4.87272e-18)
(0.850742 -0.0969363 4.10988e-17)
(0.861034 -0.0902618 -2.80934e-17)
(0.876592 -0.0843184 4.14492e-17)
(0.884775 -0.0789167 1.7526e-17)
(0.898312 -0.073883 -2.22767e-17)
(0.904804 -0.0695041 2.65463e-18)
(0.916762 -0.0651793 -1.78148e-17)
(0.921872 -0.0616319 1.89973e-17)
(0.932593 -0.0578608 1.32564e-17)
(0.936555 -0.0549972 -2.62097e-17)
(0.946303 -0.0516552 2.20816e-17)
(0.949294 -0.0493605 3.15167e-17)
(0.958281 -0.0463459 -7.73243e-17)
(0.960437 -0.0445302 -1.81882e-17)
(0.968833 -0.0417601 -2.8414e-17)
(0.970258 -0.0403521 -3.30718e-18)
(0.978203 -0.0377597 4.18655e-17)
(0.978979 -0.0367033 -3.90348e-17)
(0.986592 -0.0342328 2.18811e-18)
(0.986784 -0.0335035 1.71426e-17)
(0.994129 -0.0309345 2.04741e-17)
(0.994074 -0.031826 -2.18621e-18)
(0.99948 -0.0208449 -4.81932e-18)
(1.00704 -0.0623081 -2.58075e-17)
(0.221346 -0.504682 6.47191e-17)
(0.301841 -0.428753 4.26601e-17)
(0.392777 -0.387757 -2.56232e-17)
(0.454588 -0.342539 -1.21431e-16)
(0.52004 -0.308656 4.05847e-17)
(0.565609 -0.27639 1.3984e-16)
(0.615339 -0.250879 -2.27753e-17)
(0.649425 -0.22655 2.88026e-17)
(0.68825 -0.207085 7.30373e-18)
(0.71422 -0.188364 -2.14828e-17)
(0.745215 -0.173211 8.05042e-18)
(0.765301 -0.158575 7.69888e-17)
(0.790543 -0.146556 1.87881e-18)
(0.806259 -0.134964 5.59934e-17)
(0.827194 -0.125256 5.73042e-17)
(0.839594 -0.115984 -4.14406e-17)
(0.857255 -0.108007 2.41106e-17)
(0.867089 -0.100537 -2.73163e-17)
(0.882233 -0.0938794 2.4029e-17)
(0.890045 -0.0878343 1.17048e-17)
(0.903233 -0.0821953 -8.78904e-18)
(0.909423 -0.0772947 2.04147e-17)
(0.921085 -0.072449 -1.66095e-17)
(0.92595 -0.0684798 -1.41717e-17)
(0.936413 -0.0642525 1.62307e-17)
(0.940178 -0.0610498 -4.94399e-18)
(0.949698 -0.0573015 -1.166e-17)
(0.952532 -0.054736 6.23982e-17)
(0.961312 -0.0513542 -7.49885e-19)
(0.963344 -0.0493237 5.79327e-17)
(0.97155 -0.0462172 2.2581e-18)
(0.97288 -0.0446409 -2.12332e-17)
(0.980647 -0.0417359 4.26987e-18)
(0.981351 -0.0405508 -2.01251e-17)
(0.988795 -0.0377845 6.26221e-19)
(0.988939 -0.0369632 -5.7723e-19)
(0.996106 -0.0340889 -2.92942e-17)
(0.996114 -0.0350734 -3.81869e-17)
(1.00077 -0.0228277 7.57528e-17)
(1.01111 -0.0689072 -2.65242e-17)
(0.255864 -0.555984 3.66682e-17)
(0.331144 -0.472329 -4.52462e-17)
(0.419229 -0.427093 8.60712e-17)
(0.477923 -0.377223 2.07953e-16)
(0.541052 -0.339862 7.43096e-17)
(0.584408 -0.304302 -1.77132e-16)
(0.63239 -0.276168 -4.68495e-18)
(0.6648 -0.249353 -8.42912e-17)
(0.702289 -0.227886 -2.83952e-17)
(0.726968 -0.207255 9.9646e-17)
(0.756924 -0.190544 -1.27629e-17)
(0.775999 -0.174418 -5.19633e-17)
(0.800418 -0.161161 2.09042e-17)
(0.815334 -0.148388 -9.68191e-17)
(0.835606 -0.137681 -2.43102e-17)
(0.847367 -0.127461 2.24663e-17)
(0.864485 -0.118666 -3.6677e-17)
(0.873806 -0.11043 -9.72544e-18)
(0.888496 -0.103091 -1.12106e-17)
(0.895895 -0.0964252 -1.45264e-18)
(0.908699 -0.090209 2.17619e-17)
(0.914556 -0.084804 -4.96155e-18)
(0.925886 -0.0794618 2.11606e-17)
(0.930482 -0.0750818 -5.81234e-18)
(0.940654 -0.0704214 -3.37232e-17)
(0.944202 -0.0668841 6.71511e-17)
(0.953464 -0.062752 -1.47294e-17)
(0.956125 -0.0599159 -2.46208e-17)
(0.964672 -0.0561874 -5.09113e-17)
(0.966568 -0.0539416 1.33687e-17)
(0.97456 -0.050515 -9.2197e-18)
(0.975784 -0.0487721 3.16762e-17)
(0.983352 -0.0455652 -4.70617e-17)
(0.983977 -0.0442561 7.32279e-17)
(0.991231 -0.0411997 -5.10908e-17)
(0.99132 -0.0402943 2.97907e-17)
(0.998291 -0.0371175 -2.18231e-18)
(0.998366 -0.0382004 1.68643e-17)
(1.0022 -0.024733 -7.74088e-18)
(1.01561 -0.075253 -4.11131e-17)
(0.293601 -0.604775 -2.65782e-16)
(0.363178 -0.513723 -1.12681e-16)
(0.448189 -0.464526 -4.78608e-17)
(0.503495 -0.410273 -2.60353e-16)
(0.564065 -0.369614 -8.45683e-17)
(0.604993 -0.330898 1.00537e-16)
(0.651048 -0.300283 -1.51933e-18)
(0.681632 -0.271088 1.5095e-16)
(0.717652 -0.247725 9.61764e-17)
(0.740928 -0.225257 -1.23531e-16)
(0.769739 -0.207067 -6.28992e-17)
(0.787718 -0.189501 -5.95989e-19)
(0.811229 -0.175071 9.13869e-18)
(0.825278 -0.161158 4.96144e-17)
(0.844816 -0.149503 3.20257e-17)
(0.855885 -0.138374 2.7926e-17)
(0.872398 -0.128799 1.10853e-17)
(0.881162 -0.119833 5.76274e-17)
(0.895348 -0.111841 5.12588e-17)
(0.902295 -0.104585 -3.44607e-17)
(0.914674 -0.097815 -1.35426e-17)
(0.920163 -0.0919308 -1.82503e-17)
(0.931129 -0.086112 6.45828e-18)
(0.935427 -0.0813445 -3.46796e-18)
(0.945283 -0.0762663 -3.1252e-17)
(0.948591 -0.0724181 3.49694e-18)
(0.957573 -0.0679134 -4.3303e-17)
(0.960041 -0.0648297 7.14693e-17)
(0.968337 -0.0607638 -5.02273e-17)
(0.97008 -0.0583223 -3.59889e-17)
(0.97784 -0.054586 6.58404e-18)
(0.978947 -0.05269 -1.6867e-18)
(0.986298 -0.049195 -1.15461e-17)
(0.986835 -0.0477688 1.76929e-17)
(0.993882 -0.0444399 -3.54588e-17)
(0.993911 -0.0434507 4.07457e-17)
(1.00067 -0.0399929 -8.35151e-18)
(1.00082 -0.0411613 -2.13338e-17)
(1.00374 -0.0265351 5.3858e-17)
(1.02051 -0.0812783 -1.82653e-17)
(0.334513 -0.651133 2.20212e-16)
(0.397918 -0.553109 1.07242e-16)
(0.479564 -0.500072 4.43928e-17)
(0.531166 -0.441608 1.43739e-16)
(0.588975 -0.397805 -2.48761e-17)
(0.627274 -0.356115 6.5737e-17)
(0.671252 -0.323132 -2.40989e-17)
(0.69985 -0.291693 -8.89408e-17)
(0.734285 -0.266521 -1.19686e-16)
(0.75603 -0.242328 9.84719e-17)
(0.783608 -0.222731 1.4851e-17)
(0.800392 -0.203818 9.1328e-17)
(0.822924 -0.188268 -5.80887e-17)
(0.836026 -0.173289 -1.64813e-17)
(0.854775 -0.160729 3.42106e-17)
(0.865086 -0.148745 -2.11728e-17)
(0.880953 -0.138428 -3.258e-17)
(0.889109 -0.128771 -4.90301e-17)
(0.902756 -0.120162 -3.07879e-17)
(0.909213 -0.112345 5.79556e-17)
(0.921135 -0.105053 -1.35983e-17)
(0.926228 -0.0987138 -1.08697e-17)
(0.936802 -0.092445 3.54216e-17)
(0.94078 -0.0873072 3.83057e-17)
(0.950293 -0.0818365 -4.35208e-17)
(0.953342 -0.077686 6.5267e-17)
(0.962019 -0.0728339 -3.57956e-17)
(0.964281 -0.0695049 1.95488e-18)
(0.9723 -0.0651257 -9.94969e-18)
(0.973881 -0.0624882 5.55747e-17)
(0.981387 -0.0584634 -2.35212e-17)
(0.982368 -0.0564149 -1.59756e-17)
(0.989481 -0.0526481 3.67599e-17)
(0.989925 -0.0511081 3.54887e-17)
(0.996745 -0.0475179 -6.95099e-17)
(0.99671 -0.046451 1.24815e-17)
(1.00323 -0.04272 2.61968e-18)
(1.00346 -0.0439759 5.82888e-18)
(1.00541 -0.0282453 -7.0504e-17)
(1.0258 -0.0869971 -4.72807e-18)
(0.3783 -0.694585 1.21953e-16)
(0.435089 -0.589967 -6.05081e-19)
(0.513153 -0.533413 -1.38502e-17)
(0.560829 -0.471047 -3.53079e-17)
(0.615672 -0.424308 -3.72077e-17)
(0.651157 -0.379805 -1.50434e-16)
(0.692901 -0.344611 7.65653e-17)
(0.719378 -0.311049 3.91706e-17)
(0.752109 -0.284189 4.46794e-17)
(0.772222 -0.258358 4.40016e-17)
(0.798474 -0.237443 1.04983e-17)
(0.813982 -0.217247 -1.29277e-16)
(0.835462 -0.200652 3.80256e-17)
(0.847556 -0.184657 -4.89197e-17)
(0.865454 -0.171254 -2.90276e-17)
(0.874961 -0.158459 -6.94415e-17)
(0.89013 -0.147449 4.11524e-17)
(0.897636 -0.13714 -1.79507e-17)
(0.910701 -0.127951 2.52422e-17)
(0.916632 -0.119607 -8.95782e-17)
(0.928061 -0.111822 9.80516e-18)
(0.932727 -0.105055 3.54584e-19)
(0.942876 -0.0983622 -3.36933e-17)
(0.946508 -0.0928781 1.78783e-18)
(0.955652 -0.0870353 -1.13821e-17)
(0.958422 -0.0826069 6.5282e-17)
(0.966773 -0.0774225 -4.3008e-17)
(0.96881 -0.0738726 3.37219e-17)
(0.976536 -0.0691919 2.09189e-17)
(0.977939 -0.0663805 -2.99091e-17)
(0.985176 -0.0620783 2.8931e-17)
(0.986019 -0.0598946 5.56723e-18)
(0.99288 -0.0558692 -4.23676e-17)
(0.993221 -0.054226 5.88163e-18)
(0.999801 -0.0503911 6.8624e-17)
(0.999695 -0.0492504 -5.2663e-17)
(1.00596 -0.0452673 3.04667e-17)
(1.00628 -0.0466001 -4.19288e-17)
(1.00718 -0.0298358 7.89346e-17)
(1.03146 -0.0923454 3.25091e-18)
(0.424912 -0.735204 -1.76083e-16)
(0.474663 -0.624485 7.63705e-18)
(0.548909 -0.564555 -2.43596e-18)
(0.59236 -0.498503 -1.94487e-17)
(0.644055 -0.449005 1.57339e-16)
(0.676539 -0.401899 2.77531e-17)
(0.715915 -0.364629 3.69527e-18)
(0.74013 -0.329105 4.3965e-17)
(0.771053 -0.300658 -4.87837e-17)
(0.789425 -0.273317 -4.46355e-17)
(0.814269 -0.251167 -2.30897e-18)
(0.828417 -0.229792 7.24099e-17)
(0.848782 -0.212216 6.34418e-17)
(0.859797 -0.195286 6.365e-17)
(0.876796 -0.18109 4.97601e-18)
(0.88544 -0.167545 1.3489e-16)
(0.89987 -0.155884 -8.57099e-17)
(0.906682 -0.144969 1.17159e-16)
(0.919131 -0.135238 1.94646e-17)
(0.924503 -0.126404 6.02252e-17)
(0.935411 -0.118159 -2.43228e-18)
(0.939625 -0.110995 4.47459e-18)
(0.949327 -0.103906 -3.59939e-17)
(0.952593 -0.0980978 3.59128e-17)
(0.961347 -0.0919096 -3.01811e-18)
(0.963821 -0.0872171 -6.5839e-17)
(0.971825 -0.0817272 6.40186e-17)
(0.973626 -0.0779622 -4.11971e-17)
(0.981038 -0.0730067 2.69381e-18)
(0.982254 -0.0700225 -2.91843e-17)
(0.989202 -0.0654677 9.71876e-18)
(0.989901 -0.0631487 -4.71367e-17)
(0.99649 -0.058886 4.78088e-17)
(0.996723 -0.0571411 1.3918e-17)
(1.00304 -0.0530781 -3.22475e-17)
(1.00286 -0.0518675 7.20497e-17)
(1.00887 -0.0476457 -4.46952e-17)
(1.00927 -0.0490534 4.24503e-17)
(1.00905 -0.0313217 -3.28338e-17)
(1.03746 -0.0973381 -6.3148e-17)
(0.474 -0.772573 -9.87083e-17)
(0.516339 -0.656177 2.58004e-17)
(0.58656 -0.593237 -1.65649e-17)
(0.625608 -0.523824 2.2403e-18)
(0.673981 -0.471803 -3.40117e-17)
(0.703312 -0.422275 -4.33696e-17)
(0.740185 -0.383103 -4.75587e-17)
(0.76202 -0.34575 -6.14826e-17)
(0.791033 -0.315852 -1.26456e-16)
(0.807574 -0.287101 8.58532e-17)
(0.830932 -0.263818 -3.645e-17)
(0.843646 -0.241338 -1.20166e-17)
(0.862832 -0.222863 -1.88118e-16)
(0.872714 -0.205058 -5.42117e-17)
(0.888762 -0.190136 -4.33857e-17)
(0.896501 -0.175893 -2.02897e-18)
(0.910151 -0.163636 4.78824e-17)
(0.916235 -0.152161 -7.21123e-17)
(0.928032 -0.141931 4.18479e-17)
(0.932814 -0.132643 -8.07097e-17)
(0.943169 -0.123975 4.45199e-17)
(0.946904 -0.116441 -1.604e-17)
(0.956131 -0.108988 3.58961e-17)
(0.959008 -0.102881 -8.44884e-18)
(0.967347 -0.0963728 6.65681e-18)
(0.969507 -0.0914401 8.4515e-18)
(0.977144 -0.0856642 3.14899e-19)
(0.978693 -0.0817084 -2.01758e-17)
(0.985774 -0.0764929 3.32283e-17)
(0.986791 -0.073359 1.25543e-17)
(0.993436 -0.0685644 8.44425e-19)
(0.993979 -0.0661297 -6.24874e-18)
(1.00029 -0.0616428 2.37453e-17)
(1.0004 -0.0598102 -3.42564e-17)
(1.00645 -0.0555346 6.43663e-18)
(1.00619 -0.0542616 -7.23315e-18)
(1.01191 -0.049821 -2.83057e-17)
(1.01241 -0.0512957 -2.83347e-18)
(1.01102 -0.0326732 -2.87792e-17)
(1.04377 -0.101917 8.24706e-18)
(0.525515 -0.806759 1.65031e-16)
(0.560068 -0.685236 -3.07925e-17)
(0.626079 -0.619437 -1.21917e-17)
(0.660459 -0.546933 5.27284e-17)
(0.70535 -0.492586 -3.41407e-17)
(0.731363 -0.44087 1.15901e-16)
(0.765617 -0.399948 4.64288e-17)
(0.784953 -0.360946 8.19486e-17)
(0.811967 -0.32971 8.42254e-17)
(0.826584 -0.299691 -1.82685e-17)
(0.848386 -0.275367 -4.23514e-17)
(0.859599 -0.251895 5.36876e-17)
(0.877551 -0.232593 1.52138e-16)
(0.886244 -0.214003 1.05469e-16)
(0.901295 -0.198411 2.62972e-17)
(0.908081 -0.183539 -7.1604e-17)
(0.920913 -0.170732 -9.52497e-17)
(0.92623 -0.158747 7.94624e-17)
(0.937346 -0.148059 -1.10509e-16)
(0.941507 -0.138358 1.26227e-17)
(0.951286 -0.129302 3.2221e-17)
(0.95452 -0.121434 -3.27383e-18)
(0.963252 -0.113646 5.98858e-18)
(0.965724 -0.107267 -3.24252e-19)
(0.973631 -0.100467 6.17645e-18)
(0.975464 -0.0953124 -3.53888e-17)
(0.982717 -0.0892777 3.71372e-17)
(0.984004 -0.0851415 -3.66329e-17)
(0.990739 -0.0796934 3.37669e-19)
(0.991548 -0.0764139 -1.1179e-17)
(0.997873 -0.0714063 3.55114e-17)
(0.998256 -0.0688565 -1.35295e-17)
(1.00426 -0.0641702 9.6366e-18)
(1.00426 -0.0622503 -8.98845e-17)
(1.01003 -0.0577835 8.67468e-17)
(1.00968 -0.0564497 -6.57073e-17)
(1.01511 -0.0518089 1.4399e-17)
(1.0157 -0.0533448 4.00249e-17)
(1.01307 -0.0339088 -4.3748e-18)
(1.05038 -0.106097 3.69834e-17)
(0.579065 -0.837405 -9.37926e-17)
(0.605539 -0.711221 1.92435e-16)
(0.667155 -0.642971 -1.34817e-16)
(0.696725 -0.567698 7.42158e-18)
(0.737996 -0.511286 -4.52932e-17)
(0.760568 -0.45758 -2.00231e-17)
(0.792093 -0.415101 3.49405e-17)
(0.808831 -0.374595 -3.94619e-18)
(0.833764 -0.34217 -1.54736e-16)
(0.846381 -0.310992 1.21907e-16)
(0.866562 -0.285739 1.94894e-18)
(0.876209 -0.26136 -2.36393e-17)
(0.892876 -0.241321 -9.91849e-17)
(0.90033 -0.222011 -1.87954e-16)
(0.914344 -0.205825 -4.7057e-17)
(0.920141 -0.190378 5.55499e-17)
(0.932123 -0.177082 6.16309e-17)
(0.936644 -0.164637 -2.69957e-17)
(0.94705 -0.15354 -5.20281e-18)
(0.950567 -0.143466 3.65496e-17)
(0.959745 -0.134063 -5.75948e-19)
(0.962455 -0.125892 -3.68541e-17)
(0.970669 -0.117804 -2.28761e-17)
(0.972717 -0.11118 -2.46849e-17)
(0.98017 -0.104117 3.93812e-17)
(0.981661 -0.0987643 -2.48724e-17)
(0.988512 -0.092495 1.30973e-17)
(0.989524 -0.0882011 1.64513e-17)
(0.995897 -0.0825395 5.31636e-17)
(0.996487 -0.0791364 -5.22888e-17)
(1.00248 -0.0739314 5.80115e-17)
(1.00269 -0.0712865 -5.4063e-17)
(1.00839 -0.0664151 5.377e-17)
(1.00826 -0.0644237 2.69189e-17)
(1.01373 -0.0597809 3.02673e-17)
(1.0133 -0.0583966 -9.36643e-17)
(1.01842 -0.0535743 7.12526e-17)
(1.01912 -0.055166 -7.92926e-17)
(1.0152 -0.0349976 -2.09437e-17)
(1.05724 -0.109827 3.16102e-17)
(0.634599 -0.864575 9.20611e-17)
(0.652676 -0.734322 -1.17816e-16)
(0.709753 -0.663781 -5.28072e-17)
(0.734301 -0.586067 1.76478e-16)
(0.771815 -0.527801 1.12668e-16)
(0.790811 -0.472359 3.22062e-18)
(0.81951 -0.428484 -1.32844e-16)
(0.833554 -0.386671 8.50308e-18)
(0.85633 -0.35318 1.0693e-16)
(0.866875 -0.320995 -9.7825e-17)
(0.885378 -0.294913 3.76302e-17)
(0.893407 -0.269747 2.17732e-17)
(0.908743 -0.249049 6.89571e-17)
(0.914916 -0.229117 7.64296e-17)
(0.927855 -0.212397 1.31933e-16)
(0.932627 -0.19645 -2.50294e-17)
(0.943726 -0.182716 -2.06616e-17)
(0.94742 -0.169866 -5.07176e-18)
(0.95709 -0.158403 3.91648e-17)
(0.959938 -0.148002 -4.01761e-17)
(0.968493 -0.138288 1.14612e-17)
(0.970662 -0.129851 -6.17036e-18)
(0.978341 -0.121496 4.52256e-17)
(0.979951 -0.114656 -7.24671e-17)
(0.986938 -0.107359 3.22365e-17)
(0.988075 -0.101831 -4.09733e-17)
(0.994513 -0.0953544 -1.70134e-17)
(0.995241 -0.0909176 -7.75073e-18)
(1.00124 -0.0850696 -7.43587e-18)
(1.00161 -0.0815509 -4.84665e-18)
(1.00726 -0.0761755 -4.49846e-17)
(1.0073 -0.0734387 5.10697e-17)
(1.01267 -0.0684083 -4.32823e-17)
(1.01241 -0.0663462 -4.3574e-17)
(1.01757 -0.0615516 4.26173e-17)
(1.01705 -0.0601174 6.52618e-17)
(1.02184 -0.0551365 1.25161e-17)
(1.02265 -0.0567749 3.6237e-17)
(1.01741 -0.0359611 -2.23412e-17)
(1.06435 -0.113121 1.14229e-17)
(0.691698 -0.887969 -1.38987e-17)
(0.701162 -0.754156 -4.59853e-17)
(0.753561 -0.681764 6.07155e-17)
(0.772967 -0.601919 -3.7291e-17)
(0.806623 -0.542081 -2.54746e-16)
(0.821948 -0.485116 -4.77953e-17)
(0.847742 -0.440054 7.56162e-17)
(0.859014 -0.397089 1.8414e-17)
(0.879571 -0.362692 -7.76192e-17)
(0.887983 -0.32962 4.31442e-17)
(0.904757 -0.30283 5.2381e-17)
(0.911117 -0.276968 -1.47203e-16)
(0.925082 -0.255707 1.09284e-17)
(0.929932 -0.235224 1.90307e-18)
(0.941766 -0.21805 -7.31265e-17)
(0.945481 -0.201663 1.72811e-17)
(0.955673 -0.187556 7.17184e-17)
(0.958518 -0.174353 -1.68109e-17)
(0.967432 -0.162578 4.92268e-17)
(0.969593 -0.151891 -9.04767e-17)
(0.977506 -0.141912 5.08084e-17)
(0.979118 -0.133243 -9.78653e-18)
(0.986244 -0.124659 -7.04132e-18)
(0.987402 -0.11763 3.08338e-17)
(0.993906 -0.110132 3.74085e-17)
(0.994678 -0.104452 2.58573e-17)
(1.00069 -0.0977958 3.55038e-18)
(1.00112 -0.0932373 9.17936e-18)
(1.00673 -0.087226 -3.99378e-18)
(1.00687 -0.0836117 4.73958e-17)
(1.01216 -0.0780852 7.08628e-18)
(1.01202 -0.0752749 -3.3327e-17)
(1.01706 -0.0701024 6.25035e-18)
(1.01667 -0.0679853 8.11156e-17)
(1.02151 -0.0630551 -5.31749e-17)
(1.0209 -0.0615824 -9.84631e-17)
(1.02536 -0.0564613 7.46127e-17)
(1.02628 -0.0581427 -4.65535e-17)
(1.01967 -0.0367681 1.65475e-18)
(1.07165 -0.115937 -1.00902e-18)
(0.750299 -0.907664 1.38184e-16)
(0.750904 -0.770903 2.09028e-16)
(0.798502 -0.69683 -3.37974e-17)
(0.812624 -0.615233 1.44457e-17)
(0.842314 -0.554045 1.98346e-16)
(0.853867 -0.495825 2.90337e-19)
(0.876675 -0.449748 8.05952e-18)
(0.885106 -0.405838 3.36692e-17)
(0.903385 -0.370665 2.30042e-17)
(0.909612 -0.336865 -2.64364e-17)
(0.924613 -0.309471 -6.06114e-17)
(0.929267 -0.283041 1.1189e-16)
(0.941826 -0.261301 7.23611e-17)
(0.945326 -0.240367 -3.79693e-17)
(0.956025 -0.222805 -5.27762e-18)
(0.958659 -0.206057 -2.85627e-17)
(0.967919 -0.19163 -1.1122e-16)
(0.969891 -0.178134 1.07354e-17)
(0.978027 -0.166093 7.24483e-19)
(0.979482 -0.155167 3.52466e-17)
(0.986737 -0.144963 -3.4953e-18)
(0.987777 -0.1361 1.93224e-18)
(0.994337 -0.127322 9.58393e-18)
(0.995032 -0.120136 -6.13724e-18)
(1.00104 -0.112467 -3.67087e-17)
(1.00144 -0.106659 -3.82912e-17)
(1.00701 -0.0998515 2.9325e-17)
(1.00715 -0.0951896 -3.56793e-17)
(1.01237 -0.0890415 5.22207e-17)
(1.01226 -0.0853435 -8.63158e-17)
(1.01719 -0.0796919 3.16284e-18)
(1.01687 -0.0768147 3.08815e-17)
(1.02157 -0.0715258 -5.00931e-17)
(1.02103 -0.0693568 -4.39148e-17)
(1.02556 -0.0643159 -3.86232e-17)
(1.02484 -0.0628058 4.06903e-17)
(1.02897 -0.0575695 -3.4055e-17)
(1.03 -0.0592832 -2.13907e-17)
(1.02198 -0.0374419 2.96847e-17)
(1.07914 -0.118287 2.89926e-17)
(0.809973 -0.923401 -1.7016e-16)
(0.801572 -0.784247 -1.92416e-16)
(0.844298 -0.708947 -7.25804e-17)
(0.85303 -0.6259 9.18627e-17)
(0.878692 -0.56366 -9.82256e-17)
(0.886404 -0.504409 6.86625e-17)
(0.906179 -0.457537 -1.00551e-16)
(0.911712 -0.412847 -4.48101e-17)
(0.927675 -0.377065 3.67807e-17)
(0.93167 -0.342664 8.73137e-17)
(0.944867 -0.314795 6.84453e-17)
(0.947775 -0.287894 -8.93005e-18)
(0.958901 -0.265775 -5.73334e-17)
(0.961018 -0.244467 -6.80912e-17)
(0.970561 -0.2266 -1.30497e-17)
(0.97209 -0.209553 8.21309e-17)
(0.980402 -0.194875 5.7994e-17)
(0.981485 -0.18114 -4.8303e-17)
(0.988831 -0.168888 3.96132e-18)
(0.989567 -0.157769 -1.76087e-17)
(0.996152 -0.147386 -9.62201e-18)
(0.996609 -0.138366 2.84584e-17)
(1.00259 -0.129433 -8.73214e-17)
(1.00281 -0.122119 -1.58123e-17)
(1.00832 -0.114315 1.11167e-16)
(1.00834 -0.108403 -3.15681e-17)
(1.01346 -0.101474 1.75335e-18)
(1.01329 -0.0967287 2.1608e-17)
(1.0181 -0.0904702 -3.53031e-17)
(1.01775 -0.0867064 1.65469e-17)
(1.02231 -0.0809526 -1.39505e-18)
(1.0218 -0.0780246 3.91848e-17)
(1.02615 -0.0726394 2.99295e-18)
(1.02547 -0.0704323 8.93644e-17)
(1.02967 -0.0652993 6.19303e-17)
(1.02885 -0.0637625 -1.11847e-17)
(1.03264 -0.0584305 3.02242e-17)
(1.03378 -0.0601728 3.12665e-17)
(1.02433 -0.037953 -6.19435e-17)
(1.08675 -0.120137 3.31367e-17)
(0.870637 -0.935288 2.10115e-16)
(0.853071 -0.794353 1.12856e-16)
(0.890811 -0.718019 9.01294e-17)
(0.894087 -0.63393 -3.99106e-19)
(0.915641 -0.570868 -4.75216e-17)
(0.919453 -0.510865 -4.60071e-19)
(0.936134 -0.463375 8.46753e-17)
(0.938727 -0.418118 4.98674e-18)
(0.95233 -0.381864 -7.87745e-17)
(0.954064 -0.347026 -6.19386e-17)
(0.965424 -0.318789 4.37768e-17)
(0.966566 -0.291548 -9.38953e-17)
(0.976236 -0.269137 -3.92915e-17)
(0.976956 -0.24756 1.86048e-16)
(0.985323 -0.229456 -9.42226e-17)
(0.985733 -0.212193 -1.13931e-18)
(0.993079 -0.19732 -8.87691e-18)
(0.99326 -0.183408 -5.36881e-18)
(0.9998 -0.170994 8.73725e-17)
(0.999806 -0.159731 -4.76865e-17)
(1.00571 -0.14921 2.4441e-17)
(1.00557 -0.140072 5.73589e-17)
(1.01097 -0.13102 -1.36952e-17)
(1.01071 -0.123611 -2.08685e-17)
(1.01571 -0.115702 3.12719e-17)
(1.01534 -0.109713 -5.66656e-17)
(1.02 -0.10269 2.05436e-17)