/*--------------------------------*- C++ -*----------------------------------*\
| =========                 |                                                 |
| \\      /  F ield         | foam-extend: Open Source CFD                    |
|  \\    /   O peration     | Version:  3.0                                   |
|   \\  /    A nd           | Web:         http://www.extend-project.de       |
|    \\/     M anipulation  |                                                 |
\*---------------------------------------------------------------------------*/
FoamFile
{
    version     2.0;
    format      ascii;
    class       volSymmTensorField;
    location    "13";
    object      sigma;
}
// * * * * * * * * * * * * * * * * * * * * * * * * * * * * * * * * * * * * * //

dimensions      [0 0 0 0 0 0 0];

internalField   nonuniform List<symmTensor> 
480
(
(-0.164683 -0.0122816 2.34103e-20 0.164791 -3.67398e-21 -0.00010801)
(-0.147307 -0.0139302 1.05493e-19 0.147571 -3.35296e-20 -0.000263493)
(-0.124834 -0.0133604 1.04362e-19 0.125221 1.7532e-19 -0.00038666)
(-0.102752 -0.0120885 -7.23998e-20 0.103231 1.21605e-19 -0.000479661)
(-0.08274 -0.0106779 1.17902e-19 0.0832813 -2.03885e-19 -0.000541289)
(-0.0652063 -0.00936312 4.02043e-19 0.0657723 -8.66072e-20 -0.000566075)
(-0.0502079 -0.00823233 3.89449e-19 0.0507555 -1.83885e-19 -0.00054759)
(-0.0378945 -0.00736221 4.61931e-20 0.0383706 -4.38304e-20 -0.000476067)
(-0.0283437 -0.00676995 4.84032e-19 0.0286861 -7.25006e-19 -0.000342395)
(-0.0221066 -0.00655148 5.11932e-20 0.0222422 -1.82556e-19 -0.000135562)
(-0.160365 -0.0362479 1.21285e-21 0.160469 -1.34667e-20 -0.000103427)
(-0.140526 -0.0404625 1.58178e-19 0.140778 -1.15141e-19 -0.000252265)
(-0.117583 -0.0384434 3.48201e-19 0.117953 -1.86243e-19 -0.000370079)
(-0.0957623 -0.0344633 -2.56906e-20 0.0962213 -1.63241e-19 -0.000458969)
(-0.0762629 -0.030101 -2.13487e-19 0.0767807 -1.98491e-19 -0.000517785)
(-0.0592754 -0.0260081 2.22031e-19 0.0598168 -1.82641e-20 -0.00054135)
(-0.0447736 -0.0224252 3.34861e-19 0.0452971 -2.27029e-19 -0.000523497)
(-0.0328381 -0.0195636 7.8555e-20 0.033293 -1.79504e-19 -0.000454934)
(-0.0235333 -0.0174748 -5.34385e-19 0.0238602 -5.15827e-19 -0.000326996)
(-0.0173519 -0.0164045 1.43012e-19 0.0174812 2.89763e-19 -0.000129346)
(-0.152046 -0.0587377 -5.21175e-20 0.152143 -4.64073e-20 -9.70328e-05)
(-0.127757 -0.0638898 -4.29559e-21 0.127993 -2.46586e-19 -0.00023671)
(-0.104023 -0.0599777 2.00223e-20 0.104371 -2.15129e-19 -0.000347331)
(-0.082757 -0.053299 -1.45345e-19 0.0831878 -2.29993e-20 -0.000430841)
(-0.0642664 -0.0461634 -1.89212e-19 0.0647525 3.53557e-19 -0.000486121)
(-0.0483483 -0.0395112 3.6825e-19 0.0488566 1.38001e-19 -0.000508272)
(-0.0348233 -0.0336849 9.33352e-20 0.0353148 -3.78771e-20 -0.000491485)
(-0.0236466 -0.0289896 -1.75443e-19 0.0240737 -1.29884e-19 -0.000427025)
(-0.0148573 -0.0255042 -1.39562e-19 0.0151641 6.10567e-19 -0.000306813)
(-0.00884514 -0.0235925 6.41813e-19 0.0089664 -4.74715e-19 -0.000121256)
(-0.140294 -0.0789448 -1.60808e-19 0.140383 -1.31088e-20 -8.91081e-05)
(-0.110415 -0.082618 -4.18519e-19 0.110633 2.29289e-19 -0.000217439)
(-0.0858226 -0.0761654 2.5034e-20 0.0861417 3.29384e-19 -0.000319141)
(-0.0654194 -0.0668157 2.34695e-19 0.0658154 2.91261e-19 -0.00039599)
(-0.0483638 -0.0571863 8.47577e-20 0.0488107 4.10927e-19 -0.000446914)
(-0.0339446 -0.0483135 1.39299e-19 0.034412 -1.07529e-19 -0.000467376)
(-0.021785 -0.0405669 2.63468e-19 0.022237 -8.69533e-20 -0.000451987)
(-0.011679 -0.0342844 3.63076e-19 0.0120717 -1.28811e-20 -0.000392693)
(-0.00363109 -0.0295619 1.94804e-19 0.00391317 -6.25144e-19 -0.000282081)
(0.00209965 -0.0268352 -8.84234e-19 -0.00198825 8.95714e-20 -0.000111402)
(-0.125869 -0.0963003 3.2071e-20 0.125949 -1.6262e-20 -7.97548e-05)
(-0.0903629 -0.0956838 -3.33991e-19 0.0905576 5.56574e-19 -0.0001947)
(-0.0651636 -0.0859574 -2.54667e-19 0.0654495 5.97383e-19 -0.000285882)
(-0.0459541 -0.0739944 -2.21343e-20 0.046309 4.08361e-19 -0.000354875)
(-0.0306658 -0.0622213 4.16102e-19 0.0310665 -1.30417e-19 -0.000400677)
(-0.0180503 -0.0515458 3.62914e-20 0.0184695 -5.49225e-19 -0.000419174)
(-0.00752319 -0.0422757 4.89207e-19 0.00792867 -9.01236e-19 -0.000405483)
(0.00129239 -0.0347108 -2.62814e-19 -0.000940065 -7.59947e-19 -0.000352329)
(0.00843099 -0.0289506 -1.76673e-19 -0.00817793 -7.20607e-19 -0.000253064)
(0.0137719 -0.0254515 5.22148e-19 -0.013672 3.21952e-19 -9.98791e-05)
(-0.109617 -0.110516 6.91022e-20 0.109686 1.67542e-19 -6.91141e-05)
(-0.0696329 -0.102869 3.50075e-19 0.0698018 3.81713e-19 -0.000168825)
(-0.044425 -0.0891891 3.23107e-19 0.044673 3.06236e-19 -0.000248023)
(-0.0267593 -0.0747135 2.02549e-19 0.0270673 -6.44002e-20 -0.000308059)
(-0.0134656 -0.0611828 -6.03378e-20 0.0138136 -7.53561e-19 -0.000348018)
(-0.00282119 -0.0491527 -5.52596e-19 0.00318547 -1.10853e-18 -0.000364279)
(0.00594076 -0.0387818 -1.13274e-18 -0.00558822 -5.54949e-19 -0.000352535)
(0.0133477 -0.0302616 9.85223e-20 -0.0130413 -4.8116e-19 -0.000306402)
(0.0194735 -0.0236799 -1.11566e-18 -0.0192534 -2.86145e-19 -0.000220078)
(0.0243224 -0.0194665 5.08387e-19 -0.0242356 -3.90971e-19 -8.68061e-05)
(-0.0923627 -0.121587 -3.68272e-20 0.09242 2.32071e-19 -5.73339e-05)
(-0.0501397 -0.104703 5.96259e-19 0.0502799 4.80069e-20 -0.000140169)
(-0.0258318 -0.0865828 8.25951e-19 0.0260379 -2.83089e-19 -0.00020608)
(-0.0100714 -0.069752 6.46207e-19 0.0103275 -7.62928e-19 -0.000256165)
(0.00110264 -0.0548499 -3.97696e-19 -0.000813027 -9.09253e-19 -0.000289617)
(0.00974023 -0.0418951 -1.01697e-18 -0.00943686 -5.63112e-19 -0.00030337)
(0.0167318 -0.0308237 -1.2476e-18 -0.016438 2.26047e-19 -0.000293771)
(0.0227092 -0.0216608 -6.91561e-19 -0.0224538 -3.70884e-19 -0.000255428)
(0.0277797 -0.0144687 -1.59974e-18 -0.0275962 3.21046e-19 -0.000183481)
(0.0320431 -0.00961286 2.44388e-19 -0.0319708 -1.24768e-19 -7.23143e-05)
(-0.0748161 -0.129756 9.72984e-20 0.0748607 -1.58474e-20 -4.45907e-05)
(-0.033407 -0.102354 2.74239e-19 0.0335162 -2.08916e-19 -0.000109151)
(-0.0111325 -0.0796174 1.98658e-19 0.0112931 -3.99594e-19 -0.000160649)
(0.00236307 -0.0606558 -1.08485e-19 -0.00216316 -5.00079e-19 -0.00019991)
(0.0113794 -0.0447382 -6.5738e-19 -0.0111531 -2.40581e-19 -0.000226255)
(0.0180828 -0.0312288 -6.51882e-19 -0.0178456 4.7823e-20 -0.000237236)
(0.0234028 -0.0197939 -5.27428e-19 -0.0231729 1.56686e-19 -0.000229921)
(0.0280094 -0.0102557 -5.71997e-19 -0.0278094 1.76713e-19 -0.000200013)
(0.0320325 -0.00263925 -3.41736e-19 -0.0318888 -7.45605e-20 -0.00014368)
(0.0356272 0.00277387 -1.10919e-18 -0.0355707 1.40281e-19 -5.65553e-05)
(-0.057492 -0.135436 -2.96347e-20 0.0575231 -6.57696e-20 -3.10677e-05)
(-0.0203611 -0.0974252 -2.54686e-19 0.0204373 -1.53077e-19 -7.6214e-05)
(-0.00135147 -0.0702845 -4.76824e-19 0.00146384 -1.05671e-19 -0.000112368)
(0.00953971 -0.0494898 -4.03752e-19 -0.00939964 4.51957e-20 -0.000140069)
(0.0164231 -0.0328614 -2.24066e-20 -0.0162644 3.2046e-20 -0.000158785)
(0.021337 -0.0190785 -3.99197e-19 -0.0211703 3.17113e-20 -0.00016674)
(0.0251514 -0.00752568 -3.36145e-19 -0.0249896 6.56583e-20 -0.000161791)
(0.0284983 0.00218677 -3.20394e-19 -0.0283575 1.95878e-19 -0.000140829)
(0.0315152 0.0100783 -5.85683e-20 -0.031414 -8.14287e-20 -0.000101138)
(0.0343702 0.0159525 -5.75671e-19 -0.0343305 3.18249e-19 -3.97019e-05)
(-0.0406718 -0.139126 -4.88026e-20 0.0406888 -4.79154e-20 -1.69705e-05)
(-0.0112177 -0.0916902 -1.35717e-19 0.0112595 -1.64102e-19 -4.18474e-05)
(0.00334629 -0.0607694 -6.82251e-19 -0.00328434 -3.03418e-20 -6.19449e-05)
(0.0113345 -0.0385126 -6.24272e-19 -0.011257 1.46267e-19 -7.75019e-05)
(0.0161435 -0.0214172 -4.24569e-19 -0.0160553 2.00906e-19 -8.81547e-05)
(0.019441 -0.00754163 -5.21114e-20 -0.0193481 1.37412e-19 -9.28482e-05)
(0.0219395 0.00398602 -3.39097e-19 -0.0218492 1.42545e-19 -9.02892e-05)
(0.0241576 0.0137467 -6.22185e-21 -0.024079 3.39152e-19 -7.86423e-05)
(0.0262234 0.0218057 5.56673e-19 -0.026167 3.34984e-20 -5.63858e-05)
(0.0282815 0.0280353 -1.10787e-19 -0.0282595 -1.83765e-20 -2.19556e-05)
(-0.0244022 -0.141301 -5.6297e-20 0.0244047 -3.13421e-20 -2.5102e-06)
(-0.00548025 -0.0868032 -9.82633e-20 0.00548682 -1.08709e-19 -6.56479e-06)
(0.00365761 -0.0531057 -3.61221e-19 -0.00364749 -1.28431e-20 -1.01244e-05)
(0.00850641 -0.0298232 -2.64348e-19 -0.00849328 1.18597e-19 -1.31224e-05)
(0.0113041 -0.0124471 -2.71351e-19 -0.0112888 1.22374e-19 -1.53816e-05)
(0.0131438 0.00143472 -4.39092e-19 -0.0131272 9.87127e-20 -1.66088e-05)
(0.0144966 0.0128897 -4.0732e-19 -0.0144802 1.8582e-19 -1.64101e-05)
(0.0157048 0.0226426 -1.05347e-19 -0.0156905 3.02802e-19 -1.42979e-05)
(0.0168697 0.0307989 4.12801e-19 -0.0168597 5.54207e-20 -1.0017e-05)
(0.0180885 0.0372708 -3.72946e-20 -0.0180849 -2.07963e-20 -3.54495e-06)
(-0.00853317 -0.142329 -7.68285e-20 0.00852109 -1.61393e-20 1.20846e-05)
(-0.00204849 -0.0840352 -1.40141e-19 0.0020194 -7.40761e-20 2.90821e-05)
(0.00101094 -0.0488556 -2.83194e-19 -0.00105323 -1.25015e-20 4.22901e-05)
(0.00256494 -0.025035 -3.75975e-19 -0.00261702 1.12993e-19 5.20806e-05)
(0.00339575 -0.00752053 -3.6656e-19 -0.00345418 1.06876e-19 5.84275e-05)
(0.00388549 0.00635271 -3.44278e-19 -0.00394632 8.85927e-20 6.08312e-05)
(0.00420697 0.0177599 -1.6158e-19 -0.00426572 1.66219e-19 5.8748e-05)
(0.00448504 0.0275021 -1.05928e-19 -0.0045363 2.64558e-19 5.12593e-05)
(0.00478013 0.0357124 2.93265e-19 -0.00481743 1.00292e-19 3.72985e-05)
(0.00513308 0.0423082 1.56277e-19 -0.00514834 -2.59753e-20 1.52685e-05)
(0.00721281 -0.142403 -7.41414e-20 -0.00723939 -4.59355e-21 2.65805e-05)
(0.000579678 -0.0840715 -2.06176e-19 -0.0006442 -6.1656e-20 6.45225e-05)
(-0.00267631 -0.0488653 -1.72286e-19 0.00258185 -2.2723e-20 9.44609e-05)
(-0.00447759 -0.0250242 -3.13661e-19 0.00436053 1.10007e-19 0.000117068)
(-0.00560316 -0.00749258 -4.19112e-19 0.00547106 1.05625e-19 0.0001321)
(-0.00642955 0.00639459 -2.99434e-19 0.0062913 6.57823e-20 0.000138247)
(-0.00710366 0.0178165 -1.88846e-20 0.00696966 1.16427e-19 0.000134002)
(-0.00773189 0.0275719 -1.56215e-19 0.00761489 2.16807e-19 0.000117004)
(-0.00830353 0.0358045 7.4967e-20 0.00821871 8.6692e-20 8.48245e-05)
(-0.00882617 0.0424027 1.75038e-19 0.00879198 -2.74727e-20 3.41944e-05)
(0.0231511 -0.141502 -8.85292e-20 -0.0231918 1.03131e-20 4.07334e-05)
(0.00404445 -0.0869036 -2.46311e-19 -0.00414361 -5.29047e-20 9.91609e-05)
(-0.0053154 -0.0531333 -2.21581e-20 0.00516989 -4.11023e-20 0.000145512)
(-0.0104308 -0.0297946 -4.3593e-20 0.0102501 1.06142e-19 0.000180748)
(-0.0135396 -0.012371 -5.22907e-19 0.0133352 9.86164e-20 0.000204399)
(-0.0157293 0.0015492 -3.24894e-19 0.015515 5.13802e-20 0.000214338)
(-0.0174491 0.0130445 -2.39877e-19 0.017241 4.18773e-20 0.000208088)
(-0.0190206 0.0228338 1.96875e-19 0.0188388 1.67569e-19 0.00018183)
(-0.0204845 0.0310512 -4.03173e-19 0.0203528 7.22054e-20 0.000131764)
(-0.0218755 0.0375302 7.75667e-20 0.0218226 -1.25853e-20 5.29159e-05)
(0.0395407 -0.139405 -3.57943e-20 -0.039595 4.46049e-20 5.42986e-05)
(0.00983963 -0.0918317 -2.76623e-19 -0.00997202 -1.4297e-20 0.000132396)
(-0.00499026 -0.0608104 -3.84527e-19 0.0047957 -9.05042e-20 0.000194552)
(-0.0132786 -0.0384755 -2.79579e-19 0.0130366 1.35272e-20 0.000242005)
(-0.0184272 -0.0213141 -3.87458e-19 0.0181531 6.8689e-20 0.000274048)
(-0.022098 -0.00738488 -1.01797e-19 0.0218102 5.90919e-20 0.000287755)
(-0.0249886 0.00419896 -1.75935e-19 0.024709 5.52706e-20 0.000279683)
(-0.0275933 0.0140101 -5.06906e-20 0.0273487 6.78403e-20 0.000244576)
(-0.0299973 0.0221535 -1.75788e-19 0.02982 -6.01526e-20 0.000177268)
(-0.0322326 0.0283935 3.54666e-19 0.0321615 1.32503e-20 7.10913e-05)
(0.0564997 -0.135725 -4.28321e-20 -0.0565668 5.48915e-20 6.70306e-05)
(0.0190512 -0.0975761 -4.44482e-19 -0.0192148 -5.05489e-20 0.000163623)
(-0.000274826 -0.0703326 -1.30748e-19 3.4141e-05 -1.08405e-19 0.000240685)
(-0.0115051 -0.049457 1.21447e-19 0.0112054 -1.8791e-20 0.000299709)
(-0.0187614 -0.0327597 1.56266e-19 0.0184217 2.10217e-19 0.000339755)
(-0.0240761 -0.0189208 -2.79604e-19 0.0237189 1.68788e-19 0.000357121)
(-0.0283125 -0.00730965 -2.90687e-19 0.027965 -9.20056e-20 0.000347434)
(-0.0320734 0.00245498 1.12732e-20 0.0317694 -1.18062e-19 0.000304044)
(-0.035475 0.0104327 2.1349e-20 0.0352545 1.71959e-20 0.000220463)
(-0.038514 0.0163189 -6.86792e-19 0.0384257 8.44257e-20 8.83687e-05)
(0.0739448 -0.129985 5.03557e-20 -0.0740235 -3.28461e-20 7.86916e-05)
(0.032159 -0.102482 2.26736e-19 -0.0323513 9.93834e-20 0.000192254)
(0.0095248 -0.0796656 1.71083e-19 -0.00980783 1.16607e-19 0.000283033)
(-0.00434397 -0.0606392 4.76453e-20 0.00399122 9.99664e-20 0.00035275)
(-0.0137629 -0.044666 5.02186e-20 0.0133626 1.75465e-19 0.000400238)
(-0.020892 -0.031111 -5.63032e-19 0.0204709 2.26695e-19 0.000421067)
(-0.0266611 -0.0196296 -7.97394e-19 0.0262512 -3.12657e-19 0.000409984)
(-0.0317073 -0.0100502 -4.41563e-19 0.0313483 1.93061e-19 0.000359025)
(-0.0361575 -0.00236789 -1.43414e-18 0.035897 -6.10967e-19 0.000260454)
(-0.0399441 0.0030565 9.06682e-19 0.0398397 2.19432e-20 0.000104383)
(0.0915628 -0.121708 -1.0567e-19 -0.0916518 -2.97243e-19 8.90553e-05)
(0.0489328 -0.104784 4.96297e-19 -0.0491505 -1.3225e-19 0.000217728)
(0.0242408 -0.0866247 5.44523e-19 -0.0245615 5.89739e-20 0.000320758)
(0.00808672 -0.0697593 3.7522e-19 -0.00848678 3.68829e-19 0.000400064)
(-0.00350846 -0.0548267 -4.93334e-19 0.00305419 3.34286e-19 0.000454266)
(-0.0125881 -0.0418465 -8.6766e-19 0.0121098 5.15885e-19 0.000478269)
(-0.0200471 -0.0307511 -1.49746e-18 0.0195811 -1.8685e-21 0.000466017)
(-0.0264817 -0.0215677 -1.79664e-19 0.0260734 -7.56428e-20 0.000408344)
(-0.0320074 -0.014347 -1.18082e-18 0.031711 2.64304e-19 0.000296373)
(-0.0364712 -0.00948291 -4.25357e-19 0.0363524 -6.45065e-19 0.000118781)
(0.10882 -0.110511 -3.25824e-20 -0.108918 -1.94064e-19 9.79132e-05)
(0.0684374 -0.102892 2.60766e-20 -0.068677 -4.25225e-19 0.000239528)
(0.0428467 -0.0892203 -5.91367e-20 -0.0431997 -5.01797e-19 0.00035308)
(0.0247857 -0.0747454 -1.27654e-19 -0.0252263 -1.82265e-19 0.000440657)
(0.0110676 -0.0612141 -5.69671e-19 -0.0115683 2.92936e-19 0.000500683)
(-2.31194e-05 -0.0491829 -4.61359e-19 -0.00050436 4.50506e-19 0.00052748)
(-0.00925774 -0.038815 1.64399e-19 0.00874345 7.79067e-19 0.000514286)
(-0.0171282 -0.0302995 -3.8213e-19 0.0166773 4.52292e-19 0.000450878)
(-0.0237167 -0.0237342 -4.23259e-19 0.0233893 1.0676e-18 0.000327382)
(-0.0287743 -0.0195177 -5.06794e-19 0.0286431 -6.41204e-19 0.000131216)
(0.12501 -0.096189 -1.28661e-20 -0.125115 2.64824e-20 0.000105081)
(0.0891485 -0.0956552 -5.14381e-19 -0.0894057 -3.07136e-19 0.000257192)
(0.0635928 -0.085976 -8.31815e-19 -0.0639721 -6.35691e-19 0.000379307)
(0.0440052 -0.074044 -5.74649e-19 -0.0444789 -5.35962e-19 0.000473641)
(0.0283051 -0.0622965 8.45869e-20 -0.0288435 1.66704e-19 0.000538453)
(0.0152514 -0.0516417 4.89968e-19 -0.015819 3.53273e-19 0.000567578)
(0.00425972 -0.0423992 5.84163e-19 -0.00481339 4.60933e-19 0.000553665)
(-0.00501352 -0.0348626 4.11824e-19 0.0045279 3.64289e-19 0.000485614)
(-0.0126012 -0.0291598 4.5644e-19 0.0122485 1.20666e-18 0.000352727)
(-0.0181583 -0.0256653 -9.74946e-19 0.0180169 1.1044e-19 0.000141381)
(0.139325 -0.0787785 -1.476e-19 -0.139435 3.85051e-20 0.000110403)
(0.109159 -0.0825582 -5.33814e-19 -0.10943 1.03933e-19 0.000270332)
(0.0842545 -0.0761723 -5.90229e-19 -0.0846533 -1.33707e-19 0.00039885)
(0.0635039 -0.06687 1.58224e-19 -0.0640022 -2.25285e-19 0.000498261)
(0.0460606 -0.0572814 7.75311e-19 -0.0466273 -2.91131e-21 0.000566688)
(0.0312209 -0.0484429 3.41869e-19 -0.0318185 2.73599e-19 0.000597596)
(0.0186153 -0.0407397 2.8516e-19 -0.0191985 4.17182e-21 0.000583179)
(0.0080669 -0.0345015 6.58358e-19 -0.00857857 2.36679e-19 0.000511668)
(-0.000399764 -0.029864 3.55009e-19 2.80235e-05 4.69776e-19 0.00037174)
(-0.00635264 -0.0271509 2.74983e-19 0.00620365 7.05441e-19 0.000148995)
(0.150951 -0.0585853 -2.51103e-20 -0.151065 1.1788e-19 0.000113758)
(0.12645 -0.063828 -1.57692e-19 -0.126729 4.55344e-19 0.000278643)
(0.102454 -0.0599759 -3.03589e-19 -0.102865 5.0034e-19 0.000411246)
(0.0808762 -0.0533422 1.21081e-19 -0.0813901 2.62274e-19 0.000513919)
(0.0620266 -0.0462475 2.66207e-19 -0.0626113 -2.23408e-19 0.000584688)
(0.0457098 -0.0396311 4.584e-19 -0.0463265 -2.39691e-19 0.000616768)
(0.0317618 -0.0338515 2.46447e-19 -0.0323639 -2.0979e-19 0.000602054)
(0.0201626 -0.0292055 1.1044e-18 -0.0206909 -3.06112e-19 0.000528336)
(0.0109925 -0.0258126 9.17078e-19 -0.0113764 8.97511e-20 0.000383894)
(0.00475441 -0.0239244 -8.25064e-20 -0.00490825 2.17903e-19 0.000153843)
(0.159168 -0.0361773 2.19584e-20 -0.159283 8.41606e-20 0.000115063)
(0.139176 -0.0404289 1.60938e-20 -0.139458 2.44815e-19 0.000281915)
(0.116011 -0.0384375 7.66781e-20 -0.116427 4.89561e-19 0.000416175)
(0.0939091 -0.0344815 2.83903e-19 -0.0944293 2.92064e-19 0.000520199)
(0.0740757 -0.0301445 1.10676e-19 -0.0746676 1.15259e-19 0.000591957)
(0.0567088 -0.0260769 -1.38405e-19 -0.0573334 -1.23319e-19 0.000624548)
(0.041805 -0.0225308 2.23043e-19 -0.0424147 2.37698e-20 0.000609731)
(0.0294654 -0.0197117 6.47028e-19 -0.0300005 -3.42345e-19 0.000535106)
(0.0198147 -0.0177015 5.43884e-19 -0.0202035 -3.93595e-19 0.0003888)
(0.0134063 -0.0166647 6.95562e-20 -0.0135621 9.34289e-20 0.00015576)
(0.163438 -0.0123405 2.9788e-20 -0.163553 3.11333e-20 0.000114277)
(0.145935 -0.0139473 5.62594e-20 -0.146215 4.84823e-20 0.000280044)
(0.12326 -0.0133555 2.48037e-20 -0.123674 2.33645e-19 0.000413474)
(0.100912 -0.0120732 3.22357e-20 -0.101429 1.2319e-20 0.000516884)
(0.0805808 -0.0106612 1.61291e-19 -0.0811691 -9.33351e-20 0.000588235)
(0.062679 -0.00935186 2.80773e-19 -0.0632997 1.33054e-19 0.000620646)
(0.0472914 -0.00823762 3.96231e-19 -0.0478973 2.24926e-19 0.000605912)
(0.0345856 -0.00739356 4.38712e-19 -0.0351173 -1.2402e-19 0.000531704)
(0.0247108 -0.0068491 6.11848e-19 -0.025097 -2.74605e-19 0.000386247)
(0.0182484 -0.00667224 6.72819e-20 -0.0184031 1.61583e-19 0.000154659)
(0.163473 0.0119946 2.37637e-20 -0.163585 -3.46047e-21 0.000111403)
(0.14597 0.0136152 1.06666e-19 -0.146243 -3.3276e-20 0.000273031)
(0.123304 0.0129726 1.05336e-19 -0.123707 1.76564e-19 0.000403141)
(0.10097 0.0115865 -7.21372e-20 -0.101474 1.22738e-19 0.000503966)
(0.0806596 0.0100198 1.20312e-19 -0.0812331 -2.0604e-19 0.000573503)
(0.0627842 0.00850306 4.07614e-19 -0.0633892 -8.83101e-20 0.000605035)
(0.0474296 0.00712279 3.92702e-19 -0.0480202 -1.88473e-19 0.000590562)
(0.0347641 0.00594808 4.75654e-20 -0.0352822 -4.4595e-20 0.000518089)
(0.0249375 0.00500776 4.91607e-19 -0.0253137 -7.4218e-19 0.0003762)
(0.0185359 0.00433329 4.78897e-20 -0.0186865 -1.89047e-19 0.000150525)
(0.159271 0.0358469 1.42315e-21 -0.159378 -1.35852e-20 0.000106486)
(0.139279 0.0401113 1.59612e-19 -0.13954 -1.1567e-19 0.000260991)
(0.116139 0.0380733 3.4986e-19 -0.116524 -1.87987e-19 0.000385344)
(0.0940802 0.0340214 -2.69786e-20 -0.0945619 -1.65483e-19 0.000481655)
(0.0743069 0.0295412 -2.14119e-19 -0.0748549 -1.99886e-19 0.000548002)
(0.0570172 0.0252807 2.24789e-19 -0.0575952 -1.89309e-20 0.000577966)
(0.0422099 0.021487 3.39706e-19 -0.0427738 -2.31561e-19 0.000563926)
(0.0299882 0.01836 7.32693e-20 -0.0304826 -1.86219e-19 0.000494479)
(0.0204781 0.0159818 -5.39239e-19 -0.0208369 -5.25043e-19 0.00035882)
(0.0142475 0.0144813 1.46879e-19 -0.014391 2.93731e-19 0.000143422)
(0.151117 0.0582854 -5.2176e-20 -0.151216 -4.68339e-20 9.96186e-05)
(0.126617 0.0635388 -3.6816e-21 -0.126861 -2.47925e-19 0.000244147)
(0.10266 0.0596482 2.08291e-20 -0.10302 -2.16566e-19 0.000360415)
(0.0811503 0.0529338 -1.46259e-19 -0.0816007 -2.35237e-20 0.00045037)
(0.0623956 0.0457175 -1.89579e-19 -0.0629078 3.57522e-19 0.000512213)
(0.0462008 0.0389363 3.70178e-19 -0.0467407 1.38407e-19 0.000539958)
(0.0324052 0.0329447 9.26073e-20 -0.0329317 -3.97034e-20 0.00052652)
(0.0209922 0.0280344 -1.81509e-19 -0.0214536 -1.35218e-19 0.000461335)
(0.0120438 0.0243266 -1.38205e-19 -0.0123782 6.21275e-19 0.000334448)
(0.0060873 0.0220405 6.4451e-19 -0.00622079 -4.86464e-19 0.000133492)
(0.139544 0.0785227 -1.61204e-19 -0.139635 -1.34108e-20 9.09325e-05)
(0.109381 0.0823101 -4.18524e-19 -0.109604 2.2981e-19 0.000222826)
(0.0845275 0.0758969 2.62334e-20 -0.0848563 3.30383e-19 0.000328845)
(0.0638651 0.0665352 2.36092e-19 -0.0642758 2.91728e-19 0.000410735)
(0.0465441 0.0568552 8.45718e-20 -0.0470109 4.12597e-19 0.000466863)
(0.0318618 0.0478911 1.3913e-19 -0.0323536 -1.09588e-19 0.000491793)
(0.0194527 0.0400256 2.63649e-19 -0.0199318 -8.90942e-20 0.000479126)
(0.00914445 0.0335844 3.6326e-19 -0.00956381 -1.65547e-20 0.000419361)
(0.00096265 0.0287061 1.88138e-19 -0.00126626 -6.38063e-19 0.000303613)
(-0.00462598 0.0256878 -8.83387e-19 0.00450503 9.00681e-20 0.000120954)
(0.125272 0.0959886 3.18683e-20 -0.125352 -1.63389e-20 8.05983e-05)
(0.0894151 0.0954595 -3.34238e-19 -0.0896126 5.57467e-19 0.000197453)
(0.0639187 0.0857664 -2.54208e-19 -0.06421 5.98235e-19 0.000291269)
(0.0444324 0.0738004 -2.05102e-20 -0.0447959 4.08401e-19 0.00036356)
(0.0288725 0.0619977 4.18545e-19 -0.0292854 -1.34005e-19 0.000412892)
(0.0159997 0.0512648 3.5718e-20 -0.0164342 -5.54245e-19 0.000434486)
(0.0052335 0.0419199 4.89488e-19 -0.00565626 -9.08225e-19 0.00042276)
(-0.00376397 0.0342543 -2.70324e-19 0.0033945 -7.69973e-19 0.000369473)
(-0.0110261 0.0283997 -1.76322e-19 0.0107591 -7.20257e-19 0.000266996)
(-0.0161638 0.0247131 5.1685e-19 0.0160578 3.30867e-19 0.00010609)
(0.109109 0.110374 6.94473e-20 -0.109178 1.674e-19 6.88216e-05)
(0.0687352 0.102757 3.51045e-19 -0.0689038 3.81441e-19 0.000168537)
(0.0432079 0.0890862 3.2494e-19 -0.0434564 3.0475e-19 0.000248451)
(0.0252539 0.0746051 2.05122e-19 -0.0255637 -6.79177e-20 0.000309819)
(0.0116836 0.0610581 -5.92644e-20 -0.0120351 -7.58392e-19 0.000351434)
(0.000783533 0.0490007 -5.55916e-19 -0.0011528 -1.11419e-18 0.000369263)
(-0.00821365 0.038596 -1.14066e-18 0.00785499 -5.51615e-19 0.000358651)
(-0.0157937 0.0300328 9.36117e-20 0.015481 -4.82991e-19 0.000312778)
(-0.0220411 0.0234127 -1.12693e-18 0.0218157 -2.73366e-19 0.000225427)
(-0.0266563 0.0191293 5.08312e-19 0.0265671 -3.89115e-19 8.92436e-05)
(0.0918607 0.121639 -3.63787e-20 -0.0919166 2.31848e-19 5.58357e-05)
(0.0492459 0.104715 5.9735e-19 -0.0493826 4.75396e-20 0.000136657)
(0.0246177 0.0865718 8.2743e-19 -0.024819 -2.84666e-19 0.000201259)
(0.00856851 0.0697281 6.48378e-19 -0.00881913 -7.66693e-19 0.000250619)
(-0.00288218 0.0548196 -3.97357e-19 0.00259841 -9.12665e-19 0.000283775)
(-0.0117755 0.0418658 -1.02007e-18 0.011478 -5.64885e-19 0.000297513)
(-0.0190028 0.0308001 -1.25164e-18 0.0187147 2.28604e-19 0.000288188)
(-0.0251544 0.0216515 -6.94282e-19 0.0249039 -3.68971e-19 0.000250527)
(-0.0303493 0.0144738 -1.60373e-18 0.0301694 3.30088e-19 0.000179841)
(-0.0343813 0.00967043 2.3498e-19 0.0343105 -1.21699e-19 7.07999e-05)
(0.0742346 0.129983 9.77881e-20 -0.0742765 -1.58634e-20 4.18967e-05)
(0.0324703 0.102481 2.75063e-19 -0.0325728 -2.08639e-19 0.000102448)
(0.00989626 0.0796947 1.98073e-19 -0.0100469 -3.99321e-19 0.000150647)
(-0.00387705 0.0607162 -1.1014e-19 0.00368988 -5.02074e-19 0.000187172)
(-0.0131652 0.0448045 -6.57031e-19 0.0129539 -2.45283e-19 0.000211324)
(-0.020126 0.0313253 -6.50863e-19 0.0199052 4.34311e-20 0.000220757)
(-0.0256862 0.0199362 -5.25051e-19 0.0254733 1.54417e-19 0.000212893)
(-0.0304776 0.0104693 -5.70494e-19 0.0302935 1.72616e-19 0.000184089)
(-0.0346318 0.00292168 -3.28049e-19 0.0345005 -7.39282e-20 0.00013126)
(-0.0380303 -0.0023211 -1.11149e-18 0.0379791 1.36554e-19 5.11824e-05)
(0.0567645 0.135783 -2.88635e-20 -0.0567918 -6.58656e-20 2.72762e-05)
(0.0193433 0.0976394 -2.53199e-19 -0.0194098 -1.52828e-19 6.65837e-05)
(6.99417e-05 0.0704396 -4.77156e-19 -0.000167563 -1.06015e-19 9.76208e-05)
(-0.0110809 0.0496345 -4.05459e-19 0.0109602 4.05668e-20 0.000120758)
(-0.0182295 0.0330311 -2.11483e-20 0.018094 2.5349e-20 0.000135563)
(-0.023406 0.0193109 -3.95469e-19 0.0232654 2.82933e-20 0.000140589)
(-0.0274713 0.00784643 -3.33937e-19 0.0273369 6.30309e-20 0.000134353)
(-0.0310243 -0.00173802 -3.14029e-19 0.0309094 1.87317e-19 0.000114889)
(-0.0341862 -0.00950169 -4.26552e-20 0.0341054 -8.63526e-20 8.07435e-05)
(-0.0369103 -0.0151011 -5.65828e-19 0.0368795 3.10005e-19 3.08251e-05)
(0.039766 0.139513 -4.77856e-20 -0.0397783 -4.83302e-20 1.22542e-05)
(0.0100961 0.0919519 -1.32931e-19 -0.0101259 -1.64308e-19 2.97559e-05)
(-0.00469227 0.060986 -6.79849e-19 0.00464905 -3.12683e-20 4.32148e-05)
(-0.0129228 0.0387394 -6.23199e-19 0.0128701 1.42523e-19 5.2688e-05)
(-0.0179943 0.021697 -4.27016e-19 0.0179363 1.96012e-19 5.80093e-05)
(-0.0215668 0.0079201 -5.30549e-20 0.0215082 1.33699e-19 5.86382e-05)
(-0.0243366 -0.00347447 -3.4094e-19 0.0242824 1.38336e-19 5.41923e-05)
(-0.0267953 -0.0130524 -7.86908e-21 0.0267509 3.22915e-19 4.43798e-05)
(-0.0290328 -0.0209195 5.66499e-19 0.0290035 2.60459e-20 2.93709e-05)
(-0.0310501 -0.026791 -1.04298e-19 0.0310399 -1.54651e-20 1.01728e-05)
(0.0233267 0.141646 -5.54712e-20 -0.0233238 -3.18869e-20 -2.88732e-06)
(0.00425132 0.0870689 -9.6294e-20 -0.00424398 -1.0944e-19 -7.33916e-06)
(-0.00508174 0.0533631 -3.58043e-19 0.00509327 -1.45522e-20 -1.15343e-05)
(-0.0101653 0.0301247 -2.61867e-19 0.010181 1.15623e-19 -1.57276e-05)
(-0.0132331 0.0128366 -2.70096e-19 0.013253 1.21048e-19 -1.98285e-05)
(-0.0153716 -0.000909321 -4.40766e-19 0.015395 9.88266e-20 -2.34833e-05)
(-0.0170291 -0.0121872 -4.06488e-19 0.017055 1.81395e-19 -2.59948e-05)
(-0.0185272 -0.021708 -1.08923e-19 0.0185532 2.90357e-19 -2.60189e-05)
(-0.0199097 -0.0296077 4.10841e-19 0.0199316 4.89142e-20 -2.18104e-05)
(-0.0211954 -0.035665 -3.29867e-20 0.0212058 -2.12793e-20 -1.03495e-05)
(0.00733337 0.142565 -7.63093e-20 -0.0073155 -1.65609e-20 -1.78722e-05)
(0.000726433 0.0842669 -1.39276e-19 -0.000682412 -7.48212e-20 -4.40207e-05)
(-0.00252066 0.0491308 -2.81408e-19 0.00258628 -1.33478e-20 -6.56151e-05)
(-0.00431879 0.0253952 -3.7589e-19 0.004402 1.11542e-19 -8.32152e-05)
(-0.00544267 0.00800581 -3.67345e-19 0.00553916 1.04366e-19 -9.64891e-05)
(-0.00626864 -0.00569784 -3.42008e-19 0.00637286 8.42673e-20 -0.000104219)
(-0.00694379 -0.01689 -1.56126e-19 0.00704846 1.612e-19 -0.000104672)
(-0.00757645 -0.0263615 -1.0536e-19 0.0076714 2.55699e-19 -9.49433e-05)
(-0.00815784 -0.034258 2.91739e-19 0.00822963 9.16363e-20 -7.17961e-05)
(-0.00869486 -0.040413 1.62401e-19 0.00872519 -2.20247e-20 -3.0332e-05)
(-0.00846773 0.142495 -7.39561e-20 0.00850016 -4.84967e-21 -3.24339e-05)
(-0.00196792 0.0842435 -2.06045e-19 0.00204755 -6.26357e-20 -7.96353e-05)
(0.00107995 0.0491352 -1.70822e-19 -0.000961889 -2.34001e-20 -0.000118061)
(0.00260719 0.0254179 -3.12794e-19 -0.00245862 1.09925e-19 -0.000148565)
(0.00339971 0.0080423 -4.21541e-19 -0.00322912 1.03217e-19 -0.000170592)
(0.00383861 -0.00565147 -3.00344e-19 -0.00365651 6.02316e-20 -0.000182108)
(0.00409544 -0.0168332 -1.99935e-20 -0.00391503 1.13316e-19 -0.000180411)
(0.0042912 -0.0262965 -1.56302e-19 -0.00413006 2.15084e-19 -0.000161136)
(0.00448551 -0.0341757 6.12015e-20 -0.00436584 7.89223e-20 -0.000119671)
(0.00470619 -0.0403384 1.7146e-19 -0.00465678 -2.35549e-20 -4.94085e-05)
(-0.0243872 0.141455 -8.87169e-20 0.0244335 1.01685e-20 -4.63241e-05)
(-0.00546697 0.0870062 -2.47001e-19 0.00558055 -5.42321e-20 -0.000113575)
(0.00363731 0.0533761 -2.27435e-20 -0.00346933 -4.24469e-20 -0.000167976)
(0.00843 0.0301872 -4.44652e-20 -0.00821934 1.07579e-19 -0.000210658)
(0.0111513 0.0129365 -5.25655e-19 -0.0109104 9.86795e-20 -0.000240869)
(0.0128918 -0.000782737 -3.25699e-19 -0.012636 4.82999e-20 -0.000255816)
(0.0141201 -0.0120324 -2.43549e-19 -0.0138681 3.70178e-20 -0.000251912)
(0.0151732 -0.0215311 1.95097e-19 -0.0149498 1.7346e-19 -0.000223461)
(0.0161523 -0.029384 -4.17627e-19 -0.0159877 7.60218e-20 -0.000164611)
(0.0171309 -0.0354625 8.09676e-20 -0.0170636 -1.57136e-20 -6.72481e-05)
(-0.0406987 0.139256 -3.62185e-20 0.040758 4.47168e-20 -5.93129e-05)
(-0.0112678 0.0918704 -2.78212e-19 0.0114131 -1.49692e-20 -0.000145279)
(0.00324041 0.0610071 -3.86577e-19 -0.00302586 -9.16564e-20 -0.000214542)
(0.0111456 0.0388268 -2.80592e-19 -0.0108771 1.39635e-20 -0.000268482)
(0.0158442 0.0218342 -3.85056e-19 -0.015538 6.81072e-20 -0.00030618)
(0.0190001 0.0080926 -9.97519e-20 -0.0186759 5.73201e-20 -0.000324158)
(0.021322 -0.00326446 -1.76452e-19 -0.0210039 5.61877e-20 -0.000318032)
(0.0233222 -0.0128129 -5.48535e-20 -0.0230412 7.42515e-20 -0.00028093)
(0.0251283 -0.020617 -1.69482e-19 -0.0249224 -6.24202e-20 -0.000205912)
(0.0268552 -0.026518 3.53446e-19 -0.0267716 1.51508e-20 -8.35759e-05)
(-0.05755 0.135536 -4.32486e-20 0.0576212 5.52385e-20 -7.11974e-05)
(-0.0204661 0.0975673 -4.45497e-19 0.0206404 -5.13448e-20 -0.000174256)
(-0.00153281 0.0704678 -1.30256e-19 0.00178985 -1.10083e-19 -0.000257038)
(0.00925268 0.0497261 1.23237e-19 -0.00893153 -2.00144e-20 -0.000321152)
(0.0159982 0.0331697 1.60162e-19 -0.0156327 2.10906e-19 -0.000365538)
(0.0207369 0.0194823 -2.80073e-19 -0.0203507 1.6906e-19 -0.000386111)
(0.0243335 0.00805329 -2.91294e-19 -0.0239557 -9.20636e-20 -0.0003778)
(0.0274132 -0.00150333 1.05882e-20 -0.0270805 -1.16924e-19 -0.00033271)
(0.030113 -0.00920556 1.76909e-20 -0.02987 2.85736e-20 -0.000242984)
(0.0325676 -0.0148358 -6.9531e-19 -0.0324694 8.04483e-20 -9.81624e-05)
(-0.0748937 0.12982 5.04622e-20 0.0749755 -3.25344e-20 -8.17975e-05)
(-0.0335546 0.102445 2.27512e-19 0.0337547 9.94341e-20 -0.000200072)
(-0.0113734 0.0797282 1.7194e-19 0.0116682 1.15747e-19 -0.000294839)
(0.00199984 0.0607905 4.80566e-20 -0.00163193 9.79482e-20 -0.000367908)
(0.0108591 0.0449079 4.96913e-20 -0.010441 1.74237e-19 -0.000418102)
(0.0173645 0.0314482 -5.67104e-19 -0.0169236 2.26873e-19 -0.000440821)
(0.0224391 0.0200814 -8.0419e-19 -0.0220087 -3.13797e-19 -0.000430411)
(0.0267462 0.010632 -4.52331e-19 -0.0263681 1.9987e-19 -0.000378129)
(0.0304143 0.00312676 -1.44994e-18 -0.030139 -6.21345e-19 -0.000275364)
(0.0335648 -0.0021408 9.15151e-19 -0.0334539 2.80243e-20 -0.000110834)
(-0.0924489 0.121616 -1.06041e-19 0.0925399 -2.97812e-19 -9.09655e-05)