/*--------------------------------*- C++ -*----------------------------------*\
| =========                 |                                                 |
| \\      /  F ield         | foam-extend: Open Source CFD                    |
|  \\    /   O peration     | Version:  3.0                                   |
|   \\  /    A nd           | Web:         http://www.extend-project.de       |
|    \\/     M anipulation  |                                                 |
\*---------------------------------------------------------------------------*/
FoamFile
{
    version     2.0;
    format      ascii;
    class       volScalarField;
    location    "20";
    object      Theta;
}
// * * * * * * * * * * * * * * * * * * * * * * * * * * * * * * * * * * * * * //

dimensions      [0 2 -2 0 0 0 0];

internalField   nonuniform List<scalar> 
728
(
1.96611
0.257591
2.58423
-0.254993
-3.1652
11.098
4.40634
3.55176
0.783528
5.90762
1.62524
-2.69692
-1.60155
-0.812967
4.43223
3.68803
0.28912
2.07949
-0.490664
1.54627
4.28049
4.64186
-2.8061
-1.89467
10.9418
20.9036
-23.8947
-13.382
1.77183
4.9776
-1.59923
1.01523
3.42987
7.26382
-2.84259
0.325716
1.53832
0.661839
0.802427
1.06996
1.36627
4.35553
0.304224
-1.52164
-1.44128
-2.35265
4.23869
5.25024
-1.62594
-1.69096
4.55035
5.51097
10.6235
-17.7908
-7.54032
22.4996
0.250416
2.5898
-0.16162
2.01665
1.07347
-0.955483
3.22982
0.428408
2.24307
1.82091
-0.298581
0.48112
3.22923
-5.23743
12.9413
-16.0319
3.91357
2.10741
0.0316879
-1.37235
0.667141
4.40255
2.09593
-1.62115
-1.47953
4.17645
-7.32386
10.3516
-0.20209
0.40582
1.45275
-2.28138
3.16987
4.86653
3.28218
0.497932
8.68855
-7.38079
0.265095
0.0932669
5.75554
0.698907
-3.63284
1.33115
0.0186681
2.55121
2.75256
-0.0435887
3.67579
-1.20591
3.6306
-0.734264
0.648408
3.6472
1.99212
0.733755
1.13881
1.43672
0.634755
0.556869
0.43343
2.54054
2.51743
-0.0201268
-0.297577
2.92882
-0.648735
2.60876
0.587368
-0.305292
1.24505
2.44859
-1.28334
4.20778
-0.648912
3.02757
0.310457
3.52237
-0.666229
2.11883
1.39264
0.99506
0.545892
1.12754
6.1012
5.24902
-5.9796
-6.07894
2.08374
3.72188
0.0800725
-1.46378
-0.432177
5.00178
-1.94566
2.27532
2.39942
-0.126689
2.68119
-0.0513699
0.99771
-2.32844
1.60961
5.30664
-0.755852
10.5724
6.44339
-3.76826
-1.90054
-5.39951
6.49563
2.69556
2.826
0.118668
-0.419348
2.42274
-0.788917
3.50311
-0.873086
3.34976
-0.488238
2.23717
0.0629514
2.09422
3.63152
-2.06682
2.72605
-1.6329
-13.6355
-9.61221
10.0121
13.7562
3.79196
4.55766
-1.42264
-1.95641
2.03125
-2.26048
5.2792
0.600047
1.05001
-0.818094
2.66207
1.56524
0.527143
0.50627
2.02005
0.980054
1.3457
-0.474092
0.846554
2.87082
1.39384
-0.499614
3.80541
0.9785
0.412482
1.72705
-0.12121
1.69447
-7.25221
-6.75017
7.72456
8.66504
0.441219
-1.62473
3.87844
1.78048
1.54268
0.235172
4.66344
-2.69936
3.21898
-0.529664
3.28464
-0.958436
1.04051
4.22183
1.19446
-1.81257
3.51431
3.74868
-1.19945
-0.93603
4.29742
1.22411
6.39777
-0.383989
-8.41974
-28.007
4.61957
28.4202
0.709727
1.31158
1.39266
0.100805
26.2147
3.26681
-24.0015
-4.04259
0.209923
-1.10922
2.20847
4.03895
-2.09805
1.45756
4.33542
0.461532
-0.943393
-2.19077
5.36899
3.58085
4.25028
-0.438019
-2.429
6.78586
2.30193
1.32859
0.963431
0.142526
2.5933
2.53247
-0.333051
-0.203103
3.33309
5.05633
-0.501286
-2.40755
0.97211
5.03606
-1.97545
1.54512
3.43832
1.87313
0.33059
-1.60274
0.0970941
2.61041
-0.299177
2.09187
-0.950543
0.331741
2.70559
1.37374
-0.415843
-1.29115
3.96696
2.74702
-3.82126
3.80948
7.28905
-7.65876
-0.500098
4.2167
-1.68956
2.79711
11.2867
-6.74685
9.81075
-4.00027
-1.89164
3.87278
-0.60769
2.75409
-13.4942
3.69952
-2.62711
16.0642
-0.772968
2.48244
-1.2951
2.98424
3.47896
3.54372
1.39858
-2.38632
3.94151
-1.09134
4.02918
-1.14755
-10.8165
13.8186
-2.66793
4.6089
0.64297
3.52576
-1.05063
1.58174
-2.19786
-1.52398
4.17573
3.06165
1.72529
6.15638
0.607857
-2.95254
2.15154
-0.203142
4.32771
-2.3235
-0.892128
-1.13651
3.01347
3.97381
2.5164
5.06058
-0.337949
-2.51239
2.35485
4.17458
0.810817
0.598868
10.525
0.0414392
-7.06
2.29027
-2.0339
-5.10026
7.18603
4.05297
0.232065
-1.02609
1.88484
3.85975
3.30454
0.0764762
-0.296532
2.56974
0.750113
1.57304
0.622989
0.735658
1.51359
3.48141
0.82233
-1.17212
0.744901
-0.223455
1.68837
3.42969
2.73364
9.42553
0.700623
-5.27858
-1.83219
5.56289
3.01367
6.07729
3.40422
4.5688
2.09456
0.827153
1.34876
0.387169
1.41376
0.510919
0.540289
1.35331
3.28887
-1.30486
-3.59181
3.83191
-2.47185
4.78144
1.77463
-1.06318
0.832452
4.33729
1.2414
1.48762
0.784654
0.444117
0.847926
0.808259
1.50892
0.678814
2.09455
-0.781428
3.1289
0.194922
0.856956
1.7723
0.698276
0.663524
3.14075
0.124142
0.0150122
2.29487
-1.50206
5.03582
4.72066
-1.77257
-2.73712
1.72241
0.918789
5.44326
1.52871
-0.372721
-0.392522
2.74414
2.59564
0.0834276
-0.94888
3.12501
-1.48885
0.307807
4.64343
1.98231
2.60782
6.15062
0.808977
-2.60478
-2.2256
5.67483
1.78959
0.832246
4.28669
5.98838
-1.293
-2.68975
-0.267308
0.575621
3.27905
1.08368
-1.15332
-0.6905
3.23973
3.23169
0.980016
2.68376
1.21373
-0.547802
-0.873928
2.56042
2.35875
-0.324993
4.725
-0.0903714
1.1759
-3.8826
-2.8498
-1.47671
4.40774
5.28144
0.457944
-0.314266
1.52476
2.59623
12.2489
8.97852
-6.77056
-3.82396
-4.03412
1.78935
6.88506
0.827475
-2.62357
5.42309
6.75913
-1.35445
-0.469465
2.8608
1.12328
1.31565
-2.44366
-1.4289
5.70299
3.652
6.38449
1.62759
-3.27031
1.14808
1.60346
3.20306
1.02409
-0.350666
0.734297
0.421762
1.48703
2.22313
-1.09049
3.11609
3.77564
-1.0522
4.17239
2.34304
-1.3156
-0.169122
-0.534067
2.4545
-0.223209
2.94308
-1.79971
4.709
4.85861
-2.16816
1.16861
5.39303
0.973961
-3.2085
2.0884
-0.0800226
0.258706
1.18322
1.071
3.38289
-4.63922
8.23071
-8.12934
5.81827
-15.3787
14.5046
1.88516
-0.957686
3.79484
0.00441408
0.652102
0.981403
1.56558
0.398424
3.15107
-3.49403
-1.06396
5.56732
4.84659
-1.54886
-0.967134
4.42481
0.396229
0.621086
2.59684
-1.28783
1.48078
-0.0535308
2.45168
0.778963
5.045
0.966138
4.2267
1.25708
3.00425
7.17832
0.374722
-3.75353
0.737185
1.36705
-0.0122319
2.49498
0.0740752
2.47263
2.28302
-0.322128
2.57556
4.27028
0.10218
-1.72074
-0.78785
0.719889
2.9066
1.60485
5.54826
-2.00729
-2.29545
5.87674
4.43877
1.99535
-0.519221
-2.85355
0.0416537
0.895923
1.1398
2.31118
-2.80509
-2.07545
6.33415
4.44277
-6.72632
7.36397
-7.58987
6.80837
0.684067
6.51065
-3.15718
3.35577
1.88013
5.34175
-2.59824
0.182105
18.2797
-14.8611
-21.0825
14.0243
2.4103
2.3112
-0.0964184
-0.291346
5.27507
6.15471
-2.1856
-0.902438
4.04676
5.23877
-5.06549
-3.8882
0.203124
2.02236
-0.367549
2.33056
2.70814
1.7348
-1.01883
0.178933
0.188835
1.62156
0.103556
2.43963
1.16115
-0.388975
1.02648
3.31492
2.7949
3.5232
-0.955895
-0.432891
0.791194
1.65728
3.66054
-0.632135
-0.914095
2.27105
-6.15826
7.81846
-4.4307
0.55941
8.23888
2.53372
1.55929
-1.53954
1.08894
4.9254
-0.0863194
1.65947
4.28775
-2.86699
2.19519
6.01328
-2.49605
0.774534
-3.95789
1.8154
8.17486
1.86773
-2.3493
1.91667
4.74288
0.529772
2.77818
-0.945462
3.39166
-0.178523
2.26423
0.998442
0.783015
0.21005
3.95664
0.797012
1.37145
-1.3024
1.44661
2.94573
0.558322
-0.598524
)
;

boundaryField
{
    insideCircle
    {
        type            myTemperature;
        value           nonuniform List<scalar> 
12
(
3.16988
5.00173
3.33554
0.686992
-1.08658
1.10592
-0.55956
7.52367
4.06244
3.64178
1.58161
1.56795
)
;
    }
    outsideCircle
    {
        type            myTemperature;
        value           nonuniform List<scalar> 
60
(
1.9661
0.14074
2.53093
-0.506923
1.31418
5.63247
2.1363
1.66739
0.148716
2.53556
-0.356074
2.79931
1.33068
-0.0745988
2.48653
0.251011
0.325166
2.69155
-0.467813
1.9154
-0.20202
1.46819
2.67559
1.35634
-0.604832
1.81372
-0.586148
1.87998
1.86429
-0.00380973
2.44979
0.430299
3.09468
-0.178696
0.459488
2.18101
0.543378
2.59395
1.57892
-0.437022
0.588123
-0.446412
1.43704
2.64761
-0.639646
2.44332
0.960296
1.00193
1.51878
2.4075
0.378781
-0.710521
5.16968
-1.44646
0.843132
2.12407
-0.234997
2.42599
2.21793
-0.174356
)
;
    }
    topAndBottom
    {
        type            empty;
    }
}


// ************************************************************************* //
