/*--------------------------------*- C++ -*----------------------------------*\
| =========                 |                                                 |
| \\      /  F ield         | OpenFOAM: The Open Source CFD Toolbox           |
|  \\    /   O peration     | Version:  2.2.0                                 |
|   \\  /    A nd           | Web:      www.OpenFOAM.org                      |
|    \\/     M anipulation  |                                                 |
\*---------------------------------------------------------------------------*/
FoamFile
{
    version     2.0;
    format      ascii;
    class       volScalarField;
    location    "25";
    object      Theta;
}
// * * * * * * * * * * * * * * * * * * * * * * * * * * * * * * * * * * * * * //

dimensions      [0 2 -2 0 0 0 0];

internalField   nonuniform List<scalar> 
51200
(
1.05608
0.873658
0.685525
0.470214
0.270837
-0.00793989
-0.163541
-0.614465
-0.546607
-1.47632
-0.734702
-2.85436
1.06386
0.886693
0.70209
0.49827
0.294243
0.0514791
-0.149882
-0.473035
-0.603005
-1.11302
-1.028
-1.90334
1.07549
0.90509
0.727253
0.534174
0.335537
0.114957
-0.0921253
-0.358996
-0.532521
-0.900928
-0.943143
-1.50208
1.08711
0.922177
0.749958
0.564772
0.370891
0.16524
-0.0463272
-0.274533
-0.490548
-0.751151
-0.942519
-1.24809
1.09876
0.939891
0.774485
0.597477
0.411765
0.218601
0.0149585
-0.189726
-0.404109
-0.614472
-0.819768
-1.02745
1.10734
0.951981
0.790499
0.617901
0.436817
0.249558
0.050185
-0.144845
-0.360029
-0.5504
-0.773982
-0.941825
1.1137
0.961325
0.80328
0.634475
0.457795
0.27548
0.0816441
-0.106249
-0.315336
-0.493479
-0.712351
-0.858419
1.11673
0.965556
0.808874
0.641521
0.466555
0.285964
0.0942081
-0.0915877
-0.298661
-0.473757
-0.692356
-0.833448
1.11673
0.965556
0.808874
0.641521
0.466555
0.285964
0.0942079
-0.0915875
-0.298662
-0.473757
-0.692356
-0.833448
1.1137
0.961325
0.80328
0.634475
0.457795
0.27548
0.0816441
-0.106248
-0.315336
-0.493477
-0.712351
-0.858417
1.10734
0.951981
0.790499
0.617902
0.436818
0.249559
0.0501851
-0.144842
-0.36003
-0.550397
-0.773982
-0.941823
1.09876
0.939891
0.774485
0.597477
0.411764
0.218601
0.0149573
-0.189724
-0.404111
-0.614471
-0.819767
-1.02745
1.08711
0.922178
0.749959
0.564774
0.370893
0.165243
-0.0463244
-0.274527
-0.490544
-0.751143
-0.942511
-1.24808
1.07549
0.905089
0.727252
0.534172
0.335534
0.114953
-0.0921293
-0.359004
-0.532522
-0.900948
-0.943132
-1.50213
1.06387
0.886695
0.702093
0.498275
0.29425
0.051488
-0.14987
-0.473021
-0.602985
-1.113
-1.02796
-1.90332
1.05608
0.873654
0.685517
0.470206
0.270827
-0.00795554
-0.163545
-0.614498
-0.546589
-1.4764
-0.734628
-2.8545
1.76744
1.77733
1.79015
1.80119
1.82061
1.82631
1.86549
1.84128
1.93973
1.81754
2.06964
1.69339
1.77014
1.78096
1.79422
1.80766
1.82543
1.83951
1.86716
1.87306
1.92528
1.89928
2.00626
1.90507
1.77448
1.78654
1.80108
1.8166
1.83556
1.85392
1.88145
1.89742
1.94581
1.94201
2.04136
1.98278
1.77876
1.7912
1.80601
1.82227
1.84092
1.86151
1.88572
1.90969
1.94354
1.96542
2.01839
2.02465
1.78354
1.79715
1.81326
1.83124
1.85147
1.8751
1.90064
1.93129
1.96435
2.00218
2.049
2.09079
1.78714
1.80101
1.81738
1.83576
1.85615
1.88066
1.90554
1.9389
1.96793
2.01434
2.04696
2.11164
1.79003
1.80449
1.82155
1.84078
1.86203
1.88794
1.91367
1.94997
1.97888
2.03246
2.06156
2.14322
1.79141
1.806
1.82319
1.84259
1.86398
1.89021
1.91592
1.95307
1.98119
2.03731
2.06314
2.15157
1.79141
1.806
1.82319
1.84259
1.86398
1.89021
1.91592
1.95307
1.98119
2.03731
2.06314
2.15157
1.79003
1.80449
1.82155
1.84078
1.86203
1.88794
1.91367
1.94997
1.97888
2.03246
2.06156
2.14322
1.78714
1.80101
1.81738
1.83576
1.85615
1.88065
1.90554
1.9389
1.96793
2.01434
2.04696
2.11163
1.78354
1.79715
1.81326
1.83124
1.85147
1.8751
1.90064
1.93129
1.96435
2.00218
2.049
2.09079
1.77876
1.7912
1.806
1.82226
1.84092
1.86151
1.88571
1.90968
1.94353
1.96542
2.01838
2.02464
1.77448
1.78654
1.80108
1.8166
1.83557
1.85393
1.88145
1.89742
1.94582
1.94202
2.04135
1.9828
1.77014
1.78096
1.79421
1.80766
1.82543
1.83951
1.86715
1.87305
1.92527
1.89927
2.00624
1.90505
1.76744
1.77734
1.79016
1.8012
1.82062
1.82632
1.8655
1.8413
1.93972
1.81758
2.0696
1.69347
1.79641
1.76769
1.73539
1.69919
1.6605
1.61325
1.57029
1.50224
1.46585
1.35114
1.35117
1.12984
1.79891
1.77158
1.74068
1.70682
1.6692
1.62739
1.58224
1.53058
1.47816
1.41442
1.3554
1.28329
1.80209
1.77579
1.74608
1.71362
1.67751
1.63771
1.59467
1.54577
1.49751
1.43579
1.39003
1.31069
1.80536
1.77985
1.75098
1.71956
1.68434
1.64614
1.60326
1.55776
1.50609
1.45313
1.3925
1.33218
1.80861
1.78402
1.7562
1.726
1.69209
1.65563
1.61433
1.57163
1.52168
1.47368
1.41521
1.36342
1.81109
1.78687
1.75947
1.72975
1.69626
1.66046
1.6193
1.57782
1.52662
1.4816
1.41742
1.373
1.81299
1.78924
1.76237
1.73327
1.70043
1.66553
1.62506
1.58513
1.53428
1.49252
1.42733
1.3901
1.81392
1.7903
1.76358
1.73464
1.70196
1.6673
1.6269
1.58744
1.53626
1.49564
1.42883
1.39451
1.81392
1.7903
1.76358
1.73464
1.70196
1.6673
1.6269
1.58744
1.53626
1.49564
1.42884
1.39451
1.81299
1.78924
1.76237
1.73327
1.70043
1.66553
1.62506
1.58513
1.53428
1.49252
1.42733
1.3901
1.81109
1.78687
1.75947
1.72975
1.69626
1.66046
1.6193
1.57782
1.52662
1.48161
1.41742
1.37301
1.80861
1.78402
1.7562
1.726
1.69209
1.65563
1.61433
1.57163
1.52168
1.47368
1.41521
1.36342
1.80536
1.77985
1.75099
1.71957
1.68434
1.64614
1.60326
1.55776
1.50609
1.45314
1.39251
1.33219
1.80209
1.77579
1.74608
1.71362
1.67751
1.6377
1.59466
1.54576
1.49751
1.43578
1.39004
1.31067
1.79891
1.77158
1.74068
1.70682
1.6692
1.6274
1.58225
1.53059
1.47817
1.41442
1.35542
1.2833
1.79641
1.76769
1.73538
1.69919
1.6605
1.61324
1.57029
1.50223
1.46586
1.3511
1.3512
1.12977
1.90807
1.90849
1.90928
1.90986
1.91086
1.91112
1.91296
1.91103
1.91576
1.90607
1.91851
1.88711
1.90933
1.91037
1.91181
1.91342
1.91503
1.91758
1.91901
1.92357
1.92343
1.93291
1.92758
1.94912
1.91087
1.91227
1.91415
1.9162
1.91848
1.92145
1.92428
1.92861
1.93246
1.93841
1.94564
1.95266
1.91246
1.91412
1.91628
1.91865
1.92125
1.92464
1.92769
1.93274
1.93594
1.94364
1.94689
1.95729
1.91404
1.916
1.91852
1.9213
1.92439
1.92832
1.93207
1.93785
1.94225
1.95086
1.95657
1.96812
1.91524
1.91729
1.91989
1.92277
1.92593
1.92999
1.93371
1.93975
1.94358
1.95299
1.95631
1.97035
1.91617
1.91838
1.92116
1.92425
1.92764
1.93202
1.93598
1.94261
1.94657
1.95728
1.96019
1.97735
1.91663
1.91886
1.92167
1.9248
1.92821
1.93266
1.9366
1.94338
1.94712
1.95829
1.96037
1.97886
1.91663
1.91886
1.92167
1.9248
1.92821
1.93266
1.9366
1.94337
1.94712
1.95829
1.96037
1.97886
1.91617
1.91838
1.92116
1.92425
1.92764
1.93202
1.93598
1.94261
1.94657
1.95728
1.96019
1.97735
1.91524
1.91729
1.91989
1.92277
1.92593
1.92999
1.9337
1.93974
1.94358
1.95299
1.95631
1.97035
1.91404
1.916
1.91852
1.9213
1.92439
1.92832
1.93207
1.93785
1.94225
1.95086
1.95657
1.96812
1.91246
1.91412
1.91628
1.91865
1.92125
1.92464
1.92769
1.93274
1.93594
1.94363
1.94689
1.95729
1.91087
1.91227
1.91415
1.9162
1.91848
1.92145
1.92428
1.92861
1.93246
1.93841
1.94563
1.95267
1.90933
1.91037
1.91181
1.91342
1.91503
1.91758
1.91901
1.92357
1.92343
1.9329
1.92757
1.94911
1.90807
1.90849
1.90928
1.90986
1.91086
1.91112
1.91296
1.91104
1.91576
1.90608
1.9185
1.88714
1.92951
1.92287
1.91518
1.90678
1.89723
1.88656
1.87457
1.86066
1.84567
1.82617
1.80784
1.77603
1.9304
1.92426
1.91714
1.90952
1.90061
1.89148
1.87981
1.86992
1.85326
1.84543
1.81889
1.82082
1.9314
1.92549
1.91867
1.91133
1.90289
1.89398
1.88334
1.87302
1.85936
1.84834
1.8311
1.82108
1.93245
1.92677
1.92021
1.91315
1.90505
1.89646
1.88621
1.87628
1.86286
1.85235
1.83427
1.82445
1.93342
1.92794
1.92161
1.91479
1.907
1.89871
1.88895
1.8793
1.86682
1.85633
1.8404
1.82978
1.93417
1.92875
1.9225
1.91577
1.90806
1.89986
1.89014
1.88061
1.86797
1.85772
1.84082
1.83092
1.93473
1.92941
1.92327
1.91666
1.90909
1.90107
1.89151
1.88228
1.86977
1.86012
1.84318
1.83467
1.935
1.92971
1.92358
1.91701
1.90945
1.90147
1.89192
1.88276
1.87016
1.86071
1.84338
1.83546
1.935
1.92971
1.92358
1.91701
1.90945
1.90147
1.89192
1.88276
1.87016
1.86071
1.84338
1.83546
1.93473
1.92941
1.92327
1.91666
1.90909
1.90107
1.89151
1.88228
1.86977
1.86012
1.84318
1.83466
1.93417
1.92876
1.9225
1.91577
1.90806
1.89986
1.89015
1.88061
1.86797
1.85772
1.84082
1.83092
1.93342
1.92794
1.92161
1.91479
1.907
1.89871
1.88895
1.8793
1.86682
1.85633
1.8404
1.82978
1.93245
1.92677
1.92021
1.91315
1.90505
1.89646
1.88622
1.87628
1.86286
1.85235
1.83427
1.82445
1.9314
1.92549
1.91867
1.91133
1.90289
1.89398
1.88333
1.87302
1.85936
1.84834
1.8311
1.82108
1.9304
1.92426
1.91714
1.90952
1.90061
1.89148
1.87981
1.86992
1.85327
1.84543
1.8189
1.82083
1.92951
1.92286
1.91518
1.90678
1.89723
1.88656
1.87456
1.86066
1.84567
1.82616
1.80786
1.77601
1.96205
1.96128
1.96051
1.95962
1.95855
1.95745
1.95592
1.95443
1.95201
1.94954
1.94544
1.93964
1.96256
1.96208
1.96162
1.96117
1.96047
1.96023
1.95889
1.95962
1.95637
1.96023
1.95207
1.96393
1.96314
1.96278
1.96247
1.96215
1.96171
1.96153
1.96082
1.96114
1.9598
1.96138
1.95915
1.96312
1.96375
1.96351
1.96335
1.96317
1.96292
1.9629
1.96244
1.9629
1.96181
1.96346
1.96106
1.96467
1.96431
1.96417
1.96412
1.96407
1.96398
1.9641
1.96391
1.96447
1.96396
1.96547
1.96448
1.96733
1.96475
1.96464
1.96463
1.96462
1.96457
1.96473
1.96456
1.96515
1.96458
1.96615
1.96469
1.96784
1.96507
1.96502
1.96506
1.96511
1.96513
1.96538
1.96531
1.96604
1.96556
1.96743
1.96599
1.96987
1.96523
1.96518
1.96524
1.9653
1.96533
1.9656
1.96552
1.96629
1.96576
1.96774
1.96608
1.97028
1.96523
1.96518
1.96524
1.9653
1.96533
1.9656
1.96552
1.96629
1.96576
1.96774
1.96608
1.97028
1.96507
1.96502
1.96506
1.96511
1.96513
1.96538
1.96531
1.96604
1.96556
1.96743
1.96599
1.96987
1.96475
1.96464
1.96463
1.96462
1.96457
1.96472
1.96456
1.96515
1.96458
1.96615
1.96469
1.96784
1.96431
1.96417
1.96412
1.96407
1.96398
1.9641
1.96391
1.96447
1.96396
1.96547
1.96448
1.96733
1.96375
1.96351
1.96335
1.96317
1.96292
1.9629
1.96244
1.9629
1.96181
1.96346
1.96106
1.96467
1.96314
1.96278
1.96247
1.96215
1.96171
1.96153
1.96082
1.96114
1.9598
1.96138
1.95915
1.96312
1.96256
1.96208
1.96162
1.96117
1.96047
1.96023
1.95889
1.95962
1.95637
1.96023
1.95207
1.96393
1.96205
1.96128
1.96051
1.95962
1.95855
1.95745
1.95592
1.95443
1.95201
1.94954
1.94544
1.93965
1.97351
1.97163
1.96944
1.96708
1.96432
1.96136
1.95776
1.95404
1.94908
1.94428
1.93703
1.92976
1.97385
1.97216
1.9702
1.96813
1.96564
1.96323
1.95983
1.95753
1.95221
1.95142
1.94192
1.94613
1.97422
1.97261
1.97075
1.96876
1.96644
1.96408
1.96108
1.95851
1.95443
1.95213
1.94651
1.94543
1.97461
1.97309
1.97133
1.96944
1.96726
1.965
1.96219
1.9597
1.95584
1.95354
1.94797
1.94647
1.97497
1.9735
1.97181
1.97001
1.96792
1.96575
1.96311
1.96067
1.9572
1.95475
1.95012
1.94798
1.97524
1.9738
1.97214
1.97035
1.9683
1.96615
1.96354
1.96111
1.95761
1.95518
1.9503
1.94826
1.97544
1.97403
1.9724
1.97066
1.96865
1.96656
1.96399
1.96165
1.95821
1.95595
1.9511
1.94946
1.97554
1.97414
1.97251
1.97078
1.96877
1.96669
1.96413
1.96181
1.95834
1.95613
1.95116
1.9497
1.97554
1.97414
1.97251
1.97078
1.96877
1.96669
1.96413
1.96181
1.95834
1.95613
1.95116
1.9497
1.97544
1.97403
1.9724
1.97066
1.96865
1.96656
1.96399
1.96165
1.95821
1.95595
1.95109
1.94946
1.97524
1.9738
1.97214
1.97035
1.9683
1.96615
1.96354
1.96111
1.95761
1.95518
1.9503
1.94826
1.97497
1.9735
1.97181
1.97001
1.96792
1.96575
1.96311
1.96067
1.9572
1.95475
1.95012
1.94798
1.97461
1.97309
1.97133
1.96944
1.96726
1.965
1.96219
1.9597
1.95584
1.95354
1.94797
1.94647
1.97422
1.97261
1.97075
1.96876
1.96644
1.96408
1.96108
1.95851
1.95443
1.95213
1.94651
1.94543
1.97385
1.97216
1.9702
1.96813
1.96564
1.96323
1.95983
1.95753
1.95221
1.95142
1.94192
1.94613
1.97351
1.97163
1.96944
1.96707
1.96432
1.96135
1.95776
1.95404
1.94908
1.94427
1.93703
1.92975
1.98425
1.98369
1.98308
1.9824
1.9816
1.98077
1.97965
1.97863
1.97691
1.97557
1.97268
1.9703
1.98446
1.98402
1.98355
1.98305
1.98241
1.98193
1.98093
1.98077
1.97882
1.97995
1.97568
1.98025
1.98469
1.9843
1.98388
1.98344
1.9829
1.98244
1.98169
1.98136
1.98019
1.98035
1.97853
1.97976
1.98494
1.9846
1.98425
1.98387
1.98341
1.98302
1.98239
1.9821
1.98108
1.98122
1.97946
1.98041
1.98516
1.98486
1.98455
1.98422
1.98382
1.98348
1.98296
1.98269
1.98192
1.98196
1.9808
1.98134
1.98533
1.98505
1.98475
1.98443
1.98406
1.98373
1.98323
1.98297
1.98219
1.98223
1.98093
1.98153
1.98546
1.98519
1.98492
1.98462
1.98428
1.98398
1.98351
1.98331
1.98257
1.98271
1.98143
1.98227
1.98552
1.98526
1.98499
1.9847
1.98436
1.98407
1.9836
1.98341
1.98265
1.98282
1.98147
1.98242
1.98552
1.98526
1.98499
1.9847
1.98436
1.98407
1.9836
1.98341
1.98265
1.98282
1.98147
1.98242
1.98546
1.98519
1.98492
1.98463
1.98428
1.98398
1.98351
1.98331
1.98257
1.98271
1.98143
1.98227
1.98533
1.98505
1.98475
1.98443
1.98406
1.98373
1.98323
1.98297
1.98219
1.98223
1.98093
1.98152
1.98516
1.98486
1.98455
1.98422
1.98382
1.98348
1.98296
1.98269
1.98192
1.98196
1.9808
1.98134
1.98494
1.9846
1.98425
1.98387
1.98341
1.98302
1.98239
1.9821
1.98108
1.98122
1.97946
1.98041
1.98469
1.9843
1.98388
1.98344
1.9829
1.98244
1.98169
1.98136
1.98019
1.98035
1.97853
1.97976
1.98446
1.98402
1.98355
1.98305
1.98241
1.98193
1.98093
1.98077
1.97882
1.97995
1.97568
1.98026
1.98425
1.98369
1.98308
1.9824
1.9816
1.98077
1.97965
1.97863
1.97691
1.97557
1.97268
1.9703
1.98947
1.98885
1.98815
1.98738
1.98648
1.98553
1.98433
1.98315
1.98143
1.97994
1.97728
1.97503
1.9896
1.98907
1.98845
1.9878
1.98701
1.98628
1.98517
1.98455
1.9827
1.9828
1.97929
1.98154
1.98975
1.98925
1.98867
1.98805
1.98733
1.98661
1.98566
1.98492
1.98358
1.98305
1.98113
1.98119
1.98991
1.98944
1.9889
1.98833
1.98766
1.98698
1.98611
1.9854
1.98416
1.98361
1.98174
1.9816
1.99005
1.98961
1.9891
1.98855
1.98792
1.98728
1.98647
1.98578
1.98469
1.98407
1.98258
1.98216
1.99016
1.98973
1.98922
1.98869
1.98807
1.98744
1.98664
1.98595
1.98486
1.98424
1.98266
1.98227
1.99024
1.98982
1.98933
1.98881
1.98821
1.98759
1.98682
1.98616
1.98509
1.98453
1.98297
1.98273
1.99028
1.98986
1.98937
1.98886
1.98826
1.98765
1.98687
1.98622
1.98515
1.9846
1.983
1.98283
1.99028
1.98986
1.98937
1.98886
1.98826
1.98765
1.98687
1.98622
1.98515
1.9846
1.983
1.98283
1.99024
1.98982
1.98933
1.98881
1.98821
1.98759
1.98682
1.98616
1.98509
1.98453
1.98297
1.98273
1.99016
1.98973
1.98922
1.98869
1.98807
1.98744
1.98664
1.98595
1.98486
1.98424
1.98266
1.98227
1.99005
1.98961
1.9891
1.98855
1.98792
1.98728
1.98647
1.98578
1.98469
1.98407
1.98258
1.98216
1.98991
1.98944
1.9889
1.98833
1.98766
1.98698
1.98611
1.9854
1.98416
1.98361
1.98174
1.9816
1.98975
1.98925
1.98867
1.98805
1.98733
1.98661
1.98566
1.98492
1.98358
1.98305
1.98113
1.98119
1.9896
1.98907
1.98845
1.9878
1.98701
1.98628
1.98517
1.98455
1.9827
1.9828
1.97929
1.98154
1.98947
1.98885
1.98815
1.98738
1.98648
1.98553
1.98433
1.98315
1.98143
1.97994
1.97728
1.97503
1.99336
1.99307
1.99274
1.99239
1.99197
1.99153
1.99096
1.99042
1.98956
1.98888
1.98747
1.98636
1.99345
1.99321
1.99294
1.99266
1.99231
1.99202
1.9915
1.99132
1.99038
1.99071
1.98876
1.99053
1.99354
1.99332
1.99308
1.99282
1.99252
1.99223
1.99182
1.99156
1.99094
1.99087
1.98994
1.99031
1.99364
1.99345
1.99323
1.993
1.99273
1.99247
1.99211
1.99187
1.99132
1.99124
1.99034
1.99059
1.99374
1.99355
1.99336
1.99314
1.9929
1.99266
1.99234
1.99212
1.99167
1.99154
1.99089
1.99096
1.99381
1.99363
1.99344
1.99324
1.993
1.99277
1.99246
1.99223
1.99178
1.99166
1.99095
1.99103
1.99386
1.99369
1.99351
1.99331
1.99309
1.99287
1.99257
1.99237
1.99193
1.99185
1.99116
1.99133
1.99389
1.99372
1.99354
1.99335
1.99312
1.99291
1.99261
1.99241
1.99197
1.9919
1.99118
1.9914
1.99389
1.99372
1.99354
1.99335
1.99312
1.99291
1.99261
1.99241
1.99197
1.9919
1.99118
1.9914
1.99386
1.99369
1.99351
1.99331
1.99309
1.99287
1.99257
1.99237
1.99193
1.99185
1.99116
1.99133
1.99381
1.99363
1.99344
1.99324
1.993
1.99277
1.99246
1.99223
1.99178
1.99166
1.99095
1.99103
1.99374
1.99355
1.99336
1.99314
1.9929
1.99266
1.99234
1.99212
1.99167
1.99154
1.99089
1.99096
1.99364
1.99345
1.99323
1.993
1.99273
1.99247
1.99211
1.99187
1.99132
1.99124
1.99034
1.99059
1.99354
1.99332
1.99308
1.99282
1.99252
1.99223
1.99182
1.99156
1.99095
1.99087
1.98994
1.99031
1.99345
1.99321
1.99294
1.99266
1.99231
1.99202
1.9915
1.99132
1.99038
1.99071
1.98876
1.99053
1.99336
1.99307
1.99274
1.99239
1.99197
1.99153
1.99096
1.99042
1.98956
1.98888
1.98747
1.98636
1.9956
1.99537
1.99511
1.99483
1.99449
1.99414
1.99369
1.99326
1.9926
1.99205
1.99101
1.99017
1.99566
1.99546
1.99524
1.99501
1.99472
1.99446
1.99404
1.99384
1.99314
1.99325
1.99186
1.9929
1.99572
1.99554
1.99533
1.99511
1.99485
1.9946
1.99425
1.994
1.9935
1.99336
1.99263
1.99275
1.99579
1.99562
1.99543
1.99523
1.99499
1.99475
1.99444
1.9942
1.99375
1.99359
1.99289
1.99292
1.99585
1.99569
1.99551
1.99532
1.9951
1.99488
1.99459
1.99436
1.99397
1.99378
1.99324
1.99316
1.9959
1.99574
1.99557
1.99538
1.99516
1.99494
1.99466
1.99443
1.99404
1.99386
1.99328
1.9932
1.99593
1.99578
1.99561
1.99543
1.99522
1.99501
1.99474
1.99452
1.99414
1.99398
1.99341
1.9934
1.99595
1.9958
1.99563
1.99545
1.99524
1.99503
1.99476
1.99455
1.99416
1.99401
1.99342
1.99344
1.99595
1.9958
1.99563
1.99545
1.99524
1.99503
1.99476
1.99455
1.99416
1.99401
1.99342
1.99344
1.99593
1.99578
1.99561
1.99543
1.99522
1.99501
1.99474
1.99452
1.99414
1.99398
1.99341
1.9934
1.9959
1.99574
1.99557
1.99538
1.99516
1.99494
1.99466
1.99443
1.99404
1.99386
1.99328
1.9932
1.99585
1.99569
1.99551
1.99532
1.9951
1.99488
1.99459
1.99436
1.99397
1.99378
1.99324
1.99316
1.99579
1.99562
1.99543
1.99523
1.99499
1.99475
1.99444
1.9942
1.99375
1.99359
1.99289
1.99292
1.99572
1.99554
1.99533
1.99511
1.99485
1.9946
1.99425
1.994
1.9935
1.99335
1.99263
1.99275
1.99566
1.99546
1.99524
1.99501
1.99472
1.99446
1.99404
1.99384
1.99314
1.99325
1.99186
1.9929
1.9956
1.99537
1.99511
1.99483
1.99449
1.99414
1.99369
1.99326
1.9926
1.99205
1.99101
1.99017
1.99713
1.997
1.99684
1.99668
1.99648
1.99628
1.99601
1.99576
1.99536
1.99504
1.9944
1.9939
1.99717
1.99706
1.99693
1.99679
1.99663
1.99648
1.99624
1.99614
1.99571
1.99583
1.99496
1.99569
1.99721
1.9971
1.99699
1.99686
1.99672
1.99657
1.99638
1.99625
1.99596
1.9959
1.99547
1.9956
1.99725
1.99716
1.99705
1.99694
1.99681
1.99668
1.9965
1.99638
1.99612
1.99606
1.99564
1.99571
1.99729
1.9972
1.99711
1.997
1.99688
1.99676
1.9966
1.99648
1.99627
1.99619
1.99588
1.99587
1.99732
1.99724
1.99714
1.99704
1.99692
1.99681
1.99665
1.99653
1.99632
1.99623
1.9959
1.9959
1.99735
1.99726
1.99717
1.99707
1.99696
1.99685
1.9967
1.99659
1.99638
1.99632
1.99599
1.99603
1.99736
1.99728
1.99718
1.99709
1.99697
1.99686
1.99672
1.99661
1.9964
1.99634
1.996
1.99606
1.99736
1.99728
1.99718
1.99709
1.99697
1.99686
1.99672
1.99661
1.9964
1.99634
1.996
1.99606
1.99735
1.99726
1.99717
1.99707
1.99696
1.99685
1.9967
1.99659
1.99638
1.99632
1.99599
1.99603
1.99732
1.99724
1.99714
1.99704
1.99692
1.99681
1.99665
1.99653
1.99632
1.99623
1.9959
1.9959
1.99729
1.9972
1.99711
1.997
1.99688
1.99676
1.9966
1.99648
1.99627
1.99619
1.99588
1.99587
1.99725
1.99716
1.99705
1.99694
1.99681
1.99668
1.9965
1.99638
1.99612
1.99606
1.99564
1.99571
1.99721
1.9971
1.99699
1.99686
1.99672
1.99657
1.99638
1.99625
1.99596
1.9959
1.99547
1.9956
1.99717
1.99706
1.99693
1.99679
1.99663
1.99648
1.99624
1.99614
1.99572
1.99583
1.99496
1.99569
1.99713
1.997
1.99684
1.99668
1.99648
1.99628
1.99601
1.99576
1.99536
1.99504
1.99441
1.9939
1.99809
1.998
1.99789
1.99777
1.99764
1.99749
1.99731
1.99713
1.99685
1.99663
1.99619
1.99584
1.99812
1.99804
1.99795
1.99785
1.99773
1.99763
1.99746
1.99738
1.99709
1.99715
1.99656
1.99703
1.99815
1.99807
1.99799
1.9979
1.99779
1.99769
1.99755
1.99745
1.99725
1.9972
1.99689
1.99696
1.99817
1.99811
1.99803
1.99795
1.99785
1.99776
1.99763
1.99754
1.99735
1.9973
1.99701
1.99704
1.9982
1.99814
1.99806
1.99799
1.9979
1.99781
1.9977
1.99761
1.99745
1.99738
1.99716
1.99714
1.99822
1.99816
1.99809
1.99801
1.99793
1.99784
1.99773
1.99764
1.99748
1.99741
1.99718
1.99716
1.99824
1.99818
1.99811
1.99804
1.99795
1.99787
1.99776
1.99768
1.99753
1.99747
1.99724
1.99725
1.99824
1.99818
1.99812
1.99804
1.99796
1.99788
1.99777
1.99769
1.99754
1.99748
1.99724
1.99726
1.99824
1.99818
1.99812
1.99804
1.99796
1.99788
1.99777
1.99769
1.99754
1.99748
1.99724
1.99726
1.99824
1.99818
1.99811
1.99804
1.99795
1.99787
1.99776
1.99768
1.99753
1.99747
1.99724
1.99725
1.99822
1.99816
1.99809
1.99801
1.99793
1.99784
1.99773
1.99764
1.99748
1.99741
1.99718
1.99716
1.9982
1.99814
1.99806
1.99799
1.9979
1.99781
1.9977
1.99761
1.99745
1.99738
1.99716
1.99714
1.99817
1.99811
1.99803
1.99795
1.99785
1.99776
1.99763
1.99754
1.99735
1.9973
1.99701
1.99704
1.99815
1.99807
1.99799
1.9979
1.99779
1.99769
1.99755
1.99745
1.99725
1.99719
1.99689
1.99696
1.99812
1.99804
1.99795
1.99785
1.99773
1.99763
1.99746
1.99738
1.99709
1.99715
1.99656
1.99703
1.99809
1.998
1.99789
1.99777
1.99764
1.99749
1.99731
1.99713
1.99685
1.99663
1.99619
1.99584
1.99874
1.99868
1.99861
1.99853
1.99844
1.99835
1.99823
1.99812
1.99794
1.9978
1.99751
1.99729
1.99875
1.9987
1.99865
1.99858
1.99851
1.99844
1.99833
1.99829
1.9981
1.99814
1.99776
1.99807
1.99877
1.99872
1.99867
1.99861
1.99855
1.99848
1.99839
1.99833
1.9982
1.99817
1.99798
1.99803
1.99879
1.99875
1.9987
1.99865
1.99859
1.99853
1.99845
1.99839
1.99827
1.99824
1.99806
1.99808
1.99881
1.99877
1.99872
1.99868
1.99862
1.99856
1.99849
1.99844
1.99834
1.9983
1.99816
1.99815
1.99882
1.99878
1.99874
1.99869
1.99864
1.99858
1.99851
1.99846
1.99836
1.99832
1.99817
1.99817
1.99883
1.99879
1.99875
1.99871
1.99865
1.9986
1.99854
1.99848
1.99839
1.99836
1.99821
1.99822
1.99884
1.9988
1.99876
1.99871
1.99866
1.99861
1.99854
1.99849
1.99839
1.99836
1.99821
1.99823
1.99884
1.9988
1.99876
1.99871
1.99866
1.99861
1.99854
1.99849
1.99839
1.99836
1.99821
1.99823
1.99883
1.99879
1.99875
1.99871
1.99865
1.9986
1.99854
1.99848
1.99839
1.99836
1.99821
1.99822
1.99882
1.99878
1.99874
1.99869
1.99864
1.99858
1.99851
1.99846
1.99836
1.99832
1.99817
1.99817
1.99881
1.99877
1.99872
1.99868
1.99862
1.99856
1.99849
1.99844
1.99834
1.9983
1.99816
1.99815
1.99879
1.99875
1.9987
1.99865
1.99859
1.99853
1.99845
1.99839
1.99827
1.99824
1.99806
1.99808
1.99877
1.99872
1.99867
1.99861
1.99855
1.99848
1.99839
1.99833
1.9982
1.99817
1.99798
1.99803
1.99875
1.9987
1.99865
1.99858
1.99851
1.99844
1.99833
1.99829
1.9981
1.99814
1.99776
1.99807
1.99874
1.99868
1.99861
1.99853
1.99844
1.99835
1.99823
1.99812
1.99794
1.9978
1.99751
1.99729
1.99917
1.99913
1.99908
1.99903
1.99897
1.99891
1.99883
1.99875
1.99863
1.99854
1.99835
1.9982
1.99918
1.99914
1.9991
1.99906
1.99901
1.99897
1.9989
1.99886
1.99874
1.99876
1.99851
1.99872
1.99919
1.99916
1.99912
1.99908
1.99904
1.99899
1.99893
1.99889
1.99881
1.99879
1.99866
1.99869
1.9992
1.99917
1.99914
1.99911
1.99907
1.99903
1.99897
1.99893
1.99885
1.99883
1.99871
1.99872
1.99921
1.99919
1.99916
1.99912
1.99909
1.99905
1.999
1.99896
1.9989
1.99887
1.99877
1.99877
1.99922
1.9992
1.99917
1.99913
1.9991
1.99906
1.99901
1.99898
1.99891
1.99888
1.99878
1.99878
1.99923
1.9992
1.99917
1.99914
1.99911
1.99907
1.99903
1.99899
1.99893
1.9989
1.99881
1.99881
1.99923
1.99921
1.99918
1.99915
1.99911
1.99908
1.99903
1.999
1.99893
1.99891
1.99881
1.99882
1.99923
1.99921
1.99918
1.99915
1.99911
1.99908
1.99903
1.999
1.99893
1.99891
1.99881
1.99882
1.99923
1.9992
1.99917
1.99914
1.99911
1.99907
1.99903
1.99899
1.99893
1.9989
1.99881
1.99881
1.99922
1.9992
1.99917
1.99913
1.9991
1.99906
1.99901
1.99898
1.99891
1.99888
1.99878
1.99878
1.99921
1.99919
1.99916
1.99912
1.99909
1.99905
1.999
1.99896
1.9989
1.99887
1.99877
1.99877
1.9992
1.99917
1.99914
1.99911
1.99907
1.99903
1.99897
1.99893
1.99885
1.99883
1.99871
1.99872
1.99919
1.99916
1.99912
1.99908
1.99904
1.99899
1.99893
1.99889
1.99881
1.99879
1.99866
1.99869
1.99918
1.99914
1.9991
1.99906
1.99901
1.99897
1.9989
1.99886
1.99874
1.99876
1.99851
1.99872
1.99917
1.99913
1.99908
1.99903
1.99897
1.99891
1.99883
1.99875
1.99863
1.99854
1.99835
1.9982
1.99946
1.99944
1.99941
1.99938
1.99934
1.9993
1.99925
1.9992
1.99912
1.99906
1.99894
1.99884
1.99947
1.99945
1.99942
1.9994
1.99937
1.99934
1.99929
1.99927
1.99919
1.99921
1.99904
1.99918
1.99948
1.99946
1.99944
1.99941
1.99938
1.99935
1.99932
1.99929
1.99923
1.99922
1.99914
1.99916
1.99949
1.99947
1.99945
1.99943
1.9994
1.99937
1.99934
1.99932
1.99927
1.99925
1.99917
1.99918
1.99949
1.99948
1.99946
1.99944
1.99941
1.99939
1.99936
1.99933
1.99929
1.99927
1.99921
1.99921
1.9995
1.99948
1.99946
1.99944
1.99942
1.9994
1.99937
1.99934
1.9993
1.99928
1.99922
1.99922
1.9995
1.99949
1.99947
1.99945
1.99943
1.99941
1.99938
1.99935
1.99931
1.9993
1.99924
1.99924
1.99951
1.99949
1.99947
1.99945
1.99943
1.99941
1.99938
1.99936
1.99932
1.9993
1.99924
1.99925
1.99951
1.99949
1.99947
1.99945
1.99943
1.99941
1.99938
1.99936
1.99932
1.9993
1.99924
1.99925
1.9995
1.99949
1.99947
1.99945
1.99943
1.99941
1.99938
1.99935
1.99931
1.9993
1.99924
1.99924
1.9995
1.99948
1.99946
1.99944
1.99942
1.9994
1.99937
1.99934
1.9993
1.99928
1.99922
1.99922
1.99949
1.99948
1.99946
1.99944
1.99941
1.99939
1.99936
1.99933
1.99929
1.99927
1.99921
1.99921
1.99949
1.99947
1.99945
1.99943
1.9994
1.99937
1.99934
1.99932
1.99927
1.99925
1.99917
1.99918
1.99948
1.99946
1.99944
1.99941
1.99938
1.99935
1.99932
1.99929
1.99923
1.99922
1.99914
1.99916
1.99947
1.99945
1.99942
1.9994
1.99937
1.99934
1.99929
1.99927
1.99919
1.99921
1.99904
1.99918
1.99946
1.99944
1.99941
1.99938
1.99934
1.9993
1.99925
1.9992
1.99912
1.99906
1.99894
1.99884
1.99968
1.99966
1.99964
1.99963
1.9996
1.99958
1.99955
1.99952
1.99947
1.99944
1.99936
1.9993
1.99968
1.99967
1.99965
1.99964
1.99962
1.9996
1.99957
1.99956
1.99951
1.99952
1.99943
1.99951
1.99969
1.99967
1.99966
1.99965
1.99963
1.99961
1.99959
1.99957
1.99954
1.99953
1.99948
1.99949
1.99969
1.99968
1.99967
1.99965
1.99964
1.99962
1.9996
1.99959
1.99956
1.99955
1.9995
1.99951
1.9997
1.99969
1.99967
1.99966
1.99965
1.99963
1.99961
1.9996
1.99957
1.99956
1.99953
1.99952
1.9997
1.99969
1.99968
1.99967
1.99965
1.99964
1.99962
1.99961
1.99958
1.99957
1.99953
1.99953
1.9997
1.99969
1.99968
1.99967
1.99966
1.99964
1.99963
1.99961
1.99959
1.99958
1.99954
1.99954
1.9997
1.99969
1.99968
1.99967
1.99966
1.99964
1.99963
1.99961
1.99959
1.99958
1.99954
1.99955
1.9997
1.99969
1.99968
1.99967
1.99966
1.99964
1.99963
1.99961
1.99959
1.99958
1.99954
1.99955
1.9997
1.99969
1.99968
1.99967
1.99966
1.99964
1.99963
1.99961
1.99959
1.99958
1.99954
1.99954
1.9997
1.99969
1.99968
1.99967
1.99965
1.99964
1.99962
1.99961
1.99958
1.99957
1.99953
1.99953
1.9997
1.99969
1.99967
1.99966
1.99965
1.99963
1.99961
1.9996
1.99957
1.99956
1.99953
1.99952
1.99969
1.99968
1.99967
1.99965
1.99964
1.99962
1.9996
1.99959
1.99956
1.99955
1.9995
1.99951
1.99969
1.99967
1.99966
1.99965
1.99963
1.99961
1.99959
1.99957
1.99954
1.99953
1.99948
1.99949
1.99968
1.99967
1.99965
1.99964
1.99962
1.9996
1.99957
1.99956
1.99951
1.99952
1.99943
1.99951
1.99968
1.99966
1.99964
1.99963
1.9996
1.99958
1.99955
1.99952
1.99947
1.99944
1.99936
1.9993
1.99984
1.99984
1.99983
1.99982
1.99981
1.9998
1.99978
1.99977
1.99974
1.99973
1.99969
1.99966
1.99985
1.99984
1.99983
1.99982
1.99982
1.99981
1.99979
1.99979
1.99976
1.99977
1.99972
1.99976
1.99985
1.99984
1.99984
1.99983
1.99982
1.99981
1.9998
1.99979
1.99978
1.99977
1.99975
1.99975
1.99985
1.99984
1.99984
1.99983
1.99982
1.99982
1.99981
1.9998
1.99979
1.99978
1.99976
1.99976
1.99985
1.99985
1.99984
1.99984
1.99983
1.99982
1.99981
1.99981
1.99979
1.99979
1.99977
1.99977
1.99985
1.99985
1.99984
1.99984
1.99983
1.99982
1.99982
1.99981
1.9998
1.99979
1.99977
1.99977
1.99986
1.99985
1.99985
1.99984
1.99983
1.99983
1.99982
1.99981
1.9998
1.9998
1.99978
1.99978
1.99986
1.99985
1.99985
1.99984
1.99983
1.99983
1.99982
1.99981
1.9998
1.9998
1.99978
1.99978
1.99986
1.99985
1.99985
1.99984
1.99983
1.99983
1.99982
1.99981
1.9998
1.9998
1.99978
1.99978
1.99986
1.99985
1.99985
1.99984
1.99983
1.99983
1.99982
1.99981
1.9998
1.9998
1.99978
1.99978
1.99985
1.99985
1.99984
1.99984
1.99983
1.99982
1.99982
1.99981
1.9998
1.99979
1.99977
1.99977
1.99985
1.99985
1.99984
1.99984
1.99983
1.99982
1.99981
1.99981
1.99979
1.99979
1.99977
1.99977
1.99985
1.99984
1.99984
1.99983
1.99982
1.99982
1.99981
1.9998
1.99979
1.99978
1.99976
1.99976
1.99985
1.99984
1.99984
1.99983
1.99982
1.99981
1.9998
1.99979
1.99978
1.99977
1.99975
1.99975
1.99985
1.99984
1.99983
1.99982
1.99982
1.99981
1.99979
1.99979
1.99976
1.99977
1.99972
1.99976
1.99984
1.99984
1.99983
1.99982
1.99981
1.9998
1.99978
1.99977
1.99974
1.99973
1.99969
1.99966
1.99999
1.99998
1.99998
1.99998
1.99998
1.99998
1.99998
1.99998
1.99998
1.99997
1.99997
1.99997
1.99999
1.99998
1.99998
1.99998
1.99998
1.99998
1.99998
1.99998
1.99998
1.99998
1.99997
1.99998
1.99999
1.99999
1.99998
1.99998
1.99998
1.99998
1.99998
1.99998
1.99998
1.99998
1.99998
1.99998
1.99999
1.99999
1.99998
1.99998
1.99998
1.99998
1.99998
1.99998
1.99998
1.99998
1.99998
1.99998
1.99999
1.99999
1.99999
1.99998
1.99998
1.99998
1.99998
1.99998
1.99998
1.99998
1.99998
1.99998
1.99999
1.99999
1.99999
1.99998
1.99998
1.99998
1.99998
1.99998
1.99998
1.99998
1.99998
1.99998
1.99999
1.99999
1.99999
1.99998
1.99998
1.99998
1.99998
1.99998
1.99998
1.99998
1.99998
1.99998
1.99999
1.99999
1.99999
1.99999
1.99998
1.99998
1.99998
1.99998
1.99998
1.99998
1.99998
1.99998
1.99999
1.99999
1.99999
1.99999
1.99998
1.99998
1.99998
1.99998
1.99998
1.99998
1.99998
1.99998
1.99999
1.99999
1.99999
1.99998
1.99998
1.99998
1.99998
1.99998
1.99998
1.99998
1.99998
1.99998
1.99999
1.99999
1.99999
1.99998
1.99998
1.99998
1.99998
1.99998
1.99998
1.99998
1.99998
1.99998
1.99999
1.99999
1.99999
1.99998
1.99998
1.99998
1.99998
1.99998
1.99998
1.99998
1.99998
1.99998
1.99999
1.99999
1.99998
1.99998
1.99998
1.99998
1.99998
1.99998
1.99998
1.99998
1.99998
1.99998
1.99999
1.99999
1.99998
1.99998
1.99998
1.99998
1.99998
1.99998
1.99998
1.99998
1.99998
1.99998
1.99999
1.99998
1.99998
1.99998
1.99998
1.99998
1.99998
1.99998
1.99998
1.99998
1.99997
1.99998
1.99999
1.99998
1.99998
1.99998
1.99998
1.99998
1.99998
1.99998
1.99998
1.99997
1.99997
1.99997
2.00012
2.00013
2.00013
2.00014
2.00015
2.00016
2.00017
2.00018