/*--------------------------------*- C++ -*----------------------------------*\
| =========                 |                                                 |
| \\      /  F ield         | foam-extend: Open Source CFD                    |
|  \\    /   O peration     | Version:  3.0                                   |
|   \\  /    A nd           | Web:         http://www.extend-project.de       |
|    \\/     M anipulation  |                                                 |
\*---------------------------------------------------------------------------*/
FoamFile
{
    version     2.0;
    format      ascii;
    class       volScalarField;
    location    "15";
    object      p;
}
// * * * * * * * * * * * * * * * * * * * * * * * * * * * * * * * * * * * * * //

dimensions      [0 0 0 0 0 0 0];

internalField   nonuniform List<scalar> 
672
(
-0.242862795
-0.2073633803
-0.197064521
-0.1785453503
-0.1769784649
-0.1667157372
-0.1686702528
-0.1628621596
-0.1653759702
-0.1615189687
-0.1620269264
-0.1577252122
-0.2397075512
-0.2046596962
-0.1944964151
-0.1762130446
-0.1746713165
-0.1645397138
-0.1664759753
-0.1607411519
-0.1632279621
-0.1594119948
-0.1599115914
-0.1556308853
-0.2334928814
-0.1993372566
-0.189417241
-0.1715883147
-0.170062427
-0.1601699978
-0.1620287002
-0.1564169117
-0.1588108654
-0.1550715871
-0.1555315984
-0.151363906
-0.2243882176
-0.1915519197
-0.1820176061
-0.1648780043
-0.1634145707
-0.1539046056
-0.1556959361
-0.1503000935
-0.1526046661
-0.1490028007
-0.1494429207
-0.1454005871
-0.2124317411
-0.1813287462
-0.172286101
-0.1560423835
-0.1546386977
-0.1456152415
-0.1472906841
-0.1421602544
-0.1443186582
-0.1408884081
-0.1412758191
-0.1374383053
-0.1978209433
-0.1688437656
-0.1604177884
-0.1452826539
-0.143973286
-0.1355629112
-0.1371222524
-0.1323369809
-0.134344879
-0.1311393811
-0.1314949457
-0.127890858
-0.1807253283
-0.1542354326
-0.1465247409
-0.1326821049
-0.1314737656
-0.1237730349
-0.1251853996
-0.1207943808
-0.1226150415
-0.1196653039
-0.11997079
-0.1166519779
-0.1613355187
-0.1376711396
-0.1307767729
-0.118405501
-0.117317003
-0.1104274963
-0.1116775465
-0.1077393072
-0.1093480396
-0.1066898995
-0.1069311686
-0.1039300391
-0.1399584933
-0.1194101392
-0.1134181801
-0.1026709485
-0.1017189896
-0.09572648433
-0.09680505896
-0.09336982154
-0.09475841921
-0.09242653013
-0.09262067586
-0.08997249778
-0.1167589596
-0.09959392649
-0.09457683486
-0.08558963854
-0.08477657735
-0.07975344293
-0.08063206332
-0.07773879176
-0.07887124912
-0.07689476018
-0.07702121488
-0.07477753241
-0.09216992234
-0.07859304523
-0.07461933072
-0.06750571439
-0.06685633631
-0.06287225315
-0.06356083882
-0.06125488081
-0.06213953376
-0.06054784098
-0.06062088784
-0.05878617205
-0.06632408835
-0.05651830108
-0.05362932672
-0.04847617858
-0.04797808509
-0.04507366041
-0.04553527494
-0.04383547093
-0.04443387836
-0.0432469786
-0.04325489301
-0.04189132355
-0.03975109883
-0.03382564092
-0.03206754592
-0.02894266737
-0.02862523075
-0.02684849671
-0.02710892147
-0.02604965411
-0.02638539766
-0.02562090148
-0.02557933685
-0.02466507763
-0.01255811275
-0.01060183657
-0.009984619082
-0.00892255589
-0.008762222278
-0.00812141363
-0.008139802764
-0.007718317361
-0.007748973911
-0.0074112488
-0.007295783787
-0.006886867349
0.01467248167
0.01265054968
0.01210733108
0.01108912542
0.01106317427
0.01054586024
0.01073245978
0.0104941006
0.01072897785
0.01062911585
0.01078422256
0.01072375298
0.04184377137
0.03585414989
0.03417009071
0.03108950411
0.03090659332
0.02925276846
0.02968174774
0.02880461023
0.02934453202
0.02881584809
0.02904305957
0.02846507909
0.06837233205
0.05850563996
0.05569085136
0.050583066
0.0502196207
0.04743669535
0.04806693992
0.04654519573
0.04734375015
0.04638470035
0.04664485472
0.04559684034
0.09415326995
0.08051967719
0.07662005862
0.0695527339
0.06903797757
0.06517280593
0.06603030221
0.06389712224
0.06498136387
0.06360921444
0.06393181698
0.06238875373
0.1186537972
0.101438129
0.0964949589
0.08755560985
0.08687659962
0.08196889431
0.08301613395
0.08028663972
0.08161433244
0.07983984118
0.08019742737
0.07820520335
0.141745824
0.1211530514
0.1152342465
0.10453543
0.1037160505
0.09783281175
0.09907732119
0.09579116919
0.09736451075
0.09520744311
0.09559957479
0.09315260169
0.1629915336
0.1392907869
0.1324683293
0.1201467576
0.1191883012
0.1124021223
0.1138158994
0.1100126415
0.1118017285
0.1092914581
0.109715821
0.1068635764
0.1822326421
0.1557137806
0.1480728653
0.1342794297
0.1331971324
0.1255911087
0.1271615248
0.1228877267
0.1248746184
0.1220418222
0.1224928253
0.1192654474
0.19915689
0.1701597036
0.1618002626
0.1467146408
0.145525093
0.1372014869
0.1389111483
0.1342273105
0.1363879349
0.1332738828
0.1337439984
0.1301795208
0.2135810058
0.1824654962
0.1734853
0.1572886618
0.1559972096
0.1470502684
0.1488670988
0.1438227842
0.1461227574
0.1427640478
0.1432523376
0.1394145038
0.2253308059
0.1924909128
0.1830127821
0.1659188291
0.1645562459
0.1551124049
0.1570307572
0.1517030257
0.1541286528
0.150572736
0.1510774719
0.1469911525
0.2342166786
0.2000636657
0.1901936078
0.1724048248
0.1709673848
0.1611271909
0.1630969053
0.157533278
0.1600272485
0.1563074543
0.1568007267
0.1525445694
0.2401962119
0.2051595919
0.1950362542
0.1767893619
0.1753186407
0.16522603
0.1672521978
0.1615446686
0.16410851
0.1602842964
0.1607920625
0.1563905151
0.2431032588
0.2076236765
0.1973574201
0.1788669227
0.1773534196
0.1671124418
0.1691338652
0.1633295076
0.1658928651
0.1619994337
0.1624825553
0.158033003
0.2430049628
0.2075275149
0.1972643248
0.1787773341
0.1772679674
0.1670307156
0.1690574918
0.1632553358
0.1658240857
0.1619258407
0.1624118332
0.1579325929
0.2397945426
0.2047656668
0.1946166598
0.1763500937
0.174834181
0.1647057978
0.1666749333
0.1609234081
0.163426651
0.1595612982
0.1600149936
0.1556048987
0.2336158026
0.1994755689
0.1895848752
0.1717828048
0.1703062981
0.1604365321
0.1623569607
0.156752523
0.1591928768
0.1554224592
0.1558623637
0.151543182
0.2244570281
0.1916336603
0.1821096615
0.1649816797
0.1635374976
0.1540296996
0.1558456038
0.1504381597
0.1527550753
0.14911934
0.1495262106
0.1453907756
0.2125015609
0.181409747
0.1723856295
0.1561595198
0.1547865255
0.1457781729
0.1474920199
0.142367747
0.1445560671
0.1411090511
0.1414894708
0.1375614208
0.1978613155
0.1688880999
0.1604658951
0.1453343465
0.1440329747
0.1356219441
0.1371915858
0.1323987735
0.134410457
0.1311860335
0.1315213175
0.1278713713
0.1807250787
0.1542403572
0.1465342302
0.1326966818
0.1314940133
0.1237974012
0.1252161562
0.1208264208
0.1226510238
0.1196957336
0.1199973178
0.1166593606
0.1613431322
0.1376723455
0.1307739984
0.1183972218
0.1173035731
0.1104106469
0.1116550925
0.1077157632
0.1093218227
0.106665954
0.1069137923
0.1039284845
0.1398850004
0.1193354818
0.1133337026
0.1025785769
0.1016063312
0.09560720481
0.09665892751
0.09322286825
0.0945887983
0.09227077175
0.09246703971
0.08988087299
0.1167359773
0.09955479709
0.09452653984
0.08552559037
0.08469524591
0.07966699811
0.08052524948
0.07763966963
0.07876275045
0.07681491072
0.07697197749
0.07480658787
0.09203453594
0.07845118871
0.07445568565
0.06732337324
0.06663214533
0.06263298514
0.06326770561
0.06096113294
0.06180417163
0.06024665731
0.06033698619
0.05863639644
0.06627872933
0.05644957959
0.05354431997
0.04837145639
0.04784742356
0.04493656009
0.04536693713
0.04367990397
0.04426219645
0.04311904744
0.04316713357
0.04192129765
0.03957751126
0.0336423221
0.03185519115
0.02870498424
0.02833259581
0.02653533548
0.02672541012
0.02566412405
0.02594569782
0.02522299517
0.02520240776
0.0244585206
0.01250293341
0.01052002613
0.00988444795
0.00880012523
0.008610407562
0.007962679644
0.007945711848
0.007538853881
0.007552106179
0.007263416259
0.007196203748
0.006922467269
-0.01485296458
-0.01284137679
-0.01232835802
-0.01133657675
-0.01136766147
-0.01087173785
-0.01113128352
-0.01089550303
-0.01118678875
-0.01104491166
-0.01117989252
-0.01094346522
-0.04189437859
-0.03593006036
-0.03426305373
-0.03120331093
-0.03104746345
-0.02939959636
-0.02986083622
-0.02896883894
-0.02952367134
-0.02894778532
-0.02912787479
-0.02842518485
-0.06852707972
-0.05866858283
-0.0558789452
-0.05079290804
-0.05047728091
-0.04771146528
-0.04840297344
-0.04688182764
-0.04772846572
-0.04673200397
-0.04697812482
-0.04578362902
-0.09418587544
-0.0805719635
-0.07668504699
-0.06963357145
-0.06913846005
-0.06527729553
-0.06615776336
-0.06401167211
-0.06510543629
-0.06369432908
-0.06397902202
-0.06234144349
-0.1187552876
-0.1015433649
-0.09661517754
-0.08768820791
-0.08703852644
-0.08213982007
-0.08322468861
-0.0804926215
-0.08184911081
-0.08004638775
-0.08039140075
-0.07830598893
-0.1417506047
-0.1211687224
-0.1152561529
-0.1045658029
-0.1037553068
-0.09787451554
-0.09912923409
-0.09583730103
-0.09741547959
-0.09524009445
-0.09561787265
-0.09312849187
-0.1630227017
-0.1393198643
-0.1324991428
-0.1201778649
-0.1192248142
-0.1124382685
-0.1138595083
-0.1100538377
-0.1118483351
-0.1093312305
-0.1097507269
-0.1068804584
-0.182205253
-0.1556869911
-0.1480449852
-0.1342515943
-0.1331660703
-0.1255614255
-0.1271276385
-0.1228585723
-0.1248440944
-0.122021779
-0.1224821956
-0.1192755652
-0.1991144915
-0.1701090699
-0.1617376693
-0.1466396462
-0.1454307576
-0.137097313
-0.1387837814
-0.1340986097
-0.1362434558
-0.1331465115
-0.1336293193
-0.1301277981
-0.2135233278
-0.1823985103
-0.1734104857
-0.1572056939
-0.155899694
-0.146952576
-0.1487514043
-0.1437194908
-0.1460105896
-0.1426834487
-0.1431959112
-0.1394308611
-0.2252260834
-0.1923725754
-0.1828711322
-0.1657536545
-0.1643505842
-0.1548881952
-0.1567565537
-0.1514257191
-0.1538145819
-0.1502895056
-0.150811686
-0.146848565
-0.2341363857
-0.1999663322
-0.190083756
-0.1722803886
-0.1708200315
-0.1609781826
-0.1629196228
-0.15737357
-0.1598549875
-0.1561826955
-0.1567196187
-0.152580199
-0.2400526684
-0.2049989289
-0.1948452318
-0.1765679085
-0.1750431429
-0.1649263862
-0.1668849426
-0.1611728488
-0.1636855246
-0.1599016784
-0.160429971
-0.1561946131
-0.2430123374
-0.2075117351
-0.1972310338
-0.1787228752
-0.1771825291
-0.1669389968
-0.1689265853
-0.1631418947
-0.1656896478
-0.1618514506
-0.1623864206
-0.1580752801
)
;

boundaryField
{
    out
    {
        type            implicitExtrapolation;
    }
    in
    {
        type            implicitExtrapolation;
    }
    frontAndBack
    {
        type            empty;
    }
}


// ************************************************************************* //
