/*--------------------------------*- C++ -*----------------------------------*\
| =========                 |                                                 |
| \\      /  F ield         | foam-extend: Open Source CFD                    |
|  \\    /   O peration     | Version:  3.0                                   |
|   \\  /    A nd           | Web:         http://www.extend-project.de       |
|    \\/     M anipulation  |                                                 |
\*---------------------------------------------------------------------------*/
FoamFile
{
    version     2.0;
    format      ascii;
    class       volScalarField;
    location    "120";
    object      Theta;
}
// * * * * * * * * * * * * * * * * * * * * * * * * * * * * * * * * * * * * * //

dimensions      [0 2 -2 0 0 0 0];

internalField   nonuniform List<scalar> 
1280
(
2.46728
2.23823
2.17105
2.04659
1.98487
1.89297
1.83899
1.76506
1.71769
1.65506
1.61397
1.55774
1.52412
1.46877
1.44671
1.38303
2.46165
2.23909
2.1701
2.04684
1.98456
1.89306
1.83887
1.7651
1.71764
1.65507
1.61395
1.55772
1.52414
1.46872
1.44676
1.38292
2.39228
2.24513
2.16432
2.04775
1.98368
1.89335
1.83858
1.76542
1.7173
1.65585
1.6131
1.55999
1.52166
1.47527
1.43958
1.40114
2.39551
2.24602
2.16391
2.04814
1.98335
1.89353
1.83838
1.76549
1.71718
1.65585
1.61302
1.55991
1.52156
1.47513
1.43937
1.40101
2.39616
2.24863
2.16105
2.0492
1.98221
1.89409
1.83778
1.76601
1.71661
1.65658
1.6122
1.56103
1.52033
1.47638
1.43803
1.40061
2.39618
2.249
2.16075
2.0495
1.98191
1.89428
1.83756
1.76611
1.71646
1.65663
1.6121
1.56104
1.52027
1.47638
1.43801
1.40063
2.39658
2.25028
2.15933
2.05031
1.98102
1.8948
1.83698
1.76655
1.71597
1.65709
1.61159
1.56151
1.51975
1.47671
1.43767
1.40054
2.3966
2.25048
2.15914
2.05053
1.98079
1.89497
1.83679
1.76667
1.71583
1.65717
1.61149
1.56156
1.51969
1.47673
1.43766
1.40054
2.39681
2.25114
2.15843
2.05107
1.9802
1.89537
1.83636
1.76699
1.71548
1.65744
1.61119
1.56178
1.51946
1.47685
1.43754
1.4005
2.39683
2.25125
2.15832
2.05124
1.98003
1.89551
1.8362
1.7671
1.71535
1.65751
1.6111
1.56183
1.5194
1.47687
1.43752
1.4005
2.39694
2.2516
2.15795
2.05158
1.97967
1.89577
1.83591
1.7673
1.71513
1.65767
1.61093
1.56193
1.51929
1.47692
1.43747
1.40048
2.39696
2.25168
2.15788
2.05169
1.97956
1.89589
1.8358
1.76739
1.71504
1.65773
1.61086
1.56197
1.51924
1.47693
1.43745
1.40048
2.39702
2.25186
2.1577
2.0519
1.97935
1.89605
1.83562
1.76751
1.7149
1.65782
1.61077
1.56202
1.51918
1.47696
1.43742
1.40047
2.39703
2.25192
2.15765
2.05198
1.97927
1.89613
1.83554
1.76758
1.71483
1.65786
1.61072
1.56205
1.51915
1.47697
1.43741
1.40046
2.39706
2.25201
2.15755
2.0521
1.97915
1.89623
1.83544
1.76765
1.71476
1.65791
1.61066
1.56208
1.51912
1.47698
1.43739
1.40046
2.39707
2.25205
2.15752
2.05216
1.9791
1.89629
1.83538
1.76769
1.71471
1.65794
1.61063
1.5621
1.5191
1.47698
1.43738
1.40045
2.39709
2.2521
2.15748
2.05222
1.97903
1.89635
1.83532
1.76774
1.71467
1.65797
1.6106
1.56211
1.51908
1.47699
1.43738
1.40045
2.3971
2.25213
2.15746
2.05226
1.979
1.89638
1.83529
1.76777
1.71464
1.65799
1.61058
1.56212
1.51906
1.47699
1.43737
1.40045
2.39711
2.25216
2.15743
2.0523
1.97896
1.89642
1.83526
1.76779
1.71461
1.65801
1.61056
1.56213
1.51905
1.47699
1.43736
1.40044
2.39711
2.25217
2.15742
2.05233
1.97894
1.89644
1.83524
1.76781
1.7146
1.65802
1.61055
1.56214
1.51905
1.47699
1.43736
1.40044
2.39712
2.25219
2.15741
2.05235
1.97892
1.89646
1.83522
1.76782
1.71458
1.65803
1.61054
1.56214
1.51904
1.477
1.43736
1.40044
2.39712
2.2522
2.1574
2.05236
1.97891
1.89647
1.83521
1.76783
1.71457
1.65803
1.61053
1.56214
1.51904
1.477
1.43736
1.40044
2.39713
2.25221
2.1574
2.05238
1.9789
1.89649
1.8352
1.76784
1.71457
1.65804
1.61052
1.56215
1.51903
1.477
1.43735
1.40044
2.39713
2.25222
2.15739
2.05238
1.9789
1.89649
1.83519
1.76785
1.71456
1.65804
1.61052
1.56215
1.51903
1.477
1.43735
1.40044
2.39713
2.25222
2.15739
2.05239
1.97889
1.8965
1.83519
1.76785
1.71456
1.65805
1.61052
1.56215
1.51903
1.477
1.43735
1.40044
2.39713
2.25223
2.15739
2.0524
1.97889
1.89651
1.83519
1.76786
1.71455
1.65805
1.61052
1.56215
1.51903
1.477
1.43735
1.40044
2.39713
2.25223
2.15739
2.0524
1.97889
1.89651
1.83518
1.76786
1.71455
1.65805
1.61051
1.56215
1.51903
1.477
1.43735
1.40044
2.39714
2.25223
2.15739
2.05241
1.97889
1.89651
1.83518
1.76786
1.71455
1.65805
1.61051
1.56215
1.51903
1.477
1.43735
1.40044
2.39714
2.25223
2.15739
2.05241
1.97889
1.89651
1.83518
1.76786
1.71455
1.65805
1.61051
1.56215
1.51902
1.477
1.43735
1.40044
2.39714
2.25223
2.15739
2.05241
1.97888
1.89652
1.83518
1.76786
1.71455
1.65805
1.61051
1.56215
1.51902
1.477
1.43735
1.40043
2.39714
2.25224
2.15739
2.05241
1.97888
1.89652
1.83518
1.76786
1.71455
1.65805
1.61051
1.56215
1.51902
1.477
1.43735
1.40043
2.39714
2.25224
2.15739
2.05241
1.97888
1.89652
1.83518
1.76786
1.71455
1.65805
1.61051
1.56215
1.51902
1.477
1.43735
1.40043
2.39714
2.25224
2.15739
2.05241
1.97888
1.89652
1.83518
1.76786
1.71455
1.65805
1.61051
1.56215
1.51902
1.477
1.43735
1.40043
2.39714
2.25224
2.15739
2.05241
1.97888
1.89652
1.83518
1.76787
1.71455
1.65805
1.61051
1.56215
1.51902
1.477
1.43735
1.40043
2.39714
2.25224
2.15739
2.05241
1.97888
1.89652
1.83518
1.76787
1.71455
1.65805
1.61051
1.56215
1.51902
1.477
1.43735
1.40043
2.39714
2.25224
2.15739
2.05242
1.97888
1.89652
1.83518
1.76787
1.71455
1.65805
1.61051
1.56215
1.51902
1.477
1.43735
1.40043
2.39714
2.25224
2.15739
2.05242
1.97888
1.89652
1.83518
1.76787
1.71455
1.65805
1.61051
1.56215
1.51902
1.477
1.43735
1.40043
2.39714
2.25224
2.15739
2.05242
1.97888
1.89652
1.83518
1.76787
1.71455
1.65805
1.61051
1.56215
1.51902
1.477
1.43735
1.40043
2.39714
2.25224
2.15739
2.05242
1.97888
1.89652
1.83518
1.76787
1.71455
1.65805
1.61051
1.56215
1.51902
1.477
1.43735
1.40043
2.39714
2.25224
2.15739
2.05242
1.97888
1.89652
1.83518
1.76787
1.71455
1.65805
1.61051
1.56215
1.51902
1.477
1.43735
1.40043
2.39714
2.25224
2.15739
2.05242
1.97888
1.89652
1.83518
1.76787
1.71455
1.65805
1.61051
1.56215
1.51902
1.477
1.43735
1.40043
2.39714
2.25224
2.15739
2.05242
1.97888
1.89652
1.83518
1.76787
1.71455
1.65805
1.61051
1.56215
1.51902
1.477
1.43735
1.40043
2.39714
2.25224
2.15739
2.05242
1.97888
1.89652
1.83518
1.76787
1.71455
1.65805
1.61051
1.56215
1.51902
1.477
1.43735
1.40043
2.39714
2.25224
2.15739
2.05242
1.97888
1.89652
1.83518
1.76787
1.71455
1.65805
1.61051
1.56215
1.51902
1.477
1.43735
1.40043
2.39714
2.25224
2.15739
2.05242
1.97888
1.89652
1.83518
1.76787
1.71455
1.65805
1.61051
1.56215
1.51902
1.477
1.43735
1.40043
2.39714
2.25224
2.15739
2.05242
1.97888
1.89652
1.83518
1.76787
1.71455
1.65805
1.61051
1.56215
1.51902
1.477
1.43735
1.40043
2.39714
2.25224
2.15739
2.05242
1.97888
1.89652
1.83518
1.76787
1.71455
1.65805
1.61051
1.56215
1.51902
1.477
1.43735
1.40043
2.39714
2.25224
2.15739
2.05242
1.97888
1.89652
1.83518
1.76787
1.71455
1.65805
1.61051
1.56215
1.51902
1.477
1.43735
1.40043
2.39714
2.25224
2.15739
2.05241
1.97888
1.89652
1.83518
1.76787
1.71455
1.65805
1.61051
1.56215
1.51902
1.477
1.43735
1.40043
2.39714
2.25224
2.15739
2.05241
1.97888
1.89652
1.83518
1.76786
1.71455
1.65805
1.61051
1.56215
1.51902
1.477
1.43735
1.40043
2.39714
2.25224
2.15739
2.05241
1.97888
1.89652
1.83518
1.76786
1.71455
1.65805
1.61051
1.56215
1.51902
1.477
1.43735
1.40043
2.39714
2.25224
2.15739
2.05241
1.97888
1.89652
1.83518
1.76786
1.71455
1.65805
1.61051
1.56215
1.51902
1.477
1.43735
1.40043
2.39714
2.25223
2.15739
2.05241
1.97888
1.89652
1.83518
1.76786
1.71455
1.65805
1.61051
1.56215
1.51902
1.477
1.43735
1.40044
2.39714
2.25223
2.15739
2.05241
1.97889
1.89651
1.83518
1.76786
1.71455
1.65805
1.61051
1.56215
1.51902
1.477
1.43735
1.40044
2.39714
2.25223
2.15739
2.05241
1.97889
1.89651
1.83518
1.76786
1.71455
1.65805
1.61051
1.56215
1.51903
1.477
1.43735
1.40044
2.39713
2.25223
2.15739
2.0524
1.97889
1.89651
1.83518
1.76786
1.71455
1.65805
1.61052
1.56215
1.51903
1.477
1.43735
1.40044
2.39713
2.25223
2.15739
2.0524
1.97889
1.89651
1.83519
1.76786
1.71455
1.65805
1.61052
1.56215
1.51903
1.477
1.43735
1.40044
2.39713
2.25222
2.15739
2.05239
1.97889
1.8965
1.83519
1.76785
1.71456
1.65805
1.61052
1.56215
1.51903
1.477
1.43735
1.40044
2.39713
2.25222
2.1574
2.05238
1.9789
1.89649
1.83519
1.76785
1.71456
1.65804
1.61052
1.56215
1.51903
1.477
1.43735
1.40044
2.39713
2.25221
2.1574
2.05238
1.9789
1.89649
1.8352
1.76784
1.71457
1.65804
1.61052
1.56215
1.51903
1.477
1.43735
1.40044
2.39712
2.2522
2.1574
2.05236
1.97891
1.89647
1.83521
1.76783
1.71457
1.65803
1.61053
1.56214
1.51904
1.477
1.43736
1.40044
2.39712
2.25219
2.15741
2.05235
1.97893
1.89646
1.83522
1.76782
1.71458
1.65803
1.61054
1.56214
1.51904
1.477
1.43736
1.40044
2.39711
2.25217
2.15742
2.05232
1.97894
1.89644
1.83524
1.76781
1.7146
1.65802
1.61055
1.56214
1.51905
1.47699
1.43736
1.40044
2.39711
2.25216
2.15743
2.0523
1.97896
1.89642
1.83526
1.76779
1.71461
1.65801
1.61056
1.56213
1.51905
1.47699
1.43736
1.40044
2.3971
2.25213
2.15746
2.05226
1.979
1.89638
1.83529
1.76776
1.71464
1.65799
1.61058
1.56212
1.51907
1.47699
1.43737
1.40045
2.39709
2.2521
2.15747
2.05222
1.97903
1.89635
1.83532
1.76774
1.71467
1.65797
1.6106
1.56211
1.51908
1.47699
1.43738
1.40045
2.39707
2.25205
2.15753
2.05215
1.9791
1.89629
1.83539
1.76769
1.71471
1.65794
1.61063
1.5621
1.5191
1.47698
1.43738
1.40045
2.39707
2.25202
2.15755
2.0521
1.97915
1.89623
1.83544
1.76765
1.71476
1.65791
1.61066
1.56208
1.51912
1.47698
1.43739
1.40046
2.39703
2.25191
2.15766
2.05197
1.97928
1.89613
1.83555
1.76757
1.71484
1.65786
1.61072
1.56205
1.51915
1.47697
1.43741
1.40046
2.39702
2.25187
2.15769
2.0519
1.97934
1.89605
1.83562
1.76751
1.7149
1.65782
1.61077
1.56202
1.51918
1.47696
1.43742
1.40047
2.39695
2.25166
2.1579
2.05168
1.97958
1.89588
1.83581
1.76738
1.71505
1.65773
1.61087
1.56197
1.51925
1.47693
1.43745
1.40048
2.39695
2.25162
2.15793
2.05158
1.97966
1.89578
1.83591
1.7673
1.71513
1.65767
1.61093
1.56193
1.51929
1.47692
1.43747
1.40048
2.39682
2.25121
2.15836
2.0512
1.98008
1.89549
1.83623
1.76709
1.71537
1.65751
1.61111
1.56182
1.51941
1.47687
1.43752
1.4005
2.39683
2.25117
2.15839
2.0511
1.98017
1.89538
1.83634
1.76699
1.71547
1.65744
1.61119
1.56178
1.51946
1.47685
1.43754
1.4005
2.39657
2.25038
2.15925
2.05047
1.98087
1.89494
1.83683
1.76666
1.71585
1.65716
1.6115
1.56156
1.5197
1.47674
1.43766
1.40054
2.39662
2.25036
2.15923
2.05036
1.98095
1.89483
1.83695
1.76656
1.71596
1.65709
1.61158
1.56151
1.51975
1.47671
1.43767
1.40054
2.39611
2.24881
2.16096
2.04939
1.98206
1.89422
1.83763
1.76609
1.7165
1.65662
1.61212
1.56103
1.52027
1.47638
1.43801
1.40063
2.39623
2.2488
2.16084
2.0493
1.98208
1.89413
1.83771
1.76602
1.71658
1.65658
1.61219
1.56102
1.52033
1.47638
1.43803
1.40061
2.39538
2.24562
2.16436
2.04795
1.98358
1.89345
1.83849
1.76546
1.71723
1.65584
1.61303
1.55992
1.52156
1.47514
1.43937
1.401
2.39216
2.24549
2.16387
2.04793
1.98347
1.89343
1.83848
1.76545
1.71725
1.65585
1.61309
1.55998
1.52166
1.47526
1.43959
1.40114
)
;

boundaryField
{
    up
    {
        type            myTemperature;
        value           nonuniform List<scalar> 
80
(
1.38303
1.38303
1.3823
1.38198
1.38205
1.3821
1.38212
1.38213
1.38214
1.38214
1.38214
1.38214
1.38214
1.38214
1.38214
1.38214
1.38214
1.38214
1.38214
1.38213
1.38213
1.38213
1.38213
1.38213
1.38213
1.38213
1.38213
1.38213
1.38213
1.38213
1.38213
1.38213
1.38213
1.38213
1.38213
1.38213
1.38213
1.38213
1.38213
1.38213
1.38213
1.38213
1.38213
1.38213
1.38213
1.38213
1.38213
1.38213
1.38213
1.38213
1.38213
1.38213
1.38213
1.38213
1.38213
1.38213
1.38213
1.38213
1.38213
1.38213
1.38213
1.38213
1.38213
1.38214
1.38214
1.38214
1.38214
1.38214
1.38214
1.38214
1.38214
1.38214
1.38214
1.38214
1.38213
1.38212
1.3821
1.38205
1.38198
1.38229
)
;
    }
    hole
    {
        type            myTemperature;
        value           nonuniform List<scalar> 
80
(
2.46728
2.46741
2.47078
2.47209
2.47181
2.47169
2.47162
2.47157
2.47154
2.47151
2.4715
2.47149
2.47148
2.47147
2.47147
2.47147
2.47147
2.47147
2.47147
2.47147
2.47147
2.47147
2.47147
2.47147
2.47147
2.47147
2.47147
2.47147
2.47147
2.47147
2.47147
2.47147
2.47147
2.47147
2.47147
2.47147
2.47147
2.47147
2.47147
2.47147
2.47147
2.47147
2.47147
2.47147
2.47147
2.47147
2.47147
2.47147
2.47147
2.47147
2.47147
2.47147
2.47147
2.47147
2.47147
2.47147
2.47147
2.47147
2.47147
2.47147
2.47147
2.47147
2.47147
2.47147
2.47147
2.47147
2.47147
2.47147
2.47147
2.47148
2.47149
2.4715
2.47151
2.47154
2.47157
2.47162
2.4717
2.47182
2.47211
2.47066
)
;
    }
    frontAndBack
    {
        type            empty;
    }
}


// ************************************************************************* //
