/*--------------------------------*- C++ -*----------------------------------*\
| =========                 |                                                 |
| \\      /  F ield         | foam-extend: Open Source CFD                    |
|  \\    /   O peration     | Version:  3.0                                   |
|   \\  /    A nd           | Web:         http://www.extend-project.de       |
|    \\/     M anipulation  |                                                 |
\*---------------------------------------------------------------------------*/
FoamFile
{
    version     2.0;
    format      ascii;
    class       volVectorField;
    location    "29";
    object      u;
}
// * * * * * * * * * * * * * * * * * * * * * * * * * * * * * * * * * * * * * //

dimensions      [0 0 0 0 0 0 0];

internalField   nonuniform List<vector> 
576
(
(0.0533414 -0.0282964 2.2508e-20)
(0.137652 -0.0362429 3.8974e-19)
(0.255564 -0.0496404 -5.6127e-19)
(0.386455 -0.0530369 -7.73088e-19)
(0.497327 -0.0554336 -2.29054e-19)
(0.619803 -0.0542259 4.12724e-19)
(0.709649 -0.0517226 2.90698e-19)
(0.810674 -0.0464516 2.27207e-19)
(0.871254 -0.0403516 -1.80188e-19)
(0.944781 -0.0310015 -8.74648e-20)
(0.9692 -0.0210742 4.97432e-19)
(1.00873 -0.00750105 -6.59589e-20)
(0.0679911 -0.0829657 4.11154e-19)
(0.156413 -0.106266 -4.47084e-18)
(0.281264 -0.145555 -2.82571e-18)
(0.413912 -0.155514 -8.07419e-19)
(0.526028 -0.162557 1.5195e-18)
(0.647876 -0.15901 -1.61587e-19)
(0.736429 -0.15168 -4.77393e-19)
(0.834722 -0.136213 8.13472e-18)
(0.892149 -0.118339 6.38024e-18)
(0.960832 -0.0909059 1.51086e-18)
(0.980114 -0.0618088 -4.30867e-18)
(1.01261 -0.0219905 -4.5465e-18)
(0.0962868 -0.131979 -5.72087e-19)
(0.192659 -0.169045 2.3068e-18)
(0.330911 -0.231551 -7.45672e-19)
(0.466958 -0.247392 -6.31757e-18)
(0.581474 -0.258601 -2.96091e-18)
(0.702116 -0.25296 3.82002e-18)
(0.788167 -0.2413 8.34706e-18)
(0.881187 -0.216695 1.90693e-18)
(0.932516 -0.188261 1.02697e-17)
(0.991843 -0.144621 4.2141e-18)
(1.0012 -0.0983303 6.66708e-19)
(1.02011 -0.0349868 1.16447e-17)
(0.136308 -0.172 -4.50875e-19)
(0.243921 -0.220305 1.12496e-18)
(0.401127 -0.301765 -3.16721e-18)
(0.541977 -0.32241 6.49574e-18)
(0.659894 -0.33702 -7.44263e-18)
(0.778825 -0.329668 -3.70418e-19)
(0.861341 -0.314474 -1.16387e-18)
(0.946899 -0.282404 1.1347e-17)
(0.989605 -0.245351 8.1567e-18)
(1.0357 -0.188472 1.13826e-17)
(1.03101 -0.128149 6.9757e-18)
(1.03072 -0.0455933 2.5794e-17)
(0.185321 -0.200298 -1.78735e-19)
(0.306699 -0.256552 -1.41348e-18)
(0.487119 -0.351416 5.89614e-19)
(0.633853 -0.375457 -1.04565e-18)
(0.755934 -0.392473 4.29138e-18)
(0.872772 -0.383911 -1.04414e-17)
(0.950956 -0.366219 -6.0043e-18)
(1.02738 -0.328871 -1.96485e-17)
(1.05952 -0.285722 -1.79789e-17)
(1.08941 -0.219483 -8.8195e-18)
(1.06753 -0.149235 -4.62738e-18)
(1.04372 -0.053096 -2.96986e-17)
(0.23999 -0.214947 2.23684e-19)
(0.376723 -0.275314 1.80165e-18)
(0.583036 -0.377116 -1.68504e-19)
(0.736331 -0.402915 -3.99163e-18)
(0.863058 -0.421177 -1.02054e-18)
(0.977558 -0.411989 -2.00355e-18)
(1.05091 -0.393003 -7.99292e-18)
(1.11714 -0.352923 2.10228e-18)
(1.13751 -0.30662 -7.70548e-18)
(1.14931 -0.235534 -1.45006e-17)
(1.10826 -0.16015 2.28624e-18)
(1.05821 -0.0569779 -7.14502e-18)
(0.296586 -0.214946 6.2532e-19)
(0.449213 -0.275316 4.31951e-19)
(0.682332 -0.377117 7.97159e-18)
(0.842421 -0.402916 1.61365e-18)
(0.973957 -0.421179 5.74361e-19)
(1.08604 -0.41199 -1.64281e-18)
(1.1544 -0.393006 9.36175e-19)
(1.21007 -0.352925 4.83353e-18)
(1.21824 -0.306622 -2.56805e-18)
(1.21133 -0.235535 3.46228e-18)
(1.15043 -0.160151 -1.15538e-18)
(1.07321 -0.056978 -4.89914e-18)
(0.351256 -0.200298 3.2973e-19)
(0.519237 -0.256553 1.08771e-18)
(0.778249 -0.351416 5.01981e-18)
(0.9449 -0.375457 -5.27551e-18)
(1.08108 -0.392476 8.44708e-18)
(1.19083 -0.383913 -6.1321e-18)
(1.25435 -0.366223 -4.15643e-18)
(1.29984 -0.328873 8.29881e-19)
(1.29623 -0.285727 -1.32612e-17)
(1.27124 -0.219483 6.05608e-18)
(1.19117 -0.149238 -5.51431e-20)
(1.08771 -0.0530943 1.25809e-17)
(0.400269 -0.171999 5.00447e-19)
(0.582017 -0.220308 9.18066e-19)
(0.864243 -0.301768 -3.33984e-18)
(1.03678 -0.322412 5.64126e-18)
(1.17712 -0.337027 -5.55286e-18)
(1.28477 -0.329674 8.33286e-18)
(1.34397 -0.314483 -2.49746e-18)
(1.38031 -0.282409 -1.60796e-17)
(1.36615 -0.245359 -1.49611e-17)
(1.32495 -0.188473 -5.23794e-18)
(1.22769 -0.128154 -1.27753e-17)
(1.1007 -0.0455924 1.25145e-17)
(0.440291 -0.131978 8.55749e-19)
(0.633279 -0.169048 2.16787e-18)
(0.934461 -0.231553 5.80432e-20)
(1.1118 -0.247394 3.91831e-18)
(1.25554 -0.258609 3.8745e-19)
(1.36148 -0.252965 5.30885e-18)
(1.41715 -0.24131 8.10369e-18)
(1.44603 -0.216698 -2.99055e-18)
(1.42324 -0.18827 3.64126e-18)
(1.3688 -0.144619 6.08708e-18)
(1.25751 -0.0983366 5.55371e-18)
(1.11131 -0.0349832 -5.9298e-18)
(0.468589 -0.0829636 2.50278e-19)
(0.669524 -0.106268 -2.51275e-19)
(0.984109 -0.145559 1.88743e-18)
(1.16484 -0.155517 -3.10277e-18)
(1.31099 -0.162568 2.42965e-18)
(1.41572 -0.159019 -1.73572e-19)
(1.46889 -0.151694 -1.0738e-18)
(1.49249 -0.13622 7.37833e-18)
(1.46361 -0.118351 6.31959e-18)
(1.39981 -0.0909092 9.18569e-18)
(1.27859 -0.0618169 1.39876e-17)
(1.11881 -0.0219899 -2.01733e-18)
(0.483239 -0.0282946 -3.70014e-20)
(0.688289 -0.0362456 -2.22123e-18)
(1.00981 -0.0496437 -1.5456e-18)
(1.1923 -0.05304 2.5285e-18)
(1.3397 -0.0554459 -1.89127e-18)
(1.4438 -0.0542336 6.05183e-19)
(1.49567 -0.0517374 -1.62529e-18)
(1.51654 -0.0464566 1.65219e-18)
(1.48451 -0.0403649 1.81706e-19)
(1.41587 -0.0310029 1.24473e-18)
(1.28951 -0.0210845 1.43267e-18)
(1.12269 -0.00749776 2.33688e-18)
(0.483238 0.0283022 -2.42653e-20)
(0.688287 0.0362461 1.7484e-18)
(1.00981 0.0496536 1.90877e-18)
(1.1923 0.0530499 2.08729e-18)
(1.3397 0.0554532 2.00336e-18)
(1.4438 0.0542459 -1.42844e-20)
(1.49567 0.0517436 2.64766e-18)
(1.51654 0.0464709 -3.45471e-18)
(1.48451 0.0403711 -3.41629e-18)
(1.41586 0.0310151 -4.59467e-18)
(1.28951 0.0210849 1.55483e-19)
(1.12269 0.00750513 1.17964e-18)
(0.468592 0.0829715 4.21431e-19)
(0.669527 0.106269 -1.36272e-18)
(0.984115 0.14557 -3.2267e-19)
(1.16485 0.155528 1.58365e-18)
(1.311 0.162576 3.7233e-18)
(1.41573 0.159033 7.90327e-19)
(1.46889 0.151701 -5.26227e-18)
(1.49249 0.136235 -3.06243e-18)
(1.46362 0.118358 -6.68637e-18)
(1.39981 0.0909215 -5.4649e-18)
(1.2786 0.0618183 8.14543e-19)
(1.11881 0.0219973 -4.55484e-18)
(0.440291 0.131985 1.52874e-19)
(0.633279 0.169049 -4.03908e-18)
(0.934464 0.231564 -5.14075e-19)
(1.1118 0.247404 -5.91994e-18)
(1.25555 0.258618 1.44236e-18)
(1.36149 0.252979 -7.1093e-19)
(1.41715 0.241319 3.1214e-18)
(1.44603 0.216712 8.95854e-19)
(1.42325 0.188277 3.47983e-18)
(1.3688 0.14463 2.33804e-18)
(1.25751 0.0983381 1.30448e-21)
(1.1113 0.0349898 -1.04067e-17)
(0.400273 0.172007 -1.0059e-18)
(0.582021 0.22031 2.41071e-18)
(0.864253 0.301781 -3.37009e-18)
(1.03678 0.322425 -9.90163e-19)
(1.17714 0.33704 -7.82124e-18)
(1.28478 0.329689 5.83863e-18)
(1.34398 0.314495 1.03635e-17)
(1.38032 0.282425 6.72641e-18)
(1.36616 0.245369 1.77636e-17)
(1.32495 0.188485 1.26676e-17)
(1.22769 0.128158 -3.92797e-18)
(1.1007 0.0455989 4.85645e-18)
(0.351257 0.200304 -7.02454e-19)
(0.519238 0.256555 -1.36109e-18)
(0.778256 0.35143 -6.34606e-18)
(0.944904 0.375469 6.63711e-18)
(1.08109 0.39249 -1.29334e-18)
(1.19083 0.383929 3.41457e-18)
(1.25436 0.366236 2.85192e-18)
(1.29984 0.328888 6.0247e-18)
(1.29624 0.285737 1.17185e-17)
(1.27124 0.219493 1.02141e-17)
(1.19117 0.149243 3.55473e-18)
(1.0877 0.0530997 2.69041e-17)
(0.296591 0.214954 -7.01702e-19)
(0.449217 0.275319 -2.20001e-18)
(0.682344 0.377133 -1.59046e-18)
(0.842429 0.40293 -3.51725e-18)
(0.973973 0.421197 1.96414e-18)
(1.08605 0.41201 -4.37925e-18)
(1.15441 0.393023 -4.06721e-18)
(1.21008 0.352942 -1.69474e-17)
(1.21825 0.306636 3.76417e-18)
(1.21133 0.235546 -6.59919e-18)
(1.15044 0.160159 2.62284e-19)
(1.07321 0.0569831 -9.21107e-18)
(0.239992 0.214953 -3.63172e-19)
(0.376723 0.275318 7.31211e-19)
(0.583044 0.377133 -1.42951e-18)
(0.736336 0.402929 -1.2224e-19)
(0.863071 0.421198 -4.33093e-18)
(0.977569 0.412009 6.20598e-19)
(1.05093 0.393023 -7.49392e-18)
(1.11715 0.352942 1.60468e-17)
(1.13752 0.306637 1.80371e-17)
(1.14931 0.235545 -8.86397e-18)
(1.10827 0.16016 5.66725e-18)
(1.05821 0.0569823 -4.8802e-18)
(0.185325 0.200306 -1.99851e-19)
(0.306702 0.256557 -1.19935e-18)
(0.487129 0.351436 7.6136e-18)
(0.63386 0.375472 -2.67043e-18)
(0.75595 0.392499 4.02669e-18)
(0.872784 0.383935 -6.09925e-18)
(0.95097 0.366243 5.36221e-18)
(1.02739 0.328892 1.32501e-17)
(1.05953 0.285743 -6.94674e-19)
(1.08941 0.219495 -6.7112e-18)
(1.06754 0.149248 -5.10902e-18)
(1.04372 0.0530994 -2.20609e-17)
(0.136309 0.172006 -7.44236e-19)
(0.24392 0.220309 2.52394e-18)
(0.401133 0.301786 -9.91094e-19)
(0.541981 0.322426 -4.61233e-18)
(0.659905 0.337049 1.326e-18)
(0.778836 0.329695 -8.6482e-18)
(0.861351 0.314503 4.21808e-20)
(0.946906 0.282427 2.75801e-18)
(0.98961 0.245375 -1.33925e-17)
(1.0357 0.188484 -7.67726e-18)
(1.03102 0.128163 -1.2604e-17)
(1.03072 0.0455972 -3.55571e-18)
(0.0962896 0.131988 1.49069e-19)
(0.19266 0.16905 -2.24069e-19)
(0.330918 0.231574 -1.03391e-18)
(0.466963 0.24741 4.7867e-18)
(0.581485 0.258633 -6.40598e-18)
(0.702127 0.252989 5.00647e-18)
(0.788177 0.241333 -2.15441e-18)
(0.881195 0.216718 -1.59139e-17)
(0.93252 0.188287 -1.25599e-17)
(0.991845 0.144631 -1.62181e-17)
(1.0012 0.0983464 -1.53609e-17)
(1.02011 0.0349885 1.98511e-17)
(0.0679906 0.0829725 7.65691e-19)
(0.156414 0.106269 3.74084e-18)
(0.281267 0.145579 1.73979e-18)
(0.413916 0.155531 -2.26801e-18)
(0.526033 0.162591 3.72893e-18)
(0.647885 0.159042 -1.32357e-18)
(0.736434 0.151715 9.04209e-19)
(0.83473 0.136239 -1.90965e-18)
(0.89215 0.118368 1.28053e-18)
(0.960835 0.090921 -1.26083e-18)
(0.980114 0.0618269 -1.75679e-18)
(1.01261 0.021995 -8.73306e-18)
(0.0533421 0.0283048 5.41842e-20)
(0.137651 0.0362473 1.92386e-19)
(0.255565 0.0496649 2.15016e-19)
(0.386457 0.0530555 -1.00381e-19)
(0.497327 0.0554705 -1.94036e-18)
(0.619807 0.0542579 6.74912e-19)
(0.709648 0.0517601 -1.22762e-18)
(0.810677 0.0464779 -4.87849e-19)
(0.871253 0.0403829 -2.38163e-18)
(0.944783 0.0310159 1.41154e-18)
(0.969198 0.021095 -1.41143e-18)
(1.00873 0.0075032 -1.14593e-18)
(0.0533418 -0.0282926 -2.25864e-20)
(0.137651 -0.0362459 -3.89752e-19)
(0.255564 -0.0496342 5.61242e-19)
(0.386457 -0.0530366 7.7306e-19)
(0.497325 -0.0554305 2.28996e-19)
(0.619805 -0.0542237 -4.12642e-19)
(0.709646 -0.0517225 -2.9063e-19)
(0.810676 -0.0464513 -2.27105e-19)
(0.871251 -0.040354 1.80206e-19)
(0.944783 -0.0310032 8.74129e-20)
(0.969197 -0.0210747 -4.97475e-19)
(1.00873 -0.00750015 6.59421e-20)
(0.0679898 -0.0829606 -4.11226e-19)
(0.156413 -0.106268 4.47107e-18)
(0.281262 -0.145549 2.82573e-18)
(0.413914 -0.155513 8.07609e-19)
(0.526026 -0.162552 -1.51944e-18)
(0.64788 -0.159008 1.61701e-19)
(0.736427 -0.151679 4.77401e-19)
(0.834727 -0.136213 -8.13481e-18)
(0.892146 -0.11834 -6.38042e-18)
(0.960835 -0.0909083 -1.51101e-18)
(0.98011 -0.0618072 4.30865e-18)
(1.01261 -0.0219919 4.54653e-18)
(0.096288 -0.131976 5.72009e-19)
(0.19266 -0.169049 -2.30686e-18)
(0.33091 -0.231545 7.45581e-19)
(0.46696 -0.247391 6.31761e-18)
(0.581474 -0.258596 2.96077e-18)
(0.70212 -0.252957 -3.81994e-18)
(0.788166 -0.241298 -8.3471e-18)
(0.881191 -0.216693 -1.90704e-18)
(0.932513 -0.188261 -1.02698e-17)
(0.991844 -0.144619 -4.2143e-18)
(1.00119 -0.0983279 -6.66825e-19)
(1.02011 -0.0349851 -1.16448e-17)
(0.136308 -0.171995 4.50847e-19)
(0.243919 -0.220309 -1.12497e-18)
(0.401124 -0.30176 3.16717e-18)
(0.541977 -0.322409 -6.49593e-18)
(0.659891 -0.337016 7.44255e-18)
(0.778826 -0.329665 3.70467e-19)
(0.861337 -0.314472 1.16413e-18)
(0.9469 -0.282403 -1.13471e-17)
(0.989601 -0.24535 -8.15669e-18)
(1.0357 -0.188472 -1.13827e-17)
(1.03101 -0.128147 -6.97575e-18)
(1.03072 -0.0455936 -2.57944e-17)
(0.185322 -0.200294 1.78715e-19)
(0.3067 -0.256555 1.41342e-18)
(0.487118 -0.351411 -5.89649e-19)
(0.633854 -0.375456 1.04573e-18)
(0.755932 -0.392468 -4.29137e-18)
(0.872773 -0.383907 1.04415e-17)
(0.950954 -0.366215 6.00445e-18)
(1.02738 -0.328869 1.96486e-17)
(1.05952 -0.28572 1.79792e-17)
(1.08941 -0.219482 8.81974e-18)
(1.06753 -0.149233 4.62746e-18)
(1.04372 -0.0530953 2.9699e-17)
(0.23999 -0.214943 -2.23676e-19)
(0.376722 -0.275318 -1.80181e-18)
(0.583032 -0.377113 1.6857e-19)
(0.73633 -0.402914 3.99157e-18)
(0.863052 -0.421173 1.02069e-18)
(0.977557 -0.411985 2.0034e-18)
(1.05091 -0.393 7.9931e-18)
(1.11714 -0.352921 -2.10269e-18)
(1.13751 -0.306618 7.70548e-18)
(1.14931 -0.235533 1.45008e-17)
(1.10826 -0.160148 -2.28619e-18)
(1.05821 -0.0569781 7.145e-18)
(0.296587 -0.214943 -6.2531e-19)
(0.449215 -0.275318 -4.32014e-19)
(0.68233 -0.377114 -7.97161e-18)
(0.842422 -0.402915 -1.61371e-18)
(0.973953 -0.421176 -5.74362e-19)
(1.08604 -0.411987 1.64276e-18)
(1.15439 -0.393003 -9.36227e-19)
(1.21007 -0.352922 -4.83362e-18)
(1.21824 -0.306619 2.56821e-18)
(1.21133 -0.235534 -3.46223e-18)
(1.15043 -0.160149 1.15546e-18)
(1.07321 -0.0569783 4.8991e-18)
(0.351255 -0.200295 -3.29695e-19)
(0.519237 -0.256555 -1.08783e-18)
(0.778245 -0.351415 -5.01959e-18)
(0.944898 -0.375457 5.27549e-18)
(1.08107 -0.392475 -8.44697e-18)
(1.19082 -0.383912 6.13191e-18)
(1.25435 -0.366221 4.15652e-18)
(1.29983 -0.328871 -8.2975e-19)
(1.29623 -0.285724 1.32615e-17)
(1.27124 -0.219482 -6.05611e-18)
(1.19116 -0.149236 5.52451e-20)
(1.0877 -0.0530949 -1.25814e-17)
(0.400269 -0.171997 -5.00421e-19)
(0.582018 -0.220309 -9.18102e-19)
(0.86424 -0.301767 3.33992e-18)
(1.03678 -0.322412 -5.64146e-18)
(1.17712 -0.337027 5.55292e-18)
(1.28477 -0.329672 -8.33298e-18)
(1.34397 -0.314482 2.4974e-18)
(1.38031 -0.282408 1.60796e-17)
(1.36615 -0.245358 1.4961e-17)
(1.32495 -0.188473 5.23786e-18)
(1.22769 -0.128152 1.27752e-17)
(1.1007 -0.0455935 -1.25146e-17)
(0.440289 -0.131978 -8.55744e-19)
(0.633278 -0.169049 -2.16786e-18)
(0.934456 -0.231555 -5.80887e-20)
(1.11179 -0.247395 -3.91818e-18)
(1.25554 -0.258611 -3.87649e-19)
(1.36148 -0.252966 -5.30884e-18)
(1.41714 -0.241311 -8.10361e-18)
(1.44602 -0.216698 2.99026e-18)
(1.42324 -0.188269 -3.64158e-18)
(1.3688 -0.14462 -6.08739e-18)
(1.2575 -0.0983345 -5.55445e-18)
(1.11131 -0.0349847 5.93009e-18)
(0.468587 -0.0829634 -2.50274e-19)
(0.669523 -0.106268 2.51336e-19)
(0.984105 -0.14556 -1.88734e-18)
(1.16484 -0.155517 3.10275e-18)
(1.31099 -0.162569 -2.42959e-18)
(1.41572 -0.159019 1.7356e-19)
(1.46888 -0.151694 1.07386e-18)
(1.49249 -0.13622 -7.37835e-18)
(1.46361 -0.11835 -6.31961e-18)
(1.39981 -0.0909099 -9.18571e-18)
(1.27859 -0.0618152 -1.39876e-17)
(1.11881 -0.0219916 2.01721e-18)
(0.483237 -0.0282959 3.69932e-20)
(0.688287 -0.036246 2.22125e-18)
(1.00981 -0.0496468 1.54562e-18)
(1.1923 -0.0530416 -2.52848e-18)
(1.3397 -0.055449 1.89119e-18)
(1.4438 -0.0542358 -6.0518e-19)
(1.49567 -0.0517393 1.62525e-18)
(1.51654 -0.0464589 -1.65219e-18)
(1.48451 -0.0403649 -1.81785e-19)
(1.41586 -0.0310051 -1.24471e-18)
(1.28951 -0.0210829 -1.43267e-18)
(1.12269 -0.00750003 -2.33689e-18)
(0.483235 0.0283009 2.42565e-20)
(0.688285 0.0362471 -1.74838e-18)
(1.00981 0.0496518 -1.90873e-18)
(1.1923 0.0530506 -2.08726e-18)
(1.3397 0.0554519 -2.00336e-18)
(1.4438 0.0542463 1.42776e-20)
(1.49567 0.0517432 -2.64765e-18)
(1.51654 0.0464708 3.45469e-18)
(1.48451 0.0403721 3.41627e-18)
(1.41586 0.0310143 4.59466e-18)
(1.28951 0.0210867 -1.5548e-19)
(1.12269 0.00750348 -1.17964e-18)
(0.468589 0.0829686 -4.21479e-19)
(0.669525 0.10627 1.36282e-18)
(0.984111 0.145566 3.22751e-19)
(1.16484 0.155526 -1.58355e-18)
(1.311 0.162573 -3.7233e-18)
(1.41573 0.15903 -7.90315e-19)
(1.46889 0.151699 5.26233e-18)
(1.49249 0.136232 3.0623e-18)
(1.46361 0.118358 6.68614e-18)
(1.39981 0.0909187 5.46471e-18)
(1.27859 0.0618198 -8.14583e-19)
(1.11881 0.0219946 4.55492e-18)
(0.440289 0.131982 -1.52897e-19)
(0.633276 0.16905 4.03905e-18)
(0.934461 0.231561 5.14049e-19)
(1.1118 0.247405 5.91998e-18)
(1.25555 0.258617 -1.44232e-18)
(1.36149 0.252979 7.10957e-19)
(1.41715 0.241319 -3.12155e-18)
(1.44602 0.216712 -8.95941e-19)
(1.42324 0.188279 -3.48005e-18)
(1.3688 0.14463 -2.33825e-18)
(1.25751 0.0983398 -1.3626e-21)
(1.1113 0.0349884 1.04064e-17)
(0.400272 0.172002 1.00589e-18)
(0.582018 0.220311 -2.41071e-18)
(0.86425 0.301776 3.37019e-18)
(1.03678 0.322423 9.90061e-19)
(1.17713 0.337036 7.82123e-18)
(1.28478 0.329686 -5.83857e-18)
(1.34398 0.314493 -1.03632e-17)
(1.38032 0.282422 -6.72658e-18)
(1.36616 0.245369 -1.77636e-17)
(1.32495 0.188482 -1.26677e-17)
(1.22769 0.12816 3.92794e-18)
(1.1007 0.0455962 -4.85686e-18)
(0.351256 0.2003 7.0243e-19)
(0.519235 0.256557 1.36107e-18)
(0.778254 0.351426 6.34595e-18)
(0.944901 0.375469 -6.637e-18)
(1.08109 0.392489 1.29316e-18)
(1.19083 0.383928 -3.41445e-18)
(1.25436 0.366236 -2.85181e-18)
(1.29984 0.328887 -6.02438e-18)
(1.29624 0.285738 -1.1718e-17)
(1.27124 0.219493 -1.02136e-17)
(1.19117 0.149244 -3.55476e-18)
(1.0877 0.0530985 -2.69034e-17)
(0.29659 0.214948 7.01694e-19)
(0.449215 0.27532 2.19988e-18)
(0.682343 0.377127 1.59045e-18)
(0.842428 0.402929 3.51717e-18)
(0.973972 0.421194 -1.96396e-18)
(1.08605 0.412006 4.37905e-18)
(1.15441 0.393021 4.06744e-18)
(1.21008 0.352939 1.69469e-17)
(1.21826 0.306636 -3.76428e-18)
(1.21133 0.235544 6.59932e-18)
(1.15044 0.160161 -2.62259e-19)
(1.07321 0.0569812 9.21104e-18)
(0.239992 0.214947 3.63152e-19)
(0.37672 0.275319 -7.31222e-19)
(0.583043 0.377127 1.42938e-18)
(0.736334 0.402928 1.22204e-19)
(0.86307 0.421196 4.33082e-18)
(0.977567 0.412007 -6.20583e-19)
(1.05093 0.393023 7.49383e-18)
(1.11715 0.35294 -1.6047e-17)
(1.13752 0.306638 -1.80368e-17)
(1.14931 0.235545 8.86392e-18)
(1.10827 0.160161 -5.66715e-18)
(1.05821 0.0569824 4.88019e-18)
(0.185327 0.2003 1.99864e-19)
(0.306699 0.256558 1.19922e-18)
(0.487131 0.351428 -7.61335e-18)
(0.63386 0.375472 2.67034e-18)
(0.755952 0.392495 -4.02656e-18)
(0.872785 0.383932 6.09906e-18)
(0.950974 0.366243 -5.36212e-18)
(1.02739 0.32889 -1.32499e-17)
(1.05953 0.285744 6.95055e-19)
(1.08941 0.219494 6.71119e-18)
(1.06754 0.14925 5.1092e-18)
(1.04372 0.0530999 2.20604e-17)
(0.136311 0.171999 7.44233e-19)
(0.243916 0.22031 -2.52394e-18)
(0.401134 0.301778 9.91163e-19)
(0.541978 0.322425 4.61217e-18)
(0.659905 0.337045 -1.32593e-18)
(0.778833 0.329691 8.64808e-18)
(0.861351 0.314502 -4.21965e-20)
(0.946904 0.282427 -2.75788e-18)
(0.989611 0.245376 1.33925e-17)
(1.0357 0.188487 7.67721e-18)
(1.03102 0.128165 1.2604e-17)
(1.03072 0.0455994 3.55555e-18)
(0.0962928 0.131982 -1.49071e-19)
(0.192658 0.169052 2.24066e-19)
(0.330921 0.231566 1.03383e-18)
(0.46696 0.24741 -4.78659e-18)
(0.581489 0.258629 6.40576e-18)
(0.702125 0.252987 -5.00639e-18)
(0.788181 0.241332 2.1545e-18)
(0.881194 0.216717 1.59137e-17)
(0.932522 0.188288 1.25597e-17)
(0.991845 0.144632 1.62178e-17)
(1.0012 0.098348 1.53604e-17)
(1.02012 0.0349888 -1.98509e-17)
(0.0679922 0.082965 -7.65699e-19)
(0.15641 0.106269 -3.74071e-18)
(0.281268 0.14557 -1.73973e-18)
(0.413913 0.155529 2.26801e-18)
(0.526035 0.162585 -3.72887e-18)
(0.647882 0.159037 1.32362e-18)
(0.736435 0.151712 -9.04064e-19)
(0.834726 0.136238 1.90965e-18)
(0.892152 0.118367 -1.28048e-18)
(0.960834 0.0909229 1.2608e-18)
(0.980115 0.0618262 1.75676e-18)
(1.01261 0.0219952 8.73296e-18)
(0.0533446 0.0283 -5.41524e-20)
(0.137645 0.0362498 -1.92332e-19)
(0.255566 0.0496579 -2.15026e-19)
(0.38645 0.0530558 1.00436e-19)
(0.49733 0.055468 1.94027e-18)
(0.619799 0.0542576 -6.74941e-19)
(0.70965 0.051761 1.22751e-18)
(0.810671 0.0464779 4.87829e-19)
(0.871254 0.0403838 2.38156e-18)
(0.944781 0.0310178 -1.41152e-18)
(0.969199 0.0210966 1.41144e-18)
(1.00873 0.00750671 1.1459e-18)
)
;

boundaryField
{
    out
    {
        type            fixedValue;
        value           uniform (1 0 0);
    }
    in
    {
        type            fixedValue;
        value           uniform (0 0 0);
    }
    frontAndBack
    {
        type            empty;
    }
}


// ************************************************************************* //
