/*--------------------------------*- C++ -*----------------------------------*\
| =========                 |                                                 |
| \\      /  F ield         | foam-extend: Open Source CFD                    |
|  \\    /   O peration     | Version:  3.0                                   |
|   \\  /    A nd           | Web:         http://www.extend-project.de       |
|    \\/     M anipulation  |                                                 |
\*---------------------------------------------------------------------------*/
FoamFile
{
    version     2.0;
    format      ascii;
    class       volSymmTensorField;
    location    "7.1";
    object      sigma;
}
// * * * * * * * * * * * * * * * * * * * * * * * * * * * * * * * * * * * * * //

dimensions      [0 0 0 0 0 0 0];

internalField   nonuniform List<symmTensor> 
400
(
(0.50676 0.180174 2.17424e-316 -0.693301 2.49873e-316 0.186541)
(0.934325 -0.0569022 2.18915e-316 -0.621075 2.68291e-316 -0.31325)
(1.11943 -0.357152 2.08197e-316 -0.574568 2.58946e-316 -0.544859)
(1.07669 -0.557185 1.94505e-316 -0.474274 2.38759e-316 -0.602417)
(0.997148 -0.775696 1.77743e-316 -0.413611 2.1348e-316 -0.583537)
(0.833792 -0.920714 1.61992e-316 -0.324198 1.89556e-316 -0.509594)
(0.679063 -1.0522 1.46263e-316 -0.261596 1.65366e-316 -0.417467)
(0.490258 -1.13939 1.32175e-316 -0.182325 1.45396e-316 -0.307933)
(0.312762 -1.20116 1.19018e-316 -0.118172 1.25759e-316 -0.19459)
(0.114411 -1.23308 1.07254e-316 -0.0413042 1.10595e-316 -0.0731066)
(-0.0790284 -1.23524 9.65996e-317 0.0287802 9.53967e-317 0.0502482)
(-0.288766 -1.21187 8.68879e-317 0.110045 8.42078e-317 0.178721)
(-0.493919 -1.15418 7.82548e-317 0.188484 7.2532e-317 0.305435)
(-0.704676 -1.07292 6.99465e-317 0.275846 6.42238e-317 0.428829)
(-0.891398 -0.947924 6.27317e-317 0.356674 5.52222e-317 0.534724)
(-1.05738 -0.809206 5.50491e-317 0.44384 4.88905e-317 0.613539)
(-1.14039 -0.606685 4.8678e-317 0.508176 4.21182e-317 0.632214)
(-1.14534 -0.418645 4.12114e-317 0.579863 3.72735e-317 0.565473)
(-0.932688 -0.143677 3.55927e-317 0.599852 3.25856e-317 0.332837)
(-0.47904 0.0819582 2.89519e-317 0.623083 2.84072e-317 -0.144042)
(0.322108 0.154375 1.16052e-316 -0.78786 1.6508e-316 0.465752)
(0.673794 0.0319798 1.26171e-316 -0.789129 2.12128e-316 0.115335)
(0.803381 -0.133652 1.26907e-316 -0.72082 2.21047e-316 -0.082561)
(0.823204 -0.266858 1.23961e-316 -0.646767 2.11583e-316 -0.176436)
(0.764039 -0.404709 1.18157e-316 -0.55499 1.93077e-316 -0.209049)
(0.661454 -0.50628 1.11656e-316 -0.458903 1.73024e-316 -0.202551)
(0.541214 -0.59551 1.04456e-316 -0.365592 1.51796e-316 -0.175622)
(0.39822 -0.652124 9.73881e-317 -0.263258 1.33466e-316 -0.134962)
(0.255985 -0.691417 9.03445e-317 -0.167764 1.15546e-316 -0.0882216)
(0.0972263 -0.701899 8.36067e-317 -0.0609635 1.01272e-316 -0.0362628)
(-0.0578055 -0.694881 7.71702e-317 0.0409846 8.73544e-317 0.0168209)
(-0.224385 -0.663184 7.0997e-317 0.153317 7.68315e-317 0.0710678)
(-0.385347 -0.615727 6.52563e-317 0.26346 6.63208e-317 0.121887)
(-0.544487 -0.550745 5.95633e-317 0.377397 5.87182e-317 0.167089)
(-0.688182 -0.471679 5.43931e-317 0.489953 5.08919e-317 0.198229)
(-0.796507 -0.388836 4.88573e-317 0.589109 4.53515e-317 0.207398)
(-0.862395 -0.289039 4.39054e-317 0.685226 3.95293e-317 0.177169)
(-0.822751 -0.20903 3.81217e-317 0.735127 3.49988e-317 0.0876233)
(-0.677337 -0.100589 3.29268e-317 0.774049 3.02155e-317 -0.0967122)
(-0.309427 -0.0457732 2.72369e-317 0.724464 2.55938e-317 -0.415037)
(0.300253 0.371421 3.53957e-317 -0.870094 9.68993e-317 0.569841)
(0.566423 0.248989 5.17878e-317 -0.825961 1.61186e-316 0.259538)
(0.660019 0.125778 6.17888e-317 -0.74318 1.82015e-316 0.0831607)
(0.657856 0.00542417 6.80428e-317 -0.646209 1.80659e-316 -0.0116468)
(0.610633 -0.108281 7.10334e-317 -0.552183 1.68379e-316 -0.0584502)
(0.529292 -0.198802 7.20777e-317 -0.454719 1.52607e-316 -0.0745733)
(0.442419 -0.274308 7.13753e-317 -0.368677 1.3517e-316 -0.0737413)
(0.336764 -0.321157 6.97039e-317 -0.275316 1.1931e-316 -0.0614479)
(0.234625 -0.348727 6.71872e-317 -0.190646 1.03923e-316 -0.0439789)
(0.116028 -0.347898 6.42234e-317 -0.093608 9.11082e-317 -0.0224199)
(-0.0011386 -0.329371 6.09486e-317 0.00178879 7.89513e-317 -0.000650197)
(-0.13244 -0.286928 5.74699e-317 0.111224 6.92641e-317 0.0212164)
(-0.266127 -0.234622 5.39754e-317 0.227091 6.0019e-317 0.0390364)
(-0.402281 -0.168193 5.02673e-317 0.350851 5.29098e-317 0.05143)
(-0.53813 -0.104737 4.6638e-317 0.48641 4.61034e-317 0.0517196)
(-0.643794 -0.0422736 4.2482e-317 0.609199 4.10461e-317 0.0345944)
(-0.727268 0.00558694 3.81509e-317 0.739945 3.6283e-317 -0.0126773)
(-0.712686 0.0379773 3.26569e-317 0.817168 3.24932e-317 -0.104483)
(-0.61058 0.0565231 2.60448e-317 0.878338 2.81483e-317 -0.267758)
(-0.293944 0.0592151 1.80765e-317 0.835591 2.13908e-317 -0.541647)
(0.183128 0.464035 -4.24698e-317 -0.685263 2.92948e-317 0.502135)
(0.385231 0.366186 -1.98406e-317 -0.657767 1.06883e-316 0.272536)
(0.45524 0.265578 -4.10277e-319 -0.58448 1.37698e-316 0.12924)
(0.467306 0.157303 1.46679e-317 -0.512807 1.44371e-316 0.0455014)
(0.437049 0.0628047 2.61716e-317 -0.436149 1.3868e-316 -0.00090048)
(0.388606 -0.0155755 3.43246e-317 -0.365639 1.28099e-316 -0.0229669)
(0.334664 -0.0752823 3.9847e-317 -0.303494 1.15009e-316 -0.0311701)
(0.268714 -0.10767 4.32442e-317 -0.238652 1.02434e-316 -0.0300619)
(0.206581 -0.122206 4.50026e-317 -0.181836 8.99112e-317 -0.0247447)
(0.129684 -0.105116 4.55293e-317 -0.1133 7.91891e-317 -0.0163841)
(0.054921 -0.0761105 4.51563e-317 -0.0466206 6.89877e-317 -0.00830032)
(-0.0373467 -0.0172928 4.41245e-317 0.0382388 6.07261e-317 -0.000892069)
(-0.132432 0.0398981 4.27014e-317 0.130139 5.29809e-317 0.00229357)
(-0.239784 0.117573 4.09688e-317 0.23996 4.71037e-317 -0.00017578)
(-0.351554 0.170735 3.92144e-317 0.365485 4.18172e-317 -0.0139313)
(-0.447318 0.226261 3.7364e-317 0.491036 3.84391e-317 -0.0437178)
(-0.533761 0.231037 3.577e-317 0.633862 3.59628e-317 -0.100101)
(-0.530711 0.214047 3.40987e-317 0.725533 3.54452e-317 -0.194821)
(-0.467223 0.140952 3.26462e-317 0.814067 3.52923e-317 -0.346845)
(-0.204366 0.0270223 2.96094e-317 0.779093 3.39141e-317 -0.574727)
(0.180756 0.60203 -8.25407e-317 -0.683474 -1.576e-317 0.502718)
(0.327687 0.501281 -5.93292e-317 -0.602845 6.13695e-317 0.275158)
(0.377902 0.412901 -3.61676e-317 -0.519623 9.63603e-317 0.141722)
(0.369193 0.293926 -1.68868e-317 -0.43387 1.08574e-316 0.0646779)
(0.353453 0.201384 -1.23051e-318 -0.374245 1.0854e-316 0.0207922)
(0.315665 0.115408 1.06711e-317 -0.313561 1.0284e-316 -0.00210366)
(0.292056 0.0566763 1.94515e-317 -0.278644 9.4178e-317 -0.0134117)
(0.252297 0.0215412 2.56806e-317 -0.235368 8.50061e-317 -0.016929)
(0.226015 0.0112381 2.98809e-317 -0.208701 7.55455e-317 -0.0173138)
(0.17984 0.0311318 3.25511e-317 -0.164471 6.69722e-317 -0.0153687)
(0.138595 0.0695858 3.40864e-317 -0.124173 5.87469e-317 -0.0144225)
(0.0712049 0.138287 3.48102e-317 -0.0565876 5.16691e-317 -0.0146173)
(-0.00278442 0.209608 3.50628e-317 0.0225423 4.50172e-317 -0.0197579)
(-0.103759 0.304748 3.50199e-317 0.134782 3.94895e-317 -0.0310225)
(-0.219388 0.369919 3.50781e-317 0.273988 3.44311e-317 -0.0545999)
(-0.339686 0.445682 3.5275e-317 0.434986 3.05294e-317 -0.0952993)
(-0.462518 0.441683 3.61717e-317 0.627815 2.74119e-317 -0.165297)
(-0.512591 0.43159 3.7503e-317 0.791162 2.59109e-317 -0.278571)
(-0.497196 0.303394 3.98372e-317 0.958661 2.64933e-317 -0.461465)
(-0.251956 0.159204 4.11285e-317 1.00357 3.17512e-317 -0.751615)
(0.116682 0.744469 -1.10234e-316 -0.56851 -4.88816e-317 0.451828)
(0.202233 0.607342 -8.7961e-317 -0.452693 2.35584e-317 0.250459)
(0.240713 0.488812 -6.30933e-317 -0.372554 5.96976e-317 0.131841)
(0.227186 0.352415 -4.14098e-317 -0.29079 7.5804e-317 0.0636049)
(0.22821 0.244427 -2.29758e-317 -0.253171 8.03805e-317 0.0249607)
(0.209765 0.154093 -8.50029e-318 -0.21406 7.90825e-317 0.0042948)
(0.213971 0.0900998 2.69921e-318 -0.207505 7.43743e-317 -0.00646567)
(0.204755 0.0586932 1.09955e-317 -0.19374 6.84502e-317 -0.0110152)
(0.21306 0.0501885 1.69939e-317 -0.199932 6.17465e-317 -0.0131279)
(0.20255 0.0814064 2.11469e-317 -0.188684 5.53016e-317 -0.0138667)
(0.200684 0.129573 2.38893e-317 -0.184729 4.88625e-317 -0.0159551)
(0.16733 0.220118 2.55627e-317 -0.147255 4.3082e-317 -0.0200751)
(0.132413 0.311171 2.64882e-317 -0.102773 3.75005e-317 -0.0296403)
(0.0515212 0.440473 2.69172e-317 -0.00477915 3.26571e-317 -0.046742)
(-0.0365062 0.532338 2.71421e-317 0.114223 2.81094e-317 -0.0777166)
(-0.168994 0.646337 2.7378e-317 0.298312 2.44377e-317 -0.129318)
(-0.290882 0.658438 2.79658e-317 0.506681 2.14764e-317 -0.215799)
(-0.397538 0.661486 2.89845e-317 0.753869 2.01897e-317 -0.356331)
(-0.411192 0.506485 3.07442e-317 0.995834 2.13444e-317 -0.584642)
(-0.233767 0.30965 3.21876e-317 1.1815 2.69186e-317 -0.947733)
(0.0996907 0.872686 -1.06695e-316 -0.494154 -6.10033e-317 0.394464)
(0.140372 0.70327 -8.94135e-317 -0.350466 -1.99696e-318 0.210094)
(0.170033 0.553549 -6.76914e-317 -0.277827 3.10177e-317 0.107794)
(0.147187 0.397087 -4.77928e-317 -0.198259 4.84024e-317 0.0510717)
(0.164899 0.269963 -3.04258e-317 -0.184614 5.59841e-317 0.0197152)
(0.157629 0.166431 -1.63502e-317 -0.160817 5.80022e-317 0.00318794)
(0.187513 0.0912533 -5.23507e-318 -0.181918 5.65694e-317 -0.00559495)
(0.19975 0.0492003 3.27552e-318 -0.190163 5.34302e-317 -0.00958722)
(0.23866 0.0355634 9.62824e-318 -0.226456 4.9201e-317 -0.0122044)
(0.255001 0.0594031 1.425e-317 -0.240911 4.46775e-317 -0.0140896)
(0.285917 0.111529 1.75156e-317 -0.267832 3.98902e-317 -0.0180841)
(0.277933 0.203476 1.9741e-317 -0.253325 3.52664e-317 -0.0246086)
(0.269881 0.314143 2.12379e-317 -0.232222 3.06154e-317 -0.0376588)
(0.198961 0.462668 2.22154e-317 -0.139621 2.62218e-317 -0.0593405)
(0.115058 0.595301 2.30044e-317 -0.0175837 2.18583e-317 -0.0974746)
(-0.0442471 0.754926 2.37219e-317 0.204245 1.78235e-317 -0.159998)
(-0.20495 0.823944 2.48441e-317 0.470341 1.41648e-317 -0.265392)
(-0.38484 0.898962 2.63508e-317 0.823674 1.17212e-317 -0.438834)
(-0.463318 0.795175 2.89347e-317 1.19215 1.22018e-317 -0.728834)
(-0.311664 0.684093 3.20329e-317 1.52445 1.99813e-317 -1.21278)
(0.0417349 0.996547 -9.98742e-317 -0.316851 -6.47228e-317 0.275116)
(0.0367313 0.771114 -8.68618e-317 -0.178117 -1.81373e-317 0.141385)
(0.0524872 0.571039 -6.85122e-317 -0.12107 1.04841e-317 0.0685831)
(0.0312108 0.39342 -5.08612e-317 -0.0606224 2.76461e-317 0.0294116)
(0.0573726 0.23945 -3.48791e-317 -0.0661427 3.68305e-317 0.00877002)
(0.0655956 0.128418 -2.16118e-317 -0.0640064 4.10682e-317 -0.00158912)
(0.111346 0.0381923 -1.08528e-317 -0.104686 4.19615e-317 -0.00666028)
(0.146315 -0.00736685 -2.47912e-318 -0.137499 4.09284e-317 -0.00881522)
(0.207934 -0.0289224 3.89249e-318 -0.197538 3.85769e-317 -0.0103966)
(0.253672 -0.00326475 8.56553e-318 -0.241476 3.55973e-317 -0.0121963)
(0.316134 0.0516156 1.18546e-317 -0.299756 3.21221e-317 -0.016378)
(0.341706 0.159135 1.40099e-317 -0.317761 2.85135e-317 -0.0239445)
(0.373509 0.292686 1.52492e-317 -0.335044 2.46882e-317 -0.0384655)
(0.329668 0.482622 1.57414e-317 -0.266499 2.08578e-317 -0.0631684)
(0.286083 0.668333 1.56363e-317 -0.179985 1.68689e-317 -0.106097)
(0.123365 0.902035 1.50646e-317 0.0543297 1.2918e-317 -0.177695)
(-0.0151816 1.05105 1.41841e-317 0.314309 9.03876e-318 -0.299127)
(-0.257197 1.21415 1.32122e-317 0.759628 5.83221e-318 -0.50243)
(-0.349367 1.17931 1.25511e-317 1.19546 4.61297e-318 -0.846097)
(-0.288257 1.10544 1.30812e-317 1.70838 7.92375e-318 -1.42012)
(-0.000514525 1.05894 -7.71457e-317 -0.121987 -5.72444e-317 0.122502)
(-0.0390823 0.810057 -6.98775e-317 -0.0130395 -2.55913e-317 0.0521218)
(-0.0285161 0.577683 -5.71251e-317 0.0108041 -2.91568e-318 0.017712)
(-0.0444029 0.386426 -4.38e-317 0.043298 1.25125e-317 0.00110495)
(-0.00721711 0.211975 -3.12564e-317 0.0135693 2.20656e-317 -0.00635215)
(0.013109 0.0884501 -2.03952e-317 -0.00399222 2.75243e-317 -0.00911679)
(0.0736552 -0.0175267 -1.13834e-317 -0.0637988 3.0004e-317 -0.00985635)
(0.124799 -0.0791381 -4.15628e-318 -0.115243 3.0541e-317 -0.00955569)
(0.207163 -0.113962 1.45476e-318 -0.197291 2.96909e-317 -0.00987256)
(0.275419 -0.106869 5.67161e-318 -0.264411 2.80086e-317 -0.0110078)
(0.367009 -0.0580421 8.70047e-318 -0.351864 2.56997e-317 -0.0151443)
(0.420783 0.0349468 1.072e-317 -0.397853 2.30523e-317 -0.0229307)
(0.486833 0.182363 1.18991e-317 -0.448397 2.00784e-317 -0.038436)
(0.467053 0.376186 1.23189e-317 -0.402336 1.69142e-317 -0.0647172)
(0.44621 0.61622 1.21166e-317 -0.335114 1.34786e-317 -0.111096)
(0.276987 0.896527 1.12575e-317 -0.0882907 9.82952e-318 -0.188697)
(0.114842 1.16012 9.91026e-318 0.207541 5.98093e-318 -0.322383)
(-0.197664 1.44438 8.08847e-318 0.746861 2.15324e-318 -0.549197)
(-0.374711 1.57912 6.23702e-318 1.31703 -5.70423e-319 -0.942323)
(-0.374859 1.72698 5.79266e-318 2.00169 1.14228e-319 -1.62683)
(-0.0576402 1.08262 -6.09761e-317 0.122259 -4.84411e-317 -0.0646188)
(-0.129321 0.802543 -5.7135e-317 0.18168 -2.72648e-317 -0.052359)
(-0.140069 0.540775 -4.82726e-317 0.180072 -9.98095e-318 -0.0400022)
(-0.146164 0.344518 -3.8131e-317 0.176441 3.1594e-318 -0.0302768)
(-0.111898 0.152941 -2.80482e-317 0.134593 1.21753e-317 -0.0226946)
(-0.0789647 0.0253276 -1.90579e-317 0.0959702 1.79743e-317 -0.0170055)
(-0.0165348 -0.0958693 -1.13768e-317 0.0292467 2.12314e-317 -0.0127118)
(0.0488458 -0.166415 -5.1362e-318 -0.0393053 2.26803e-317 -0.00954056)
(0.138347 -0.215732 -2.27522e-319 -0.130491 2.27785e-317 -0.00785563)
(0.227076 -0.218505 3.45355e-318 -0.21929 2.19789e-317 -0.00778583)
(0.335158 -0.177702 6.04557e-318 -0.324405 2.04992e-317 -0.0107533)
(0.419626 -0.0845042 7.65371e-318 -0.40179 1.85908e-317 -0.0178367)
(0.516663 0.0759669 8.35354e-318 -0.484215 1.63147e-317 -0.0324478)
(0.535681 0.300863 8.17914e-318 -0.477221 1.37919e-317 -0.0584604)
(0.56196 0.599822 7.09633e-318 -0.457303 1.09937e-317 -0.104657)
(0.420526 0.96992 5.0777e-318 -0.23679 7.94233e-318 -0.183736)
(0.311487 1.3604 1.95068e-318 0.00957548 4.59533e-318 -0.321063)
(-0.0261795 1.80048 -2.10313e-318 0.583878 8.58582e-319 -0.557698)
(-0.175061 2.10073 -7.17477e-318 1.14538 -3.1476e-318 -0.970324)
(-0.279849 2.37933 -1.10401e-317 1.96011 -7.96069e-318 -1.68026)
(-0.118165 1.04168 -3.95056e-317 0.384792 -3.67667e-317 -0.266627)
(-0.207317 0.771593 -3.93343e-317 0.369102 -2.58145e-317 -0.161785)
(-0.223396 0.507649 -3.49139e-317 0.322528 -1.37179e-317 -0.0991319)
(-0.215766 0.310811 -2.84733e-317 0.277662 -3.18571e-318 -0.0618954)
(-0.180583 0.112637 -2.15589e-317 0.219716 4.89874e-318 -0.0391331)
(-0.138126 -0.0238524 -1.49703e-317 0.163174 1.06273e-317 -0.0250477)
(-0.0737654 -0.15718 -9.16176e-318 0.0897705 1.43071e-317 -0.016005)
(0.00035939 -0.244444 -4.27361e-318 0.0096394 1.63822e-317 -0.00999879)
(0.097599 -0.310018 -3.5009e-319 -0.0910817 1.72033e-317 -0.00651732)
(0.20044 -0.337103 2.65208e-318 -0.195406 1.71301e-317 -0.00503363)
(0.327582 -0.31226 4.78809e-318 -0.320731 1.638e-317 -0.00685125)
(0.437387 -0.248166 6.11058e-318 -0.424787 1.51775e-317 -0.0125994)
(0.569042 -0.0898272 6.66808e-318 -0.543174 1.36233e-317 -0.0258679)
(0.625031 0.113099 6.44598e-318 -0.57509 1.18337e-317 -0.0499406)
(0.694032 0.454483 5.4386e-318 -0.600115 9.82938e-318 -0.0939167)
(0.580209 0.84016 3.52752e-318 -0.410599 7.60474e-318 -0.16961)
(0.480997 1.36519 6.09168e-319 -0.177825 5.09169e-318 -0.303172)
(0.100485 1.91941 -3.33811e-318 0.435513 1.93104e-318 -0.535998)
(-0.14364 2.47428 -8.44949e-318 1.09698 -2.32491e-318 -0.953335)
(-0.372336 3.06276 -1.29184e-317 2.08624 -9.11851e-318 -1.7139)
(-0.160047 0.937189 -2.94875e-317 0.611795 -2.71584e-317 -0.451748)
(-0.281219 0.682952 -2.9822e-317 0.544017 -2.1486e-317 -0.262798)
(-0.324033 0.431607 -2.69255e-317 0.476675 -1.34936e-317 -0.152642)
(-0.307311 0.251575 -2.22538e-317 0.397003 -5.5453e-318 -0.0896922)
(-0.281216 0.0559328 -1.69683e-317 0.334231 1.1986e-318 -0.0530155)
(-0.230431 -0.0791999 -1.18909e-317 0.26187 6.34172e-318 -0.0314389)
(-0.172919 -0.220656 -7.29618e-318 0.190994 9.90596e-318 -0.0180751)
(-0.0931552 -0.317876 -3.40785e-318 0.102683 1.21188e-317 -0.00952759)
(-0.00284562 -0.397898 -2.49063e-319 0.00694388 1.32322e-317 -0.00409826)
(0.108212 -0.441768 2.15803e-318 -0.107117 1.3524e-317 -0.00109533)
(0.231803 -0.433232 3.83453e-318 -0.230706 1.31929e-317 -0.00109714)
(0.361763 -0.385119 4.79107e-318 -0.356803 1.24356e-317 -0.00495973)
(0.502304 -0.231957 5.02342e-318 -0.486908 1.13716e-317 -0.0153962)
(0.601298 -0.0224692 4.51235e-318 -0.56534 1.0122e-317 -0.0359583)
(0.704752 0.357691 3.15899e-318 -0.630615 8.75477e-318 -0.0741367)
(0.656607 0.818216 9.28428e-319 -0.51511 7.29219e-318 -0.141497)
(0.628859 1.47753 -2.47672e-318 -0.36811 5.67017e-318 -0.260749)
(0.300252 2.22431 -6.87864e-318 0.17074 3.48242e-318 -0.470992)
(0.148036 3.01482 -1.27858e-317 0.69893 -3.94255e-319 -0.846966)
(-0.147674 3.81911 -1.86709e-317 1.65562 -9.10211e-318 -1.50794)
(-0.225575 0.821977 -1.88322e-317 0.851874 -2.102e-317 -0.626299)
(-0.340771 0.598468 -1.9557e-317 0.689909 -2.02636e-317 -0.349137)
(-0.391213 0.373853 -1.803e-317 0.587252 -1.49651e-317 -0.19604)
(-0.360331 0.200967 -1.50549e-317 0.47171 -8.60805e-318 -0.111379)
(-0.341966 0.0145109 -1.15953e-317 0.405513 -2.56804e-318 -0.0635476)
(-0.286248 -0.123617 -8.11885e-318 0.322417 2.33876e-318 -0.0361686)
(-0.235667 -0.267754 -4.89283e-318 0.255301 5.94785e-318 -0.0196341)
(-0.15483 -0.374559 -2.05755e-318 0.163968 8.36765e-318 -0.00913825)
(-0.0689081 -0.465891 3.00545e-319 0.0711943 9.79049e-318 -0.00228625)
(0.0442559 -0.528947 2.14069e-318 -0.0463771 1.04548e-317 0.00212118)
(0.171347 -0.540182 3.44151e-318 -0.175018 1.0549e-317 0.00367048)
(0.314324 -0.52499 4.19244e-318 -0.316281 1.02567e-317 0.00195713)
(0.477866 -0.393308 4.39381e-318 -0.472278 9.70822e-318 -0.00558746)
(0.614126 -0.228812 4.02894e-318 -0.592548 9.03034e-318 -0.0215783)
(0.769916 0.156491 3.08498e-318 -0.717203 8.31155e-318 -0.0527129)
(0.780638 0.578018 1.52655e-318 -0.672762 7.5898e-318 -0.107876)
(0.807254 1.3339 -7.25891e-319 -0.600839 6.80225e-318 -0.206416)
(0.481033 2.1071 -3.6409e-318 -0.100582 5.54179e-318 -0.380451)
(0.248524 3.15886 -7.45431e-318 0.452667 2.57397e-318 -0.70119)
(-0.267136 4.23287 -1.17767e-317 1.59262 -4.8191e-318 -1.32548)
(-0.241243 0.616704 -1.68733e-317 0.979811 -1.39394e-317 -0.738568)
(-0.397807 0.454824 -1.53134e-317 0.804967 -1.49282e-317 -0.40716)
(-0.469283 0.283595 -1.25877e-317 0.693145 -1.20233e-317 -0.223862)
(-0.435894 0.141928 -1.00588e-317 0.560153 -7.42285e-318 -0.124259)
(-0.421851 -0.0227556 -7.44684e-318 0.491023 -2.5925e-318 -0.0691714)
(-0.361073 -0.153914 -5.05628e-318 0.399338 1.5015e-318 -0.0382652)
(-0.317877 -0.293829 -2.77979e-318 0.33767 4.58027e-318 -0.0197928)
(-0.238214 -0.404589 -7.59468e-319 0.246328 6.68506e-318 -0.00811355)
(-0.168269 -0.501565 9.66807e-319 0.168395 7.95884e-318 -0.000126485)
(-0.0604899 -0.577942 2.32457e-318 0.0550549 8.59403e-318 0.00543496)
(0.0435308 -0.605142 3.2729e-318 -0.0522233 8.75263e-318 0.00869243)
(0.188085 -0.613126 3.7817e-318 -0.197244 8.59052e-318 0.00915918)
(0.329957 -0.503861 3.82538e-318 -0.335119 8.23185e-318 0.0051618)
(0.497233 -0.360391 3.40478e-318 -0.491502 7.79616e-318 -0.00573036)
(0.650583 0.0222414 2.46954e-318 -0.622628 7.38637e-318 -0.027955)
(0.75187 0.472744 1.0898e-318 -0.683411 7.06907e-318 -0.0684591)
(0.827766 1.31567 -8.79867e-319 -0.688438 6.8031e-318 -0.139329)
(0.660821 2.26673 -3.20351e-318 -0.398479 6.32045e-318 -0.262342)
(0.569377 3.56914 -6.18948e-318 -0.0912761 4.34321e-318 -0.478101)
(0.140931 4.94385 -9.93514e-318 0.703315 -1.77851e-318 -0.844246)
(-0.295361 0.489678 -1.18965e-317 1.11604 -1.84605e-317 -0.820674)
(-0.414159 0.343917 -9.79141e-318 0.850313 -2.07419e-317 -0.436154)
(-0.496022 0.202906 -7.08671e-318 0.730156 -1.69375e-317 -0.234134)
(-0.45177 0.0676431 -5.42658e-318 0.579266 -1.13137e-317 -0.127496)
(-0.448424 -0.0805472 -3.96362e-318 0.518236 -5.98636e-318 -0.0698114)
(-0.387003 -0.205179 -2.61764e-318 0.424985 -1.60986e-318 -0.0379821)
(-0.353102 -0.336197 -1.24845e-318 0.372233 1.61502e-318 -0.019131)
(-0.27862 -0.442126 7.96286e-320 0.285759 3.8761e-318 -0.00713949)
(-0.220761 -0.538723 1.27887e-318 0.21947 5.34555e-318 0.00129139)
(-0.123237 -0.619419 2.26821e-318 0.115614 6.23319e-318 0.0076229)
(-0.0313918 -0.661262 2.98307e-318 0.0193204 6.69538e-318 0.0120714)
(0.106804 -0.692376 3.38969e-318 -0.121293 6.8767e-318 0.0144896)
(0.250312 -0.617979 3.48058e-318 -0.263802 6.88947e-318 0.0134901)
(0.435728 -0.527033 3.27425e-318 -0.443311 6.84012e-318 0.00758262)
(0.630917 -0.190038 2.81579e-318 -0.624553 6.81359e-318 -0.00636356)
(0.796172 0.168622 2.18465e-318 -0.764293 6.86993e-318 -0.0318793)
(0.965992 1.0079 1.48429e-318 -0.891181 6.95416e-318 -0.0748105)
(0.84091 1.82933 7.92694e-319 -0.697533 6.86314e-318 -0.143377)
(0.736143 3.27559 2.27092e-319 -0.476868 5.64917e-318 -0.259275)
(-0.0603209 4.65208 -1.16777e-318 0.574879 1.94962e-318 -0.514558)
(-0.286811 0.239983 -3.25101e-318 1.10026 -6.24793e-318 -0.813446)
(-0.45826 0.185305 -1.41111e-318 0.884576 -1.13354e-317 -0.426316)
(-0.536297 0.129004 2.99478e-319 0.760994 -9.89613e-318 -0.224696)
(-0.493723 0.0272351 1.85191e-319 0.614252 -6.00041e-318 -0.120529)
(-0.480356 -0.0814085 8.77411e-320 0.545587 -2.20541e-318 -0.0652308)
(-0.413702 -0.19315 1.92325e-319 0.448845 8.82297e-319 -0.035143)
(-0.383238 -0.30303 6.45393e-319 0.400582 3.09294e-318 -0.0173444)
(-0.313744 -0.401149 1.29738e-318 0.319672 4.58359e-318 -0.00592823)
(-0.27572 -0.487181 2.00293e-318 0.273294 5.4931e-318 0.00242547)
(-0.194444 -0.567232 2.63413e-318 0.185412 5.97855e-318 0.00903215)
(-0.138436 -0.613444 3.097e-318 0.12407 6.15819e-318 0.0143655)
(-0.0192903 -0.658192 3.33963e-318 0.00103781 6.1388e-318 0.0182525)
(0.0750629 -0.61072 3.33518e-318 -0.0950369 6.01097e-318 0.019974)
(0.263288 -0.551953 3.10884e-318 -0.281631 5.85881e-318 0.0183428)
(0.405256 -0.262386 2.67257e-318 -0.417401 5.75927e-318 0.0121451)
(0.654299 0.0690428 2.16589e-318 -0.654275 5.77549e-318 -2.43031e-05)
(0.79581 0.892498 1.61605e-318 -0.779518 5.86593e-318 -0.0162921)
(0.943378 1.81561 1.24873e-318 -0.913002 5.94339e-318 -0.0303757)
(0.940563 3.43328 1.08884e-318 -0.925174 5.2952e-318 -0.0153886)
(0.586654 5.23906 2.57033e-319 -0.707867 3.09463e-318 0.121213)
(-0.302403 0.156399 4.82517e-318 1.0606 -2.35793e-317 -0.758193)
(-0.394596 0.0654372 3.89669e-318 0.775977 -2.5154e-317 -0.381381)
(-0.48309 0.00375299 3.29844e-318 0.679798 -1.93401e-317 -0.196709)
(-0.435449 -0.0934667 1.92956e-318 0.539715 -1.21886e-317 -0.104266)
(-0.432151 -0.194041 9.90014e-319 0.488255 -7.12619e-318 -0.0561042)
(-0.372141 -0.284766 5.97582e-319 0.402331 -3.3826e-318 -0.0301905)
(-0.349678 -0.378846 6.68649e-319 0.364501 -8.53899e-319 -0.0148232)
(-0.291586 -0.456 1.03984e-318 0.296398 9.25602e-319 -0.00481202)
(-0.266225 -0.530495 1.52147e-318 0.263459 2.14508e-318 0.00276655)
(-0.20344 -0.598957 1.99271e-318 0.194352 2.99089e-318 0.0090886)
(-0.165507 -0.649442 2.36012e-318 0.150911 3.56878e-318 0.0145956)
(-0.0702594 -0.701881 2.583e-318 0.0509695 3.9675e-318 0.01929)
(0.00807557 -0.690138 2.65614e-318 -0.0307578 4.25002e-318 0.0226822)
(0.178646 -0.676146 2.6181e-318 -0.202829 4.47391e-318 0.0241834)
(0.334066 -0.474218 2.54798e-318 -0.357523 4.67658e-318 0.0234566)
(0.598072 -0.261587 2.56023e-318 -0.619291 4.89065e-318 0.0212196)
(0.842269 0.419568 2.84908e-318 -0.866104 5.06654e-318 0.0238354)
(1.00163 1.04963 3.437e-318 -1.05071 5.12304e-318 0.0490853)
(1.13914 2.54013 4.62879e-318 -1.2853 4.7503e-318 0.146163)
(0.181625 3.75689 5.29078e-318 -0.545707 3.99352e-318 0.364082)
(-0.273474 -0.0836019 2.86369e-317 0.880723 1.00309e-317 -0.607249)
(-0.427009 -0.0673661 2.09823e-317 0.726481 -1.21605e-318 -0.299472)
(-0.465226 -0.0103074 1.31358e-317 0.617434 -1.88221e-318 -0.152208)
(-0.416349 -0.0776442 7.93631e-318 0.496549 1.832e-319 -0.0802002)
(-0.390022 -0.110555 4.54132e-318 0.433192 2.0549e-318 -0.0431704)
(-0.321564 -0.183878 2.90445e-318 0.344957 3.42261e-318 -0.0233929)
(-0.302537 -0.233805 2.18809e-318 0.314068 4.31537e-318 -0.0115309)
(-0.249971 -0.292567 2.07003e-318 0.253627 4.84757e-318 -0.00365626)
(-0.245656 -0.336167 2.19819e-318 0.243095 5.11437e-318 0.00256132)
(-0.202391 -0.384696 2.41239e-318 0.194423 5.18595e-318 0.00796836)
(-0.202883 -0.417515 2.58765e-318 0.189879 5.12159e-318 0.013004)
(-0.138518 -0.452939 2.67065e-318 0.120862 4.96942e-318 0.0176561)
(-0.122466 -0.448941 2.63567e-318 0.100702 4.77315e-318 0.0217641)
(0.0191721 -0.434999 2.51104e-318 -0.0440937 4.57326e-318 0.0249217)
(0.0784749 -0.296238 2.32628e-318 -0.106039 4.40071e-318 0.0275637)
(0.380848 -0.120472 2.21241e-318 -0.411797 4.28346e-318 0.0309488)
(0.48236 0.416424 2.23528e-318 -0.526357 4.17193e-318 0.0439965)
(0.983974 1.03978 2.54198e-318 -1.07455 4.02628e-318 0.0905771)
(0.998778 2.45915 3.17248e-318 -1.2575 3.6385e-318 0.25872)
(1.13845 4.33548 3.48657e-318 -1.99608 3.08943e-318 0.857631)
(-0.187971 -0.0916939 1.80592e-317 0.587671 -2.70852e-317 -0.3997)
(-0.201755 -0.188563 1.15784e-317 0.392227 -2.23783e-317 -0.190472)
(-0.255836 -0.230656 5.98298e-318 0.351608 -1.59047e-317 -0.0957721)
(-0.220543 -0.282892 2.92608e-318 0.271075 -9.90429e-318 -0.0505318)
(-0.212751 -0.34587 1.27512e-318 0.24017 -6.75125e-318 -0.0274185)
(-0.174341 -0.380874 5.69421e-319 0.189452 -4.59343e-318 -0.0151108)
(-0.162648 -0.428298 3.62906e-319 0.170224 -3.19973e-318 -0.00757636)
(-0.132913 -0.457258 4.39605e-319 0.135363 -2.14102e-318 -0.00244968)
(-0.130059 -0.493966 6.27379e-319 0.128284 -1.32027e-318 0.001775)
(-0.106448 -0.527741 8.40356e-319 0.100842 -6.43738e-319 0.00560596)
(-0.107088 -0.562385 1.01982e-318 0.0977509 -7.87294e-320 0.00933688)
(-0.0710501 -0.605147 1.14407e-318 0.0580488 4.00905e-319 0.0130013)
(-0.0579974 -0.629567 1.21504e-318 0.0414626 8.0466e-319 0.0165348)
(0.0279843 -0.664918 1.26496e-318 -0.047745 1.14009e-318 0.0197607)
(0.0872517 -0.622643 1.35502e-318 -0.1104 1.40623e-318 0.0231486)
(0.278271 -0.584992 1.5509e-318 -0.306071 1.60174e-318 0.0278002)
(0.446274 -0.294073 1.99516e-318 -0.48717 1.72498e-318 0.0408952)
(0.704745 -0.0581903 2.62262e-318 -0.786391 1.76407e-318 0.0816457)
(1.07408 0.848239 3.60185e-318 -1.2931 1.79829e-318 0.21902)
(0.19511 1.21468 4.3852e-318 -0.789618 2.21231e-318 0.594508)
(-0.0825728 -0.335286 3.85246e-317 0.212954 3.63767e-317 -0.130381)
(-0.20979 -0.255122 2.5752e-317 0.274543 1.63769e-317 -0.0647527)
(-0.161416 -0.0939081 1.23116e-317 0.194287 1.07767e-317 -0.0328706)
(-0.119834 -0.113924 6.77221e-318 0.137465 8.12282e-318 -0.0176314)
(-0.0932556 -0.0425711 3.45531e-318 0.103026 7.52424e-318 -0.00977079)
(-0.0433597 -0.067777 2.17851e-318 0.0489362 7.19345e-318 -0.00557655)
(-0.0442306 -0.0331823 1.54247e-318 0.0471308 7.08985e-318 -0.00290027)
(-0.0174404 -0.0451002 1.34653e-318 0.0184593 6.93847e-318 -0.0010189)
(-0.0365915 -0.0230726 1.28754e-318 0.0359725 6.75638e-318 0.000619046)
(-0.0261507 -0.0168793 1.29628e-318 0.0239818 6.50857e-318 0.00216891)
(-0.0596774 0.00147981 1.30015e-318 0.0559382 6.21715e-318 0.00373921)
(-0.0493308 0.0332445 1.27683e-318 0.043971 5.89336e-318 0.00535973)
(-0.0946452 0.0541666 1.20926e-318 0.0876302 5.55967e-318 0.00701504)
(-0.0506501 0.128348 1.10887e-318 0.0419926 5.23293e-318 0.00865746)
(-0.102314 0.16348 9.78038e-319 0.0918107 4.91115e-318 0.0105033)
(0.0674265 0.311831 8.87559e-319 -0.0803182 4.59545e-318 0.0128917)
(0.00972535 0.396536 8.5336e-319 -0.0284554 4.21578e-318 0.01873)
(0.559381 0.674713 9.6614e-319 -0.595506 3.69879e-318 0.0361257)
(0.390679 0.976629 1.19468e-318 -0.501396 3.00531e-318 0.110717)
(1.46356 2.19755 1.32546e-318 -2.01686 2.0048e-318 0.553295)
)
;

boundaryField
{
    cavity
    {
        type            mySigma;
    }
    lid
    {
        type            fixedValue;
        value           uniform (0.1 -0.3 0 -0.1 0 0);
    }
    frontAndBack
    {
        type            empty;
    }
}


// ************************************************************************* //
