/*--------------------------------*- C++ -*----------------------------------*\
| =========                 |                                                 |
| \\      /  F ield         | foam-extend: Open Source CFD                    |
|  \\    /   O peration     | Version:  3.0                                   |
|   \\  /    A nd           | Web:         http://www.extend-project.de       |
|    \\/     M anipulation  |                                                 |
\*---------------------------------------------------------------------------*/
FoamFile
{
    version     2.0;
    format      ascii;
    class       volSymmTensorField;
    location    "11";
    object      sigma;
}
// * * * * * * * * * * * * * * * * * * * * * * * * * * * * * * * * * * * * * //

dimensions      [0 0 0 0 0 0 0];

internalField   nonuniform List<symmTensor> 
120
(
(-0.131374 -0.0231571 1.92799e-19 0.131405 -1.05614e-20 -3.1284e-05)
(-0.0938969 -0.0224332 5.30917e-19 0.0939641 4.4067e-19 -6.71582e-05)
(-0.05545 -0.0173614 1.17712e-18 0.0555447 -6.03562e-19 -9.47109e-05)
(-0.0245788 -0.0128069 -8.72174e-19 0.0246862 5.83325e-20 -0.000107353)
(-0.00239925 -0.00900249 -9.17903e-19 0.00247173 -6.9131e-21 -7.24784e-05)
(-0.111851 -0.0633099 3.39099e-19 0.111908 -1.00732e-19 -5.69928e-05)
(-0.0690169 -0.0581839 1.65526e-18 0.069139 -7.75692e-19 -0.000122053)
(-0.0330267 -0.0434976 9.82304e-19 0.0331922 -1.61649e-18 -0.000165495)
(-0.00491372 -0.0307577 1.39498e-18 0.00508732 -1.03685e-18 -0.000173601)
(0.0146296 -0.0207668 7.37564e-19 -0.0145255 -1.37376e-18 -0.000104072)
(-0.0803457 -0.0886104 9.29774e-21 0.0804253 -2.97555e-19 -7.95906e-05)
(-0.031755 -0.0714886 -3.45589e-19 0.0319248 -1.3072e-18 -0.000169821)
(-0.000570259 -0.04799 -1.32094e-18 0.000796133 -1.71089e-18 -0.000225875)
(0.0226511 -0.0285275 -1.9698e-18 -0.0224226 -1.85032e-18 -0.000228471)
(0.0378806 -0.0140217 -3.27032e-18 -0.0377519 5.7804e-19 -0.000128689)
(-0.0477384 -0.0973361 -1.01115e-19 0.0478353 -2.11882e-19 -9.68883e-05)
(2.65547e-05 -0.0614285 -5.66715e-19 0.000179669 -7.55877e-19 -0.000206223)
(0.0242123 -0.0305114 -3.04032e-18 -0.0239411 1.83528e-19 -0.000271241)
(0.0412242 -0.00623481 -1.04639e-18 -0.0409559 9.52598e-19 -0.000268263)
(0.0515563 0.0108361 -5.78766e-19 -0.0514114 1.66889e-18 -0.000144868)
(-0.0224262 -0.0950709 6.20284e-20 0.0225337 -1.8047e-19 -0.000107502)
(0.0133207 -0.0395149 -7.58989e-19 -0.0130922 -4.13725e-20 -0.00022848)
(0.028665 -0.00319186 -1.0518e-19 -0.0283669 4.29526e-19 -0.000298128)
(0.0389091 0.0240119 -3.77378e-19 -0.0386192 1.00488e-18 -0.000289905)
(0.0446446 0.0421147 2.87192e-18 -0.0444934 -3.4958e-20 -0.000151248)
(-0.00613001 -0.0907064 -2.49865e-19 0.00624077 -8.40357e-20 -0.000110767)
(0.00721176 -0.0225607 -1.0079e-18 -0.00697659 2.08039e-19 -0.000235175)
(0.0124673 0.0166195 7.72617e-19 -0.0121624 4.07826e-19 -0.000304871)
(0.0158382 0.0451537 2.24232e-19 -0.015546 6.41162e-19 -0.000292139)
(0.017567 0.0634952 6.59989e-19 -0.0174194 -3.22986e-19 -0.000147621)
(0.00622182 -0.0907147 -2.45263e-19 -0.00611551 -4.37126e-20 -0.000106312)
(-0.00705761 -0.0225596 -5.75163e-19 0.00728321 1.63391e-19 -0.000225607)
(-0.0123383 0.0166128 7.12353e-19 0.012629 3.59353e-19 -0.00029063)
(-0.0158281 0.0451332 1.89309e-19 0.0161025 4.74155e-19 -0.000274342)
(-0.0178316 0.0634645 -1.07212e-18 0.0179655 -2.23103e-19 -0.00013384)
(0.0225258 -0.0950881 -3.43625e-19 -0.0224312 -8.39982e-21 -9.45406e-05)
(-0.0131964 -0.0395181 8.90195e-19 0.0133969 3.45032e-19 -0.000200511)
(-0.0285767 -0.00322294 -4.65049e-19 0.0288331 8.60862e-20 -0.000256452)
(-0.0389399 0.0239372 5.34438e-19 0.0391777 -5.69475e-20 -0.000237797)
(-0.0449562 0.0419974 7.99108e-20 0.0450672 -4.03468e-19 -0.000110994)
(0.0478427 -0.0973447 -2.11895e-19 -0.0477666 3.08864e-19 -7.61305e-05)
(4.94542e-05 -0.0614522 -9.48202e-19 0.000111902 5.40244e-19 -0.000161356)
(-0.0241857 -0.0305928 -1.87087e-18 0.02439 3.44148e-19 -0.000204243)
(-0.0413132 -0.00639392 -1.22685e-18 0.0414976 7.60465e-19 -0.000184444)
(-0.0519168 0.0105799 -3.13634e-18 0.051997 -1.17946e-19 -8.01941e-05)
(0.0804376 -0.0885948 1.17519e-19 -0.0803852 4.09609e-19 -5.24205e-05)
(0.0317812 -0.071548 1.30715e-19 -0.0316703 9.35465e-19 -0.000110892)
(0.000541449 -0.0481437 -6.72149e-19 -0.000403798 1.07775e-18 -0.000137651)
(-0.0227818 -0.0287949 1.80245e-18 0.0228998 1.11843e-19 -0.000117982)
(-0.0382402 -0.0144486 2.38575e-18 0.0382838 2.55569e-18 -4.3655e-05)
(0.111906 -0.0632673 2.96404e-19 -0.111881 2.24777e-19 -2.49648e-05)
(0.0690052 -0.0582821 5.21963e-19 -0.0689528 2.04521e-19 -5.24705e-05)
(0.0329685 -0.0437232 2.13554e-18 -0.0329075 1.18226e-18 -6.10471e-05)
(0.00478065 -0.0311277 1.19924e-18 -0.00473793 -4.47826e-19 -4.27165e-05)
(-0.0149175 -0.0213449 2.35332e-18 0.0149212 -2.05478e-19 -3.64863e-06)
(0.131374 -0.0230994 1.314e-19 -0.131378 -3.86974e-21 4.23954e-06)
(0.0938633 -0.0225565 4.68555e-19 -0.093873 4.61569e-20 9.69408e-06)
(0.0553895 -0.0176304 1.69021e-18 -0.0554095 -1.39129e-19 1.99999e-05)
(0.0244807 -0.0132365 1.44966e-19 -0.0245165 -6.08635e-19 3.58308e-05)
(0.00223676 -0.00966534 -1.09775e-19 -0.00227357 -2.12155e-18 3.68098e-05)
(0.13135 0.0229921 1.9252e-19 -0.131384 -1.10888e-20 3.31834e-05)
(0.0938246 0.0223601 5.30835e-19 -0.0938959 4.4002e-19 7.12512e-05)
(0.0553152 0.0173955 1.17722e-18 -0.055415 -6.07563e-19 9.97805e-05)
(0.0243537 0.0130305 -8.73385e-19 -0.0244658 5.6509e-20 0.000112068)
(0.00200867 0.00970041 -9.16539e-19 -0.00208353 -1.7377e-21 7.48645e-05)
(0.11185 0.0631424 3.38858e-19 -0.111909 -1.01137e-19 5.97614e-05)
(0.0688908 0.0580813 1.6568e-18 -0.0690185 -7.8051e-19 0.000127723)
(0.0327506 0.0434602 9.83957e-19 -0.032923 -1.62039e-18 0.000172416)
(0.00441544 0.0308444 1.39797e-18 -0.00459571 -1.04836e-18 0.000180268)
(-0.0155492 0.0211763 7.43881e-19 0.0154417 -1.38749e-18 0.000107572)
(0.0803742 0.0884567 8.66077e-21 -0.0804563 -2.97775e-19 8.21419e-05)
(0.0315976 0.0713336 -3.47647e-19 -0.0317728 -1.30708e-18 0.000175158)
(0.000203198 0.0478181 -1.32528e-18 -0.000435971 -1.70923e-18 0.000232773)
(-0.0233286 0.0283531 -1.97629e-18 0.0230931 -1.85173e-18 0.00023554)
(-0.0391232 0.0139134 -3.27656e-18 0.0389906 5.90475e-19 0.000132567)
(0.0477867 0.0972192 -1.01917e-19 -0.0478854 -2.11997e-19 9.87575e-05)
(-0.000184295 0.0612119 -5.68563e-19 -2.59568e-05 -7.55927e-19 0.000210252)
(-0.0245904 0.030171 -3.04933e-18 0.0243138 1.88966e-19 0.00027664)
(-0.0419262 0.00573221 -1.05378e-18 0.0416521 9.57759e-19 0.000274012)
(-0.0528198 -0.0115653 -5.93122e-19 0.0526718 1.67972e-18 0.000148087)
(0.0224647 0.0950014 6.1488e-20 -0.0225732 -1.80687e-19 0.000108526)
(-0.013447 0.0392439 -7.61516e-19 0.0132163 -4.04795e-20 0.000230711)
(-0.0289628 0.00269664 -1.04856e-19 0.0286617 4.30029e-19 0.000301157)
(-0.0394558 -0.0248188 -3.8089e-19 0.0391626 1.00922e-18 0.000293204)
(-0.0456058 -0.0433983 2.88878e-18 0.0454527 -4.24513e-20 0.000153134)
(0.00612755 0.090668 -2.5077e-19 -0.00623841 -8.40608e-20 0.000110852)
(-0.00728319 0.0222584 -1.01048e-18 0.00704786 2.09103e-19 0.000235334)
(-0.0126119 -0.0172066 7.75154e-19 0.0123069 4.08639e-19 0.00030498)
(-0.0160861 -0.046141 2.23356e-19 0.0157939 6.44328e-19 0.000292229)
(-0.0179776 -0.0651037 6.56142e-19 0.0178299 -3.23402e-19 0.000147658)
(-0.00627596 0.0906723 -2.458e-19 0.0061703 -4.38057e-20 0.000105665)
(0.0070498 0.0222573 -5.75904e-19 -0.00727381 1.64172e-19 0.000224009)
(0.0123726 -0.0171979 7.15538e-19 -0.0126607 3.61271e-19 0.000288122)
(0.0159307 -0.0461154 1.91253e-19 -0.0162021 4.77504e-19 0.000271427)
(0.0180613 -0.0650685 -1.07578e-18 -0.0181934 -2.24623e-19 0.000132131)
(-0.022614 0.0950107 -3.44046e-19 0.0225206 -8.60131e-21 9.34208e-05)
(0.0132428 0.0392473 8.93031e-19 -0.0134406 3.46802e-19 0.000197753)
(0.0287596 0.00273186 -4.64805e-19 -0.0290118 8.7328e-20 0.000252114)
(0.0393317 -0.0247338 5.41567e-19 -0.0395644 -5.39244e-20 0.000232694)
(0.0457287 -0.0432721 8.76593e-20 -0.0458366 -4.00728e-19 0.000107962)
(-0.0479342 0.0972243 -2.12272e-19 0.0478592 3.09241e-19 7.50022e-05)
(2.74492e-05 0.0612355 -9.50827e-19 -0.000185897 5.40624e-19 0.000158448)
(0.0244444 0.0302539 -1.87664e-18 -0.0246439 3.43259e-19 0.000199479)
(0.0418503 0.00589639 -1.23119e-18 -0.0420289 7.61216e-19 0.000178647)
(0.0529834 -0.0113046 -3.14155e-18 -0.0530601 -1.27947e-19 7.66995e-05)
(-0.0805101 0.0884458 1.1779e-19 0.0804584 4.10366e-19 5.17291e-05)
(-0.0317055 0.0713925 1.30844e-19 0.0315966 9.37289e-19 0.000108866)
(-0.00029461 0.0479684 -6.74987e-19 0.000160687 1.07473e-18 0.000133923)
(0.0232934 0.028615 1.804e-18 -0.0234065 1.09033e-19 0.000113112)
(0.0392851 0.0143358 2.38241e-18 -0.0393257 2.55333e-18 4.0599e-05)
(-0.111957 0.0631084 2.97023e-19 0.111932 2.25791e-19 2.52131e-05)
(-0.0689618 0.0581788 5.22632e-19 0.0689095 2.04789e-19 5.23282e-05)
(-0.0328095 0.0436804 2.13868e-18 0.0327497 1.18635e-18 5.97109e-05)
(-0.0044403 0.0312037 1.20079e-18 0.00440002 -4.5005e-19 4.0286e-05)
(0.0156462 0.0217455 2.3602e-18 -0.0156482 -1.85322e-19 1.91063e-06)
(-0.13141 0.0229386 1.31763e-19 0.131413 -3.44082e-21 -2.64857e-06)
(-0.0938738 0.0224829 4.68892e-19 0.0938812 4.57638e-20 -7.3417e-06)
(-0.0553679 0.017662 1.69171e-18 0.0553862 -1.35462e-19 -1.82444e-05)
(-0.0244049 0.0134548 1.45307e-19 0.0244399 -6.08454e-19 -3.492e-05)
(-0.00202981 0.0103581 -1.11188e-19 0.00206636 -2.1261e-18 -3.65542e-05)
)
;

boundaryField
{
    out
    {
        type            mySigma;
    }
    in
    {
        type            mySigma;
    }
    frontAndBack
    {
        type            empty;
    }
}


// ************************************************************************* //
