/*--------------------------------*- C++ -*----------------------------------*\
| =========                 |                                                 |
| \\      /  F ield         | foam-extend: Open Source CFD                    |
|  \\    /   O peration     | Version:  3.0                                   |
|   \\  /    A nd           | Web:         http://www.extend-project.de       |
|    \\/     M anipulation  |                                                 |
\*---------------------------------------------------------------------------*/
FoamFile
{
    version     2.0;
    format      ascii;
    class       volVectorField;
    location    "11";
    object      u;
}
// * * * * * * * * * * * * * * * * * * * * * * * * * * * * * * * * * * * * * //

dimensions      [0 0 0 0 0 0 0];

internalField   nonuniform List<vector> 
120
(
(0.500186 -0.155029 -5.97583e-20)
(0.758999 -0.0838649 6.02755e-18)
(0.953501 -0.0413645 -1.41041e-17)
(0.95926 -0.020436 7.42108e-18)
(1.0468 0.0102506 3.51793e-17)
(0.657042 -0.427755 2.45225e-18)
(0.844869 -0.233786 -3.35515e-17)
(0.997286 -0.118717 -9.91687e-18)
(0.982655 -0.062965 -3.16779e-17)
(1.04087 0.0175112 -2.81454e-17)
(0.929171 -0.585464 4.05223e-18)
(0.994125 -0.320581 6.60638e-18)
(1.07377 -0.163691 1.86491e-17)
(1.02406 -0.087923 1.12081e-17)
(1.03193 0.021036 8.85031e-17)
(1.24364 -0.585926 1.88308e-18)
(1.16668 -0.321069 -7.42171e-19)
(1.16237 -0.164293 2.75438e-17)
(1.07222 -0.0887236 -1.40712e-18)
(1.02222 0.0197869 -6.31329e-18)
(1.51611 -0.429082 -2.19186e-18)
(1.31625 -0.235161 3.3912e-18)
(1.23926 -0.12046 -3.25783e-18)
(1.11416 -0.0652337 6.04106e-18)
(1.0142 0.0139563 -2.96248e-17)
(1.67356 -0.156986 -9.04709e-19)
(1.40273 -0.0859694 5.03883e-18)
(1.28379 -0.0440031 -2.80897e-18)
(1.13854 -0.0238936 2.22574e-18)
(1.0099 0.00497558 -1.32384e-17)
(1.67379 0.157355 -1.09101e-18)
(1.40292 0.0864808 4.27852e-18)
(1.284 0.0444628 4.29179e-19)
(1.1388 0.0241129 1.52639e-18)
(1.01035 -0.00497476 -1.13862e-17)
(1.51672 0.429686 -3.02726e-18)
(1.31678 0.235886 9.67377e-18)
(1.23982 0.121159 -1.43106e-18)
(1.11486 0.0657533 8.41098e-18)
(1.0154 -0.0134633 3.52535e-18)
(1.24448 0.586943 -2.97812e-18)
(1.1674 0.322164 -1.31951e-17)
(1.16313 0.165399 -2.06658e-17)
(1.07318 0.0897526 -1.47992e-17)
(1.02376 -0.018519 -5.66051e-17)
(0.930015 0.586961 2.08298e-18)
(0.994845 0.322099 1.65188e-18)
(1.07452 0.16525 -2.68793e-17)
(1.02501 0.0895224 5.88299e-18)
(1.03336 -0.0189903 4.14549e-17)
(0.657661 0.429669 7.86641e-18)
(0.845395 0.235661 -4.624e-18)
(0.997844 0.120652 2.47299e-17)
(0.983358 0.0650396 -8.23502e-18)
(1.04188 -0.0148764 6.56114e-17)
(0.500411 0.157188 -2.69018e-19)
(0.759192 0.0859375 -1.17098e-17)
(0.953731 0.0435025 1.84454e-17)
(0.959548 0.022774 -2.83068e-18)
(1.04721 -0.00727996 3.21895e-18)
(0.5005 -0.157491 5.72953e-20)
(0.759408 -0.0869694 -6.0413e-18)
(0.954153 -0.0455558 1.41054e-17)
(0.960089 -0.0259732 -7.44349e-18)
(1.04808 0.00178074 -3.52632e-17)
(0.657935 -0.430058 -2.45517e-18)
(0.846114 -0.236736 3.35544e-17)
(0.999093 -0.122668 9.95171e-18)
(0.985018 -0.0681465 3.17237e-17)
(1.04434 0.00986331 2.81687e-17)
(0.930625 -0.587442 -4.0619e-18)
(0.996141 -0.323199 -6.62024e-18)
(1.07665 -0.167128 -1.8648e-17)
(1.02778 -0.0924135 -1.121e-17)
(1.03716 0.0147755 -8.86853e-17)
(1.24553 -0.587459 -1.89062e-18)
(1.16939 -0.323129 7.27884e-19)
(1.16614 -0.166986 -2.75729e-17)
(1.07708 -0.0921923 1.41208e-18)
(1.02867 0.0151988 6.31844e-18)
(1.51833 -0.430031 2.19466e-18)
(1.31947 -0.236497 -3.40577e-18)
(1.24368 -0.122176 3.24703e-18)
(1.1198 -0.0674544 -6.06305e-18)
(1.02141 0.0111656 2.96925e-17)
(1.67595 -0.157316 9.12279e-19)
(1.40621 -0.0864242 -5.04405e-18)
(1.28853 -0.0446297 2.80457e-18)
(1.1446 -0.0246749 -2.24396e-18)
(1.01749 0.00398215 1.32837e-17)
(1.67617 0.157704 1.1011e-18)
(1.40638 0.0869208 -4.28498e-18)
(1.28872 0.0450024 -4.30285e-19)
(1.14484 0.0247984 -1.5382e-18)
(1.01801 -0.00411142 1.1452e-17)
(1.51894 0.43065 3.04294e-18)
(1.31994 0.237189 -9.70214e-18)
(1.24418 0.122785 1.44618e-18)
(1.12046 0.0678808 -8.46138e-18)
(1.02278 -0.0107107 -3.53672e-18)
(1.24638 0.588484 2.99211e-18)
(1.17005 0.324169 1.32197e-17)
(1.16682 0.168002 2.07403e-17)
(1.07797 0.093135 1.48625e-17)
(1.03039 -0.0138402 5.68865e-17)
(0.931478 0.588938 -2.07772e-18)
(0.996805 0.324648 -1.66136e-18)
(1.07732 0.168606 2.69156e-17)
(1.02864 0.0939409 -5.88879e-18)
(1.03869 -0.0125513 -4.15752e-17)
(0.65857 0.431974 -7.86405e-18)
(0.846606 0.238558 4.61701e-18)
(0.999561 0.124546 -2.47691e-17)
(0.985625 0.0701736 8.23622e-18)
(1.04531 -0.00705567 -6.57328e-17)
(0.500741 0.159646 2.71137e-19)
(0.759588 0.0890172 1.17088e-17)
(0.954297 0.0476685 -1.84596e-17)
(0.960276 0.028291 2.82857e-18)
(1.04836 0.00125937 -3.21592e-18)
)
;

boundaryField
{
    out
    {
        type            fixedValue;
        value           uniform (1 0 0);
    }
    in
    {
        type            myVelocity;
    }
    frontAndBack
    {
        type            empty;
    }
}


// ************************************************************************* //
