/*--------------------------------*- C++ -*----------------------------------*\
| =========                 |                                                 |
| \\      /  F ield         | foam-extend: Open Source CFD                    |
|  \\    /   O peration     | Version:  3.0                                   |
|   \\  /    A nd           | Web:         http://www.extend-project.de       |
|    \\/     M anipulation  |                                                 |
\*---------------------------------------------------------------------------*/
FoamFile
{
    version     2.0;
    format      ascii;
    class       volSymmTensorField;
    location    "5.6";
    object      sigma;
}
// * * * * * * * * * * * * * * * * * * * * * * * * * * * * * * * * * * * * * //

dimensions      [0 0 0 0 0 0 0];

internalField   nonuniform List<symmTensor> 
400
(
(0.222129 0.0224371 1.26295e-316 -0.300584 1.56304e-316 0.0784541)
(0.415957 -0.0649693 1.31673e-316 -0.277533 1.75148e-316 -0.138424)
(0.502808 -0.172906 1.27508e-316 -0.261272 1.70276e-316 -0.241536)
(0.495317 -0.244267 1.21015e-316 -0.224011 1.56926e-316 -0.271306)
(0.461812 -0.31899 1.11629e-316 -0.195837 1.39275e-316 -0.265975)
(0.395556 -0.371387 1.02713e-316 -0.158964 1.2333e-316 -0.236592)
(0.323811 -0.416438 9.34232e-317 -0.127411 1.06675e-316 -0.1964)
(0.239526 -0.448957 8.50715e-317 -0.0917761 9.38444e-317 -0.14775)
(0.154349 -0.471286 7.72035e-317 -0.0589327 8.06253e-317 -0.0954159)
(0.0618443 -0.484273 7.0194e-317 -0.0227627 7.13255e-317 -0.0390816)
(-0.0314873 -0.486587 6.38921e-317 0.0126982 6.13042e-317 0.018789)
(-0.129539 -0.479548 5.82424e-317 0.0511263 5.48277e-317 0.0784126)
(-0.22717 -0.461252 5.3338e-317 0.0901795 4.72754e-317 0.136991)
(-0.323292 -0.432985 4.87271e-317 0.130544 4.28186e-317 0.192748)
(-0.410632 -0.391151 4.4997e-317 0.170309 3.71763e-317 0.240323)
(-0.483047 -0.341517 4.09764e-317 0.208796 3.41517e-317 0.274251)
(-0.521548 -0.27016 3.82601e-317 0.239723 3.03155e-317 0.281825)
(-0.519828 -0.200925 3.45244e-317 0.269315 2.85273e-317 0.250513)
(-0.423076 -0.0950849 3.25866e-317 0.276938 2.67535e-317 0.146138)
(-0.218092 -0.00629513 2.82109e-317 0.285481 2.58371e-317 -0.0673889)
(0.14829 0.0285594 4.85478e-317 -0.352894 8.98208e-317 0.204605)
(0.319127 -0.00981243 6.06209e-317 -0.37097 1.29741e-316 0.0518431)
(0.384438 -0.0644379 6.63989e-317 -0.348625 1.38942e-316 -0.0358125)
(0.399411 -0.107727 6.88691e-317 -0.320596 1.34148e-316 -0.0788156)
(0.373322 -0.153375 6.86043e-317 -0.278439 1.2222e-316 -0.0948822)
(0.326706 -0.188828 6.7103e-317 -0.233294 1.09565e-316 -0.0934123)
(0.268263 -0.219532 6.45121e-317 -0.186053 9.56087e-317 -0.0822097)
(0.199812 -0.240615 6.15179e-317 -0.135494 8.41592e-317 -0.0643178)
(0.129072 -0.254634 5.81877e-317 -0.0859437 7.24849e-317 -0.0431284)
(0.0518369 -0.258879 5.48073e-317 -0.0325766 6.38011e-317 -0.0192603)
(-0.0254512 -0.256309 5.14607e-317 0.0201639 5.48211e-317 0.00528728)
(-0.106661 -0.244421 4.82093e-317 0.0763658 4.86353e-317 0.0302949)
(-0.186362 -0.227429 4.52054e-317 0.132811 4.18963e-317 0.0535503)
(-0.263582 -0.203515 4.22783e-317 0.189661 3.76191e-317 0.0739211)
(-0.333908 -0.176466 3.98148e-317 0.246291 3.26365e-317 0.0876174)
(-0.385753 -0.148088 3.72448e-317 0.294687 2.97175e-317 0.0910662)
(-0.416971 -0.115585 3.54849e-317 0.340292 2.62351e-317 0.0766794)
(-0.395765 -0.0911919 3.33414e-317 0.360123 2.43906e-317 0.0356419)
(-0.324485 -0.0546251 3.24128e-317 0.37202 2.31211e-317 -0.0475351)
(-0.144977 -0.0384639 3.07448e-317 0.335051 2.47224e-317 -0.190074)
(0.138752 0.0837274 -9.98013e-319 -0.398913 4.34282e-317 0.26016)
(0.2808 0.0650511 1.3757e-317 -0.405012 9.07085e-317 0.124212)
(0.331102 0.0412848 2.53037e-317 -0.374996 1.0726e-316 0.0438936)
(0.33929 0.0101839 3.37102e-317 -0.338427 1.0847e-316 -0.000863456)
(0.315481 -0.0207351 3.91354e-317 -0.291502 1.01787e-316 -0.0239796)
(0.276613 -0.0503927 4.24943e-317 -0.243747 9.27823e-317 -0.0328661)
(0.230026 -0.0741021 4.40345e-317 -0.196399 8.22627e-317 -0.0336272)
(0.175366 -0.0912371 4.44529e-317 -0.146601 7.28886e-317 -0.0287649)
(0.120392 -0.0998594 4.39623e-317 -0.0991686 6.34681e-317 -0.021223)
(0.0583703 -0.099148 4.29363e-317 -0.0467778 5.58739e-317 -0.0115925)
(-0.00351606 -0.0911189 4.15472e-317 0.00528858 4.83703e-317 -0.00177252)
(-0.0714032 -0.0737998 3.99334e-317 0.0633204 4.26285e-317 0.00808283)
(-0.140213 -0.0540322 3.82472e-317 0.124254 3.68197e-317 0.0159592)
(-0.209208 -0.0284441 3.63926e-317 0.188054 3.2526e-317 0.0211537)
(-0.277365 -0.00819208 3.45785e-317 0.256841 2.8024e-317 0.0205244)
(-0.32868 0.0108524 3.23391e-317 0.317061 2.47059e-317 0.0116191)
(-0.368703 0.0173958 3.00085e-317 0.380093 2.12009e-317 -0.0113901)
(-0.355684 0.0148258 2.66866e-317 0.410575 1.84438e-317 -0.0548906)
(-0.302012 0.000528618 2.2697e-317 0.432536 1.59906e-317 -0.130524)
(-0.138734 -0.0240554 1.80272e-317 0.392609 1.45619e-317 -0.253876)
(0.103564 0.120774 -4.41942e-317 -0.3768 1.95363e-318 0.273236)
(0.216948 0.118963 -2.74801e-317 -0.369001 5.30632e-317 0.152052)
(0.254537 0.111642 -1.11794e-317 -0.330948 7.47479e-317 0.0764109)
(0.259907 0.0849599 1.98662e-318 -0.291471 8.1287e-317 0.0315638)
(0.24078 0.0620837 1.23263e-317 -0.246791 7.95039e-317 0.00601045)
(0.211323 0.0344541 1.98423e-317 -0.20442 7.4471e-317 -0.00690344)
(0.178957 0.0151498 2.5109e-317 -0.166458 6.73604e-317 -0.0124989)
(0.14045 0.0015656 2.85636e-317 -0.127294 6.04954e-317 -0.013156)
(0.104565 -0.00294014 3.06312e-317 -0.0930929 5.32794e-317 -0.0114722)
(0.0614876 0.00381101 3.16658e-317 -0.0533572 4.72153e-317 -0.0081304)
(0.0202063 0.0168259 3.19425e-317 -0.015389 4.1179e-317 -0.00481725)
(-0.0298042 0.042228 3.16624e-317 0.0316214 3.64449e-317 -0.00181719)
(-0.0804805 0.0664341 3.09987e-317 0.0813921 3.17836e-317 -0.00091154)
(-0.137604 0.0995252 3.0002e-317 0.140481 2.84196e-317 -0.0028764)
(-0.195771 0.118274 2.87902e-317 0.206298 2.52094e-317 -0.0105272)
(-0.246291 0.137406 2.72413e-317 0.272577 2.33452e-317 -0.0262859)
(-0.290052 0.125834 2.54301e-317 0.345531 2.18988e-317 -0.0554787)
(-0.288041 0.102819 2.3065e-317 0.39216 2.18053e-317 -0.104119)
(-0.252422 0.0428883 2.01307e-317 0.434508 2.18133e-317 -0.182086)
(-0.111299 -0.0371114 1.63061e-317 0.411283 2.04131e-317 -0.299984)
(0.107438 0.187069 -5.29628e-317 -0.420298 -1.7299e-317 0.312859)
(0.197018 0.184817 -3.93354e-317 -0.373398 2.6451e-317 0.17638)
(0.224353 0.182025 -2.40121e-317 -0.319494 4.80884e-317 0.0951411)
(0.21667 0.148818 -1.07274e-317 -0.264267 5.7207e-317 0.0475969)
(0.201734 0.124645 2.10813e-319 -0.221762 5.89386e-317 0.0200278)
(0.175093 0.0916956 8.65227e-318 -0.180124 5.70953e-317 0.00503103)
(0.155831 0.071066 1.49067e-317 -0.152933 5.30781e-317 -0.00289746)
(0.128758 0.055216 1.94021e-317 -0.122584 4.85302e-317 -0.0061736)
(0.109754 0.0517698 2.24842e-317 -0.102363 4.34988e-317 -0.00739155)
(0.0809563 0.0598178 2.45145e-317 -0.0737678 3.88868e-317 -0.00718849)
(0.056156 0.0772275 2.57659e-317 -0.0488489 3.42848e-317 -0.00730715)
(0.0180073 0.108106 2.64659e-317 -0.0100349 3.03576e-317 -0.00797242)
(-0.021619 0.139742 2.68281e-317 0.0327434 2.65775e-317 -0.0111244)
(-0.0756103 0.182461 2.69559e-317 0.0931311 2.35485e-317 -0.0175208)
(-0.134484 0.208298 2.70658e-317 0.164858 2.07863e-317 -0.0303739)
(-0.197131 0.2382 2.71103e-317 0.249546 1.88954e-317 -0.0524147)
(-0.257651 0.223869 2.73717e-317 0.347832 1.75721e-317 -0.0901813)
(-0.28265 0.203317 2.75629e-317 0.434161 1.74184e-317 -0.151511)
(-0.26932 0.116729 2.79547e-317 0.520234 1.84584e-317 -0.250914)
(-0.136663 0.016882 2.74875e-317 0.545667 2.18788e-317 -0.409004)
(0.0913612 0.281895 -5.91715e-317 -0.42674 -2.94981e-317 0.335378)
(0.149883 0.255307 -4.79395e-317 -0.3387 7.27974e-318 0.188816)
(0.16881 0.233308 -3.37445e-317 -0.271982 2.73614e-317 0.103171)
(0.150751 0.183985 -2.07643e-317 -0.204587 3.7666e-317 0.0538361)
(0.141605 0.147635 -9.46801e-318 -0.16719 4.16651e-317 0.0255852)
(0.120334 0.107016 -4.51403e-319 -0.130326 4.22406e-317 0.00999252)
(0.114611 0.0804179 6.5767e-318 -0.116066 4.05538e-317 0.00145536)
(0.101351 0.0629617 1.18198e-317 -0.0986069 3.79484e-317 -0.00274459)
(0.100384 0.0585936 1.56263e-317 -0.0953776 3.46215e-317 -0.00500657)
(0.0892343 0.0703586 1.82825e-317 -0.0830518 3.13145e-317 -0.00618249)
(0.0849012 0.0922643 2.0057e-317 -0.0770892 2.78432e-317 -0.00781195)
(0.0638025 0.133263 2.11683e-317 -0.0533995 2.47302e-317 -0.010403)
(0.0437397 0.175699 2.18072e-317 -0.0279592 2.1673e-317 -0.0157805)
(-0.000645348 0.235929 2.21255e-317 0.025833 1.91421e-317 -0.0251876)
(-0.0470812 0.277411 2.22671e-317 0.0891437 1.68697e-317 -0.0420625)
(-0.117379 0.329204 2.23516e-317 0.187651 1.53801e-317 -0.0702717)
(-0.18058 0.327195 2.24814e-317 0.298404 1.45797e-317 -0.117824)
(-0.236907 0.320619 2.26943e-317 0.43276 1.51376e-317 -0.195853)
(-0.240703 0.227597 2.29403e-317 0.564884 1.71216e-317 -0.324181)
(-0.139528 0.114113 2.25113e-317 0.671266 2.07256e-317 -0.531738)
(0.0871431 0.390776 -4.52056e-317 -0.428036 -2.8007e-317 0.340893)
(0.120926 0.330571 -3.86628e-317 -0.308084 -2.82705e-318 0.187159)
(0.134889 0.278701 -2.86389e-317 -0.235808 1.3286e-317 0.100919)
(0.107318 0.209911 -1.86807e-317 -0.15994 2.29705e-317 0.0526222)
(0.105639 0.156135 -9.67622e-318 -0.131172 2.79523e-317 0.0255329)
(0.0879011 0.105057 -2.12145e-318 -0.0986226 2.99923e-317 0.0107215)
(0.095063 0.0692804 3.93686e-318 -0.0976067 2.99888e-317 0.00254363)
(0.0922758 0.0455697 8.65939e-318 -0.0906024 2.88694e-317 -0.00167338)
(0.107152 0.0373146 1.22238e-317 -0.102869 2.69447e-317 -0.00428327)
(0.109869 0.0459385 1.48595e-317 -0.103824 2.47214e-317 -0.00604534)
(0.122742 0.0696553 1.67694e-317 -0.114169 2.22237e-317 -0.00857247)
(0.114989 0.112692 1.81455e-317 -0.102679 1.97722e-317 -0.0123096)
(0.109707 0.165448 1.91823e-317 -0.0903493 1.72809e-317 -0.0193575)
(0.0710532 0.237168 2.00265e-317 -0.0400061 1.5014e-317 -0.0310471)
(0.0291813 0.300455 2.09083e-317 0.022389 1.28995e-317 -0.0515703)
(-0.0540669 0.377693 2.19163e-317 0.139625 1.12685e-317 -0.0855578)
(-0.132664 0.407721 2.33772e-317 0.27597 1.02636e-317 -0.143306)
(-0.226991 0.441141 2.51993e-317 0.466446 1.05853e-317 -0.239454)
(-0.259312 0.3808 2.7707e-317 0.661226 1.32386e-317 -0.401915)
(-0.176241 0.314847 2.9881e-317 0.851986 2.083e-317 -0.675745)
(0.0629566 0.503751 -3.80652e-317 -0.365592 -2.5676e-317 0.302636)
(0.0718819 0.398226 -3.38004e-317 -0.235173 -7.96341e-318 0.163291)
(0.0793564 0.306188 -2.61593e-317 -0.165804 4.56896e-318 0.0864474)
(0.0482566 0.215788 -1.80783e-317 -0.0925168 1.30825e-317 0.0442603)
(0.0513025 0.140036 -1.03678e-317 -0.0724979 1.81963e-317 0.0211953)
(0.0394077 0.0796587 -3.73841e-318 -0.0482313 2.09441e-317 0.00882361)
(0.0555829 0.032346 1.76077e-318 -0.0577772 2.19043e-317 0.0021943)
(0.0639224 0.00431469 6.10667e-318 -0.0627021 2.17431e-317 -0.00122026)
(0.0914479 -0.00937762 9.44555e-318 -0.0881009 2.07387e-317 -0.00334697)
(0.10921 -0.00110974 1.19193e-317 -0.104175 1.92836e-317 -0.00503538)
(0.138822 0.0238812 1.36889e-317 -0.131214 1.74517e-317 -0.0076083)
(0.14808 0.0737403 1.48993e-317 -0.136303 1.54872e-317 -0.0117777)
(0.162821 0.138649 1.56868e-317 -0.143355 1.33665e-317 -0.019466)
(0.137532 0.230119 1.61799e-317 -0.105009 1.12819e-317 -0.0325238)
(0.114599 0.321799 1.65023e-317 -0.0593063 9.21725e-318 -0.0552925)
(0.0290526 0.436511 1.68034e-317 0.0645684 7.44508e-318 -0.093621)
(-0.0411908 0.511905 1.72249e-317 0.200432 6.16618e-318 -0.159242)
(-0.16749 0.596262 1.79424e-317 0.437842 6.11051e-318 -0.270352)
(-0.209864 0.584255 1.91358e-317 0.670345 8.34653e-318 -0.460481)
(-0.170643 0.558761 2.05263e-317 0.953772 1.48947e-317 -0.783128)
(0.0401197 0.589346 -2.1645e-317 -0.268534 -1.80239e-317 0.228414)
(0.0287624 0.450847 -2.06421e-317 -0.147613 -8.92057e-318 0.11885)
(0.0337667 0.323369 -1.66688e-317 -0.0943579 -3.78701e-319 0.0605912)
(0.00357005 0.21629 -1.16105e-317 -0.0331181 6.37668e-318 0.0295481)
(0.0132095 0.120159 -6.45035e-318 -0.0263464 1.10581e-317 0.0131369)
(0.00713632 0.05002 -1.6758e-318 -0.011794 1.40102e-317 0.00465765)
(0.031684 -0.00944098 2.41726e-318 -0.0319999 1.55347e-317 0.000315971)
(0.0487399 -0.0459593 5.79487e-318 -0.0469693 1.60297e-317 -0.00177062)
(0.0872664 -0.0675327 8.45553e-318 -0.0841172 1.57199e-317 -0.00314916)
(0.117085 -0.0674144 1.04852e-317 -0.11268 1.48806e-317 -0.0044056)
(0.161498 -0.0452511 1.19722e-317 -0.154676 1.36144e-317 -0.0068221)
(0.185429 -0.000547663 1.30174e-317 -0.174467 1.20918e-317 -0.0109621)
(0.217516 0.0721497 1.37349e-317 -0.198593 1.03356e-317 -0.0189234)
(0.204652 0.16842 1.42102e-317 -0.172168 8.46207e-318 -0.0324849)
(0.19463 0.288713 1.46041e-317 -0.138136 6.48278e-318 -0.0564947)
(0.10669 0.430344 1.49682e-317 -0.0095916 4.56363e-318 -0.0970985)
(0.0298526 0.566217 1.55936e-317 0.13775 2.91897e-318 -0.167602)
(-0.129799 0.715496 1.64794e-317 0.418258 2.16191e-318 -0.288459)
(-0.206691 0.79494 1.8139e-317 0.706361 3.72809e-318 -0.49967)
(-0.201458 0.882697 2.04791e-317 1.07133 1.08678e-317 -0.869868)
(0.00564351 0.646905 -1.55652e-317 -0.123543 -1.32422e-317 0.117899)
(-0.0223661 0.476172 -1.52233e-317 -0.0346138 -8.20074e-318 0.0569799)
(-0.0266921 0.31809 -1.25089e-317 0.000538617 -2.51162e-318 0.0261535)
(-0.0506486 0.199462 -8.71723e-318 0.0400664 2.6315e-318 0.0105823)
(-0.0407469 0.0857849 -4.59108e-318 0.0377285 6.60193e-318 0.0030184)
(-0.0395002 0.00965113 -7.44582e-319 0.0399622 9.38514e-318 -0.000462079)
(-0.0125097 -0.0614158 2.63552e-318 0.0143458 1.10685e-317 -0.0018361)
(0.0126305 -0.103793 5.41096e-318 -0.0104265 1.18694e-317 -0.00220395)
(0.0561016 -0.133744 7.59665e-318 -0.0537007 1.19419e-317 -0.00240085)
(0.0968739 -0.138914 9.22118e-318 -0.0939671 1.1479e-317 -0.00290678)
(0.150563 -0.120389 1.0342e-317 -0.145951 1.05739e-317 -0.00461195)
(0.190034 -0.0760611 1.1014e-317 -0.1818 9.35232e-318 -0.00823335)
(0.237875 0.00422657 1.12857e-317 -0.222348 7.84462e-318 -0.0155272)
(0.244065 0.114361 1.1197e-317 -0.215493 6.12953e-318 -0.0285719)
(0.256543 0.265634 1.07745e-317 -0.20468 4.22165e-318 -0.0518625)
(0.1822 0.449029 1.00668e-317 -0.0901324 2.22995e-318 -0.0920676)
(0.128781 0.651705 9.09963e-318 0.0336344 3.23396e-319 -0.162415)
(-0.0427955 0.87827 8.06924e-318 0.327497 -1.04433e-318 -0.284701)
(-0.112077 1.05086 7.18552e-318 0.612045 -7.87842e-319 -0.499968)
(-0.158798 1.22049 7.34469e-318 1.03444 2.98768e-318 -0.875644)
(-0.0313661 0.655464 -4.92574e-318 0.0444969 -7.24296e-318 -0.0131307)
(-0.0720725 0.478766 -5.96607e-318 0.0869556 -6.75991e-318 -0.0148831)
(-0.0789443 0.305988 -5.21938e-318 0.0919439 -3.64596e-318 -0.0129996)
(-0.0937253 0.181794 -3.20048e-318 0.104327 -2.82161e-320 -0.010602)
(-0.0814852 0.0567868 -7.54725e-319 0.0897111 3.25339e-318 -0.00822587)
(-0.0731881 -0.0258842 1.75872e-318 0.0794104 5.82211e-318 -0.00622231)
(-0.04394 -0.106573 4.03003e-318 0.0484226 7.58909e-318 -0.00448265)
(-0.0126204 -0.15743 5.96814e-318 0.0156368 8.61572e-318 -0.00301641)
(0.0351953 -0.196318 7.50763e-318 -0.0331557 8.99073e-318 -0.00203963)
(0.0842894 -0.212351 8.652e-318 -0.0826309 8.84782e-318 -0.00165852)
(0.14707 -0.201147 9.41096e-318 -0.144457 8.27293e-318 -0.00261267)
(0.199872 -0.168897 9.80452e-318 -0.194483 7.36569e-318 -0.00538983)
(0.263791 -0.0883773 9.8605e-318 -0.252058 6.16648e-318 -0.0117321)
(0.288769 0.0144006 9.57676e-318 -0.265385 4.73196e-318 -0.0233842)
(0.321725 0.188169 8.99594e-318 -0.276949 3.07762e-318 -0.0447758)
(0.262573 0.383834 8.06131e-318 -0.180664 1.24896e-318 -0.0819087)
(0.217154 0.654408 6.87727e-318 -0.0693935 -6.46989e-319 -0.14776)
(0.0302176 0.941354 5.42093e-318 0.233097 -2.41631e-318 -0.263315)
(-0.0765653 1.24047 4.01982e-318 0.547917 -3.19384e-318 -0.471352)
(-0.181018 1.55826 3.72966e-318 1.03184 -1.3235e-318 -0.850826)
(-0.0638777 0.621718 -4.42285e-318 0.21207 -4.57491e-318 -0.148193)
(-0.118534 0.443868 -4.34321e-318 0.206369 -5.1568e-318 -0.087835)
(-0.139775 0.268166 -3.06978e-318 0.191573 -3.61785e-318 -0.0517973)
(-0.143858 0.148124 -1.13768e-318 0.174882 -1.15333e-318 -0.0310243)
(-0.13494 0.0183916 1.03598e-318 0.153689 1.46766e-318 -0.0187486)
(-0.118648 -0.0654379 3.03675e-318 0.130068 3.71086e-318 -0.0114201)
(-0.0912873 -0.153043 4.80916e-318 0.0979535 5.3752e-318 -0.00666629)
(-0.0548701 -0.209185 6.24861e-318 0.0583201 6.42863e-318 -0.00344992)
(-0.0089944 -0.255868 7.35661e-318 0.0102182 6.91753e-318 -0.00122378)
(0.045476 -0.279821 8.11878e-318 -0.045579 6.93439e-318 0.000103052)
(0.107915 -0.276001 8.53592e-318 -0.108111 6.55243e-318 0.000195948)
(0.171288 -0.251405 8.59789e-318 -0.169812 5.85108e-318 -0.00147533)
(0.240824 -0.172072 8.28537e-318 -0.234641 4.87421e-318 -0.00618312)
(0.287134 -0.0673175 7.56386e-318 -0.271455 3.66797e-318 -0.0156785)
(0.337506 0.12698 6.36205e-318 -0.30405 2.25861e-318 -0.0334555)
(0.310682 0.354515 4.62646e-318 -0.245662 6.72527e-319 -0.0650202)
(0.29797 0.69169 2.19027e-318 -0.176879 -1.02296e-318 -0.121091)
(0.136156 1.06404 -8.084e-319 0.0842268 -2.80536e-318 -0.220382)
(0.0636865 1.4796 -4.52671e-318 0.335388 -4.42471e-318 -0.399074)
(-0.0802183 1.90412 -7.30493e-318 0.797857 -6.09749e-318 -0.717639)
(-0.106708 0.557463 -4.49027e-319 0.386684 -2.93691e-318 -0.279976)
(-0.162055 0.397239 -4.46388e-320 0.317028 -5.55258e-318 -0.154974)
(-0.186702 0.232047 1.06751e-318 0.272905 -4.94356e-318 -0.0862024)
(-0.179112 0.114312 2.42095e-318 0.22775 -2.97568e-318 -0.0486379)
(-0.171954 -0.0139372 3.73858e-318 0.199609 -5.17178e-319 -0.0276549)
(-0.148975 -0.100301 4.92727e-318 0.164768 1.70979e-318 -0.0157928)
(-0.123596 -0.1907 5.94582e-318 0.132164 3.4354e-318 -0.00856844)
(-0.0837814 -0.251579 6.78332e-318 0.0876847 4.5993e-318 -0.00390326)
(-0.0396268 -0.303831 7.41028e-318 0.0403066 5.23567e-318 -0.000679751)
(0.017674 -0.336327 7.80619e-318 -0.0191931 5.43122e-318 0.00151902)
(0.081218 -0.341389 7.94477e-318 -0.0837482 5.26117e-318 0.00253015)
(0.15225 -0.331154 7.80048e-318 -0.154312 4.80378e-318 0.00206202)
(0.231338 -0.261106 7.34763e-318 -0.230341 4.11105e-318 -0.00099713)
(0.297221 -0.175203 6.5381e-318 -0.289335 3.23293e-318 -0.00788656)
(0.370554 0.0227202 5.33943e-318 -0.349059 2.20516e-318 -0.0214951)
(0.375218 0.236382 3.65398e-318 -0.32948 1.04404e-318 -0.0457384)
(0.388026 0.620038 1.42775e-318 -0.299062 -2.19004e-319 -0.0889636)
(0.236134 1.01127 -1.38072e-318 -0.0709294 -1.72684e-318 -0.165204)
(0.132148 1.54908 -4.82994e-318 0.173491 -3.59071e-318 -0.305639)
(-0.105199 2.09946 -7.70608e-318 0.683689 -6.55196e-318 -0.57849)
(-0.124674 0.439887 -2.78504e-318 0.505554 -1.98714e-318 -0.38088)
(-0.200115 0.310988 -2.80945e-319 0.40696 -4.65637e-318 -0.206844)
(-0.238789 0.171655 2.43822e-318 0.350628 -4.602e-318 -0.111839)
(-0.221717 0.07027 4.0807e-318 0.28288 -2.97266e-318 -0.0611625)
(-0.215549 -0.0488995 5.29879e-318 0.249239 -8.047e-319 -0.0336906)
(-0.184658 -0.131583 6.06495e-318 0.203251 1.1854e-318 -0.0185936)
(-0.161235 -0.22077 6.65966e-318 0.170869 2.71739e-318 -0.00963393)
(-0.119143 -0.282974 7.08682e-318 0.123106 3.74881e-318 -0.00396273)
(-0.0814192 -0.337919 7.37305e-318 0.0813638 4.3191e-318 5.53291e-05)
(-0.0253685 -0.376144 7.48665e-318 0.0223987 4.50877e-318 0.00296975)
(0.0283934 -0.388512 7.3944e-318 -0.0333154 4.38918e-318 0.00492198)
(0.101001 -0.389079 7.05346e-318 -0.10663 4.0294e-318 0.00562967)
(0.171671 -0.329246 6.41339e-318 -0.176118 3.48247e-318 0.0044466)
(0.253272 -0.254282 5.41831e-318 -0.253585 2.79772e-318 0.00031358)
(0.328184 -0.0571617 3.97386e-318 -0.319742 2.02709e-318 -0.00844111)
(0.376762 0.165596 2.02987e-318 -0.352287 1.20104e-318 -0.0244748)
(0.414389 0.589218 -6.37745e-319 -0.362318 3.56518e-319 -0.0520712)
(0.335519 1.05113 -3.88466e-318 -0.23641 -6.62453e-319 -0.0991087)
(0.288613 1.70037 -8.12205e-318 -0.108075 -2.38234e-318 -0.180538)
(0.0733005 2.37571 -1.21545e-317 0.246186 -6.63714e-318 -0.319487)
(-0.165822 0.346 9.28231e-319 0.627179 -5.54609e-318 -0.461357)
(-0.220454 0.23159 3.31823e-318 0.460795 -9.38664e-318 -0.240341)
(-0.263941 0.113638 5.70597e-318 0.390293 -8.34502e-318 -0.126352)
(-0.236149 0.0153154 6.62776e-318 0.303694 -5.5996e-318 -0.0675447)
(-0.233404 -0.0928824 6.98924e-318 0.2699 -2.78163e-318 -0.0364959)
(-0.197482 -0.172247 7.06957e-318 0.217283 -4.22574e-319 -0.0198016)
(-0.177387 -0.255325 7.09482e-318 0.18744 1.29444e-318 -0.0100537)
(-0.134981 -0.314594 7.11366e-318 0.138895 2.45495e-318 -0.00391368)
(-0.103114 -0.368046 7.09649e-318 0.102608 3.14865e-318 0.000506852)
(-0.0505622 -0.407784 6.99896e-318 0.0466612 3.48706e-318 0.00390098)
(-0.00365531 -0.426387 6.76557e-318 -0.00285689 3.55188e-318 0.00651221)
(0.0671809 -0.437499 6.34696e-318 -0.0754094 3.41522e-318 0.00822853)
(0.136764 -0.393984 5.70036e-318 -0.145355 3.13343e-318 0.00859117)
(0.22938 -0.342867 4.78279e-318 -0.236397 2.75824e-318 0.00701696)
(0.320984 -0.167634 3.56522e-318 -0.323574 2.34138e-318 0.0025902)
(0.404927 0.0150314 2.01104e-318 -0.399405 1.91739e-318 -0.0055226)
(0.482545 0.435171 8.97816e-320 -0.46447 1.49956e-318 -0.018075)
(0.435539 0.843983 -2.17725e-318 -0.400198 9.15533e-319 -0.0353403)
(0.383307 1.55644 -4.88985e-318 -0.323326 -4.61047e-319 -0.0599803)
(0.0184836 2.24016 -7.72644e-318 0.100256 -4.18885e-318 -0.11874)
(-0.164249 0.174227 5.72533e-318 0.64783 -3.90905e-320 -0.48358)
(-0.251055 0.117705 7.71589e-318 0.498897 -5.26941e-318 -0.247842)
(-0.2936 0.0491718 9.38766e-318 0.421161 -5.09916e-318 -0.127561)
(-0.259494 -0.0277445 9.13509e-318 0.326499 -2.85692e-318 -0.0670056)
(-0.249072 -0.113874 8.56104e-318 0.284816 -6.84143e-319 -0.0357436)
(-0.205892 -0.184716 7.91821e-318 0.225112 1.04092e-318 -0.0192201)
(-0.185889 -0.256051 7.44774e-318 0.195527 2.20202e-318 -0.00963724)
(-0.14411 -0.310002 7.11555e-318 0.147701 2.9173e-318 -0.00359054)
(-0.121175 -0.357684 6.85638e-318 0.120283 3.27975e-318 0.000891567)
(-0.0760504 -0.396307 6.59253e-318 0.0715776 3.38206e-318 0.00447277)
(-0.0455804 -0.417344 6.24867e-318 0.0380448 3.29197e-318 0.00753558)
(0.016281 -0.434963 5.76322e-318 -0.0262532 3.06439e-318 0.00997214)
(0.0643566 -0.405586 5.08087e-318 -0.0760038 2.74752e-318 0.0116471)
(0.158666 -0.370749 4.16185e-318 -0.170812 2.38689e-318 0.0121457)
(0.229168 -0.220322 2.94691e-318 -0.240663 2.03881e-318 0.0114948)
(0.352339 -0.0545198 1.4557e-318 -0.362331 1.75301e-318 0.00999146)
(0.422596 0.352734 -4.2752e-319 -0.433411 1.56074e-318 0.0108147)
(0.496365 0.793867 -2.49682e-318 -0.517653 1.37954e-318 0.0212873)
(0.489506 1.57022 -4.99893e-318 -0.552318 5.29441e-319 0.0628125)
(0.298132 2.41637 -7.75241e-318 -0.489762 -2.5862e-318 0.191631)
(-0.189381 0.0989449 1.39899e-317 0.662037 -1.06845e-317 -0.472656)
(-0.220285 0.0195383 1.27556e-317 0.450795 -1.47395e-317 -0.23051)
(-0.270306 -0.0422414 1.15519e-317 0.385936 -1.1589e-317 -0.11563)
(-0.228911 -0.116375 9.83639e-318 0.288804 -7.03066e-318 -0.0598932)
(-0.223114 -0.190856 8.34336e-318 0.254855 -3.79454e-318 -0.0317404)
(-0.180393 -0.249028 7.27956e-318 0.197465 -1.48311e-318 -0.0170719)
(-0.164287 -0.307642 6.56229e-318 0.172853 1.05928e-320 -0.00856662)
(-0.126849 -0.349833 6.10985e-318 0.129998 9.98922e-319 -0.00314923)
(-0.111016 -0.389245 5.7831e-318 0.110033 1.6282e-318 0.000983477)
(-0.0746114 -0.42186 5.49433e-318 0.0701868 2.01761e-318 0.00442462)
(-0.0544433 -0.443905 5.16132e-318 0.0468907 2.23856e-318 0.00755258)
(-0.00365793 -0.465648 4.72972e-318 -0.00667437 2.3437e-318 0.0103323)
(0.0345862 -0.453392 4.16097e-318 -0.0473264 2.37274e-318 0.0127402)
(0.122439 -0.440638 3.43735e-318 -0.137056 2.35974e-318 0.0146169)
(0.19568 -0.332619 2.56633e-318 -0.212071 2.33794e-318 0.0163916)
(0.331596 -0.222497 1.5907e-318 -0.350913 2.33653e-318 0.0193171)
(0.44289 0.116573 5.92849e-319 -0.471632 2.34616e-318 0.0287416)
(0.537986 0.427523 -3.41108e-319 -0.595736 2.2831e-318 0.0577502)
(0.588519 1.14476 -1.05901e-318 -0.728986 1.64346e-318 0.140467)
(0.155135 1.74213 -2.11628e-318 -0.481729 -4.28602e-319 0.326595)
(-0.165625 -0.0927659 2.80944e-317 0.553418 1.1413e-317 -0.387793)
(-0.242928 -0.09229 2.24119e-317 0.42846 1.82915e-318 -0.185532)
(-0.257582 -0.0769155 1.6424e-317 0.349114 6.49884e-319 -0.0915323)
(-0.213042 -0.129539 1.21631e-317 0.260106 1.74728e-318 -0.0470644)
(-0.19197 -0.16331 9.18133e-318 0.216915 2.66408e-318 -0.024945)
(-0.143587 -0.209781 7.41011e-318 0.157116 3.22988e-318 -0.0135286)
(-0.128981 -0.244003 6.31325e-318 0.135829 3.47839e-318 -0.00684794)
(-0.0948392 -0.275717 5.66366e-318 0.0973695 3.51141e-318 -0.0025303)
(-0.0897197 -0.300051 5.22703e-318 0.0888288 3.40038e-318 0.000890891)
(-0.0637835 -0.322713 4.88491e-318 0.059948 3.19158e-318 0.00383547)
(-0.0620839 -0.33817 4.53958e-318 0.0554203 2.91973e-318 0.00666357)
(-0.0269746 -0.352209 4.13221e-318 0.0176478 2.6116e-318 0.0093268)
(-0.0172094 -0.347518 3.6153e-318 0.00528042 2.29405e-318 0.011929)
(0.0559762 -0.335771 2.96827e-318 -0.0703351 1.99351e-318 0.0143589)
(0.0874453 -0.264369 2.16838e-318 -0.104756 1.74583e-318 0.0173109)
(0.238981 -0.173754 1.27874e-318 -0.261107 1.58803e-318 0.0221253)
(0.291934 0.0846154 2.9096e-319 -0.326961 1.52613e-318 0.0350272)
(0.534425 0.382255 -5.62854e-319 -0.605912 1.555e-318 0.0714867)
(0.538879 1.03656 -1.28633e-318 -0.721888 1.25613e-318 0.183009)
(0.568744 1.8896 -2.2298e-318 -1.10319 1.45404e-320 0.534446)
(-0.12881 -0.115074 2.17171e-317 0.392457 -1.63353e-317 -0.263646)
(-0.100997 -0.197143 1.56139e-317 0.221113 -1.53369e-317 -0.120116)
(-0.134215 -0.231514 9.994e-318 0.192623 -1.09689e-317 -0.0584076)
(-0.0981602 -0.270667 6.91645e-318 0.128204 -6.73086e-318 -0.0300437)
(-0.090348 -0.312072 5.01882e-318 0.106399 -4.39802e-318 -0.0160513)
(-0.0602993 -0.334065 4.00026e-318 0.0691659 -2.83449e-318 -0.00886659)
(-0.0514196 -0.360808 3.40853e-318 0.0559932 -1.82369e-318 -0.00457356)
(-0.0304907 -0.375731 3.07982e-318 0.0322347 -1.07425e-318 -0.00174401)
(-0.0278285 -0.393104 2.8641e-318 0.0272311 -4.96981e-319 0.000597353)
(-0.0128125 -0.408611 2.69239e-318 0.0101345 -2.5479e-320 0.00267796)
(-0.0129711 -0.422985 2.50837e-318 0.00821144 3.70767e-319 0.00475963)
(0.00745237 -0.442009 2.2827e-318 -0.0142575 7.11099e-319 0.00680511)
(0.013484 -0.449718 1.9975e-318 -0.022408 1.00485e-318 0.00892397)
(0.0596398 -0.464376 1.65593e-318 -0.0706956 1.25829e-318 0.0110558)
(0.0872905 -0.43719 1.28344e-318 -0.101055 1.46612e-318 0.0137645)
(0.187928 -0.416146 9.35676e-319 -0.205954 1.62409e-318 0.0180264)
(0.264082 -0.266639 7.33589e-319 -0.292704 1.71113e-318 0.0286218)
(0.406532 -0.150815 7.26953e-319 -0.464165 1.68754e-318 0.0576333)
(0.560447 0.288227 1.19221e-318 -0.706721 1.4631e-318 0.146274)
(0.178067 0.48051 1.45243e-318 -0.568769 9.56931e-319 0.390702)
(-0.0307241 -0.321306 2.99236e-317 0.113105 3.32048e-317 -0.0823806)
(-0.103942 -0.269359 2.09223e-317 0.144743 1.74038e-317 -0.0408009)
(-0.0619163 -0.163884 1.1235e-317 0.0820613 1.19638e-317 -0.020145)
(-0.0276956 -0.183698 6.99366e-318 0.0382401 8.99618e-318 -0.0105445)
(-0.00961268 -0.145357 4.42834e-318 0.0153691 7.70039e-318 -0.00575643)
(0.0242086 -0.163243 3.28116e-318 -0.0209116 6.73938e-318 -0.00329691)
(0.0244842 -0.147859 2.6255e-318 -0.0227236 6.03462e-318 -0.00176063)
(0.041371 -0.155725 2.2906e-318 -0.0406496 5.38125e-318 -0.00072144)
(0.0317737 -0.147138 2.07527e-318 -0.0319658 4.77539e-318 0.000192021)
(0.038503 -0.144045 1.92265e-318 -0.0395311 4.18656e-318 0.00102815)
(0.021998 -0.137553 1.78067e-318 -0.0238981 3.62313e-318 0.00190015)
(0.0286384 -0.120491 1.62323e-318 -0.031422 3.08965e-318 0.0027836)
(0.00704463 -0.113565 1.42856e-318 -0.0107835 2.60293e-318 0.00373889)
(0.0313682 -0.0744564 1.18607e-318 -0.0360985 2.17905e-318 0.00473028)
(0.00780055 -0.0632436 8.78488e-319 -0.0137979 1.83246e-318 0.00599736)
(0.0949684 0.0134134 5.45463e-319 -0.102803 1.57983e-318 0.00783491)
(0.0706909 0.0386193 1.75976e-319 -0.0828146 1.37613e-318 0.0121237)
(0.334806 0.177686 -5.32059e-320 -0.358549 1.18594e-318 0.0237423)
(0.26059 0.272511 -1.0908e-319 -0.327899 7.88183e-319 0.067309)
(0.720313 0.82414 -2.18333e-319 -1.0177 -1.29257e-319 0.297388)
)
;

boundaryField
{
    cavity
    {
        type            mySigma;
    }
    lid
    {
        type            fixedValue;
        value           uniform (0.1 -0.3 0 -0.1 0 0);
    }
    frontAndBack
    {
        type            empty;
    }
}


// ************************************************************************* //
