/*--------------------------------*- C++ -*----------------------------------*\
| =========                 |                                                 |
| \\      /  F ield         | foam-extend: Open Source CFD                    |
|  \\    /   O peration     | Version:  3.0                                   |
|   \\  /    A nd           | Web:         http://www.extend-project.de       |
|    \\/     M anipulation  |                                                 |
\*---------------------------------------------------------------------------*/
FoamFile
{
    version     2.0;
    format      ascii;
    class       volScalarField;
    location    "28";
    object      p;
}
// * * * * * * * * * * * * * * * * * * * * * * * * * * * * * * * * * * * * * //

dimensions      [0 0 0 0 0 0 0];

internalField   nonuniform List<scalar> 
224
(
-0.257529
-0.200625
-0.19757
-0.179385
-0.183105
-0.179247
-0.175239
-0.247637
-0.192919
-0.18998
-0.172493
-0.17607
-0.17236
-0.168505
-0.228219
-0.177792
-0.175084
-0.158969
-0.162265
-0.158846
-0.155294
-0.20004
-0.155839
-0.153465
-0.139339
-0.142228
-0.139231
-0.136118
-0.164165
-0.127891
-0.125943
-0.114351
-0.116722
-0.114263
-0.111708
-0.12199
-0.0950346
-0.093587
-0.0849723
-0.0867341
-0.0849063
-0.0830076
-0.0751174
-0.0585197
-0.0576286
-0.0523243
-0.0534093
-0.0522841
-0.051115
-0.0253679
-0.0197625
-0.0194612
-0.0176696
-0.0180358
-0.0176555
-0.0172606
0.025366
0.0197607
0.0194596
0.0176681
0.0180344
0.0176543
0.0172595
0.0751155
0.0585179
0.0576269
0.0523227
0.0534079
0.0522828
0.0511138
0.121988
0.0950327
0.0935852
0.0849706
0.0867325
0.0849049
0.0830062
0.164163
0.127889
0.125941
0.114349
0.11672
0.114261
0.111706
0.200038
0.155837
0.153463
0.139337
0.142226
0.139229
0.136116
0.228217
0.17779
0.175082
0.158966
0.162263
0.158844
0.155292
0.247635
0.192916
0.189978
0.172491
0.176067
0.172357
0.168503
0.257527
0.200623
0.197568
0.179382
0.183102
0.179244
0.175236
0.257532
0.200626
0.197571
0.179384
0.183104
0.179246
0.175237
0.24763
0.192913
0.189975
0.172489
0.176065
0.172356
0.168502
0.228222
0.177793
0.175085
0.158968
0.162265
0.158845
0.155293
0.200033
0.155834
0.15346
0.139335
0.142224
0.139228
0.136114
0.164167
0.127892
0.125944
0.114351
0.116722
0.114262
0.111707
0.121983
0.0950293
0.0935822
0.0849683
0.0867304
0.0849031
0.0830045
0.0751202
0.058521
0.0576295
0.0523245
0.0534094
0.0522838
0.0511145
0.0253611
0.0197573
0.0194566
0.0176658
0.0180323
0.0176525
0.0172577
-0.0253632
-0.0197593
-0.0194586
-0.0176678
-0.0180343
-0.0176545
-0.0172599
-0.0751224
-0.0585231
-0.0576316
-0.0523266
-0.0534115
-0.0522859
-0.0511167
-0.121985
-0.0950314
-0.0935843
-0.0849704
-0.0867326
-0.0849053
-0.0830068
-0.16417
-0.127894
-0.125946
-0.114353
-0.116724
-0.114265
-0.111709
-0.200036
-0.155836
-0.153463
-0.139337
-0.142227
-0.13923
-0.136117
-0.228224
-0.177795
-0.175087
-0.158971
-0.162267
-0.158848
-0.155296
-0.247632
-0.192915
-0.189978
-0.172491
-0.176068
-0.172358
-0.168504
-0.257534
-0.200629
-0.197573
-0.179387
-0.183106
-0.179248
-0.17524
)
;

boundaryField
{
    out
    {
        type            implicitExtrapolation;
    }
    in
    {
        type            implicitExtrapolation;
    }
    frontAndBack
    {
        type            empty;
    }
}


// ************************************************************************* //
