/*--------------------------------*- C++ -*----------------------------------*\
| =========                 |                                                 |
| \\      /  F ield         | foam-extend: Open Source CFD                    |
|  \\    /   O peration     | Version:  3.0                                   |
|   \\  /    A nd           | Web:         http://www.extend-project.de       |
|    \\/     M anipulation  |                                                 |
\*---------------------------------------------------------------------------*/
FoamFile
{
    version     2.0;
    format      ascii;
    class       volScalarField;
    location    "61";
    object      p;
}
// * * * * * * * * * * * * * * * * * * * * * * * * * * * * * * * * * * * * * //

dimensions      [0 0 0 0 0 0 0];

internalField   nonuniform List<scalar> 
7680
(
-0.223837
-0.211597
-0.202423
-0.192743
-0.185622
-0.177839
-0.172252
-0.165916
-0.161501
-0.156292
-0.15279
-0.148479
-0.1457
-0.142119
-0.139923
-0.136942
-0.135221
-0.132741
-0.131411
-0.129355
-0.12835
-0.126656
-0.125925
-0.124547
-0.124049
-0.122949
-0.122654
-0.121801
-0.121685
-0.121048
-0.121085
-0.120617
-0.120766
-0.12038
-0.120549
-0.120048
-0.120027
-0.118954
-0.118232
-0.115384
-0.223396
-0.211178
-0.202018
-0.19236
-0.185249
-0.17748
-0.171895
-0.165564
-0.161144
-0.155936
-0.152425
-0.148112
-0.14532
-0.141732
-0.139517
-0.136526
-0.13478
-0.132286
-0.130925
-0.128849
-0.127807
-0.126089
-0.125314
-0.123908
-0.123361
-0.12223
-0.121884
-0.121001
-0.120836
-0.120178
-0.120181
-0.119715
-0.119868
-0.119527
-0.119774
-0.119389
-0.119573
-0.118703
-0.118366
-0.115712
-0.223087
-0.210882
-0.201732
-0.192082
-0.184979
-0.177216
-0.171638
-0.165312
-0.160898
-0.155691
-0.152183
-0.147869
-0.145078
-0.141485
-0.13927
-0.136269
-0.134519
-0.13201
-0.13064
-0.128544
-0.127487
-0.125742
-0.124945
-0.123504
-0.122926
-0.121751
-0.121363
-0.12043
-0.120214
-0.119501
-0.119447
-0.118934
-0.119029
-0.118667
-0.118863
-0.118508
-0.11862
-0.11789
-0.117378
-0.115529
-0.222162
-0.21001
-0.200897
-0.191287
-0.184209
-0.176475
-0.170912
-0.164605
-0.160198
-0.155005
-0.151496
-0.147189
-0.14439
-0.140799
-0.138569
-0.135563
-0.133791
-0.131271
-0.129871
-0.127756
-0.126659
-0.124888
-0.124039
-0.122561
-0.121918
-0.120695
-0.120228
-0.119233
-0.118919
-0.118135
-0.117966
-0.117376
-0.117347
-0.11692
-0.117001
-0.116635
-0.116689
-0.116089
-0.115675
-0.114267
-0.221389
-0.209276
-0.200192
-0.190611
-0.183555
-0.175843
-0.170298
-0.164009
-0.159615
-0.154434
-0.150936
-0.146635
-0.143844
-0.140254
-0.138025
-0.135016
-0.133241
-0.13071
-0.1293
-0.127167
-0.126052
-0.124251
-0.123373
-0.121853
-0.121165
-0.119884
-0.119351
-0.118279
-0.117875
-0.116992
-0.116702
-0.115995
-0.115817
-0.115271
-0.115206
-0.114774
-0.114797
-0.114294
-0.11424
-0.112866
-0.219982
-0.207949
-0.198921
-0.189402
-0.182387
-0.174723
-0.169205
-0.162951
-0.158574
-0.153419
-0.149929
-0.145646
-0.142854
-0.139274
-0.137038
-0.134031
-0.132239
-0.129703
-0.128267
-0.126119
-0.124967
-0.12314
-0.122211
-0.120652
-0.119894
-0.118557
-0.11793
-0.116779
-0.116248
-0.11526
-0.114801
-0.11396
-0.11356
-0.112864
-0.112523
-0.111969
-0.111691
-0.111228
-0.110967
-0.110201
-0.218749
-0.20678
-0.1978
-0.18833
-0.181352
-0.173726
-0.168238
-0.162014
-0.15766
-0.152528
-0.149055
-0.144789
-0.142009
-0.138439
-0.136209
-0.133205
-0.131414
-0.128872
-0.12743
-0.125268
-0.124099
-0.122248
-0.12129
-0.119691
-0.118888
-0.117493
-0.116796
-0.115563
-0.114929
-0.113828
-0.113224
-0.112236
-0.111639
-0.110769
-0.110181
-0.109468
-0.108929
-0.108469
-0.10808
-0.108079
-0.216866
-0.205004
-0.196101
-0.186714
-0.179793
-0.172232
-0.166784
-0.16061
-0.156285
-0.151191
-0.147736
-0.143499
-0.140727
-0.137177
-0.134947
-0.131954
-0.130154
-0.127616
-0.126155
-0.123987
-0.122788
-0.120921
-0.119919
-0.11829
-0.117426
-0.115984
-0.115201
-0.113899
-0.113148
-0.111949
-0.111182
-0.110067
-0.109252
-0.108234
-0.107369
-0.106537
-0.105702
-0.10533
-0.104829
-0.105729
-0.215179
-0.203406
-0.194569
-0.185251
-0.178382
-0.170875
-0.165469
-0.159338
-0.155046
-0.149986
-0.146556
-0.142344
-0.139592
-0.13606
-0.133843
-0.130861
-0.129067
-0.126533
-0.125071
-0.122898
-0.121692
-0.119809
-0.118789
-0.117134
-0.116238
-0.114754
-0.113922
-0.112559
-0.111734
-0.110452
-0.109581
-0.108359
-0.107406
-0.106269
-0.105243
-0.10433
-0.103366
-0.103099
-0.102681
-0.104244
-0.212829
-0.201188
-0.19245
-0.183235
-0.17644
-0.169015
-0.163663
-0.157597
-0.153344
-0.148336
-0.144934
-0.140762
-0.138027
-0.134526
-0.132318
-0.129358
-0.127565
-0.125044
-0.123575
-0.121408
-0.120185
-0.118301
-0.117254
-0.115588
-0.114653
-0.113148
-0.112263
-0.110866
-0.10997
-0.108642
-0.107679
-0.1064
-0.105335
-0.104145
-0.103003
-0.102083
-0.101051
-0.100922
-0.100608
-0.102604
-0.210695
-0.199168
-0.190514
-0.181388
-0.174658
-0.167304
-0.162005
-0.155996
-0.151786
-0.146823
-0.143454
-0.139319
-0.13661
-0.133137
-0.130948
-0.12801
-0.12623
-0.123724
-0.122262
-0.120104
-0.118884
-0.117
-0.115952
-0.11428
-0.113339
-0.111822
-0.110925
-0.109511
-0.108598
-0.107248
-0.106266
-0.104967
-0.103888
-0.102691
-0.101557
-0.100669
-0.099702
-0.0996736
-0.0995162
-0.101635
-0.207888
-0.19652
-0.187983
-0.178982
-0.172342
-0.165087
-0.159856
-0.153927
-0.149767
-0.144869
-0.141538
-0.137455
-0.134773
-0.131342
-0.129171
-0.126267
-0.124498
-0.122018
-0.120561
-0.118423
-0.117202
-0.115336
-0.114282
-0.112624
-0.111675
-0.110171
-0.109266
-0.107867
-0.10695
-0.105621
-0.104645
-0.103379
-0.102325
-0.101184
-0.100108
-0.0993007
-0.0984343
-0.0984841
-0.0984349
-0.100466
-0.205318
-0.194086
-0.185652
-0.176759
-0.170199
-0.16303
-0.157863
-0.152005
-0.147897
-0.143056
-0.139767
-0.13573
-0.133082
-0.129689
-0.127546
-0.124672
-0.122925
-0.120471
-0.119033
-0.116916
-0.115712
-0.113863
-0.112827
-0.111187
-0.11026
-0.108777
-0.107902
-0.106532
-0.10566
-0.104375
-0.103467
-0.102266
-0.101316
-0.100261
-0.0993295
-0.0986151
-0.0979147
-0.0979846
-0.0980237
-0.0997618
-0.202067
-0.191019
-0.182722
-0.173974
-0.167519
-0.160466
-0.15538
-0.149615
-0.14557
-0.140806
-0.137565
-0.133592
-0.130981
-0.127642
-0.125527
-0.122698
-0.120973
-0.118558
-0.117137
-0.115055
-0.113867
-0.112053
-0.111033
-0.109431
-0.108525
-0.107087
-0.106246
-0.104935
-0.104118
-0.102911
-0.10209
-0.100995
-0.100171
-0.0992446
-0.0984797
-0.0978804
-0.0973486
-0.0974099
-0.0974852
-0.098813
-0.19907
-0.188182
-0.180005
-0.171384
-0.165023
-0.158073
-0.153062
-0.147381
-0.143396
-0.138701
-0.13551
-0.131595
-0.129025
-0.125733
-0.123653
-0.120865
-0.119171
-0.116791
-0.115399
-0.11335
-0.112191
-0.11041
-0.109425
-0.10786
-0.106998
-0.105608
-0.104828
-0.103582
-0.102852
-0.101735
-0.101039
-0.100059
-0.0994063
-0.0986133
-0.0980545
-0.0975605
-0.0972167
-0.0972249
-0.0973134
-0.0981315
-0.195388
-0.184708
-0.176688
-0.16823
-0.16199
-0.155172
-0.150255
-0.144682
-0.140771
-0.136166
-0.133033
-0.129193
-0.126669
-0.123442
-0.121399
-0.118667
-0.117004
-0.114676
-0.113311
-0.111311
-0.11018
-0.108449
-0.107496
-0.105987
-0.105168
-0.103844
-0.103125
-0.101963
-0.101322
-0.100313
-0.0997442
-0.0988996
-0.0984156
-0.0977706
-0.0974101
-0.0970244
-0.0968488
-0.0967902
-0.0968584
-0.0971433
-0.191978
-0.181481
-0.173597
-0.165285
-0.159153
-0.152452
-0.147621
-0.142144
-0.138304
-0.133778
-0.130703
-0.12693
-0.124455
-0.121285
-0.119284
-0.116602
-0.114976
-0.112692
-0.111364
-0.109407
-0.108314
-0.106627
-0.105717
-0.104258
-0.103494
-0.102231
-0.101586
-0.100502
-0.0999627
-0.0990545
-0.0986219
-0.0979009
-0.0975909
-0.0970764
-0.0969107
-0.0966098
-0.0965887
-0.096441
-0.0964729
-0.0962281
-0.187882
-0.177615
-0.169906
-0.161777
-0.15578
-0.149227
-0.144503
-0.139148
-0.135391
-0.130967
-0.127959
-0.124272
-0.121852
-0.118757
-0.116802
-0.114185
-0.1126
-0.110376
-0.109085
-0.107186
-0.106129
-0.104501
-0.103634
-0.102237
-0.101525
-0.100335
-0.0997575
-0.0987608
-0.098312
-0.0975096
-0.0971968
-0.096598
-0.0964369
-0.096045
-0.0960407
-0.0958144
-0.0959128
-0.0956805
-0.0956612
-0.094949
-0.184073
-0.174011
-0.166455
-0.158488
-0.152612
-0.146191
-0.141564
-0.136317
-0.132639
-0.128306
-0.125363
-0.121753
-0.119388
-0.116358
-0.11445
-0.111892
-0.110349
-0.108178
-0.106927
-0.105077
-0.104063
-0.102484
-0.101662
-0.100319
-0.0996606
-0.0985301
-0.0980195
-0.0970932
-0.0967286
-0.096009
-0.0958011
-0.0952947
-0.0952571
-0.0949525
-0.0950746
-0.0948914
-0.0950745
-0.0947555
-0.09468
-0.0935829
-0.179578
-0.16977
-0.162406
-0.15464
-0.148913
-0.142656
-0.138146
-0.133034
-0.12945
-0.125229
-0.122363
-0.118849
-0.116547
-0.1136
-0.111746
-0.109261
-0.107765
-0.105661
-0.104454
-0.102667
-0.101694
-0.100178
-0.0993995
-0.0981196
-0.0975096
-0.0964461
-0.0959915
-0.095137
-0.0948386
-0.0941954
-0.0940646
-0.0936351
-0.0936816
-0.0934422
-0.0936425
-0.0934851
-0.0937101
-0.0933223
-0.0931901
-0.0918266
-0.175387
-0.165803
-0.158608
-0.151022
-0.145429
-0.139316
-0.134914
-0.129921
-0.126425
-0.122304
-0.119511
-0.116081
-0.11384
-0.110966
-0.109165
-0.106744
-0.105295
-0.103249
-0.102084
-0.100351
-0.0994198
-0.0979536
-0.0972173
-0.0959863
-0.09542
-0.0944049
-0.0939963
-0.0931895
-0.0929389
-0.0923408
-0.0922571
-0.0918653
-0.091953
-0.0917353
-0.0919616
-0.0917962
-0.092017
-0.0915705
-0.0913816
-0.089877
-0.170513
-0.161204
-0.154217
-0.14685
-0.141418
-0.135484
-0.131209
-0.126364
-0.122971
-0.118973
-0.116264
-0.112939
-0.110768
-0.107986
-0.106244
-0.103904
-0.102506
-0.100533
-0.0994147
-0.0977484
-0.0968597
-0.0954561
-0.0947602
-0.0935876
-0.0930596
-0.0920982
-0.091725
-0.0909647
-0.0907437
-0.0901809
-0.0901158
-0.0897424
-0.089831
-0.0896093
-0.089813
-0.0896205
-0.089796
-0.0893124
-0.0890731
-0.0875621
-0.165956
-0.156892
-0.150089
-0.142917
-0.137631
-0.131855
-0.127697
-0.122982
-0.119684
-0.115796
-0.113165
-0.109933
-0.107828
-0.105126
-0.10344
-0.10117
-0.099822
-0.0979098
-0.0968358
-0.095224
-0.0943753
-0.0930202
-0.09236
-0.0912296
-0.0907318
-0.0898041
-0.0894524
-0.088714
-0.0885004
-0.0879419
-0.0878626
-0.0874701
-0.0875149
-0.0872488
-0.0873765
-0.0871265
-0.0872096
-0.0867009
-0.0864095
-0.0850161
-0.160723
-0.151953
-0.145374
-0.138436
-0.133325
-0.12774
-0.123721
-0.119164
-0.115977
-0.112222
-0.109682
-0.106564
-0.104535
-0.101931
-0.100309
-0.0981258
-0.0968327
-0.0949977
-0.0939719
-0.0924292
-0.0916227
-0.0903291
-0.0897049
-0.0886271
-0.0881574
-0.0872705
-0.0869347
-0.0862201
-0.0860032
-0.0854444
-0.0853333
-0.0849094
-0.0848846
-0.0845558
-0.0845753
-0.0842527
-0.084215
-0.0836962
-0.0833586
-0.0821886
-0.155819
-0.147313
-0.140933
-0.134205
-0.129251
-0.123836
-0.119942
-0.115526
-0.112441
-0.108804
-0.106349
-0.10333
-0.101372
-0.0988531
-0.0972915
-0.095182
-0.0939406
-0.0921699
-0.0911887
-0.0897018
-0.0889333
-0.0876867
-0.0870929
-0.0860519
-0.0856019
-0.0847382
-0.0844061
-0.0836952
-0.0834576
-0.0828758
-0.0827085
-0.0822279
-0.0821015
-0.0816839
-0.0815564
-0.0811408
-0.0809443
-0.0804199
-0.0800242
-0.0791577
-0.150249
-0.142056
-0.135913
-0.129435
-0.124666
-0.119455
-0.115709
-0.111461
-0.108496
-0.105
-0.102642
-0.0997442
-0.0978665
-0.0954523
-0.0939588
-0.0919407
-0.0907573
-0.0890673
-0.0881358
-0.0867199
-0.0859935
-0.0848082
-0.084248
-0.0832568
-0.0828294
-0.0820002
-0.0816745
-0.0809768
-0.0807211
-0.080123
-0.0799023
-0.0793685
-0.0791424
-0.0786354
-0.0783608
-0.077848
-0.0774897
-0.0769596
-0.0765075
-0.075979
-0.145019
-0.137108
-0.131177
-0.124923
-0.120321
-0.115291
-0.111679
-0.107581
-0.104725
-0.101354
-0.0990855
-0.0962939
-0.0944907
-0.0921671
-0.0907364
-0.0887962
-0.0876664
-0.0860435
-0.0851574
-0.0837989
-0.0831099
-0.081972
-0.0814402
-0.0804849
-0.0800738
-0.0792658
-0.0789389
-0.0782424
-0.0779602
-0.0773363
-0.0770531
-0.0764601
-0.0761246
-0.0755255
-0.0750921
-0.0744796
-0.0739417
-0.0733993
-0.0728645
-0.0726742
-0.139133
-0.131552
-0.125872
-0.119882
-0.115477
-0.110661
-0.107205
-0.103285
-0.100554
-0.0973326
-0.095167
-0.0925024
-0.0907844
-0.0885705
-0.0872112
-0.0853667
-0.0842972
-0.0827582
-0.0819235
-0.0806384
-0.0799925
-0.0789177
-0.0784204
-0.0775167
-0.0771297
-0.076359
-0.0760425
-0.0753647
-0.0750731
-0.0744434
-0.0741233
-0.0734937
-0.0730851
-0.0724171
-0.0718693
-0.071172
-0.0704946
-0.0699251
-0.0693136
-0.0693898
-0.1336
-0.126316
-0.12086
-0.115108
-0.110878
-0.106256
-0.10294
-0.0991787
-0.0965619
-0.093473
-0.091401
-0.0888481
-0.087208
-0.0850892
-0.0837953
-0.0820323
-0.081018
-0.0795492
-0.0787609
-0.0775358
-0.0769284
-0.0759037
-0.0754364
-0.0745725
-0.0742057
-0.0734631
-0.0731542
-0.0724902
-0.0721895
-0.0715563
-0.0712047
-0.0705513
-0.0700824
-0.0693688
-0.0687265
-0.0679694
-0.0671672
-0.0665644
-0.0658482
-0.0660913
-0.127422
-0.120485
-0.115293
-0.109816
-0.105793
-0.101394
-0.0982429
-0.0946669
-0.092182
-0.0892488
-0.0872845
-0.0848641
-0.0833127
-0.0813079
-0.0800881
-0.0784242
-0.0774725
-0.0760904
-0.0753552
-0.0742062
-0.0736439
-0.0726856
-0.0722563
-0.0714494
-0.0711137
-0.0704181
-0.0701333
-0.0695058
-0.0692222
-0.068614
-0.0682725
-0.0676315
-0.0671658
-0.0664504
-0.0658027
-0.0650258
-0.064202
-0.0635567
-0.0627903
-0.0630092
-0.121608
-0.114984
-0.110026
-0.104799
-0.10096
-0.0967642
-0.09376
-0.0903502
-0.0879846
-0.0851899
-0.0833231
-0.0810193
-0.0795486
-0.077643
-0.0764906
-0.0749115
-0.0740165
-0.0727075
-0.0720203
-0.0709341
-0.0704124
-0.0695081
-0.0691129
-0.0683522
-0.0680448
-0.0673888
-0.0671274
-0.0665343
-0.0662709
-0.0656945
-0.0653726
-0.0647643
-0.0643215
-0.0636419
-0.0630228
-0.0622778
-0.0614776
-0.0608187
-0.0600167
-0.0600585
-0.115163
-0.108901
-0.104218
-0.099278
-0.0956537
-0.0916912
-0.0888572
-0.0856403
-0.0834115
-0.0807784
-0.0790229
-0.0768562
-0.0754771
-0.073689
-0.0726127
-0.0711357
-0.0703047
-0.0690849
-0.0684521
-0.0674447
-0.0669699
-0.0661357
-0.0657821
-0.0650843
-0.0648157
-0.0642177
-0.0639955
-0.0634586
-0.0632403
-0.0627225
-0.0624607
-0.0619193
-0.061564
-0.0609636
-0.0604737
-0.0598094
-0.0591807
-0.0585317
-0.0578606
-0.0575197
-0.109093
-0.103157
-0.0987191
-0.0940391
-0.0906072
-0.0868551
-0.0841743
-0.0811304
-0.0790251
-0.0765359
-0.0748812
-0.0728354
-0.0715393
-0.0698537
-0.0688465
-0.067457
-0.066684
-0.0655395
-0.0649561
-0.0640141
-0.063582
-0.0628052
-0.0624896
-0.0618437
-0.0616107
-0.061062
-0.0608769
-0.060391
-0.0602169
-0.0597583
-0.0595562
-0.0590903
-0.0588216
-0.0583202
-0.0579547
-0.0574075
-0.0569406
-0.0563653
-0.0558343
-0.0551837
-0.102409
-0.0968476
-0.0926932
-0.088311
-0.0851008
-0.0815903
-0.0790852
-0.0762405
-0.0742762
-0.0719534
-0.070413
-0.0685079
-0.0673054
-0.0657402
-0.0648103
-0.063525
-0.0628166
-0.061763
-0.0612345
-0.0603727
-0.0599883
-0.0592837
-0.0590113
-0.0584321
-0.0582414
-0.057757
-0.0576182
-0.0571989
-0.0570826
-0.0566992
-0.0565775
-0.0562028
-0.0560525
-0.0556625
-0.0554696
-0.0550412
-0.0548057
-0.0542894
-0.0539995
-0.0530744
-0.0961074
-0.0908851
-0.0869848
-0.082872
-0.0798608
-0.0765682
-0.0742213
-0.0715554
-0.0697183
-0.067544
-0.066107
-0.0643263
-0.0632086
-0.0617486
-0.0608889
-0.0596931
-0.0590436
-0.0580669
-0.0575883
-0.0567935
-0.0564526
-0.0558072
-0.0555743
-0.0550494
-0.0548972
-0.0544655
-0.0543683
-0.0540045
-0.0539386
-0.0536191
-0.0535639
-0.053267
-0.053205
-0.0529068
-0.0528159
-0.0524729
-0.0522914
-0.0517951
-0.0513355
-0.0505301
-0.0892105
-0.0843743
-0.0807663
-0.0769601
-0.0741768
-0.0711326
-0.068966
-0.0665044
-0.0648117
-0.0628076
-0.0614871
-0.0598501
-0.0588272
-0.0574895
-0.0567077
-0.0556171
-0.055032
-0.0541468
-0.0537224
-0.053008
-0.0527136
-0.0521403
-0.0519491
-0.0514902
-0.0513778
-0.0510093
-0.0509539
-0.0506536
-0.0506366
-0.0503849
-0.0503916
-0.0501696
-0.0501882
-0.0499702
-0.0499794
-0.0497052
-0.0496258
-0.0491303
-0.0487079
-0.047687
-0.0827047
-0.0782183
-0.0748722
-0.0713436
-0.0687652
-0.0659452
-0.0639411
-0.0616632
-0.0601007
-0.0582488
-0.0570337
-0.0555239
-0.054587
-0.0533564
-0.0526454
-0.0516457
-0.0511195
-0.050312
-0.0499371
-0.0492899
-0.0490383
-0.0485239
-0.0483708
-0.0479649
-0.0478885
-0.0475693
-0.0475504
-0.0472981
-0.047321
-0.0471177
-0.0471707
-0.0469982
-0.0470724
-0.0469018
-0.0469818
-0.0467422
-0.0467718
-0.0462559
-0.0460239
-0.0445185
-0.0756238
-0.0715333
-0.0684865
-0.065272
-0.0629267
-0.0603607
-0.0585406
-0.0564712
-0.0550555
-0.0533769
-0.0522798
-0.0509155
-0.050074
-0.0489669
-0.0483334
-0.0474392
-0.0469764
-0.04626
-0.0459374
-0.0453694
-0.0451614
-0.0447168
-0.0446008
-0.0442571
-0.0442132
-0.0439501
-0.0439604
-0.0437591
-0.043808
-0.0436502
-0.0437241
-0.0435883
-0.0436719
-0.0435217
-0.0435852
-0.0433371
-0.043298
-0.0427261
-0.0423335
-0.0407287
-0.068941
-0.0652096
-0.0624314
-0.0595016
-0.0573659
-0.0550295
-0.0533752
-0.0514936
-0.0502105
-0.048687
-0.0476967
-0.0464617
-0.0457069
-0.0447082
-0.0441455
-0.0433428
-0.0429383
-0.0422994
-0.0420253
-0.0415236
-0.0413563
-0.0409686
-0.0408875
-0.0405929
-0.0405794
-0.0403584
-0.0403951
-0.0402286
-0.0402991
-0.0401667
-0.0402541
-0.0401287
-0.0402104
-0.0400466
-0.0400799
-0.0397821
-0.0396659
-0.0390148
-0.038494
-0.0369699
-0.0617056
-0.0583783
-0.0559051
-0.0532954
-0.0513969
-0.0493189
-0.0478514
-0.0461815
-0.0450468
-0.0436988
-0.0428272
-0.0417389
-0.0410795
-0.0402044
-0.0397185
-0.0390208
-0.038678
-0.0381289
-0.0379044
-0.0374797
-0.0373522
-0.0370308
-0.0369811
-0.0367434
-0.0367535
-0.0365803
-0.0366322
-0.0365033
-0.0365776
-0.0364695
-0.0365425
-0.0364227
-0.03646
-0.0362759
-0.0362176
-0.0358745
-0.0356068
-0.0349341
-0.034254
-0.0330202
-0.054874
-0.0519137
-0.0497146
-0.0473953
-0.0457103
-0.0438663
-0.0425673
-0.0410883
-0.0400878
-0.0388971
-0.0381332
-0.0371755
-0.0366029
-0.0358369
-0.0354213
-0.0348151
-0.0345294
-0.0340572
-0.0338793
-0.0335195
-0.0334301
-0.0331631
-0.0331446
-0.0329518
-0.0329866
-0.032849
-0.0329186
-0.0328146
-0.0328972
-0.0327999
-0.0328671
-0.0327394
-0.0327502
-0.0325365
-0.0324265
-0.0320427
-0.0317135
-0.0310498
-0.0303822
-0.0293939
-0.0475144
-0.0449646
-0.0430749
-0.0410804
-0.0396355
-0.0380532
-0.0369428
-0.0356777
-0.0348266
-0.0338126
-0.0331676
-0.0323571
-0.0318791
-0.0312365
-0.0308962
-0.030394
-0.0301679
-0.0297836
-0.0296524
-0.0293669
-0.0293133
-0.029109
-0.0291167
-0.028976
-0.0290277
-0.0289317
-0.0290075
-0.0289336
-0.029009
-0.0289279
-0.0289694
-0.0288419
-0.0288023
-0.0285749
-0.0283895
-0.0279964
-0.0275885
-0.0269816
-0.0263115
-0.0255946
-0.0405631
-0.0383865
-0.0367751
-0.0350755
-0.0338471
-0.032502
-0.0315621
-0.0304901
-0.0297743
-0.028919
-0.0283821
-0.0277029
-0.0273115
-0.026778
-0.0265071
-0.0260958
-0.0259255
-0.025617
-0.0255305
-0.0253081
-0.0252902
-0.025138
-0.0251737
-0.0250751
-0.025148
-0.0250843
-0.0251744
-0.0251222
-0.0252036
-0.0251326
-0.0251699
-0.02504
-0.024986
-0.024748
-0.0245445
-0.0241507
-0.0237476
-0.0231929
-0.0226073
-0.0220361
-0.0331106
-0.031349
-0.03005
-0.0286784
-0.027692
-0.0266107
-0.0258605
-0.0250036
-0.0244375
-0.0237594
-0.0233408
-0.0228086
-0.0225108
-0.0220998
-0.0219025
-0.0215936
-0.0214805
-0.0212578
-0.021215
-0.0210643
-0.0210787
-0.0209862
-0.0210442
-0.0209946
-0.0210805
-0.0210559
-0.0211496
-0.021127
-0.0212019
-0.0211512
-0.021171
-0.021054
-0.0209723
-0.0207459
-0.0205115
-0.0201441
-0.0197268
-0.0192425
-0.0186961
-0.0182754
-0.0260692
-0.0246853
-0.0236678
-0.0225943
-0.0218264
-0.0209846
-0.0204059
-0.0197436
-0.0193133
-0.0187947
-0.0184841
-0.0180833
-0.0178713
-0.0175691
-0.01744
-0.0172212
-0.0171621
-0.017014
-0.0170138
-0.0169246
-0.0169724
-0.0169302
-0.0170142
-0.0170054
-0.0171113
-0.0171189
-0.0172277
-0.0172298
-0.0173161
-0.0172836
-0.017313
-0.0172103
-0.01714
-0.0169291
-0.016715
-0.016373
-0.0159961
-0.0155563
-0.0150791
-0.0147112
-0.0185553
-0.0175893
-0.0168857
-0.0161421
-0.0156171
-0.0150401
-0.0146513
-0.0142045
-0.0139234
-0.0135817
-0.0133886
-0.0131339
-0.0130141
-0.012833
-0.0127756
-0.0126573
-0.0126531
-0.0125884
-0.0126292
-0.0126091
-0.0126863
-0.0127012
-0.0128049
-0.0128432
-0.0129607
-0.0130072
-0.0131212
-0.013156
-0.0132428
-0.0132397
-0.0132678
-0.013195
-0.0131257
-0.0129504
-0.0127456
-0.012449
-0.0120935
-0.0117051
-0.0112565
-0.010933
-0.011454
-0.0108686
-0.0104484
-0.0100048
-0.00969937
-0.00936305
-0.00914634
-0.00889473
-0.00874945
-0.00856727
-0.00848148
-0.00835786
-0.00832296
-0.00824974
-0.00825912
-0.00822966
-0.00827775
-0.00828603
-0.00836742
-0.00840715
-0.00851577
-0.00857957
-0.00870772
-0.00878601
-0.0089232
-0.00900306
-0.00913459
-0.00919852
-0.00930404
-0.00932905
-0.00938153
-0.00933965
-0.00930609
-0.00916813
-0.00901488
-0.0087605
-0.00846896
-0.00810997
-0.00771092
-0.00735769
-0.00391092
-0.00374439
-0.00363844
-0.00352516
-0.0034624
-0.00339084
-0.00336339
-0.00332671
-0.00332973
-0.0033235
-0.00335388
-0.00337504
-0.00343058
-0.00347677
-0.0035557
-0.00362473
-0.00372521
-0.00381459
-0.00393424
-0.00404062
-0.00417597
-0.00429456
-0.00444027
-0.00456403
-0.00471209
-0.00483086
-0.00496948
-0.00506909
-0.00518171
-0.00524338
-0.00530804
-0.00530874
-0.00529859
-0.0052131
-0.00509953
-0.00490475
-0.00466548
-0.00434896
-0.00398452
-0.00358576
0.00321976
0.00300438
0.0028263
0.00263894
0.00248189
0.0023126
0.00216813
0.00200978
0.00187157
0.00171876
0.00158196
0.00143061
0.00129151
0.00113864
0.000994511
0.000838176
0.000687303
0.000526681
0.000368494
0.000204126
3.9497e-05
-0.000126336
-0.000294648
-0.000457418
-0.000624178
-0.0007765
-0.000933335
-0.00106438
-0.00119918
-0.00129431
-0.0013909
-0.00143168
-0.00147014
-0.00143466
-0.0013923
-0.00125392
-0.00110616
-0.000825792
-0.000538994
-5.01871e-05
0.0107595
0.0101262
0.00963487
0.0091182
0.0087196
0.00828671
0.00795428
0.00758237
0.00729732
0.00697014
0.00671886
0.00642455
0.00619691
0.00592669
0.00571518
0.00546266
0.00526178
0.00502258
0.00482868
0.00460031
0.0044115
0.00419347
0.00400987
0.00380389
0.00362782
0.00343816
0.00327453
0.00310828
0.00296479
0.00283215
0.00271944
0.00263396
0.00256566
0.00254544
0.00253885
0.00261168
0.00269106
0.00291371
0.00312948
0.00366136
0.0178887
0.0168739
0.0160991
0.0152824
0.0146647
0.0139917
0.0134882
0.0129222
0.012503
0.0120179
0.0116614
0.0112382
0.0109285
0.0105531
0.0102782
0.00994008
0.00969082
0.00938229
0.00915211
0.00886782
0.00865218
0.00838902
0.00818541
0.00794249
0.00775039
0.0075291
0.00735005
0.00715419
0.00699174
0.00682769
0.0066874
0.00656482
0.00645463
0.00638901
0.00632127
0.00634234
0.00634053
0.0065178
0.00664276
0.00718491
0.0253924
0.0239625
0.0228767
0.0217331
0.020876
0.0199416
0.0192521
0.0184747
0.0179106
0.0172533
0.0167843
0.0162203
0.0158241
0.0153337
0.0149936
0.0145618
0.0142648
0.0138803
0.0136169
0.0132714
0.0130342
0.0127218
0.0125056
0.0122226
0.0120241
0.0117691
0.0115866
0.01136
0.0111931
0.0109978
0.010848
0.0106903
0.0105619
0.0104556
0.0103614
0.0103391
0.0103169
0.0104549
0.0106051
0.0110349
0.0324893
0.0306799
0.0293123
0.0278706
0.0267958
0.0256231
0.024764
0.0237941
0.0230973
0.0222837
0.0217111
0.02102
0.0205434
0.0199496
0.0195478
0.0190323
0.018689
0.0182373
0.0179399
0.0175407
0.0172794
0.0169244
0.0166915
0.0163746
0.0161643
0.0158815
0.0156892
0.0154383
0.0152611
0.0150423
0.0148784
0.0146956
0.0145468
0.0144123
0.01429
0.0142365
0.0141799
0.0142862
0.0144008
0.0148045
0.0399243
0.0377043
0.0360296
0.0342647
0.0329535
0.0315226
0.0304801
0.0293017
0.0284624
0.0274792
0.0267963
0.025967
0.025406
0.0246997
0.0242348
0.0236281
0.0232393
0.0227142
0.0223859
0.0219283
0.0216479
0.0212468
0.0210043
0.0206511
0.020438
0.0201262
0.0199355
0.0196605
0.0194862
0.0192456
0.0190833
0.0188789
0.018727
0.0185692
0.0184337
0.0183523
0.0182583
0.0183294
0.0183512
0.0188002
0.0469579
0.0443622
0.0424084
0.0403484
0.0388221
0.0371555
0.0359455
0.0345769
0.0336068
0.0324695
0.0316847
0.0307302
0.0300906
0.0292829
0.0287582
0.0280698
0.0276366
0.0270464
0.0266863
0.0261774
0.0258755
0.0254346
0.0251787
0.0247949
0.0245746
0.0242394
0.0240457
0.0237525
0.0235778
0.0233227
0.0231614
0.0229447
0.0227952
0.0226261
0.0224957
0.0224014
0.0223176
0.0223649
0.0224022
0.022777
0.0542919
0.0512919
0.0490358
0.0466578
0.0448989
0.0429784
0.0415883
0.0400148
0.0389049
0.0376012
0.0367085
0.0356186
0.0348967
0.0339791
0.0333933
0.0326162
0.0321394
0.0314783
0.0310892
0.0305245
0.0302057
0.0297215
0.0294585
0.029042
0.0288222
0.0284625
0.028275
0.0279637
0.0277988
0.0275301
0.0273805
0.0271533
0.0270158
0.0268377
0.0267181
0.0266125
0.0265362
0.0265547
0.0265849
0.0268304
0.0612315
0.0578611
0.05533
0.0526612
0.0506903
0.0485376
0.0469826
0.045222
0.0439836
0.0425283
0.0415357
0.0403229
0.0395243
0.0385073
0.0378634
0.0370067
0.0364873
0.035763
0.0353441
0.0347301
0.0343921
0.0338704
0.0335969
0.0331525
0.0329292
0.0325497
0.0323642
0.0320393
0.031881
0.0316033
0.031464
0.0312307
0.0311067
0.0309222
0.0308186
0.0306985
0.0306355
0.0306057
0.0306196
0.0306897
0.0684322
0.0646657
0.0618384
0.0588579
0.0566594
0.0542579
0.0525266
0.0505654
0.0491902
0.0475722
0.0464742
0.0451291
0.0442504
0.0431262
0.042423
0.0414799
0.0409185
0.0401255
0.039679
0.0390113
0.0386578
0.0380951
0.0378161
0.0373413
0.0371206
0.0367194
0.0365426
0.0362028
0.0360575
0.0357696
0.0356452
0.0354036
0.0352934
0.0350977
0.0350014
0.0348564
0.0347818
0.0346872
0.0346397
0.034546
0.0752476
0.0711174
0.0680203
0.0647544
0.0623478
0.0597187
0.0578256
0.0556809
0.0541798
0.0524133
0.0512175
0.0497522
0.0487984
0.0475771
0.0468174
0.0457966
0.045194
0.0443396
0.0438647
0.0431494
0.0427781
0.0421795
0.0418916
0.0413907
0.0411685
0.0407491
0.0405767
0.0402249
0.0400881
0.0397919
0.0396785
0.0394286
0.0393285
0.0391182
0.0390242
0.0388457
0.0387512
0.038581
0.0384636
0.0382215
0.0822833
0.0777669
0.074381
0.0708112
0.0681825
0.0653108
0.0632458
0.0609054
0.0592711
0.0573457
0.0560473
0.054453
0.0534211
0.0520953
0.0512778
0.0501729
0.0495293
0.048608
0.0481064
0.0473388
0.0469527
0.0463142
0.0460212
0.045491
0.0452716
0.0448313
0.0446675
0.0443008
0.0441761
0.0438683
0.0437669
0.0435042
0.0434108
0.0431791
0.0430777
0.0428572
0.0427261
0.0424756
0.0422731
0.041903
0.0889446
0.084073
0.0804232
0.0765746
0.0737428
0.0706485
0.0684256
0.065906
0.0641486
0.0620782
0.0606843
0.0589725
0.0578674
0.0564467
0.0555741
0.0543933
0.0537096
0.0527283
0.052199
0.0513849
0.0509816
0.050308
0.0500066
0.0494507
0.0492298
0.0487713
0.0486114
0.0482317
0.048114
0.0477951
0.0477007
0.047424
0.0473325
0.0470765
0.0469631
0.0466968
0.0465273
0.0461969
0.0459154
0.0454296
0.0957844
0.0905381
0.0866081
0.0824645
0.0794171
0.0760873
0.0736974
0.0709877
0.0691008
0.0668761
0.0653823
0.063545
0.0623638
0.0608414
0.0599122
0.0586493
0.0579254
0.0568786
0.0563226
0.0554572
0.0550386
0.0543255
0.0540181
0.0534326
0.053213
0.0527326
0.052579
0.0521825
0.0520734
0.0517393
0.0516516
0.0513565
0.0512641
0.0509791
0.0508487
0.0505334
0.0503199
0.0499117
0.0495502
0.0489584
0.102262
0.0966707
0.0924841
0.0880694
0.0848242
0.081278
0.0787344
0.0758504
0.0738437
0.0714778
0.069891
0.0679393
0.0666866
0.0650716
0.0640885
0.0627514
0.061988
0.0608823
0.0602989
0.0593875
0.0589514
0.0582032
0.0578866
0.0572748
0.0570524
0.0565524
0.0564005
0.0559886
0.055883
0.0555343
0.0554486
0.0551348
0.0550377
0.0547232
0.0545745
0.054211
0.0539568
0.0534748
0.0530426
0.0523494
0.108876
0.102923
0.0984659
0.0937663
0.0903129
0.086539
0.083834
0.0807661
0.078634
0.0761187
0.074435
0.0723615
0.0710347
0.0693207
0.0682822
0.0668648
0.0660614
0.0648913
0.0642808
0.0633183
0.0628657
0.0620776
0.0617529
0.0611103
0.0608865
0.0603625
0.0602134
0.0597818
0.0596804
0.0593129
0.0592289
0.0588926
0.0587895
0.0584432
0.0582745
0.0578631
0.0575677
0.0570161
0.0565151
0.0557278
0.115143
0.108855
0.10415
0.0991877
0.0955428
0.0915594
0.0887054
0.0854686
0.0832204
0.0805682
0.078794
0.0766094
0.0752129
0.0734088
0.0723173
0.0708273
0.0699848
0.0687566
0.0681183
0.06711
0.0666389
0.0658151
0.0654795
0.0648093
0.0645802
0.0640347
0.0638841
0.0634344
0.0633326
0.0629473
0.062861
0.0625032
0.0623918
0.0620151
0.0618271
0.0613709
0.0610394
0.0604234
0.0598633
0.0589844
0.121502
0.114867
0.109902
0.104666
0.100821
0.096619
0.0936097
0.0901959
0.0878268
0.0850304
0.0831625
0.0808601
0.0793915
0.0774912
0.0763453
0.0747768
0.0738943
0.0726026
0.0719362
0.0708767
0.0703873
0.0695225
0.0691763
0.0684734
0.0682395
0.0676674
0.0675154
0.067043
0.0669409
0.0665337
0.0664448
0.0660623
0.0659423
0.0655338
0.0653265
0.0648269
0.0644602
0.0637849
0.0631677
0.0622088
0.127529
0.120573
0.115368
0.10988
0.105851
0.101447
0.0982935
0.0947169
0.0922355
0.089307
0.0873514
0.0849415
0.083405
0.0814171
0.0802192
0.0785797
0.0776582
0.0763091
0.0756142
0.0745087
0.0739994
0.073098
0.0727385
0.0720064
0.0717641
0.0711682
0.071011
0.0705179
0.0704115
0.0699842
0.0698894
0.0694843
0.0693537
0.0689165
0.0686907
0.0681523
0.0677555
0.0670273
0.0663634
0.0653287
0.133605
0.126318
0.120865
0.115116
0.110895
0.106282
0.10298
0.0992343
0.0966369
0.0935701
0.0915242
0.0890007
0.0873943
0.0853132
0.0840618
0.0823457
0.081384
0.0799721
0.079248
0.0780909
0.0775611
0.0766175
0.0762443
0.0754773
0.0752264
0.0746012
0.0744384
0.0739196
0.0738085
0.0733568
0.073256
0.0728251
0.0726842
0.0722169
0.0719734
0.0713975
0.0709718
0.0701957
0.0694866
0.0683905
0.139366
0.131772
0.12609
0.120099
0.115702
0.110895
0.107456
0.103553
0.100848
0.0976541
0.0955235
0.0928964
0.091224
0.0890581
0.0877557
0.0859702
0.0849695
0.083501
0.0827475
0.0815443
0.0809927
0.0800114
0.0796224
0.0788243
0.0785617
0.0779105
0.0777386
0.0771968
0.0770775
0.0766041
0.0764941
0.0760404
0.0758874
0.0753939
0.0751328
0.0745248
0.0740737
0.0732573
0.0725128
0.0713649
0.145133
0.137225
0.131308
0.12507
0.12049
0.115485
0.111904
0.107841
0.105025
0.101699
0.0994814
0.0967456
0.0950055
0.0927497
0.0913948
0.0895347
0.0884938
0.0869632
0.0861792
0.0849242
0.0843498
0.0833249
0.082919
0.082084
0.0818087
0.0811255
0.0809437
0.0803734
0.0802455
0.0797456
0.0796265
0.0791468
0.0789825
0.0784615
0.0781849
0.0775458
0.0770724
0.0762196
0.0754431
0.0742542
0.150603
0.142403
0.136269
0.1298
0.125052
0.119863
0.11615
0.111938
0.109019
0.105571
0.103273
0.100438
0.0986337
0.0962961
0.0948913
0.0929638
0.0918839
0.0902976
0.0894833
0.0881821
0.0875841