/*--------------------------------*- C++ -*----------------------------------*\
| =========                 |                                                 |
| \\      /  F ield         | foam-extend: Open Source CFD                    |
|  \\    /   O peration     | Version:  3.0                                   |
|   \\  /    A nd           | Web:         http://www.extend-project.de       |
|    \\/     M anipulation  |                                                 |
\*---------------------------------------------------------------------------*/
FoamFile
{
    version     2.0;
    format      ascii;
    class       volVectorField;
    location    "15";
    object      s;
}
// * * * * * * * * * * * * * * * * * * * * * * * * * * * * * * * * * * * * * //

dimensions      [0 1 -1 0 0 0 0];

internalField   nonuniform List<vector> 
400
(
(0.0648242 -0.0306967 9.8398e-20)
(0.243199 -0.0503489 1.13123e-18)
(0.418705 -0.0563867 -7.09978e-19)
(0.563494 -0.0564509 -9.79467e-19)
(0.686374 -0.0527425 -1.12743e-18)
(0.783826 -0.0467878 -2.36312e-18)
(0.862253 -0.0388886 -2.35805e-18)
(0.921283 -0.0295427 -2.34384e-18)
(0.964806 -0.0187183 -2.66922e-18)
(0.993003 -0.00661445 5.28232e-20)
(0.0837905 -0.0890707 -2.01405e-19)
(0.274287 -0.146113 -5.36634e-19)
(0.453529 -0.163639 -5.29193e-19)
(0.598365 -0.163833 -1.92621e-18)
(0.718959 -0.153077 -1.94069e-18)
(0.812736 -0.135805 -5.12919e-18)
(0.886286 -0.112887 -2.99044e-18)
(0.939545 -0.0857699 -2.27867e-18)
(0.976381 -0.0543553 -1.88922e-18)
(0.997095 -0.0192149 -3.31172e-18)
(0.119879 -0.13875 -8.51091e-19)
(0.333496 -0.227578 3.39935e-19)
(0.519831 -0.254868 6.05363e-19)
(0.664742 -0.255166 -4.05715e-18)
(0.780975 -0.23841 -1.99728e-18)
(0.867751 -0.211507 -4.0651e-18)
(0.932014 -0.175809 -1.12562e-18)
(0.974285 -0.133573 -1.59081e-18)
(0.998394 -0.0846447 -1.46045e-18)
(1.00487 -0.0299194 -3.24374e-18)
(0.16953 -0.174808 -3.30459e-19)
(0.414946 -0.286745 6.36654e-20)
(0.611051 -0.32114 2.37211e-18)
(0.756073 -0.321521 -1.03775e-19)
(0.86631 -0.30041 -5.16663e-19)
(0.943458 -0.266514 3.3378e-19)
(0.994945 -0.221534 -1.75903e-18)
(1.0221 -0.168315 -2.35615e-18)
(1.02869 -0.106661 -6.92299e-18)
(1.01559 -0.0377022 2.35322e-18)
(0.227913 -0.193787 -3.05649e-20)
(0.510716 -0.31786 3.1367e-18)
(0.718302 -0.355988 2.21438e-18)
(0.86345 -0.356408 2.29817e-18)
(0.966637 -0.333004 5.24867e-18)
(1.03246 -0.29543 2.09401e-18)
(1.06893 -0.245569 2.34247e-18)
(1.07831 -0.186576 -2.30214e-18)
(1.06431 -0.118233 4.43585e-18)
(1.02818 -0.0417928 1.37775e-18)
(0.28929 -0.193783 3.0271e-19)
(0.6114 -0.317852 2.32729e-18)
(0.831062 -0.355984 1.49362e-18)
(0.976344 -0.356404 1.93629e-18)
(1.07212 -0.333 1.8395e-18)
(1.12604 -0.295428 4.56775e-18)
(1.14672 -0.245567 2.97071e-18)
(1.13741 -0.186574 7.5143e-18)
(1.10177 -0.118232 1.10976e-18)
(1.04141 -0.0417926 3.56969e-19)
(0.347669 -0.174819 2.11366e-19)
(0.707162 -0.286733 -2.936e-19)
(0.938307 -0.321138 1.19243e-20)
(1.08372 -0.321515 2.04049e-18)
(1.17244 -0.300401 -2.81034e-19)
(1.21504 -0.266509 -6.65561e-19)
(1.2207 -0.221526 2.35423e-18)
(1.19361 -0.168311 9.54688e-19)
(1.13738 -0.106658 3.84616e-18)
(1.054 -0.0377017 -5.4109e-19)
(0.397327 -0.138742 3.27656e-19)
(0.788617 -0.227545 -3.31181e-19)
(1.02953 -0.254857 -2.27174e-21)
(1.17505 -0.255154 3.80444e-19)
(1.25778 -0.238395 -5.86029e-19)
(1.29075 -0.211503 3.08126e-19)
(1.28363 -0.175802 -1.44041e-18)
(1.24143 -0.133572 -1.16097e-18)
(1.16768 -0.0846428 -2.02829e-18)
(1.06471 -0.0299204 -1.60395e-18)
(0.433407 -0.0890859 1.06508e-19)
(0.847797 -0.146082 -2.45643e-19)
(1.09581 -0.16363 -9.36694e-20)
(1.24141 -0.163818 -1.32595e-19)
(1.31978 -0.153054 -1.91416e-19)
(1.34575 -0.135794 -3.68338e-20)
(1.32935 -0.112868 -3.53848e-19)
(1.27616 -0.085758 -3.94988e-19)
(1.1897 -0.0543426 -3.5519e-19)
(1.0725 -0.0192104 2.67105e-20)
(0.452377 -0.0307114 1.56679e-20)
(0.878906 -0.0503186 -2.16656e-19)
(1.13066 -0.0563866 -7.41788e-20)
(1.27629 -0.0564458 5.267e-20)
(1.35237 -0.0527311 9.98665e-20)
(1.37467 -0.0467931 2.56811e-19)
(1.35338 -0.0388858 2.16506e-19)
(1.29443 -0.0295502 1.65314e-19)
(1.20127 -0.0187229 9.06155e-20)
(1.07659 -0.00662013 7.79952e-20)
(0.452379 0.0306675 -8.56438e-21)
(0.878901 0.0503721 -4.67978e-19)
(1.13066 0.0563754 -6.18527e-20)
(1.27629 0.056451 1.90221e-19)
(1.35237 0.0527542 2.77919e-19)
(1.37467 0.0467876 8.53083e-19)
(1.35338 0.0389031 8.21276e-19)
(1.29443 0.02955 8.01534e-19)
(1.20127 0.0187297 8.90361e-19)
(1.07659 0.00661811 5.98569e-20)
(0.433414 0.0890427 8.48783e-20)
(0.84778 0.146133 -1.01725e-19)
(1.09581 0.163618 -1.73305e-19)
(1.2414 0.163822 8.54203e-19)
(1.31977 0.153076 6.14668e-19)
(1.34575 0.135788 2.36368e-18)
(1.32934 0.112884 1.41825e-18)
(1.27616 0.0857575 1.17423e-18)
(1.18969 0.0543491 1.05778e-18)
(1.0725 0.0192085 1.51569e-18)
(0.397339 0.1387 3.85174e-19)
(0.788591 0.227592 -5.86563e-19)
(1.02953 0.254844 -1.02547e-18)
(1.17504 0.255156 2.294e-18)
(1.25776 0.238414 6.6139e-19)
(1.29075 0.211496 2.22825e-18)
(1.28362 0.175816 7.63426e-19)
(1.24142 0.13357 1.29537e-18)
(1.16768 0.0846486 1.49498e-18)
(1.06471 0.0299185 2.27429e-18)
(0.347685 0.174779 6.5438e-20)
(0.707126 0.286773 -3.73402e-19)
(0.938304 0.321123 -2.6703e-18)
(1.0837 0.321514 -7.61068e-19)
(1.17242 0.300415 -5.15575e-19)
(1.21504 0.266501 -1.11096e-18)
(1.22068 0.221538 1.19785e-18)
(1.19361 0.168309 2.1667e-18)
(1.13738 0.106662 6.45666e-18)
(1.054 0.0376998 -2.07736e-18)
(0.289312 0.193747 -1.15784e-19)
(0.61136 0.317884 -3.54907e-18)
(0.831061 0.355968 -2.52826e-18)
(0.976333 0.3564 -3.24561e-18)
(1.0721 0.33301 -6.95366e-18)
(1.12604 0.295418 -3.38153e-18)
(1.1467 0.245575 -4.07507e-18)
(1.1374 0.186571 1.69842e-18)
(1.10176 0.118236 -6.30719e-18)
(1.04141 0.0417908 -1.88088e-18)
(0.227936 0.193749 -4.22699e-19)
(0.510667 0.31788 -2.81576e-18)
(0.7183 0.355968 -1.33779e-18)
(0.863436 0.356398 -2.75853e-18)
(0.966612 0.333008 -2.33691e-18)
(1.03246 0.295418 -7.69008e-18)
(1.06891 0.245574 -5.46286e-18)
(1.07831 0.186571 -1.40581e-17)
(1.06431 0.118235 -2.76051e-18)
(1.02818 0.041791 -7.66681e-19)
(0.169563 0.174784 -2.50706e-19)
(0.414904 0.28676 2.02369e-18)
(0.611058 0.321122 1.64026e-18)
(0.756065 0.32151 -3.85425e-18)
(0.866289 0.300409 2.38468e-18)
(0.943461 0.2665 3.22799e-18)
(0.99493 0.221535 -4.4674e-18)
(1.0221 0.168309 -9.52291e-19)
(1.02869 0.106662 -9.48644e-18)
(1.01559 0.0377005 1.36681e-18)
(0.119908 0.138708 -7.65238e-19)
(0.333443 0.227571 2.22387e-18)
(0.519833 0.254842 1.54343e-18)
(0.664731 0.25515 3.03419e-19)
(0.78095 0.238404 4.81579e-18)
(0.867753 0.211495 -2.63339e-19)
(0.931998 0.175811 7.59111e-18)
(0.974285 0.133571 6.13046e-18)
(0.998388 0.0846472 8.99765e-18)
(1.00488 0.0299195 6.22708e-18)
(0.0838315 0.0890543 -1.65885e-19)
(0.274259 0.146107 1.9852e-18)
(0.453554 0.163616 1.91784e-18)
(0.598373 0.163814 3.43718e-18)
(0.718949 0.153063 4.84115e-18)
(0.812749 0.135788 1.60609e-18)
(0.886275 0.112877 3.02934e-18)
(0.939548 0.085758 2.46438e-18)
(0.976375 0.0543473 6.88249e-19)
(0.997096 0.0192098 -1.32982e-18)
(0.0648653 0.0306824 -1.90586e-19)
(0.243145 0.0503404 -8.16476e-19)
(0.418711 0.0563739 1.22737e-18)
(0.563487 0.0564425 2.31968e-18)
(0.686353 0.0527397 9.24611e-19)
(0.783832 0.0467882 1.95985e-18)
(0.862237 0.038895 2.38491e-18)
(0.921285 0.0295509 2.11278e-18)
(0.964801 0.0187277 1.35406e-18)
(0.993005 0.0066198 2.46946e-19)
(0.0648658 -0.0306935 -1.18411e-19)
(0.243147 -0.0503534 -1.40427e-18)
(0.418712 -0.0563869 9.38504e-19)
(0.563489 -0.0564541 1.30522e-18)
(0.686354 -0.0527465 1.50196e-18)
(0.783833 -0.0467912 3.1544e-18)
(0.862238 -0.0388945 3.14816e-18)
(0.921286 -0.0295486 3.12236e-18)
(0.964801 -0.018725 3.5371e-18)
(0.993005 -0.00661816 -5.34858e-20)
(0.0838329 -0.0890651 2.49674e-19)
(0.274265 -0.146119 6.76404e-19)
(0.453558 -0.163628 6.88122e-19)
(0.598377 -0.163825 2.5558e-18)
(0.718953 -0.153069 2.55836e-18)
(0.812752 -0.13579 6.83986e-18)
(0.886277 -0.112876 3.9948e-18)
(0.939549 -0.0857555 3.04756e-18)
(0.976375 -0.0543445 2.51684e-18)
(0.997095 -0.0192082 4.35108e-18)
(0.11991 -0.138719 1.02466e-18)
(0.333452 -0.227581 -4.46369e-19)
(0.519839 -0.254853 -8.25347e-19)
(0.664737 -0.255159 5.38867e-18)
(0.780957 -0.238409 2.62059e-18)
(0.867757 -0.211497 5.44157e-18)
(0.932001 -0.175809 1.52032e-18)
(0.974287 -0.133568 2.17608e-18)
(0.998389 -0.0846443 2.03957e-18)
(1.00488 -0.0299179 4.35605e-18)
(0.169565 -0.174793 3.78877e-19)
(0.414915 -0.286767 -1.22025e-19)
(0.611065 -0.321131 -3.24128e-18)
(0.756073 -0.321517 1.26849e-20)
(0.866297 -0.300412 5.68633e-19)
(0.943466 -0.266501 -5.89528e-19)
(0.994934 -0.221532 2.3519e-18)
(1.0221 -0.168305 3.22947e-18)
(1.02869 -0.106658 9.51744e-18)
(1.01559 -0.037699 -3.20882e-18)
(0.227939 -0.193757 -9.28227e-22)
(0.51068 -0.317883 -4.18669e-18)
(0.718308 -0.355974 -3.01764e-18)
(0.863445 -0.356403 -3.31139e-18)
(0.966621 -0.333008 -7.58337e-18)
(1.03247 -0.295417 -3.14901e-18)
(1.06892 -0.245571 -3.59142e-18)
(1.07831 -0.186568 3.07176e-18)
(1.06431 -0.118232 -6.51598e-18)
(1.02818 -0.0417897 -2.00881e-18)
(0.289315 -0.193755 -4.14592e-19)
(0.611373 -0.317883 -3.13108e-18)
(0.83107 -0.355972 -1.95336e-18)
(0.976342 -0.356401 -2.77435e-18)
(1.07211 -0.333007 -2.59285e-18)
(1.12605 -0.295416 -6.9253e-18)
(1.14671 -0.245571 -4.59033e-18)
(1.13741 -0.186567 -1.16999e-17)
(1.10176 -0.118232 -1.8708e-18)
(1.04141 -0.0417896 -5.77864e-19)
(0.347688 -0.174785 -2.61498e-19)
(0.707137 -0.286768 7.03796e-19)
(0.938312 -0.321125 3.19821e-19)
(1.08371 -0.321513 -3.09877e-18)
(1.17243 -0.30041 8.98972e-19)
(1.21505 -0.266496 1.5184e-18)
(1.22069 -0.221532 -3.67043e-18)
(1.19361 -0.168303 -1.27797e-18)
(1.13738 -0.106658 -6.43603e-18)
(1.054 -0.0376987 9.07331e-19)
(0.397341 -0.138706 -4.54771e-19)
(0.7886 -0.227584 7.86958e-19)
(1.02954 -0.254844 3.28444e-19)
(1.17505 -0.255153 -3.34116e-19)
(1.25777 -0.238407 1.78457e-18)
(1.29075 -0.21149 -4.01776e-19)
(1.28362 -0.175809 3.38926e-18)
(1.24143 -0.133565 2.70574e-18)
(1.16768 -0.0846444 4.28735e-18)
(1.06471 -0.0299174 3.15022e-18)
(0.433416 -0.089048 -1.23672e-19)
(0.847786 -0.146123 6.68417e-19)
(1.09582 -0.163616 5.3386e-19)
(1.24141 -0.163817 9.62841e-19)
(1.31977 -0.153067 1.38447e-18)
(1.34576 -0.135781 4.47668e-19)
(1.32934 -0.112877 1.13315e-18)
(1.27617 -0.0857514 1.03547e-18)
(1.1897 -0.0543447 5.62819e-19)
(1.0725 -0.0192074 -3.19732e-19)
(0.452379 -0.0306723 -4.45658e-20)
(0.878903 -0.0503612 7.06043e-20)
(1.13066 -0.0563722 3.74096e-19)
(1.27629 -0.0564448 5.134e-19)
(1.35237 -0.0527443 1.41403e-19)
(1.37467 -0.0467798 2.42242e-19)
(1.35338 -0.0388948 3.91556e-19)
(1.29443 -0.0295436 3.76492e-19)
(1.20127 -0.0187251 2.64981e-19)
(1.07659 -0.00661704 -7.10014e-21)
(0.452376 0.0307071 -1.15301e-20)
(0.878904 0.0503291 1.94937e-19)
(1.13066 0.0563903 2.90287e-19)
(1.27629 0.0564522 1.35419e-19)
(1.35237 0.0527412 9.64577e-20)
(1.37467 0.0468012 -6.18651e-20)
(1.35338 0.0388943 -3.11757e-20)
(1.29443 0.0295568 -2.29686e-20)
(1.20127 0.0187275 -2.23555e-20)
(1.07659 0.00662126 -6.05765e-20)
(0.433405 0.0890821 -3.68291e-20)
(0.847791 0.146091 2.41451e-19)
(1.09581 0.163634 3.32189e-19)
(1.2414 0.163824 -2.24693e-19)
(1.31978 0.153064 3.03239e-21)
(1.34575 0.135802 -6.52914e-19)
(1.32935 0.112876 -4.13853e-19)
(1.27616 0.0857647 -4.05339e-19)
(1.1897 0.0543472 -4.30174e-19)
(1.0725 0.0192116 -4.76304e-19)
(0.397324 0.138739 -2.11882e-19)
(0.788608 0.227551 4.80208e-19)
(1.02953 0.25486 8.05485e-19)
(1.17504 0.255159 -9.6263e-19)
(1.25777 0.238403 -3.80421e-20)
(1.29075 0.21151 -8.51761e-19)
(1.28362 0.175809 -3.68706e-19)
(1.24143 0.133578 -7.10098e-19)
(1.16768 0.0846471 -9.15878e-19)
(1.06471 0.0299217 -1.16193e-18)
(0.347663 0.174816 -1.7157e-20)
(0.70715 0.286735 3.15079e-19)
(0.938301 0.32114 1.80101e-18)
(1.08371 0.321518 6.69988e-19)
(1.17243 0.300407 5.67544e-19)
(1.21504 0.266516 8.55167e-19)
(1.22069 0.221533 -6.04931e-19)
(1.19361 0.168317 -1.2934e-18)
(1.13738 0.106662 -3.86214e-18)
(1.054 0.0377032 1.22174e-18)
(0.289286 0.193783 8.41851e-20)
(0.611391 0.31785 2.49894e-18)
(0.831056 0.355984 1.72491e-18)
(0.976335 0.356404 2.23242e-18)
(1.07211 0.333003 4.61909e-18)
(1.12603 0.295431 2.32645e-18)
(1.14671 0.245571 2.82615e-18)
(1.1374 0.186578 -9.28896e-19)
(1.10176 0.118235 4.22717e-18)
(1.04141 0.0417936 1.24985e-18)
(0.227901 0.193781 3.10764e-19)
(0.510702 0.317851 2.01181e-18)
(0.718291 0.355984 8.77944e-19)
(0.863439 0.356407 1.92048e-18)
(0.966629 0.333006 1.5837e-18)
(1.03246 0.295435 5.3325e-18)
(1.06893 0.245575 3.84336e-18)
(1.07831 0.186583 9.87252e-18)
(1.06431 0.118239 1.99979e-18)
(1.02818 0.0417957 5.4587e-19)
(0.169527 0.174817 2.00581e-19)
(0.414946 0.286739 -1.61352e-18)
(0.611047 0.321134 -1.30866e-18)
(0.756067 0.321516 2.79592e-18)
(0.866306 0.300405 -1.76683e-18)
(0.943454 0.266509 -2.37526e-18)
(0.994942 0.22153 3.15154e-18)
(1.02209 0.16831 6.29257e-19)
(1.02869 0.106657 6.89734e-18)
(1.01558 0.0376995 -1.00061e-18)
(0.119863 0.138728 6.38202e-19)
(0.33348 0.227555 -1.76817e-18)
(0.519813 0.254852 -1.21735e-18)
(0.664727 0.255161 -2.57175e-19)
(0.780963 0.238411 -3.61728e-18)
(0.867742 0.211514 1.6964e-19)
(0.932009 0.175821 -5.64178e-18)
(0.974282 0.133587 -4.58517e-18)
(0.998394 0.0846574 -6.73784e-18)
(1.00488 0.0299264 -4.68039e-18)
(0.0837914 0.0890878 1.48748e-19)
(0.274312 0.146108 -1.5625e-18)
(0.453544 0.163622 -1.47769e-18)
(0.598374 0.163818 -2.60694e-18)
(0.718966 0.153063 -3.64818e-18)
(0.812741 0.135795 -1.19503e-18)
(0.886289 0.112879 -2.24974e-18)
(0.939545 0.0857627 -1.82356e-18)
(0.97638 0.054349 -4.80205e-19)
(0.997094 0.0192115 1.03722e-18)
(0.0648201 0.030681 1.61704e-19)
(0.24318 0.0503345 6.70462e-19)
(0.418685 0.0563695 -9.2744e-19)
(0.56348 0.0564406 -1.75356e-18)
(0.686364 0.0527365 -6.83229e-19)
(0.78382 0.0467887 -1.46068e-18)
(0.862249 0.0388935 -1.7767e-18)
(0.92128 0.029551 -1.57087e-18)
(0.964805 0.0187266 -9.98419e-19)
(0.993001 0.00661939 -1.75942e-19)
)
;

boundaryField
{
    up
    {
        type            fixedValue;
        value           uniform (1 0 0);
    }
    hole
    {
        type            fixedValue;
        value           uniform (0 0 0);
    }
    frontAndBack
    {
        type            empty;
    }
}


// ************************************************************************* //
