/*--------------------------------*- C++ -*----------------------------------*\
| =========                 |                                                 |
| \\      /  F ield         | foam-extend: Open Source CFD                    |
|  \\    /   O peration     | Version:  3.0                                   |
|   \\  /    A nd           | Web:         http://www.extend-project.de       |
|    \\/     M anipulation  |                                                 |
\*---------------------------------------------------------------------------*/
FoamFile
{
    version     2.0;
    format      ascii;
    class       volVectorField;
    location    "15";
    object      s;
}
// * * * * * * * * * * * * * * * * * * * * * * * * * * * * * * * * * * * * * //

dimensions      [0 1 -1 0 0 0 0];

internalField   nonuniform List<vector> 
400
(
(2.76707 0.605704 -3.09536e-18)
(1.47999 0.369865 -1.9645e-18)
(0.80674 0.240299 -1.2893e-18)
(0.430025 0.162742 -9.03853e-19)
(0.20353 0.113146 -5.56467e-19)
(0.0642859 0.0801772 -2.02484e-19)
(-0.0250968 0.0574599 -1.731e-20)
(-0.0830061 0.041492 2.12182e-19)
(-0.121299 0.03007 -6.23273e-20)
(-0.146846 0.0218134 -8.55552e-20)
(2.42355 1.76522 -5.61719e-18)
(1.27604 1.0793 -1.01122e-18)
(0.678716 0.702293 -4.77315e-19)
(0.346985 0.476507 -5.08031e-19)
(0.148924 0.33204 2.18309e-19)
(0.0283385 0.23595 2.52901e-19)
(-0.0483792 0.169691 -9.26566e-20)
(-0.0975412 0.123081 1.98464e-18)
(-0.12971 0.0897087 -1.10617e-18)
(-0.150942 0.0655577 -1.07919e-18)
(1.7678 2.77395 3.8912e-18)
(0.88624 1.70069 1.74997e-18)
(0.433659 1.11018 4.4744e-19)
(0.187715 0.756156 -6.72103e-20)
(0.0439059 0.529377 6.9137e-19)
(-0.0410593 0.378344 1.48492e-18)
(-0.093583 0.274047 -1.78076e-18)
(-0.126022 0.200558 7.12288e-19)
(-0.146472 0.147833 -7.57192e-19)
(-0.159439 0.109589 -7.60151e-18)
(0.859463 3.54724 1.68264e-17)
(0.345104 2.18444 4.38108e-18)
(0.092519 1.43338 8.4769e-19)
(-0.0347968 0.982327 4.55784e-19)
(-0.103518 0.692836 -1.76454e-18)
(-0.139134 0.499635 -1.25723e-19)
(-0.158099 0.365899 3.53639e-19)
(-0.167311 0.27141 3.13492e-18)
(-0.171454 0.2034 -7.71401e-19)
(-0.172897 0.153882 -3.06975e-18)
(-0.219279 4.02257 1.30369e-17)
(-0.299771 2.49375 2.85588e-18)
(-0.315778 1.64903 3.16762e-19)
(-0.302592 1.14038 8.85344e-20)
(-0.282256 0.812971 -8.56269e-19)
(-0.259249 0.593768 -3.39389e-18)
(-0.238277 0.441487 -3.3781e-18)
(-0.219786 0.333455 -5.28802e-18)
(-0.204429 0.255323 -4.46957e-19)
(-0.192044 0.198117 -2.93338e-18)
(-1.37152 4.16538 -9.74124e-18)
(-0.992213 2.60791 -2.8915e-18)
(-0.757046 1.74397 -1.24629e-18)
(-0.594408 1.22166 -2.26705e-18)
(-0.479137 0.883975 -1.64958e-18)
(-0.393489 0.656816 -2.69865e-18)
(-0.329721 0.498163 -2.46764e-18)
(-0.281447 0.384934 -1.28982e-18)
(-0.24504 0.302469 -4.16381e-18)
(-0.217656 0.241609 8.54962e-19)
(-2.49495 3.97217 -1.50725e-17)
(-1.6728 2.5241 -5.1652e-18)
(-1.19505 1.71588 -1.83949e-18)
(-0.887634 1.22417 -2.80659e-18)
(-0.68009 0.904099 -4.20731e-18)
(-0.53333 0.687226 -4.49523e-18)
(-0.427631 0.53453 -4.11743e-18)
(-0.350029 0.42458 -6.93813e-18)
(-0.292766 0.34368 -3.99136e-18)
(-0.250411 0.283288 1.46182e-18)
(-3.49155 3.47053 -6.13082e-18)
(-2.28449 2.25749 -4.47953e-18)
(-1.59487 1.57327 -2.881e-18)
(-1.16038 1.15261 -3.27875e-18)
(-0.871397 0.875698 -2.38006e-18)
(-0.67037 0.68586 -9.62566e-19)
(-0.527175 0.550482 1.93776e-18)
(-0.423133 0.451647 -5.28323e-18)
(-0.346887 0.377792 -4.6023e-18)
(-0.290748 0.321721 -2.89745e-18)
(-4.27697 2.7163 -4.46966e-18)
(-2.77794 1.83954 -2.98024e-18)
(-1.92613 1.33458 -2.38193e-18)
(-1.39345 1.0178 -2.96013e-19)
(-1.04089 0.804891 -1.1537e-18)
(-0.797015 0.655817 -3.55674e-19)
(-0.62384 0.547121 3.09124e-19)
(-0.498357 0.465907 -3.48625e-18)
(-0.406458 0.403683 4.3432e-19)
(-0.338735 0.355193 -4.4023e-19)
(-4.78838 1.78787 -1.8132e-18)
(-3.1161 1.31481 -2.48216e-18)
(-2.16577 1.02621 -2.06327e-18)
(-1.57205 0.835556 -9.31144e-19)
(-1.17896 0.700882 -6.55693e-19)
(-0.90708 0.602058 3.33373e-19)
(-0.713748 0.526592 6.90505e-19)
(-0.57341 0.467612 3.80474e-19)
(-0.470293 0.420329 4.60315e-19)
(-0.39396 0.38182 1.38737e-19)
(-4.99036 0.778434 -1.60281e-18)
(-3.27754 0.736524 -1.42831e-18)
(-2.30005 0.679889 -1.74795e-18)
(-1.687 0.625022 -7.20144e-19)
(-1.27938 0.575005 6.91489e-19)
(-0.996243 0.530866 2.10711e-18)
(-0.793899 0.491824 2.69422e-18)
(-0.646212 0.457431 3.17425e-18)
(-0.536968 0.426865 1.94278e-18)
(-0.455467 0.3997 6.60753e-19)
(-4.87791 -0.213188 -3.87086e-18)
(-3.2583 0.161286 -1.53145e-18)
(-2.32565 0.32951 7.72257e-19)
(-1.73547 0.406809 -1.1758e-18)
(-1.33966 0.43958 4.44859e-18)
(-1.06231 0.44921 5.34894e-18)
(-0.86232 0.446218 4.96768e-18)
(-0.714972 0.436358 1.12265e-17)
(-0.604843 0.42265 4.11581e-18)
(-0.521742 0.407083 1.88504e-18)
(-4.47667 -1.09225 -7.21311e-19)
(-3.07193 -0.356445 4.47901e-19)
(-2.24978 0.00783555 -1.69916e-19)
(-1.72105 0.200961 -6.90524e-20)
(-1.36117 0.306713 6.36675e-18)
(-1.10526 0.364062 1.1232e-17)
(-0.918111 0.393322 2.91399e-18)
(-0.778226 0.405624 1.42398e-17)
(-0.672096 0.407333 1.81882e-17)
(-0.590748 0.402542 1.76029e-17)
(-3.83998 -1.77727 -5.53944e-19)
(-2.74794 -0.769647 7.57213e-19)
(-2.08924 -0.256687 -1.6833e-18)
(-1.65314 0.025026 5.53332e-18)
(-1.3488 0.187137 -3.11842e-18)
(-1.12711 0.281737 5.02868e-18)
(-0.961398 0.336497 7.30944e-18)
(-0.834857 0.366588 1.56958e-17)
(-0.736792 0.380904 7.33963e-18)
(-0.660016 0.385128 4.05205e-19)
(-3.04336 -2.20792 6.04498e-18)
(-2.32857 -1.04324 3.31718e-18)
(-1.8685 -0.442631 -1.11799e-19)
(-1.54591 -0.107598 3.78331e-18)
(-1.31032 0.0892165 6.1479e-19)
(-1.13154 0.207329 -6.48101e-18)
(-0.993174 0.278641 -3.75922e-18)
(-0.884072 0.320649 -4.64586e-18)
(-0.796949 0.343733 1.30479e-17)
(-0.726781 0.3545 2.23236e-17)
(-2.17674 -2.35073 6.87624e-18)
(-1.86444 -1.1574 8.5927e-19)
(-1.61712 -0.537576 2.28939e-18)
(-1.41666 -0.18888 -3.04894e-18)
(-1.25545 0.0182129 -1.09105e-18)
(-1.12339 0.144281 -5.57742e-18)
(-1.01508 0.221966 -6.64404e-18)
(-0.925369 0.26917 -7.09516e-18)
(-0.850631 0.296586 -1.97779e-17)
(-0.788154 0.311008 -2.39779e-17)
(-1.33543 -2.2022 4.12265e-19)
(-1.40935 -1.10931 6.16608e-19)
(-1.36667 -0.539185 3.18347e-18)
(-1.28399 -0.216818 -4.01031e-18)
(-1.19475 -0.0241257 -8.96502e-18)
(-1.1081 0.0941464 -1.08943e-17)
(-1.02913 0.167867 -1.11672e-17)
(-0.958478 0.213418 -1.8252e-17)
(-0.896038 0.240625 -1.34708e-17)
(-0.841311 0.255723 -2.38031e-18)
(-0.61048 -1.78883 1.89891e-18)
(-1.0148 -0.913249 -1.15179e-18)
(-1.14745 -0.45526 -1.34548e-18)
(-1.16585 -0.19549 -6.06899e-18)
(-1.1385 -0.0396068 -4.85301e-18)
(-1.09098 0.0565472 -3.0278e-18)
(-1.03738 0.116888 8.52155e-19)
(-0.983292 0.154535 -1.70842e-17)
(-0.931595 0.177375 -2.11451e-17)
(-0.8837 0.19041 -2.79904e-17)
(-0.0795627 -1.16427 -3.6848e-18)
(-0.724784 -0.598948 -5.56357e-19)
(-0.985375 -0.302779 -1.7324e-18)
(-1.07763 -0.134488 1.01842e-18)
(-1.09554 -0.0332696 -2.59728e-18)
(-1.07669 0.0293435 -2.03029e-18)
(-1.04172 0.0687885 -1.74935e-18)
(-0.999805 0.0935332 -9.7016e-18)
(-0.956041 0.108676 -3.32559e-18)
(-0.913217 0.117448 -3.43439e-18)
(0.200776 -0.403732 4.20157e-20)
(-0.571338 -0.208422 -1.53547e-18)
(-0.89936 -0.106025 -2.05378e-18)
(-1.03055 -0.0477923 -1.00205e-18)
(-1.07235 -0.0127313 -1.74629e-18)
(-1.06864 0.00898563 -6.61544e-19)
(-1.04351 0.0226912 -4.78189e-19)
(-1.00805 0.0313104 -1.20783e-18)
(-0.968491 0.0366056 -7.15238e-19)
(-0.928364 0.0396936 -3.7467e-19)
(0.200776 0.403732 3.64993e-19)
(-0.571338 0.208422 -2.42419e-19)
(-0.899359 0.106026 -1.9796e-18)
(-1.03055 0.0477923 -1.00181e-18)
(-1.07235 0.0127317 4.76647e-19)
(-1.06864 -0.0089856 2.27638e-18)
(-1.04351 -0.0226911 3.01116e-18)
(-1.00805 -0.0313103 3.70238e-18)
(-0.96849 -0.0366055 2.24334e-18)
(-0.928364 -0.0396935 7.79379e-19)
(-0.0795619 1.16427 -1.32949e-18)
(-0.724782 0.598949 -9.39408e-19)
(-0.985374 0.30278 1.9157e-18)
(-1.07763 0.134488 -1.81174e-18)
(-1.09554 0.0332701 6.14766e-18)
(-1.07669 -0.0293434 7.08706e-18)
(-1.04172 -0.0687882 6.59225e-18)
(-0.999805 -0.093533 1.51771e-17)
(-0.95604 -0.108676 5.81785e-18)
(-0.913216 -0.117448 2.94991e-18)
(-0.610479 1.78883 -7.51983e-19)
(-1.0148 0.91325 6.75365e-19)
(-1.14745 0.455261 5.03069e-20)
(-1.16585 0.19549 4.331e-20)
(-1.1385 0.0396075 8.60825e-18)
(-1.09098 -0.0565468 1.49157e-17)
(-1.03738 -0.116888 4.48909e-18)
(-0.983292 -0.154535 1.93876e-17)
(-0.931595 -0.177375 2.56395e-17)
(-0.8837 -0.19041 2.79725e-17)
(-1.33543 2.2022 -4.61895e-18)
(-1.40935 1.10931 -4.00737e-19)
(-1.36667 0.539187 -2.28919e-18)
(-1.28399 0.216819 7.14919e-18)
(-1.19475 0.0241269 -2.86313e-18)
(-1.10809 -0.0941459 7.2759e-18)
(-1.02912 -0.167866 1.0083e-17)
(-0.958477 -0.213417 1.97982e-17)
(-0.896037 -0.240625 1.00476e-17)
(-0.841311 -0.255722 1.60489e-18)
(-2.17674 2.35073 2.93098e-18)
(-1.86444 1.1574 1.91754e-18)
(-1.61712 0.537578 -7.17521e-19)
(-1.41666 0.188882 4.64227e-18)
(-1.25545 -0.0182114 1.69963e-18)
(-1.12339 -0.14428 -5.08332e-18)
(-1.01508 -0.221965 -1.77806e-18)
(-0.925368 -0.269169 -2.48717e-18)
(-0.85063 -0.296586 1.59608e-17)
(-0.788153 -0.311008 2.52376e-17)
(-3.04336 2.20792 2.92832e-18)
(-2.32856 1.04324 -8.28854e-19)
(-1.8685 0.442633 1.44312e-18)
(-1.54591 0.1076 -2.45229e-18)
(-1.31032 -0.0892146 4.83807e-20)
(-1.13154 -0.207328 -3.82719e-18)
(-0.993173 -0.27864 -4.47362e-18)
(-0.884071 -0.320648 -4.56427e-18)
(-0.796948 -0.343732 -1.67559e-17)
(-0.72678 -0.354499 -2.11888e-17)
(-3.83998 1.77727 -3.77643e-18)
(-2.74794 0.76965 -1.15757e-18)
(-2.08924 0.256689 1.90824e-18)
(-1.65314 -0.0250237 -3.60383e-18)
(-1.3488 -0.187134 -7.01303e-18)
(-1.12711 -0.281736 -8.46137e-18)
(-0.961396 -0.336495 -8.64387e-18)
(-0.834856 -0.366586 -1.44994e-17)
(-0.736791 -0.380903 -1.04564e-17)
(-0.660015 -0.385126 -1.27057e-18)
(-4.47667 1.09225 -5.33815e-19)
(-3.07193 0.35645 -2.09839e-18)
(-2.24978 -0.00783306 -1.78336e-18)
(-1.72105 -0.200959 -5.31217e-18)
(-1.36117 -0.30671 -3.90554e-18)
(-1.10526 -0.36406 -2.29808e-18)
(-0.91811 -0.393319 9.8675e-19)
(-0.778226 -0.405622 -1.24999e-17)
(-0.672095 -0.407331 -1.45661e-17)
(-0.590747 -0.40254 -1.7778e-17)
(-4.87791 0.213192 -3.28595e-18)
(-3.2583 -0.161281 -1.40259e-18)
(-2.32565 -0.329507 -2.04106e-18)
(-1.73547 -0.406806 -3.16839e-19)
(-1.33966 -0.439577 -2.50853e-18)
(-1.06231 -0.449208 -1.95332e-18)
(-0.862319 -0.446215 -1.60373e-18)
(-0.714972 -0.436356 -7.26084e-18)
(-0.604842 -0.422647 -2.33943e-18)
(-0.521741 -0.407081 -2.35748e-18)
(-4.99036 -0.77843 -9.53905e-19)
(-3.27754 -0.736519 -1.69562e-18)
(-2.30005 -0.679887 -1.98374e-18)
(-1.687 -0.625018 -1.41159e-18)
(-1.27938 -0.575002 -2.01342e-18)
(-0.996243 -0.530864 -1.39511e-18)
(-0.793899 -0.491821 -1.26749e-18)
(-0.646212 -0.457429 -1.67032e-18)
(-0.536968 -0.426862 -1.02292e-18)
(-0.455467 -0.399698 -4.34518e-19)
(-4.78838 -1.78787 -1.12756e-18)
(-3.1161 -1.31481 -7.78613e-19)
(-2.16577 -1.02621 -1.52095e-18)
(-1.57205 -0.835553 -1.18553e-18)
(-1.17896 -0.700879 -7.71314e-19)
(-0.90708 -0.602055 -3.32204e-20)
(-0.713748 -0.526589 2.99634e-19)
(-0.57341 -0.46761 7.4031e-19)
(-0.470293 -0.420327 2.38237e-19)
(-0.39396 -0.381818 3.307e-20)
(-4.27697 -2.7163 -3.07581e-18)
(-2.77794 -1.83953 -4.19188e-19)
(-1.92613 -1.33458 6.66128e-19)
(-1.39346 -1.0178 -1.14398e-18)
(-1.04089 -0.804887 1.91738e-18)
(-0.797016 -0.655815 1.99101e-18)
(-0.623841 -0.547118 1.53191e-18)
(-0.498358 -0.465905 5.93523e-18)
(-0.406458 -0.403681 5.95863e-19)
(-0.338736 -0.355191 -1.43159e-20)
(-3.49155 -3.47053 3.86053e-18)
(-2.2845 -2.25749 1.97742e-18)
(-1.59487 -1.57327 6.67656e-19)
(-1.16038 -1.15261 4.51531e-20)
(-0.871398 -0.875695 2.93287e-18)
(-0.670371 -0.685858 5.16853e-18)
(-0.527176 -0.550479 -2.05638e-19)
(-0.423134 -0.451645 5.86013e-18)
(-0.346888 -0.37779 6.69409e-18)
(-0.290749 -0.321719 2.76817e-18)
(-2.49495 -3.97216 1.27614e-17)
(-1.67281 -2.5241 3.22312e-18)
(-1.19505 -1.71587 2.41791e-19)
(-0.887636 -1.22417 2.07163e-18)
(-0.680091 -0.904097 -1.50927e-18)
(-0.533331 -0.687224 2.12151e-18)
(-0.427633 -0.534528 3.12718e-18)
(-0.35003 -0.424578 7.23727e-18)
(-0.292767 -0.343678 1.93655e-18)
(-0.250412 -0.283286 -1.87007e-18)
(-1.37153 -4.16538 9.92288e-18)
(-0.992216 -2.60791 1.45623e-18)
(-0.757048 -1.74397 -2.88969e-19)
(-0.59441 -1.22166 9.47483e-19)
(-0.479138 -0.883973 2.28568e-19)
(-0.39349 -0.656815 -1.99619e-18)
(-0.329723 -0.498161 -1.39694e-18)
(-0.281448 -0.384933 -3.12933e-18)
(-0.245041 -0.302468 2.46598e-18)
(-0.217657 -0.241608 -1.932e-20)
(-0.219281 -4.02256 -1.36892e-17)
(-0.299774 -2.49375 -4.57962e-18)
(-0.315779 -1.64903 -2.09256e-18)
(-0.302594 -1.14038 -1.67041e-18)
(-0.282258 -0.812969 -5.10157e-19)
(-0.259251 -0.593767 -9.48429e-19)
(-0.238279 -0.441486 -2.97223e-19)
(-0.219787 -0.333454 1.24107e-18)
(-0.20443 -0.255321 -1.14186e-18)
(-0.192045 -0.198116 3.64415e-18)
(0.859461 -3.54724 -1.92612e-17)
(0.345101 -2.18444 -6.93937e-18)
(0.0925179 -1.43338 -3.11471e-18)
(-0.0347985 -0.982325 -2.40012e-18)
(-0.103519 -0.692834 -2.25533e-18)
(-0.139135 -0.499634 -2.06232e-18)
(-0.1581 -0.365898 -1.59414e-18)
(-0.167312 -0.271409 -3.18558e-18)
(-0.171455 -0.2034 -9.76971e-19)
(-0.172898 -0.153882 2.57156e-18)
(1.7678 -2.77395 -8.56355e-18)
(0.886238 -1.70069 -5.42612e-18)
(0.433658 -1.11017 -3.31886e-18)
(0.187713 -0.756156 -2.5219e-18)
(0.0439044 -0.529376 -1.43257e-18)
(-0.0410604 -0.378344 -2.32836e-19)
(-0.0935845 -0.274047 2.07234e-18)
(-0.126024 -0.200557 -6.98892e-19)
(-0.146473 -0.147833 1.97669e-18)
(-0.15944 -0.109588 7.31495e-18)
(2.42354 -1.76522 -4.07081e-18)
(1.27603 -1.0793 -3.82646e-18)
(0.678715 -0.702292 -2.69058e-18)
(0.346984 -0.476506 -1.63125e-18)
(0.148923 -0.33204 -1.06493e-18)
(0.028338 -0.23595 -2.78706e-19)
(-0.0483797 -0.16969 4.54749e-19)
(-0.0975415 -0.123081 -1.0455e-18)
(-0.12971 -0.0897084 1.42048e-18)
(-0.150943 -0.0655575 6.36676e-19)
(2.76707 -0.605705 -2.80912e-18)
(1.47999 -0.369865 -2.6423e-18)
(0.80674 -0.240298 -1.99322e-18)
(0.430025 -0.162742 -1.34067e-18)
(0.203529 -0.113145 -9.22821e-19)
(0.0642856 -0.0801773 -4.00186e-19)
(-0.0250974 -0.0574595 -9.8797e-20)
(-0.0830066 -0.0414919 -8.20136e-20)
(-0.1213 -0.0300697 1.52629e-19)
(-0.146846 -0.0218131 7.889e-20)
)
;

boundaryField
{
    up
    {
        type            myHeatFlux;
        alpha           uniform 1;
        Theta_wall      uniform 1;
        value           nonuniform List<vector> 
40
(
(-0.155292 0.0188552 -0)
(-0.157894 0.0568927 -0)
(-0.163523 0.0958264 -6.3237e-18)
(-0.172973 0.135978 -0)
(-0.187289 0.17729 -1.50761e-18)
(-0.207625 0.219234 -1.76131e-18)
(-0.235065 0.260776 0)
(-0.270437 0.300406 -9.62043e-18)
(-0.31415 0.336216 0)
(-0.366061 0.366045 0)
(-0.425378 0.387651 0)
(-0.490641 0.398921 0)
(-0.559755 0.398071 3.21687e-17)
(-0.630087 0.383842 0)
(-0.698625 0.355653 4.00278e-17)
(-0.762175 0.313709 -4.32968e-17)
(-0.81759 0.259044 0)
(-0.862 0.193492 -4.81128e-17)
(-0.89303 0.119598 0)
(-0.908986 0.0404619 0)
(-0.908986 -0.0404619 0)
(-0.893029 -0.119598 0)
(-0.861999 -0.193492 4.81128e-17)
(-0.817589 -0.259043 0)
(-0.762174 -0.313708 4.32967e-17)
(-0.698624 -0.355652 -4.00278e-17)
(-0.630086 -0.38384 0)
(-0.559755 -0.398069 -3.21686e-17)
(-0.490641 -0.398919 0)
(-0.425378 -0.387649 0)
(-0.366061 -0.366042 0)
(-0.314151 -0.336214 0)
(-0.270437 -0.300404 9.62032e-18)
(-0.235066 -0.260775 0)
(-0.207627 -0.219232 1.76122e-18)
(-0.18729 -0.177289 1.5077e-18)
(-0.172974 -0.135978 0)
(-0.163525 -0.0958259 6.32377e-18)
(-0.157894 -0.0568924 0)
(-0.155292 -0.018855 0)
)
;
    }
    hole
    {
        type            myHeatFlux;
        alpha           uniform 1;
        Theta_wall      uniform 4;
        value           nonuniform List<vector> 
40
(
(4.24242 0.864627 0)
(3.74426 2.51791 -2.92169e-17)
(2.79397 3.95058 0)
(1.47923 5.03893 5.38112e-17)
(-0.0791787 5.69192 5.02503e-17)
(-1.73892 5.85968 -4.59665e-17)
(-3.34981 5.53809 -4.10653e-17)
(-4.76823 4.76883 0)
(-5.87084 3.63511 0)
(-6.56621 2.25327 0)
(-6.80347 0.761281 0)
(-6.57675 -0.694789 -5.94019e-18)
(-5.92542 -1.97514 0)
(-4.92978 -2.95981 7.2072e-19)
(-3.70276 -3.56031 -4.18049e-18)
(-2.37855 -3.72807 8.4643e-18)
(-1.09905 -3.45896 1.20252e-17)
(0.000280852 -2.7934 0)
(0.803934 -1.812 0)
(1.22787 -0.627375 0)
(1.22787 0.627375 0)
(0.803935 1.812 8.32389e-18)
(0.00028272 2.7934 0)
(-1.09904 3.45897 -1.20253e-17)
(-2.37855 3.72807 -8.46435e-18)
(-3.70276 3.56031 4.18054e-18)
(-4.92978 2.95981 -7.20657e-19)
(-5.92542 1.97514 -0)
(-6.57675 0.694794 -0)
(-6.80347 -0.761276 -0)
(-6.56621 -2.25327 -0)
(-5.87084 -3.63511 -1.49528e-17)
(-4.76824 -4.76883 -0)
(-3.34981 -5.53808 4.10652e-17)
(-1.73892 -5.85967 4.59664e-17)
(-0.0791819 -5.69192 -5.02502e-17)
(1.47922 -5.03893 -5.38112e-17)
(2.79397 -3.95058 -0)
(3.74425 -2.51791 -0)
(4.24242 -0.864627 -0)
)
;
    }
    frontAndBack
    {
        type            empty;
    }
}


// ************************************************************************* //
