/*--------------------------------*- C++ -*----------------------------------*\
| =========                 |                                                 |
| \\      /  F ield         | foam-extend: Open Source CFD                    |
|  \\    /   O peration     | Version:  3.0                                   |
|   \\  /    A nd           | Web:         http://www.extend-project.de       |
|    \\/     M anipulation  |                                                 |
\*---------------------------------------------------------------------------*/
FoamFile
{
    version     2.0;
    format      ascii;
    class       volScalarField;
    location    "15";
    object      Theta;
}
// * * * * * * * * * * * * * * * * * * * * * * * * * * * * * * * * * * * * * //

dimensions      [0 2 -2 0 0 0 0];

internalField   nonuniform List<scalar> 
400
(
-10.465
-7.92666
-7.28762
-6.51784
-6.32214
-6.16856
-6.1627
-6.27719
-6.3689
-6.61704
-10.1926
-7.71169
-7.08575
-6.33359
-6.14207
-5.99181
-5.98583
-6.09731
-6.18664
-6.42877
-9.62766
-7.27362
-6.6808
-5.96687
-5.78556
-5.64303
-5.6376
-5.74362
-5.82854
-6.0585
-8.81197
-6.63757
-6.08981
-5.43015
-5.26276
-5.13088
-5.12585
-5.22358
-5.30196
-5.5142
-7.7486
-5.81015
-5.32241
-4.73401
-4.58519
-4.46746
-4.46317
-4.5503
-4.62026
-4.80953
-6.47287
-4.81673
-4.40041
-3.89726
-3.77052
-3.66963
-3.66612
-3.74042
-3.80021
-3.96184
-5.01176
-3.67927
-3.34496
-2.93958
-2.8382
-2.75667
-2.7541
-2.81377
-2.86194
-2.99196
-3.40319
-2.4269
-2.18279
-1.885
-1.81151
-1.75127
-1.74971
-1.79324
-1.8286
-1.92381
-1.68599
-1.09
-0.942202
-0.759294
-0.715583
-0.678072
-0.6776
-0.703917
-0.725608
-0.783655
0.0972784
0.298333
0.346141
0.409741
0.422543
0.436444
0.435792
0.427355
0.419862
0.400408
1.9028
1.70399
1.65056
1.59335
1.57486
1.56486
1.56307
1.57273
1.57961
1.59923
3.68607
3.09232
2.93891
2.76239
2.713
2.67937
2.67647
2.70401
2.72509
2.7833
5.40321
4.42917
4.17949
3.88806
3.80892
3.75256
3.74857
3.79333
3.82809
3.92346
7.01192
5.68159
5.34174
4.94265
4.83566
4.75798
4.75299
4.81387
4.86144
4.99163
8.4726
6.81877
6.39705
5.9002
5.76791
5.67089
5.66498
5.74051
5.79971
5.96151
9.74928
7.81269
7.31943
6.73712
6.58274
6.4688
6.4621
6.55042
6.6198
6.80922
10.8105
8.63888
8.08616
7.43281
7.26007
7.13206
7.12471
7.22367
7.3015
7.51389
11.6302
9.277
8.67837
7.97014
7.78323
7.64435
7.6365
7.74367
7.82804
8.05816
12.1881
9.71134
9.08148
8.33588
8.13934
7.99306
7.98487
8.09763
8.18644
8.42864
12.4705
9.93119
9.28556
8.52101
8.31962
8.16958
8.16123
8.27682
8.36789
8.6162
12.4705
9.93116
9.28558
8.52099
8.31964
8.16959
8.16125
8.27684
8.36792
8.61622
12.1881
9.71123
9.08155
8.33581
8.1394
7.99307
7.98493
8.09768
8.18651
8.42871
11.6301
9.27683
8.67848
7.97004
7.78333
7.64438
7.6366
7.74375
7.82815
8.05827
10.8104
8.63864
8.08631
7.43267
7.26021
7.13209
7.12485
7.22378
7.30166
7.51404
9.74914
7.8124
7.31962
6.73695
6.58291
6.46884
6.46227
6.55056
6.61999
6.80941
8.47244
6.81843
6.39727
5.89999
5.76811
5.67093
5.66518
5.74067
5.79994
5.96172
7.01175
5.68122
5.34199
4.94242
4.83587
4.75803
4.75321
4.81405
4.8617
4.99187
5.40302
4.42876
4.17975
3.88781
3.80915
3.75261
3.74881
3.79352
3.82836
3.92372
3.68587
3.0919
2.93917
2.76214
2.71323
2.67944
2.67671
2.70421
2.72537
2.78357
1.90259
1.70357
1.6508
1.59311
1.57509
1.56492
1.56331
1.57293
1.5799
1.5995
0.0970773
0.297932
0.346357
0.409517
0.422749
0.436512
0.436022
0.427555
0.420143
0.400674
-1.68621
-1.09038
-0.942038
-0.759485
-0.715405
-0.677994
-0.677384
-0.703719
-0.725338
-0.783398
-3.40334
-2.42719
-2.18268
-1.88514
-1.81138
-1.75119
-1.74952
-1.79306
-1.82836
-1.92357
-5.0121
-3.67957
-3.34497
-2.93967
-2.8381
-2.75656
-2.75392
-2.81357
-2.86169
-2.99172
-6.47269
-4.8167
-4.4004
-3.89727
-3.7705
-3.66956
-3.66604
-3.74032
-3.80008
-3.9617
-7.74971
-5.81063
-5.32271
-4.73402
-4.58515
-4.46724
-4.46294
-4.54999
-4.61993
-4.80923
-8.81021
-6.63661
-6.08962
-5.43001
-5.2629
-5.13096
-5.12607
-5.22377
-5.3022
-5.51439
-9.63172
-7.27533
-6.6816
-5.96691
-5.78542
-5.64254
-5.63702
-5.74288
-5.82774
-6.05773
-10.1861
-7.70849
-7.08478
-6.33322
-6.14232
-5.99225
-5.98656
-6.09814
-6.18761
-6.4296
-10.4752
-7.93136
-7.2894
-6.51832
-6.32196
-6.16792
-6.16177
-6.27602
-6.36758
-6.6158
)
;

boundaryField
{
    up
    {
        type            myTemperature;
        value           nonuniform List<scalar> 
40
(
-6.70416
-6.51372
-6.1392
-5.58868
-4.87594
-4.01856
-3.03758
-1.95721
-0.804018
0.393588
1.60612
2.80374
3.95693
5.03732
6.01829
6.8757
7.58843
8.13893
8.51364
8.70335
8.70337
8.51371
8.13904
7.58858
6.87589
6.01851
5.03756
3.95719
2.804
1.6064
0.393855
-0.803761
-1.95698
-3.03735
-4.0184
-4.87565
-5.58887
-6.13839
-6.51457
-6.70285
)
;
    }
    hole
    {
        type            myTemperature;
        value           nonuniform List<scalar> 
40
(
-11.7211
-11.4175
-10.792
-9.88618
-8.70693
-7.29131
-5.67041
-3.88572
-1.98059
-0.00212751
2.00101
3.97948
5.88457
7.66937
9.28994
10.7064
11.8838
12.7932
13.4122
13.7255
13.7255
13.4121
12.7931
11.8837
10.7063
9.28987
7.6693
5.88449
3.97939
2.00091
-0.00222979
-1.98072
-3.88583
-5.67071
-7.29122
-8.70802
-9.88472
-10.796
-11.4114
-11.7312
)
;
    }
    frontAndBack
    {
        type            empty;
    }
}


// ************************************************************************* //
