/*--------------------------------*- C++ -*----------------------------------*\
| =========                 |                                                 |
| \\      /  F ield         | foam-extend: Open Source CFD                    |
|  \\    /   O peration     | Version:  3.0                                   |
|   \\  /    A nd           | Web:         http://www.extend-project.de       |
|    \\/     M anipulation  |                                                 |
\*---------------------------------------------------------------------------*/
FoamFile
{
    version     2.0;
    format      ascii;
    class       volScalarField;
    location    "15";
    object      Theta;
}
// * * * * * * * * * * * * * * * * * * * * * * * * * * * * * * * * * * * * * //

dimensions      [0 2 -2 0 0 0 0];

internalField   nonuniform List<scalar> 
400
(
-0.32492
-0.370436
0.0284092
0.150661
0.362037
0.473526
0.591409
0.675908
0.754864
0.816534
-0.258631
-0.308765
0.0772886
0.193137
0.39697
0.503378
0.616404
0.69703
0.772381
0.831077
-0.127636
-0.186807
0.173863
0.277146
0.466012
0.562399
0.665808
0.738777
0.806996
0.85981
0.0647761
-0.00772571
0.315729
0.400498
0.567424
0.649072
0.738372
0.800094
0.857842
0.902019
0.313914
0.224183
0.499422
0.560238
0.698741
0.761308
0.832334
0.879489
0.923678
0.95667
0.613612
0.503136
0.720393
0.752382
0.856705
0.896315
0.945363
0.974996
1.00288
1.02241
0.956513
0.822312
0.973221
0.97223
1.03744
1.05079
1.07469
1.08427
1.09349
1.09763
1.33415
1.17381
1.25166
1.21434
1.23649
1.2209
1.21711
1.20462
1.19328
1.18048
1.73726
1.54903
1.54888
1.47279
1.44896
1.40249
1.36914
1.33308
1.29981
1.2689
2.15587
1.93863
1.85752
1.74116
1.66961
1.59107
1.52702
1.46648
1.41043
1.36073
2.57973
2.33321
2.17006
2.01293
1.89302
1.78201
1.68688
1.60155
1.52243
1.45371
2.99833
2.72281
2.47869
2.2813
2.11366
1.97058
1.84476
1.73496
1.63306
1.54554
3.40144
3.09803
2.77592
2.53974
2.32614
2.15217
1.99679
1.86342
1.73958
1.63396
3.77908
3.44953
3.05436
2.78185
2.52519
2.32229
2.13921
1.98376
1.83937
1.71681
4.12198
3.7687
3.30719
3.00169
2.70593
2.47675
2.26854
2.09304
1.92999
1.79203
4.42168
4.04765
3.52817
3.19384
2.8639
2.61176
2.38157
2.18854
2.00919
1.85777
4.67081
4.27954
3.71186
3.35356
2.99522
2.72398
2.47553
2.26794
2.07502
1.91242
4.86323
4.45865
3.85374
3.47692
3.09664
2.81066
2.5481
2.32926
2.12587
1.95463
4.99421
4.58055
3.95031
3.56089
3.16568
2.86966
2.5975
2.37099
2.16048
1.98336
5.06052
4.64227
3.99921
3.6034
3.20063
2.89953
2.62251
2.39212
2.178
1.99791
5.06052
4.64227
3.99921
3.60339
3.20064
2.89953
2.62251
2.39212
2.178
1.99791
4.99421
4.58055
3.95032
3.56088
3.16569
2.86965
2.5975
2.37099
2.16048
1.98336
4.86323
4.45863
3.85376
3.4769
3.09666
2.81065
2.54811
2.32925
2.12587
1.95463
4.67081
4.27952
3.71188
3.35353
2.99524
2.72397
2.47554
2.26793
2.07502
1.91242
4.42168
4.04763
3.52819
3.1938
2.86393
2.61174
2.38158
2.18854
2.00919
1.85777
4.12197
3.76867
3.30722
3.00165
2.70596
2.47673
2.26855
2.09303
1.92999
1.79202
3.77908
3.4495
3.05439
2.78181
2.52522
2.32226
2.13922
1.98376
1.83937
1.71681
3.40143
3.098
2.77596
2.53969
2.32617
2.15214
1.9968
1.86341
1.73958
1.63396
2.99832
2.72278
2.47873
2.28124
2.1137
1.97055
1.84477
1.73495
1.63306
1.54554
2.57972
2.33317
2.1701
2.01287
1.89306
1.78197
1.68689
1.60154
1.52243
1.45371
2.15586
1.93859
1.85756
1.74111
1.66965
1.59103
1.52703
1.46647
1.41043
1.36073
1.73725
1.54899
1.54892
1.47273
1.44901
1.40246
1.36916
1.33307
1.29981
1.2689
1.33415
1.17377
1.2517
1.21429
1.23653
1.22087
1.21713
1.20461
1.19328
1.18047
0.956503
0.822273
0.97326
0.972172
1.03748
1.05075
1.0747
1.08426
1.09349
1.09763
0.613607
0.503108
0.720435
0.752333
0.856746
0.896285
0.945378
0.974989
1.00288
1.02241
0.313901
0.224139
0.499454
0.56018
0.698773
0.761273
0.832344
0.879479
0.923678
0.956669
0.0647784
-0.00773085
0.31577
0.400469
0.567465
0.649053
0.73839
0.800089
0.857845
0.902019
-0.127656
-0.186864
0.173882
0.277085
0.46603
0.562363
0.665812
0.738765
0.806994
0.859808
-0.258615
-0.308731
0.0773139
0.193149
0.397001
0.50338
0.616422
0.697033
0.772387
0.831078
-0.324946
-0.370502
0.0284142
0.150604
0.362036
0.473495
0.591403
0.675896
0.754861
0.816532
)
;

boundaryField
{
    up
    {
        type            myTemperature;
        value           nonuniform List<scalar> 
40
(
0.846666
0.85975
0.885595
0.923565
0.972725
1.03186
1.09953
1.17405
1.25359
1.3362
1.41983
1.50244
1.58198
1.6565
1.72416
1.7833
1.83246
1.87043
1.89627
1.90936
1.90936
1.89627
1.87043
1.83246
1.7833
1.72416
1.6565
1.58198
1.50243
1.41983
1.33619
1.25359
1.17405
1.09953
1.03186
0.972724
0.923564
0.885594
0.859749
0.846666
)
;
    }
    hole
    {
        type            myTemperature;
        value           nonuniform List<scalar> 
40
(
-0.297186
-0.228599
-0.0931214
0.105912
0.363602
0.673602
1.02828
1.4189
1.83586
2.26887
2.70726
3.14027
3.55722
3.94784
4.30252
4.61252
4.87021
5.06925
5.20473
5.27331
5.27331
5.20473
5.06925
4.87022
4.61253
4.30253
3.94785
3.55723
3.14027
2.70726
2.26887
1.83586
1.41891
1.02829
0.673607
0.363606
0.105916
-0.0931189
-0.228597
-0.297186
)
;
    }
    frontAndBack
    {
        type            empty;
    }
}


// ************************************************************************* //
