/*--------------------------------*- C++ -*----------------------------------*\
| =========                 |                                                 |
| \\      /  F ield         | foam-extend: Open Source CFD                    |
|  \\    /   O peration     | Version:  3.0                                   |
|   \\  /    A nd           | Web:         http://www.extend-project.de       |
|    \\/     M anipulation  |                                                 |
\*---------------------------------------------------------------------------*/
FoamFile
{
    version     2.0;
    format      ascii;
    class       volVectorField;
    location    "1.2";
    object      u;
}
// * * * * * * * * * * * * * * * * * * * * * * * * * * * * * * * * * * * * * //

dimensions      [0 0 0 0 0 0 0];

internalField   nonuniform List<vector> 
400
(
(-0.00197156 -0.0132396 4.72906e-316)
(-0.0373447 0.0215882 4.11874e-316)
(-0.0675805 0.024069 2.88582e-316)
(-0.101374 0.0313945 2.86176e-316)
(-0.13499 0.0259496 1.63416e-316)
(-0.160952 0.0220156 1.9477e-316)
(-0.186944 0.0141799 9.15987e-317)
(-0.202852 0.00716104 1.42175e-316)
(-0.2169 -0.000580767 5.29653e-317)
(-0.222514 -0.00808889 1.13688e-316)
(-0.22313 -0.0156139 3.11828e-317)
(-0.218476 -0.0232791 9.59012e-317)
(-0.205348 -0.0312394 1.53136e-317)
(-0.1901 -0.0387052 8.03752e-317)
(-0.1642 -0.0468981 -1.06487e-318)
(-0.138396 -0.0515213 6.20096e-317)
(-0.103826 -0.0571606 -2.09879e-317)
(-0.0698566 -0.0508098 3.53419e-317)
(-0.037767 -0.0475342 -3.41214e-317)
(-0.0029026 -0.0134783 -8.27461e-318)
(-0.0238129 0.0645868 1.17967e-316)
(-0.0484875 0.0803458 1.6977e-316)
(-0.0808778 0.0761591 1.62179e-316)
(-0.101826 0.0783489 1.58421e-316)
(-0.128334 0.0686879 1.31614e-316)
(-0.144837 0.062755 1.18506e-316)
(-0.164912 0.0503099 9.17101e-317)
(-0.17561 0.0400463 8.26659e-317)
(-0.186682 0.0263827 6.13572e-317)
(-0.190545 0.0142017 5.76482e-317)
(-0.190882 4.10806e-05 4.07621e-317)
(-0.187498 -0.0123767 4.03294e-317)
(-0.176881 -0.0266092 2.56059e-317)
(-0.166469 -0.0374741 2.64638e-317)
(-0.14632 -0.0508418 1.24273e-317)
(-0.12976 -0.0574104 1.3801e-317)
(-0.102755 -0.067819 1.64588e-319)
(-0.0813571 -0.0658103 2.47071e-318)
(-0.0488483 -0.0697336 -9.89256e-318)
(-0.0232531 -0.0531782 -1.37895e-317)
(-0.0214295 0.0892091 2.8256e-316)
(-0.052803 0.106814 2.25683e-316)
(-0.0914857 0.103788 1.81721e-316)
(-0.11749 0.105469 1.52762e-316)
(-0.150292 0.0909975 1.18268e-316)
(-0.169045 0.079926 1.03764e-316)
(-0.192806 0.0599618 7.8184e-317)
(-0.204108 0.0418308 7.14661e-317)
(-0.216823 0.0198814 5.17214e-317)
(-0.220991 -0.00129219 4.93565e-317)
(-0.221648 -0.0239003 3.25139e-317)
(-0.218752 -0.0454701 3.16333e-317)
(-0.207017 -0.068184 1.47808e-317)
(-0.196622 -0.0873182 1.21748e-317)
(-0.172978 -0.108587 -8.5501e-318)
(-0.154388 -0.120692 -1.82988e-317)
(-0.120782 -0.136417 -4.98993e-317)
(-0.0939332 -0.13492 -8.04364e-317)
(-0.0543137 -0.138236 -1.33312e-316)
(-0.0212647 -0.119403 -2.2022e-316)
(-0.0232075 0.155951 2.17612e-317)
(-0.0572398 0.172562 7.18065e-317)
(-0.098978 0.161479 8.26862e-317)
(-0.122737 0.159206 8.73094e-317)
(-0.15605 0.137003 8.04068e-317)
(-0.171043 0.121095 7.21614e-317)
(-0.194085 0.0945927 6.09675e-317)
(-0.202418 0.0712844 5.17703e-317)
(-0.21449 0.0435698 4.15177e-317)
(-0.217559 0.0169179 3.37905e-317)
(-0.218287 -0.0113213 2.48422e-317)
(-0.216503 -0.0386563 1.79355e-317)
(-0.205528 -0.0675288 9.22431e-318)
(-0.198222 -0.0925859 2.0917e-318)
(-0.175298 -0.121201 -6.93487e-318)
(-0.16063 -0.138938 -1.36069e-317)
(-0.12629 -0.163481 -2.05361e-317)
(-0.101615 -0.166001 -1.94062e-317)
(-0.0586561 -0.178108 -1.5787e-317)
(-0.0226362 -0.158773 1.5992e-317)
(-0.0271603 0.188645 2.4626e-316)
(-0.0682588 0.20633 1.73935e-316)
(-0.119277 0.189768 1.36948e-316)
(-0.146543 0.18385 1.05781e-316)
(-0.186827 0.155493 8.43133e-317)
(-0.202557 0.1337 6.83521e-317)
(-0.2297 0.101876 5.46997e-317)
(-0.23781 0.0720849 4.43867e-317)
(-0.251944 0.0399563 3.43824e-317)
(-0.2552 0.0066775 2.64836e-317)
(-0.256615 -0.0255951 1.78295e-317)
(-0.255919 -0.0598157 1.0262e-317)
(-0.244028 -0.0931111 8.1921e-319)
(-0.23817 -0.125369 -8.894e-318)
(-0.211559 -0.159551 -2.22841e-317)
(-0.19703 -0.184057 -3.88541e-317)
(-0.154896 -0.21546 -6.26203e-317)
(-0.12656 -0.221831 -9.88283e-317)
(-0.0723014 -0.240154 -1.44529e-316)
(-0.0274293 -0.217877 -2.31484e-316)
(-0.0313402 0.262022 1.50239e-317)
(-0.0736733 0.280819 5.67464e-317)
(-0.130417 0.25254 6.44709e-317)
(-0.153805 0.240591 6.70226e-317)
(-0.195906 0.201678 6.12325e-317)
(-0.206442 0.172449 5.34697e-317)
(-0.233323 0.133424 4.46198e-317)
(-0.237483 0.0969209 3.61559e-317)
(-0.251155 0.0601115 2.79122e-317)
(-0.252895 0.020597 2.02996e-317)
(-0.254626 -0.0154764 1.26759e-317)
(-0.255339 -0.0565565 5.20362e-318)
(-0.24448 -0.0947034 -2.83692e-318)
(-0.242942 -0.135465 -1.11374e-317)
(-0.216845 -0.177628 -2.00637e-317)
(-0.2085 -0.212049 -2.83995e-317)
(-0.163966 -0.255899 -3.54695e-317)
(-0.140491 -0.269944 -3.51917e-317)
(-0.0787826 -0.302415 -3.02285e-317)
(-0.0322834 -0.277153 7.85504e-318)
(-0.0411121 0.304084 2.34672e-316)
(-0.0890381 0.320852 1.55607e-316)
(-0.158326 0.281642 1.1867e-316)
(-0.179548 0.261936 8.78957e-317)
(-0.227602 0.216113 6.86306e-317)
(-0.23377 0.179439 5.38399e-317)
(-0.262978 0.137477 4.22349e-317)
(-0.263745 0.0953369 3.25978e-317)
(-0.278588 0.0579858 2.40835e-317)
(-0.279343 0.0138816 1.63411e-317)
(-0.282265 -0.0217355 8.75991e-318)
(-0.284992 -0.067793 1.06086e-318)
(-0.275067 -0.1059 -7.44605e-318)
(-0.278505 -0.153531 -1.72016e-317)
(-0.251116 -0.198082 -2.92663e-317)
(-0.249363 -0.241976 -4.51165e-317)
(-0.197544 -0.293356 -6.64347e-317)
(-0.177916 -0.316833 -1.00725e-316)
(-0.0989171 -0.362493 -1.4322e-316)
(-0.0450893 -0.337011 -2.30596e-316)
(-0.0526264 0.393941 1.88418e-317)
(-0.0935536 0.404196 5.82349e-317)
(-0.170561 0.345672 6.23491e-317)
(-0.180029 0.313407 6.20994e-317)
(-0.227864 0.2556 5.47511e-317)
(-0.224333 0.208522 4.61144e-317)
(-0.251186 0.161259 3.71669e-317)
(-0.245833 0.112123 2.87314e-317)
(-0.259164 0.0734488 2.08548e-317)
(-0.257391 0.0240006 1.34325e-317)
(-0.260784 -0.0113907 6.17264e-318)
(-0.264797 -0.0637439 -1.20273e-318)
(-0.257327 -0.102572 -9.03666e-318)
(-0.26677 -0.160214 -1.75005e-317)
(-0.242407 -0.20987 -2.66418e-317)
(-0.252393 -0.269289 -3.57597e-317)
(-0.20003 -0.334852 -4.3896e-317)
(-0.196272 -0.376316 -4.5194e-317)
(-0.105141 -0.447274 -4.18394e-317)
(-0.0609819 -0.427845 -2.09616e-318)
(-0.07409 0.449028 2.27124e-316)
(-0.10874 0.441404 1.45769e-316)
(-0.201035 0.368029 1.09796e-316)
(-0.197753 0.320433 8.00576e-317)
(-0.248305 0.258791 6.17395e-317)
(-0.234121 0.202964 4.75797e-317)
(-0.260065 0.157213 3.64912e-317)
(-0.248059 0.104203 2.71825e-317)
(-0.26105 0.0693203 1.90367e-317)
(-0.256808 0.018167 1.15648e-317)
(-0.261938 -0.0122461 4.34044e-318)
(-0.268023 -0.0666922 -3.04794e-318)
(-0.264198 -0.0999758 -1.10859e-317)
(-0.281332 -0.163005 -2.03214e-317)
(-0.260142 -0.208329 -3.15328e-317)
(-0.284609 -0.280003 -4.62133e-317)
(-0.228174 -0.347751 -6.5787e-317)
(-0.243697 -0.410008 -9.80058e-317)
(-0.127477 -0.49939 -1.38274e-316)
(-0.0933329 -0.500109 -2.27142e-316)
(-0.0978535 0.562816 2.45917e-317)
(-0.102155 0.521851 6.39576e-317)
(-0.201046 0.424663 6.51744e-317)
(-0.176036 0.353329 6.24002e-317)
(-0.22176 0.283231 5.32833e-317)
(-0.19544 0.214678 4.35246e-317)
(-0.216107 0.168472 3.40437e-317)
(-0.197648 0.110009 2.53972e-317)
(-0.207907 0.0784735 1.75347e-317)
(-0.200447 0.0248048 1.02635e-317)
(-0.206004 -0.000502681 3.24182e-318)
(-0.211636 -0.0585374 -3.85758e-318)
(-0.211561 -0.0865195 -1.13983e-317)
(-0.232838 -0.158887 -1.96694e-317)
(-0.218107 -0.201773 -2.87829e-317)
(-0.256253 -0.29456 -3.83275e-317)
(-0.204365 -0.370224 -4.74942e-317)
(-0.250542 -0.469622 -5.06928e-317)
(-0.119829 -0.591213 -4.99121e-317)
(-0.130844 -0.636387 -1.04153e-317)
(-0.132189 0.628236 2.21563e-316)
(-0.105884 0.53234 1.39866e-316)
(-0.21824 0.430145 1.05399e-316)
(-0.170943 0.334259 7.68032e-317)
(-0.213414 0.270118 5.89971e-317)
(-0.173654 0.193449 4.50324e-317)
(-0.189462 0.154344 3.39843e-317)
(-0.163473 0.0950176 2.47378e-317)
(-0.171836 0.070337 1.67175e-317)
(-0.160923 0.0183402 9.46471e-318)
(-0.168628 0.000544891 2.5555e-318)
(-0.17464 -0.0560139 -4.40773e-318)
(-0.18093 -0.0742051 -1.18964e-317)
(-0.208324 -0.148663 -2.04201e-317)
(-0.202685 -0.178164 -3.06749e-317)
(-0.257469 -0.283661 -4.40485e-317)
(-0.209178 -0.344826 -6.18911e-317)
(-0.289694 -0.48092 -9.20231e-317)
(-0.130358 -0.605128 -1.30277e-316)
(-0.190468 -0.725405 -2.21685e-316)
(-0.149458 0.761399 3.15191e-317)
(-0.0692167 0.585894 7.22142e-317)
(-0.175505 0.470107 7.05193e-317)
(-0.108371 0.338094 6.50654e-317)
(-0.139513 0.274703 5.39773e-317)
(-0.0932568 0.185384 4.29517e-317)
(-0.101776 0.151559 3.2788e-317)
(-0.0728598 0.0901912 2.38598e-317)
(-0.0780829 0.0725376 1.59948e-317)
(-0.0643026 0.0220914 8.91331e-318)
(-0.0721964 0.0126447 2.23377e-318)
(-0.0743476 -0.0431873 -4.42846e-318)
(-0.0844765 -0.0512066 -1.14313e-317)
(-0.108111 -0.131443 -1.91283e-317)
(-0.111363 -0.149143 -2.7746e-317)
(-0.168597 -0.278353 -3.70771e-317)
(-0.133254 -0.330708 -4.66051e-317)
(-0.241688 -0.52881 -5.13193e-317)
(-0.0811428 -0.668803 -5.29977e-317)
(-0.229329 -0.9098 -1.55662e-317)
(-0.167265 0.80365 2.19002e-316)
(-0.0516889 0.543789 1.38377e-316)
(-0.153772 0.452592 1.04706e-316)
(-0.068836 0.294111 7.6495e-317)
(-0.0868788 0.247682 5.84022e-317)
(-0.0313022 0.154605 4.40809e-317)
(-0.0310449 0.13049 3.27729e-317)
(0.0030828 0.0719904 2.34425e-317)
(0.000823338 0.0608602 1.55329e-317)
(0.0180488 0.0148791 8.5568e-318)
(0.00786105 0.0116924 2.08109e-318)
(0.00827589 -0.0395558 -4.31083e-318)
(-0.0101415 -0.0382651 -1.10296e-317)
(-0.0332884 -0.115929 -1.8567e-317)
(-0.0523789 -0.115841 -2.7513e-317)
(-0.116335 -0.252883 -3.91146e-317)
(-0.10015 -0.270148 -5.45479e-317)
(-0.236265 -0.513104 -8.17676e-317)
(-0.0671385 -0.604208 -1.16846e-316)
(-0.283583 -0.977728 -2.11058e-316)
(-0.1129 0.921602 4.29073e-317)
(0.0248554 0.557743 8.49671e-317)
(-0.0350446 0.468748 7.85791e-317)
(0.0435354 0.270847 6.92191e-317)
(0.0441168 0.232268 5.54661e-317)
(0.0929241 0.131406 4.28736e-317)
(0.100267 0.115657 3.1943e-317)
(0.131422 0.0600878 2.27761e-317)
(0.131386 0.0569922 1.50083e-317)
(0.150125 0.0167454 8.25338e-318)
(0.140044 0.0220376 2.05818e-318)
(0.147514 -0.0236199 -3.96122e-318)
(0.126727 -0.0113007 -1.01629e-317)
(0.11805 -0.0879821 -1.68873e-317)
(0.0901015 -0.0713819 -2.43915e-317)
(0.0488069 -0.226906 -3.25756e-317)
(0.0408686 -0.219523 -4.10358e-317)
(-0.0779083 -0.540066 -4.55357e-317)
(0.0426335 -0.6132 -4.71899e-317)
(-0.232645 -1.17516 -1.06409e-317)
(-0.0785966 0.862402 2.26869e-316)
(0.0499706 0.471604 1.44368e-316)
(0.0371268 0.426008 1.08116e-316)
(0.117892 0.221874 7.80605e-317)
(0.145647 0.198955 5.84317e-317)
(0.196928 0.10339 4.32307e-317)
(0.215789 0.0937104 3.15082e-317)
(0.248452 0.0444506 2.21441e-317)
(0.251435 0.044085 1.44908e-317)
(0.272628 0.00956031 7.93525e-318)
(0.260501 0.0166049 2.03906e-318)
(0.272903 -0.02292 -3.58428e-318)
(0.243671 -0.00742176 -9.36413e-318)
(0.243021 -0.0767471 -1.56531e-317)
(0.193375 -0.0498281 -2.29006e-317)
(0.161959 -0.200801 -3.20351e-317)
(0.108885 -0.157386 -4.3847e-317)
(-0.00554168 -0.49992 -6.59582e-317)
(0.0573849 -0.471711 -9.40025e-317)
(-0.23575 -1.11402 -1.85476e-316)
(0.105861 0.925516 7.41701e-317)
(0.150142 0.456106 1.06704e-316)
(0.227688 0.40453 9.01537e-317)
(0.268302 0.179057 7.37683e-317)
(0.316334 0.163174 5.63633e-317)
(0.349679 0.0717112 4.19891e-317)
(0.371775 0.0704546 3.0447e-317)
(0.396962 0.0299073 2.12776e-317)
(0.399983 0.0363225 1.38254e-317)
(0.420947 0.0106408 7.57739e-318)
(0.409182 0.0237679 2.04118e-318)
(0.429216 -0.00607988 -3.18993e-318)
(0.400504 0.017333 -8.44305e-318)
(0.420198 -0.0416094 -1.3974e-317)
(0.366179 -0.00104534 -1.9925e-317)
(0.380407 -0.151922 -2.61336e-317)
(0.297442 -0.0826018 -3.18642e-317)
(0.276343 -0.485881 -3.31759e-317)
(0.212318 -0.426605 -2.95138e-317)
(0.0291736 -1.28376 1.61923e-317)
(0.167749 0.684452 2.57538e-316)
(0.183144 0.375775 1.55381e-316)
(0.358481 0.332994 1.11964e-316)
(0.401131 0.148367 7.76271e-317)
(0.485416 0.131606 5.62382e-317)
(0.51781 0.056196 4.0463e-317)
(0.549329 0.0535207 2.88594e-317)
(0.57227 0.0208242 1.99581e-317)
(0.576619 0.0250369 1.29073e-317)
(0.597877 0.00437676 7.06859e-318)
(0.585058 0.0140593 1.95329e-318)
(0.609891 -0.0102536 -2.8225e-318)
(0.576342 0.00785006 -7.56748e-318)
(0.60697 -0.0410675 -1.25624e-317)
(0.533233 -0.00769159 -1.79863e-317)
(0.565906 -0.137364 -2.43785e-317)
(0.415269 -0.0671064 -3.17687e-317)
(0.418218 -0.425566 -4.6468e-317)
(0.194168 -0.286522 -6.30244e-317)
(0.0106794 -0.948602 -1.37315e-316)
(0.371404 0.680204 1.66786e-316)
(0.270402 0.317857 1.47363e-316)
(0.519673 0.250396 1.0901e-316)
(0.520932 0.0852677 7.96168e-317)
(0.60816 0.0767815 5.71528e-317)
(0.621713 0.0218763 4.06878e-317)
(0.649295 0.0277197 2.8603e-317)
(0.664794 0.00796107 1.95485e-317)
(0.666949 0.0168294 1.25335e-317)
(0.687654 0.00567074 6.82715e-318)
(0.674877 0.0181489 1.90102e-318)
(0.705794 0.00498231 -2.65046e-318)
(0.674775 0.0265084 -7.13524e-318)
(0.723736 -0.00365473 -1.17041e-317)
(0.653783 0.0373827 -1.63417e-317)
(0.736506 -0.0619979 -2.05887e-317)
(0.570979 0.0278506 -2.30255e-317)
(0.725855 -0.326969 -1.8676e-317)
(0.335735 -0.145658 -4.52138e-318)
(0.589162 -1.12409 6.74786e-317)
(0.661613 0.292922 2.27208e-316)
(0.517187 0.271625 1.13187e-316)
(0.84969 0.16704 8.02685e-317)
(0.867018 0.0802803 5.37405e-317)
(0.962596 0.0576227 3.88447e-317)
(0.971321 0.0211583 2.78866e-317)
(0.993927 0.0191007 1.99474e-317)
(0.999609 0.00541063 1.38149e-317)
(0.999471 0.0083607 8.9526e-318)
(1.0124 0.000458761 4.92134e-318)
(1.00348 0.00606978 1.38773e-318)
(1.02944 -0.00350658 -1.90659e-318)
(1.00864 0.00623128 -5.11974e-318)
(1.05339 -0.0155433 -8.43328e-318)
(0.995543 0.000620772 -1.18641e-317)
(1.06703 -0.0685453 -1.56772e-317)
(0.889344 -0.037767 -1.9683e-317)
(0.991063 -0.26291 -2.84478e-317)
(0.499392 -0.178721 -3.8144e-317)
(0.365964 -0.39643 -9.13403e-317)
(-0.0270222 -0.0135307 4.96584e-316)
(0.498104 0.196477 3.05047e-316)
(0.803848 0.0371074 1.99147e-316)
(0.841703 0.00962197 1.30112e-316)
(0.942119 0.0062015 8.79236e-317)
(0.935293 -0.00448219 5.99672e-317)
(0.954947 0.00400764 4.08901e-317)
(0.96327 0.0004323 2.72837e-317)
(0.957485 0.00652525 1.71388e-317)
(0.985619 0.0037336 9.11432e-318)
(0.966388 0.0103905 2.27066e-318)
(1.02052 0.00728055 -4.03169e-318)
(0.984152 0.0198084 -1.03027e-317)
(1.08342 0.0138272 -1.67564e-317)
(1.00245 0.0409741 -2.32717e-317)
(1.18676 0.0125328 -2.8857e-317)
(0.932955 0.0844489 -3.05779e-317)
(1.31335 -0.0874056 -2.02086e-317)
(0.332948 0.221107 1.32746e-317)
(1.45224 -0.585073 1.34072e-316)
)
;

boundaryField
{
    cavity
    {
        type            myImplicitVelocity;
    }
    lid
    {
        type            fixedValue;
        value           uniform (1 0 0);
    }
    frontAndBack
    {
        type            empty;
    }
}


// ************************************************************************* //
