/*--------------------------------*- C++ -*----------------------------------*\
| =========                 |                                                 |
| \\      /  F ield         | foam-extend: Open Source CFD                    |
|  \\    /   O peration     | Version:  3.0                                   |
|   \\  /    A nd           | Web:         http://www.extend-project.de       |
|    \\/     M anipulation  |                                                 |
\*---------------------------------------------------------------------------*/
FoamFile
{
    version     2.0;
    format      ascii;
    class       volVectorField;
    location    "1";
    object      u;
}
// * * * * * * * * * * * * * * * * * * * * * * * * * * * * * * * * * * * * * //

dimensions      [0 0 0 0 0 0 0];

internalField   nonuniform List<vector> 
576
(
(0.355454 -0.0266815 4.43598e-20)
(0.21385 -0.0276104 -1.69126e-19)
(0.40302 -0.0191408 -1.01925e-19)
(0.482913 -0.01681 1.31318e-19)
(0.568684 -0.0141073 2.95189e-19)
(0.641336 -0.0120631 1.76985e-19)
(0.707541 -0.0102248 3.17823e-19)
(0.768166 -0.00851349 4.72427e-19)
(0.824576 -0.00682022 2.75682e-19)
(0.877716 -0.00506498 1.06611e-19)
(0.928383 -0.00317939 1.58189e-20)
(0.977372 -0.0011011 -8.21846e-20)
(0.369264 -0.0782263 1.90613e-19)
(0.228143 -0.080955 -3.39965e-19)
(0.412939 -0.056148 -2.15771e-19)
(0.491632 -0.0493302 6.94762e-20)
(0.576003 -0.0413949 4.74057e-19)
(0.647591 -0.0353857 2.90093e-19)
(0.712832 -0.0299647 6.85253e-19)
(0.772558 -0.0249002 1.49196e-18)
(0.828083 -0.0198891 8.48979e-19)
(0.880314 -0.0147189 -4.85818e-19)
(0.93001 -0.00920814 -9.92735e-19)
(0.977935 -0.003178 -5.98857e-19)
(0.395942 -0.124448 1.37631e-19)
(0.255749 -0.128796 2.18049e-20)
(0.432088 -0.0893388 -4.21992e-19)
(0.508453 -0.0784964 -8.79173e-19)
(0.590109 -0.0658774 -1.00629e-19)
(0.65964 -0.0563135 1.20408e-18)
(0.72303 -0.0476746 1.24701e-18)
(0.78103 -0.0395938 1.1287e-18)
(0.834849 -0.0315997 1.61506e-18)
(0.885319 -0.023364 4.51796e-19)
(0.93314 -0.0146048 9.06364e-19)
(0.979015 -0.0050377 1.17051e-18)
(0.433676 -0.162188 2.9701e-21)
(0.2948 -0.167857 1.1536e-19)
(0.459168 -0.116439 -1.2005e-19)
(0.532236 -0.102312 2.66174e-19)
(0.610058 -0.0858688 -1.24676e-18)
(0.67669 -0.0734029 -5.29119e-19)
(0.737464 -0.0621371 5.02761e-19)
(0.793018 -0.0515934 1.31941e-18)
(0.844414 -0.0411633 1.39296e-18)
(0.892388 -0.0304239 1.93447e-18)
(0.937556 -0.0190122 2.29194e-18)
(0.980537 -0.00655647 2.64163e-18)
(0.479893 -0.188876 -2.73668e-20)
(0.342624 -0.195479 7.42157e-20)
(0.492328 -0.135603 -4.21442e-19)
(0.561366 -0.119155 1.79626e-19)
(0.634501 -0.100009 -2.42602e-20)
(0.697583 -0.0854912 -1.44278e-18)
(0.75515 -0.0723665 -1.08654e-18)
(0.807699 -0.0600798 -2.13531e-18)
(0.856122 -0.0479264 -1.45644e-18)
(0.901037 -0.0354164 6.51343e-19)
(0.942958 -0.0221292 -8.90723e-19)
(0.9824 -0.00763081 -1.99671e-18)
(0.531439 -0.202691 1.20713e-19)
(0.395962 -0.20978 3.44372e-19)
(0.529314 -0.145526 -4.22391e-20)
(0.593864 -0.127878 -6.56124e-19)
(0.661774 -0.107334 -1.10791e-19)
(0.720894 -0.0917529 -7.1024e-19)
(0.774878 -0.0776648 -7.95163e-19)
(0.824072 -0.0644745 -8.31207e-19)
(0.869177 -0.0514282 -2.11712e-18)
(0.91068 -0.0380014 -2.00201e-18)
(0.948982 -0.0237434 -4.15607e-19)
(0.984477 -0.00818741 -1.27835e-18)
(0.584803 -0.202692 6.12462e-20)
(0.451184 -0.209784 5.49632e-19)
(0.567612 -0.145531 1.12764e-18)
(0.627515 -0.127885 5.07246e-20)
(0.690015 -0.107342 -2.12464e-19)
(0.74503 -0.0917601 -4.24158e-19)
(0.795301 -0.07767 -2.74821e-19)
(0.84102 -0.0644771 -1.46129e-19)
(0.882691 -0.0514288 2.01441e-19)
(0.920663 -0.0380011 3.99283e-19)
(0.955219 -0.0237432 -5.82311e-20)
(0.986628 -0.00818761 -7.09407e-19)
(0.636348 -0.18888 1.7579e-20)
(0.504528 -0.195491 2.02951e-19)
(0.604609 -0.135618 1.01604e-18)
(0.660024 -0.119175 -2.19221e-20)
(0.717296 -0.100033 9.5811e-19)
(0.768343 -0.0855119 -6.61311e-19)
(0.815028 -0.0723808 -1.01456e-18)
(0.857391 -0.0600856 -5.75238e-19)
(0.895746 -0.0479259 -9.94521e-19)
(0.930309 -0.0354128 6.59404e-19)
(0.961246 -0.0221264 9.56422e-19)
(0.988707 -0.00763041 1.09225e-18)
(0.682563 -0.162197 1.01705e-19)
(0.552358 -0.167876 7.60137e-20)
(0.637784 -0.116462 -1.21466e-19)
(0.689172 -0.102341 5.55649e-19)
(0.741756 -0.085904 -6.00948e-20)
(0.789246 -0.0734337 1.07265e-18)
(0.832716 -0.0621566 -6.28546e-19)
(0.872071 -0.0515975 -2.32814e-18)
(0.907453 -0.0411556 -2.01811e-18)
(0.938959 -0.0304106 -1.08768e-18)
(0.966652 -0.0190013 -1.27771e-18)
(0.990571 -0.00655298 1.25396e-18)
(0.720299 -0.12446 2.03962e-19)
(0.591414 -0.128819 3.4568e-19)
(0.664874 -0.0893691 -3.21079e-20)
(0.712974 -0.0785317 6.6321e-19)
(0.76173 -0.0659185 1.69437e-19)
(0.806314 -0.0563484 8.95407e-19)
(0.84716 -0.0476936 1.08048e-18)
(0.884059 -0.0395903 -4.49233e-19)
(0.917014 -0.0315783 1.35115e-19)
(0.946024 -0.0233341 7.42943e-19)
(0.971067 -0.0145801 6.6073e-20)
(0.992094 -0.00502843 -6.15352e-19)
(0.746983 -0.0782414 -2.97761e-20)
(0.619034 -0.0809835 5.28309e-20)
(0.684032 -0.0561851 3.16516e-19)
(0.729807 -0.0493688 -2.33638e-19)
(0.775855 -0.0414386 3.47508e-19)
(0.818385 -0.0354207 8.71763e-20)
(0.857374 -0.0299779 2.04704e-19)
(0.892535 -0.0248829 1.19553e-18)
(0.923774 -0.0198473 1.39629e-18)
(0.951019 -0.0146662 1.98181e-18)
(0.974188 -0.00916454 2.42471e-18)
(0.993171 -0.0031609 3.64058e-20)
(0.760798 -0.0266912 -1.13894e-19)
(0.633336 -0.0276281 -4.31195e-19)
(0.693954 -0.0191712 -1.14564e-19)
(0.738525 -0.0168401 2.84413e-19)
(0.78317 -0.0141333 -1.00701e-19)
(0.824635 -0.012078 -3.02475e-20)
(0.86266 -0.0102185 -7.40239e-20)
(0.896921 -0.00847959 3.68262e-19)
(0.927271 -0.00676402 3.07835e-19)
(0.953602 -0.00499955 4.32321e-19)
(0.975802 -0.00312505 5.69054e-19)
(0.993728 -0.00107819 5.19486e-19)
(0.760802 0.0266783 -6.65361e-20)
(0.633344 0.0276111 2.72751e-19)
(0.693963 0.0191502 2.54924e-19)
(0.738532 0.0168373 4.50061e-19)
(0.783174 0.0141356 2.79197e-19)
(0.824635 0.0120873 5.37806e-20)
(0.862658 0.0102359 6.83181e-20)
(0.896916 0.00849947 -6.27945e-19)
(0.927265 0.00677755 -9.12957e-19)
(0.953596 0.00500523 -9.24934e-19)
(0.975797 0.00312548 -2.1306e-19)
(0.993726 0.00107725 2.67978e-19)
(0.746994 0.0782302 1.90843e-20)
(0.619058 0.0809699 -4.96597e-19)
(0.684057 0.0561674 -1.61076e-19)
(0.729827 0.0493678 8.13181e-20)
(0.775867 0.0414407 5.85697e-19)
(0.818386 0.035427 7.48694e-20)
(0.857365 0.0299897 -6.94183e-19)
(0.892519 0.0248954 -6.83699e-19)
(0.923755 0.019853 -1.03492e-18)
(0.951001 0.014665 -7.47554e-19)
(0.974176 0.00916023 -9.4761e-20)
(0.993166 0.0031582 -6.82874e-19)
(0.720314 0.124451 -9.79839e-20)
(0.591451 0.128812 -6.84239e-19)
(0.664912 0.0893578 -2.83849e-19)
(0.713003 0.0785343 -9.21898e-19)
(0.761746 0.0659207 -1.42924e-19)
(0.806313 0.0563499 -3.45733e-20)
(0.847143 0.0476961 5.15566e-19)
(0.884031 0.0395904 5.46287e-19)
(0.916983 0.0315708 9.89604e-19)
(0.945996 0.0233212 1.06089e-18)
(0.971048 0.0145678 -2.19774e-19)
(0.992088 0.00502281 -1.37524e-18)
(0.682582 0.162192 -1.80241e-19)
(0.552403 0.167877 2.28214e-19)
(0.63783 0.11646 -7.69709e-19)
(0.689206 0.102349 -3.51093e-19)
(0.741773 0.0859076 -7.65999e-19)
(0.789239 0.0734305 8.19445e-19)
(0.832689 0.062149 1.399e-18)
(0.87203 0.0515834 1.6097e-18)
(0.90741 0.0411331 3.04702e-18)
(0.938922 0.0303845 2.46549e-18)
(0.966627 0.0189801 1.56666e-19)
(0.990563 0.0065442 1.28957e-18)
(0.636367 0.188881 -1.33351e-19)
(0.504576 0.195504 -5.55002e-19)
(0.604659 0.135626 -8.43252e-19)
(0.660058 0.11919 4.17354e-19)
(0.717309 0.10004 4.19642e-20)
(0.768326 0.085506 4.41003e-19)
(0.814987 0.0723646 4.12125e-19)
(0.857335 0.0600585 6.42347e-19)
(0.895689 0.0478893 1.24302e-18)
(0.930261 0.0353745 7.67225e-19)
(0.961216 0.022097 1.47805e-18)
(0.988697 0.00761895 2.66887e-18)
(0.584819 0.202698 -1.66209e-19)
(0.451228 0.209808 -4.28989e-19)
(0.567657 0.145552 -3.78282e-19)
(0.627544 0.12791 -1.47803e-19)
(0.69002 0.107356 6.78852e-20)
(0.745001 0.0917545 -2.67343e-19)
(0.795245 0.0776481 -1.1424e-18)
(0.840947 0.0644396 -1.20875e-18)
(0.882618 0.0513803 9.63528e-19)
(0.920604 0.037952 -6.14221e-19)
(0.955183 0.0237069 -4.29755e-19)
(0.986616 0.00817404 -1.04168e-18)
(0.531452 0.202702 -1.82256e-20)
(0.395996 0.209817 -1.54874e-19)
(0.529346 0.14556 2.72809e-19)
(0.593881 0.127916 7.86437e-20)
(0.661768 0.107358 -2.70523e-19)
(0.720854 0.0917516 -4.15568e-19)
(0.774808 0.0776406 -6.16312e-19)
(0.823983 0.064429 2.62774e-18)
(0.869089 0.051369 1.45104e-18)
(0.910609 0.0379422 -1.77198e-18)
(0.948938 0.0237004 -7.44931e-19)
(0.984463 0.00817178 -1.12505e-18)
(0.479902 0.188893 -5.89105e-20)
(0.342643 0.195528 3.85247e-19)
(0.492338 0.135652 9.12591e-19)
(0.561363 0.119208 -4.76978e-19)
(0.634477 0.100047 -1.24284e-19)
(0.697528 0.085498 -6.67273e-19)
(0.755067 0.0723434 1.15227e-18)
(0.807599 0.060028 2.03884e-18)
(0.856023 0.0478566 -1.37447e-18)
(0.900956 0.0353459 -2.50601e-18)
(0.942907 0.0220779 -3.1206e-18)
(0.982383 0.00761233 -2.60376e-18)
(0.433682 0.162211 1.02624e-19)
(0.294806 0.167918 7.13398e-19)
(0.459156 0.116502 -2.79393e-19)
(0.532206 0.102379 -1.37642e-19)
(0.610007 0.0859211 -2.77011e-19)
(0.676615 0.0734204 -9.28083e-19)
(0.73737 0.0621176 8.6612e-19)
(0.792911 0.0515367 -3.54919e-19)
(0.844311 0.0410825 -3.07627e-18)
(0.892303 0.0303399 -2.72039e-18)
(0.937502 0.0189501 -2.65427e-18)
(0.980519 0.00653375 -4.44565e-19)
(0.395943 0.124476 2.47925e-19)
(0.255744 0.128866 3.19298e-19)
(0.432059 0.0894158 1.50095e-19)
(0.508397 0.0785778 1.06736e-19)
(0.590026 0.0659432 -5.73686e-19)
(0.65954 0.0563418 4.60047e-19)
(0.722921 0.0476601 -8.57731e-19)
(0.780921 0.0395336 -2.38458e-18)
(0.834751 0.031508 -2.02671e-18)
(0.885241 0.0232652 -2.29978e-18)
(0.93309 0.0145298 2.4481e-19)
(0.978998 0.00500946 2.2462e-18)
(0.369256 0.0782597 4.94004e-19)
(0.228121 0.0810352 2.70177e-19)
(0.412896 0.0562396 -7.47625e-20)
(0.491559 0.0494251 -2.47237e-19)
(0.575896 0.0414749 1.08426e-19)
(0.647466 0.0354261 -1.50796e-19)
(0.712706 0.0299558 -6.38099e-19)
(0.772446 0.0248365 -9.37017e-19)
(0.827994 0.0197854 -4.87353e-19)
(0.88025 0.0146036 -6.69355e-19)
(0.929972 0.00911813 -6.61425e-19)
(0.977923 0.00314329 -6.88419e-19)
(0.35544 0.0267106 1.28698e-19)
(0.213818 0.0276846 1.52314e-19)
(0.402973 0.0192342 -8.07681e-21)
(0.482841 0.0169081 -2.49458e-19)
(0.568581 0.0141836 -1.60903e-19)
(0.641218 0.0120984 -1.11203e-19)
(0.707423 0.0102114 -2.64931e-19)
(0.768065 0.00844677 -3.24665e-19)
(0.824502 0.00671361 -3.30674e-19)
(0.877672 0.00494553 -1.37109e-19)
(0.928362 0.00308394 -6.28415e-19)
(0.977367 0.00106241 -4.836e-19)
(0.355437 -0.0266577 -4.45817e-20)
(0.213812 -0.0275497 1.68685e-19)
(0.402966 -0.0190785 1.01481e-19)
(0.482837 -0.0167572 -1.31713e-19)
(0.56858 -0.0140709 -2.95489e-19)
(0.641221 -0.0120513 -1.772e-19)
(0.70743 -0.0102277 -3.17909e-19)
(0.768075 -0.00851837 -4.72549e-19)
(0.824513 -0.00681642 -2.75794e-19)
(0.877682 -0.00505072 -1.06656e-19)
(0.928368 -0.0031614 -1.58414e-20)
(0.97737 -0.00109127 8.21749e-20)
(0.369247 -0.0782085 -1.9082e-19)
(0.228101 -0.0809038 3.39341e-19)
(0.412876 -0.0560876 2.1512e-19)
(0.491546 -0.0492766 -7.00397e-20)
(0.575893 -0.0413629 -4.74416e-19)
(0.647476 -0.0353772 -2.90343e-19)
(0.712729 -0.0299682 -6.85309e-19)
(0.772478 -0.0249025 -1.49204e-18)
(0.828027 -0.0198823 -8.492e-19)
(0.880279 -0.0147036 4.85613e-19)
(0.929991 -0.00919203 9.92627e-19)
(0.97793 -0.00317088 5.98823e-19)
(0.395929 -0.124428 -1.37812e-19)
(0.255713 -0.128742 -2.22488e-20)
(0.432028 -0.0892709 4.21454e-19)
(0.508377 -0.0784338 8.78567e-19)
(0.590021 -0.0658325 1.00246e-19)
(0.659556 -0.0562894 -1.20432e-18)
(0.722957 -0.0476647 -1.24729e-18)
(0.780971 -0.0395889 -1.12896e-18)
(0.834803 -0.0315934 -1.61533e-18)
(0.885286 -0.023355 -4.5206e-19)
(0.93312 -0.0145968 -9.06512e-19)
(0.979008 -0.00503459 -1.1706e-18)
(0.433664 -0.162168 -3.14952e-21)
(0.294767 -0.167803 -1.15733e-19)
(0.459116 -0.116367 1.19532e-19)
(0.532181 -0.102242 -2.66525e-19)
(0.610002 -0.085812 1.24632e-18)
(0.676638 -0.0733629 5.28793e-19)
(0.737417 -0.0621111 -5.02989e-19)
(0.792976 -0.0515766 -1.3196e-18)
(0.844379 -0.0411515 -1.39309e-18)
(0.892362 -0.0304153 -1.93456e-18)
(0.93754 -0.0190073 -2.29201e-18)
(0.980533 -0.0065554 -2.64169e-18)
(0.479882 -0.188855 2.71993e-20)
(0.342599 -0.195427 -7.45964e-20)
(0.492294 -0.13553 4.21022e-19)
(0.561336 -0.119078 -1.80004e-19)
(0.634472 -0.09994 2.39853e-20)
(0.697555 -0.0854343 1.44245e-18)
(0.755122 -0.0723233 1.08628e-18)
(0.807673 -0.060049 2.13507e-18)
(0.8561 -0.0479057 1.4563e-18)
(0.901021 -0.0354038 -6.51363e-19)
(0.94295 -0.0221233 8.9072e-19)
(0.982398 -0.00762984 1.99675e-18)
(0.531432 -0.202671 -1.20861e-19)
(0.395951 -0.209729 -3.44683e-19)
(0.529301 -0.145453 4.19353e-20)
(0.593854 -0.127796 6.55774e-19)
(0.661763 -0.107254 1.10508e-19)
(0.720881 -0.0916815 7.10003e-19)
(0.774863 -0.077606 7.94922e-19)
(0.824058 -0.0644296 8.31084e-19)
(0.869167 -0.0513965 2.11704e-18)
(0.910674 -0.0379813 2.00194e-18)
(0.94898 -0.0237332 4.1559e-19)
(0.984477 -0.00818496 1.27835e-18)
(0.584801 -0.202674 -6.13678e-20)
(0.451186 -0.209737 -5.49894e-19)
(0.567614 -0.145461 -1.12787e-18)
(0.627518 -0.127802 -5.09667e-20)
(0.690015 -0.107257 2.12254e-19)
(0.745026 -0.09168 4.23947e-19)
(0.795296 -0.0776004 2.74693e-19)
(0.841015 -0.0644211 1.46155e-19)
(0.882688 -0.0513873 -2.0155e-19)
(0.920662 -0.0379733 -3.9938e-19)
(0.95522 -0.0237278 5.81873e-20)
(0.986628 -0.00818321 7.09397e-19)
(0.636352 -0.188865 -1.76838e-20)
(0.50454 -0.195449 -2.03131e-19)
(0.604621 -0.135554 -1.01623e-18)
(0.660034 -0.119096 2.16435e-20)
(0.7173 -0.0999494 -9.58344e-19)
(0.768343 -0.0854309 6.6112e-19)
(0.815025 -0.0723082 1.01445e-18)
(0.857387 -0.0600254 5.75066e-19)
(0.895742 -0.0478799 9.94198e-19)
(0.930305 -0.0353811 -6.59625e-19)
(0.961244 -0.0221081 -9.56547e-19)
(0.988706 -0.00762483 -1.09224e-18)
(0.682572 -0.162184 -1.01787e-19)
(0.552376 -0.16784 -7.61336e-20)
(0.637801 -0.116407 1.21246e-19)
(0.689184 -0.102273 -5.5588e-19)
(0.741761 -0.0858302 5.98037e-20)
(0.789243 -0.0733616 -1.0729e-18)
(0.832708 -0.0620914 6.28392e-19)
(0.87206 -0.0515431 2.32779e-18)
(0.90744 -0.041114 2.01773e-18)
(0.938947 -0.0303819 1.08743e-18)
(0.966643 -0.0189846 1.27757e-18)
(0.990568 -0.00654774 -1.25399e-18)
(0.720311 -0.12445 -2.04019e-19)
(0.591435 -0.128791 -3.45803e-19)
(0.664891 -0.0893264 3.1925e-20)
(0.712983 -0.0784798 -6.6346e-19)
(0.761728 -0.065863 -1.69746e-19)
(0.806302 -0.0562956 -8.95698e-19)
(0.84714 -0.0476471 -1.08084e-18)
(0.884033 -0.039553 4.48849e-19)
(0.916987 -0.0315511 -1.35416e-19)
(0.945999 -0.0233162 -7.43157e-19)
(0.97105 -0.0145698 -6.61869e-20)
(0.992089 -0.00502503 6.15308e-19)
(0.746996 -0.0782342 2.97515e-20)
(0.619054 -0.0809644 -5.28972e-20)
(0.684046 -0.0561583 -3.16689e-19)
(0.729808 -0.0493391 2.33379e-19)
(0.775843 -0.0414093 -3.47824e-19)
(0.818358 -0.035397 -8.75358e-20)
(0.857338 -0.0299603 -2.05101e-19)
(0.892494 -0.0248722 -1.19589e-18)
(0.923734 -0.0198424 -1.39659e-18)
(0.950984 -0.014665 -1.98202e-18)
(0.974165 -0.00916422 -2.42484e-18)
(0.993164 -0.00316029 -3.64584e-20)
(0.76081 -0.0266868 1.1387e-19)
(0.633351 -0.0276201 4.31114e-19)
(0.69396 -0.0191637 1.14399e-19)
(0.738514 -0.0168377 -2.84663e-19)
(0.783144 -0.0141362 1.00373e-19)
(0.824593 -0.0120901 2.98746e-20)
(0.862609 -0.010236 7.36252e-20)
(0.896867 -0.0085006 -3.68628e-19)
(0.927221 -0.00678508 -3.08154e-19)
(0.953562 -0.00501715 -4.32543e-19)
(0.975777 -0.00313587 -5.69171e-19)
(0.99372 -0.00108064 -5.1952e-19)
(0.760811 0.0266791 6.65096e-20)
(0.633352 0.0276063 -2.72845e-19)
(0.693959 0.0191358 -2.55093e-19)
(0.738508 0.016809 -4.50288e-19)
(0.783136 0.0140978 -2.795e-19)
(0.824581 0.0120373 -5.41444e-20)
(0.862596 0.0101825 -6.86811e-20)
(0.896855 0.00844735 6.27572e-19)
(0.927212 0.00673236 9.12623e-19)
(0.953558 0.00497109 9.24681e-19)
(0.975776 0.00310512 2.12922e-19)
(0.99372 0.00107213 -2.68011e-19)
(0.746999 0.0782265 -1.91158e-20)
(0.619058 0.0809507 4.96483e-19)
(0.684044 0.0561303 1.60892e-19)
(0.729793 0.0493083 -8.15338e-20)
(0.775819 0.0413694 -5.85949e-19)
(0.818325 0.0353423 -7.51996e-20)
(0.8573 0.0299051 6.93832e-19)
(0.892459 0.0248185 6.83382e-19)
(0.923708 0.0197904 1.03454e-18)
(0.950971 0.0146205 7.47207e-19)
(0.974161 0.00913469 9.4579e-20)
(0.993163 0.0031518 6.82837e-19)
(0.720315 0.124442 9.79585e-20)
(0.591443 0.128778 6.8416e-19)
(0.66489 0.0892988 2.83655e-19)
(0.712962 0.0784462 9.21583e-19)
(0.761694 0.0658213 1.42639e-19)
(0.806252 0.056239 3.43406e-20)
(0.847082 0.04759 -5.1583e-19)
(0.883979 0.0394989 -5.46586e-19)
(0.916946 0.0315007 -9.89894e-19)
(0.945976 0.0232747 -1.06119e-18)
(0.971041 0.0145431 2.19601e-19)
(0.992087 0.00501742 1.37514e-18)
(0.682579 0.162177 1.80213e-19)
(0.55239 0.167829 -2.28285e-19)
(0.637805 0.116382 7.69551e-19)
(0.689163 0.102238 3.50995e-19)
(0.741722 0.0857882 7.65609e-19)
(0.789184 0.0733054 -8.19714e-19)
(0.832637 0.0620335 -1.39917e-18)
(0.87199 0.0514892 -1.60986e-18)
(0.907385 0.0410655 -3.04717e-18)
(0.938911 0.0303436 -2.4656e-18)
(0.966627 0.0189613 -1.56756e-19)
(0.990565 0.00654169 -1.28966e-18)
(0.636362 0.18886 1.33325e-19)
(0.504561 0.195442 5.54935e-19)
(0.604634 0.135535 8.4313e-19)
(0.66002 0.119064 -4.17435e-19)
(0.717265 0.0999102 -4.20587e-20)
(0.768283 0.0853795 -4.41332e-19)
(0.814949 0.0722522 -4.12398e-19)
(0.857308 0.0599719 -6.42607e-19)
(0.895675 0.0478318 -1.24312e-18)
(0.930258 0.0353435 -7.67168e-19)
(0.961219 0.0220856 -1.47804e-18)
(0.988699 0.00761896 -2.66883e-18)
(0.584815 0.202672 1.66209e-19)
(0.451215 0.209737 4.29015e-19)
(0.567638 0.145454 3.78265e-19)
(0.627517 0.127778 1.47613e-19)
(0.689989 0.107225 -6.79962e-20)
(0.744973 0.0916374 2.67138e-19)
(0.795222 0.0775492 1.14216e-18)
(0.840933 0.0643678 1.20856e-18)
(0.882613 0.0513368 -9.63734e-19)
(0.920606 0.037932 6.14207e-19)
(0.955187 0.0237013 4.29782e-19)
(0.986618 0.00817485 1.0417e-18)
(0.531449 0.202673 1.82144e-20)
(0.395989 0.209739 1.54894e-19)
(0.529337 0.145461 -2.72667e-19)
(0.59387 0.127787 -7.87597e-20)
(0.661755 0.107234 2.70378e-19)
(0.720841 0.0916506 4.15377e-19)
(0.7748 0.0775613 6.16171e-19)
(0.82398 0.064376 -2.62782e-18)
(0.869091 0.0513405 -1.45101e-18)
(0.910612 0.037932 1.77205e-18)
(0.948941 0.023699 7.44996e-19)
(0.984464 0.00817282 1.12508e-18)
(0.479902 0.188862 5.8883e-20)
(0.342645 0.195449 -3.85303e-19)
(0.492342 0.135557 -9.1272e-19)
(0.561372 0.119091 4.76808e-19)
(0.634485 0.0999371 1.24226e-19)
(0.697535 0.0854161 6.67163e-19)
(0.755076 0.0722844 -1.15238e-18)
(0.807607 0.0599926 -2.03883e-18)
(0.85603 0.0478397 1.37465e-18)
(0.900959 0.0353408 2.50617e-18)
(0.942908 0.022077 3.12071e-18)
(0.982383 0.00761232 2.6038e-18)
(0.433687 0.162181 -1.02674e-19)
(0.294818 0.167839 -7.1357e-19)
(0.459174 0.116416 2.79089e-19)
(0.532236 0.10228 1.37559e-19)
(0.610039 0.0858315 2.76764e-19)
(0.676643 0.0733584 9.28095e-19)
(0.737396 0.0620751 -8.66248e-19)
(0.792933 0.0515112 3.54962e-19)
(0.844325 0.0410679 3.07644e-18)
(0.892309 0.0303311 2.72052e-18)
(0.937503 0.0189436 2.65433e-18)
(0.980519 0.00653054 4.4459e-19)
(0.395952 0.124446 -2.48033e-19)
(0.255765 0.128792 -3.19528e-19)
(0.432093 0.0893401 -1.50441e-19)
(0.508448 0.0785 -1.07054e-19)
(0.590084 0.0658764 5.73502e-19)
(0.659592 0.0563006 -4.60247e-19)
(0.722967 0.0476337 8.57684e-19)
(0.780957 0.0395162 2.38457e-18)
(0.834773 0.0314927 2.02665e-18)
(0.885251 0.02325 2.2997e-18)
(0.933093 0.0145165 -2.44916e-19)
(0.978999 0.0050033 -2.24621e-18)
(0.369268 0.0782312 -4.94213e-19)
(0.228146 0.0809685 -2.70631e-19)
(0.412942 0.0561771 7.42752e-20)
(0.491631 0.0493681 2.46789e-19)
(0.575984 0.0414294 -1.08751e-19)
(0.64755 0.0354025 1.50656e-19)
(0.71278 0.0299415 6.38129e-19)
(0.772501 0.0248227 9.37051e-19)
(0.828028 0.0197655 4.87396e-19)
(0.880267 0.0145796 6.69374e-19)
(0.929978 0.00909749 6.61414e-19)
(0.977924 0.00313483 6.88401e-19)
(0.355454 0.0266853 -1.28986e-19)
(0.21384 0.0276203 -1.528e-19)
(0.403021 0.0191727 7.57845e-21)
(0.482929 0.0168612 2.49038e-19)
(0.568699 0.0141542 1.60607e-19)
(0.641332 0.0120875 1.11041e-19)
(0.70752 0.0102016 2.64907e-19)
(0.768133 0.00842863 3.24694e-19)
(0.824543 0.00668404 3.30724e-19)
(0.877692 0.00491294 1.37192e-19)
(0.928371 0.00306081 6.28454e-19)
(0.977369 0.00105597 4.83591e-19)
)
;

boundaryField
{
    out
    {
        type            fixedValue;
        value           uniform (1 0 0);
    }
    in
    {
        type            fixedValue;
        value           uniform (0 0 0);
    }
    frontAndBack
    {
        type            empty;
    }
}


// ************************************************************************* //
