/*--------------------------------*- C++ -*----------------------------------*\
| =========                 |                                                 |
| \\      /  F ield         | foam-extend: Open Source CFD                    |
|  \\    /   O peration     | Version:  3.0                                   |
|   \\  /    A nd           | Web:         http://www.extend-project.de       |
|    \\/     M anipulation  |                                                 |
\*---------------------------------------------------------------------------*/
FoamFile
{
    version     2.0;
    format      ascii;
    class       volVectorField;
    location    "29";
    object      u;
}
// * * * * * * * * * * * * * * * * * * * * * * * * * * * * * * * * * * * * * //

dimensions      [0 0 0 0 0 0 0];

internalField   nonuniform List<vector> 
672
(
(0.4735118483 -0.09046252557 5.276942323e-17)
(0.3088123233 -0.05999702637 2.906914943e-17)
(0.8458232723 -0.04978030716 7.103663064e-18)
(0.6181355712 -0.02952598921 1.475038576e-17)
(0.994976408 -0.02843440852 3.917444966e-17)
(0.7682108265 -0.01661501705 5.043700543e-17)
(1.06855722 -0.01532725909 8.742071409e-17)
(0.8403367428 -0.01011773288 -1.23199148e-17)
(1.110414734 -0.006626343121 2.884150101e-17)
(0.8695612908 -0.005531964608 2.474036724e-17)
(1.133454137 -0.0008157437824 -3.496134689e-18)
(0.8743903264 0.0001312390452 -1.931867274e-17)
(0.5143176313 -0.2685435901 -6.695266399e-18)
(0.3356524279 -0.1788799664 -9.233364109e-17)
(0.8681433834 -0.1482859979 6.407474142e-17)
(0.6312842579 -0.08883062784 -1.577744028e-16)
(1.007595638 -0.08506013439 -8.087215366e-17)
(0.7755674579 -0.05074608114 -2.374815429e-17)
(1.075367427 -0.0460399813 -2.611692129e-16)
(0.8447236179 -0.0317339177 9.88933249e-17)
(1.113705597 -0.02007595911 -8.662376005e-17)
(0.8714655176 -0.01823824594 1.047213923e-16)
(1.134959664 -0.003009483151 -1.747149608e-16)
(0.8729109427 -0.00195565433 2.643589091e-16)
(0.5933917467 -0.4331746837 -7.45086079e-18)
(0.3884313662 -0.2883286491 1.360763476e-16)
(0.9120609858 -0.2391250969 3.621220643e-17)
(0.6577538632 -0.1433639232 2.183155399e-16)
(1.033011123 -0.1372111479 6.114466658e-17)
(0.7909734856 -0.08230240623 1.701742026e-16)
(1.089150379 -0.07424353992 1.398570484e-16)
(0.8547517236 -0.05215735201 1.366741424e-16)
(1.119293389 -0.03197516504 -6.545721227e-17)
(0.8780937717 -0.03106700235 2.182401622e-17)
(1.134555555 -0.003763017047 -4.978265088e-18)
(0.8758127291 -0.005722716433 -4.092251808e-17)
(0.707414427 -0.5759804905 -1.664320235e-16)
(0.4642235003 -0.3839276951 -1.02682589e-16)
(0.974980048 -0.3182471253 -2.048133086e-16)
(0.6953262777 -0.1911066726 -2.666620529e-18)
(1.069055446 -0.1827055278 -3.88249355e-16)
(0.8123394 -0.1096861204 1.379898513e-16)
(1.108823968 -0.09893212781 -4.4114218e-16)
(0.8678554995 -0.06924918782 2.481128066e-16)
(1.128564492 -0.04299773488 -2.81391133e-16)
(0.8848626609 -0.04075777966 4.279054661e-16)
(1.137608676 -0.006058238561 -3.936133327e-16)
(0.8748837617 -0.007022388602 5.543784026e-16)
(0.8501861617 -0.6899134947 3.774515691e-16)
(0.5591670442 -0.4595340575 6.3231779e-17)
(1.053991539 -0.3809709154 2.149261666e-16)
(0.7427557649 -0.2287736994 4.662391342e-17)
(1.114583243 -0.2186737819 2.649993173e-16)
(0.8398838684 -0.1316947896 1.147641887e-16)
(1.133438674 -0.1182407218 1.233448446e-16)
(0.8858104348 -0.08398413321 -5.296945041e-18)
(1.13863419 -0.05064556055 1.803499343e-16)
(0.8964854392 -0.0506942734 -3.575500691e-16)
(1.137440419 -0.005534148913 2.386666415e-16)
(0.8788986303 -0.01062831619 -2.158910149e-16)
(1.014864702 -0.7691687962 -2.547585561e-16)
(0.6689502571 -0.5128766871 2.749153812e-17)
(1.145084482 -0.425003718 -2.920387826e-16)
(0.797351027 -0.2554516875 1.796908661e-16)
(1.16689037 -0.2439709664 -4.767083319e-16)
(0.8710189812 -0.1468897261 1.891040778e-16)
(1.161964291 -0.1319586436 -3.818948343e-16)
(0.9049725168 -0.09318347798 1.644647329e-16)
(1.151850658 -0.05701825371 -3.101967534e-16)
(0.9067389618 -0.05546264945 6.367691426e-16)
(1.141169418 -0.007465349017 -6.67169435e-16)
(0.8788918433 -0.01086106427 6.396315734e-16)
(1.193004615 -0.8098114753 4.569291262e-17)
(0.7872541781 -0.539722281 8.015845114e-17)
(1.243487493 -0.4472178759 -1.654798825e-17)
(0.8563592945 -0.2688616034 -1.005946024e-16)
(1.223484054 -0.2566487859 2.899958498e-16)
(0.9053339214 -0.1550363159 -2.715120356e-17)
(1.192524463 -0.1384986035 1.777247135e-16)
(0.9274743208 -0.09933709817 -8.253169673e-17)
(1.164445134 -0.058742736 1.735333764e-16)
(0.921221732 -0.06064838773 -4.020027747e-16)
(1.14140116 -0.005459306502 3.906076282e-16)
(0.8832516615 -0.01401010129 -2.48509814e-16)
(1.375745293 -0.8098309951 2.451499387e-17)
(0.9092903334 -0.5402056623 -6.583951941e-17)
(1.344727305 -0.4473820941 1.877767259e-16)
(0.9171719236 -0.2691397741 -7.082856786e-17)
(1.281641622 -0.2566969637 9.240030547e-18)
(0.9401408305 -0.1550151017 -6.176853821e-17)
(1.224060631 -0.1385495506 5.082643037e-17)
(0.9490994005 -0.09885924689 2.770635195e-17)
(1.178623916 -0.05931609936 -1.338703908e-16)
(0.9331865645 -0.05952475828 3.935497125e-16)
(1.144708463 -0.006937435205 -3.890614148e-16)
(0.8840917491 -0.0126604057 3.316788216e-16)
(1.55393338 -0.7691239912 8.27340891e-18)
(1.027549844 -0.5130007657 7.472318361e-18)
(1.443031223 -0.4247498731 -3.382700788e-16)
(0.9760942962 -0.2556687937 1.951630953e-16)
(1.338091021 -0.2436701873 -2.726036246e-16)
(0.9744398761 -0.1476405634 2.136751097e-16)
(1.254449472 -0.1311793462 -1.734021363e-16)
(0.9717193456 -0.09502615299 6.770748406e-17)
(1.191014136 -0.05498390794 7.287395817e-17)
(0.9478737321 -0.05875230735 -2.935612776e-16)
(1.144738456 -0.003901988644 2.757462777e-16)
(0.8886393235 -0.01508656467 -2.987927938e-16)
(1.718565512 -0.6899196651 7.872178431e-17)
(1.137634761 -0.4605057202 -3.231600727e-17)
(1.534348862 -0.380955081 3.950353468e-16)
(1.031032058 -0.2294522528 -1.295544832e-16)
(1.390573263 -0.218367946 2.700379648e-16)
(1.006001487 -0.1323769404 -2.556324345e-16)
(1.282820365 -0.1174018948 2.01056456e-16)
(0.991510121 -0.08500268522 -8.02057426e-17)
(1.203601158 -0.04935993118 -4.190433654e-19)
(0.9590332356 -0.05207077733 1.630347571e-17)
(1.147499518 -0.004284834639 4.450042351e-18)
(0.8896531541 -0.01236603233 2.784392707e-17)
(1.861490254 -0.5759273361 -2.190838962e-17)
(1.232474323 -0.3846311999 -2.161652564e-17)
(1.613133851 -0.3180003736 -2.178371729e-16)
(1.078260816 -0.191803283 -3.848857292e-17)
(1.435730674 -0.1823031723 -8.342723505e-17)
(1.033570307 -0.1109956263 3.359936413e-17)
(1.306936285 -0.09776309514 -7.358827472e-17)
(1.009913077 -0.07195240532 -1.866467083e-18)
(1.213035946 -0.04020453828 2.904219683e-17)
(0.9712981592 -0.04535195117 -4.168542859e-17)
(1.14682485 -0.001416165686 5.316862203e-17)
(0.8938391381 -0.01326225728 -8.690607187e-17)
(1.975430204 -0.4332061987 -3.408298353e-17)
(1.308743566 -0.2895636169 -1.5808545e-18)
(1.676388062 -0.2389110367 1.828032866e-16)
(1.116360971 -0.144259689 -4.080165427e-18)
(1.472075393 -0.1366392247 1.565092733e-16)
(1.055545093 -0.08340044258 -1.234500858e-16)
(1.326490171 -0.07290526464 1.855387375e-16)
(1.023831182 -0.05411377136 -1.19809672e-16)
(1.22156742 -0.02961214568 6.87677161e-17)
(0.9793098409 -0.03409017763 -7.900063647e-17)
(1.148522436 -0.0007847069689 1.099863929e-16)
(0.8948870107 -0.009581822503 -1.073526929e-16)
(2.05478339 -0.2685137085 5.350416044e-18)
(1.361424472 -0.1799911 -3.062401485e-17)
(1.720125751 -0.1480943096 -7.431801054e-17)
(1.142618307 -0.08987119519 -5.05222769e-17)
(1.49708248 -0.08468747959 -4.176695399e-17)
(1.071025083 -0.05227493296 -1.745991245e-17)
(1.339636263 -0.04487038675 -2.02954589e-17)
(1.034480339 -0.03455003941 -3.280442803e-17)
(1.226313634 -0.01727396984 3.537010166e-17)
(0.9867232093 -0.02302170249 -4.402177455e-17)
(1.147595543 0.001734295183 4.528628015e-17)
(0.8975241399 -0.009037293434 -5.129339844e-17)
(2.095491938 -0.09056270476 1.597514105e-19)
(1.38870929 -0.06123233541 1.12085837e-17)
(1.742743416 -0.0494297886 7.691700682e-17)
(1.156265905 -0.03043469767 3.962770204e-18)
(1.510026775 -0.02780141382 8.56903372e-17)
(1.079000056 -0.01771793722 -4.31567222e-17)
(1.346424568 -0.01413738021 8.830069488e-17)
(1.03973165 -0.01208454751 -5.584980435e-17)
(1.228980776 -0.004525797454 5.277767328e-17)
(0.9900056691 -0.008696794745 -5.635665526e-17)
(1.147723337 0.00207054341 6.640801641e-17)
(0.8984422623 -0.004247151525 -7.460942683e-17)
(2.095573746 0.09220446558 -7.864839341e-18)
(1.388808207 0.06042811453 -3.320991378e-17)
(1.74283446 0.05131198434 -3.353259108e-17)
(1.15635967 0.02998761419 -4.827844276e-17)
(1.510018371 0.0297883243 -2.090781668e-17)
(1.07926773 0.01701493041 -4.132616984e-17)
(1.346146535 0.0168283223 -6.765860024e-18)
(1.040329056 0.01003743415 -3.478098685e-17)
(1.228350323 0.008897052474 2.123765124e-17)
(0.9908351728 0.004160866133 -2.982516149e-17)
(1.146979832 0.004525479078 2.988109968e-17)
(0.8989903544 -0.003104366023 -3.237211941e-17)
(2.055018042 0.2701313573 2.706263518e-17)
(1.361665088 0.1792685502 2.744542468e-17)
(1.720340261 0.1499391218 5.082942025e-17)
(1.142824555 0.08949055729 2.230954166e-17)
(1.497019954 0.08656587394 9.31730661e-17)
(1.071658275 0.0517188897 -3.190261438e-17)
(1.338886122 0.04724695551 1.159128142e-16)
(1.035899935 0.03286027562 -6.608379967e-17)
(1.224728458 0.02098830768 6.414905664e-17)
(0.988713566 0.01912178945 -7.841819255e-17)
(1.14573423 0.003922763929 9.114420938e-17)
(0.8991696277 0.002440810335 -1.229945551e-16)
(1.975840971 0.4347760502 -2.389519168e-17)
(1.309133425 0.2890134008 -4.936676578e-17)
(1.676790734 0.2407182753 -3.679501862e-17)
(1.116695872 0.144027064 -7.458222566e-17)
(1.472036304 0.1384227218 -3.892119826e-17)
(1.056553966 0.08313064436 -6.442768739e-17)
(1.325338629 0.07501543359 -4.310161263e-17)
(1.026098402 0.05297799981 -4.408799761e-17)
(1.21903048 0.0328764631 1.352210169e-17)
(0.9825246278 0.03093929615 9.461973615e-18)
(1.145470695 0.005949297224 -1.185609481e-17)
(0.8975844994 0.003720081441 1.404884924e-17)
(1.862075002 0.5774410835 1.113067239e-16)
(1.232934933 0.384300802 3.252239494e-17)
(1.613681708 0.3197198011 1.150351854e-16)
(1.078661773 0.1917568667 -2.800900249e-17)
(1.435724537 0.1838501932 1.950497741e-16)
(1.034843729 0.1111291507 -7.590961037e-17)
(1.305550952 0.09920145875 1.985042651e-16)
(1.012788854 0.07173830311 -1.069787223e-16)
(1.209966523 0.0421137582 1.31698334e-16)
(0.9752847476 0.04368798284 -2.053010016e-16)
(1.143274882 0.004763437416 1.953041611e-16)
(0.8968021339 0.008900001348 -2.526994682e-16)
(1.719352615 0.6913672761 -1.93664757e-16)
(1.13812427 0.4604602017 -1.436621451e-17)
(1.535101561 0.3826127055 -9.693214371e-17)
(1.031443955 0.2296285013 1.851394598e-17)
(1.390709094 0.219733542 -1.621359367e-16)
(1.007345001 0.1329183784 -2.63973603e-17)
(1.281463695 0.1182751498 -8.079661446e-17)
(0.9945394373 0.085663315 4.623059577e-17)
(1.200450649 0.05010163607 -1.290144413e-16)
(0.9632495911 0.05186621161 2.461339959e-16)
(1.143788933 0.005949384771 -1.786148158e-16)
(0.8930364109 0.009870604605 1.729913586e-16)
(1.554915274 0.7705194636 1.31655366e-16)
(1.027992072 0.513245408 -2.604686464e-17)
(1.443938143 0.4263116794 1.001325625e-16)
(0.9764714091 0.256082074 -1.075717181e-16)
(1.338336623 0.2448320622 2.377656276e-16)
(0.9757937452 0.1486200246 -8.143308944e-17)
(1.253132577 0.1315454158 1.78529155e-16)
(0.9748145341 0.09657769029 -7.076107043e-17)
(1.187838045 0.05481160169 1.791731564e-16)
(0.9521141857 0.05986265598 -4.161491055e-16)
(1.141107988 0.004451300965 4.319304281e-16)
(0.891659199 0.01390948277 -3.991979356e-16)
(1.376939822 0.8111855613 2.926494569e-17)
(0.9096249073 0.5407619624 -3.474586659e-17)
(1.345841123 0.4488885188 1.277590605e-16)
(0.9174725734 0.2697990409 9.304127737e-17)
(1.282128581 0.2576707515 -1.723237096e-16)
(0.9413792831 0.156435091 3.46839909e-17)
(1.223160583 0.1382845873 -1.27778166e-16)
(0.9518921488 0.1013916626 9.023294384e-17)
(1.176216787 0.0577401662 -1.679614181e-16)
(0.936790515 0.06233431551 4.080578046e-16)
(1.142221702 0.005408630169 -4.036431832e-16)
(0.8861907116 0.01351911703 3.048297006e-16)
(1.194393545 0.8111460959 -1.107239412e-16)
(0.7874165493 0.5405608738 7.317068024e-17)
(1.244752239 0.4486249815 -4.029303435e-16)
(0.8565032945 0.2697391336 1.409683742e-16)
(1.224173601 0.2574518812 -1.949219456e-16)
(0.9062586025 0.1567542508 1.771604002e-16)
(1.192060603 0.13790113 -2.020042741e-16)
(0.9295872457 0.1023932884 5.647285743e-17)
(1.162859916 0.0566239838 5.840069733e-17)
(0.9237763476 0.06429486567 -3.198113486e-16)
(1.140008123 0.003187483332 3.136785231e-16)
(0.8843671291 0.01616519992 -2.278691612e-16)
(1.016426401 0.7705218927 9.213217e-18)
(0.6688991815 0.5139660155 2.893864151e-17)
(1.146517013 0.4263972329 5.470596427e-16)
(0.7973406579 0.2565412444 -2.313502075e-16)
(1.167826231 0.2447032616 4.42878106e-16)
(0.871667062 0.1489419506 -2.657607211e-16)
(1.162015409 0.131104219 2.725905723e-16)
(0.9064869984 0.09689148078 -7.43546088e-17)
(1.151177258 0.05432465297 -9.763556543e-17)
(0.9082916012 0.06011012449 4.117332079e-16)
(1.141029196 0.004403141892 -3.882183961e-16)
(0.8786331875 0.01400429069 4.329650702e-16)
(0.8519104518 0.6912883595 -1.296882769e-16)
(0.5588515253 0.4608371778 3.826870215e-17)
(1.055567342 0.3822655702 -7.44682221e-16)
(0.7425074318 0.230028024 2.111365442e-16)
(1.115814791 0.2192828566 -5.720765057e-16)
(0.8400437377 0.1338755831 4.96778025e-16)
(1.134290905 0.1172272272 -4.532449134e-16)
(0.8862313691 0.08785753728 2.229975716e-16)
(1.139597039 0.04768188376 -7.578128298e-17)
(0.896251471 0.05571691577 5.467292708e-17)
(1.139566924 0.002000017128 -1.118366289e-16)
(0.8767750202 0.01461764199 3.373070115e-17)
(0.7091970903 0.5774366555 -3.403734464e-17)
(0.4636688657 0.3853541355 5.069811855e-17)
(0.9766283982 0.3195797396 4.263294048e-16)
(0.6948832353 0.1924523119 1.623364053e-16)
(1.070459086 0.1834010135 1.31702503e-16)
(0.812099988 0.1118664619 -3.884026873e-17)
(1.110138102 0.09817010941 1.267158886e-16)
(0.8674597484 0.07299349909 2.147024646e-17)
(1.130332158 0.04046800968 -7.923479389e-17)
(0.8834931968 0.04566446966 2.512013433e-17)
(1.140640279 0.002913633707 -5.860076572e-17)
(0.8717153085 0.01133156707 1.103609937e-16)
(0.5952757582 0.4346800162 1.949279042e-16)
(0.3875725774 0.289868447 7.183000711e-18)
(0.9138161834 0.2403738059 -3.704658125e-16)
(0.657066545 0.1447920846 -6.195639699e-17)
(1.034631558 0.1379107004 -3.371993626e-16)
(0.790337507 0.08440910427 2.834244971e-16)
(1.091029005 0.07372308778 -4.79487032e-16)
(0.8535539847 0.05561574816 3.191212739e-16)
(1.122179287 0.02993799944 -1.744237057e-16)
(0.8754030953 0.03559103167 2.294127546e-16)
(1.13916284 0.00120668652 -3.286546985e-16)
(0.8709946013 0.009726023383 3.198035033e-16)
(0.5160705866 0.2701518694 -1.160409813e-16)
(0.3346392507 0.1804163077 1.910605119e-17)
(0.8698207715 0.1495770156 1.580578509e-16)
(0.6304598961 0.09025340692 8.630335817e-17)
(1.009239486 0.0859063252 1.333967683e-16)
(0.7746376205 0.05260643479 -4.249288388e-17)
(1.077530628 0.04603664641 9.004013154e-17)
(0.8428924508 0.03451314428 2.396897143e-17)
(1.117265715 0.01902318288 -1.105767939e-16)
(0.8677947306 0.0218801439 5.996789438e-17)
(1.140491342 0.001496972195 -5.925623026e-17)
(0.8671015295 0.00577874185 4.825267945e-17)
(0.4752969132 0.09211424665 5.693799419e-17)
(0.3075134753 0.06153871117 3.734665245e-17)
(0.8475477314 0.05100460051 -1.656399748e-16)
(0.6171209775 0.03093368298 6.459466879e-17)
(0.9966700621 0.02936528989 -1.391623099e-16)
(0.7670731941 0.01820899421 9.72019389e-17)
(1.070801721 0.01582761276 -5.40910108e-17)
(0.8381973372 0.01219121997 1.867851017e-17)
(1.114073804 0.006605531728 1.983287867e-18)
(0.8654895815 0.008124072975 2.835176444e-17)
(1.139048329 0.0006000547718 -4.52963165e-17)
(0.8681107501 0.00270525809 3.807250144e-17)
(0.4752764814 -0.09051900487 -5.265984415e-17)
(0.3074020664 -0.0602065944 -2.878781288e-17)
(0.8472527275 -0.04996884588 -7.210936259e-18)
(0.6168470313 -0.02976702913 -1.431746795e-17)
(0.9962714161 -0.02852105445 -3.915538999e-17)
(0.7667094335 -0.01703495601 -4.999600769e-17)
(1.070542922 -0.01508368067 -8.732525353e-17)
(0.8376925016 -0.01082112911 1.262283938e-17)
(1.114293645 -0.005954896415 -2.877319973e-17)
(0.8644872751 -0.006356698994 -2.461309424e-17)
(1.140117425 0.0001508487598 3.493277172e-18)
(0.8661831047 -0.001203561953 1.935452354e-17)
(0.5157282043 -0.2686060361 6.387625942e-18)
(0.3345344886 -0.1788983411 9.203981031e-17)
(0.8698803175 -0.148393829 -6.441539519e-17)
(0.6305824086 -0.08896226558 1.576133246e-16)
(1.009443025 -0.08493448661 8.017308071e-17)
(0.7748842897 -0.05149534536 2.398202407e-17)
(1.077585545 -0.04514973893 2.600769791e-16)
(0.8432913016 -0.03353310346 -9.793419084e-17)
(1.116794335 -0.01797193735 8.488597603e-17)
(0.8686215326 -0.02086783679 -1.026947572e-16)
(1.139102958 1.491761998e-05 1.721461433e-16)
(0.8687911257 -0.004974218652 -2.612603178e-16)
(0.5948936984 -0.4331991589 7.916556066e-18)
(0.3873573598 -0.2887929701 -1.355686795e-16)
(0.9134040669 -0.2395615109 -3.583668038e-17)
(0.6567428617 -0.1437929919 -2.177725466e-16)
(1.034154004 -0.1372657702 -6.070001755e-17)
(0.7898830988 -0.0832149213 -1.697444067e-16)
(1.090635691 -0.07322069975 -1.39558461e-16)
(0.8528686788 -0.05393144766 -1.364351195e-16)
(1.122165954 -0.0297932372 6.562519096e-17)
(0.8741485526 -0.0332188649 -2.184895936e-17)
(1.13984327 -0.00130698117 5.146435453e-18)
(0.8689984085 -0.007693607734 4.062047311e-17)
(0.7085684957 -0.5760836733 1.657750576e-16)
(0.4632826712 -0.3837937306 1.024255966e-16)
(0.9763992351 -0.3183860134 2.037312674e-16)
(0.6947740054 -0.1911358154 2.87692364e-18)
(1.070423678 -0.1824244696 3.866006123e-16)
(0.812175545 -0.1108403115 -1.369584368e-16)
(1.110017557 -0.09727757869 4.389083749e-16)
(0.8677461744 -0.07232315624 -2.459035731e-16)
(1.129696839 -0.03921212312 2.782008305e-16)
(0.8841758424 -0.04532310751 -4.24101263e-16)
(1.139038827 -0.0008385276273 3.88924564e-16)
(0.8731573171 -0.01145895942 -5.486973119e-16)
(0.8512487089 -0.6900673532 -3.767607236e-16)
(0.558644495 -0.4600124074 -6.2666393e-17)
(1.05517389 -0.381666946 -2.141049273e-16)
(0.7422312163 -0.2291903812 -4.615471713e-17)
(1.115416039 -0.2188048627 -2.641405381e-16)
(0.8395381697 -0.1327434836 -1.145315476e-16)
(1.13396762 -0.1169205369 -1.227234412e-16)
(0.8853080476 -0.08610984952 5.314252442e-18)
(1.139657601 -0.04791976254 -1.800436723e-16)
(0.894610194 -0.05313189992 3.573026538e-16)
(1.140248646 -0.002798217296 -2.381692076e-16)
(0.8746298584 -0.01223799957 2.151179246e-16)
(1.015642413 -0.7694559124 2.538747697e-16)
(0.6682581076 -0.512543079 -2.762844354e-17)
(1.146030256 -0.4253493292 2.903656091e-16)
(0.7969966723 -0.2553490743 -1.790582431e-16)
(1.167561244 -0.2438580555 4.743906421e-16)
(0.8715573597 -0.1480787929 -1.875116228e-16)
(1.161728181 -0.130339781 3.791060886e-16)
(0.9066627403 -0.09648093797 -1.618054029e-16)
(1.150340154 -0.05311854887 3.067885265e-16)
(0.9089263061 -0.06026131613 -6.328913011e-16)
(1.139076187 -0.002186471156 6.62667178e-16)
(0.8800837896 -0.01498737877 -6.343232612e-16)
(1.193594905 -0.81027854 -4.485055533e-17)
(0.7872937642 -0.5399220249 -7.968108284e-17)
(1.244470311 -0.448164343 1.774592533e-17)
(0.8563436486 -0.2690035438 1.008242324e-16)
(1.223950004 -0.2570282394 -2.888337081e-16)
(0.9057709729 -0.1557229119 2.715456122e-17)
(1.191964796 -0.1376246162 -1.771005156e-16)
(0.928462989 -0.100807965 8.264515147e-17)
(1.163296283 -0.05691713392 -1.735840056e-16)
(0.9217150856 -0.0619390086 4.023559706e-16)
(1.141146352 -0.004184217313 -3.910801067e-16)
(0.8820508239 -0.01391710678 2.490498122e-16)
(1.376154803 -0.8104382491 -2.548384897e-17)
(0.9088604352 -0.539627682 6.58676449e-17)
(1.345214649 -0.4481152545 -1.897531395e-16)
(0.9170073809 -0.268861299 7.176970876e-17)
(1.281706605 -0.257077406 -1.182155083e-17)
(0.9412079639 -0.1558110126 6.363370129e-17)
(1.222725153 -0.1377589171 -5.35558036e-17)
(0.9521107629 -0.1012254538 -2.526581095e-17)
(1.17518168 -0.05679889314 1.310665555e-16)
(0.9375133214 -0.06282066166 -3.906221821e-16)
(1.140037767 -0.003482807932 3.858892412e-16)
(0.8876173369 -0.01504058268 -3.282081773e-16)
(1.554152931 -0.7700265682 -7.453165162e-18)
(1.027974928 -0.5127041355 -7.123958247e-18)
(1.443796283 -0.4259048592 3.39527239e-16)
(0.9764395568 -0.255360325 -1.951195117e-16)
(1.338279573 -0.2443882572 2.737683571e-16)
(0.9753907689 -0.1476475524 -2.138234076e-16)
(1.25320882 -0.1312539986 1.739178867e-16)
(0.9736822834 -0.09520225523 -6.744286601e-17)
(1.188450685 -0.05506540549 -7.336069216e-17)
(0.9500280198 -0.05793462705 2.945009802e-16)
(1.14231133 -0.005388892987 -2.770788606e-16)
(0.889751233 -0.01214898841 3.005812608e-16)
(1.718717132 -0.6909045016 -7.953812021e-17)
(1.137433183 -0.4596772807 3.242831171e-17)
(1.534524169 -0.3821553466 -3.968523136e-16)
(1.031015051 -0.2289900171 1.306020892e-16)
(1.390311272 -0.2194102682 -2.724263955e-16)
(1.007203041 -0.1325390548 2.575512467e-16)
(1.281092726 -0.1179261866 -2.036267493e-16)
(0.9947822788 -0.08572573209 8.264037547e-17)
(1.199585185 -0.04925351742 -2.229224351e-18)
(0.9639171955 -0.05270911457 -1.350191424e-17)
(1.141948181 -0.004060905344 -7.473587397e-18)
(0.894295654 -0.01199042371 -2.459208385e-17)
(1.861517866 -0.5772624292 2.249667663e-17)
(1.233001972 -0.3837889098 2.185507248e-17)
(1.613665824 -0.319296214 2.188450835e-16)
(1.078731173 -0.191010534 3.836351602e-17)
(1.435789174 -0.1833212515 8.440044735e-17)
(1.034601106 -0.1102462779 -3.393259827e-17)
(1.305707326 -0.098820744 7.402442285e-17)
(1.011944766 -0.0706970911 1.855018645e-18)
(1.210478136 -0.04223790608 -2.930253793e-17)
(0.9737290206 -0.04232452514 4.221884959e-17)
(1.144077497 -0.005600455188 -5.390014098e-17)
(0.8957932386 -0.007512167595 8.778648354e-17)
(1.975473324 -0.4345089285 3.354096285e-17)
(1.30871883 -0.2885301494 1.741278383e-18)
(1.676444731 -0.2405077016 -1.84120157e-16)
(1.116462479 -0.1436427325 5.007145088e-18)
(1.471817426 -0.1382819386 -1.582103739e-16)
(1.056511891 -0.08295750886 1.250787067e-16)
(1.325162796 -0.07471742764 -1.873640899e-16)
(1.026302247 -0.05322972094 1.218426515e-16)
(1.218530937 -0.03197061422 -7.097210129e-17)
(0.9830072123 -0.03207341433 8.161089818e-17)
(1.144230886 -0.003961857035 -1.128014136e-16)
(0.8988362558 -0.006334008028 1.106599378e-16)
(2.054791425 -0.2701380325 -5.07932257e-18)
(1.361784341 -0.1787498454 3.06717381e-17)
(1.720410486 -0.1494609307 7.489405732e-17)
(1.142978237 -0.08871403929 5.032914315e-17)
(1.497131344 -0.08590915117 4.220116127e-17)
(1.071693088 -0.05093060417 1.712274639e-17)
(1.339008906 -0.04666229538 2.042278774e-17)
(1.035683224 -0.03216971795 3.265539839e-17)
(1.224936857 -0.0207627312 -3.546827759e-17)
(0.9881626811 -0.01834333512 4.405713844e-17)
(1.145944045 -0.004377707711 -4.547738387e-17)
(0.8992283779 -0.001358777959 5.139558694e-17)
(2.095541169 -0.09201250211 -2.794638741e-19)
(1.388815433 -0.06008572281 -1.097587513e-17)
(1.742831955 -0.05120326131 -7.744127712e-17)
(1.156454605 -0.02971687644 -3.403820424e-18)
(1.510041781 -0.02971977506 -8.62181842e-17)
(1.079445614 -0.01693143593 4.393972232e-17)
(1.34614372 -0.01656377361 -8.875504087e-17)
(1.040592801 -0.01035217945 5.659714389e-17)
(1.228176883 -0.008063175448 -5.322557762e-17)
(0.9911856952 -0.0053382576 5.703117631e-17)
(1.14640173 -0.00273576205 -6.697147867e-17)
(0.9002637239 0.000527547983 7.535590816e-17)
(2.095650566 0.09053745094 7.775293932e-18)
(1.388860133 0.06177374024 3.295306275e-17)
(1.742866282 0.04995380288 3.36560404e-17)
(1.156488084 0.03124935331 4.786942897e-17)
(1.510119539 0.02853551031 2.08969949e-17)
(1.079355985 0.01852061539 4.091133426e-17)
(1.346411371 0.01485796836 6.670018319e-18)
(1.04027926 0.01270676194 3.450934261e-17)
(1.228725207 0.005006139718 -2.131502597e-17)
(0.9906801694 0.009262012996 2.973373408e-17)
(1.147139434 -0.002176677232 -2.991161896e-17)
(0.8998010986 0.005199719917 3.239866665e-17)
(2.05509596 0.26876285 -2.675938988e-17)
(1.361884611 0.1804087594 -2.713730752e-17)
(1.720484697 0.1482816408 -5.050692043e-17)
(1.143078495 0.09023170315 -2.211248969e-17)
(1.497352249 0.0848174379 -9.249454339e-17)
(1.07149076 0.05245816905 3.171451765e-17)
(1.339775171 0.04514247977 -1.148500132e-16)
(1.03492397 0.03435081121 6.520975289e-17)
(1.226409688 0.01802603644 -6.249923458e-17)
(0.9870508986 0.02199574085 7.655563956e-17)
(1.147698207 -0.0001390719176 -8.875681836e-17)
(0.8986478717 0.006859271607 1.201679767e-16)
(1.975949044 0.4333337606 2.345949247e-17)
(1.308927247 0.2901389658 4.887996296e-17)
(1.676565355 0.2394551378 3.642967926e-17)
(1.116643055 0.1451121667 7.405956544e-17)
(1.47215316 0.1373508531 3.847172765e-17)
(1.056177522 0.08432744045 6.403067488e-17)
(1.326351541 0.07356140509 4.279189609e-17)
(1.025038862 0.05500199081 4.387169148e-17)
(1.220886306 0.02994889666 -1.367718412e-17)
(0.9810855137 0.03501227053 -9.434324258e-18)
(1.147178758 0.0004827743197 1.171047733e-17)
(0.8975514049 0.01098071955 -1.375886443e-17)
(1.862099597 0.5763595612 -1.106523666e-16)
(1.233289411 0.3853211795 -3.224436971e-17)
(1.613768642 0.3184315981 -1.139607581e-16)
(1.078993218 0.1924409923 2.781710299e-17)
(1.436178925 0.1826326812 -1.933986881e-16)
(1.034250415 0.1114650597 7.490855331e-17)
(1.307170885 0.09814069143 -1.963020015e-16)
(1.010508033 0.07204623663 1.048492472e-16)
(1.213321686 0.04102020431 -1.286155245e-16)
(0.9716346648 0.04460282388 2.016641854e-16)
(1.147462793 0.003104781407 -1.908302818e-16)
(0.894764246 0.01159801711 2.473253954e-16)
(1.719344622 0.6903441242 1.929967719e-16)
(1.137870851 0.4611407866 1.382629923e-17)
(1.534611528 0.3815202812 9.609889719e-17)
(1.031386363 0.2303494619 -1.895339968e-17)
(1.390706523 0.2190003768 1.612744303e-16)
(1.006838313 0.1335059775 2.621281334e-17)
(1.282684155 0.1178454666 8.016377063e-17)
(0.9931560405 0.08641003464 -4.623660657e-17)
(1.202752106 0.04920743631 1.28708808e-16)
(0.9615304129 0.05382500669 -2.458691521e-16)
(1.145783585 0.003270898525 1.781124404e-16)
(0.8931344145 0.01471348217 -1.722016877e-16)
(1.554738121 0.7698374167 -1.307574548e-16)
(1.028527814 0.5140737358 2.618797469e-17)
(1.443776375 0.4255192797 -9.846110604e-17)
(0.9769169026 0.2566733876 1.069720631e-16)
(1.33858751 0.2442858801 -2.354717984e-16)
(0.9751629378 0.1484580933 7.988515647e-17)
(1.254713106 0.1317476673 -1.757740098e-16)
(0.9723113549 0.09544476786 6.818601088e-17)
(1.191405934 0.05595996656 -1.758389231e-16)
(0.9481456282 0.05835148922 4.123735278e-16)
(1.14566998 0.005741719635 -4.27536185e-16)
(0.8894201438 0.01424850781 3.940839954e-16)
(1.376627398 0.8106403838 -3.009806901e-17)
(0.9095963624 0.540952988 3.430103541e-17)
(1.34509426 0.4480153578 -1.289481774e-16)
(0.9176149766 0.2701176461 -9.324950491e-17)
(1.281879374 0.2572900125 1.711804651e-16)
(0.9411029963 0.156385772 -3.465362405e-17)
(1.223999736 0.1388531546 1.271405842e-16)
(0.9509307964 0.1008247375 -9.027726829e-17)
(1.17779463 0.058844088 1.67948237e-16)
(0.9359490305 0.06209911927 -4.083044287e-16)
(1.142978318 0.005530627925 4.039869029e-16)
(0.8877720476 0.01581627311 -3.051705896e-16)
(1.19386905 0.8108538542 1.11675131e-16)
(0.7881714154 0.541176246 -7.316975848e-17)
(1.244161321 0.4483089431 4.048778307e-16)
(0.8570756241 0.2702302717 -1.418797927e-16)
(1.223905083 0.25751107 1.974830818e-16)
(0.9059354384 0.1562310469 -1.789928932e-16)
(1.192804298 0.1391613589 2.047077726e-16)
(0.9279159486 0.1001956116 -5.888035293e-17)
(1.165021626 0.0596343015 -5.560704537e-17)
(0.9212602557 0.06086274567 3.168992001e-16)
(1.142719229 0.007030906344 -3.105114397e-16)
(0.8835804444 0.0143657871 2.244402748e-16)
(1.015665556 0.7703754884 -9.989011649e-18)
(0.6693118294 0.5138053447 -2.927676866e-17)
(1.145538356 0.4257782992 -5.482747356e-16)
(0.7978463412 0.2565615375 2.313451064e-16)
(1.167259002 0.2446016905 -4.440328989e-16)
(0.8719286504 0.1484836159 2.659439397e-16)
(1.162056247 0.1322452059 -2.731390222e-16)
(0.9065853041 0.09554533784 7.419720543e-17)
(1.151212474 0.0565158589 9.800386067e-17)
(0.909230494 0.05853633477 -4.125139832e-16)
(1.139588492 0.006129730467 3.893555427e-16)
(0.8824583177 0.01457414767 -4.344463805e-16)
(0.8509676767 0.691272551 1.305049444e-16)
(0.5598281903 0.46125955 -3.835540587e-17)
(1.054459401 0.3822850055 7.464488471e-16)
(0.7431961791 0.230411284 -2.121494862e-16)
(1.114848429 0.219702562 5.744210488e-16)
(0.8402130974 0.1332385625 -4.986367931e-16)
(1.133714923 0.118941449 4.55771615e-16)
(0.8859854855 0.08537639622 -2.254050328e-16)
(1.139357408 0.0513454993 7.84275751e-17)
(0.8962242469 0.05170701975 -5.743551109e-17)
(1.139012958 0.006689307724 1.148586219e-16)
(0.8785640745 0.01211708909 -3.696520915e-17)
(0.7079540289 0.5775201006 3.346233978e-17)
(0.4645900577 0.3850940589 -5.091933242e-17)
(0.9754436431 0.3192379372 -4.273004884e-16)
(0.6958061087 0.1923747511 -1.621911083e-16)
(1.06953333 0.1834734023 -1.326371891e-16)
(0.8130398161 0.1113924243 3.920647077e-17)
(1.109142638 0.09932932604 -1.27148672e-16)
(0.8689375686 0.07169596878 -2.137836954e-17)
(1.128349083 0.04264731467 7.941369129e-17)
(0.886632784 0.04394215461 -2.546716998e-17)
(1.136495057 0.004931856609 5.91438882e-17)
(0.8779232434 0.01118239564 -1.109491001e-16)
(0.5939683001 0.4347812094 -1.943733902e-16)
(0.3887199044 0.2901412182 -7.322121806e-18)
(0.912254994 0.2405317043 3.717533706e-16)
(0.6578408124 0.1450863815 6.106194359e-17)
(1.033039318 0.1383397467 3.38852154e-16)
(0.7909725123 0.08402307228 -2.84995746e-16)
(1.089255482 0.07503031202 4.812598977e-16)
(0.8546520441 0.0539385698 -3.210859276e-16)
(1.119802602 0.03256634661 1.765860068e-16)
(0.8776446589 0.03280564586 -2.319546834e-16)
(1.135796102 0.004467543806 3.314046616e-16)
(0.8749934393 0.008264390541 -3.230070045e-16)
(0.5144501003 0.2702825514 1.15781873e-16)
(0.3359487204 0.1803127893 -1.913030336e-17)