/*--------------------------------*- C++ -*----------------------------------*\
| =========                 |                                                 |
| \\      /  F ield         | foam-extend: Open Source CFD                    |
|  \\    /   O peration     | Version:  3.0                                   |
|   \\  /    A nd           | Web:         http://www.extend-project.de       |
|    \\/     M anipulation  |                                                 |
\*---------------------------------------------------------------------------*/
FoamFile
{
    version     2.0;
    format      ascii;
    class       volScalarField;
    location    "59";
    object      p;
}
// * * * * * * * * * * * * * * * * * * * * * * * * * * * * * * * * * * * * * //

dimensions      [0 0 0 0 0 0 0];

internalField   nonuniform List<scalar> 
7680
(
-0.234614
-0.222615
-0.213732
-0.204347
-0.197561
-0.190106
-0.18488
-0.178893
-0.174858
-0.170015
-0.166904
-0.162967
-0.160583
-0.157373
-0.155565
-0.152943
-0.151592
-0.149446
-0.148454
-0.146692
-0.145977
-0.144521
-0.14401
-0.142791
-0.142419
-0.141373
-0.141079
-0.140146
-0.13987
-0.138992
-0.138673
-0.137793
-0.137368
-0.136425
-0.135831
-0.134764
-0.13393
-0.132675
-0.13153
-0.130027
-0.234434
-0.222443
-0.213567
-0.204189
-0.197408
-0.189958
-0.184737
-0.178755
-0.174723
-0.169885
-0.166776
-0.162843
-0.160461
-0.157255
-0.155449
-0.15283
-0.15148
-0.149337
-0.148346
-0.146587
-0.145873
-0.144418
-0.143909
-0.142691
-0.14232
-0.141275
-0.140982
-0.14005
-0.139775
-0.138898
-0.138579
-0.137699
-0.137274
-0.136331
-0.135735
-0.134666
-0.133831
-0.132572
-0.131426
-0.129917
-0.233862
-0.221902
-0.213048
-0.203694
-0.19693
-0.189499
-0.184291
-0.178324
-0.174302
-0.169475
-0.166374
-0.16245
-0.160074
-0.156875
-0.155073
-0.152461
-0.151114
-0.148976
-0.147987
-0.146232
-0.14552
-0.144069
-0.143561
-0.142345
-0.141976
-0.140933
-0.140641
-0.139711
-0.139437
-0.138562
-0.138244
-0.137365
-0.136943
-0.136
-0.135406
-0.134337
-0.133502
-0.132243
-0.131094
-0.129583
-0.23318
-0.221253
-0.212426
-0.203098
-0.196354
-0.188945
-0.183753
-0.177803
-0.173793
-0.168981
-0.16589
-0.161978
-0.15961
-0.156421
-0.154625
-0.152021
-0.150679
-0.148548
-0.147563
-0.145814
-0.145105
-0.143659
-0.143153
-0.141942
-0.141575
-0.140536
-0.140246
-0.13932
-0.139047
-0.138175
-0.137859
-0.136983
-0.136562
-0.135622
-0.13503
-0.133962
-0.133129
-0.131869
-0.130719
-0.129203
-0.232109
-0.220239
-0.211452
-0.202169
-0.195456
-0.188082
-0.182913
-0.176991
-0.173
-0.168209
-0.165132
-0.161239
-0.158881
-0.155707
-0.153919
-0.151326
-0.14999
-0.147869
-0.146888
-0.145147
-0.144441
-0.143001
-0.142498
-0.141293
-0.140928
-0.139893
-0.139606
-0.138683
-0.138413
-0.137545
-0.137233
-0.136361
-0.135944
-0.135008
-0.13442
-0.133357
-0.132528
-0.131272
-0.130126
-0.128607
-0.230927
-0.219117
-0.210375
-0.201138
-0.19446
-0.187123
-0.181981
-0.17609
-0.172119
-0.167354
-0.164293
-0.16042
-0.158075
-0.154918
-0.15314
-0.150561
-0.149233
-0.147123
-0.146149
-0.144417
-0.143716
-0.142285
-0.141785
-0.140587
-0.140225
-0.139197
-0.138912
-0.137996
-0.137729
-0.136866
-0.136557
-0.13569
-0.135277
-0.134346
-0.133763
-0.132705
-0.13188
-0.130626
-0.129481
-0.127959
-0.229361
-0.217633
-0.208951
-0.199778
-0.193146
-0.185859
-0.180752
-0.174901
-0.170957
-0.166224
-0.163184
-0.159337
-0.157007
-0.153871
-0.152105
-0.149544
-0.148224
-0.146129
-0.145161
-0.143441
-0.142744
-0.141323
-0.140826
-0.139636
-0.139277
-0.138256
-0.137974
-0.137064
-0.1368
-0.135944
-0.135639
-0.134779
-0.134371
-0.133447
-0.132871
-0.13182
-0.131003
-0.129756
-0.128618
-0.127094
-0.227685
-0.216041
-0.207423
-0.198317
-0.191733
-0.1845
-0.179431
-0.173623
-0.169708
-0.165011
-0.161993
-0.158175
-0.155863
-0.152751
-0.150999
-0.148457
-0.147148
-0.145069
-0.144109
-0.142403
-0.141712
-0.140302
-0.139811
-0.13863
-0.138275
-0.137263
-0.136984
-0.136082
-0.135821
-0.134973
-0.134671
-0.133819
-0.133415
-0.1325
-0.131928
-0.130886
-0.130073
-0.128834
-0.127698
-0.126177
-0.225632
-0.214095
-0.205555
-0.196532
-0.190008
-0.182841
-0.177817
-0.172062
-0.168183
-0.163527
-0.160537
-0.156753
-0.154462
-0.151377
-0.14964
-0.147121
-0.145824
-0.143763
-0.142812
-0.14112
-0.140436
-0.139039
-0.138552
-0.137382
-0.13703
-0.136027
-0.135751
-0.134858
-0.1346
-0.13376
-0.133463
-0.132618
-0.132221
-0.131314
-0.13075
-0.129717
-0.128914
-0.127682
-0.126557
-0.125036
-0.223468
-0.212041
-0.203583
-0.194647
-0.188185
-0.181087
-0.176112
-0.170412
-0.166571
-0.16196
-0.158999
-0.155252
-0.152984
-0.14993
-0.148211
-0.145717
-0.144433
-0.142393
-0.141452
-0.139778
-0.139101
-0.137718
-0.137237
-0.136079
-0.135732
-0.13474
-0.134468
-0.133584
-0.13333
-0.132498
-0.132205
-0.13137
-0.130977
-0.130079
-0.12952
-0.128497
-0.1277
-0.126478
-0.125359
-0.123848
-0.220936
-0.209641
-0.201279
-0.192445
-0.186057
-0.179039
-0.174121
-0.168486
-0.164688
-0.16013
-0.157202
-0.153497
-0.151254
-0.148235
-0.146534
-0.144069
-0.142799
-0.140781
-0.13985
-0.138195
-0.137525
-0.136158
-0.135682
-0.134538
-0.134194
-0.133213
-0.132945
-0.13207
-0.13182
-0.130998
-0.130708
-0.129882
-0.129495
-0.128607
-0.128056
-0.127043
-0.126255
-0.125044
-0.123937
-0.122435
-0.218294
-0.207133
-0.198872
-0.190143
-0.183831
-0.176898
-0.172039
-0.166472
-0.16272
-0.158216
-0.155325
-0.151665
-0.14945
-0.146467
-0.144788
-0.142352
-0.141099
-0.139106
-0.138188
-0.136553
-0.135893
-0.134542
-0.134073
-0.132943
-0.132605
-0.131636
-0.131372
-0.130509
-0.130262
-0.12945
-0.129164
-0.128348
-0.127965
-0.127087
-0.126541
-0.125539
-0.124759
-0.123561
-0.122463
-0.12098
-0.215295
-0.204288
-0.196141
-0.187533
-0.181309
-0.174471
-0.169679
-0.164188
-0.160488
-0.156046
-0.153194
-0.149584
-0.147399
-0.144457
-0.142801
-0.140398
-0.139161
-0.137196
-0.13629
-0.134677
-0.134025
-0.132693
-0.13223
-0.131116
-0.130782
-0.129826
-0.129564
-0.128713
-0.128469
-0.127667
-0.127385
-0.12658
-0.126201
-0.125334
-0.124795
-0.123805
-0.123035
-0.121851
-0.120769
-0.119305
-0.212185
-0.201338
-0.193308
-0.184824
-0.17869
-0.171951
-0.167229
-0.161818
-0.158171
-0.153795
-0.150984
-0.147427
-0.145275
-0.142376
-0.140744
-0.138377
-0.137159
-0.135223
-0.134331
-0.132743
-0.132101
-0.130789
-0.130334
-0.129236
-0.128908
-0.127966
-0.127709
-0.12687
-0.12663
-0.12584
-0.125561
-0.124766
-0.124392
-0.123536
-0.123004
-0.122026
-0.121265
-0.120097
-0.119029
-0.117591
-0.208731
-0.198061
-0.190163
-0.181818
-0.175784
-0.169156
-0.16451
-0.159187
-0.1556
-0.151295
-0.148529
-0.145031
-0.142912
-0.14006
-0.138455
-0.136126
-0.134927
-0.133023
-0.132144
-0.130581
-0.12995
-0.128659
-0.12821
-0.12713
-0.126806
-0.125879
-0.125626
-0.124799
-0.124562
-0.123784
-0.123509
-0.122726
-0.122356
-0.121513
-0.120987
-0.120024
-0.119274
-0.118125
-0.117076
-0.115665
-0.205168
-0.19468
-0.186917
-0.178714
-0.172783
-0.166268
-0.161702
-0.156471
-0.152945
-0.148714
-0.145997
-0.142558
-0.140477
-0.137674
-0.136097
-0.133809
-0.132632
-0.13076
-0.129898
-0.128362
-0.127743
-0.126474
-0.126034
-0.124973
-0.124655
-0.123745
-0.123496
-0.122684
-0.122451
-0.121685
-0.121414
-0.120643
-0.120279
-0.119448
-0.11893
-0.117981
-0.117243
-0.116114
-0.115082
-0.113703
-0.201274
-0.190986
-0.183371
-0.175325
-0.169507
-0.163116
-0.158636
-0.153505
-0.150046
-0.145895
-0.143229
-0.139855
-0.137813
-0.135063
-0.133515
-0.13127
-0.130115
-0.128278
-0.127432
-0.125925
-0.125316
-0.124072
-0.123639
-0.122597
-0.122285
-0.121391
-0.121146
-0.120349
-0.120118
-0.119367
-0.119099
-0.118342
-0.117983
-0.117167
-0.116656
-0.115725
-0.115
-0.113894
-0.112884
-0.111538
-0.197272
-0.187188
-0.179725
-0.171839
-0.166137
-0.159873
-0.155483
-0.150453
-0.147064
-0.142996
-0.140384
-0.137078
-0.135077
-0.132383
-0.130867
-0.128667
-0.127535
-0.125736
-0.124907
-0.123431
-0.122835
-0.121616
-0.121193
-0.120173
-0.119867
-0.118992
-0.118752
-0.11797
-0.117745
-0.117008
-0.116745
-0.116002
-0.115649
-0.114848
-0.114347
-0.113434
-0.112722
-0.111639
-0.110651
-0.109339
-0.192954
-0.183093
-0.175793
-0.168081
-0.162504
-0.156377
-0.152083
-0.147164
-0.143848
-0.139869
-0.137314
-0.13408
-0.132123
-0.129487
-0.128004
-0.125852
-0.124744
-0.122984
-0.122172
-0.120728
-0.120145
-0.118952
-0.118537
-0.117539
-0.117239
-0.116382
-0.116146
-0.115381
-0.115159
-0.114438
-0.11418
-0.113453
-0.113106
-0.112322
-0.111831
-0.110938
-0.110243
-0.109185
-0.108222
-0.106945
-0.188531
-0.178895
-0.171763
-0.164227
-0.158778
-0.152792
-0.148597
-0.143791
-0.140552
-0.136665
-0.134169
-0.13101
-0.129098
-0.126523
-0.125075
-0.122973
-0.121892
-0.120173
-0.11938
-0.11797
-0.117401
-0.116236
-0.115832
-0.114857
-0.114565
-0.113728
-0.113499
-0.112751
-0.112535
-0.11183
-0.111578
-0.110868
-0.110528
-0.109763
-0.109283
-0.108411
-0.107732
-0.1067
-0.105761
-0.104518
-0.183809
-0.174416
-0.167463
-0.160116
-0.154804
-0.148969
-0.144878
-0.140193
-0.137035
-0.133245
-0.13081
-0.12773
-0.125866
-0.123356
-0.121943
-0.119893
-0.118838
-0.117162
-0.116389
-0.115014
-0.114458
-0.113322
-0.112927
-0.111976
-0.111691
-0.110875
-0.110649
-0.109921
-0.109709
-0.109022
-0.108775
-0.108083
-0.107751
-0.107005
-0.106537
-0.105688
-0.105027
-0.104024
-0.103111
-0.101904
-0.178982
-0.169836
-0.163065
-0.155912
-0.150739
-0.145057
-0.141075
-0.136513
-0.133438
-0.129748
-0.127378
-0.12438
-0.122565
-0.120121
-0.118746
-0.116751
-0.115725
-0.114093
-0.113341
-0.112003
-0.111463
-0.110358
-0.109974
-0.109049
-0.108772
-0.107978
-0.10776
-0.107051
-0.106846
-0.106177
-0.105938
-0.105264
-0.104942
-0.104217
-0.103762
-0.102936
-0.102294
-0.101319
-0.100432
-0.0992586
-0.173876
-0.164992
-0.158415
-0.151466
-0.146441
-0.140922
-0.137053
-0.132621
-0.129634
-0.126049
-0.123746
-0.120833
-0.119069
-0.116695
-0.115359
-0.11342
-0.112422
-0.110837
-0.110106
-0.108806
-0.10828
-0.107206
-0.106833
-0.105934
-0.105664
-0.104893
-0.10468
-0.103992
-0.103791
-0.103143
-0.102909
-0.102256
-0.101942
-0.101239
-0.100797
-0.0999981
-0.099375
-0.0984311
-0.097571
-0.0964333
-0.168667
-0.160049
-0.153669
-0.146929
-0.142055
-0.136701
-0.132948
-0.128649
-0.125752
-0.122275
-0.120042
-0.117216
-0.115506
-0.113203
-0.111908
-0.110028
-0.109061
-0.107524
-0.106816
-0.105555
-0.105047
-0.104005
-0.103645
-0.102773
-0.102513
-0.101766
-0.101561
-0.100894
-0.100702
-0.100073
-0.0998488
-0.0992154
-0.0989139
-0.0982326
-0.0978063
-0.0970316
-0.0964297
-0.0955145
-0.0946819
-0.0935768
-0.163199
-0.154861
-0.148689
-0.142167
-0.137451
-0.132271
-0.12864
-0.124481
-0.121677
-0.118313
-0.116152
-0.113417
-0.111762
-0.109534
-0.10828
-0.106461
-0.105524
-0.104037
-0.103351
-0.102131
-0.101638
-0.10063
-0.10028
-0.0994376
-0.0991849
-0.0984621
-0.0982634
-0.0976189
-0.0974319
-0.0968247
-0.0966069
-0.0959958
-0.0957033
-0.0950463
-0.0946332
-0.0938865
-0.0933038
-0.0924212
-0.0916157
-0.0905478
-0.15763
-0.149576
-0.143615
-0.137316
-0.132761
-0.127758
-0.124251
-0.120234
-0.117526
-0.114277
-0.11219
-0.10955
-0.107952
-0.1058
-0.104589
-0.102833
-0.10193
-0.100493
-0.0998318
-0.098654
-0.0981792
-0.097207
-0.0968705
-0.0960572
-0.095815
-0.0951177
-0.0949281
-0.0943064
-0.0941285
-0.0935427
-0.0933355
-0.0927458
-0.0924668
-0.0918324
-0.0914367
-0.0907151
-0.0901549
-0.0893011
-0.0885242
-0.0874884
-0.151823
-0.144067
-0.138326
-0.132259
-0.127873
-0.123054
-0.119676
-0.115807
-0.113199
-0.110069
-0.108059
-0.105516
-0.103976
-0.101903
-0.100736
-0.0990441
-0.0981731
-0.0967896
-0.0961516
-0.0950172
-0.094559
-0.0936228
-0.0932978
-0.0925149
-0.0922808
-0.09161
-0.0914265
-0.0908289
-0.0906567
-0.0900941
-0.0898936
-0.0893276
-0.0890575
-0.0884488
-0.0880659
-0.0873734
-0.0868313
-0.086011
-0.0852601
-0.0842642
-0.145918
-0.138463
-0.132945
-0.127115
-0.122899
-0.118268
-0.115022
-0.111303
-0.108797
-0.10579
-0.103858
-0.101414
-0.0999346
-0.0979429
-0.0968221
-0.0951964
-0.0943601
-0.093031
-0.0924188
-0.091329
-0.0908899
-0.0899908
-0.0896801
-0.0889285
-0.0887055
-0.0880618
-0.0878881
-0.0873148
-0.0871526
-0.0866128
-0.0864241
-0.0858806
-0.0856255
-0.0850401
-0.0846764
-0.0840088
-0.0834911
-0.0826983
-0.0819774
-0.0810118
-0.139797
-0.132656
-0.12737
-0.121785
-0.117746
-0.113309
-0.110199
-0.106637
-0.104235
-0.101354
-0.0995027
-0.097161
-0.0957431
-0.0938347
-0.0927603
-0.0912025
-0.0904005
-0.0891269
-0.0885396
-0.0874956
-0.0870741
-0.0862128
-0.0859144
-0.0851948
-0.0849804
-0.0843646
-0.0841974
-0.0836496
-0.0834934
-0.0829782
-0.0827962
-0.0822778
-0.0820315
-0.0814729
-0.0811213
-0.0804834
-0.0799822
-0.0792238
-0.0785261
-0.0776043
-0.133581
-0.126757
-0.121706
-0.116369
-0.11251
-0.108271
-0.1053
-0.101896
-0.0996016
-0.0968484
-0.0950801
-0.0928428
-0.0914884
-0.0896653
-0.0886391
-0.087151
-0.0863853
-0.0851689
-0.0846085
-0.0836114
-0.0832098
-0.0823875
-0.0821038
-0.0814171
-0.0812143
-0.080627
-0.0804701
-0.0799479
-0.0798024
-0.0793113
-0.0791422
-0.0786477
-0.0784181
-0.0778839
-0.0775541
-0.0769414
-0.0764681
-0.0757356
-0.0750714
-0.0741746
-0.127173
-0.120678
-0.115869
-0.110789
-0.107115
-0.103079
-0.10025
-0.0970097
-0.0948251
-0.0922039
-0.0905199
-0.0883898
-0.0870998
-0.0853639
-0.0843863
-0.0829693
-0.0822396
-0.0810813
-0.080547
-0.0795977
-0.0792145
-0.0784319
-0.078161
-0.0775078
-0.077314
-0.0767559
-0.0766058
-0.0761103
-0.075971
-0.0755058
-0.0753437
-0.0748756
-0.074655
-0.0741491
-0.0738311
-0.0732497
-0.0727913
-0.0720948
-0.0714502
-0.070602
-0.120671
-0.114508
-0.109946
-0.105125
-0.101639
-0.0978104
-0.0951262
-0.0920516
-0.0899789
-0.087492
-0.0858944
-0.0838734
-0.0826497
-0.0810028
-0.0800756
-0.0787313
-0.0780394
-0.0769406
-0.0764343
-0.075534
-0.0751712
-0.0744292
-0.0741734
-0.0735544
-0.0733723
-0.0728439
-0.0727041
-0.0722355
-0.0721072
-0.0716676
-0.0715193
-0.0710769
-0.070875
-0.0703955
-0.0701032
-0.0695489
-0.0691249
-0.0684547
-0.0678521
-0.0670205
-0.114004
-0.108182
-0.103872
-0.0993181
-0.0960249
-0.0924076
-0.0898716
-0.0869668
-0.0850084
-0.0826588
-0.081149
-0.0792395
-0.0780829
-0.0765267
-0.0756501
-0.0743798
-0.0737255
-0.0726872
-0.072208
-0.0713573
-0.0710138
-0.0703129
-0.0700704
-0.0694861
-0.0693133
-0.0688151
-0.0686825
-0.0682415
-0.0681197
-0.067707
-0.0675662
-0.0671517
-0.0669595
-0.0665104
-0.0662305
-0.0657102
-0.0653006
-0.0646698
-0.0640824
-0.0633081
-0.107245
-0.101769
-0.0977145
-0.093431
-0.0903332
-0.0869305
-0.084545
-0.0818126
-0.0799706
-0.0777604
-0.0763404
-0.0745442
-0.0734564
-0.0719926
-0.0711682
-0.0699734
-0.0693581
-0.0683816
-0.0679311
-0.0671312
-0.0668085
-0.0661496
-0.0659222
-0.0653733
-0.065212
-0.0647445
-0.0646218
-0.0642087
-0.0640977
-0.0637118
-0.063585
-0.063198
-0.0630259
-0.0626062
-0.0623559
-0.0618672
-0.0615
-0.0609004
-0.0603691
-0.059604
-0.100347
-0.095223
-0.0914296
-0.0874221
-0.0845236
-0.0813399
-0.0791078
-0.0765512
-0.0748274
-0.0727593
-0.0714302
-0.0697494
-0.0687311
-0.0673612
-0.0665893
-0.065471
-0.0648946
-0.0639806
-0.0635584
-0.0628097
-0.0625069
-0.0618903
-0.0616768
-0.0611634
-0.0610118
-0.0605752
-0.0604598
-0.0600748
-0.0599707
-0.0596124
-0.0594937
-0.0591358
-0.0589747
-0.0585877
-0.0583518
-0.0579005
-0.0575495
-0.0569936
-0.0564755
-0.0557811
-0.0933603
-0.0885936
-0.0850647
-0.0813363
-0.0786399
-0.0756781
-0.0736016
-0.0712231
-0.0696195
-0.0676955
-0.0664591
-0.0648954
-0.0639481
-0.0626736
-0.0619555
-0.0609151
-0.0603789
-0.0595286
-0.0591357
-0.0584392
-0.0581575
-0.0575841
-0.0573856
-0.0569084
-0.0567678
-0.0563625
-0.0562563
-0.0558997
-0.055805
-0.0554744
-0.0553683
-0.0550396
-0.0548975
-0.0545435
-0.0543375
-0.0539247
-0.0536198
-0.0531056
-0.0526533
-0.0519723
-0.08626
-0.0818564
-0.078596
-0.0751516
-0.0726602
-0.0699239
-0.0680052
-0.0658077
-0.0643257
-0.062548
-0.0614053
-0.0599604
-0.0590847
-0.0579069
-0.0572429
-0.0562813
-0.0557852
-0.0549992
-0.0546356
-0.0539916
-0.0537306
-0.0532005
-0.0530163
-0.0525753
-0.0524446
-0.0520705
-0.0519717
-0.0516434
-0.0515558
-0.0512528
-0.0511554
-0.0508562
-0.0507267
-0.0504068
-0.0502191
-0.0498475
-0.0495659
-0.0491004
-0.048669
-0.0480545
-0.0790755
-0.0750391
-0.0720507
-0.0688933
-0.0666097
-0.0641015
-0.0623427
-0.0603284
-0.05897
-0.0573405
-0.056293
-0.0549685
-0.0541656
-0.053086
-0.0524771
-0.0515956
-0.0511405
-0.0504199
-0.0500862
-0.0494958
-0.049256
-0.04877
-0.0486005
-0.0481964
-0.048076
-0.0477335
-0.0476426
-0.0473429
-0.0472627
-0.0469874
-0.0468995
-0.0466299
-0.046515
-0.0462302
-0.046067
-0.0457408
-0.0455012
-0.0450974
-0.0447376
-0.0441892
-0.0718041
-0.0681394
-0.0654259
-0.0625593
-0.0604857
-0.0582083
-0.0566112
-0.0547822
-0.0535485
-0.0520688
-0.0511174
-0.0499145
-0.0491852
-0.0482046
-0.0476512
-0.0468505
-0.0464367
-0.0457819
-0.0454782
-0.0449417
-0.0447232
-0.0442814
-0.0441266
-0.0437592
-0.0436491
-0.0433379
-0.0432546
-0.0429828
-0.0429097
-0.0426613
-0.0425822
-0.0423412
-0.0422399
-0.041989
-0.0418484
-0.0415666
-0.041366
-0.041023
-0.0407304
-0.0402547
-0.0644522
-0.0611633
-0.0587281
-0.0561553
-0.0542943
-0.0522503
-0.0508169
-0.0491753
-0.048068
-0.0467399
-0.0458858
-0.0448061
-0.0441513
-0.043271
-0.042774
-0.0420551
-0.0416832
-0.0410953
-0.040822
-0.0403401
-0.040143
-0.0397461
-0.0396059
-0.039276
-0.0391754
-0.0388961
-0.0388193
-0.0385759
-0.0385079
-0.0382866
-0.0382129
-0.0380002
-0.0379065
-0.0376885
-0.0375591
-0.0373186
-0.0371332
-0.0368456
-0.0365713
-0.0361957
-0.057041
-0.0541307
-0.0519757
-0.0496991
-0.0480522
-0.0462434
-0.0449749
-0.0435221
-0.0425421
-0.0413666
-0.0406106
-0.039655
-0.0390752
-0.038296
-0.0378558
-0.0372192
-0.0368897
-0.0363689
-0.0361264
-0.0356994
-0.0355242
-0.0351724
-0.0350474
-0.0347547
-0.0346647
-0.0344169
-0.034348
-0.0341323
-0.0340714
-0.033876
-0.033811
-0.033625
-0.0335444
-0.0333572
-0.0332501
-0.0330495
-0.0329051
-0.0326728
-0.0324766
-0.0321655
-0.0495532
-0.0470257
-0.0451541
-0.0431768
-0.0417464
-0.0401754
-0.0390735
-0.0378116
-0.0369602
-0.0359392
-0.0352823
-0.0344521
-0.0339482
-0.0332712
-0.0328883
-0.0323351
-0.0320481
-0.0315954
-0.0313837
-0.0310124
-0.0308588
-0.0305528
-0.0304423
-0.0301876
-0.0301069
-0.0298912
-0.029828
-0.0296406
-0.0295833
-0.0294145
-0.0293522
-0.0291936
-0.0291161
-0.0289603
-0.0288576
-0.028698
-0.0285609
-0.0283907
-0.0282143
-0.0280395
-0.0420339
-0.0398904
-0.038303
-0.0366262
-0.035413
-0.0340806
-0.033146
-0.0320758
-0.0313536
-0.0304875
-0.0299302
-0.029226
-0.0287983
-0.0282239
-0.0278989
-0.0274294
-0.0271856
-0.0268012
-0.0266211
-0.0263056
-0.0261747
-0.0259143
-0.0258198
-0.0256029
-0.0255334
-0.0253496
-0.0252948
-0.0251351
-0.0250855
-0.0249421
-0.024889
-0.0247557
-0.0246915
-0.0245642
-0.0244833
-0.0243601
-0.024262
-0.0241432
-0.0240382
-0.0239289
-0.0344421
-0.0326868
-0.0313868
-0.0300135
-0.0290198
-0.0279285
-0.0271628
-0.0262861
-0.0256944
-0.0249849
-0.024528
-0.023951
-0.0236002
-0.0231295
-0.0228625
-0.0224776
-0.0222769
-0.0219617
-0.0218129
-0.0215539
-0.0214449
-0.021231
-0.0211513
-0.020973
-0.020913
-0.0207619
-0.0207129
-0.020582
-0.0205359
-0.0204194
-0.0203689
-0.0202631
-0.020202
-0.0201062
-0.020031
-0.0199492
-0.0198636
-0.0198074
-0.0197344
-0.0197416
-0.0268469
-0.0254794
-0.0244664
-0.0233965
-0.0226222
-0.0217719
-0.0211753
-0.0204922
-0.020031
-0.0194781
-0.019122
-0.0186723
-0.0183988
-0.0180317
-0.0178235
-0.0175232
-0.0173665
-0.0171204
-0.0170039
-0.0168015
-0.0167159
-0.0165485
-0.0164855
-0.0163456
-0.0162978
-0.0161791
-0.0161397
-0.0160369
-0.0159998
-0.0159089
-0.0158689
-0.0157884
-0.0157419
-0.0156737
-0.0156209
-0.015573
-0.0155234
-0.0155133
-0.0154983
-0.0155657
-0.0191838
-0.0182081
-0.0174853
-0.0167217
-0.016169
-0.0155621
-0.015136
-0.0146483
-0.0143187
-0.0139239
-0.0136692
-0.0133479
-0.0131519
-0.0128896
-0.01274
-0.0125252
-0.0124121
-0.0122358
-0.0121511
-0.0120059
-0.0119427
-0.0118225
-0.0117747
-0.0116742
-0.0116365
-0.0115514
-0.0115186
-0.0114454
-0.0114132
-0.01135
-0.0113147
-0.0112622
-0.0112221
-0.0111851
-0.0111427
-0.0111335
-0.0111026
-0.0111447
-0.0111645
-0.0113083
-0.0115452
-0.0109594
-0.0105252
-0.0100667
-0.00973466
-0.00937015
-0.00911409
-0.0088211
-0.00862296
-0.00838565
-0.00823241
-0.0080392
-0.00792115
-0.00776324
-0.0076729
-0.00754344
-0.00747482
-0.00736834
-0.00731651
-0.00722856
-0.00718937
-0.00711626
-0.00708603
-0.00702471
-0.00700014
-0.00694818
-0.00692629
-0.00688208
-0.00686038
-0.00682372
-0.00680071
-0.00677392
-0.00675015
-0.00674008
-0.00672063
-0.00674178
-0.00674296
-0.00682099
-0.00688341
-0.00706733
-0.0038435
-0.00365159
-0.00350902
-0.00335849
-0.0032491
-0.00312919
-0.00304452
-0.00294793
-0.00288205
-0.00280362
-0.00275225
-0.00268817
-0.00264808
-0.00259546
-0.00256409
-0.00252065
-0.00249594
-0.00245987
-0.00244006
-0.00240994
-0.00239352
-0.00236824
-0.00235386
-0.00233261
-0.00231902
-0.00230143
-0.00228755
-0.00227391
-0.00225908
-0.00225102
-0.00223554
-0.00223718
-0.0022235
-0.00224344
-0.00223869
-0.00229295
-0.0023153
-0.00243033
-0.00252129
-0.0027447
0.0038057
0.00360735
0.00346093
0.00330602
0.00319444
0.00307162
0.00298598
0.00288758
0.00282176
0.00274238
0.00269202
0.00262776
0.00258967
0.00253759
0.00250938
0.00246725
0.00244709
0.0024131
0.00239952
0.00237211
0.0023639
0.00234166
0.00233777
0.00231929
0.00231876
0.00230248
0.00230429
0.00228813
0.00229096
0.0022717
0.00227325
0.00224545
0.00224145
0.0021956
0.00217759
0.00209763
0.00204756
0.00190846
0.00178884
0.00154884
0.011513
0.0109204
0.0104821
0.010019
0.00968456
0.00931695
0.0090598
0.00876484
0.00856667
0.00832829
0.00817599
0.00798247
0.00786636
0.00770887
0.00762159
0.0074933
0.0074291
0.0073245
0.0072787
0.0071932
0.00716187
0.00709145
0.00707116
0.00701213
0.00699975
0.0069485
0.006941
0.00689358
0.00688768
0.00683923
0.00683078
0.00677456
0.00675757
0.00668354
0.00664835
0.00654119
0.00647027
0.00630783
0.00616814
0.0059158
0.0191402
0.0181585
0.0174321
0.0166645
0.0161097
0.0155001
0.0150731
0.0145837
0.0142541
0.0138584
0.0136045
0.013283
0.0130888
0.0128268
0.0126799
0.0124662
0.012357
0.0121824
0.012103
0.0119599
0.0119036
0.0117855
0.0117465
0.0116474
0.0116203
0.0115347
0.0115144
0.0114367
0.0114178
0.0113416
0.0113183
0.0112359
0.0112007
0.011102
0.0110448
0.010916
0.0108212
0.010644
0.0104856
0.0102337
0.0268201
0.0254455
0.0244283
0.0233535
0.0225766
0.021723
0.0211251
0.0204399
0.0199784
0.0194242
0.0190688
0.0186185
0.0183465
0.0179795
0.0177737
0.0174741
0.017321
0.0170759
0.0169643
0.0167632
0.0166836
0.0165173
0.0164615
0.0163218
0.0162823
0.0161616
0.0161311
0.0160218
0.0159931
0.0158876
0.0158528
0.0157424
0.0156927
0.0155675
0.0154922
0.0153403
0.0152256
0.0150332
0.0148603
0.0146107
0.0343925
0.0326318
0.0313286
0.0299515
0.0289559
0.0278621
0.0270955
0.0262172
0.0256253
0.0249148
0.0244585
0.023881
0.0235314
0.0230605
0.0227955
0.022411
0.022213
0.0218983
0.0217532
0.0214948
0.0213903
0.0211764
0.0211018
0.0209222
0.0208678
0.0207128
0.0206693
0.0205297
0.0204879
0.0203547
0.0203051
0.0201688
0.0201015
0.0199525
0.0198565
0.019685
0.0195491
0.0193458
0.0191591
0.0189163
0.0420121
0.0398614
0.0382697
0.0365878
0.0353719
0.034036
0.0330999
0.0320272
0.0313045
0.0304368
0.0298798
0.0291744
0.0287477
0.0281727
0.0278493
0.0273795
0.0271379
0.0267533
0.0265762
0.0262602
0.0261325
0.0258709
0.0257796
0.0255596
0.0254927
0.0253028
0.0252489
0.0250783
0.0250263
0.0248643
0.024803
0.0246395
0.0245574
0.0243829
0.0242688
0.0240757
0.0239202
0.0237033
0.0235023
0.0232631
0.0494975
0.0469652
0.0450908
0.0431102
0.0416781
0.0401047
0.0390019
0.0377384
0.0368866
0.0358644
0.0352076
0.0343766
0.0338731
0.0331954
0.0328133
0.0322595
0.0319737
0.0315203
0.0313099
0.0309373
0.030785
0.0304763
0.0303665
0.0301071
0.0300257
0.029802
0.0297357
0.0295352
0.029471
0.0292819
0.0292069
0.0290181
0.0289197
0.0287219
0.0285888
0.0283757
0.0282005
0.0279705
0.0277554
0.0275173
0.0570241
0.0541066
0.051947
0.0496653
0.0480155
0.0462031
0.0449328
0.0434773
0.0424964
0.0413189
0.0405626
0.0396053
0.0390258
0.0382451
0.0378055
0.0371675
0.0368387
0.0363163
0.0360745
0.0356451
0.03547
0.0351143
0.0349881
0.0346891
0.0345956
0.0343379
0.0342617
0.034031
0.0339573
0.0337404
0.0336545
0.0334394
0.0333273
0.0331045
0.0329541
0.0327184
0.0325233
0.0322756
0.0320425
0.031798
0.0643904
0.0610975
0.0586598
0.0560842
0.0542216
0.0521755
0.0507411
0.0490979
0.04799
0.0466605
0.045806
0.044725
0.0440698
0.0431882
0.0426908
0.0419703
0.0415979
0.0410078
0.0407334
0.0402484
0.0400492
0.0396475
0.0395035
0.039166
0.0390588
0.0387682
0.0386807
0.0384212
0.0383367
0.0380936
0.0379959
0.0377563
0.0376302
0.0373839
0.0372165
0.0369585
0.0367438
0.0364764
0.0362242
0.0359652
0.0717918
0.0681199
0.0654019
0.0625301
0.0604535
0.0581722
0.0565732
0.0547412
0.0535062
0.052024
0.0510718
0.0498668
0.0491368
0.0481541
0.0476001
0.046797
0.0463824
0.0457247
0.0454195
0.0448788
0.0446576
0.0442099
0.0440502
0.0436742
0.0435557
0.0432323
0.0431359
0.0428474
0.0427547
0.0424852
0.0423782
0.0421133
0.0419753
0.041704
0.0415207
0.0412375
0.0410021
0.0407091
0.0404322
0.0401486
0.0790075
0.074968
0.0719776
0.068818
0.066533
0.0640229
0.0622631
0.0602472
0.0588879
0.0572568
0.0562084
0.0548821
0.0540782
0.0529965
0.0523861
0.0515021
0.0510449
0.050321
0.0499842
0.0493892
0.0491447
0.0486522
0.0484756
0.0480623
0.0479312
0.0475762
0.0474698
0.0471539
0.0470522
0.0467578
0.0466414
0.0463528
0.0462033
0.0459082
0.0457099
0.045401
0.0451457
0.0448235
0.0445201
0.0442009
0.086252
0.0818415
0.0785765
0.075127
0.0726325
0.0698922
0.0679713
0.0657706
0.064287
0.0625065
0.0613625
0.0599149
0.0590378
0.0578573
0.0571916
0.0562269
0.0557287
0.0549387
0.0545719
0.0539228
0.0536571
0.0531199
0.0529285
0.052478
0.0523366
0.05195
0.051836
0.0514926
0.0513842
0.0510647
0.0509408
0.050628
0.0504686
0.0501482
0.0499355
0.0495981
0.0493212
0.0489638
0.0486279
0.0482625
0.0932863
0.0885175
0.0849871
0.081257
0.0785594
0.0755961
0.0735185
0.0711385
0.0695337
0.0676081
0.0663703
0.0648046
0.0638554
0.0625785
0.0618579
0.0608144
0.0602748
0.0594205
0.0590231
0.0583212
0.0580332
0.0574527
0.0572452
0.0567589
0.056606
0.0561892
0.0560666
0.055697
0.0555814
0.0552383
0.0551072
0.0547715
0.054603
0.0542582
0.0540324
0.0536659
0.0533685
0.0529724
0.0526028
0.0521807
0.100343
0.0952125
0.0914147
0.0874021
0.0845004
0.0813128
0.0790783
0.0765184
0.0747926
0.0727214
0.0713906
0.0697067
0.0686865
0.0673133
0.066539
0.0654171
0.0648377
0.0639192
0.0634929
0.0627386
0.0624302
0.0618065
0.0615851
0.061063
0.0609007
0.0604538
0.0603246
0.0599288
0.0598079
0.0594408
0.0593039
0.0589446
0.0587679
0.0583974
0.0581583
0.0577602
0.0574402
0.0570008
0.0565915
0.0561045
0.107166
0.101688
0.0976327
0.0933481
0.0902494
0.0868455
0.084459
0.0817253
0.0798819
0.0776701
0.0762483
0.07445
0.0733598
0.0718933
0.0710657
0.0698675
0.0692481
0.0682673
0.0678115
0.0670062
0.0666765
0.0660111
0.0657746
0.065218
0.0650452
0.0645693
0.0644326
0.0640119
0.063885
0.0634953
0.0633525
0.0629709
0.0627867
0.0623913
0.0621405
0.0617107
0.0613701
0.060885
0.0604372
0.0598776
0.114004
0.108176
0.103861
0.0993028
0.0960063
0.0923851
0.0898466
0.0869385
0.0849779
0.0826251
0.0811132
0.0792004
0.0780415
0.0764818
0.0756024
0.0743282
0.0736704
0.0726276
0.0721441
0.0712881
0.0709389
0.0702319
0.0699823
0.0693913
0.0692098
0.068705
0.0685625
0.0681165
0.0679851
0.0675722
0.0674243
0.0670194
0.0668276
0.0664061
0.0661424
0.065679
0.065315
0.0647819
0.0642902
0.063656
0.120586
0.114423
0.10986
0.105039
0.101553
0.0977231
0.0950379
0.0919622
0.0898881
0.0873996
0.0858
0.0837769
0.0825505
0.0809008
0.0799701
0.0786224
0.0779261
0.0768234
0.0763115
0.0754065
0.075037
0.0742899
0.074026
0.0734017
0.0732104
0.0726778
0.0725283
0.0720583
0.0719214
0.0714863
0.071333
0.0709058
0.0707068
0.07026
0.0699847
0.0694885
0.0691041
0.068523
0.0679923
0.0672794
0.127177
0.120676
0.115863
0.110778
0.107101
0.103062
0.10023
0.0969863
0.0947994
0.092175
0.0904887
0.0883552
0.0870627
0.0853232
0.0843427
0.0829218
0.0821887
0.0810262
0.0804878
0.0795341
0.0791461
0.0783589
0.0780825
0.0774252
0.0772257
0.076665
0.0765101
0.0760154
0.0758739
0.0754159
0.0752572
0.0748066
0.0745994
0.0741259
0.0738367
0.0733064
0.0728973
0.0722685
0.0716931
0.0709084
0.13349
0.126668
0.121617
0.116281
0.112421
0.108182
0.10521
0.101805
0.0995095
0.096755
0.0949846
0.0927453
0.0913882
0.0895624
0.0885327
0.0870415
0.0862714
0.0850515
0.084486
0.0834853
0.0830778
0.0822522
0.0819622
0.081273
0.0810639
0.0804764
0.0803145
0.0797962
0.079649
0.0791689
0.079004
0.0785307
0.078315
0.0778156
0.0775135
0.0769504
0.0765204
0.0758465
0.0752353
0.074379
0.139805
0.132659
0.127368
0.121779
0.117737
0.113297
0.110184
0.106619
0.104215
0.10133
0.0994768
0.0971319
0.0957113
0.0937996
0.0927222
0.091161
0.0903557
0.0890787
0.0884878
0.0874405
0.0870153
0.0861513
0.0858493
0.0851283
0.0849113
0.0842965
0.084129
0.0835865
0.0834342
0.0829309
0.0827596
0.0822623
0.0820367
0.0815098
0.0811915
0.0805943
0.0801382
0.0794196
0.0787658
0.0778505
0.145823
0.13837
0.132853
0.127024
0.122808
0.118178
0.114931
0.111212
0.108705
0.105696
0.103763
0.101317
0.0998347
0.0978408
0.0967165
0.0950882
0.0942479
0.0929161
0.0922994
0.0912073
0.0907635
0.0898627
0.0895476
0.0887959
0.0885696
0.0879288
0.0877541
0.0871884
0.0870295
0.0865041
0.086325
0.0858045
0.085568
0.0850146
0.0846802
0.0840507
0.0835709
0.0828123
0.0821254
0.081159
0.151834
0.144073
0.138328
0.132258
0.127869
0.123047
0.119667
0.115794
0.113184
0.110051
0.108039
0.105493
0.10395
0.101874
0.100705
0.0990099
0.0981361
0.0967499
0.0961092
0.0949726
0.0945119
0.0935746
0.093248
0.0924657
0.0922315
0.0915644
0.0913838
0.0907943
0.0906296
0.090081
0.0898943
0.0893493
0.0891011
0.0885196
0.0881669
0.0875036
0.0869964
0.0861968
0.0854717
0.0844609
0.157531
0.14948
0.14352
0.137223
0.132669
0.127667
0.12416
0.120143
0.117434
0.114185
0.112096
0.109454
0.107854
0.1057
0.104486
0.102728
0.101821
0.100383
0.0997175
0.0985385
0.0980602
0.0970879
0.0967486
0.0959372
0.0956937
0.0950016
0.0948135
0.0942013
0.0940293
0.0934588
0.093263
0.0926948
0.0924336
0.0918257
0.0914537
0.0907588
0.0902235
0.089387
0.0886238
0.0875789
0.163213
0.154871
0.148696
0.142171
0.137453
0.13227
0.128636
0.124474
0.121668
0.118301
0.116138
0.113401
0.111744
0.109513
0.108256