/*--------------------------------*- C++ -*----------------------------------*\
| =========                 |                                                 |
| \\      /  F ield         | foam-extend: Open Source CFD                    |
|  \\    /   O peration     | Version:  3.0                                   |
|   \\  /    A nd           | Web:         http://www.extend-project.de       |
|    \\/     M anipulation  |                                                 |
\*---------------------------------------------------------------------------*/
FoamFile
{
    version     2.0;
    format      ascii;
    class       volScalarField;
    location    "3.9";
    object      p;
}
// * * * * * * * * * * * * * * * * * * * * * * * * * * * * * * * * * * * * * //

dimensions      [0 0 0 0 0 0 0];

internalField   nonuniform List<scalar> 
400
(
1.08521
0.95761
0.944827
0.893028
0.923739
0.902588
0.952396
0.944913
1.00354
1.00137
1.06296
1.06054
1.11977
1.11112
1.16063
1.13673
1.16448
1.10926
1.09179
0.965614
1.20677
1.09944
1.07893
1.02142
1.037
1.00108
1.0309
1.00318
1.03802
1.01232
1.04788
1.02104
1.05431
1.02339
1.04997
1.00964
1.02041
0.959396
0.934262
0.830031
1.1394
1.04217
1.02824
0.978358
1.00166
0.973094
1.01169
0.99154
1.03628
1.01857
1.06565
1.04714
1.09371
1.07104
1.11176
1.07876
1.10179
1.04664
1.02862
0.932814
1.13077
1.03353
1.02183
0.974445
0.99737
0.969909
1.00441
0.983578
1.02147
1.00225
1.04144
1.02193
1.06159
1.03954
1.07623
1.04555
1.0681
1.0147
0.997009
0.897377
1.07401
0.964832
0.964157
0.922183
0.95801
0.939601
0.986573
0.97544
1.02666
1.01744
1.07245
1.06334
1.12254
1.11104
1.17123
1.14954
1.19706
1.14488
1.14352
1.01788
1.04101
0.921233
0.92653
0.888836
0.927387
0.913838
0.958309
0.950652
0.995714
0.989521
1.03683
1.03183
1.08437
1.07938
1.13709
1.12388
1.17535
1.12682
1.13031
0.976938
1.00364
0.873625
0.889828
0.858407
0.906293
0.90074
0.953214
0.953096
1.00735
1.00843
1.06841
1.07111
1.14194
1.14564
1.22909
1.22456
1.30843
1.26053
1.29047
1.09444
0.962513
0.837219
0.857345
0.833395
0.879425
0.878788
0.924598
0.92737
0.971278
0.974703
1.02175
1.02809
1.08527
1.09589
1.16831
1.17485
1.25476
1.21632
1.24833
1.02895
0.93033
0.821813
0.846982
0.833263
0.879088
0.885023
0.930811
0.938172
0.984551
0.991519
1.04518
1.05511
1.12518
1.14091
1.23533
1.24944
1.36221
1.32957
1.39703
1.152
0.8749
0.802259
0.827957
0.826082
0.864622
0.87458
0.909626
0.917832
0.949809
0.956482
0.99141
1.00186
1.04885
1.06865
1.13737
1.16258
1.25223
1.23923
1.29539
1.06739
0.835276
0.810212
0.834653
0.847974
0.878052
0.894109
0.922569
0.93302
0.961495
0.968144
1.00326
1.01282
1.0655
1.0858
1.16954
1.20042
1.32015
1.32223
1.42651
1.21628
0.762845
0.795604
0.823005
0.851623
0.874751
0.894332
0.911771
0.921123
0.933885
0.937237
0.950278
0.956219
0.978425
0.997933
1.04146
1.08088
1.15364
1.18612
1.25515
1.1223
0.71998
0.813711
0.835593
0.88293
0.894561
0.920726
0.928705
0.938776
0.94427
0.944656
0.952612
0.953462
0.974175
0.989167
1.0396
1.08167
1.18131
1.23837
1.37551
1.3112
0.643669
0.794744
0.829387
0.892356
0.902818
0.931836
0.931518
0.93877
0.929882
0.924389
0.910482
0.903768
0.891591
0.89992
0.901479
0.946128
0.977763
1.06999
1.13684
1.209
0.617954
0.821836
0.846603
0.928675
0.92849
0.964015
0.953981
0.9605
0.942585
0.931932
0.909425
0.894367
0.874516
0.873373
0.872878
0.914974
0.967243
1.08873
1.24528
1.43175
0.570607
0.810589
0.858786
0.951613
0.955128
0.990868
0.974854
0.976549
0.946846
0.928662
0.88782
0.862598
0.813406
0.799919
0.751191
0.785679
0.759273
0.906737
0.94932
1.3091
0.592621
0.858528
0.891804
0.999291
0.99339
1.03283
1.00724
1.00608
0.966977
0.942422
0.891652
0.856579
0.795569
0.768576
0.708094
0.731702
0.710661
0.880417
1.01522
1.51983
0.636948
0.895419
0.949225
1.05443
1.04859
1.08184
1.04969
1.04118
0.993329
0.961026
0.898174
0.852807
0.771523
0.728423
0.630633
0.632634
0.540042
0.703325
0.68746
1.34101
0.746543
0.981454
1.01799
1.1253
1.10838
1.13813
1.09584
1.0816
1.02538
0.986779
0.915441
0.861112
0.767576
0.709219
0.592117
0.572241
0.458872
0.616634
0.634821
1.4153
0.98569
1.12777
1.1511
1.23089
1.19965
1.21134
1.16056
1.13568
1.07532
1.03
0.955922
0.893657
0.7945
0.71909
0.586589
0.527538
0.375639
0.458399
0.35176
1.08802
)
;

boundaryField
{
    cavity
    {
        type            implicitExtrapolation;
    }
    lid
    {
        type            implicitExtrapolation;
    }
    frontAndBack
    {
        type            empty;
    }
}


// ************************************************************************* //
