/*--------------------------------*- C++ -*----------------------------------*\
| =========                 |                                                 |
| \\      /  F ield         | foam-extend: Open Source CFD                    |
|  \\    /   O peration     | Version:  3.0                                   |
|   \\  /    A nd           | Web:         http://www.extend-project.de       |
|    \\/     M anipulation  |                                                 |
\*---------------------------------------------------------------------------*/
FoamFile
{
    version     2.0;
    format      ascii;
    class       volVectorField;
    location    "3.9";
    object      s;
}
// * * * * * * * * * * * * * * * * * * * * * * * * * * * * * * * * * * * * * //

dimensions      [0 0 0 0 0 0 0];

internalField   nonuniform List<vector> 
400
(
(-0.00329625 0.00319305 3.86997e-318)
(-0.00515581 0.00475277 6.62813e-318)
(-0.0094139 0.00514124 7.45377e-318)
(-0.0120384 0.00451255 7.4856e-318)
(-0.0152042 0.00379586 7.19556e-318)
(-0.0173661 0.00295938 6.78913e-318)
(-0.0193942 0.0020876 6.3116e-318)
(-0.0207479 0.00124905 5.85421e-318)
(-0.0217486 0.000372009 5.35801e-318)
(-0.0222319 -0.000498227 4.91186e-318)
(-0.0222386 -0.00142929 4.42816e-318)
(-0.0217823 -0.00237273 3.99902e-318)
(-0.0207011 -0.00340385 3.53666e-318)
(-0.0191879 -0.00441162 3.12556e-318)
(-0.0168599 -0.00549412 2.69703e-318)
(-0.0142795 -0.00648115 2.29956e-318)
(-0.0106346 -0.00732619 1.90835e-318)
(-0.00745347 -0.00797942 1.49041e-318)
(-0.00283081 -0.00737239 1.04639e-318)
(-0.000792567 -0.00496278 4.3249e-319)
(-0.00320349 0.00262779 4.00686e-318)
(-0.00687949 0.0058661 8.01099e-318)
(-0.0122936 0.00737839 9.84645e-318)
(-0.0165338 0.00743991 1.05651e-317)
(-0.021211 0.00671468 1.06358e-317)
(-0.0247146 0.00553072 1.04175e-317)
(-0.0279382 0.00407649 9.96118e-318)
(-0.0301516 0.00254748 9.4478e-318)
(-0.0317614 0.000920958 8.81132e-318)
(-0.0324935 -0.000706736 8.19063e-318)
(-0.0324366 -0.00240927 7.48598e-318)
(-0.0315766 -0.00410622 6.82592e-318)
(-0.0297543 -0.00585776 6.10549e-318)
(-0.0272303 -0.00750926 5.44177e-318)
(-0.0235913 -0.00905356 4.73743e-318)
(-0.0195829 -0.0101998 4.07732e-318)
(-0.0144538 -0.0107381 3.38134e-318)
(-0.00979985 -0.0102545 2.65394e-318)
(-0.00441552 -0.00802677 1.81184e-318)
(-0.000833632 -0.00365581 7.2931e-319)
(-0.00294836 0.00690798 2.96589e-318)
(-0.00663273 0.0136802 6.62718e-318)
(-0.0120885 0.0162408 8.72468e-318)
(-0.0164721 0.0163279 9.86206e-318)
(-0.0212328 0.0148024 1.03217e-317)
(-0.0248305 0.0124994 1.03918e-317)
(-0.0281648 0.00960886 1.0147e-317)
(-0.0304668 0.00652587 9.75389e-318)
(-0.0321861 0.00320742 9.1946e-318)
(-0.0330022 -0.000173168 8.59384e-318)
(-0.0330143 -0.00370765 7.89662e-318)
(-0.0322067 -0.00724942 7.21103e-318)
(-0.0303795 -0.0108641 6.47159e-318)
(-0.0278431 -0.0142465 5.77526e-318)
(-0.0241087 -0.0173822 5.05868e-318)
(-0.0199817 -0.0196352 4.39504e-318)
(-0.0146896 -0.0208049 3.72287e-318)
(-0.0097831 -0.0198118 3.05097e-318)
(-0.00427001 -0.0159824 2.24294e-318)
(-0.000540373 -0.00759871 1.09933e-318)
(-0.00274781 0.00798957 1.57824e-318)
(-0.00572112 0.0166631 4.28106e-318)
(-0.0104651 0.0200134 6.2355e-318)
(-0.0140135 0.0203409 7.5751e-318)
(-0.0180929 0.0184825 8.35826e-318)
(-0.021014 0.0156531 8.75491e-318)
(-0.0238594 0.012066 8.81632e-318)
(-0.025773 0.0082319 8.66945e-318)
(-0.0272926 0.00411545 8.32779e-318)
(-0.0280627 -9.41878e-05 7.88665e-318)
(-0.0281991 -0.00449753 7.33637e-318)
(-0.0276923 -0.00894326 6.7545e-318)
(-0.0262867 -0.0134976 6.11768e-318)
(-0.0243427 -0.0177888 5.49036e-318)
(-0.0212156 -0.0217778 4.83953e-318)
(-0.0178288 -0.0245768 4.20884e-318)
(-0.0131256 -0.0259897 3.54713e-318)
(-0.00888309 -0.0243232 2.84683e-318)
(-0.00374956 -0.0192233 1.99661e-318)
(-0.000423821 -0.00837318 8.60613e-319)
(-0.00281312 0.0104711 8.38177e-319)
(-0.00486836 0.0213709 2.79853e-318)
(-0.00914485 0.0253756 4.46814e-318)
(-0.0117694 0.0256502 5.76945e-318)
(-0.0151758 0.0232807 6.64433e-318)
(-0.0173578 0.0197507 7.1736e-318)
(-0.0196958 0.0153433 7.39061e-318)
(-0.021207 0.0106258 7.3872e-318)
(-0.0225457 0.0055749 7.18641e-318)
(-0.0233111 0.000372442 6.86501e-318)
(-0.0236345 -0.00508965 6.42879e-318)
(-0.0235199 -0.0106678 5.93872e-318)
(-0.0226259 -0.0164329 5.38704e-318)
(-0.0213981 -0.0219616 4.82048e-318)
(-0.0189432 -0.0271965 4.22132e-318)
(-0.0164108 -0.0310243 3.61687e-318)
(-0.0122008 -0.0332046 2.97481e-318)
(-0.00868104 -0.0314423 2.28744e-318)
(-0.00342396 -0.0253412 1.49453e-318)
(-0.00072232 -0.0113602 5.54668e-319)
(-0.00292814 0.0120186 2.29207e-319)
(-0.00399139 0.024093 1.53372e-318)
(-0.00762115 0.0283991 2.90631e-318)
(-0.00912454 0.0284314 4.11029e-318)
(-0.0116761 0.0257003 5.01571e-318)
(-0.0129574 0.0217226 5.63649e-318)
(-0.0146444 0.0169171 5.981e-318)
(-0.0156458 0.0117953 6.10812e-318)
(-0.0167222 0.00636917 6.04615e-318)
(-0.017449 0.000748852 5.85099e-318)
(-0.017969 -0.00517758 5.54335e-318)
(-0.0183113 -0.011335 5.16836e-318)
(-0.0180477 -0.0178017 4.73468e-318)
(-0.0177112 -0.0241878 4.27421e-318)
(-0.0161392 -0.0304057 3.7804e-318)
(-0.0147233 -0.035231 3.26843e-318)
(-0.011221 -0.0383 2.7117e-318)
(-0.00868362 -0.036819 2.10024e-318)
(-0.00331972 -0.030107 1.38887e-318)
(-0.00128208 -0.013602 5.35004e-319)
(-0.00290984 0.0138551 1.46402e-319)
(-0.00294032 0.0268055 1.11808e-318)
(-0.00590436 0.0313176 2.21648e-318)
(-0.00635794 0.030929 3.23053e-318)
(-0.0081333 0.0279028 4.03452e-318)
(-0.0086138 0.0235028 4.6109e-318)
(-0.00972444 0.0184204 4.96189e-318)
(-0.0102755 0.0129881 5.12264e-318)
(-0.0111122 0.00730982 5.11795e-318)
(-0.0117949 0.00137375 4.98852e-318)
(-0.0124761 -0.00490803 4.75529e-318)
(-0.0132201 -0.011571 4.45217e-318)
(-0.0135197 -0.0186759 4.08967e-318)
(-0.0140206 -0.0259507 3.6904e-318)
(-0.0132715 -0.0332154 3.2519e-318)
(-0.0129893 -0.039327 2.77797e-318)
(-0.0101436 -0.0435857 2.25481e-318)
(-0.00872737 -0.0430639 1.66774e-318)
(-0.003118 -0.0361254 1.00402e-318)
(-0.00201092 -0.0172891 2.87274e-319)
(-0.00252921 0.0149412 2.42487e-320)
(-0.00172497 0.0280839 7.34616e-319)
(-0.00369434 0.0326438 1.62926e-318)
(-0.00319572 0.0317913 2.49633e-318)
(-0.00410027 0.0286398 3.21729e-318)
(-0.00383275 0.0240037 3.76115e-318)
(-0.00432368 0.0189239 4.11726e-318)
(-0.00441972 0.0134717 4.30762e-318)
(-0.00495975 0.00787989 4.35238e-318)
(-0.00554206 0.00197577 4.28295e-318)
(-0.00631201 -0.00428943 4.12185e-318)
(-0.00737641 -0.0111022 3.89683e-318)
(-0.00818894 -0.0184941 3.62295e-318)
(-0.0094644 -0.0263922 3.31776e-318)
(-0.00957984 -0.034488 2.9825e-318)
(-0.0104309 -0.0418732 2.61828e-318)
(-0.00845556 -0.0473884 2.20647e-318)
(-0.00820373 -0.0481571 1.7264e-318)
(-0.00277898 -0.0412904 1.14646e-318)
(-0.00245505 -0.0204632 4.28508e-319)
(-0.00189589 0.015458 1.67296e-319)
(-0.000422063 0.0284999 7.99329e-319)
(-0.00122149 0.0330953 1.52482e-318)
(7.62646e-05 0.0318564 2.22112e-318)
(4.15372e-05 0.0287425 2.81002e-318)
(0.000954323 0.0239971 3.25933e-318)
(0.00106756 0.0190769 3.56301e-318)
(0.00140674 0.0137372 3.73115e-318)
(0.00120618 0.00838312 3.78057e-318)
(0.000800674 0.00266009 3.73419e-318)
(5.80491e-05 -0.00341316 3.61054e-318)
(-0.00117294 -0.0101994 3.43212e-318)
(-0.00234845 -0.017668 3.2121e-318)
(-0.00423999 -0.026025 2.96321e-318)
(-0.00513345 -0.0347565 2.68846e-318)
(-0.00708148 -0.0434156 2.38274e-318)
(-0.00606548 -0.050153 2.03258e-318)
(-0.00716372 -0.0526459 1.60513e-318)
(-0.00216655 -0.0461471 1.06714e-318)
(-0.00291177 -0.0240534 3.76488e-319)
(-0.000984089 0.015282 1.71732e-319)
(0.000826141 0.0277909 7.22734e-319)
(0.00145263 0.0323006 1.34404e-318)
(0.00335362 0.0307984 1.93961e-318)
(0.00427027 0.0278475 2.44656e-318)
(0.00573584 0.0231606 2.8411e-318)
(0.00649462 0.0185579 3.11198e-318)
(0.0072665 0.0135037 3.26882e-318)
(0.00747771 0.00856702 3.32452e-318)
(0.00733926 0.00322705 3.29935e-318)
(0.00675399 -0.00243044 3.21112e-318)
(0.00553594 -0.00893818 3.0797e-318)
(0.00415566 -0.0162061 2.92017e-318)
(0.00188236 -0.0247387 2.74491e-318)
(0.000278303 -0.0338346 2.55891e-318)
(-0.00254507 -0.0435684 2.35938e-318)
(-0.00273805 -0.0514663 2.12697e-318)
(-0.00500185 -0.0557623 1.82204e-318)
(-0.00125416 -0.0500481 1.37064e-318)
(-0.00267105 -0.027047 6.32755e-319)
(-6.12999e-05 0.0143819 3.00145e-319)
(0.00191928 0.0262385 8.50588e-319)
(0.00397285 0.0305799 1.38548e-318)
(0.0063361 0.0290053 1.87358e-318)
(0.00818849 0.0263009 2.2829e-318)
(0.0101348 0.0218134 2.59656e-318)
(0.0115365 0.0176178 2.81222e-318)
(0.0127396 0.0129523 2.93514e-318)
(0.0134132 0.00852472 2.97759e-318)
(0.0136303 0.0036816 2.95525e-318)
(0.0133357 -0.00142268 2.88329e-318)
(0.0123167 -0.00746831 2.77878e-318)
(0.0109299 -0.0142924 2.65509e-318)
(0.00850219 -0.0227063 2.52255e-318)
(0.00634459 -0.0317897 2.38726e-318)
(0.00274549 -0.0422656 2.24286e-318)
(0.00128336 -0.050922 2.0741e-318)
(-0.00240378 -0.0570074 1.83129e-318)
(-0.000128812 -0.0520741 1.42567e-318)
(-0.00279527 -0.0292222 6.8934e-319)
(0.000744359 0.0130878 2.8143e-319)
(0.00271424 0.0239703 8.08672e-319)
(0.00616233 0.0280509 1.30533e-318)
(0.00886485 0.0265185 1.74513e-318)
(0.0116547 0.0241075 2.10186e-318)
(0.0140065 0.0199404 2.37187e-318)
(0.0160462 0.0162132 2.55291e-318)
(0.0176561 0.0120253 2.65448e-318)
(0.0188216 0.00817047 2.68755e-318)
(0.0194579 0.00391564 2.66778e-318)
(0.0195688 -0.000537331 2.60959e-318)
(0.0189431 -0.00596463 2.52914e-318)
(0.0177607 -0.0121589 2.44016e-318)
(0.0155238 -0.0201698 2.35309e-318)
(0.0130192 -0.028964 2.27524e-318)
(0.00911371 -0.039804 2.20387e-318)
(0.00626623 -0.0490995 2.1184e-318)
(0.0017002 -0.0568505 1.97146e-318)
(0.00148354 -0.0534334 1.63974e-318)
(-0.00165227 -0.031438 8.92964e-319)
(0.00152127 0.0115338 3.13623e-319)
(0.0033329 0.0213807 8.61349e-319)
(0.00793586 0.0249591 1.32382e-318)
(0.0108403 0.0235936 1.7065e-318)
(0.0144271 0.0214379 2.00077e-318)
(0.0170903 0.0176926 2.21272e-318)
(0.0196812 0.0144481 2.35016e-318)
(0.021641 0.0107941 2.42157e-318)
(0.0232682 0.00752843 2.43868e-318)
(0.0243357 0.00390706 2.4145e-318)
(0.0249154 0.000154671 2.36165e-318)
(0.0248014 -0.00453814 2.29384e-318)
(0.0240067 -0.00992927 2.22288e-318)
(0.0221725 -0.0172285 2.15805e-318)
(0.0195845 -0.0253073 2.1046e-318)
(0.015506 -0.0359311 2.05721e-318)
(0.0114793 -0.0451101 1.9969e-318)
(0.00564857 -0.0539244 1.8739e-318)
(0.00320144 -0.0512747 1.5632e-318)
(-0.0016745 -0.0309488 8.53716e-319)
(0.00166201 0.00953798 2.81652e-319)
(0.00351993 0.0182845 8.40692e-319)
(0.00898491 0.0214938 1.28477e-318)
(0.0121409 0.0203247 1.63281e-318)
(0.0164183 0.0184739 1.88171e-318)
(0.0193273 0.0152019 2.05339e-318)
(0.0223639 0.0124587 2.15683e-318)
(0.0245853 0.00936082 2.20408e-318)
(0.0265999 0.00667558 2.20718e-318)
(0.0280704 0.00368746 2.17749e-318)
(0.0291401 0.000627642 2.12718e-318)
(0.0296494 -0.00328993 2.06803e-318)
(0.0294188 -0.00781748 2.0116e-318)
(0.0283396 -0.0142153 1.96593e-318)
(0.0259907 -0.021392 1.93535e-318)
(0.0224483 -0.0314042 1.91629e-318)
(0.0173995 -0.0403777 1.88433e-318)
(0.011474 -0.0501117 1.79705e-318)
(0.00565577 -0.0493996 1.52143e-318)
(0.000848777 -0.0322555 8.53093e-319)
(0.00222078 0.00824619 2.42665e-319)
(0.00353434 0.0154846 8.26671e-319)
(0.00957365 0.0178754 1.24543e-318)
(0.0126729 0.016902 1.54537e-318)
(0.0173491 0.0152617 1.74548e-318)
(0.0203053 0.0125338 1.87393e-318)
(0.0235719 0.0102716 1.94635e-318)
(0.0258964 0.00774796 1.97334e-318)
(0.0281465 0.00560308 1.96553e-318)
(0.0298985 0.00322422 1.93279e-318)
(0.0313844 0.00081136 1.88522e-318)
(0.0324581 -0.00232365 1.83242e-318)
(0.0328515 -0.00595463 1.78452e-318)
(0.0325578 -0.0112586 1.74673e-318)
(0.0307351 -0.0172309 1.72095e-318)
(0.0277409 -0.0259934 1.69875e-318)
(0.0222813 -0.0338302 1.65548e-318)
(0.0156483 -0.0431536 1.54716e-318)
(0.00778112 -0.0425052 1.26207e-318)
(0.000650839 -0.0277148 6.5567e-319)
(0.0014584 0.00586283 3.94758e-319)
(0.00322257 0.0122956 9.59619e-319)
(0.00943882 0.0142571 1.29205e-318)
(0.0127684 0.0134933 1.50578e-318)
(0.0176956 0.0121432 1.63598e-318)
(0.0206264 0.00993581 1.71267e-318)
(0.02394 0.00815942 1.74779e-318)
(0.0262162 0.00617658 1.74992e-318)
(0.0285332 0.00453514 1.72641e-318)
(0.0304449 0.00270559 1.68517e-318)
(0.0322404 0.000879142 1.63473e-318)
(0.0338592 -0.0015328 1.58256e-318)
(0.0349072 -0.00430858 1.53712e-318)
(0.0356389 -0.00850215 1.5029e-318)
(0.0346072 -0.0132294 1.47986e-318)
(0.0329953 -0.0205795 1.46122e-318)
(0.0274318 -0.0273223 1.4192e-318)
(0.0221327 -0.0364762 1.31614e-318)
(0.0107958 -0.0376212 1.05341e-318)
(0.00546881 -0.0284418 5.19233e-319)
(0.00168888 0.00538698 2.61178e-319)
(0.00231678 0.00954909 7.89907e-319)
(0.00840483 0.0106405 1.07908e-318)
(0.0112595 0.00999862 1.24739e-318)
(0.0158995 0.0089276 1.34885e-318)
(0.0184655 0.00733665 1.40684e-318)
(0.0214679 0.00602852 1.43356e-318)
(0.023465 0.00459279 1.43448e-318)
(0.0255956 0.0033814 1.41565e-318)
(0.0274078 0.00204013 1.38301e-318)
(0.0292775 0.000686516 1.34372e-318)
(0.0310908 -0.00108119 1.304e-318)
(0.0326024 -0.00312025 1.26966e-318)
(0.0339248 -0.00617917 1.24412e-318)
(0.0337882 -0.00963838 1.22451e-318)
(0.0330275 -0.0150494 1.20151e-318)
(0.0284211 -0.0200068 1.14839e-318)
(0.0232031 -0.0268076 1.02544e-318)
(0.011998 -0.0269334 7.64443e-319)
(0.00400387 -0.0184198 3.04359e-319)
(0.000295617 0.00310567 8.0968e-319)
(0.00191762 0.0070034 1.12145e-318)
(0.00774364 0.00753653 1.19934e-318)
(0.0105745 0.00711589 1.21266e-318)
(0.0149712 0.00629474 1.2194e-318)
(0.0170673 0.00516408 1.21469e-318)
(0.0196686 0.00429102 1.20037e-318)
(0.021232 0.0033011 1.17424e-318)
(0.0230342 0.00250768 1.13739e-318)
(0.0246376 0.00158371 1.09335e-318)
(0.0264069 0.000697838 1.04681e-318)
(0.0283829 -0.000511782 1.0019e-318)
(0.0301783 -0.0018245 9.63621e-319)
(0.0322887 -0.00390584 9.33917e-319)
(0.0329428 -0.00611341 9.11156e-319)
(0.0339607 -0.0099662 8.88814e-319)
(0.0301199 -0.0132881 8.43721e-319)
(0.0280411 -0.0193343 7.4636e-319)
(0.0142827 -0.0205371 5.416e-319)
(0.0121123 -0.0200153 1.88802e-319)
(1.66097e-05 0.00318326 1.60043e-319)
(5.56421e-05 0.00391094 4.23523e-319)
(0.00428935 0.00409863 5.39416e-319)
(0.00595658 0.00383538 5.97869e-319)
(0.00880532 0.00348441 6.39059e-319)
(0.0101032 0.00302576 6.64938e-319)
(0.011683 0.00256959 6.79681e-319)
(0.0126417 0.00207396 6.82868e-319)
(0.0137604 0.00158107 6.76331e-319)
(0.0147645 0.0010337 6.63629e-319)
(0.0160117 0.000436907 6.4814e-319)
(0.01731 -0.000295637 6.32829e-319)
(0.0188155 -0.00115004 6.20517e-319)
(0.0202816 -0.00228815 6.12004e-319)
(0.0213819 -0.00360189 6.05221e-319)
(0.0221022 -0.00537431 5.92973e-319)
(0.0205832 -0.00717499 5.58887e-319)
(0.0184053 -0.00903188 4.77905e-319)
(0.0104924 -0.00899628 3.23835e-319)
(0.00512411 -0.00348838 7.88183e-320)
(-0.000577258 0.00144739 1.00068e-318)
(0.000643173 0.00286346 7.83801e-319)
(0.00406861 0.00243428 6.37142e-319)
(0.00487426 0.00232717 5.31718e-319)
(0.0070416 0.00204281 4.82791e-319)
(0.00734798 0.00171327 4.46551e-319)
(0.00837542 0.00158586 4.18543e-319)
(0.0086371 0.00134105 3.90771e-319)
(0.0092672 0.00126648 3.62644e-319)
(0.00980516 0.00105908 3.33815e-319)
(0.0105125 0.000991888 3.06222e-319)
(0.0115589 0.000731678 2.80323e-319)
(0.0124869 0.000643472 2.58199e-319)
(0.0141788 0.000184988 2.40822e-319)
(0.0149395 6.16355e-05 2.28372e-319)
(0.0171806 -0.0009597 2.19919e-319)
(0.015947 -0.00106364 2.07246e-319)
(0.0182555 -0.00377013 1.81134e-319)
(0.0094818 -0.00349751 1.1742e-319)
(0.0145081 -0.0105108 1.10671e-321)
)
;

boundaryField
{
    cavity
    {
        type            myHeatFlux;
        ThetaWall       uniform 0;
        value           nonuniform List<vector> 
60
(
(0.001 0 0)
(0.001 0 0)
(0.001 0 0)
(0.001 0 0)
(0.001 0 0)
(0.001 0 0)
(0.001 0 0)
(0.001 0 0)
(0.001 0 0)
(0.001 0 0)
(0.001 0 0)
(0.001 0 0)
(0.001 0 0)
(0.001 0 0)
(0.001 0 0)
(0.001 0 0)
(0.001 0 0)
(0.001 0 0)
(0.001 0 0)
(0.001 0 0)
(0 -0.001 0)
(0 -0.001 0)
(0 -0.001 0)
(0 -0.001 0)
(0 -0.001 0)
(0 -0.001 0)
(0 -0.001 0)
(0 -0.001 0)
(0 -0.001 0)
(0 -0.001 0)
(0 -0.001 0)
(0 -0.001 0)
(0 -0.001 0)
(0 -0.001 0)
(0 -0.001 0)
(0 -0.001 0)
(0 -0.001 0)
(0 -0.001 0)
(0 -0.001 0)
(0 -0.001 0)
(-0.001 0 0)
(-0.001 0 0)
(-0.001 0 0)
(-0.001 0 0)
(-0.001 0 0)
(-0.001 0 0)
(-0.001 0 0)
(-0.001 0 0)
(-0.001 0 0)
(-0.001 0 0)
(-0.001 0 0)
(-0.001 0 0)
(-0.001 0 0)
(-0.001 0 0)
(-0.001 0 0)
(-0.001 0 0)
(-0.001 0 0)
(-0.001 0 0)
(-0.001 0 0)
(-0.001 0 0)
)
;
    }
    lid
    {
        type            myHeatFlux;
        ThetaWall       uniform 0;
        value           nonuniform List<vector> 
20
(
(0.000135815 0.0009 0)
(0.000135815 0.0009 0)
(0.000135815 0.0009 0)
(0.000135815 0.0009 0)
(0.000135815 0.0009 0)
(0.000135815 0.0009 0)
(0.000135815 0.0009 0)
(0.000135815 0.0009 0)
(0.000135815 0.0009 0)
(0.000135815 0.0009 0)
(0.000135815 0.0009 0)
(0.000135815 0.0009 0)
(0.000135815 0.0009 0)
(0.000135815 0.0009 0)
(0.000135815 0.0009 0)
(0.000135815 0.0009 0)
(0.000135815 0.0009 0)
(0.000135815 0.0009 0)
(0.000135815 0.0009 0)
(0.000135815 0.0009 0)
)
;
    }
    frontAndBack
    {
        type            empty;
    }
}


// ************************************************************************* //
