/*--------------------------------*- C++ -*----------------------------------*\
| =========                 |                                                 |
| \\      /  F ield         | foam-extend: Open Source CFD                    |
|  \\    /   O peration     | Version:  3.0                                   |
|   \\  /    A nd           | Web:         http://www.extend-project.de       |
|    \\/     M anipulation  |                                                 |
\*---------------------------------------------------------------------------*/
FoamFile
{
    version     2.0;
    format      ascii;
    class       volSymmTensorField;
    location    "3.9";
    object      sigma;
}
// * * * * * * * * * * * * * * * * * * * * * * * * * * * * * * * * * * * * * //

dimensions      [0 0 0 0 0 0 0];

internalField   nonuniform List<symmTensor> 
400
(
(0.0814551 -0.0313697 6.37271e-317 -0.107374 8.69635e-317 0.025919)
(0.161789 -0.0493981 7.03778e-317 -0.107919 1.01852e-316 -0.0538701)
(0.199857 -0.068319 7.03712e-317 -0.10476 9.9424e-317 -0.0950969)
(0.20906 -0.084094 6.87947e-317 -0.0970019 9.1784e-317 -0.112058)
(0.199812 -0.098415 6.45974e-317 -0.0860648 8.06129e-317 -0.113747)
(0.179247 -0.112565 6.03486e-317 -0.0738429 7.14545e-317 -0.105404)
(0.149226 -0.124127 5.54601e-317 -0.0594214 6.09674e-317 -0.0898048)
(0.113507 -0.134698 5.08471e-317 -0.0442774 5.3803e-317 -0.0692296)
(0.0729775 -0.141908 4.63531e-317 -0.0279853 4.54624e-317 -0.0449922)
(0.0294528 -0.14649 4.22276e-317 -0.0109994 4.04579e-317 -0.0184534)
(-0.0159283 -0.147333 3.84622e-317 0.00664055 3.40711e-317 0.00928774)
(-0.0613789 -0.144669 3.50876e-317 0.0244843 3.08009e-317 0.0368947)
(-0.105957 -0.138941 3.21544e-317 0.0428183 2.5936e-317 0.0631383)
(-0.146046 -0.12981 2.95044e-317 0.0599071 2.39417e-317 0.086139)
(-0.181451 -0.119338 2.74007e-317 0.0771471 2.02473e-317 0.104304)
(-0.205263 -0.106087 2.51255e-317 0.0906933 1.90728e-317 0.11457)
(-0.21709 -0.0924382 2.36606e-317 0.103016 1.63747e-317 0.114074)
(-0.206769 -0.0769591 2.08839e-317 0.109655 1.5474e-317 0.0971136)
(-0.166321 -0.0574902 1.89676e-317 0.111091 1.35074e-317 0.0552299)
(-0.0823858 -0.0381429 1.31337e-317 0.107688 1.14433e-317 -0.0253023)
(0.0636431 -0.0120528 1.40498e-317 -0.149276 4.20523e-317 0.0856326)
(0.137707 -0.0165196 2.44148e-317 -0.160832 6.91832e-317 0.0231249)
(0.169725 -0.0238936 3.14584e-317 -0.156478 7.59721e-317 -0.0132475)
(0.178443 -0.0303675 3.59122e-317 -0.146049 7.42507e-317 -0.0323932)
(0.16937 -0.0375857 3.80774e-317 -0.12889 6.74696e-317 -0.0404804)
(0.150351 -0.0452105 3.88491e-317 -0.109131 6.07372e-317 -0.04122)
(0.124225 -0.0517002 3.84691e-317 -0.0871378 5.25174e-317 -0.0370876)
(0.0936213 -0.0574468 3.74347e-317 -0.0639527 4.63469e-317 -0.0296685)
(0.0601703 -0.0609581 3.59302e-317 -0.0401081 3.93661e-317 -0.0200622)
(0.0244839 -0.0622278 3.42015e-317 -0.0153208 3.47486e-317 -0.00916317)
(-0.0122148 -0.0612644 3.23895e-317 0.00989101 2.93266e-317 0.00232377)
(-0.049436 -0.0574961 3.06152e-317 0.0358313 2.61958e-317 0.0136047)
(-0.0861431 -0.0527414 2.90042e-317 0.0622383 2.21489e-317 0.0239047)
(-0.120332 -0.0459685 2.75706e-317 0.0881388 2.02571e-317 0.0321936)
(-0.151009 -0.0402565 2.65363e-317 0.113788 1.73901e-317 0.0372215)
(-0.172883 -0.0344858 2.56666e-317 0.13564 1.65247e-317 0.0372428)
(-0.184489 -0.0306995 2.55603e-317 0.15475 1.48932e-317 0.0297393)
(-0.174847 -0.0291401 2.53191e-317 0.163796 1.51741e-317 0.0110509)
(-0.141188 -0.0260282 2.61761e-317 0.165811 1.59051e-317 -0.0246226)
(-0.0637682 -0.0266451 2.55106e-317 0.149361 1.96361e-317 -0.085593)
(0.0590685 -0.0127199 -4.20931e-318 -0.170051 1.92631e-317 0.110982)
(0.129551 -0.000409258 4.90484e-318 -0.185069 4.52509e-317 0.0555176)
(0.157187 0.00757414 1.31321e-317 -0.178547 5.49277e-317 0.0213601)
(0.165149 0.0101377 1.95039e-317 -0.166576 5.65044e-317 0.00142741)
(0.155005 0.0109767 2.37785e-317 -0.145679 5.33786e-317 -0.00932574)
(0.137108 0.00786373 2.65556e-317 -0.123099 4.90508e-317 -0.0140094)
(0.113397 0.00585331 2.79878e-317 -0.0986058 4.34886e-317 -0.0147909)
(0.0861002 0.00291284 2.8563e-317 -0.0730678 3.86659e-317 -0.0130324)
(0.0574387 0.00238885 2.84854e-317 -0.0477562 3.34857e-317 -0.0096825)
(0.0262801 0.00332465 2.80224e-317 -0.020822 2.94787e-317 -0.0054581)
(-0.00521878 0.00618859 2.73379e-317 0.00612472 2.52515e-317 -0.000905933)
(-0.0385477 0.0113521 2.65729e-317 0.0351453 2.2207e-317 0.00340244)
(-0.0719593 0.0160599 2.58513e-317 0.0650801 1.88792e-317 0.0068792)
(-0.104691 0.0220853 2.51989e-317 0.0959042 1.66153e-317 0.0087871)
(-0.135861 0.0237236 2.47598e-317 0.127769 1.39698e-317 0.00809227)
(-0.158981 0.024029 2.43132e-317 0.155532 1.22104e-317 0.00344894)
(-0.174837 0.0164876 2.41541e-317 0.18214 1.01581e-317 -0.00730297)
(-0.166512 0.00440829 2.35598e-317 0.193567 9.01721e-318 -0.027055)
(-0.13777 -0.0138283 2.30536e-317 0.19818 9.04602e-318 -0.0604098)
(-0.0603671 -0.037407 2.18857e-317 0.173927 1.29987e-317 -0.11356)
(0.055103 -0.00327018 -2.18796e-317 -0.189518 -4.06221e-320 0.134416)
(0.116263 0.0200397 -1.31977e-317 -0.192338 2.48028e-317 0.0760748)
(0.137109 0.0381144 -3.66156e-318 -0.176852 3.59746e-317 0.0397426)
(0.139657 0.0432393 4.31171e-318 -0.157486 4.00542e-317 0.0178291)
(0.128454 0.0469193 1.06589e-317 -0.133553 3.96801e-317 0.00509868)
(0.111279 0.0434123 1.52676e-317 -0.109545 3.7653e-317 -0.00173413)
(0.0919902 0.0417176 1.8457e-317 -0.0871439 3.42035e-317 -0.00484628)
(0.0701898 0.0387339 2.05015e-317 -0.0645287 3.09017e-317 -0.00566111)
(0.0494442 0.0388496 2.16834e-317 -0.0443781 2.7139e-317 -0.0050661)
(0.0261642 0.0412963 2.2242e-317 -0.0223736 2.40647e-317 -0.00379063)
(0.00367876 0.0460176 2.23678e-317 -0.00139454 2.07944e-317 -0.00228423)
(-0.0221745 0.0543112 2.22056e-317 0.0232856 1.83405e-317 -0.00111117)
(-0.0482404 0.0616091 2.18606e-317 0.0489942 1.57454e-317 -0.000753729)
(-0.0769799 0.0713067 2.13779e-317 0.0789328 1.39895e-317 -0.00195298)
(-0.105492 0.0739318 2.07854e-317 0.111167 1.21469e-317 -0.00567438)
(-0.130643 0.0753095 2.00007e-317 0.143973 1.12081e-317 -0.0133304)
(-0.150455 0.0619103 1.8972e-317 0.177577 1.04339e-317 -0.027122)
(-0.149598 0.0421517 1.74904e-317 0.199734 1.07962e-317 -0.0501366)
(-0.128934 0.0048666 1.54474e-317 0.216095 1.18088e-317 -0.0871604)
(-0.0580146 -0.0412952 1.30298e-317 0.202589 1.33214e-317 -0.144574)
(0.0592939 0.0183273 -1.48206e-317 -0.224642 -2.84125e-318 0.165348)
(0.114162 0.0448308 -1.00879e-317 -0.210016 1.37161e-317 0.0958543)
(0.129765 0.0662305 -3.64308e-318 -0.183284 2.29057e-317 0.0535188)
(0.126148 0.0693512 2.39733e-318 -0.154311 2.73322e-317 0.0281628)
(0.114229 0.0721632 7.45267e-318 -0.12744 2.84622e-317 0.0132108)
(0.0968877 0.0658698 1.14382e-317 -0.101609 2.79087e-317 0.00472118)
(0.0815573 0.0627954 1.43648e-317 -0.0817223 2.61413e-317 0.000164955)
(0.0636898 0.0582571 1.64484e-317 -0.0616515 2.40452e-317 -0.00203831)
(0.0494166 0.0581926 1.78428e-317 -0.0465415 2.15659e-317 -0.00287504)
(0.0317341 0.0609568 1.87372e-317 -0.0286488 1.92713e-317 -0.0030853)
(0.0160612 0.0672986 1.92804e-317 -0.012893 1.68947e-317 -0.00316811)
(-0.00500154 0.0780661 1.96028e-317 0.00866121 1.4882e-317 -0.00365966)
(-0.0263895 0.0886842 1.98179e-317 0.0315139 1.28986e-317 -0.00512441)
(-0.0539937 0.102815 1.99856e-317 0.0623041 1.13589e-317 -0.00831047)
(-0.0829101 0.108947 2.02003e-317 0.0973115 9.94746e-318 -0.0144015)
(-0.11327 0.114898 2.03956e-317 0.13828 9.10328e-318 -0.0250102)
(-0.140499 0.100781 2.06982e-317 0.183464 8.65859e-318 -0.0429647)
(-0.150377 0.0806185 2.08336e-317 0.222591 9.15259e-318 -0.0722139)
(-0.13878 0.0316734 2.09937e-317 0.258239 1.08838e-317 -0.119458)
(-0.0689343 -0.0264277 2.08137e-317 0.263294 1.52046e-317 -0.194359)
(0.0599839 0.0611442 -1.59056e-317 -0.256393 -5.95396e-318 0.196409)
(0.102932 0.0799201 -1.22805e-317 -0.216236 6.5336e-318 0.113304)
(0.112102 0.0951345 -6.72865e-318 -0.175918 1.40023e-317 0.0638155)
(0.10069 0.0890458 -1.28875e-318 -0.135407 1.82487e-317 0.0347175)
(0.0887582 0.085161 3.62268e-318 -0.10653 2.00288e-317 0.0177722)
(0.0718356 0.0724558 7.59447e-318 -0.0799254 2.0379e-317 0.00808982)
(0.0617524 0.0647824 1.06907e-317 -0.0644905 1.96358e-317 0.00273804)
(0.0494448 0.0571893 1.29745e-317 -0.0492939 1.8435e-317 -0.000150887)
(0.0434011 0.0554409 1.45991e-317 -0.0417864 1.68103e-317 -0.00161474)
(0.033652 0.0585462 1.57044e-317 -0.0311346 1.51771e-317 -0.00251741)
(0.0274091 0.0666081 1.64227e-317 -0.0240793 1.34148e-317 -0.00332976)
(0.0140937 0.0815403 1.68626e-317 -0.00939069 1.18443e-317 -0.00470302)
(0.00120762 0.0976047 1.71062e-317 0.0059923 1.02937e-317 -0.00719992)
(-0.0222366 0.120059 1.72091e-317 0.034012 9.07106e-318 -0.0117754)
(-0.046895 0.134451 1.71923e-317 0.0666833 8.03582e-318 -0.0197883)
(-0.0811767 0.15152 1.70687e-317 0.114556 7.55487e-318 -0.033379)
(-0.112273 0.144166 1.67728e-317 0.168437 7.61006e-318 -0.0561642)
(-0.136461 0.132177 1.63205e-317 0.230098 8.66735e-318 -0.093637)
(-0.134915 0.0799539 1.55311e-317 0.290022 1.07327e-317 -0.155107)
(-0.0755553 0.0163827 1.44191e-317 0.32985 1.36081e-317 -0.254295)
(0.0627213 0.123507 -4.01139e-318 -0.285463 -1.57208e-318 0.222741)
(0.0934071 0.123139 -3.33741e-318 -0.219128 3.99512e-318 0.125721)
(0.0984192 0.122377 -8.60539e-319 -0.168372 8.67708e-318 0.0699526)
(0.0796003 0.102795 2.20246e-318 -0.117632 1.19294e-317 0.0380314)
(0.0693829 0.0880973 5.17334e-318 -0.0892115 1.37369e-317 0.0198287)
(0.0528858 0.067682 7.84335e-318 -0.0624382 1.44959e-317 0.00955249)
(0.0483273 0.0538385 1.00298e-317 -0.052197 1.44142e-317 0.00386967)
(0.0407941 0.0421315 1.17688e-317 -0.0415207 1.3841e-317 0.000726575)
(0.0422927 0.0376772 1.30872e-317 -0.0412855 1.28752e-317 -0.00100726)
(0.039302 0.0393369 1.4072e-317 -0.0370847 1.17581e-317 -0.00221723)
(0.0414511 0.0481194 1.48067e-317 -0.0380134 1.0501e-317 -0.00343773)
(0.0347912 0.0648474 1.53803e-317 -0.0294726 9.28413e-318 -0.00531857)
(0.0293748 0.0860558 1.58851e-317 -0.0208187 8.08438e-318 -0.00855611)
(0.00922343 0.115213 1.63906e-317 0.00495598 7.07728e-318 -0.0141794)
(-0.0123161 0.140268 1.70032e-317 0.0362266 6.27251e-318 -0.0239105)
(-0.0518243 0.170686 1.7736e-317 0.0921426 5.91456e-318 -0.0403183)
(-0.0887194 0.178516 1.87427e-317 0.156872 6.15282e-318 -0.0681523)
(-0.130339 0.185888 1.98656e-317 0.245044 7.42825e-318 -0.114705)
(-0.141095 0.147505 2.12377e-317 0.334321 1.02909e-317 -0.193227)
(-0.0920437 0.102748 2.22721e-317 0.416974 1.60933e-317 -0.32493)
(0.0569228 0.197469 -3.41551e-318 -0.287225 -7.48465e-319 0.230303)
(0.0728903 0.16986 -2.71376e-318 -0.200256 2.66039e-318 0.127366)
(0.0744565 0.145591 -5.42741e-319 -0.144082 5.66572e-318 0.0696252)
(0.050076 0.109698 2.0529e-318 -0.087408 8.05547e-318 0.0373321)
(0.0421375 0.0809339 4.71741e-318 -0.0614993 9.60083e-318 0.0193618)
(0.0272006 0.0521846 7.05944e-318 -0.0366011 1.04365e-317 0.00940053)
(0.0277486 0.0307111 9.02613e-318 -0.0317731 1.06392e-317 0.00402444)
(0.0255898 0.0148789 1.05744e-317 -0.0266594 1.04088e-317 0.00106961)
(0.0340706 0.00693913 1.17553e-317 -0.033546 9.82004e-318 -0.00052465)
(0.0385978 0.00750379 1.26284e-317 -0.0368868 9.03348e-318 -0.00171102)
(0.049335 0.0168006 1.32658e-317 -0.0463883 8.07918e-318 -0.00294667)
(0.0509822 0.036358 1.37354e-317 -0.0459938 7.08338e-318 -0.00498841)
(0.0550747 0.0635958 1.4099e-317 -0.0465798 6.05777e-318 -0.00849486)
(0.0413032 0.101855 1.44127e-317 -0.02659 5.13645e-318 -0.0147132)
(0.027889 0.140722 1.47167e-317 -0.00239061 4.37574e-318 -0.0254984)
(-0.0128298 0.189147 1.50718e-317 0.0568317 4.00582e-318 -0.0440019)
(-0.047662 0.219255 1.54716e-317 0.123468 4.25016e-318 -0.0758061)
(-0.105068 0.253288 1.60001e-317 0.235181 5.61532e-318 -0.130113)
(-0.122774 0.240123 1.65204e-317 0.346294 8.61578e-318 -0.22352)
(-0.0943104 0.221281 1.68217e-317 0.477362 1.38679e-317 -0.383052)
(0.0486637 0.270005 5.39023e-318 -0.263477 3.32392e-318 0.214813)
(0.0511355 0.213164 4.46997e-318 -0.166814 2.75287e-318 0.115678)
(0.051088 0.161725 4.70364e-318 -0.11288 3.87187e-318 0.061792)
(0.0237432 0.110587 5.71043e-318 -0.0561418 5.2909e-318 0.0323986)
(0.0193045 0.0666607 6.94572e-318 -0.035765 6.48249e-318 0.0164605)
(0.00647536 0.0302442 8.26096e-318 -0.014294 7.29086e-318 0.00781862)
(0.011925 0.000681358 9.43146e-318 -0.0152274 7.67164e-318 0.00330234)
(0.0144574 -0.0198377 1.04304e-317 -0.0153481 7.69026e-318 0.000890729)
(0.0290579 -0.0320945 1.12252e-317 -0.0287018 7.38953e-318 -0.000356083)
(0.0400438 -0.0346964 1.18466e-317 -0.0387309 6.86422e-318 -0.00131289)
(0.0584055 -0.0264551 1.23322e-317 -0.0559874 6.15402e-318 -0.00241811)
(0.0675584 -0.00781629 1.2734e-317 -0.0631769 5.3438e-318 -0.00438147)
(0.08036 0.0236322 1.31192e-317 -0.0724366 4.46758e-318 -0.00792336)
(0.0728736 0.066191 1.35498e-317 -0.0585897 3.61973e-318 -0.0142839)
(0.066696 0.11895 1.41374e-317 -0.0411682 2.8767e-318 -0.0255278)
(0.0252514 0.182407 1.49324e-317 0.0197609 2.42861e-318 -0.0450123)
(-0.00972474 0.241423 1.61494e-317 0.0888105 2.53882e-318 -0.0790857)
(-0.0830829 0.308309 1.77101e-317 0.221347 3.7501e-318 -0.138264)
(-0.112784 0.339273 1.98911e-317 0.355295 7.01515e-318 -0.242512)
(-0.104364 0.373426 2.20432e-317 0.530783 1.43955e-317 -0.426419)
(0.0311245 0.330106 4.0729e-318 -0.201611 3.68222e-318 0.170486)
(0.0221173 0.245638 3.99822e-318 -0.111602 2.73248e-318 0.0894844)
(0.01985 0.168135 4.75802e-318 -0.0663541 2.93479e-318 0.0465041)
(-0.00652878 0.104123 5.88058e-318 -0.0170646 3.69298e-318 0.0235934)
(-0.00859886 0.0457754 7.16611e-318 -0.00294215 4.53045e-318 0.011541)
(-0.0179427 0.00304673 8.32218e-318 0.0127611 5.2107e-318 0.00518161)
(-0.00942894 -0.0345008 9.31197e-318 0.00736105 5.61862e-318 0.00206789)
(-0.00226712 -0.0590314 1.0089e-317 0.00175922 5.74165e-318 0.000507899)
(0.0162446 -0.0758054 1.06751e-317 -0.0161058 5.58844e-318 -0.000138781)
(0.03316 -0.0810733 1.10972e-317 -0.0324788 5.21036e-318 -0.000681155)
(0.0570381 -0.0742078 1.13913e-317 -0.0556412 4.63625e-318 -0.00139688)
(0.0738511 -0.0557319 1.15939e-317 -0.0708168 3.9213e-318 -0.00303425)
(0.0946191 -0.0201596 1.17397e-317 -0.0884451 3.09483e-318 -0.00617398)
(0.0959 0.0283686 1.18664e-317 -0.0837534 2.22268e-318 -0.0121466)
(0.100036 0.0961173 1.20118e-317 -0.0771719 1.37474e-318 -0.0228643)
(0.0642445 0.177902 1.22391e-317 -0.0223793 7.17329e-319 -0.0418652)
(0.038886 0.269463 1.25912e-317 0.0366007 5.21318e-319 -0.0754867)
(-0.0415976 0.373076 1.3211e-317 0.176515 1.36425e-318 -0.134917)
(-0.0706487 0.453461 1.41436e-317 0.311726 4.1937e-318 -0.241077)
(-0.0884313 0.536797 1.53544e-317 0.518553 1.06262e-317 -0.430122)
(0.0114319 0.363468 9.12697e-318 -0.114688 5.82155e-318 0.103256)
(-0.00715491 0.262133 8.30914e-318 -0.0443588 2.79906e-318 0.0515137)
(-0.0108194 0.164173 8.09993e-318 -0.0145571 2.02471e-318 0.0253765)
(-0.0334592 0.0921291 8.42123e-318 0.0215402 2.23498e-318 0.0119189)
(-0.0327813 0.0218812 8.87042e-318 0.0275863 2.85996e-318 0.00519502)
(-0.0379746 -0.0256991 9.38679e-318 0.0361647 3.50686e-318 0.00180998)
(-0.026753 -0.070171 9.82557e-318 0.0263359 3.98597e-318 0.000417068)
(-0.015457 -0.0987011 1.01848e-317 0.015577 4.22383e-318 -0.000119974)
(0.00623732 -0.119974 1.0442e-317 -0.00614355 4.20421e-318 -9.3764e-05)
(0.0280648 -0.129308 1.06119e-317 -0.0279347 3.95621e-318 -0.000130119)
(0.0566837 -0.12523 1.07081e-317 -0.0562826 3.50401e-318 -0.000401047)
(0.0802694 -0.110639 1.07521e-317 -0.0787183 2.88858e-318 -0.00155111)
(0.108482 -0.0740205 1.07771e-317 -0.104372 2.1358e-318 -0.00410913)
(0.11859 -0.0265262 1.08102e-317 -0.109344 1.2924e-318 -0.00924589)
(0.132403 0.0525755 1.09305e-317 -0.113654 4.10756e-319 -0.0187487)
(0.103714 0.142962 1.11684e-317 -0.0679184 -3.84645e-319 -0.0357958)
(0.0845753 0.267108 1.17404e-317 -0.0181905 -8.59314e-319 -0.0663848)
(-0.00176627 0.401552 1.2626e-317 0.122878 -5.07964e-319 -0.121112)
(-0.0418253 0.543036 1.42836e-317 0.262787 1.81001e-318 -0.220961)
(-0.0866184 0.694659 1.65175e-317 0.491746 8.58055e-318 -0.405128)
(-0.0130557 0.369812 6.06681e-318 -0.00553732 5.11652e-318 0.018593)
(-0.0376705 0.25795 6.62572e-318 0.0315497 2.43779e-318 0.00612078)
(-0.0463091 0.147591 7.58078e-318 0.0451669 1.32921e-318 0.00114219)
(-0.0614474 0.0720854 8.41382e-318 0.0624279 1.2892e-318 -0.000980513)
(-0.0600782 -0.00638852 9.14089e-318 0.0616811 1.7931e-318 -0.00160291)
(-0.0595797 -0.0567321 9.60975e-318 0.0612836 2.40598e-318 -0.00170383)
(-0.0473769 -0.106726 9.91408e-318 0.0486299 2.90436e-318 -0.001253)
(-0.0321845 -0.138133 1.00713e-317 0.0329047 3.18897e-318 -0.000720224)
(-0.00984514 -0.163309 1.01252e-317 0.00980761 3.23456e-318 3.75285e-05)
(0.015483 -0.175903 1.00965e-317 -0.0160332 3.0569e-318 0.000550275)
(0.0452551 -0.174616 9.99769e-318 -0.0461013 2.67577e-318 0.000846203)
(0.0741873 -0.163101 9.83441e-318 -0.0744928 2.1198e-318 0.00030543)
(0.106067 -0.126078 9.60837e-318 -0.104688 1.40663e-318 -0.00137865)
(0.125864 -0.0780711 9.31282e-318 -0.120558 5.63314e-319 -0.00530613)
(0.148213 0.0114287 8.94387e-318 -0.135435 -3.75742e-319 -0.012778)
(0.133623 0.113922 8.51073e-318 -0.107072 -1.32395e-318 -0.026551)
(0.128374 0.26973 8.01428e-318 -0.0770444 -2.08818e-318 -0.0513299)
(0.0521639 0.438989 7.59709e-318 0.0439659 -2.24597e-318 -0.0961298)
(0.0219779 0.637444 7.3637e-318 0.156339 -8.49408e-319 -0.178316)
(-0.0446682 0.842801 7.94882e-318 0.374097 3.76815e-318 -0.329429)
(-0.0381536 0.342672 8.76142e-318 0.109581 5.45731e-318 -0.0714271)
(-0.0670664 0.235386 9.15128e-318 0.107775 1.41536e-318 -0.0407087)
(-0.0781659 0.122265 9.77865e-318 0.101199 4.05233e-320 -0.0230332)
(-0.0850282 0.0465831 1.02017e-317 0.0984908 3.25342e-320 -0.0134626)
(-0.0824046 -0.0355841 1.03616e-317 0.0904244 6.74454e-319 -0.00801978)
(-0.075998 -0.0875415 1.03617e-317 0.0809766 1.4228e-318 -0.00497856)
(-0.0628364 -0.140361 1.02435e-317 0.065662 2.02682e-318 -0.00282557)
(-0.0441318 -0.173639 1.00749e-317 0.0454553 2.3963e-318 -0.00132344)
(-0.0215234 -0.201322 9.86841e-318 0.0214478 2.51646e-318 7.56183e-05)
(0.00629873 -0.21697 9.63387e-318 -0.00739995 2.41102e-318 0.00110122)
(0.0368274 -0.218997 9.36485e-318 -0.03874 2.10648e-318 0.00191261)
(0.0699578 -0.212666 9.05074e-318 -0.0719677 1.63132e-318 0.0020099)
(0.105679 -0.178783 8.68299e-318 -0.106891 1.00271e-318 0.0012119)
(0.134796 -0.1372 8.24059e-318 -0.133477 2.39933e-319 -0.00131877)
(0.166491 -0.0447854 7.73763e-318 -0.160019 -6.34711e-319 -0.00647254)
(0.166966 0.0546678 7.14089e-318 -0.15085 -1.57041e-318 -0.0161158)
(0.173297 0.232572 6.5646e-318 -0.139889 -2.43303e-318 -0.0334081)
(0.105601 0.414149 5.97866e-318 -0.0411479 -2.96211e-318 -0.0644527)
(0.0664421 0.66795 5.75638e-318 0.0558636 -2.33343e-318 -0.122306)
(-0.0356197 0.928116 6.43217e-318 0.271527 1.07193e-318 -0.235907)
(-0.0597307 0.287016 6.27128e-318 0.215307 4.47026e-318 -0.155576)
(-0.0930597 0.189551 8.01272e-318 0.175752 5.44599e-319 -0.0826928)
(-0.111737 0.0832194 9.80457e-318 0.155537 -7.66656e-319 -0.0437996)
(-0.107659 0.0127473 1.0516e-317 0.131415 -5.6908e-319 -0.0237552)
(-0.104269 -0.0685223 1.0737e-317 0.117411 1.99553e-319 -0.0131417)
(-0.0905324 -0.119451 1.05545e-317 0.0980521 1.00593e-318 -0.0075197)
(-0.0768837 -0.172783 1.02365e-317 0.0808969 1.61848e-318 -0.00401318)
(-0.0552087 -0.206293 9.86121e-318 0.0569621 1.98138e-318 -0.0017534)
(-0.0343958 -0.235062 9.47785e-318 0.0342262 2.10091e-318 0.000169598)
(-0.00616811 -0.252621 9.08988e-318 0.00454601 2.01031e-318 0.0016221)
(0.0210669 -0.257398 8.68189e-318 -0.0239937 1.73909e-318 0.00292685)
(0.0554616 -0.255399 8.22604e-318 -0.0590886 1.31261e-318 0.00362693)
(0.0888689 -0.225355 7.68758e-318 -0.0926343 7.46064e-319 0.00376541)
(0.125373 -0.188883 7.01752e-318 -0.128028 4.93423e-320 0.00265448)
(0.159508 -0.0959399 6.15837e-318 -0.159539 -7.60402e-319 3.19375e-05)
(0.179535 0.00477668 5.05434e-318 -0.174373 -1.65599e-318 -0.00516131)
(0.197269 0.20064 3.60259e-318 -0.183424 -2.53434e-318 -0.0138452)
(0.160329 0.404819 1.89666e-318 -0.131894 -3.24538e-318 -0.0284351)
(0.138735 0.705629 -1.78274e-319 -0.0853714 -3.30898e-318 -0.0533631)
(0.0358583 1.01272 -1.41686e-318 0.0619679 -2.29141e-318 -0.0978263)
(-0.0855729 0.216605 1.03285e-317 0.311405 3.29699e-318 -0.225832)
(-0.113065 0.132866 1.12783e-317 0.227675 -1.9829e-318 -0.11461)
(-0.133868 0.0389691 1.2164e-317 0.192366 -2.7823e-318 -0.058498)
(-0.120347 -0.0286993 1.20577e-317 0.150999 -1.86801e-318 -0.0306516)
(-0.116014 -0.104447 1.15037e-317 0.132445 -6.45517e-319 -0.0164312)
(-0.0960372 -0.153258 1.08036e-317 0.105159 4.11448e-319 -0.00912198)
(-0.0821983 -0.203215 1.01052e-317 0.0869662 1.13825e-318 -0.00476792)
(-0.0583357 -0.234773 9.48384e-318 0.0603822 1.55895e-318 -0.00204653)
(-0.0396084 -0.262147 8.9309e-318 0.0394117 1.72177e-318 0.000196657)
(-0.0120369 -0.279826 8.42574e-318 0.0100974 1.6821e-318 0.00193952)
(0.0119222 -0.286751 7.92956e-318 -0.0155141 1.48137e-318 0.00359189)
(0.0461988 -0.288847 7.40236e-318 -0.0509814 1.14887e-318 0.00478257)
(0.0783133 -0.265419 6.80078e-318 -0.0839872 7.03065e-319 0.00567389)
(0.120821 -0.238335 6.07025e-318 -0.126633 1.56209e-319 0.0058124)
(0.160537 -0.154381 5.17428e-318 -0.165914 -4.78789e-319 0.0053767)
(0.1987 -0.0685672 4.04105e-318 -0.202978 -1.18539e-318 0.00427838)
(0.231169 0.125657 2.67458e-318 -0.234804 -1.9012e-318 0.00363468)
(0.215498 0.312133 1.03723e-318 -0.220864 -2.59714e-318 0.00536633)
(0.192712 0.637565 -7.69473e-319 -0.20586 -3.03583e-318 0.0131483)
(0.0402602 0.951263 -1.94393e-318 -0.0656181 -3.14898e-318 0.0253578)
(-0.0945861 0.110675 1.25707e-317 0.360171 4.9481e-318 -0.265585)
(-0.131256 0.0545295 1.32228e-317 0.262194 -9.11477e-319 -0.130939)
(-0.153963 -0.0155889 1.36336e-317 0.21894 -1.85438e-318 -0.0649769)
(-0.129648 -0.0724607 1.27864e-317 0.162899 -9.14871e-319 -0.0332509)
(-0.120992 -0.137733 1.1705e-317 0.138508 1.46135e-319 -0.0175152)
(-0.0941533 -0.181396 1.06029e-317 0.103752 9.79421e-319 -0.0095986)
(-0.0796737 -0.225297 9.65261e-318 0.0846549 1.48277e-318 -0.00498122)
(-0.0549027 -0.253278 8.86758e-318 0.0570321 1.71853e-318 -0.00212938)
(-0.0398123 -0.277538 8.21369e-318 0.0395881 1.74683e-318 0.00022418)
(-0.0152454 -0.294091 7.64423e-318 0.0131549 1.62031e-318 0.00209046)
(0.00200069 -0.302077 7.10434e-318 -0.00595556 1.37686e-318 0.00395487)
(0.0325215 -0.307022 6.54138e-318 -0.0379903 1.03968e-318 0.00546888)
(0.056564 -0.290187 5.89843e-318 -0.0635042 6.24119e-319 0.00694018)
(0.100172 -0.27088 5.10679e-318 -0.108191 1.39504e-319 0.00801953)
(0.13335 -0.198339 4.08709e-318 -0.142683 -3.97614e-319 0.00933211)
(0.188531 -0.122525 2.76953e-318 -0.19995 -9.71437e-319 0.0114195)
(0.221095 0.0643524 1.00263e-318 -0.238499 -1.51899e-318 0.0174036)
(0.253547 0.25392 -1.12022e-318 -0.286848 -2.03024e-318 0.0333014)
(0.246034 0.598679 -3.90382e-318 -0.320676 -2.52155e-318 0.0746427)
(0.145636 0.956745 -6.26363e-318 -0.320189 -3.7385e-318 0.174552)
(-0.116481 0.0360725 1.91867e-317 0.394535 5.53536e-319 -0.278053)
(-0.122431 -0.0256463 1.7206e-317 0.252262 -5.36687e-318 -0.129831)
(-0.147194 -0.0808336 1.50754e-317 0.209708 -4.7941e-318 -0.0625139)
(-0.115585 -0.13452 1.29427e-317 0.147028 -2.67838e-318 -0.0314428)
(-0.106895 -0.187994 1.10629e-317 0.123309 -1.06115e-318 -0.0164142)
(-0.0772963 -0.224209 9.62883e-318 0.0862905 5.67089e-320 -0.00899421)
(-0.0639686 -0.259046 8.52254e-318 0.0686545 7.12537e-319 -0.00468595)
(-0.0401647 -0.280817 7.69318e-318 0.0421984 1.06565e-318 -0.00203363)
(-0.0287841 -0.29988 7.03835e-318 0.0285887 1.20965e-318 0.000195414)
(-0.00807345 -0.313474 6.49033e-318 0.00607627 1.21461e-318 0.00199718)
(0.0035889 -0.321352 5.98347e-318 -0.00745677 1.12276e-318 0.00386787)
(0.0293486 -0.328084 5.46272e-318 -0.034842 9.62415e-319 0.00549332)
(0.0477561 -0.318664 4.8772e-318 -0.0549904 7.50194e-319 0.00723428)
(0.0897886 -0.308768 4.16847e-318 -0.0986331 4.95405e-319 0.00884447)
(0.121914 -0.255008 3.29113e-318 -0.133044 2.10971e-319 0.0111302)
(0.186744 -0.201736 2.19407e-318 -0.201795 -9.68962e-320 0.0150515)
(0.231984 -0.0457742 8.64946e-319 -0.256784 -4.10569e-319 0.0248001)
(0.285249 0.0946278 -6.73767e-319 -0.334604 -7.70545e-319 0.0493545)
(0.296537 0.410143 -2.39686e-318 -0.408486 -1.33173e-318 0.111949)
(0.12309 0.679977 -3.94327e-318 -0.377694 -2.76075e-318 0.254605)
(-0.100569 -0.104381 2.46306e-317 0.338952 1.14396e-317 -0.238382)
(-0.129532 -0.117525 2.05675e-317 0.238295 3.56179e-318 -0.108763)
(-0.13436 -0.129297 1.6121e-317 0.185722 1.92317e-318 -0.0513618)
(-0.0972201 -0.168349 1.27242e-317 0.122826 2.13647e-318 -0.0256062)
(-0.0809216 -0.199687 1.02045e-317 0.0942846 2.38128e-318 -0.013363)
(-0.0484096 -0.227466 8.50369e-318 0.055807 2.46761e-318 -0.0073974)
(-0.0363982 -0.249691 7.3081e-318 0.0402978 2.38611e-318 -0.00389957)
(-0.0150205 -0.265259 6.46986e-318 0.0167607 2.19128e-318 -0.00174024)
(-0.00894813 -0.277585 5.84284e-318 0.00880655 1.92488e-318 0.000141586)
(0.00629415 -0.28663 5.34051e-318 -0.00797409 1.61366e-318 0.00167994)
(0.0099027 -0.292778 4.89209e-318 -0.0132518 1.27539e-318 0.00334908)
(0.0282555 -0.296997 4.44196e-318 -0.033098 9.19743e-319 0.00484252)
(0.0352624 -0.293071 3.93641e-318 -0.0418137 5.57726e-319 0.00655127)
(0.0702872 -0.285255 3.31673e-318 -0.078529 1.95991e-319 0.00824183)
(0.0870583 -0.250748 2.51674e-318 -0.0978238 -1.43887e-319 0.0107655)
(0.156489 -0.208587 1.4899e-318 -0.171525 -4.42001e-319 0.0150362)
(0.182571 -0.0931386 1.24668e-319 -0.208001 -6.50927e-319 0.0254295)
(0.288896 0.0326243 -1.44065e-318 -0.340652 -7.44982e-319 0.0517558)
(0.286626 0.305712 -3.41768e-318 -0.411051 -9.22761e-319 0.124425)
(0.270328 0.643363 -5.27784e-318 -0.600525 -1.96743e-318 0.330197)
(-0.0896542 -0.142264 2.08859e-317 0.257741 -5.49317e-318 -0.168087)
(-0.046067 -0.207272 1.5961e-317 0.118236 -7.41131e-318 -0.0721695)
(-0.0631501 -0.230117 1.10812e-317 0.0966469 -5.43377e-318 -0.0334967)
(-0.0311361 -0.259457 8.28029e-318 0.0478479 -3.18336e-318 -0.0167118)
(-0.0223109 -0.284767 6.39623e-318 0.031105 -1.85536e-318 -0.00879404)
(0.000735229 -0.29889 5.25877e-318 0.00424267 -9.93833e-319 -0.0049779)
(0.00849241 -0.312721 4.49282e-318 -0.00582069 -4.59249e-319 -0.00267172)
(0.0229281 -0.320055 3.97648e-318 -0.021682 -1.03186e-319 -0.00124609)
(0.0260466 -0.327058 3.5938e-318 -0.0261158 1.42321e-319 6.91741e-05)
(0.0354096 -0.333027 3.28595e-318 -0.0365539 3.19908e-319 0.00114426)
(0.036247 -0.3376 3.00619e-318 -0.0386171 4.55667e-319 0.00237001)
(0.047372 -0.344228 2.72024e-318 -0.0508462 5.65433e-319 0.00347423)
(0.0505345 -0.345012 2.39821e-318 -0.0553336 6.59202e-319 0.00479918)
(0.0739763 -0.34885 2.00982e-318 -0.0801038 7.41128e-319 0.00612744)
(0.0860219 -0.332977 1.53706e-318 -0.0941517 8.09512e-319 0.00812985)
(0.136692 -0.320563 9.70434e-319 -0.14808 8.55025e-319 0.0113879)
(0.166721 -0.250087 3.4513e-319 -0.185911 8.44689e-319 0.01919)
(0.244097 -0.197135 -2.78233e-319 -0.283153 7.27596e-319 0.0390562)
(0.292925 -0.0059819 -7.25145e-319 -0.389173 3.43158e-319 0.0962489)
(0.157296 0.0895104 -1.21961e-318 -0.415864 -6.84686e-319 0.258568)
(0.00591964 -0.310628 1.97131e-317 0.0424214 2.56238e-317 -0.0483411)
(-0.0328997 -0.278697 1.45277e-317 0.0572955 1.50357e-317 -0.0243959)
(-6.62239e-05 -0.215039 8.7281e-318 0.0117098 1.04955e-317 -0.0116436)
(0.025812 -0.229258 5.89514e-318 -0.0198713 7.78293e-318 -0.00594078)
(0.0379024 -0.211954 4.12376e-318 -0.0347036 6.28974e-318 -0.00319877)
(0.0585049 -0.222039 3.19887e-318 -0.0566144 5.15322e-318 -0.00189049)
(0.0601301 -0.216819 2.61903e-318 -0.0590871 4.26405e-318 -0.00104302)
(0.0695742 -0.220814 2.26167e-318 -0.0690492 3.48239e-318 -0.000524979)
(0.0662289 -0.21861 2.01302e-318 -0.0662329 2.78016e-318 3.93428e-06)
(0.0701726 -0.217015 1.82821e-318 -0.0705963 2.13016e-318 0.000423683)
(0.0638522 -0.215897 1.67331e-318 -0.0647945 1.52565e-318 0.000942255)
(0.0677364 -0.207777 1.52472e-318 -0.0691329 9.63374e-319 0.00139649)
(0.0596253 -0.206981 1.35984e-318 -0.0616028 4.49531e-319 0.00197747)
(0.0716435 -0.188885 1.15228e-318 -0.0741844 -6.16594e-321 0.00254099)
(0.0633755 -0.187651 8.69155e-319 -0.0667727 -3.79917e-319 0.0033972)
(0.103576 -0.152775 4.8538e-319 -0.108248 -6.44701e-319 0.0046719)
(0.0956324 -0.151227 -6.73066e-320 -0.103293 -7.73188e-319 0.0076609)
(0.209635 -0.0897105 -6.68812e-319 -0.224889 -7.17616e-319 0.0152536)
(0.178922 -0.083685 -1.41431e-318 -0.219661 -6.63535e-319 0.040739)
(0.334133 0.131439 -2.07838e-318 -0.491508 -9.09427e-319 0.157375)
)
;

boundaryField
{
    cavity
    {
        type            mySigma;
    }
    lid
    {
        type            fixedValue;
        value           uniform (0.1 -0.3 0 -0.1 0 0);
    }
    frontAndBack
    {
        type            empty;
    }
}


// ************************************************************************* //
