/*--------------------------------*- C++ -*----------------------------------*\
| =========                 |                                                 |
| \\      /  F ield         | foam-extend: Open Source CFD                    |
|  \\    /   O peration     | Version:  3.0                                   |
|   \\  /    A nd           | Web:         http://www.extend-project.de       |
|    \\/     M anipulation  |                                                 |
\*---------------------------------------------------------------------------*/
FoamFile
{
    version     2.0;
    format      ascii;
    class       volVectorField;
    location    "3.9";
    object      u;
}
// * * * * * * * * * * * * * * * * * * * * * * * * * * * * * * * * * * * * * //

dimensions      [0 0 0 0 0 0 0];

internalField   nonuniform List<vector> 
400
(
(-0.118424 0.346751 9.47469e-316)
(-0.315341 0.31361 8.52856e-316)
(-0.486685 0.330558 7.30118e-316)
(-0.675539 0.320701 6.77679e-316)
(-0.811988 0.297021 5.51468e-316)
(-0.95957 0.275656 5.29875e-316)
(-1.06195 0.23829 4.0904e-316)
(-1.15821 0.194111 4.06019e-316)
(-1.21452 0.15102 2.94292e-316)
(-1.25598 0.0911832 3.03237e-316)
(-1.25701 0.043524 2.0047e-316)
(-1.23828 -0.0203915 2.17844e-316)
(-1.18228 -0.0706909 1.22829e-316)
(-1.09621 -0.124111 1.45334e-316)
(-0.991269 -0.171405 5.83066e-317)
(-0.834247 -0.199339 7.97271e-317)
(-0.697072 -0.227105 5.66401e-318)
(-0.483496 -0.233518 1.32517e-317)
(-0.322937 -0.206902 -3.78331e-317)
(-0.104794 -0.230567 -6.51485e-317)
(-0.0422145 0.354808 4.15431e-316)
(-0.216152 0.291422 4.42879e-316)
(-0.329395 0.263386 4.19193e-316)
(-0.459335 0.219505 4.1964e-316)
(-0.560106 0.174658 3.76572e-316)
(-0.651162 0.140427 3.66624e-316)
(-0.721229 0.0923798 3.14679e-316)
(-0.776659 0.0594409 3.01205e-316)
(-0.810916 0.0114965 2.46829e-316)
(-0.832325 -0.0218494 2.33631e-316)
(-0.829488 -0.0740045 1.80488e-316)
(-0.815867 -0.106209 1.69492e-316)
(-0.77676 -0.167432 1.1924e-316)
(-0.723894 -0.196052 1.10428e-316)
(-0.652139 -0.265987 6.36535e-317)
(-0.55444 -0.29067 5.3695e-317)
(-0.459163 -0.355606 1.04901e-317)
(-0.312848 -0.383947 -1.09087e-317)
(-0.217765 -0.414886 -5.30283e-317)
(-0.0249451 -0.461448 -1.10624e-316)
(-0.0182443 0.713419 3.93019e-316)
(-0.233216 0.729113 4.02961e-316)
(-0.335039 0.679582 3.77601e-316)
(-0.490895 0.652735 3.63512e-316)
(-0.60366 0.570179 3.22252e-316)
(-0.707572 0.503566 3.04435e-316)
(-0.794687 0.412643 2.584e-316)
(-0.861012 0.315827 2.4166e-316)
(-0.906464 0.222054 1.95823e-316)
(-0.941162 0.108101 1.8099e-316)
(-0.938838 0.00838957 1.36695e-316)
(-0.938984 -0.107953 1.23376e-316)
(-0.887831 -0.216934 8.02896e-317)
(-0.84207 -0.31705 6.68904e-317)
(-0.748351 -0.432016 2.41719e-317)
(-0.638109 -0.492927 7.24782e-318)
(-0.525087 -0.594525 -3.48728e-317)
(-0.330347 -0.597825 -6.01897e-317)
(-0.252988 -0.641641 -9.87632e-317)
(0.0184756 -0.592075 -1.29653e-316)
(-0.0433935 0.717041 4.44793e-317)
(-0.192453 0.756906 1.32685e-316)
(-0.301982 0.644792 1.66926e-316)
(-0.381866 0.619917 1.97267e-316)
(-0.478152 0.499211 1.9957e-316)
(-0.514781 0.427578 2.01788e-316)
(-0.57985 0.323754 1.86894e-316)
(-0.598768 0.228117 1.76348e-316)
(-0.629928 0.132824 1.53587e-316)
(-0.644085 0.0268847 1.38216e-316)
(-0.641979 -0.0768796 1.13048e-316)
(-0.653299 -0.183262 9.70215e-317)
(-0.6168 -0.312402 7.26316e-317)
(-0.615867 -0.405097 5.85411e-317)
(-0.543705 -0.569328 3.75105e-317)
(-0.506888 -0.62207 2.81135e-317)
(-0.407847 -0.809003 1.39622e-317)
(-0.296916 -0.782189 1.43692e-317)
(-0.210209 -0.921296 1.3069e-317)
(-0.00174479 -0.794445 3.50224e-317)
(-0.104691 1.01404 2.04682e-316)
(-0.219149 1.06616 2.19201e-316)
(-0.401314 0.921755 2.16718e-316)
(-0.455107 0.879266 2.10356e-316)
(-0.594557 0.73728 1.96342e-316)
(-0.623123 0.629355 1.83782e-316)
(-0.71377 0.514857 1.64181e-316)
(-0.741398 0.372946 1.49154e-316)
(-0.784911 0.273856 1.27131e-316)
(-0.821022 0.115866 1.10766e-316)
(-0.818457 0.0133274 8.74845e-317)
(-0.860955 -0.148405 6.99165e-317)
(-0.808725 -0.273933 4.51887e-317)
(-0.842876 -0.420975 2.5226e-317)
(-0.735034 -0.586105 -2.36361e-318)
(-0.728459 -0.68141 -2.80597e-317)
(-0.568376 -0.88645 -6.10028e-317)
(-0.46883 -0.868939 -9.84027e-317)
(-0.291921 -1.047 -1.40235e-316)
(-0.0604697 -0.876829 -1.95438e-316)
(-0.182664 1.13282 -2.08055e-317)
(-0.181148 1.14365 4.75962e-317)
(-0.419601 0.953376 8.22591e-317)
(-0.369415 0.874839 1.10367e-316)
(-0.515861 0.720879 1.20296e-316)
(-0.466922 0.585702 1.24874e-316)
(-0.548839 0.480182 1.19874e-316)
(-0.524719 0.322161 1.12553e-316)
(-0.56172 0.237622 9.99145e-317)
(-0.572353 0.0701832 8.73786e-317)
(-0.572844 -0.025379 7.16824e-317)
(-0.621132 -0.197957 5.76522e-317)
(-0.579947 -0.337904 4.17923e-317)
(-0.660637 -0.504045 2.89512e-317)
(-0.559669 -0.720917 1.5565e-317)
(-0.651001 -0.84152 7.49812e-318)
(-0.467322 -1.14833 1.53773e-319)
(-0.51723 -1.14099 2.99168e-318)
(-0.243424 -1.44883 6.7257e-318)
(-0.173828 -1.24249 2.79125e-317)
(-0.292483 1.44501 1.87854e-316)
(-0.176155 1.34758 1.73807e-316)
(-0.524889 1.14291 1.63874e-316)
(-0.404873 0.989473 1.50461e-316)
(-0.600009 0.848593 1.39302e-316)
(-0.527514 0.662151 1.27102e-316)
(-0.629623 0.57858 1.14223e-316)
(-0.61307 0.381956 1.01496e-316)
(-0.65725 0.326283 8.70532e-317)
(-0.69735 0.123884 7.31066e-317)
(-0.696929 0.0677259 5.72172e-317)
(-0.793499 -0.144737 4.17063e-317)
(-0.740145 -0.231855 2.39145e-317)
(-0.887835 -0.451695 5.5372e-318)
(-0.750352 -0.60728 -1.59422e-317)
(-0.926289 -0.802684 -4.09851e-317)
(-0.653931 -1.06371 -6.99629e-317)
(-0.797677 -1.15255 -1.09539e-316)
(-0.337118 -1.4802 -1.52463e-316)
(-0.339129 -1.38895 -2.17227e-316)
(-0.360185 1.67084 3.32935e-318)
(-0.0983936 1.41314 4.58838e-317)
(-0.498804 1.21794 6.80941e-317)
(-0.279195 0.962678 8.6261e-317)
(-0.477127 0.863005 9.21429e-317)
(-0.339076 0.619975 9.36238e-317)
(-0.429971 0.579098 8.91049e-317)
(-0.365653 0.353335 8.19568e-317)
(-0.402821 0.334706 7.19582e-317)
(-0.407875 0.114693 6.0966e-317)
(-0.411798 0.085049 4.86406e-317)
(-0.491349 -0.149841 3.64057e-317)
(-0.452405 -0.229997 2.3771e-317)
(-0.618756 -0.494406 1.22947e-317)
(-0.49193 -0.677942 1.38876e-318)
(-0.756716 -0.954787 -6.25943e-318)
(-0.453249 -1.29803 -1.24487e-317)
(-0.802857 -1.50622 -1.06773e-317)
(-0.19363 -1.97602 -8.09987e-318)
(-0.517273 -2.01237 7.80141e-318)
(-0.41666 1.9389 2.0305e-316)
(-0.0489563 1.49457 1.68259e-316)
(-0.509626 1.33556 1.48977e-316)
(-0.243751 0.961318 1.28645e-316)
(-0.461174 0.910054 1.15196e-316)
(-0.320191 0.606416 1.01724e-316)
(-0.412478 0.60475 8.98393e-317)
(-0.36862 0.349081 7.79855e-317)
(-0.403382 0.370604 6.59362e-317)
(-0.445161 0.131512 5.37714e-317)
(-0.448508 0.157212 4.09543e-317)
(-0.582666 -0.102616 2.77742e-317)
(-0.542266 -0.096592 1.35934e-317)
(-0.786843 -0.413121 -1.89794e-318)
(-0.641517 -0.466295 -1.926e-317)
(-1.01271 -0.854686 -4.09974e-317)
(-0.632696 -1.03186 -6.58046e-317)
(-1.10909 -1.45119 -1.03242e-316)
(-0.293382 -1.81501 -1.4375e-316)
(-0.714182 -2.17396 -2.12534e-316)
(-0.367836 2.14827 3.22563e-317)
(0.0390454 1.50685 6.08562e-317)
(-0.369182 1.41615 7.3492e-317)
(-0.0802284 0.910035 8.39732e-317)
(-0.255844 0.939129 8.46694e-317)
(-0.0894021 0.566911 8.23531e-317)
(-0.151718 0.626719 7.59809e-317)
(-0.0722698 0.341356 6.78071e-317)
(-0.0927612 0.411895 5.80806e-317)
(-0.0869732 0.15908 4.76647e-317)
(-0.0942286 0.225721 3.67278e-317)
(-0.171795 -0.0547946 2.57925e-317)
(-0.154821 -0.0198846 1.49674e-317)
(-0.348432 -0.393031 4.93727e-318)
(-0.241249 -0.444326 -4.13586e-318)
(-0.610758 -0.963335 -1.0493e-317)
(-0.257133 -1.19526 -1.48643e-317)
(-0.874843 -1.85097 -1.16984e-317)
(-0.00707902 -2.37299 -6.85166e-318)
(-0.805237 -3.03223 1.07471e-317)
(-0.304069 2.2591 2.10427e-316)
(0.0998527 1.49249 1.67111e-316)
(-0.248384 1.44937 1.4348e-316)
(0.00602343 0.847068 1.20171e-316)
(-0.131046 0.917496 1.04928e-316)
(-0.00382887 0.502511 9.04852e-317)
(-0.038358 0.588307 7.83268e-317)
(0.00375971 0.291233 6.6593e-317)
(-0.00169527 0.387072 5.52842e-317)
(-0.0350441 0.134524 4.40924e-317)
(-0.0424978 0.243068 3.28602e-317)
(-0.169476 -0.0412018 2.15237e-317)
(-0.168295 0.0772333 9.87681e-318)
(-0.432298 -0.328587 -2.61137e-318)
(-0.348008 -0.215469 -1.59919e-317)
(-0.814341 -0.845414 -3.29492e-317)
(-0.455845 -0.792457 -5.16121e-317)
(-1.16993 -1.71125 -8.21946e-317)
(-0.190812 -1.91437 -1.13954e-316)
(-0.967539 -2.98498 -1.74363e-316)
(-0.120081 2.33507 4.6798e-317)
(0.130587 1.45159 7.47845e-317)
(-0.0181223 1.49775 8.26175e-317)
(0.164241 0.796823 8.88528e-317)
(0.128963 0.943348 8.52483e-317)
(0.243453 0.476888 7.95758e-317)
(0.260314 0.615895 7.09953e-317)
(0.327202 0.303879 6.14865e-317)
(0.343625 0.444906 5.13467e-317)
(0.368563 0.193967 4.10528e-317)
(0.35969 0.347808 3.08189e-317)
(0.330436 0.0593635 2.08898e-317)
(0.301609 0.221565 1.14792e-317)
(0.180869 -0.227955 3.02821e-318)
(0.190648 -0.0907931 -3.96624e-318)
(-0.104427 -0.861522 -7.91163e-318)
(0.115233 -0.859723 -8.72403e-318)
(-0.503822 -2.08399 -1.52918e-319)
(0.257506 -2.53582 1.25963e-317)
(-0.759793 -4.064 4.66949e-317)
(0.0492725 2.25477 1.98524e-316)
(0.194618 1.40042 1.62481e-316)
(0.202788 1.42031 1.39428e-316)
(0.273274 0.715802 1.16657e-316)
(0.328084 0.849347 1.00497e-316)
(0.370389 0.387248 8.54499e-317)
(0.440797 0.518257 7.27199e-317)
(0.461911 0.220743 6.07873e-317)
(0.503928 0.356805 4.96621e-317)
(0.494003 0.125838 3.90075e-317)
(0.484767 0.284883 2.87594e-317)
(0.417719 0.017272 1.88076e-317)
(0.357003 0.217065 9.13996e-318)
(0.179046 -0.224101 -6.65605e-319)
(0.115779 0.0379796 -1.03632e-317)
(-0.269986 -0.77775 -2.2152e-317)
(-0.152657 -0.455609 -3.39369e-317)
(-0.861524 -1.8488 -5.44605e-317)
(-0.123093 -1.73195 -7.36583e-317)
(-0.995622 -3.46266 -1.12034e-316)
(0.236794 2.137 5.35642e-317)
(0.132609 1.32195 9.57745e-317)
(0.424769 1.42698 9.87584e-317)
(0.40764 0.687431 1.00413e-316)
(0.595283 0.857575 9.14675e-317)
(0.62036 0.378617 8.17129e-317)
(0.747039 0.53622 7.03872e-317)
(0.788549 0.247711 5.91645e-317)
(0.852722 0.41539 4.81974e-317)
(0.902947 0.206728 3.76832e-317)
(0.896722 0.408327 2.77183e-317)
(0.949916 0.162444 1.83957e-317)
(0.865925 0.416277 9.94007e-318)
(0.906643 -0.0305942 2.69754e-318)
(0.755739 0.278612 -2.65055e-318)
(0.736522 -0.63876 -4.3633e-318)
(0.609579 -0.364785 -1.94326e-318)
(0.390008 -2.09311 1.28441e-317)
(0.527859 -2.38766 3.3608e-317)
(-0.178383 -4.91929 9.04675e-317)
(0.54696 1.97282 1.74669e-316)
(0.236788 1.25159 1.56197e-316)
(0.697302 1.21136 1.34564e-316)
(0.520445 0.581743 1.12592e-316)
(0.807418 0.687482 9.58656e-317)
(0.752374 0.269757 8.04869e-317)
(0.939042 0.392271 6.76129e-317)
(0.938024 0.14231 5.58386e-317)
(1.03021 0.276322 4.51611e-317)
(1.05268 0.0999403 3.5197e-317)
(1.04764 0.262067 2.59279e-317)
(1.07257 0.0546279 1.72443e-317)
(0.953311 0.269631 9.20662e-318)
(0.941429 -0.121431 1.61842e-318)
(0.689338 0.190405 -5.25566e-318)
(0.548812 -0.649873 -1.29189e-317)
(0.2395 -0.179535 -1.9808e-317)
(-0.212349 -1.79259 -3.23659e-317)
(-0.122504 -1.33526 -4.35403e-317)
(-0.912868 -3.27705 -6.49323e-317)
(0.440157 1.57443 1.36299e-316)
(0.150629 1.20713 1.65843e-316)
(0.860408 1.21062 1.45915e-316)
(0.72469 0.598372 1.29709e-316)
(1.13363 0.680736 1.0933e-316)
(1.08924 0.27572 9.16768e-317)
(1.31579 0.395512 7.56569e-317)
(1.33182 0.176241 6.13954e-317)
(1.43683 0.328074 4.85721e-317)
(1.51147 0.190745 3.68674e-317)
(1.51471 0.391162 2.61837e-317)
(1.66033 0.229243 1.64317e-317)
(1.54194 0.509491 7.7753e-318)
(1.78394 0.160511 4.86729e-319)
(1.47701 0.562429 -4.6969e-318)
(1.85883 -0.310381 -5.89073e-318)
(1.25957 0.193942 -2.64045e-318)
(1.80756 -1.81248 1.48288e-317)
(0.799689 -1.83049 3.82338e-317)
(1.18215 -5.55895 1.04754e-316)
(1.13838 1.55728 1.46672e-316)
(0.249428 0.965323 1.20761e-316)
(1.03874 0.825217 1.03477e-316)
(0.69172 0.395672 8.45299e-317)
(1.11846 0.440824 7.25082e-317)
(1.01268 0.145026 6.10619e-317)
(1.26341 0.229417 5.18601e-317)
(1.24881 0.0625865 4.33235e-317)
(1.36844 0.161388 3.55773e-317)
(1.41136 0.0559846 2.83539e-317)
(1.4179 0.176243 2.16842e-317)
(1.51386 0.0537259 1.55792e-317)
(1.37898 0.211738 1.01511e-317)
(1.51973 -0.0501296 5.30932e-318)
(1.15247 0.17708 1.19383e-318)
(1.28876 -0.470273 -3.36975e-318)
(0.600428 -0.106223 -8.03521e-318)
(0.49359 -1.47259 -1.85594e-317)
(-0.121213 -0.931546 -3.12708e-317)
(-1.11924 -2.07932 -6.00942e-317)
(0.269331 0.700254 4.91577e-316)
(0.477858 1.25153 3.65665e-316)
(1.49723 0.906807 2.75095e-316)
(1.43927 0.531394 2.08414e-316)
(2.05554 0.461666 1.62883e-316)
(1.96744 0.173103 1.28218e-316)
(2.26851 0.235863 1.01608e-316)
(2.2544 0.102417 7.95067e-317)
(2.38326 0.217887 6.06917e-317)
(2.48358 0.154561 4.39834e-317)
(2.5054 0.320315 2.89484e-317)
(2.7609 0.251109 1.52049e-317)
(2.65652 0.499773 2.80853e-318)
(3.1386 0.303481 -7.97947e-318)
(2.75759 0.701617 -1.63601e-317)
(3.61373 0.0440753 -2.02601e-317)
(2.5208 0.694932 -1.87269e-317)
(4.08742 -1.3246 -1.65646e-318)
(1.25485 -0.754622 2.26466e-317)
(3.9074 -6.14201 8.69462e-317)
(1.7984 1.06402 -1.00226e-316)
(0.243826 0.248651 -9.40771e-317)
(0.790466 0.255308 -5.96796e-317)
(0.45629 0.0666308 -4.00537e-317)
(0.66532 0.12465 -2.40535e-317)
(0.600086 0.0159063 -1.40784e-317)
(0.748091 0.0574297 -6.7259e-318)
(0.736569 -0.00486153 -1.62775e-318)
(0.81704 0.0298405 2.21681e-318)
(0.826947 -0.00852943 5.2187e-318)
(0.840161 0.0256464 7.78352e-318)
(0.868051 -0.0173089 1.02267e-317)
(0.791388 0.0153841 1.26976e-317)
(0.833985 -0.0767596 1.5178e-317)
(0.600003 -0.0573808 1.73628e-317)
(0.63315 -0.281997 1.77761e-317)
(0.199147 -0.319065 1.51396e-317)
(-0.0452516 -0.693631 1.74934e-318)
(-0.069119 -0.793138 -1.97974e-317)
(-2.57544 0.758409 -7.74474e-317)
(-0.434821 -0.42503 1.36633e-315)
(1.52115 1.75321 8.21512e-316)
(3.31844 0.746103 5.81511e-316)
(3.37938 0.56893 4.16079e-316)
(4.50204 0.35749 3.21123e-316)
(4.26905 0.112981 2.50688e-316)
(4.734 0.146715 1.98179e-316)
(4.64325 0.0556402 1.54478e-316)
(4.82556 0.157318 1.16956e-316)
(4.99449 0.134259 8.33585e-317)
(5.06687 0.285805 5.27259e-317)
(5.58996 0.270197 2.43642e-317)
(5.55949 0.502318 -1.70778e-318)
(6.588 0.402207 -2.51369e-317)
(6.20783 0.788622 -4.45465e-317)
(8.01172 0.269266 -5.72161e-317)
(6.25076 1.04046 -6.03921e-317)
(9.45866 -1.11762 -4.2935e-317)
(2.93827 0.679741 -1.3678e-317)
(9.37996 -7.22677 5.52949e-317)
)
;

boundaryField
{
    cavity
    {
        type            myImplicitVelocity;
    }
    lid
    {
        type            fixedValue;
        value           uniform (1 0 0);
    }
    frontAndBack
    {
        type            empty;
    }
}


// ************************************************************************* //
