/*--------------------------------*- C++ -*----------------------------------*\
| =========                 |                                                 |
| \\      /  F ield         | foam-extend: Open Source CFD                    |
|  \\    /   O peration     | Version:  3.0                                   |
|   \\  /    A nd           | Web:         http://www.extend-project.de       |
|    \\/     M anipulation  |                                                 |
\*---------------------------------------------------------------------------*/
FoamFile
{
    version     2.0;
    format      ascii;
    class       volVectorField;
    location    "4";
    object      u;
}
// * * * * * * * * * * * * * * * * * * * * * * * * * * * * * * * * * * * * * //

dimensions      [0 0 0 0 0 0 0];

internalField   nonuniform List<vector> 
672
(
(0.2421007016 -0.08959897544 -5.567942438e-19)
(0.492291418 -0.06209408833 2.5793037e-18)
(0.6675743763 -0.04424257787 1.13011085e-17)
(0.7707897308 -0.03147296014 -6.332144081e-18)
(0.8543159484 -0.02245479851 5.176456067e-18)
(0.9005565996 -0.01550376585 1.595586725e-18)
(0.9451680392 -0.01003556973 2.191478831e-18)
(0.9640983503 -0.005549410793 -2.229790777e-18)
(0.9891887029 -0.001446969878 5.569706543e-18)
(0.9922778764 0.002110571634 9.186072552e-18)
(1.005781971 0.005974803156 -3.508613489e-18)
(0.9983448946 0.01155158485 4.563947568e-19)
(0.283333671 -0.2715020485 -2.203520079e-18)
(0.5213589728 -0.1903550839 2.798531318e-18)
(0.6887805653 -0.137831467 1.303395654e-17)
(0.7863812896 -0.1005569287 -7.606536592e-18)
(0.8659753911 -0.07448655677 -1.93390625e-18)
(0.9092016105 -0.0547185937 -3.8943155e-18)
(0.9514792304 -0.03945140712 -2.06499048e-17)
(0.9685169143 -0.02736455651 1.153557987e-17)
(0.9919428684 -0.0165692765 1.06026704e-17)
(0.9936403866 -0.007857866529 -5.332729917e-18)
(1.00582281 0.001197483919 -1.173936177e-17)
(0.9967544993 0.0130021862 2.051507731e-17)
(0.3641472527 -0.4397551204 -8.265593601e-18)
(0.5784794251 -0.3089659568 2.11874939e-18)
(0.730576176 -0.224366092 3.88004363e-18)
(0.8172776158 -0.164428361 1.175296515e-17)
(0.8892667323 -0.1225904018 -7.049489095e-18)
(0.9267207845 -0.09096988418 1.499181275e-17)
(0.9645531903 -0.06663932029 1.538076407e-17)
(0.9780666659 -0.04754352523 3.416011164e-17)
(0.9983592248 -0.0305901468 -9.681400698e-18)
(0.9975223093 -0.01721927686 1.245720868e-17)
(1.007160112 -0.003525323809 -4.208163564e-18)
(0.9949554263 0.01389111132 1.173370768e-17)
(0.4805059325 -0.5859912335 4.209560135e-18)
(0.6607154934 -0.4119851194 -3.614325761e-18)
(0.7907647811 -0.2994770213 -4.091269789e-18)
(0.8618072563 -0.2198457582 7.574832032e-19)
(0.9228866926 -0.1643307228 -1.678490895e-17)
(0.9520762485 -0.1224565202 9.459647063e-18)
(0.9835487619 -0.0903003538 -2.71866723e-17)
(0.9920500503 -0.0651617062 2.07293089e-17)
(1.007867599 -0.04287965541 5.640302812e-18)
(1.003494144 -0.0254547478 2.707449104e-17)
(1.009583024 -0.007784421209 2.265454388e-18)
(0.9930291695 0.01425273883 4.217992061e-17)
(0.6266906404 -0.7028565087 2.011648798e-17)
(0.7640735588 -0.4942567307 2.019691304e-18)
(0.866460761 -0.3594172894 9.360793724e-20)
(0.9178698058 -0.2640390825 3.438566973e-18)
(0.9652883687 -0.197597144 5.213371842e-18)
(0.9841582941 -0.1475263553 1.968588214e-17)
(1.00773399 -0.1091238795 -1.715011428e-17)
(1.010083938 -0.07916653653 6.502021317e-18)
(1.020480854 -0.05268970049 1.829141141e-17)
(1.011895123 -0.03216305609 -4.206554734e-17)
(1.013645488 -0.01147491547 -4.785026245e-18)
(0.9914883715 0.01377063235 5.753125019e-18)
(0.7954457875 -0.7845276649 1.913150386e-18)
(0.8833440246 -0.5516229684 4.012996299e-18)
(0.9537908781 -0.4011194904 -1.999117966e-17)
(0.9825455431 -0.2947393467 1.164928174e-18)
(1.014220104 -0.220714258 -1.674432824e-17)
(1.021200784 -0.1650232715 1.185598895e-17)
(1.035658711 -0.1224108174 -3.021387665e-17)
(1.030864116 -0.08927099626 -2.124672759e-17)
(1.034857365 -0.06001106735 1.026669101e-17)
(1.02124055 -0.0373071519 5.405784182e-17)
(1.017675764 -0.01413828867 -5.509269993e-17)
(0.9893231042 0.01335382824 3.687447169e-17)
(0.9784017667 -0.8268392846 -2.106348112e-18)
(1.012656149 -0.581212796 2.611006574e-18)
(1.04848848 -0.4225237465 -1.505713537e-17)
(1.052694514 -0.310420143 -1.903855514e-17)
(1.067317333 -0.2324647165 2.495212516e-17)
(1.061410438 -0.1738561657 9.082119392e-18)
(1.066002492 -0.1290705406 2.070859888e-17)
(1.053483107 -0.09430231506 -3.032418337e-18)
(1.050698507 -0.06375896649 -1.515077703e-18)
(1.031867519 -0.0402818306 -2.771431806e-17)
(1.02283849 -0.01623308409 3.094463876e-17)
(0.9887198512 0.01119451572 8.569979086e-18)
(1.166490142 -0.8276406203 5.588767471e-18)
(1.145533989 -0.5814622808 -4.097263085e-18)
(1.145773833 -0.4224595755 -8.717455251e-19)
(1.124764917 -0.3102210784 -8.537207379e-18)
(1.121926752 -0.2322472796 2.653721595e-18)
(1.102879015 -0.1737089788 7.007765826e-18)
(1.097475581 -0.129051224 2.333382288e-17)
(1.077173351 -0.09447054118 2.380314733e-18)
(1.067503684 -0.0640890366 6.180405748e-18)
(1.043190235 -0.04083719593 3.221886072e-17)
(1.028200328 -0.01674507322 -2.524100419e-17)
(0.9879528444 0.009863396236 4.860141004e-18)
(1.350325628 -0.786801313 9.165618744e-18)
(1.275393491 -0.5523740357 -5.308124264e-18)
(1.240848207 -0.4009945678 -8.728042347e-18)
(1.195191676 -0.2942254359 1.000156654e-17)
(1.175286185 -0.2201180602 -2.391527123e-17)
(1.143360007 -0.1645625796 5.490295812e-18)
(1.128124962 -0.1222700615 -1.22463006e-17)
(1.100136221 -0.0896530168 1.500311715e-17)
(1.083676265 -0.06110414236 -4.265904836e-18)
(1.054143531 -0.03949007789 -3.920712057e-17)
(1.033682252 -0.01696920479 1.180662897e-17)
(0.9882872169 0.007382160542 -2.319146719e-17)
(1.520776622 -0.7062744321 6.285629214e-18)
(1.395734539 -0.4952774352 6.93897251e-19)
(1.328930408 -0.35905827 1.674642021e-17)
(1.260438167 -0.2630897326 3.156511938e-18)
(1.224768582 -0.196546367 5.059021204e-18)
(1.180987703 -0.1467491447 -2.46515468e-17)
(1.156741585 -0.1089134184 4.150324239e-18)
(1.121744949 -0.07983509677 8.317271269e-20)
(1.099073721 -0.05443685378 -1.596652665e-17)
(1.064761462 -0.03539439101 -1.624406968e-17)
(1.039242057 -0.01552922607 1.413122451e-17)
(0.9893892238 0.005090653972 -4.581208482e-18)
(1.669291091 -0.5900266552 -1.173983138e-18)
(1.500571959 -0.413074766 -7.180955304e-19)
(1.405670151 -0.2988543297 8.963992392e-19)
(1.31728786 -0.2185078042 -6.015878432e-18)
(1.267913172 -0.1628552903 5.767678713e-18)
(1.213823429 -0.1213030189 -1.114412849e-17)
(1.181769533 -0.08980596338 -9.361047264e-19)
(1.140737396 -0.06570926653 -6.322441455e-18)
(1.112773906 -0.04473554167 -1.955867665e-18)
(1.074517639 -0.0292112716 6.122260752e-18)
(1.044667063 -0.012960911 1.128970386e-18)
(0.9913835422 0.002939627662 -2.594106275e-18)
(1.788451897 -0.4437595607 -7.477425432e-18)
(1.584640784 -0.3097366765 -1.864529503e-18)
(1.467200844 -0.2232346769 3.570628028e-18)
(1.36288087 -0.1625447105 4.453476086e-18)
(1.302574997 -0.1205668376 4.511368568e-18)
(1.240294551 -0.08934427829 -5.000253583e-18)
(1.202068476 -0.0657773367 1.186342995e-17)
(1.156276598 -0.04788769014 -1.193272653e-17)
(1.124089967 -0.03244054282 -6.257351855e-18)
(1.082645217 -0.02120432698 -3.473470285e-18)
(1.049028816 -0.00938937532 1.264933605e-17)
(0.9935249141 0.001231122808 -1.015890526e-17)
(1.872244166 -0.2747855839 -4.165722434e-18)
(1.64374958 -0.1905138567 -1.310942292e-18)
(1.510490585 -0.1361137608 1.812796375e-18)
(1.394984423 -0.09815935611 1.254956341e-18)
(1.327047823 -0.07195906475 -1.234186655e-20)
(1.259043285 -0.05262705438 -1.470801099e-18)
(1.216536393 -0.03813998649 2.050210113e-19)
(1.16744959 -0.02732040942 -6.357070403e-18)
(1.132431417 -0.01812544956 -2.38199356e-19)
(1.088969405 -0.01173004347 -2.738044415e-18)
(1.052815309 -0.004993291401 4.262247545e-18)
(0.996831398 3.15228905e-05 -2.878558589e-18)
(1.916432158 -0.09146626998 -1.99303078e-18)
(1.674906437 -0.06124723808 -7.111498738e-19)
(1.533349635 -0.04170615974 6.143420941e-19)
(1.411988878 -0.02841885951 8.226210391e-19)
(1.340133032 -0.01930533583 5.721202298e-19)
(1.269224759 -0.01282378002 -7.326957054e-19)
(1.224605497 -0.008116388732 -4.14420715e-19)
(1.173927297 -0.004885041668 -2.825560055e-18)
(1.137503015 -0.002364763972 -2.082355656e-18)
(1.093004515 -0.001113978013 -1.664247832e-18)
(1.055164924 0.000134781313 1.442041324e-18)
(0.9995559413 -0.0002707238772 -2.058888586e-18)
(1.918754149 0.09696604564 -1.587231028e-19)
(1.676554695 0.07148241358 -2.528639875e-20)
(1.534665579 0.05511769885 -6.026644854e-19)
(1.413079727 0.04301571182 1.420381374e-18)
(1.341197061 0.03456472195 6.978471005e-19)
(1.270297819 0.02783367352 -2.896790462e-19)
(1.225771158 0.02248728366 6.356076084e-19)
(1.17519647 0.01790146946 -2.924737609e-18)
(1.138887865 0.01354235784 -2.497792938e-18)
(1.094579323 0.009552133911 -1.780431383e-18)
(1.05651398 0.00519659636 8.474555549e-19)
(1.002729474 -0.0001151527971 -3.049810222e-18)
(1.879019881 0.2811174372 1.84202944e-18)
(1.648581638 0.201118542 7.557816812e-19)
(1.514366207 0.1496289763 -1.383628536e-18)
(1.398211255 0.1127099648 1.62139809e-18)
(1.330201103 0.0871226505 1.689244559e-18)
(1.262237404 0.06753469255 -6.633153791e-19)
(1.220019082 0.05245276757 3.125696194e-18)
(1.17127324 0.04034659942 -5.814991089e-18)
(1.136594061 0.02941906225 -2.948183618e-18)
(1.093638385 0.02044927406 -9.054616753e-19)
(1.056587411 0.01062625856 1.227165888e-18)
(1.005618506 0.0008438388083 -7.121618155e-18)
(1.799200968 0.4516599496 4.506087471e-18)
(1.592388294 0.3210375028 1.559130527e-18)
(1.473484594 0.2369464095 6.600749801e-19)
(1.368157787 0.1770123096 -2.762587537e-18)
(1.307741558 0.1355534142 3.494612757e-18)
(1.245515344 0.1040575409 -5.180683837e-18)
(1.207726296 0.07995157186 -2.694845704e-18)
(1.16245854 0.06085377154 -9.682342813e-18)
(1.130825972 0.04378832121 1.976093345e-18)
(1.090257589 0.03020671117 -5.077631665e-18)
(1.055354484 0.0153153475 -1.095304497e-18)
(1.007890139 0.002155340638 -6.858920495e-18)
(1.683228303 0.600024873 2.64371514e-19)
(1.510786333 0.4252797077 3.310946953e-18)
(1.414095614 0.3127855514 3.518683413e-18)
(1.32445404 0.2328214905 9.445159242e-19)
(1.274943908 0.1775800426 6.401757208e-18)
(1.220894453 0.1357819374 -3.831578776e-18)
(1.18933042 0.1039225789 1.441459506e-17)
(1.14888553 0.07889079801 -3.342775123e-18)
(1.1215188 0.05669049288 -1.988761243e-18)
(1.084378485 0.03931865581 -7.750665235e-18)
(1.053132276 0.02016029992 -5.609965607e-19)
(1.010164405 0.004446649106 -1.642019465e-17)
(1.536943492 0.7186523147 -7.667237377e-18)
(1.407869495 0.5084813254 -3.300718292e-21)
(1.339178904 0.3731980833 1.61753472e-18)
(1.26931736 0.2771907811 -4.098347521e-19)
(1.233540512 0.2109392344 -4.204549238e-18)
(1.189825363 0.160940435 -9.371889291e-18)
(1.166138878 0.1229300423 1.080266587e-17)
(1.131812558 0.09322317413 3.0166624e-18)
(1.109728917 0.06692984398 -7.344983309e-18)
(1.076550408 0.04656433555 2.269691364e-17)
(1.049450096 0.02393392813 6.325985196e-18)
(1.010553681 0.006296429642 -3.303325651e-19)
(1.367650862 0.8015175275 2.245375579e-18)
(1.288833982 0.5664857352 -1.840265211e-18)
(1.252554009 0.4152143837 1.435791012e-17)
(1.205563406 0.3079675616 3.900954453e-19)
(1.185605062 0.2340092169 9.976637178e-18)
(1.153734154 0.1782702914 -6.265644328e-18)
(1.139033341 0.1359451268 1.848814347e-17)
(1.111636345 0.1029696648 1.688520709e-17)
(1.095675502 0.07383382626 -2.758540285e-18)
(1.067177878 0.05156135797 -3.609225132e-17)
(1.045238961 0.02670226403 3.654335507e-17)
(1.011157721 0.008390581643 -2.387461299e-17)
(1.183913493 0.8443564192 1.318995972e-18)
(1.159654137 0.5962538983 -1.78842395e-18)
(1.158541982 0.4365922896 9.626287327e-18)
(1.136369709 0.3234910975 1.549367e-17)
(1.133559309 0.2455596782 -2.175197558e-17)
(1.114538465 0.1869174147 -5.767806167e-18)
(1.109567455 0.1424720583 -2.224457785e-17)
(1.089637686 0.1079641124 4.814145213e-19)
(1.080177048 0.07753325882 5.343431991e-18)
(1.056468919 0.05442414858 3.120281753e-17)
(1.039722 0.02834579433 -2.713514845e-17)
(1.010230089 0.009995791593 -3.677416561e-20)
(0.9949759047 0.8449199867 -9.879643396e-18)
(1.026892136 0.5962932706 3.728785054e-18)
(1.061966091 0.4363078507 -4.08355516e-18)
(1.065314583 0.3230398915 5.016482995e-18)
(1.080104309 0.2450352993 2.312292928e-18)
(1.07425067 0.1863875708 -2.095682583e-18)
(1.079243956 0.1419973329 -2.241172383e-17)
(1.066976338 0.1076079734 -2.058010088e-18)
(1.064245107 0.07735700768 -9.376473751e-19)
(1.045549836 0.05452359606 -2.671093137e-17)
(1.034219407 0.02846015746 3.177200778e-17)
(1.008840963 0.01105965249 3.845293661e-18)
(0.8104147785 0.8031152971 -1.586259082e-17)
(0.8972115593 0.5664933275 3.787928972e-18)
(0.9676283622 0.414245111 6.665259439e-18)
(0.9959032995 0.3065093982 -1.760678919e-17)
(1.027873697 0.2323526694 3.1790962e-17)
(1.034885283 0.176645232 -1.045553243e-19)
(1.049610312 0.1345162732 2.002533545e-17)
(1.044835403 0.1019084324 -1.567247168e-17)
(1.048656013 0.07322468974 1.320680952e-17)
(1.034797171 0.0515901085 6.246687431e-17)
(1.028777267 0.02669776894 -2.1068838e-17)
(1.006897082 0.01112374426 3.388330542e-17)
(0.6395709464 0.7209523897 -1.249939689e-17)
(0.7772311864 0.5083518024 -4.80204789e-18)
(0.8803851624 0.3715585009 -3.199266239e-17)
(0.931732478 0.2747889328 -5.296193091e-18)
(0.9795727721 0.2081940465 -1.743133809e-17)
(0.9984329116 0.1581794011 4.360174958e-17)
(1.022070181 0.1203799282 -1.13479079e-17)
(1.024118031 0.09115011507 6.217780792e-18)
(1.033882375 0.06552468654 2.51868292e-17)
(1.024493832 0.04630078436 1.608668712e-17)
(1.023598761 0.02419784773 -2.774040306e-17)
(1.004915979 0.01116472152 1.050995287e-18)
(0.4911091291 0.6025496112 1.837754974e-18)
(0.6729679903 0.4247165519 2.594803302e-19)
(0.8045688278 0.3102860573 2.461547537e-18)
(0.8759684453 0.2293647017 1.185535807e-17)
(0.9376059543 0.1736899902 -1.857562131e-17)
(0.9667847271 0.1319118408 1.402158e-17)
(0.9981996753 0.1003563123 -6.272198919e-18)
(1.006215465 0.07598974081 1.609939794e-17)
(1.021145866 0.05457151429 -5.362982947e-18)
(1.015523953 0.03846335679 -2.456006019e-17)
(1.018935422 0.0199060512 -6.57910474e-18)
(1.002541736 0.00920169086 4.316443768e-18)
(0.3725864711 0.4537981115 1.935229931e-17)
(0.5897750437 0.3197883421 2.999640487e-18)
(0.7441035583 0.2335278426 -8.474833147e-18)
(0.8315140264 0.1725326361 -1.876462213e-17)
(0.9041556829 0.1305443947 -1.282805339e-17)
(0.9415533759 0.0990208371 4.742566885e-18)
(0.9791661611 0.07518570294 -4.37151494e-17)
(0.9919316705 0.05677648941 3.039242919e-17)
(1.011044267 0.04062323524 9.610638552e-18)
(1.008477089 0.02858900925 6.716521902e-18)
(1.015454805 0.01490887597 -4.524708453e-17)
(1.001065063 0.007546555427 3.196625613e-17)
(0.2899997231 0.2822128274 7.403195257e-18)
(0.531797268 0.1988119404 3.287137007e-19)
(0.7019592345 0.1450824165 -4.250347829e-18)
(0.8005214164 0.1070946851 -1.794661056e-18)
(0.8808227992 0.08091792302 5.846470928e-18)
(0.9239244371 0.06126608543 -7.644990367e-19)
(0.9658086551 0.04639440494 3.163597917e-18)
(0.9817981967 0.03491688133 7.94889268e-18)
(1.00369422 0.02483344514 -1.600504515e-17)
(1.003122264 0.01731980005 3.182573631e-18)
(1.012480923 0.008794476854 -1.468105836e-17)
(0.9995427264 0.004622397081 4.683679824e-18)
(0.2475946188 0.09639947637 2.879339594e-18)
(0.5020640188 0.06785975281 -1.372654677e-18)
(0.6803766461 0.04938288096 -7.926776133e-18)
(0.7846749524 0.03631241738 3.359425159e-18)
(0.8689167682 0.02724139646 -4.798008261e-18)
(0.9149579555 0.02040904331 -5.647582806e-19)
(0.9590607214 0.01519717524 1.519131856e-18)
(0.9767406889 0.01116566304 -6.838188273e-18)
(1.000136599 0.007615478873 -6.066499296e-20)
(1.000630802 0.004977791782 -3.517255114e-18)
(1.011237843 0.002038823607 -3.823575522e-18)
(0.9988459631 0.001283118586 2.223841847e-18)
(0.2474778098 -0.09424623526 7.468615882e-19)
(0.5019901901 -0.06648326198 -2.418346401e-18)
(0.680335879 -0.04877876729 -1.13460902e-17)
(0.7846528551 -0.0362763139 6.614611601e-18)
(0.868909001 -0.02778427099 -5.221429754e-18)
(0.9149483467 -0.02145350778 -1.497440998e-18)
(0.9590411394 -0.01673878803 -2.33457743e-18)
(0.9766875218 -0.01313480226 2.645820341e-18)
(1.00005345 -0.009978457622 -5.458309148e-18)
(1.000521162 -0.007645683167 -9.176787411e-18)
(1.011168656 -0.004841390802 3.595834684e-18)
(0.9988063109 -0.002106909439 -4.474657559e-21)
(0.2897206729 -0.2801231554 2.452380006e-18)
(0.5316915781 -0.197477985 -2.633389685e-18)
(0.7019797946 -0.1445094584 -1.313631667e-17)
(0.8006215105 -0.1070821239 7.931320897e-18)
(0.8809905617 -0.08147323118 1.980474527e-18)
(0.9241417927 -0.06230528038 4.071679875e-18)
(0.9660794628 -0.04790866172 2.12857524e-17)
(0.982096374 -0.03684434473 -1.146457777e-17)
(1.004059337 -0.02717569117 -1.093028215e-17)
(1.003498082 -0.02006713833 5.669491812e-18)
(1.012946136 -0.01190904262 1.173768026e-17)
(0.9998045745 -0.005978040742 -1.994925453e-17)
(0.3721135041 -0.4518627785 8.633119388e-18)
(0.5895477229 -0.3185377217 -1.979702377e-18)
(0.7440652728 -0.2330036626 -3.737380285e-18)
(0.8315984223 -0.1725600715 -1.198651483e-17)
(0.9043486173 -0.1311443625 7.402458071e-18)
(0.9418196201 -0.1001370467 -1.494567383e-17)
(0.9795017755 -0.07681207644 -1.56821994e-17)
(0.992284328 -0.05887874836 -3.43736353e-17)
(1.011444984 -0.04313843611 1.014204196e-17)
(1.008861178 -0.03147089292 -1.24464468e-17)
(1.01599321 -0.0181140194 3.872291243e-18)
(1.001344463 -0.008731579018 -1.087544267e-17)
(0.4905291957 -0.6007898367 -4.062564152e-18)
(0.6727469492 -0.4235864059 3.875811624e-18)
(0.8046257888 -0.3098502058 4.356108595e-18)
(0.8762144387 -0.2294591809 -6.829808512e-19)
(0.9380183573 -0.174329109 1.720519593e-17)
(0.9673297939 -0.1330221262 -9.49304521e-18)
(0.9988757767 -0.1019226512 2.78698505e-17)
(1.006987547 -0.07798379347 -2.060474203e-17)
(1.022066572 -0.05700675281 -5.347741864e-18)
(1.016561312 -0.04144478153 -2.686864989e-17)
(1.020335132 -0.02373944681 -2.149210401e-18)
(1.003531896 -0.01149602317 -4.127337011e-17)
(0.6389062873 -0.7194603484 -2.020107635e-17)
(0.7769634608 -0.5073706036 -1.901218461e-18)
(0.8804469708 -0.3712105406 1.179056053e-20)
(0.9320351808 -0.2749540157 -3.355040216e-18)
(0.9801041708 -0.2089128876 -5.226960058e-18)
(0.9991726147 -0.1594171352 -1.986152269e-17)
(1.023031896 -0.1221281937 1.723350857e-17)
(1.025291188 -0.09338718275 -6.339544297e-18)
(1.035302287 -0.06816897882 -1.886033258e-17)
(1.026119349 -0.04933911248 4.254728972e-17)
(1.025686012 -0.02791738617 4.20520711e-18)
(1.006068859 -0.01313443282 -5.329928806e-18)
(0.8097405855 -0.8018686476 -1.788127892e-18)
(0.8970197807 -0.5656865977 -3.939814123e-18)
(0.9678409537 -0.4140230512 2.027875886e-17)
(0.9964189817 -0.3067691449 -1.133689608e-18)
(1.028666058 -0.2331373885 1.703628282e-17)
(1.035927104 -0.1779141421 -1.195579751e-17)
(1.050908466 -0.1362811628 3.025404111e-17)
(1.046396042 -0.1041600096 2.161200369e-17)
(1.050540844 -0.07598132085 -9.934892743e-18)
(1.037071981 -0.0548861931 -5.439314414e-17)
(1.031718195 -0.03083966913 5.528087814e-17)
(1.00874529 -0.01394548515 -3.657247827e-17)
(0.9943681123 -0.8439808523 2.235288297e-18)
(1.026768524 -0.5956575111 -2.56254973e-18)
(1.062280416 -0.4361745374 1.51402068e-17)
(1.065982501 -0.3233523041 1.919196892e-17)
(1.081112516 -0.2458668201 -2.506769453e-17)
(1.075589795 -0.1877339712 -8.930387589e-18)
(1.080932249 -0.1438892731 -2.097923771e-17)
(1.069017203 -0.1100424375 3.035816097e-18)
(1.066692744 -0.08032165312 1.634582406e-18)
(1.048400605 -0.05795695979 2.80654994e-17)
(1.03767191 -0.03245291632 -3.121231632e-17)
(1.011104882 -0.01388768003 -8.076459188e-18)
(1.183417168 -0.8436735536 -5.475736435e-18)
(1.159702985 -0.5958025454 4.107761565e-18)
(1.159084634 -0.4365788141 8.868844527e-19)
(1.137320667 -0.3238719653 8.474570299e-18)
(1.134892637 -0.2464063182 -2.552252035e-18)
(1.116239449 -0.18821792 -6.881210513e-18)
(1.111669528 -0.1442561132 -2.311571031e-17)
(1.092160842 -0.1102488674 -2.456738736e-18)
(1.083281821 -0.08034978778 -6.152247733e-18)
(1.060183164 -0.05785984716 -3.183684561e-17)
(1.044303226 -0.03245510837 2.48464811e-17)
(1.013852661 -0.01330540102 -4.39077755e-18)
(1.367379386 -0.8010965239 -9.031838488e-18)
(1.289089626 -0.5661641256 5.258600266e-18)
(1.253320311 -0.4152346192 8.502696024e-18)
(1.206786309 -0.3083258963 -9.79272125e-18)
(1.187275213 -0.2348079701 2.346735195e-17)
(1.155870748 -0.1795371995 -5.044123004e-18)
(1.141668489 -0.137733216 1.195358139e-17)
(1.114789075 -0.1053359821 -1.457460267e-17)
(1.099407284 -0.07674624536 4.591742995e-18)
(1.071397286 -0.05506467073 3.904696285e-17)
(1.050222016 -0.03072737635 -1.186079549e-17)
(1.015004795 -0.01135678525 2.380847243e-17)
(1.536909504 -0.7184340038 -6.167513657e-18)
(1.408406337 -0.5082948132 -6.937783773e-19)
(1.340257111 -0.3732794636 -1.632146604e-17)
(1.270885636 -0.2775431087 -3.150566653e-18)
(1.235565795 -0.211664949 -4.614480328e-18)
(1.192308483 -0.1620608689 2.399623156e-17)
(1.169091491 -0.1244961298 -3.94552983e-18)
(1.135270733 -0.09530551949 1.889249461e-19)
(1.113841049 -0.06953664748 1.576971062e-17)
(1.081426424 -0.04986132744 1.613553822e-17)
(1.055768972 -0.02799505876 -1.442487055e-17)
(1.016378635 -0.00982898824 5.153228021e-18)
(1.683552659 -0.5999443798 1.12383715e-18)
(1.51166056 -0.4251080471 6.454514827e-19)
(1.415511482 -0.3127759354 -1.168995887e-18)
(1.326395535 -0.2329989945 5.491886422e-18)
(1.277396722 -0.1780645931 -5.451989226e-18)
(1.223906294 -0.1365974377 1.105086744e-17)
(1.192920482 -0.1051190872 6.344870487e-19)
(1.153133186 -0.08051375912 6.179575388e-18)
(1.126466468 -0.05869543384 1.76680312e-18)
(1.090074389 -0.04181649367 -5.70632314e-18)
(1.060187741 -0.02322349131 -1.81061108e-18)
(1.016418947 -0.007284254672 3.174651291e-18)
(1.799875433 -0.4516647769 7.092473113e-18)
(1.593640024 -0.320883884 1.703625633e-18)
(1.475285601 -0.2368783206 -3.593981601e-18)
(1.370501718 -0.1770560675 -4.090166467e-18)
(1.310600087 -0.1358374692 -4.394848119e-18)
(1.248928516 -0.1046051343 4.710353008e-18)
(1.211702554 -0.08083917573 -1.079639524e-17)
(1.167098701 -0.06212253058 1.145694344e-17)
(1.136225119 -0.04546087969 5.884766487e-18)
(1.096628957 -0.0323370331 3.296859762e-18)
(1.063398768 -0.01795244848 -1.272940943e-17)
(1.015785137 -0.004912097184 1.018599992e-17)
(1.880136876 -0.2810777782 3.974824331e-18)
(1.650257164 -0.2008036379 1.192090478e-18)
(1.516576483 -0.1492930312 -1.942543582e-18)
(1.400977396 -0.1123870951 -1.335535575e-18)
(1.333511774 -0.08694798126 -3.806819978e-19)
(1.266156836 -0.06750814568 1.568901496e-18)
(1.224569053 -0.05264488541 -6.437726025e-19)
(1.176563459 -0.04074856659 6.23651099e-18)
(1.142694126 -0.03005687996 3.358287646e-19)
(1.100718048 -0.02136244644 2.601523205e-18)
(1.065143108 -0.01190483764 -4.669813081e-18)
(1.014386439 -0.002653695834 3.163649166e-18)
(1.920296653 -0.09683781639 1.824443612e-18)
(1.678654938 -0.07101257684 5.794228928e-19)
(1.537286372 -0.0545564138 -6.353862399e-19)
(1.416259984 -0.04239333062 -1.019863072e-18)
(1.344932041 -0.03402031188 -5.328212722e-19)
(1.274657814 -0.02736501719 6.624841599e-19)
(1.230790349 -0.02217711437 1.471368818e-19)
(1.18098584 -0.01773123615 3.038174067e-18)
(1.145522352 -0.01355767988 1.806575602e-18)
(1.102220563 -0.009745605164 1.70023984e-18)
(1.065459594 -0.005602305386 -1.692628155e-18)
(1.012342337 -0.0007684164714 1.97666773e-18)
(1.918431812 0.09185297656 -2.26261291e-20)
(1.677439306 0.06208345957 -1.268078745e-19)
(1.536376926 0.04272768889 6.569142442e-19)
(1.415568504 0.02959066623 -1.69358176e-18)
(1.344277437 0.02048572801 -6.440075598e-19)
(1.27400601 0.01403238627 1.997380612e-19)
(1.230074505 0.009271519993 -4.83680286e-19)
(1.180174891 0.006027079141 2.517660247e-18)
(1.144615225 0.003435851833 2.394388356e-18)
(1.101114341 0.002111126033 1.778076226e-18)
(1.06444528 0.0007072503272 -9.256277722e-19)
(1.010057203 0.0005959168886 2.605160495e-18)
(1.874678105 0.2754723175 -2.082212191e-18)
(1.646671491 0.191700659 -9.12075604e-19)
(1.513870159 0.1375359115 1.494816228e-18)
(1.398903742 0.09978661874 -1.935558386e-18)
(1.331540198 0.07365230033 -1.726817007e-18)
(1.264193967 0.05439796337 4.950385313e-19)
(1.22241364 0.03990463513 -3.74471392e-18)
(1.17413433 0.02910643407 5.750530426e-18)
(1.139978189 0.01988209404 3.278034281e-18)
(1.097433112 0.01348190163 5.806258566e-19)
(1.062108295 0.006703025192 -1.210688281e-18)
(1.007664087 0.001447526942 6.562742055e-18)
(1.791272397 0.4449159694 -4.865063811e-18)
(1.587906865 0.3114797609 -1.690087195e-18)
(1.470886429 0.2252849114 -7.946633846e-19)
(1.367078791 0.1648686292 3.005145612e-18)
(1.307328071 0.123030567 -3.836873858e-18)
(1.245672619 0.09196419429 5.138756922e-18)
(1.208152143 0.06847532147 3.000715676e-18)
(1.163133991 0.05068387132 9.88675306e-18)
(1.131834853 0.03528987495 -2.425003517e-18)
(1.091383689 0.02411039904 5.061025266e-18)
(1.058603798 0.01227658086 1.430978528e-18)
(1.005306689 0.001841948248 6.009482078e-18)
(1.67246341 0.5916970014 -4.018900021e-19)
(1.504097436 0.4153444582 -3.563951392e-18)
(1.409561063 0.3014551741 -3.773380431e-18)
(1.321666889 0.221421828 -1.01004979e-18)
(1.272849217 0.1659722431 -6.807809725e-18)
(1.219402371 0.1246427358 3.873642553e-18)
(1.188076374 0.09331603858 -1.506971167e-17)
(1.147829398 0.06939679485 3.228571871e-18)
(1.120707303 0.04857952701 1.717404658e-18)
(1.083343811 0.03316733644 7.545944519e-18)
(1.054164313 0.01696840757 4.690788509e-19)
(1.003268963 0.001783481439 1.555677694e-17)
(1.524179519 0.7085811351 7.759540827e-18)
(1.399432231 0.498229347 -1.063225802e-19)
(1.332951292 0.3623842812 -1.713493467e-18)
(1.264913647 0.2667758589 3.351483738e-19)
(1.229769939 0.200501409 4.226901116e-18)
(1.186583441 0.1509975673 9.547633504e-18)
(1.163013572 0.1134313063 -1.087227302e-17)
(1.128747137 0.08463831141 -3.174256733e-18)
(1.106885322 0.05953766432 7.891532234e-18)
(1.073510178 0.04076021735 -2.314651405e-17)
(1.048830211 0.02109615833 -5.735114277e-18)
(1.001620829 0.001601243265 -7.812591541e-20)
(1.353898892 0.7897870562 -2.36495155e-18)
(1.279142429 0.555959367 1.775183808e-18)
(1.244861054 0.4049464912 -1.463739501e-17)
(1.199634723 0.298560362 -4.154715067e-19)
(1.180261799 0.224782486 -1.025635175e-17)
(1.148964874 0.1695935964 6.367490623e-18)
(1.134451567 0.1276641709 -1.851376848e-17)
(1.107231064 0.09541567356 -1.722872761e-17)
(1.091556475 0.0672109366 2.434642231e-18)
(1.062796098 0.04590600451 3.639524331e-17)
(1.042964402 0.02361480269 -3.668120637e-17)
(1.00009127 0.000752454394 2.358095123e-17)
(1.170069376 0.8313436494 -1.440719619e-18)
(1.14923299 0.5857559472 1.746128095e-18)
(1.149698799 0.4271289392 -9.698776815e-18)
(1.129085469 0.315294693 -1.563919972e-17)
(1.126736007 0.2376957184 2.187334605e-17)
(1.108251369 0.1795664849 5.620255155e-18)
(1.103484506 0.1353619667 2.251766197e-17)
(1.083847961 0.1012608008 -4.776023215e-19)
(1.074914736 0.07146208368 -5.454232197e-18)
(1.051410881 0.04884143354 -3.154559402e-17)
(1.037150592 0.02529701679 2.740752218e-17)
(0.9998992324 0.0007264362708 -4.39329905e-19)
(0.9818914521 0.8312842142 9.774127668e-18)
(1.016155355 0.5861452976 -3.734031386e-18)
(1.052158026 0.4277980788 4.077351699e-18)
(1.056732688 0.3161137984 -4.94183096e-18)
(1.071842339 0.2386021451 -2.412105953e-18)
(1.066535114 0.1805107251 1.980242013e-18)
(1.071811855 0.1363344277 2.220366126e-17)
(1.06002493 0.1022059182 2.143585245e-18)
(1.057957271 0.07236954682 9.187931237e-19)
(1.039768893 0.04950971387 2.636779671e-17)
(1.030967389 0.02570486634 -3.139503653e-17)
(0.9992695208 0.0004112018601 -4.280665976e-18)
(0.7986854483 0.7896568863 1.573413232e-17)
(0.8865657296 0.5571845415 -3.731369314e-18)
(0.9571564537 0.4070052145 -6.430780891e-18)
(0.986247161 0.3010457038 1.740655603e-17)
(1.01836109 0.2274812445 -3.133657095e-17)
(1.025893164 0.1723079139 -3.340188868e-19)
(1.040977653 0.1303282285 -1.972733323e-17)
(1.036903663 0.09784112192 1.527193639e-17)
(1.041660325 0.06945012301 -1.350759002e-17)
(1.028883195 0.04763544639 -6.232514698e-17)
(1.025710088 0.02511394723 2.112779457e-17)
(0.9997017889 0.000881613349 -3.444094034e-17)
(0.6295541919 0.7086549673 1.238599635e-17)
(0.7668502577 0.5003570065 4.809524764e-18)
(0.8693325613 0.3657941996 3.157843549e-17)
(0.9210327749 0.2708441272 5.295316036e-18)
(0.9688442398 0.2049185226 1.700129214e-17)
(0.9882322878 0.155473622 -4.295604896e-17)
(1.012368763 0.1178477033 1.115389929e-17)
(1.015397809 0.08871994121 -6.489374086e-18)
(1.026396027 0.06325853271 -2.500869433e-17)
(1.018556096 0.04366143687 -1.598362689e-17)
(1.02054298 0.02363358605 2.803708673e-17)
(1.000129487 0.00183048553 -1.596973237e-18)
(0.482883878 0.5923241212 -1.782664136e-18)
(0.663021609 0.418549727 -1.801556958e-19)
(0.7931518694 0.3062910685 -2.18326473e-18)
(0.864446206 0.2270842519 -1.1323924e-17)
(0.925859328 0.1720908443 1.82690235e-17)
(0.9555117253 0.1308529204 -1.392387253e-17)
(0.9874801443 0.09948121922 6.584139367e-18)
(0.9966469172 0.07522688455 -1.595392263e-17)
(1.013046772 0.05405710847 5.565175335e-18)
(1.009483485 0.03784619807 2.417753323e-17)
(1.015915237 0.02144629547 7.257453411e-18)
(1.00052617 0.003398197001 -4.87640246e-18)
(0.3659034118 0.4465525023 -1.896143052e-17)
(0.5801437734 0.3158868455 -2.83122196e-18)
(0.7322826542 0.2314933564 8.507843908e-18)
(0.8191702327 0.1719789885 1.841229921e-17)
(0.8914149174 0.1306848884 1.272164077e-17)
(0.9292343705 0.09976576184 -4.445696963e-18)
(0.9674532949 0.07627602591 4.267478981e-17)
(0.9815092093 0.05818280503 -2.992405462e-17)
(1.002249535 0.04240681042 -9.239383233e-18)
(1.002080934 0.03041831093 -6.54005269e-18)
(1.012042879 0.01838499362 4.534845813e-17)
(1.000683067 0.005224965239 -3.198024049e-17)
(0.2844460634 0.278593859 -7.204068046e-18)
(0.5224138399 0.1975223004 -2.013438884e-19)
(0.6898743275 0.1451827895 4.389336901e-18)
(0.7876003683 0.1083231773 1.882176726e-18)
(0.8673619463 0.0827896451 -5.444924703e-18)