/*--------------------------------*- C++ -*----------------------------------*\
| =========                 |                                                 |
| \\      /  F ield         | foam-extend: Open Source CFD                    |
|  \\    /   O peration     | Version:  3.0                                   |
|   \\  /    A nd           | Web:         http://www.extend-project.de       |
|    \\/     M anipulation  |                                                 |
\*---------------------------------------------------------------------------*/
FoamFile
{
    version     2.0;
    format      ascii;
    class       volScalarField;
    location    "9";
    object      p;
}
// * * * * * * * * * * * * * * * * * * * * * * * * * * * * * * * * * * * * * //

dimensions      [0 0 0 0 0 0 0];

internalField   nonuniform List<scalar> 
400
(
0.8361
0.830351
0.828887
0.827516
0.83014
0.832338
0.837644
0.842157
0.848957
0.854639
0.861879
0.867656
0.874306
0.87908
0.884037
0.886592
0.888627
0.887605
0.885575
0.88022
0.842862
0.836937
0.835799
0.834121
0.836189
0.837543
0.84185
0.845249
0.850861
0.855318
0.861313
0.865861
0.871317
0.874984
0.878958
0.880756
0.882349
0.881316
0.879965
0.874617
0.845064
0.838918
0.837642
0.835872
0.83782
0.838946
0.843009
0.846022
0.851297
0.855272
0.860928
0.864981
0.870207
0.873445
0.877421
0.878891
0.880769
0.879354
0.878148
0.871969
0.847547
0.841403
0.840209
0.838382
0.840165
0.841047
0.844722
0.847325
0.852074
0.855555
0.860642
0.864207
0.868926
0.871781
0.875419
0.876701
0.878492
0.877076
0.875991
0.869719
0.845975
0.840134
0.83906
0.837411
0.839361
0.840364
0.844197
0.846851
0.851729
0.855207
0.860429
0.863984
0.868896
0.871772
0.875689
0.877018
0.879106
0.877695
0.876723
0.870574
0.845527
0.840119
0.839226
0.837816
0.839792
0.840906
0.844634
0.847287
0.851966
0.855377
0.860362
0.863849
0.868552
0.871422
0.875214
0.876642
0.878717
0.877536
0.876695
0.871047
0.841369
0.836604
0.836217
0.835273
0.837692
0.839169
0.843295
0.846236
0.851277
0.854926
0.860264
0.863977
0.869063
0.872184
0.876403
0.878121
0.880644
0.87981
0.879422
0.874373
0.839179
0.835154
0.835119
0.83468
0.837254
0.839072
0.843208
0.846355
0.851302
0.855076
0.860273
0.864098
0.869057
0.872347
0.876514
0.878519
0.881128
0.880779
0.880717
0.876523
0.833342
0.830233
0.831052
0.831327
0.834583
0.836926
0.841601
0.845135
0.850524
0.854605
0.86021
0.86433
0.869727
0.873367
0.878056
0.880521
0.88377
0.884049
0.884777
0.881487
0.830342
0.828259
0.829569
0.83057
0.834039
0.836856
0.841532
0.845335
0.850578
0.854807
0.860198
0.864446
0.86965
0.873504
0.878112
0.880983
0.884366
0.885352
0.886559
0.884432
0.823545
0.82267
0.825157
0.827081
0.831417
0.834839
0.840098
0.844267
0.849908
0.854373
0.860097
0.864574
0.870167
0.87436
0.879528
0.882959
0.88716
0.889011
0.89133
0.890389
0.820619
0.82109
0.824147
0.826968
0.83148
0.835408
0.840538
0.844902
0.850211
0.854698
0.860001
0.864478
0.869684
0.874014
0.87896
0.882824
0.887114
0.889847
0.892722
0.893275
0.813592
0.815602
0.820182
0.824102
0.829594
0.834103
0.839738
0.844313
0.84984
0.854355
0.859784
0.864288
0.869714
0.874252
0.879703
0.88414
0.889393
0.893192
0.897545
0.899577
0.811826
0.815544
0.820662
0.825575
0.831063
0.835963
0.841195
0.845735
0.850612
0.854877
0.859558
0.863791
0.868512
0.87296
0.877908
0.882667
0.887819
0.892596
0.897472
0.901366
0.805551
0.811199
0.818237
0.824346
0.830783
0.836067
0.841543
0.845974
0.85073
0.854671
0.859128
0.863047
0.86767
0.872038
0.877277
0.882466
0.88862
0.894607
0.901412
0.907118
0.806573
0.814365
0.821625
0.8286
0.834576
0.839884
0.844491
0.84847
0.852152
0.855435
0.858748
0.861993
0.8655
0.869369
0.873654
0.8788
0.8844
0.891232
0.898261
0.906273
0.802736
0.813046
0.822486
0.830462
0.83697
0.84215
0.846463
0.849825
0.85289
0.855391
0.858017
0.860495
0.86343
0.866739
0.870829
0.875961
0.882234
0.89018
0.899473
0.909863
0.809639
0.822321
0.830791
0.838752
0.843826
0.84824
0.851042
0.853369
0.854943
0.85633
0.857481
0.858841
0.860282
0.862535
0.865099
0.869412
0.87423
0.882133
0.890545
0.903473
0.812257
0.828165
0.837574
0.845401
0.849747
0.853091
0.85478
0.855888
0.856304
0.856475
0.856484
0.856645
0.85698
0.858077
0.85965
0.863035
0.867321
0.875283
0.884734
0.900938
0.834886
0.846911
0.85196
0.857198
0.858806
0.860314
0.860043
0.859633
0.858426
0.857205
0.855701
0.854487
0.853257
0.852885
0.852622
0.85425
0.855991
0.861502
0.866879
0.87943
)
;

boundaryField
{
    cavity
    {
        type            implicitExtrapolation;
    }
    lid
    {
        type            implicitExtrapolation;
    }
    frontAndBack
    {
        type            empty;
    }
}


// ************************************************************************* //
