/*--------------------------------*- C++ -*----------------------------------*\
| =========                 |                                                 |
| \\      /  F ield         | foam-extend: Open Source CFD                    |
|  \\    /   O peration     | Version:  3.0                                   |
|   \\  /    A nd           | Web:         http://www.extend-project.de       |
|    \\/     M anipulation  |                                                 |
\*---------------------------------------------------------------------------*/
FoamFile
{
    version     2.0;
    format      ascii;
    class       volScalarField;
    location    "41";
    object      p;
}
// * * * * * * * * * * * * * * * * * * * * * * * * * * * * * * * * * * * * * //

dimensions      [0 0 0 0 0 0 0];

internalField   nonuniform List<scalar> 
2688
(
-0.2224741686
-0.2031720289
-0.1914734237
-0.1780160902
-0.1704965328
-0.1607186577
-0.155862543
-0.1485859671
-0.1454830898
-0.1400006465
-0.1380578779
-0.1338965381
-0.1327001613
-0.1295044937
-0.1287408124
-0.1262196189
-0.1256249385
-0.1235185477
-0.1228440848
-0.1208823939
-0.1198542718
-0.1176891182
-0.1159607999
-0.1131086644
-0.2219809137
-0.2027080585
-0.1910315349
-0.1775950107
-0.170095824
-0.1603280344
-0.155491357
-0.1482122239
-0.1451283971
-0.1396282006
-0.1377025821
-0.1335045689
-0.1323181343
-0.1290632276
-0.1282906811
-0.1256902344
-0.1250549709
-0.1228634599
-0.1221192745
-0.1200810753
-0.1189733758
-0.1167527327
-0.1149600604
-0.1120973644
-0.2201801893
-0.2010594014
-0.1894737465
-0.1761326188
-0.1686920634
-0.1589803283
-0.1541810393
-0.1469263192
-0.143862542
-0.1383593463
-0.1364372011
-0.1322121955
-0.1310120599
-0.1277100895
-0.1269041501
-0.124242701
-0.1235508949
-0.1212913355
-0.1204688226
-0.1183585686
-0.117159144
-0.1148861557
-0.1130233552
-0.1101959105
-0.2182985483
-0.1993273782
-0.1878331003
-0.1745964047
-0.1672155398
-0.157576358
-0.152818443
-0.1456113881
-0.1425797621
-0.1371010122
-0.1352055087
-0.1309781809
-0.129795074
-0.1264567678
-0.1256458138
-0.1229078871
-0.1221752573
-0.1197973981
-0.1188916068
-0.1166309014
-0.1153075661
-0.1129136773
-0.1109396435
-0.1081496253
-0.2151132454
-0.1964159311
-0.1850879707
-0.1720313275
-0.164759077
-0.1552363669
-0.1505492265
-0.1434087285
-0.1404183566
-0.1349628048
-0.133081406
-0.1288383919
-0.1276423004
-0.1242547895
-0.1234042533
-0.1205900918
-0.119793853
-0.1173180054
-0.1163262055
-0.1139595024
-0.1125313935
-0.1100770331
-0.1080295747
-0.10534139
-0.211854567
-0.1934242308
-0.18225095
-0.1693793026
-0.162197436
-0.1528070968
-0.1481692752
-0.1411266478
-0.1381605399
-0.1327799717
-0.1309084069
-0.1267236791
-0.125529228
-0.1221830345
-0.1213298359
-0.1185310567
-0.1177282471
-0.1152266111
-0.1142123461
-0.1117790407
-0.1102938926
-0.1077746985
-0.1056563662
-0.1030413797
-0.2073333415
-0.1892945026
-0.1783611689
-0.1657539146
-0.158730248
-0.1495210304
-0.1449881652
-0.1380651975
-0.1351643562
-0.1298541772
-0.1280149912
-0.1238597369
-0.122671029
-0.1193195684
-0.1184556543
-0.1156192888
-0.1148005372
-0.1122302982
-0.1111950789
-0.1086766682
-0.1071531674
-0.1045582836
-0.1023633103
-0.09980756546
-0.2027253495
-0.1850679724
-0.1743484455
-0.1620029455
-0.1550945861
-0.1460733218
-0.1415893658
-0.1348104197
-0.1319146595
-0.1267276439
-0.1248684882
-0.1208344993
-0.1196206785
-0.1164011956
-0.1155312583
-0.1128388173
-0.1120547612
-0.1096327936
-0.1086800925
-0.1063067078
-0.1049070398
-0.1024115838
-0.1003209156
-0.09770555879
-0.1969331744
-0.1797790832
-0.1693704314
-0.1573719456
-0.1506706686
-0.1418977771
-0.1375546485
-0.1309569662
-0.1281567845
-0.123103827
-0.1213100711
-0.1173765836
-0.1162127692
-0.1130690405
-0.1122498342
-0.1096159042
-0.1088996898
-0.1065374178
-0.1056924164
-0.1034129776
-0.1022029399
-0.09981782453
-0.09798782674
-0.09519848338
-0.1910260196
-0.1743636124
-0.1642257989
-0.1525619759
-0.1460012881
-0.1374677094
-0.1331773195
-0.126763031
-0.1239588457
-0.1190626356
-0.1172349479
-0.113454423
-0.1122525314
-0.1092762146
-0.1084410042
-0.1060066497
-0.1053229865
-0.1032148386
-0.1024847552
-0.1005230627
-0.0995525565
-0.09746715944
-0.0959578642
-0.09308817378
-0.1840416165
-0.167986973
-0.1582270987
-0.1469887811
-0.1406820449
-0.1324618743
-0.1283475588
-0.1221747184
-0.1194974697
-0.1147964355
-0.1130696249
-0.1094540855
-0.1083460944
-0.1055137906
-0.1047764013
-0.1024748265
-0.1018972917
-0.09992690926
-0.09932133449
-0.09751065279
-0.09669425239
-0.09475151164
-0.09339719946
-0.09058961879
-0.1769090539
-0.1614507094
-0.1520186305
-0.1411844386
-0.1350496614
-0.1271174144
-0.1230746447
-0.1171194436
-0.1144558767
-0.109930533
-0.1081934833
-0.1047254726
-0.1036039405
-0.100896936
-0.1001468581
-0.09796055145
-0.09736915459
-0.09552597993
-0.09491469031
-0.09325392073
-0.09245613045
-0.0906912655
-0.08940925693
-0.08689367578
-0.1688225739
-0.154068009
-0.1450758075
-0.1347388664
-0.1289008573
-0.1213393657
-0.1175026058
-0.1118369267
-0.1093212786
-0.1050314015
-0.1034089562
-0.1001378236
-0.09911318865
-0.09657565492
-0.09590646411
-0.09387923474
-0.0933502203
-0.09167060843
-0.09110783303
-0.08960717654
-0.08883748435
-0.08725494516
-0.0860226582
-0.08391235968
-0.1605608133
-0.1465000866
-0.1378931712
-0.1280264061
-0.1223994133
-0.1151730244
-0.111442249
-0.1060275364
-0.1035664532
-0.09946982367
-0.09788879563
-0.09475873579
-0.0937740879
-0.09132054508
-0.0906724185
-0.08867195097
-0.08812001914
-0.08640862023
-0.08576247906
-0.08416997911
-0.08324068737
-0.08162577014
-0.08027132066
-0.07859529055
-0.1514721878
-0.1382020093
-0.1300907873
-0.1207845405
-0.1154917689
-0.1086830333
-0.1051807464
-0.1000881592
-0.09778182392
-0.09393822158
-0.0924594717
-0.08952823894
-0.08860556625
-0.0863097176
-0.08568730114
-0.08381987987
-0.08326438186
-0.08166338109
-0.08099224433
-0.07946967496
-0.07848261771
-0.07695934533
-0.07558734733
-0.07427811315
-0.1421967437
-0.1297092747
-0.1220401578
-0.1132658067
-0.108227736
-0.1017991733
-0.09844390448
-0.09363550461
-0.09142708449
-0.08780087486
-0.08640757547
-0.08363837637
-0.08279620648
-0.08061441369
-0.08005522127
-0.07826484361
-0.07774985647
-0.07618507318
-0.07553183094
-0.07399020507
-0.07297928755
-0.07145134464
-0.07006009025
-0.06896952428
-0.1322147674
-0.1205948788
-0.113470603
-0.1053111252
-0.1006395786
-0.09466598108
-0.09155704301
-0.08709281043
-0.08504135697
-0.08167682411
-0.08037146091
-0.07780154828
-0.07699718894
-0.07497058034
-0.07442184577
-0.07275327455
-0.07224421738
-0.07075930128
-0.07011072121
-0.06859902157
-0.06758118792
-0.06605359351
-0.06465904151
-0.063562791
-0.1220562504
-0.1112977288
-0.1046693979
-0.09709759676
-0.09272415361
-0.08717127023
-0.08424692568
-0.08009570771
-0.07817066463
-0.07504538418
-0.07383685775
-0.0714561446
-0.07072655878
-0.06886679405
-0.06838198095
-0.06688835469
-0.06646642532
-0.06518307479
-0.06467836432
-0.06340393728
-0.06260016233
-0.06127612701
-0.06009823123
-0.05886164559
-0.1112981609
-0.101474111
-0.09543274422
-0.08852155384
-0.08454246491
-0.07947447322
-0.07681351717
-0.07302360301
-0.07126383731
-0.06840973251
-0.06729339412
-0.06512354141
-0.06444424574
-0.06276424096
-0.0623294968
-0.06100394065
-0.06066869332
-0.05955510403
-0.05918898813
-0.05810936901
-0.05751360089
-0.05632573217
-0.0553407396
-0.05380526189
-0.100397929
-0.09150242129
-0.08600550986
-0.0797303824
-0.07608883221
-0.07147572811
-0.06902974553
-0.06557395445
-0.06395511641
-0.06134995307
-0.06032123987
-0.05834323193
-0.05770796462
-0.05619309571
-0.05578612233
-0.0546232136
-0.0543456086
-0.05340531765
-0.05315541107
-0.05227660848
-0.05187318175
-0.05081935704
-0.05001512757
-0.04814417862
-0.08898919393
-0.08108439779
-0.07620898352
-0.07063182957
-0.06740758724
-0.06330313533
-0.06113662966
-0.05805543721
-0.05661505558
-0.05428714114
-0.05336509888
-0.05159897417
-0.05103076588
-0.04969017954
-0.04934345366
-0.04833638078
-0.04813734312
-0.04735620642
-0.0472294072
-0.04653847536
-0.04634177969
-0.04543008
-0.04484020074
-0.04272601787
-0.07749543207
-0.07057399442
-0.06628440067
-0.06138354228
-0.0585305037
-0.05490890095
-0.05298176192
-0.05025022693
-0.04896137798
-0.04688495656
-0.04604565711
-0.04445911133
-0.04391795209
-0.04270961361
-0.04236051471
-0.04145640708
-0.04125830437
-0.04056199127
-0.04045815361
-0.03984941244
-0.03971752173
-0.03888129984
-0.03839531397
-0.03625214786
-0.06556960107
-0.0596837945
-0.05604182624
-0.05186789395
-0.04944874428
-0.04635375425
-0.0447175611
-0.04236995502
-0.04126875448
-0.03947035292
-0.03874525548
-0.03735757136
-0.03688222308
-0.03580961208
-0.03548975171
-0.0346666347
-0.03446304058
-0.0338040877
-0.03367636093
-0.03307498921
-0.03292631675
-0.03213130487
-0.0316946408
-0.02976135665
-0.05363401556
-0.04877351482
-0.04575034
-0.04228456946
-0.04026358266
-0.03767434332
-0.03629693792
-0.03431314984
-0.03337424389
-0.03183311802
-0.03119601619
-0.02998299854
-0.02953688337
-0.02857286383
-0.02823536071
-0.02746645385
-0.02719984243
-0.02655470574
-0.02631890697
-0.02571581421
-0.0254351847
-0.0247361086
-0.02427508507
-0.02288712335
-0.04133255858
-0.03754052562
-0.03518196339
-0.03246351804
-0.0308853883
-0.0288353325
-0.02775302198
-0.02616010889
-0.02540864308
-0.02414749212
-0.0236187831
-0.02259969495
-0.02220567967
-0.02136070861
-0.02102467001
-0.02030521871
-0.01997855592
-0.0193265984
-0.01896869446
-0.01831991467
-0.01786429053
-0.01721095077
-0.01666484427
-0.01596876963
-0.02910774238
-0.02636985516
-0.02465387833
-0.02266702632
-0.02150664119
-0.01998084923
-0.01917128969
-0.01795688599
-0.01737636725
-0.01638618816
-0.0159536554
-0.01512415155
-0.01477353731
-0.01405026054
-0.01371551121
-0.01305446655
-0.01267632619
-0.01202701619
-0.01154752147
-0.01085036624
-0.01017632513
-0.009525379565
-0.008714330134
-0.008786372555
-0.01657971254
-0.01493028367
-0.01388640053
-0.01265857099
-0.01194241827
-0.01096343629
-0.0104468763
-0.009629370617
-0.009230040065
-0.008527048991
-0.008190856684
-0.007569020301
-0.00725765899
-0.006680863839
-0.006349176611
-0.005784941581
-0.005376597472
-0.004800050229
-0.004267716774
-0.00364926743
-0.002932771724
-0.002422610084
-0.001647181811
-0.002173634388
-0.004217170409
-0.003637585248
-0.003250521732
-0.002769160472
-0.002482691623
-0.002041887527
-0.001806301426
-0.00138121398
-0.00115740589
-0.0007426435568
-0.0005064478601
-0.0001012367646
0.00015689653
0.0005657947118
0.0008666142758
0.001291296103
0.001674239519
0.002095635623
0.002564729636
0.00295856783
0.003478791252
0.003694909704
0.004063287617
0.003486329372
0.008381521088
0.007866209353
0.007583231416
0.007302789752
0.007150377871
0.007041666936
0.006989227539
0.007012784454
0.007059195596
0.007178225897
0.007322655289
0.007501923305
0.007722485319
0.007946169144
0.008222861554
0.008483965943
0.008827234147
0.009075483791
0.009461206285
0.009631042933
0.009962923307
0.009950617972
0.0100586371
0.009546527517
0.02073273529
0.01914488797
0.01820042214
0.01716734362
0.01658072579
0.01592504141
0.01558829436
0.01520843071
0.01507664237
0.01489443602
0.01493551528
0.01488255863
0.01504372181
0.01508122768
0.01531106819
0.01542069518
0.01570409144
0.01581609304
0.01610066236
0.01612390569
0.01627932377
0.01616438393
0.01609308288
0.01573613172
0.03324062427
0.03056558342
0.02896256804
0.02717415337
0.02616026195
0.02495776878
0.02433924224
0.02355604274
0.02324344246
0.02276136686
0.02269980476
0.02241690474
0.0225298114
0.02237619504
0.02257104245
0.02250996234
0.02273167381
0.0226816983
0.02286473734
0.02271150853
0.02271236586
0.02245428547
0.02223415347
0.02192538569
0.04543473635
0.04169720697
0.03943732264
0.03689896197
0.03545335232
0.03370054008
0.03279869948
0.03160411797
0.03111113903
0.03031858985
0.03014670259
0.0296253612
0.02966968098
0.02932775208
0.02947072566
0.02926011947
0.02942692725
0.02925776418
0.02936897606
0.02910398113
0.02900197624
0.02864439205
0.02831387579
0.02799142678
0.05768677362
0.05288428483
0.04998659028
0.0467089581
0.04485437963
0.04256360437
0.0413898253
0.03979353004
0.03911316019
0.03802006234
0.03772194397
0.03697784696
0.03694953872
0.03643881904
0.03654608948
0.0362028905
0.0363381443
0.03607659627
0.03615007291
0.03583050489
0.03570090383
0.03528921327
0.03492121703
0.03448733514
0.06958168939
0.06373916768
0.06019797887
0.05618221242
0.05390484435
0.05106640392
0.04961488561
0.04760188443
0.04674181375
0.04532877002
0.04491374035
0.04392457562
0.0438151528
0.04311764252
0.04316259235
0.04268020354
0.04276352236
0.04241228153
0.042445953
0.04208214592
0.04193140577
0.04146333106
0.04105386612
0.04043318663
0.08141193331
0.07454127812
0.07039165535
0.06566244176
0.06300152669
0.05964093368
0.05793533662
0.05552612844
0.05447977696
0.05276411334
0.05219936646
0.05098651922
0.05076308327
0.04990594361
0.04988209182
0.04928256213
0.04933237775
0.0488997077
0.04891855231
0.04851351746
0.04837221674
0.04784837139
0.04742404676
0.04659140564
0.09286937074
0.08499323814
0.08022147733
0.07477552172
0.07170602066
0.06780772315
0.06583377402
0.06300644178
0.06178583156
0.05973844689
0.05905880785
0.057582736
0.05727869971
0.05621632052
0.05613426431
0.0553823438
0.05539703422
0.05487573345
0.05489746248
0.05448606495
0.05441048176
0.0539100349
0.05357398768
0.05256379853
0.1041144854
0.09526124952
0.08991766555
0.08379357594
0.08037182295
0.07597489957
0.07377485759
0.0705630257
0.0691761109
0.06682460192
0.06599649154
0.06428262692
0.06383679564
0.06259134629
0.06238500609
0.06148141535
0.06139358662
0.06072964514
0.06065816899
0.06010870473
0.05994079858
0.05929290261
0.05884398917
0.05766245787
0.1150000762
0.1051878031
0.09925057991
0.09244132346
0.08862874046
0.08371355808
0.08125515007
0.0776321027
0.0760756232
0.07338383883
0.07244308798
0.07043589527
0.06991068901
0.06839613356
0.06812583674
0.06694823076
0.06679101616
0.06582171268
0.06564649525
0.06475889882
0.06442286084
0.0634511151
0.06275745802
0.06145175179
0.1255036857
0.1147786492
0.1083113106
0.1008678569
0.09673647604
0.09135383358
0.08870296073
0.08471607111
0.08303146164
0.08004375497
0.07899491208
0.07674162758
0.07610635321
0.07438247784
0.07399705575
0.07262756543
0.07234968028
0.07118556213
0.07087601645
0.06978232128
0.0692873358
0.06810736645
0.0672306699
0.06578059326
0.1356873093
0.1240614424
0.1170355968
0.1089491989
0.1044472944
0.09857769106
0.09567664027
0.09130095421
0.08944456329
0.08612950445
0.08495707641
0.08241062387
0.08167660308
0.07966639912
0.07918474437
0.07750416844
0.07710234451
0.07557881309
0.07508401714
0.07359128962
0.07283652632
0.07129023093
0.07012301421
0.06851399375
0.145304971
0.1328426746
0.1253314032
0.1166621003
0.1118722722
0.1055725791
0.1025081579
0.09779758016
0.09585124626
0.09226168474
0.09103574613
0.08825419745
0.08747950013
0.08525806844
0.08473302714
0.08285018047
0.08238661386
0.08066024278
0.08007220414
0.07837360433
0.07748713276
0.07573913813
0.07440440806
0.07262545644
0.1546615063
0.1413682196
0.1333402626
0.1240806711
0.1189440657
0.1122010953
0.1088954807
0.103837245
0.1017153404
0.09784318688
0.09647925759
0.09346097176
0.09256624709
0.09014090715
0.08950008238
0.0874391506
0.08685293338
0.08497805047
0.08425810119
0.08244577782
0.08143054293
0.07958478615
0.07813190488
0.07622544251
0.1632656067
0.1492226935
0.14075598
0.1309710809
0.1255723391
0.1184411522
0.1149888631
0.1096296029
0.107436192
0.1033189284
0.1019303615
0.09870205077
0.09780873315
0.09519305106
0.09455955071
0.09231798838
0.09172211894
0.08967697161
0.08891558924
0.08694840593
0.08585943256
0.08386979426
0.08230706911
0.08025977746
0.1716761795
0.1568834124
0.1479488595
0.1376354672
0.1319191398
0.1243979425
0.1207198749
0.1150668091
0.1127048531
0.1083681966
0.1068463436
0.1034629923
0.1024589031
0.09974994307
0.0990237574
0.09675308217
0.09608495321
0.09407699242
0.09327160855
0.09138976275
0.09029003892
0.08836233703
0.08679391557
0.08465544049
0.1791596612
0.1637130241
0.1543890128
0.1436138878
0.137657987
0.1297946322
0.1259757768
0.1200588127
0.1176222727
0.1130733027
0.1115197335
0.1079570378
0.1069448177
0.1040776406
0.1033491341
0.1009378022
0.1002593495
0.09813170847
0.09730312734
0.09532443798
0.09418910498
0.09217922044
0.09055593986
0.08833102376
0.186513444
0.1704086877
0.1606727254
0.1494379133
0.1432001539
0.1350046108
0.1309845053
0.1248290709
0.122246413
0.1175362552
0.1158788861
0.1122232901
0.1111427183
0.1082445016
0.1074788589
0.1050901186
0.1044032747
0.1023323564
0.1015173108
0.09959295239
0.09847146212
0.09647168825
0.09483257217
0.09253315658
0.1927913875
0.176136049
0.1660642981
0.1544374698
0.1479844863
0.1394980443
0.1353416183
0.1289640863
0.1262979077
0.1214130162
0.1197051759
0.1159068739
0.114790896
0.1117745447
0.1109755586
0.1084934846
0.1077743255
0.1056307955
0.1047869107
0.1027976715
0.1016410785
0.09958121555
0.0978970566
0.09554478254
0.1989879176
0.1817757098
0.1713543182
0.1593414465
0.1526480746
0.1438873945
0.1395607117
0.132993197
0.1302107216
0.1252046432
0.1234288947
0.1195645503
0.1184231636
0.1153813751
0.1145884138
0.112105407
0.1114115212
0.1092662548
0.1084499739
0.106429035
0.1052719263
0.1031497792
0.1014213826
0.09899917415
0.2039967298
0.1863433667
0.1756458109
0.163316634
0.1564388844
0.1474442835
0.1429934382
0.1362513337
0.1333865256
0.1282498241
0.1264200672
0.1224579528
0.1212782412
0.118167739
0.1173457261
0.1148243072
0.1141159602
0.1119518289
0.1111337267
0.1090914079
0.1079209544
0.1057641655
0.1039989621
0.1015182149
0.2089485704
0.1908477085
0.1798681677
0.167229933
0.1601572689
0.1509447396
0.1463566827
0.1394650671
0.1365109949
0.1312777584
0.1294039776
0.1253814076
0.1241950286
0.1210424807
0.1202348097
0.1176751113
0.116986352
0.1147718816
0.1139629902
0.1118469422
0.1106531367
0.1084052321
0.1065742736
0.1039863836
0.21264342
0.1942155318
0.1830258335
0.1701519718
0.1629340795
0.1535489616
0.1488594093
0.1418438887
0.1388219075
0.1335039494
0.131589883
0.1275141803
0.126309058
0.1231319975
0.1223242687
0.1197685135
0.1191012622
0.1169088274
0.1161358421
0.1140404049
0.1128731475
0.1106147022
0.1087698837
0.1060767688
0.2162787705
0.1975192696
0.1861194159
0.1730161289
0.1656514777
0.1561038266
0.1513101148
0.1441815047
0.1410918612
0.135697415
0.1337502649
0.1296206652
0.1284097703
0.1251891439
0.1243902136
0.1217957544
0.1211438996
0.1189141035
0.11815903
0.1160221026
0.114864256
0.1125433665
0.1106725803
0.1078231822
0.2186304586
0.1996612866
0.1881227803
0.1748677899
0.167404232
0.1577470799
0.152882375
0.145679306
0.142542923
0.1371040278
0.1351337663
0.1309839653
0.1297711615
0.1265499963
0.1257668014
0.1231889285
0.1225691112
0.1203665947
0.1196560435
0.1175466931
0.1164373204
0.1141184928
0.11227221
0.1092814224
0.2208952937
0.2017151603
0.1900413766
0.176638916
0.1690788343
0.159315144
0.1543798981
0.1471002284
0.1439157458
0.1384225458
0.1364254663
0.132236193
0.1310134455
0.1277631545
0.1269801634
0.1243861914
0.1237758862
0.1215760545
0.1208916168
0.1188058257
0.1177503923
0.1154586695
0.1136965325
0.110578616
0.221887626
0.2026169736
0.1908798497
0.1774110863
0.1698031403
0.1599926554
0.1550209049
0.1477124354
0.1445031778
0.1389974912
0.1369895123
0.1327997601
0.1315793866
0.1283347579
0.1275625498
0.1249763448
0.1243803335
0.1221872596
0.1215174944
0.1194341334
0.1183893043
0.1160965448
0.1143396506
0.1112098704
0.2227471196
0.2033890627
0.1915934076
0.1780609904
0.1704083426
0.1605488104
0.1555416907
0.1481949638
0.1449588846
0.139423739
0.1373975836
0.1331850304
0.1319538483
0.1286909553
0.1279118784
0.1253110177
0.1247078699
0.1225008859
0.1218170614
0.1197124495
0.1186294731
0.1163144161
0.1144843627
0.1114534707
0.2223753549
0.2030464172
0.191264647
0.1777514689
0.1701043721
0.1602595891
0.1552520742
0.1479189479
0.1446794233
0.1391583693
0.1371297055
0.1329301917
0.1316993236
0.1284436518
0.1276637573
0.1250609088
0.1244495083
0.1222319634
0.1215302331
0.1194080696
0.1182949474
0.1159789675
0.1141293349
0.1112203643
0.2218145883
0.2025227972
0.1907597578
0.1772677856
0.1696284224
0.159793553
0.154787135
0.1474560923
0.1442135665
0.1386898157
0.1366554325
0.1324503981
0.131212163
0.1279481107
0.1271587364
0.124544469
0.123918111
0.1216888118
0.1209648005
0.1188359527
0.1176975142
0.1154036754
0.1135547476
0.1107678694
0.2200850171
0.2009412804
0.1892695062
0.1758815813
0.168301771
0.158542257
0.1535722596
0.1462960603
0.1430718826
0.1375879533
0.1355597417
0.1313823979
0.1301440731
0.1268944767
0.1260989911
0.1234851518
0.1228423376
0.1206059155
0.1198597315
0.1177245935
0.1165704872
0.1142927821
0.1124583086
0.109758393
0.2181091579
0.1991262208
0.1875494704
0.1742675491
0.1667470412
0.1570572429
0.1521245956
0.1448923814
0.1416901584
0.1362318576
0.1342128431
0.1300480663
0.1288088551
0.1255607901
0.1247577067
0.1221345012
0.1214781609
0.1192259486
0.1184620077
0.1163131018
0.1151458577
0.1128720715
0.1110451556
0.1084021096
0.2150395728
0.1963217958
0.1849122942
0.1718178183
0.1644100419
0.1548556604
0.1499964717
0.1428609979
0.1397004134
0.1343096812
0.1323080126
0.1281896107
0.126953853
0.1237350191
0.1229290253
0.1203197053
0.1196540212
0.1174099037
0.1166356348
0.1145024352
0.1133415607
0.1110945345
0.1092963102
0.106689503
0.2116736925
0.1932376832
0.1819971017
0.1690921677
0.1617928044
0.1523679561
0.1475801993
0.1405317539
0.1374171231
0.1320823369
0.130105488
0.1260209048
0.1247918976
0.1215909425
0.1207791561
0.1181751724
0.1174968068
0.1152525946
0.1144650026
0.1123387198
0.1111762247
0.1089452526
0.107161502
0.1045730642
0.2072944303
0.1892377184
0.1782375707
0.1656013119
0.1584657089
0.1492357484
0.1445579655
0.1376495539
0.1346015479
0.1293649188
0.1274193591
0.1234030323
0.1221820359
0.1190284842
0.1182152866
0.1156418026
0.1149597297
0.1127357702
0.111945684
0.1098427643
0.1086907312
0.1064873815
0.1047288098
0.1021622505
0.20258305
0.1849247681
0.1741638933
0.1617983391
0.1548165773
0.1457751882
0.1411990846
0.1344214269
0.1314405161
0.1262920047
0.1243868646
0.1204283731
0.1192256882
0.116111046
0.115301187
0.1127572497
0.1120739347
0.1098808385
0.1090970414
0.107039881
0.1059162646
0.1037705037
0.1020617321
0.09953090442
0.1969383093
0.1797692828
0.16931794
0.1572991341
0.1505286193
0.1417402895
0.1373088858
0.1307156903
0.1278277601
0.1228110592
0.1209556409
0.1170903805
0.1159043538
0.1128567005
0.112044596
0.109548166
0.108855845
0.1066945009
0.1059013296
0.1038688187
0.1027441875
0.1006234458
0.09893032083
0.09643069878
0.1909446271
0.1742849668
0.1641389939
0.1524687321
0.1458933088
0.1373511719
0.133046975
0.1266285703
0.1238239718
0.1189289258
0.1171258784
0.1133424391
0.1121852277
0.1091907474
0.108390792
0.1059265174
0.1052370073
0.103091096
0.1022968958
0.1002705299
0.0991469775
0.09703767092
0.09535679764
0.09290000779
0.1840937943
0.1680278674
0.1582553111
0.1470055092
0.1406838703
0.1324502855
0.128321714
0.1221319143
0.1194459546
0.1147188681
0.1129889346
0.1093283668
0.1082083307
0.1053060967
0.1045195918
0.1021276581
0.10144102
0.0993533835
0.09856131837
0.09658459669
0.09547103461
0.09340807964
0.09175369157
0.08934594237
0.176898518
0.1614459312
0.1520403122
0.1412127603
0.1351236996
0.127192031
0.1232121134
0.1172415718
0.1146500025
0.1100812525
0.1084091083
0.1048603363
0.1037721346
0.1009460152
0.1001726518
0.09782857913
0.09714163826
0.09507852958
0.09427650866
0.09230974625
0.09118430432
0.0891373541
0.08748867028
0.08514328697
0.168917225
0.1541560149
0.1451816602
0.134842682
0.1290439349
0.1214718783
0.1176923863
0.1119916178
0.109538942
0.105173367
0.1035952887
0.1002003642
0.09917338949
0.09646736394
0.09573399052
0.09348934298
0.09283272018
0.09085710826
0.09008506167
0.08819918113
0.08711098225
0.08514112906
0.08354404854
0.08127583196
0.1606169587
0.1465649938
0.1380145859
0.1281665867
0.1226352049
0.1154181482
0.1118069728
0.1063698237
0.104020837
0.0998539735
0.09833678861
0.09509375446
0.09409957878
0.0915133369
0.09079596378
0.08865179015
0.08800457847
0.08612112038
0.08536268879
0.08356939349
0.08251245447
0.08063958762
0.07910510599
0.07693952202
0.1515975781
0.138326461
0.1302587575
0.1209608717
0.1157501906
0.1089380006
0.105544983
0.100413249
0.0982144683
0.09428066025
0.09286742347
0.08980404154
0.08888276315
0.08643857674
0.08577544579
0.08374902438
0.08314810994
0.08136831943
0.08065728469
0.07896143353
0.07796194513
0.07618718404
0.07472933437
0.07267299959
0.1423028348
0.1298277541
0.1222363341
0.1134921311
0.1085818221
0.1021736361
0.09896920162
0.09414284464
0.09205969503
0.08836388582
0.08701910577
0.08414840184
0.08326742301
0.08098858435
0.08035372482
0.07848020323
0.07791046328
0.0762816787
0.07561840389
0.07407537666
0.07315163338
0.07152536079
0.07017520275
0.06825027041
0.1323541106
0.1207399375
0.1136763214
0.1055366568
0.1009722777
0.09500804571
0.09203405398
0.08754259236
0.08561370764
0.08217419594
0.08093291098
0.07826057978
0.07745043859
0.07532835292
0.07474611322
0.07300123587
0.07247817851
0.07096145511
0.07034994921
0.06891326965
0.06805788487
0.06654367688
0.06528930984
0.06349778686
0.1221871759
0.1114456904
0.104905542
0.09737501287
0.09314221838
0.08762501067
0.08486101097
0.08071055932
0.07891301575
0.07574282483
0.07458326199
0.07213209084
0.07137582661
0.06944422395
0.0689059442
0.06733306914
0.06685877337
0.06550259919
0.06495557623
0.06367099614
0.06290345659
0.06153386505
0.06039404922
0.05874306765
0.1114328354
0.1016218013
0.09564846322
0.08876955653
0.08490425854
0.07986436923
0.0773407387
0.07354961604
0.07190837678
0.0690129445
0.06795397101
0.06571559417
0.06502495483
0.06326172456
0.06277098963
0.06133647469
0.06090602366
0.05967078751
0.05917650195
0.05800761533
0.05731411765
0.05606752333
0.05503403698
0.05352932025
0.1005257261
0.09165290898
0.08624420288
0.08002146792
0.07651611156
0.07195868542
0.06966597615
0.06624303165
0.06474991204
0.06214388567
0.06118113536
0.05917645549
0.05855246326
0.05698297307
0.05654631456
0.05527593054
0.0548995418
0.05380625741
0.0533749338
0.05233407606
0.05172077611
0.05060034131
0.04967323452
0.04831150809
0.08910216095
0.0812178583
0.07640895252
0.07087736265
0.06775844039
0.0637064241
0.06166393513
0.05862089597
0.05728806134
0.05497237661
0.05411074704
0.05233127566
0.05177196142
0.05038138049
0.04999132726
0.04886872143
0.04853600206
0.04757230535
0.04719437474
0.04627715701
0.04573935987
0.04474894607
0.04393109982
0.04272137985
0.07759486125
0.07070229766
0.06649213718
0.06165449404
0.0589194853
0.05537708116
0.05358351295
0.05092723485
0.04975666802
0.0477408228
0.04698631327
0.04544252221
0.04495693204
0.04375361219
0.04341977005
0.04244780644
0.04216571584
0.0413271843
0.0410043193
0.04020044844
0.03973391617
0.03886227035
0.03814579132
0.03708293275
0.06564823186
0.05978994026
0.05620625504
0.05209128145
0.04975903459
0.04674473689
0.04521141832
0.0429518926
0.04194788756
0.04023525054
0.03958600311
0.03827756585
0.03785953586
0.03684331911
0.03655794458
0.03574033346
0.03550254653
0.03479869342
0.03452847422
0.03385210764
0.03345954249
0.032721016
0.03211313777
0.03120541326
0.0536871797
0.04886142052
0.04590265477
0.04250972207
0.04057970709
0.03809404389
0.03682292324
0.03496156039
0.0341291928
0.03272083827
0.03218422988
0.03110981749
0.03076682343
0.02993190199
0.02969990424
0.0290255497
0.02883257878
0.02824837467
0.02802679688
0.02746237679
0.02713687482
0.02651982178
0.02601347049
0.02525774909
0.04137041441
0.03761171016
0.03529915516
0.03265178245
0.03113741112
0.02919650151
0.02819452363
0.02674228025
0.02608298868
0.02498704398
0.02456052301
0.02372812817
0.02345585116
0.02281250469
0.02263021185
0.02211275984
0.02196334943
0.02151490762
0.02134374921
0.02090726771
0.02065322058
0.02017008792
0.01977118355
0.01917292769
0.02910709106
0.02640846292
0.02473852017
0.02283153886
0.02173145891
0.02033069247
0.01959890888
0.01855068664
0.01806749382
0.01727714662
0.01696430185
0.01636429784
0.01616498362
0.01570048478
0.01556735499
0.01519204131
0.01508270389
0.01475543225
0.01462940704
0.01430891841
0.01412092524
0.01376436933
0.01346886242
0.01302685275
0.01657715884
0.01496491476
0.01395325593
0.01280543994
0.01212931429
0.01128311437
0.01082654534
0.0101944599
0.009888828648
0.009415607491
0.009215783224
0.008860455373
0.008732994444
0.008460894963
0.008376739301
0.008157718263
0.008089758802
0.00789686989
0.00781848837
0.007624687947
0.007505844077
0.007282958429
0.007094035628
0.006811010788
0.00416657215
0.003628392803
0.00326839992
0.002869733777
0.002613740847
0.002312317768
0.002129064967
0.001902382763
0.001773409384
0.001605082979
0.001517205938
0.001392969867
0.001335152972
0.001241431613
0.001202621564
0.00112690345
0.001095799118
0.001026786651
0.0009916504754
0.0009173299347
0.000864231289
0.000771184457
0.0006867915582
0.000562203572
-0.008417776598
-0.007863967623
-0.007561846244
-0.007197503036
-0.007026693239
-0.006771132665
-0.006677088225
-0.006486462453
-0.006436672959
-0.006287846729
-0.00626264253
-0.006143227919
-0.006130407025
-0.006033621996
-0.006025749679
-0.005947590231
-0.005940141795
-0.005877242112
-0.005867433124
-0.005817045811
-0.005803023259
-0.00576343283
-0.005742261978
-0.005707651903
-0.02081886823
-0.01919065202
-0.01823630775
-0.01712340273
-0.01653239661
-0.01573383685
-0.01536740311
-0.01477406318
-0.01454975989
-0.01409889387
-0.01396490227
-0.01361655001
-0.01353764531
-0.01326340319
-0.01321341252
-0.01299172291
-0.01294987418
-0.01276226991
-0.01271084811
-0.01254011318
-0.01246128409
-0.01229133382
-0.01216604541
-0.01197307841
-0.0332989233
-0.03058689813
-0.02897514377
-0.0271053504
-0.02609056446
-0.02474021626
-0.02409878391
-0.02309290363
-0.02269211208
-0.02192857578
-0.02168413992
-0.0210963099
-0.02094978087
-0.02048883645
-0.02039530639
-0.02002313699
-0.01994570433
-0.0196291792
-0.01953538252
-0.01924247113
-0.01909863298
-0.0187980311
-0.01856890429
-0.01821818598
-0.04553409296
-0.04176085148
-0.03950450367
-0.03689580339
-0.03546596975
-0.033580519
-0.03267084515
-0.03126897642
-0.03069757037
-0.02963752412
-0.02928813341
-0.02847556798
-0.02826652105