/*--------------------------------*- C++ -*----------------------------------*\
| =========                 |                                                 |
| \\      /  F ield         | foam-extend: Open Source CFD                    |
|  \\    /   O peration     | Version:  3.0                                   |
|   \\  /    A nd           | Web:         http://www.extend-project.de       |
|    \\/     M anipulation  |                                                 |
\*---------------------------------------------------------------------------*/
FoamFile
{
    version     2.0;
    format      ascii;
    class       volSymmTensorField;
    location    "41";
    object      sigma;
}
// * * * * * * * * * * * * * * * * * * * * * * * * * * * * * * * * * * * * * //

dimensions      [0 0 0 0 0 0 0];

internalField   nonuniform List<symmTensor> 
2688
(
(-0.1777558677 -0.004798712107 1.566443434e-19 0.1777814637 3.430415978e-19 -2.55959824e-05)
(-0.1741548848 -0.005759897331 4.639639151e-20 0.1742326186 2.004377507e-19 -7.773385539e-05)
(-0.1669936816 -0.006248977286 -9.445315976e-20 0.1671271323 7.064644976e-19 -0.0001334507575)
(-0.1577017965 -0.006421319297 7.734870726e-20 0.1578945424 2.75101016e-19 -0.0001927458775)
(-0.1478840582 -0.006433985934 2.0601107e-20 0.1481397061 4.078438827e-19 -0.0002556479718)
(-0.1376114831 -0.006330369646 1.086986722e-19 0.1379328814 1.79630177e-19 -0.0003213982886)
(-0.127700231 -0.006176197483 3.05941805e-20 0.1280892476 2.720798395e-19 -0.0003890165506)
(-0.1179170532 -0.005984697599 7.632510681e-20 0.1183744852 1.063919064e-19 -0.000457431991)
(-0.108710035 -0.005782768333 -9.415404163e-21 0.1092347016 2.088115776e-19 -0.0005246665472)
(-0.09984125771 -0.005576233368 -5.717035196e-20 0.100431201 -5.66861267e-20 -0.0005899433323)
(-0.09155239633 -0.005373791756 8.006842447e-20 0.09220286262 4.36523642e-19 -0.000650466281)
(-0.08367745439 -0.005180274083 -4.270645817e-20 0.08438348005 8.021346536e-20 -0.0007060256578)
(-0.07632894581 -0.004994608408 3.400750676e-19 0.07708211605 1.138139383e-19 -0.000753170245)
(-0.06942594735 -0.004823009113 -6.074081638e-20 0.07021781523 2.947330904e-20 -0.0007918678759)
(-0.06299150594 -0.004657867046 -2.068220786e-20 0.06380977076 8.651196608e-20 -0.0008182648137)
(-0.05702799284 -0.004508010113 1.744979282e-20 0.05785964132 2.449685744e-20 -0.0008316484821)
(-0.05149029965 -0.004360877883 -4.610969184e-20 0.0523187031 1.762753139e-19 -0.0008284034427)
(-0.04645941176 -0.004228609521 1.96022811e-19 0.04726579668 8.787713124e-20 -0.0008063849161)
(-0.04183760134 -0.004095995295 -1.967254563e-19 0.04260049896 -6.468586435e-20 -0.0007628976268)
(-0.03777532029 -0.003978786173 1.325013836e-19 0.03846972203 2.11336261e-19 -0.0006944017444)
(-0.03414256557 -0.003864832476 9.561838125e-20 0.03474183661 -1.605010662e-19 -0.0005992710434)
(-0.03113706574 -0.003773932823 4.545808565e-20 0.03161027056 -2.599118075e-19 -0.0004732048208)
(-0.02863293728 -0.003699712489 -2.655249963e-20 0.02894740434 6.348017181e-20 -0.0003144670559)
(-0.02682821585 -0.003710594119 -8.243842431e-20 0.02694571616 -5.339653514e-19 -0.0001175003152)
(-0.1772738323 -0.01449485175 4.351289001e-20 0.1772997831 -4.479560139e-19 -2.595078472e-05)
(-0.1732437138 -0.01714068824 2.71695145e-19 0.1733224331 -2.42155403e-19 -7.871930281e-05)
(-0.1658293105 -0.0184059488 7.173568032e-20 0.165964352 -4.344465861e-19 -0.0001350415555)
(-0.1564035714 -0.01874561916 -1.61653149e-19 0.1565984085 -6.202500605e-21 -0.0001948371288)
(-0.1465180366 -0.01862034296 8.264253894e-20 0.1467762123 -1.279983818e-19 -0.0002581756877)
(-0.1362249052 -0.01815453877 -9.602592541e-20 0.136549127 -2.668913199e-19 -0.0003242217615)
(-0.1263192841 -0.01754133422 1.865462753e-19 0.1267113461 1.43834227e-19 -0.0003920619952)
(-0.1165596728 -0.01681875684 -5.324856325e-20 0.1170202418 -4.24797638e-19 -0.0004605690255)
(-0.1073864014 -0.01606620349 -8.391123852e-20 0.1079142144 6.384416666e-20 -0.0005278129816)
(-0.09855640392 -0.0153014752 2.355338335e-19 0.09914947533 -3.943112217e-19 -0.0005930714109)
(-0.09030954596 -0.01455082289 1.000457741e-19 0.09096312936 -1.063622868e-19 -0.0006535834026)
(-0.08247548254 -0.01383064564 -4.744442895e-20 0.08318493771 -2.483371758e-19 -0.0007094551744)
(-0.07516778578 -0.0131391497 -1.573504097e-19 0.07592497342 9.743970888e-20 -0.0007571876397)
(-0.06830087823 -0.01249798333 1.504623803e-19 0.06909829689 -2.806400412e-20 -0.0007974186564)
(-0.06190056307 -0.01188763589 -3.983807285e-20 0.06272662056 1.502418318e-19 -0.000826057487)
(-0.05596359482 -0.01133778392 5.902425625e-20 0.05680687719 3.797848289e-19 -0.0008432823778)
(-0.05044881553 -0.01081623057 2.994752659e-19 0.0512937387 -2.73912975e-19 -0.0008449231769)
(-0.04543021306 -0.01036103295 -4.133102099e-19 0.04625993703 4.217442199e-19 -0.0008297239718)
(-0.04081514842 -0.009932849697 3.123588383e-19 0.04160882764 3.04802687e-19 -0.0007936792245)
(-0.03674608348 -0.009575805522 1.253487778e-20 0.03747980652 -5.761263678e-20 -0.0007337230428)
(-0.03309952536 -0.009255492693 -4.784308118e-19 0.03374467187 1.492374526e-19 -0.0006451465043)
(-0.0300678265 -0.009016787342 1.720863988e-19 0.03058971429 2.916465418e-19 -0.0005218877992)
(-0.02753227027 -0.008845088024 -3.408051137e-19 0.02788936271 3.02392467e-19 -0.0003570924333)
(-0.0256882909 -0.008839093886 2.593067985e-19 0.02582729423 -2.182801798e-19 -0.0001390033304)
(-0.1762894762 -0.02416720472 1.933484893e-19 0.1763158203 3.570791972e-19 -2.63441002e-05)
(-0.171427307 -0.02837582085 5.485770321e-21 0.1715069425 4.732078159e-19 -7.963551657e-05)
(-0.1635227409 -0.03034409204 4.181948132e-20 0.1636590651 2.190912126e-19 -0.0001363241166)
(-0.1538411627 -0.03081015081 2.786989036e-19 0.1540375093 1.397948339e-19 -0.000196346615)
(-0.1438283112 -0.03052307641 -1.879765171e-19 0.1440881338 3.020571231e-19 -0.0002598225337)
(-0.1335006763 -0.02968408942 2.826642222e-19 0.1338265297 1.366604843e-19 -0.0003258533498)
(-0.1236115709 -0.02860798029 -7.696996423e-20 0.1240051033 2.451120053e-19 -0.0003935324403)
(-0.1139036439 -0.02735547308 -1.147834316e-20 0.1143653513 1.922732048e-19 -0.0004617074732)
(-0.1048020479 -0.02605643165 -3.803771112e-20 0.1053304776 4.889302611e-19 -0.000528429679)
(-0.09605374903 -0.02473923691 -2.492465479e-19 0.09664680453 1.872197448e-19 -0.0005930554997)
(-0.08789523422 -0.02344716389 1.615654354e-19 0.08854802416 4.658538142e-19 -0.0006527899398)
(-0.08014775027 -0.02220702351 1.518398754e-19 0.08085575372 6.220037801e-20 -0.0007080034537)
(-0.07292720721 -0.02101653492 5.410829112e-19 0.07368234845 -5.373182306e-20 -0.0007551412375)
(-0.06613933477 -0.01991164182 6.837203161e-21 0.06693466103 -8.804781516e-20 -0.0007953262591)
(-0.05981556568 -0.01886176869 4.160522628e-19 0.06063992258 -6.591063965e-20 -0.0008243568998)
(-0.05394256246 -0.01791616747 -3.156088588e-19 0.054785613 -1.12466466e-19 -0.0008430505446)
(-0.04848694075 -0.01702445945 -3.130022066e-20 0.04933390466 1.487223381e-19 -0.0008469639129)
(-0.04351043354 -0.01624905213 9.717345095e-19 0.0443459846 -1.330748661e-19 -0.0008355510676)
(-0.03892971793 -0.01552839988 -6.434668734e-19 0.03973364606 1.133558463e-19 -0.000803928122)
(-0.03487301222 -0.01493290744 4.483965379e-20 0.0356224497 -2.448008789e-20 -0.0007494374809)
(-0.031227239 -0.01440762195 4.861322038e-19 0.03189250225 3.984690219e-20 -0.0006652632445)
(-0.02817189633 -0.01402037519 3.787470813e-19 0.02871620092 -3.45699669e-19 -0.0005443045847)
(-0.02559894421 -0.0137485389 -6.064290109e-19 0.0259758505 2.698752368e-19 -0.0003769062996)
(-0.02369012775 -0.01371993132 -1.322384164e-19 0.0238390798 -4.408340451e-19 -0.0001489520557)
(-0.1748046803 -0.03378448452 5.630174942e-20 0.174831323 -8.16263318e-22 -2.664263555e-05)
(-0.1687321976 -0.03936932403 1.696879519e-19 0.1688125086 -1.704765787e-19 -8.031108413e-05)
(-0.1601173053 -0.04192396325 -5.817626458e-20 0.1602545327 -7.111787022e-19 -0.000137227426)
(-0.150067473 -0.04244984505 -1.675710424e-19 0.1502647541 1.276614223e-19 -0.0001972810574)
(-0.1398736194 -0.04196285689 1.468936699e-19 0.1401343185 -2.196089875e-19 -0.0002606991404)
(-0.1295002536 -0.04073293729 -1.865868512e-19 0.1298266575 4.79063584e-20 -0.0003264039392)
(-0.1196395869 -0.03918802427 3.197241136e-19 0.1200332223 -6.214177394e-20 -0.000393635349)
(-0.1100112945 -0.03740768494 6.061743612e-20 0.1104722588 2.572962266e-19 -0.000460964361)
(-0.10101833 -0.03556934423 8.943305808e-20 0.1015450112 -4.534825541e-19 -0.0005266811602)
(-0.0923932253 -0.03370936089 1.92960905e-19 0.09298298989 7.861806458e-20 -0.0005897645845)
(-0.0843674878 -0.03188760358 -4.777032207e-20 0.08501528971 2.116656698e-19 -0.0006478019049)
(-0.07675030422 -0.03013907329 -4.827545468e-19 0.07745102565 -3.634306789e-19 -0.0007007214309)
(-0.06966101637 -0.02846180779 -4.353666545e-19 0.07040654067 4.884822143e-19 -0.0007455243083)
(-0.06299311072 -0.0269038687 2.798948176e-19 0.06377600557 -4.671541742e-19 -0.0007828948502)
(-0.05678630506 -0.02542519809 -2.143147073e-19 0.05759563455 9.725978407e-19 -0.0008093294915)
(-0.05101333497 -0.0240923367 4.655807297e-19 0.05183872423 -1.21800759e-19 -0.00082538926)
(-0.04565222804 -0.02283900069 5.22247674e-20 0.04647947584 4.15012618e-19 -0.0008272477991)
(-0.04074813023 -0.02174928692 -2.829510503e-19 0.04156276067 -3.751320004e-19 -0.0008146304423)
(-0.03623075697 -0.02074243345 6.62198554e-19 0.03701340875 5.479072369e-21 -0.0007826517803)
(-0.03220970563 -0.01991126055 -2.149488747e-19 0.03293907497 8.586324489e-20 -0.000729369339)
(-0.02858364244 -0.01918301644 -8.833580827e-19 0.0292308165 1.824182134e-19 -0.0006471740577)
(-0.02551640309 -0.01864268602 6.623670446e-19 0.02604583669 -4.276536669e-20 -0.0005294336019)
(-0.0229066329 -0.01825859098 -2.536440727e-19 0.02327259043 5.475912372e-19 -0.0003659575302)
(-0.02092040031 -0.01817876041 3.714265266e-19 0.02106434465 -1.414014906e-19 -0.0001439443362)
(-0.1728151313 -0.0433336143 7.931833063e-20 0.1728420099 1.44520759e-19 -2.687860201e-05)
(-0.1651958742 -0.05003285389 -3.532484308e-19 0.1652766395 -1.689263094e-19 -8.076526975e-05)
(-0.1556750879 -0.05301509114 2.896423981e-19 0.1558127962 -2.731729609e-19 -0.0001377082599)
(-0.1451585574 -0.05351118318 5.09243002e-19 0.1453561095 3.055149941e-19 -0.0001975521068)
(-0.1347381657 -0.05277322357 -1.250114005e-19 0.1349987492 -2.94825117e-19 -0.0002605835302)
(-0.1243119102 -0.05112907326 2.832051755e-19 0.1246374948 5.124234308e-19 -0.0003255846271)
(-0.1144932385 -0.04910816465 1.910909056e-19 0.1148850921 -3.11972033e-19 -0.0003918535369)
(-0.1049725539 -0.04680376006 -2.918624104e-19 0.1054303018 4.311964362e-19 -0.0004577478885)
(-0.09612412345 -0.04443685272 -2.486278159e-19 0.09664578367 3.644244584e-19 -0.0005216602161)
(-0.08766206592 -0.04204834778 4.570111353e-19 0.08824433562 -2.81495186e-19 -0.0005822697012)
(-0.079811439 -0.03971399256 5.856309906e-20 0.08044879852 -2.165314706e-19 -0.000637359518)
(-0.07236605652 -0.0374741112 4.821190459e-19 0.0730525395 -8.550710889e-20 -0.0006864829716)
(-0.06544972988 -0.03532786779 2.605858615e-19 0.06617670977 4.010905306e-19 -0.0007269798886)
(-0.05894047907 -0.0333326598 4.302722388e-19 0.05969965729 -2.779064058e-19 -0.0007591782143)
(-0.05288885602 -0.03144064443 8.187076919e-19 0.05366891063 3.229919184e-19 -0.0007800546149)
(-0.04725030514 -0.02973272889 -7.428558369e-19 0.04804044367 -9.171510206e-19 -0.0007901385324)
(-0.04201779509 -0.02812922103 2.121017617e-20 0.0428038539 -6.171334323e-19 -0.0007860588073)
(-0.03721637199 -0.02673259676 2.32216573e-19 0.0379846392 2.023550252e-19 -0.0007682672073)
(-0.03279254649 -0.02544616928 -2.050022109e-19 0.03352460972 -1.468952989e-19 -0.0007320632249)
(-0.02883310403 -0.0243806736 6.184917428e-19 0.02951013407 1.024355075e-20 -0.0006770300355)
(-0.02525186975 -0.02344847555 3.027880813e-19 0.02584774147 -1.863288856e-19 -0.0005958717257)
(-0.02218919911 -0.02274438411 4.961127284e-19 0.02267340198 5.666349286e-19 -0.000484202869)
(-0.01955466342 -0.02222751677 -7.964669745e-21 0.01988745613 -9.668123731e-19 -0.0003327927183)
(-0.01748494218 -0.022046494 -6.740075762e-19 0.01761596674 1.048651085e-18 -0.0001310245584)
(-0.1703250021 -0.05278386376 -2.813867483e-19 0.170352103 6.626256134e-19 -2.710084975e-05)
(-0.1608693836 -0.06028279409 -3.949250186e-19 0.1609504445 4.945856811e-19 -8.106094398e-05)
(-0.1502779075 -0.06349815366 -6.305534866e-20 0.1504157815 -2.460144758e-20 -0.0001378739157)
(-0.139214314 -0.0638544072 -2.061797331e-19 0.1394116118 3.186491315e-19 -0.0001972978044)
(-0.1285325695 -0.06280286596 2.051393779e-19 0.1287923106 3.002239329e-19 -0.0002597411957)
(-0.1180516013 -0.06071609347 -1.491696015e-19 0.1183753273 -2.06875591e-19 -0.0003237260137)
(-0.1082906754 -0.05821062429 3.564188475e-19 0.1086794307 -4.170489376e-20 -0.0003887552918)
(-0.0989055809 -0.05538706478 6.154314614e-19 0.09935829663 6.034545761e-19 -0.0004527157298)
(-0.09023610002 -0.05250508828 -3.099029654e-19 0.09075047472 -1.015427367e-18 -0.0005143746957)
(-0.0819746842 -0.04960585913 -7.380937989e-19 0.08254633573 9.955654308e-19 -0.0005716515309)
(-0.07433839585 -0.04678029478 5.710720147e-20 0.07496135872 2.324322791e-19 -0.0006229628651)
(-0.06710303541 -0.04407031448 -2.32918297e-20 0.06776980483 -8.964798494e-20 -0.0006667694174)
(-0.06039746468 -0.04147749579 -4.553795149e-19 0.06109885385 2.602190827e-20 -0.0007013891659)
(-0.05408171869 -0.03906480715 2.221654333e-20 0.05480754337 -4.274617447e-20 -0.0007258246804)
(-0.04821906984 -0.03677902994 -3.1833122e-19 0.04895747353 1.106769035e-19 -0.0007384036867)
(-0.04274530968 -0.03471146113 -3.586827159e-19 0.04348379308 -3.691137884e-19 -0.0007384833961)
(-0.03767090959 -0.03277236025 4.209691474e-19 0.03839522333 1.40326514e-18 -0.0007243137364)
(-0.0329994507 -0.03107844382 3.516067348e-19 0.0336953094 -1.70557169e-19 -0.000695858696)
(-0.02869572657 -0.02952170025 2.178672997e-19 0.0293460732 6.245386966e-19 -0.0006503466287)
(-0.02482540474 -0.02822593131 -4.826505522e-19 0.02541341951 3.562233408e-19 -0.000588014772)
(-0.02131487494 -0.02709403006 -1.391789103e-19 0.02181938249 3.649896967e-19 -0.0005045075561)
(-0.01828765268 -0.02622134273 -2.399700789e-19 0.01868611657 1.270883267e-18 -0.0003984638882)
(-0.01566108487 -0.02556027643 1.092774849e-18 0.0159260736 -3.94176496e-19 -0.0002649887373)
(-0.01355196155 -0.02521437492 -1.606197717e-19 0.01365207088 2.480231362e-18 -0.0001001093265)
(-0.1673299651 -0.06211790159 5.362194886e-19 0.1673571344 -1.204244139e-18 -2.71692112e-05)
(-0.155811686 -0.07004563425 -9.237919548e-19 0.1558926785 2.931909338e-20 -8.099251141e-05)
(-0.1440222177 -0.07326830353 4.111896982e-19 0.1441596294 -8.177324749e-19 -0.0001374117725)
(-0.1323525929 -0.07335764371 4.998483351e-19 0.1325487044 6.758027348e-19 -0.0001961115502)
(-0.1213871276 -0.07192060252 -5.281053611e-20 0.1216446806 -1.140293256e-18 -0.0002575530225)
(-0.1108558 -0.06935900842 -1.089440875e-19 0.1111758487 4.518753164e-19 -0.0003200487496)
(-0.101170747 -0.06635982755 6.052152118e-19 0.1015539336 -1.147865146e-19 -0.0003831865754)
(-0.09194914499 -0.06302369255 -3.36905785e-19 0.09239363787 -1.079871165e-18 -0.0004444928804)
(-0.08349126388 -0.05964326933 4.992726922e-19 0.08399417283 -5.41193423e-19 -0.0005029089414)
(-0.07546546587 -0.05625516581 1.44242393e-18 0.07602127764 2.207351591e-19 -0.0005558117654)
(-0.06807936123 -0.05296450511 -7.863162267e-19 0.068681291 -8.872688001e-19 -0.0006019297684)
(-0.06108863966 -0.04981080473 2.494524603e-19 0.06172765429 4.86935874e-19 -0.0006390146292)
(-0.05462759443 -0.0467991822 3.328739826e-19 0.05529346397 2.950196295e-19 -0.0006658695384)
(-0.04853608904 -0.04399431561 1.830661109e-19 0.04921687066 8.159285996e-19 -0.0006807816239)
(-0.04289176864 -0.04133970724 8.687631446e-19 0.04357449911 -3.721308441e-19 -0.000682730474)
(-0.03760864311 -0.03893313995 -5.011074556e-19 0.0382793362 1.332162028e-18 -0.000670693096)
(-0.03271744192 -0.03667744813 3.811475393e-19 0.03336119627 -5.648995901e-19 -0.0006437543504)
(-0.0281991967 -0.03470017806 -6.665946309e-19 0.0288013424 5.544344904e-19 -0.000602145707)
(-0.02404060748 -0.03288485841 8.969763836e-19 0.02458522233 -3.394848253e-19 -0.000544614848)
(-0.02028726881 -0.03136608392 3.315241418e-19 0.0207601084 6.39835943e-19 -0.0004728395948)
(-0.01688192834 -0.03003934419 1.705749996e-18 0.01726771981 -5.930518082e-19 -0.0003857914756)
(-0.01393312086 -0.02899067818 -5.231524687e-19 0.0142196222 8.313990418e-19 -0.0002865013401)
(-0.01136273281 -0.02816980173 1.510037399e-18 0.0115385808 4.625508613e-19 -0.0001758479898)
(-0.009251885462 -0.02754959158 -1.011341053e-18 0.009310782345 -5.199654386e-19 -5.889688219e-05)
(-0.1638357206 -0.07130634294 2.773204726e-19 0.1638629722 1.334958672e-18 -2.725160492e-05)
(-0.1500928708 -0.07925691759 2.087492589e-19 0.1501736342 5.452279931e-20 -8.076345766e-05)
(-0.137019728 -0.08223785004 -4.605348037e-19 0.1371563278 1.037235858e-18 -0.0001365998512)
(-0.1247093973 -0.0819202111 2.210442788e-19 0.1249037412 -7.967826911e-19 -0.0001943438586)
(-0.113452269 -0.08001866739 2.811159106e-19 0.113706823 -1.314814062e-19 -0.0002545539987)
(-0.1028820933 -0.07694733661 5.905015955e-20 0.1031973456 7.963263625e-19 -0.0003152523253)
(-0.09329404875 -0.0734450069 -7.427410388e-19 0.09367026534 1.095951562e-19 -0.0003762165886)
(-0.08426393984 -0.06960431709 3.552176112e-19 0.08469841446 2.458204858e-20 -0.0004344746162)
(-0.07604858969 -0.06574453055 -8.010457189e-19 0.07653791188 1.303533225e-18 -0.0004893221912)
(-0.06829067735 -0.06189244369 -7.804423584e-20 0.06882808044 -4.462477164e-19 -0.0005374030831)
(-0.06118705038 -0.05816631528 3.249767355e-19 0.0617650592 8.232131787e-19 -0.0005780088198)
(-0.05447184188 -0.05459882805 8.179141966e-19 0.05507979605 -1.2098421e-19 -0.0006079541673)
(-0.0482847783 -0.05120003867 -1.525351421e-19 0.04891161193 2.681348517e-19 -0.0006268336359)
(-0.04244390851 -0.04803185006 -3.125909229e-19 0.04307582742 -7.869532923e-19 -0.0006319189119)
(-0.03704200907 -0.04503705774 3.319981075e-19 0.03766524852 6.421782654e-21 -0.0006232394461)
(-0.03196978236 -0.0423150305 2.703119105e-19 0.0325686054 -9.879938098e-19 -0.0005988230422)
(-0.02727913772 -0.03976406605 2.714247869e-20 0.02783842163 3.008431004e-20 -0.0005592839046)
(-0.02292895076 -0.03751774188 7.888156934e-19 0.02343297242 -8.346336218e-19 -0.0005040216612)
(-0.01892703579 -0.03545413357 1.031551997e-19 0.01936164407 -3.083334411e-19 -0.0004346082797)
(-0.01530628286 -0.03371650579 -6.94203048e-19 0.01565902215 -6.281341789e-19 -0.0003527392917)
(-0.01201681122 -0.03220031825 4.903061917e-19 0.01227925703 -2.933834225e-19 -0.0002624458117)
(-0.009182425197 -0.03098825633 1.589218583e-18 0.009352377869 4.510132372e-19 -0.0001699526717)
(-0.006684902269 -0.03005423295 5.496584288e-19 0.006768356996 -1.415096994e-18 -8.345472725e-05)
(-0.004808684846 -0.02917587698 2.248329692e-19 0.004825135011 1.106882047e-18 -1.645016476e-05)
(-0.1598402874 -0.08032692057 -4.570564202e-20 0.1598673662 -7.325553757e-19 -2.707879664e-05)
(-0.1437876155 -0.08786359425 -1.278723597e-18 0.1438676222 4.066574834e-19 -8.000677088e-05)
(-0.1293912691 -0.09033681342 8.87172601e-19 0.1295262141 -2.075105218e-18 -0.0001349449984)
(-0.1164319505 -0.08946333125 -7.470969486e-19 0.1166233348 6.450635952e-19 -0.0001913843757)
(-0.1048905748 -0.08701372333 7.884204868e-19 0.1051404821 -2.574184762e-19 -0.0002499072806)
(-0.0943006697 -0.08339622483 7.568409869e-19 0.09460897773 -1.61813106e-19 -0.0003083080322)
(-0.08483372438 -0.07938148625 9.180171184e-20 0.08520016301 -3.410186318e-19 -0.0003664386267)
(-0.07602304515 -0.07504566759 2.603247731e-19 0.07644402376 -3.991555745e-19 -0.0004209786057)
(-0.06807907082 -0.07072774437 6.892869947e-19 0.06855046379 -7.271039976e-19 -0.0004713929726)
(-0.06061825472 -0.06643925922 3.73989256e-19 0.0611321575 4.865582321e-19 -0.0005139027795)
(-0.05382548271 -0.06231038691 -7.737348041e-19 0.054373552 -7.091312256e-19 -0.0005480692915)
(-0.04741262042 -0.05836258138 1.349432343e-19 0.04798293572 1.160822619e-20 -0.0005703152909)
(-0.04152450586 -0.05461218466 3.43843162e-19 0.04210507774 2.211022716e-19 -0.0005805718798)
(-0.03595609366 -0.05111415611 -3.096359675e-19 0.03653198138 6.147966226e-19 -0.000575887721)
(-0.03081548857 -0.04781298228 5.11306308e-20 0.03137218418 6.770641456e-19 -0.0005566956136)
(-0.0259679003 -0.04480557919 -4.544760712e-19 0.02648890549 1.030922233e-18 -0.0005210051895)
(-0.02148702995 -0.04198752868 -7.674073741e-21 0.02195720387 2.95694664e-19 -0.0004701739165)
(-0.01730619283 -0.03949647287 -1.418211156e-18 0.01770989016 6.802250685e-19 -0.0004036973323)
(-0.01345588023 -0.03720275255 1.244756521e-18 0.01378092582 8.565047549e-19 -0.0003250455813)
(-0.009952594609 -0.03526718387 1.217391225e-20 0.0101892809 4.877548731e-19 -0.0002366862913)
(-0.006758688832 -0.03357227096 1.124107043e-18 0.006905011835 8.794109746e-19 -0.0001463230024)
(-0.004017678752 -0.03224801653 -1.382845243e-18 0.00408071725 -7.882812758e-19 -6.303849812e-05)
(-0.001583868175 -0.03125054238 2.256276972e-18 0.001584407654 5.218396417e-19 -5.394790056e-07)
(6.133577149e-05 -0.03048736353 -5.010708012e-19 -8.288099787e-05 -1.423840101e-18 2.154522638e-05)
(-0.155350063 -0.08915148566 1.930790883e-18 0.1553769963 4.404561123e-20 -2.693326497e-05)
(-0.1369778104 -0.095825045 2.273118067e-20 0.1370568793 -8.267265778e-19 -7.906883225e-05)
(-0.1212664372 -0.09751672499 -2.10628352e-19 0.1213993284 -1.565223977e-19 -0.0001328912231)
(-0.1076775128 -0.09593463992 5.185029191e-19 0.1078652993 1.246860901e-18 -0.0001877865476)
(-0.09587563258 -0.09285178803 -5.829214062e-19 0.09612001184 -3.735413084e-19 -0.0002443792655)
(-0.08529309658 -0.08865180485 3.297426472e-19 0.08559331883 5.362493358e-19 -0.000300222257)
(-0.07597461261 -0.08411637449 -6.41491218e-19 0.07632988908 -1.568123876e-19 -0.0003552764699)
(-0.06741124556 -0.07929653208 -5.844611597e-19 0.06781715917 7.67122768e-19 -0.0004059136092)
(-0.05976553223 -0.07454367755 3.87916929e-20 0.06021732271 6.2246743e-19 -0.0004517904811)
(-0.05262800207 -0.06984865528 1.131736437e-19 0.05311688963 7.666153082e-19 -0.0004888875587)
(-0.04617088501 -0.06535219217 3.002119183e-19 0.04668785761 1.762695823e-19 -0.0005169725999)
(-0.04008367104 -0.06106016823 7.665063267e-19 0.04061616768 6.485853817e-19 -0.0005324966397)
(-0.03451610946 -0.05699670969 7.43741992e-19 0.035051593 6.569929826e-20 -0.0005354835341)
(-0.02923923139 -0.05320564471 4.81585895e-19 0.0297626348 -8.642731432e-19 -0.0005234034105)
(-0.02437661722 -0.04963628114 1.064166674e-18 0.02487327175 -2.530596058e-19 -0.0004966545327)
(-0.01976594646 -0.04637860576 3.40632779e-19 0.02021982226 -1.301831377e-18 -0.0004538758016)
(-0.01550357359 -0.04332949426 1.932155924e-19 0.0159002317 -2.048957634e-19 -0.0003966581127)
(-0.01149243012 -0.04062620015 9.719331796e-19 0.01181734516 -8.174051918e-19 -0.0003249150378)
(-0.007789531349 -0.03813521619 -9.687362797e-19 0.008032933487 -1.544588615e-19 -0.0002434021382)
(-0.004382084627 -0.03603209174 -4.538165273e-19 0.004537038259 -5.846153342e-19 -0.000154953632)
(-0.001257358363 -0.03418771832 -5.055277289e-20 0.001327087687 -1.264282746e-19 -6.972932405e-05)
(0.001463168043 -0.03278491144 -1.808303438e-21 -0.001465556678 8.039473966e-19 2.388634183e-06)
(0.003909630136 -0.03174407103 -1.677401461e-18 -0.003954485961 -8.525610488e-19 4.485582576e-05)
(0.005695550692 -0.03121994823 1.321912135e-18 -0.005733748091 -1.389716152e-20 3.819739828e-05)
(-0.1503676474 -0.09775343681 -5.537645446e-19 0.1503941023 4.956984638e-19 -2.645497184e-05)
(-0.1297466236 -0.1031121843 2.299484956e-19 0.1298241096 -9.734047954e-19 -7.748600266e-05)
(-0.1127779254 -0.1037481234 -1.87324903e-19 0.1129077926 1.688229883e-18 -0.0001298672341)
(-0.09860713587 -0.1013053442 3.557857894e-19 0.09879002001 -8.685970039e-19 -0.0001828841434)
(-0.08658501437 -0.09750503554 -3.633361334e-20 0.08682216604 4.73510148e-19 -0.0002371516633)
(-0.07604511077 -0.09268740023 1.359057553e-18 0.07633515649 -6.206208325e-19 -0.0002900457269)
(-0.06690566542 -0.08762412541 2.579346691e-19 0.06724724442 2.367064013e-19 -0.0003415789988)
(-0.05861749089 -0.08233243973 1.001081605e-18 0.05900543756 -8.038093026e-19 -0.0003879466657)
(-0.05129484068 -0.07716884093 2.21533805e-19 0.05172378227 -2.614827924e-19 -0.0004289415923)
(-0.04450382776 -0.07209797581 6.967059522e-19 0.04496433924 -6.354887949e-19 -0.0004605114803)
(-0.03840348342 -0.06726985352 -1.334352428e-18 0.03888608255 -5.437229978e-19 -0.0004825991324)
(-0.03266194007 -0.06267033723 3.291712507e-20 0.03315384473 -1.876268433e-19 -0.000491904663)
(-0.02743328477 -0.05833309613 -3.606874481e-19 0.0279218677 -6.973878177e-19 -0.0004885829309)
(-0.02246515276 -0.05428643039 -5.177844161e-19 0.02293573609 -2.537664798e-19 -0.0004705833257)
(-0.0178960368 -0.05048810434 -2.774588843e-19 0.018334493 3.584945008e-19 -0.0004384562047)
(-0.01353584727 -0.04701597146 7.190525475e-21 0.01392706891 7.307881495e-19 -0.000391221635)
(-0.009503658018 -0.04377313903 -1.843081439e-19 0.009834669242 6.829069705e-19 -0.0003310112238)
(-0.005669517783 -0.04088918553 -7.78260161e-20 0.005927265835 -6.487203561e-19 -0.000257748052)
(-0.002119743346 -0.03823240201 1.789501235e-18 0.002297109461 2.114143833e-18 -0.000177366115)
(0.001197328853 -0.03598120099 -1.589666577e-19 -0.001104881373 -1.094284551e-19 -9.244747978e-05)
(0.004262256261 -0.03400031164 2.128728074e-18 -0.004247976534 1.474669528e-18 -1.427972659e-05)
(0.007008148082 -0.03250220874 -6.028061393e-19 -0.00705618973 -1.294698246e-18 4.804164769e-05)
(0.009535600662 -0.03138363811 1.748501039e-19 -0.009612761031 2.729452951e-20 7.716036899e-05)
(0.01170333711 -0.03093951108 -1.131353627e-18 -0.01175636699 -2.785275934e-19 5.302988029e-05)
(-0.1448997219 -0.1061050998 9.227439423e-19 0.1449257368 2.501241246e-19 -2.601488595e-05)
(-0.1221794466 -0.1097101777 -5.210566467e-19 0.1222551665 5.142409619e-19 -7.571986929e-05)
(-0.1040595181 -0.1090248713 5.515980509e-20 0.1041859579 -8.978330567e-20 -0.0001264397561)
(-0.08938241063 -0.1055751238 1.579155957e-19 0.08955977836 3.775460135e-19 -0.0001773677322)
(-0.07719655632 -0.1009772874 -8.380264233e-19 0.07742565669 -3.201477137e-19 -0.0002291003713)
(-0.06674227405 -0.09550981728 5.006332009e-19 0.06702116371 -3.322842996e-19 -0.0002788896657)
(-0.05781538566 -0.08991366789 -3.838764402e-19 0.05814214737 -4.19742965e-19 -0.0003267617084)
(-0.04982981763 -0.084163933 -4.304907134e-19 0.05019873175 -3.633164458e-19 -0.0003689141169)
(-0.04285266336 -0.07861484392 7.510991472e-19 0.04325780686 -7.97682936e-21 -0.0004051434978)
(-0.03642796077 -0.07319968503 1.046370751e-18 0.03685973048 7.250308884e-20 -0.0004317697115)
(-0.03070161111 -0.06807629084 1.151729536e-18 0.03115018564 1.953680888e-19 -0.000448574529)
(-0.02532205178 -0.06320643896 1.6047878e-19 0.02577527425 3.911695254e-19 -0.0004532224741)
(-0.02044740074 -0.05863482952 3.267026325e-19 0.02089274863 9.146836022e-19 -0.0004453478981)
(-0.01580306758 -0.05437024657 7.134562174e-19 0.01622749741 1.935127912e-19 -0.0004244298268)
(-0.01154194601 -0.05038219568 7.576035321e-19 0.01193210673 1.314119213e-18 -0.0003901607248)
(-0.007446821944 -0.04673132585 3.015301359e-19 0.007790214833 -3.475292254e-19 -0.000343392889)
(-0.003658983806 -0.04333159877 -5.796374095e-19 0.003944323622 -1.119413543e-18 -0.0002853398157)
(-1.508288339e-05 -0.04029624281 -1.355861439e-19 0.0002329743194 7.056810364e-19 -0.000217891436)
(0.003369033046 -0.03750141002 6.249645202e-19 -0.003223235997 -1.040304272e-18 -0.0001457970493)
(0.00658698851 -0.03511043827 -9.414194243e-19 -0.006513795137 -1.029863334e-18 -7.319337301e-05)
(0.009585553554 -0.03299060145 -4.825926495e-19 -0.009576701084 -9.460876548e-19 -8.852470245e-06)
(0.01235873237 -0.031345439 7.950383904e-19 -0.01239797127 -1.3592003e-18 3.923889383e-05)
(0.01497507856 -0.03007106584 -1.30587673e-18 -0.01503369451 6.500351479e-20 5.861594983e-05)
(0.01753116451 -0.02947358666 1.273140464e-18 -0.01756855355 -9.203257104e-20 3.738904103e-05)
(-0.1389550818 -0.1141770276 -1.005182688e-19 0.1389802863 5.905138685e-19 -2.520452102e-05)
(-0.1143599553 -0.1156148878 5.124938161e-19 0.1144332285 -6.588837332e-19 -7.32732109e-05)
(-0.09524205026 -0.1133593136 -6.417912545e-19 0.09536410105 1.364556736e-18 -0.0001220507864)
(-0.08016118074 -0.1087666986 8.033315372e-19 0.08033182003 -7.073074185e-19 -0.000170639286)
(-0.06788377257 -0.1032979935 -5.656936663e-19 0.06810337783 1.155126545e-19 -0.0002196052561)
(-0.05756573578 -0.09715253904 -4.263638705e-20 0.05783186165 8.230600413e-19 -0.0002661258734)
(-0.04888779823 -0.0910208275 6.424147004e-19 0.04919806848 3.321333443e-19 -0.0003102702513)
(-0.04123202906 -0.08482787327 -5.639768946e-19 0.04158031383 7.915082146e-19 -0.0003482847727)
(-0.03462055035 -0.07891871327 -7.479081333e-19 0.03500063665 2.068788408e-19 -0.000380086302)
(-0.0285789045 -0.07319017606 -4.834165392e-19 0.02898121743 7.983229194e-19 -0.0004023129232)
(-0.0232399957 -0.06780674412 -2.496787305e-19 0.0236548724 -8.846442004e-19 -0.0004148767043)
(-0.01823554902 -0.06270184053 5.125975246e-19 0.01865159218 8.107238584e-19 -0.0004160431575)
(-0.01372684627 -0.05793300326 -8.465785933e-20 0.0141323813 -1.438042355e-18 -0.0004055350348)
(-0.009420052594 -0.05348506168 -4.197852911e-19 0.009803469925 -3.656435557e-19 -0.0003834173312)
(-0.005480699603 -0.04934301523 8.580944362e-19 0.005830314974 -9.106351195e-19 -0.0003496153711)
(-0.001667889586 -0.04554470174 1.274471374e-19 0.001973126214 -1.561375807e-18 -0.0003052366281)
(0.001857830377 -0.04202025315 8.241737991e-19 -0.001605750821 5.6789407e-19 -0.0002520795562)
(0.00528895112 -0.0388577752 -9.349954691e-20 -0.005096757052 -1.386099204e-18 -0.0001921940681)
(0.00848470037 -0.03594815433 7.733514417e-19 -0.00835425196 1.339204332e-18 -0.0001304484101)