/*--------------------------------*- C++ -*----------------------------------*\
| =========                 |                                                 |
| \\      /  F ield         | foam-extend: Open Source CFD                    |
|  \\    /   O peration     | Version:  3.0                                   |
|   \\  /    A nd           | Web:         http://www.extend-project.de       |
|    \\/     M anipulation  |                                                 |
\*---------------------------------------------------------------------------*/
FoamFile
{
    version     2.0;
    format      ascii;
    class       volScalarField;
    location    "6.8";
    object      p;
}
// * * * * * * * * * * * * * * * * * * * * * * * * * * * * * * * * * * * * * //

dimensions      [0 0 0 0 0 0 0];

internalField   nonuniform List<scalar> 
400
(
1.39701
0.82593
0.833195
0.656147
0.824091
0.755084
0.953111
0.913136
1.10975
1.07667
1.27072
1.23602
1.42901
1.3812
1.56204
1.47444
1.60145
1.40637
1.3666
0.848114
2.12962
1.65915
1.58655
1.33446
1.3921
1.22071
1.3076
1.1652
1.25241
1.11729
1.19816
1.05763
1.13016
0.9733
1.03158
0.842902
0.862453
0.606684
0.507547
0.0928572
1.80475
1.3667
1.34965
1.15258
1.24664
1.12382
1.24421
1.14274
1.26891
1.17093
1.30092
1.19839
1.33152
1.21597
1.34191
1.1957
1.27946
1.05978
1.0132
0.6133
1.83548
1.51106
1.4512
1.27901
1.31534
1.19245
1.25149
1.14149
1.20375
1.09646
1.16132
1.05358
1.1234
1.01021
1.07874
0.944043
0.978405
0.780613
0.693602
0.360921
1.56998
1.25274
1.25265
1.11499
1.20044
1.11401
1.22305
1.14844
1.27138
1.19873
1.34143
1.26882
1.43696
1.359
1.544
1.43816
1.59344
1.39675
1.39659
0.971311
1.48116
1.22645
1.20867
1.10385
1.14642
1.07715
1.12946
1.06589
1.12269
1.06234
1.13302
1.08017
1.17656
1.1304
1.25427
1.19097
1.30721
1.14337
1.12211
0.649367
1.32852
1.10678
1.12642
1.04962
1.12018
1.07239
1.1595
1.11386
1.22232
1.17777
1.32426
1.28668
1.48948
1.45935
1.72335
1.67295
1.95184
1.7711
1.87508
1.24345
1.18471
1.04691
1.0544
1.01145
1.03896
1.00725
1.03372
0.998969
1.03131
0.99982
1.05531
1.03987
1.14106
1.14941
1.31324
1.32045
1.52116
1.39591
1.45539
0.778787
1.0865
1.03578
1.05477
1.04223
1.0708
1.05128
1.09165
1.06095
1.12791
1.09461
1.21203
1.1911
1.39124
1.39451
1.706
1.71163
2.11041
1.97099
2.22468
1.40352
0.906055
0.965851
0.981111
1.00157
0.99148
0.983405
0.964632
0.939284
0.924874
0.897373
0.906522
0.898923
0.961237
0.996177
1.14542
1.21425
1.44821
1.40374
1.53441
0.785644
0.8373
1.01602
1.01889
1.07229
1.04475
1.0452
1.02484
0.995232
0.998444
0.955602
1.00664
0.974425
1.1153
1.12236
1.40949
1.45977
1.91912
1.87604
2.30939
1.50104
0.648854
0.930456
0.948907
1.03081
0.980119
0.988309
0.919459
0.88947
0.815466
0.768707
0.70489
0.671341
0.647638
0.668962
0.731067
0.837307
1.01663
1.11102
1.27513
0.745752
0.61399
1.0061
0.99421
1.10829
1.03469
1.05167
0.974064
0.936255
0.866064
0.795301
0.751103
0.677691
0.702145
0.673095
0.843823
0.909968
1.32361
1.43748
2.04682
1.6
0.460887
0.917876
0.9437
1.07882
1.00156
1.02366
0.912712
0.86993
0.735007
0.651548
0.500935
0.410576
0.266637
0.227555
0.137212
0.234991
0.262308
0.536228
0.665833
0.750327
0.481932
1.00474
0.992824
1.1554
1.06006
1.09185
0.970593
0.918967
0.777858
0.666953
0.515615
0.377
0.246387
0.138975
0.10833
0.14016
0.371747
0.671817
1.38428
1.72797
0.424662
0.962211
0.997145
1.17047
1.08289
1.11565
0.973444
0.912837
0.724071
0.595114
0.360272
0.193572
-0.0803979
-0.222662
-0.501643
-0.481164
-0.681535
-0.250783
-0.247184
0.843045
0.542348
1.07168
1.07332
1.26442
1.16568
1.20529
1.05179
0.981529
0.780227
0.625761
0.37623
0.162696
-0.128401
-0.346548
-0.627307
-0.699466
-0.788162
-0.355555
0.254418
1.76226
0.666643
1.15426
1.18473
1.36924
1.27184
1.30199
1.13256
1.0486
0.818352
0.645498
0.346489
0.103114
-0.28001
-0.549702
-1.01008
-1.15124
-1.60689
-1.16604
-1.38934
0.877422
0.935037
1.32316
1.33057
1.515
1.40494
1.43087
1.24637
1.15043
0.905555
0.713811
0.396496
0.118461
-0.297079
-0.634458
-1.14998
-1.4032
-1.89934
-1.53352
-1.45107
1.25336
1.36105
1.63074
1.6129
1.75446
1.61907
1.61099
1.41114
1.29298
1.04137
0.834372
0.511758
0.211792
-0.221881
-0.61434
-1.18853
-1.57734
-2.23327
-2.12723
-2.6058
0.219371
)
;

boundaryField
{
    cavity
    {
        type            implicitExtrapolation;
    }
    lid
    {
        type            implicitExtrapolation;
    }
    frontAndBack
    {
        type            empty;
    }
}


// ************************************************************************* //
