/*--------------------------------*- C++ -*----------------------------------*\
| =========                 |                                                 |
| \\      /  F ield         | foam-extend: Open Source CFD                    |
|  \\    /   O peration     | Version:  3.0                                   |
|   \\  /    A nd           | Web:         http://www.extend-project.de       |
|    \\/     M anipulation  |                                                 |
\*---------------------------------------------------------------------------*/
FoamFile
{
    version     2.0;
    format      ascii;
    class       volVectorField;
    location    "20";
    object      s;
}
// * * * * * * * * * * * * * * * * * * * * * * * * * * * * * * * * * * * * * //

dimensions      [0 1 -1 0 0 0 0];

internalField   nonuniform List<vector> 
1280
(
(3.48666 0.341347 0)
(2.34544 0.242839 0)
(1.62255 0.178474 0)
(1.14219 0.134549 0)
(0.811329 0.103187 0)
(0.576755 0.0802185 0)
(0.406707 0.0629288 0)
(0.281006 0.0496819 0)
(0.18673 0.0393588 0)
(0.115041 0.0312246 0)
(0.059983 0.0247411 0)
(0.0172648 0.0195793 0)
(-0.0161082 0.0154257 0)
(-0.0423726 0.0121814 0)
(-0.0632764 0.00961694 0)
(-0.0797611 0.00766054 0)
(3.38607 1.02585 0)
(2.27446 0.734094 0)
(1.5707 0.542901 0)
(1.10344 0.412224 0)
(0.781802 0.318964 0)
(0.553963 0.250571 0)
(0.388911 0.199104 0)
(0.266994 0.159644 0)
(0.175612 0.128885 0)
(0.106145 0.104612 0)
(0.0528252 0.0852087 0)
(0.0114053 0.0696709 0)
(-0.0208986 0.0569513 0)
(-0.0464611 0.0469703 0)
(-0.0666724 0.038432 0)
(-0.0828786 0.0327682 0)
(3.18792 1.68926 0)
(2.13497 1.20974 0)
(1.46871 0.896113 0)
(1.02729 0.681553 0)
(0.723853 0.528501 0)
(0.509324 0.416209 0)
(0.354169 0.331714 0)
(0.239765 0.266919 0)
(0.154158 0.216421 0)
(0.0891332 0.176551 0)
(0.039326 0.144719 0)
(0.000476042 0.119123 0)
(-0.0295724 0.0983195 0)
(-0.053983 0.0815589 0)
(-0.0724088 0.0676979 0)
(-0.0887326 0.0571537 0)
(2.89648 2.31679 0)
(1.92953 1.65968 0)
(1.31883 1.23085 0)
(0.915352 0.937203 0)
(0.638729 0.727809 0)
(0.443774 0.574115 0)
(0.30321 0.458465 0)
(0.199904 0.369761 0)
(0.122852 0.300639 0)
(0.0645006 0.246055 0)
(0.0199439 0.20253 0)
(-0.0147423 0.167455 0)
(-0.0414995 0.13914 0)
(-0.063193 0.115924 0)
(-0.07957 0.0972476 0)
(-0.0938462 0.0814527 0)
(2.51836 2.89346 0)
(1.66288 2.07448 0)
(1.12437 1.54021 0)
(0.770076 1.17417 0)
(0.528239 0.913119 0)
(0.358676 0.721439 0)
(0.237059 0.577175 0)
(0.14818 0.466493 0)
(0.0822702 0.380228 0)
(0.0326405 0.312085 0)
(-0.00502611 0.257746 0)
(-0.0341962 0.213919 0)
(-0.056537 0.178536 0)
(-0.0745609 0.149436 0)
(-0.0880714 0.125963 0)
(-0.099697 0.106048 0)
(2.06236 3.40717 0)
(1.34114 2.44547 0)
(0.889642 1.818 0)
(0.594614 1.38784 0)
(0.39473 1.08098 0)
(0.255787 0.855565 0)
(0.157041 0.685845 0)
(0.0855907 0.55558 0)
(0.0331585 0.454014 0)
(-0.00589615 0.373754 0)
(-0.0352003 0.309725 0)
(-0.0576419 0.258051 0)
(-0.0746223 0.2163 0)
(-0.0881759 0.181921 0)
(-0.0982242 0.154116 0)
(-0.10678 0.130554 0)
(1.53897 3.8472 0)
(0.971589 2.76509 0)
(0.619849 2.05871 0)
(0.392776 1.57417 0)
(0.241025 1.22835 0)
(0.137221 0.974166 0)
(0.064738 0.782686 0)
(0.0133125 0.635639 0)
(-0.0236205 0.520919 0)
(-0.0505044 0.43021 0)
(-0.0701733 0.357787 0)
(-0.0848647 0.299305 0)
(-0.0956561 0.251976 0)
(-0.104088 0.213015 0)
(-0.110115 0.181376 0)
(-0.115216 0.154693 0)
(0.960179 4.20453 0)
(0.562561 3.02695 0)
(0.320949 2.25772 0)
(0.168925 1.72971 0)
(0.0703603 1.35262 0)
(0.00539657 1.07526 0)
(-0.0380394 0.866174 0)
(-0.0673079 0.705488 0)
(-0.0870808 0.580028 0)
(-0.100487 0.480749 0)
(-0.109479 0.401401 0)
(-0.115599 0.337279 0)
(-0.119533 0.285293 0)
(-0.122343 0.242501 0)
(-0.123909 0.207624 0)
(-0.125277 0.178311 0)
(0.339201 4.47205 0)
(0.123237 3.22603 0)
(-0.000475899 2.41138 0)
(-0.0721202 1.85176 0)
(-0.113689 1.45173 0)
(-0.137013 1.15726 0)
(-0.14929 0.935073 0)
(-0.154781 0.764165 0)
(-0.156127 0.630587 0)
(-0.155058 0.524777 0)
(-0.152579 0.440105 0)
(-0.149499 0.371613 0)
(-0.146065 0.315981 0)
(-0.142864 0.270172 0)
(-0.139637 0.232716 0)
(-0.137033 0.201299 0)
(-0.309842 4.64478 0)
(-0.336565 3.35878 0)
(-0.337386 2.51709 0)
(-0.325202 1.93833 0)
(-0.307294 1.52417 0)
(-0.287143 1.21901 0)
(-0.266868 0.98847 0)
(-0.247503 0.810944 0)
(-0.229578 0.672018 0)
(-0.213365 0.561834 0)
(-0.198877 0.47353 0)
(-0.186174 0.40201 0)
(-0.175019 0.343803 0)
(-0.165544 0.295835 0)
(-0.157283 0.256494 0)
(-0.150554 0.22352 0)
(-0.972248 4.71995 0)
(-0.80662 3.42321 0)
(-0.682445 2.57334 0)
(-0.584944 1.9883 0)
(-0.506458 1.56906 0)
(-0.442 1.25977 0)
(-0.388527 1.02579 0)
(-0.343796 0.845352 0)
(-0.306189 0.703932 0)
(-0.274502 0.591593 0)
(-0.247731 0.501406 0)
(-0.225187 0.428239 0)
(-0.206123 0.368567 0)
(-0.190232 0.319323 0)
(-0.176805 0.278817 0)
(-0.165852 0.244848 0)
(-1.63309 4.69708 0)
(-1.27655 3.41889 0)
(-1.0282 2.57979 0)
(-0.845876 2.00134 0)
(-0.707113 1.58611 0)
(-0.598534 1.27931 0)
(-0.511971 1.04679 0)
(-0.441937 0.867177 0)
(-0.384679 0.726128 0)
(-0.337526 0.613867 0)
(-0.298465 0.523549 0)
(-0.266067 0.450125 0)
(-0.239067 0.390095 0)
(-0.216745 0.340461 0)
(-0.198115 0.299507 0)
(-0.182931 0.265114 0)
(-2.27759 4.57801 0)
(-1.73605 3.34704 0)
(-1.36724 2.53723 0)
(-1.10256 1.97798 0)
(-0.905213 1.57566 0)
(-0.753705 1.27783 0)
(-0.634914 1.0516 0)
(-0.540209 0.876467 0)
(-0.463768 0.738605 0)
(-0.401504 0.62861 0)
(-0.350413 0.539885 0)
(-0.308363 0.467561 0)
(-0.273564 0.40827 0)
(-0.244922 0.359108 0)
(-0.221153 0.318422 0)
(-0.201785 0.28416 0)
(-2.89143 4.36681 0)
(-2.17517 3.2104 0)
(-1.69241 2.44757 0)
(-1.34974 1.91957 0)
(-1.09683 1.53866 0)
(-0.904556 1.25601 0)
(-0.755119 1.04068 0)
(-0.636923 0.873533 0)
(-0.542184 0.741554 0)
(-0.465481 0.635923 0)
(-0.402867 0.550434 0)
(-0.351557 0.480503 0)
(-0.309236 0.422965 0)
(-0.27452 0.375091 0)
(-0.245757 0.335298 0)
(-0.222408 0.301699 0)
(-3.46113 4.06971 0)
(-2.5845 3.01322 0)
(-1.99695 2.31379 0)
(-1.58242 1.82822 0)
(-1.27823 1.47664 0)
(-1.04828 1.21494 0)
(-0.870466 1.01482 0)
(-0.73048 0.85893 0)
(-0.618742 0.735355 0)
(-0.528608 0.636042 0)
(-0.455252 0.555332 0)
(-0.395301 0.488976 0)
(-0.345935 0.434186 0)
(-0.305514 0.388307 0)
(-0.272044 0.350101 0)
(-0.244898 0.317669 0)
(-3.97435 3.69491 0)
(-2.95548 2.76118 0)
(-2.27464 2.13987 0)
(-1.79603 1.7068 0)
(-1.446 1.39169 0)
(-1.18228 1.15613 0)
(-0.978972 0.975124 0)
(-0.819362 0.833465 0)
(-0.692269 0.720593 0)
(-0.589964 0.629394 0)
(-0.50683 0.554868 0)
(-0.438993 0.493195 0)
(-0.383094 0.441947 0)
(-0.337486 0.398721 0)
(-0.299404 0.362428 0)
(-0.269339 0.33158 0)
(-4.42091 3.25237 0)
(-3.28042 2.46116 0)
(-2.52005 1.93065 0)
(-1.98651 1.55882 0)
(-1.59708 1.28634 0)
(-1.30424 1.08147 0)
(-1.07887 0.922959 0)
(-0.902225 0.798118 0)
(-0.761768 0.69796 0)
(-0.648848 0.616429 0)
(-0.5572 0.549358 0)
(-0.482486 0.493233 0)
(-0.420988 0.446482 0)
(-0.370816 0.406038 0)
(-0.328934 0.372711 0)
(-0.295589 0.342466 0)
(-4.79124 2.75415 0)
(-3.553 2.12091 0)
(-2.72848 1.69183 0)
(-2.15041 1.38831 0)
(-1.72887 1.16359 0)
(-1.41216 0.993134 0)
(-1.16861 0.859948 0)
(-0.977844 0.754109 0)
(-0.826251 0.668386 0)
(-0.704418 0.597953 0)
(-0.605611 0.539474 0)
(-0.524983 0.49007 0)
(-0.458813 0.448523 0)
(-0.404399 0.412297 0)
(-0.359532 0.382026 0)
(-0.322327 0.354457 0)
(-5.07775 2.21236 0)
(-3.76822 1.74937 0)
(-2.89624 1.42957 0)
(-2.28498 1.19981 0)
(-1.83924 1.02672 0)
(-1.50441 0.89355 0)
(-1.24691 0.787858 0)
(-1.04521 0.702695 0)
(-0.884891 0.632723 0)
(-0.756 0.574435 0)
(-0.651425 0.525393 0)
(-0.565992 0.483378 0)
(-0.495814 0.447647 0)
(-0.437956 0.416018 0)
(-0.390117 0.389354 0)
(-0.350414 0.364741 0)
(-5.27558 1.64087 0)
(-3.92237 1.35592 0)
(-3.02065 1.1506 0)
(-2.38818 0.998158 0)
(-1.92665 0.8793 0)
(-1.57977 0.785341 0)
(-1.31279 0.708626 0)
(-1.10353 0.645302 0)
(-0.937068 0.592013 0)
(-0.803102 0.54664 0)
(-0.694301 0.507662 0)
(-0.605267 0.473602 0)
(-0.532064 0.444085 0)
(-0.471488 0.417507 0)
(-0.421419 0.394634 0)
(-0.379545 0.373272 0)
(-5.38182 1.05383 0)
(-4.01339 0.950401 0)
(-3.10014 0.861871 0)
(-2.45879 0.788426 0)
(-1.99012 0.725044 0)
(-1.63744 0.671248 0)
(-1.36561 0.624262 0)
(-1.15227 0.583379 0)
(-0.982301 0.547264 0)
(-0.845296 0.515209 0)
(-0.733835 0.486629 0)
(-0.642433 0.460791 0)
(-0.567122 0.437735 0)
(-0.504641 0.416362 0)
(-0.452851 0.397522 0)
(-0.409488 0.379479 0)
(-5.39589 0.465724 0)
(-4.0407 0.542775 0)
(-3.13421 0.570498 0)
(-2.49637 0.575769 0)
(-2.02924 0.567743 0)
(-1.67706 0.554072 0)
(-1.40504 0.536832 0)
(-1.19112 0.518438 0)
(-1.02033 0.499563 0)
(-0.882362 0.480899 0)
(-0.769855 0.462796 0)
(-0.677363 0.445249 0)
(-0.600955 0.42872 0)
(-0.537378 0.412597 0)
(-0.484528 0.397835 0)
(-0.440147 0.383136 0)
(-5.31941 -0.109146 0)
(-4.00532 0.142935 0)
(-3.1235 0.283527 0)
(-2.50131 0.365315 0)
(-2.04425 0.41117 0)
(-1.69873 0.436604 0)
(-1.43109 0.448401 0)
(-1.22004 0.451989 0)
(-1.05106 0.449992 0)
(-0.914164 0.444457 0)
(-0.802201 0.436644 0)
(-0.709872 0.427244 0)
(-0.633355 0.417156 0)
(-0.569475 0.406196 0)
(-0.516189 0.395495 0)
(-0.471308 0.384073 0)
(-5.15621 -0.656934 0)
(-3.90976 -0.239546 0)
(-3.06972 0.00778724 0)
(-2.47477 0.162034 0)
(-2.03591 0.25899 0)
(-1.70297 0.321564 0)
(-1.44408 0.360981 0)
(-1.23921 0.385514 0)
(-1.07457 0.399628 0)
(-0.940712 0.406645 0)
(-0.83083 0.40869 0)
(-0.739877 0.407106 0)
(-0.664214 0.403216 0)
(-0.600795 0.397225 0)
(-0.547687 0.39046 0)
(-0.50277 0.382209 0)
(-4.91223 -1.16462 0)
(-3.75803 -0.595647 0)
(-2.97563 -0.250278 0)
(-2.41867 -0.0293758 0)
(-2.00559 0.114671 0)
(-1.69072 0.21153 0)
(-1.44465 0.276494 0)
(-1.24904 0.320434 0)
(-1.0911 0.349509 0)
(-0.962122 0.368205 0)
(-0.85576 0.379447 0)
(-0.767317 0.385167 0)
(-0.693412 0.387096 0)
(-0.631165 0.385771 0)
(-0.578809 0.382737 0)
(-0.534293 0.37748 0)
(-4.59533 -1.6203 0)
(-3.55544 -0.917122 0)
(-2.84494 -0.48477 0)
(-2.33563 -0.204606 0)
(-1.95515 -0.0185954 0)
(-1.66329 0.10888 0)
(-1.43372 0.196715 0)
(-1.25015 0.258072 0)
(-1.10107 0.300609 0)
(-0.978623 0.329844 0)
(-0.877087 0.349412 0)
(-0.792186 0.361767 0)
(-0.720858 0.369005 0)
(-0.660432 0.371954 0)
(-0.609347 0.37236 0)
(-0.565638 0.369882 0)
(-4.21514 -2.01351 0)
(-3.30856 -1.19669 0)
(-2.68223 -0.690474 0)
(-2.22892 -0.359842 0)
(-1.88692 -0.137978 0)
(-1.62236 0.0157346 0)
(-1.41247 0.123236 0)
(-1.24337 0.19962 0)
(-1.10499 0.253816 0)
(-0.990541 0.292213 0)
(-0.894976 0.319052 0)
(-0.814519 0.337226 0)
(-0.746492 0.349149 0)
(-0.688452 0.355889 0)
(-0.639104 0.359379 0)
(-0.596536 0.359394 0)
(-3.78277 -2.33546 0)
(-3.02495 -1.42824 0)
(-2.49281 -0.862988 0)
(-2.10232 -0.49185 0)
(-1.80362 -0.241067 0)
(-1.56988 -0.0660943 0)
(-1.38231 0.0574277 0)
(-1.22967 0.146116 0)
(-1.10354 0.209914 0)
(-0.998287 0.255901 0)
(-0.909645 0.288803 0)
(-0.834388 0.311865 0)
(-0.770263 0.327756 0)
(-0.71509 0.337739 0)
(-0.667852 0.343887 0)
(-0.626756 0.346096 0)
(-3.31055 -2.57924 0)
(-2.71305 -1.60693 0)
(-2.28261 -0.998833 0)
(-1.96006 -0.59806 0)
(-1.70832 -0.325933 0)
(-1.50805 -0.135145 0)
(-1.3448 0.000405039 0)
(-1.21015 0.0984121 0)
(-1.09747 0.16955 0)
(-1.00235 0.221396 0)
(-0.921379 0.259027 0)
(-0.851915 0.285943 0)
(-0.792177 0.305 0)
(-0.740238 0.317601 0)
(-0.695447 0.325944 0)
(-0.655994 0.32997 0)
(-2.81171 -2.73999 0)
(-2.38189 -1.72937 0)
(-2.058 -1.09552 0)
(-1.80671 -0.676623 0)
(-1.60431 -0.391174 0)
(-1.43928 -0.190338 0)
(-1.30167 -0.0469916 0)
(-1.18604 0.0571689 0)
(-1.08761 0.133253 0)
(-1.00327 0.189127 0)
(-0.930488 0.230076 0)
(-0.867241 0.259761 0)
(-0.812219 0.28114 0)
(-0.76381 0.295729 0)
(-0.721643 0.30575 0)
(-0.684103 0.311253 0)
(-2.30003 -2.81509 0)
(-2.04093 -1.7936 0)
(-1.82563 -1.15163 0)
(-1.64705 -0.726449 0)
(-1.49504 -0.435945 0)
(-1.36605 -0.231005 0)
(-1.25472 -0.0842278 0)
(-1.15861 0.0228177 0)
(-1.07485 0.101369 0)
(-1.00163 0.159369 0)
(-0.937325 0.202163 0)
(-0.880529 0.233472 0)
(-0.830459 0.256274 0)
(-0.785707 0.272149 0)
(-0.746394 0.283326 0)
(-0.710735 0.289889 0)
(-1.78956 -2.80402 0)
(-1.69974 -1.79928 0)
(-1.59227 -1.16681 0)
(-1.48591 -0.747243 0)
(-1.38403 -0.45997 0)
(-1.29093 -0.256893 0)
(-1.20579 -0.111063 0)
(-1.12918 -0.00440693 0)
(-1.06009 0.0741349 0)
(-0.998025 0.132375 0)
(-0.942245 0.175559 0)
(-0.891995 0.207391 0)
(-0.846911 0.23074 0)
(-0.805968 0.247284 0)
(-0.769473 0.25907 0)
(-0.735892 0.266378 0)
(-1.29412 -2.7087 0)
(-1.36782 -1.74751 0)
(-1.36461 -1.14184 0)
(-1.32813 -0.739484 0)
(-1.27478 -0.463557 0)
(-1.21644 -0.268179 0)
(-1.15671 -0.127586 0)
(-1.09903 -0.0245308 0)
(-1.0442 0.0515661 0)
(-0.993004 0.108178 0)
(-0.945564 0.150307 0)
(-0.901714 0.181537 0)
(-0.861612 0.204539 0)
(-0.824378 0.22108 0)
(-0.790877 0.232886 0)
(-0.759114 0.240752 0)
(-0.827094 -2.53274 0)
(-1.05429 -1.64102 0)
(-1.14914 -1.07849 0)
(-1.17833 -0.704435 0)
(-1.17067 -0.447564 0)
(-1.14505 -0.265446 0)
(-1.10926 -0.13417 0)
(-1.06942 -0.0377671 0)
(-1.02806 0.0335806 0)
(-0.987168 0.0868189 0)
(-0.947621 0.126553 0)
(-0.909958 0.156205 0)
(-0.874544 0.178071 0)
(-0.841201 0.194156 0)
(-0.81036 0.205444 0)
(-0.781174 0.213749 0)
(-0.400696 -2.28218 0)
(-0.767828 -1.48384 0)
(-0.95187 -0.979591 0)
(-1.0409 -0.644073 0)
(-1.07484 -0.413395 0)
(-1.07905 -0.24968 0)
(-1.06508 -0.1315 0)
(-1.04152 -0.044581 0)
(-1.01244 0.0198776 0)
(-0.980919 0.0680932 0)
(-0.948556 0.104202 0)
(-0.916473 0.131256 0)
(-0.885309 0.151355 0)
(-0.855391 0.166199 0)
(-0.826972 0.176828 0)
(-0.800098 0.184409 0)
(-0.026521 -1.96517 0)
(-0.516212 -1.28129 0)
(-0.778351 -0.848909 0)
(-0.919806 -0.561048 0)
(-0.990194 -0.362941 0)
(-1.02055 -0.222225 0)
(-1.02571 -0.120522 0)
(-1.01642 -0.0456227 0)
(-0.998104 0.0100189 0)
(-0.9748 0.0517271 0)
(-0.948726 0.0830482 0)
(-0.921508 0.106591 0)
(-0.894048 0.124163 0)
(-0.867019 0.137165 0)
(-0.840758 0.146578 0)
(-0.815546 0.153132 0)
(0.285432 -1.59137 0)
(-0.306262 -1.03994 0)
(-0.633402 -0.691015 0)
(-0.818518 -0.458611 0)
(-0.91926 -0.298534 0)
(-0.97139 -0.184747 0)
(-0.992482 -0.102419 0)
(-0.995071 -0.0417157 0)
(-0.985706 0.00345361 0)
(-0.969221 0.0373743 0)
(-0.948366 0.0629178 0)
(-0.925147 0.0821555 0)
(-0.900766 0.096593 0)
(-0.876067 0.107251 0)
(-0.851618 0.115064 0)
(-0.827718 0.120387 0)
(0.526887 -1.1718 0)
(-0.143661 -0.76733 0)
(-0.521056 -0.511192 0)
(-0.739937 -0.340524 0)
(-0.864152 -0.222877 0)
(-0.93312 -0.139192 0)
(-0.966527 -0.078577 0)
(-0.978292 -0.0338288 0)
(-0.97584 -0.000475582 0)
(-0.964609 0.0246196 0)
(-0.947772 0.0435678 0)
(-0.927616 0.0578681 0)
(-0.905596 0.0686474 0)
(-0.882649 0.0765951 0)
(-0.859592 0.082474 0)
(-0.836618 0.0864038 0)
(0.691435 -0.718694 0)
(-0.0328144 -0.471799 0)
(-0.444429 -0.315291 0)
(-0.686311 -0.210965 0)
(-0.826507 -0.138976 0)
(-0.906938 -0.08772 0)
(-0.948719 -0.0505377 0)
(-0.966717 -0.0230379 0)
(-0.968952 -0.00248801 0)
(-0.961272 0.0130197 0)
(-0.947148 0.0247787 0)
(-0.92904 0.0336807 0)
(-0.908614 0.0404392 0)
(-0.886813 0.045409 0)
(-0.864705 0.0491383 0)
(-0.842318 0.0515631 0)
(0.774703 -0.245129 0)
(0.0232723 -0.162283 0)
(-0.405652 -0.109587 0)
(-0.659175 -0.0744125 0)
(-0.807449 -0.0500581 0)
(-0.893667 -0.0326567 0)
(-0.939666 -0.0199622 0)
(-0.960794 -0.010506 0)
(-0.965372 -0.00336873 0)
(-0.959455 0.00208207 0)
(-0.946671 0.00628334 0)
(-0.929556 0.00950883 0)
(-0.909908 0.0120205 0)
(-0.888639 0.0138665 0)
(-0.866995 0.0153124 0)
(-0.844855 0.0161792 0)
(0.774477 0.235279 0)
(0.0230665 0.151913 0)
(-0.405809 0.0993894 0)
(-0.659312 0.0644652 0)
(-0.807551 0.0405141 0)
(-0.893732 0.0235756 0)
(-0.939684 0.0114199 0)
(-0.960757 0.00255776 0)
(-0.965274 -0.00392946 0)
(-0.959284 -0.00869835 0)
(-0.946432 -0.0121816 0)
(-0.929229 -0.0147243 0)
(-0.909527 -0.0165309 0)
(-0.888154 -0.0178479 0)
(-0.866489 -0.0187188 0)
(-0.844232 -0.0194092 0)
(0.690741 0.708733 0)
(-0.0334414 0.461363 0)
(-0.444912 0.305016 0)
(-0.686733 0.200938 0)
(-0.826824 0.129332 0)
(-0.907146 0.078522 0)
(-0.948789 0.0418553 0)
(-0.966628 0.0149266 0)
(-0.968684 -0.00499662 0)
(-0.960794 -0.0198402 0)
(-0.946471 -0.030896 0)
(-0.928105 -0.039113 0)
(-0.907513 -0.045163 0)
(-0.885416 -0.0495707 0)
(-0.863229 -0.0527005 0)
(-0.84053 -0.0548984 0)
(0.525714 1.16159 0)
(-0.144746 0.756761 0)
(-0.521891 0.500755 0)
(-0.74067 0.330338 0)
(-0.864713 0.213034 0)
(-0.933506 0.129763 0)
(-0.966694 0.0696174 0)
(-0.978206 0.0253941 0)
(-0.97547 -0.00738268 0)
(-0.963903 -0.0318548 0)
(-0.946745 -0.0501399 0)
(-0.926171 -0.0637596 0)
(-0.903879 -0.0738447 0)
(-0.880438 -0.0811624 0)
(-0.857263 -0.0864268 0)
(-0.833752 -0.0899799 0)
(0.283734 1.58076 0)
(-0.307846 1.02915 0)
(-0.634633 0.680324 0)
(-0.819596 0.44818 0)
(-0.92011 0.288395 0)
(-0.972006 0.17498 0)
(-0.992819 0.0930567 0)
(-0.995085 0.0328119 0)
(-0.985358 -0.0118553 0)
(-0.968445 -0.0452185 0)
(-0.947174 -0.0701633 0)
(-0.923419 -0.0887422 0)
(-0.898666 -0.102507 0)
(-0.873335 -0.112463 0)
(-0.848701 -0.119613 0)
(-0.824123 -0.1244 0)
(-0.0287314 1.95396 0)
(-0.518349 1.27018 0)
(-0.780013 0.837857 0)
(-0.921268 0.550285 0)
(-0.991377 0.352411 0)
(-1.02145 0.212022 0)
(-1.0263 0.110647 0)
(-1.01664 0.0361218 0)
(-0.997918 -0.0191206 0)
(-0.974133 -0.0603702 0)
(-0.947578 -0.0912085 0)
(-0.919745 -0.114149 0)
(-0.891839 -0.131152 0)
(-0.86407 -0.143362 0)
(-0.8376 -0.152172 0)
(-0.811591 -0.157855 0)
(-0.40345 2.27011 0)
(-0.770522 1.4723 0)
(-0.954004 0.968064 0)
(-1.04277 0.632892 0)
(-1.0764 0.40239 0)
(-1.0803 0.238965 0)
(-1.06601 0.121032 0)
(-1.04209 0.0343941 0)
(-1.01261 -0.0297843 0)
(-0.980632 -0.0776729 0)
(-0.947787 -0.113446 0)
(-0.915146 -0.140026 0)
(-0.88349 -0.159687 0)
(-0.852939 -0.173753 0)
(-0.824244 -0.183821 0)
(-0.796742 -0.190252 0)
(-0.830286 2.51956 0)
(-1.05752 1.62896 0)
(-1.15173 1.06638 0)
(-1.1806 0.692755 0)
(-1.17261 0.436019 0)
(-1.14668 0.25417 0)
(-1.11059 0.123069 0)
(-1.07044 0.0268596 0)
(-1.02873 -0.0443298 0)
(-0.98747 -0.0973864 0)
(-0.947505 -0.136971 0)
(-0.909431 -0.166325 0)
(-0.873554 -0.188011 0)
(-0.839825 -0.203388 0)
(-0.808681 -0.214404 0)
(-0.779354 -0.221069 0)
(-1.29793 2.69434 0)
(-1.37144 1.73484 0)
(-1.36765 1.12906 0)
(-1.33074 0.727243 0)
(-1.27711 0.451429 0)
(-1.21846 0.256321 0)
(-1.15849 0.115852 0)
(-1.10058 0.0129223 0)
(-1.04552 -0.0631148 0)
(-0.994141 -0.119697 0)
(-0.946429 -0.161832 0)
(-0.902532 -0.193043 0)
(-0.86206 -0.216065 0)
(-0.825148 -0.232316 0)
(-0.791207 -0.244013 0)
(-0.760629 -0.250514 0)
(-1.7941 2.78883 0)
(-1.70361 1.78585 0)
(-1.59566 1.15333 0)
(-1.4888 0.734394 0)
(-1.38668 0.447255 0)
(-1.29329 0.244471 0)
(-1.208 0.0987534 0)
(-1.13127 -0.00780296 0)
(-1.06208 -0.086324 0)
(-1.00004 -0.144617 0)
(-0.944213 -0.187857 0)
(-0.894265 -0.219871 0)
(-0.849083 -0.243235 0)
(-0.809016 -0.259976 0)
(-0.772254 -0.271465 0)
(-0.740498 -0.278525 0)
(-2.30516 2.79928 0)
(-2.04492 1.77936 0)
(-1.82925 1.13746 0)
(-1.65011 0.712984 0)
(-1.49791 0.422663 0)
(-1.36869 0.218062 0)
(-1.25729 0.0714193 0)
(-1.16117 -0.0355088 0)
(-1.07746 -0.114021 0)
(-1.00443 -0.172086 0)
(-0.940274 -0.214894 0)
(-0.884014 -0.246465 0)
(-0.834081 -0.26917 0)
(-0.790399 -0.285516 0)
(-0.751027 -0.296195 0)
(-0.717008 -0.303339 0)
(-2.81712 2.72358 0)
(-2.38588 1.71431 0)
(-2.06168 1.08069 0)
(-1.80983 0.662567 0)
(-1.6073 0.377372 0)
(-1.44208 0.176939 0)
(-1.30449 0.0337833 0)
(-1.18892 -0.0701989 0)
(-1.09066 -0.146174 0)
(-1.00662 -0.202045 0)
(-0.934124 -0.242904 0)
(-0.871493 -0.272797 0)
(-0.816764 -0.293925 0)
(-0.769342 -0.309029 0)
(-0.727251 -0.318409 0)
(-0.690839 -0.324809 0)
(-3.3159 2.56219 0)
(-2.71689 1.59112 0)
(-2.28619 0.983409 0)
(-1.96312 0.583467 0)
(-1.7113 0.31167 0)
(-1.5109 0.121358 0)
(-1.34771 -0.0139253 0)
(-1.21319 -0.111668 0)
(-1.10073 -0.182597 0)
(-1.00596 -0.234328 0)
(-0.925326 -0.271734 0)
(-0.856447 -0.298721 0)
(-0.797039 -0.317374 0)
(-0.745869 -0.330355 0)
(-0.701186 -0.337973 0)
(-0.66236 -0.342817 0)
(-3.78779 2.31778 0)
(-3.02853 1.41177 0)
(-2.49616 0.847045 0)
(-2.10519 0.476788 0)
(-1.80646 0.22641 0)
(-1.57262 0.051989 0)
(-1.38515 -0.0711812 0)
(-1.23266 -0.159505 0)
(-1.10678 -0.222981 0)
(-1.00186 -0.26872 0)
(-0.913549 -0.30126 0)
(-0.838779 -0.324224 0)
(-0.774948 -0.339583 0)
(-0.720306 -0.349745 0)
(-0.673138 -0.355121 0)
(-0.632319 -0.357904 0)
(-4.21965 1.99525 0)
(-3.31176 1.17968 0)
(-2.68523 0.674086 0)
(-2.23152 0.34438 0)
(-1.88951 0.122988 0)
(-1.62488 -0.030103 0)
(-1.41511 -0.137171 0)
(-1.24615 -0.213094 0)
(-1.10799 -0.266861 0)
(-0.993825 -0.304882 0)
(-0.898542 -0.331235 0)
(-0.818456 -0.349148 0)
(-0.750649 -0.360434 0)
(-0.692947 -0.367152 0)
(-0.64361 -0.36983 0)
(-0.601114 -0.370167 0)
(-4.59919 1.60153 0)
(-3.5582 0.899658 0)
(-2.84752 0.468008 0)
(-2.33787 0.188808 0)
(-1.95739 0.00332442 0)
(-1.66548 -0.12347 0)
(-1.43601 -0.210799 0)
(-1.25256 -0.271611 0)
(-1.10365 -0.313625 0)
(-0.981425 -0.342372 0)
(-0.880101 -0.361352 0)
(-0.795456 -0.373305 0)
(-0.724273 -0.379825 0)
(-0.664039 -0.382575 0)
(-0.612926 -0.38214 0)
(-0.569177 -0.37975 0)
(-4.91536 1.14539 0)
(-3.76028 0.577811 0)
(-2.97772 0.233197 0)
(-2.42049 0.0132932 0)
(-2.0074 -0.130186 0)
(-1.69249 -0.226316 0)
(-1.44648 -0.290719 0)
(-1.25095 -0.334049 0)
(-1.09314 -0.362531 0)
(-0.964302 -0.380655 0)
(-0.858073 -0.391235 0)
(-0.769789 -0.39645 0)
(-0.695956 -0.397603 0)
(-0.633811 -0.395944 0)
(-0.581399 -0.392043 0)
(-0.536824 -0.386699 0)
(-5.15855 0.637315 0)
(-3.91148 0.221395 0)
(-3.07128 -0.0251437 0)
(-2.47612 -0.178362 0)
(-2.03724 -0.274721 0)
(-1.70425 -0.336534 0)
(-1.44538 -0.375353 0)
(-1.24055 -0.399233 0)
(-1.07596 -0.41271 0)
(-0.94218 -0.419104 0)
(-0.832355 -0.420442 0)
(-0.74148 -0.418286 0)
(-0.665831 -0.413585 0)
(-0.602463 -0.407168 0)
(-0.549292 -0.399521 0)
(-0.504346 -0.39105 0)
(-5.32092 0.0891782 0)
(-4.00646 -0.161354 0)
(-3.12449 -0.301127 0)
(-2.50216 -0.381857 0)
(-2.04504 -0.427101 0)
(-1.69947 -0.451753 0)
(-1.43182 -0.462935 0)
(-1.22075 -0.465853 0)
(-1.05177 -0.463204 0)
(-0.914874 -0.457029 0)
(-0.802898 -0.448494 0)
(-0.710581 -0.438501 0)
(-0.634027 -0.427588 0)
(-0.570178 -0.416168 0)
(-0.516832 -0.40457 0)
(-0.471992 -0.392873 0)
(-5.39652 -0.48599 0)
(-4.04125 -0.561423 0)
(-3.13461 -0.588312 0)
(-2.49669 -0.592499 0)
(-2.02949 -0.583858 0)
(-1.67724 -0.569397 0)
(-1.40517 -0.551547 0)
(-1.19119 -0.53249 0)
(-1.02034 -0.512974 0)
(-0.882307 -0.493687 0)
(-0.769721 -0.474878 0)
(-0.677183 -0.45676 0)
(-0.60069 -0.43942 0)
(-0.537135 -0.422853 0)
(-0.484223 -0.407198 0)
(-0.439986 -0.392213 0)
(-5.38155 -1.07435 0)
(-4.01332 -0.96923 0)
(-3.09992 -0.879867 0)
(-2.45855 -0.805313 0)
(-1.9898 -0.741323 0)
(-1.63705 -0.686741 0)
(-1.36514 -0.639166 0)
(-1.1517 -0.597649 0)
(-0.981626 -0.560932 0)
(-0.844507 -0.528307 0)
(-0.732911 -0.49907 0)
(-0.641415 -0.472738 0)
(-0.565978 -0.448907 0)
(-0.503513 -0.427183 0)
(-0.451666 -0.407449 0)
(-0.408529 -0.38923 0)
(-5.27438 -1.66156 0)
(-3.92165 -1.37488 0)
(-3.01981 -1.16873 0)
(-2.38738 -1.01516 0)
(-1.92577 -0.895711 0)
(-1.57883 -0.800981 0)
(-1.31175 -0.723713 0)
(-1.10237 -0.659801 0)
(-0.935761 -0.605968 0)
(-0.801638 -0.560106 0)
(-0.692654 -0.520545 0)
(-0.603474 -0.486105 0)
(-0.53009 -0.455879 0)
(-0.469507 -0.429092 0)
(-0.419342 -0.405371 0)
(-0.37781 -0.383974 0)
(-5.07565 -2.23318 0)
(-3.76682 -1.76836 0)
(-2.89476 -1.44778 0)
(-2.28361 -1.21687 0)
(-1.8378 -1.04322 0)
(-1.50294 -0.909296 0)
(-1.24533 -0.803097 0)
(-1.04351 -0.717406 0)
(-0.883036 -0.646968 0)
(-0.753967 -0.588298 0)
(-0.64919 -0.538775 0)
(-0.563571 -0.496555 0)
(-0.493199 -0.460202 0)
(-0.435275 -0.428629 0)
(-0.38737 -0.401116 0)
(-0.347948 -0.376812 0)
(-4.78825 -2.77492 0)
(-3.55092 -2.13984 0)
(-2.72637 -1.71003 0)
(-2.14849 -1.40536 0)
(-1.72689 -1.1801 0)
(-1.41019 -1.00893 0)
(-1.16655 -0.875281 0)
(-0.975684 -0.768973 0)
(-0.823947 -0.682857 0)
(-0.701938 -0.612144 0)
(-0.602932 -0.553281 0)
(-0.522084 -0.503826 0)
(-0.455689 -0.461767 0)
(-0.401145 -0.425797 0)
(-0.35611 -0.394776 0)
(-0.319279 -0.367739 0)
(-4.41725 -3.27313 0)
(-3.27766 -2.47988 0)
(-2.51735 -1.94876 0)
(-1.98406 -1.57577 0)
(-1.59462 -1.3028 0)
(-1.30182 -1.09723 0)
(-1.07639 -0.938305 0)
(-0.899686 -0.813049 0)
(-0.759127 -0.712564 0)
(-0.646061 -0.630854 0)
(-0.554273 -0.5635 0)
(-0.479323 -0.507526 0)
(-0.417684 -0.460358 0)
(-0.367215 -0.420588 0)
(-0.325276 -0.386452 0)
(-0.291861 -0.357468 0)
(-3.97035 -3.71542 0)
(-2.95206 -2.77961 0)
(-2.27141 -2.15776 0)
(-1.79308 -1.72357 0)
(-1.44309 -1.40799 0)
(-1.17946 -1.17178 0)
(-0.976143 -0.990377 0)
(-0.816523 -0.848333 0)
(-0.689398 -0.735168 0)
(-0.587017 -0.643821 0)
(-0.503864 -0.569058 0)
(-0.43585 -0.507557 0)
(-0.380019 -0.45598 0)
(-0.334033 -0.413369 0)
(-0.296198 -0.376428 0)
(-0.265356 -0.346543 0)
(-3.45672 -4.08972 0)
(-2.5805 -3.03129 0)
(-1.99325 -2.33135 0)
(-1.57903 -1.84473 0)
(-1.27493 -1.49271 0)
(-1.04511 -1.23037 0)
(-0.867335 -1.02987 0)
(-0.727395 -0.873602 0)
(-0.615693 -0.749732 0)
(-0.525555 -0.650241 0)
(-0.45228 -0.569282 0)
(-0.392232 -0.502992 0)
(-0.343065 -0.447858 0)
(-0.302304 -0.402321 0)
(-0.269177 -0.363491 0)
(-0.241156 -0.331456 0)
(-2.88655 -4.38615 0)
(-2.17072 -3.22802 0)
(-1.68832 -2.46472 0)
(-1.34599 -1.93573 0)
(-1.09319 -1.55441 0)
(-0.901091 -1.27114 0)
(-0.751727 -1.05543 0)
(-0.633623 -0.88789 0)
(-0.538975 -0.755582 0)
(-0.462335 -0.649704 0)
(-0.399877 -0.563901 0)
(-0.348555 -0.493874 0)
(-0.306509 -0.435917 0)
(-0.271551 -0.388078 0)
(-0.243149 -0.347641 0)
(-0.219076 -0.314007 0)
(-2.27228 -4.59656 0)
(-1.73125 -3.36414 0)
(-1.36285 -2.55389 0)
(-1.09853 -1.99376 0)
(-0.901311 -1.59103 0)
(-0.749991 -1.29262 0)
(-0.631294 -1.06598 0)
(-0.536709 -0.890423 0)
(-0.460389 -0.75218 0)
(-0.398227 -0.641851 0)
(-0.347328 -0.552726 0)
(-0.305326 -0.480141 0)
(-0.270822 -0.420336 0)
(-0.24204 -0.37096 0)
(-0.218616 -0.329579 0)
(-0.198751 -0.29502 0)
(-1.62744 -4.71481 0)
(-1.27153 -3.43545 0)
(-1.02357 -2.59594 0)
(-0.84163 -2.0167 0)
(-0.703001 -1.60107 0)
(-0.594617 -1.2937 0)
(-0.50815 -1.06076 0)
(-0.438241 -0.880687 0)
(-0.381107 -0.739203 0)
(-0.334067 -0.626524 0)
(-0.295197 -0.535722 0)
(-0.262873 -0.461906 0)
(-0.236156 -0.401277 0)
(-0.213768 -0.351269 0)
(-0.195463 -0.309577 0)
(-0.17997 -0.274776 0)
(-0.966353 -4.73686 0)
(-0.801483 -3.4392 0)
(-0.67768 -2.58897 0)
(-0.580566 -2.00322 0)
(-0.502198 -1.5836 0)
(-0.437929 -1.27375 0)
(-0.384536 -1.03933 0)
(-0.339913 -0.858409 0)
(-0.302409 -0.716508 0)
(-0.270813 -0.603688 0)
(-0.244204 -0.512949 0)
(-0.221722 -0.4393 0)
(-0.202906 -0.378966 0)
(-0.186982 -0.329265 0)
(-0.173856 -0.287999 0)
(-0.162724 -0.253608 0)
(-0.303815 -4.66089 0)
(-0.331401 -3.37423 0)
(-0.332557 -2.5322 0)
(-0.320767 -1.95282 0)
(-0.302952 -1.53828 0)
(-0.282972 -1.23258 0)
(-0.262747 -1.0016 0)
(-0.243455 -0.823576 0)
(-0.225587 -0.684141 0)
(-0.209416 -0.573436 0)
(-0.195031 -0.484538 0)
(-0.182343 -0.412486 0)
(-0.171381 -0.353581 0)
(-0.161857 -0.305133 0)
(-0.153875 -0.265025 0)
(-0.147025 -0.23168 0)
(0.345254 -4.48741 0)
(0.128341 -3.24093 0)
(0.00433865 -2.426 0)
(-0.0677043 -1.86581 0)
(-0.109338 -1.46542 0)
(-0.132809 -1.17046 0)
(-0.145095 -0.947831 0)
(-0.150609 -0.776426 0)
(-0.15195 -0.642331 0)
(-0.15085 -0.535988 0)
(-0.148397 -0.450704 0)
(-0.145249 -0.381668 0)
(-0.141935 -0.325322 0)
(-0.138621 -0.279049 0)
(-0.135634 -0.24083 0)
(-0.132909 -0.209126 0)
(0.966153 -4.21918 0)
(0.56752 -3.04131 0)
(0.325666 -2.27186 0)
(0.173239 -1.74335 0)
(0.0746373 -1.36592 0)
(0.00955264 -1.08811 0)
(-0.0338471 -0.878606 0)
(-0.0630815 -0.717448 0)
(-0.0827762 -0.591488 0)
(-0.0960615 -0.491691 0)
(-0.104986 -0.411741 0)
(-0.110922 -0.347092 0)
(-0.114886 -0.294397 0)
(-0.117462 -0.251182 0)
(-0.119224 -0.21555 0)
(-0.120381 -0.186054 0)
(1.54475 -3.8612 0)
(0.97631 -2.77893 0)
(0.624375 -2.07238 0)
(0.396896 -1.5874 0)
(0.245129 -1.24129 0)
(0.14123 -0.986698 0)
(0.0688248 -0.794849 0)
(0.0174908 -0.647374 0)
(-0.0192912 -0.532196 0)
(-0.045958 -0.441012 0)
(-0.0654579 -0.368023 0)
(-0.0798268 -0.309054 0)
(-0.0905441 -0.261037 0)
(-0.0985739 -0.221702 0)
(-0.104728 -0.189311 0)
(-0.109473 -0.162546 0)
(2.06781 -3.42061 0)
(1.34552 -2.4588 0)
(0.893872 -1.83124 0)
(0.598436 -1.40068 0)
(0.398549 -1.0936 0)
(0.259531 -0.867827 0)
(0.160895 -0.697797 0)
(0.0895846 -0.567169 0)
(0.0373657 -0.46521 0)
(-0.00138148 -0.38454 0)
(-0.0304225 -0.32001 0)
(-0.0523899 -0.26791 0)
(-0.0691912 -0.225518 0)
(-0.0821169 -0.190818 0)
(-0.0922298 -0.162269 0)
(-0.100158 -0.138702 0)
(2.52334 -2.90648 0)
(1.66681 -2.0873 0)
(1.12818 -1.55304 0)
(0.773484 -1.18664 0)
(0.531645 -0.925433 0)
(0.362022 -0.733472 0)
(0.24053 -0.58897 0)
(0.151822 -0.478004 0)
(0.086163 -0.391432 0)
(0.0369032 -0.322966 0)
(-0.000434646 -0.268222 0)
(-0.0290066 -0.224039 0)
(-0.0510839 -0.188102 0)
(-0.0682643 -0.158697 0)
(-0.0817811 -0.134509 0)
(-0.0925071 -0.114568 0)
(2.90087 -2.32966 0)
(1.93289 -1.67202 0)
(1.32208 -1.24329 0)
(0.918223 -0.949339 0)
(0.641586 -0.739858 0)
(0.446581 -0.585957 0)
(0.306138 -0.470148 0)
(0.203006 -0.381245 0)
(0.126208 -0.311911 0)
(0.06824 -0.257093 0)
(0.0240317 -0.213276 0)
(-0.00999644 -0.177916 0)
(-0.0364423 -0.149161 0)
(-0.0571039 -0.125623 0)
(-0.073464 -0.106267 0)
(-0.0864059 -0.0902761 0)
(3.19162 -1.70244 0)
(2.13771 -1.22159 0)
(1.47125 -0.908214 0)
(1.02949 -0.693383 0)
(0.726027 -0.540328 0)
(0.511456 -0.4279 0)
(0.356399 -0.343322 0)
(0.242144 -0.278408 0)
(0.156753 -0.227794 0)
(0.0920635 -0.187781 0)
(0.0425562 -0.155797 0)
(0.00430519 -0.129977 0)
(-0.0254894 -0.108963 0)
(-0.0488763 -0.0917421 0)
(-0.067353 -0.0775449 0)
(-0.0820979 -0.0658197 0)
(3.38891 -1.03838 0)
(2.2766 -0.745496 0)
(1.57236 -0.554673 0)
(1.10486 -0.423815 0)
(0.783168 -0.330619 0)
(0.555299 -0.262154 0)
(0.390307 -0.210662 0)
(0.268484 -0.171143 0)
(0.177243 -0.140334 0)
(0.107978 -0.115975 0)
(0.0548571 -0.096501 0)
(0.0137505 -0.0807577 0)
(-0.0183428 -0.0679367 0)
(-0.0435034 -0.0573778 0)
(-0.0634763 -0.0486638 0)
(-0.0792782 -0.0413797 0)
(3.48792 -0.351766 0)
(2.34638 -0.253823 0)
(1.62315 -0.189913 0)
(1.1427 -0.145988 0)
(0.8118 -0.114733 0)
(0.577214 -0.0917408 0)
(0.407184 -0.0744574 0)
(0.281516 -0.0611857 0)
(0.18729 -0.0508405 0)
(0.115669 -0.0426508 0)