/*--------------------------------*- C++ -*----------------------------------*\
| =========                 |                                                 |
| \\      /  F ield         | foam-extend: Open Source CFD                    |
|  \\    /   O peration     | Version:  3.0                                   |
|   \\  /    A nd           | Web:         http://www.extend-project.de       |
|    \\/     M anipulation  |                                                 |
\*---------------------------------------------------------------------------*/
FoamFile
{
    version     2.0;
    format      ascii;
    class       volScalarField;
    location    "20";
    object      Theta;
}
// * * * * * * * * * * * * * * * * * * * * * * * * * * * * * * * * * * * * * //

dimensions      [0 2 -2 0 0 0 0];

internalField   nonuniform List<scalar> 
1280
(
-0.487771
-0.246335
-0.0670144
0.111155
0.242915
0.365287
0.458499
0.542938
0.611632
0.672281
0.72475
0.770217
0.811393
0.847372
0.876691
0.913641
-0.459166
-0.233505
-0.0512623
0.121967
0.25426
0.374645
0.467498
0.550918
0.619209
0.67886
0.731429
0.775044
0.817437
0.850138
0.88161
0.914936
-0.352771
-0.215292
-0.0172049
0.143604
0.276773
0.393319
0.485159
0.566689
0.634548
0.692346
0.748063
0.78528
0.84502
0.850352
0.944342
0.887368
-0.306511
-0.170128
0.0243562
0.178379
0.30911
0.421305
0.51072
0.589365
0.655059
0.710477
0.764202
0.799273
0.855899
0.861421
0.945999
0.898958
-0.241179
-0.111124
0.0803615
0.224761
0.351866
0.458453
0.544439
0.619445
0.682322
0.735099
0.786627
0.819641
0.874111
0.878566
0.957178
0.915824
-0.157566
-0.035168
0.147518
0.28285
0.404239
0.504441
0.585824
0.656301
0.71526
0.764638
0.81228
0.843259
0.892187
0.897966
0.965745
0.933454
-0.0576691
0.05475
0.227238
0.351956
0.466244
0.559012
0.634804
0.699963
0.754271
0.79972
0.842881
0.87158
0.914414
0.921393
0.978004
0.953781
0.058761
0.157805
0.318603
0.431455
0.53742
0.621764
0.691067
0.750117
0.799069
0.839931
0.878101
0.903867
0.940685
0.947689
0.995158
0.975858
0.190046
0.273171
0.421374
0.52077
0.617426
0.6923
0.754319
0.806505
0.84949
0.885168
0.91795
0.940183
0.970939
0.977106
1.01594
1.00021
0.335759
0.399762
0.534926
0.619205
0.705787
0.770164
0.824209
0.868822
0.905299
0.935227
0.96231
0.980382
1.00527
1.00947
1.04101
1.02638
0.494569
0.536681
0.658632
0.726091
0.801995
0.854864
0.900333
0.93671
0.966204
0.989874
1.011
1.02434
1.04349
1.04473
1.06971
1.05451
0.66558
0.683225
0.791701
0.840731
0.905464
0.945866
0.982228
1.00974
1.0318
1.04869
1.06355
1.07158
1.08499
1.08242
1.10142
1.08429
0.847567
0.837581
0.933519
0.962304
1.01561
1.04262
1.06945
1.08758
1.10191
1.11169
1.12032
1.12257
1.13085
1.12316
1.13757
1.11583
1.03944
1.0006
1.08282
1.09026
1.13168
1.1445
1.16135
1.16949
1.17563
1.17768
1.17959
1.17531
1.17798
1.16478
1.17397
1.14842
1.2396
1.16672
1.23981
1.22332
1.25315
1.25094
1.25761
1.25547
1.25354
1.24785
1.24425
1.23277
1.23385
1.21059
1.22316
1.18376
1.44669
1.34359
1.40127
1.3618
1.37886
1.3612
1.35712
1.34407
1.33325
1.31882
1.30787
1.28862
1.28308
1.25387
1.25879
1.21724
1.69197
1.51243
1.57118
1.50309
1.5087
1.47475
1.45996
1.43599
1.41708
1.39425
1.38042
1.35015
1.35766
1.29745
1.36273
1.22921
1.89472
1.70419
1.73953
1.64959
1.64067
1.59083
1.56444
1.52899
1.50032
1.46844
1.44504
1.40869
1.40101
1.34585
1.37341
1.27754
2.11637
1.8912
1.91284
1.79787
1.77496
1.70885
1.67079
1.624
1.58601
1.54584
1.51518
1.47243
1.45978
1.39771
1.4232
1.3182
2.33602
2.08634
2.08597
1.94835
1.91012
1.82792
1.77776
1.71933
1.67131
1.62217
1.58222
1.53318
1.509
1.44674
1.45231
1.36036
2.55948
2.27977
2.26047
2.09931
2.0458
1.94746
1.88512
1.81512
1.75724
1.69946
1.65096
1.59585
1.56285
1.49764
1.49215
1.40101
2.78219
2.4733
2.43402
2.24982
2.18093
2.06654
1.99204
1.91046
1.84265
1.77605
1.71887
1.65726
1.61537
1.54695
1.5302
1.44112
3.00379
2.66433
2.60628
2.39893
2.31487
2.18455
2.09799
2.00494
1.92738
1.85208
1.78661
1.71848
1.66873
1.59612
1.57094
1.48011
3.22206
2.85202
2.77586
2.5456
2.44672
2.30068
2.20229
2.09795
2.01082
1.92691
1.85343
1.77863
1.72164
1.64423
1.61182
1.51822
3.43599
3.03513
2.94186
2.68898
2.57572
2.41426
2.30433
2.18893
2.0925
2.00017
1.91901
1.83758
1.77399
1.69131
1.65314
1.55504
3.64366
3.21271
3.10313
2.82816
2.70104
2.52455
2.40345
2.27732
2.17188
2.07135
1.98283
1.89483
1.8251
1.73696
1.69363
1.5908
3.84455
3.38353
3.25876
2.96231
2.82191
2.63091
2.49907
2.36258
2.2485
2.14008
2.04459
1.95021
1.87492
1.78108
1.73398
1.62472
4.03592
3.54728
3.40759
3.09068
2.93756
2.73266
2.59053
2.44412
2.32175
2.20572
2.10351
2.00294
1.92222
1.82302
1.77148
1.65776
4.21923
3.70181
3.54901
3.21244
3.0473
2.82921
2.67733
2.52154
2.39138
2.26823
2.15988
2.05344
1.96835
1.86321
1.81043
1.6878
4.389
3.84878
3.68148
3.32711
3.15034
2.91993
2.75877
2.59408
2.45643
2.32641
2.21186
2.0999
2.00936
1.90014
1.84156
1.7178
4.55081
3.98339
3.80519
3.4336
3.2462
3.00433
2.8346
2.66176
2.51736
2.38115
2.26154
2.14433
2.05117
1.9354
1.8797
1.74313
4.69477
4.11159
3.91761
3.53209
3.33397
3.0818
2.90391
2.72341
2.57228
2.43016
2.30425
2.18306
2.08218
1.96648
1.89893
1.76907
4.83193
4.22372
4.02043
3.62081
3.41356
3.15199
2.96688
2.77965
2.62294
2.47572
2.34588
2.22011
2.11828
1.99572
1.93468
1.78914
4.93285
4.33225
4.10937
3.70074
3.48387
3.21433
3.02237
2.829
2.66636
2.51468
2.37756
2.25122
2.13436
2.0237
1.92383
1.82277
5.03201
4.42075
4.18818
3.76943
3.54522
3.26853
3.07093
2.87239
2.70532
2.54982
2.40902
2.28
2.15925
2.0477
1.94077
1.84406
5.11928
4.49639
4.25427
3.82753
3.59678
3.31411
3.1116
2.90857
2.73741
2.57849
2.43372
2.30268
2.17717
2.06577
1.95412
1.85726
5.18988
4.55469
4.30822
3.8739
3.63857
3.3509
3.14468
2.93811
2.76408
2.60246
2.45573
2.3221
2.19623
2.08091
1.97217
1.86801
5.24364
4.59869
4.34889
3.90882
3.6701
3.37859
3.16957
2.96025
2.78399
2.6202
2.47187
2.33619
2.20991
2.09172
1.98552
1.8752
5.27995
4.62671
4.37636
3.93188
3.69126
3.39709
3.18633
2.97522
2.79765
2.63246
2.48356
2.34618
2.221
2.09922
1.99776
1.87964
5.29813
4.64017
4.3901
3.94321
3.70183
3.40625
3.19468
2.98264
2.80447
2.63853
2.48951
2.35102
2.22692
2.10267
2.00473
1.88141
5.29885
4.63841
4.39018
3.94275
3.70175
3.40607
3.19462
2.9826
2.80461
2.63866
2.49018
2.35125
2.2288
2.10254
2.00883
1.88007
5.28103
4.62238
4.37638
3.93065
3.69097
3.39652
3.18606
2.97494
2.79782
2.63252
2.48503
2.34628
2.22545
2.09831
2.00753
1.87647
5.24666
4.59146
4.349
3.90701
3.66958
3.37771
3.16908
2.9598
2.78428
2.62038
2.47451
2.33665
2.21809
2.09053
2.00412
1.86927
5.19278
4.5476
4.30774
3.87217
3.63761
3.34972
3.14369
2.9371
2.76374
2.60184
2.45777
2.32149
2.20441
2.07841
1.9925
1.86085
5.12533
4.48865
4.25354
3.82616
3.59535
3.31279
3.11014
2.90718
2.73673
2.57762
2.43617
2.30213
2.18823
2.06296
1.98356
1.84736
5.03563
4.41926
4.18553
3.76973
3.54288
3.2671
3.06844
2.86989
2.70271
2.54698
2.40759
2.2771
2.16276
2.04371
1.95815
1.83522
4.93806
4.33524
4.10546
3.70271
3.48072
3.21297
3.01909
2.82586
2.66267
2.51103
2.37464
2.24793
2.13604
2.02019
1.94071
1.81451
4.81503
4.2418
4.01247
3.62592
3.40906
3.15068
2.96217
2.77507
2.61614
2.46952
2.33499
2.21484
2.09928
1.99615
1.90186
1.80014
4.6605
4.14032
3.90678
3.53957
3.32847
3.08064
2.8983
2.71806
2.56389
2.42275
2.28948
2.17722
2.0517
1.97086
1.83323
1.79696
4.5119
4.02001
3.79226
3.44318
3.23975
3.00315
2.82791
2.65529
2.50682
2.37187
2.24225
2.13673
2.01165
1.94004
1.79806
1.7757
4.35257
3.8872
3.66789
3.33752
3.14341
2.91872
2.7516
2.58717
2.44534
2.31648
2.19208
2.0915
1.96982
1.90388
1.76234
1.74808
4.18741
3.73946
3.53536
3.22309
3.04005
2.82782
2.66971
2.51411
2.3797
2.25759
2.13984
2.0442
1.93073
1.86528
1.74047
1.7133
4.0083
3.58157
3.39445
3.1008
2.93028
2.73108
2.58285
2.43664
2.3104
2.19525
2.08512
1.99376
1.88973
1.82382
1.71417
1.67867
3.81944
3.41453
3.24608
2.9717
2.81464
2.62908
2.49135
2.35502
2.23738
2.12967
2.02742
1.94102
1.84636
1.78091
1.6861
1.64225
3.6208
3.23998
3.09099
2.83665
2.69386
2.5225
2.39584
2.26987
2.16128
2.06138
1.96734
1.88615
1.80083
1.73632
1.65493
1.60538
3.41414
3.05971
2.93004
2.69673
2.5686
2.412
2.29678
2.18153
2.08223
1.99045
1.90459
1.82914
1.75245
1.69027
1.62002
1.5678
3.2011
2.87463
2.76425
2.55282
2.43962
2.29828
2.19478
2.09059
2.0008
1.91743
1.83981
1.77051
1.7021
1.64308
1.58289
1.52957
2.98267
2.68637
2.5946
2.40597
2.3077
2.18206
2.09044
1.99755
1.91738
1.84262
1.77318
1.71036
1.64969
1.59482
1.543
1.49118
2.76107
2.49576
2.42214
2.25703
2.17362
2.06405
1.98436
1.90296
1.83247
1.76645
1.70515
1.6491
1.59593
1.5458
1.502
1.45218
2.53656
2.30449
2.24798
2.10708
2.03828
1.94502
1.87724
1.80744
1.74664
1.68947
1.63618
1.58717
1.54092
1.49641
1.4587
1.41373
2.31249
2.11337
2.073
1.95692
1.90234
1.82561
1.76962
1.71143
1.66017
1.61184
1.5663
1.52448
1.48482
1.44636
1.41536
1.37444
2.08742
1.9236
1.89861
1.80755
1.76688
1.7067
1.66237
1.61583
1.5741
1.53475
1.49688
1.46263
1.42888
1.39748
1.37025
1.33701
1.86714
1.73849
1.72509
1.66009
1.63241
1.58886
1.55582
1.5207
1.48794
1.45729
1.42575
1.39957
1.36865
1.34719
1.31999
1.29712
1.64793
1.55372
1.55506
1.51459
1.50025
1.47296
1.45122
1.42756
1.40408
1.38248
1.35837
1.34021
1.31499
1.30105
1.27745
1.2626
1.40603
1.38361
1.38575
1.37334
1.37056
1.35953
1.34847
1.33578
1.32036
1.30743
1.28632
1.27954
1.2427
1.258
1.18078
1.24885
1.20706
1.20388
1.22529
1.2344
1.24523
1.24935
1.2493
1.24748
1.24126
1.23675
1.22419
1.22334
1.19777
1.2124
1.15783
1.20791
1.01319
1.03332
1.0697
1.10058
1.12425
1.14295
1.15345
1.16186
1.16412
1.16718
1.16161
1.16637
1.14777
1.16537
1.12337
1.16677
0.825789
0.866027
0.921766
0.971701
1.00878
1.04113
1.06212
1.08046
1.09142
1.10198
1.10466
1.11417
1.10613
1.12276
1.09876
1.13004
0.646453
0.708486
0.781102
0.84939
0.899191
0.944454
0.975393
1.00306
1.02211
1.03962
1.04957
1.06371
1.06398
1.08159
1.06994
1.09612
0.477205
0.559706
0.649009
0.734199
0.796253
0.853587
0.894007
0.930508
0.957288
0.981476
0.998387
1.01706
1.02507
1.04382
1.04274
1.06503
0.31925
0.421971
0.526008
0.627085
0.7005
0.769064
0.818301
0.862991
0.89688
0.927253
0.950338
0.973422
0.987689
1.0086
1.01495
1.03659
0.174104
0.295466
0.413003
0.528662
0.61254
0.69143
0.748789
0.801025
0.841445
0.877555
0.906235
0.933525
0.953232
0.976495
0.988986
1.01068
0.0424031
0.181303
0.310597
0.439581
0.53289
0.621154
0.68586
0.744927
0.791218
0.832513
0.866104
0.89729
0.921463
0.947374
0.96423
0.987583
-0.0743154
0.0797068
0.219553
0.360346
0.462062
0.558676
0.629928
0.695086
0.746601
0.792537
0.830469
0.865202
0.893269
0.921645
0.942438
0.966883
-0.176391
-0.00834049
0.140218
0.291431
0.400459
0.504365
0.581323
0.651777
0.707804
0.757745
0.799323
0.837139
0.868188
0.899096
0.921983
0.94944
-0.261091
-0.0833402
0.0735391
0.233187
0.348548
0.458579
0.540407
0.615363
0.675261
0.728649
0.773461
0.813905
0.848003
0.880464
0.907153
0.933851
-0.331642
-0.143448
0.0189484
0.18598
0.306489
0.421554
0.507365
0.585954
0.648926
0.705023
0.752127
0.794727
0.830019
0.865071
0.890393
0.922683
-0.38131
-0.19093
-0.0213875
0.149982
0.274891
0.3936
0.482574
0.56397
0.62947
0.687727
0.737209
0.781132
0.819723
0.853853
0.885959
0.911906
-0.419559
-0.222539
-0.050573
0.125467
0.253389
0.374785
0.465995
0.549305
0.616427
0.676138
0.726479
0.771935
0.809262
0.84704
0.872047
0.907572
-0.43069
-0.241152
-0.06304
0.112574
0.243088
0.365368
0.458025
0.5423
0.610591
0.670943
0.722978
0.767792
0.80939
0.842484
0.878496
0.901199
)
;

boundaryField
{
    up
    {
        type            myTemperature;
        value           nonuniform List<scalar> 
80
(
0.913644
0.915833
0.975348
0.973895
0.97665
0.983579
0.994046
1.0092
1.02723
1.04873
1.07282
1.09926
1.12819
1.15798
1.19165
1.22265
1.31885
1.32225
1.35819
1.38359
1.41673
1.44929
1.48378
1.51814
1.55274
1.58629
1.61992
1.65062
1.68324
1.70885
1.7411
1.76006
1.79189
1.77833
1.79038
1.806
1.82106
1.83293
1.84246
1.84774
1.85068
1.84899
1.84631
1.83645
1.83049
1.81052
1.80286
1.77284
1.70865
1.68035
1.65442
1.63944
1.61744
1.59368
1.5664
1.53635
1.50465
1.47082
1.43671
1.40056
1.36591
1.3288
1.2944
1.25829
1.16828
1.15206
1.13069
1.10939
1.0849
1.06083
1.0368
1.01444
0.993268
0.974887
0.957409
0.945051
0.93055
0.926536
0.913944
0.918424
)
;
    }
    hole
    {
        type            myTemperature;
        value           nonuniform List<scalar> 
80
(
-0.48779
-0.460109
-0.444011
-0.384221
-0.304262
-0.20955
-0.0994302
0.0241806
0.162019
0.312567
0.475571
0.650054
0.834733
1.02953
1.2314
1.44108
1.59901
1.84835
2.07489
2.31193
2.54316
2.77371
2.99998
3.22215
3.43836
3.64832
3.84951
4.04332
4.22395
4.39828
4.55291
4.7041
4.82906
4.97894
5.08767
5.17242
5.23855
5.28747
5.3185
5.33303
5.32933
5.30953
5.27047
5.21808
5.14282
5.06123
4.95014
4.84335
4.75208
4.61076
4.4497
4.264
4.0718
3.86981
3.66122
3.44674
3.22694
3.00379
2.77712
2.55022
2.32134
2.09594
1.86996
1.6524
1.48958
1.26496
1.0506
0.847198
0.658078
0.481552
0.319029
0.170202
0.0365031
-0.082621
-0.184659
-0.272711
-0.339804
-0.396487
-0.426173
-0.448561
)
;
    }
    frontAndBack
    {
        type            empty;
    }
}


// ************************************************************************* //
