/*--------------------------------*- C++ -*----------------------------------*\
| =========                 |                                                 |
| \\      /  F ield         | foam-extend: Open Source CFD                    |
|  \\    /   O peration     | Version:  3.0                                   |
|   \\  /    A nd           | Web:         http://www.extend-project.de       |
|    \\/     M anipulation  |                                                 |
\*---------------------------------------------------------------------------*/
FoamFile
{
    version     2.0;
    format      ascii;
    class       volScalarField;
    location    "3.2";
    object      p;
}
// * * * * * * * * * * * * * * * * * * * * * * * * * * * * * * * * * * * * * //

dimensions      [0 0 0 0 0 0 0];

internalField   nonuniform List<scalar> 
400
(
1.0022
0.917649
0.908401
0.875283
0.898142
0.889502
0.928388
0.931945
0.978763
0.987418
1.03693
1.04545
1.09291
1.09583
1.13507
1.12484
1.14661
1.11128
1.09969
1.0148
1.07789
1.0035
0.99288
0.9586
0.974286
0.95737
0.983762
0.973701
1.00395
0.995817
1.02681
1.01801
1.04767
1.03572
1.06075
1.04115
1.05456
1.01788
1.00472
0.930993
1.03542
0.966683
0.958676
0.927592
0.948063
0.935268
0.967837
0.963073
1.00055
0.998564
1.03784
1.03542
1.07423
1.06806
1.10232
1.08694
1.10774
1.07333
1.06316
0.99411
1.02779
0.956153
0.951145
0.921443
0.943467
0.931909
0.963256
0.95869
0.992815
0.990431
1.02555
1.02301
1.05843
1.05314
1.0862
1.07264
1.09483
1.06127
1.05278
0.978816
0.986919
0.906262
0.907758
0.881087
0.911847
0.906546
0.946573
0.94926
0.992543
0.997921
1.04363
1.04915
1.09734
1.1
1.14813
1.14105
1.17896
1.14622
1.1473
1.05664
0.961905
0.871698
0.87842
0.854639
0.88922
0.888061
0.928229
0.934275
0.975018
0.983382
1.02549
1.0346
1.08005
1.08776
1.13622
1.13527
1.17784
1.14748
1.15297
1.04312
0.930436
0.829536
0.844812
0.825374
0.867669
0.8729
0.919147
0.93148
0.978406
0.992983
1.04311
1.05883
1.11579
1.13088
1.19587
1.2023
1.26626
1.23744
1.26076
1.12145
0.901222
0.798592
0.818788
0.804978
0.848302
0.858168
0.901586
0.917033
0.958374
0.97547
1.01836
1.03731
1.08694
1.1074
1.16747
1.18204
1.24661
1.22431
1.25217
1.09349
0.87266
0.776712
0.802614
0.796453
0.841289
0.856954
0.900805
0.920677
0.963244
0.984095
1.0304
1.05334
1.11025
1.13607
1.20954
1.2315
1.31738
1.30105
1.35306
1.1749
0.834637
0.761409
0.788964
0.792278
0.833063
0.852812
0.890015
0.911405
0.944925
0.966217
1.00087
1.02463
1.06751
1.09649
1.15499
1.18492
1.25867
1.25598
1.30458
1.13488
0.797801
0.758548
0.787106
0.802494
0.838105
0.863333
0.895729
0.919758
0.9499
0.972331
1.00556
1.03015
1.07478
1.10607
1.17207
1.20853
1.29963
1.31053
1.38937
1.23502
0.744595
0.752272
0.782039
0.810609
0.840471
0.869326
0.893687
0.917517
0.936948
0.957363
0.976102
0.998297
1.02338
1.05409
1.09475
1.13707
1.19939
1.23176
1.2916
1.19304
0.699446
0.758361
0.786552
0.830938
0.852776
0.887401
0.904391
0.929489
0.942617
0.961818
0.975303
0.995207
1.01682
1.04634
1.08818
1.13532
1.21084
1.26503
1.36551
1.32554
0.638607
0.751377
0.786827
0.845752
0.865075
0.902663
0.912857
0.93613
0.938936
0.953949
0.952628
0.967074
0.967029
0.991594
1.00178
1.05037
1.08279
1.1621
1.22165
1.28325
0.603612
0.765132
0.796783
0.87249
0.88419
0.927297
0.929671
0.952784
0.947973
0.959833
0.950926
0.960453
0.95289
0.972578
0.977914
1.02793
1.06875
1.17444
1.28682
1.44348
0.56263
0.763746
0.811467
0.898056
0.910965
0.954576
0.951566
0.970934
0.957282
0.963462
0.941805
0.943828
0.916571
0.927133
0.900761
0.944861
0.935272
1.05925
1.10311
1.38614
0.569435
0.798018
0.836971
0.936549
0.942191
0.98869
0.977709
0.99488
0.973385
0.975105
0.945211
0.940774
0.90364
0.905952
0.868859
0.908137
0.897385
1.04292
1.13951
1.53898
0.605011
0.833682
0.888353
0.986995
0.991345
1.0326
1.01564
1.02673
0.998295
0.993919
0.955275
0.943069
0.891926
0.882292
0.820069
0.843261
0.785674
0.92538
0.927306
1.42775
0.693038
0.905919
0.946607
1.04695
1.04175
1.0796
1.05399
1.06027
1.02482
1.0156
0.970061
0.951461
0.890713
0.870685
0.79352
0.802652
0.72778
0.867158
0.882541
1.48176
0.903982
1.03138
1.06062
1.13693
1.11905
1.14169
1.10853
1.10602
1.06676
1.05201
1.00392
0.979074
0.913823
0.881016
0.792498
0.772753
0.670679
0.754188
0.684209
1.23064
)
;

boundaryField
{
    cavity
    {
        type            implicitExtrapolation;
    }
    lid
    {
        type            implicitExtrapolation;
    }
    frontAndBack
    {
        type            empty;
    }
}


// ************************************************************************* //
