/*--------------------------------*- C++ -*----------------------------------*\
| =========                 |                                                 |
| \\      /  F ield         | foam-extend: Open Source CFD                    |
|  \\    /   O peration     | Version:  3.0                                   |
|   \\  /    A nd           | Web:         http://www.extend-project.de       |
|    \\/     M anipulation  |                                                 |
\*---------------------------------------------------------------------------*/
FoamFile
{
    version     2.0;
    format      ascii;
    class       volVectorField;
    location    "3.2";
    object      u;
}
// * * * * * * * * * * * * * * * * * * * * * * * * * * * * * * * * * * * * * //

dimensions      [0 0 0 0 0 0 0];

internalField   nonuniform List<vector> 
400
(
(-0.0485425 0.139317 7.3202e-316)
(-0.206511 0.176698 6.62042e-316)
(-0.300147 0.178912 5.58232e-316)
(-0.441659 0.208621 5.23177e-316)
(-0.538276 0.187436 4.12159e-316)
(-0.64578 0.183822 4.02472e-316)
(-0.726287 0.154009 2.95604e-316)
(-0.795696 0.124185 3.00921e-316)
(-0.841694 0.0885114 2.02468e-316)
(-0.870359 0.0449706 2.18051e-316)
(-0.871472 0.00566271 1.27961e-316)
(-0.85598 -0.0402092 1.51332e-316)
(-0.810923 -0.0797853 6.81681e-317)
(-0.748008 -0.114935 9.66016e-317)
(-0.665947 -0.150056 1.94596e-317)
(-0.554492 -0.157593 4.75664e-317)
(-0.456142 -0.181061 -2.02425e-317)
(-0.302328 -0.149633 -4.82405e-318)
(-0.212196 -0.142671 -5.23275e-317)
(-0.0430472 -0.100717 -6.97347e-317)
(-0.0513084 0.257489 2.88938e-316)
(-0.15233 0.226421 3.26284e-316)
(-0.25169 0.198216 3.1252e-316)
(-0.333629 0.180648 3.17549e-316)
(-0.412217 0.142978 2.83323e-316)
(-0.47153 0.125794 2.7575e-316)
(-0.525416 0.0881777 2.32532e-316)
(-0.56153 0.0665068 2.20904e-316)
(-0.588548 0.029412 1.75687e-316)
(-0.602565 0.00428211 1.6456e-316)
(-0.601224 -0.0350768 1.21047e-316)
(-0.592824 -0.0600797 1.12535e-316)
(-0.563341 -0.104108 7.20773e-317)
(-0.529879 -0.124748 6.62293e-317)
(-0.47459 -0.173849 2.87491e-317)
(-0.412678 -0.187526 2.27714e-317)
(-0.33565 -0.235992 -1.24626e-317)
(-0.245639 -0.246649 -2.77468e-317)
(-0.153745 -0.277074 -6.30617e-317)
(-0.0433092 -0.30071 -1.11718e-316)
(-0.0216158 0.428255 3.2107e-316)
(-0.156554 0.464325 3.22019e-316)
(-0.247227 0.437312 2.96941e-316)
(-0.350443 0.439056 2.81822e-316)
(-0.444763 0.381023 2.45246e-316)
(-0.5152 0.34527 2.29437e-316)
(-0.586947 0.276723 1.90406e-316)
(-0.631073 0.213013 1.765e-316)
(-0.668959 0.139909 1.38642e-316)
(-0.690511 0.0610721 1.26892e-316)
(-0.69013 -0.0162216 9.08551e-317)
(-0.687998 -0.0968765 8.06741e-317)
(-0.648316 -0.17831 4.56379e-317)
(-0.616069 -0.245246 3.5215e-317)
(-0.540698 -0.326975 -5.832e-319)
(-0.468011 -0.361563 -1.52471e-317)
(-0.371478 -0.430123 -5.33818e-317)
(-0.249196 -0.417338 -7.94835e-317)
(-0.16743 -0.44164 -1.1961e-316)
(-0.0047517 -0.388343 -1.62127e-316)
(-0.0451157 0.500266 3.69562e-317)
(-0.147194 0.546733 1.06335e-316)
(-0.247977 0.474164 1.3236e-316)
(-0.303462 0.467877 1.54377e-316)
(-0.387295 0.380352 1.54268e-316)
(-0.412261 0.334979 1.53286e-316)
(-0.468218 0.254714 1.39515e-316)
(-0.479983 0.187823 1.28769e-316)
(-0.507377 0.112427 1.09341e-316)
(-0.515693 0.0354195 9.54641e-317)
(-0.515328 -0.0441513 7.47925e-317)
(-0.522166 -0.122589 6.09675e-317)
(-0.493005 -0.215756 4.13281e-317)
(-0.492095 -0.28437 2.93634e-317)
(-0.43219 -0.396313 1.25446e-317)
(-0.407812 -0.436113 4.68647e-318)
(-0.320591 -0.558199 -6.38862e-318)
(-0.248809 -0.541286 -5.22626e-318)
(-0.156905 -0.627814 -4.91511e-318)
(-0.0240897 -0.538307 1.64798e-317)
(-0.0753805 0.673546 2.06822e-316)
(-0.168961 0.730015 1.98862e-316)
(-0.310787 0.638501 1.86818e-316)
(-0.356315 0.621541 1.7267e-316)
(-0.468741 0.519049 1.56292e-316)
(-0.489685 0.449931 1.42066e-316)
(-0.564573 0.360025 1.23894e-316)
(-0.58003 0.262819 1.0969e-316)
(-0.617574 0.181449 9.09543e-317)
(-0.636611 0.0707731 7.66064e-317)
(-0.637419 -0.0123057 5.75487e-317)
(-0.660379 -0.126177 4.26727e-317)
(-0.621773 -0.222204 2.26367e-317)
(-0.639491 -0.325472 5.81493e-318)
(-0.556757 -0.443387 -1.7037e-317)
(-0.547809 -0.510234 -3.93812e-317)
(-0.422401 -0.647143 -6.81276e-317)
(-0.352466 -0.635648 -1.02672e-316)
(-0.208975 -0.744367 -1.41302e-316)
(-0.0528661 -0.624698 -1.94821e-316)
(-0.122679 0.804334 4.87075e-318)
(-0.15782 0.845907 5.40788e-317)
(-0.333804 0.711411 7.71096e-317)
(-0.316514 0.671145 9.51963e-317)
(-0.432488 0.549396 9.93545e-317)
(-0.40324 0.458959 9.92882e-317)
(-0.471464 0.367973 9.24848e-317)
(-0.453473 0.256309 8.39666e-317)
(-0.4859 0.181366 7.20353e-317)
(-0.489878 0.0604509 6.02447e-317)
(-0.492214 -0.0183855 4.65409e-317)
(-0.521341 -0.144247 3.40374e-317)
(-0.490164 -0.248343 2.04826e-317)
(-0.539755 -0.37059 9.05954e-318)
(-0.462878 -0.520516 -2.4062e-318)
(-0.51487 -0.611944 -9.71586e-318)
(-0.377856 -0.814929 -1.57205e-317)
(-0.391672 -0.816853 -1.23886e-317)
(-0.195238 -1.0137 -7.37379e-318)
(-0.114122 -0.867958 1.61544e-317)
(-0.199337 1.00511 1.96925e-316)
(-0.166377 0.983759 1.67382e-316)
(-0.415898 0.826914 1.49378e-316)
(-0.350989 0.740333 1.29952e-316)
(-0.49949 0.620314 1.15676e-316)
(-0.448902 0.496311 1.01773e-316)
(-0.531437 0.416947 8.86315e-317)
(-0.511504 0.279974 7.61648e-317)
(-0.55033 0.222031 6.30334e-317)
(-0.567001 0.0789164 5.04535e-317)
(-0.571155 0.022731 3.67984e-317)
(-0.626279 -0.127845 2.33983e-317)
(-0.590316 -0.203393 8.46998e-318)
(-0.679858 -0.358698 -7.13018e-318)
(-0.583028 -0.479003 -2.52234e-317)
(-0.688755 -0.615793 -4.66817e-317)
(-0.498553 -0.804812 -7.1744e-317)
(-0.573311 -0.861152 -1.06946e-316)
(-0.260369 -1.08843 -1.4517e-316)
(-0.221901 -0.997578 -2.0449e-316)
(-0.264731 1.21682 2.085e-317)
(-0.120306 1.09244 5.35847e-317)
(-0.415951 0.92013 6.77559e-317)
(-0.274277 0.766285 7.88468e-317)
(-0.426797 0.658609 7.99134e-317)
(-0.328177 0.494781 7.75802e-317)
(-0.402738 0.436219 7.10679e-317)
(-0.351303 0.27716 6.27706e-317)
(-0.384389 0.241239 5.27603e-317)
(-0.381336 0.0835595 4.21903e-317)
(-0.387422 0.0457616 3.08963e-317)
(-0.436963 -0.123227 1.97062e-317)
(-0.410115 -0.190894 8.32585e-318)
(-0.518449 -0.380504 -2.27523e-318)
(-0.429216 -0.514776 -1.22991e-317)
(-0.598218 -0.711194 -1.97303e-317)
(-0.38921 -0.952219 -2.55118e-317)
(-0.597796 -1.09182 -2.34921e-317)
(-0.187085 -1.41925 -2.00281e-317)
(-0.346696 -1.41493 -6.37493e-320)
(-0.330456 1.41923 2.00572e-316)
(-0.0902494 1.14817 1.59004e-316)
(-0.446931 0.992898 1.35857e-316)
(-0.255553 0.752791 1.12851e-316)
(-0.427349 0.677452 9.77039e-317)
(-0.312998 0.470863 8.35177e-317)
(-0.390852 0.440586 7.13918e-317)
(-0.342062 0.26128 5.98067e-317)
(-0.375733 0.253489 4.84677e-317)
(-0.387829 0.0841001 3.7266e-317)
(-0.396709 0.0820784 2.5794e-317)
(-0.474698 -0.101439 1.41039e-317)
(-0.451212 -0.117128 1.70181e-318)
(-0.606163 -0.338061 -1.17935e-317)
(-0.509293 -0.398059 -2.69585e-317)
(-0.7498 -0.663345 -4.5964e-317)
(-0.491552 -0.816512 -6.80931e-317)
(-0.799472 -1.08886 -1.01907e-316)
(-0.239774 -1.3749 -1.39005e-316)
(-0.500985 -1.58017 -2.03024e-316)
(-0.329865 1.64268 3.6717e-317)
(-0.0110645 1.2081 6.25343e-317)
(-0.35863 1.08541 7.07599e-317)
(-0.128984 0.743205 7.694e-317)
(-0.279262 0.713246 7.44859e-317)
(-0.142388 0.455016 6.9591e-317)
(-0.200551 0.4619 6.18402e-317)
(-0.130228 0.260102 5.29524e-317)
(-0.153242 0.284501 4.32239e-317)
(-0.140005 0.104273 3.31921e-317)
(-0.149993 0.131798 2.29388e-317)
(-0.199921 -0.0676132 1.27406e-317)
(-0.190217 -0.0584997 2.6097e-318)
(-0.324061 -0.321078 -7.04858e-318)
(-0.249867 -0.369333 -1.60709e-317)
(-0.505058 -0.729524 -2.31317e-317)
(-0.25788 -0.90223 -2.85675e-317)
(-0.678104 -1.34876 -2.70701e-317)
(-0.0621542 -1.72287 -2.41498e-317)
(-0.592638 -2.16452 -6.32027e-318)
(-0.309319 1.75059 1.99298e-316)
(0.0378875 1.17629 1.54153e-316)
(-0.292655 1.10705 1.29425e-316)
(-0.0633895 0.676013 1.05492e-316)
(-0.195562 0.690067 8.97621e-317)
(-0.0695258 0.395449 7.53463e-317)
(-0.111705 0.428847 6.32771e-317)
(-0.0546434 0.217569 5.19418e-317)
(-0.069935 0.263931 4.12174e-317)
(-0.0725514 0.0844092 3.0794e-317)
(-0.0862372 0.141897 2.04782e-317)
(-0.158902 -0.0584935 1.01514e-317)
(-0.164738 0.00437172 -4.34773e-319)
(-0.335457 -0.277818 -1.17519e-317)
(-0.281693 -0.225015 -2.40932e-317)
(-0.595989 -0.657839 -3.97177e-317)
(-0.345584 -0.658871 -5.76526e-317)
(-0.844922 -1.28791 -8.73207e-317)
(-0.137958 -1.47589 -1.19508e-316)
(-0.715365 -2.22531 -1.82671e-316)
(-0.179088 1.88712 4.46985e-317)
(0.101305 1.18706 7.20345e-317)
(-0.10222 1.17281 7.71744e-317)
(0.0862009 0.649534 8.03731e-317)
(0.0207699 0.713777 7.48354e-317)
(0.134609 0.374968 6.75349e-317)
(0.127851 0.443938 5.82592e-317)
(0.194348 0.219985 4.85069e-317)
(0.195139 0.297488 3.86031e-317)
(0.222255 0.118546 2.87917e-317)
(0.20945 0.208483 1.9172e-317)
(0.189778 0.00460678 9.82071e-318)
(0.166744 0.101947 8.05307e-319)
(0.074474 -0.212837 -7.64836e-318)
(0.0835628 -0.130318 -1.52146e-317)
(-0.140232 -0.668698 -2.07977e-317)
(0.0280482 -0.67037 -2.41786e-317)
(-0.436619 -1.53301 -2.01749e-317)
(0.150079 -1.82979 -1.32537e-317)
(-0.606483 -2.92794 1.15675e-317)
(-0.0681243 1.82309 1.89575e-316)
(0.141294 1.10963 1.50372e-316)
(0.0465421 1.1209 1.26427e-316)
(0.172777 0.569022 1.03077e-316)
(0.17022 0.648427 8.67767e-317)
(0.247925 0.303558 7.19621e-317)
(0.277771 0.378178 5.94925e-317)
(0.323652 0.162107 4.80437e-317)
(0.34016 0.242521 3.74828e-317)
(0.353726 0.0770844 2.75009e-317)
(0.337106 0.174803 1.79582e-317)
(0.304231 -0.0146405 8.72755e-318)
(0.253837 0.110127 -3.22897e-319)
(0.140263 -0.198975 -9.55243e-318)
(0.0915449 -0.0352606 -1.89838e-317)
(-0.17026 -0.607016 -3.05408e-317)
(-0.0821871 -0.407195 -4.29339e-317)
(-0.587979 -1.40104 -6.5039e-317)
(-0.0367398 -1.35071 -8.74107e-317)
(-0.717888 -2.64306 -1.37196e-316)
(0.137571 1.82419 5.11544e-317)
(0.142109 1.08756 8.82633e-317)
(0.277846 1.14115 8.93247e-317)
(0.317059 0.543284 8.85708e-317)
(0.414458 0.647083 7.89415e-317)
(0.463882 0.283622 6.85931e-317)
(0.535056 0.377885 5.73994e-317)
(0.583093 0.167117 4.65677e-317)
(0.616059 0.269848 3.62505e-317)
(0.659332 0.120542 2.64826e-317)
(0.646312 0.246985 1.727e-317)
(0.680822 0.0733312 8.60714e-318)
(0.61759 0.235179 5.57731e-319)
(0.630705 -0.0785077 -6.70406e-318)
(0.528431 0.124554 -1.26899e-317)
(0.481617 -0.523211 -1.6259e-317)
(0.415259 -0.322572 -1.66317e-317)
(0.199676 -1.56019 -7.6173e-318)
(0.366681 -1.70162 6.54941e-318)
(-0.208973 -3.51061 4.97545e-317)
(0.328054 1.61464 1.81108e-316)
(0.200701 1.00107 1.51214e-316)
(0.475449 0.98855 1.26568e-316)
(0.420313 0.462838 1.02477e-316)
(0.601502 0.535972 8.49723e-317)
(0.607403 0.211008 6.93988e-317)
(0.724407 0.287602 5.65157e-317)
(0.751499 0.102541 4.49798e-317)
(0.803171 0.187556 3.46579e-317)
(0.836124 0.0600298 2.51535e-317)
(0.820906 0.165763 1.63414e-317)
(0.849439 0.0174428 8.08622e-318)
(0.756081 0.160227 3.48558e-319)
(0.757236 -0.11775 -7.0576e-318)
(0.572438 0.0928896 -1.39785e-317)
(0.487908 -0.509106 -2.17656e-317)
(0.262923 -0.183404 -2.91043e-317)
(-0.0329518 -1.36655 -4.29378e-317)
(0.00707604 -1.05835 -5.55223e-317)
(-0.554773 -2.56873 -8.58537e-317)
(0.390344 1.43857 1.12366e-316)
(0.15324 0.974944 1.38011e-316)
(0.668997 0.974078 1.21642e-316)
(0.585385 0.446218 1.07415e-316)
(0.860679 0.505471 8.95076e-317)
(0.850444 0.190664 7.36838e-317)
(0.995527 0.269024 5.94446e-317)
(1.02178 0.107862 4.68208e-317)
(1.08207 0.205432 3.55959e-317)
(1.13953 0.107165 2.54051e-317)
(1.13021 0.235566 1.61053e-317)
(1.2256 0.121277 7.5787e-318)
(1.13455 0.301398 -1.47834e-319)
(1.28228 0.0567047 -6.90004e-318)
(1.06687 0.320441 -1.21005e-317)
(1.29023 -0.295142 -1.44423e-317)
(0.890175 0.0604914 -1.29205e-317)
(1.19495 -1.36227 2.75195e-319)
(0.558601 -1.2941 1.98179e-317)
(0.723876 -3.8444 8.01161e-317)
(0.851094 1.24314 1.80585e-316)
(0.263922 0.811647 1.3653e-316)
(0.864951 0.697101 1.11392e-316)
(0.666694 0.331337 8.70691e-317)
(0.986108 0.35483 7.15756e-317)
(0.943545 0.118297 5.79767e-317)
(1.11685 0.170765 4.71218e-317)
(1.12643 0.045532 3.75157e-317)
(1.19918 0.110662 2.89868e-317)
(1.24252 0.033737 2.1209e-317)
(1.23512 0.115903 1.40717e-317)
(1.31335 0.026764 7.52322e-318)
(1.20741 0.137521 1.60649e-318)
(1.31987 -0.0531881 -3.77069e-318)
(1.04542 0.111024 -8.41447e-318)
(1.17074 -0.367395 -1.32454e-317)
(0.639202 -0.0934717 -1.76081e-317)
(0.647329 -1.13423 -2.69163e-317)
(0.0502435 -0.746895 -3.68042e-317)
(-0.484648 -1.7814 -6.19424e-317)
(0.287997 0.725765 3.67725e-316)
(0.371094 0.953599 2.79607e-316)
(1.15857 0.701938 2.10637e-316)
(1.11267 0.359977 1.59521e-316)
(1.53774 0.319582 1.2327e-316)
(1.49069 0.102007 9.55416e-317)
(1.68182 0.146374 7.41423e-317)
(1.68366 0.0523543 5.65208e-317)
(1.75475 0.127225 4.1621e-317)
(1.82572 0.0830867 2.85138e-317)
(1.82362 0.18752 1.67528e-317)
(1.98787 0.139471 5.98463e-318)
(1.89998 0.295039 -3.83623e-318)
(2.20237 0.162071 -1.25738e-317)
(1.92918 0.413147 -1.95728e-317)
(2.46436 -0.0314104 -2.32786e-317)
(1.72171 0.393616 -2.22017e-317)
(2.70605 -0.967834 -7.43641e-318)
(0.837923 -0.543138 1.56109e-317)
(2.50196 -4.00029 8.31909e-317)
(1.56238 0.82177 7.88913e-318)
(0.374613 0.300233 -2.07043e-317)
(0.892608 0.254167 -7.79012e-318)
(0.674643 0.104464 -3.34596e-318)
(0.879281 0.125162 2.68148e-318)
(0.845529 0.0294094 5.39119e-318)
(0.963836 0.0527081 7.09808e-318)
(0.963609 0.00232412 7.64511e-318)
(1.01819 0.0274659 7.62368e-318)
(1.03572 -0.00167319 7.23928e-318)
(1.04092 0.0272142 6.73752e-318)
(1.07914 -0.00583302 6.34733e-318)
(1.0209 0.0268046 6.17369e-318)
(1.08338 -0.0478579 6.29349e-318)
(0.900462 -0.0149601 6.57541e-318)
(0.986161 -0.211101 6.0103e-318)
(0.592916 -0.193024 3.71384e-318)
(0.572466 -0.585825 -6.6805e-318)
(0.220635 -0.598581 -2.39372e-317)
(-1.14414 0.0788734 -7.2168e-317)
(-0.432711 -0.355234 1.04311e-315)
(1.21985 1.28728 6.39871e-316)
(2.53298 0.504717 4.50809e-316)
(2.62083 0.348712 3.20699e-316)
(3.37087 0.208987 2.42988e-316)
(3.2317 0.0475239 1.85814e-316)
(3.5067 0.0723464 1.43141e-316)
(3.45707 0.0182951 1.08255e-316)
(3.54317 0.0809742 7.87124e-317)
(3.65828 0.0677822 5.262e-317)
(3.6719 0.157233 2.89551e-317)
(4.0097 0.148405 6.99601e-318)
(3.9529 0.284844 -1.34547e-317)
(4.61019 0.227955 -3.23087e-317)
(4.31807 0.455712 -4.84883e-317)
(5.4698 0.145219 -5.98181e-317)
(4.2442 0.608702 -6.28234e-317)
(6.31153 -0.722041 -4.69084e-317)
(1.86303 0.429646 -1.544e-317)
(6.09361 -4.28223 6.66865e-317)
)
;

boundaryField
{
    cavity
    {
        type            myImplicitVelocity;
    }
    lid
    {
        type            fixedValue;
        value           uniform (1 0 0);
    }
    frontAndBack
    {
        type            empty;
    }
}


// ************************************************************************* //
