/*--------------------------------*- C++ -*----------------------------------*\
| =========                 |                                                 |
| \\      /  F ield         | foam-extend: Open Source CFD                    |
|  \\    /   O peration     | Version:  3.0                                   |
|   \\  /    A nd           | Web:         http://www.extend-project.de       |
|    \\/     M anipulation  |                                                 |
\*---------------------------------------------------------------------------*/
FoamFile
{
    version     2.0;
    format      ascii;
    class       volVectorField;
    location    "21";
    object      u;
}
// * * * * * * * * * * * * * * * * * * * * * * * * * * * * * * * * * * * * * //

dimensions      [0 0 0 0 0 0 0];

internalField   nonuniform List<vector> 
672
(
(0.4318536228 -0.09326059735 3.791190464e-17)
(0.354465627 -0.05969497192 1.725765903e-17)
(0.8039051699 -0.05052235016 1.478605541e-17)
(0.6622221285 -0.0298793128 1.197096788e-18)
(0.9567257849 -0.02810210341 3.835541096e-17)
(0.808116215 -0.01689916568 3.845897952e-17)
(1.033265933 -0.01474371992 8.107503088e-17)
(0.8771964471 -0.009727013913 -1.479061964e-17)
(1.075551685 -0.006184952306 2.192390179e-17)
(0.9053278488 -0.004213848778 3.011496144e-17)
(1.096742661 -0.000353570572 -1.134204309e-17)
(0.9103875197 0.001907002799 -9.11328304e-18)
(0.4737539956 -0.2756290524 1.533110846e-17)
(0.3809686323 -0.1773009499 -7.590357643e-17)
(0.8264347001 -0.1501778524 7.156651444e-17)
(0.6753928021 -0.08987237117 -1.455472315e-16)
(0.9690905786 -0.08451118032 -5.952361598e-17)
(0.8155537119 -0.0522029595 -2.448790255e-17)
(1.039715691 -0.0454313227 -2.298173946e-16)
(0.8815925339 -0.03200229469 7.729986381e-17)
(1.078568972 -0.02047533303 -4.846783914e-17)
(0.9071589213 -0.0169855376 6.263708107e-17)
(1.098210197 -0.00417507796 -1.23394189e-16)
(0.908600082 -9.108835642e-05 2.026965981e-16)
(0.5547795857 -0.4442101361 -3.75163703e-17)
(0.4331874642 -0.2854740115 1.154251839e-16)
(0.870893818 -0.2420005516 1.829709963e-17)
(0.7021850441 -0.1449313366 2.010097564e-16)
(0.9944785683 -0.1363829456 3.50708353e-17)
(0.8314889189 -0.08470011744 1.601356353e-16)
(1.053633648 -0.07363791048 1.170983613e-16)
(0.8918060552 -0.05289620364 1.398486576e-16)
(1.084720252 -0.03329204697 -8.319185803e-17)
(0.9135800032 -0.0298672451 3.812271935e-17)
(1.098497805 -0.00641063144 -2.755031391e-17)
(0.9114591127 -0.004068542703 -1.274650369e-17)
(0.6716365646 -0.5904186893 -1.300506003e-16)
(0.5081305761 -0.3800913259 -8.761780864e-17)
(0.9344993693 -0.3220910554 -1.693816147e-16)
(0.7400843104 -0.1933130797 -4.09332705e-18)
(1.030185288 -0.1817752364 -3.311581109e-16)
(0.8534467292 -0.1131345659 1.132431565e-16)
(1.072947817 -0.09830751652 -3.737847969e-16)
(0.905178127 -0.07059586867 1.922732356e-16)
(1.094194203 -0.04493333658 -1.998115666e-16)
(0.9201042586 -0.03955056752 3.354570676e-16)
(1.102618497 -0.01015188062 -2.841675269e-16)
(0.9097755695 -0.005173197341 4.28694672e-16)
(0.8178958282 -0.707030745 3.416765588e-16)
(0.6019800083 -0.4547441216 4.541194043e-17)
(1.014424671 -0.3854334901 1.860998499e-16)
(0.7879911357 -0.2312479501 3.723923172e-17)
(1.075550548 -0.2175163865 2.246706465e-16)
(0.881833255 -0.1357012998 1.161670711e-16)
(1.09765489 -0.1176654055 8.600455837e-17)
(0.9235014011 -0.08569241557 1.557504766e-17)
(1.10503443 -0.05323341229 1.384759462e-16)
(0.931697545 -0.04987273237 -3.097935712e-16)
(1.103352716 -0.01035919388 1.798841277e-16)
(0.9139628479 -0.009332365646 -1.502777922e-16)
(0.986601387 -0.7881302919 -2.228248161e-16)
(0.7105728734 -0.5075847956 3.741196892e-17)
(1.106581169 -0.4300500677 -2.617922049e-16)
(0.8431719924 -0.2583606309 1.728481595e-16)
(1.127547105 -0.2428105413 -4.228522734e-16)
(0.9139686227 -0.1515873892 1.608607002e-16)
(1.12590801 -0.1313097667 -3.165091513e-16)
(0.9430844677 -0.09531523386 1.015548845e-16)
(1.118874298 -0.05980259924 -2.196903415e-16)
(0.941459623 -0.05457429107 5.28453464e-16)
(1.108966463 -0.01316347068 -5.394510884e-16)
(0.913101441 -0.009468151036 4.952960029e-16)
(1.16905064 -0.8296550793 2.526316917e-17)
(0.8274543373 -0.5340102877 6.73395045e-17)
(1.206055308 -0.4524255406 -2.333809299e-17)
(0.9026865165 -0.271773474 -1.105501429e-16)
(1.183832612 -0.2554028903 2.705285597e-16)
(0.9492758085 -0.1598619624 -2.825239624e-17)
(1.15644208 -0.1379427405 1.528996932e-16)
(0.9661766543 -0.1017176475 -5.820118589e-17)
(1.132295486 -0.06171157637 1.27349546e-16)
(0.9561779335 -0.06045212828 -3.417098488e-16)
(1.110427701 -0.0109203346 3.180300918e-16)
(0.9174845794 -0.01344304258 -1.679874955e-16)
(1.356217318 -0.8295925814 3.275959988e-17)
(0.9481767594 -0.5345619614 -5.642089164e-17)
(1.308531669 -0.4526471027 1.78483336e-16)
(0.9642048882 -0.2721639726 -6.095330204e-17)
(1.241746373 -0.2555351744 1.490611196e-17)
(0.9853035773 -0.1599879096 -6.004558794e-17)
(1.187678145 -0.1379619144 6.915811838e-17)
(0.9884804574 -0.1013676474 6.503006029e-19)
(1.146826366 -0.06225204308 -8.513243584e-17)
(0.9679968249 -0.05922370481 3.248154681e-16)
(1.115114676 -0.01287245217 -3.062528456e-16)
(0.9178427251 -0.01188847713 2.361628723e-16)
(1.538669585 -0.7878058383 1.12814353e-17)
(1.064970133 -0.5075692313 -1.877255363e-18)
(1.407863776 -0.4297139848 -3.102520059e-16)
(1.023554354 -0.25845791 1.75797466e-16)
(1.297837157 -0.2426293956 -2.54642461e-16)
(1.020494886 -0.1522613968 1.960274895e-16)
(1.217984562 -0.1308234535 -1.683548869e-16)
(1.011626605 -0.09740224108 7.510282355e-17)
(1.159980099 -0.05785247791 4.811218335e-17)
(0.982972922 -0.05894017002 -2.501340849e-16)
(1.116228241 -0.008865468637 2.211796563e-16)
(0.9227448173 -0.01547647963 -2.344595585e-16)
(1.707249201 -0.706609685 6.820148996e-17)
(1.173855804 -0.455705798 -2.495401123e-17)
(1.500327484 -0.3854253894 3.559655372e-16)
(1.079128343 -0.2320144863 -1.066221642e-16)
(1.350178879 -0.2174541065 2.361680153e-16)
(1.053186983 -0.1365842425 -2.284059454e-16)
(1.246156448 -0.1169683163 1.767935362e-16)
(1.032145896 -0.08728618 -6.935781973e-17)
(1.172845639 -0.05162818342 -1.684527941e-18)
(0.9942291324 -0.05247318553 2.317076547e-18)
(1.120115443 -0.008545602839 2.362776779e-17)
(0.9233658594 -0.01280404813 1.82719484e-18)
(1.853543524 -0.5898005916 -9.965414007e-18)
(1.267479979 -0.3806357498 -2.227504021e-17)
(1.579919165 -0.3217677548 -1.821250442e-16)
(1.126634982 -0.193965756 -5.020370618e-17)
(1.395041087 -0.1816874579 -5.544606407e-17)
(1.081391498 -0.1145281555 1.922301269e-17)
(1.270160588 -0.09766220523 -5.81067502e-17)
(1.050948593 -0.07392058531 -1.838799429e-18)
(1.182678452 -0.04231793132 2.185194286e-17)
(1.006921623 -0.04597448039 -2.128121342e-17)
(1.119783629 -0.004774297523 2.843072694e-17)
(0.9283453463 -0.01435707299 -5.492057754e-17)
(1.970167479 -0.4435792111 -4.755880049e-17)
(1.34288874 -0.2866580444 -1.333512749e-18)
(1.64397668 -0.2417343586 1.44098304e-16)
(1.165145281 -0.1459337413 1.035630035e-17)
(1.43131923 -0.136155559 1.180386733e-16)
(1.10413541 -0.08606163534 -9.865108596e-17)
(1.289572208 -0.07267175475 1.520129245e-16)
(1.065407314 -0.05571169693 -9.763948728e-17)
(1.191330642 -0.03072551804 4.640656332e-17)
(1.015081987 -0.03498860815 -6.332234088e-17)
(1.122163553 -0.002536324094 9.302719678e-17)
(0.9292871955 -0.01104874646 -9.197596372e-17)
(2.051330457 -0.2748984641 1.594712121e-17)
(1.394845937 -0.1783177849 -2.262151889e-17)
(1.688152573 -0.1499500926 -4.983691818e-17)
(1.191498321 -0.09106449616 -4.602564212e-17)
(1.456168711 -0.0846296815 -2.408009222e-17)
(1.119948218 -0.05407260923 -1.680440921e-17)
(1.302594023 -0.04504293634 -1.259670193e-17)
(1.076438809 -0.03572076142 -2.776622377e-17)
(1.196003742 -0.01815063467 3.040374185e-17)
(1.023146495 -0.02395120227 -3.198932638e-17)
(1.120935594 0.0008915380119 3.246091281e-17)
(0.9325804133 -0.01067611231 -3.530232739e-17)
(2.092927427 -0.09264508767 -1.184719647e-17)
(1.4217685 -0.06091319751 6.076547694e-18)
(1.711054462 -0.05008849942 4.883925806e-17)
(1.205233208 -0.03100776326 7.699369276e-18)
(1.469097923 -0.02786862987 5.55932414e-17)
(1.128158924 -0.01839328637 -2.880010301e-17)
(1.309259235 -0.01423422945 6.026708222e-17)
(1.081925079 -0.01263861215 -3.711003045e-17)
(1.198482571 -0.004588669444 2.939658209e-17)
(1.026636259 -0.009581558894 -3.553029833e-17)
(1.120956488 0.002494833111 4.242284608e-17)
(0.9338094245 -0.005866765411 -4.94083988e-17)
(2.092906141 0.09448692563 3.247139022e-18)
(1.421782681 0.05933968105 -2.180486266e-17)
(1.711138716 0.05169568233 -1.79799104e-17)
(1.205235856 0.02988756638 -3.704615391e-17)
(1.469111949 0.02923408471 -9.185093291e-18)
(1.128380253 0.01726286118 -3.332315379e-17)
(1.308908973 0.01625099203 -2.530317179e-18)
(1.0826846 0.01006160198 -2.785671723e-17)
(1.197463689 0.00901040066 1.792821689e-17)
(1.027947773 0.00348721847 -2.316523693e-17)
(1.119505258 0.005883902484 2.395938536e-17)
(0.9347528866 -0.004819553608 -2.577139816e-17)
(2.051271897 0.2766549345 1.204403046e-17)
(1.394834137 0.176800598 2.123273761e-17)
(1.688340523 0.1515104021 2.788727997e-17)
(1.191436807 0.08997409762 2.381709434e-17)
(1.456146963 0.08590203075 6.442417002e-17)
(1.120420475 0.05304799293 -2.001491875e-17)
(1.301605611 0.0467100791 8.772217822e-17)
(1.078171177 0.03352175845 -4.537042282e-17)
(1.19342605 0.0216639992 3.587759014e-17)
(1.026150668 0.01873451463 -4.878143405e-17)
(1.117389731 0.005941540594 5.723552822e-17)
(0.9354108581 0.001305601629 -8.498106835e-17)
(1.970105895 0.4451691582 -8.326561239e-18)
(1.342875319 0.2852603979 -4.0146839e-17)
(1.644342276 0.2432184514 -2.290383959e-17)
(1.165059945 0.1449113391 -6.783377126e-17)
(1.431351118 0.1373242603 -2.248995443e-17)
(1.104894549 0.08527683214 -6.133318317e-17)
(1.2880487 0.07399694099 -3.160553792e-17)
(1.06817621 0.05420810206 -4.700367304e-17)
(1.187201574 0.03355848627 2.295260411e-17)
(1.019923361 0.03085568477 -1.275295115e-18)
(1.116389394 0.008629333425 1.373552887e-18)
(0.933838864 0.002634775843 -1.161105039e-18)
(1.853515404 0.5911682118 9.450089948e-17)
(1.267391618 0.3793809117 2.895676472e-17)
(1.580408956 0.3231183837 9.810736616e-17)
(1.126479515 0.1930222277 -2.23378909e-17)
(1.395126859 0.1826248757 1.660137371e-16)
(1.082337114 0.1140616962 -6.023926932e-17)
(1.268335924 0.09816422817 1.654007927e-16)
(1.054479439 0.07352893359 -7.659263555e-17)
(1.17763279 0.04305462705 8.947261352e-17)
(1.013023313 0.04412221676 -1.55086793e-16)
(1.112822652 0.007547084106 1.370445161e-16)
(0.9334859992 0.008535996619 -1.877233407e-16)
(1.707319789 0.7076957905 -1.807864758e-16)
(1.173683703 0.4546478923 -1.071049475e-17)
(1.501011297 0.3866544421 -9.169189828e-17)
(1.078887815 0.2311694256 1.738145691e-17)
(1.350408154 0.2182259055 -1.44991588e-16)
(1.05410838 0.1363960614 -3.337201848e-17)
(1.244320821 0.1168430269 -5.947115302e-17)
(1.035725668 0.08780206881 2.473761856e-17)
(1.16761052 0.05078982853 -9.555890982e-17)
(1.000482885 0.05252421699 2.033398423e-16)
(1.112750639 0.008702892286 -1.284811861e-16)
(0.9292452263 0.009872513445 1.173477257e-16)
(1.538879233 0.7886098941 1.263374372e-16)
(1.064662063 0.5066878351 -2.894777538e-17)
(1.408690785 0.4307600141 1.100423923e-16)
(1.023234004 0.2577020068 -1.088494266e-16)
(1.298170956 0.2431923907 2.311919353e-16)
(1.02142557 0.1523743432 -7.59802861e-17)
(1.216129035 0.1301397163 1.598464728e-16)
(1.015361203 0.09889357127 -4.150398959e-17)
(1.15446608 0.0557833834 1.337449255e-16)
(0.9894715719 0.06078218296 -3.532486722e-16)
(1.108497485 0.007292230059 3.568885583e-16)
(0.9282620234 0.01445498969 -3.131067685e-16)
(1.35663955 0.8300919389 2.537292891e-17)
(0.9476962783 0.533881311 -3.340222303e-17)
(1.309554791 0.4535478408 1.003234356e-16)
(0.963795944 0.2715233793 9.929006184e-17)
(1.242279826 0.2559147613 -1.813358997e-16)
(0.9861501737 0.1603964264 3.544273596e-17)
(1.186225301 0.136583684 -1.179137296e-16)
(0.9919172664 0.103865127 6.323225224e-17)
(1.142281767 0.05824587559 -1.231434018e-16)
(0.973606471 0.06334061867 3.42114617e-16)
(1.10915872 0.00786967961 -3.253456343e-16)
(0.9217393021 0.01409396971 2.151956771e-16)
(1.169711446 0.8298886675 -9.43848071e-17)
(0.8267867267 0.5334959179 6.591172707e-17)
(1.207229492 0.453111099 -3.432911018e-16)
(0.9021700102 0.2712340528 1.137270229e-16)
(1.184521614 0.2555630685 -1.465737205e-16)
(0.9498706386 0.1604435119 1.448726749e-16)
(1.155390421 0.1361702484 -1.73459965e-16)
(0.9688273089 0.1046576006 5.116701862e-17)
(1.128743927 0.05704865778 4.678009763e-17)
(0.960272033 0.06541973177 -2.833266021e-16)
(1.106043386 0.004985539602 2.659548379e-16)
(0.9199146515 0.01740714451 -1.667470982e-16)
(0.9875372377 0.7881298137 -1.124198274e-17)
(0.7096902037 0.5072057977 3.003798657e-17)
(1.107942157 0.4305913756 4.816464015e-16)
(0.8425665747 0.2579402555 -2.123375921e-16)
(1.128452586 0.2428329016 3.934924601e-16)
(0.9143766541 0.152446717 -2.429120789e-16)
(1.125410373 0.1291973063 2.51106488e-16)
(0.9451166292 0.0990296903 -8.394326344e-17)
(1.116515182 0.05430234424 -6.95762174e-17)
(0.9442339713 0.06091900079 3.55695381e-16)
(1.106464672 0.006004139547 -3.179169961e-16)
(0.9133064952 0.01462126092 3.467789876e-16)
(0.8191320534 0.7068369857 -1.044481783e-16)
(0.6008783968 0.4544855504 2.985496969e-17)
(1.015946148 0.3857427752 -6.566462901e-16)
(0.7872396748 0.2309437244 1.695035584e-16)
(1.076715752 0.2173278625 -4.844775676e-16)
(0.8818216724 0.1366349681 4.355687786e-16)
(1.098096812 0.1152959871 -3.817718044e-16)
(0.9241940225 0.08949898159 1.782206221e-16)
(1.105126788 0.04727078328 -3.962282732e-17)
(0.931742279 0.05657290534 3.994816147e-17)
(1.104831993 0.002349916556 -1.007629394e-16)
(0.9110239824 0.01565277752 3.184260623e-17)
(0.673108113 0.5901165423 -5.093632141e-17)
(0.5068594161 0.3798674974 4.774706028e-17)
(0.9361561209 0.3222976414 3.601590034e-16)
(0.7392519923 0.1930639891 1.762868545e-16)
(1.031542859 0.181568348 7.783725525e-17)
(0.8531086527 0.1139907924 -1.525907634e-17)
(1.073994241 0.09621051951 9.696792056e-17)
(0.9048450244 0.0740276182 2.521251464e-17)
(1.09554978 0.03968835654 -7.246417136e-17)
(0.9184496889 0.04569020803 -3.490726408e-19)
(1.105616074 0.002942840909 -2.764208068e-17)
(0.9053455205 0.01165684033 6.952841497e-17)
(0.5565596154 0.4438105848 2.087642037e-16)
(0.4316968138 0.2853074342 1.540979926e-18)
(0.8727131033 0.2419810642 -2.997081681e-16)
(0.701209507 0.1447750428 -9.353769432e-17)
(0.9960292078 0.1360831809 -2.647706293e-16)
(0.8308486012 0.08546503524 2.29978535e-16)
(1.055276031 0.07183981287 -4.153320945e-16)
(0.8906332545 0.05587481143 2.694216819e-16)
(1.087505898 0.02883589858 -1.263862667e-16)
(0.9102473452 0.03529071662 1.8941355e-16)
(1.103820505 0.0001928756743 -2.853847687e-16)
(0.9045477145 0.009860739819 2.774843758e-16)
(0.4756042975 0.2752382274 -1.170489616e-16)
(0.3794521063 0.1770968012 1.873823525e-17)
(0.82825265 0.150081786 1.195645384e-16)
(0.6744000967 0.0897631694 9.343418909e-17)
(0.9706926935 0.08424365008 1.052993888e-16)
(0.8147272254 0.05271689048 -2.82193277e-17)
(1.041742237 0.04420488682 7.65335877e-17)
(0.8797478275 0.03396729195 2.768955768e-17)
(1.082440999 0.01752567256 -1.070471192e-16)
(0.902473471 0.02070071343 5.075759828e-17)
(1.105300191 -5.336834502e-05 -4.867823913e-17)
(0.9001222414 0.005092459095 3.405531169e-17)
(0.433986762 0.09285882287 5.262901378e-17)
(0.3527678551 0.05949247521 2.762403984e-17)
(0.8058902555 0.05024000481 -1.337617607e-16)
(0.661131687 0.02981536835 4.452908427e-17)
(0.9584367004 0.02780146247 -1.123105475e-16)
(0.8071649233 0.0171633335 7.094813795e-17)
(1.035413622 0.01409877927 -3.561611943e-17)
(0.8750797931 0.01073079891 1.199196685e-18)
(1.079551855 0.004802882541 1.243644388e-17)
(0.9002557846 0.006223345571 1.972466076e-17)
(1.103875481 -0.001694116765 -3.747932184e-17)
(0.9014461015 0.001448876538 3.305767106e-17)
(0.4341308467 -0.09420172899 -3.778050271e-17)
(0.3527615224 -0.06088950413 -1.69551655e-17)
(0.8056502865 -0.05197767021 -1.497994482e-17)
(0.6608899661 -0.03146167098 -7.330369717e-19)
(0.9580110982 -0.02992483631 -3.829005732e-17)
(0.8068252953 -0.0191769784 -3.79322276e-17)
(1.035066203 -0.01669827641 -8.080099365e-17)
(0.8747141381 -0.01309411233 1.515034262e-17)
(1.079712687 -0.008148527742 -2.183139307e-17)
(0.8995178988 -0.008871189306 -2.984915122e-17)
(1.105166237 -0.002938149448 1.118644433e-17)
(0.8995279822 -0.003167118134 9.238739643e-18)
(0.4756930283 -0.276569702 -1.560395966e-17)
(0.3797400204 -0.1782092055 7.553212766e-17)
(0.8287256413 -0.1515729572 -7.183561808e-17)
(0.674948256 -0.09116275864 1.452683057e-16)
(0.9714118244 -0.08614636614 5.869080352e-17)
(0.8154890646 -0.05465234931 2.465729989e-17)
(1.042454042 -0.04664390231 2.284302003e-16)
(0.8807459584 -0.03664102045 -7.629350757e-17)
(1.082715643 -0.0204495508 4.655503479e-17)
(0.9040688733 -0.02423773443 -6.040584478e-17)
(1.104659065 -0.003515112955 1.205020921e-16)
(0.9026172412 -0.007694841126 -1.989504032e-16)
(0.5569160646 -0.4451034847 3.794932673e-17)
(0.4320943342 -0.2868788646 -1.1479056e-16)
(0.8728526774 -0.2438729536 -1.799231649e-17)
(0.7014175249 -0.1465574599 -2.001934071e-16)
(0.9960646545 -0.1383475993 -3.457506721e-17)
(0.8309992577 -0.08741697346 -1.593967121e-16)
(1.055403412 -0.07457482205 -1.16750008e-16)
(0.8907956011 -0.05775745463 -1.393049203e-16)
(1.088131929 -0.03258886939 8.307935138e-17)
(0.9101812113 -0.0369170315 -3.781635595e-17)
(1.105652587 -0.005722509446 2.732995245e-17)
(0.9034386054 -0.01069607066 1.263389646e-17)
(0.6734389338 -0.5913662096 1.294426845e-16)
(0.5072917201 -0.3806880869 8.730058665e-17)
(0.9367330282 -0.3235465013 1.682504855e-16)
(0.7399484896 -0.1942074199 4.188400437e-18)
(1.032436109 -0.1832542352 3.292227113e-16)
(0.8541401978 -0.1157354759 -1.122353155e-16)
(1.075078635 -0.09849361078 3.711675032e-16)
(0.9063484754 -0.07667443231 -1.898866649e-16)
(1.096432235 -0.04226328431 1.963155109e-16)
(0.9208042904 -0.04960904427 -3.310762862e-16)
(1.105847142 -0.00549587816 2.787803573e-16)
(0.9083068151 -0.01521654897 -4.217575052e-16)
(0.8196780605 -0.7080258952 -3.410306993e-16)
(0.6017240461 -0.4560482911 -4.476094834e-17)
(1.016554131 -0.3876058096 -1.852402995e-16)
(0.7879645447 -0.2326896358 -3.656059656e-17)
(1.077351513 -0.2195295193 -2.23652459e-16)
(0.8824678804 -0.1384347336 -1.157425879e-16)
(1.098920412 -0.1179537701 -8.51938042e-17)
(0.9247232911 -0.09102143517 -1.54983097e-17)
(1.106607034 -0.05107493325 -1.381329911e-16)
(0.9319895744 -0.05752374376 3.09332956e-16)
(1.107737756 -0.008213102916 -1.791705619e-16)
(0.9103816595 -0.01564814697 1.490783575e-16)
(0.988097191 -0.7892248131 2.219925262e-16)
(0.7101787725 -0.5078067393 -3.753442277e-17)
(1.108555007 -0.431660098 2.599390544e-16)
(0.8433196133 -0.258911703 -1.722156575e-16)
(1.129448276 -0.2443399049 4.202012301e-16)
(0.915543104 -0.1540304596 -1.592590576e-16)
(1.126837686 -0.1312857559 3.134419184e-16)
(0.946901032 -0.1015130189 -9.881868073e-17)
(1.117986922 -0.05656662274 2.16173948e-16)
(0.9471584369 -0.06476946524 -5.24211004e-16)
(1.10733035 -0.007853643192 5.345920669e-16)
(0.9170480402 -0.01875410054 -4.893715364e-16)
(1.170418208 -0.8309262394 -2.446795755e-17)
(0.8280240132 -0.53485124 -6.685384788e-17)
(1.208283329 -0.4547285782 2.472720058e-17)
(0.9033929734 -0.272742751 1.108222628e-16)
(1.185747659 -0.2574238475 -2.690642677e-16)
(0.9510194778 -0.1619848354 2.823764207e-17)
(1.15697591 -0.13836878 -1.520554552e-16)
(0.9696828812 -0.105951805 5.828451623e-17)
(1.131424538 -0.06025098561 -1.274170074e-16)
(0.9605273587 -0.06612119766 3.420234435e-16)
(1.110820708 -0.01020163119 -3.185878108e-16)
(0.9192342498 -0.01708026814 1.686133453e-16)
(1.357390642 -0.8309690244 -3.36625223e-17)
(0.9482320477 -0.5343572821 5.650842513e-17)
(1.310203916 -0.4545201143 -1.807704271e-16)
(0.9646344349 -0.2724147175 6.197314456e-17)
(1.243329449 -0.2573306287 -1.789712154e-17)
(0.9875440528 -0.1618644991 6.205204097e-17)
(1.187785933 -0.1385363356 -7.206542429e-17)
(0.9942121819 -0.1061188688 1.683071501e-18)
(1.143902712 -0.06037850075 8.264156548e-17)
(0.9773551284 -0.06676900366 -3.222060742e-16)
(1.110272319 -0.009586676328 3.035647707e-16)
(0.9260362731 -0.01801771591 -2.332472426e-16)
(1.53970901 -0.7894598273 -1.054286687e-17)
(1.066139283 -0.5076740304 2.240465313e-18)
(1.410063124 -0.4319661794 3.117622499e-16)
(1.024821459 -0.258768917 -1.757143413e-16)
(1.299824199 -0.2445572905 2.561485401e-16)
(1.022989112 -0.1534209232 -1.963021493e-16)
(1.218226366 -0.131831633 1.690892963e-16)
(1.016583198 -0.09969410338 -7.478385114e-17)
(1.157804404 -0.05840425042 -4.889603725e-17)
(0.9900724598 -0.06110742535 2.514818878e-16)
(1.114086406 -0.01155599132 -2.231221979e-16)
(0.9283844404 -0.01429712734 2.37090524e-16)
(1.708205242 -0.7083107288 -6.892059604e-17)
(1.174321039 -0.4550602763 2.508435149e-17)
(1.501777215 -0.3875724775 -3.58130782e-16)
(1.079874227 -0.2320053483 1.077275017e-16)
(1.351621061 -0.2195688424 -2.390605473e-16)
(1.055716349 -0.1376915553 2.306676957e-16)
(1.246174646 -0.1185500668 -1.797863688e-16)
(1.038331757 -0.08970026062 7.202374466e-17)
(1.169742202 -0.05238230706 -9.759532482e-19)
(1.004586813 -0.05553367834 5.151244898e-19)
(1.114740006 -0.009436675168 -2.667069365e-17)
(0.9336396496 -0.01391467939 1.360642975e-18)
(1.854426168 -0.5918041013 1.043003577e-17)
(1.268900877 -0.3799292853 2.263114178e-17)
(1.581917292 -0.3238276627 1.833032722e-16)
(1.128221131 -0.193569098 5.030216906e-17)
(1.397020736 -0.1833836934 5.663523342e-17)
(1.084164231 -0.1146102596 -1.963090423e-17)
(1.270759194 -0.09918532692 5.867614806e-17)
(1.056127332 -0.07402508386 1.819321095e-18)
(1.181190308 -0.04481916718 -2.23067394e-17)
(1.014446374 -0.04436825077 2.190059315e-17)
(1.118236284 -0.01060346978 -2.928085901e-17)
(0.9350483701 -0.008304684664 5.589214108e-17)
(1.971056181 -0.4455076877 4.710057558e-17)
(1.343697286 -0.2856022175 1.452701508e-18)
(1.645318527 -0.244035992 -1.457075673e-16)
(1.166274288 -0.145654181 -9.462261894e-18)
(1.432814167 -0.1384797829 -1.201683531e-16)
(1.106688203 -0.08636993385 1.006541053e-16)
(1.290223387 -0.07521168744 -1.542966521e-16)
(1.070810859 -0.05576028386 1.001479265e-16)
(1.189925064 -0.03422173121 -4.90145422e-17)
(1.023847865 -0.03344870512 6.661232836e-17)
(1.119392612 -0.007974613066 -9.667077919e-17)
(0.9383937881 -0.006750559728 9.635895344e-17)
(2.052217219 -0.2770615967 -1.578041483e-17)
(1.396181305 -0.1769508868 2.278770468e-17)
(1.689788059 -0.1517477137 5.050554684e-17)
(1.193149468 -0.09004063859 4.608467869e-17)
(1.458041916 -0.08603703225 2.454638025e-17)
(1.122473252 -0.05315574566 1.650310935e-17)
(1.30405502 -0.0468809903 1.262313086e-17)
(1.080531595 -0.03383010818 2.77066846e-17)
(1.196740641 -0.02211029924 -3.0783407e-17)
(1.028913788 -0.01908612424 3.212786344e-17)
(1.122097558 -0.007132030526 -3.275631542e-17)
(0.9384114458 -0.001002743023 3.543239575e-17)
(2.093852547 -0.09457058014 1.176463025e-17)
(1.422841586 -0.05952623626 -5.848936699e-18)
(1.71236302 -0.05230355763 -4.95385939e-17)
(1.206744581 -0.03040488188 -7.161110903e-18)
(1.470806004 -0.03007934845 -5.624198171e-17)
(1.130440815 -0.01802411164 2.972889283e-17)
(1.311188934 -0.01696167764 -6.07141442e-17)
(1.085448392 -0.0111343869 3.796165987e-17)
(1.200382044 -0.009004617549 -2.980689162e-17)
(1.03168995 -0.005353213612 3.634053753e-17)
(1.12323231 -0.004473505875 -4.311542309e-17)
(0.9392976558 0.001467577442 5.032857363e-17)
(2.093858063 0.0924662018 -3.360214098e-18)
(1.422831053 0.06104505487 2.15280104e-17)
(1.712304667 0.05019397433 1.818979764e-17)
(1.206783373 0.03132378384 3.660935091e-17)
(1.470802049 0.02819836664 9.134981168e-18)
(1.130347255 0.01876313125 3.282149277e-17)
(1.311453442 0.01471791502 2.265442062e-18)
(1.085010647 0.01286384848 2.751785295e-17)
(1.201124487 0.00514748805 -1.803047569e-17)
(1.030856619 0.009725239387 2.292476453e-17)
(1.124351693 -0.002137881085 -2.382213354e-17)
(0.9384987834 0.006492473774 2.568085429e-17)
(2.052219828 0.2750260107 -1.176740091e-17)
(1.396108886 0.178403931 -2.084815514e-17)
(1.689578864 0.1496785095 -2.762827196e-17)
(1.193258665 0.09094774416 -2.351070622e-17)
(1.45802151 0.08422108703 -6.360387179e-17)
(1.122253539 0.0538425374 1.988507641e-17)
(1.304833056 0.04483565718 -8.635566905e-17)
(1.079390178 0.03533272718 4.443422192e-17)
(1.19883014 0.018696799 -3.403206432e-17)
(1.026800062 0.02300250405 4.670816513e-17)
(1.125023522 0.001159242152 -5.45121081e-17)
(0.936803449 0.00850478253 8.152270789e-17)
(1.971036374 0.4436098782 7.921115914e-18)
(1.343638831 0.2869346676 3.953616562e-17)
(1.644993348 0.2420278246 2.261887152e-17)
(1.166473018 0.1465060713 6.703606938e-17)
(1.432771878 0.1367437761 2.200625826e-17)
(1.106329896 0.08689794934 6.061414707e-17)
(1.291417809 0.07349565751 3.12638231e-17)
(1.068959434 0.05675157319 4.646402413e-17)
(1.193211567 0.03167080722 -2.28093047e-17)
(1.020383144 0.03632369165 9.378151693e-19)
(1.124134813 0.003435533685 -1.101029299e-18)
(0.9355377727 0.01292689226 1.212946343e-18)
(1.854341204 0.5900900553 -9.389186907e-17)
(1.268828703 0.3810804597 -2.861694836e-17)
(1.581416597 0.3219240882 -9.697968202e-17)
(1.128485119 0.1943802829 2.226185745e-17)
(1.396908445 0.1818118471 -1.64078466e-16)
(1.083752305 0.115001576 5.926623131e-17)
(1.272238316 0.09796501476 -1.628041948e-16)
(1.05390431 0.07445255189 7.431014178e-17)
(1.185245256 0.04335707719 -8.608658272e-17)
(1.010374168 0.0461269862 1.509194245e-16)
(1.123879741 0.007604166851 -1.319019799e-16)
(0.9320845054 0.01335788029 1.811627242e-16)
(1.708014244 0.7068224693 1.801668355e-16)
(1.174347812 0.4560183425 1.00816016e-17)
(1.501158051 0.3857924519 9.083516054e-17)
(1.08025006 0.2327309153 -1.803473481e-17)
(1.351443479 0.2181515604 1.439896049e-16)
(1.055278737 0.1378307673 3.297901547e-17)
(1.247772776 0.1178800377 5.867389081e-17)
(1.035806848 0.08929642717 -2.480662568e-17)
(1.174241096 0.05234549216 9.523822549e-17)
(0.9999658762 0.05558015398 -2.028878729e-16)
(1.121065759 0.008824434165 1.278257282e-16)
(0.9303790372 0.01682316294 -1.161890404e-16)
(1.539355424 0.7882109928 -1.254834509e-16)
(1.066236547 0.5083820775 2.907470398e-17)
(1.409240599 0.43031887 -1.081873761e-16)
(1.025265613 0.2594194187 1.082524983e-16)
(1.29950091 0.2433398323 -2.285729953e-16)
(1.022630002 0.1533971729 7.442403548e-17)
(1.219741152 0.1317466372 -1.568284462e-16)
(1.01423879 0.09867274816 3.88608164e-17)
(1.16213546 0.05961694298 -1.302921892e-16)
(0.9859288515 0.05993695971 3.491241765e-16)
(1.11988858 0.01267947284 -3.521590804e-16)
(0.9260724982 0.01592625694 3.074061159e-16)
(1.356839232 0.8299570115 -2.616127972e-17)
(0.948517038 0.5348686422 3.294810944e-17)
(1.30925245 0.4530495593 -1.017014079e-16)
(0.9652028589 0.2729781122 -9.954591701e-17)
(1.242874665 0.2563105007 1.799034177e-16)
(0.9872920396 0.1615936888 -3.540153541e-17)
(1.189050345 0.1389976553 1.170570852e-16)
(0.9920723118 0.1042731965 -6.325986347e-17)
(1.147774311 0.06296446252 1.231519963e-16)
(0.9736348624 0.06389378191 -3.423053125e-16)
(1.115425454 0.01302888207 3.257548453e-16)
(0.9244986766 0.01758517161 -2.155976132e-16)
(1.169616484 0.8301349866 9.527403399e-17)
(0.8284705978 0.5351125111 -6.597199616e-17)
(1.207121931 0.4533847423 3.455524682e-16)
(0.9040433276 0.2732073007 -1.147329917e-16)
(1.185088848 0.2565706319 1.495587689e-16)
(0.950977832 0.1616083659 -1.468486732e-16)
(1.157792654 0.1392629121 1.763575495e-16)
(0.9682405386 0.1037540782 -5.348528323e-17)
(1.134192646 0.0637259716 -4.428002463e-17)
(0.9582912996 0.06251131697 2.807276435e-16)
(1.114042416 0.01487436778 -2.632331833e-16)
(0.9196662652 0.01581411141 1.638285894e-16)
(0.9870437888 0.7886118027 1.054483459e-17)
(0.7108611587 0.5079229438 -3.03931581e-17)
(1.107253629 0.4305230394 -4.83123815e-16)
(0.8440790309 0.2593084281 2.122857113e-16)
(1.128599342 0.2436717915 -3.949816729e-16)
(0.9156926756 0.1535366203 2.432362593e-16)
(1.127125491 0.1324610692 -2.518559923e-16)
(0.946051487 0.09892417097 8.375239809e-17)
(1.119631776 0.06070695008 7.023783334e-17)
(0.9460838257 0.06023875156 -3.568305402e-16)
(1.108965211 0.01383057462 3.195926143e-16)
(0.9189087563 0.01618375416 -3.490167813e-16)
(0.8183453617 0.7075536613 1.051777815e-16)
(0.6026229811 0.4559823089 -2.996701467e-17)
(1.015076857 0.3865736003 6.587723577e-16)
(0.7888155403 0.2329849869 -1.705769628e-16)
(1.076319319 0.2189494987 4.873229126e-16)
(0.8828727848 0.1379534141 -4.377802886e-16)
(1.098653459 0.1191936879 3.847196976e-16)
(0.924745251 0.08858130149 -1.808649754e-16)
(1.106819231 0.05519327877 4.228334092e-17)
(0.9327484701 0.05325395049 -4.279319682e-17)
(1.106912321 0.01403172242 1.038234117e-16)
(0.9146356255 0.01335680971 -3.505606922e-17)
(0.6718615683 0.5909818831 5.048729376e-17)
(0.5084175543 0.3805449811 -4.808432521e-17)
(0.9351096427 0.3227279291 -3.613022076e-16)
(0.7408626936 0.1944381903 -1.763696156e-16)
(1.031177502 0.1828212192 -7.898410468e-17)
(0.8547079106 0.1152786021 1.568811849e-17)
(1.074173907 0.09967598772 -9.753557781e-17)
(0.9070237654 0.07439210944 -2.510919427e-17)
(1.09525409 0.04615197457 7.283526773e-17)
(0.922928378 0.04548187802 -9.31809349e-20)
(1.102996232 0.01125647052 2.828259316e-17)
(0.9141475445 0.01278510675 -7.019133053e-17)
(0.5551297985 0.4447569925 -2.082904831e-16)
(0.4334122682 0.2866617179 -1.642345855e-18)
(0.8711292585 0.2431484485 3.012988454e-16)
(0.7024221384 0.1467123898 9.266711968e-17)
(0.9947065803 0.137943479 2.668674879e-16)
(0.8317962398 0.08711400842 -2.319427026e-16)
(1.054074608 0.07545045713 4.17572474e-16)
(0.8922125874 0.05617349769 -2.718814785e-16)
(1.085783916 0.03547844685 1.289460729e-16)
(0.9138328668 0.03413596895 -1.926423109e-16)
(1.100785438 0.009835157528 2.889623072e-16)
(0.9112133722 0.009609254404 -2.817633185e-16)
(0.4737140107 0.2762335145 1.168933805e-16)
(0.3812395842 0.1779682897 -1.888220474e-17)
(0.8268491909 0.1510410111 -1.202219459e-16)