/*--------------------------------*- C++ -*----------------------------------*\
| =========                 |                                                 |
| \\      /  F ield         | foam-extend: Open Source CFD                    |
|  \\    /   O peration     | Version:  3.0                                   |
|   \\  /    A nd           | Web:         http://www.extend-project.de       |
|    \\/     M anipulation  |                                                 |
\*---------------------------------------------------------------------------*/
FoamFile
{
    version     2.0;
    format      ascii;
    class       volScalarField;
    location    "7";
    object      p;
}
// * * * * * * * * * * * * * * * * * * * * * * * * * * * * * * * * * * * * * //

dimensions      [0 0 0 0 0 0 0];

internalField   nonuniform List<scalar> 
7680
(
-0.225756
-0.213826
-0.204951
-0.195579
-0.188745
-0.181266
-0.17595
-0.169911
-0.165752
-0.160833
-0.157572
-0.153541
-0.150986
-0.147665
-0.145671
-0.142924
-0.141374
-0.139091
-0.137891
-0.13598
-0.135051
-0.133436
-0.132706
-0.13132
-0.130726
-0.129505
-0.128987
-0.127873
-0.127371
-0.126306
-0.125762
-0.124686
-0.124037
-0.122889
-0.122068
-0.120782
-0.119716
-0.118221
-0.116827
-0.115044
-0.225556
-0.213636
-0.204768
-0.195404
-0.188577
-0.181104
-0.175792
-0.169759
-0.165602
-0.160688
-0.157429
-0.153401
-0.150849
-0.147531
-0.145538
-0.142793
-0.141244
-0.138962
-0.137763
-0.135855
-0.134925
-0.133312
-0.132582
-0.131197
-0.130603
-0.129384
-0.128866
-0.127753
-0.127252
-0.126187
-0.125643
-0.124569
-0.12392
-0.122773
-0.121952
-0.120668
-0.119602
-0.118108
-0.116716
-0.114933
-0.225039
-0.213148
-0.204301
-0.19496
-0.188149
-0.180694
-0.175395
-0.169376
-0.16523
-0.160328
-0.157077
-0.153059
-0.150513
-0.147203
-0.145216
-0.142477
-0.140933
-0.138657
-0.137461
-0.135557
-0.13463
-0.133021
-0.132294
-0.130912
-0.13032
-0.129103
-0.128587
-0.127476
-0.126976
-0.125914
-0.125372
-0.124299
-0.123652
-0.122508
-0.121689
-0.120407
-0.119344
-0.117853
-0.116463
-0.114684
-0.224356
-0.2125
-0.20368
-0.194367
-0.187576
-0.180144
-0.174861
-0.16886
-0.164726
-0.159838
-0.156597
-0.152591
-0.150053
-0.146753
-0.144771
-0.142041
-0.140501
-0.138231
-0.137039
-0.13514
-0.134216
-0.132612
-0.131886
-0.130508
-0.129918
-0.128705
-0.12819
-0.127083
-0.126584
-0.125526
-0.124984
-0.123916
-0.12327
-0.122129
-0.121312
-0.120035
-0.118974
-0.117487
-0.116101
-0.114328
-0.223359
-0.211558
-0.202778
-0.193507
-0.186747
-0.179348
-0.174089
-0.168116
-0.164001
-0.159136
-0.15591
-0.151922
-0.149396
-0.146111
-0.144139
-0.141421
-0.139888
-0.137629
-0.136443
-0.134553
-0.133634
-0.132037
-0.131315
-0.129943
-0.129356
-0.128148
-0.127636
-0.126533
-0.126038
-0.124983
-0.124445
-0.12338
-0.122737
-0.121602
-0.120788
-0.119516
-0.11846
-0.11698
-0.1156
-0.113834
-0.222195
-0.210455
-0.20172
-0.192497
-0.185773
-0.178413
-0.173181
-0.167238
-0.163144
-0.158304
-0.155095
-0.151128
-0.148614
-0.145346
-0.143384
-0.14068
-0.139155
-0.136908
-0.135727
-0.133847
-0.132932
-0.131343
-0.130625
-0.129261
-0.128676
-0.127475
-0.126965
-0.125868
-0.125375
-0.124326
-0.12379
-0.122731
-0.122092
-0.120962
-0.120152
-0.118887
-0.117836
-0.116363
-0.11499
-0.113233
-0.220723
-0.209061
-0.200386
-0.191225
-0.184545
-0.177235
-0.172038
-0.166136
-0.16207
-0.157263
-0.154075
-0.150135
-0.147639
-0.144393
-0.142444
-0.139759
-0.138245
-0.136012
-0.13484
-0.132973
-0.132065
-0.130487
-0.129773
-0.128418
-0.127838
-0.126644
-0.126138
-0.125049
-0.124559
-0.123517
-0.122985
-0.121933
-0.121297
-0.120175
-0.119371
-0.118113
-0.117069
-0.115605
-0.114241
-0.112495
-0.219083
-0.207508
-0.198897
-0.189804
-0.183174
-0.175917
-0.170759
-0.1649
-0.160864
-0.156093
-0.152928
-0.149017
-0.146539
-0.143317
-0.141382
-0.138717
-0.137214
-0.134998
-0.133834
-0.131981
-0.131079
-0.129513
-0.128804
-0.127459
-0.126883
-0.125699
-0.125196
-0.124115
-0.123628
-0.122594
-0.122065
-0.121021
-0.12039
-0.119276
-0.118478
-0.117229
-0.116193
-0.11474
-0.113386
-0.111652
-0.217141
-0.20567
-0.197136
-0.188124
-0.181554
-0.174362
-0.169251
-0.163444
-0.159445
-0.154716
-0.151581
-0.147705
-0.145249
-0.142056
-0.140139
-0.137498
-0.136009
-0.133813
-0.13266
-0.130823
-0.12993
-0.128377
-0.127676
-0.126343
-0.125772
-0.124598
-0.1241
-0.123028
-0.122546
-0.121521
-0.120998
-0.119962
-0.119337
-0.118232
-0.117441
-0.116203
-0.115176
-0.113736
-0.112393
-0.110675
-0.215033
-0.203672
-0.195221
-0.186297
-0.17979
-0.172669
-0.167606
-0.161856
-0.157895
-0.153212
-0.150107
-0.146268
-0.143836
-0.140674
-0.138776
-0.13616
-0.134684
-0.13251
-0.131368
-0.129549
-0.128664
-0.127127
-0.126432
-0.125112
-0.124546
-0.123384
-0.12289
-0.121829
-0.121351
-0.120337
-0.119818
-0.118793
-0.118173
-0.117079
-0.116295
-0.115069
-0.114052
-0.112625
-0.111295
-0.109593
-0.212629
-0.201397
-0.193041
-0.184218
-0.177784
-0.170743
-0.165738
-0.160053
-0.156137
-0.151507
-0.148437
-0.144642
-0.142237
-0.139111
-0.137234
-0.134648
-0.13319
-0.13104
-0.129911
-0.128113
-0.127238
-0.125718
-0.125031
-0.123726
-0.123167
-0.122018
-0.12153
-0.120481
-0.120009
-0.119005
-0.118492
-0.117478
-0.116865
-0.115783
-0.115008
-0.113796
-0.112789
-0.111378
-0.110063
-0.108379
-0.210062
-0.198965
-0.19071
-0.181993
-0.175637
-0.168681
-0.163736
-0.158119
-0.15425
-0.149676
-0.146642
-0.142893
-0.140517
-0.137429
-0.135574
-0.133019
-0.131578
-0.129454
-0.128339
-0.126562
-0.125698
-0.124196
-0.123517
-0.122228
-0.121675
-0.12054
-0.120058
-0.119021
-0.118555
-0.117563
-0.117056
-0.116055
-0.115449
-0.11438
-0.113614
-0.112416
-0.111422
-0.110027
-0.108727
-0.107064
-0.207207
-0.196262
-0.18812
-0.179522
-0.173253
-0.166392
-0.161515
-0.155976
-0.15216
-0.147648
-0.144657
-0.140959
-0.138616
-0.13557
-0.133741
-0.131221
-0.1298
-0.127706
-0.126606
-0.124853
-0.124001
-0.12252
-0.121851
-0.120579
-0.120034
-0.118914
-0.118439
-0.117416
-0.116956
-0.115978
-0.115478
-0.11449
-0.113892
-0.112838
-0.112082
-0.1109
-0.109919
-0.108543
-0.10726
-0.105619
-0.204191
-0.193406
-0.185382
-0.176909
-0.170731
-0.16397
-0.159164
-0.153705
-0.149944
-0.145498
-0.14255
-0.138905
-0.136596
-0.133594
-0.131792
-0.129308
-0.127908
-0.125844
-0.12476
-0.123033
-0.122193
-0.120733
-0.120073
-0.11882
-0.118283
-0.11718
-0.116711
-0.115703
-0.11525
-0.114286
-0.113793
-0.112819
-0.11223
-0.111191
-0.110446
-0.109281
-0.108313
-0.106957
-0.105693
-0.104076
-0.200897
-0.190287
-0.182393
-0.174058
-0.16798
-0.161329
-0.156601
-0.15123
-0.147531
-0.143157
-0.140257
-0.136672
-0.134401
-0.131448
-0.129675
-0.127232
-0.125855
-0.123824
-0.122758
-0.121059
-0.120233
-0.118797
-0.118148
-0.116915
-0.116387
-0.115301
-0.11484
-0.113849
-0.113402
-0.112454
-0.111969
-0.11101
-0.110431
-0.109408
-0.108675
-0.107528
-0.106576
-0.105242
-0.103998
-0.102405
-0.197446
-0.187018
-0.17926
-0.171068
-0.165095
-0.158557
-0.15391
-0.148632
-0.144996
-0.140697
-0.137846
-0.134323
-0.13209
-0.129187
-0.127445
-0.125044
-0.12369
-0.121694
-0.120646
-0.118976
-0.118164
-0.116753
-0.116115
-0.114903
-0.114384
-0.113317
-0.112863
-0.111889
-0.11145
-0.110518
-0.110041
-0.109099
-0.10853
-0.107524
-0.106803
-0.105676
-0.10474
-0.103429
-0.102205
-0.10064
-0.193727
-0.183496
-0.175885
-0.167848
-0.161988
-0.155574
-0.151015
-0.145837
-0.14227
-0.138053
-0.135256
-0.1318
-0.12961
-0.126762
-0.125053
-0.122697
-0.121369
-0.119411
-0.118383
-0.116745
-0.115948
-0.114564
-0.113939
-0.11275
-0.11224
-0.111193
-0.110749
-0.109792
-0.109362
-0.108447
-0.107979
-0.107054
-0.106496
-0.105509
-0.104801
-0.103695
-0.102776
-0.101489
-0.100288
-0.098752
-0.189856
-0.179829
-0.17237
-0.164494
-0.158751
-0.152465
-0.147997
-0.142922
-0.139426
-0.135293
-0.132552
-0.129164
-0.127018
-0.124227
-0.122552
-0.120243
-0.118941
-0.117022
-0.116015
-0.114409
-0.113628
-0.112272
-0.111658
-0.110493
-0.109994
-0.108968
-0.108532
-0.107595
-0.107173
-0.106276
-0.105817
-0.104911
-0.104363
-0.103396
-0.102702
-0.101618
-0.100717
-0.0994553
-0.0982784
-0.0967723
-0.185727
-0.17592
-0.168623
-0.160919
-0.155302
-0.149153
-0.144783
-0.139819
-0.136399
-0.132357
-0.129676
-0.126362
-0.124263
-0.121533
-0.119895
-0.117637
-0.116364
-0.114487
-0.113501
-0.111931
-0.111167
-0.10984
-0.10924
-0.1081
-0.107612
-0.106608
-0.106182
-0.105265
-0.104852
-0.103975
-0.103526
-0.102639
-0.102103
-0.101156
-0.100478
-0.0994164
-0.0985351
-0.0972999
-0.0961481
-0.0946742
-0.181453
-0.171871
-0.164743
-0.157215
-0.151727
-0.14572
-0.14145
-0.1366
-0.133259
-0.129309
-0.12669
-0.123452
-0.121401
-0.118734
-0.117133
-0.114927
-0.113683
-0.111849
-0.110886
-0.109352
-0.108605
-0.107309
-0.106723
-0.105609
-0.105132
-0.104151
-0.103734
-0.102839
-0.102435
-0.101578
-0.101139
-0.100273
-0.0997487
-0.0988237
-0.0981604
-0.0971234
-0.096262
-0.0950548
-0.0939291
-0.0924886
-0.176932
-0.16759
-0.16064
-0.153301
-0.14795
-0.142093
-0.13793
-0.133201
-0.129944
-0.126093
-0.12354
-0.120383
-0.118383
-0.115783
-0.114222
-0.112071
-0.110859
-0.109071
-0.108132
-0.106636
-0.105909
-0.104644
-0.104073
-0.102987
-0.102522
-0.101565
-0.101159
-0.100286
-0.0998922
-0.099056
-0.0986281
-0.097783
-0.0972718
-0.0963694
-0.0957224
-0.0947107
-0.0938704
-0.0926928
-0.0915946
-0.0901894
-0.172272
-0.163176
-0.156409
-0.149264
-0.144053
-0.138351
-0.134297
-0.129693
-0.126521
-0.122771
-0.120285
-0.117211
-0.115264
-0.112732
-0.111212
-0.109118
-0.107937
-0.106196
-0.105281
-0.103825
-0.103116
-0.101886
-0.101329
-0.100272
-0.0998187
-0.0988874
-0.0984917
-0.0976412
-0.0972577
-0.0964436
-0.0960267
-0.0952038
-0.0947057
-0.093827
-0.0931966
-0.0922113
-0.0913927
-0.0902457
-0.0891759
-0.0878071
-0.167378
-0.158542
-0.151967
-0.145026
-0.139964
-0.134424
-0.130486
-0.126013
-0.122932
-0.119289
-0.116874
-0.113888
-0.111996
-0.109536
-0.10806
-0.106025
-0.104878
-0.103187
-0.102299
-0.100884
-0.100196
-0.0989998
-0.0984594
-0.0974319
-0.0969919
-0.0960868
-0.0957025
-0.0948757
-0.0945032
-0.0937118
-0.0933067
-0.0925068
-0.0920227
-0.0911684
-0.0905557
-0.0895978
-0.0888021
-0.087687
-0.0866472
-0.0853166
-0.162354
-0.153783
-0.147406
-0.140672
-0.135762
-0.130389
-0.126569
-0.12223
-0.119241
-0.115707
-0.113364
-0.110467
-0.108632
-0.106246
-0.104814
-0.10284
-0.101728
-0.100087
-0.0992254
-0.0978529
-0.0971851
-0.0960251
-0.0955006
-0.0945041
-0.094077
-0.0931991
-0.092826
-0.0920242
-0.0916626
-0.0908949
-0.0905016
-0.0897257
-0.0892557
-0.0884269
-0.0878321
-0.0869027
-0.0861304
-0.0850483
-0.0840391
-0.0827477
-0.157108
-0.148814
-0.142644
-0.136129
-0.131378
-0.126179
-0.122483
-0.118284
-0.115393
-0.111973
-0.109706
-0.106904
-0.105129
-0.10282
-0.101434
-0.0995245
-0.0984479
-0.0968604
-0.096027
-0.0946988
-0.0940528
-0.0929302
-0.0924229
-0.0914583
-0.0910452
-0.0901954
-0.0898345
-0.0890582
-0.0887083
-0.087965
-0.0875844
-0.0868329
-0.0863781
-0.0855754
-0.0849996
-0.0840996
-0.0833519
-0.0823041
-0.0813269
-0.0800765
-0.151741
-0.143731
-0.137771
-0.131478
-0.12689
-0.121868
-0.118298
-0.114243
-0.111449
-0.108147
-0.105957
-0.10325
-0.101535
-0.0993052
-0.0979667
-0.096122
-0.095082
-0.0935487
-0.0927435
-0.0914607
-0.0908366
-0.0897523
-0.0892621
-0.0883306
-0.0879313
-0.0871106
-0.0867616
-0.0860119
-0.0856736
-0.0849557
-0.0845876
-0.0838618
-0.083422
-0.0826466
-0.0820899
-0.0812203
-0.0804975
-0.079485
-0.0785405
-0.0773321
-0.146165
-0.13845
-0.13271
-0.126649
-0.122229
-0.117392
-0.113954
-0.110049
-0.107358
-0.104178
-0.102069
-0.0994615
-0.0978099
-0.0956623
-0.0943733
-0.0925965
-0.091595
-0.0901181
-0.0893427
-0.088107
-0.087506
-0.0864615
-0.0859894
-0.0850919
-0.0847074
-0.0839165
-0.0835805
-0.0828579
-0.082532
-0.08184
-0.0814855
-0.0807857
-0.0803619
-0.0796144
-0.0790779
-0.0782395
-0.0775429
-0.0765668
-0.0756564
-0.0744915
-0.140478
-0.133063
-0.127546
-0.121721
-0.117473
-0.112824
-0.10952
-0.105766
-0.10318
-0.100123
-0.0980957
-0.0955897
-0.0940022
-0.0919379
-0.0906989
-0.0889911
-0.0880284
-0.0866089
-0.0858635
-0.0846758
-0.084098
-0.0830941
-0.0826402
-0.0817776
-0.0814078
-0.0806477
-0.0803244
-0.0796299
-0.0793163
-0.0786512
-0.07831
-0.0776373
-0.0772294
-0.0765107
-0.0759945
-0.0751883
-0.0745181
-0.0735794
-0.0727036
-0.0715833
-0.134596
-0.127492
-0.122207
-0.116626
-0.112557
-0.108103
-0.104937
-0.101341
-0.0988639
-0.095935
-0.0939931
-0.0915924
-0.0900717
-0.0880941
-0.0869071
-0.085271
-0.0843488
-0.0829888
-0.0822748
-0.0811368
-0.0805833
-0.0796213
-0.0791865
-0.0783598
-0.0780056
-0.077277
-0.0769673
-0.0763014
-0.0760009
-0.0753631
-0.0750361
-0.074391
-0.0740001
-0.0733108
-0.0728158
-0.0720427
-0.0714
-0.0704997
-0.0696599
-0.0685856
-0.128613
-0.121825
-0.116775
-0.111442
-0.107553
-0.103297
-0.100272
-0.0968355
-0.0944683
-0.0916694
-0.0898136
-0.0875193
-0.086066
-0.0841761
-0.0830418
-0.0814783
-0.0805968
-0.0792972
-0.0786148
-0.0775274
-0.0769982
-0.076079
-0.0756632
-0.0748733
-0.0745344
-0.0738382
-0.0735419
-0.0729056
-0.072618
-0.0720084
-0.0716954
-0.0710788
-0.0707046
-0.0700455
-0.0695719
-0.0688326
-0.0682177
-0.0673567
-0.0665534
-0.0655258
-0.12245
-0.115988
-0.11118
-0.106103
-0.102402
-0.0983502
-0.0954701
-0.0921987
-0.0899453
-0.0872808
-0.0855142
-0.0833302
-0.0819468
-0.0801477
-0.0790679
-0.0775794
-0.0767404
-0.0755031
-0.0748535
-0.0738181
-0.0733145
-0.0724391
-0.0720433
-0.071291
-0.0709684
-0.0703052
-0.0700231
-0.0694168
-0.069143
-0.0685621
-0.0682639
-0.0676762
-0.0673197
-0.0666915
-0.0662402
-0.0655355
-0.0649495
-0.0641289
-0.0633632
-0.0623838
-0.116198
-0.110065
-0.105503
-0.100686
-0.0971726
-0.0933277
-0.0905946
-0.0874899
-0.0853514
-0.0828227
-0.0811461
-0.0790734
-0.0777604
-0.076053
-0.0750282
-0.0736156
-0.0728192
-0.071645
-0.0710284
-0.0700458
-0.0695676
-0.0687369
-0.0683611
-0.0676471
-0.0673407
-0.0667113
-0.0664431
-0.0658677
-0.0656073
-0.0650558
-0.0647723
-0.0642143
-0.0638753
-0.0632787
-0.0628497
-0.0621803
-0.0616234
-0.0608438
-0.0601162
-0.0591858
-0.109779
-0.103987
-0.0996768
-0.0951259
-0.0918075
-0.0881755
-0.0855936
-0.0826609
-0.0806407
-0.0782521
-0.0766683
-0.0747104
-0.0734701
-0.0718572
-0.0708891
-0.0695546
-0.0688024
-0.067693
-0.0671105
-0.0661821
-0.0657305
-0.0649454
-0.0645904
-0.0639156
-0.0636261
-0.063031
-0.0627777
-0.0622335
-0.0619875
-0.0614659
-0.0611978
-0.06067
-0.0603494
-0.059785
-0.0593792
-0.0587459
-0.058219
-0.0574814
-0.0567932
-0.0559128
-0.103284
-0.0978343
-0.0937794
-0.0894976
-0.0863753
-0.0829579
-0.0805286
-0.0777691
-0.0758683
-0.0736207
-0.0721305
-0.0702882
-0.069121
-0.0676034
-0.0666924
-0.0654368
-0.0647288
-0.063685
-0.0631368
-0.0622632
-0.061838
-0.0610994
-0.060765
-0.06013
-0.0598573
-0.0592973
-0.0590584
-0.0585463
-0.0583142
-0.0578232
-0.0575703
-0.0570732
-0.0567709
-0.0562393
-0.0558566
-0.0552599
-0.0547632
-0.0540683
-0.0534196
-0.0525901
-0.0966387
-0.0915399
-0.0877464
-0.0837406
-0.0808196
-0.0776226
-0.0753499
-0.0727684
-0.0709901
-0.0688874
-0.0674933
-0.0657697
-0.0646779
-0.063258
-0.0624058
-0.061231
-0.0605687
-0.059592
-0.0590791
-0.0582616
-0.0578638
-0.0571725
-0.0568597
-0.0562652
-0.05601
-0.0554856
-0.0552621
-0.0547824
-0.0545651
-0.054105
-0.0538682
-0.0534023
-0.053119
-0.0526208
-0.0522622
-0.0517029
-0.0512374
-0.0505859
-0.0499779
-0.0492004
-0.0899287
-0.0851839
-0.0816538
-0.077926
-0.0752076
-0.0722323
-0.0701173
-0.0677147
-0.0660597
-0.0641028
-0.0628052
-0.0612011
-0.0601849
-0.0588634
-0.0580701
-0.0569768
-0.0563603
-0.0554513
-0.0549738
-0.054213
-0.0538425
-0.053199
-0.0529076
-0.0523542
-0.0521163
-0.0516281
-0.0514195
-0.0509729
-0.05077
-0.0503415
-0.0501203
-0.0496862
-0.0494217
-0.0489573
-0.0486226
-0.0481012
-0.0476668
-0.0470594
-0.0464923
-0.0457673
-0.0830839
-0.078701
-0.0754398
-0.0719963
-0.0694851
-0.0667368
-0.0647829
-0.0625636
-0.0610347
-0.059227
-0.0580284
-0.0565465
-0.0556078
-0.054387
-0.0536543
-0.0526441
-0.0520746
-0.0512347
-0.0507936
-0.0500905
-0.0497483
-0.0491535
-0.0488843
-0.0483727
-0.0481528
-0.0477013
-0.0475085
-0.0470952
-0.0469076
-0.046511
-0.0463064
-0.0459045
-0.0456596
-0.0452296
-0.0449196
-0.0444367
-0.0440345
-0.0434719
-0.0429467
-0.0422752
-0.0761878
-0.0721686
-0.0691782
-0.0660203
-0.0637175
-0.0611969
-0.0594051
-0.0573697
-0.0559675
-0.0543096
-0.0532102
-0.0518511
-0.0509901
-0.0498705
-0.0491983
-0.0482719
-0.0477494
-0.0469791
-0.0465743
-0.0459295
-0.0456153
-0.0450697
-0.0448224
-0.044353
-0.0441509
-0.0437366
-0.0435592
-0.0431798
-0.043007
-0.0426428
-0.0424542
-0.042085
-0.0418594
-0.0414641
-0.0411787
-0.0407348
-0.0403645
-0.0398472
-0.039364
-0.0387465
-0.0691732
-0.0655246
-0.0628098
-0.0599431
-0.0578525
-0.0555645
-0.0539379
-0.0520902
-0.0508173
-0.0493122
-0.0483142
-0.0470804
-0.0462988
-0.0452822
-0.0446721
-0.0438309
-0.0433566
-0.042657
-0.0422896
-0.0417039
-0.0414186
-0.040923
-0.0406984
-0.0402718
-0.0400882
-0.0397115
-0.0395502
-0.0392051
-0.039048
-0.0387164
-0.0385448
-0.0382086
-0.0380032
-0.0376431
-0.0373831
-0.0369786
-0.0366413
-0.0361699
-0.0357296
-0.035167
-0.0621207
-0.058844
-0.0564061
-0.0538315
-0.051954
-0.049899
-0.048438
-0.0467784
-0.0456351
-0.0442831
-0.0433867
-0.0422784
-0.0415762
-0.0406631
-0.0401149
-0.0393593
-0.0389331
-0.0383047
-0.0379744
-0.0374482
-0.0371917
-0.0367464
-0.0365442
-0.0361608
-0.0359953
-0.0356566
-0.0355111
-0.0352006
-0.0350586
-0.0347601
-0.034605
-0.0343021
-0.0341164
-0.0337919
-0.033557
-0.0331923
-0.0328877
-0.0324626
-0.0320653
-0.0315579
-0.054966
-0.0520674
-0.0499105
-0.0476328
-0.0459717
-0.0441538
-0.0428612
-0.041393
-0.0403815
-0.0391855
-0.0383924
-0.0374118
-0.0367906
-0.0359827
-0.0354977
-0.034829
-0.0344519
-0.0338957
-0.0336034
-0.0331376
-0.0329105
-0.0325161
-0.0323371
-0.0319974
-0.0318507
-0.0315504
-0.0314214
-0.0311459
-0.0310198
-0.0307548
-0.0306169
-0.0303478
-0.0301826
-0.029894
-0.029685
-0.0293606
-0.0290896
-0.0287114
-0.0283579
-0.0279064
-0.0477874
-0.0452673
-0.0433922
-0.0414119
-0.0399677
-0.0383869
-0.037263
-0.0359862
-0.0351066
-0.0340664
-0.0333767
-0.0325239
-0.0319836
-0.0312809
-0.030859
-0.0302774
-0.0299493
-0.0294655
-0.029211
-0.0288057
-0.0286079
-0.0282646
-0.0281084
-0.0278126
-0.0276845
-0.0274228
-0.0273097
-0.0270694
-0.0269588
-0.0267274
-0.0266063
-0.0263711
-0.026226
-0.0259736
-0.0257901
-0.0255062
-0.0252685
-0.0249374
-0.0246277
-0.0242325
-0.0405233
-0.0383869
-0.036797
-0.0351181
-0.0338936
-0.0325534
-0.0316005
-0.030518
-0.0297722
-0.0288903
-0.0283054
-0.0275823
-0.0271242
-0.0265283
-0.0261704
-0.0256771
-0.0253988
-0.0249883
-0.0247725
-0.0244284
-0.0242605
-0.023969
-0.0238363
-0.0235848
-0.0234759
-0.0232531
-0.0231568
-0.0229521
-0.0228576
-0.0226602
-0.0225566
-0.0223556
-0.0222314
-0.0220156
-0.0218584
-0.0216154
-0.0214118
-0.0211283
-0.020863
-0.0205246
-0.0332494
-0.0314965
-0.0301922
-0.0288146
-0.0278098
-0.0267099
-0.0259279
-0.0250393
-0.0244272
-0.0237032
-0.0232231
-0.0226294
-0.0222532
-0.021764
-0.0214701
-0.021065
-0.0208363
-0.0204992
-0.0203216
-0.0200389
-0.0199006
-0.0196609
-0.0195513
-0.0193444
-0.0192541
-0.0190705
-0.0189904
-0.0188213
-0.0187425
-0.0185791
-0.0184925
-0.0183259
-0.018222
-0.0180428
-0.0179115
-0.0177096
-0.0175397
-0.017304
-0.0170831
-0.0168017
-0.0259068
-0.0245417
-0.0235255
-0.0224526
-0.0216698
-0.0208131
-0.0202039
-0.0195117
-0.0190348
-0.0184708
-0.0180966
-0.017634
-0.0173408
-0.0169595
-0.0167304
-0.0164145
-0.0162362
-0.0159731
-0.0158346
-0.0156138
-0.0155057
-0.0153183
-0.0152325
-0.0150704
-0.0149994
-0.0148553
-0.0147921
-0.014659
-0.0145965
-0.0144675
-0.0143986
-0.0142667
-0.0141839
-0.0140416
-0.0139369
-0.0137763
-0.013641
-0.0134534
-0.0132774
-0.0130534
-0.0185689
-0.0175907
-0.0168627
-0.0160936
-0.0155325
-0.0149182
-0.0144813
-0.0139848
-0.0136427
-0.013238
-0.0129695
-0.0126375
-0.012427
-0.0121532
-0.0119886
-0.0117617
-0.0116334
-0.0114443
-0.0113444
-0.0111855
-0.0111073
-0.0109721
-0.0109097
-0.0107924
-0.0107403
-0.0106356
-0.0105888
-0.0104916
-0.0104449
-0.0103503
-0.0102985
-0.0102012
-0.010139
-0.0100336
-0.00995509
-0.00983589
-0.00973461
-0.00959522
-0.00946399
-0.0092975
-0.0111791
-0.0105911
-0.0101531
-0.00969055
-0.00935285
-0.0089833
-0.00872025
-0.00842141
-0.00821531
-0.00797154
-0.00780972
-0.00760958
-0.00748261
-0.00731742
-0.00721801
-0.00708093
-0.00700329
-0.00688878
-0.00682811
-0.00673154
-0.00668376
-0.00660117
-0.00656265
-0.00649051
-0.00645794
-0.00639296
-0.00636315
-0.00630218
-0.00627196
-0.00621188
-0.006178
-0.00611557
-0.0060746
-0.00600644
-0.00595469
-0.00587714
-0.00581055
-0.00571962
-0.00563363
-0.00552496
-0.00380894
-0.00360944
-0.00346073
-0.00330338
-0.00318837
-0.00306222
-0.00297234
-0.00286997
-0.00279932
-0.00271554
-0.00265987
-0.00259086
-0.00254697
-0.00248978
-0.00245517
-0.00240743
-0.00238006
-0.0023398
-0.00231796
-0.0022835
-0.0022657
-0.00223558
-0.00222049
-0.00219337
-0.00217975
-0.00215438
-0.002141
-0.00211615
-0.00210177
-0.0020762
-0.00205953
-0.00203192
-0.00201159
-0.00198056
-0.00195506
-0.0019191
-0.00188678
-0.00184424
-0.00180324
-0.00175232
0.00359655
0.00340503
0.00326319
0.0031133
0.00300451
0.0028854
0.00280111
0.00270543
0.0026398
0.00256229
0.00251113
0.00244797
0.00240819
0.00235654
0.00232585
0.00228359
0.00226021
0.00222572
0.00220826
0.00218023
0.00216754
0.00214491
0.00213604
0.00211789
0.00211199
0.00209754
0.00209386
0.00208241
0.00208027
0.00207117
0.00206993
0.00206256
0.00206159
0.00205532
0.00205396
0.00204815
0.0020457
0.00203966
0.00203532
0.00202828
0.0109674
0.0103874
0.00995617
0.00950118
0.00916967
0.00880715
0.00854966
0.0082575
0.0080564
0.00781891
0.00766158
0.00746729
0.00734442
0.00718477
0.00708928
0.00695769
0.00688404
0.0067753
0.00671901
0.00662889
0.00658622
0.00651114
0.00647884
0.00641568
0.00639083
0.00633678
0.00631666
0.0062691
0.0062511
0.00620749
0.00618901
0.00614681
0.00612518
0.00608177
0.00605413
0.00600671
0.00596996
0.0059155
0.00586615
0.00580134
0.018357
0.0173868
0.0166657
0.0159041
0.0153493
0.014742
0.0143108
0.013821
0.013484
0.0130855
0.0128216
0.0124955
0.0122891
0.0120209
0.0118602
0.0116388
0.0115145
0.0113312
0.0112357
0.0110832
0.0110101
0.0108824
0.0108262
0.0107179
0.0106735
0.0105797
0.0105426
0.0104588
0.0104243
0.010346
0.0103097
0.0102326
0.0101897
0.010109
0.0100545
0.00996542
0.00989396
0.009791
0.00969639
0.00957373
0.0256968
0.0243398
0.0233306
0.0222652
0.0214886
0.020639
0.0200353
0.0193499
0.0188779
0.0183202
0.0179505
0.0174938
0.0172047
0.0168289
0.0166038
0.0162934
0.0161191
0.0158618
0.0157277
0.0155134
0.0154104
0.0152305
0.015151
0.0149978
0.0149346
0.0148014
0.0147479
0.0146281
0.0145778
0.0144652
0.0144117
0.0142998
0.0142363
0.0141187
0.014038
0.0139074
0.0138018
0.0136506
0.0135111
0.0133309
0.0330389
0.0312943
0.029997
0.028627
0.0276285
0.0265358
0.0257595
0.0248777
0.0242707
0.023553
0.0230775
0.0224897
0.0221177
0.0216341
0.0213442
0.0209446
0.02072
0.0203886
0.0202155
0.0199392
0.0198061
0.0195738
0.0194705
0.0192724
0.0191899
0.0190171
0.0189467
0.0187909
0.0187242
0.0185772
0.0185059
0.0183593
0.0182747
0.0181199
0.0180126
0.0178406
0.0177004
0.017501
0.0173165
0.0170788
0.0403162
0.0381881
0.0366051
0.034934
0.0337157
0.0323826
0.0314352
0.0303595
0.0296187
0.0287432
0.0281628
0.0274456
0.0269916
0.0264013
0.0260474
0.0255597
0.0252854
0.0248808
0.0246693
0.0243318
0.0241691
0.0238851
0.0237586
0.0235162
0.0234149
0.0232031
0.0231164
0.0229249
0.0228426
0.0226614
0.0225731
0.0223921
0.022287
0.0220955
0.0219622
0.021749
0.0215749
0.0213276
0.0210986
0.0208038
0.0475794
0.0450679
0.0432
0.0412274
0.0397896
0.038216
0.0370979
0.035828
0.0349536
0.0339198
0.0332347
0.0323879
0.0318519
0.0311548
0.0307369
0.0301609
0.0298369
0.0293589
0.029109
0.0287101
0.0285175
0.0281817
0.0280318
0.0277449
0.0276245
0.0273735
0.0272701
0.027043
0.0269444
0.0267292
0.0266233
0.0264079
0.0262818
0.0260537
0.025894
0.0256397
0.0254314
0.0251364
0.0248629
0.0245112
0.0547629
0.0518728
0.0497229
0.0474531
0.0457983
0.0439876
0.0427006
0.0412392
0.0402328
0.0390431
0.0382546
0.03728
0.0366629
0.0358607
0.0353797
0.0347166
0.0343436
0.0337934
0.0335056
0.0330463
0.0328244
0.0324376
0.0322649
0.0319341
0.0317952
0.0315057
0.0313863
0.0311239
0.0310099
0.030761
0.0306382
0.0303888
0.0302425
0.0299781
0.0297926
0.0294977
0.0292559
0.0289135
0.028596
0.0281879
0.0619162
0.0586485
0.056218
0.0536513
0.0517803
0.0497327
0.0482776
0.0466249
0.0454869
0.0441414
0.0432497
0.0421474
0.0414496
0.0405422
0.0399982
0.0392482
0.0388262
0.0382037
0.037878
0.0373583
0.037107
0.0366692
0.0364733
0.0360988
0.0359411
0.035613
0.0354771
0.0351796
0.0350496
0.0347671
0.034627
0.0343437
0.0341767
0.0338762
0.0336646
0.0333292
0.0330537
0.0326643
0.0323029
0.0318387
0.0689751
0.0653353
0.0626277
0.0597691
0.0576848
0.0554041
0.0537831
0.0519423
0.0506745
0.0491759
0.0481825
0.0469547
0.0461773
0.0451665
0.0445604
0.0437249
0.0432548
0.0425613
0.0421984
0.0416193
0.0413394
0.0408514
0.0406331
0.0402155
0.0400396
0.0396737
0.039522
0.0391899
0.0390447
0.0387291
0.0385723
0.0382556
0.0380687
0.0377325
0.0374956
0.0371202
0.0368116
0.0363757
0.0359709
0.0354512
0.0759878
0.0719779
0.0689952
0.0658454
0.0635493
0.0610363
0.0592504
0.057222
0.0558253
0.0541739
0.0530794
0.0517264
0.0508698
0.049756
0.0490881
0.0481674
0.0476492
0.0468849
0.0464848
0.0458465
0.0455378
0.0449997
0.0447588
0.0442983
0.0441039
0.0437002
0.0435324
0.0431659
0.0430049
0.0426564
0.0424826
0.0421326
0.0419255
0.0415537
0.0412913
0.0408761
0.0405344
0.0400523
0.0396044
0.0390297
0.0828918
0.078518
0.0752642
0.0718289
0.0693241
0.0665832
0.0646351
0.0624227
0.060899
0.0590978
0.0579038
0.0564281
0.0554937
0.0542788
0.0535502
0.0525459
0.0519807
0.0511469
0.0507105
0.0500141
0.0496773
0.0490902
0.0488274
0.0483248
0.0481127
0.0476719
0.0474886
0.0470883
0.0469124
0.0465315
0.0463415
0.0459588
0.0457321
0.0453254
0.0450381
0.0445837
0.0442096
0.0436819
0.0431916
0.0425624
0.089734
0.0849991
0.0814768
0.0777574
0.0750459
0.0720783
0.0699694
0.067574
0.0659244
0.0639742
0.0626815
0.0610836
0.060072
0.0587564
0.0579676
0.0568801
0.056268
0.0553651
0.0548925
0.0541383
0.0537734
0.0531375
0.0528526
0.0523081
0.052078
0.0516004
0.0514014
0.0509674
0.0507763
0.0503632
0.0501566
0.0497413
0.0494949
0.0490534
0.0487412
0.0482479
0.0478415
0.0472685
0.0467361
0.0460531
0.0964534
0.0913643
0.0875783
0.0835809
0.0806664
0.077477
0.07521
0.0726355
0.0708624
0.0687664
0.0673769
0.0656596
0.0645721
0.0631582
0.0623103
0.0611415
0.0604836
0.0595132
0.0590051
0.0581945
0.0578023
0.0571187
0.0568124
0.056227
0.0559796
0.055466
0.055252
0.0547851
0.0545794
0.0541348
0.0539124
0.0534652
0.0531997
0.0527242
0.0523877
0.0518562
0.0514182
0.0508007
0.0502268
0.0494909
0.103096
0.0976561
0.0936094
0.0893363
0.086221
0.0828115
0.0803884
0.0776362
0.0757409
0.0735001
0.0720149
0.0701789
0.0690165
0.0675049
0.0665985
0.0653488
0.0646455
0.063608
0.0630647
0.062198
0.0617785
0.0610476
0.0607199
0.0600938
0.059829
0.0592795
0.0590503
0.0585507
0.0583303
0.0578544
0.0576159
0.0571372
0.0568525
0.0563432
0.0559824
0.0554131
0.0549435
0.0542821
0.0536672
0.0528788
0.109602
0.103819
0.099517
0.0949747
0.0916628
0.0880385
0.0854624
0.0825369
0.0805219
0.07814
0.076561
0.0746094
0.0733736
0.0717668
0.0708031
0.0694748
0.0687271
0.0676242
0.0670467
0.0661253
0.0656794
0.0649023
0.0645539
0.0638883
0.0636067
0.0630225
0.0627786
0.0622473
0.0620128
0.0615064
0.0612525
0.0607429
0.0604397
0.0598974
0.059513
0.0589067
0.0584063
0.0577017
0.0570465
0.0562066
0.116016
0.109895
0.105341
0.100532
0.0970264
0.0931896
0.0904627
0.0873655
0.0852325
0.0827108
0.0810394
0.0789732
0.077665
0.0759638
0.0749436
0.0735372
0.0727457
0.0715779
0.0709665
0.0699909
0.0695186
0.0686958
0.0683268
0.0676219
0.0673235
0.0667047
0.0664462
0.0658833
0.0656346
0.065098
0.0648286
0.0642885
0.0639668
0.0633919
0.062984
0.062341
0.0618102
0.0610629
0.0603679
0.0594773
0.122281
0.115829
0.111029
0.105961
0.102266
0.0982226
0.0953484
0.0920842
0.089836
0.0871784
0.0854166
0.0832391
0.0818602
0.0800673
0.0789921
0.0775099
0.0766757
0.0754449
0.0748006
0.0737724
0.0732747
0.0724074
0.0720186
0.0712755
0.0709611
0.0703087
0.0700363
0.0694428
0.0691805
0.0686146
0.0683304
0.0677606
0.067421
0.0668143
0.0663837
0.0657048
0.0651443
0.0643553
0.0636213
0.0626809
0.128439
0.121662
0.116621
0.111297
0.107416
0.103168
0.100149
0.0967201
0.0943586
0.0915667
0.0897162
0.0874285
0.0859801
0.0840966
0.0829671
0.08141
0.0805336
0.0792406
0.0785636
0.0774834
0.0769604
0.0760493
0.0756406
0.0748599
0.0745294
0.0738438
0.0735573
0.0729336
0.0726577
0.0720629
0.0717639
0.0711647
0.0708074
0.0701693
0.0697161
0.069002
0.0684122
0.067582
0.0668097
0.0658202
0.134436
0.127343
0.122066
0.116494
0.112431
0.107985
0.104825
0.101237
0.0987648
0.0958427
0.0939057
0.0915115
0.0899955
0.0880242
0.086842
0.0852123
0.0842951
0.0829418
0.0822333
0.0811027
0.0805554
0.0796018
0.0791741
0.0783569
0.0780111
0.0772935
0.0769936
0.0763406
0.0760518
0.0754289
0.0751158
0.0744882
0.0741138
0.0734452
0.0729703
0.0722218
0.0716034
0.0707331
0.0699233
0.0688857
0.140312
0.132909
0.127401
0.121585
0.117345
0.112704
0.109406
0.10566
0.10308
0.10003
0.098008
0.0955087
0.0939263
0.0918685
0.0906345
0.0889332
0.0879758
0.0865631
0.0858234
0.0846432
0.0840718
0.0830762
0.0826297
0.0817766
0.0814154
0.0806662
0.080353
0.0796711
0.0793694
0.078719
0.0783918
0.0777363
0.0773451
0.0766466
0.0761501
0.0753679
0.0747214
0.0738116
0.072965
0.0718803
0.146015
0.138311
0.132579
0.126527
0.122114
0.117285
0.113853
0.109955
0.10727
0.104096
0.101992
0.0993912
0.0977444
0.0956032
0.0943191
0.0925488
0.0915525
0.0900825
0.0893128
0.0880847
0.0874902
0.0864542
0.0859896
0.0851019
0.0847261
0.0839464
0.0836205
0.0829109
0.082597
0.0819199
0.0815793
0.0808969
0.0804895
0.079762
0.0792448
0.0784299
0.0777562
0.076808
0.0759255
0.0747948
0.151584
0.143586
0.137635
0.131352
0.126771
0.121757
0.118194
0.114146
0.111359
0.108064
0.105879
0.103179
0.101469
0.0992459
0.0979127
0.0960746
0.0950401
0.0935137
0.0927146
0.0914394
0.090822
0.0897463
0.0892638
0.088342
0.0879517
0.0871421
0.0868037
0.0860667
0.0857407
0.0850375
0.0846838
0.083975
0.0835517
0.0827959
0.0822585
0.0814116
0.0807113
0.0797255
0.0788079