/*--------------------------------*- C++ -*----------------------------------*\
| =========                 |                                                 |
| \\      /  F ield         | foam-extend: Open Source CFD                    |
|  \\    /   O peration     | Version:  3.0                                   |
|   \\  /    A nd           | Web:         http://www.extend-project.de       |
|    \\/     M anipulation  |                                                 |
\*---------------------------------------------------------------------------*/
FoamFile
{
    version     2.0;
    format      ascii;
    class       volVectorField;
    location    "7";
    object      u;
}
// * * * * * * * * * * * * * * * * * * * * * * * * * * * * * * * * * * * * * //

dimensions      [0 0 0 0 0 0 0];

internalField   nonuniform List<vector> 
7680
(
(0.0880205 -0.0326341 8.37157e-18)
(0.187758 -0.0272271 1.67236e-17)
(0.304899 -0.024664 -4.39993e-19)
(0.377949 -0.0211415 1.18629e-18)
(0.463249 -0.0189703 3.18915e-18)
(0.516391 -0.0165266 8.51876e-18)
(0.581183 -0.0148095 1.84512e-18)
(0.620238 -0.0129676 -2.2318e-18)
(0.670783 -0.0116196 -5.214e-18)
(0.699845 -0.0101564 -4.32848e-18)
(0.74013 -0.00908131 1.24918e-18)
(0.761922 -0.00788689 2.19197e-18)
(0.794646 -0.00700757 -3.54159e-18)
(0.811006 -0.00602251 -4.99921e-18)
(0.838046 -0.005279 2.88457e-18)
(0.850245 -0.00446004 4.84189e-18)
(0.872937 -0.00381027 -6.68118e-18)
(0.881876 -0.0031211 8.24714e-18)
(0.901194 -0.00253826 2.59974e-18)
(0.907516 -0.00194919 -3.79312e-18)
(0.924188 -0.00141594 -6.43779e-19)
(0.928361 -0.000903786 -1.56603e-18)
(0.942934 -0.000407243 1.08442e-18)
(0.945301 4.56402e-05 7.70616e-18)
(0.958196 0.000516274 -9.42667e-18)
(0.959009 0.00092325 4.82795e-18)
(0.970554 0.00137723 2.51293e-18)
(0.969996 0.00174842 3.03962e-18)
(0.980453 0.00219345 -3.70023e-18)
(0.978655 0.0025365 1.26378e-19)
(0.988233 0.00297883 1.76883e-18)
(0.985286 0.00329948 -1.67155e-18)
(0.994155 0.00374516 -8.08247e-19)
(0.990118 0.00404323 -9.46521e-19)
(0.998427 0.00452186 2.48888e-18)
(0.993293 0.00469418 -6.86712e-19)
(1.00133 0.00560167 3.35558e-18)
(0.994506 0.00451248 -2.99869e-18)
(1.0041 0.00810745 -4.27968e-19)
(0.991866 0.00508917 -2.96447e-18)
(0.0924163 -0.0985025 -1.92777e-17)
(0.191273 -0.0825695 -3.02599e-17)
(0.308206 -0.075383 -1.57256e-17)
(0.380793 -0.0653319 1.24642e-17)
(0.46585 -0.0590441 -2.40649e-17)
(0.518668 -0.0520669 -4.95756e-18)
(0.58326 -0.047107 -6.00863e-18)
(0.622086 -0.0418459 1.20261e-17)
(0.672473 -0.0380015 2.52716e-17)
(0.701361 -0.0339066 1.89844e-17)
(0.74152 -0.0308733 -2.94204e-18)
(0.763174 -0.0276203 3.7314e-19)
(0.795791 -0.0251687 1.19159e-17)
(0.812039 -0.0225347 2.17344e-18)
(0.838984 -0.0205045 -1.20679e-17)
(0.851093 -0.0183389 -1.19099e-17)
(0.8737 -0.0166154 1.94626e-17)
(0.882566 -0.0148145 -2.81724e-17)
(0.901807 -0.0133142 1.70068e-17)
(0.908072 -0.011802 -1.75574e-17)
(0.924672 -0.0104641 1.2413e-17)
(0.9288 -0.00918184 -7.42021e-18)
(0.943307 -0.00796134 7.09433e-18)
(0.945637 -0.00686312 -2.93944e-17)
(0.958474 -0.00572539 2.22192e-17)
(0.959254 -0.00477508 -1.24668e-17)
(0.970748 -0.00369198 -7.36366e-19)
(0.970159 -0.00286103 -1.00829e-17)
(0.98057 -0.00180937 1.28243e-18)
(0.978743 -0.00107475 1.99311e-18)
(0.988278 -3.55744e-05 1.22525e-18)
(0.985304 0.000621176 5.02795e-18)
(0.99413 0.00166507 7.64007e-18)
(0.990069 0.00224867 -1.24024e-17)
(0.998332 0.00335901 4.06187e-18)
(0.993186 0.00367616 -1.22377e-17)
(1.00115 0.00558599 1.58419e-17)
(0.994401 0.00360421 -3.9897e-18)
(1.00372 0.0103676 -1.54941e-18)
(0.991775 0.00351333 2.07663e-17)
(0.100931 -0.163973 3.27876e-17)
(0.198588 -0.137837 1.60419e-17)
(0.314821 -0.125774 2.25855e-17)
(0.386554 -0.10919 5.98555e-19)
(0.47103 -0.0987893 2.37353e-17)
(0.52325 -0.0873118 -5.81179e-18)
(0.587397 -0.0791815 -6.57526e-18)
(0.625769 -0.0705607 -3.42833e-18)
(0.675823 -0.0642692 -5.29483e-17)
(0.704357 -0.0575565 -3.80135e-17)
(0.744258 -0.0525976 5.35974e-18)
(0.765632 -0.047264 -3.456e-18)
(0.798041 -0.0432655 -1.22335e-17)
(0.814068 -0.0389674 -6.57909e-18)
(0.84084 -0.0356631 3.18811e-17)
(0.852774 -0.0321579 3.85744e-17)
(0.875235 -0.0293589 -2.69258e-17)
(0.883959 -0.0264678 5.81164e-17)
(0.903077 -0.02404 -5.15558e-17)
(0.909225 -0.0216293 2.71272e-17)
(0.925719 -0.0194753 -1.71849e-17)
(0.929747 -0.0174441 2.22593e-17)
(0.944161 -0.0154904 -2.34063e-17)
(0.946405 -0.0137614 4.82032e-17)
(0.959156 -0.0119504 -1.68191e-17)
(0.959862 -0.0104642 3.00092e-17)
(0.971273 -0.00874959 -4.10252e-18)
(0.97062 -0.0074597 1.81138e-17)
(0.980949 -0.00580375 -8.84254e-19)
(0.979066 -0.00467405 -6.45218e-18)
(0.988519 -0.0030454 -4.68105e-18)
(0.985496 -0.00204791 1.83116e-18)
(0.99424 -0.000417527 1.76296e-18)
(0.990138 0.000455393 4.06261e-18)
(0.998313 0.00218303 -2.00084e-18)
(0.993146 0.00264911 -1.47537e-18)
(1.00096 0.00554529 3.53116e-18)
(0.994357 0.00268315 -5.38437e-18)
(1.0032 0.0125905 3.8809e-18)
(0.991788 0.00193384 -1.10088e-17)
(0.113879 -0.228694 -2.57903e-17)
(0.209326 -0.192277 -7.37632e-17)
(0.324666 -0.175598 6.81542e-17)
(0.395106 -0.152612 -1.03183e-16)
(0.478807 -0.138158 1.62035e-17)
(0.530145 -0.122232 1.44852e-17)
(0.59368 -0.11091 1.83302e-17)
(0.631386 -0.0989383 2.15089e-17)
(0.680957 -0.0901929 8.50401e-18)
(0.708972 -0.080898 3.09261e-17)
(0.748491 -0.0740168 2.0519e-17)
(0.769453 -0.0666606 -6.44549e-18)
(0.801557 -0.0611189 -1.27925e-18)
(0.81725 -0.0552012 2.62211e-17)
(0.843773 -0.0506338 -5.16818e-17)
(0.855434 -0.0458072 1.95441e-17)
(0.877684 -0.0419539 -3.30406e-17)
(0.886184 -0.037973 -4.24737e-17)
(0.905116 -0.0346436 6.25488e-17)
(0.911078 -0.0313284 -4.20603e-17)
(0.927405 -0.028383 2.00633e-17)
(0.931279 -0.0255967 -3.07935e-17)
(0.945539 -0.0229309 2.98915e-17)
(0.947654 -0.0205678 -2.9971e-17)
(0.960262 -0.0181009 -7.8249e-18)
(0.960859 -0.0160793 -2.45809e-17)
(0.972138 -0.0137464 -9.96063e-18)
(0.97139 -0.0120027 -3.01995e-18)
(0.981595 -0.00975078 -6.64914e-18)
(0.97963 -0.00823467 1.82205e-17)
(0.988962 -0.00601984 2.64641e-17)
(0.985868 -0.00469131 -2.09615e-17)
(0.994492 -0.00247368 -1.12273e-17)
(0.990328 -0.00132005 6.21095e-17)
(0.998376 0.00102763 -3.52977e-17)
(0.993176 0.00163604 1.3414e-17)
(1.00079 0.0055165 2.5187e-17)
(0.994372 0.00177811 -1.67428e-17)
(1.00253 0.0147962 6.39386e-18)
(0.991903 0.000369582 -3.28182e-18)
(0.130883 -0.29248 2.2399e-17)
(0.223757 -0.246058 2.52292e-17)
(0.337836 -0.224701 -1.70432e-16)
(0.406563 -0.195352 2.0491e-16)
(0.489157 -0.176903 -1.86201e-17)
(0.5393 -0.15659 -8.47276e-17)
(0.601975 -0.142179 -4.57082e-17)
(0.638792 -0.126926 -3.25101e-18)
(0.68771 -0.115794 4.98839e-18)
(0.715039 -0.103946 -1.31362e-18)
(0.754047 -0.095187 -3.27363e-17)
(0.774469 -0.0858043 -4.40382e-20)
(0.806159 -0.0787556 3.44232e-17)
(0.821423 -0.0712159 -4.04713e-17)
(0.847601 -0.0654085 4.38622e-17)
(0.858916 -0.0592744 -5.76462e-17)
(0.880875 -0.0543748 5.60418e-17)
(0.889092 -0.0493287 -4.89383e-18)
(0.907777 -0.0450975 -6.30383e-18)
(0.913504 -0.040904 1.26864e-18)
(0.929616 -0.0371653 3.59258e-17)
(0.933293 -0.0336474 5.52938e-17)
(0.947362 -0.0302684 -4.05407e-17)
(0.949311 -0.027291 1.14524e-17)
(0.961745 -0.0241684 3.4544e-17)
(0.962198 -0.0216267 3.19671e-17)
(0.973313 -0.0186783 -1.84425e-17)
(0.972442 -0.0164904 3.9818e-18)
(0.982487 -0.0136492 3.35043e-17)
(0.980416 -0.0117508 -2.75063e-17)
(0.98959 -0.00896144 -9.15337e-18)
(0.986404 -0.00730208 1.15715e-17)
(0.994868 -0.0045132 -4.4744e-17)
(0.990626 -0.00307739 2.64665e-17)
(0.998506 -0.000128709 -1.34669e-17)
(0.993267 0.000625605 -1.19387e-17)
(1.0006 0.00546632 -1.4564e-17)
(0.994445 0.000871828 -2.06467e-17)
(1.00172 0.0169496 9.52438e-18)
(0.99212 -0.00118182 2.78544e-17)
(0.152138 -0.354962 -5.37343e-18)
(0.241551 -0.298676 7.53744e-17)
(0.354089 -0.272804 1.7653e-16)
(0.420702 -0.237264 -1.66344e-16)
(0.501987 -0.214894 -7.45723e-18)
(0.550678 -0.190289 1.44233e-16)
(0.612328 -0.172801 8.11675e-17)
(0.648046 -0.154322 -2.5036e-18)
(0.696167 -0.140825 -4.28922e-17)
(0.72264 -0.126487 9.38499e-18)
(0.76102 -0.115875 1.13594e-16)
(0.780764 -0.104539 -2.20852e-17)
(0.811951 -0.096001 2.47709e-17)
(0.82667 -0.0868974 -8.51355e-18)
(0.852439 -0.0798704 -4.47153e-17)
(0.86331 -0.0724625 -1.72844e-17)
(0.884926 -0.0665441 7.01378e-17)
(0.892778 -0.060449 -4.15385e-17)
(0.911166 -0.0553459 3.67983e-17)
(0.916592 -0.0502827 -3.59199e-19)
(0.932439 -0.0457783 -2.79761e-17)
(0.935866 -0.0415343 -8.00152e-17)
(0.949694 -0.0374666 3.02943e-17)
(0.951432 -0.0338782 2.79317e-17)
(0.963641 -0.0301217 -6.93067e-17)
(0.963917 -0.0270627 8.44025e-18)
(0.974819 -0.0235174 2.10684e-18)
(0.973797 -0.0208896 -1.69237e-17)
(0.983639 -0.0174736 -1.45219e-17)
(0.981437 -0.0152001 -2.54594e-17)
(0.990414 -0.0118456 -1.96347e-17)
(0.987114 -0.00986552 1.77493e-17)
(0.995384 -0.00651044 -2.7742e-17)
(0.991043 -0.00480387 3.49211e-17)
(0.998716 -0.00125717 -8.58318e-17)
(0.993426 -0.000366459 3.54063e-17)
(1.00043 0.00542379 3.33978e-17)
(0.994577 -1.64444e-05 -3.00577e-17)
(1.00076 0.0190621 -1.86588e-17)
(0.992436 -0.00270879 1.77599e-17)
(0.177351 -0.415967 4.11509e-17)
(0.262838 -0.350066 -1.44134e-16)
(0.373547 -0.319769 -6.0733e-17)
(0.437635 -0.278156 1.04666e-16)
(0.517313 -0.251973 3.42549e-17)
(0.56425 -0.22317 -5.07975e-17)
(0.624648 -0.202723 -9.59303e-17)
(0.65906 -0.181097 3.06626e-17)
(0.70622 -0.165316 5.31662e-17)
(0.731683 -0.148533 -6.54292e-17)
(0.769309 -0.136124 -1.11693e-16)
(0.788257 -0.12285 -1.99778e-17)
(0.818836 -0.112872 3.35071e-17)
(0.832919 -0.102217 7.72999e-17)
(0.858184 -0.0940061 -1.11726e-17)
(0.868541 -0.0853464 -7.96177e-19)
(0.889732 -0.0784296 -5.82055e-17)
(0.897163 -0.0713136 -1.45869e-17)
(0.915185 -0.0653502 -5.11363e-17)
(0.920261 -0.0594446 -1.52276e-17)
(0.93579 -0.0541836 -1.74863e-17)
(0.938923 -0.0492378 2.65798e-17)
(0.952466 -0.0444896 2.73119e-17)
(0.953956 -0.0403127 -2.38612e-17)
(0.965905 -0.03593 2.74233e-17)
(0.96597 -0.0323741 -5.7131e-17)
(0.976628 -0.0282402 4.22523e-17)
(0.975426 -0.0251897 -5.93575e-17)
(0.985032 -0.0212095 8.50596e-17)
(0.982675 -0.0185729 -2.24139e-17)
(0.99142 -0.0146681 1.35706e-16)
(0.987986 -0.0123736 -2.84114e-17)
(0.996022 -0.00847156 3.83015e-18)
(0.991568 -0.00649564 2.13005e-17)
(0.998995 -0.0023741 4.05659e-17)
(0.993647 -0.00134319 -1.50802e-17)
(1.00025 0.00536459 -3.13847e-18)
(0.994765 -0.000892573 -1.79354e-17)
(0.99967 0.0211079 8.1387e-17)
(0.99285 -0.0042058 -1.02321e-17)
(0.206551 -0.475145 4.22784e-18)
(0.287384 -0.399938 -1.82847e-17)
(0.395953 -0.365334 9.23649e-17)
(0.457133 -0.317842 -2.41907e-18)
(0.53499 -0.287943 -9.74967e-17)
(0.579921 -0.255077 -1.15638e-16)
(0.638897 -0.231722 9.56021e-17)
(0.671795 -0.207049 -7.46818e-17)
(0.717856 -0.189029 2.4302e-17)
(0.742144 -0.169892 -3.00743e-17)
(0.778906 -0.155729 1.31311e-16)
(0.796926 -0.140604 -1.31542e-16)
(0.826813 -0.129216 2.49112e-17)
(0.84015 -0.11708 -1.41165e-16)
(0.86485 -0.107713 2.15538e-17)
(0.8746 -0.0978482 -1.73656e-17)
(0.895317 -0.0899648 8.2069e-17)
(0.902251 -0.0818576 -5.73008e-17)
(0.919866 -0.0750667 7.87997e-17)
(0.924532 -0.0683399 2.80203e-17)
(0.939699 -0.0623522 -3.71485e-17)
(0.942491 -0.0567212 3.91331e-18)
(0.955707 -0.0513194 -3.31146e-17)
(0.95691 -0.0465656 3.82727e-17)
(0.968556 -0.041582 1.71247e-17)
(0.968378 -0.0375365 -3.93383e-17)
(0.978749 -0.0328375 2.87802e-17)
(0.97734 -0.0293693 5.77008e-17)
(0.98667 -0.0248458 -1.62039e-16)
(0.984135 -0.0218521 -2.89883e-17)
(0.99261 -0.0174135 -6.7434e-17)
(0.989022 -0.0148136 -7.40971e-18)
(0.996789 -0.0103767 7.5631e-17)
(0.992202 -0.00814369 -6.93155e-17)
(0.999347 -0.00345672 1.08908e-18)
(0.99393 -0.00229707 3.11709e-17)
(1.00008 0.0053094 4.03214e-17)
(0.995009 -0.00174854 -6.891e-18)
(0.998445 0.0230916 -9.42318e-18)
(0.99336 -0.00566914 -6.08814e-17)
(0.239527 -0.532326 6.30176e-17)
(0.315169 -0.448082 3.88692e-17)
(0.421355 -0.409352 -6.39901e-17)
(0.479247 -0.356182 -2.34476e-16)
(0.55502 -0.322713 5.34874e-17)
(0.597672 -0.28591 2.52425e-16)
(0.655023 -0.259778 -4.87052e-17)
(0.686217 -0.232151 8.56223e-17)
(0.731027 -0.211989 2.53539e-17)
(0.753995 -0.190557 -5.58082e-17)
(0.789774 -0.174711 -5.8726e-18)
(0.806754 -0.15777 1.40214e-16)
(0.835849 -0.145033 4.32687e-18)
(0.848355 -0.131444 1.20424e-16)
(0.872401 -0.120968 1.09136e-16)
(0.881478 -0.109929 -7.66298e-17)
(0.901644 -0.101112 5.52893e-17)
(0.908026 -0.0920471 -4.77876e-17)
(0.925167 -0.084452 4.48839e-17)
(0.929374 -0.0769342 1.16313e-17)
(0.944126 -0.0702392 -1.96027e-17)
(0.946534 -0.0639489 3.8857e-17)
(0.959377 -0.0579108 -3.16085e-17)
(0.960256 -0.0526042 -2.76018e-17)
(0.971561 -0.0470347 2.70443e-17)
(0.971108 -0.0425233 -7.66151e-18)
(0.981159 -0.0372728 -3.37728e-17)
(0.979514 -0.0334093 1.3444e-16)
(0.988537 -0.0283565 -2.70787e-18)
(0.9858 -0.0250243 1.18013e-16)
(0.993973 -0.020069 9.71292e-18)
(0.990211 -0.0171763 -3.9204e-17)
(0.997676 -0.0122258 9.886e-18)
(0.992941 -0.00974179 -3.8551e-17)
(0.999766 -0.00451539 2.42941e-18)
(0.994274 -0.00322479 -3.76133e-18)
(0.999911 0.00524113 -4.63552e-17)
(0.995307 -0.00258107 -8.17069e-17)
(0.99709 0.0249934 1.5736e-16)
(0.993964 -0.00708723 -5.88442e-17)
(0.276187 -0.587188 1.14857e-16)
(0.346033 -0.494336 -3.59024e-17)
(0.449533 -0.4516 1.60828e-16)
(0.503767 -0.392969 3.7715e-16)
(0.577243 -0.356054 1.21066e-16)
(0.617371 -0.315489 -3.09303e-16)
(0.672929 -0.286663 5.32167e-18)
(0.702225 -0.256215 -1.75142e-16)
(0.745651 -0.23398 -7.51886e-17)
(0.767148 -0.210368 1.84359e-16)
(0.801841 -0.192896 -9.04652e-18)
(0.817658 -0.17424 -9.5868e-17)
(0.845883 -0.160196 3.64145e-17)
(0.857456 -0.145233 -1.92831e-16)
(0.880789 -0.133686 -4.7041e-17)
(0.889109 -0.12153 3.089e-17)
(0.908677 -0.111816 -7.09722e-17)
(0.914438 -0.101833 -2.64659e-17)
(0.931065 -0.0934696 -2.71303e-17)
(0.934759 -0.0851923 3.07717e-18)
(0.949058 -0.0778223 4.24457e-17)
(0.951039 -0.0708986 -1.16205e-17)
(0.963473 -0.0642537 4.15663e-17)
(0.963994 -0.0584138 6.34869e-18)
(0.97492 -0.0522868 -7.3871e-17)
(0.974163 -0.0473224 1.38484e-16)
(0.983857 -0.0415482 -4.20573e-17)
(0.981953 -0.0372975 -3.89163e-17)
(0.990632 -0.0317418 -1.08964e-16)
(0.987672 -0.0280777 3.59027e-17)
(0.995508 -0.022629 -3.93511e-17)
(0.991553 -0.0194517 7.72254e-17)
(0.998682 -0.0140071 -1.03201e-16)
(0.993782 -0.0112835 1.59273e-16)
(1.00025 -0.00553443 -1.16278e-16)
(0.994675 -0.00412393 7.1479e-17)
(0.999744 0.00517396 -1.19486e-17)
(0.995657 -0.00338947 3.30728e-17)
(0.995611 0.0268144 -2.18581e-17)
(0.994657 -0.00846167 -9.10167e-17)
(0.31635 -0.639566 -4.27864e-16)
(0.37985 -0.538424 -1.91254e-16)
(0.480444 -0.491921 -1.00188e-16)
(0.530684 -0.428098 -4.68192e-16)
(0.601633 -0.387914 -1.36328e-16)
(0.638992 -0.343741 1.72247e-16)
(0.692578 -0.31237 -9.86673e-19)
(0.7198 -0.279214 2.70484e-16)
(0.761707 -0.255017 1.74889e-16)
(0.781596 -0.229302 -2.16367e-16)
(0.815095 -0.210288 -9.4578e-17)
(0.829643 -0.189969 -1.03125e-17)
(0.856907 -0.174689 2.0883e-17)
(0.867465 -0.158396 9.69433e-17)
(0.890008 -0.145834 5.60993e-17)
(0.897506 -0.132603 4.20016e-17)
(0.916408 -0.122036 3.60686e-17)
(0.921496 -0.111175 9.74106e-17)
(0.937549 -0.102076 1.00759e-16)
(0.940685 -0.0930736 -7.914e-17)
(0.95448 -0.0850572 -1.79129e-17)
(0.955993 -0.0775289 -3.53554e-17)
(0.967975 -0.0703024 -2.50429e-18)
(0.968101 -0.0639555 -6.58867e-18)
(0.978612 -0.0572925 -6.17378e-17)
(0.97752 -0.0519011 1.74022e-17)
(0.986824 -0.0456221 -1.01481e-16)
(0.984634 -0.0410095 1.62514e-16)
(0.992939 -0.0349688 -9.6842e-17)
(0.989733 -0.0309957 -5.74081e-17)
(0.997203 -0.0250729 1.37792e-17)
(0.993036 -0.0216291 -4.31605e-18)
(0.999799 -0.015713 -3.13044e-17)
(0.994718 -0.0127613 3.39536e-17)
(1.0008 -0.00651721 -6.42005e-17)
(0.995133 -0.00498805 7.59231e-17)
(0.99958 0.00509699 -1.40434e-17)
(0.996058 -0.00416571 -4.75903e-17)
(0.994014 0.0285385 1.23556e-16)
(0.995436 -0.00977787 -3.60699e-17)
(0.359852 -0.689171 3.48842e-16)
(0.416492 -0.580259 1.84212e-16)
(0.513909 -0.530125 9.14382e-17)
(0.559803 -0.46136 2.96433e-16)
(0.628023 -0.41806 -3.9142e-19)
(0.662383 -0.370488 1.01299e-16)
(0.713839 -0.336684 -5.60399e-17)
(0.738809 -0.30098 -1.583e-16)
(0.779074 -0.274909 -2.27067e-16)
(0.797218 -0.247224 1.86928e-16)
(0.829429 -0.22674 1.02468e-17)
(0.8426 -0.204871 1.82199e-16)
(0.868831 -0.18841 -9.3805e-17)
(0.878286 -0.170875 -2.37682e-17)
(0.89998 -0.157344 5.52996e-17)
(0.906582 -0.143105 -2.18717e-17)
(0.924772 -0.131725 -7.10667e-17)
(0.929125 -0.120035 -7.43952e-17)
(0.944567 -0.110241 -6.68898e-17)
(0.947096 -0.100553 1.25507e-16)
(0.960352 -0.0919251 -2.17326e-17)
(0.96136 -0.0838254 -1.02367e-17)
(0.972857 -0.0760494 6.00687e-17)
(0.972558 -0.0692218 8.54883e-17)
(0.982621 -0.0620542 -9.48968e-17)
(0.98117 -0.0562543 1.3283e-16)
(0.990051 -0.0495019 -7.33788e-17)
(0.987555 -0.0445397 6.19324e-18)
(0.995453 -0.038045 -3.37644e-17)
(0.991984 -0.0337714 1.15238e-16)
(0.999054 -0.0274038 -5.11987e-17)
(0.99466 -0.0237018 -2.47791e-17)
(1.00102 -0.0173405 6.32898e-17)
(0.995749 -0.014171 7.83701e-17)
(1.00141 -0.00745601 -1.44394e-16)
(0.995645 -0.00581734 4.37802e-17)
(0.999418 0.00501817 -1.52661e-17)
(0.996506 -0.00491261 2.39778e-17)
(0.992305 0.0301645 -1.41457e-16)
(0.996298 -0.0110401 -2.33242e-17)
(0.406506 -0.735854 1.3294e-16)
(0.455772 -0.619546 -3.29036e-17)
(0.549803 -0.566063 -4.33289e-17)
(0.591065 -0.492673 -1.1089e-16)
(0.656354 -0.446462 -8.55643e-17)
(0.687501 -0.395674 -2.47321e-16)
(0.736671 -0.359601 1.2093e-16)
(0.759232 -0.321483 7.3652e-17)
(0.797735 -0.293662 8.43965e-17)
(0.814011 -0.264103 5.8364e-17)
(0.844838 -0.242246 6.30886e-18)
(0.856533 -0.218895 -2.44388e-16)
(0.881651 -0.201334 4.7891e-17)
(0.889924 -0.182613 -1.06881e-16)
(0.910704 -0.168179 -4.89639e-17)
(0.916349 -0.152981 -1.38479e-16)
(0.93377 -0.140842 9.68217e-17)
(0.93734 -0.12837 -5.82927e-17)
(0.95212 -0.117922 6.59173e-17)
(0.953999 -0.107587 -1.93594e-16)
(0.966673 -0.0983846 2.87906e-17)
(0.967138 -0.0897458 -8.69095e-18)
(0.97811 -0.0814525 -6.332e-17)
(0.977354 -0.0741727 3.71156e-18)
(0.986935 -0.0665283 -3.49312e-17)
(0.985094 -0.0603476 1.35464e-16)
(0.993524 -0.0531456 -9.87377e-17)
(0.990695 -0.0478613 7.96762e-17)
(0.998159 -0.0409342 3.90626e-17)
(0.994405 -0.0363862 -6.27138e-17)
(1.00105 -0.0295954 6.0063e-17)
(0.99641 -0.0256574 1.16032e-17)
(1.00235 -0.0188749 -8.10137e-17)
(0.996866 -0.015504 -2.49476e-18)
(1.00208 -0.00834689 1.40694e-16)
(0.996206 -0.00660412 -1.15563e-16)
(0.999261 0.00493301 7.97451e-17)
(0.997001 -0.00562047 -9.58677e-17)
(0.99049 0.0316807 1.65178e-16)
(0.997238 -0.0122331 9.84144e-18)
(0.456112 -0.779352 -2.26467e-16)
(0.497556 -0.656242 2.08276e-17)
(0.587978 -0.599566 8.63748e-18)
(0.624282 -0.521846 5.7621e-18)
(0.686457 -0.472901 2.54663e-16)
(0.714185 -0.419135 8.79611e-17)
(0.760925 -0.380928 1.42458e-18)
(0.78092 -0.340579 8.12733e-17)
(0.81755 -0.311115 -7.56927e-17)
(0.831838 -0.27983 -6.33832e-17)
(0.861195 -0.256684 -2.87111e-18)
(0.871323 -0.231974 1.6419e-16)
(0.895262 -0.213377 1.35958e-16)
(0.902279 -0.193569 1.49769e-16)
(0.922091 -0.178284 1.23371e-17)
(0.926716 -0.162203 2.58995e-16)
(0.943325 -0.149351 -1.92108e-16)
(0.946057 -0.136153 2.39845e-16)
(0.960138 -0.125094 -2.60019e-18)
(0.961327 -0.114159 1.41815e-16)
(0.973386 -0.10442 -1.16691e-17)
(0.973275 -0.0952815 2.02719e-17)
(0.983693 -0.0865058 -6.5571e-17)
(0.982454 -0.0788057 6.99271e-17)
(0.991525 -0.0707183 -3.38174e-18)
(0.989275 -0.0641807 -1.38018e-16)
(0.997223 -0.0565635 1.34477e-16)
(0.994045 -0.0509733 -9.99903e-17)
(1.00105 -0.0436487 1.31824e-17)
(0.996993 -0.0388372 -6.46337e-17)
(1.00318 -0.0316575 3.17274e-17)
(0.998286 -0.0274924 -1.03565e-16)
(1.00377 -0.0203213 1.00232e-16)
(0.998068 -0.0167582 2.14178e-17)
(1.00281 -0.00919003 -7.27483e-17)
(0.996817 -0.00734994 1.49137e-16)
(0.999105 0.00484298 -9.83179e-17)
(0.997539 -0.00629345 9.27798e-17)
(0.988576 0.0330826 -6.73513e-17)
(0.998252 -0.0133621 -1.25873e-16)
(0.508453 -0.819543 -1.54535e-16)
(0.541629 -0.690056 6.4277e-17)
(0.628244 -0.630511 -5.23782e-17)
(0.659353 -0.548806 -8.32911e-18)
(0.718244 -0.497358 -9.54048e-17)
(0.742369 -0.440821 -1.06314e-16)
(0.786547 -0.400663 -8.33347e-17)
(0.803838 -0.358234 -9.61487e-17)
(0.838494 -0.327266 -2.33301e-16)
(0.850686 -0.294368 1.7316e-16)
(0.878492 -0.270041 -8.67607e-17)
(0.886963 -0.244055 -4.32658e-17)
(0.909656 -0.224512 -3.64306e-16)
(0.915346 -0.203682 -1.31749e-16)
(0.934135 -0.187621 -9.91776e-17)
(0.937685 -0.170715 -2.34801e-17)
(0.953433 -0.15721 1.15906e-16)
(0.955286 -0.143339 -1.67476e-16)
(0.968627 -0.131718 1.04399e-16)
(0.969087 -0.120227 -1.78206e-16)
(0.980495 -0.109994 9.29331e-17)
(0.979774 -0.100391 -5.1057e-17)
(0.989606 -0.0911711 7.2906e-17)
(0.987853 -0.0830817 -2.79711e-17)
(0.996384 -0.0745848 2.03005e-17)
(0.993699 -0.0677193 2.5009e-17)
(1.00114 -0.0597157 -5.99302e-19)
(0.99759 -0.0538484 -3.12469e-17)
(1.0041 -0.0461517 7.66496e-17)
(0.999731 -0.0411047 1.30968e-17)
(1.00545 -0.0335604 1.6506e-17)
(1.00027 -0.0291935 -1.91697e-17)
(1.00528 -0.0216592 5.36031e-17)
(0.999344 -0.0179244 -6.77145e-17)
(1.00358 -0.00997483 2.28107e-17)
(0.997471 -0.00804689 -3.11131e-17)
(0.998955 0.00475011 -4.2437e-17)
(0.998116 -0.00692184 -1.60161e-17)
(0.986571 0.0343638 -4.91992e-17)
(0.999334 -0.0144128 2.29175e-17)
(0.563314 -0.856187 2.68258e-16)
(0.587838 -0.720983 -7.66127e-17)
(0.670469 -0.658734 -3.69493e-18)
(0.696099 -0.573392 1.1438e-16)
(0.751546 -0.519637 -1.98695e-17)
(0.771889 -0.460597 2.1151e-16)
(0.813379 -0.418639 5.62104e-17)
(0.827834 -0.374334 1.51952e-16)
(0.860418 -0.34198 1.70673e-16)
(0.870413 -0.30763 -5.48497e-17)
(0.896594 -0.282216 -5.06467e-17)
(0.903332 -0.255088 1.17556e-16)
(0.924721 -0.234671 3.10251e-16)
(0.929024 -0.212927 2.25829e-16)
(0.946742 -0.196149 7.82549e-17)
(0.949165 -0.1785 -9.80381e-17)
(0.964015 -0.164394 -1.96698e-16)
(0.964942 -0.149912 1.77726e-16)
(0.977511 -0.137776 -2.06598e-16)
(0.977206 -0.125781 4.10059e-17)
(0.987934 -0.115095 5.2781e-17)
(0.986576 -0.105072 -5.29921e-18)
(0.995797 -0.0954449 1.82855e-17)
(0.993508 -0.0870028 -1.04087e-17)
(1.00148 -0.078132 1.92482e-17)
(0.998338 -0.0709672 -8.95298e-17)
(1.00525 -0.0626134 8.31348e-17)
(1.00131 -0.0564896 -9.08522e-17)
(1.00732 -0.0484581 4.44327e-18)
(1.00261 -0.0431897 -3.85402e-17)
(1.00783 -0.0353187 6.8036e-17)
(1.00237 -0.0307603 -4.15793e-17)
(1.00688 -0.0228998 3.782e-17)
(1.00069 -0.0190025 -1.94712e-16)
(1.0044 -0.0107084 1.87853e-16)
(0.998168 -0.00869727 -1.22409e-16)
(0.998807 0.00464957 3.80969e-17)
(0.998732 -0.00750998 8.42679e-17)
(0.984482 0.0355164 -1.51668e-17)
(1.00048 -0.0153899 7.8705e-17)
(0.620447 -0.889199 -2.02399e-16)
(0.635951 -0.748751 3.14101e-16)
(0.714423 -0.68416 -2.19058e-16)
(0.734379 -0.595536 -1.08669e-17)
(0.786243 -0.539731 -1.32609e-16)
(0.802654 -0.478413 -5.68268e-17)
(0.841351 -0.434855 4.76821e-17)
(0.852854 -0.38884 -9.96904e-18)
(0.883286 -0.355254 -3.08142e-16)
(0.890992 -0.319578 2.34296e-16)
(0.915482 -0.293196 -2.28932e-17)
(0.920411 -0.265019 -7.40038e-17)
(0.940442 -0.243826 -2.14001e-16)
(0.943296 -0.221243 -3.52324e-16)
(0.959898 -0.203829 -1.10443e-16)
(0.961147 -0.185502 9.37189e-17)
(0.975059 -0.170861 1.30108e-16)
(0.975025 -0.155826 -6.44493e-17)
(0.986788 -0.14323 1.3876e-17)
(0.985687 -0.130778 4.49909e-17)
(0.995706 -0.119687 5.95204e-18)
(0.993684 -0.109284 -7.28694e-17)
(1.00227 -0.0992928 -3.07569e-17)
(0.999417 -0.0905312 -4.70533e-17)
(1.0068 -0.081325 8.81679e-17)
(1.00318 -0.073891 -4.44531e-17)
(1.00954 -0.0652208 3.96314e-17)
(1.0052 -0.0588696 2.07042e-17)
(1.01067 -0.0505331 1.22584e-16)
(1.00562 -0.0450719 -1.11045e-16)
(1.01031 -0.0369016 1.38717e-16)
(1.00455 -0.0321785 -1.24911e-16)
(1.00855 -0.0240196 1.24641e-16)
(1.00211 -0.0199828 3.91729e-17)
(1.00527 -0.011375 6.77727e-17)
(0.998901 -0.00929339 -2.06281e-16)
(0.998664 0.00454934 1.54012e-16)
(0.999381 -0.0080491 -1.72069e-16)
(0.98232 0.0365395 -3.10865e-17)
(1.00169 -0.0162813 4.98936e-17)
(0.679622 -0.918365 1.85168e-16)
(0.685794 -0.773378 -1.5906e-16)
(0.759969 -0.706622 -7.17128e-17)
(0.774023 -0.615117 2.94059e-16)
(0.822172 -0.55747 2.19823e-16)
(0.834505 -0.494165 4.6712e-17)
(0.870302 -0.449173 -2.09858e-16)
(0.878748 -0.401669 2.90435e-17)
(0.906944 -0.366977 2.12217e-16)
(0.912281 -0.330148 -1.87655e-16)
(0.935017 -0.3029 6.44273e-17)
(0.938079 -0.273816 7.32374e-17)
(0.956703 -0.251927 1.66886e-16)
(0.958061 -0.228619 1.56635e-16)
(0.973508 -0.210633 2.50124e-16)
(0.973544 -0.191717 -6.47076e-17)
(0.986485 -0.176597 -6.03388e-17)
(0.985455 -0.161078 -5.89563e-18)
(0.996385 -0.148071 6.35599e-17)
(0.99446 -0.135218 -7.21913e-17)
(1.00374 -0.123767 3.28537e-17)
(1.00104 -0.11303 -2.27097e-17)
(1.00896 -0.102715 1.04907e-16)
(1.00553 -0.0936737 -1.5508e-16)
(1.0123 -0.0841696 6.57417e-17)
(1.0082 -0.0764988 -1.01036e-16)
(1.01399 -0.0675495 -2.09015e-17)
(1.00923 -0.0609955 -3.40634e-17)
(1.01415 -0.0523925 -1.9032e-17)
(1.00874 -0.0467561 -1.38844e-17)
(1.0129 -0.0383261 -9.95185e-17)
(1.00683 -0.0334511 1.04367e-16)
(1.01028 -0.0250336 -9.32876e-17)
(1.00358 -0.0208673 -9.83228e-17)
(1.00617 -0.0119869 8.19484e-17)
(0.999672 -0.0098382 1.272e-16)
(0.998523 0.00443926 1.01489e-17)
(1.00006 -0.0085432 8.76366e-17)
(0.98009 0.0374217 -4.09598e-17)
(1.00295 -0.0170909 3.69577e-17)
(0.740571 -0.943631 -9.78581e-17)
(0.737119 -0.794625 -8.94013e-17)
(0.806865 -0.726093 5.67912e-17)
(0.814858 -0.632066 -6.86668e-17)
(0.859187 -0.572858 -4.63037e-16)
(0.867325 -0.507806 -6.31825e-17)
(0.900144 -0.461594 1.07876e-16)
(0.905441 -0.412778 2.14514e-17)
(0.931342 -0.377147 -1.55184e-16)
(0.934238 -0.339302 1.00039e-16)
(0.955171 -0.311315 9.32745e-17)
(0.956304 -0.281429 -2.76969e-16)
(0.97348 -0.258948 -1.38761e-17)
(0.973292 -0.234997 -3.88193e-17)
(0.98755 -0.216526 -1.44556e-16)
(0.986333 -0.19709 4.39817e-17)
(0.998276 -0.181562 1.55606e-16)
(0.99622 -0.16562 -5.30751e-17)
(1.00629 -0.152262 1.08076e-16)
(1.00352 -0.13906 -1.79434e-16)
(1.01205 -0.127301 1.05343e-16)
(1.00863 -0.116273 -3.06506e-17)
(1.01587 -0.10568 -1.74965e-17)
(1.01185 -0.0963946 5.86627e-17)
(1.01799 -0.086635 8.54047e-17)
(1.01338 -0.0787583 5.12293e-17)
(1.01858 -0.0695681 1.54439e-17)
(1.01339 -0.0628403 2.96067e-17)
(1.01775 -0.054005 -7.88584e-18)
(1.01196 -0.0482213 9.77457e-17)
(1.01557 -0.0395632 2.57968e-17)
(1.00917 -0.0345629 -5.78853e-17)
(1.01208 -0.0259175 2.23888e-17)
(1.0051 -0.0216457 1.68747e-16)
(1.00711 -0.0125254 -8.22075e-17)
(1.00047 -0.0103242 -2.04174e-16)
(0.998388 0.00433184 1.57984e-16)
(1.00077 -0.00898469 -1.10546e-16)
(0.977803 0.0381675 7.50384e-18)
(1.00425 -0.0178089 -8.89019e-18)
(0.803044 -0.964822 2.75286e-16)
(0.789745 -0.81253 3.69741e-16)
(0.854947 -0.742411 -4.04972e-17)
(0.85672 -0.646306 4.78069e-17)
(0.897125 -0.585755 3.6149e-16)
(0.900962 -0.519265 4.81158e-18)
(0.930718 -0.472008 1.99164e-17)
(0.93279 -0.422116 6.03728e-17)
(0.95633 -0.385679 4.07563e-17)
(0.956726 -0.347001 -6.9324e-17)
(0.975807 -0.318383 -1.06306e-16)
(0.974969 -0.28784 1.98821e-16)
(0.990658 -0.264853 1.34636e-16)
(0.988892 -0.240377 -2.62182e-17)
(1.00193 -0.22149 6.33386e-18)
(0.999432 -0.201629 -5.71408e-17)
(1.01035 -0.185752 -2.12569e-16)
(1.00724 -0.16946 2.84592e-17)
(1.01643 -0.155803 1.16421e-18)
(1.01279 -0.142312 6.58656e-17)
(1.02055 -0.13029 -4.15226e-18)
(1.0164 -0.119021 5.28867e-18)
(1.02294 -0.108193 3.11896e-17)
(1.01831 -0.0987054 -2.73825e-17)
(1.02382 -0.0887292 -7.08953e-17)
(1.01869 -0.080682 -9.32998e-17)
(1.02328 -0.0712888 6.39424e-17)
(1.01765 -0.0644152 -9.15971e-17)
(1.02143 -0.0553863 1.06208e-16)
(1.01527 -0.0494767 -1.78077e-16)
(1.01831 -0.0406303 -1.04681e-18)
(1.01159 -0.0355205 5.16873e-17)
(1.01392 -0.0266882 -1.10386e-16)
(1.00667 -0.0223226 -9.94272e-17)
(1.00808 -0.0130057 -8.20164e-17)
(1.0013 -0.0107554 9.01934e-17)
(0.998255 0.00421338 -7.44867e-17)
(1.00151 -0.00937744 -2.70725e-17)
(0.975467 0.038763 5.10394e-17)
(1.0056 -0.0184383 6.28052e-17)
(0.866767 -0.981909 -3.54469e-16)
(0.843402 -0.826895 -3.5649e-16)
(0.903986 -0.755591 -1.48069e-16)
(0.899412 -0.657771 1.38353e-16)
(0.935828 -0.596172 -2.2843e-16)
(0.935275 -0.528498 1.11687e-16)
(0.961919 -0.480422 -1.77512e-16)
(0.960697 -0.429641 -7.54111e-17)
(0.981839 -0.392572 6.43111e-17)
(0.979683 -0.353205 1.50075e-16)
(0.996881 -0.324091 1.07408e-16)
(0.994026 -0.293005 -3.12174e-17)
(1.0082 -0.269619 -9.53867e-17)
(1.00482 -0.244708 -1.46351e-16)
(1.01662 -0.225495 -4.54583e-18)
(1.01281 -0.205282 1.38111e-16)
(1.02268 -0.189132 1.26003e-16)
(1.0185 -0.172553 -9.76414e-17)
(1.0268 -0.158661 1.79942e-17)
(1.02227 -0.144934 -5.02196e-17)
(1.02923 -0.132705 -1.49893e-17)
(1.02435 -0.12124 4.82553e-17)
(1.03018 -0.110225 -1.60066e-16)
(1.02492 -0.100573 -2.52422e-17)
(1.02977 -0.0904256 2.13785e-16)
(1.02412 -0.0822394 -5.54877e-17)
(1.0281 -0.0726849 8.93384e-18)
(1.02202 -0.065694 5.02429e-17)
(1.0252 -0.0565095 -5.98064e-17)
(1.01865 -0.0505008 5.21547e-17)
(1.02111 -0.0415015 -1.39792e-18)
(1.01406 -0.0363078 8.8879e-17)
(1.01581 -0.0273225 1.27779e-17)
(1.00827 -0.0228866 1.98029e-16)
(1.00908 -0.0134085 1.20014e-16)
(1.00215 -0.0111238 -2.7445e-17)
(0.998127 0.00409882 6.2976e-17)
(1.00226 -0.0097146 6.28173e-17)
(0.973093 0.0392167 -1.26134e-16)
(1.00697 -0.0189717 6.12316e-17)
(0.931466 -0.994765 4.17061e-16)
(0.897912 -0.837771 2.67844e-16)
(0.953776 -0.765491 1.57991e-16)
(0.942774 -0.666427 3.97024e-18)
(0.975123 -0.604007 -2.60726e-17)
(0.97012 -0.535469 -3.68902e-18)
(0.993591 -0.486755 1.55818e-16)
(0.989032 -0.435327 3.23691e-17)
(1.00773 -0.397767 -1.35767e-16)
(1.00299 -0.357899 -1.16264e-16)
(1.01826 -0.328401 7.35718e-17)
(1.01337 -0.29692 -1.44497e-16)
(1.026 -0.273227 -5.66245e-17)
(1.02099 -0.248001 3.57787e-16)
(1.03152 -0.228535 -2.00662e-16)
(1.02639 -0.208067 5.1017e-18)
(1.0352 -0.191704 -3.02276e-17)
(1.02993 -0.174916 -1.53015e-17)
(1.03731 -0.160842 1.67004e-16)
(1.03188 -0.146941 -9.03562e-17)
(1.03804 -0.134553 4.44522e-17)
(1.03241 -0.122944 1.01048e-16)
(1.03752 -0.111786 -3.49038e-18)
(1.03163 -0.102013 -4.70292e-17)
(1.03582 -0.0917346 5.77625e-17)