/*--------------------------------*- C++ -*----------------------------------*\
| =========                 |                                                 |
| \\      /  F ield         | foam-extend: Open Source CFD                    |
|  \\    /   O peration     | Version:  3.0                                   |
|   \\  /    A nd           | Web:         http://www.extend-project.de       |
|    \\/     M anipulation  |                                                 |
\*---------------------------------------------------------------------------*/
FoamFile
{
    version     2.0;
    format      ascii;
    class       volSymmTensorField;
    location    "6";
    object      sigma;
}
// * * * * * * * * * * * * * * * * * * * * * * * * * * * * * * * * * * * * * //

dimensions      [0 0 0 0 0 0 0];

internalField   nonuniform List<symmTensor> 
120
(
(-0.130711 -0.02319 1.88602e-19 0.130717 2.00774e-21 -5.40617e-06)
(-0.093252 -0.0236028 5.19738e-19 0.0932467 4.3649e-19 5.27267e-06)
(-0.0549081 -0.0194037 1.16693e-18 0.0548468 -5.64497e-19 6.13736e-05)
(-0.0240202 -0.0155635 -8.06398e-19 0.0238613 7.85174e-20 0.000158839)
(-0.00163029 -0.0123327 -9.55766e-19 0.00144606 1.5894e-20 0.000184237)
(-0.111448 -0.0631754 3.2507e-19 0.11126 -8.98302e-20 0.000188553)
(-0.0683796 -0.0589936 1.63139e-18 0.0679583 -7.43968e-19 0.000421275)
(-0.0322153 -0.0451928 9.607e-19 0.0316115 -1.52148e-18 0.000603832)
(-0.00368858 -0.0332338 1.37538e-18 0.00301014 -9.46217e-19 0.00067844)
(0.0167359 -0.0240117 7.05324e-19 -0.0171793 -1.24373e-18 0.000443452)
(-0.0801866 -0.0884097 1.94806e-20 0.0798143 -2.85498e-19 0.000372389)
(-0.0313097 -0.0719457 -3.20922e-19 0.0304986 -1.24138e-18 0.00081107)
(0.00030296 -0.0492087 -1.27547e-18 -0.00140696 -1.61809e-18 0.001104)
(0.0243602 -0.0304167 -1.85277e-18 -0.0255081 -1.72727e-18 0.00114787)
(0.041237 -0.0165524 -3.35652e-18 -0.0419069 4.58255e-19 0.000669861)
(-0.0477551 -0.0971082 -8.38306e-20 0.0472264 -2.12137e-19 0.00052865)
(0.000175511 -0.061647 -5.13921e-19 -0.0013158 -7.46043e-19 0.00114029)
(0.0249473 -0.0312795 -2.92956e-18 -0.0264691 1.42995e-19 0.00152183)
(0.0430989 -0.00740146 -9.81304e-19 -0.0446313 8.19981e-19 0.00153238)
(0.0556743 0.00949583 -3.22453e-19 -0.0565214 1.50772e-18 0.000847061)
(-0.0225662 -0.0947945 7.20464e-20 0.0219199 -1.84678e-19 0.000646354)
(0.0131915 -0.0396429 -7.34193e-19 -0.0145776 -7.02676e-20 0.00138608)
(0.0291602 -0.00364323 -4.18957e-20 -0.0309885 3.52895e-19 0.00182824)
(0.0406298 0.0234936 -3.786e-19 -0.0424344 8.86735e-19 0.0018046)
(0.0488219 0.0421433 2.89416e-18 -0.0497839 2.2209e-20 0.000962066)
(-0.00639528 -0.0903475 -2.44354e-19 0.00567752 -8.98781e-20 0.000717755)
(0.00692602 -0.0226936 -9.91605e-19 -0.00845842 1.7422e-19 0.0015324)
(0.0127534 0.0163406 7.57788e-19 -0.0147565 3.58589e-19 0.00200302)
(0.0172206 0.0450685 2.03704e-19 -0.0191668 6.02171e-19 0.00194615)
(0.0210205 0.0646422 5.55182e-19 -0.0220276 -2.77497e-19 0.00100713)
(0.00578753 -0.0902776 -2.42226e-19 -0.00652628 -5.18388e-20 0.000738745)
(-0.00735434 -0.0226873 -5.72696e-19 0.00578316 1.37434e-19 0.00157118)
(-0.0121539 0.0164396 6.76285e-19 0.010117 3.27541e-19 0.00203691)
(-0.0147985 0.0452602 1.72145e-19 0.0128489 4.65111e-19 0.00194965)
(-0.0155789 0.0650899 -1.10412e-18 0.0145988 -2.18705e-19 0.000980155)
(0.0218818 -0.0946376 -3.47492e-19 -0.022591 -1.5528e-20 0.000709138)
(-0.0134263 -0.0395468 8.61546e-19 0.0119237 3.20883e-19 0.00150265)
(-0.0284008 -0.00325583 -4.96995e-19 0.0264689 5.5436e-20 0.0019319)
(-0.0381775 0.024164 5.05097e-19 0.0363574 -8.1464e-20 0.00182007)
(-0.0438389 0.0433806 6.87484e-20 0.0429526 -3.938e-19 0.000886266)
(0.04699 -0.0969833 -2.22318e-19 -0.0476221 2.97488e-19 0.000632152)
(-0.000149154 -0.061287 -9.66041e-19 -0.00118544 5.28302e-19 0.00133459)
(-0.024012 -0.0304053 -1.88487e-18 0.0223116 3.44952e-19 0.00170037)
(-0.0407418 -0.00606484 -1.26365e-18 0.0391688 7.32013e-19 0.00157298)
(-0.05145 0.0113845 -3.18181e-18 0.0507137 -1.52816e-19 0.00073626)
(0.0794301 -0.0884266 1.04169e-19 -0.0799439 4.02551e-19 0.00051384)
(0.0314997 -0.0711766 1.12431e-19 -0.0325801 9.2615e-19 0.00108041)
(0.000626375 -0.0476879 -6.88449e-19 -0.0019876 1.08172e-18 0.00136122)
(-0.022397 -0.0283024 1.72817e-18 0.0211678 1.42496e-19 0.00122924)
(-0.0379206 -0.0140336 2.37779e-18 0.0373779 2.46792e-18 0.000542665)
(0.11084 -0.0633746 2.91004e-19 -0.111203 2.26721e-19 0.000362445)
(0.0685336 -0.0578073 5.07032e-19 -0.0692916 2.2688e-19 0.000757923)
(0.0328383 -0.0430395 2.08284e-18 -0.033777 1.16936e-18 0.000938653)
(0.00489675 -0.0304157 1.1337e-18 -0.00571073 -4.02867e-19 0.000813974)
(-0.0146597 -0.0208019 2.39499e-18 0.0143396 -2.30893e-19 0.000320086)
(0.13038 -0.0235247 1.31753e-19 -0.130567 8.90455e-21 0.000187565)
(0.093179 -0.0221534 4.53317e-19 -0.0935662 6.79797e-20 0.000387204)
(0.0549411 -0.0168491 1.6547e-18 -0.0553992 -1.20185e-19 0.000458126)
(0.0241753 -0.012307 1.38517e-19 -0.0245265 -5.61594e-19 0.000351227)
(0.00204344 -0.00857297 -6.71529e-20 -0.00212413 -1.98155e-18 8.06899e-05)
(0.130582 0.022273 1.88954e-19 -0.130582 -1.21476e-21 2.62585e-08)
(0.0930173 0.0225256 5.21042e-19 -0.0930079 4.32357e-19 -9.39609e-06)
(0.0545213 0.0180873 1.16885e-18 -0.054469 -5.8091e-19 -5.23428e-05)
(0.0234424 0.0140525 -8.1221e-19 -0.023309 7.17535e-20 -0.000133401)
(0.000712065 0.0112989 -9.50729e-19 -0.000549475 3.46375e-20 -0.00016259)
(0.11143 0.0622436 3.25727e-19 -0.111241 -9.24805e-20 -0.00018892)
(0.0681228 0.0579248 1.63863e-18 -0.067714 -7.64281e-19 -0.000408757)
(0.0316799 0.0438662 9.70136e-19 -0.0311152 -1.54231e-18 -0.000564705)
(0.00278608 0.0316787 1.39037e-18 -0.00217041 -9.93264e-19 -0.000615677)
(-0.018419 0.022716 7.29757e-19 0.0188182 -1.30212e-18 -0.000399132)
(0.0803256 0.0875557 1.715e-20 -0.0799584 -2.87235e-19 -0.00036721)
(0.0310302 0.0708848 -3.29869e-19 -0.0302442 -1.24567e-18 -0.000785974)
(-0.000985978 0.0477992 -1.29301e-18 0.00203383 -1.61893e-18 -0.00104785)
(-0.0255809 0.0286292 -1.88097e-18 0.0266485 -1.73928e-18 -0.00106763)
(-0.0435025 0.0145511 -3.37419e-18 0.0441181 5.10148e-19 -0.000615599)
(0.0480005 0.0964628 -8.73359e-20 -0.0474772 -2.12332e-19 -0.000523292)
(-0.000463894 0.0605863 -5.23862e-19 0.00158047 -7.46657e-19 -0.00111658)
(-0.0256962 0.029697 -2.96812e-18 0.027167 1.65657e-19 -0.00147082)
(-0.0444596 0.00517782 -1.00945e-18 0.0459203 8.4952e-19 -0.00146071)
(-0.0580624 -0.0125032 -3.89933e-19 0.0588612 1.5531e-18 -0.000798848)
(0.0227586 0.0944124 6.96472e-20 -0.0221128 -1.84676e-19 -0.000645761)
(-0.0134676 0.0385751 -7.44302e-19 0.014844 -6.49517e-20 -0.00137633)
(-0.0298291 0.00185846 -4.40717e-20 0.0316309 3.60105e-19 -0.00180182)
(-0.0418116 -0.0262055 -3.89426e-19 0.0435758 9.10523e-19 -0.00176426)
(-0.0507198 -0.0460695 2.95244e-18 0.0516535 -7.3951e-21 -0.000933702)
(0.00636929 0.090135 -2.48062e-19 -0.00564366 -8.92922e-20 -0.000725637)
(-0.0071682 0.0216187 -1.00129e-18 0.00871354 1.79962e-19 -0.00154534)
(-0.0132 -0.0182551 7.68088e-19 0.0152143 3.6453e-19 -0.0020143)
(-0.0179299 -0.0480869 2.01703e-19 0.019882 6.16838e-19 -0.00195212)
(-0.0220548 -0.0690793 5.46154e-19 0.0230624 -2.8143e-19 -0.00100761)
(-0.00608582 0.0900387 -2.4503e-19 0.0068417 -5.17185e-20 -0.000755882)
(0.00715245 0.0216113 -5.76314e-19 -0.00554409 1.41132e-19 -0.00160836)
(0.0119729 -0.018343 6.88937e-19 -0.00988536 3.36586e-19 -0.00208753)
(0.0146566 -0.0482476 1.80404e-19 -0.0126532 4.82386e-19 -0.00200341)
(0.0155185 -0.0694949 -1.11478e-18 -0.0145083 -2.26998e-19 -0.00101017)
(-0.022357 0.0942011 -3.50509e-19 0.023091 -1.61953e-20 -0.000734007)
(0.013253 0.0384764 8.68984e-19 -0.0116936 3.26158e-19 -0.0015594)
(0.0284111 0.00149453 -4.99672e-19 -0.0263975 5.82836e-20 -0.00201354)
(0.0384484 -0.0268148 5.2478e-19 -0.0365376 -7.06363e-20 -0.00191083)
(0.0446115 -0.0472562 8.74518e-20 -0.0436725 -3.88608e-19 -0.000939039)
(-0.0474747 0.0963042 -2.25645e-19 0.0481354 2.99403e-19 -0.000660725)
(-1.61645e-05 0.0602197 -9.7961e-19 0.00141649 5.30569e-19 -0.00140033)
(0.0240735 0.0288286 -1.91234e-18 -0.0222782 3.43634e-19 -0.00179532)
(0.0411297 0.00386836 -1.28977e-18 -0.0394511 7.42598e-19 -0.00167854)
(0.0526486 -0.0143577 -3.1954e-18 -0.0518511 -1.94201e-19 -0.000797482)
(-0.0798057 0.0875868 1.03563e-19 0.0803476 4.06358e-19 -0.000541823)
(-0.0316753 0.070106 1.10063e-19 0.0328187 9.34705e-19 -0.00114334)
(-0.000636864 0.0462536 -7.00051e-19 0.00208695 1.07535e-18 -0.00145009)
(0.0226391 0.026476 1.73427e-18 -0.0213128 1.37036e-19 -0.00132637)
(0.0390139 0.0120073 2.3749e-18 -0.0384155 2.46901e-18 -0.000598419)
(-0.111095 0.0624838 2.91786e-19 0.111481 2.31672e-19 -0.000385844)
(-0.068727 0.0567298 5.07906e-19 0.069534 2.30333e-19 -0.000807012)
(-0.0329712 0.0416765 2.09343e-18 0.0339738 1.18622e-18 -0.00100265)
(-0.00492529 0.0287888 1.14066e-18 0.00580484 -4.0928e-19 -0.000879553)
(0.015191 0.0194309 2.42126e-18 -0.0148352 -1.58477e-19 -0.000355798)
(-0.130564 0.0226281 1.31782e-19 0.130769 1.18912e-20 -0.00020518)
(-0.0933921 0.0210724 4.53173e-19 0.093809 6.93391e-20 -0.000416865)
(-0.0552003 0.0155152 1.65899e-18 0.0556866 -1.06041e-19 -0.000486309)
(-0.0244774 0.0107607 1.40402e-19 0.0248488 -5.5931e-19 -0.000371385)
(-0.00221964 0.00751282 -7.11216e-20 0.0023078 -1.99741e-18 -8.81557e-05)
)
;

boundaryField
{
    out
    {
        type            mySigma;
    }
    in
    {
        type            mySigma;
    }
    frontAndBack
    {
        type            empty;
    }
}


// ************************************************************************* //
