/*--------------------------------*- C++ -*----------------------------------*\
| =========                 |                                                 |
| \\      /  F ield         | foam-extend: Open Source CFD                    |
|  \\    /   O peration     | Version:  3.0                                   |
|   \\  /    A nd           | Web:         http://www.extend-project.de       |
|    \\/     M anipulation  |                                                 |
\*---------------------------------------------------------------------------*/
FoamFile
{
    version     2.0;
    format      ascii;
    class       volVectorField;
    location    "44";
    object      u;
}
// * * * * * * * * * * * * * * * * * * * * * * * * * * * * * * * * * * * * * //

dimensions      [0 0 0 0 0 0 0];

internalField   nonuniform List<vector> 
672
(
(0.5429534799 -0.08904827251 7.089009503e-17)
(0.2389767774 -0.06341047453 4.854031992e-17)
(0.9218065151 -0.04983823989 -2.42366844e-18)
(0.5485988104 -0.0313299322 3.713936618e-17)
(1.069540962 -0.02947189504 3.666364544e-17)
(0.7021472379 -0.01774752684 6.580227507e-17)
(1.139893019 -0.01660213067 9.498206544e-17)
(0.7771529136 -0.01137581827 -1.42717467e-17)
(1.179709303 -0.007628807314 4.573295127e-17)
(0.8071785707 -0.007217450164 6.327907472e-18)
(1.202457016 -0.001559255176 2.248706936e-17)
(0.8111592298 -0.002419381461 -5.020952679e-17)
(0.5826354425 -0.2620637962 -3.798469419e-17)
(0.2670185473 -0.1867864683 -1.154603603e-16)
(0.9438345227 -0.1463579435 5.326398213e-17)
(0.5622747025 -0.09213251775 -1.74413011e-16)
(1.082446008 -0.08604891615 -1.060658185e-16)
(0.7096834577 -0.05200141879 -1.90363279e-17)
(1.147212598 -0.04782673354 -3.048629603e-16)
(0.7816305572 -0.03310142359 1.371018782e-16)
(1.183431626 -0.02124088286 -1.507722668e-16)
(0.8093019731 -0.0205525298 1.771062662e-16)
(1.20412285 -0.003483974768 -2.654362359e-16)
(0.8103116782 -0.005522262348 3.685338449e-16)
(0.6595882353 -0.4219725339 3.460717946e-17)
(0.3219244934 -0.3005231625 1.636055222e-16)
(0.9868745679 -0.2354157617 6.13521169e-17)
(0.5894656591 -0.1481997395 2.37371667e-16)
(1.107727301 -0.1381796885 9.486626346e-17)
(0.7252208096 -0.08381393406 1.729138114e-16)
(1.161005505 -0.07639753455 1.783427728e-16)
(0.7918894257 -0.05370703881 1.162895721e-16)
(1.188893736 -0.03317245404 -2.116339372e-17)
(0.816385544 -0.03384673135 -2.146432632e-17)
(1.203666797 -0.004123383076 5.240646265e-17)
(0.8136285968 -0.009777177306 -1.051842088e-16)
(0.7704341353 -0.5606705825 -2.162964568e-16)
(0.4007121803 -0.3996025767 -1.254562981e-16)
(1.048670084 -0.3128572473 -2.492790281e-16)
(0.628139382 -0.1970151852 -1.43118692e-18)
(1.14400752 -0.1835836482 -4.574434045e-16)
(0.7467963495 -0.1111904737 1.768288153e-16)
(1.181325836 -0.1015232339 -5.357627862e-16)
(0.8051926718 -0.07085613638 3.373732162e-16)
(1.198442276 -0.04432667827 -4.10822732e-16)
(0.8238574497 -0.0441353935 5.733911382e-16)
(1.206351881 -0.006040762939 -5.680188719e-16)
(0.8140482444 -0.01194990218 7.523297184e-16)
(0.9092119432 -0.6712962533 4.266725169e-16)
(0.4994723382 -0.4782095673 8.968972471e-17)
(1.126114715 -0.3743686545 2.516850737e-16)
(0.6769183058 -0.2358148803 5.891306443e-17)
(1.18941605 -0.2195172992 3.13974828e-16)
(0.7745767206 -0.1334035452 1.045329895e-16)
(1.206149902 -0.1210235936 1.802421314e-16)
(0.8233729471 -0.08557494529 -4.893878886e-17)
(1.208541636 -0.05205576103 2.564912125e-16)
(0.8359581383 -0.05400092782 -4.408715488e-16)
(1.206290972 -0.005742432424 3.410307993e-16)
(0.8186333394 -0.01547080383 -3.302672535e-16)
(1.069256235 -0.7482108603 -2.978843028e-16)
(0.61345134 -0.5333488075 8.884390265e-18)
(1.215439834 -0.4173666238 -3.308908206e-16)
(0.732952103 -0.2629582126 1.839376427e-16)
(1.241859859 -0.2447212007 -5.416352469e-16)
(0.8059001571 -0.1484807559 2.318198146e-16)
(1.235396992 -0.1350479684 -4.767003005e-16)
(0.8428145107 -0.09475675376 2.623902254e-16)
(1.221971025 -0.05854430824 -4.511506884e-16)
(0.8472399051 -0.05917615058 8.028667906e-16)
(1.209420925 -0.007328890226 -8.659074944e-16)
(0.820231252 -0.01616552467 8.654918928e-16)
(1.242345996 -0.7876148609 7.444435601e-17)
(0.7365099751 -0.5612952277 1.017577233e-16)
(1.311924018 -0.4391526141 -3.650848936e-18)
(0.7936881919 -0.2768422233 -8.629653529e-17)
(1.298384428 -0.2573349197 3.157844237e-16)
(0.8404996972 -0.1567176271 -3.286924472e-17)
(1.266308446 -0.1415754205 2.206284816e-16)
(0.865443395 -0.1007023746 -1.276795023e-16)
(1.234657793 -0.06043648339 2.502319951e-16)
(0.8621142788 -0.06376408397 -4.969279709e-16)
(1.209694161 -0.005941583502 5.071769439e-16)
(0.8253189495 -0.01855306158 -3.819442811e-16)
(1.419897671 -0.7875263836 1.016980902e-17)
(0.8631215621 -0.5615470052 -8.222852163e-17)
(1.411086095 -0.4391618597 1.90558304e-16)
(0.8559947571 -0.2769148361 -8.357897598e-17)
(1.356578846 -0.2573201648 -4.477054261e-18)
(0.8753858384 -0.1565087861 -5.245216518e-17)
(1.29864416 -0.1417161955 1.080514116e-17)
(0.8871950018 -0.1001053495 8.209962322e-17)
(1.249277513 -0.06102087635 -2.206306562e-16)
(0.8749481966 -0.06273184276 5.070157987e-16)
(1.212697337 -0.00704594686 -5.268956186e-16)
(0.8276216515 -0.01731929599 4.933175243e-16)
(1.592987244 -0.7478919901 8.026869385e-18)
(0.9861316001 -0.5333128298 2.198008554e-17)
(1.507487471 -0.4169371467 -3.629073419e-16)
(0.9166938534 -0.263145147 2.192105545e-16)
(1.412998959 -0.2441579199 -2.879000431e-16)
(0.910004756 -0.14912025 2.263406131e-16)
(1.329442552 -0.1340267848 -1.661951472e-16)
(0.9098883426 -0.09605916081 4.518453568e-17)
(1.261861901 -0.05673203305 1.196082835e-16)
(0.8898433807 -0.06115458366 -3.643649482e-16)
(1.212948054 -0.004770106762 3.637172782e-16)
(0.832553852 -0.01836349019 -4.058147824e-16)
(1.752897346 -0.6708354538 9.148583547e-17)
(1.1002838 -0.4786035594 -4.37113632e-17)
(1.596837885 -0.3739309184 4.351303429e-16)
(0.9729181801 -0.2360995395 -1.575925898e-16)
(1.465413301 -0.2188926918 3.051694417e-16)
(0.9415412314 -0.1336321944 -2.817975965e-16)
(1.358494392 -0.1202192053 2.187006769e-16)
(0.9296241465 -0.08576625819 -8.040151264e-17)
(1.274894131 -0.05126140462 -1.485786895e-17)
(0.9015819702 -0.05404944379 5.101464729e-17)
(1.215476385 -0.005189464847 -4.136397393e-17)
(0.8348284609 -0.0152450139 8.909464415e-17)
(1.891685123 -0.5600133177 -4.123376103e-17)
(1.198919008 -0.3997701098 -1.858434552e-17)
(1.674080598 -0.3121269795 -2.59438264e-16)
(1.021601231 -0.1974073933 -2.102697236e-17)
(1.510554541 -0.1826156174 -1.173465874e-16)
(0.9693745644 -0.1120857411 4.889436871e-17)
(1.383023762 -0.09991754404 -8.800799046e-17)
(0.9479728081 -0.07252670395 -8.87602912e-18)
(1.284744532 -0.04174676369 4.645519398e-17)
(0.9137002692 -0.04662784293 -7.873054143e-17)
(1.215433329 -0.002558203149 9.952898568e-17)
(0.8388554684 -0.01480673362 -1.487125939e-16)
(2.002304588 -0.4212684283 -8.808473973e-18)
(1.277961361 -0.3009286159 -3.366464942e-18)
(1.735901264 -0.2346269782 2.339149914e-16)
(1.060565349 -0.1485619375 -2.716739127e-17)
(1.546788288 -0.1371132355 2.095384399e-16)
(0.9912797955 -0.08429268328 -1.569348558e-16)
(1.403040337 -0.07494530829 2.302586813e-16)
(0.961741968 -0.05441289527 -1.483737846e-16)
(1.293639035 -0.03141437607 9.779225303e-17)
(0.9219502081 -0.03463955167 -9.67852223e-17)
(1.21704858 -0.002369101699 1.279800561e-16)
(0.8405628995 -0.01021903304 -1.187736752e-16)
(2.079298833 -0.2612148414 -2.009910706e-17)
(1.332716946 -0.1870684561 -3.995419748e-17)
(1.778731124 -0.1454842792 -1.129118901e-16)
(1.087623384 -0.09259896675 -4.980498672e-17)
(1.571759388 -0.08490805068 -7.265424021e-17)
(1.006838261 -0.05288690478 -1.425341346e-17)
(1.416492635 -0.04601782084 -3.440607681e-17)
(0.9721219676 -0.03470090303 -3.896655033e-17)
(1.298872647 -0.01843038217 4.11329363e-17)
(0.928887181 -0.02302651172 -6.381180902e-17)
(1.216807378 0.0003312457993 6.756033562e-17)
(0.8428639341 -0.008597936434 -8.252227984e-17)
(2.118745338 -0.08827503868 2.856898953e-17)
(1.360946816 -0.06369433319 1.783179983e-17)
(1.800763304 -0.04887916559 1.229606766e-16)
(1.101565523 -0.031607299 -8.012700009e-18)
(1.584619235 -0.02825053054 1.358394481e-16)
(1.014740233 -0.01818250554 -7.026975541e-17)
(1.423496043 -0.01500176738 1.361449541e-16)
(0.9771735829 -0.01210521519 -9.034276123e-17)
(1.301849022 -0.005642949547 9.715492334e-17)
(0.9319865465 -0.00813910743 -9.514467276e-17)
(1.21717896 0.0005719286317 1.115710187e-16)
(0.8436034475 -0.003027016109 -1.192455602e-16)
(2.118708832 0.08930426093 -3.394863956e-17)
(1.360981248 0.06270327703 -4.838597194e-17)
(1.800743505 0.04997747776 -6.353262441e-17)
(1.101632557 0.03056757089 -5.67062784e-17)
(1.584536964 0.02958351898 -4.562595434e-17)
(1.014899856 0.0168219011 -4.497677927e-17)
(1.423294473 0.0169301352 -2.042485808e-17)
(0.9774438081 0.01002744996 -3.810769731e-17)
(1.301540707 0.008506436584 1.766352723e-17)
(0.9322829437 0.005078214994 -3.461253783e-17)
(1.216873113 0.003248772983 3.241442362e-17)
(0.8437487556 -0.0009122949147 -3.880317477e-17)
(2.07919608 0.2621828986 5.46900729e-17)
(1.33277478 0.1861251727 3.64528707e-17)
(1.778635819 0.1465107667 8.734932944e-17)
(1.087763826 0.09162229287 1.579975281e-17)
(1.571496897 0.08612085295 1.381357633e-16)
(1.007212327 0.05164569685 -5.644847176e-17)
(1.415938422 0.04773059705 1.650586404e-16)
(0.9727552565 0.03282937653 -1.07390459e-16)
(1.298082168 0.02096419123 1.202761097e-16)
(0.9295574518 0.02023717135 -1.362162324e-16)
(1.216060055 0.003105821038 1.589379811e-16)
(0.8431816426 0.00490169944 -1.966306505e-16)
(2.002159141 0.422119013 -4.703887852e-17)
(1.278055816 0.3000844503 -6.214366665e-17)
(1.735797221 0.2355436863 -5.771436695e-17)
(1.060791644 0.1477077586 -8.07192334e-17)
(1.546419127 0.1381669079 -6.28863524e-17)
(0.991878403 0.08325301432 -6.140429216e-17)
(1.402189817 0.07640627359 -6.642027678e-17)
(0.9627654 0.05284450907 -2.963441481e-17)
(1.292373163 0.03361549507 -1.267114807e-17)
(0.9230645599 0.03220803722 3.687848035e-17)
(1.215796744 0.005451580375 -4.596255363e-17)
(0.8411621379 0.006857206351 5.157035949e-17)
(1.891530627 0.5607020334 1.310249815e-16)
(1.198989728 0.3990501395 3.946165688e-17)
(1.673960826 0.3128609761 1.336242157e-16)
(1.02184402 0.1967166328 -3.331716903e-17)
(1.510104233 0.183383313 2.283880502e-16)
(0.9700886761 0.1113440975 -1.003123183e-16)
(1.381989776 0.1008963379 2.475237539e-16)
(0.9492049272 0.07144844432 -1.58569767e-16)
(1.283241968 0.04325348136 2.028786376e-16)
(0.914981493 0.04480275036 -2.892886776e-16)
(1.214042368 0.004876191103 2.941957091e-16)
(0.8393400868 0.01193770431 -3.649230862e-16)
(1.752776975 0.671331546 -2.049376506e-16)
(1.100315969 0.4780386254 -2.102105965e-17)
(1.596789406 0.3744783902 -9.806633244e-17)
(0.9731426555 0.2355998735 1.656615016e-17)
(1.465007452 0.2193730289 -1.767538359e-16)
(0.9422782049 0.1332178677 -1.429727175e-17)
(1.35745033 0.1206999255 -1.118783886e-16)
(0.930913932 0.08522302888 8.541757976e-17)
(1.273332968 0.05202295958 -1.871176973e-16)
(0.9029241594 0.052931471 3.194287373e-16)
(1.214004524 0.006615292579 -2.653111597e-16)
(0.8353720732 0.01311246439 2.739139795e-16)
(1.592947321 0.7481793634 1.303949339e-16)
(0.9860630605 0.5328970843 -1.931868374e-17)
(1.507511819 0.4172569909 8.061520222e-17)
(0.9168297664 0.2628360734 -9.855956974e-17)
(1.412658415 0.2443196547 2.343834039e-16)
(0.9106605928 0.1490281892 -8.689281056e-17)
(1.328463646 0.1340292273 2.013512614e-16)
(0.9110831099 0.09601096813 -1.129781022e-16)
(1.260392758 0.05686993812 2.445636302e-16)
(0.8910228042 0.06061895664 -5.081202234e-16)
(1.211650286 0.005548379194 5.435425447e-16)
(0.8327751858 0.0167144954 -5.328578999e-16)
(1.419978066 0.7876133726 4.337784601e-17)
(0.862939093 0.5612812586 -3.88267691e-17)
(1.411267357 0.4392888017 1.661808739e-16)
(0.8560175566 0.2767969056 8.068035854e-17)
(1.356439665 0.2571809737 -1.543419016e-16)
(0.8758887349 0.1567570325 3.618575011e-17)
(1.297951463 0.1411757652 -1.445766557e-16)
(0.8881528702 0.1006389878 1.346626595e-16)
(1.248205471 0.06030892218 -2.362690177e-16)
(0.8757970886 0.0629883531 5.087213309e-16)
(1.211866718 0.006782967413 -5.248050564e-16)
(0.8274731302 0.01646434383 4.50651915e-16)
(1.242594024 0.7875079195 -1.403381416e-16)
(0.736157315 0.5611454662 8.463772928e-17)
(1.312268342 0.4390612146 -4.772899706e-16)
(0.7935181824 0.2768650375 1.806056733e-16)
(1.298473366 0.256918031 -2.602760447e-16)
(0.8407076406 0.1571796696 2.16391888e-16)
(1.265981516 0.1406568752 -2.37347266e-16)
(0.8659509678 0.1015560076 5.93908042e-17)
(1.234106263 0.05924178419 7.535109696e-17)
(0.8624034858 0.06443593485 -3.713772359e-16)
(1.209454233 0.005128890752 3.821534772e-16)
(0.824666653 0.01818742671 -3.215212914e-16)
(1.069675052 0.7479604061 4.391736479e-17)
(0.6129451727 0.5332863352 2.53747199e-17)
(1.215978795 0.4171513704 6.256035704e-16)
(0.7326116547 0.2630995642 -2.60696931e-16)
(1.242216983 0.2441333875 5.058432733e-16)
(0.8058471716 0.149151196 -2.897634985e-16)
(1.235472124 0.1338352813 2.932675192e-16)
(0.8429280616 0.09596453733 -5.363422537e-17)
(1.221959817 0.05688997662 -1.413317615e-16)
(0.8470350724 0.06033126015 4.960645047e-16)
(1.209784845 0.005938466431 -4.922684664e-16)
(0.8190600082 0.01627872172 5.671108727e-16)
(0.9098515552 0.6709157145 -1.723763123e-16)
(0.4987711963 0.4781953689 5.260973291e-17)
(1.126877521 0.3739891306 -8.508804044e-16)
(0.6763457949 0.2360094412 2.701092491e-16)
(1.1901155 0.2187496448 -6.81905949e-16)
(0.774136521 0.1341282366 5.735122815e-16)
(1.206813044 0.1196011725 -5.398722741e-16)
(0.8228560989 0.08686672288 2.764032647e-16)
(1.209408948 0.05012830124 -1.200913583e-16)
(0.8349373063 0.05532310922 7.10451018e-17)
(1.207676013 0.003991682954 -1.212827644e-16)
(0.816714315 0.01589011661 2.358362895e-17)
(0.7712265231 0.5602369656 1.369968954e-19)
(0.3998826071 0.3995814048 4.683657586e-17)
(1.049593866 0.3124520521 5.091691119e-16)
(0.6274013762 0.1972060541 1.317836287e-16)
(1.144942145 0.1828218762 2.028944456e-16)
(0.7460718594 0.1118916362 -7.192783166e-17)
(1.182357231 0.1001389947 1.635894159e-16)
(0.8042462274 0.07212054606 1.96426491e-17)
(1.199788092 0.04242442329 -9.098638738e-17)
(0.8223514339 0.04550896964 6.62949574e-17)
(1.208220126 0.004195346926 -1.120997537e-16)
(0.811740272 0.01263413805 1.855678363e-16)
(0.660598846 0.4214945052 1.664823257e-16)
(0.3209321935 0.3004805443 2.227423407e-17)
(0.9880148739 0.2349322422 -4.592234677e-16)
(0.5885422835 0.1483545882 -9.020116102e-18)
(1.108970615 0.1373900879 -4.325766571e-16)
(0.7241983284 0.08440621657 3.557745298e-16)
(1.162537953 0.07507206519 -5.630282766e-16)
(0.790461191 0.05479047821 3.831660379e-16)
(1.19097136 0.03139008756 -2.347499952e-16)
(0.8142397968 0.03503089757 2.751812789e-16)
(1.206396866 0.002393490614 -3.762164558e-16)
(0.8106696418 0.01031920139 3.593882433e-16)
(0.5837112931 0.2616099059 -1.041813617e-16)
(0.2659939896 0.1866651469 1.025088444e-17)
(0.9450430032 0.1459162892 2.103456132e-16)
(0.5612724399 0.09219085272 6.074534965e-17)
(1.083822136 0.08538142352 1.777655795e-16)
(0.7084795352 0.05239227124 -6.91976522e-17)
(1.149004287 0.04675700897 1.128584862e-16)
(0.779889371 0.0338732163 1.691185383e-17)
(1.185903759 0.01978872922 -1.146783051e-16)
(0.806768044 0.02149056716 7.739105665e-17)
(1.207305346 0.001938686485 -8.246095283e-17)
(0.8070285239 0.00623271926 8.2164641e-17)
(0.5441788082 0.0886228311 5.717464296e-17)
(0.2378755476 0.06322074058 5.597661976e-17)
(0.9231479111 0.0493980716 -2.068465723e-16)
(0.547521952 0.03128592245 1.005813318e-16)
(1.071062064 0.0289024114 -1.783752216e-16)
(0.7008416171 0.01790315967 1.351018732e-16)
(1.141862163 0.01580716538 -8.095921378e-17)
(0.7752694311 0.01175007266 4.099458761e-17)
(1.182386299 0.006617410047 -9.43428572e-18)
(0.8044848419 0.00767388414 3.303166765e-17)
(1.205844926 0.0005085767202 -4.538197161e-17)
(0.8077341423 0.00268301425 3.148634058e-17)
(0.5442446612 -0.08881159166 -7.079115667e-17)
(0.2378242203 -0.06324837185 -4.829272051e-17)
(0.9230136744 -0.04950128797 2.394598417e-18)
(0.5473454851 -0.03110103869 -3.679097866e-17)
(1.070916032 -0.02893170646 -3.668030288e-17)
(0.7005500483 -0.01750570613 -6.549895638e-17)
(1.141919774 -0.01580745805 -9.497635347e-17)
(0.7747455548 -0.01112561021 1.44531134e-17)
(1.182888399 -0.006634191057 -4.566192174e-17)
(0.8034762986 -0.006860507967 -6.327193248e-18)
(1.207001682 -0.0005169493629 -2.237462541e-17)
(0.8059928153 -0.001493871751 5.015373549e-17)
(0.5836364383 -0.2618067434 3.767350141e-17)
(0.2660546987 -0.1865585236 1.152491676e-16)
(0.9451052145 -0.1459188503 -5.362699016e-17)
(0.5614160832 -0.09196316478 1.74378882e-16)
(1.083871008 -0.08530060978 1.055017049e-16)
(0.7087159279 -0.05211795687 1.935698801e-17)
(1.148837814 -0.046567584 3.040018514e-16)
(0.7803348728 -0.03358383217 -1.362328128e-16)
(1.185294745 -0.01942401874 1.493486856e-16)
(0.8076556814 -0.0211798537 -1.754750743e-16)
(1.206069682 -0.001400899431 2.634311895e-16)
(0.8085011839 -0.005478086062 -3.662702923e-16)
(0.6606375905 -0.421670293 -3.414712918e-17)
(0.3209525975 -0.300606421 -1.632338934e-16)
(0.9878666694 -0.2351332447 -6.096766283e-17)
(0.5883750462 -0.1481975746 -2.370711925e-16)
(1.108784204 -0.1375343722 -9.450972084e-17)
(0.7238433183 -0.08389356373 -1.727492371e-16)
(1.162527084 -0.07526572993 -1.780685997e-16)
(0.7898095152 -0.05386837845 -1.162881498e-16)
(1.191386864 -0.03177351562 2.147384259e-17)
(0.8130855242 -0.03378037326 2.125550372e-17)
(1.207437862 -0.002909401493 -5.205916087e-17)
(0.8087803718 -0.008775314868 1.048662278e-16)
(0.7711585003 -0.5604265424 2.156385445e-16)
(0.3998793199 -0.3993543863 1.252846596e-16)
(1.049537984 -0.3123889489 2.483311636e-16)
(0.6274572512 -0.1969440348 1.766763356e-18)
(1.144853399 -0.1826759143 4.561080754e-16)
(0.7462374193 -0.1117158321 -1.758041862e-16)
(1.182055894 -0.09981497859 5.33934152e-16)
(0.8046346362 -0.07210835026 -3.354590101e-16)
(1.199048598 -0.04174114201 4.08185179e-16)
(0.8231383101 -0.04566158196 -5.703927757e-16)
(1.206900478 -0.003135810584 5.643852713e-16)
(0.8128819482 -0.01243213202 -7.482226154e-16)
(0.9098494602 -0.6710820406 -4.259765926e-16)
(0.4988870635 -0.4783491408 -8.926439093e-17)
(1.126763758 -0.3742443941 -2.509681742e-16)
(0.6762055565 -0.2358546617 -5.867467106e-17)
(1.189952688 -0.2189612164 -3.133316016e-16)
(0.7737011264 -0.1335502825 -1.044855047e-16)
(1.206813704 -0.1199163343 -1.797690397e-16)
(0.8220214026 -0.08578462836 4.88936258e-17)
(1.209840011 -0.05075293418 -2.562011132e-16)
(0.8335819283 -0.05381464499 4.407488242e-16)
(1.208684781 -0.004871605808 -3.406983375e-16)
(0.8147140838 -0.01408173073 3.299253784e-16)
(1.069618171 -0.7481212176 2.970004143e-16)
(0.6128284616 -0.5329997218 -8.9761333e-18)
(1.215784985 -0.4170822052 3.295213467e-16)
(0.7325413303 -0.2628466929 -1.832969821e-16)
(1.241966907 -0.2439915569 5.397894743e-16)
(0.805921577 -0.1490602589 -2.303415428e-16)
(1.235000953 -0.133468822 4.743330705e-16)
(0.8432652567 -0.09614497497 -2.600040037e-16)
(1.221021891 -0.05603667466 4.481078954e-16)
(0.8477515486 -0.06083309472 -7.995293216e-16)
(1.208286107 -0.00452523218 8.620084165e-16)
(0.819899649 -0.01664075134 -8.611181684e-16)
(1.242543451 -0.7876729376 -7.359735833e-17)
(0.7363403696 -0.5612496734 -1.013766262e-16)
(1.312199215 -0.4393061965 4.579765678e-18)
(0.7933942965 -0.2766830866 8.641564465e-17)
(1.298358108 -0.2571187575 -3.149907374e-16)
(0.8401878027 -0.1565966251 3.284423965e-17)
(1.266031881 -0.1409733679 -2.201836953e-16)
(0.8649298805 -0.100482689 1.277311702e-16)
(1.234601436 -0.0598972084 -2.501689413e-16)
(0.860853479 -0.06291134707 4.971613839e-16)
(1.210461239 -0.006103541309 -5.074136536e-16)
(0.8226157929 -0.01631727861 3.823053158e-16)
(1.419920848 -0.7877275032 -1.110966766e-17)
(0.8627071748 -0.5610160983 8.223640112e-17)
(1.410953874 -0.4392744752 -1.920893504e-16)
(0.8558231626 -0.2766145946 8.442588364e-17)
(1.356045223 -0.2571078366 2.463762635e-18)
(0.8758650041 -0.1567610267 5.409620159e-17)
(1.297327326 -0.1408485505 -1.3178198e-17)
(0.8884178223 -0.1009561911 -7.976876116e-17)
(1.247101015 -0.0594321803 2.178070247e-16)
(0.8764041986 -0.06373066389 -5.040073175e-16)
(1.210242826 -0.005224381132 5.235114141e-16)
(0.8279664819 -0.01731315904 -4.896432626e-16)
(1.592846422 -0.7483528529 -7.219670846e-18)
(0.9862402679 -0.5329014288 -2.170507878e-17)
(1.507449773 -0.4174429437 3.638364768e-16)
(0.9166900973 -0.262612648 -2.192451718e-16)
(1.412544917 -0.2444570639 2.886946063e-16)
(0.9100859287 -0.1484937734 -2.264371347e-16)
(1.328482332 -0.1342763251 1.665781928e-16)
(0.9099824998 -0.09507789843 -4.505882647e-17)
(1.260790374 -0.05743411422 -1.197468779e-16)
(0.889454082 -0.05926084293 3.64842225e-16)
(1.212418103 -0.006457753091 -3.64354295e-16)
(0.8308719741 -0.01494871832 4.067270733e-16)
(1.752695871 -0.6713941998 -9.230035673e-17)
(1.10001089 -0.4778607011 4.381932319e-17)
(1.596407367 -0.3745554771 -4.364911417e-16)
(0.9728565347 -0.2355360625 1.584951183e-16)
(1.464529226 -0.2193963567 -3.06953454e-16)
(0.9421421439 -0.1333341824 2.833223971e-16)
(1.356760068 -0.1204303978 -2.207773802e-16)
(0.9310271616 -0.08566331546 8.248666327e-17)
(1.272216422 -0.05115228526 1.242631642e-17)
(0.9032959791 -0.05388202628 -4.846060571e-17)
(1.212454286 -0.004963704609 3.851709386e-17)
(0.8354572008 -0.014442133 -8.601440381e-17)
(1.891382209 -0.5608925744 4.185337628e-17)
(1.199072154 -0.3989567891 1.870541241e-17)
(1.673841965 -0.3129769848 2.601957948e-16)
(1.021657449 -0.1964732844 2.081483543e-17)
(1.509911099 -0.1834473837 1.180258431e-16)
(0.9695292346 -0.1109169165 -4.914391376e-17)
(1.381844501 -0.1010617429 8.833608014e-17)
(0.9482146329 -0.07075006004 8.853834903e-18)
(1.283314741 -0.04371303542 -4.652908801e-17)
(0.913649338 -0.04370902135 7.906497231e-17)
(1.214297798 -0.005726617457 -9.998221736e-17)
(0.8377426655 -0.01032110487 1.493245595e-16)
(2.002026775 -0.4221459256 8.267913476e-18)
(1.277742257 -0.300020652 3.547063025e-18)
(1.735402223 -0.2357193504 -2.348735635e-16)
(1.060463702 -0.1477788746 2.796909366e-17)
(1.54591275 -0.1382917465 -2.107629851e-16)
(0.9916251419 -0.08349011922 1.581390713e-16)
(1.401496829 -0.0762085124 -2.316292479e-16)
(0.9626540597 -0.05340132127 1.498610228e-16)
(1.291347453 -0.03278974067 -9.948856047e-17)
(0.9231057751 -0.03333415402 9.865566273e-17)
(1.214428139 -0.003785659149 -1.299724208e-16)
(0.8408913363 -0.008619136488 1.21007649e-16)
(2.079004634 -0.2623985663 2.040060408e-17)
(1.332692419 -0.1859870387 3.990607041e-17)
(1.778399981 -0.1465902861 1.133490588e-16)
(1.087517352 -0.0914030226 4.951747453e-17)
(1.571148914 -0.08614371332 7.301816707e-17)
(1.006754187 -0.05135811801 1.395544565e-17)
(1.415520435 -0.04783501094 3.459257558e-17)
(0.9720649842 -0.0323931109 3.881946384e-17)
(1.297671482 -0.02132659481 -4.110164998e-17)
(0.9286775776 -0.01944717252 6.383082669e-17)
(1.215655187 -0.00389159429 -6.769637405e-17)
(0.8419627259 -0.003509271851 8.267273063e-17)
(2.118506516 -0.08933323789 -2.868947645e-17)
(1.360719436 -0.06273627641 -1.761067913e-17)
(1.800375163 -0.0502401101 -1.23296433e-16)
(1.10132 -0.03075231036 8.483387855e-18)
(1.584032933 -0.02981599281 -1.362257181e-16)
(1.014562274 -0.01716876127 7.082386822e-17)
(1.422619662 -0.01685813628 -1.365252649e-16)
(0.9771070832 -0.01068339859 9.086180455e-17)
(1.300646956 -0.007846058177 -9.751050783e-17)
(0.9319708094 -0.006310056569 9.557850459e-17)
(1.215750142 -0.00177372562 -1.119191605e-16)
(0.8431594592 -0.001100789032 1.196985872e-16)
(2.118516446 0.08802366526 3.386843626e-17)
(1.360672842 0.06379484164 4.815990512e-17)
(1.800383031 0.04876083316 6.357358507e-17)
(1.101262125 0.03175871989 5.638565324e-17)
(1.584080492 0.02817819642 4.564568821e-17)
(1.0144355 0.01835502359 4.470786322e-17)
(1.422753074 0.01485221804 2.040785794e-17)
(0.9768848852 0.01236675735 3.797138791e-17)
(1.300876722 0.005257571009 -1.776762583e-17)
(0.9316831066 0.008704834124 3.467432478e-17)
(1.216028816 -0.001378926588 -3.258376379e-17)
(0.8428785389 0.004131419636 3.895923296e-17)
(2.079028725 0.2611331951 -5.438076858e-17)
(1.332535389 0.1869857488 -3.622721093e-17)
(1.778407934 0.1451574638 -8.699620105e-17)
(1.087364036 0.09235274166 -1.573773533e-17)
(1.571274928 0.08457258205 -1.375964096e-16)
(1.006465418 0.05246295312 5.617856146e-17)
(1.415851333 0.04593165088 -1.642531364e-16)
(0.9716150764 0.03396025807 1.066154691e-16)
(1.298142686 0.01886823653 -1.189566694e-16)
(0.9282546061 0.02172053193 1.347471537e-16)
(1.216007394 0.0008548454818 -1.571186681e-16)
(0.8419290043 0.006475338662 1.946197667e-16)
(2.002047251 0.4209689433 4.659495619e-17)
(1.277523854 0.3009071235 6.179244116e-17)
(1.735403801 0.2343786613 5.734024244e-17)
(1.060225994 0.1486080608 8.044579473e-17)
(1.546094691 0.1368639544 6.2533003e-17)
(0.9911326762 0.08440262328 6.126761771e-17)
(1.402022775 0.07456322516 6.614210058e-17)
(0.9618395634 0.05465344137 2.966071897e-17)
(1.292173232 0.03073597931 1.235153979e-17)
(0.9222117095 0.0351722711 -3.663241698e-17)
(1.215217608 0.001254736623 4.559395884e-17)
(0.8404071953 0.01110600729 -5.119858136e-17)
(1.89137417 0.5598320179 -1.303668513e-16)
(1.198801725 0.3996835636 -3.928041516e-17)
(1.673799174 0.3117579357 -1.326827266e-16)
(1.021389733 0.1971545569 3.301345364e-17)
(1.510095919 0.1821924141 -2.270812532e-16)
(0.9689891667 0.1116238737 9.934169483e-17)
(1.382427705 0.09967823251 -2.457422437e-16)
(0.947354104 0.07171357905 1.56755816e-16)
(1.284175425 0.04198641873 -2.003441784e-16)
(0.9128265351 0.04524651897 2.864565543e-16)
(1.214948829 0.003483956905 -2.90743798e-16)
(0.8376274584 0.01264232777 3.610797807e-16)
(1.752624876 0.6704775704 2.042528643e-16)
(1.099760792 0.4784034561 2.061745528e-17)
(1.596301399 0.3734904207 9.73670655e-17)
(0.9725855444 0.2360178948 -1.677686828e-17)
(1.464669778 0.2183748879 1.761097499e-16)
(0.9415289942 0.1337227718 1.427505323e-17)
(1.357355126 0.1194623081 1.113954352e-16)
(0.9300106909 0.08610671696 -8.532471701e-17)
(1.273164304 0.05007839178 1.867938529e-16)
(0.9022701434 0.05470406431 -3.192416513e-16)
(1.213239863 0.00353922922 2.649318862e-16)
(0.8351661145 0.0159860473 -2.734840625e-16)
(1.592681347 0.747582526 -1.295187609e-16)
(0.9860323091 0.5332373078 1.942914708e-17)
(1.507232724 0.4165293518 -7.925674103e-17)
(0.9164925355 0.2629122915 9.794130202e-17)
(1.412571052 0.2436450372 -2.325537224e-16)
(0.9096023636 0.1486487829 8.546238918e-17)
(1.328913906 0.1336134711 -1.990267221e-16)
(0.9092002134 0.09520695732 1.106656104e-16)
(1.261447617 0.05672790367 -2.415923145e-16)
(0.8888209146 0.05975971223 5.049151003e-16)
(1.21272961 0.005347151091 -5.397796514e-16)
(0.831151246 0.01630589335 5.286806672e-16)
(1.419625497 0.7871055188 -4.419635924e-17)
(0.8626163396 0.5611598154 3.845980263e-17)
(1.410606695 0.4385274863 -1.670921564e-16)
(0.855719374 0.2767040349 -8.076751445e-17)
(1.355910125 0.2565336175 1.535300913e-16)
(0.8754686872 0.1565847485 -3.611703185e-17)
(1.297558196 0.1405959219 1.440907562e-16)
(0.887734315 0.1005474564 -1.34642407e-16)
(1.247538998 0.0593754238 2.36130499e-16)
(0.8758822787 0.06348671198 -5.08824372e-16)
(1.210354746 0.004942337214 5.248996376e-16)
(0.8283582219 0.01785941374 -4.508259543e-16)
(1.242098543 0.7871749453 1.412791605e-16)
(0.7363833051 0.5612062111 -8.463514154e-17)
(1.311687989 0.4386871005 4.788036013e-16)
(0.7934605402 0.2766250237 -1.814181907e-16)
(1.298006641 0.2567068758 2.622592079e-16)
(0.8400796129 0.1562686748 -2.179883165e-16)
(1.265899785 0.1409285938 2.39694438e-16)
(0.8647284072 0.09990007187 -6.166905655e-17)
(1.234452397 0.06005552274 -7.256661853e-17)
(0.8610119045 0.06250708616 3.68445899e-16)
(1.209790857 0.005969191568 -3.788327809e-16)
(0.8237746095 0.01677943977 3.179515581e-16)
(1.06899841 0.7477291961 -4.471313284e-17)
(0.6130609601 0.5328156409 -2.562510337e-17)
(1.215095338 0.4165937518 -6.265125788e-16)
(0.7327741114 0.2626334922 2.6075016e-16)
(1.241371227 0.2437405984 -5.066292186e-16)
(0.8060256921 0.1485012488 2.899083346e-16)
(1.2345176 0.1336797031 -2.93681645e-16)
(0.8433598034 0.09519188846 5.359815637e-17)
(1.220439163 0.05661657176 1.413721919e-16)
(0.8482487442 0.0598946395 -4.963665425e-16)
(1.207198669 0.004973647945 4.927104417e-16)
(0.8213361479 0.01647483972 -5.677620874e-16)
(0.9090696598 0.6707509726 1.731778962e-16)
(0.4993009619 0.47805426 -5.270091773e-17)
(1.12590509 0.373822405 8.522166104e-16)
(0.6766526869 0.2355834129 -2.709788282e-16)
(1.189109296 0.2187639515 6.836490914e-16)
(0.7741576128 0.1330010863 -5.749996638e-16)
(1.205891047 0.1201319607 5.41911808e-16)
(0.8226924375 0.08491630001 -2.784372269e-16)
(1.208558541 0.05124849612 1.224807707e-16)
(0.8348647166 0.05301513711 -7.355128303e-17)
(1.206710218 0.005151355711 1.240803536e-16)
(0.8169858713 0.01403799442 -2.658929382e-17)
(0.7702009453 0.5601354378 -7.32219622e-19)
(0.4005053053 0.3990031208 -4.693787936e-17)
(1.048492452 0.312032237 -5.099024059e-16)
(0.6280928481 0.1966092134 -1.315398142e-16)
(1.143755732 0.1825184647 -2.035739641e-16)
(0.7469455553 0.1110998815 7.222506108e-17)
(1.180764456 0.1000534835 -1.639549161e-16)
(0.8056575591 0.07114076879 -1.952631064e-17)
(1.19731099 0.04230978947 9.096444865e-17)
(0.8248017198 0.0446661271 -6.646816261e-17)
(1.204507091 0.00361288882 1.123657076e-16)
(0.8154070893 0.01205393131 -1.859210417e-16)
(0.6595770002 0.4213676084 -1.659488272e-16)
(0.3217337874 0.3002438534 -2.244040556e-17)
(0.9867113765 0.2347766566 4.601568604e-16)
(0.5891887027 0.147909303 8.249181764e-18)
(1.107499411 0.1373140238 4.337651382e-16)
(0.7248401329 0.08345688549 -3.569324975e-16)
(1.160876081 0.07529887848 5.643515804e-16)
(0.7913054273 0.05324481584 -3.845977177e-16)
(1.189067216 0.03196556004 2.363835476e-16)
(0.8154009627 0.03321737846 -2.769744144e-16)
(1.204308003 0.002927293177 3.781258148e-16)
(0.812010912 0.008724387516 -3.615059126e-16)
(0.5824413538 0.2614833533 1.03899324e-16)