/*--------------------------------*- C++ -*----------------------------------*\
| =========                 |                                                 |
| \\      /  F ield         | foam-extend: Open Source CFD                    |
|  \\    /   O peration     | Version:  3.0                                   |
|   \\  /    A nd           | Web:         http://www.extend-project.de       |
|    \\/     M anipulation  |                                                 |
\*---------------------------------------------------------------------------*/
FoamFile
{
    version     2.0;
    format      ascii;
    class       volScalarField;
    location    "43";
    object      Theta;
}
// * * * * * * * * * * * * * * * * * * * * * * * * * * * * * * * * * * * * * //

dimensions      [0 2 -2 0 0 0 0];

internalField   nonuniform List<scalar> 
3012
(
-2.49569
1.82307
4.03202
-0.409968
29.6772
11.5301
-23.0698
-5.62275
-2.70061
3.37103
-3.06767
3.3849
1.01651
-0.703371
2.50113
0.815986
-23.0381
-25.8676
20.029
24.5991
1.06719
0.0378668
1.6967
0.963032
3.85447
-1.51815
4.52786
-1.65867
-1.49564
3.82728
-0.126515
2.34871
0.487465
2.82318
-0.858917
1.42667
0.997612
7.64554
-5.82285
0.126605
0.983178
3.11912
1.12467
-1.02501
1.01959
0.989187
-1.13133
3.11818
0.44844
1.2211
0.561272
1.20757
-4.17253
1.72989
1.34697
6.87102
-3.4474
-15.2593
0.556404
12.5393
-15.8182
14.3659
23.7225
-6.16857
0.942159
-1.69433
4.08158
1.40524
1.72586
0.929535
1.12066
0.273774
2.21539
0.961686
0.135773
-0.428784
-0.749682
2.73124
1.7065
0.294495
0.902805
-1.49857
1.15816
3.53584
2.83415
0.703719
1.12517
-0.797163
-0.365337
4.07061
-1.77612
2.7248
3.0199
-1.62181
0.0503699
4.06358
-6.11054
4.17171
-3.81388
6.13622
4.14265
2.09212
0.274216
-1.8275
3.39189
-0.983716
3.23183
-1.07645
2.1303
0.923254
-0.293825
1.06167
-1.04336
3.31722
1.12003
1.17445
2.45551
0.0973786
2.36411
0.182931
-0.738101
-0.10189
0.983989
2.562
5.87503
-9.875
7.06766
-8.89887
29.8663
-32.4739
3.53134
-4.93169
-4.49061
2.87849
12.6536
4.38722
-16.8462
12.7469
25.9992
-7.59086
9.39587
-2.0623
-5.42468
4.95883
7.04796
9.83309
-4.55374
-3.46948
5.17302
-26.5461
-5.98857
23.2763
0.237272
-0.60168
1.72043
2.69427
2.50365
3.56494
-1.38628
-0.261973
2.51182
-0.396805
1.94408
0.114337
-0.95207
-9.46484
3.18812
11.9301
0.465939
3.01829
-1.09701
1.41209
9.67261
10.1419
-9.33902
-10.7087
-8.01599
11.6844
18.3728
-11.6429
-9.10371
4.87626
9.04426
-4.56879
3.42234
-1.61
-1.13354
4.12919
-0.16012
2.63261
2.13354
-0.73683
2.32878
-0.218259
2.07194
-0.00728818
2.17128
3.12045
-1.0207
-0.00314501
0.878464
-0.46256
0.780535
2.0971
1.20341
4.5024
-2.11371
1.35216
1.37179
1.15722
1.1997
0.333287
1.14642
1.76835
-0.0887152
0.965318
3.0114
1.32961
0.500862
-1.02394
0.150174
1.05851
0.886872
0.334146
0.14839
-0.270617
1.38357
1.95071
0.930463
1.98769
0.968483
-0.511628
1.01096
-0.194394
1.38992
0.0742754
2.84335
2.2102
-0.380613
-1.0796
2.33708
-0.925906
3.15358
-0.118575
-0.287658
3.27127
2.53731
-0.822839
1.58782
-1.72658
0.623142
3.98857
-1.89456
4.13641
3.82377
-1.47013
5.99169
2.17597
-1.75759
1.14539
1.25117
2.2623
-0.0944343
-0.75581
0.694426
-0.0787279
0.629438
1.62801
2.14509
-0.475778
-1.02575
2.74554
1.32565
4.16607
0.981143
-1.83042
1.55483
-1.20246
3.20205
0.360906
-5.42666
2.39729
0.376882
8.56434
0.896998
1.49262
0.183095
1.04382
20.5903
-18.7317
-23.8148
16.1232
-21.255
28.2076
8.02013
-2.07057
-0.480908
-1.94969
2.79419
4.30124
3.00169
-0.688782
-1.72402
4.28206
2.01837
-1.31268
3.3921
-0.156541
-0.880336
-1.15275
1.43426
0.797217
5.58064
-1.43265
-3.96649
2.60962
3.30893
3.72446
-1.12202
-0.777033
0.469073
1.39186
0.384915
1.4267
0.00331502
-0.868582
2.05838
3.04366
-4.384
-0.64034
3.62845
9.01666
2.52974
0.332213
1.68299
-0.567985
1.99955
0.087712
2.23796
-0.203564
1.18454
0.647654
1.40406
0.155162
-0.226417
3.51326
-1.2854
2.05018
1.13476
3.49076
1.22339
-1.13232
0.796375
1.86684
-0.253766
0.0269936
0.787037
0.272197
1.79958
1.16734
-0.652147
2.52761
2.86986
-0.360544
0.149157
3.31076
-1.21041
1.94219
0.161271
2.26592
-1.69517
0.682963
-3.00805
4.04652
6.4148
-0.247028
1.92056
2.0692
-0.222478
-0.174892
-0.386304
0.550017
0.813
1.64466
-0.108651
-1.46463
3.61891
2.1257
4.021
-1.95681
-1.11719
5.21971
3.20446
-1.96343
-2.22689
2.70049
-1.13889
2.34607
-0.228762
3.25536
2.32753
-1.04086
-0.772599
1.84023
0.910845
-1.15418
1.42434
3.38718
-2.92382
-4.72708
10.1869
9.92172
1.70122
-3.0949
1.43239
6.49068
-13.5619
8.79116
-11.4236
10.3799
-0.963842
-0.553929
3.53734
2.89585
1.56652
-0.294303
0.69815
1.77909
-0.255763
2.49056
0.750631
0.996512
-1.62532
-0.138535
2.36187
3.91121
-2.08914
1.35342
3.82626
0.171705
-2.60963
2.61275
4.50019
-0.495523
-0.137716
-0.245761
1.79859
-0.136601
5.9658
0.466877
-3.73125
1.45709
1.21314
1.29837
1.32881
0.678168
-33.6627
6.1208
-9.49968
31.173
5.63519
2.27911
0.356914
-2.6758
1.22072
1.1061
0.570249
0.497045
11.5671
9.25986
-5.09205
-5.45329
2.6807
5.4862
-2.35441
-0.106698
1.84272
0.324602
0.180741
1.56322
-1.50201
-2.26838
4.97347
4.21758
0.975623
-1.53211
0.858758
3.59133
-22.9029
12.4524
-13.4176
23.5988
1.82904
2.04362
-0.419477
-0.257582
0.808431
-0.718727
1.06948
2.63365
-0.634606
2.32317
1.86052
-1.09227
0.27156
3.2837
-0.996118
1.68049
-25.5783
-25.2502
21.0602
22.7948
0.00601539
2.91772
2.38371
-0.683718
5.7849
0.0323196
3.25403
-2.84602
-0.320407
2.47695
-0.371951
2.4874
-0.0472558
2.16754
-0.178466
1.94452
2.93484
0.54467
-1.10502
1.47469
24.8507
-23.9856
-5.61946
6.44861
4.42385
3.44906
-1.90303
-1.11665
4.46678
0.579667
1.74002
-2.24761
0.19496
2.40657
-2.79984
5.53883
0.946777
-1.15315
3.12595
1.33908
2.29946
2.72173
-0.762541
-0.407161
0.532815
1.84241
-2.39459
4.89316
0.0314035
2.17773
-0.917706
2.97582
0.137971
-1.02156
1.34391
2.5018
1.00167
-0.273088
0.0537239
2.05673
3.58402
2.51849
-0.403404
-1.50039
1.19555
-0.525247
0.313978
2.21695
0.299984
0.995993
1.01007
1.67473
-19.3393
30.5373
-33.2779
16.4705
0.6828
1.97853
-2.40335
5.1985
3.92953
2.2335
-1.70133
0.122476
-0.317249
5.8159
-2.13513
4.79878
-16.0564
20.6604
-10.3567
13.6712
7.05385
-21.6936
-1.63415
27.9499
-1.96859
2.08977
3.61294
-0.569273
-0.371135
3.33562
2.31852
-1.14483
-4.03361
3.74054
-1.65734
6.20515
1.42032
-0.794867
0.21243
2.92849
0.154958
1.60106
0.423653
1.16932
-3.02638
2.62541
3.8879
-1.73048
1.59374
2.84441
-0.832716
0.926372
1.13077
0.945597
0.478929
0.902388
2.70046
0.0485413
1.56707
-1.11503
17.8523
-0.792853
7.93905
-10.8535
-2.74963
3.6952
-0.489001
5.5851
-3.53472
-4.26705
6.68067
8.1338
-5.21218
6.23363
-3.17127
10.8482
3.37816
-16.3863
13.0148
-5.43218
14.1241
-1.77933
8.54728
-5.64155
-6.10392
6.5378
4.37049
-3.91868
1.32443
1.43829
0.0819671
0.150851
-0.45854
5.40786
-2.72884
3.16296
-24.2482
-3.62191
24.0695
4.20464
-1.563
3.59058
-0.370522
2.42252
5.58748
-2.76073
3.17128
-0.357607
0.666869
1.32572
1.07946
0.662579
4.57014
2.14592
-2.07525
0.298242
1.35904
0.0262648
0.233315
0.515203
-17.7637
-20.1901
18.4521
20.4158
2.14657
4.13954
-1.64817
0.167472
3.67469
-1.18293
-0.837225
3.71431
2.93185
0.621662
1.55115
-0.399206
3.45977
2.89562
-1.18259
-0.767446
1.80473
-1.16618
0.598458
3.63908
0.420112
2.21932
1.66793
-0.339172
-12.1896
16.26
13.1454
-16.2101
0.417107
3.91799
1.12199
-2.71269
-2.89714
2.9252
5.22572
-0.292172
-2.3363
-4.12711
2.9446
4.97486
2.11045
-6.40547
9.12362
0.447603
0.460951
-3
4.50779
1.50795
0.822413
3.20263
7.49876
-3.98346
2.15034
-0.0690279
2.58717
-0.314612
2.69903
2.11606
-0.215939
-0.734729
-1.86655
1.7639
6.50361
1.74226
1.79823
-0.308687
-0.556062
2.02214
-2.44068
3.14358
5.85087
-0.177855
2.96225
0.0648988
1.6949
-1.00479
4.90529
0.447706
2.29821
-2.29157
3.76285
1.1798
-2.05188
0.767617
0.0907582
2.13335
-1.99015
4.23722
-0.422651
0.623628
2.62294
1.42647
1.47754
1.77396
2.76049
-0.336988
3.90605
-1.01123
-1.43563
3.34845
2.17839
-1.26487
2.58002
-0.724192
0.87112
4.66469
1.51169
-2.19692
-1.28503
3.16711
2.58104
-0.628955
3.13997
-1.25445
1.35215
0.312889
-1.11703
3.09918
3.30941
-0.752593
0.815946
1.5218
3.39917
-1.19632
-0.458017
0.145488
2.40153
2.1348
0.589487
1.28653
-15.0669
16.5596
-0.440085
3.16812
2.28364
-1.10533
-4.34404
5.14811
6.54328
-5.92141
3.5342
-10.8372
-2.77582
10.7278
2.7808
0.655164
-0.550881
1.32795
11.7102
3.43632
-4.33844
3.42176
2.43568
0.640449
2.63213
6.87013
-0.224302
9.17673
2.43254
-7.53619
-2.8207
3.52481
5.33254
-1.03966
0.86271
0.471594
0.8306
1.18544
1.10974
0.663794
0.990385
0.506102
-5.80096
0.968901
5.92553
-0.506199
2.48181
1.85087
-0.58038
0.328615
1.59369
-0.322854
0.0390512
2.01152
-2.38613
-0.218085
7.28573
8.77675
1.49982
-3.94585
1.59256
7.31621
-1.96813
3.09518
4.7511
-0.466791
-3.72689
6.9048
-0.658054
4.06615
3.09934
2.00277
0.0692655
-0.935691
-0.567814
2.93405
-0.667421
3.0113
1.48891
-3.90697
0.177458
5.69676
2.64379
-0.0848357
-0.83158
1.54418
1.09604
-1.19364
3.40875
0.838638
4.49707
-2.23812
0.839362
1.33447
-1.30667
0.79575
0.287149
2.31794
2.98905
-0.808108
-0.741478
2.89737
1.5121
0.652499
3.2897
-1.02273
0.0396716
-0.976497
2.58711
1.48939
0.371161
1.56131
2.25528
-0.308577
1.2176
-0.297241
1.09073
2.41221
-2.41261
3.99009
-1.88927
4.48865
2.98384
1.07157
0.534928
-1.17176
-1.37599
3.47695
2.7737
-0.627505
2.02867
-0.805411
-0.234787
2.52051
-0.628236
2.77414
-0.0627135
1.92662
3.67419
-1.58026
-1.4529
3.73813
3.08771
-2.26944
-0.478865
4.89015
1.87311
-1.36429
0.186819
3.5925
3.26139
2.08143
0.0757146
-1.13978
-0.765077
2.91469
1.29641
0.976453
3.83245
2.22174
-0.131107
-1.80896
10.9394
2.09361
-5.59042
2.11113
-1.10924
1.07617
-10.9005
10.7838
5.1386
0.599848
1.74513
-2.85467
1.08396
2.17978
0.562139
-0.481737
0.848298
-0.401958
2.28611
0.894814
1.39967
-0.84334
3.03958
0.666193
-4.3482
5.75381
3.99579
-2.53034
4.65812
-6.82613
-11.1068
9.06165
1.11039
2.11287
0.643712
-0.357284
1.07473
-1.44425
1.24925
3.70911
0.463877
2.52253
1.50031
-0.490118
-1.21199
2.27119
3.55647
-0.0550108
-0.435183
2.77205
2.29138
-1.03369
-0.182899
2.23301
-0.0979352
2.06114
19.6352
-11.2335
-4.90933
10.7278
-1.2214
0.148931
3.52855
2.14456
2.66751
-0.265885
-0.422296
2.43064
3.78079
-1.53605
3.20701
-1.27799
3.12624
-0.6127
2.94082
-0.631361
2.6202
1.29804
-0.652867
0.649641
1.09871
3.35756
1.11295
-1.13899
4.15457
-1.68134
0.417693
2.22742
3.34805
-1.00947
2.5627
-0.305012
-0.00656594
1.13523
0.654569
1.79596
1.18654
3.98586
1.18564
-1.66902
3.54351
-1.38189
0.542138
1.6048
3.33411
-0.954998
4.36677
-1.99456
-3.65219
-2.98331
4.15835
4.88322
-0.574629
3.82334
2.83328
-1.57856
-0.155958
2.1958
1.65373
0.233737
-0.192311
2.27339
0.865116
1.1677
-0.449072
3.58244
-1.78231
5.65337
0.449679
2.15598
1.33601
-0.267637
2.98949
-0.770576
2.52687
-0.207363
5.53331
3.29383
-3.29271
-0.98121
4.286
3.16803
-2.04102
-0.975348
-4.49967
11.6108
-13.3739
2.12805
3.43092
1.62059
0.550145
-1.16494
0.424508
0.373053
0.603965
0.691524
0.351389
0.3106
0.971393
1.17056
0.496782
0.345591
0.193211
0.720681
1.16564
-1.50954
1.10233
3.83827
-0.918849
0.33635
0.566358
1.85531
1.53386
-0.064902
-0.737903
0.796475
1.598
0.31577
2.73164
-0.750579
-6.73902
2.99576
7.16637
-2.10361
2.4975
-3.16345
8.50396
-8.56271
1.91266
0.582578
1.13338
-0.106535
5.41942
0.131642
3.46577
-2.58776
0.221146
1.63934
0.303945
1.32395
0.440831
3.04971
1.75486
-0.962709
0.816107
1.09216
0.719124
0.900627
2.96969
1.40613
0.820796
-0.998904
1.54945
0.51449
0.283966
0.974813
-0.597566
-2.40093
3.25951
5.17253
3.44169
-2.21962
3.45708
-2.2061
1.50729
0.753882
0.274601
1.05685
1.32106
5.47554
1.33419
-2.79063
1.80849
-0.715305
-0.00227542
2.64832
2.16404
-1.81464
0.792188
5.1534
-1.53831
-0.63714
4.17387
5.74757
-0.525436
2.39095
0.641098
1.48402
2.18408
-0.0399454
2.05827
-0.0662448
5.28658
-0.942208
4.21753
-1.13674
2.7722
5.16869
-4.28985
-7.13653
4.7564
-2.32682
2.74495
-0.360415
2.00498
-0.776477
0.148968
2.72923
3.1039
0.647548
1.74707
-0.87342
2.51442
0.520493
1.45709
-0.649411
2.16887
0.106249
-0.184813
1.93916
-1.23048
2.04077
3.62648
0.288652
-18.3426
17.6179
17.1316
-19.3999
3.43158
-0.510866
-1.30699
2.99607
1.91469
-2.45108
-0.807967
3.38278
0.823254
0.949728
0.950232
0.593906
-0.547428
0.91027
-1.43721
2.0258
4.66198
-1.44317
-1.72033
4.60444
-0.117153
2.73154
-0.657151
2.13518
5.43398
0.378095
2.20218
-2.72439
0.152527
1.63455
0.189914
1.27638
2.9312
-0.639333
-2.07744
1.68773
1.79408
-0.812539
2.68851
0.109055
-1.90547
4.24317
-0.510498
2.82699
0.278135
1.31676
0.0894863
1.33669
-1.37916
4.83607
-2.0583
4.25801
1.54457
0.653649
1.19985
0.398836
0.213356
1.89738
2.55202
-0.602272
1.33428
1.81108
0.555741
0.11873
-0.991119
0.979353
0.692234
2.89688
-0.769586
-1.66014
4.11784
3.11369
-0.132337
-0.136478
1.4856
1.60893
0.0675737
1.23935
1.4853
0.282323
2.04539
-0.199841
0.30373
0.971154
-1.79037
0.506892
0.00266409
2.42007
2.84141
5.35139
-2.14836
0.501046
19.5895
-12.788
11.3827
-6.18884
2.25293
0.76953
-0.402742
0.533814
11.4539
-20.8492
27.9809
-5.18377
-4.72589
-0.972109
8.85964
4.93547
3.06908
-2.53672
-0.10566
5.11425
1.3618
0.255254
-0.996423
2.6702
1.04324
1.06538
-0.45793
2.62345
-0.0362604
1.48584
1.82742
-0.178915
0.590319
0.453553
1.42834
1.26924
1.56069
0.836885
0.133914
0.886929
2.17249
-0.0730663
5.38325
-2.02419
1.63028
1.93305
-0.0765475
-0.259857
3.31448
-1.03695
-0.921339
3.37863
9.72536
22.0734
-15.518
-3.79284
-2.17927
3.54358
3.80943
-2.37076
-23.7317
11.9542
21.1611
-16.2721
5.01538
2.5146
1.91377
7.3274
3.06659
-0.707462
2.77294
-0.816928
0.273162
-2.47422
2.7168
5.29722
1.74275
-1.26178
2.32351
-0.648935
1.71041
-0.762651
2.86227
0.565745
-1.15015
3.4879
0.40846
1.81678
0.0979743
1.32633
0.43454
1.201
-1.514
4.37138
-1.90298
4.56697
0.00217121
0.485204
1.32437
1.07901
-1.9146
3.99462
-1.47881
4.62402
1.99862
-0.596562
2.58534
0.11352
1.98077
-1.92808
4.36924
0.312307
3.37118
3.80515
-1.16395
-1.53914
-0.393766
0.600321
2.48391
1.4127
0.967205
0.386145
-0.807944
2.20866
4.83091
1.94249
-2.91886
0.270485
3.16131
1.34104
-1.08492
0.720138
2.51176
-1.93317
3.29528
-0.836641
5.73747
-4.43152
0.0105031
1.27904
3.47026
0.613563
1.57992
-1.50337
1.54963
-0.750073
-2.31123
3.35559
0.197403
-0.226905
1.82791
2.30635
-24.2423
-3.98769
21.181
2.62857
2.63455
-0.479253
2.12265
-0.072959
0.958339
0.699151
1.77968
-0.0238757
0.374569
0.0550517
1.38844
1.68773
0.902304
-0.444762
2.60598
1.14159
1.95361
0.30897
2.54883
-0.444851
0.351361
0.768974
1.24315
1.34981
-21.4366
16.3877
-13.3645
21.9789
0.416881
0.305893
1.3034
1.08881
1.37881
-0.0893072
-0.158913
1.81056
1.41161
0.311196
1.6282
0.751774
0.19711
0.607835
1.30895
0.750395
0.326093
2.01723
1.82413
0.158947
-0.184069
1.37692
2.11996
0.419445
-0.745481
2.35548
3.06199
-0.207301
0.410378
0.351041
0.891123
1.0317
1.0678
0.806653
2.88342
-0.755801
-1.68599
-2.34063
6.30083
6.75322
-0.647535
-0.136252
2.26204
2.75762
0.957179
-2.15741
4.76827
1.22444
-1.32868
0.198644
2.01945
3.39109
-0.112645
1.88283
0.207433
1.12639
-0.986546
3.1744
0.814116
1.52832
1.82793
-0.174754
0.785307
0.647127
-0.373985
2.89198
-1.12416
2.06431
1.7436
0.00846909
-1.12517
3.00261
-0.483494
3.44785
-0.983489
2.83097
-2.29355
0.847624
1.62289
4.79305
-5.19197
-25.0005
5.72674
26.6803
0.107289
-0.098266
5.09504
4.85181
3.89254
-1.7166
-0.302876
2.14475
5.3378
2.42556
0.656212
-2.69993
3.15043
3.62979
-0.930152
-1.44431
-1.01272
2.8992
2.30982
5.65647
2.97147
-3.44167
5.08038
-1.52417
0.275889
2.54604
-2.1758
5.44109
-0.860465
-0.483037
2.75499
0.744823
1.88172
0.703928
1.28492
0.204719
-1.57752
1.40783
-0.664006
2.15414
-2.67944
1.70644
1.24559
6.16166
-0.624182
2.26939
0.750976
0.8678
3.39731
2.94654
-1.29164
-0.996709
-0.82596
3.12408
1.95405
0.426919
1.74529
-4.17936
-0.530096
5.41236
-1.4754
-0.515539
3.56314
2.91172
2.43086
-0.108102
2.07121
-0.436676
2.25533
-0.73378
2.86962
-0.50588
-0.596346
1.71224
0.704317
2.9322
1.77728
-0.748761
0.209186
2.71944
3.6567
-1.56712
0.504197
1.53818
5.4054
-1.54456
-1.50116
4.92658
-0.324789
-0.380977
2.33761
2.46018
1.64639
-0.74589
2.89249
0.345046
-1.14892
1.80268
3.57758
0.491167
-1.02802
-2.12865
3.30596
4.47283
-1.01753
0.992785
3.25421
1.14869
1.72291
-1.08411
1.18044
-1.33058
-0.597488
-2.33236
4.60828
5.74421
1.89949
0.927749
-3.06038
5.9861
1.15608
-0.265844
2.36464
-0.235016
3.42281
-1.41456
3.59532
-1.53147
-0.155138
1.1383
2.09468
0.747442
4.18916
-2.1426
1.40703
0.419004
3.54346
-1.44058
1.94822
0.524331
-5.51653
-4.63153
7.14245
6.01158
4.3402
-2.12797
1.51975
0.593558
0.357232
-1.8398
3.16193
1.29614
-3.56218
7.53072
-4.52932
6.4582
-0.604548
3.75875
-1.63788
2.31593
2.35779
5.43989
-2.41033
0.454094
-1.74841
4.09906
1.31302
0.794157
-13.6013
8.09797
-9.50586
13.6629
2.47772
0.942539
0.956118
-0.447741
-0.251554
1.68204
2.26309
0.40547
0.451346
0.551577
1.26525
1.16854
0.899046
0.939304
1.78149
0.0407669
2.99903
-1.74298
2.11174
-1.13395
-0.0154184
2.14651
3.20358
-0.903928
-2.04264
4.13979
2.46475
0.0886328
-1.07374
3.17805
2.30205
-0.338845
1.02323
1.9116
-0.164367
0.719881
-0.606597
1.64667
3.30606
-2.14715
2.70925
-0.409847
4.84747
1.96685
2.66687
-0.662216
2.79251
-0.493068
0.179958
3.08419
1.65695
-0.588337
1.7175
1.06545
0.55544
3.51152
-0.934853
1.89802
0.517215
3.2052
2.48227
0.827657
-0.562721
1.49154
-0.120283
2.05172
-0.0231933
2.34361
0.469225
-0.718193
1.59849
2.78546
3.33585
-1.54696
0.595509
0.984285
2.13565
-0.0531782
0.573351
1.33135
-0.425062
-0.78827
2.90307
2.55512
1.9596
0.261299
0.122066
1.8366
4.25041
-2.8012
3.6436
-3.26808
2.22656
3.09548
-0.00783578
-1.07016
6.48467
0.695934
3.01235
-1.46169
2.15321
-0.412122
-5.08286
6.51032
-2.23652
2.82008
-0.641676
4.66808
-0.766664
2.90625
2.72218
-1.01452
3.665
1.31181
0.612445
-1.78114
1.28782
3.09973
-1.29741
0.366567
-6.09117
3.03413
-1.68737
7.59382
2.83699
-1.77945
4.92008
-0.270741
5.69313
1.2107
1.58842
-2.75297
-3.90403
1.88197
1.43169
7.12285
1.77891
-0.0174688
5.11453
3.11392
0.212919
2.58401
1.37655
-0.990742
1.40283
-2.02488
3.69605
0.235789
-0.667395
1.09808
2.81918
1.02016
3.20044
-0.321622
2.60086
-0.977763
-1.3617
1.4231
3.62656
0.778038
0.384291
2.59028
-0.508327
1.83603
0.47126
1.93775
-0.0248408
1.83802
-2.59041
11.7977
4.48156
-9.2133
0.561487
1.92901
1.39284
0.0205337
0.490882
0.27085
1.48129
1.69776
0.32179
1.68422
2.53659
-0.487826
-0.143593
2.07797
2.1709
-0.0158219
1.85563
1.81668
-0.123066
-0.120754
1.40326
-0.538319
2.25093
0.343323
-0.304522
2.13244
2.2904
-0.202899
-3.30201
2.89782
0.280953
6.55568
5.95968
-1.35065
5.57014
-2.26217
3.37155
-0.630824
0.831027
-2.86029
1.60921
0.0799952
-1.509
3.46147
0.788979
0.264587
1.51963
0.852276
0.566479
1.41533
1.28706
0.392188
2.47575
1.25527
0.220663
-0.929215
-1.34962
6.03375
-2.74662
4.88836
-0.0866362
2.17592
3.21188
-1.22951
0.437748
-0.283025
5.50257
-4.63245
3.20606
1.15575
6.60232
-2.33997
-2.85075
2.74184
0.745925
6.47578
-1.23401
1.59826
3.29415
-2.84937
-13.8882
24.6244
11.5139
-27.1231
-1.47835
4.6036
3.78502
8.01252
-0.970949
3.32121
3.45378
-1.20631
0.57292
4.61543
0.0811756
-3.53063
-1.27941
3.23671
1.27649
0.468121
2.9842
-3.46287
5.0304
-1.77746
3.81002
-0.856928
-2.05178
2.17676
2.74344
-0.518396
2.20897
-1.14386
3.01906
1.67188
-0.953927
0.381017
2.55585
-0.624811
-0.985827
3.08351
0.719322
-5.98701
6.0378
-0.905272
1.29147
-0.366254
0.71678
2.21668
-0.241666
1.68213
-0.241229
1.42721
-0.706185
0.874412
0.432333
1.88896
0.028514
-0.319175
2.32893
2.52099
-0.0400944
1.94918
2.15492
0.0472986
1.67151
2.61221
-0.540787
0.270721
4.86414
-2.53563
1.09823
1.17733
-6.1572
-10.5318
10.4484
6.17948
0.0135938
-1.70443
4.13732
2.36153
0.368527
3.68466
2.58011
-1.28722
-5.13687
4.95998
-4.52976
5.86874
2.03583
1.22652
-0.427873
1.04344
2.15611
-0.0934568
0.47889
1.599
-1.54545
3.19898
-2.14568
2.6348
1.31421
16.0282
2.89222
-10.9875
-20.8944
5.59369
-4.48256
21.1391
-1.45944
-1.02778
2.69718
3.24403
5.13277
0.574098
2.23537
-1.69679
0.850991
-3.3249
6.53791
2.25989
8.39071
-1.21023
2.26785
-7.56947
3.59041
-4.55714
-3.35937
5.05142
-0.897198
1.79186
2.85523
0.0686942
0.804135
0.636627
0.194937
1.43221
0.0384633
2.5644
1.8293
-0.510955
4.08963
1.52395
0.319446
-2.40724
-0.281857
2.4406
-0.230274
2.53723
0.913246
-0.560172
1.22941
2.57892
2.3913
-1.42538
3.42804
-0.462905
3.47169
-1.57305
4.06402
-1.09457
0.346524
2.16596
1.46944
-0.314541
-28.0599
9.59317
-12.2522
26.2934
2.28185
-0.314955
2.24138
-0.212338
0.297347
3.54619
-1.79011
1.51605
2.70491
-0.524842
1.39557
0.772511
7.54639
4.14277
-3.59805
-0.145155
0.868879
-0.178121
2.13421
1.11957
1.94584
0.198765
0.0501637
1.56485
1.98308
-0.970563
3.03065
0.0208008
2.88774
-0.95836
2.19315
-0.28361
-9.57725
12.2536
15.1746
-3.86046
-2.39512
4.00118
-0.933414
2.67117
5.25554
-1.88125
3.76013
-0.976976
5.44859
1.10312
-3.48075
1.50824
2.29308
-3.84192
-0.944877
5.4215
-6.4922
-25.4199
4.74477
22.1802
-2.07386
2.16523
4.1514
0.320381
-3.65357
-3.35315
4.32745
4.07001
-4.67141
-0.757364
3.61066
8.76063
1.60452
0.321705
1.40192
0.39705
-4.42558
4.40885
-4.34471
3.90064
-1.24156
2.59105
2.37491
-0.874781
0.66897
0.324292
1.42101
0.827354
0.440157
-1.98648
4.482
2.00973
-1.15036
4.00349
3.27518
-1.59553
-2.90874
3.13481
-0.919903
4.94519
2.67662
3.55787
-0.497256
-1.40154
3.06585
3.6634
-0.864961
-1.27914
-0.149095
3.79953
-1.84373
1.95895
1.69503
0.0340144
0.808628
1.11125
0.0868754
-1.58487
3.94818
2.04792
-2.57607
1.345
1.06014
4.53031
-1.29959
-0.871272
3.6014
3.90247
8.52967
0.420031
3.04604
-3.99776
2.38667
4.23745
-1.89139
0.270856
2.55292
1.90482
-0.0329805
-0.62153
0.485719
1.09305
3.02519
-1.29033
-0.605289
2.24024
2.83762
-0.174074
-0.572529
2.64646
2.79616
-0.302958
2.39609
27.19
4.19406
-20.2402
3.24955
0.00946124
1.93527
-1.3543
3.25507
-2.87538
5.86133
-0.991241
0.599051
4.3211
1.54161
-1.85619
-0.727235
5.96663
-2.66569
3.73532
0.449938
1.28531
0.53452
1.45403
1.63973
0.150179
1.06599
0.670252
-1.72454
1.6483
-1.76516
1.98587
5.55538
-1.27213
4.84599
-1.24789
4.17011
-1.88491
-0.252304
2.58492
4.74338
1.45161
-4.10454
-1.22265
5.04603
-0.77631
-2.40749
3.19109
2.85139
6.52094
-1.69593
-4.24383
-1.89981
1.88671
3.83224
-0.0269037
7.04292
-5.14448
-1.71427
3.8292
0.190377
3.62005
-1.63118
1.61344
2.63859
-1.51481
-4.83672
5.9577
-2.58517
1.45272
6.22563
2.00715
13.2574
-17.606
-12.9244
18.6694
-0.780314
11.6287
5.8065
-1.68228
2.45664
-0.332061
2.0356
-0.648002
2.76806
1.39692
-0.751197
0.515019
1.64593
4.20246
-3.68303
-1.379
4.39677
5.07145
-0.920691
-0.687488
-0.498517
3.57154
-2.15708
1.77349
2.62801
5.35865
0.585214
-2.34285
5.89229
-0.450339
1.96395
-3.88411
-4.70365
3.20091
6.35949
-1.62746
3.50515
1.78688
0.571141
-1.53743
0.350655
2.59676
1.80045
-0.46276
-0.31872
1.96966
0.171815
2.48362
6.0919
0.970544
2.84522
-2.2731
17.8836
-24.54
22.1595
-20.466
0.870125
-1.1414
3.52157
1.52588
1.73158
0.163739
2.30661
-0.129955
2.62083
1.40727
0.981254
-0.411221
-0.670764
3.03723
2.89557
-0.674735
1.93732
-1.5791
0.238543
3.71756
0.405272
1.12969
-1.31138
3.27263
-0.855204
0.499193
2.98038
1.63068
1.8162
0.542573
0.0713528
1.82899
1.84064
-0.000895502
1.9743
0.093906
2.49684
-0.00130868
-0.377988
2.12829
-1.15388
4.42978
3.42728
-1.94931
2.77585
2.1637
-1.25937
-2.233
-25.4079
9.7986
-8.79404
25.9235
2.20628
-2.40121
4.49679
0.0588072
0.543785
1.22633
-1.61206
3.63511
0.320994
-1.26522
3.35178
1.86037
1.64835
0.530088
-1.7224
3.93594
-0.483744
1.05617
2.58533
0.521791
-1.02317
3.01377
1.45844
0.512564
3.6333
-1.50578
0.812602
1.55144
1.2915
-0.218519
3.4273
-2.4344
-1.27414
0.467079
1.93108
3.48442
-1.82934
2.83365
-0.576153
4.19845
2.7082
-0.727218
3.16395
-1.01817
2.8981
-0.0294068
-0.766963
2.03818
0.515541
2.14825
-2.92717
5.69433
8.34807
1.73069
-5.85086
1.37961
5.88558
-3.22025
4.87365
-4.02062
-2.34049
-1.21715
4.94763
3.92213
-1.54727
3.62424
2.7335
-0.611177
4.4435
15.6667
-10.8124
-0.158118
5.70209
7.95912
-3.11862
-3.98662
-5.3937
4.62451
6.38901
-4.27604
0.0512608
0.154912
1.90328
1.81279
-0.402176
2.25948
1.42196
0.45773
0.237296
1.8889
4.13522
-1.86277
-2.52224
1.10522
5.19072
1.68194
-2.89782
-0.38913
3.09474
5.63076
-2.50774
2.63353
4.29877
-1.06431
2.18908
3.83052
-0.110821
-1.76516
4.75135
1.17564
1.20961
-2.36055
1.94398
-4.16019
3.5941
9.82833
-1.04486
0.71862
3.04734
1.24819
2.05888
2.31671
-0.333357
0.105249
-0.83148
2.79638
1.22961
0.552813
3.89045
-2.34076
-2.94004
3.01874
-1.4077
-0.182971
1.90806
3.31992
1.90071
-0.185101
-0.272265
1.89251
0.417178
2.21147
-0.315495
1.61657
5.16362
1.28681
2.14228
-1.98517
1.99528
0.817592
-0.0702027
1.0368
-0.48322
1.6844
2.46641
0.170228
-19.1847
-17.6297
14.3982
17.6174
0.713608
-0.337408
2.03922
0.93766
-1.73713
0.502159
1.68795
4.18256
-1.339
2.97314
-0.755991
3.44054
-1.59473
3.04215
4.40601
-0.566917
4.51959
-2.64703
-2.77996
4.54579
5.91211
-0.459733
-2.20031
3.44011
6.04247
0.860453
2.30107
-2.18489
3.07765
-1.20386
3.65567
-0.709013
0.49048
1.32978
2.70628
-0.747426
1.43059
-0.43078
0.522455
2.43544
1.68192
2.40017
-0.301497
-0.459593
1.62473
0.29189
0.0666603
1.4305
1.84045
-4.62119
-0.482034
6.84683
0.27525
0.682845
1.02352
1.37482
1.04796
0.773957
0.118186
0.389591
4.69202
-1.80356
-2.59636
5.52967
0.221848
0.71463
1.05231
0.490252
6.49811
0.156729
2.72476
-3.56062
-27.2648
2.12231
24.2376
-4.71873
-0.0845407
2.37922
2.01903
-0.409909
4.42898
3.42962
-1.59584
0.0598914
2.50141
-0.519332
0.112137
1.85744
2.96754
0.473036
1.30583
-1.04118
0.882786
3.28424
0.666216
-1.57588
4.99415
0.0516298
-2.5101
2.42228
7.95671
2.02386
0.382441
-4.40445
4.13054
-1.60766
3.9051
-1.57502
2.70607
-4.06787
-0.636059
5.8873
2.53439
1.34174
-0.498571
0.824726
2.51566
0.149779
-1.05553
1.33423
1.0937
-1.81485
3.1973
0.475841
-2.69796
3.44709
3.44415
-2.08034
4.33846
-0.990893
3.39772
-1.79056
-1.72431
3.98932
1.94668
0.168562
4.12923
-2.04593
1.32443
0.743566
0.883263
2.02826
-0.454659
0.791733
5.39616
3.66012
-0.567632
-1.73419
-2.08829
0.413726
1.78126
4.40237
3.81283
-1.41576
-0.904518
3.1137
0.12708
-4.19078
7.22388
2.19615
0.625805
1.33522
2.6652
-0.696341
-4.14295
4.82308
4.52348
-4.3365
0.574653
0.764046
1.1647
0.627718
0.0451647
1.24916
1.75298
0.539978
-0.0597874
2.33034
-2.28666
4.5119
0.741113
1.10404
-0.771986
2.65199
-7.13364
5.73608
9.49888
-1.96549
6.36667
-5.58109
9.28486
-2.22711
3.02174
5.10396
-0.430586
-2.59708
6.15114
-0.0889223
1.21934
-4.35676
9.11149
-5.25291
2.28688
1.00666
2.63228
2.42742
-1.33192
-0.706584
-2.88841
6.56993
4.36622
-5.35858
5.19095
-3.2271
-1.63767
7.40283
-1.18643
-1.46918
3.53207
3.85298
4.57633
-2.04976
-1.38139
3.92573
3.25276
-1.93772
-1.32593
3.78299
0.60167
0.78722
1.21405
0.0888073
1.21832
1.03308
0.453354
0.335206
-0.0722912
2.19457
-1.42308
3.74479
-0.89967
3.13898
-0.652667
2.87033
-3.97202
-3.79637
4.699
4.78499
2.3325
-0.0481258
-0.530222
1.69308
2.46755
0.569387
1.57114
-0.444699
2.31658
-0.39678
1.70729
0.207353
1.98704
-0.222552
2.21629
-0.460344
3.49291
-1.2355
3.05738
-1.59042
5.68002
-1.32284
4.69741
-2.92281
-6.69093
8.43525
-6.38203
6.96766
0.374459
1.86145
-2.68851
5.13558
)
;

boundaryField
{
    insideCircle
    {
        type            myTemperature;
        value           nonuniform List<scalar> 
24
(
5.0154
2.12982
1.27009
7.57185
-2.68125
-1.04917
6.87859
5.58714
0.347103
-0.50843
5.22055
4.83768
-1.0703
2.43094
2.93566
6.03656
3.36321
0.0825605
5.53146
1.95527
1.75846
-0.101479
5.2284
3.24997
)
;
    }
    outsideCircle
    {
        type            myTemperature;
        value           nonuniform List<scalar> 
124
(
2.45551
0.309186
1.61911
-0.296947
0.620832
1.611
1.96117
1.78251
1.24485
0.310889
0.435817
2.43207
-0.0862806
1.88699
1.16852
1.2005
2.21655
1.01601
1.24683
-0.695573
-0.441208
0.69284
2.49638
1.51274
1.12434
-0.552197
2.50762
-0.761072
-0.142322
-0.275924
2.45144
1.77083
2.45544
0.800245
-0.441989
1.36467
0.84525
0.078859
2.17341
1.16664
-0.468592
1.04849
2.49695
1.07511
0.236193
-0.377053
1.88857
2.61483
0.888887
-0.707042
2.75627
1.20752
1.92892
0.0992794
2.2458
-0.202611
0.480811
1.98857
2.02
-0.2329
-1.98957
-1.65488
4.20875
0.316753
2.63873
0.590407
-0.243402
1.38849
-0.426137
2.16644
-0.0114042
2.56076
2.27164
-0.246625
0.636134
1.56394
1.86742
-0.0474523
0.0704407
1.90773
-0.745399
0.817391
2.845
1.3572
-0.0294609
2.56132
-0.402011
2.15844
-0.0899739
-0.159558
1.87158
2.32984
1.93383
2.58605
-0.328242
0.416914
2.47261
0.664557
0.0812058
1.04789
2.04927
-0.073856
0.561429
1.4395
2.42328
-0.495521
1.35214
0.709962
0.174691
2.51815
1.90761
-0.342693
-0.276776
2.07151
-0.0194741
2.4733
2.2557
0.140964
2.3897
-0.412417
2.65889
1.08489
0.647494
-0.663317
)
;
    }
    topAndBottom
    {
        type            empty;
    }
}


// ************************************************************************* //
