/*--------------------------------*- C++ -*----------------------------------*\
| =========                 |                                                 |
| \\      /  F ield         | foam-extend: Open Source CFD                    |
|  \\    /   O peration     | Version:  3.0                                   |
|   \\  /    A nd           | Web:         http://www.extend-project.de       |
|    \\/     M anipulation  |                                                 |
\*---------------------------------------------------------------------------*/
FoamFile
{
    version     2.0;
    format      ascii;
    class       volVectorField;
    location    "1.4";
    object      s;
}
// * * * * * * * * * * * * * * * * * * * * * * * * * * * * * * * * * * * * * //

dimensions      [0 0 0 0 0 0 0];

internalField   nonuniform List<vector> 
400
(
(-0.00153996 -0.000478173 3.80771e-318)
(-0.00162429 0.000204412 6.84045e-318)
(-0.00196606 0.000769414 7.86304e-318)
(-0.00236346 0.00129403 7.8487e-318)
(-0.00293868 0.00141511 7.25175e-318)
(-0.0035591 0.00132563 6.41615e-318)
(-0.00415758 0.00100377 5.35058e-318)
(-0.00466312 0.000560816 4.36424e-318)
(-0.00502251 1.87281e-05 3.33191e-318)
(-0.00520449 -0.000565999 2.50291e-318)
(-0.00518806 -0.00117919 1.68822e-318)
(-0.0049659 -0.00178344 1.09368e-318)
(-0.00454237 -0.0023642 5.00261e-319)
(-0.00393676 -0.00286689 9.71926e-320)
(-0.00317947 -0.00326742 -3.38939e-319)
(-0.00234009 -0.00346415 -6.20023e-319)
(-0.00144593 -0.00345806 -9.25889e-319)
(-0.000665579 -0.00306239 -1.10519e-318)
(0.000158771 -0.00242812 -1.04926e-318)
(0.000573805 -0.0010868 -7.20985e-319)
(-0.00184826 0.000406762 3.61274e-318)
(-0.00225595 0.00176739 7.88097e-318)
(-0.0032823 0.00278772 1.00164e-317)
(-0.003942 0.00348819 1.08774e-317)
(-0.00474562 0.00367501 1.06718e-317)
(-0.00544986 0.003481 9.95275e-318)
(-0.0061073 0.00294175 8.71962e-318)
(-0.00663597 0.0021604 7.41541e-318)
(-0.00700456 0.00120336 5.93187e-318)
(-0.00717619 0.000141233 4.61854e-318)
(-0.00713006 -0.000967908 3.27915e-318)
(-0.00685764 -0.00206551 2.19187e-318)
(-0.00636536 -0.00309095 1.10713e-318)
(-0.00567889 -0.0039715 2.67734e-319)
(-0.00482219 -0.00463206 -5.91392e-319)
(-0.00388385 -0.00496648 -1.22585e-318)
(-0.00282342 -0.00490924 -1.86566e-318)
(-0.00191 -0.00430099 -2.21789e-318)
(-0.000677923 -0.00317403 -2.24459e-318)
(-5.02585e-05 -0.00126912 -1.45731e-318)
(-0.00170217 0.00188823 3.27929e-318)
(-0.00215797 0.00470868 7.50602e-318)
(-0.00338692 0.00647433 9.80827e-318)
(-0.00418918 0.00741821 1.0808e-317)
(-0.00511499 0.00751368 1.07852e-317)
(-0.0058399 0.00697917 1.01773e-317)
(-0.00648115 0.00591256 9.07173e-318)
(-0.00695859 0.00447153 7.80807e-318)
(-0.0072825 0.00276178 6.36201e-318)
(-0.00742868 0.000889193 4.98943e-318)
(-0.00739028 -0.00105794 3.5884e-318)
(-0.00715794 -0.00299045 2.35352e-318)
(-0.00672546 -0.00481334 1.13786e-318)
(-0.0061044 -0.00640929 1.0653e-319)
(-0.00527936 -0.00765136 -8.94244e-319)
(-0.0043359 -0.00835606 -1.68545e-318)
(-0.00316907 -0.00838456 -2.35931e-318)
(-0.00212363 -0.0074641 -2.66537e-318)
(-0.000668297 -0.00554448 -2.45769e-318)
(6.16385e-05 -0.00227982 -1.31078e-318)
(-0.00167172 0.0029068 2.24882e-318)
(-0.00205946 0.00692836 5.68542e-318)
(-0.00328788 0.00921494 7.8879e-318)
(-0.00398907 0.0102583 9.06419e-318)
(-0.00480046 0.0101841 9.35462e-318)
(-0.0053422 0.00933235 9.02986e-318)
(-0.00580275 0.00786294 8.23154e-318)
(-0.00610974 0.00597205 7.17398e-318)
(-0.00631386 0.00378508 5.93662e-318)
(-0.00640459 0.00141662 4.66535e-318)
(-0.00638756 -0.00103856 3.3787e-318)
(-0.0062527 -0.00348699 2.17089e-318)
(-0.00597983 -0.00582438 1.02391e-318)
(-0.00556454 -0.0079165 1.35473e-320)
(-0.00494708 -0.00960883 -8.8122e-319)
(-0.00420138 -0.010663 -1.56729e-318)
(-0.00314181 -0.0108772 -2.02992e-318)
(-0.00216695 -0.0098491 -2.12065e-318)
(-0.000642831 -0.00743634 -1.76186e-318)
(9.06798e-05 -0.00310219 -7.96024e-319)
(-0.00160417 0.00418622 2.25469e-318)
(-0.00184403 0.00954874 5.33792e-318)
(-0.00302578 0.0123399 7.21591e-318)
(-0.003559 0.0134181 8.16287e-318)
(-0.0042086 0.0130781 8.38718e-318)
(-0.00452503 0.0118224 8.08307e-318)
(-0.00477902 0.00987711 7.38541e-318)
(-0.00489856 0.00748803 6.4467e-318)
(-0.00497684 0.00479424 5.34291e-318)
(-0.00501433 0.00191395 4.17971e-318)
(-0.00502896 -0.0010637 2.98812e-318)
(-0.00500915 -0.00405152 1.83696e-318)
(-0.00491797 -0.00694848 7.30506e-319)
(-0.00473587 -0.00960973 -2.77359e-319)
(-0.00435033 -0.0118589 -1.18348e-318)
(-0.00383223 -0.0133894 -1.9191e-318)
(-0.00289471 -0.0139253 -2.43579e-318)
(-0.00202601 -0.0128747 -2.61439e-318)
(-0.000447647 -0.00996139 -2.27904e-318)
(0.000184224 -0.00429601 -1.15676e-318)
(-0.00158563 0.00534852 1.69118e-318)
(-0.0016415 0.0119148 4.24854e-318)
(-0.00269527 0.015044 5.95148e-318)
(-0.00292462 0.0160331 6.90646e-318)
(-0.00327993 0.0153518 7.217e-318)
(-0.00324632 0.0136855 7.03632e-318)
(-0.00319656 0.0113183 6.48301e-318)
(-0.00305623 0.00853682 5.68003e-318)
(-0.00296299 0.00547905 4.71162e-318)
(-0.00292519 0.00225212 3.66053e-318)
(-0.00297258 -0.00107705 2.57527e-318)
(-0.00309308 -0.00444392 1.50943e-318)
(-0.00323401 -0.00776913 4.92149e-319)
(-0.00336523 -0.0109145 -4.31621e-319)
(-0.00331683 -0.0136995 -1.22701e-318)
(-0.00316098 -0.0157573 -1.83015e-318)
(-0.00248007 -0.0167393 -2.17931e-318)
(-0.00185537 -0.0158202 -2.16878e-318)
(-0.000288146 -0.0125507 -1.71904e-318)
(0.000214537 -0.00553454 -7.35995e-319)
(-0.0016407 0.00663617 1.85359e-318)
(-0.00138299 0.0142944 4.26709e-318)
(-0.00222495 0.0175927 5.71843e-318)
(-0.00199272 0.0183547 6.44095e-318)
(-0.00193137 0.0172601 6.62454e-318)
(-0.00143442 0.0151694 6.38947e-318)
(-0.000999903 0.0124161 5.84753e-318)
(-0.000539555 0.00931298 5.09079e-318)
(-0.000236167 0.00598625 4.19125e-318)
(-0.000101266 0.00252088 3.21194e-318)
(-0.000176013 -0.00104784 2.19807e-318)
(-0.000449832 -0.00468935 1.19238e-318)
(-0.000857207 -0.00835708 2.24785e-319)
(-0.00136583 -0.0119353 -6.68723e-319)
(-0.00174707 -0.0152527 -1.45508e-318)
(-0.00208948 -0.0178996 -2.08544e-318)
(-0.00180735 -0.0194572 -2.49198e-318)
(-0.00161428 -0.0188539 -2.58942e-318)
(-0.000127508 -0.0153993 -2.20596e-318)
(0.000106657 -0.00703011 -1.10847e-318)
(-0.0017316 0.00790861 1.51305e-318)
(-0.00103173 0.0163908 3.65567e-318)
(-0.00151698 0.0196464 5.02759e-318)
(-0.000660937 0.0200436 5.76209e-318)
(-5.26467e-05 0.0185057 5.97133e-318)
(0.00101013 0.0160282 5.78015e-318)
(0.0019021 0.0129813 5.29014e-318)
(0.002734 0.00968078 4.59097e-318)
(0.0032828 0.0062311 3.75432e-318)
(0.00353873 0.00268496 2.83846e-318)
(0.00344983 -0.000960696 1.88914e-318)
(0.00302316 -0.00471726 9.45913e-319)
(0.00233106 -0.00857995 4.3043e-320)
(0.00139901 -0.0124718 -7.82615e-319)
(0.000506833 -0.0162455 -1.4906e-318)
(-0.000462766 -0.0194821 -2.0256e-318)
(-0.000741213 -0.0217008 -2.32144e-318)
(-0.00118593 -0.0216161 -2.28272e-318)
(7.68214e-05 -0.0182206 -1.81598e-318)
(-9.20818e-05 -0.00867338 -8.04566e-319)
(-0.00185163 0.00914148 1.67491e-318)
(-0.000489989 0.0180577 3.77856e-318)
(-0.000463122 0.0210872 4.99545e-318)
(0.00116857 0.0210133 5.56417e-318)
(0.00241817 0.0190604 5.66957e-318)
(0.0041067 0.0162682 5.41887e-318)
(0.00549093 0.0130436 4.91265e-318)
(0.00671517 0.009675 4.2249e-318)
(0.00752657 0.00624362 3.41842e-318)
(0.00792177 0.00276259 2.54364e-318)
(0.00784034 -0.000808705 1.64102e-318)
(0.00728375 -0.0045277 7.44799e-319)
(0.00632353 -0.00843227 -1.14035e-319)
(0.00496917 -0.0124996 -9.04649e-319)
(0.00353487 -0.0166114 -1.59315e-318)
(0.00185834 -0.0203885 -2.13801e-318)
(0.000887975 -0.0232835 -2.47498e-318)
(-0.000415015 -0.0239061 -2.53223e-318)
(0.000448936 -0.0208112 -2.14499e-318)
(-0.000414668 -0.0104568 -1.08455e-318)
(-0.00183891 0.0101415 1.44821e-318)
(0.00032017 0.0190267 3.4124e-318)
(0.00104382 0.0217182 4.61045e-318)
(0.00350879 0.0211379 5.20392e-318)
(0.00544311 0.0188668 5.31851e-318)
(0.00774981 0.0158723 5.0806e-318)
(0.00961752 0.012609 4.5886e-318)
(0.0112191 0.00930855 3.92286e-318)
(0.0122898 0.00603429 3.1466e-318)
(0.0128341 0.00275712 2.30903e-318)
(0.0127866 -0.000596069 1.45013e-318)
(0.0121427 -0.00412679 6.02162e-319)
(0.0109638 -0.00791145 -2.04084e-319)
(0.00924059 -0.0119909 -9.37144e-319)
(0.00729236 -0.0162738 -1.56095e-318)
(0.0049161 -0.0204739 -2.02939e-318)
(0.0031792 -0.0239603 -2.28258e-318)
(0.000901897 -0.0254032 -2.23765e-318)
(0.00112667 -0.022791 -1.79972e-318)
(-0.000628731 -0.0121477 -8.31784e-319)
(-0.00162158 0.010672 1.57727e-318)
(0.00142146 0.0190526 3.54188e-318)
(0.00298153 0.0214214 4.64216e-318)
(0.00626025 0.0203815 5.11668e-318)
(0.00886499 0.017951 5.15279e-318)
(0.0117263 0.0148881 4.86368e-318)
(0.0140288 0.0117283 4.35087e-318)
(0.0159599 0.00861974 3.68643e-318)
(0.0172659 0.00562076 2.92823e-318)
(0.017959 0.00266035 2.12071e-318)
(0.0179741 -0.000357065 1.29982e-318)
(0.0173018 -0.00357214 4.9575e-319)
(0.0159841 -0.00708936 -2.64819e-319)
(0.0139948 -0.0110185 -9.54653e-319)
(0.0116201 -0.0152809 -1.54248e-318)
(0.0086332 -0.0197367 -1.99393e-318)
(0.00612447 -0.0236266 -2.25653e-318)
(0.00283606 -0.025898 -2.27731e-318)
(0.00219437 -0.0237975 -1.9177e-318)
(-0.000677984 -0.0134706 -9.82642e-319)
(-0.0010198 0.0106049 1.42111e-318)
(0.00272958 0.0181616 3.31745e-318)
(0.00525972 0.0202707 4.41743e-318)
(0.00919737 0.0188798 4.90714e-318)
(0.0124165 0.016454 4.93498e-318)
(0.0157121 0.0134547 4.63998e-318)
(0.0183709 0.0105213 4.12603e-318)
(0.0205562 0.00770394 3.47162e-318)
(0.022056 0.00506699 2.73484e-318)
(0.022885 0.00250237 1.95919e-318)
(0.0229867 -9.79004e-05 1.17869e-318)
(0.0223494 -0.00290361 4.21675e-319)
(0.0209868 -0.00603576 -2.86815e-319)
(0.0188668 -0.00966898 -9.18542e-319)
(0.0161949 -0.013723 -1.44168e-318)
(0.0127728 -0.0182399 -1.81728e-318)
(0.0095494 -0.0222978 -1.99828e-318)
(0.00540633 -0.0253034 -1.92407e-318)
(0.00363619 -0.0236813 -1.52541e-318)
(-0.000213777 -0.0141869 -7.12033e-319)
(-0.00019065 0.00969389 1.52266e-318)
(0.00401855 0.0162978 3.43441e-318)
(0.00754728 0.0182861 4.45094e-318)
(0.0119742 0.0167135 4.83421e-318)
(0.0157294 0.0144602 4.78873e-318)
(0.0193279 0.0116528 4.44724e-318)
(0.0222476 0.00904866 3.91574e-318)
(0.0245956 0.00659835 3.26609e-318)
(0.0262317 0.00438056 2.55075e-318)
(0.0271709 0.00225815 1.80955e-318)
(0.0273744 0.000121476 1.07206e-318)
(0.0268315 -0.0022161 3.63232e-319)
(0.0255226 -0.00487915 -2.93055e-319)
(0.0234198 -0.00809504 -8.72372e-319)
(0.0206031 -0.0117682 -1.34469e-318)
(0.0169529 -0.0161321 -1.67983e-318)
(0.0131124 -0.0200773 -1.83517e-318)
(0.00830677 -0.0235909 -1.78223e-318)
(0.00524017 -0.0222485 -1.433e-318)
(0.00053835 -0.013907 -7.04113e-319)
(0.000868537 0.00837452 1.4359e-318)
(0.00505773 0.0140329 3.30439e-318)
(0.00960087 0.0158522 4.29008e-318)
(0.0142634 0.0142241 4.64787e-318)
(0.0184513 0.0122252 4.56773e-318)
(0.0221881 0.0097034 4.20735e-318)
(0.0252508 0.00749027 3.67378e-318)
(0.0276509 0.00545063 3.04039e-318)
(0.0293491 0.00367293 2.35602e-318)
(0.0303572 0.00200243 1.65687e-318)
(0.0306633 0.000335585 9.68808e-319)
(0.0302606 -0.00151645 3.14334e-319)
(0.0290959 -0.00367176 -2.84295e-319)
(0.0271572 -0.00639003 -8.02916e-319)
(0.0243639 -0.00956087 -1.21071e-318)
(0.0207388 -0.0135869 -1.47272e-318)
(0.0164331 -0.0172198 -1.5477e-318)
(0.0113421 -0.0210251 -1.39865e-318)
(0.00681621 -0.0199915 -1.0001e-318)
(0.00187914 -0.0130467 -3.84264e-319)
(0.00162421 0.00640542 1.5465e-318)
(0.0055926 0.0112878 3.38992e-318)
(0.0109834 0.0129352 4.24893e-318)
(0.0157374 0.0114346 4.47668e-318)
(0.0202305 0.00977149 4.31969e-318)
(0.0239586 0.00763493 3.92328e-318)
(0.027031 0.00585846 3.38923e-318)
(0.0293649 0.00425489 2.77983e-318)
(0.0310375 0.00291326 2.13706e-318)
(0.0320591 0.00167743 1.49011e-318)
(0.0324531 0.000456444 8.60564e-319)
(0.0322161 -0.000924512 2.66879e-319)
(0.0312694 -0.00256933 -2.70955e-319)
(0.0296168 -0.00473932 -7.31104e-319)
(0.0270096 -0.00731893 -1.08477e-318)
(0.0236239 -0.0108091 -1.30169e-318)
(0.0190317 -0.0139133 -1.34251e-318)
(0.0138947 -0.017618 -1.19244e-318)
(0.0079879 -0.0166848 -8.17945e-319)
(0.00293128 -0.0109701 -2.72863e-319)
(0.00211477 0.00487499 1.55972e-318)
(0.00552197 0.00888101 3.27756e-318)
(0.0115658 0.0101109 4.0109e-318)
(0.0161594 0.00877135 4.15396e-318)
(0.0207423 0.0074314 3.9479e-318)
(0.024257 0.00572453 3.54347e-318)
(0.0271648 0.00438832 3.03098e-318)
(0.0292961 0.00321158 2.46528e-318)
(0.0308412 0.00227206 1.88072e-318)
(0.0318094 0.00142418 1.30055e-318)
(0.0322596 0.000596246 7.41291e-319)
(0.0321909 -0.000362499 2.17838e-319)
(0.0315146 -0.00153336 -2.52433e-319)
(0.0302484 -0.00315671 -6.49039e-319)
(0.0280034 -0.00512343 -9.45217e-319)
(0.0251113 -0.00797077 -1.10717e-318)
(0.020537 -0.0104881 -1.09568e-318)
(0.0158509 -0.0139324 -8.82411e-319)
(0.0087459 -0.0133919 -4.78038e-319)
(0.00445173 -0.00932763 -1.60571e-321)
(0.00205717 0.0031544 1.62259e-318)
(0.00500139 0.0063549 3.15096e-318)
(0.0112294 0.0071069 3.6868e-318)
(0.0155086 0.0061053 3.69343e-318)
(0.0199009 0.00512652 3.44091e-318)
(0.0230117 0.00391479 3.04462e-318)
(0.0255698 0.00301169 2.57763e-318)
(0.0273672 0.00223826 2.07958e-318)
(0.0286827 0.00164824 1.57485e-318)
(0.0295233 0.00112607 1.08021e-318)
(0.0299856 0.00061969 6.07054e-319)
(0.0300563 1.54567e-05 1.6648e-319)
(0.0296699 -0.000746608 -2.27705e-319)
(0.0288257 -0.00185103 -5.57731e-319)
(0.0270779 -0.00321979 -8.01967e-319)
(0.0248119 -0.00529889 -9.31921e-319)
(0.020567 -0.00712658 -9.12475e-319)
(0.016469 -0.0098136 -7.30086e-319)
(0.00879152 -0.00936166 -3.86127e-319)
(0.00480112 -0.00611124 3.45154e-320)
(0.00108017 0.00220189 1.72396e-318)
(0.00375411 0.00445957 2.8692e-318)
(0.00971265 0.00469587 3.15995e-318)
(0.0133689 0.00395329 3.05748e-318)
(0.017175 0.00330004 2.78511e-318)
(0.0196301 0.00254124 2.42643e-318)
(0.0216322 0.00201814 2.03162e-318)
(0.0229766 0.00157918 1.62449e-318)
(0.0239688 0.00126731 1.22045e-318)
(0.0246226 0.000989246 8.29146e-319)
(0.0250382 0.000726815 4.57376e-319)
(0.02521 0.000390507 1.12899e-319)
(0.025086 -3.95771e-05 -1.95428e-319)
(0.0246805 -0.000707193 -4.53201e-319)
(0.0235354 -0.00153885 -6.42868e-319)
(0.0220976 -0.0029008 -7.38687e-319)
(0.0186187 -0.00408813 -7.09706e-319)
(0.0157382 -0.00614729 -5.30152e-319)
(0.00811541 -0.00608006 -2.24276e-319)
(0.00599719 -0.00482494 1.261e-319)
(0.00108437 0.00170673 1.16349e-318)
(0.002531 0.00243929 1.93664e-318)
(0.00720227 0.00234573 2.10501e-318)
(0.00973014 0.00205464 2.00722e-318)
(0.0124344 0.00175546 1.81588e-318)
(0.0140235 0.00144459 1.57362e-318)
(0.0152989 0.00122906 1.31289e-318)
(0.0161057 0.00105475 1.04642e-318)
(0.0167152 0.00093562 7.83381e-319)
(0.0171092 0.000826865 5.29253e-319)
(0.0174245 0.00072152 2.88692e-319)
(0.0175797 0.000573666 6.57404e-320)
(0.0176516 0.00037271 -1.34119e-319)
(0.0175137 5.71426e-05 -3.01667e-319)
(0.0169859 -0.000356848 -4.25153e-319)
(0.0162001 -0.00100104 -4.90459e-319)
(0.0139375 -0.00161101 -4.78705e-319)
(0.0120464 -0.00249695 -3.82585e-319)
(0.00630861 -0.00249689 -2.17913e-319)
(0.00455292 -0.000899334 -4.2045e-321)
(-0.000949015 0.000824874 1.35575e-318)
(0.00118243 0.00181738 1.40484e-318)
(0.00404653 0.00136241 1.25254e-318)
(0.00520941 0.0011841 1.06532e-318)
(0.00649327 0.00105709 8.98873e-319)
(0.00699602 0.00095829 7.42714e-319)
(0.00743805 0.000934352 5.98679e-319)
(0.00766303 0.000898607 4.64432e-319)
(0.00784127 0.000902654 3.38919e-319)
(0.00800129 0.000883365 2.21593e-319)
(0.00812757 0.000889817 1.12108e-319)
(0.00831677 0.000855306 1.0242e-320)
(0.00842695 0.000844118 -8.27165e-320)
(0.00866881 0.000755218 -1.64089e-319)
(0.00858467 0.000704195 -2.28752e-319)
(0.00878578 0.000469595 -2.68826e-319)
(0.007709 0.000380245 -2.71983e-319)
(0.00772938 -0.000274015 -2.22537e-319)
(0.00354037 -0.000209974 -1.26664e-319)
(0.00475487 -0.00115206 1.45206e-320)
)
;

boundaryField
{
    cavity
    {
        type            myHeatFlux;
        ThetaWall       uniform 0;
        value           nonuniform List<vector> 
60
(
(0.001 0 0)
(0.001 0 0)
(0.001 0 0)
(0.001 0 0)
(0.001 0 0)
(0.001 0 0)
(0.001 0 0)
(0.001 0 0)
(0.001 0 0)
(0.001 0 0)
(0.001 0 0)
(0.001 0 0)
(0.001 0 0)
(0.001 0 0)
(0.001 0 0)
(0.001 0 0)
(0.001 0 0)
(0.001 0 0)
(0.001 0 0)
(0.001 0 0)
(0 -0.001 0)
(0 -0.001 0)
(0 -0.001 0)
(0 -0.001 0)
(0 -0.001 0)
(0 -0.001 0)
(0 -0.001 0)
(0 -0.001 0)
(0 -0.001 0)
(0 -0.001 0)
(0 -0.001 0)
(0 -0.001 0)
(0 -0.001 0)
(0 -0.001 0)
(0 -0.001 0)
(0 -0.001 0)
(0 -0.001 0)
(0 -0.001 0)
(0 -0.001 0)
(0 -0.001 0)
(-0.001 0 0)
(-0.001 0 0)
(-0.001 0 0)
(-0.001 0 0)
(-0.001 0 0)
(-0.001 0 0)
(-0.001 0 0)
(-0.001 0 0)
(-0.001 0 0)
(-0.001 0 0)
(-0.001 0 0)
(-0.001 0 0)
(-0.001 0 0)
(-0.001 0 0)
(-0.001 0 0)
(-0.001 0 0)
(-0.001 0 0)
(-0.001 0 0)
(-0.001 0 0)
(-0.001 0 0)
)
;
    }
    lid
    {
        type            myHeatFlux;
        ThetaWall       uniform 0;
        value           nonuniform List<vector> 
20
(
(0.000135815 0.0009 0)
(0.000135815 0.0009 0)
(0.000135815 0.0009 0)
(0.000135815 0.0009 0)
(0.000135815 0.0009 0)
(0.000135815 0.0009 0)
(0.000135815 0.0009 0)
(0.000135815 0.0009 0)
(0.000135815 0.0009 0)
(0.000135815 0.0009 0)
(0.000135815 0.0009 0)
(0.000135815 0.0009 0)
(0.000135815 0.0009 0)
(0.000135815 0.0009 0)
(0.000135815 0.0009 0)
(0.000135815 0.0009 0)
(0.000135815 0.0009 0)
(0.000135815 0.0009 0)
(0.000135815 0.0009 0)
(0.000135815 0.0009 0)
)
;
    }
    frontAndBack
    {
        type            empty;
    }
}


// ************************************************************************* //
