/*--------------------------------*- C++ -*----------------------------------*\
| =========                 |                                                 |
| \\      /  F ield         | foam-extend: Open Source CFD                    |
|  \\    /   O peration     | Version:  3.0                                   |
|   \\  /    A nd           | Web:         http://www.extend-project.de       |
|    \\/     M anipulation  |                                                 |
\*---------------------------------------------------------------------------*/
FoamFile
{
    version     2.0;
    format      ascii;
    class       volSymmTensorField;
    location    "10";
    object      sigma;
}
// * * * * * * * * * * * * * * * * * * * * * * * * * * * * * * * * * * * * * //

dimensions      [0 0 0 0 0 0 0];

internalField   nonuniform List<symmTensor> 
400
(
(2.4009 1.61137 4.62351e-316 -3.33532 4.90928e-316 0.93442)
(4.30898 0.246539 4.51888e-316 -2.85484 4.98378e-316 -1.45414)
(5.10777 -1.46531 4.26452e-316 -2.58384 4.77336e-316 -2.52393)
(4.77698 -2.61371 3.96915e-316 -2.0333 4.43904e-316 -2.74368)
(4.38906 -3.87241 3.63703e-316 -1.76875 4.04214e-316 -2.62031)
(3.56045 -4.67142 3.32073e-316 -1.3227 3.64939e-316 -2.23775)
(2.87294 -5.41452 3.00956e-316 -1.07629 3.25497e-316 -1.79665)
(1.98481 -5.86575 2.72562e-316 -0.707464 2.90357e-316 -1.27735)
(1.21801 -6.19003 2.45896e-316 -0.458276 2.56374e-316 -0.75973)
(0.323701 -6.32734 2.21599e-316 -0.116863 2.27469e-316 -0.206838)
(-0.500769 -6.30297 1.99221e-316 0.158655 1.99608e-316 0.342114)
(-1.42414 -6.14058 1.78429e-316 0.510859 1.7646e-316 0.913283)
(-2.28845 -5.78306 1.5942e-316 0.82066 1.53917e-316 1.46779)
(-3.20671 -5.31538 1.41008e-316 1.19753 1.35265e-316 2.00918)
(-3.98377 -4.60198 1.24046e-316 1.51744 1.16806e-316 2.46634)
(-4.70996 -3.83069 1.06466e-316 1.90188 1.01114e-316 2.80808)
(-5.04476 -2.73311 8.95857e-317 2.16613 8.51553e-317 2.87864)
(-5.08049 -1.6994 7.06308e-317 2.50991 7.02618e-317 2.57058)
(-4.14245 -0.283722 5.09436e-317 2.62653 5.34729e-317 1.51592)
(-2.14358 0.912638 2.79999e-317 2.79442 3.27065e-317 -0.650844)
(1.43185 1.28359 3.40697e-316 -3.59123 3.87723e-316 2.15938)
(2.899 0.471757 3.38123e-316 -3.39676 4.29507e-316 0.497759)
(3.43212 -0.550585 3.22058e-316 -3.01424 4.30787e-316 -0.417873)
(3.44396 -1.35147 3.01994e-316 -2.61104 4.10581e-316 -0.832923)
(3.17827 -2.16591 2.7907e-316 -2.21781 3.78942e-316 -0.960457)
(2.70262 -2.72918 2.56941e-316 -1.79332 3.44127e-316 -0.909302)
(2.1983 -3.23089 2.35298e-316 -1.42893 3.07748e-316 -0.769371)
(1.57854 -3.52173 2.15359e-316 -1.00655 2.74299e-316 -0.571991)
(0.994086 -3.73069 1.9666e-316 -0.64241 2.41965e-316 -0.351676)
(0.323197 -3.77199 1.79462e-316 -0.211012 2.14074e-316 -0.112185)
(-0.307776 -3.72668 1.6357e-316 0.178157 1.87609e-316 0.129619)
(-1.00249 -3.55162 1.48745e-316 0.628757 1.65506e-316 0.373732)
(-1.65294 -3.28788 1.3519e-316 1.05142 1.44541e-316 0.601524)
(-2.31345 -2.93777 1.22226e-316 1.51036 1.27373e-316 0.803087)
(-2.88969 -2.49246 1.10467e-316 1.94711 1.11098e-316 0.942578)
(-3.34821 -2.02606 9.87266e-317 2.36365 9.79391e-317 0.984561)
(-3.60594 -1.43965 8.78283e-317 2.75437 8.55865e-317 0.851571)
(-3.47627 -0.936809 7.59973e-317 3.02513 7.53093e-317 0.451145)
(-2.85954 -0.274158 6.35833e-317 3.24241 6.45193e-317 -0.382865)
(-1.34814 0.14787 4.79575e-317 3.19472 5.10511e-317 -1.84658)
(1.30703 2.67096 2.31211e-316 -3.7362 2.99736e-316 2.42918)
(2.30383 1.67853 2.3552e-316 -3.32406 3.70964e-316 1.02022)
(2.66931 0.728487 2.27408e-316 -2.92284 3.89731e-316 0.253531)
(2.5747 -0.0595505 2.16204e-316 -2.4352 3.79357e-316 -0.139494)
(2.39964 -0.803135 2.02666e-316 -2.08063 3.5389e-316 -0.319002)
(2.04578 -1.31122 1.89471e-316 -1.6791 3.22663e-316 -0.366687)
(1.72263 -1.75819 1.76296e-316 -1.37959 2.89137e-316 -0.343048)
(1.29965 -1.99494 1.63947e-316 -1.02614 2.5746e-316 -0.273508)
(0.911724 -2.15589 1.52075e-316 -0.728065 2.2702e-316 -0.183659)
(0.444227 -2.14934 1.40901e-316 -0.365075 2.00272e-316 -0.079152)
(-0.0110572 -2.0652 1.3032e-316 -0.0143598 1.75253e-316 0.0254169)
(-0.530551 -1.86092 1.20263e-316 0.401963 1.53892e-316 0.128588)
(-1.05718 -1.59441 1.10948e-316 0.842414 1.33968e-316 0.214765)
(-1.60142 -1.26416 1.0206e-316 1.32424 1.17194e-316 0.277176)
(-2.13843 -0.898952 9.41866e-317 1.84907 1.01634e-316 0.289365)
(-2.57359 -0.534897 8.67917e-317 2.34573 8.88826e-317 0.227859)
(-2.90177 -0.15062 8.07879e-317 2.86228 7.76786e-317 0.039487)
(-2.88072 0.183533 7.52458e-317 3.22063 6.96878e-317 -0.33991)
(-2.46743 0.557432 7.09112e-317 3.49819 6.40198e-317 -1.03076)
(-1.22708 0.893622 6.39888e-317 3.44705 6.15543e-317 -2.21997)
(0.575858 2.96508 1.00624e-316 -2.13914 1.9806e-316 1.56328)
(1.2953 2.10076 1.16801e-316 -2.09572 3.02509e-316 0.800417)
(1.56986 1.24194 1.21727e-316 -1.88622 3.39261e-316 0.316358)
(1.65968 0.55952 1.22886e-316 -1.69821 3.39075e-316 0.0385252)
(1.58143 -0.0707257 1.21551e-316 -1.47486 3.20271e-316 -0.10657)
(1.44664 -0.474552 1.1906e-316 -1.28155 2.93621e-316 -0.165093)
(1.27024 -0.819077 1.15665e-316 -1.09612 2.63809e-316 -0.174118)
(1.05411 -0.959533 1.11637e-316 -0.903271 2.35005e-316 -0.150839)
(0.832475 -1.046 1.07056e-316 -0.71943 2.07228e-316 -0.113045)
(0.558823 -0.956427 1.0204e-316 -0.493062 1.82574e-316 -0.0657611)
(0.277372 -0.830578 9.67259e-317 -0.257131 1.59592e-316 -0.0202403)
(-0.0654165 -0.563333 9.11685e-317 0.0442723 1.39757e-316 0.0211442)
(-0.431541 -0.299219 8.56638e-317 0.385393 1.2127e-316 0.0461477)
(-0.835448 0.0512524 8.02032e-317 0.786985 1.05392e-316 0.0484625)
(-1.26607 0.335656 7.53917e-317 1.25811 9.04387e-317 0.00795812)
(-1.62186 0.620557 7.11834e-317 1.71557 7.76425e-317 -0.0937048)
(-1.94903 0.783668 6.87942e-317 2.24352 6.59085e-317 -0.294492)
(-1.92226 0.841117 6.79094e-317 2.55897 5.71876e-317 -0.636706)
(-1.68014 0.803609 7.06193e-317 2.86456 5.27649e-317 -1.18442)
(-0.706856 0.581215 7.34616e-317 2.69657 5.90353e-317 -1.98971)
(0.526205 3.40292 -1.64516e-317 -1.64998 1.01905e-316 1.12378)
(0.999592 2.57634 1.10434e-317 -1.55781 2.3253e-316 0.558215)
(1.1882 1.83731 2.94347e-317 -1.42042 2.84473e-316 0.232219)
(1.2315 1.14672 4.30728e-317 -1.27935 2.93771e-316 0.0478432)
(1.23135 0.571196 5.33139e-317 -1.17937 2.81852e-316 -0.0519756)
(1.16863 0.157073 6.07227e-317 -1.07218 2.60424e-316 -0.096446)
(1.12668 -0.157987 6.58437e-317 -1.01643 2.35157e-316 -0.110249)
(1.03173 -0.301957 6.89559e-317 -0.928776 2.09982e-316 -0.102956)
(0.95751 -0.360809 7.03738e-317 -0.869397 1.85588e-316 -0.0881133)
(0.815109 -0.263237 7.03662e-317 -0.747316 1.63524e-316 -0.0677933)
(0.66363 -0.0996757 6.92041e-317 -0.611041 1.42981e-316 -0.0525891)
(0.423958 0.195507 6.70513e-317 -0.380877 1.24785e-316 -0.0430808)
(0.129328 0.507063 6.42197e-317 -0.0772217 1.07725e-316 -0.0521064)
(-0.246857 0.910429 6.07071e-317 0.330663 9.23356e-317 -0.0838063)
(-0.71462 1.22424 5.69641e-317 0.8738 7.73817e-317 -0.15918)
(-1.15946 1.57229 5.28186e-317 1.45315 6.32019e-317 -0.293693)
(-1.65789 1.67067 4.90335e-317 2.18465 4.90251e-317 -0.526756)
(-1.81551 1.7456 4.53818e-317 2.71568 3.56556e-317 -0.900171)
(-1.79129 1.45536 4.31855e-317 3.28377 2.57082e-317 -1.49247)
(-0.869357 1.12952 4.32247e-317 3.28176 2.62851e-317 -2.41241)
(0.114239 3.56304 -1.32288e-316 -0.577675 5.05996e-318 0.463435)
(0.343592 2.72665 -9.34959e-317 -0.572767 1.57347e-316 0.229175)
(0.497313 1.97116 -6.04313e-317 -0.57184 2.228e-316 0.0745268)
(0.60745 1.31116 -3.34877e-317 -0.590493 2.41994e-316 -0.0169577)
(0.690614 0.744822 -1.11222e-317 -0.624986 2.37915e-316 -0.0656282)
(0.756949 0.373047 6.28766e-318 -0.671036 2.22995e-316 -0.0859128)
(0.82624 0.0783407 1.98492e-317 -0.736276 2.03276e-316 -0.089964)
(0.875517 -0.0173919 2.9777e-317 -0.791895 1.82742e-316 -0.0836213)
(0.931558 -0.0493822 3.67919e-317 -0.856994 1.62396e-316 -0.0745644)
(0.939533 0.111915 4.12549e-317 -0.874422 1.4369e-316 -0.0651109)
(0.937609 0.317573 4.36286e-317 -0.875136 1.26144e-316 -0.0624731)
(0.838539 0.709404 4.41719e-317 -0.769282 1.10448e-316 -0.0692569)
(0.698377 1.08831 4.31751e-317 -0.602406 9.56997e-317 -0.0959713)
(0.41152 1.62569 4.07005e-317 -0.261387 8.22925e-317 -0.150134)
(0.0632892 2.01412 3.69112e-317 0.188611 6.92174e-317 -0.2519)
(-0.409388 2.48258 3.16655e-317 0.832274 5.66354e-317 -0.422886)
(-0.881712 2.57342 2.50817e-317 1.58822 4.36925e-317 -0.706511)
(-1.23071 2.59865 1.71987e-317 2.38862 3.05108e-317 -1.15791)
(-1.30912 2.06086 8.54537e-318 3.17708 1.76077e-317 -1.86796)
(-0.683675 1.31085 2.61196e-318 3.62648 6.09252e-318 -2.94281)
(0.0417668 3.56488 -2.11649e-316 -0.0534214 -7.27932e-317 0.0116546)
(0.108338 2.78569 -1.67155e-316 -0.0513148 8.63633e-317 -0.0570228)
(0.222393 2.08588 -1.24126e-316 -0.134588 1.60071e-316 -0.0878049)
(0.328004 1.43545 -8.77789e-317 -0.227307 1.87732e-316 -0.100698)
(0.477906 0.892491 -5.69601e-317 -0.374914 1.9151e-316 -0.102992)
(0.605002 0.500598 -3.25184e-317 -0.507122 1.83566e-316 -0.0978799)
(0.774622 0.206386 -1.31844e-317 -0.68471 1.70002e-316 -0.0899121)
(0.912518 0.0732211 1.48701e-318 -0.832879 1.54632e-316 -0.0796395)
(1.0871 0.0370919 1.23852e-317 -1.01473 1.38805e-316 -0.0723656)
(1.1996 0.160598 2.00743e-317 -1.13175 1.23802e-316 -0.0678522)
(1.32301 0.383707 2.51258e-317 -1.2493 1.09553e-316 -0.073706)
(1.32118 0.765531 2.78893e-317 -1.2302 9.65575e-317 -0.0909764)
(1.27645 1.21469 2.86971e-317 -1.14375 8.43151e-317 -0.132694)
(1.02527 1.80796 2.75908e-317 -0.819406 7.30029e-317 -0.205865)
(0.666447 2.33721 2.46937e-317 -0.329742 6.19583e-317 -0.336704)
(0.0838309 2.95986 1.97284e-317 0.466617 5.10135e-317 -0.550448)
(-0.593608 3.22631 1.26244e-317 1.50033 3.93746e-317 -0.906725)
(-1.2284 3.49815 3.32267e-318 2.71028 2.61636e-317 -1.48189)
(-1.61937 3.07017 -8.02687e-318 4.04309 1.05487e-317 -2.42372)
(-1.05133 2.61625 -1.73374e-317 5.01368 -9.05224e-318 -3.96234)
(-0.221373 3.51824 -2.68482e-316 0.753015 -1.33754e-316 -0.531642)
(-0.343038 2.69907 -2.2201e-316 0.703928 2.32472e-317 -0.36089)
(-0.27912 1.96012 -1.726e-316 0.53626 1.00887e-316 -0.25714)
(-0.146745 1.33229 -1.29769e-316 0.33873 1.35422e-316 -0.191985)
(0.0397905 0.776859 -9.28429e-317 0.107849 1.46477e-316 -0.147639)
(0.242287 0.405441 -6.32662e-317 -0.125954 1.45403e-316 -0.116333)
(0.47067 0.0966184 -3.96007e-317 -0.377658 1.37907e-316 -0.0930115)
(0.703797 -0.0280334 -2.14007e-317 -0.628185 1.27699e-316 -0.0756118)
(0.960805 -0.0785945 -7.58611e-318 -0.896174 1.16285e-316 -0.0646314)
(1.19125 0.0646077 2.47092e-318 -1.13068 1.04975e-316 -0.060568)
(1.43448 0.299914 9.43688e-318 -1.36647 9.39616e-317 -0.0680131)
(1.56806 0.756399 1.37274e-317 -1.47736 8.37825e-317 -0.0906995)
(1.68431 1.28687 1.56632e-317 -1.54454 7.42074e-317 -0.139769)
(1.54502 2.06059 1.53786e-317 -1.31768 6.54685e-317 -0.227338)
(1.3623 2.77458 1.28486e-317 -0.981714 5.71559e-317 -0.380591)
(0.769036 3.6957 7.96377e-318 -0.133081 4.91429e-317 -0.635954)
(0.212106 4.21007 2.62107e-319 0.852427 4.06278e-317 -1.06453)
(-0.674268 4.76769 -1.00878e-317 2.44621 3.02269e-317 -1.77195)
(-1.07734 4.44631 -2.38342e-317 4.02258 1.48861e-317 -2.94525)
(-0.89619 3.89859 -3.717e-317 5.74698 -1.27725e-317 -4.85079)
(-0.340827 3.2908 -2.83657e-316 1.36329 -1.68713e-316 -1.02246)
(-0.567807 2.53744 -2.4153e-316 1.21771 -2.72019e-317 -0.649901)
(-0.530915 1.83717 -1.92545e-316 0.951798 4.87013e-317 -0.420883)
(-0.381529 1.23746 -1.48847e-316 0.662831 8.73648e-317 -0.281302)
(-0.162577 0.699011 -1.10675e-316 0.356027 1.04362e-316 -0.19345)
(0.0800213 0.309338 -7.96569e-317 0.0570981 1.09395e-316 -0.137119)
(0.362096 -0.0166316 -5.46475e-317 -0.26219 1.07548e-316 -0.0999057)
(0.651033 -0.201199 -3.50967e-317 -0.576161 1.02224e-316 -0.0748721)
(0.991356 -0.289512 -2.00096e-317 -0.930759 9.50464e-317 -0.0605964)
(1.30436 -0.231714 -8.68399e-318 -1.2491 8.72963e-317 -0.0552607)
(1.66908 -0.0213438 -4.5415e-319 -1.60497 7.94096e-317 -0.0641054)
(1.91048 0.355548 5.14321e-318 -1.82111 7.19331e-317 -0.0893736)
(2.16866 0.93204 8.49031e-318 -2.02367 6.48908e-317 -0.144987)
(2.1201 1.69108 9.77164e-318 -1.87752 5.85295e-317 -0.242577)
(2.01889 2.60499 9.10871e-318 -1.6028 5.26921e-317 -0.416088)
(1.38197 3.67427 6.46012e-318 -0.67588 4.7277e-317 -0.706087)
(0.680739 4.61453 1.59679e-318 0.522152 4.16341e-317 -1.20289)
(-0.53204 5.61779 -5.41658e-318 2.57062 3.42961e-317 -2.03858)
(-1.35877 5.92331 -1.52817e-317 4.8351 2.15884e-317 -3.47632)
(-1.41258 6.27028 -2.64943e-317 7.38333 -4.08331e-318 -5.97075)
(-0.524199 2.99214 -2.79356e-316 2.04344 -1.83622e-316 -1.51924)
(-0.891603 2.25618 -2.43766e-316 1.8187 -6.17354e-317 -0.927099)
(-0.927387 1.56903 -1.98456e-316 1.50003 8.70318e-318 -0.572646)
(-0.770527 1.02087 -1.56767e-316 1.13242 4.87845e-317 -0.361895)
(-0.56581 0.49276 -1.19638e-316 0.79863 6.96663e-317 -0.23282)
(-0.29269 0.116935 -8.90258e-317 0.446021 7.92534e-317 -0.153331)
(-0.0105585 -0.231808 -6.40104e-317 0.112585 8.17982e-317 -0.102026)
(0.32363 -0.441685 -4.42105e-317 -0.254457 8.03759e-317 -0.0691733)
(0.683322 -0.575871 -2.86944e-317 -0.634147 7.65976e-317 -0.0491744)
(1.0722 -0.55388 -1.68385e-317 -1.0314 7.17376e-317 -0.0407969)
(1.49559 -0.378833 -8.00203e-318 -1.44911 6.63742e-317 -0.0464773)
(1.85882 0.00626839 -1.72002e-318 -1.78796 6.10969e-317 -0.0708534)
(2.24026 0.62319 2.37753e-318 -2.11479 5.60895e-317 -0.125471)
(2.34859 1.52805 4.59144e-318 -2.12214 5.16596e-317 -0.226448)
(2.44877 2.65992 5.04643e-318 -2.04203 4.78079e-317 -0.406734)
(1.91955 4.12841 3.98754e-318 -1.20313 4.45603e-317 -0.716423)
(1.46924 5.54373 1.23433e-318 -0.216919 4.13926e-317 -1.25232)
(0.142304 7.19515 -2.88713e-318 2.02915 3.7154e-317 -2.17146)
(-0.488269 8.07588 -9.09806e-318 4.24946 2.79845e-317 -3.76119)
(-0.955168 8.81408 -1.78299e-317 7.40841 6.03794e-318 -6.45324)
(-0.671558 2.6012 -2.47769e-316 2.6559 -1.80762e-316 -1.98434)
(-1.08213 1.96903 -2.22395e-316 2.25793 -8.46857e-317 -1.1758)
(-1.14966 1.36202 -1.85572e-316 1.85402 -2.27131e-317 -0.704354)
(-0.973115 0.863063 -1.49738e-316 1.40272 1.65343e-317 -0.429603)
(-0.780592 0.370773 -1.16983e-316 1.04583 3.97694e-317 -0.265242)
(-0.4993 -0.0154686 -8.92465e-317 0.665424 5.27463e-317 -0.166124)
(-0.215094 -0.382171 -6.62088e-317 0.318881 5.88487e-317 -0.103787)
(0.133252 -0.654813 -4.75757e-317 -0.0691149 6.07102e-317 -0.0641368)
(0.527501 -0.845998 -3.26935e-317 -0.487602 5.9876e-317 -0.039899)
(0.959276 -0.932214 -2.10105e-317 -0.931438 5.75669e-317 -0.0278385)
(1.47174 -0.82606 -1.19884e-317 -1.44096 5.44519e-317 -0.030776)
(1.92798 -0.5811 -5.18439e-318 -1.87625 5.11304e-317 -0.0517305)
(2.46859 0.0164619 -1.99197e-319 -2.36466 4.78864e-317 -0.103925)
(2.7164 0.796099 3.30174e-318 -2.51471 4.50378e-317 -0.201686)
(3.00503 2.08886 5.63473e-318 -2.62357 4.26695e-317 -0.381455)
(2.55966 3.57021 7.11459e-318 -1.86723 4.08516e-317 -0.69243)
(2.12718 5.52861 8.0014e-318 -0.885843 3.92072e-317 -1.24133)
(0.543393 7.59797 8.49473e-318 1.65448 3.69935e-317 -2.19788)
(-0.565615 9.53263 8.54196e-318 4.47865 3.14019e-317 -3.91304)
(-1.60097 11.5893 5.65277e-318 8.65884 1.81189e-317 -7.05787)
(-0.780129 2.0761 -2.1277e-316 3.12996 -1.62392e-316 -2.34984)
(-1.30383 1.56079 -1.95778e-316 2.67493 -8.95438e-317 -1.37111)
(-1.45233 1.06163 -1.67063e-316 2.25577 -3.82145e-317 -0.803448)
(-1.29429 0.648928 -1.3756e-316 1.77151 -2.71037e-318 -0.47722)
(-1.1456 0.208448 -1.09698e-316 1.43072 2.02239e-317 -0.28512)
(-0.872371 -0.164096 -8.55269e-317 1.04365 3.43786e-317 -0.171276)
(-0.628768 -0.541445 -6.49851e-317 0.728824 4.22432e-317 -0.100056)
(-0.28156 -0.854031 -4.80471e-317 0.336617 4.59567e-317 -0.0550576)
(0.0719013 -1.09819 -3.42343e-317 -0.0460212 4.69039e-317 -0.0258801)
(0.524789 -1.25594 -2.31713e-317 -0.515081 4.61989e-317 -0.00970763)
(1.01035 -1.22135 -1.44251e-317 -1.00345 4.45202e-317 -0.00689523)
(1.54297 -1.04147 -7.61983e-318 -1.52093 4.24434e-317 -0.0220408)
(2.10741 -0.476297 -2.41261e-318 -2.04221 4.02856e-317 -0.0652009)
(2.5279 0.345879 1.57059e-318 -2.37492 3.83534e-317 -0.152977)
(2.95017 1.78689 4.62225e-318 -2.6335 3.6755e-317 -0.316678)
(2.77156 3.62798 7.21581e-318 -2.16357 3.55952e-317 -0.607992)
(2.65188 6.14148 9.66172e-318 -1.52688 3.45861e-317 -1.125)
(1.296 9.10414 1.23169e-317 0.742447 3.34108e-317 -2.03845)
(0.671675 12.0294 1.53756e-317 2.99596 3.03005e-317 -3.66764)
(-0.537349 15.0153 1.58191e-317 7.03487 2.32229e-317 -6.49752)
(-0.912143 1.62973 -1.71582e-316 3.56052 -1.45472e-316 -2.64838)
(-1.41264 1.23675 -1.62884e-316 2.91913 -9.5102e-317 -1.5065)
(-1.60142 0.85646 -1.43016e-316 2.46578 -5.28846e-317 -0.864362)
(-1.43769 0.500714 -1.20489e-316 1.9402 -2.05565e-317 -0.502515)
(-1.33372 0.112408 -9.83273e-317 1.6269 2.14915e-318 -0.293179)
(-1.08229 -0.256161 -7.83493e-317 1.25305 1.73045e-317 -0.170751)
(-0.872075 -0.638217 -6.09192e-317 0.967033 2.66582e-317 -0.0949579)
(-0.548676 -0.987623 -4.61257e-317 0.595355 3.19786e-317 -0.0466798)
(-0.208912 -1.28035 -3.37627e-317 0.223512 3.45054e-317 -0.0146004)
(0.234442 -1.52344 -2.358e-317 -0.23988 3.52735e-317 0.0054388)
(0.748244 -1.57679 -1.52775e-317 -0.761232 3.4946e-317 0.012988)
(1.31963 -1.54723 -8.54901e-318 -1.32471 3.40649e-317 0.00508167)
(2.00278 -1.07855 -3.07198e-318 -1.97428 3.29448e-317 -0.0285035)
(2.55787 -0.470809 1.48808e-318 -2.45681 3.18536e-317 -0.101063)
(3.22862 0.987274 5.51586e-318 -2.98614 3.0877e-317 -0.242487)
(3.25473 2.61491 9.39509e-318 -2.75879 3.00819e-317 -0.495946)
(3.37811 5.5415 1.36749e-317 -2.42626 2.92462e-317 -0.951855)
(1.92724 8.54302 1.84573e-317 -0.163811 2.82668e-317 -1.76343)
(0.907294 12.5986 2.43783e-317 2.35831 2.66642e-317 -3.2656)
(-1.37384 16.7168 2.83257e-317 7.5821 2.54669e-317 -6.20826)
(-0.942461 1.00556 -1.35707e-316 3.70928 -1.1166e-316 -2.76682)
(-1.54618 0.805983 -1.31172e-316 3.10174 -7.98677e-317 -1.55556)
(-1.79793 0.618634 -1.17363e-316 2.67577 -4.91359e-317 -0.877835)
(-1.67828 0.360516 -1.01167e-316 2.17963 -2.32893e-317 -0.501354)
(-1.61273 0.0605689 -8.4482e-317 1.89939 -3.74208e-318 -0.286657)
(-1.38888 -0.289683 -6.88663e-317 1.55152 9.94302e-318 -0.162645)
(-1.22806 -0.652846 -5.46818e-317 1.31396 1.88312e-317 -0.0858986)
(-0.935428 -1.02629 -4.22405e-317 0.972151 2.41942e-317 -0.0367228)
(-0.67428 -1.34379 -3.15233e-317 0.676627 2.70508e-317 -0.00234635)
(-0.264445 -1.64881 -2.2471e-317 0.243592 2.82624e-317 0.0208533)
(0.141026 -1.77041 -1.49203e-317 -0.175269 2.84146e-317 0.0342426)
(0.713219 -1.8399 -8.6659e-318 -0.747322 2.79718e-317 0.0341029)
(1.28566 -1.46563 -3.48006e-318 -1.2993 2.72152e-317 0.0136391)
(1.96515 -0.93622 9.32282e-319 -1.92473 2.63633e-317 -0.0404183)
(2.59429 0.51557 4.84215e-318 -2.44471 2.54766e-317 -0.149577)
(3.00215 2.31259 8.62607e-318 -2.65069 2.45967e-317 -0.351459)
(3.30886 5.64027 1.26416e-317 -2.59832 2.35448e-317 -0.710538)
(2.58253 9.53297 1.70367e-317 -1.23707 2.23661e-317 -1.34547)
(2.23483 14.7604 2.22364e-317 0.236907 2.12967e-317 -2.47174)
(0.545919 20.3721 2.61905e-317 3.83364 2.21742e-317 -4.37956)
(-1.00844 0.655861 -1.069e-316 3.78449 -1.06575e-316 -2.77605)
(-1.52111 0.529237 -1.05342e-316 3.04293 -8.57234e-317 -1.52182)
(-1.8094 0.435181 -9.59935e-317 2.65301 -5.87539e-317 -0.843602)
(-1.70433 0.215921 -8.46264e-317 2.17894 -3.39427e-317 -0.474607)
(-1.68772 -0.0442709 -7.22846e-317 1.95518 -1.49275e-317 -0.267459)
(-1.50164 -0.369592 -6.01999e-317 1.65067 -1.22934e-318 -0.149023)
(-1.38121 -0.718669 -4.87739e-317 1.45707 7.88505e-318 -0.075867)
(-1.13418 -1.07905 -3.83873e-317 1.16248 1.37319e-317 -0.0282986)
(-0.916214 -1.41073 -2.91846e-317 0.910132 1.72204e-317 0.00608243)
(-0.562479 -1.7384 -2.12034e-317 0.531175 1.91641e-317 0.0313037)
(-0.192514 -1.92914 -1.43783e-317 0.143822 2.00816e-317 0.0486928)
(0.339852 -2.09753 -8.57116e-318 -0.395728 2.03822e-317 0.0558767)
(0.942773 -1.87085 -3.58994e-318 -0.989655 2.03005e-317 0.0468826)
(1.67396 -1.56894 7.85278e-319 -1.68615 2.00076e-317 0.0121929)
(2.51638 -0.305071 4.83366e-318 -2.45124 1.95305e-317 -0.0651425)
(3.14323 1.07511 8.75664e-318 -2.93349 1.88655e-317 -0.209735)
(3.89773 4.40015 1.29309e-317 -3.43406 1.78842e-317 -0.463671)
(3.2237 7.66227 1.72157e-317 -2.32698 1.66165e-317 -0.896723)
(2.82129 13.5153 2.20299e-317 -1.15105 1.58501e-317 -1.67024)
(-0.67753 19.014 2.61275e-317 4.01138 1.81696e-317 -3.33385)
(-0.968958 0.102716 -6.62992e-317 3.54183 -6.22251e-317 -2.57288)
(-1.58842 0.184817 -6.93464e-317 2.98 -5.77768e-317 -1.39158)
(-1.8837 0.330055 -6.70664e-317 2.64423 -4.18258e-317 -0.760534)
(-1.82677 0.191069 -6.26953e-317 2.24967 -2.45825e-317 -0.422909)
(-1.80981 0.047984 -5.62896e-317 2.04562 -1.02375e-317 -0.235813)
(-1.64193 -0.246707 -4.85909e-317 1.77172 3.66078e-319 -0.129788)
(-1.55439 -0.529083 -4.04276e-317 1.61829 7.6429e-318 -0.0639011)
(-1.34364 -0.870466 -3.23928e-317 1.36408 1.23848e-317 -0.0204471)
(-1.2137 -1.16501 -2.49284e-317 1.20118 1.52776e-317 0.0125184)
(-0.929519 -1.49727 -1.82374e-317 0.891366 1.69039e-317 0.0381525)
(-0.715136 -1.70041 -1.2397e-317 0.656397 1.76666e-317 0.0587391)
(-0.261462 -1.92764 -7.35825e-318 0.189765 1.78742e-317 0.071697)
(0.116661 -1.79599 -3.02472e-318 -0.19051 1.77138e-317 0.0738491)
(0.859646 -1.62386 7.67289e-319 -0.916488 1.73137e-317 0.0568422)
(1.43436 -0.526043 4.15927e-318 -1.44605 1.66938e-317 0.0116913)
(2.42779 0.771036 7.31169e-318 -2.34993 1.58394e-317 -0.0778527)
(2.994 4.10677 1.03178e-317 -2.77127 1.46596e-317 -0.222728)
(3.57274 7.93911 1.31023e-317 -3.1374 1.31945e-317 -0.435343)
(3.60093 14.7228 1.56238e-317 -2.92557 1.22365e-317 -0.675363)
(2.31545 22.4354 1.77744e-317 -1.65834 1.35473e-317 -0.657111)
(-0.907757 -0.00784847 -4.82211e-317 3.14197 -8.04399e-317 -2.23422)
(-1.35078 0.00414314 -5.28322e-317 2.52919 -7.08816e-317 -1.17841)
(-1.65435 0.106815 -5.26022e-317 2.28946 -5.17389e-317 -0.635115)
(-1.62619 -0.0302384 -5.06758e-317 1.97658 -3.22277e-317 -0.350385)
(-1.63982 -0.19214 -4.63455e-317 1.83426 -1.84099e-317 -0.194436)
(-1.51596 -0.434233 -4.06612e-317 1.62258 -8.44867e-318 -0.106615)
(-1.45505 -0.697025 -3.42586e-317 1.50661 -1.88295e-318 -0.0515678)
(-1.29701 -0.972352 -2.77919e-317 1.31152 2.53638e-318 -0.0145105)
(-1.20854 -1.24657 -2.16644e-317 1.19376 5.39719e-318 0.0147736)
(-1.00184 -1.53432 -1.60921e-317 0.962885 7.25602e-318 0.0389544)
(-0.847329 -1.76646 -1.11581e-317 0.78721 8.41739e-318 0.0601193)
(-0.496897 -2.01541 -6.83728e-318 0.420339 9.12203e-318 0.0765574)
(-0.164784 -2.03388 -3.04601e-318 0.078704 9.49647e-318 0.08608)
(0.48806 -2.03043 3.21454e-319 -0.57124 9.62903e-318 0.0831799)
(1.15543 -1.30064 3.40067e-318 -1.21828 9.52778e-318 0.0628532)
(2.16624 -0.493297 6.20942e-318 -2.18481 9.17452e-318 0.0185658)
(3.23932 2.22253 8.83473e-318 -3.19811 8.53734e-318 -0.041209)
(3.72979 4.75416 1.10017e-317 -3.64862 7.63616e-318 -0.0811683)
(4.43722 10.9252 1.2606e-317 -4.45703 7.20535e-318 0.0198092)
(0.22595 15.8536 1.39902e-317 -0.482245 8.76456e-318 0.256295)
(-0.797337 -0.387968 1.12411e-317 2.50154 -1.54537e-317 -1.7042)
(-1.38074 -0.173332 -6.32183e-318 2.26935 -2.98116e-317 -0.888604)
(-1.58491 0.196762 -2.11416e-317 2.06003 -2.42751e-317 -0.475116)
(-1.57202 0.126147 -2.78578e-317 1.83355 -1.50392e-317 -0.26153)
(-1.5359 0.141243 -3.00537e-317 1.68119 -6.68303e-318 -0.145289)
(-1.39798 -0.0468569 -2.82624e-317 1.47806 -2.94394e-319 -0.0800769)
(-1.35361 -0.164204 -2.47882e-317 1.39207 4.39127e-318 -0.0384562)
(-1.21785 -0.370116 -2.04207e-317 1.22771 7.67222e-318 -0.00985239)
(-1.20878 -0.518719 -1.59867e-317 1.19486 9.90379e-318 0.013926)
(-1.07458 -0.725929 -1.17818e-317 1.04015 1.13453e-317 0.0344333)
(-1.07609 -0.864433 -8.0057e-318 1.02222 1.22019e-317 0.0538638)
(-0.8467 -1.04442 -4.67947e-318 0.776088 1.26276e-317 0.0706117)
(-0.783551 -1.05341 -1.78808e-318 0.699454 1.27225e-317 0.0840963)
(-0.246524 -1.05411 7.44611e-319 0.156474 1.25587e-317 0.0900498)
(-0.0183359 -0.51465 2.95805e-318 -0.0692929 1.21532e-317 0.0876288)
(1.1731 0.13731 4.88248e-318 -1.2474 1.15062e-317 0.0742993)
(1.55411 2.3913 6.41866e-318 -1.62664 1.06069e-317 0.0725251)
(3.62096 4.96558 7.42093e-318 -3.76966 9.48242e-318 0.148702)
(3.68537 11.1496 7.51784e-318 -4.28442 8.5969e-318 0.599049)
(4.56526 19.3482 7.45728e-318 -7.1533 8.25757e-318 2.58804)
(-0.504781 -0.169342 -4.52123e-318 1.57096 -5.4245e-317 -1.06618)
(-0.73524 -0.266736 -1.38436e-317 1.28381 -4.12595e-317 -0.548565)
(-0.918607 -0.234836 -2.00814e-317 1.2111 -2.91181e-317 -0.292495)
(-0.935491 -0.333615 -2.25367e-317 1.09725 -1.80427e-317 -0.161756)
(-0.931403 -0.47161 -2.20258e-317 1.022 -1.22036e-317 -0.0906017)
(-0.867185 -0.581531 -2.00324e-317 0.917926 -8.26735e-318 -0.0507411)
(-0.83743 -0.7361 -1.72164e-317 0.862028 -5.92289e-318 -0.0245987)
(-0.767163 -0.854146 -1.41715e-317 0.77337 -4.29259e-318 -0.00620726)
(-0.757462 -1.00737 -1.11819e-317 0.747574 -3.1793e-318 0.00988823)
(-0.689196 -1.15505 -8.41356e-318 0.664854 -2.35122e-318 0.0243422)
(-0.685496 -1.32047 -5.92934e-318 0.64667 -1.73195e-318 0.0388264)
(-0.562178 -1.50685 -3.72995e-318 0.509906 -1.24888e-318 0.0522717)
(-0.500101 -1.64856 -1.78187e-318 0.435413 -8.74684e-319 0.0646884)
(-0.183751 -1.80605 -4.85172e-320 0.110221 -5.86777e-319 0.0735298)
(0.0723538 -1.70116 1.51956e-318 -0.151592 -3.74833e-319 0.0792384)
(0.795614 -1.55841 2.87203e-318 -0.876936 -2.34133e-319 0.0813219)
(1.53178 -0.453636 3.97896e-318 -1.63185 -1.37666e-319 0.100073)
(2.46316 0.50825 4.6338e-318 -2.65557 -5.00439e-320 0.192414)
(4.18426 4.21142 4.56308e-318 -4.77075 2.18011e-319 0.586485)
(0.232289 5.58495 4.39037e-318 -1.90391 1.21138e-318 1.67162)
(-0.235566 -0.571516 5.22038e-317 0.573089 2.34205e-317 -0.337523)
(-0.742488 -0.26777 2.94311e-317 0.926367 -5.96603e-318 -0.183879)
(-0.681752 0.18078 6.48712e-318 0.781194 -8.83246e-318 -0.0994423)
(-0.655957 0.214762 -2.08481e-318 0.711985 -7.27754e-318 -0.0560281)
(-0.585457 0.462492 -6.66347e-318 0.617486 -2.94597e-318 -0.0320289)
(-0.478748 0.435016 -7.33433e-318 0.497353 1.06394e-318 -0.018605)
(-0.474136 0.584401 -6.91195e-318 0.483458 4.75112e-318 -0.00932151)
(-0.406977 0.568061 -5.73465e-318 0.40962 7.68634e-318 -0.00264344)
(-0.466645 0.676549 -4.44967e-318 0.463014 9.98713e-318 0.00363159)
(-0.44207 0.704701 -3.16628e-318 0.432628 1.16635e-317 0.00944201)
(-0.562009 0.802046 -2.01709e-318 0.546393 1.2819e-317 0.0156162)
(-0.537778 0.912186 -1.00654e-318 0.516139 1.35258e-317 0.0216385)
(-0.712901 1.02872 -1.43521e-319 0.685138 1.385e-317 0.0277628)
(-0.56786 1.29115 6.04297e-319 0.534888 1.38494e-317 0.0329717)
(-0.78271 1.49448 1.23803e-318 0.744874 1.35543e-317 0.0378361)
(-0.140312 2.03941 1.77008e-318 0.0984223 1.30029e-317 0.04189)
(-0.413832 2.54421 2.12021e-318 0.359796 1.2255e-317 0.0540356)
(1.86389 3.63029 2.21489e-318 -1.96382 1.14144e-317 0.0999253)
(1.07786 5.31348 1.84461e-318 -1.42811 1.06404e-317 0.350251)
(5.96223 10.6804 1.43867e-318 -8.02458 9.42959e-318 2.06235)
)
;

boundaryField
{
    cavity
    {
        type            mySigma;
    }
    lid
    {
        type            fixedValue;
        value           uniform (0.1 -0.3 0 -0.1 0 0);
    }
    frontAndBack
    {
        type            empty;
    }
}


// ************************************************************************* //
