/*--------------------------------*- C++ -*----------------------------------*\
| =========                 |                                                 |
| \\      /  F ield         | foam-extend: Open Source CFD                    |
|  \\    /   O peration     | Version:  3.0                                   |
|   \\  /    A nd           | Web:         http://www.extend-project.de       |
|    \\/     M anipulation  |                                                 |
\*---------------------------------------------------------------------------*/
FoamFile
{
    version     2.0;
    format      ascii;
    class       volScalarField;
    location    "10";
    object      Theta;
}
// * * * * * * * * * * * * * * * * * * * * * * * * * * * * * * * * * * * * * //

dimensions      [0 0 0 0 0 0 0];

internalField   nonuniform List<scalar> 
400
(
0.80658
-0.675576
-0.729568
-0.94419
-0.670953
-0.576335
-0.2932
-0.14242
0.0985303
0.251761
0.47018
0.617039
0.834805
0.954525
1.16409
1.18342
1.30928
1.01507
0.809993
-0.472337
2.9278
1.72282
1.45142
0.971666
0.945989
0.71039
0.705457
0.546892
0.516828
0.37677
0.323626
0.17441
0.10845
-0.0753037
-0.150962
-0.416612
-0.535737
-1.00762
-1.33145
-2.35048
2.2546
1.13909
0.996101
0.643441
0.666585
0.525682
0.550037
0.464828
0.46822
0.394866
0.388341
0.311265
0.307107
0.206078
0.201177
0.0233504
-0.0278063
-0.419931
-0.671995
-1.63893
2.24349
1.64498
1.41823
1.12569
1.03997
0.8591
0.794109
0.649112
0.581084
0.450079
0.386069
0.260794
0.210496
0.0754642
0.031521
-0.158281
-0.252194
-0.601251
-0.896278
-1.55458
1.56618
1.09079
0.994672
0.789608
0.762528
0.6455
0.623857
0.538731
0.520592
0.454701
0.456805
0.407711
0.446049
0.398027
0.466845
0.359321
0.392412
0.0742139
-0.116694
-0.919053
1.3191
1.16248
1.0569
0.928872
0.857577
0.746222
0.684242
0.585955
0.538989
0.461488
0.449417
0.401565
0.444913
0.420079
0.517307
0.458245
0.536829
0.27248
0.104755
-0.704112
0.871066
0.840767
0.811569
0.743413
0.695216
0.61573
0.567692
0.4965
0.471148
0.426123
0.453462
0.451156
0.565167
0.604285
0.82095
0.833221
1.08605
0.82443
0.811224
-0.368748
0.609251
0.798395
0.782226
0.774649
0.702032
0.6298
0.55239
0.471298
0.419733
0.363155
0.371791
0.368657
0.47942
0.544128
0.784771
0.861763
1.16801
0.979344
0.991095
-0.294051
0.302617
0.638637
0.649652
0.686836
0.605839
0.545906
0.456915
0.378235
0.31955
0.263727
0.276794
0.281359
0.426194
0.518161
0.858304
0.98694
1.50248
1.32337
1.61609
-0.118703
0.0596114
0.56629
0.596513
0.67612
0.577815
0.518793
0.402226
0.306812
0.213104
0.131166
0.101693
0.0809732
0.179604
0.268597
0.568119
0.750994
1.23522
1.18432
1.40747
-0.215671
-0.149371
0.502624
0.522597
0.635824
0.51316
0.457242
0.316274
0.207923
0.0860062
-0.022425
-0.0829977
-0.138478
-0.0570089
0.0044382
0.35057
0.539738
1.23694
1.2205
1.92757
-0.0154731
-0.341322
0.422173
0.467465
0.60609
0.476856
0.418388
0.2546
0.124046
-0.040402
-0.190929
-0.320324
-0.43302
-0.453452
-0.441792
-0.237356
-0.0289611
0.471682
0.658881
1.07051
-0.256028
-0.44437
0.414473
0.42833
0.590023
0.438641
0.382609
0.194857
0.0449358
-0.158191
-0.354324
-0.542735
-0.729318
-0.820191
-0.90145
-0.726643
-0.588417
0.0884274
0.320555
1.47248
0.143581
-0.540053
0.349794
0.395473
0.568879
0.425947
0.368816
0.166994
-0.00583362
-0.252423
-0.500209
-0.773009
-1.04283
-1.27914
-1.46003
-1.525
-1.42455
-1.14515
-0.653566
-0.170063
-0.205955
-0.49967
0.390825
0.401354
0.587952
0.437038
0.385952
0.168092
-0.0240938
-0.309655
-0.610662
-0.955132
-1.32328
-1.66822
-2.00054
-2.17421
-2.24406
-1.87066
-1.3813
0.0867255
0.458395
-0.445459
0.392109
0.436955
0.626635
0.495066
0.445038
0.220295
0.00745775
-0.315681
-0.66758
-1.09313
-1.55336
-2.05398
-2.5222
-2.9867
-3.17054
-3.35477
-2.63949
-2.31935
-0.0236295
-0.210714
0.508974
0.52802
0.723204
0.596975
0.554054
0.319528
0.0894806
-0.26595
-0.666031
-1.15688
-1.71538
-2.3333
-2.98234
-3.61336
-4.06696
-4.29201
-3.72272
-2.35872
0.664869
0.052734
0.662328
0.710566
0.902332
0.789341
0.740485
0.497725
0.247199
-0.134375
-0.57402
-1.1199
-1.755
-2.49183
-3.28373
-4.17168
-4.83071
-5.62897
-5.0736
-5.25296
-0.159953
0.505447
0.904411
0.943893
1.13547
1.02517
0.973265
0.717984
0.449796
0.0460017
-0.426732
-1.01385
-1.72017
-2.54654
-3.50049
-4.56538
-5.54709
-6.56119
-6.38246
-6.0289
-0.233578
1.03264
1.36298
1.40304
1.57114
1.43482
1.34382
1.06905
0.769723
0.360752
-0.135414
-0.721801
-1.46779
-2.31416
-3.3837
-4.54787
-5.84488
-7.16678
-7.64448
-8.46947
-2.26875
)
;

boundaryField
{
    cavity
    {
        type            implicitExtrapolation;
    }
    lid
    {
        type            implicitExtrapolation;
    }
    frontAndBack
    {
        type            empty;
    }
}


// ************************************************************************* //
