/*--------------------------------*- C++ -*----------------------------------*\
| =========                 |                                                 |
| \\      /  F ield         | foam-extend: Open Source CFD                    |
|  \\    /   O peration     | Version:  3.0                                   |
|   \\  /    A nd           | Web:         http://www.extend-project.de       |
|    \\/     M anipulation  |                                                 |
\*---------------------------------------------------------------------------*/
FoamFile
{
    version     2.0;
    format      ascii;
    class       volScalarField;
    location    "5";
    object      p;
}
// * * * * * * * * * * * * * * * * * * * * * * * * * * * * * * * * * * * * * //

dimensions      [0 0 0 0 0 0 0];

internalField   nonuniform List<scalar> 
400
(
1.26548
0.939646
0.918248
0.832153
0.79257
0.811051
0.79841
0.814934
0.813571
0.803586
-5.3429
-1.04893
-0.402468
0.399245
0.41963
0.41887
0.372292
0.246317
0.222113
0.217252
1.27722
0.947578
0.923363
0.835797
0.793943
0.812323
0.797853
0.814576
0.81211
0.801905
-1.65956
-0.411073
0.0268069
0.468761
0.46757
0.37356
0.322922
0.194445
0.170343
0.170804
1.33048
1.03662
0.966587
0.899277
0.866385
0.879233
0.873064
0.876756
0.873668
0.857802
-0.561964
0.0386197
0.246758
0.396515
0.338816
0.214936
0.163528
0.0811486
0.064385
0.0807216
1.42041
1.17517
1.10684
1.04343
1.02676
1.00948
1.00845
0.986972
0.979932
0.953893
-0.310436
0.0850887
0.119331
0.162483
0.0910912
0.0340479
-0.000972982
-0.020895
-0.0244587
0.00693085
1.66373
1.40991
1.34955
1.2499
1.23707
1.17402
1.16838
1.11961
1.10397
1.06688
-0.472469
-0.151821
-0.166505
-0.090848
-0.135901
-0.102334
-0.116253
-0.0810136
-0.0683748
-0.0254555
2.02498
1.70367
1.63082
1.47239
1.44937
1.34372
1.32617
1.25417
1.22575
1.17912
-0.77447
-0.438409
-0.423519
-0.274493
-0.287778
-0.183489
-0.179365
-0.102888
-0.0739598
-0.0227635
2.40217
1.98865
1.88777
1.67371
1.63456
1.49826
1.46584
1.37703
1.33496
1.28115
-1.0367
-0.64772
-0.586922
-0.376623
-0.366597
-0.218533
-0.201008
-0.0986915
-0.0585844
-0.00224233
2.71803
2.22054
2.08949
1.83431
1.77862
1.6235
1.57758
1.47913
1.42695
1.36841
-1.20453
-0.763883
-0.666947
-0.417462
-0.391265
-0.219772
-0.19481
-0.0800321
-0.0368216
0.0220627
2.94386
2.38545
2.2296
1.9477
1.87776
1.71266
1.65772
1.55583
1.49908
1.43789
-1.29344
-0.816189
-0.694973
-0.422788
-0.384953
-0.202657
-0.175917
-0.0575443
-0.0172109
0.0425704
3.08109
2.48627
2.31352
2.01609
1.93618
1.76677
1.70792
1.60625
1.54919
1.48682
-1.3355
-0.836681
-0.700383
-0.416026
-0.370372
-0.184072
-0.158094
-0.0400657
-0.00374494
0.0562352
3.14019
2.53045
2.34998
2.04591
1.96179
1.79106
1.73199
1.63125
1.57558
1.5129
-1.35433
-0.845985
-0.70305
-0.414043
-0.364312
-0.177083
-0.15062
-0.0332716
0.00199172
0.0621028
3.12909
2.52344
2.34528
2.04248
1.96055
1.78986
1.73267
1.63174
1.57719
1.51472
-1.35752
-0.850604
-0.709748
-0.422873
-0.372876
-0.186476
-0.15674
-0.0390988
-0.000502049
0.0598762
3.04888
2.46595
2.29989
2.00614
1.93258
1.76331
1.7099
1.60766
1.55388
1.49211
-1.3353
-0.842658
-0.712761
-0.43578
-0.389689
-0.207205
-0.173328
-0.0556937
-0.0110406
0.0494988
2.89371
2.35382
2.20838
1.93222
1.87216
1.70729
1.66082
1.55805
1.50641
1.44615
-1.26212
-0.80029
-0.691382
-0.435285
-0.397736
-0.225981
-0.191224
-0.0774645
-0.0283292
0.0315983
2.65487
2.18072
2.06277
1.81483
1.77157
1.61675
1.58152
1.48196
1.43623
1.37885
-1.1044
-0.690515
-0.615595
-0.397517
-0.374152
-0.225775
-0.196775
-0.0956585
-0.0486191
0.00894636
2.33225
1.94456
1.8582
1.65214
1.62677
1.49081
1.47023
1.3802
1.34528
1.29275
-0.84569
-0.483459
-0.453633
-0.296426
-0.295678
-0.191051
-0.174908
-0.0996988
-0.0635248
-0.0110475
1.95521
1.65966
1.60133
1.45086
1.44164
1.33632
1.3306
1.25737
1.23608
1.19073
-0.540367
-0.194838
-0.195138
-0.111698
-0.143359
-0.109449
-0.111985
-0.0779512
-0.0584702
-0.0143348
1.60098
1.37027
1.32307
1.23059
1.23024
1.16745
1.17247
1.12255
1.11333
1.07739
-0.368507
0.0480999
0.0948621
0.144683
0.0847941
0.0281087
0.00274345
-0.0181743
-0.0159529
0.0164752
1.37064
1.14368
1.08582
1.02818
1.02146
1.00438
1.01181
0.989393
0.987428
0.962294
-0.604531
0.0111785
0.228539
0.383282
0.334082
0.210608
0.166225
0.0832001
0.0706345
0.0877304
1.29814
1.01605
0.952792
0.889429
0.862922
0.875985
0.875224
0.87831
0.878455
0.863164
-1.68289
-0.425643
0.0169764
0.461525
0.464771
0.371035
0.324135
0.195394
0.173524
0.17439
)
;

boundaryField
{
    up
    {
        type            implicitExtrapolation;
    }
    hole
    {
        type            implicitExtrapolation;
    }
    frontAndBack
    {
        type            empty;
    }
}


// ************************************************************************* //
