/*--------------------------------*- C++ -*----------------------------------*\
| =========                 |                                                 |
| \\      /  F ield         | foam-extend: Open Source CFD                    |
|  \\    /   O peration     | Version:  3.0                                   |
|   \\  /    A nd           | Web:         http://www.extend-project.de       |
|    \\/     M anipulation  |                                                 |
\*---------------------------------------------------------------------------*/
FoamFile
{
    version     2.0;
    format      ascii;
    class       volScalarField;
    location    "6";
    object      p;
}
// * * * * * * * * * * * * * * * * * * * * * * * * * * * * * * * * * * * * * //

dimensions      [0 0 0 0 0 0 0];

internalField   nonuniform List<scalar> 
900
(
-0.223915
-0.194241
-0.181538
-0.1641
-0.158234
-0.147214
-0.144712
-0.137463
-0.136479
-0.131509
-0.130749
-0.127034
-0.125318
-0.121943
-0.117983
-0.221155
-0.191817
-0.179247
-0.161994
-0.156177
-0.145262
-0.142766
-0.135565
-0.134564
-0.129595
-0.128816
-0.125066
-0.123392
-0.120011
-0.116364
-0.216053
-0.187371
-0.175068
-0.158195
-0.152491
-0.141809
-0.139349
-0.132293
-0.131292
-0.126409
-0.125636
-0.121942
-0.120347
-0.117058
-0.113702
-0.208552
-0.180866
-0.168986
-0.152694
-0.147184
-0.136866
-0.134491
-0.127672
-0.126711
-0.12199
-0.121263
-0.117704
-0.116225
-0.113114
-0.109978
-0.198839
-0.172452
-0.16112
-0.145593
-0.140337
-0.130509
-0.128248
-0.121762
-0.120858
-0.116376
-0.115703
-0.112323
-0.110931
-0.107952
-0.105017
-0.186913
-0.162137
-0.151496
-0.136918
-0.131988
-0.12277
-0.120667
-0.1146
-0.113788
-0.10962
-0.10904
-0.10592
-0.104658
-0.101905
-0.0991156
-0.172997
-0.150099
-0.140259
-0.126792
-0.122243
-0.113743
-0.111823
-0.106256
-0.105554
-0.101775
-0.101311
-0.0985419
-0.0974493
-0.0950362
-0.0923513
-0.157153
-0.136398
-0.127479
-0.115278
-0.111166
-0.103481
-0.101773
-0.0967672
-0.0961853
-0.0928249
-0.0924784
-0.09005
-0.0891156
-0.086973
-0.0844806
-0.139623
-0.12123
-0.113324
-0.102519
-0.0988855
-0.0920987
-0.0906145
-0.0862246
-0.0857619
-0.082858
-0.0826228
-0.0805713
-0.079802
-0.0779945
-0.0756913
-0.120533
-0.104709
-0.097905
-0.0886155
-0.0855007
-0.0796816
-0.0784347
-0.0746952
-0.074347
-0.0719033
-0.0717654
-0.0700647
-0.0694608
-0.0679573
-0.0659719
-0.100134
-0.0870425
-0.0814077
-0.0737282
-0.0711588
-0.0663637
-0.0653576
-0.062298
-0.0620526
-0.0600759
-0.0600163
-0.0586536
-0.0582116
-0.0570018
-0.055433
-0.0786127
-0.0683919
-0.0639862
-0.0579953
-0.0559958
-0.0522693
-0.0515086
-0.0491512
-0.049002
-0.0475
-0.0475107
-0.0464927
-0.0462207
-0.0453403
-0.0442081
-0.0562178
-0.0489687
-0.0458331
-0.0415877
-0.0401733
-0.0375478
-0.0370329
-0.0353927
-0.0353316
-0.0343046
-0.0343725
-0.0336796
-0.0335644
-0.0329625
-0.03233
-0.0331895
-0.0289793
-0.0271413
-0.0246788
-0.0238589
-0.0223558
-0.0220872
-0.0211789
-0.0212043
-0.0206702
-0.0208005
-0.0204706
-0.0205316
-0.0202776
-0.0201055
-0.00976407
-0.00862852
-0.00810239
-0.00744142
-0.00722021
-0.0068484
-0.00682515
-0.00665261
-0.00676282
-0.00672633
-0.00692127
-0.00696845
-0.00721138
-0.00733214
-0.00757326
0.0137736
0.0118403
0.0110595
0.00992378
0.00955194
0.00879611
0.00858007
0.00801748
0.00782956
0.00736714
0.00712452
0.00671317
0.00634069
0.00591714
0.00531761
0.0372109
0.0322381
0.0301627
0.0272503
0.0262931
0.0244257
0.0239763
0.0226931
0.0224321
0.0214839
0.0211982
0.0204329
0.0199447
0.019225
0.0183385
0.0602313
0.0522949
0.0489611
0.0443182
0.0427968
0.0398482
0.0391793
0.0371925
0.0368672
0.0354329
0.0351082
0.0339623
0.0333679
0.0323074
0.0312457
0.0826542
0.0718454
0.0672911
0.0609743
0.0589084
0.0549198
0.0540444
0.0513907
0.0510129
0.0491334
0.0487826
0.0473158
0.0466224
0.0453207
0.0439644
0.104145
0.0906042
0.0848937
0.0769882
0.0744133
0.069442
0.0683835
0.0651033
0.0646903
0.0623854
0.0620098
0.0601865
0.0593498
0.0576462
0.0560641
0.124564
0.108438
0.101632
0.0922253
0.0891705
0.0832775
0.0820543
0.0782006
0.0777749
0.0751099
0.0747528
0.07268
0.0717687
0.0698239
0.06793
0.14357
0.125057
0.117243
0.106454
0.102965
0.0962293
0.0948707
0.0905076
0.0901012
0.0871515
0.0868687
0.0846732
0.0837783
0.0817939
0.0795013
0.161078
0.140369
0.131626
0.119566
0.115676
0.108169
0.106687
0.101859
0.101473
0.0982591
0.0980433
0.0956965
0.0947919
0.0926372
0.0900638
0.17675
0.154092
0.144525
0.131337
0.127097
0.118907
0.117324
0.112091
0.111736
0.108303
0.108163
0.105723
0.104829
0.102616
0.0997015
0.190562
0.166181
0.155884
0.1417
0.137145
0.12835
0.126669
0.121068
0.120727
0.117075
0.116982
0.114404
0.11351
0.111176
0.108109
0.202195
0.176373
0.165466
0.150447
0.14563
0.136325
0.134563
0.128646
0.128311
0.124456
0.12439
0.121659
0.120762
0.118289
0.11521
0.211687
0.18468
0.173266
0.15756
0.152521
0.142794
0.140956
0.134774
0.134432
0.130399
0.130345
0.12748
0.12659
0.124038
0.12098
0.218753
0.190867
0.179078
0.162859
0.157655
0.147609
0.145714
0.139323
0.138974
0.134786
0.134732
0.13172
0.130824
0.128125
0.125195
0.223495
0.195004
0.18295
0.166377
0.161052
0.150789
0.148848
0.14232
0.141962
0.137684
0.13764
0.134568
0.133703
0.13099
0.128141
0.225672
0.196895
0.184714
0.167969
0.162585
0.152211
0.150249
0.143649
0.143293
0.138973
0.138951
0.135872
0.135062
0.132406
0.129592
0.225446
0.196665
0.184469
0.167718
0.16232
0.151943
0.149971
0.143375
0.143016
0.138708
0.138688
0.13562
0.1348
0.13212
0.129295
0.222633
0.194167
0.182096
0.16552
0.160169
0.149895
0.147935
0.141405
0.141048
0.136789
0.13677
0.13374
0.132903
0.13023
0.127324
0.217445
0.189575
0.17774
0.161501
0.156241
0.146173
0.144236
0.137845
0.137487
0.133344
0.133325
0.130417
0.129566
0.126999
0.123905
0.209766
0.1828
0.171335
0.155609
0.150497
0.140735
0.138837
0.132634
0.132269
0.128251
0.12822
0.125399
0.124543
0.121988
0.118925
0.19985
0.174054
0.163066
0.148005
0.143081
0.133718
0.131862
0.125904
0.12552
0.121677
0.121643
0.119017
0.118242
0.115976
0.112905
0.187649
0.163313
0.152927
0.138697
0.134014
0.125142
0.12334
0.117669
0.117246
0.113565
0.113473
0.11095
0.110183
0.108035
0.105138
0.173452
0.150818
0.141132
0.127871
0.123467
0.115168
0.113419
0.108069
0.107577
0.104035
0.103817
0.101282
0.100423
0.0981642
0.0956282
0.157281
0.136607
0.127735
0.115595
0.111522
0.103889
0.102217
0.0972505
0.0966977
0.0933519
0.0930255
0.0905806
0.0896911
0.0875663
0.0852914
0.139443
0.120942
0.11297
0.102074
0.0983709
0.0914803
0.0898966
0.0853604
0.0847475
0.0816186
0.0811806
0.0788059
0.0778854
0.0757934
0.0739392
0.120028
0.103916
0.0969431
0.0874223
0.0841392
0.078081
0.0766192
0.0725891
0.0719502
0.069127
0.0686242
0.0664491
0.065536
0.0636263
0.0619935
0.099352
0.0858
0.0798985
0.0718553
0.0690278
0.0638719
0.0625531
0.0590861
0.0584439
0.0559877
0.0554548
0.0535589
0.0526841
0.0510316
0.0495034
0.0775622
0.0667357
0.0619819
0.0555175
0.0531884
0.0490053
0.0478595
0.0450126
0.0443953
0.042358
0.0418223
0.0402439
0.0394159
0.0380002
0.0365865
0.054971
0.0469921
0.0434383
0.0386275
0.0368241
0.0336662
0.03271
0.0305257
0.0299482
0.0283748
0.0278594
0.0266704
0.0259294
0.0248877
0.0235107
0.0317741
0.0267471
0.0244434
0.0213504
0.0201011
0.0180099
0.0172605
0.0157619
0.0152312
0.0141179
0.0136121
0.0127566
0.0120694
0.0112786
0.0100531
0.00826997
0.00625946
0.0052346
0.00390094
0.00322189
0.00222681
0.00169278
0.000898829
0.000415606
-0.000233839
-0.000739484
-0.00128621
-0.00193035
-0.00252364
-0.00347563
-0.0153108
-0.0142667
-0.0139921
-0.0135424
-0.0136377
-0.0135223
-0.0138316
-0.0139164
-0.0143429
-0.0145286
-0.015005
-0.0152125
-0.0157122
-0.0159559
-0.0165319
-0.038696
-0.0345943
-0.0330163
-0.0307767
-0.0302815
-0.0290468
-0.0291235
-0.0284888
-0.0288512
-0.0285637
-0.0290024
-0.0288662
-0.0291947
-0.0290918
-0.0291485
-0.061627
-0.0545006
-0.0516298
-0.0476168
-0.0465314
-0.0441866
-0.0440261
-0.0426834
-0.0429772
-0.0422435
-0.0426441
-0.0422243
-0.0423716
-0.042004
-0.0413733
-0.0838738
-0.0737828
-0.0696401
-0.0638834
-0.0622092
-0.0587643
-0.0583551
-0.0562962
-0.0565014
-0.0552902
-0.0556294
-0.0548528
-0.0548125
-0.0540326
-0.0529487
-0.105159
-0.0922084
-0.086836
-0.0793922
-0.0771425
-0.0726264
-0.0719645
-0.069203
-0.0693094
-0.0676435
-0.0679357
-0.066907
-0.0667813
-0.065909
-0.0642934
-0.125305
-0.109619
-0.103063
-0.0940006
-0.0911876
-0.0856343
-0.0847076
-0.0812458
-0.0812156
-0.0790493
-0.0792204
-0.0778073
-0.0774932
-0.0762965
-0.0743451
-0.144031
-0.125781
-0.118117
-0.107532
-0.104185
-0.0976446
-0.0964538
-0.0923011
-0.0921059
-0.0893901
-0.0893659
-0.087409
-0.0867827
-0.0849648
-0.0828885
-0.161213
-0.140586
-0.131887
-0.119887
-0.116034
-0.108576
-0.107127
-0.102335
-0.101972
-0.0987652
-0.0985607
-0.0961859
-0.0953184
-0.0931786
-0.0908339
-0.17658
-0.153811
-0.144181
-0.130903
-0.126594
-0.1183
-0.116616
-0.111231
-0.110716
-0.107036
-0.106663
-0.103843
-0.102748
-0.100163
-0.0977437
-0.190068
-0.165399
-0.154934
-0.14052
-0.135799
-0.126769
-0.124874
-0.118986
-0.118346
-0.114306
-0.113816
-0.110721
-0.109448
-0.106621
-0.103881
-0.201424
-0.175143
-0.163973
-0.148595
-0.143527
-0.133869
-0.131804
-0.125492
-0.124767
-0.120443
-0.119894
-0.116626
-0.115239
-0.112276
-0.109105
-0.21065
-0.183037
-0.171277
-0.155102
-0.149739
-0.139567
-0.137356
-0.130707
-0.129914
-0.125384
-0.124793
-0.121413
-0.119926
-0.11683
-0.113283
-0.217519
-0.188903
-0.176701
-0.159921
-0.154338
-0.143772
-0.141453
-0.134546
-0.133708
-0.129028
-0.128428
-0.125009
-0.123492
-0.120426
-0.116497
-0.22209
-0.192783
-0.180264
-0.163064
-0.157314
-0.146473
-0.144062
-0.136967
-0.136074
-0.131266
-0.130617
-0.127105
-0.125502
-0.122331
-0.118219
-0.224188
-0.194536
-0.181858
-0.164442
-0.158604
-0.147611
-0.145144
-0.13793
-0.136989
-0.132067
-0.131353
-0.127691
-0.125986
-0.122603
-0.118533
)
;

boundaryField
{
    out
    {
        type            implicitExtrapolation;
    }
    in
    {
        type            implicitExtrapolation;
    }
    frontAndBack
    {
        type            empty;
    }
}


// ************************************************************************* //
