/*--------------------------------*- C++ -*----------------------------------*\
| =========                 |                                                 |
| \\      /  F ield         | foam-extend: Open Source CFD                    |
|  \\    /   O peration     | Version:  3.0                                   |
|   \\  /    A nd           | Web:         http://www.extend-project.de       |
|    \\/     M anipulation  |                                                 |
\*---------------------------------------------------------------------------*/
FoamFile
{
    version     2.0;
    format      ascii;
    class       volVectorField;
    location    "29";
    object      s;
}
// * * * * * * * * * * * * * * * * * * * * * * * * * * * * * * * * * * * * * //

dimensions      [0 1 -1 0 0 0 0];

internalField   nonuniform List<vector> 
3012
(
(-2.255 0.118569 0)
(-1.85578 -0.261465 0)
(-2.6066 0.158254 0)
(-1.75417 0.110868 0)
(-3.13273 0.336997 0)
(-2.19877 0.214034 0)
(-3.04309 -0.327993 0)
(-2.88891 0.0942477 0)
(-2.02185 0.224011 0)
(-2.23259 -0.407279 0)
(-1.91436 -0.0866922 0)
(-2.24301 0.441516 0)
(-1.29536 -0.144715 0)
(-2.02184 0.0729116 0)
(-2.27118 0.0609916 0)
(-1.23403 0.102471 0)
(-3.11867 0.290001 0)
(-2.21819 0.26325 0)
(-2.97085 -0.354956 0)
(-2.89981 0.0881604 0)
(-1.2775 0.412446 0)
(-1.6889 -0.22651 0)
(-1.89998 -0.358234 0)
(-1.23094 0.292897 0)
(-2.6925 0.0241401 0)
(-1.98841 -0.15276 0)
(-1.95073 0.251879 0)
(-2.28345 0.0407342 0)
(-1.88989 0.324823 0)
(-2.08197 0.407959 0)
(-1.38829 -0.179119 0)
(-1.5694 -0.45292 0)
(-1.32564 -0.158315 0)
(-2.10143 0.367918 0)
(-1.9053 0.30109 0)
(-1.4864 -0.425422 0)
(-2.11125 -0.204055 0)
(-2.74417 0.043693 0)
(-2.30473 0.0438831 0)
(-2.06211 0.232341 0)
(-1.18383 -0.127878 0)
(-2.18111 0.0569139 0)
(-1.12218 0.0972349 0)
(-1.9536 0.0691311 0)
(-1.30797 -0.11812 0)
(-1.45146 -0.385254 0)
(-1.94538 0.269612 0)
(-2.15537 0.324257 0)
(-1.29192 -0.383129 0)
(-2.03221 0.322968 0)
(-1.84996 0.283199 0)
(-1.16244 -0.145116 0)
(-2.2401 0.11614 0)
(-1.78816 -0.24594 0)
(-1.69113 0.11353 0)
(-2.57941 0.147431 0)
(-2.7348 -0.336383 0)
(-2.29122 0.441494 0)
(-3.07709 0.223158 0)
(-2.9128 0.0802485 0)
(-2.71886 -0.365165 0)
(-2.26914 0.353038 0)
(-3.01649 0.248897 0)
(-2.93497 0.0349029 0)
(-1.32135 -0.0953457 0)
(-2.03807 0.0275961 0)
(-2.29912 -0.00124113 0)
(-1.27585 0.149282 0)
(-2.14686 -0.153972 0)
(-1.19578 0.260445 0)
(-1.21117 0.0781028 0)
(-1.91273 -0.0885519 0)
(-1.7953 0.457661 0)
(-1.58836 -0.501389 0)
(-1.3813 -0.250673 0)
(-1.65516 0.363432 0)
(-1.70865 0.347687 0)
(-1.85826 0.418478 0)
(-1.43459 -0.483262 0)
(-1.25642 -0.241122 0)
(-1.41017 -0.091253 0)
(-2.08662 0.0201965 0)
(-1.36977 0.171698 0)
(-2.36845 -0.0129614 0)
(-2.12569 -0.0430206 0)
(-1.10293 0.180482 0)
(-1.14386 -0.0135179 0)
(-1.90353 -0.00823214 0)
(-1.22917 -0.19462 0)
(-2.00606 0.380266 0)
(-1.83018 0.321339 0)
(-1.38426 -0.443266 0)
(-2.28456 -0.402536 0)
(-2.02528 0.213142 0)
(-1.9503 -0.0823209 0)
(-2.24628 0.446342 0)
(-2.23153 0.00615679 0)
(-2.31178 0.349226 0)
(-2.16152 -0.0447752 0)
(-2.70546 -0.202086 0)
(-2.12221 -0.17029 0)
(-1.17526 0.269589 0)
(-1.189 0.0945002 0)
(-1.89315 -0.10221 0)
(-1.75637 0.463758 0)
(-1.37026 -0.258328 0)
(-1.57939 -0.506337 0)
(-1.62221 0.369763 0)
(-1.8187 -0.40372 0)
(-1.25628 0.317503 0)
(-1.6178 -0.254654 0)
(-1.31894 0.430048 0)
(-1.97659 0.217398 0)
(-2.19935 0.251163 0)
(-1.37221 -0.324707 0)
(-1.25692 -0.061503 0)
(-1.53764 -0.507265 0)
(-1.34675 -0.283723 0)
(-1.52349 0.497973 0)
(-1.4152 0.395274 0)
(-1.77423 -0.18408 0)
(-1.09506 0.203884 0)
(-1.094 0.310206 0)
(-1.96997 -0.269801 0)
(-2.50761 -0.218158 0)
(-2.33907 -0.00317185 0)
(-2.80763 0.139245 0)
(-2.31631 0.306695 0)
(-3.07449 0.0320521 0)
(-2.69182 0.664687 0)
(-3.00208 0.0537771 0)
(-2.44271 -0.309367 0)
(-2.58247 -0.2247 0)
(-2.32977 0.000103238 0)
(-2.42164 0.340038 0)
(-2.85184 0.115132 0)
(-3.08081 0.059193 0)
(-3.05081 0.0825595 0)
(-2.61873 0.676236 0)
(-2.49479 -0.366012 0)
(-2.68653 0.0622712 0)
(-1.87664 0.216808 0)
(-2.28155 0.0576461 0)
(-1.93691 -0.184485 0)
(-3.00985 0.179827 0)
(-2.43888 0.486131 0)
(-2.55512 -0.318369 0)
(-2.96811 -0.0152299 0)
(-2.94365 0.20484 0)
(-2.38966 0.47486 0)
(-2.47452 -0.234853 0)
(-2.86783 -0.0611489 0)
(-1.08078 -0.0989827 0)
(-1.84096 0.23905 0)
(-1.184 -0.323185 0)
(-2.03135 0.264869 0)
(-1.33379 -0.399637 0)
(-2.04536 0.343142 0)
(-1.86048 0.29597 0)
(-1.19507 -0.154923 0)
(-1.76221 -0.429419 0)
(-1.56557 -0.265308 0)
(-1.36632 0.450166 0)
(-1.29222 0.339678 0)
(-2.32173 0.0462392 0)
(-2.38459 -0.207818 0)
(-2.82314 0.0233593 0)
(-2.36952 0.281551 0)
(-1.33766 -0.175321 0)
(-2.07645 0.388462 0)
(-1.88585 0.315887 0)
(-1.50735 -0.443289 0)
(-2.88499 0.288161 0)
(-2.80925 -0.0975415 0)
(-2.49196 -0.202621 0)
(-2.2575 0.340615 0)
(-2.42754 -0.080945 0)
(-2.8511 0.269064 0)
(-2.34924 0.31259 0)
(-2.74823 -0.180927 0)
(-2.30787 0.0483904 0)
(-2.40658 -0.240627 0)
(-2.83314 0.0430793 0)
(-2.36868 0.287343 0)
(-1.62255 0.446147 0)
(-1.8656 -0.20524 0)
(-1.53604 0.26001 0)
(-2.14596 -0.385878 0)
(-1.58861 0.294024 0)
(-2.07314 -0.431236 0)
(-1.69757 0.46636 0)
(-1.80261 -0.22339 0)
(-1.80089 -0.417638 0)
(-1.59898 -0.259181 0)
(-1.35626 0.447584 0)
(-1.28603 0.333541 0)
(-1.67283 -0.449932 0)
(-2.14556 0.408307 0)
(-1.93885 0.312364 0)
(-1.48158 -0.160218 0)
(-1.31095 -0.0690505 0)
(-2.02341 0.0116385 0)
(-1.27078 0.166918 0)
(-2.28087 -0.0229409 0)
(-1.32344 -0.166694 0)
(-2.28535 0.0838459 0)
(-2.03347 0.0891 0)
(-1.25519 0.0867352 0)
(-1.11675 -0.264831 0)
(-2.0219 0.203505 0)
(-1.03634 -0.0483562 0)
(-1.82888 0.187607 0)
(-1.11267 0.217961 0)
(-1.77562 -0.182413 0)
(-1.97992 -0.271527 0)
(-1.11415 0.337556 0)
(-2.36427 -0.0413706 0)
(-1.37825 0.19529 0)
(-1.41003 -0.0605941 0)
(-2.08047 0.000939269 0)
(-1.56837 -0.521337 0)
(-1.42053 0.391906 0)
(-1.37545 -0.296926 0)
(-1.52869 0.495258 0)
(-1.39212 -0.18933 0)
(-1.86019 0.329134 0)
(-1.57658 -0.459351 0)
(-2.04319 0.414653 0)
(-1.16258 0.211039 0)
(-1.78122 -0.174674 0)
(-1.17321 0.337131 0)
(-1.98988 -0.270647 0)
(-1.41759 -0.278154 0)
(-1.55416 0.477733 0)
(-1.44511 0.374287 0)
(-1.61385 -0.500273 0)
(-2.11205 0.421951 0)
(-1.69609 -0.459431 0)
(-1.49617 -0.172028 0)
(-1.91327 0.320565 0)
(-1.28227 0.4068 0)
(-1.71964 -0.216883 0)
(-1.93532 -0.346847 0)
(-1.23854 0.280773 0)
(-1.26318 0.309167 0)
(-1.87012 -0.384995 0)
(-1.32151 0.428747 0)
(-1.66073 -0.240698 0)
(-1.66529 0.450735 0)
(-1.87249 -0.20259 0)
(-1.57164 0.261134 0)
(-2.1568 -0.391439 0)
(-1.60257 0.278897 0)
(-1.70986 0.460698 0)
(-2.12008 -0.420067 0)
(-1.84011 -0.214838 0)
(-2.56672 -0.302298 0)
(-2.00935 0.0966389 0)
(-2.13893 -0.0626259 0)
(-2.16885 0.431215 0)
(-1.15974 -0.210861 0)
(-1.76086 0.329526 0)
(-1.30776 -0.443998 0)
(-1.91693 0.381722 0)
(-1.10586 -0.111338 0)
(-2.09767 0.0552479 0)
(-1.04719 0.0949742 0)
(-1.88888 0.0664793 0)
(-1.76165 0.455806 0)
(-1.64818 0.261943 0)
(-1.87096 -0.201632 0)
(-2.16467 -0.411966 0)
(-1.22157 -0.129163 0)
(-2.19609 0.0589776 0)
(-1.15904 0.0985982 0)
(-1.96482 0.0710962 0)
(-1.28949 -0.117835 0)
(-2.01974 0.0522784 0)
(-2.27128 0.0343429 0)
(-1.23373 0.123548 0)
(-2.27919 0.0751111 0)
(-1.90581 -0.244962 0)
(-1.82752 0.152854 0)
(-2.66138 0.0941383 0)
(-1.06706 -0.0838919 0)
(-2.03312 0.248207 0)
(-1.83988 0.224165 0)
(-1.16337 -0.305135 0)
(-2.76708 -0.201889 0)
(-2.29456 0.00257474 0)
(-2.69586 0.387435 0)
(-2.87125 0.035516 0)
(-2.90179 -0.236694 0)
(-2.86858 0.38476 0)
(-2.28071 0.046819 0)
(-2.90071 0.0442558 0)
(-1.27369 -0.119737 0)
(-1.93762 0.267514 0)
(-1.41198 -0.383222 0)
(-2.14526 0.317604 0)
(-1.81066 0.466282 0)
(-1.68888 0.270866 0)
(-1.86772 -0.197188 0)
(-2.16403 -0.416991 0)
(-1.36163 -0.338862 0)
(-1.95274 0.237534 0)
(-2.16798 0.276336 0)
(-1.2402 -0.080596 0)
(-2.27151 0.0738614 0)
(-1.91245 -0.213279 0)
(-1.83734 0.175614 0)
(-2.65513 0.0941877 0)
(-2.56977 -0.277778 0)
(-1.97497 0.0721841 0)
(-2.14547 -0.0719572 0)
(-2.10588 0.401755 0)
(-1.8997 -0.469274 0)
(-1.64842 0.480995 0)
(-1.53665 0.339661 0)
(-1.66087 -0.253472 0)
(-1.14578 -0.0448598 0)
(-2.13958 -0.0171079 0)
(-1.91635 0.0116467 0)
(-1.10017 0.156707 0)
(-1.39132 0.247318 0)
(-1.84398 -0.200004 0)
(-1.44817 0.415367 0)
(-2.099 -0.346719 0)
(-2.23128 -0.0346754 0)
(-2.17655 0.34631 0)
(-2.05645 -0.0251606 0)
(-2.68643 -0.217413 0)
(-2.15055 -0.0703009 0)
(-1.17381 -0.00261224 0)
(-1.1378 0.195232 0)
(-1.92118 -0.0286094 0)
(-1.86664 0.43219 0)
(-1.71575 0.354409 0)
(-1.48367 -0.483185 0)
(-1.29616 -0.23853 0)
(-1.89484 0.413525 0)
(-1.7403 0.345602 0)
(-1.414 -0.47435 0)
(-1.24118 -0.231532 0)
(-1.27697 -0.262315 0)
(-1.76238 0.443668 0)
(-1.62697 0.365221 0)
(-1.47066 -0.502812 0)
(-1.12272 0.0526622 0)
(-2.08875 -0.112174 0)
(-1.09421 0.229724 0)
(-1.87021 -0.0623358 0)
(-1.10756 -0.241962 0)
(-2.03067 0.188093 0)
(-1.02518 -0.0222417 0)
(-1.83723 0.171847 0)
(-1.06461 -0.135022 0)
(-1.79776 0.264652 0)
(-1.97316 0.292226 0)
(-1.17373 -0.352334 0)
(-1.30392 -0.254765 0)
(-1.7724 0.444604 0)
(-1.50071 -0.49705 0)
(-1.63644 0.362869 0)
(-1.14895 0.0549415 0)
(-2.10131 -0.121763 0)
(-1.87982 -0.0684857 0)
(-1.12312 0.232972 0)
(-1.86591 0.315634 0)
(-1.9095 -0.468665 0)
(-1.66498 -0.183212 0)
(-2.04972 0.45827 0)
(-1.92564 0.309314 0)
(-1.90478 -0.466126 0)
(-2.12646 0.447227 0)
(-1.66694 -0.167355 0)
(-2.19921 -0.297606 0)
(-1.46414 0.383316 0)
(-1.92629 -0.166812 0)
(-1.41941 0.190606 0)
(-1.65584 -0.237619 0)
(-1.64296 0.340797 0)
(-1.77692 0.485685 0)
(-1.90289 -0.478772 0)
(-1.32917 -0.105088 0)
(-1.97116 0.256567 0)
(-2.18946 0.310363 0)
(-1.4698 -0.378005 0)
(-1.86336 0.463979 0)
(-1.95236 -0.171098 0)
(-1.74049 0.239654 0)
(-2.27534 -0.387857 0)
(-1.90875 0.448825 0)
(-1.9894 -0.150447 0)
(-1.78148 0.207348 0)
(-2.33104 -0.371505 0)
(-1.68292 -0.2473 0)
(-1.45155 0.449819 0)
(-1.37376 0.316154 0)
(-1.90761 -0.418681 0)
(-1.53694 0.305709 0)
(-1.52168 0.0554781 0)
(-2.07517 -0.0780167 0)
(-2.383 -0.168492 0)
(-1.32589 -0.218891 0)
(-2.01503 0.130294 0)
(-1.24244 0.0378859 0)
(-2.25718 0.138084 0)
(-2.3314 -0.339512 0)
(-2.31115 0.0856858 0)
(-2.69446 0.254917 0)
(-2.09742 0.112398 0)
(-1.55009 0.288289 0)
(-2.11322 -0.0525363 0)
(-1.54694 0.0227123 0)
(-2.42896 -0.128663 0)
(-2.59503 0.431044 0)
(-2.87919 0.111582 0)
(-2.36841 -0.116242 0)
(-2.85721 -0.149845 0)
(-1.42922 -0.265193 0)
(-1.57227 0.374397 0)
(-1.63955 -0.511635 0)
(-1.69917 0.479224 0)
(-1.23439 -0.436561 0)
(-1.74867 0.338874 0)
(-1.09555 -0.209379 0)
(-1.89546 0.384165 0)
(-1.86108 0.0805377 0)
(-2.06362 0.0746131 0)
(-0.991183 0.0632813 0)
(-1.04918 -0.139401 0)
(-1.87353 -0.138304 0)
(-1.21084 0.148213 0)
(-1.21157 0.311392 0)
(-2.10384 -0.224027 0)
(-2.08599 -0.121834 0)
(-1.76441 0.379464 0)
(-2.44089 -0.270315 0)
(-1.69349 0.109218 0)
(-2.11403 -0.102065 0)
(-1.75849 0.367471 0)
(-2.47281 -0.24051 0)
(-1.69633 0.0861107 0)
(-1.53661 -0.503635 0)
(-1.32567 -0.277204 0)
(-1.56196 0.483524 0)
(-1.45154 0.390592 0)
(-2.54671 -0.225268 0)
(-1.87482 0.364801 0)
(-2.16232 -0.0822594 0)
(-1.80194 0.0545971 0)
(-1.09763 0.29653 0)
(-1.09481 0.172512 0)
(-1.78671 -0.168011 0)
(-1.98645 -0.249435 0)
(-2.27653 0.898799 0)
(-3.12686 -0.914182 0)
(-3.70713 -0.0165688 0)
(-3.11565 0.415179 0)
(-2.18489 -0.286899 0)
(-1.41803 0.37774 0)
(-1.38126 0.190184 0)
(-1.91738 -0.163698 0)
(-1.98219 0.281541 0)
(-1.05695 -0.116079 0)
(-1.16194 -0.331457 0)
(-1.8019 0.254767 0)
(-2.23575 0.178335 0)
(-2.74381 0.261882 0)
(-2.33696 0.0147712 0)
(-2.54564 -0.304439 0)
(-1.79841 0.346009 0)
(-2.52754 -0.20717 0)
(-2.15303 -0.0812458 0)
(-1.7444 0.046471 0)
(-1.49868 0.463531 0)
(-1.67679 -0.253262 0)
(-1.41154 0.32759 0)
(-1.90582 -0.436536 0)
(-1.61969 -0.24975 0)
(-1.62649 0.348848 0)
(-1.75937 0.484924 0)
(-1.8573 -0.489952 0)
(-1.37149 -0.108756 0)
(-2.06266 0.0393548 0)
(-1.32346 0.146911 0)
(-2.33185 0.0137975 0)
(-2.26728 0.568574 0)
(-3.0257 -0.479419 0)
(-3.36132 0.194199 0)
(-2.97651 0.239574 0)
(-1.86436 -0.477195 0)
(-1.66511 0.48576 0)
(-1.5486 0.349042 0)
(-1.62986 -0.255214 0)
(-1.36476 0.230543 0)
(-1.85395 -0.195013 0)
(-1.41499 0.398556 0)
(-2.10709 -0.332224 0)
(-1.55115 -0.0670805 0)
(-2.34809 0.317482 0)
(-1.71153 -0.389685 0)
(-2.08867 0.239572 0)
(-1.26233 -0.180803 0)
(-2.02493 0.372077 0)
(-1.84508 0.311716 0)
(-1.41943 -0.433382 0)
(-2.24638 0.0931121 0)
(-2.82971 0.378829 0)
(-2.80003 -0.223886 0)
(-2.86652 0.028608 0)
(-1.19942 0.290037 0)
(-1.88231 -0.347354 0)
(-1.24044 0.405014 0)
(-1.67662 -0.222031 0)
(-2.35155 0.338951 0)
(-1.58617 -0.0756443 0)
(-1.76039 -0.403859 0)
(-2.09096 0.249569 0)
(-1.33638 0.357665 0)
(-1.69639 -0.472108 0)
(-1.5042 -0.286934 0)
(-1.42533 0.464142 0)
(-1.35123 0.354242 0)
(-1.7302 -0.465328 0)
(-1.53148 -0.279612 0)
(-1.44029 0.465298 0)
(-2.32309 0.195356 0)
(-1.34931 0.00423525 0)
(-2.06668 0.169159 0)
(-1.45117 -0.280747 0)
(-3.34809 0.0131198 0)
(-3.0797 0.719117 0)
(-2.30435 -0.267034 0)
(-2.95056 -0.0310391 0)
(-1.80705 0.488257 0)
(-1.79157 -0.49559 0)
(-1.66505 0.361417 0)
(-1.56053 -0.243575 0)
(-2.2507 0.31516 0)
(-1.39888 -0.0898312 0)
(-1.54628 -0.380855 0)
(-2.0176 0.254 0)
(-1.37579 -0.00439511 0)
(-1.48626 -0.293684 0)
(-2.07542 0.180853 0)
(-2.33285 0.214892 0)
(-1.10434 -0.100704 0)
(-1.84748 0.244428 0)
(-2.03807 0.27237 0)
(-1.21157 -0.327317 0)
(-1.85131 0.481815 0)
(-1.80212 -0.492524 0)
(-1.57045 -0.235223 0)
(-1.70294 0.354456 0)
(-1.34555 0.141784 0)
(-1.36579 0.335602 0)
(-1.94625 -0.141042 0)
(-2.20926 -0.245309 0)
(-1.36997 0.122791 0)
(-1.38681 0.325997 0)
(-1.96933 -0.127108 0)
(-2.23942 -0.227222 0)
(-1.42397 0.00908211 0)
(-2.09785 0.175235 0)
(-1.53639 -0.290231 0)
(-2.36435 0.212561 0)
(-1.60441 -0.510114 0)
(-1.57682 0.374739 0)
(-1.39424 -0.263032 0)
(-1.70387 0.474222 0)
(-2.25907 0.317766 0)
(-1.58434 -0.388195 0)
(-1.43278 -0.0934425 0)
(-2.02419 0.252876 0)
(-1.30616 -0.192232 0)
(-2.00947 0.115953 0)
(-1.22857 0.0589648 0)
(-2.25094 0.118525 0)
(-1.87194 -0.12885 0)
(-1.18905 0.1307 0)
(-1.18316 0.293392 0)
(-2.09796 -0.20691 0)
(-2.04071 -0.34012 0)
(-3.84098 -0.142875 0)
(-3.63656 0.660495 0)
(-2.81514 -0.180089 0)
(-1.44217 0.0330091 0)
(-1.54665 -0.271605 0)
(-2.1223 0.158046 0)
(-2.39955 0.188564 0)
(-2.24338 0.366472 0)
(-1.69834 -0.430085 0)
(-2.01177 0.277755 0)
(-1.51885 -0.123972 0)
(-1.86202 -0.122901 0)
(-2.19288 0.45755 0)
(-1.97945 0.259919 0)
(-2.1602 -0.437386 0)
(-3.17831 -0.0958586 0)
(-2.94734 0.569036 0)
(-2.31699 -0.16882 0)
(-2.92676 0.0260622 0)
(-2.33006 0.0763677 0)
(-2.57138 -0.201629 0)
(-2.88964 -0.00826052 0)
(-2.62068 0.330945 0)
(-2.0643 0.26201 0)
(-1.84999 -0.428431 0)
(-2.3167 0.372444 0)
(-1.65054 -0.0951833 0)
(-1.33915 -0.139519 0)
(-2.13694 0.355826 0)
(-1.49687 -0.411556 0)
(-1.93293 0.290707 0)
(-2.23821 0.162742 0)
(-2.08086 -0.362316 0)
(-1.88495 0.0338803 0)
(-2.56878 0.286516 0)
(-1.16045 -0.282582 0)
(-1.85454 0.207015 0)
(-1.06741 -0.0601679 0)
(-2.05242 0.228395 0)
(-1.23668 -0.418882 0)
(-1.76629 0.333471 0)
(-1.92166 0.379616 0)
(-1.10039 -0.19292 0)
(-2.22537 0.166115 0)
(-2.12414 -0.37775 0)
(-2.55896 0.306682 0)
(-1.91007 0.0299644 0)
(-1.17484 -0.271692 0)
(-2.07039 0.213511 0)
(-1.8704 0.193962 0)
(-1.0836 -0.0452788 0)
(-1.8666 0.0932195 0)
(-1.00474 0.0477161 0)
(-2.0697 0.0905018 0)
(-1.0673 -0.162622 0)
(-2.24648 0.360391 0)
(-1.49201 -0.110609 0)
(-1.665 -0.4125 0)
(-2.0149 0.276672 0)
(-2.6228 0.312837 0)
(-2.84154 -0.119135 0)
(-2.28129 0.120431 0)
(-2.42597 -0.175959 0)
(-2.04692 0.273254 0)
(-1.80373 -0.43187 0)
(-1.6092 -0.106743 0)
(-2.2914 0.3782 0)
(-2.1776 0.339341 0)
(-2.28383 0.0128553 0)
(-2.14066 -0.103412 0)
(-2.76252 -0.0714494 0)
(-2.20611 0.506284 0)
(-2.68142 -0.341613 0)
(-3.08052 0.274602 0)
(-2.87134 0.0808302 0)
(-2.7519 0.229552 0)
(-2.21173 0.225606 0)
(-2.48718 -0.268846 0)
(-2.33257 0.0125731 0)
(-2.35287 0.316205 0)
(-2.36333 -0.0153426 0)
(-2.83004 0.177046 0)
(-2.59485 -0.219101 0)
(-2.12127 -0.125765 0)
(-2.13432 0.307084 0)
(-2.74643 -0.0367296 0)
(-2.28662 0.0231882 0)
(-1.14191 -0.183633 0)
(-1.80401 0.316918 0)
(-1.28034 -0.417414 0)
(-1.97159 0.362455 0)
(-1.16221 -0.19508 0)
(-1.96691 0.371653 0)
(-1.80033 0.321496 0)
(-1.30642 -0.432507 0)
(-3.22591 -0.789489 0)
(-2.13902 0.933959 0)
(-3.69765 0.0315075 0)
(-2.97197 0.494478 0)
(-1.92708 0.304673 0)
(-2.13033 0.387479 0)
(-1.42789 -0.159847 0)
(-1.60606 -0.442972 0)
(-2.39933 0.2885 0)
(-2.12638 0.21817 0)
(-1.71241 -0.366245 0)
(-1.56268 -0.0402973 0)
(-1.14957 0.305458 0)
(-1.15082 0.163681 0)
(-1.82405 -0.152178 0)
(-2.03615 -0.235185 0)
(-2.03112 -0.258073 0)
(-1.17467 0.326602 0)
(-1.81602 -0.166105 0)
(-1.16829 0.187945 0)
(-1.61649 0.477443 0)
(-1.5836 -0.510635 0)
(-1.50133 0.379355 0)
(-1.37452 -0.267579 0)
(-3.78727 0.128961 0)
(-2.05031 -0.396417 0)
(-3.52377 0.958881 0)
(-2.8288 -0.178767 0)
(-1.2755 -0.394019 0)
(-2.00599 0.340952 0)
(-1.82937 0.299899 0)
(-1.14339 -0.15963 0)
(-1.59936 0.486127 0)
(-1.48577 0.381855 0)
(-1.41266 -0.27347 0)
(-1.61543 -0.510495 0)
(-1.99021 0.220055 0)
(-1.02117 -0.067393 0)
(-1.10916 -0.275747 0)
(-1.79877 0.200321 0)
(-1.59677 0.47665 0)
(-1.55386 -0.507366 0)
(-1.48502 0.382358 0)
(-1.33968 -0.266546 0)
(-1.11813 0.292371 0)
(-1.80941 -0.156469 0)
(-1.12295 0.157523 0)
(-2.01467 -0.235322 0)
(-1.29944 0.308807 0)
(-1.89358 -0.395013 0)
(-1.36321 0.434768 0)
(-1.67793 -0.242482 0)
(-2.2877 0.0349411 0)
(-2.37828 -0.14814 0)
(-2.82422 -0.0224365 0)
(-2.39441 0.364412 0)
(-1.61538 0.0408934 0)
(-2.49343 0.205882 0)
(-1.7337 -0.299918 0)
(-2.18842 0.156856 0)
(-2.30196 0.089438 0)
(-2.02521 -0.258558 0)
(-2.68989 0.140795 0)
(-1.9172 0.155485 0)
(-2.03147 -0.0807328 0)
(-1.997 0.173785 0)
(-2.40403 -0.372542 0)
(-2.1952 0.445757 0)
(-2.10707 -0.249178 0)
(-2.31646 0.0689482 0)
(-2.72511 0.115019 0)
(-2.00642 0.182765 0)
(-2.15893 -0.238501 0)
(-2.32109 0.056105 0)
(-2.7552 0.0712606 0)
(-2.09459 0.205936 0)
(-1.95797 0.0255209 0)
(-2.19619 -0.387795 0)
(-2.57064 0.30969 0)
(-2.23244 0.146005 0)
(-1.80376 0.468 0)
(-1.6614 0.366034 0)
(-1.63788 -0.510256 0)
(-1.42655 -0.255696 0)
(-2.27773 -0.282813 0)
(-1.54528 0.378422 0)
(-1.49537 0.162547 0)
(-1.98229 -0.149153 0)
(-2.08433 -0.0666712 0)
(-2.0347 0.13714 0)
(-2.48508 -0.344509 0)
(-2.22487 0.438986 0)
(-1.87251 0.482091 0)
(-1.72424 0.325103 0)
(-1.70424 -0.219213 0)
(-1.96484 -0.473644 0)
(-2.01294 -0.156183 0)
(-1.75383 0.422802 0)
(-2.34385 -0.333376 0)
(-1.66543 0.183632 0)
(-2.17156 -0.173933 0)
(-1.24158 0.0971133 0)
(-1.23262 0.28414 0)
(-1.92892 -0.100504 0)
(-2.50562 0.236958 0)
(-1.6533 0.0229368 0)
(-1.78967 -0.325497 0)
(-2.1984 0.17355 0)
(-2.39434 0.269554 0)
(-1.66263 -0.353917 0)
(-2.12143 0.209412 0)
(-1.52417 -0.0312541 0)
(-1.50254 0.130375 0)
(-1.54362 0.362747 0)
(-2.02453 -0.131577 0)
(-2.32987 -0.254244 0)
(-1.77162 0.280972 0)
(-1.05424 -0.14889 0)
(-1.93946 0.312 0)
(-1.16707 -0.360585 0)
(-1.07923 -0.227133 0)
(-0.998793 7.82642e-05 0)
(-2.01406 0.16356 0)
(-1.82053 0.153723 0)
(-1.95549 -0.482242 0)
(-1.77269 0.331291 0)
(-1.6944 -0.215407 0)
(-1.9345 0.488 0)
(-1.75049 0.434175 0)
(-1.97735 -0.170399 0)
(-2.29738 -0.358247 0)
(-1.65402 0.207732 0)
(-1.38631 -0.0460617 0)
(-2.30408 0.268894 0)
(-1.51609 -0.339381 0)
(-2.05561 0.220407 0)
(-1.99803 0.222201 0)
(-2.22645 0.262318 0)
(-1.42243 -0.329361 0)
(-1.30122 -0.0593831 0)
(-2.3099 0.0789171 0)
(-2.05086 0.0845582 0)
(-1.36334 -0.166514 0)
(-1.29727 0.0933928 0)
(-1.71628 0.319197 0)
(-2.0026 -0.473722 0)
(-1.86316 0.484247 0)
(-1.73473 -0.221503 0)
(-1.30534 0.218381 0)
(-1.34055 0.377848 0)
(-2.0869 -0.303315 0)
(-1.84535 -0.182092 0)
(-1.50421 0.372591 0)
(-1.22871 -0.261427 0)
(-1.61409 0.445453 0)
(-1.43373 -0.496232 0)
(-2.73736 0.309031 0)
(-2.36248 -0.0402729 0)
(-2.20028 0.22295 0)
(-2.62763 -0.227869 0)
(-1.56568 -0.262127 0)
(-1.65141 0.48174 0)
(-1.7872 -0.48907 0)
(-1.53344 0.357702 0)
(-2.22453 0.190419 0)
(-2.74989 -0.175481 0)
(-2.69889 0.335122 0)
(-2.392 -0.10299 0)
(-2.68381 0.30441 0)
(-2.15433 0.149078 0)
(-2.31337 0.0483461 0)
(-2.48168 -0.305088 0)
(-1.97734 -0.161903 0)
(-1.05565 0.0978489 0)
(-1.78192 -0.106009 0)
(-1.0342 0.24168 0)
(-2.52324 0.254723 0)
(-2.34257 0.0233864 0)
(-2.59849 -0.291864 0)
(-2.88123 0.0577577 0)
(-2.76118 0.33085 0)
(-2.26565 0.224535 0)
(-2.40392 -0.105454 0)
(-2.77211 -0.190904 0)
(-2.21741 0.210927 0)
(-2.68215 0.356122 0)
(-2.7639 -0.150857 0)
(-2.38047 -0.105084 0)
(-2.13228 0.230418 0)
(-1.9558 -0.415838 0)
(-2.41191 0.355995 0)
(-1.74645 -0.0599716 0)
(-1.63807 0.35716 0)
(-1.23539 -0.257931 0)
(-1.77438 0.428281 0)
(-1.41769 -0.491378 0)
(-1.06462 0.203307 0)
(-1.85715 -0.0365877 0)
(-2.0705 -0.0771431 0)
(-1.09972 0.0243956 0)
(-2.32145 0.0784017 0)
(-2.26648 -0.249415 0)
(-2.75562 0.161913 0)
(-2.12761 0.232149 0)
(-2.02547 -0.344831 0)
(-1.3582 0.40183 0)
(-1.79123 -0.20923 0)
(-1.3104 0.255319 0)
(-1.57386 0.479301 0)
(-1.59224 -0.261532 0)
(-1.46995 0.352712 0)
(-1.81336 -0.469052 0)
(-2.34318 0.0553381 0)
(-2.36588 -0.264389 0)
(-2.18085 0.221874 0)
(-2.77577 0.184205 0)
(-1.46593 0.0635973 0)
(-2.0632 -0.0811331 0)
(-1.47517 0.305857 0)
(-2.36211 -0.168063 0)
(-2.04797 -0.132487 0)
(-1.68495 0.378306 0)
(-2.37907 -0.28 0)
(-1.62002 0.130046 0)
(-1.83881 0.333468 0)
(-2.01738 0.467216 0)
(-1.62178 -0.20689 0)
(-1.85816 -0.487331 0)
(-2.06588 -0.330517 0)
(-1.36573 0.390387 0)
(-1.32062 0.235296 0)
(-1.82495 -0.198312 0)
(-1.59318 -0.259381 0)
(-1.81776 -0.47624 0)
(-1.50916 0.356508 0)
(-1.61941 0.48553 0)
(-1.91985 0.394117 0)
(-2.11278 -0.100555 0)
(-1.82532 0.0992243 0)
(-2.4986 -0.275919 0)
(-1.74694 0.473577 0)
(-1.4477 -0.259825 0)
(-1.61315 0.367665 0)
(-1.65978 -0.507907 0)
(-1.17309 -0.0627693 0)
(-1.94337 0.0259262 0)
(-2.17288 0.00107198 0)
(-1.12387 0.148958 0)
(-2.38319 0.0610937 0)
(-2.10191 0.0721346 0)
(-1.37721 0.116979 0)
(-1.43913 -0.16046 0)
(-2.01526 -0.144273 0)
(-1.67982 0.395261 0)
(-1.61044 0.159639 0)
(-2.33687 -0.297937 0)
(-1.74698 0.478436 0)
(-1.48859 -0.256939 0)
(-1.61316 0.366098 0)
(-1.70545 -0.505381 0)
(-1.27912 -0.347223 0)
(-1.16158 -0.106079 0)
(-2.08414 0.285267 0)
(-1.887 0.251624 0)
(-1.6 0.306877 0)
(-1.77358 -0.22632 0)
(-2.04218 -0.439545 0)
(-1.71274 0.474964 0)
(-1.15153 -0.120794 0)
(-1.27476 -0.357262 0)
(-2.05247 0.309735 0)
(-1.86332 0.27224 0)
(-1.24026 0.305929 0)
(-1.89898 -0.125594 0)
(-1.24075 0.132429 0)
(-2.13735 -0.209439 0)
(-2.16569 0.209999 0)
(-1.98492 -0.396177 0)
(-1.77986 -0.0274765 0)
(-2.45943 0.332554 0)
(-2.27932 -0.296913 0)
(-1.57068 0.40243 0)
(-1.51447 0.184177 0)
(-1.9768 -0.154647 0)
(-1.47947 -0.190557 0)
(-1.68108 -0.46731 0)
(-2.05096 0.430615 0)
(-1.86595 0.329538 0)
(-1.58654 0.438792 0)
(-1.88461 -0.195251 0)
(-1.5098 0.249753 0)
(-2.16525 -0.363746 0)
(-1.67 0.361173 0)
(-1.81133 0.431529 0)
(-1.22824 -0.25036 0)
(-1.40715 -0.484556 0)
(-1.97488 -0.475339 0)
(-1.80786 0.319918 0)
(-1.7107 -0.202543 0)
(-1.97665 0.479704 0)
(-1.57461 0.349473 0)
(-2.04624 -0.116428 0)
(-1.53544 0.108594 0)
(-2.36021 -0.236497 0)
(-1.28003 0.322987 0)
(-1.9045 -0.136215 0)
(-1.27128 0.147449 0)
(-2.14854 -0.229277 0)
(-1.94222 0.40603 0)
(-1.42818 -0.472318 0)
(-1.25749 -0.22368 0)
(-1.77822 0.338132 0)
(-1.8754 -0.0232272 0)
(-2.09085 -0.0608934 0)
(-1.066 0.182975 0)
(-1.10405 -0.00307601 0)
(-2.32171 -0.0668976 0)
(-1.34859 0.210554 0)
(-1.37452 -0.0308341 0)
(-2.04893 -0.0179626 0)
(-2.59168 -0.25821 0)
(-2.28945 0.0301828 0)
(-2.16624 0.137834 0)
(-2.60383 0.368939 0)
(-2.67966 -0.189308 0)
(-2.24407 0.248121 0)
(-2.35511 -0.0305664 0)
(-2.71155 0.332062 0)
(-2.3573 -0.120299 0)
(-1.42702 0.00859129 0)
(-1.41922 0.254456 0)
(-2.06892 -0.0527727 0)
(-1.28347 -0.308993 0)
(-2.14021 0.240699 0)
(-1.17687 -0.0626551 0)
(-1.92832 0.213573 0)
(-1.40906 0.369446 0)
(-1.47354 -0.287138 0)
(-1.67034 -0.494766 0)
(-1.51147 0.477592 0)
(-1.35612 -0.382597 0)
(-1.8813 0.280896 0)
(-2.07156 0.327254 0)
(-1.21965 -0.135007 0)
(-2.32247 0.0652852 0)
(-2.75668 0.145783 0)
(-2.25749 -0.24326 0)
(-2.12457 0.226025 0)
(-2.51392 -0.232193 0)
(-2.39535 0.313126 0)
(-2.32224 0.0222979 0)
(-2.83807 0.0961111 0)
(-1.40398 -0.401382 0)
(-2.09043 0.342479 0)
(-1.25861 -0.145594 0)
(-1.89615 0.289106 0)
(-1.20623 0.365149 0)
(-1.7833 -0.179995 0)
(-1.18628 0.233565 0)
(-1.99991 -0.283919 0)
(-1.7488 -0.195966 0)
(-1.21735 0.375624 0)
(-1.96136 -0.307544 0)
(-1.19026 0.250398 0)
(-1.44519 0.371717 0)
(-1.6577 -0.509048 0)
(-1.555 0.478887 0)
(-1.45893 -0.288562 0)
(-1.3618 -0.0316771 0)
(-2.29865 0.2463 0)
(-1.48217 -0.31883 0)
(-2.05121 0.205211 0)
(-1.72903 0.344531 0)
(-1.88037 0.407017 0)
(-1.20029 -0.232685 0)
(-1.36459 -0.468027 0)
(-2.49926 0.380997 0)
(-2.83462 -0.198946 0)
(-2.37675 -0.136204 0)
(-2.88442 0.159032 0)
(-1.76526 0.328529 0)
(-1.18839 -0.222486 0)
(-1.92366 0.385237 0)
(-1.34317 -0.461698 0)
(-1.8787 -0.417332 0)
(-1.33303 0.323283 0)
(-1.66095 -0.252345 0)
(-1.40695 0.450078 0)
(-1.8368 0.45969 0)
(-1.68985 0.358172 0)
(-1.64802 -0.500833 0)
(-1.43838 -0.244874 0)
(-1.80773 -0.394258 0)
(-1.22331 0.317172 0)
(-1.28015 0.42629 0)
(-1.60994 -0.2533 0)
(-2.10982 0.0018459 0)
(-1.06445 0.139842 0)
(-1.89515 0.0256655 0)
(-1.11369 -0.0596825 0)
(-1.06711 0.117701 0)
(-2.12216 0.0419569 0)
(-1.12401 -0.0897058 0)
(-1.9067 0.0573353 0)
(-2.19021 -0.159827 0)
(-1.94333 -0.0885861 0)
(-1.26588 0.0811466 0)
(-1.25532 0.273679 0)
(-1.73742 -0.436897 0)
(-1.54476 -0.274054 0)
(-1.34859 0.453721 0)
(-1.27495 0.346459 0)
(-1.89826 0.10037 0)
(-1.12206 -0.164046 0)
(-1.05304 0.0535162 0)
(-2.10868 0.0985742 0)
(-1.12554 -0.140874 0)
(-2.1233 0.0735401 0)
(-1.06227 0.0749102 0)
(-1.90923 0.0802295 0)
(-2.39082 0.0916101 0)
(-2.10952 0.0922296 0)
(-1.38833 0.100749 0)
(-1.46028 -0.184547 0)
(-1.77678 -0.47526 0)
(-1.55556 -0.193115 0)
(-2.04993 0.457038 0)
(-1.86487 0.33757 0)
(-2.14202 0.166604 0)
(-1.99665 -0.0065227 0)
(-2.32887 -0.371805 0)
(-2.41097 0.405405 0)
(-1.41627 0.293644 0)
(-1.99563 -0.404771 0)
(-1.49353 0.44344 0)
(-1.75379 -0.233588 0)
(-1.70514 0.344679 0)
(-1.85187 0.405249 0)
(-1.34221 -0.473031 0)
(-1.18154 -0.241056 0)
(-1.87515 0.0250209 0)
(-2.08552 0.00141516 0)
(-1.08834 -0.0492976 0)
(-1.03986 0.143598 0)
(-2.17911 0.162656 0)
(-2.47452 0.395863 0)
(-2.00268 0.0125932 0)
(-2.32447 -0.376154 0)
(-1.42078 0.280809 0)
(-2.04241 -0.389172 0)
(-1.49424 0.439384 0)
(-1.79204 -0.222969 0)
(-1.8143 -0.458197 0)
(-1.60119 -0.269385 0)
(-1.48435 0.468164 0)
(-1.39349 0.345958 0)
(-2.58202 -0.195048 0)
(-1.91497 0.355871 0)
(-2.18771 -0.0581543 0)
(-1.84558 0.0300043 0)
(-2.20125 0.395665 0)
(-1.7117 -0.439482 0)
(-1.98108 0.297397 0)
(-1.51972 -0.138707 0)
(-2.63928 0.315771 0)
(-2.80354 -0.122703 0)
(-2.24585 0.142987 0)
(-2.41804 -0.160607 0)
(-2.13516 0.194185 0)
(-1.22275 -0.25948 0)
(-1.13041 -0.0215149 0)
(-1.92225 0.177514 0)
(-1.42894 0.0344278 0)
(-2.34199 -0.134239 0)
(-1.42431 0.2728 0)
(-2.05357 -0.0630071 0)
(-1.15806 0.0357659 0)
(-1.9568 0.129085 0)
(-1.23718 -0.202395 0)
(-2.18169 0.134116 0)
(-1.79115 -0.481642 0)
(-1.56886 -0.200895 0)
(-2.02154 0.453079 0)
(-1.84171 0.333229 0)
(-1.18477 0.0578318 0)
(-1.97926 0.110335 0)
(-1.26 -0.182305 0)
(-2.21115 0.111049 0)
(-2.11815 -0.037237 0)
(-1.52281 0.261586 0)
(-1.5296 -0.00699777 0)
(-2.42977 -0.102469 0)
(-2.14657 0.439539 0)
(-1.63587 -0.158669 0)
(-1.94021 0.309853 0)
(-1.86412 -0.461387 0)
(-1.42551 -0.41848 0)
(-1.27351 -0.160801 0)
(-2.07159 0.352989 0)
(-1.88177 0.296315 0)
(-2.01103 0.0763557 0)
(-2.62139 0.300306 0)
(-2.27109 -0.35206 0)
(-2.26898 0.113944 0)
(-2.61134 -0.260073 0)
(-2.1695 0.100986 0)
(-2.53106 0.379527 0)
(-2.25072 0.0289569 0)
(-2.21148 0.0803455 0)
(-1.18445 0.0817341 0)
(-1.25187 -0.153649 0)
(-1.97837 0.0877866 0)
(-2.60002 0.319597 0)
(-2.10659 0.0565883 0)
(-2.40871 -0.369743 0)
(-2.25565 0.0910042 0)
(-1.22653 -0.264605 0)
(-1.65897 0.446517 0)
(-1.54151 0.372517 0)
(-1.42224 -0.495824 0)
(-1.10377 -0.139342 0)
(-1.99609 0.310983 0)
(-1.22232 -0.36391 0)
(-1.81819 0.277348 0)
(-1.11343 -0.155261 0)
(-1.99463 0.327916 0)
(-1.819 0.291437 0)
(-1.23825 -0.384 0)
(-2.07309 0.168199 0)
(-1.13754 -0.233332 0)
(-1.05474 -0.00588682 0)
(-1.87084 0.156869 0)
(-2.08847 0.148263 0)
(-1.05281 0.0110722 0)
(-1.88263 0.140406 0)
(-1.13026 -0.214904 0)
(-1.14015 -0.225178 0)
(-1.75186 0.338246 0)
(-1.28765 -0.457895 0)
(-1.90592 0.390505 0)
(-2.09116 -0.332892 0)
(-2.26971 0.150429 0)
(-2.61726 0.266967 0)
(-1.90497 0.0758177 0)
(-2.00322 -0.140081 0)
(-1.05931 0.0753374 0)
(-1.80291 -0.0880451 0)
(-1.03658 0.231024 0)
(-1.02082 0.0984562 0)
(-2.09653 0.0545606 0)
(-1.07842 -0.107034 0)
(-1.88891 0.0658553 0)
(-1.50605 0.469338 0)
(-1.63582 -0.255716 0)
(-1.41576 0.339352 0)
(-1.85837 -0.444102 0)
(-1.98506 0.413444 0)
(-2.1059 -0.103437 0)
(-1.8643 0.115908 0)
(-2.49947 -0.307207 0)
(-2.28727 0.00658326 0)
(-2.21289 -0.134391 0)
(-2.34057 0.287109 0)
(-2.78615 -0.172023 0)
(-1.85857 0.0497525 0)
(-2.06282 0.0315147 0)
(-1.05631 -0.061131 0)
(-1.00183 0.130816 0)
(-1.84748 0.390681 0)
(-1.13925 -0.24702 0)
(-1.28965 -0.476045 0)
(-1.70102 0.336952 0)
(-2.65222 -0.249806 0)
(-2.18252 0.103743 0)
(-2.54246 0.372681 0)
(-2.26348 -0.00563692 0)
(-2.7071 0.231261 0)
(-2.2981 -0.303802 0)
(-2.30877 0.0801023 0)
(-2.08675 0.155264 0)
(-2.222 0.358876 0)
(-1.99793 0.280612 0)
(-1.61953 -0.409052 0)
(-1.45091 -0.116385 0)
(-1.40175 0.428481 0)
(-1.73803 -0.230927 0)
(-1.33851 0.288693 0)
(-1.96787 -0.38428 0)
(-2.10557 0.242312 0)
(-1.13814 -0.0681059 0)
(-1.24191 -0.306179 0)
(-1.90012 0.217575 0)
(-2.12869 0.167385 0)
(-1.10722 -0.00923441 0)
(-1.19127 -0.24566 0)
(-1.91616 0.156091 0)
(-1.44682 0.44331 0)
(-1.72826 -0.237322 0)
(-1.37403 0.301815 0)
(-1.96149 -0.401929 0)
(-1.77684 -0.210464 0)
(-1.32381 0.399839 0)
(-2.00574 -0.342101 0)
(-1.27974 0.258413 0)
(-2.27782 0.0895527 0)
(-2.85273 -0.0497997 0)
(-2.51721 -0.190725 0)
(-2.62066 0.340983 0)
(-2.0631 0.467821 0)
(-1.85863 -0.152696 0)
(-1.88323 0.268424 0)
(-2.16139 -0.435369 0)
(-2.10355 0.473934 0)
(-1.8388 -0.149668 0)
(-1.91198 0.275563 0)
(-2.14113 -0.443362 0)
(-1.82641 0.309639 0)
(-1.19663 -0.18099 0)
(-2.00033 0.360745 0)