/*--------------------------------*- C++ -*----------------------------------*\
| =========                 |                                                 |
| \\      /  F ield         | foam-extend: Open Source CFD                    |
|  \\    /   O peration     | Version:  3.0                                   |
|   \\  /    A nd           | Web:         http://www.extend-project.de       |
|    \\/     M anipulation  |                                                 |
\*---------------------------------------------------------------------------*/
FoamFile
{
    version     2.0;
    format      ascii;
    class       volScalarField;
    location    "29";
    object      Theta;
}
// * * * * * * * * * * * * * * * * * * * * * * * * * * * * * * * * * * * * * //

dimensions      [0 2 -2 0 0 0 0];

internalField   nonuniform List<scalar> 
3012
(
-2.54011
1.77144
4.11882
-0.302514
26.2141
9.21265
-20.3083
-3.79051
-2.57531
3.6146
-2.86636
3.56163
1.01491
-0.698495
2.51665
0.84385
-19.5428
-23.4079
17.2892
22.7039
1.11278
0.0295736
1.73296
0.920274
3.86159
-2.35435
5.23325
-1.68799
-1.54454
3.88334
-0.113548
2.34117
0.464911
2.84475
-0.874062
1.45512
2.35859
7.88381
-6.093
-1.2014
0.969933
3.11291
1.15332
-0.984805
0.960186
1.05537
-1.15143
3.14104
0.602739
1.44231
0.349586
1.10665
-4.12591
1.71328
1.37037
6.85054
-4.61758
-13.7575
2.19387
11.475
-13.9555
12.3141
21.2671
-4.61935
0.955654
-1.71246
4.11447
1.40458
1.8988
1.04
1.0188
0.115689
2.26872
1.19729
0.104383
-0.407528
-0.70126
2.72386
1.7943
0.246646
0.917831
-1.45287
1.13128
3.49238
2.87134
0.794628
1.05926
-0.808327
-0.263505
3.86734
-1.57592
2.5953
2.95981
-1.72146
-0.130442
4.01625
-5.8391
3.97771
-3.41905
6.20826
4.04816
2.06379
0.323937
-1.71927
3.38472
-0.916395
3.10432
-1.06528
2.17515
0.870875
-0.307216
1.12104
-1.03961
3.28086
1.15788
1.09886
2.44662
0.0847758
2.35205
0.193546
-0.812148
-0.0828867
0.881932
2.65039
4.9459
-9.45112
7.12143
-7.33624
27.499
-29.3871
3.87736
-4.8472
-2.83158
1.96146
10.2695
4.80165
-14.8784
12.3706
23.3913
-7.53575
9.33801
-2.26834
-5.35694
5.25693
6.93403
8.56526
-4.58868
-2.59629
5.57169
-23.6592
-6.00183
21.1434
0.239114
-0.708568
1.79035
2.81124
2.38011
3.38339
-1.20231
-0.165581
2.53304
-0.405573
1.97338
0.0946787
-2.71549
-6.51082
4.60274
8.45901
0.46178
3.01785
-1.07096
1.45126
9.89223
9.65076
-9.31272
-9.83591
-7.93041
11.2723
15.3087
-9.25495
-7.9364
2.93527
8.19546
-2.28131
3.43991
-1.58076
-1.11563
4.12037
-0.17155
2.66106
2.127
-0.761933
2.30769
-0.20199
2.04609
0.0300028
2.06347
3.08448
-1.02151
0.0621274
0.869265
-0.444411
0.804966
2.09127
1.18772
4.51583
-2.12589
1.35546
1.43309
1.20825
1.14578
0.275058
1.12339
1.73209
-0.0324561
1.03275
3.17516
1.39909
0.493717
-1.14403
0.242542
1.04956
0.885102
0.396706
0.167769
-0.249559
1.38735
1.95078
0.917239
1.79253
1.03001
-0.272074
0.945427
0.00175724
1.26968
0.291867
2.96186
2.36342
-0.450296
-1.11769
2.31334
-0.926741
3.15565
-0.0816939
-0.242477
3.24126
2.50651
-0.804599
1.62879
-1.73556
0.581563
4.00186
-1.89185
4.18135
3.8183
-1.42706
5.87258
1.7546
-1.86902
1.43742
1.14953
2.0306
0.0697465
-0.513269
0.730218
0.0330695
0.634917
1.51743
2.15833
-0.468199
-1.06126
2.81106
1.30284
4.16209
1.01257
-1.83532
1.53167
-1.21593
3.23061
0.403143
-5.24979
2.52127
0.322001
8.38419
0.893459
1.49712
0.193211
1.04799
17.6611
-16.7122
-20.141
14.7228
-17.8372
23.9793
5.60471
-0.235982
-0.403057
-1.94523
2.75094
4.31975
3.03432
-0.70516
-1.68467
4.24577
1.9977
-1.32431
3.44662
-0.080273
-0.959115
-1.28367
1.53937
0.901317
5.56411
-1.28821
-3.82393
2.57975
3.28523
3.63354
-1.081
-0.784446
0.525849
1.39282
0.383705
1.37624
0.000503239
-0.863903
2.11149
3.06726
-4.24197
-0.157458
3.13974
8.72497
2.47453
0.447267
1.56729
-0.513357
2.0598
0.00843509
2.09134
-0.12035
1.22791
0.602069
1.36456
0.200599
-0.204239
3.50251
-1.24037
2.10616
1.09045
3.50714
1.26902
-1.14908
0.785441
1.92331
-0.131235
0.0593291
0.742003
0.179261
1.89232
1.23375
-0.612244
2.56019
2.75707
-0.389135
0.205181
3.24819
-1.1283
1.90249
0.0204025
2.55999
-1.70782
1.0461
-2.89973
3.75502
6.11043
-0.221724
2.06529
2.05902
-0.338382
-0.163509
-0.436642
0.424213
1.03287
1.7819
-0.0513375
-1.46165
3.63551
2.09403
4.06254
-1.9111
-1.18313
5.12894
3.22319
-1.94553
-2.10958
2.874
-1.06532
2.37121
-0.256415
3.1879
2.35313
-0.940349
-0.962244
2.19186
0.903397
-1.14944
1.38673
3.36241
-1.88104
-4.88431
9.93865
8.24322
1.65605
-2.97357
1.33853
6.20993
-11.0918
8.98339
-11.0846
8.70107
-0.895539
-0.496764
3.3265
2.80119
1.57063
-0.295203
0.684185
1.82312
-0.263458
2.50077
0.758404
1.00025
-1.42479
-0.0799221
2.31835
3.70474
-2.1175
1.37116
3.90009
0.207552
-2.63748
2.64725
4.60415
-0.488692
-0.0229117
-0.154775
1.84365
-0.0756138
6.03001
0.544058
-3.72334
1.42589
1.31509
1.26064
1.30826
0.718575
-33.0965
5.79443
-9.00867
30.7758
5.49926
2.31923
0.321911
-2.56185
1.2035
1.12001
0.562924
0.525046
9.24877
9.01674
-5.2349
-3.80701
2.82454
5.30737
-2.27224
-0.296821
1.83052
0.262988
0.199937
1.64125
-1.43298
-2.18495
4.86744
4.1336
0.975032
-1.5419
0.906995
3.62276
-21.3656
11.1146
-11.6319
22.4621
1.83374
2.08841
-0.418869
-0.219269
0.794532
-0.694945
1.08052
2.60896
-0.650841
2.4573
1.9415
-1.17513
0.218824
3.38876
-1.09042
1.77401
-22.4948
-20.2088
17.0763
20.475
0.0227973
2.88965
2.37043
-0.663283
5.67383
0.100994
3.10701
-2.78364
-0.315676
2.47585
-0.352803
2.49161
-0.0350947
2.17612
-0.180851
1.95869
2.97521
0.569122
-1.12545
1.45996
23.6262
-22.528
-5.28579
6.28963
4.22015
3.2888
-1.74189
-0.982933
4.46287
0.586794
1.73983
-2.23815
0.225811
2.38899
-2.73498
5.45989
0.965734
-1.10237
3.08964
1.30851
2.46231
2.83303
-0.815395
-0.505686
0.530502
1.83968
-2.19742
4.66669
0.0168829
2.21348
-1.03566
3.13229
0.166656
-1.1073
1.34807
2.64612
1.1617
-0.294122
0.0523427
2.14883
3.60404
2.50056
-0.358371
-1.50072
1.19647
-0.530145
0.377608
2.26358
0.176744
0.951732
1.07386
1.81946
-18.9745
29.5687
-32.0672
16.2684
0.686707
1.95419
-2.34486
5.0985
3.89305
2.17429
-1.67225
0.166436
-0.502578
5.63979
-2.22966
4.56109
-15.6022
20.1579
-10.5154
13.841
4.13499
-17.7932
0.720065
23.2503
-2.01257
2.17848
3.72964
-0.56688
-0.320096
3.34296
2.30069
-1.12823
-3.93869
3.76027
-1.70645
6.08722
1.47296
-0.86361
0.265908
3.02255
0.254547
1.49365
0.525319
1.09921
-3.0251
2.43209
4.01407
-1.36465
1.59265
2.84742
-0.837556
0.887093
1.08741
0.945834
0.523558
0.922197
2.76933
0.0396951
1.60923
-1.15601
15.72
0.543652
6.18233
-9.24304
-2.74269
3.58678
-0.442624
5.54129
-1.92862
-3.62655
5.16678
7.47464
-5.8789
6.80218
-3.95749
11.2723
3.6383
-14.0063
11.4704
-5.17284
11.5909
-2.21011
8.45244
-3.94679
-4.44014
4.83099
5.01258
-4.54169
1.24509
1.2793
0.208263
0.327765
-0.338748
5.14273
-2.47094
2.99302
-24.2213
-3.98898
23.9728
4.47831
-1.55472
3.61637
-0.38616
2.47128
5.49585
-2.6919
3.06246
-0.286899
0.752055
1.28752
0.937233
0.844049
4.30633
2.12215
-1.83913
0.319892
1.48133
0.233451
0.19472
0.51003
-17.2225
-20.6165
17.7004
20.7753
2.07532
4.02813
-1.53802
0.214825
3.51404
-1.0697
-0.759404
3.47153
2.86452
0.614529
1.47901
-0.349403
3.40971
2.81035
-1.11013
-0.707696
1.82343
-1.08326
0.585046
3.54406
0.368945
2.21844
1.71237
-0.319997
-10.047
13.0632
11.4354
-12.4073
0.524416
4.0421
1.11023
-2.73959
-2.88369
2.66414
5.27089
-0.0334716
-2.18933
-3.87881
3.06977
4.90079
2.31649
-6.26124
8.99858
0.338371
-0.361936
-2.75398
4.36563
2.38796
0.582508
3.31855
7.43343
-3.99926
2.12037
-0.0679749
2.45567
-0.293823
2.71266
2.09195
-0.212525
-0.763594
-1.94764
1.34053
6.31203
2.02522
1.90043
-0.357272
-0.56593
2.087
-2.37403
3.18662
5.70565
-0.270557
2.84555
0.136367
1.6558
-0.877908
4.82414
0.445433
2.2382
-2.25485
3.81953
1.20675
-2.08769
0.770436
0.0515633
2.19893
-2.00048
4.2743
-0.438904
0.613245
2.64601
1.44245
1.48268
1.70354
2.72688
-0.383566
3.89495
-1.01132
-1.42874
3.35267
2.23771
-1.27639
2.66264
-0.729321
0.879271
4.56869
1.50798
-2.116
-1.32325
3.25266
2.5316
-0.534582
3.14989
-1.23483
1.36364
0.368566
-1.0927
3.05556
3.25418
-0.751967
0.778112
1.5604
3.35203
-1.14355
-0.451248
0.164652
2.40749
2.14017
0.88431
1.15911
-13.1696
14.9957
-0.387598
3.14104
2.27903
-1.04557
-4.65084
5.55871
5.98672
-5.33199
3.63835
-9.63347
-2.68684
9.85955
2.7747
0.646902
-0.548838
1.33092
8.8618
1.90271
-2.10706
4.51791
2.65657
0.653247
2.28315
6.60947
-0.287272
9.32708
2.46633
-7.68289
-2.84804
3.45933
5.37899
-0.957478
0.865956
0.458932
0.848377
1.18647
1.12793
0.676427
0.997538
0.513959
-5.67156
0.87935
5.90588
-0.283184
2.48247
1.84481
-0.573945
0.318331
1.67147
-0.294082
0.0218575
2.02701
-2.69516
0.641916
5.99825
8.80078
1.45676
-3.73519
1.55427
7.00744
-1.90938
3.13666
4.63866
-0.550118
-3.56755
6.64055
-0.558935
3.84229
3.1385
2.0336
0.0733124
-0.952114
-0.583327
2.93389
-0.671366
2.99596
1.53883
-3.84321
0.237198
5.7441
2.78755
-0.118628
-0.890343
1.73501
1.04145
-1.19896
3.43372
0.91807
4.49041
-2.22062
0.876094
1.34339
-1.36994
0.828642
0.334497
2.47961
2.86804
-0.733398
-0.647707
2.77398
1.54238
0.628625
3.34272
-1.07797
-0.00211722
-0.969048
2.61963
1.59135
0.399979
1.53282
2.20735
-0.249263
1.29467
-0.47546
1.02778
2.61448
-2.41614
3.95235
-1.82041
4.52162
2.99457
1.11726
0.528954
-1.1545
-1.23923
3.28869
2.69434
-0.591408
2.06068
-0.844621
-0.256507
2.58465
-0.614556
2.77268
-0.00186499
1.89245
3.72119
-1.62247
-1.45747
3.82485
3.10046
-2.28138
-0.499444
4.89808
1.87048
-1.20246
0.204243
3.425
3.22441
2.13959
0.0548412
-1.08123
-0.753573
2.89716
1.2762
0.990377
3.66477
2.14342
-0.0783631
-1.65331
10.1216
1.64695
-4.83583
2.53849
-0.0338651
0.0391098
-10.35
10.2783
4.92353
0.643921
1.67434
-2.6572
1.10337
2.24094
0.613451
-0.49178
0.750606
-0.425888
2.34121
1.03195
1.46787
-0.95087
3.15594
0.627883
-4.30537
5.7206
4.06558
-2.62661
3.86803
-5.63737
-10.4954
8.75483
1.13591
2.1098
0.628872
-0.343595
1.11098
-1.29456
1.22113
3.55136
0.371432
2.48736
1.61094
-0.438817
-1.09826
2.16955
3.42287
0.00480861
-0.391065
2.85338
2.26613
-1.08509
-0.214138
2.2895
-0.106223
2.07366
16.5812
-9.02279
-5.0497
10.3891
-1.11132
0.20024
3.40925
2.076
2.69343
-0.224288
-0.445273
2.41346
3.83575
-1.53199
3.25912
-1.23356
3.09365
-0.59451
2.92381
-0.611731
2.64907
1.29901
-0.655374
0.663734
1.11887
3.31672
1.09716
-1.09246
4.2165
-1.73097
0.387362
2.26301
3.33752
-0.992051
2.56209
-0.298294
-0.0376163
1.14609
0.673687
1.85458
1.15398
3.91092
1.21193
-1.58709
3.56428
-1.40075
0.54853
1.58341
3.15311
-0.814382
4.22363
-1.89037
-3.53671
-2.9014
4.31047
4.93532
-0.576804
3.73914
2.82187
-1.49808
-0.144464
2.18128
1.62927
0.270429
-0.194329
2.26066
0.87308
1.16477
-0.653648
3.64953
-1.77658
5.41731
0.44354
2.22181
1.38988
-0.302131
3.0132
-0.778517
2.52773
-0.215982
5.51894
3.36633
-3.23398
-0.992256
4.33851
3.20081
-2.05567
-0.972155
-3.50285
10.9755
-12.5185
1.41486
3.44046
1.62099
0.545742
-1.18502
0.417666
0.706398
0.710194
0.458247
0.410749
0.253295
0.99375
1.28942
0.762613
0.217059
0.46442
0.574582
1.15557
-1.48974
1.10262
3.80491
-0.944251
0.376323
0.644613
2.0041
1.70643
-0.0637934
-0.77593
0.967378
1.5654
0.368812
2.71249
-0.71269
-6.15024
3.19395
6.84854
-2.10637
3.04635
-3.4822
7.987
-7.93453
1.95111
0.603997
1.13589
-0.12188
5.46023
-0.140163
3.58807
-2.70582
0.235929
1.65458
0.314949
1.33315
0.481406
2.96401
1.69434
-0.867048
0.784989
1.17338
0.636268
0.964653
2.94911
1.38161
0.822886
-0.95299
1.60774
0.543556
0.245361
1.00213
-0.552703
-2.34145
3.20305
5.10761
3.27878
-2.24483
3.60535
-1.89351
1.516
0.738539
0.289373
1.08404
1.34845
5.4226
1.29943
-2.74285
1.86885
-0.671034
-0.0220153
2.62188
2.30855
-1.86209
0.558288
5.07227
-1.77529
-0.792381
4.20962
5.79139
-0.505087
2.40667
0.671831
1.45319
2.20837
-0.0273449
2.04915
-0.0774109
4.8953
-0.687764
4.50038
-1.47354
2.9555
4.62057
-4.1699
-6.16374
4.75771
-2.31605
2.73265
-0.339537
2.00086
-0.735611
0.133248
2.69179
3.07335
0.624096
1.7178
-0.860545
2.52029
0.549684
1.44481
-0.62252
2.19296
0.0459304
-0.169239
2.02302
-1.22411
2.08607
3.63197
0.269753
-15.9718
15.7123
14.3098
-15.9257
3.37264
-0.640275
-1.38782
2.89088
2.11985
-2.31064
-0.779401
3.58183
0.577834
0.838425
1.2201
0.776042
-0.588587
1.23081
-1.4725
2.2825
4.4248
-1.37757
-1.72479
4.48754
-0.0224681
2.72474
-0.653768
2.04638
5.31484
0.345558
2.24759
-2.61279
0.132462
1.64878
0.212102
1.39703
3.10894
-0.66951
-2.00568
1.90155
1.71621
-0.827181
2.72237
0.207603
-1.76081
4.08037
-0.407275
2.70146
0.189653
1.44254
0.17052
1.30525
-1.31423
4.69888
-1.96203
4.1507
1.6144
0.607345
1.2593
0.332491
0.104223
1.98898
2.48339
-0.549559
1.23016
1.91359
0.680585
0.0329107
-0.934764
1.08181
0.6566
2.88808
-0.767974
-1.51001
3.89448
3.07969
-0.0854859
-0.0916506
1.46326
1.57107
0.0207749
1.13477
1.57196
0.427837
1.98955
-0.185886
0.333111
0.968963
-1.76271
0.662915
0.108865
2.62351
2.59625
5.28242
-2.27217
0.482533
18.0836
-11.634
11.1506
-6.12472
2.24578
0.961572
-0.343388
0.482684
8.93242
-18.1583
24.5835
-3.23565
-5.48534
-1.06154
9.28249
4.81169
2.96702
-2.56103
-0.166845
5.03729
1.36116
0.338101
-1.01075
2.75136
1.0502
1.00962
-0.465731
2.60079
0.0931771
1.43905
2.10516
-0.387285
0.582422
0.437165
1.44881
1.24337
1.55814
0.854705
0.161199
0.889436
1.64052
0.381871
5.08722
-1.94696
1.62153
1.97744
-0.0378011
-0.281407
3.29762
-1.03195
-0.90415
3.38986
8.20856
20.0964
-13.9742
-2.60996
-2.04306
3.64786
3.86796
-2.27084
-21.5102
9.83906
19.4661
-13.5065
4.99701
2.60455
1.82273
7.28402
3.0635
-0.675789
2.75628
-0.79768
0.252543
-2.38932
2.74769
5.20967
1.79432
-1.27054
2.40939
-0.64349
1.70099
-0.765771
2.85339
0.549303
-1.12275
3.46308
0.394084
1.83147
0.156985
1.28513
0.451249
1.19259
-1.46775
4.34241
-1.86135
4.47602
0.0559132
0.507742
1.30492
1.06972
-1.89241
4.02244
-1.4614
4.66305
1.93903
-0.561339
2.54061
0.206501
2.00952
-1.85046
4.28247
0.291746
3.31855
3.72759
-1.10708
-1.4671
-0.400168
0.614154
2.49785
1.40909
0.825186
0.648343
-0.892474
2.40072
4.88175
1.96895
-2.94844
0.228694
3.19685
1.33521
-1.10826
0.717079
2.48834
-2.02861
3.50519
-0.742933
5.67819
-4.3219
0.193432
1.18591
3.48009
0.598242
1.59318
-1.51108
1.5449
-0.506975
-2.20844
3.41785
0.196155
-0.221535
1.8363
2.30581
-21.0424
-3.80908
18.8053
2.94286
2.63595
-0.476271
2.14033
-0.0683104
1.09411
0.59909
1.87022
-0.0887562
0.264736
0.0699546
1.52229
1.6991
0.897551
-0.44017
2.60589
1.15063
1.9541
0.323129
2.54418
-0.462784
0.442679
0.681072
1.33497
1.26674
-21.576
15.3613
-12.5389
21.9862
0.402878
0.349141
1.35909
1.10752
1.579
-0.115835
-0.230193
1.96892
1.48243
0.129796
1.84668
0.707683
0.220629
0.485567
1.30825
0.912366
0.327382
2.00748
1.83603
0.171892
-0.178383
1.42481
2.12791
0.413743
-0.760602
2.36091
3.0858
-0.180992
0.577155
0.288202
0.78289
1.14437
1.07557
0.821841
2.91613
-0.790156
-1.62774
-2.12128
6.26469
6.57075
-0.610651
-0.122169
2.2546
2.72131
1.03286
-2.13286
4.69135
1.11755
-1.28732
0.185991
2.00864
3.34482
-0.0245973
1.78319
0.288477
1.08057
-0.943035
3.1363
0.788068
1.55913
1.76709
-0.12635
0.789645
0.673174
-0.437469
2.95129
-1.13251
2.18613
1.82998
-0.0211692
-1.07731
2.99193
-0.465314
3.44186
-1.00751
2.77952
-2.26526
0.86827
1.60581
4.7615
-5.93612
-24.3813
6.34164
25.8464
0.151565
-0.214856
5.19425
4.79648
3.88096
-1.69043
-0.266942
2.15154
5.27967
2.33052
0.680591
-2.67142
3.18093
3.62957
-0.93781
-1.43179
-1.05935
2.77034
2.41939
5.6967
2.97826
-3.40094
5.09974
-1.43803
0.107691
2.65168
-2.14943
5.32418
-0.766965
-0.395642
2.74638
0.799553
1.90923
0.686777
1.31583
0.194304
-1.67754
1.41574
-0.469558
2.48367
-2.57859
1.7563
1.05673
5.88778
-0.634662
2.34698
0.817506
0.886548
3.38596
2.99546
-1.27839
-1.03124
-0.834335
3.09601
1.94714
0.377983
2.04365
-4.07271
-0.571325
5.49896
-1.50858
-0.565078
3.53977
2.86031
2.44282
-0.0758304
2.0443
-0.443793
2.2577
-0.675848
2.84716
-0.462967
-0.577978
1.74754
0.675205
2.90533
1.80941
-0.777195
0.211687
2.76828
3.67895
-1.57204
0.523591
1.53418
5.06486
-1.63885
-1.43175
4.82547
-0.28847
-0.347685
2.26635
2.42353
1.64445
-0.659913
2.80362
0.360674
-1.14825
1.81736
3.56702
0.470326
-1.00713
-2.09339
3.36382
4.55166
-1.01274
1.00878
3.24672
1.14675
2.04387
-1.06843
1.53207
-1.37219
-0.644987
-2.31366
4.31853
5.49071
1.87408
0.929766
-2.99589
5.87748
1.21128
-0.241179
2.37877
-0.198805
3.57722
-1.38852
3.54227
-1.70055
-0.181787
1.16031
2.14539
0.74314
4.19168
-2.11622
1.4125
0.476821
3.55956
-1.46008
1.9198
0.527578
-5.05372
-4.47336
6.82613
6.12858
4.36225
-2.13476
1.55076
0.598224
0.414586
-1.9106
3.31043
1.28624
-3.18417
7.722
-4.56603
6.14038
-0.619475
3.70389
-1.61881
2.31135
2.34697
5.33368
-2.37584
0.401468
-1.72943
4.07948
1.33005
0.787248
-12.4479
7.18892
-8.20275
12.8315
2.48697
0.959217
0.955922
-0.442465
-0.248968
1.69119
2.27443
0.38741
0.421432
0.414207
1.42366
1.24002
0.923065
0.929343
1.8217
-2.40098e-05
3.11502
-1.78237
2.18796
-1.10573
-0.0980832
2.19305
3.02885
-0.806921
-2.03522
4.10183
2.38665
0.11052
-0.995457
3.09323
2.17248
-0.209322
0.987577
1.92764
-0.173697
0.764278
-0.551079
1.69986
3.42217
-2.18255
2.82845
-0.549478
4.94217
1.9372
2.57403
-0.618973
2.75801
-0.448084
0.163251
3.06359
1.67643
-0.563407
1.58565
0.940985
0.60565
3.49602
-0.842937
1.90349
0.52493
3.10828
2.48988
0.82383
-0.566101
1.51052
-0.115289
2.05537
-0.0213769
2.34321
0.502454
-0.719701
1.58158
2.8014
3.38684
-1.55142
0.623241
1.01364
2.14269
-0.0599837
0.576075
1.34687
-0.428498
-0.778787
2.90509
2.57093
1.97694
0.251193
0.130238
1.85249
4.23581
-2.70147
3.75306
-3.09959
2.23956
3.11227
-0.0109498
-1.0698
6.05272
0.233056
3.3825
-1.24189
2.21881
-0.432343
-5.005
6.45691
-2.2565
2.84766
-0.681277
4.65121
-0.731831
2.96409
2.70468
-1.05092
3.67722
1.28637
0.654767
-1.77314
1.29195
3.17808
-1.31258
0.45448
-6.15862
3.48017
-2.13242
7.67193
2.85974
-1.80757
4.86875
-0.335499
5.65542
1.14688
1.59888
-2.76587
-3.91221
1.93172
1.33778
7.12581
1.69029
0.00120155
5.10185
3.2221
0.203372
2.65033
1.40608
-1.03458
1.44943
-2.04612
3.76874
0.244177
-0.659016
1.08042
2.81548
1.04347
3.20255
-0.295597
2.57986
-0.960616
-1.34069
1.43166
3.60869
0.763202
0.391361
2.59244
-0.501015
1.83094
0.473334
1.95106
-0.0329573
1.83976
-3.68465
9.72301
5.48022
-7.34207
0.549232
1.94999
1.41329
0.0171403
0.48232
0.267644
1.49693
1.7143
0.337797
1.69613
2.59812
-0.530901
-0.135727
2.08909
2.17839
-0.0142873
1.95042
1.87484
-0.148813
-0.180214
1.41043
-0.598289
2.34122
0.353934
-0.328946
2.19899
2.31754
-0.254302
-3.2706
2.80073
0.259325
6.41147
5.74211
-1.32496
5.23472
-2.26663
3.59153
-0.635847
1.20361
-2.80471
1.61265
0.152745
-1.49483
3.48668
0.773556
0.275212
1.5215
0.870474
0.55691
1.44104
1.2971
0.40282
2.53207
1.41186
0.14598
-0.92284
-1.29748
5.87552
-2.70528
4.67888
-0.097589
2.17741
3.25666
-1.26207
-0.265475
0.593305
5.65286
-4.67492
2.32701
1.86443
6.46993
-2.36204
-2.8763
2.63509
0.624566
6.29328
-0.939919
1.59688
3.52193
-2.79935
-14.0098
23.9617
11.7717
-26.3339
-0.527762
3.53739
4.6047
6.79163
-0.971367
3.31777
3.44584
-1.18548
0.707985
4.67499
0.248405
-3.37408
-1.19644
3.21436
1.42676
0.414274
3.05895
-3.46449
5.05877
-1.77168
3.90557
-0.922899
-2.22204
2.21807
2.80077
-0.531787
2.27596
-1.14897
3.07939
1.55727
-0.990359
0.517795
2.58691
-0.616142
-0.980324
3.09946
1.13925
-5.68565
5.79643
-1.21667
1.31104
-0.369476
0.703754
2.23743
-0.204483
1.70902
-0.372016
1.6415
-0.734304
1.0449
0.352208
2.01802
0.0171096
-0.302242
2.32822
2.51637
-0.0398169
1.95585
2.15238
0.0468013
1.68515
2.61327
-0.55122
0.272635
4.77491
-2.44781
1.07585
1.19411
-4.75808
-9.94428
10.2021
5.19343
0.0117501
-1.6961
4.10833
2.34937
0.303373
3.79734
2.38679
-1.53531
-4.64402
5.24152
-4.52185
5.54613
2.07113
1.20453
-0.412093
1.06539
2.17887
-0.109981
0.480106
1.60772
-1.43954
3.36723
-2.15501
2.65823
0.00777473
14.1687
3.94898
-9.50513
-19.5277
5.90992
-4.60543
20.0935
-1.47937
-0.98643
2.6733
3.29545
5.00018
0.421404
2.29342
-1.7063
0.870522
-3.35829
6.52558
2.17316
8.01879
-0.307802
1.39149
-7.18029
3.71629
-4.22887
-3.1987
4.91286
-0.918221
1.92715
2.94376
-0.0149344
0.84846
0.678571
0.15937
1.50507
0.0622849
2.51574
1.83079
-0.453858
4.19981
1.49759
0.393354
-2.4519
-0.384793
2.56802
-0.222584
2.55294
0.877697
-0.512077
1.27812
2.53889
2.41055
-1.42729
3.45281
-0.462677
3.49783
-1.53828
4.04081
-1.1087
0.273934
2.14806
1.56144
-0.281976
-27.5459
8.88098
-11.3319
25.9204
2.29214
-0.303314
2.27244
-0.237236
0.335851
3.49131
-1.7212
1.50129
2.71062
-0.520721
1.39781
0.776302
7.05781
2.67683
-3.06493
1.4
0.872074
-0.180082
2.1439
1.12017
1.97066
0.209458
0.0665388
1.56966
1.95755
-0.872842
2.87856
0.0139511
2.77457
-0.853051
2.10732
-0.207911
-9.7688
12.3341
15.4255
-3.94391
-2.35555
4.09182
-0.856564
2.78769
5.2438
-2.05659
3.74567
-1.06568
5.3789
0.842541
-3.48843
1.6353
2.23641
-3.79601
-0.74946
5.46477
-6.71086
-24.4833
5.11806
21.509
-2.12006
2.11289
4.21506
0.351149
-3.57795
-2.86413
4.5185
3.84606
-4.48371
-0.29166
3.15147
8.50556
1.6215
0.315731
1.42376
0.377596
-4.27265
4.19562
-3.93932
4.03621
-1.24616
2.64144
2.46355
-0.924073
0.677191
0.275065
1.49074
0.878284
0.414285
-1.88074
4.37145
2.03752
-1.07089
3.92041
3.21652
-1.50579
-2.91072
3.17186
-0.90753
4.98969
2.69301
3.61891
-0.508531
-1.44465
3.09428
3.62743
-0.865518
-1.23235
-0.119015
3.8574
-1.8589
1.96485
1.7357
0.00877887
0.841069
1.10847
0.0822641
-1.51306
3.88837
2.09009
-2.61994
1.30517
1.11285
4.60349
-1.23662
-0.85493
3.53124
3.78207
8.25397
0.170796
3.28067
-3.80553
2.26498
4.09669
-1.84137
0.266821
2.76446
1.81175
0.123165
-0.778638
0.739704
0.959894
3.13783
-1.31094
-0.637389
2.28598
2.89445
-0.172934
-0.601804
2.6161
2.82705
-0.292494
1.60316
25.4221
4.75511
-18.7974
3.20011
0.0524817
1.85487
-1.33332
2.86616
-2.85989
5.73312
-0.704011
0.62261
4.17532
1.46716
-1.78104
-0.784739
5.84527
-2.59364
3.76115
0.460566
1.31744
0.517872
1.45069
1.65245
0.143996
1.10181
0.658217
-1.67262
1.96143
-1.67806
2.21834
5.21954
-1.37277
4.69721
-1.28528
4.11492
-1.85656
-0.18308
2.48311
4.83349
1.26792
-3.96694
-0.753814
4.82182
-0.907139
-2.29708
3.25087
2.35814
6.28025
-1.20221
-4.13354
-1.87057
1.94226
3.87521
-0.0306099
6.9511
-4.97525
-1.84765
4.07032
0.173335
3.68658
-1.66248
1.66659
2.82133
-1.48822
-4.68547
5.95595
-2.61489
1.11411
6.04008
2.11659
11.7202
-16.4142
-10.9983
17.7716
-0.658663
10.642
5.56658
-0.982704
2.49061
-0.3092
2.04385
-0.657516
2.76034
1.38398
-0.731596
0.544822
1.95435
4.30715
-3.538
-1.33455
4.34985
4.85221
-1.08037
-0.795787
-0.334738
3.63849
-2.13046
1.74059
2.41769
5.3493
0.600412
-2.44898
5.88621
-0.226869
1.96816
-3.75357
-4.59102
3.06042
6.31477
-1.38177
3.59353
1.67094
0.535821
-1.67592
0.346804
2.59745
1.80637
-0.459324
-0.315286
1.97857
0.165519
2.48147
6.00987
1.23758
2.31974
-2.42076
16.088
-23.366
21.3395
-18.2218
0.830055
-1.12984
3.47331
1.52292
1.73926
0.168825
2.30846
-0.124885
2.64217
1.41061
1.00319
-0.42923
-0.568068
2.82711
2.91357
-0.71495
1.82852
-1.45558
0.356344
3.59801
0.318661
1.35179
-1.26586
3.30181
-0.95711
0.657872
3.11482
1.50635
1.84323
0.552722
0.0559908
1.81711
1.87044
-0.0019394
1.98709
0.0875537
2.49654
-0.0269193
-0.366537
2.15928
-1.22643
4.22684
3.43635
-1.84356
3.06901
2.08444
-1.00164
-2.3061
-23.6822
9.1965
-7.92935
24.5518
2.20035
-2.4068
4.5153
0.0510007
0.507515
1.33523
-1.55461
3.6351
0.430488
-1.29924
3.41177
1.77736
1.70576
0.513683
-1.79135
4.03399
-0.50866
1.09694
2.62587
0.540664
-0.99472
3.0249
1.44172
0.54618
3.66592
-1.53526
0.797226
1.54073
1.4852
-0.241895
3.55704
-2.42492
-1.25133
0.437814
1.97071
3.47689
-1.76543
2.86243
-0.590315
4.14287
2.71606
-0.684428
3.15114
-0.975835
2.85814
-0.0329854
-0.738488
2.04701
0.507662
2.14078
-2.82761
5.57679
8.26328
1.64029
-5.78874
1.4267
5.87188
-3.06083
4.78143
-3.94496
-2.27415
-1.14802
4.86908
3.84199
-1.56704
3.68523
2.81557
-0.657255
5.00482
14.3252
-9.73493
-0.933994
4.66472
7.47354
-2.074
-3.66358
-4.45234
5.04359
5.51546
-4.50448
0.0135568
0.0446402
1.97525
1.9265
-0.528247
2.4292
1.48255
0.437975
0.289887
1.84339
4.07664
-1.80253
-2.54905
1.09647
5.16889
1.60947
-2.8489
-0.31082
3.01293
5.58347
-2.49534
2.60345
4.3472
-0.927566
2.17928
3.90694
-0.08952
-1.8192
4.66587
1.15896
1.22974
-2.29288
2.61235
-2.88723
2.74228
8.30034
-1.01808
0.753704
3.01846
1.21607
2.06829
2.34011
-0.342086
0.0889394
-0.799475
2.80306
1.25581
0.546597
3.88167
-2.27485
-2.8065
3.13858
-1.43694
-0.228616
1.932
3.30246
2.06149
-0.255235
-0.364512
2.02556
0.418461
2.22462
-0.305958
1.62487
5.15842
1.10332
2.03988
-2.19256
2.02667
0.831478
-0.094598
1.0464
-0.425457
1.68761
2.42325
0.185776
-19.153
-17.8309
14.6423
17.5999
0.82722
-0.356918
2.09147
0.863028
-1.71666
0.465747
1.72296
4.14965
-1.33302
2.97554
-0.75309
3.44172
-1.54403
3.06626
4.32909
-0.597821
4.54289
-2.68122
-2.72367
4.6733
5.91086
-0.567988
-2.33354
3.47805
5.969
0.666329
2.39042
-2.28357
3.06093
-1.17535
3.59418
-0.705733
0.493255
1.3666
2.71967
-0.737425
1.45099
-0.427975
0.523123
2.45647
1.70745
2.41821
-0.286015
-0.424051
1.6629
0.29673
0.06416
1.44648
2.08337
-4.46588
-0.509101
6.79274
0.263194
0.703347
1.02967
1.41616
1.2021
0.678922
0.0450981
0.563087
4.47284
-1.63722
-2.4546
5.33278
0.225544
0.921106
1.11263
0.354378
6.21807
0.188061
2.65116
-3.3242
-27.264
1.75058
24.3066
-4.28536
-0.102514
2.38313
2.04377
-0.415572
4.5213
3.50242
-1.84788
-0.279984
2.51238
-0.518817
0.123439
1.86558
2.98126
0.452218
1.36354
-1.03547
0.895661
3.28166
0.694473
-1.55483
4.82702
0.101384
-2.35878
2.35509
7.8129
1.85673
0.580814
-4.28838
4.0361
-1.53532
3.73632
-1.43638
2.86645
-4.02073
-0.72977
5.8969
2.49889
1.29768
-0.451541
0.881958
2.60925
0.16554
-1.0956
1.35825
1.07753
-1.84355
3.28422
0.541158
-2.60802
3.47799
3.499
-2.0558
4.31081
-0.995006
3.40487
-1.76236
-1.83222
4.13976
1.90882
0.257261
4.23269
-2.08175
1.48362
0.664402
0.860613
2.06539
-0.473779
0.824634
5.11375
3.63372
-0.715705
-1.71168
-1.94487
0.45416
1.73617
4.24813
3.70781
-1.33541
-0.79843
2.98447
-0.102803
-3.83021
6.76362
2.38316
0.618542
1.32086
2.67143
-0.704523
-3.30056
5.06617
3.87366
-4.3733
0.51874
0.77437
1.23372
0.663739
0.00764532
1.26982
1.8078
0.546631
-0.00501099
2.32543
-2.28943
4.54546
0.76411
1.09216
-0.773685
2.6663
-6.99277
4.49158
9.26882
-0.911916
6.65357
-5.08936
8.77695
-2.4434
2.92356
4.86895
-0.370335
-2.39355
6.13117
-0.162445
1.30103
-4.36169
9.02004
-5.13524
2.28055
1.10898
2.67351
2.51992
-1.46001
-0.879624
-2.30211
6.82838
3.84473
-5.44887
4.35419
-3.12112
-0.915137
7.11456
-1.17232
-1.45395
3.53844
3.85938
4.34236
-1.87127
-1.29429
3.78798
3.25412
-1.93227
-1.27032
3.82078
0.857067
0.629947
1.41958
-0.0206589
1.48954
0.976264
0.580357
0.127753
-0.0117046
2.14852
-1.40977
3.73467
-0.873174
3.09639
-0.730239
2.93612
-3.92356
-3.34697
4.86107
4.50196
2.2273
-0.00115369
-0.423108
1.66377
2.64878
0.534563
1.62801
-0.592893
2.22635
-0.351248
1.63962
0.248738
2.12898
-0.278325
2.37799
-0.549029
3.53981
-1.23106
3.07761
-1.60766
5.68849
-1.34108
4.72813
-2.91201
-5.89069
7.70628
-4.86368
5.63121
0.383513
1.88195
-2.67905
5.1378
)
;

boundaryField
{
    insideCircle
    {
        type            myTemperature;
        value           nonuniform List<scalar> 
24
(
4.99701
2.21473
1.22866
7.54746
-2.68583
-0.908497
6.91246
5.47846
0.371582
-0.590936
5.30565
4.78828
-1.11817
2.30277
3.03868
6.0671
3.23526
0.0718733
5.60091
1.97442
1.67515
-0.0879757
5.22241
3.34935
)
;
    }
    outsideCircle
    {
        type            myTemperature;
        value           nonuniform List<scalar> 
124
(
2.44661
0.326306
1.66697
-0.299272
0.693585
1.56912
2.12626
1.70948
1.27589
0.259749
0.435152
2.43463
-0.0989795
1.89853
1.17128
1.20024
2.3034
1.02372
1.32967
-0.757213
-0.458256
0.688272
2.51277
1.51868
1.10888
-0.43013
2.56368
-0.701045
-0.126368
-0.259632
2.44927
1.76986
2.46852
0.79543
-0.435436
1.38355
0.933965
0.0059212
2.26094
1.05363
-0.46698
1.05578
2.50224
1.07687
0.228719
-0.374521
1.89544
2.61759
0.883754
-0.70067
2.75581
1.21229
1.9185
0.0975317
2.26347
-0.173754
0.497484
2.0148
2.00371
-0.255882
-1.81387
-1.50508
4.17118
0.358254
2.64415
0.577477
-0.240182
1.40477
-0.420188
2.17899
-0.0181297
2.55779
2.2885
-0.250789
0.622142
1.57377
1.87554
-0.0456135
0.0659012
1.917
-0.739911
0.834643
2.85037
1.3371
-0.0159686
2.56881
-0.402725
2.14706
-0.0853192
-0.166188
1.89559
2.32981
1.92093
2.58944
-0.312973
0.416794
2.4487
0.703743
0.0475644
1.02354
2.05615
-0.0835188
0.560288
1.44482
2.41744
-0.488313
1.34017
0.724105
0.172557
2.51807
1.91316
-0.338915
-0.269257
2.07478
-0.0182628
2.47245
2.23969
0.148055
2.3976
-0.412292
2.63757
1.0996
0.614192
-0.632377
)
;
    }
    topAndBottom
    {
        type            empty;
    }
}


// ************************************************************************* //
