/*--------------------------------*- C++ -*----------------------------------*\
| =========                 |                                                 |
| \\      /  F ield         | foam-extend: Open Source CFD                    |
|  \\    /   O peration     | Version:  3.0                                   |
|   \\  /    A nd           | Web:         http://www.extend-project.de       |
|    \\/     M anipulation  |                                                 |
\*---------------------------------------------------------------------------*/
FoamFile
{
    version     2.0;
    format      ascii;
    class       volVectorField;
    location    "57";
    object      u;
}
// * * * * * * * * * * * * * * * * * * * * * * * * * * * * * * * * * * * * * //

dimensions      [0 0 0 0 0 0 0];

internalField   nonuniform List<vector> 
2688
(
(0.2529758296 -0.05443301106 7.153297599e-17)
(0.182935652 -0.04370436558 -8.572189175e-17)
(0.5440210685 -0.03875570405 1.70950382e-16)
(0.4376797564 -0.02971069909 -5.853686834e-17)
(0.7142297701 -0.02854488912 9.156387856e-17)
(0.6025944235 -0.02130723289 -2.022102818e-17)
(0.8215317437 -0.0214561236 4.196812193e-18)
(0.7132666192 -0.01600724471 5.646888424e-17)
(0.8935277843 -0.01632228559 -6.108539715e-17)
(0.789270628 -0.01248052714 7.510974934e-17)
(0.9442654897 -0.0124846009 -2.256338272e-17)
(0.8421391559 -0.009996905328 3.99148143e-17)
(0.981335864 -0.009524294333 3.120362961e-17)
(0.878962598 -0.008137887373 -8.908488675e-17)
(1.009069973 -0.007153813853 1.012311152e-16)
(0.904227999 -0.006638667354 -1.068328146e-16)
(1.030032091 -0.005166742985 1.018223551e-16)
(0.9208656476 -0.005300456362 -6.780518556e-17)
(1.045735467 -0.003403286761 1.614272646e-17)
(0.9308850029 -0.003927601355 1.87209889e-17)
(1.056964124 -0.001727803551 -2.901875439e-17)
(0.935797763 -0.002247589531 9.158381694e-18)
(1.06389578 0.000103674603 -3.276922904e-17)
(0.9367760661 -0.001230020918 5.852176316e-18)
(0.2647744785 -0.1576067158 -2.234327235e-16)
(0.1922813797 -0.1259727039 -3.726158939e-18)
(0.5523303022 -0.1114382727 -3.71260211e-16)
(0.4439318666 -0.08463815983 4.063999259e-17)
(0.7202635561 -0.08136805475 -1.782997348e-16)
(0.6069912668 -0.05987636256 -2.856350103e-17)
(0.8259819707 -0.06049182752 -1.358797838e-17)
(0.7164859139 -0.04428917802 -1.380060571e-16)
(0.8968242984 -0.04536532323 6.783980305e-17)
(0.7916980153 -0.03393244776 -1.146053371e-16)
(0.9466929337 -0.03405370424 -1.086855252e-17)
(0.8440045675 -0.02665068393 -9.47561461e-17)
(0.9830894474 -0.02533392503 1.747847848e-17)
(0.8804107059 -0.02122421401 2.464868071e-17)
(1.010286453 -0.01838069498 -4.548662879e-17)
(0.9053529389 -0.01690357638 8.363176955e-17)
(1.030807914 -0.01263352713 -7.967743996e-17)
(0.9217232527 -0.01314973654 2.034480103e-17)
(1.046143613 -0.007722919227 8.382886743e-17)
(0.9314938665 -0.009477588962 -1.129169598e-16)
(1.05708365 -0.003424971274 1.048328257e-16)
(0.9361344414 -0.005344568511 -1.455977864e-17)
(1.063816672 0.000593507987 4.681762321e-17)
(0.9368401122 -0.001432782303 3.476098089e-17)
(0.288018475 -0.2588149854 4.076519739e-16)
(0.2108382519 -0.2065807442 1.093324206e-16)
(0.5687109596 -0.182658467 4.67228022e-16)
(0.4563329542 -0.138421384 -1.981766404e-17)
(0.7321729321 -0.1330830591 2.174936057e-16)
(0.6157009854 -0.09760332947 1.056172723e-16)
(0.8347860832 -0.09867506717 -1.220114722e-17)
(0.7228712807 -0.07191030806 2.210056062e-16)
(0.90337536 -0.07374137873 -5.986290646e-17)
(0.7965376068 -0.05483951716 1.990858988e-16)
(0.9515551132 -0.0550904401 3.461233984e-17)
(0.8477531783 -0.04283925002 1.182390726e-16)
(0.9866439827 -0.04071503534 -2.285245829e-17)
(0.8833417551 -0.03391168008 -5.557557014e-17)
(1.012793199 -0.02927381668 6.904978137e-17)
(0.907636117 -0.02684874549 -1.899117986e-16)
(1.032448437 -0.01987358009 2.139905637e-16)
(0.9234690951 -0.02080687591 -1.666471687e-16)
(1.047051654 -0.01194739043 -1.994846666e-17)
(0.9327784862 -0.01505430055 5.554154674e-17)
(1.057366085 -0.005161399531 -5.87686013e-17)
(0.9369963775 -0.008791965202 -5.865723468e-17)
(1.063547948 0.0009849325141 -5.944478188e-17)
(0.9373243459 -0.002233639973 6.403101587e-18)
(0.3224666782 -0.3568072205 -4.434974325e-16)
(0.2382696189 -0.2847090488 -2.637626657e-16)
(0.5929819127 -0.251671545 -5.848054192e-16)
(0.4746559021 -0.190579975 3.055419978e-17)
(0.7498122917 -0.1832350812 -3.217744576e-16)
(0.6285712362 -0.1342250285 -6.082599797e-17)
(0.8478165073 -0.1357361505 -7.74935894e-17)
(0.7323041891 -0.09876158423 -1.700740327e-16)
(0.9130591766 -0.1013144053 -8.608472655e-17)
(0.8036790066 -0.07520379367 -1.490210765e-16)
(0.9587280164 -0.07556469921 -1.043612138e-16)
(0.8532768651 -0.0586433897 -1.27928485e-16)
(0.9918738577 -0.05571553378 9.568108663e-17)
(0.8876564229 -0.04631964458 -1.307219992e-17)
(1.016466895 -0.03991705059 5.397928155e-17)
(0.9109862755 -0.03656416385 9.710540616e-17)
(1.034828168 -0.02695033646 -1.079685016e-16)
(0.9259788542 -0.02821530607 9.11491562e-17)
(1.048326576 -0.01607388097 4.747521613e-17)
(0.9344760394 -0.02027926508 -9.674163148e-17)
(1.057730659 -0.006890652075 1.176339397e-16)
(0.9378550223 -0.01171593801 8.619163711e-17)
(1.063280848 0.001182281197 -2.835638907e-17)
(0.9374312322 -0.002281199682 1.568516436e-16)
(0.3676619282 -0.4502997402 4.76471627e-16)
(0.2742820827 -0.3591731185 2.325174434e-16)
(0.6248016247 -0.3174618985 6.955834743e-16)
(0.4987015891 -0.2402529562 -6.441380718e-17)
(0.7729259088 -0.2310028174 3.114849408e-16)
(0.6454456095 -0.1690584159 1.273450057e-16)
(0.8648847274 -0.1709958938 3.049121973e-17)
(0.7446603161 -0.1242529334 1.817594383e-16)
(0.9257420473 -0.1275058675 1.580814036e-16)
(0.8130288623 -0.0944852409 1.666095353e-16)
(0.9681261982 -0.09496839579 -2.923607696e-17)
(0.860509157 -0.07355699032 2.300715943e-16)
(0.998738026 -0.06988746516 -2.071625714e-16)
(0.8933130778 -0.05798640025 1.475787843e-16)
(1.021317244 -0.04993400429 -2.201402812e-16)
(0.9154080514 -0.04567721973 -8.638596799e-17)
(1.038034024 -0.03357768644 4.995906539e-17)
(0.9293804843 -0.03518800583 -7.672667326e-17)
(1.050159426 -0.01989835117 -1.452552421e-17)
(0.9369893835 -0.02533263925 3.635999334e-17)
(1.058409948 -0.008432506347 -1.396085633e-16)
(0.9395590599 -0.01492691911 8.752716183e-18)
(1.06301835 0.001390664692 -1.889758993e-16)
(0.9384141746 -0.003073488293 7.415451692e-17)
(0.4230428582 -0.5381922665 -3.670457716e-16)
(0.3184150116 -0.4292350757 -2.073833613e-16)
(0.6638152791 -0.3793496157 -5.213536386e-16)
(0.5281777359 -0.2870214332 -1.423174028e-17)
(0.8012859137 -0.2759692622 -1.878724336e-16)
(0.6661502752 -0.201890139 -2.440550559e-16)
(0.8858459556 -0.204219096 5.918211253e-17)
(0.7598422881 -0.1483200389 -2.454704322e-16)
(0.9413351552 -0.1522181217 -3.078087663e-16)
(0.8245361359 -0.1127334177 6.042943738e-17)
(0.9796971505 -0.1133131023 -3.972363957e-17)
(0.8694273867 -0.0877155765 -1.03054982e-16)
(1.007204186 -0.08332418371 4.877325281e-17)
(0.9003005571 -0.069101079 4.138736121e-17)
(1.027310736 -0.05947066291 6.019452994e-17)
(0.9208606201 -0.05438048165 1.623929455e-16)
(1.041994132 -0.03994168019 1.091293435e-16)
(0.9334959733 -0.0418265459 -3.021412348e-17)
(1.052392863 -0.02369082471 1.124192653e-16)
(0.9397755712 -0.03003552681 -7.783330389e-17)
(1.059138608 -0.01025373174 2.318708928e-16)
(0.940877073 -0.01765461723 -1.354550305e-17)
(1.062514273 0.0008565233981 2.182657768e-16)
(0.9382656983 -0.002621680186 -6.038297195e-17)
(0.4879117425 -0.6192808621 -6.361353554e-17)
(0.370093982 -0.4938252145 8.452490772e-17)
(0.7094767725 -0.4364134111 5.34438444e-16)
(0.5626690576 -0.330101091 -8.303423036e-17)
(0.8344439564 -0.3173978048 6.914158303e-17)
(0.6903442781 -0.2320912239 2.758108723e-16)
(0.9103210279 -0.2347924269 1.236844556e-17)
(0.7775477311 -0.1704108283 -3.346973568e-17)
(0.9595103989 -0.174917554 4.485594887e-16)
(0.8379223991 -0.1294296859 -2.271806772e-16)
(0.993152764 -0.1301153405 -1.00818305e-16)
(0.8797693685 -0.1006134983 3.009302782e-16)
(1.017019054 -0.09557583327 -2.495082154e-16)
(0.9083745402 -0.07916831022 2.377620792e-16)
(1.034235249 -0.06809470183 -3.528795387e-16)
(0.9271499893 -0.06220198905 1.359672918e-16)
(1.046568506 -0.04556818395 -3.31182963e-16)
(0.9382939816 -0.04771567611 1.4562816e-16)
(1.055028365 -0.02675293562 -1.621586098e-16)
(0.9432444906 -0.03410942264 1.277663132e-17)
(1.060172694 -0.01115671008 -1.724941225e-16)
(0.9431436004 -0.02000760365 -2.10474096e-16)
(1.062243002 0.0009780290325 1.289907561e-16)
(0.9404275447 -0.003588282214 -5.349440216e-16)
(0.5614580937 -0.6926627036 6.111077664e-16)
(0.4287087185 -0.5523055059 -3.764153458e-16)
(0.7612823893 -0.488070133 6.069629278e-17)
(0.6018189628 -0.3691296673 -3.481327182e-16)
(0.8721068775 -0.3549199777 2.327049634e-16)
(0.717848097 -0.2594799315 -3.981781325e-16)
(0.9381666557 -0.262504577 1.716059594e-16)
(0.7977230036 -0.1904780968 -2.046424865e-17)
(0.9802371351 -0.1955190006 -9.804209294e-17)
(0.8532264317 -0.1446358548 1.276459677e-16)
(1.008550601 -0.1453961933 1.845004377e-16)
(0.8916475535 -0.1124047388 -2.641026432e-16)
(1.0283131 -0.10675599 1.285457333e-16)
(0.9177099446 -0.08842152803 -2.261261585e-16)
(1.042286084 -0.07601709224 3.636895499e-16)
(0.9344947074 -0.06944692155 -3.363167733e-16)
(1.052018497 -0.05083836102 4.61076071e-16)
(0.9439789279 -0.05322450967 -3.626251361e-16)
(1.058419997 -0.02986178588 3.452138532e-16)
(0.9474165819 -0.03790470957 -2.850557606e-16)
(1.062018716 -0.01261339739 5.373423522e-16)
(0.9456615272 -0.02171178267 -2.216018517e-16)
(1.063329996 -0.0004445980955 1.878227115e-16)
(0.9400776198 -0.001185210591 8.925127792e-17)
(0.6427433781 -0.7572817787 -9.393237946e-16)
(0.4934713637 -0.6037854857 4.031596856e-16)
(0.8184971781 -0.5335520497 -4.104507754e-16)
(0.6450332396 -0.403462625 4.214987727e-16)
(0.9136490397 -0.3879386694 -6.351186683e-17)
(0.7481528573 -0.2835428617 5.804907935e-17)
(0.9688233557 -0.2868662299 -1.667888963e-16)
(0.8198923716 -0.2080702851 -1.569197286e-17)
(1.002993638 -0.2135974338 -1.577470744e-16)
(0.8699778853 -0.1579217891 -8.926090942e-18)
(1.025384895 -0.1587666889 -3.825996212e-16)
(0.9045760044 -0.1226602518 5.013669676e-16)
(1.040573566 -0.1164953471 -4.009989289e-16)
(0.9277825519 -0.09643053758 5.053428532e-16)
(1.050909242 -0.0828709645 -4.449956078e-16)
(0.9423025673 -0.07570652657 5.295163638e-16)
(1.057684152 -0.05532700342 -4.94686689e-16)
(0.9498419088 -0.05804503446 4.814126301e-16)
(1.061673763 -0.03234746898 -2.06596419e-16)
(0.9513813793 -0.04145935788 7.661680932e-17)
(1.063383468 -0.01337367201 -1.283522779e-16)
(0.9473713229 -0.0240693682 -2.579151832e-16)
(1.063824863 2.607082518e-05 4.324253628e-16)
(0.9371601337 -0.003155402344 -9.025238519e-16)
(0.7307720146 -0.8124702576 9.979058944e-16)
(0.563626077 -0.6477500996 -1.008319362e-15)
(0.880500234 -0.5723832324 1.162143169e-15)
(0.6918929295 -0.4327904279 -7.946522709e-16)
(0.9587290927 -0.4161294769 4.403788151e-16)
(0.7810777059 -0.3041087981 -1.867100456e-16)
(1.002159768 -0.3076695677 2.964391008e-16)
(0.8440516062 -0.223122127 1.278200627e-16)
(1.027816796 -0.2290429459 3.458611104e-16)
(0.8883136121 -0.1693099926 5.755790422e-18)
(1.04383562 -0.1701997861 3.256013372e-16)
(0.9188169045 -0.1314739805 -2.924439484e-16)
(1.054111907 -0.1248323445 1.763878038e-16)
(0.9389808062 -0.1033348515 -4.77149096e-16)
(1.060550005 -0.08874106553 3.066192752e-16)
(0.9511101263 -0.08111326127 -6.963019817e-16)
(1.064164957 -0.0591618155 5.370432298e-16)
(0.9566409854 -0.06218369208 -7.269812465e-16)
(1.065589781 -0.03443361835 4.165851807e-16)
(0.9563254767 -0.04438047267 -3.815465181e-16)
(1.065270712 -0.01386328903 4.778077885e-16)
(0.9503346431 -0.02574535922 -2.068222517e-16)
(1.063866127 0.001841415178 1.836022446e-16)
(0.9366951134 -0.004840147247 2.942669534e-16)
(0.8243981549 -0.8573794653 -5.217697623e-16)
(0.6382323981 -0.6835411281 6.290008456e-16)
(0.946406539 -0.6040078325 -4.801618733e-16)
(0.7416720325 -0.4566607429 1.22406797e-16)
(1.006579797 -0.4390894133 -3.19686656e-17)
(0.8159819508 -0.320834761 -2.187162925e-16)
(1.037468181 -0.3246061603 -1.948098817e-16)
(0.8695814898 -0.2353427351 -4.074303063e-16)
(1.054020618 -0.2416033129 -3.345350175e-16)
(0.9075993618 -0.1785287473 -1.950766675e-16)
(1.063211085 -0.1794779512 -3.508499198e-16)
(0.9336955956 -0.1385800884 4.395447267e-16)
(1.068208022 -0.1315802861 -4.187034116e-16)
(0.9505699549 -0.1088844298 7.373200411e-16)
(1.070439405 -0.09348894426 -3.598638393e-16)
(0.9601097779 -0.08547986597 8.644045611e-16)
(1.070625692 -0.06229299982 -5.275607991e-16)
(0.9634882044 -0.06563172721 7.715459754e-16)
(1.069253312 -0.03621916016 -3.145073235e-16)
(0.9612494851 -0.04706234004 1.701562933e-16)
(1.066691071 -0.01440589416 -6.861701464e-17)
(0.9533178974 -0.02764354766 -4.206570605e-16)
(1.06285398 0.003611672645 3.833199738e-16)
(0.9373149033 -0.005823138451 -7.35561951e-16)
(0.9224978345 -0.8916057208 3.977162084e-16)
(0.7164076221 -0.7107836537 -5.051574962e-16)
(1.015498522 -0.6280622561 4.98408145e-16)
(0.7938901875 -0.4748135588 -2.508919781e-16)
(1.056816539 -0.4565300492 2.226409922e-16)
(0.8526756474 -0.3335413729 2.076561917e-16)
(1.074623662 -0.3374506851 1.598144177e-16)
(0.8965128077 -0.2446167349 5.368284396e-16)
(1.081695161 -0.2511089432 3.346240924e-16)
(0.9280470897 -0.1855163214 2.309888623e-16)
(1.083786946 -0.186477481 1.626639207e-16)
(0.9495821692 -0.1439564531 -2.363184632e-16)
(1.083299855 -0.1366436835 2.890795076e-16)
(0.9630571035 -0.113068208 -5.654932286e-16)
(1.081147955 -0.09701834906 2.516324641e-16)
(0.9699061157 -0.08875021713 -8.552574017e-16)
(1.077710453 -0.06459119674 3.393855892e-16)
(0.9709996962 -0.06818876291 -5.419537563e-16)
(1.073258389 -0.03753945729 1.762680953e-16)
(0.9666302906 -0.04902237961 -3.541087289e-16)
(1.068011774 -0.01493266126 3.835946965e-16)
(0.9564986565 -0.02895118236 -1.348085637e-16)
(1.061227251 0.004524575979 2.23767129e-16)
(0.9388181689 -0.006171060494 1.276800773e-16)
(1.023772353 -0.9145524621 -9.896543415e-17)
(0.7971254525 -0.7290926054 3.523950691e-17)
(1.086801588 -0.6442465093 2.222618507e-17)
(0.8477487385 -0.487027887 -2.051965272e-16)
(1.108586866 -0.4682850635 -3.297350939e-17)
(0.8904402663 -0.3420978945 -8.67349556e-17)
(1.112824237 -0.3461205221 -2.097287961e-16)
(0.924135082 -0.2508612528 -4.265515514e-16)
(1.110044624 -0.2575307385 -2.091464262e-16)
(0.9489136682 -0.1902132473 -7.552071522e-17)
(1.104746259 -0.1912061177 -2.580167032e-16)
(0.9656788819 -0.1475562428 4.00570705e-16)
(1.098539053 -0.1400619143 -6.449841151e-16)
(0.9755871083 -0.1158545393 8.63200032e-16)
(1.091809848 -0.0994046433 -5.845460684e-16)
(0.9796112611 -0.09092293882 8.851470295e-16)
(1.08459037 -0.06617007297 -3.550240034e-16)
(0.9783186816 -0.06990652723 4.562819624e-16)
(1.076940138 -0.03851391934 7.989871887e-18)
(0.9717623942 -0.05039201715 5.089305386e-17)
(1.0689804 -0.01545468889 -1.854748546e-17)
(0.9594673003 -0.02991566592 -1.305160197e-16)
(1.059670332 0.004719200583 1.288679295e-16)
(0.9404275005 -0.0060049617 -4.228197175e-16)
(1.12702722 -0.926100017 4.40962466e-17)
(0.8793984978 -0.7382453209 -1.607239929e-18)
(1.159516256 -0.6523147798 -8.216376239e-17)
(0.902703094 -0.4930928156 7.727734966e-17)
(1.16145814 -0.4740975036 9.001620465e-17)
(0.9290586045 -0.3463051084 -1.204812792e-16)
(1.151932351 -0.3503584011 2.468576081e-16)
(0.9524845454 -0.2538886635 1.193838224e-16)
(1.139181054 -0.2606148793 1.907307793e-16)
(0.9704466125 -0.1924436605 -1.145004561e-16)
(1.126418026 -0.1934127636 3.361116699e-16)
(0.9824159486 -0.149212558 -3.795390341e-16)
(1.114438868 -0.1415809024 4.791961152e-16)
(0.9887392481 -0.1170757598 -5.723209368e-16)
(1.103076942 -0.1003792339 4.508137375e-16)
(0.9898975686 -0.09181087468 -5.514195292e-16)
(1.091987829 -0.06673539642 1.794838149e-16)
(0.9861255902 -0.07055635749 -1.74413253e-16)
(1.08100174 -0.03883691678 -1.183129055e-16)
(0.9772418973 -0.05090266559 6.622950048e-17)
(1.07018502 -0.01575031078 2.54998796e-17)
(0.962679886 -0.03031658529 4.167671751e-18)
(1.058689079 0.00409488552 8.319735585e-17)
(0.9421414113 -0.005407314993 1.309083426e-17)
(1.230874275 -0.9259325666 1.310600629e-17)
(0.962190113 -0.7381535415 -5.971784267e-17)
(1.232651166 -0.6522469016 -5.768603482e-17)
(0.9579516338 -0.4930394315 1.858919184e-16)
(1.214563529 -0.4740607013 -8.319325162e-17)
(0.9678020469 -0.3462672469 2.499035095e-16)
(1.19112211 -0.3503331561 -2.228358899e-16)
(0.9808280728 -0.2538521676 1.986871748e-16)
(1.168269797 -0.2605864692 -9.747721296e-17)
(0.9918645868 -0.192394651 1.382230494e-16)
(1.14793072 -0.1933664051 -3.784785254e-16)
(0.998943805 -0.1491354275 2.976202851e-16)
(1.130088218 -0.1415013513 -2.829166177e-16)
(1.001603593 -0.1169548777 3.047341118e-16)
(1.114032129 -0.1002562584 -4.199149619e-16)
(0.9998388621 -0.09163824698 3.764873013e-16)
(1.099060692 -0.06658012446 -2.046429472e-16)
(0.993556191 -0.07034837419 7.972088027e-17)
(1.084807189 -0.03871265218 2.446406113e-17)
(0.9823470261 -0.05073203533 -1.088877668e-16)
(1.071351273 -0.01582036588 -2.585098427e-17)
(0.9655563094 -0.03030810143 4.973358013e-17)
(1.058507039 0.003080024685 -2.151039976e-16)
(0.9430924378 -0.00489346326 2.61315538e-16)
(1.334111226 -0.9142222927 -1.347936068e-16)
(1.044431453 -0.7287565475 2.354386484e-16)
(1.305338417 -0.6439226244 -1.747953171e-16)
(1.012880155 -0.4867115047 -1.771766526e-16)
(1.26741177 -0.4679527692 4.714746466e-17)
(1.006400919 -0.341764562 -3.691692168e-16)
(1.230214557 -0.3457525407 2.095373285e-16)
(1.009166763 -0.250483094 -4.651594302e-16)
(1.197401638 -0.2570959169 2.538665134e-17)
(1.013399264 -0.1897592877 -3.315485884e-16)
(1.169614106 -0.1906692065 4.576690342e-16)
(1.015698843 -0.1469921327 -3.211041637e-16)
(1.146021819 -0.1393892957 3.269495216e-16)
(1.01479022 -0.1151517372 -2.599066581e-16)
(1.125361251 -0.09858324827 3.49486386e-16)
(1.010167001 -0.09008307893 -7.881106298e-17)
(1.106558354 -0.06525373107 9.774903466e-17)
(1.001389715 -0.06900840056 1.445875197e-16)
(1.089040462 -0.03770923415 -1.105870273e-16)
(0.9878283327 -0.0496745901 2.555736308e-16)
(1.072913594 -0.01525387689 -1.018813743e-16)
(0.9687741716 -0.02975123769 6.964764584e-17)
(1.058908181 0.002287992478 5.069644515e-17)
(0.9439066822 -0.004640071339 -2.1995825e-16)
(1.435325826 -0.8909474183 9.093316167e-17)
(1.125154404 -0.7102652061 -1.916401146e-16)
(1.376647036 -0.6276026369 1.314479331e-16)
(1.066758147 -0.4743904817 1.519138432e-16)
(1.31919961 -0.4561252135 -6.372895538e-18)
(1.044191635 -0.3331352927 3.50093916e-16)
(1.268440321 -0.3370375492 -6.379749045e-17)
(1.036824294 -0.2441746065 4.658301179e-16)
(1.225786139 -0.2506299641 4.556893484e-17)
(1.034313839 -0.1849833202 3.959304221e-16)
(1.190622432 -0.1858702154 -2.490915126e-16)
(1.031857958 -0.1432716573 1.379353308e-16)
(1.161329304 -0.1358421947 -1.740385121e-16)
(1.027391889 -0.1121760444 1.362735774e-16)
(1.13611813 -0.09597334771 -3.591000017e-16)
(1.019931318 -0.08763690973 -2.738143949e-17)
(1.113578711 -0.06332806302 -9.271214432e-17)
(1.008706248 -0.06695882667 -2.405518734e-16)
(1.092974369 -0.03627572954 1.344897156e-16)
(0.9928467725 -0.04803224605 -2.155694873e-16)
(1.074470783 -0.01427205849 3.649441686e-17)
(0.9714879003 -0.02879894541 1.242153657e-16)
(1.059789769 0.0020218224 -2.633568565e-16)
(0.943608485 -0.004980418177 5.400962528e-16)
(1.533373081 -0.856566296 -2.111734495e-16)
(1.203234879 -0.682789991 4.193937398e-16)
(1.445656177 -0.6033034568 -3.500805725e-16)
(1.118897897 -0.455988691 4.370555398e-17)
(1.369365562 -0.4384060463 -3.25241267e-17)
(1.080824635 -0.3201529643 -3.871981559e-16)
(1.305545154 -0.3238742467 1.406780918e-16)
(1.063718676 -0.2345861493 -5.221759354e-16)
(1.253439806 -0.2407498007 9.077808496e-17)
(1.054759528 -0.1776280374 -5.285553709e-16)
(1.211220552 -0.1784190669 3.327778391e-16)
(1.047791045 -0.1374595 -2.844208836e-16)
(1.176501303 -0.1302236569 2.822810128e-16)
(1.03998437 -0.1074798846 -3.013622055e-16)
(1.146975007 -0.09175328123 5.283408285e-16)
(1.029886845 -0.08378897712 -6.514826654e-17)
(1.120880918 -0.06016726607 2.048206199e-16)
(1.016397966 -0.06381555559 1.242648958e-16)
(1.097272515 -0.03389462967 -6.556613173e-17)
(0.9983991504 -0.04560933088 1.607442808e-16)
(1.07626985 -0.01251668077 -1.85092783e-16)
(0.9748362177 -0.02739716158 6.68521159e-17)
(1.060199099 0.002720610576 -1.530684137e-16)
(0.9439787156 -0.005907171261 -9.017153122e-17)
(1.626881253 -0.8113488172 2.757504453e-16)
(1.277848046 -0.6468205215 -3.702528802e-16)
(1.511569052 -0.5715436126 4.584637018e-16)
(1.168710395 -0.4320119334 -1.907319421e-16)
(1.41724631 -0.4153760981 8.722619631e-17)
(1.115775772 -0.3033615975 1.560713927e-16)
(1.340899048 -0.3069059574 -1.228672836e-17)
(1.089314423 -0.2223243712 3.713448852e-16)
(1.279708079 -0.2281786703 -1.531997718e-16)
(1.074138395 -0.168379006 4.588482117e-16)
(1.230685235 -0.1691332374 -1.663585701e-16)
(1.062797967 -0.1303203002 2.635682593e-17)
(1.19071571 -0.1234430402 -1.512239228e-18)
(1.051739858 -0.1018799337 1.110112408e-16)
(1.157009143 -0.08689419405 -3.325586671e-16)
(1.039076109 -0.07934472855 4.106072663e-17)
(1.127495393 -0.05674142709 -1.321395757e-16)
(1.02339458 -0.06027627795 -1.917834547e-16)
(1.101065372 -0.03144366278 9.978062444e-17)
(1.003278949 -0.04289174268 -1.025203173e-16)
(1.077816574 -0.01065612372 1.169210873e-16)
(0.9773077977 -0.02576268861 8.451232985e-17)
(1.060271165 0.004116653275 -8.606896476e-19)
(0.94316945 -0.007420364782 1.576836749e-16)
(1.714827337 -0.7560197466 -3.918598081e-16)
(1.347846742 -0.6026464676 3.629012886e-16)
(1.573432945 -0.5324907093 -4.444130826e-16)
(1.215437407 -0.4024635647 2.953527692e-16)
(1.462204013 -0.3869408814 -1.774805035e-16)
(1.148593154 -0.2825590785 -2.961354146e-17)
(1.374140961 -0.2858316353 7.075891638e-17)
(1.11339824 -0.2070110856 -3.615701373e-16)
(1.304475977 -0.2124232799 1.993957882e-16)
(1.09244652 -0.1566945769 -3.371631934e-16)
(1.249136077 -0.1573334513 1.231073795e-16)
(1.077083822 -0.1211670801 -8.810283604e-17)
(1.204326081 -0.114656038 1.067569454e-16)
(1.063088871 -0.09458983318 -1.889422391e-16)
(1.16679523 -0.08044400625 2.390897423e-16)
(1.048178723 -0.07351103927 -3.042943386e-17)
(1.13414452 -0.05210165863 7.82056794e-17)
(1.030664235 -0.05567918514 1.277142163e-16)
(1.105002592 -0.02814433718 -1.276729336e-16)
(1.008845662 -0.03947733063 1.212692256e-16)
(1.079205397 -0.00827396895 -2.09683034e-16)
(0.9808977569 -0.02372291699 5.75730614e-17)
(1.058518938 0.006156624818 -1.468320359e-16)
(0.9444938324 -0.008932973177 -3.1018795e-17)
(1.795939999 -0.6911245864 2.683871611e-16)
(1.412611834 -0.5509952354 -2.383727908e-16)
(1.630647192 -0.4868757735 2.083596482e-16)
(1.258688936 -0.3680247697 -1.81290189e-16)
(1.503779432 -0.3538546424 1.355204091e-16)
(1.178955028 -0.2584386482 -7.635640557e-17)
(1.404853672 -0.2614529848 -2.017201183e-17)
(1.135652892 -0.1894033416 2.452420493e-16)
(1.327314804 -0.1943741697 -2.204206115e-16)
(1.109323613 -0.1434350773 2.465723578e-16)
(1.26608325 -0.1440383369 -4.038460412e-17)
(1.090192601 -0.1109832324 -4.687805285e-17)
(1.216727463 -0.105032627 4.644081863e-17)
(1.073413906 -0.08670051651 5.306850786e-17)
(1.175568726 -0.07371716677 -4.538610111e-17)
(1.056330899 -0.06741661261 -5.310631169e-17)
(1.139922025 -0.04765692653 6.457464155e-17)
(1.036970602 -0.05105911691 -1.031899547e-16)
(1.108233009 -0.0253917203 1.043950555e-16)
(1.013265867 -0.03614972023 -7.555499582e-17)
(1.080188012 -0.00654990156 1.612657275e-16)
(0.982827551 -0.02174075071 4.427557994e-17)
(1.056363861 0.008046849623 8.916535456e-17)
(0.9440154714 -0.01049965523 1.086781287e-16)
(1.869378969 -0.6176201068 -1.280149547e-16)
(1.471013725 -0.4923406147 2.647717732e-16)
(1.682257852 -0.4350324524 -1.538833667e-16)
(1.297651997 -0.3288186097 1.623239357e-16)
(1.541265804 -0.3161388767 -1.19955813e-16)
(1.206299755 -0.2308705238 1.185385867e-16)
(1.432552395 -0.2335396515 1.134212216e-17)
(1.155699945 -0.169150276 -1.248110907e-16)
(1.347932223 -0.1735575343 2.262344896e-16)
(1.124544087 -0.1280324876 -2.124019123e-16)
(1.281421862 -0.1285209307 1.163325859e-16)
(1.102059913 -0.09898391199 -2.964391275e-17)
(1.228025461 -0.09358758716 -4.502456512e-17)
(1.082861337 -0.07723286538 -2.287799352e-17)
(1.183679948 -0.06549521719 -2.646362e-17)
(1.063996813 -0.05996069527 6.134137906e-17)
(1.145403773 -0.04204656208 -1.168032395e-16)
(1.043317214 -0.04533375194 8.217428129e-17)
(1.111337987 -0.02189785656 -9.283780144e-17)
(1.018532461 -0.03202317234 4.338428502e-17)
(1.080714304 -0.004684350465 -1.169877516e-16)
(0.9867806941 -0.01917256945 -4.332813963e-17)
(1.051929952 0.009404668888 -5.70134832e-17)
(0.9474527696 -0.0107690675 -1.094411751e-16)
(1.934026895 -0.5362989901 -1.783686624e-17)
(1.522682521 -0.4275903642 -1.960661146e-16)
(1.727902608 -0.3778418206 -1.901678826e-17)
(1.332171299 -0.2856349891 -5.51449382e-17)
(1.57444843 -0.2746439376 -8.253276206e-18)
(1.230546226 -0.2006168544 -7.498955546e-17)
(1.457080151 -0.2029570777 1.253596434e-17)
(1.173491932 -0.1470602467 2.353059768e-17)
(1.366190765 -0.1509145063 -1.577933881e-16)
(1.138063069 -0.1114016673 8.93263176e-17)
(1.294991833 -0.11186021 -4.089419745e-17)
(1.11259188 -0.08623512849 -2.143712873e-17)
(1.237971978 -0.08159224314 1.035952889e-16)
(1.091188169 -0.06742040565 -4.348409313e-17)
(1.190711546 -0.05727644788 7.087981338e-17)
(1.070586587 -0.05251279916 -4.005687538e-17)
(1.149979316 -0.03698932 6.632442403e-17)
(1.048369966 -0.03991726701 -2.440849601e-17)
(1.113744378 -0.01949809148 2.269464905e-17)
(1.021843375 -0.02843886014 3.12293618e-17)
(1.081057344 -0.004279750903 -4.634542108e-18)
(0.9875740998 -0.01724788732 1.455235105e-16)
(1.048355316 0.009430323479 -6.195082281e-17)
(0.9468096467 -0.01070944223 1.928822479e-16)
(1.989278898 -0.4483024288 6.175538534e-17)
(1.566555878 -0.3574004927 2.366206437e-16)
(1.766668864 -0.3158140894 1.26397222e-17)
(1.36141238 -0.2387452944 9.454568316e-17)
(1.602580024 -0.2295493187 1.454065892e-17)
(1.25104158 -0.1676776165 7.817620603e-17)
(1.477840789 -0.1696195409 -4.095690768e-18)
(1.188486149 -0.1228999726 -2.461149197e-17)
(1.381611088 -0.1261023088 1.46494466e-16)
(1.149408036 -0.09307606257 -9.025271693e-17)
(1.306421182 -0.09343497148 1.06373051e-16)
(1.121390069 -0.07201816456 -5.475274721e-17)
(1.24633435 -0.0681085279 -1.059175472e-17)
(1.098142164 -0.05627029324 -2.005995645e-17)
(1.196636225 -0.04776040427 -3.22965617e-17)
(1.076201894 -0.0437933012 3.220895922e-17)
(1.153852131 -0.03079198839 -4.573243872e-17)
(1.053097676 -0.03324110819 1.700003764e-17)
(1.115680104 -0.01617647757 -2.76996983e-17)
(1.026149511 -0.0235261842 -6.714172528e-18)
(1.080793279 -0.003433698729 -2.021442854e-17)
(0.9918478462 -0.01374800268 -7.688886512e-17)
(1.043610598 0.008563966759 2.804720167e-17)
(0.9527401604 -0.007568051014 -9.617823502e-17)
(2.03421686 -0.3546314601 -7.275051575e-17)
(1.602533767 -0.2827923914 -1.82609335e-16)
(1.798450136 -0.2499092857 -5.907766806e-17)
(1.385462177 -0.1889737802 -6.197372108e-17)
(1.625698346 -0.1817149058 -1.915873155e-17)
(1.267947041 -0.1327928925 -8.237277362e-17)
(1.494942584 -0.1343462187 6.412792692e-18)
(1.200908031 -0.09740937025 -1.69031006e-17)
(1.394358019 -0.09996524199 -6.037197726e-17)
(1.158866737 -0.07386318684 9.815669126e-18)
(1.315913234 -0.07418293363 -4.278838315e-17)
(1.128777498 -0.05726824855 8.157640643e-19)
(1.253308374 -0.05423990342 4.140563694e-17)
(1.103985799 -0.0449028259 -3.262624687e-17)
(1.20157891 -0.03829841558 6.219603614e-17)
(1.080779044 -0.03517621051 -3.770038446e-17)
(1.157095948 -0.02515763298 2.057334499e-17)
(1.056435482 -0.02707130979 1.131400485e-17)
(1.117512866 -0.01411250262 -2.42431604e-19)
(1.027909353 -0.01980893227 3.836954547e-17)
(1.081469723 -0.004804715619 -2.351794837e-17)
(0.9912811369 -0.01258189527 9.010614755e-17)
(1.042097546 0.00450048086 -5.993836061e-17)
(0.9487069233 -0.006173110923 9.676136669e-17)
(2.068512434 -0.2565528913 9.170835006e-17)
(1.629677916 -0.2045910851 1.425526137e-16)
(1.822428712 -0.1808134864 4.790536494e-17)
(1.403516227 -0.1367590967 7.283446913e-17)
(1.643067795 -0.1315108954 2.237723161e-17)
(1.280569024 -0.09614338602 5.789056121e-17)
(1.50772993 -0.09726607815 2.260632557e-17)
(1.210102633 -0.0705649303 -3.878780008e-18)
(1.403815455 -0.07241358691 6.939715421e-17)
(1.165770334 -0.05354836802 -3.722796249e-17)
(1.322867136 -0.05378670549 7.076416761e-17)
(1.134056715 -0.04156492693 -3.240647696e-17)
(1.258317224 -0.0394008186 5.536395945e-18)
(1.108050666 -0.03264755198 -3.437091736e-19)
(1.205002477 -0.02794170942 -1.569787326e-17)
(1.083904873 -0.02563080588 6.862320612e-18)
(1.159090238 -0.01855536731 -1.361541245e-17)
(1.058867319 -0.01970856912 -6.492829948e-18)
(1.11795649 -0.01073141783 -5.831789722e-18)
(1.030057106 -0.01411524057 -1.96025405e-17)
(1.080110136 -0.004202348438 -2.125112658e-19)
(0.9943195123 -0.00783016863 -4.854161558e-17)
(1.039447211 0.001722827804 3.272879915e-17)
(0.9591536062 0.002071755204 -7.249182661e-17)
(2.091482453 -0.1552283949 -8.416491086e-17)
(1.648155514 -0.1238633401 -9.108967107e-17)
(1.838746243 -0.1094963057 -7.635210504e-17)
(1.415882486 -0.08289053435 -4.614144226e-17)
(1.654952261 -0.07972783181 -3.095979181e-17)
(1.289272669 -0.05836603307 -4.857169012e-17)
(1.516532115 -0.05905390354 -8.484409149e-18)
(1.216510523 -0.04293006352 -2.781707789e-17)
(1.410387312 -0.04405892852 -1.823079255e-17)
(1.170662059 -0.03267466665 -1.156621378e-17)
(1.327771983 -0.03283992445 -1.576331782e-17)
(1.137882776 -0.02547339244 -7.990899268e-18)
(1.261933426 -0.0242127477 1.791857162e-17)
(1.111061857 -0.02014071308 -1.826661568e-17)
(1.207601817 -0.01740852236 2.704406975e-17)
(1.086201301 -0.01596293155 -1.072371059e-17)
(1.160961936 -0.01195472874 1.025320389e-17)
(1.060384506 -0.0124016378 5.430536161e-18)
(1.119627536 -0.007600641483 4.762590428e-18)
(1.03047847 -0.008834454104 1.465171118e-17)