/*--------------------------------*- C++ -*----------------------------------*\
| =========                 |                                                 |
| \\      /  F ield         | OpenFOAM: The Open Source CFD Toolbox           |
|  \\    /   O peration     | Version:  2.2.0                                 |
|   \\  /    A nd           | Web:      www.OpenFOAM.org                      |
|    \\/     M anipulation  |                                                 |
\*---------------------------------------------------------------------------*/
FoamFile
{
    version     2.0;
    format      ascii;
    class       volVectorField;
    location    "3.2";
    object      s;
}
// * * * * * * * * * * * * * * * * * * * * * * * * * * * * * * * * * * * * * //

dimensions      [0 1 -1 0 0 0 0];

internalField   nonuniform List<vector> 
1600
(
(1.77061 0.0695694 0)
(1.50413 0.0590981 0)
(1.30568 0.0513003 0)
(1.15358 0.0453244 0)
(1.03307 0.0405895 0)
(0.935292 0.0367477 0)
(0.854377 0.0335685 0)
(0.786317 0.0308945 0)
(0.728278 0.0286141 0)
(0.678203 0.0266466 0)
(0.634559 0.0249319 0)
(0.596183 0.0234241 0)
(0.562178 0.022088 0)
(0.531837 0.020896 0)
(0.5046 0.0198258 0)
(0.480015 0.0188599 0)
(0.45771 0.0179835 0)
(0.437408 0.0171858 0)
(0.418729 0.0164519 0)
(0.401852 0.0157888 0)
(1.75969 0.208277 0)
(1.49486 0.17693 0)
(1.29763 0.153585 0)
(1.14647 0.135694 0)
(1.0267 0.121518 0)
(0.929526 0.110017 0)
(0.849109 0.100499 0)
(0.781469 0.0924929 0)
(0.723788 0.085666 0)
(0.674021 0.0797757 0)
(0.630646 0.0746419 0)
(0.592507 0.0701279 0)
(0.558712 0.0661279 0)
(0.528558 0.062559 0)
(0.501489 0.0593552 0)
(0.477056 0.0564633 0)
(0.454888 0.0538395 0)
(0.434711 0.0514515 0)
(0.416147 0.0492543 0)
(0.399375 0.0472691 0)
(1.73792 0.345699 0)
(1.47637 0.29367 0)
(1.28158 0.254922 0)
(1.13229 0.225227 0)
(1.014 0.201698 0)
(0.918028 0.182607 0)
(0.838607 0.166809 0)
(0.771803 0.153521 0)
(0.714836 0.14219 0)
(0.665684 0.132413 0)
(0.622846 0.123892 0)
(0.585179 0.116399 0)
(0.551801 0.10976 0)
(0.522021 0.103836 0)
(0.495287 0.0985186 0)
(0.471155 0.0937186 0)
(0.449262 0.0893637 0)
(0.429334 0.0853999 0)
(0.411 0.081753 0)
(0.394435 0.078458 0)
(1.70544 0.480988 0)
(1.44878 0.4086 0)
(1.25762 0.354688 0)
(1.11113 0.313371 0)
(0.995053 0.280634 0)
(0.900871 0.254072 0)
(0.822934 0.232091 0)
(0.757379 0.213603 0)
(0.701476 0.197837 0)
(0.653243 0.184234 0)
(0.611206 0.172378 0)
(0.574242 0.161953 0)
(0.541488 0.152715 0)
(0.512265 0.144473 0)
(0.48603 0.137075 0)
(0.46235 0.130396 0)
(0.440865 0.124337 0)
(0.42131 0.118822 0)
(0.403319 0.113748 0)
(0.387063 0.109163 0)
(1.66244 0.613312 0)
(1.41225 0.52101 0)
(1.22592 0.452266 0)
(1.08311 0.399583 0)
(0.969967 0.35784 0)
(0.87816 0.32397 0)
(0.802187 0.295943 0)
(0.738285 0.272368 0)
(0.683792 0.252264 0)
(0.636775 0.234919 0)
(0.595797 0.219801 0)
(0.559765 0.206508 0)
(0.527837 0.194729 0)
(0.49935 0.18422 0)
(0.473777 0.174786 0)
(0.450694 0.16627 0)
(0.429751 0.158543 0)
(0.410689 0.151511 0)
(0.393151 0.145041 0)
(0.377305 0.139195 0)
(1.6092 0.741854 0)
(1.36702 0.630207 0)
(1.18666 0.547056 0)
(1.04842 0.483331 0)
(0.938901 0.43284 0)
(0.850034 0.391871 0)
(0.776495 0.357969 0)
(0.714639 0.329453 0)
(0.661891 0.305136 0)
(0.61638 0.284155 0)
(0.576715 0.265869 0)
(0.541837 0.24979 0)
(0.510932 0.235543 0)
(0.483357 0.222831 0)
(0.458603 0.211419 0)
(0.436259 0.201118 0)
(0.415987 0.191773 0)
(0.397536 0.183266 0)
(0.380559 0.17544 0)
(0.365221 0.168369 0)
(1.54603 0.865823 0)
(1.31336 0.735519 0)
(1.14008 0.638474 0)
(1.00727 0.564099 0)
(0.902047 0.505171 0)
(0.816668 0.457356 0)
(0.746016 0.417789 0)
(0.686588 0.384507 0)
(0.63591 0.356127 0)
(0.592186 0.33164 0)
(0.554077 0.310298 0)
(0.520569 0.291532 0)
(0.490876 0.274904 0)
(0.464384 0.260067 0)
(0.440602 0.246749 0)
(0.419135 0.234727 0)
(0.399658 0.223819 0)
(0.381931 0.213892 0)
(0.365621 0.204758 0)
(0.350885 0.196505 0)
(1.47333 0.984453 0)
(1.2516 0.836297 0)
(1.08647 0.725955 0)
(0.959908 0.64139 0)
(0.859631 0.574387 0)
(0.778267 0.520021 0)
(0.710937 0.475032 0)
(0.654303 0.437191 0)
(0.606009 0.404922 0)
(0.56434 0.37708 0)
(0.528023 0.352814 0)
(0.496091 0.331477 0)
(0.467795 0.31257 0)
(0.442548 0.295701 0)
(0.419884 0.280557 0)
(0.399426 0.266888 0)
(0.380866 0.254486 0)
(0.363972 0.243198 0)
(0.348429 0.232813 0)
(0.334386 0.223429 0)
(1.39155 1.09701 0)
(1.18213 0.931918 0)
(1.02616 0.80896 0)
(0.906626 0.714726 0)
(0.811915 0.640062 0)
(0.735067 0.57948 0)
(0.671474 0.529348 0)
(0.617984 0.487179 0)
(0.572371 0.45122 0)
(0.533015 0.420195 0)
(0.498714 0.393154 0)
(0.468554 0.369378 0)
(0.441828 0.348309 0)
(0.417983 0.329511 0)
(0.396577 0.312636 0)
(0.377255 0.297404 0)
(0.359725 0.283584 0)
(0.343769 0.271005 0)
(0.329089 0.259432 0)
(0.315825 0.248976 0)
(1.30119 1.20281 0)
(1.10537 1.02179 0)
(0.959527 0.886977 0)
(0.847754 0.783656 0)
(0.759194 0.701791 0)
(0.687336 0.635367 0)
(0.627872 0.580399 0)
(0.577856 0.534164 0)
(0.535204 0.494737 0)
(0.498404 0.46072 0)
(0.46633 0.431071 0)
(0.438129 0.405002 0)
(0.413138 0.381901 0)
(0.390842 0.36129 0)
(0.370825 0.342787 0)
(0.352758 0.326086 0)
(0.336366 0.310933 0)
(0.321446 0.297142 0)
(0.307719 0.284453 0)
(0.295317 0.272988 0)
(1.20281 1.30119 0)
(1.02179 1.10537 0)
(0.886977 0.959526 0)
(0.783656 0.847754 0)
(0.701791 0.759193 0)
(0.635367 0.687336 0)
(0.580399 0.627872 0)
(0.534164 0.577855 0)
(0.494737 0.535203 0)
(0.46072 0.498404 0)
(0.431071 0.46633 0)
(0.405002 0.438128 0)
(0.381901 0.413138 0)
(0.36129 0.390841 0)
(0.342788 0.370825 0)
(0.326086 0.352758 0)
(0.310934 0.336366 0)
(0.297142 0.321446 0)
(0.284453 0.307719 0)
(0.272988 0.295317 0)
(1.09701 1.39155 0)
(0.931918 1.18213 0)
(0.80896 1.02616 0)
(0.714726 0.906625 0)
(0.640062 0.811915 0)
(0.579481 0.735067 0)
(0.529348 0.671474 0)
(0.48718 0.617984 0)
(0.451221 0.57237 0)
(0.420195 0.533015 0)
(0.393155 0.498714 0)
(0.369378 0.468554 0)
(0.34831 0.441828 0)
(0.329511 0.417983 0)
(0.312636 0.396577 0)
(0.297404 0.377255 0)
(0.283584 0.359725 0)
(0.271006 0.343769 0)
(0.259432 0.329088 0)
(0.248976 0.315825 0)
(0.984453 1.47333 0)
(0.836297 1.2516 0)
(0.725955 1.08647 0)
(0.64139 0.959907 0)
(0.574387 0.859631 0)
(0.520022 0.778267 0)
(0.475033 0.710936 0)
(0.437191 0.654303 0)
(0.404922 0.606008 0)
(0.37708 0.56434 0)
(0.352814 0.528023 0)
(0.331477 0.49609 0)
(0.31257 0.467794 0)
(0.295701 0.442547 0)
(0.280557 0.419883 0)
(0.266888 0.399426 0)
(0.254486 0.380865 0)
(0.243198 0.363972 0)
(0.232813 0.348429 0)
(0.223429 0.334386 0)
(0.865823 1.54603 0)
(0.73552 1.31336 0)
(0.638474 1.14008 0)
(0.5641 1.00727 0)
(0.505171 0.902047 0)
(0.457357 0.816668 0)
(0.417789 0.746015 0)
(0.384508 0.686587 0)
(0.356127 0.63591 0)
(0.33164 0.592185 0)
(0.310298 0.554077 0)
(0.291533 0.520568 0)
(0.274904 0.490876 0)
(0.260068 0.464384 0)
(0.246749 0.440601 0)
(0.234727 0.419134 0)
(0.223819 0.399658 0)
(0.213892 0.381931 0)
(0.204758 0.365621 0)
(0.196505 0.350885 0)
(0.741855 1.6092 0)
(0.630207 1.36702 0)
(0.547057 1.18666 0)
(0.483331 1.04842 0)
(0.43284 0.938901 0)
(0.391872 0.850034 0)
(0.35797 0.776495 0)
(0.329453 0.714639 0)
(0.305136 0.661891 0)
(0.284156 0.61638 0)
(0.265869 0.576714 0)
(0.249791 0.541837 0)
(0.235543 0.510932 0)
(0.222831 0.483357 0)
(0.211419 0.458603 0)
(0.201118 0.436259 0)
(0.191773 0.415987 0)
(0.183266 0.397535 0)
(0.17544 0.380559 0)
(0.168369 0.365221 0)
(0.613312 1.66244 0)
(0.52101 1.41225 0)
(0.452267 1.22592 0)
(0.399583 1.08311 0)
(0.35784 0.969967 0)
(0.323971 0.87816 0)
(0.295943 0.802187 0)
(0.272368 0.738284 0)
(0.252264 0.683791 0)
(0.234919 0.636775 0)
(0.219801 0.595796 0)
(0.206509 0.559765 0)
(0.19473 0.527837 0)
(0.18422 0.49935 0)
(0.174786 0.473777 0)
(0.16627 0.450693 0)
(0.158543 0.429751 0)
(0.151511 0.410689 0)
(0.145041 0.393151 0)
(0.139195 0.377305 0)
(0.480988 1.70544 0)
(0.4086 1.44878 0)
(0.354688 1.25762 0)
(0.313371 1.11113 0)
(0.280635 0.995053 0)
(0.254072 0.900871 0)
(0.232092 0.822934 0)
(0.213603 0.757378 0)
(0.197837 0.701476 0)
(0.184234 0.653243 0)
(0.172378 0.611205 0)
(0.161953 0.574242 0)
(0.152716 0.541488 0)
(0.144474 0.512264 0)
(0.137075 0.48603 0)
(0.130396 0.462349 0)
(0.124337 0.440865 0)
(0.118822 0.42131 0)
(0.113748 0.403319 0)
(0.109163 0.387063 0)
(0.345699 1.73792 0)
(0.29367 1.47637 0)
(0.254922 1.28158 0)
(0.225227 1.13229 0)
(0.201698 1.014 0)
(0.182608 0.918028 0)
(0.16681 0.838607 0)
(0.153521 0.771803 0)
(0.14219 0.714835 0)
(0.132413 0.665684 0)
(0.123892 0.622846 0)
(0.116399 0.585178 0)
(0.10976 0.551801 0)
(0.103836 0.52202 0)
(0.0985187 0.495286 0)
(0.0937187 0.471155 0)
(0.0893637 0.449261 0)
(0.0853999 0.429334 0)
(0.081753 0.411 0)
(0.078458 0.394435 0)
(0.208277 1.75969 0)
(0.17693 1.49486 0)
(0.153585 1.29763 0)
(0.135694 1.14647 0)
(0.121519 1.0267 0)
(0.110017 0.929525 0)
(0.100499 0.849109 0)
(0.0924932 0.781469 0)
(0.0856663 0.723788 0)
(0.079776 0.674021 0)
(0.0746421 0.630646 0)
(0.0701281 0.592507 0)
(0.0661281 0.558711 0)
(0.0625592 0.528558 0)
(0.0593553 0.501489 0)
(0.0564634 0.477056 0)
(0.0538396 0.454888 0)
(0.0514515 0.434711 0)
(0.0492543 0.416147 0)
(0.0472691 0.399375 0)
(0.0695695 1.77061 0)
(0.0590982 1.50413 0)
(0.0513005 1.30568 0)
(0.0453247 1.15358 0)
(0.0405898 1.03307 0)
(0.036748 0.935292 0)
(0.0335688 0.854377 0)
(0.0308947 0.786316 0)
(0.0286144 0.728278 0)
(0.0266469 0.678202 0)
(0.0249321 0.634558 0)
(0.0234243 0.596183 0)
(0.0220882 0.562177 0)
(0.0208961 0.531837 0)
(0.019826 0.5046 0)
(0.01886 0.480015 0)
(0.0179836 0.45771 0)
(0.0171859 0.437408 0)
(0.0164519 0.418729 0)
(0.0157888 0.401852 0)
(-0.0695694 1.77061 0)
(-0.059098 1.50413 0)
(-0.0513002 1.30568 0)
(-0.0453242 1.15358 0)
(-0.0405893 1.03307 0)
(-0.0367475 0.935292 0)
(-0.0335683 0.854377 0)
(-0.0308942 0.786316 0)
(-0.0286139 0.728278 0)
(-0.0266464 0.678202 0)
(-0.0249316 0.634558 0)
(-0.0234239 0.596183 0)
(-0.0220878 0.562177 0)
(-0.0208958 0.531837 0)
(-0.0198256 0.5046 0)
(-0.0188597 0.480015 0)
(-0.0179834 0.45771 0)
(-0.0171857 0.437408 0)
(-0.0164518 0.418729 0)
(-0.0157888 0.401852 0)
(-0.208277 1.75969 0)
(-0.17693 1.49486 0)
(-0.153585 1.29763 0)
(-0.135694 1.14647 0)
(-0.121518 1.0267 0)
(-0.110016 0.929525 0)
(-0.100499 0.849109 0)
(-0.0924927 0.781469 0)
(-0.0856657 0.723788 0)
(-0.0797754 0.674021 0)
(-0.0746417 0.630646 0)
(-0.0701277 0.592507 0)
(-0.0661277 0.558711 0)
(-0.0625588 0.528558 0)
(-0.059355 0.501489 0)
(-0.0564631 0.477056 0)
(-0.0538394 0.454888 0)
(-0.0514513 0.434711 0)
(-0.0492542 0.416147 0)
(-0.0472691 0.399375 0)
(-0.345699 1.73792 0)
(-0.29367 1.47637 0)
(-0.254922 1.28158 0)
(-0.225226 1.13229 0)
(-0.201698 1.014 0)
(-0.182607 0.918028 0)
(-0.166809 0.838607 0)
(-0.153521 0.771803 0)
(-0.142189 0.714835 0)
(-0.132413 0.665684 0)
(-0.123891 0.622846 0)
(-0.116399 0.585178 0)
(-0.10976 0.551801 0)
(-0.103836 0.52202 0)
(-0.0985184 0.495286 0)
(-0.0937184 0.471155 0)
(-0.0893635 0.449261 0)
(-0.0853998 0.429334 0)
(-0.0817529 0.411 0)
(-0.0784579 0.394435 0)
(-0.480988 1.70544 0)
(-0.4086 1.44878 0)
(-0.354688 1.25762 0)
(-0.313371 1.11113 0)
(-0.280634 0.995053 0)
(-0.254072 0.900871 0)
(-0.232091 0.822934 0)
(-0.213603 0.757378 0)
(-0.197836 0.701476 0)
(-0.184233 0.653243 0)
(-0.172377 0.611205 0)
(-0.161953 0.574242 0)
(-0.152715 0.541488 0)
(-0.144473 0.512264 0)
(-0.137074 0.48603 0)
(-0.130396 0.462349 0)
(-0.124337 0.440865 0)
(-0.118822 0.42131 0)
(-0.113748 0.403318 0)
(-0.109163 0.387063 0)
(-0.613312 1.66244 0)
(-0.52101 1.41225 0)
(-0.452266 1.22592 0)
(-0.399583 1.08311 0)
(-0.35784 0.969967 0)
(-0.32397 0.87816 0)
(-0.295942 0.802187 0)
(-0.272367 0.738284 0)
(-0.252264 0.683791 0)
(-0.234918 0.636775 0)
(-0.219801 0.595796 0)
(-0.206508 0.559765 0)
(-0.194729 0.527837 0)
(-0.18422 0.49935 0)
(-0.174785 0.473777 0)
(-0.166269 0.450693 0)
(-0.158543 0.429751 0)
(-0.151511 0.410689 0)
(-0.145041 0.393151 0)
(-0.139195 0.377305 0)
(-0.741855 1.6092 0)
(-0.630207 1.36702 0)
(-0.547056 1.18666 0)
(-0.483331 1.04842 0)
(-0.43284 0.938901 0)
(-0.391871 0.850034 0)
(-0.357969 0.776495 0)
(-0.329453 0.714639 0)
(-0.305136 0.661891 0)
(-0.284155 0.61638 0)
(-0.265869 0.576714 0)
(-0.24979 0.541837 0)
(-0.235542 0.510932 0)
(-0.22283 0.483357 0)
(-0.211419 0.458603 0)
(-0.201118 0.436259 0)
(-0.191772 0.415987 0)
(-0.183266 0.397535 0)
(-0.17544 0.380559 0)
(-0.168369 0.365221 0)
(-0.865823 1.54603 0)
(-0.735519 1.31336 0)
(-0.638474 1.14008 0)
(-0.564099 1.00727 0)
(-0.50517 0.902047 0)
(-0.457356 0.816668 0)
(-0.417789 0.746015 0)
(-0.384507 0.686587 0)
(-0.356126 0.63591 0)
(-0.33164 0.592185 0)
(-0.310298 0.554077 0)
(-0.291532 0.520568 0)
(-0.274904 0.490876 0)
(-0.260067 0.464384 0)
(-0.246748 0.440601 0)
(-0.234726 0.419134 0)
(-0.223819 0.399658 0)
(-0.213891 0.381931 0)
(-0.204757 0.365621 0)
(-0.196505 0.350885 0)
(-0.984453 1.47334 0)
(-0.836297 1.2516 0)
(-0.725955 1.08647 0)
(-0.64139 0.959907 0)
(-0.574387 0.859631 0)
(-0.520021 0.778267 0)
(-0.475032 0.710936 0)
(-0.437191 0.654303 0)
(-0.404921 0.606008 0)
(-0.377079 0.56434 0)
(-0.352813 0.528023 0)
(-0.331477 0.49609 0)
(-0.31257 0.467794 0)
(-0.2957 0.442547 0)
(-0.280557 0.419883 0)
(-0.266888 0.399426 0)
(-0.254486 0.380865 0)
(-0.243198 0.363972 0)
(-0.232812 0.348429 0)
(-0.223429 0.334386 0)
(-1.09701 1.39155 0)
(-0.931918 1.18213 0)
(-0.80896 1.02616 0)
(-0.714726 0.906626 0)
(-0.640062 0.811915 0)
(-0.57948 0.735067 0)
(-0.529347 0.671474 0)
(-0.487179 0.617984 0)
(-0.45122 0.57237 0)
(-0.420195 0.533015 0)
(-0.393154 0.498714 0)
(-0.369378 0.468554 0)
(-0.348309 0.441828 0)
(-0.329511 0.417983 0)
(-0.312636 0.396577 0)
(-0.297403 0.377255 0)
(-0.283584 0.359724 0)
(-0.271005 0.343769 0)
(-0.259432 0.329088 0)
(-0.248976 0.315825 0)
(-1.20281 1.30119 0)
(-1.02179 1.10537 0)
(-0.886977 0.959527 0)
(-0.783656 0.847754 0)
(-0.701791 0.759193 0)
(-0.635366 0.687336 0)
(-0.580399 0.627872 0)
(-0.534164 0.577855 0)
(-0.494737 0.535204 0)
(-0.460719 0.498404 0)
(-0.431071 0.46633 0)
(-0.405001 0.438128 0)
(-0.381901 0.413138 0)
(-0.36129 0.390841 0)
(-0.342787 0.370825 0)
(-0.326086 0.352758 0)
(-0.310933 0.336366 0)
(-0.297142 0.321446 0)
(-0.284452 0.307719 0)
(-0.272988 0.295317 0)
(-1.30119 1.20281 0)
(-1.10537 1.02179 0)
(-0.959526 0.886977 0)
(-0.847754 0.783656 0)
(-0.759193 0.701791 0)
(-0.687335 0.635367 0)
(-0.627872 0.580399 0)
(-0.577855 0.534164 0)
(-0.535203 0.494737 0)
(-0.498403 0.46072 0)
(-0.46633 0.431071 0)
(-0.438128 0.405002 0)
(-0.413138 0.381901 0)
(-0.390841 0.36129 0)
(-0.370825 0.342787 0)
(-0.352757 0.326086 0)
(-0.336366 0.310933 0)
(-0.321446 0.297142 0)
(-0.307719 0.284452 0)
(-0.295317 0.272988 0)
(-1.39155 1.09701 0)
(-1.18213 0.931918 0)
(-1.02616 0.80896 0)
(-0.906625 0.714726 0)
(-0.811915 0.640062 0)
(-0.735067 0.57948 0)
(-0.671474 0.529348 0)
(-0.617984 0.487179 0)
(-0.57237 0.45122 0)
(-0.533014 0.420195 0)
(-0.498713 0.393154 0)
(-0.468553 0.369378 0)
(-0.441828 0.348309 0)
(-0.417982 0.329511 0)
(-0.396576 0.312636 0)
(-0.377254 0.297404 0)
(-0.359724 0.283584 0)
(-0.343768 0.271005 0)
(-0.329088 0.259432 0)
(-0.315825 0.248976 0)
(-1.47334 0.984453 0)
(-1.2516 0.836297 0)
(-1.08647 0.725955 0)
(-0.959907 0.64139 0)
(-0.85963 0.574387 0)
(-0.778266 0.520021 0)
(-0.710936 0.475033 0)
(-0.654302 0.437191 0)
(-0.606008 0.404922 0)
(-0.564339 0.37708 0)
(-0.528023 0.352814 0)
(-0.49609 0.331477 0)
(-0.467794 0.31257 0)
(-0.442547 0.295701 0)
(-0.419883 0.280557 0)
(-0.399425 0.266888 0)
(-0.380865 0.254486 0)
(-0.363972 0.243198 0)
(-0.348428 0.232813 0)
(-0.334386 0.223429 0)
(-1.54603 0.865823 0)
(-1.31336 0.73552 0)
(-1.14008 0.638474 0)
(-1.00727 0.5641 0)
(-0.902046 0.505171 0)
(-0.816668 0.457356 0)
(-0.746015 0.417789 0)
(-0.686587 0.384507 0)
(-0.635909 0.356127 0)
(-0.592185 0.33164 0)
(-0.554076 0.310298 0)
(-0.520568 0.291532 0)
(-0.490876 0.274904 0)
(-0.464383 0.260067 0)
(-0.440601 0.246749 0)
(-0.419134 0.234726 0)
(-0.399658 0.223819 0)
(-0.381931 0.213892 0)
(-0.365621 0.204757 0)
(-0.350885 0.196505 0)
(-1.6092 0.741855 0)
(-1.36702 0.630207 0)
(-1.18666 0.547057 0)
(-1.04842 0.483331 0)
(-0.938901 0.43284 0)
(-0.850034 0.391871 0)
(-0.776495 0.357969 0)
(-0.714638 0.329453 0)
(-0.661891 0.305136 0)
(-0.61638 0.284155 0)
(-0.576714 0.265869 0)
(-0.541837 0.24979 0)
(-0.510931 0.235543 0)
(-0.483356 0.222831 0)
(-0.458602 0.211419 0)
(-0.436258 0.201118 0)
(-0.415986 0.191772 0)
(-0.397535 0.183266 0)
(-0.380559 0.17544 0)
(-0.365221 0.168369 0)
(-1.66244 0.613312 0)
(-1.41225 0.52101 0)
(-1.22592 0.452266 0)
(-1.08311 0.399583 0)
(-0.969967 0.35784 0)
(-0.878159 0.32397 0)
(-0.802187 0.295943 0)
(-0.738284 0.272368 0)
(-0.683791 0.252264 0)
(-0.636774 0.234919 0)
(-0.595796 0.219801 0)
(-0.559765 0.206508 0)
(-0.527837 0.194729 0)
(-0.499349 0.18422 0)
(-0.473776 0.174785 0)
(-0.450693 0.16627 0)
(-0.42975 0.158543 0)
(-0.410688 0.151511 0)
(-0.39315 0.145041 0)
(-0.377305 0.139195 0)
(-1.70544 0.480989 0)
(-1.44878 0.4086 0)
(-1.25762 0.354688 0)
(-1.11113 0.313371 0)
(-0.995053 0.280634 0)
(-0.900871 0.254072 0)
(-0.822933 0.232091 0)
(-0.757378 0.213603 0)
(-0.701475 0.197837 0)
(-0.653243 0.184234 0)
(-0.611205 0.172378 0)
(-0.574242 0.161953 0)
(-0.541488 0.152715 0)
(-0.512264 0.144473 0)
(-0.486029 0.137075 0)
(-0.462349 0.130396 0)
(-0.440865 0.124337 0)
(-0.42131 0.118822 0)
(-0.403318 0.113748 0)
(-0.387063 0.109163 0)
(-1.73792 0.345699 0)
(-1.47637 0.29367 0)
(-1.28158 0.254922 0)
(-1.13229 0.225227 0)
(-1.014 0.201698 0)
(-0.918028 0.182607 0)
(-0.838606 0.166809 0)
(-0.771802 0.153521 0)
(-0.714835 0.14219 0)
(-0.665684 0.132413 0)
(-0.622845 0.123892 0)
(-0.585178 0.116399 0)
(-0.5518 0.10976 0)
(-0.52202 0.103836 0)
(-0.495286 0.0985185 0)
(-0.471155 0.0937185 0)
(-0.449261 0.0893636 0)
(-0.429334 0.0853998 0)
(-0.410999 0.0817529 0)
(-0.394435 0.0784579 0)
(-1.75969 0.208277 0)
(-1.49486 0.17693 0)
(-1.29763 0.153585 0)
(-1.14647 0.135694 0)
(-1.0267 0.121518 0)
(-0.929525 0.110017 0)
(-0.849109 0.100499 0)
(-0.781468 0.0924929 0)
(-0.723787 0.0856659 0)
(-0.674021 0.0797756 0)
(-0.630646 0.0746418 0)
(-0.592507 0.0701278 0)
(-0.558711 0.0661278 0)
(-0.528558 0.0625589 0)
(-0.501489 0.0593551 0)
(-0.477055 0.0564632 0)
(-0.454887 0.0538395 0)
(-0.434711 0.0514514 0)
(-0.416147 0.0492542 0)
(-0.399374 0.0472691 0)
(-1.77061 0.0695694 0)
(-1.50414 0.0590981 0)
(-1.30568 0.0513003 0)
(-1.15358 0.0453244 0)
(-1.03307 0.0405895 0)
(-0.935292 0.0367477 0)
(-0.854376 0.0335685 0)
(-0.786316 0.0308944 0)
(-0.728278 0.0286141 0)
(-0.678202 0.0266466 0)
(-0.634558 0.0249318 0)
(-0.596182 0.023424 0)
(-0.562177 0.022088 0)
(-0.531837 0.0208959 0)
(-0.5046 0.0198258 0)
(-0.480015 0.0188598 0)
(-0.457709 0.0179834 0)
(-0.437407 0.0171858 0)
(-0.418728 0.0164519 0)
(-0.401852 0.0157888 0)
(-1.77061 -0.0695695 0)
(-1.50414 -0.0590982 0)
(-1.30568 -0.0513005 0)
(-1.15358 -0.0453245 0)
(-1.03307 -0.0405897 0)
(-0.935292 -0.0367479 0)
(-0.854376 -0.0335687 0)
(-0.786316 -0.0308946 0)
(-0.728278 -0.0286142 0)
(-0.678202 -0.0266467 0)
(-0.634558 -0.024932 0)
(-0.596182 -0.0234242 0)
(-0.562177 -0.0220881 0)
(-0.531837 -0.020896 0)
(-0.5046 -0.0198258 0)
(-0.480015 -0.0188599 0)
(-0.457709 -0.0179835 0)
(-0.437407 -0.0171858 0)
(-0.418728 -0.0164519 0)
(-0.401852 -0.0157888 0)
(-1.75969 -0.208277 0)
(-1.49486 -0.17693 0)
(-1.29763 -0.153585 0)
(-1.14647 -0.135694 0)
(-1.0267 -0.121519 0)
(-0.929525 -0.110017 0)
(-0.849109 -0.100499 0)
(-0.781468 -0.0924931 0)
(-0.723788 -0.0856661 0)
(-0.674021 -0.0797758 0)
(-0.630646 -0.074642 0)
(-0.592507 -0.0701279 0)
(-0.558711 -0.0661279 0)
(-0.528558 -0.062559 0)
(-0.501489 -0.0593552 0)
(-0.477055 -0.0564633 0)
(-0.454887 -0.0538396 0)
(-0.434711 -0.0514515 0)
(-0.416147 -0.0492542 0)
(-0.399375 -0.0472691 0)
(-1.73792 -0.345699 0)
(-1.47637 -0.29367 0)
(-1.28158 -0.254922 0)
(-1.13229 -0.225227 0)
(-1.014 -0.201698 0)
(-0.918028 -0.182607 0)
(-0.838606 -0.166809 0)
(-0.771802 -0.153521 0)
(-0.714835 -0.14219 0)
(-0.665684 -0.132413 0)
(-0.622845 -0.123892 0)
(-0.585178 -0.116399 0)
(-0.5518 -0.10976 0)
(-0.52202 -0.103836 0)
(-0.495286 -0.0985186 0)
(-0.471155 -0.0937186 0)
(-0.449261 -0.0893637 0)
(-0.429334 -0.0853999 0)
(-0.411 -0.0817529 0)
(-0.394435 -0.0784579 0)
(-1.70544 -0.480989 0)
(-1.44878 -0.4086 0)
(-1.25762 -0.354688 0)
(-1.11113 -0.313371 0)
(-0.995053 -0.280634 0)
(-0.900871 -0.254072 0)
(-0.822933 -0.232092 0)
(-0.757378 -0.213603 0)
(-0.701475 -0.197837 0)
(-0.653243 -0.184234 0)
(-0.611205 -0.172378 0)
(-0.574242 -0.161953 0)
(-0.541488 -0.152716 0)
(-0.512264 -0.144474 0)
(-0.486029 -0.137075 0)
(-0.462349 -0.130396 0)
(-0.440865 -0.124337 0)
(-0.42131 -0.118822 0)
(-0.403318 -0.113748 0)
(-0.387063 -0.109163 0)
(-1.66244 -0.613312 0)
(-1.41225 -0.52101 0)
(-1.22592 -0.452267 0)
(-1.08311 -0.399583 0)
(-0.969967 -0.35784 0)
(-0.87816 -0.323971 0)
(-0.802187 -0.295943 0)
(-0.738284 -0.272368 0)
(-0.683791 -0.252264 0)
(-0.636774 -0.234919 0)
(-0.595796 -0.219801 0)
(-0.559765 -0.206508 0)
(-0.527837 -0.194729 0)
(-0.49935 -0.18422 0)
(-0.473776 -0.174786 0)
(-0.450693 -0.16627 0)
(-0.42975 -0.158543 0)
(-0.410689 -0.151511 0)
(-0.393151 -0.145041 0)
(-0.377305 -0.139195 0)
(-1.6092 -0.741855 0)
(-1.36702 -0.630208 0)
(-1.18666 -0.547057 0)
(-1.04843 -0.483331 0)
(-0.938901 -0.43284 0)
(-0.850034 -0.391872 0)
(-0.776495 -0.357969 0)
(-0.714639 -0.329453 0)
(-0.661891 -0.305136 0)
(-0.61638 -0.284155 0)
(-0.576714 -0.265869 0)
(-0.541837 -0.24979 0)
(-0.510931 -0.235543 0)
(-0.483356 -0.222831 0)
(-0.458602 -0.211419 0)
(-0.436259 -0.201118 0)
(-0.415986 -0.191773 0)
(-0.397535 -0.183266 0)
(-0.380559 -0.17544 0)
(-0.365221 -0.168369 0)
(-1.54603 -0.865823 0)
(-1.31336 -0.73552 0)
(-1.14008 -0.638474 0)
(-1.00727 -0.5641 0)
(-0.902047 -0.505171 0)
(-0.816668 -0.457356 0)
(-0.746015 -0.417789 0)
(-0.686587 -0.384508 0)
(-0.63591 -0.356127 0)
(-0.592185 -0.33164 0)
(-0.554076 -0.310298 0)
(-0.520568 -0.291533 0)
(-0.490876 -0.274904 0)
(-0.464383 -0.260067 0)
(-0.440601 -0.246749 0)
(-0.419134 -0.234727 0)
(-0.399658 -0.223819 0)
(-0.381931 -0.213892 0)
(-0.365621 -0.204758 0)
(-0.350885 -0.196505 0)
(-1.47334 -0.984454 0)
(-1.2516 -0.836297 0)
(-1.08647 -0.725955 0)
(-0.959908 -0.64139 0)
(-0.859631 -0.574387 0)
(-0.778267 -0.520022 0)
(-0.710936 -0.475033 0)
(-0.654302 -0.437191 0)
(-0.606008 -0.404922 0)
(-0.56434 -0.37708 0)
(-0.528023 -0.352814 0)
(-0.49609 -0.331477 0)
(-0.467794 -0.31257 0)
(-0.442547 -0.295701 0)
(-0.419883 -0.280557 0)
(-0.399426 -0.266888 0)
(-0.380865 -0.254486 0)
(-0.363972 -0.243198 0)
(-0.348429 -0.232813 0)
(-0.334386 -0.223429 0)
(-1.39155 -1.09701 0)
(-1.18213 -0.931919 0)
(-1.02616 -0.80896 0)
(-0.906626 -0.714727 0)
(-0.811915 -0.640063 0)
(-0.735067 -0.579481 0)
(-0.671474 -0.529348 0)
(-0.617984 -0.48718 0)
(-0.57237 -0.451221 0)
(-0.533015 -0.420195 0)
(-0.498714 -0.393155 0)
(-0.468553 -0.369378 0)
(-0.441828 -0.348309 0)
(-0.417983 -0.329511 0)
(-0.396577 -0.312636 0)
(-0.377255 -0.297404 0)
(-0.359724 -0.283584 0)
(-0.343769 -0.271005 0)
(-0.329088 -0.259432 0)
(-0.315825 -0.248976 0)
(-1.30119 -1.20281 0)
(-1.10537 -1.02179 0)
(-0.959527 -0.886978 0)
(-0.847754 -0.783656 0)
(-0.759193 -0.701792 0)
(-0.687336 -0.635367 0)
(-0.627872 -0.580399 0)
(-0.577855 -0.534164 0)
(-0.535203 -0.494737 0)
(-0.498403 -0.46072 0)
(-0.46633 -0.431071 0)
(-0.438128 -0.405002 0)
(-0.413138 -0.381901 0)
(-0.390841 -0.36129 0)
(-0.370825 -0.342787 0)
(-0.352758 -0.326086 0)
(-0.336366 -0.310934 0)
(-0.321446 -0.297142 0)
(-0.307719 -0.284453 0)
(-0.295317 -0.272988 0)
(-1.20281 -1.30119 0)
(-1.02179 -1.10537 0)
(-0.886978 -0.959527 0)
(-0.783656 -0.847754 0)
(-0.701791 -0.759194 0)
(-0.635367 -0.687336 0)
(-0.580399 -0.627872 0)
(-0.534164 -0.577856 0)
(-0.494737 -0.535204 0)
(-0.460719 -0.498404 0)
(-0.431071 -0.46633 0)
(-0.405001 -0.438128 0)
(-0.381901 -0.413138 0)
(-0.36129 -0.390841 0)
(-0.342787 -0.370825 0)
(-0.326086 -0.352758 0)
(-0.310933 -0.336366 0)
(-0.297142 -0.321446 0)
(-0.284453 -0.307719 0)
(-0.272988 -0.295317 0)
(-1.09701 -1.39155 0)
(-0.931918 -1.18213 0)
(-0.80896 -1.02616 0)
(-0.714726 -0.906626 0)
(-0.640062 -0.811915 0)
(-0.57948 -0.735068 0)
(-0.529347 -0.671474 0)
(-0.487179 -0.617984 0)
(-0.45122 -0.572371 0)
(-0.420195 -0.533015 0)
(-0.393154 -0.498714 0)
(-0.369378 -0.468554 0)
(-0.348309 -0.441828 0)
(-0.329511 -0.417983 0)
(-0.312636 -0.396577 0)
(-0.297404 -0.377255 0)
(-0.283584 -0.359725 0)
(-0.271005 -0.343769 0)
(-0.259432 -0.329089 0)
(-0.248976 -0.315825 0)
(-0.984454 -1.47334 0)
(-0.836297 -1.25161 0)
(-0.725955 -1.08647 0)
(-0.64139 -0.959908 0)
(-0.574387 -0.859631 0)
(-0.520021 -0.778267 0)
(-0.475032 -0.710937 0)
(-0.437191 -0.654303 0)
(-0.404922 -0.606009 0)
(-0.37708 -0.56434 0)
(-0.352814 -0.528023 0)
(-0.331477 -0.496091 0)
(-0.31257 -0.467794 0)
(-0.295701 -0.442548 0)
(-0.280557 -0.419884 0)
(-0.266888 -0.399426 0)
(-0.254486 -0.380866 0)
(-0.243198 -0.363972 0)
(-0.232813 -0.348429 0)
(-0.22343 -0.334386 0)
(-0.865823 -1.54603 0)
(-0.73552 -1.31336 0)
(-0.638474 -1.14008 0)
(-0.5641 -1.00727 0)
(-0.505171 -0.902047 0)
(-0.457356 -0.816668 0)
(-0.417789 -0.746016 0)
(-0.384507 -0.686588 0)
(-0.356127 -0.63591 0)
(-0.33164 -0.592186 0)
(-0.310298 -0.554077 0)
(-0.291532 -0.520569 0)
(-0.274904 -0.490876 0)
(-0.260067 -0.464384 0)
(-0.246749 -0.440602 0)
(-0.234727 -0.419135 0)
(-0.223819 -0.399658 0)
(-0.213892 -0.381931 0)
(-0.204758 -0.365621 0)
(-0.196505 -0.350885 0)
(-0.741855 -1.6092 0)
(-0.630208 -1.36702 0)
(-0.547057 -1.18666 0)
(-0.483331 -1.04843 0)
(-0.43284 -0.938902 0)
(-0.391871 -0.850035 0)
(-0.357969 -0.776495 0)
(-0.329453 -0.714639 0)
(-0.305136 -0.661891 0)
(-0.284155 -0.616381 0)
(-0.265869 -0.576715 0)
(-0.24979 -0.541837 0)
(-0.235543 -0.510932 0)
(-0.222831 -0.483357 0)
(-0.211419 -0.458603 0)
(-0.201118 -0.436259 0)
(-0.191773 -0.415987 0)
(-0.183266 -0.397536 0)
(-0.17544 -0.380559 0)
(-0.168369 -0.365221 0)
(-0.613313 -1.66244 0)
(-0.52101 -1.41225 0)
(-0.452266 -1.22592 0)
(-0.399583 -1.08312 0)
(-0.35784 -0.969968 0)
(-0.32397 -0.87816 0)
(-0.295943 -0.802188 0)
(-0.272368 -0.738285 0)
(-0.252264 -0.683792 0)
(-0.234919 -0.636775 0)
(-0.219801 -0.595797 0)
(-0.206508 -0.559766 0)
(-0.194729 -0.527837 0)
(-0.18422 -0.49935 0)
(-0.174785 -0.473777 0)
(-0.16627 -0.450694 0)
(-0.158543 -0.429751 0)
(-0.151511 -0.410689 0)
(-0.145041 -0.393151 0)
(-0.139195 -0.377306 0)
(-0.480989 -1.70544 0)
(-0.4086 -1.44878 0)
(-0.354688 -1.25763 0)
(-0.313371 -1.11113 0)
(-0.280634 -0.995053 0)
(-0.254072 -0.900872 0)
(-0.232091 -0.822934 0)
(-0.213603 -0.757379 0)
(-0.197837 -0.701476 0)
(-0.184234 -0.653244 0)
(-0.172378 -0.611206 0)
(-0.161953 -0.574242 0)
(-0.152715 -0.541489 0)
(-0.144473 -0.512265 0)
(-0.137075 -0.48603 0)
(-0.130396 -0.46235 0)
(-0.124337 -0.440865 0)
(-0.118822 -0.421311 0)
(-0.113748 -0.403319 0)
(-0.109163 -0.387064 0)
(-0.345699 -1.73792 0)
(-0.29367 -1.47637 0)
(-0.254922 -1.28158 0)
(-0.225227 -1.13229 0)
(-0.201698 -1.014 0)
(-0.182607 -0.918029 0)
(-0.166809 -0.838607 0)
(-0.153521 -0.771803 0)
(-0.14219 -0.714836 0)
(-0.132413 -0.665685 0)
(-0.123892 -0.622846 0)
(-0.116399 -0.585179 0)
(-0.10976 -0.551801 0)
(-0.103836 -0.522021 0)
(-0.0985185 -0.495287 0)
(-0.0937186 -0.471155 0)
(-0.0893637 -0.449262 0)
(-0.0853999 -0.429335 0)
(-0.081753 -0.411 0)
(-0.078458 -0.394435 0)
(-0.208277 -1.75969 0)
(-0.17693 -1.49486 0)
(-0.153585 -1.29763 0)
(-0.135694 -1.14647 0)
(-0.121518 -1.0267 0)
(-0.110017 -0.929526 0)
(-0.100499 -0.84911 0)
(-0.0924928 -0.781469 0)
(-0.0856658 -0.723788 0)
(-0.0797755 -0.674022 0)
(-0.0746418 -0.630647 0)
(-0.0701277 -0.592508 0)
(-0.0661278 -0.558712 0)
(-0.0625589 -0.528559 0)
(-0.0593551 -0.50149 0)
(-0.0564632 -0.477056 0)
(-0.0538395 -0.454888 0)
(-0.0514514 -0.434711 0)
(-0.0492543 -0.416148 0)
(-0.0472691 -0.399375 0)
(-0.0695694 -1.77061 0)
(-0.0590981 -1.50414 0)
(-0.0513003 -1.30568 0)
(-0.0453243 -1.15358 0)
(-0.0405894 -1.03307 0)
(-0.0367476 -0.935292 0)
(-0.0335684 -0.854377 0)
(-0.0308943 -0.786317 0)
(-0.028614 -0.728278 0)
(-0.0266465 -0.678203 0)
(-0.0249317 -0.634559 0)
(-0.023424 -0.596183 0)
(-0.0220879 -0.562178 0)
(-0.0208958 -0.531838 0)
(-0.0198257 -0.504601 0)
(-0.0188598 -0.480016 0)
(-0.0179834 -0.45771 0)
(-0.0171858 -0.437408 0)
(-0.0164519 -0.418729 0)
(-0.0157888 -0.401853 0)
(1.77061 -0.0695695 0)
(1.75969 -0.208277 0)
(1.73792 -0.345699 0)
(1.70544 -0.480989 0)
(1.66244 -0.613312 0)
(1.6092 -0.741855 0)
(1.54603 -0.865823 0)
(1.47334 -0.984454 0)
(1.39155 -1.09701 0)
(1.30119 -1.20281 0)
(1.20281 -1.30119 0)
(1.09701 -1.39155 0)
(0.984454 -1.47334 0)
(0.865823 -1.54603 0)
(0.741855 -1.6092 0)
(0.613313 -1.66244 0)
(0.480989 -1.70544 0)
(0.345699 -1.73792 0)
(0.208277 -1.75969 0)
(0.0695695 -1.77061 0)
(1.50413 -0.0590982 0)
(1.49486 -0.17693 0)
(1.47637 -0.29367 0)
(1.44878 -0.4086 0)
(1.41225 -0.52101 0)
(1.36702 -0.630208 0)
(1.31336 -0.73552 0)
(1.2516 -0.836297 0)
(1.18213 -0.931918 0)
(1.10537 -1.02179 0)
(1.02179 -1.10537 0)
(0.931918 -1.18213 0)
(0.836297 -1.25161 0)
(0.73552 -1.31336 0)
(0.630208 -1.36702 0)
(0.52101 -1.41225 0)
(0.4086 -1.44878 0)
(0.29367 -1.47637 0)
(0.17693 -1.49486 0)
(0.0590983 -1.50414 0)
(1.30568 -0.0513004 0)
(1.29763 -0.153585 0)
(1.28158 -0.254922 0)
(1.25762 -0.354688 0)
(1.22592 -0.452266 0)
(1.18666 -0.547057 0)
(1.14008 -0.638474 0)
(1.08647 -0.725955 0)
(1.02616 -0.80896 0)
(0.959527 -0.886978 0)
(0.886978 -0.959527 0)
(0.80896 -1.02616 0)
(0.725955 -1.08647 0)
(0.638474 -1.14008 0)
(0.547057 -1.18666 0)
(0.452267 -1.22592 0)
(0.354688 -1.25762 0)
(0.254922 -1.28158 0)
(0.153585 -1.29763 0)
(0.0513005 -1.30568 0)
(1.15358 -0.0453245 0)
(1.14647 -0.135694 0)
(1.13229 -0.225227 0)
(1.11113 -0.313371 0)
(1.08311 -0.399583 0)
(1.04843 -0.483331 0)
(1.00727 -0.5641 0)
(0.959908 -0.64139 0)
(0.906626 -0.714726 0)
(0.847754 -0.783656 0)
(0.783656 -0.847754 0)
(0.714727 -0.906626 0)
(0.64139 -0.959908 0)
(0.5641 -1.00727 0)
(0.483331 -1.04843 0)
(0.399583 -1.08312 0)
(0.313371 -1.11113 0)
(0.225227 -1.13229 0)
(0.135694 -1.14647 0)
(0.0453246 -1.15358 0)
(1.03307 -0.0405896 0)
(1.0267 -0.121519 0)
(1.014 -0.201698 0)
(0.995053 -0.280634 0)
(0.969967 -0.35784 0)