/*--------------------------------*- C++ -*----------------------------------*\
| =========                 |                                                 |
| \\      /  F ield         | foam-extend: Open Source CFD                    |
|  \\    /   O peration     | Version:  3.0                                   |
|   \\  /    A nd           | Web:         http://www.extend-project.de       |
|    \\/     M anipulation  |                                                 |
\*---------------------------------------------------------------------------*/
FoamFile
{
    version     2.0;
    format      ascii;
    class       volScalarField;
    location    "27";
    object      p;
}
// * * * * * * * * * * * * * * * * * * * * * * * * * * * * * * * * * * * * * //

dimensions      [0 0 0 0 0 0 0];

internalField   nonuniform List<scalar> 
576
(
-7.20547
-7.27867
-5.62475
-5.76838
-4.80449
-5.01867
-4.44992
-4.65686
-4.3963
-4.54114
-4.55946
-4.60606
-7.08158
-7.15361
-5.52821
-5.66944
-4.72201
-4.93263
-4.37357
-4.57711
-4.32095
-4.46347
-4.48138
-4.52721
-6.83772
-6.90717
-5.33765
-5.47406
-4.55924
-4.7626
-4.2228
-4.41923
-4.17197
-4.30946
-4.32681
-4.37101
-6.47565
-6.54157
-5.05516
-5.18441
-4.31798
-4.51066
-3.9994
-4.18552
-3.95129
-4.08157
-4.09797
-4.13987
-6.00395
-6.06493
-4.68677
-4.80664
-4.00328
-4.18196
-3.7079
-3.88046
-3.66329
-3.78404
-3.79925
-3.83808
-5.42843
-5.48368
-4.23758
-4.34606
-3.61965
-3.7813
-3.35262
-3.50873
-3.31232
-3.42157
-3.43529
-3.47043
-4.76104
-4.80942
-3.71649
-3.81167
-3.17451
-3.31632
-2.94032
-3.07724
-2.90497
-3.00077
-3.0128
-3.0436
-4.01121
-4.05208
-3.13121
-3.21152
-2.67463
-2.79422
-2.47736
-2.5928
-2.44762
-2.5284
-2.53852
-2.56449
-3.19373
-3.22621
-2.49298
-2.55696
-2.12944
-2.22467
-1.97237
-2.06427
-1.94868
-2.01298
-2.02103
-2.0417
-2.32062
-2.34434
-1.81148
-1.85812
-1.54738
-1.6167
-1.43329
-1.50016
-1.41613
-1.4629
-1.46875
-1.48379
-1.40877
-1.42312
-1.09961
-1.12799
-0.939289
-0.981408
-0.870031
-0.910619
-0.8596
-0.887996
-0.891534
-0.900661
-0.471866
-0.476804
-0.368306
-0.378074
-0.314694
-0.328999
-0.291566
-0.305264
-0.288131
-0.297704
-0.298886
-0.301963
0.47222
0.476987
0.368707
0.377873
0.314872
0.328745
0.291594
0.305095
0.288055
0.297507
0.298714
0.301758
1.40907
1.42326
1.09997
1.12777
0.939433
0.98114
0.870029
0.910435
0.8595
0.887783
0.891345
0.900442
2.32104
2.34461
1.81191
1.858
1.54758
1.6165
1.43335
1.50002
1.41608
1.46274
1.46861
1.48361
3.19398
3.22635
2.49329
2.55676
2.12954
2.22443
1.97234
2.06409
1.94856
2.01277
2.02084
2.04149
4.01169
4.05246
3.13163
3.21151
2.67482
2.79411
2.47742
2.59272
2.4476
2.52828
2.53841
2.56436
4.76124
4.80958
3.71671
3.81154
3.17454
3.31613
2.94025
3.0771
2.90485
3.0006
3.01262
3.04342
5.42894
5.48413
4.23793
4.34616
3.61978
3.78129
3.35266
3.50874
3.31232
3.42153
3.43524
3.47035
6.00405
6.06506
4.68685
4.80657
4.00321
4.18185
3.70779
3.88041
3.66317
3.78396
3.79911
3.83795
6.4762
6.54205
5.05542
5.18462
4.31805
4.51079
3.99942
4.18564
3.95131
4.08161
4.09795
4.13985
6.83771
6.90722
5.3376
5.47405
4.55908
4.7626
4.22266
4.41929
4.17187
4.30945
4.3267
4.37094
7.08211
7.15414
5.52839
5.66976
4.72205
4.93288
4.37363
4.5773
4.32103
4.46354
4.4814
4.52723
7.2054
7.27869
5.62462
5.76849
4.80426
5.01879
4.44978
4.657
4.39627
4.54126
4.55944
4.60606
7.20538
7.27868
5.6246
5.76851
4.80426
5.01881
4.44978
4.65702
4.39628
4.54128
4.55946
4.60608
7.08208
7.15413
5.52834
5.66983
4.72205
4.93296
4.37365
4.57736
4.32107
4.4636
4.48146
4.52729
6.83761
6.90719
5.33751
5.47415
4.55906
4.76271
4.2227
4.41938
4.17194
4.30955
4.3268
4.37105
6.47612
6.54204
5.05532
5.18478
4.31805
4.51096
3.99948
4.18577
3.95141
4.08176
4.09809
4.14
6.00388
6.06499
4.68668
4.80673
4.00318
4.18205
3.70785
3.88057
3.66329
3.78414
3.79928
3.83814
5.42884
5.48412
4.2378
4.3464
3.61978
3.78156
3.35275
3.50894
3.31247
3.42175
3.43544
3.47058
4.76099
4.80948
3.71646
3.81176
3.1745
3.3164
2.94032
3.07731
2.905
3.00085
3.01285
3.04367
4.0116
4.05248
3.13148
3.21183
2.67484
2.79445
2.47754
2.59299
2.4478
2.52857
2.53868
2.56465
3.19365
3.22622
2.49298
2.55702
2.12948
2.22474
1.97243
2.06434
1.94875
2.01306
2.02111
2.04179
2.321
2.34468
1.81178
1.85838
1.54763
1.6169
1.43351
1.50032
1.41631
1.46306
1.46892
1.48395
1.40866
1.42309
1.09961
1.12802
0.939348
0.981472
0.870115
0.910697
0.859698
0.888087
0.891639
0.900765
0.47225
0.477116
0.36863
0.378302
0.31497
0.329177
0.291796
0.30542
0.288324
0.297857
0.299055
0.30212
-0.472327
-0.477027
-0.368692
-0.377844
-0.314794
-0.328675
-0.291489
-0.305005
-0.28794
-0.297403
-0.298596
-0.301642
-1.40867
-1.42295
-1.09962
-1.12755
-0.939138
-0.980966
-0.869786
-0.910284
-0.859303
-0.887637
-0.89118
-0.90029
-2.32112
-2.34463
-1.81185
-1.85796
-1.54747
-1.61641
-1.43322
-1.49991
-1.41595
-1.46261
-1.46848
-1.48349
-3.19357
-3.22602
-2.49292
-2.55654
-2.12924
-2.22423
-1.97208
-2.06393
-1.94835
-2.01262
-2.02066
-2.04133
-4.01173
-4.05246
-3.13153
-3.21148
-2.67469
-2.79399
-2.47728
-2.59258
-2.44746
-2.52813
-2.53827
-2.56421
-4.76083
-4.80925
-3.71633
-3.8113
-3.17425
-3.3159
-2.94
-3.0769
-2.90463
-3.00043
-3.01242
-3.04323
-5.42894
-5.48412
-4.23779
-4.34613
-3.61966
-3.78117
-3.35255
-3.50859
-3.31219
-3.42138
-3.43508
-3.4702
-6.00363
-6.06473
-4.68647
-4.80633
-4.00298
-4.1816
-3.70762
-3.88022
-3.66301
-3.78381
-3.79894
-3.83779
-6.47619
-6.54203
-5.05529
-5.1846
-4.31802
-4.51067
-3.99939
-4.18552
-3.95126
-4.08151
-4.09788
-4.13978
-6.83725
-6.90685
-5.33728
-5.47377
-4.55891
-4.76232
-4.22253
-4.41914
-4.17173
-4.30935
-4.32657
-4.37083
-7.08211
-7.15408
-5.52834
-5.6697
-4.72209
-4.93273
-4.37361
-4.57716
-4.32096
-4.46342
-4.4813
-4.52712
-7.20485
-7.27817
-5.62438
-5.76812
-4.80412
-5.01842
-4.44962
-4.65679
-4.39612
-4.54114
-4.55929
-4.60592
)
;

boundaryField
{
    out
    {
        type            implicitExtrapolation;
    }
    in
    {
        type            implicitExtrapolation;
    }
    frontAndBack
    {
        type            empty;
    }
}


// ************************************************************************* //
