/*--------------------------------*- C++ -*----------------------------------*\
| =========                 |                                                 |
| \\      /  F ield         | foam-extend: Open Source CFD                    |
|  \\    /   O peration     | Version:  3.0                                   |
|   \\  /    A nd           | Web:         http://www.extend-project.de       |
|    \\/     M anipulation  |                                                 |
\*---------------------------------------------------------------------------*/
FoamFile
{
    version     2.0;
    format      ascii;
    class       volSymmTensorField;
    location    "27";
    object      sigma;
}
// * * * * * * * * * * * * * * * * * * * * * * * * * * * * * * * * * * * * * //

dimensions      [0 0 0 0 0 0 0];

internalField   nonuniform List<symmTensor> 
576
(
(1.95013 -0.0687387 3.00801e-18 -1.93809 3.66443e-18 4.88826e-36)
(2.02956 0.15454 8.0585e-18 -2.01711 -3.29352e-17 -1.6382e-34)
(2.33134 0.224879 -2.52858e-19 -2.32143 -1.6175e-17 -1.94123e-35)
(2.12669 0.251746 -2.32183e-18 -2.11725 -3.98279e-18 1.63229e-35)
(1.92716 0.246752 8.72238e-18 -1.91725 -3.18823e-18 2.46133e-35)
(1.64739 0.230173 6.92912e-18 -1.64061 1.59327e-18 1.38509e-36)
(1.39125 0.210418 -1.07785e-17 -1.3801 -5.08854e-18 -7.49534e-36)
(1.10611 0.184499 -1.49831e-17 -1.1008 2.44363e-17 -1.8624e-34)
(0.864099 0.163214 -2.04544e-17 -0.852597 1.22187e-17 -1.20149e-34)
(0.592393 0.136816 -1.40108e-17 -0.586175 8.17466e-18 -2.29102e-35)
(0.365803 0.115457 1.58548e-18 -0.3556 -1.21576e-17 5.91176e-35)
(0.116348 0.0945113 -1.16647e-17 -0.107196 -1.12719e-17 -5.48792e-36)
(2.11552 -0.165609 -1.83802e-17 -2.10367 -1.17333e-17 -9.43774e-35)
(1.97273 0.45634 -4.45582e-17 -1.96044 2.45299e-17 4.00286e-34)
(2.21814 0.656103 -3.26148e-18 -2.20842 1.35716e-17 2.20489e-34)
(1.97619 0.728045 3.11518e-18 -1.96689 -1.54944e-17 -2.84888e-35)
(1.77183 0.711651 1.50557e-17 -1.76209 -1.5222e-17 -3.10102e-36)
(1.49516 0.66189 -1.13385e-17 -1.48849 1.12506e-17 0)
(1.24625 0.603613 -1.91065e-17 -1.23529 4.3327e-17 -4.33949e-34)
(0.973515 0.527762 4.38227e-17 -0.968309 8.10886e-18 1.92499e-34)
(0.740929 0.465362 2.65521e-17 -0.729631 1.80142e-17 4.33481e-34)
(0.482738 0.388373 1.43915e-17 -0.476647 1.26155e-18 -4.08275e-34)
(0.266492 0.325921 -3.1057e-17 -0.256463 2.72536e-19 -3.01822e-34)
(0.0259609 0.264451 -2.94958e-17 -0.0169647 2.93342e-17 4.17558e-34)
(2.41322 -0.146958 4.62763e-18 -2.4018 3.81595e-18 -7.81813e-35)
(1.86337 0.737876 1.83823e-17 -1.85153 1.35045e-17 -4.02203e-35)
(2.00482 1.03457 -2.58384e-17 -1.99545 -2.00406e-17 -2.73958e-34)
(1.69516 1.12733 -5.05245e-17 -1.68619 4.58387e-17 -4.84755e-34)
(1.48247 1.09509 -1.95189e-17 -1.47307 7.3464e-18 3.3833e-34)
(1.21219 1.01207 3.76189e-17 -1.20576 1.64706e-17 -1.93576e-34)
(0.977169 0.917827 8.56601e-17 -0.966589 -2.67211e-17 1.0184e-33)
(0.7279 0.797631 4.42738e-18 -0.722875 9.48557e-18 1.21555e-34)
(0.513177 0.698134 8.08158e-17 -0.502268 -9.47521e-18 1.427e-33)
(0.280469 0.576919 3.01215e-17 -0.274583 2.25378e-18 1.01704e-33)
(0.083724 0.478105 -1.61792e-17 -0.0740469 2.95626e-17 -9.79064e-34)
(-0.139803 0.379811 4.16796e-17 0.148486 3.92283e-17 1.11223e-33)
(2.78229 0.042713 2.43589e-18 -2.77145 4.86954e-18 0)
(1.70966 0.98801 -9.49049e-19 -1.69842 -2.95572e-17 0)
(1.7157 1.33322 -3.62748e-17 -1.70682 5.82228e-17 3.17768e-34)
(1.32057 1.41057 8.38487e-17 -1.31206 -4.51666e-17 5.56862e-34)
(1.09847 1.35608 -4.23851e-17 -1.08957 1.67768e-17 -4.08137e-34)
(0.838241 1.23974 4.9221e-17 -0.832151 -3.50627e-17 7.74247e-34)
(0.622703 1.11359 -3.9571e-17 -0.612686 8.0267e-18 -1.05106e-33)
(0.405428 0.957455 1.05896e-16 -0.400671 -5.69781e-17 2.6818e-34)
(0.215229 0.827078 4.28766e-17 -0.204904 -7.04942e-17 -2.1848e-33)
(0.0170075 0.671203 1.78517e-17 -0.0114382 -3.04539e-17 -8.46014e-34)
(-0.153167 0.543222 4.67634e-17 0.16233 7.49946e-18 -2.98606e-34)
(-0.35325 0.413714 1.0222e-16 0.36147 -1.14507e-16 -1.81348e-34)
(3.14322 0.430389 -1.04304e-17 -3.13319 -3.44778e-20 0)
(1.52223 1.1991 -3.18431e-17 -1.51183 2.83611e-17 7.41023e-35)
(1.38263 1.53573 4.01271e-17 -1.3744 -1.98324e-17 -4.48743e-34)
(0.900651 1.55561 -4.35288e-17 -0.892775 1.70907e-17 -5.22424e-34)
(0.671321 1.47151 7.74649e-17 -0.663069 -5.72144e-17 -6.87484e-34)
(0.425263 1.32217 -8.74405e-17 -0.419623 -4.08232e-18 3.55774e-34)
(0.233465 1.16907 -1.64531e-17 -0.224182 -3.90265e-17 0)
(0.0534113 0.987234 -1.26293e-16 -0.049005 -2.06239e-17 1.61592e-33)
(-0.107964 0.833468 -1.16335e-16 0.117537 2.37908e-17 2.74563e-33)
(-0.266526 0.654505 -7.04942e-17 0.271684 -8.41776e-18 8.82325e-35)
(-0.405949 0.50601 1.49162e-17 0.414444 -5.66113e-17 -1.63818e-33)
(-0.578231 0.352149 -1.261e-16 0.585849 -1.95407e-18 1.81348e-34)
(3.4109 1.00951 3.7436e-18 -3.4018 1.24051e-17 0)
(1.31319 1.3676 2.81477e-17 -1.30376 -1.57158e-17 1.36452e-34)
(1.04049 1.63867 -1.55621e-17 -1.03302 -1.26848e-17 -5.75447e-35)
(0.488036 1.55997 -1.33892e-17 -0.480906 6.01045e-18 0)
(0.257024 1.43943 -5.88864e-17 -0.249555 2.54123e-17 2.41277e-34)
(0.0296773 1.25794 1.94203e-17 -0.0245802 -1.91909e-17 -1.9848e-34)
(-0.13567 1.08335 -1.25162e-16 0.144063 6.78174e-17 7.07307e-34)
(-0.276924 0.886438 1.52914e-16 0.280902 -7.35361e-18 -2.20667e-33)
(-0.407768 0.717185 1.74227e-17 0.416416 -2.6575e-17 -1.98783e-33)
(-0.525716 0.527078 -7.24003e-17 0.530374 5.51362e-17 1.52012e-33)
(-0.633284 0.367082 1.18133e-17 0.640957 2.07409e-17 0)
(-0.775742 0.196156 -1.90883e-17 0.782622 4.88686e-17 0)
(3.50755 1.73985 2.8959e-18 -3.49959 4.64535e-18 0)
(1.09418 1.49393 -1.52084e-17 -1.08594 5.0068e-17 -6.19699e-34)
(0.722048 1.65141 1.07114e-16 -0.715509 -3.83488e-17 2.09062e-33)
(0.131668 1.44091 -1.39961e-17 -0.12543 -2.56149e-17 0)
(-0.0923751 1.27899 4.15192e-17 0.0989172 -1.79386e-17 -7.71254e-35)
(-0.296157 1.06703 -5.45273e-17 0.300626 1.94713e-17 6.34386e-35)
(-0.43382 0.876323 1.38477e-16 0.441169 -1.22352e-17 6.13986e-34)
(-0.538121 0.674109 1.1438e-16 0.541613 -3.82136e-17 2.51103e-34)
(-0.639184 0.49673 -1.74646e-16 0.646761 3.39584e-17 -1.52237e-33)
(-0.719534 0.306271 4.43718e-17 0.723616 1.73e-17 -5.37869e-34)
(-0.797075 0.14299 -1.25054e-17 0.803801 -2.19338e-17 0)
(-0.909908 -0.0381271 -1.92673e-17 0.915937 3.78308e-17 0)
(3.37574 2.55305 4.85076e-18 -3.36899 5.41243e-18 0)
(0.875223 1.5822 6.09141e-17 -0.868251 -1.16267e-18 4.57508e-34)
(0.453423 1.59439 -4.20741e-17 -0.447884 -1.62348e-17 -1.7759e-33)
(-0.130219 1.23259 -6.64811e-17 0.135482 3.73552e-17 -1.90312e-35)
(-0.336469 1.02738 2.25596e-17 0.341993 -1.22157e-17 -1.50024e-35)
(-0.511762 0.787604 1.3547e-17 0.515528 -4.91604e-17 2.05302e-34)
(-0.621786 0.585641 2.32141e-17 0.627975 1.36763e-17 0)
(-0.693738 0.385847 -7.9297e-17 0.69668 -2.8337e-17 -5.18598e-34)
(-0.767761 0.206355 -1.63638e-16 0.774134 3.80249e-17 3.3994e-33)
(-0.816669 0.0238401 3.75993e-17 0.820106 2.20562e-17 5.68556e-34)
(-0.868344 -0.136273 -3.42443e-17 0.874001 1.08099e-17 7.07649e-34)
(-0.95357 -0.321838 8.89871e-17 0.958643 -7.5521e-18 -1.18147e-33)
(2.98732 3.36208 2.35796e-17 -2.98198 -1.45779e-18 7.00638e-35)
(0.663379 1.63897 -3.49385e-17 -0.65786 -7.66402e-18 -5.42255e-35)
(0.250323 1.49548 -6.64929e-17 -0.245931 4.45884e-17 -2.08009e-34)
(-0.275811 0.980483 1.59998e-16 0.279984 -4.87941e-17 9.82996e-34)
(-0.452475 0.733862 -1.55665e-16 0.456855 4.70798e-17 -3.99688e-34)
(-0.594576 0.470031 1.36867e-16 0.597573 -8.27075e-18 1.04123e-33)
(-0.677908 0.260835 7.18189e-17 0.682819 -9.75208e-17 -1.97219e-33)
(-0.723809 0.0683794 -2.01965e-16 0.726153 -1.00179e-17 2.52574e-33)
(-0.774796 -0.109104 -3.18016e-17 0.77986 4.51183e-17 -1.30396e-33)
(-0.800311 -0.278785 -2.01655e-18 0.803044 2.26744e-19 -3.54047e-36)
(-0.8317 -0.431708 7.96937e-18 0.836197 4.60553e-17 -3.06582e-34)
(-0.892516 -0.617619 8.46349e-17 0.896548 -1.89668e-17 1.18147e-33)
(2.34908 4.07408 7.23856e-18 -2.34515 1.46615e-17 0)
(0.462328 1.67213 2.7482e-17 -0.458295 -8.34987e-18 5.79349e-35)
(0.116275 1.38558 5.69378e-17 -0.113053 1.28762e-18 1.92352e-34)
(-0.302593 0.734303 -1.22422e-16 0.305628 2.90644e-17 -1.16994e-33)
(-0.438391 0.45212 1.22443e-16 0.441581 -1.25484e-17 6.20599e-34)
(-0.543179 0.169093 -4.15271e-17 0.545358 3.87497e-17 -3.84727e-34)
(-0.601216 -0.0443257 -8.91245e-17 0.604775 -8.35009e-18 -6.56171e-34)
(-0.627821 -0.227647 5.89715e-17 0.629526 -1.30351e-17 -6.17169e-34)
(-0.660164 -0.401139 6.377e-17 0.663829 3.25478e-17 -8.7643e-34)
(-0.670739 -0.556848 5.70127e-17 0.672719 7.20401e-18 5.49833e-35)
(-0.687772 -0.701253 1.69419e-16 0.691026 -2.85815e-17 1.57294e-34)
(-0.7278 -0.885259 -8.47887e-17 0.730718 -3.11661e-18 -1.43494e-35)
(1.50206 4.60372 7.36889e-18 -1.4997 -2.02728e-18 0)
(0.272087 1.68918 -4.54091e-17 -0.269659 1.58124e-17 -5.33146e-35)
(0.0423621 1.29347 -5.2331e-17 -0.0404161 -2.28754e-18 -1.19819e-34)
(-0.227497 0.540169 6.80415e-17 0.229322 -1.0175e-17 -4.83759e-35)
(-0.313104 0.231937 -6.42021e-17 0.315024 2.00582e-17 2.8341e-35)
(-0.377342 -0.0644824 1.4844e-17 0.37866 -1.85517e-17 0)
(-0.41149 -0.280072 -4.198e-17 0.413631 3.02318e-17 -3.87964e-34)
(-0.424728 -0.455387 2.64695e-17 0.425763 2.88464e-17 2.07868e-34)
(-0.442341 -0.624903 -1.63224e-17 0.44455 8.13393e-18 -4.69183e-34)
(-0.445327 -0.769005 -1.37218e-18 0.446522 2.31783e-17 -8.27912e-34)
(-0.45319 -0.906085 -6.52976e-18 0.455153 -3.08644e-17 2.38358e-34)
(-0.475687 -1.08767 3.43621e-17 0.477447 -3.01248e-17 6.01513e-34)
(0.516795 4.88614 1.50007e-18 -0.515969 -1.28839e-17 0)
(0.089733 1.69611 3.62611e-18 -0.0889108 -1.13658e-17 -5.92617e-35)
(0.00927163 1.2414 -9.21683e-18 -0.00859262 2.07209e-17 -4.0871e-35)
(-0.0838849 0.433514 -1.27297e-17 0.0844861 8.87383e-19 9.29325e-36)
(-0.113154 0.111501 4.20719e-17 0.113789 -1.28964e-17 -3.25624e-36)
(-0.134789 -0.191802 -1.21004e-17 0.135227 1.67503e-18 1.17666e-35)
(-0.146061 -0.408271 8.36872e-18 0.146748 3.13472e-18 -1.88745e-36)
(-0.149978 -0.578969 -1.88393e-17 0.150323 6.55737e-18 -2.06291e-34)
(-0.155541 -0.746077 2.59015e-17 0.156251 -2.62607e-18 -9.95103e-35)
(-0.155925 -0.88364 -1.29578e-17 0.156309 2.85317e-18 -1.92932e-34)
(-0.158145 -1.01653 -3.99896e-18 0.158776 3.12975e-19 -2.65592e-34)
(-0.165366 -1.19654 7.21981e-18 0.165931 -9.86545e-18 4.39626e-35)
(-0.516874 4.88609 2.76243e-18 0.516104 9.57338e-18 2.02848e-35)
(-0.0897689 1.6961 2.21982e-17 0.0889452 1.52809e-17 3.47866e-35)
(-0.00939684 1.24137 2.95385e-18 0.00876691 3.8254e-18 3.33801e-35)
(0.0838553 0.43351 -8.84176e-18 -0.0844995 9.65069e-20 -4.94259e-35)
(0.113071 0.111488 -1.13792e-17 -0.11374 -8.27979e-18 9.4536e-35)
(0.134747 -0.191811 1.06627e-17 -0.1352 2.78595e-18 1.74034e-35)
(0.145983 -0.408284 -7.71134e-18 -0.146757 -1.01677e-17 6.91561e-36)
(0.149952 -0.578976 -1.61178e-18 -0.1503 -2.26301e-17 1.44191e-34)
(0.155486 -0.746085 -9.69019e-18 -0.15628 -4.12895e-18 1.95661e-34)
(0.155941 -0.883636 -7.36304e-18 -0.156369 1.02898e-17 1.64189e-34)
(0.158116 -1.01653 -7.35436e-19 -0.158821 1.60516e-17 4.52253e-36)
(0.16537 -1.19654 -3.25107e-19 -0.166003 -2.60097e-18 -1.51323e-35)
(-1.50217 4.60375 1.37873e-17 1.49985 -3.32102e-18 -2.08777e-35)
(-0.272144 1.68921 -4.77229e-17 0.269705 -1.08857e-17 4.22259e-34)
(-0.0424888 1.29344 -4.77261e-17 0.0405794 4.24394e-18 5.15781e-35)
(0.227458 0.540175 -2.53528e-17 -0.229332 2.0135e-17 -2.57519e-34)
(0.313021 0.231914 2.60097e-17 -0.314981 2.28579e-18 9.39966e-35)
(0.377301 -0.064502 9.48371e-18 -0.378637 -3.38526e-17 0)
(0.411418 -0.280099 -7.77907e-17 -0.413646 -2.84617e-17 1.18082e-34)
(0.424702 -0.455404 2.2868e-17 -0.425744 -6.17328e-18 -1.49967e-34)
(0.442289 -0.624923 6.76568e-17 -0.444582 -8.00391e-18 -6.67888e-34)
(0.445341 -0.768998 4.31263e-17 -0.446581 2.05569e-17 -8.89833e-35)
(0.453163 -0.90609 -2.52983e-17 -0.455199 -7.59659e-19 7.22528e-35)
(0.475696 -1.08768 -3.62839e-17 -0.477524 1.36833e-17 1.64267e-34)
(-2.34912 4.07404 -8.3177e-18 2.34527 -2.39563e-17 1.82249e-34)
(-0.462376 1.67214 7.8746e-17 0.458359 9.65491e-18 -7.47844e-34)
(-0.11636 1.38551 5.53039e-17 0.113198 2.89708e-18 9.53204e-35)
(0.302563 0.734306 -3.75536e-17 -0.305633 -6.22815e-18 4.42106e-34)
(0.438333 0.452084 -1.12589e-16 -0.441544 7.55877e-18 1.29897e-34)
(0.543152 0.169065 -2.12211e-17 -0.545346 -4.00741e-18 -2.86074e-34)
(0.601169 -0.0443673 1.06234e-16 -0.604803 1.20616e-17 1.09437e-34)
(0.627806 -0.22767 -2.93476e-17 -0.629517 -7.71049e-18 1.62402e-34)
(0.660129 -0.401169 4.39366e-17 -0.663872 -8.46041e-19 1.64438e-33)
(0.670754 -0.556834 4.96869e-17 -0.672776 -1.39073e-17 9.83138e-34)
(0.687749 -0.701257 -6.07211e-18 -0.691074 -3.0149e-17 9.03101e-34)
(0.72781 -0.885254 8.52099e-17 -0.730794 2.71545e-17 -9.36096e-34)
(-2.98743 3.36208 2.72613e-18 2.98212 1.08456e-17 0)
(-0.663475 1.63899 -1.3e-17 0.657943 -1.60594e-17 0)
(-0.250415 1.49541 -6.37396e-17 0.24605 -3.87187e-17 1.19699e-33)
(0.27576 0.980491 1.57469e-16 -0.27998 1.54327e-17 -1.26613e-34)
(0.452413 0.733822 7.46159e-18 -0.456831 2.55456e-17 5.16951e-34)
(0.594549 0.469999 -4.04551e-17 -0.59757 5.62222e-17 5.20846e-34)
(0.67787 0.260786 -1.52273e-16 -0.682859 -2.68594e-17 -1.90738e-33)
(0.723795 0.0683495 3.43062e-17 -0.726154 3.38376e-17 1.24067e-33)
(0.774771 -0.109143 -3.50316e-17 -0.779909 1.43705e-17 6.36473e-34)
(0.800319 -0.278772 8.32805e-18 -0.803098 -6.4061e-17 5.10925e-34)
(0.831682 -0.431717 1.6347e-18 -0.836246 -2.36124e-17 1.99902e-34)
(0.892538 -0.617619 8.16186e-17 -0.896635 -3.49521e-17 1.49752e-33)
(-3.37577 2.55302 3.64626e-18 3.36909 -1.00381e-17 0)
(-0.875302 1.58219 -6.15036e-18 0.868365 -3.09218e-17 5.7722e-34)
(-0.453466 1.59431 7.44312e-17 0.447986 6.12272e-17 -7.03306e-34)
(0.130178 1.2326 -1.45203e-16 -0.135465 -2.32287e-17 -5.35266e-34)
(0.336431 1.02735 1.53749e-16 -0.341965 2.71467e-17 -5.84055e-34)
(0.511749 0.787572 -5.23384e-17 -0.515537 1.05521e-17 -1.23916e-34)
(0.621778 0.585594 3.56164e-17 -0.628024 3.54476e-17 0)
(0.693736 0.385818 -7.56039e-17 -0.696693 3.78074e-17 1.00352e-33)
(0.767761 0.206319 -1.76625e-16 -0.774198 -1.08135e-17 -3.47708e-33)
(0.816678 0.0238582 -1.134e-16 -0.820157 -1.54773e-17 -3.09924e-33)
(0.868336 -0.136278 3.4351e-17 -0.874054 4.9247e-17 1.57943e-33)
(0.953595 -0.321827 -1.71685e-16 -0.958728 -5.50239e-17 -1.49752e-33)
(-3.50764 1.73983 7.94171e-18 3.49971 -1.34965e-17 0)
(-1.0943 1.49391 3.65134e-17 1.08605 1.10269e-17 -2.9868e-34)
(-0.722099 1.65134 3.68297e-17 0.71558 2.2301e-18 -7.4241e-34)
(-0.131729 1.44091 1.78557e-17 0.125451 3.15775e-17 0)
(0.0923337 1.27895 -7.19927e-17 -0.0989057 -2.60273e-17 1.66922e-34)
(0.296147 1.06699 9.40884e-17 -0.300647 1.46677e-17 -1.37314e-34)
(0.433828 0.876273 -7.23305e-17 -0.441236 -5.39083e-17 2.24433e-33)
(0.538125 0.674072 1.90462e-16 -0.54164 5.85639e-17 -2.8781e-33)
(0.639205 0.496689 6.52045e-17 -0.646838 3.37016e-17 1.19622e-33)
(0.719542 0.306283 -3.77522e-17 -0.72367 6.01239e-18 -2.34889e-34)
(0.797079 0.142984 2.47094e-18 -0.80386 -9.69747e-18 0)
(0.909945 -0.038111 3.35097e-17 -0.916031 5.79727e-17 0)
(-3.41091 1.00948 -4.81843e-18 3.40187 -1.43337e-18 0)
(-1.31328 1.36755 -3.89527e-17 1.3039 -3.28981e-17 4.38259e-35)
(-1.0405 1.63861 6.47291e-17 1.03308 1.92044e-17 7.28309e-34)
(-0.488079 1.55996 5.85316e-18 0.480933 -1.07189e-17 0)
(-0.257046 1.43938 6.86414e-17 0.249564 2.64659e-17 -3.21057e-34)
(-0.0296682 1.25791 -4.89655e-17 0.0245442 -2.93509e-17 2.64106e-34)
(0.135705 1.08331 5.71936e-17 -0.144138 5.30388e-17 8.10942e-34)
(0.276943 0.88641 -2.91051e-17 -0.280947 2.14905e-17 5.14927e-33)
(0.407816 0.717162 -1.14152e-16 -0.416508 -8.58173e-17 -2.91149e-33)
(0.525729 0.527099 1.05335e-16 -0.530429 -4.17335e-18 2.3853e-33)
(0.633299 0.367093 -2.38762e-18 -0.641021 1.79581e-17 0)
(0.775782 0.196188 1.53442e-17 -0.782713 2.0683e-17 0)
(-3.14328 0.430358 7.7343e-18 3.13327 -1.24382e-18 0)
(-1.52234 1.19903 -8.38123e-18 1.51195 3.43185e-17 4.58462e-34)
(-1.38265 1.53567 -6.92489e-17 1.37443 -4.89312e-17 -6.514e-34)
(-0.900708 1.55559 -5.80137e-18 0.892801 -6.07359e-18 9.93521e-34)
(-0.671339 1.47146 -1.19698e-17 0.663062 -2.92807e-17 5.53877e-34)
(-0.425245 1.32214 6.94831e-17 0.419574 5.83505e-17 -1.02437e-34)
(-0.233407 1.16905 -7.72446e-17 0.224084 2.07051e-17 0)
(-0.0533747 0.987212 -5.96987e-17 0.0489431 -9.056e-18 -2.69992e-33)
(0.108038 0.833464 -6.2076e-17 -0.117645 -9.35616e-18 -2.39909e-34)
(0.266546 0.654527 1.29648e-17 -0.271743 -8.06683e-18 -7.61386e-35)
(0.405972 0.506036 1.37246e-18 -0.414508 9.77777e-19 9.86942e-34)
(0.578274 0.352194 7.61773e-17 -0.585935 3.71023e-17 1.20537e-33)
(-2.78229 0.0426714 -1.11932e-18 2.7715 1.16377e-17 7.91547e-35)
(-1.70973 0.987886 -1.09065e-17 1.69853 -1.33863e-17 -6.12612e-35)
(-1.71572 1.33317 1.12312e-18 1.70685 -1.08867e-17 -8.14385e-34)
(-1.32061 1.41054 8.52817e-17 1.31209 3.23015e-17 -7.03585e-34)
(-1.09848 1.35603 -8.0139e-17 1.08956 -2.26451e-17 1.19739e-34)
(-0.838218 1.23973 8.54208e-17 0.832106 -4.61246e-19 -6.94104e-34)
(-0.622636 1.11359 7.38518e-17 0.612591 7.41962e-17 2.93025e-34)
(-0.405391 0.957452 -4.51748e-17 0.400614 2.01307e-17 3.61582e-34)
(-0.215154 0.827107 5.15255e-17 0.204801 1.64515e-17 9.12073e-34)
(-0.0169923 0.67124 1.03354e-17 0.0113918 2.48284e-17 6.2198e-34)
(0.153188 0.543271 1.46845e-18 -0.162387 2.64024e-17 5.59289e-34)
(0.353285 0.413777 -2.75327e-17 -0.361541 -5.31876e-17 -1.20537e-33)
(-2.41326 -0.146989 -3.67288e-18 2.40185 -1.2341e-17 0)
(-1.86347 0.737722 9.47747e-18 1.85163 -8.05812e-18 3.20893e-34)
(-2.00485 1.03453 -4.25773e-19 1.99548 9.96841e-18 6.08808e-36)
(-1.69523 1.12727 -6.09635e-17 1.68623 -5.8467e-17 3.43823e-35)
(-1.48249 1.09505 7.20152e-17 1.47307 1.99981e-17 -2.03954e-34)
(-1.21218 1.01206 -7.12618e-17 1.20572 -3.99817e-17 5.89431e-34)
(-0.977108 0.917859 2.89218e-17 0.966507 -4.34975e-17 7.10093e-34)
(-0.727865 0.797634 1.25076e-16 0.722818 2.18889e-17 -1.40592e-33)
(-0.513106 0.698192 6.50038e-17 0.50218 -2.20665e-17 -2.00797e-33)
(-0.280446 0.576948 7.27723e-17 0.274534 -7.8714e-18 -1.56295e-33)
(-0.0837101 0.478157 9.2049e-17 0.0740013 2.61346e-17 -1.70058e-33)
(0.139831 0.379887 -8.17319e-17 -0.148545 -1.68473e-19 -2.71043e-34)
(-2.11553 -0.165601 -2.42087e-17 2.10371 5.608e-18 0)
(-1.97278 0.456202 -2.74512e-17 1.96053 -1.4877e-17 -4.27007e-34)
(-2.21816 0.65604 6.18733e-18 2.20845 -2.41687e-17 -4.32065e-35)
(-1.97621 0.727997 2.15546e-17 1.9669 3.34155e-17 5.60173e-35)
(-1.77183 0.711625 -4.07786e-17 1.76208 -2.63938e-17 -8.15359e-35)
(-1.49514 0.661919 1.59398e-17 1.48846 1.38538e-17 0)
(-1.2462 0.603671 -4.14794e-17 1.23523 -1.42121e-17 7.03213e-35)
(-0.973496 0.5278 5.96847e-18 0.968269 -4.30112e-17 -5.54567e-35)
(-0.740877 0.46543 -2.91967e-17 0.729568 -2.85951e-17 -2.59481e-35)
(-0.48273 0.388418 -1.87924e-17 0.47661 -4.42719e-17 2.04671e-34)
(-0.266468 0.325977 -2.15776e-18 0.256418 -3.356e-17 8.23834e-34)
(-0.0259449 0.264555 2.96284e-17 0.0169254 4.82381e-17 -4.79674e-34)
(-1.95012 -0.0687951 -4.95791e-19 1.93809 6.82391e-18 0)
(-2.0296 0.15435 6.3368e-18 2.01713 3.1281e-17 1.49092e-34)
(-2.33136 0.224796 -7.62274e-19 2.32147 6.32277e-18 1.21435e-36)
(-2.12667 0.251651 1.22213e-17 2.1172 -1.5264e-17 1.53587e-36)
(-1.92715 0.246717 1.56917e-17 1.91723 1.8177e-17 2.17866e-35)
(-1.64737 0.230192 -8.20715e-18 1.64057 -3.66931e-18 1.16281e-35)
(-1.39123 0.210489 1.5576e-17 1.38007 4.38176e-18 -2.40232e-35)
(-1.1061 0.184541 -2.4233e-17 1.10079 -8.01713e-18 7.55206e-35)
(-0.864074 0.163296 -4.51793e-18 0.852574 2.46341e-18 -6.59159e-37)
(-0.592388 0.136869 -3.41713e-17 0.586163 -4.62786e-18 1.62861e-35)
(-0.365782 0.115508 -1.9983e-17 0.355562 -4.09535e-18 7.99131e-35)
(-0.116341 0.0946241 2.46623e-18 0.107168 -1.68037e-17 -3.03241e-35)
(-1.95011 0.0687368 3.00848e-18 1.93808 3.66557e-18 -4.88976e-36)
(-2.02958 -0.154531 8.05886e-18 2.01711 -3.29371e-17 1.63832e-34)
(-2.33136 -0.224877 -2.52502e-19 2.32147 -1.61752e-17 1.94108e-35)
(-2.12667 -0.25169 -2.32157e-18 2.1172 -3.98403e-18 -1.63211e-35)
(-1.92715 -0.246747 8.72147e-18 1.91723 -3.18937e-18 -2.46115e-35)
(-1.64738 -0.230149 6.92865e-18 1.64058 1.59229e-18 -1.38454e-36)
(-1.39124 -0.210407 -1.07787e-17 1.38009 -5.0891e-18 7.49193e-36)
(-1.10611 -0.18449 -1.49832e-17 1.1008 2.44366e-17 1.8624e-34)
(-0.864085 -0.163198 -2.04538e-17 0.852592 1.22194e-17 1.20151e-34)
(-0.592392 -0.136818 -1.40107e-17 0.58617 8.17506e-18 2.29129e-35)
(-0.365786 -0.115448 1.58517e-18 0.355572 -1.21573e-17 -5.91178e-35)
(-0.116351 -0.0945127 -1.1665e-17 0.107183 -1.1272e-17 5.48932e-36)
(-2.11552 0.165544 -1.83815e-17 2.1037 -1.17334e-17 9.43819e-35)
(-1.97272 -0.456366 -4.45597e-17 1.96046 2.45309e-17 -4.00319e-34)
(-2.21816 -0.656123 -3.26134e-18 2.20844 1.35715e-17 -2.20481e-34)
(-1.97619 -0.728033 3.11423e-18 1.96689 -1.54948e-17 2.8466e-35)
(-1.77183 -0.711657 1.50555e-17 1.76209 -1.52208e-17 3.11513e-36)
(-1.49517 -0.661884 -1.13383e-17 1.48849 1.12513e-17 0)
(-1.24623 -0.603598 -1.91055e-17 1.23528 4.33276e-17 4.33947e-34)
(-0.973525 -0.527756 4.38237e-17 0.968296 8.10951e-18 -1.92497e-34)
(-0.740908 -0.465341 2.65522e-17 0.729618 1.80145e-17 -4.33492e-34)
(-0.482743 -0.38837 1.43913e-17 0.476629 1.26149e-18 4.08272e-34)
(-0.266481 -0.32592 -3.10573e-17 0.256447 2.72654e-19 3.0183e-34)
(-0.025975 -0.264451 -2.94957e-17 0.0169687 2.9334e-17 -4.17558e-34)
(-2.41326 0.146926 4.6286e-18 2.40183 3.81581e-18 7.81913e-35)
(-1.86336 -0.737859 1.83826e-17 1.85153 1.35064e-17 4.02202e-35)
(-2.00485 -1.03462 -2.5839e-17 1.99546 -2.00398e-17 2.73954e-34)
(-1.6952 -1.12729 -5.05251e-17 1.68621 4.58405e-17 4.84762e-34)
(-1.48248 -1.09509 -1.95195e-17 1.47308 7.34625e-18 -3.38298e-34)
(-1.21222 -1.01203 3.76181e-17 1.20576 1.64707e-17 1.93551e-34)
(-0.977151 -0.917805 8.56606e-17 0.966583 -2.67215e-17 -1.0184e-33)
(-0.727909 -0.797604 4.42762e-18 0.722859 9.48565e-18 -1.21555e-34)
(-0.513152 -0.69812 8.08162e-17 0.502258 -9.4754e-18 -1.427e-33)
(-0.280466 -0.576906 3.01214e-17 0.274565 2.25365e-18 -1.01705e-33)
(-0.08373 -0.478109 -1.61795e-17 0.0740473 2.95627e-17 9.79066e-34)
(0.139785 -0.379796 4.1679e-17 -0.148476 3.9229e-17 -1.11224e-33)
(-2.78229 -0.0427292 2.43655e-18 2.77146 4.86894e-18 0)
(-1.7096 -0.987982 -9.48958e-19 1.69839 -2.95569e-17 0)
(-1.71571 -1.33326 -3.62732e-17 1.70682 5.82218e-17 -3.17752e-34)
(-1.32057 -1.41056 8.38495e-17 1.31207 -4.5166e-17 -5.56893e-34)
(-1.09847 -1.35607 -4.23856e-17 1.08956 1.67753e-17 4.08145e-34)
(-0.838262 -1.23972 4.92201e-17 0.832151 -3.50631e-17 -7.74241e-34)
(-0.622685 -1.11356 -3.957e-17 0.612684 8.02606e-18 1.05103e-33)
(-0.405445 -0.95744 1.05896e-16 0.400662 -5.6978e-17 -2.68151e-34)
(-0.215208 -0.827057 4.28772e-17 0.204898 -7.04954e-17 2.18484e-33)
(-0.0170172 -0.671204 1.78521e-17 0.0114308 -3.04543e-17 8.46031e-34)
(0.153164 -0.543233 4.67644e-17 -0.162329 7.49924e-18 2.98621e-34)
(0.353227 -0.413705 1.0222e-16 -0.361454 -1.14508e-16 1.81346e-34)
(-3.14326 -0.430425 -1.04296e-17 3.13322 -3.45062e-20 0)
(-1.5222 -1.19908 -3.18437e-17 1.51181 2.83619e-17 -7.40917e-35)
(-1.38263 -1.53578 4.01272e-17 1.37439 -1.98333e-17 4.48709e-34)
(-0.900666 -1.5556 -4.35292e-17 0.892785 1.70893e-17 5.22437e-34)
(-0.671321 -1.47151 7.74651e-17 0.663069 -5.72141e-17 6.87484e-34)
(-0.425289 -1.32216 -8.74416e-17 0.419624 -4.08224e-18 -3.55775e-34)
(-0.233453 -1.16905 -1.64537e-17 0.224188 -3.90263e-17 0)
(-0.0534297 -0.98722 -1.26294e-16 0.0489936 -2.0624e-17 -1.6159e-33)
(0.107984 -0.833441 -1.16335e-16 -0.117536 2.37904e-17 -2.7457e-33)
(0.266519 -0.6545 -7.04932e-17 -0.271697 -8.41769e-18 -8.8269e-35)
(0.405948 -0.506011 1.4916e-17 -0.414439 -5.66116e-17 1.63821e-33)
(0.578212 -0.352142 -1.26099e-16 -0.585834 -1.95385e-18 -1.81346e-34)
(-3.4109 -1.00954 3.74455e-18 3.40182 1.24054e-17 0)
(-1.31315 -1.36756 2.81473e-17 1.30376 -1.57162e-17 -1.3646e-34)
(-1.04048 -1.63871 -1.55628e-17 1.03301 -1.26848e-17 5.75578e-35)
(-0.488038 -1.55996 -1.33898e-17 0.480917 6.01072e-18 0)
(-0.257019 -1.43943 -5.88858e-17 0.249562 2.54121e-17 -2.4128e-34)
(-0.0297065 -1.25794 1.94198e-17 0.0245851 -1.91904e-17 1.98482e-34)
(0.13567 -1.08333 -1.25161e-16 -0.144039 6.7818e-17 -7.07289e-34)
(0.276894 -0.886437 1.52913e-16 -0.280905 -7.35197e-18 2.20664e-33)
(0.40777 -0.717163 1.74211e-17 -0.416399 -2.65749e-17 1.98786e-33)
(0.525701 -0.527081 -7.24005e-17 -0.53038 5.51363e-17 -1.52014e-33)
(0.633278 -0.367081 1.18135e-17 -0.640949 2.07412e-17 0)
(0.775722 -0.196157 -1.90886e-17 -0.782608 4.8869e-17 0)
(-3.50759 -1.73989 2.89639e-18 3.49962 4.64548e-18 0)
(-1.09417 -1.49389 -1.52084e-17 1.08593 5.00678e-17 6.19705e-34)
(-0.722045 -1.65145 1.07114e-16 0.715497 -3.83493e-17 -2.09059e-33)
(-0.131687 -1.44091 -1.3996e-17 0.125445 -2.56151e-17 0)
(0.0923761 -1.279 4.15187e-17 -0.0989124 -1.79381e-17 7.71232e-35)
(0.296123 -1.06704 -5.45271e-17 -0.300615 1.94712e-17 -6.34367e-35)
(0.433813 -0.876314 1.38476e-16 -0.441144 -1.22346e-17 -6.13988e-34)
(0.538089 -0.674115 1.1438e-16 -0.541609 -3.82146e-17 -2.51075e-34)
(0.639176 -0.496711 -1.74645e-16 -0.646735 3.39573e-17 1.52238e-33)
(0.719517 -0.306274 4.43717e-17 -0.723618 1.73006e-17 5.37886e-34)
(0.797066 -0.142983 -1.25053e-17 -0.803786 -2.19338e-17 0)
(0.909892 0.0381235 -1.92679e-17 -0.915925 3.78314e-17 0)
(-3.37574 -2.55307 4.85127e-18 3.36901 5.41291e-18 0)
(-0.875214 -1.58214 6.09135e-17 0.868273 -1.16377e-18 -4.57503e-34)
(-0.453405 -1.5944 -4.20735e-17 0.447882 -1.62357e-17 1.77589e-33)
(0.13021 -1.23258 -6.64813e-17 -0.135465 3.73558e-17 1.90645e-35)
(0.33648 -1.02739 2.25603e-17 -0.341984 -1.22155e-17 1.5024e-35)
(0.51174 -0.78762 1.35465e-17 -0.515524 -4.91602e-17 -2.05309e-34)
(0.621785 -0.585644 2.32133e-17 -0.627952 1.36753e-17 0)
(0.693716 -0.385867 -7.92971e-17 -0.696682 -2.83381e-17 5.18586e-34)
(0.767752 -0.206354 -1.63638e-16 -0.77411 3.80249e-17 -3.39945e-33)
(0.816656 -0.0238554 3.75995e-17 -0.820108 2.20568e-17 -5.68551e-34)
(0.868331 0.136271 -3.42439e-17 -0.873985 1.08109e-17 -7.0765e-34)
(0.953554 0.321825 8.89866e-17 -0.95863 -7.55264e-18 1.1815e-33)
(-2.98735 -3.36211 2.35794e-17 2.982 -1.45751e-18 -7.00645e-35)
(-0.663396 -1.63894 -3.49377e-17 0.657874 -7.66488e-18 5.42261e-35)
(-0.250318 -1.49549 -6.64936e-17 0.24592 4.45899e-17 2.07967e-34)
(0.275796 -0.980483 1.59998e-16 -0.279973 -4.87941e-17 -9.83024e-34)
(0.452485 -0.733869 -1.55666e-16 -0.456859 4.708e-17 3.99673e-34)
(0.594562 -0.470052 1.36868e-16 -0.597573 -8.27054e-18 -1.04123e-33)
(0.677908 -0.260842 7.18182e-17 -0.682804 -9.75207e-17 1.97218e-33)
(0.723797 -0.0684031 -2.01965e-16 -0.72616 -1.00175e-17 -2.52572e-33)
(0.774786 0.109101 -3.18031e-17 -0.779836 4.51195e-17 1.30402e-33)
(0.800304 0.278769 -2.01713e-18 -0.803048 2.27058e-19 3.55685e-36)
(0.831688 0.431705 7.96763e-18 -0.83618 4.60562e-17 3.06631e-34)
(0.89251 0.617608 8.46358e-17 -0.896543 -1.89681e-17 -1.1815e-33)
(-2.34908 -4.07407 7.23831e-18 2.34517 1.46615e-17 0)
(-0.462345 -1.67208 2.74829e-17 0.458327 -8.34981e-18 -5.79283e-35)
(-0.116266 -1.38557 5.69372e-17 0.113058 1.28683e-18 -1.92349e-34)
(0.302585 -0.734291 -1.22421e-16 -0.305618 2.90649e-17 1.16995e-33)
(0.438405 -0.452116 1.22442e-16 -0.441581 -1.25481e-17 -6.20619e-34)
(0.543179 -0.169105 -4.15268e-17 -0.545368 3.87485e-17 3.84751e-34)
(0.601225 0.0443217 -8.9123e-17 -0.604769 -8.34926e-18 6.56187e-34)
(0.627823 0.227627 5.89713e-17 -0.629543 -1.30337e-17 6.17147e-34)
(0.660163 0.401131 6.377e-17 -0.663818 3.2548e-17 8.76394e-34)
(0.670742 0.55683 5.7013e-17 -0.672732 7.20514e-18 -5.5008e-35)
(0.687764 0.701244 1.69419e-16 -0.691016 -2.85826e-17 -1.5742e-34)
(0.727795 0.88524 -8.47888e-17 -0.730716 -3.11785e-18 1.43977e-35)
(-1.50208 -4.60373 7.36872e-18 1.49971 -2.02762e-18 0)
(-0.272109 -1.68916 -4.5409e-17 0.269679 1.58119e-17 5.33068e-35)
(-0.0423589 -1.29347 -5.23302e-17 0.0404115 -2.2871e-18 1.19815e-34)
(0.227492 -0.540168 6.80408e-17 -0.229319 -1.01748e-17 4.83785e-35)
(0.313116 -0.231935 -6.42012e-17 -0.315028 2.0058e-17 -2.83434e-35)
(0.377348 0.0644685 1.4844e-17 -0.378673 -1.85517e-17 0)
(0.4115 0.280066 -4.198e-17 -0.413625 3.02319e-17 3.87954e-34)
(0.424736 0.455369 2.64702e-17 -0.425782 2.88465e-17 -2.07867e-34)
(0.442343 0.624894 -1.63216e-17 -0.444538 8.13372e-18 4.69181e-34)
(0.445334 0.76899 -1.37153e-18 -0.446536 2.31779e-17 8.27911e-34)
(0.453186 0.906077 -6.52804e-18 -0.455142 -3.08644e-17 -2.3833e-34)
(0.475692 1.08766 3.43614e-17 -0.47745 -3.01249e-17 -6.01517e-34)
(-0.516814 -4.88611 1.49996e-18 0.515995 -1.28839e-17 0)
(-0.0897618 -1.69608 3.62581e-18 0.0889416 -1.13659e-17 5.92641e-35)
(-0.00928056 -1.24139 -9.21711e-18 0.00860939 2.07209e-17 4.08705e-35)
(0.083875 -0.433503 -1.27295e-17 -0.0844777 8.87761e-19 -9.29259e-36)
(0.113154 -0.111491 4.20714e-17 -0.113783 -1.28964e-17 3.25558e-36)
(0.134793 0.191801 -1.21003e-17 -0.135238 1.6749e-18 -1.17659e-35)
(0.146064 0.408272 8.3684e-18 -0.146745 3.13472e-18 1.88706e-36)
(0.149987 0.578963 -1.88392e-17 -0.150345 6.55756e-18 2.06291e-34)
(0.155542 0.746072 2.59014e-17 -0.156247 -2.62615e-18 9.95105e-35)
(0.155933 0.883631 -1.29577e-17 -0.156328 2.85301e-18 1.92932e-34)
(0.158142 1.01652 -3.99894e-18 -0.158771 3.13055e-19 2.65591e-34)
(0.165371 1.19653 7.22005e-18 -0.165939 -9.8655e-18 -4.39626e-35)
(0.516871 -4.88608 2.76206e-18 -0.516101 9.57322e-18 -2.02846e-35)
(0.0897576 -1.69609 2.21986e-17 -0.0889314 1.52807e-17 -3.47817e-35)
(0.00940368 -1.24138 2.95423e-18 -0.00876888 3.82534e-18 -3.33793e-35)
(-0.0838464 -0.433509 -8.84131e-18 0.0844945 9.67418e-20 4.94248e-35)
(-0.113059 -0.111487 -1.13789e-17 0.113741 -8.27965e-18 -9.45351e-35)
(-0.134732 0.191804 1.06627e-17 0.135185 2.78588e-18 -1.74033e-35)
(-0.14597 0.408281 -7.71089e-18 0.146762 -1.01676e-17 -6.91579e-36)
(-0.149937 0.578968 -1.61205e-18 0.15028 -2.263e-17 -1.44189e-34)
(-0.155478 0.746079 -9.69055e-18 0.156289 -4.12905e-18 -1.95656e-34)
(-0.15593 0.88363 -7.36344e-18 0.156354 1.02897e-17 -1.64186e-34)
(-0.158116 1.01653 -7.35528e-19 0.15883 1.60514e-17 -4.52194e-36)
(-0.165363 1.19654 -3.2492e-19 0.166 -2.60092e-18 1.51322e-35)
(1.50214 -4.60372 1.37871e-17 -1.49981 -3.32135e-18 2.08785e-35)
(0.272116 -1.68919 -4.77227e-17 -0.26968 -1.08866e-17 -4.22267e-34)