/*--------------------------------*- C++ -*----------------------------------*\
| =========                 |                                                 |
| \\      /  F ield         | foam-extend: Open Source CFD                    |
|  \\    /   O peration     | Version:  3.0                                   |
|   \\  /    A nd           | Web:         http://www.extend-project.de       |
|    \\/     M anipulation  |                                                 |
\*---------------------------------------------------------------------------*/
FoamFile
{
    version     2.0;
    format      ascii;
    class       volVectorField;
    location    "8.1";
    object      s;
}
// * * * * * * * * * * * * * * * * * * * * * * * * * * * * * * * * * * * * * //

dimensions      [0 0 0 0 0 0 0];

internalField   nonuniform List<vector> 
400
(
(-0.0222777 0.0441784 1.18293e-317)
(-0.0373559 0.0632238 2.09686e-317)
(-0.0823496 0.0650544 2.39606e-317)
(-0.10569 0.0535848 2.42101e-317)
(-0.139048 0.0453423 2.32781e-317)
(-0.15813 0.0334594 2.18451e-317)
(-0.178972 0.0253155 2.02445e-317)
(-0.190829 0.0158535 1.86446e-317)
(-0.200508 0.00844004 1.70957e-317)
(-0.204296 0.000151608 1.5661e-317)
(-0.203518 -0.00743656 1.43142e-317)
(-0.198614 -0.0160178 1.3091e-317)
(-0.187122 -0.0244298 1.19506e-317)
(-0.173159 -0.0340558 1.09026e-317)
(-0.150435 -0.0429016 9.91152e-318)
(-0.128399 -0.0530652 8.94549e-318)
(-0.0950792 -0.0599841 7.94615e-318)
(-0.0695674 -0.0667979 6.79575e-318)
(-0.0300088 -0.0622162 5.21921e-318)
(-0.0144474 -0.0407518 2.64455e-318)
(-0.0244375 0.0257723 1.56532e-317)
(-0.0557703 0.0575857 3.07988e-317)
(-0.105913 0.070423 3.72211e-317)
(-0.142345 0.0690595 3.89824e-317)
(-0.184473 0.0614 3.83833e-317)
(-0.214469 0.0496415 3.66523e-317)
(-0.243395 0.0370622 3.44072e-317)
(-0.262263 0.0236811 3.20299e-317)
(-0.276541 0.0105361 2.96351e-317)
(-0.282523 -0.00276395 2.73652e-317)
(-0.281716 -0.0159765 2.51871e-317)
(-0.27403 -0.0292029 2.31685e-317)
(-0.257874 -0.0422435 2.12352e-317)
(-0.236593 -0.0545829 1.94088e-317)
(-0.205664 -0.0655008 1.7595e-317)
(-0.172962 -0.0734225 1.57513e-317)
(-0.130512 -0.0763686 1.37235e-317)
(-0.0929699 -0.0710251 1.13334e-317)
(-0.0471912 -0.0532771 8.17866e-318)
(-0.0177675 -0.0204576 3.64423e-318)
(-0.0240485 0.0777053 1.46726e-317)
(-0.0533928 0.137628 2.97796e-317)
(-0.102825 0.155423 3.68528e-317)
(-0.137517 0.146305 3.93655e-317)
(-0.177397 0.128979 3.94056e-317)
(-0.206059 0.104083 3.81638e-317)
(-0.233455 0.0790612 3.62656e-317)
(-0.25201 0.0521141 3.4118e-317)
(-0.266111 0.0259825 3.18668e-317)
(-0.272804 -0.000941462 2.96681e-317)
(-0.272981 -0.0276809 2.7512e-317)
(-0.266702 -0.0550035 2.54664e-317)
(-0.252171 -0.0820772 2.34646e-317)
(-0.232418 -0.10857 2.15194e-317)
(-0.203022 -0.132521 1.95216e-317)
(-0.171252 -0.152199 1.74061e-317)
(-0.129375 -0.162873 1.49852e-317)
(-0.0916868 -0.160509 1.20584e-317)
(-0.0450822 -0.13381 8.29207e-318)
(-0.0160728 -0.0697165 3.28322e-318)
(-0.0155684 0.0757837 1.17431e-317)
(-0.0406977 0.144596 2.44087e-317)
(-0.0747296 0.168949 3.08511e-317)
(-0.102513 0.163147 3.36446e-317)
(-0.132762 0.145643 3.43298e-317)
(-0.156352 0.119304 3.3852e-317)
(-0.178731 0.0910703 3.27003e-317)
(-0.194919 0.0605407 3.12303e-317)
(-0.207594 0.0298981 2.95734e-317)
(-0.214658 -0.0016934 2.78784e-317)
(-0.216399 -0.0337044 2.61502e-317)
(-0.213046 -0.0662601 2.44536e-317)
(-0.202661 -0.0989435 2.27386e-317)
(-0.187939 -0.130259 2.1012e-317)
(-0.164799 -0.158785 1.91707e-317)
(-0.139185 -0.180199 1.71365e-317)
(-0.105244 -0.190693 1.47262e-317)
(-0.0732979 -0.18161 1.17172e-317)
(-0.0367114 -0.144401 7.86446e-318)
(-0.0104829 -0.0656067 2.87016e-318)
(-0.0127435 0.0937846 8.16724e-318)
(-0.0299084 0.17563 1.76905e-317)
(-0.0560674 0.203113 2.31057e-317)
(-0.075844 0.196537 2.60059e-317)
(-0.0988487 0.175918 2.72944e-317)
(-0.116517 0.145179 2.76116e-317)
(-0.134169 0.111956 2.72808e-317)
(-0.147451 0.0757856 2.65783e-317)
(-0.158623 0.0392005 2.56151e-317)
(-0.166093 0.00104025 2.45253e-317)
(-0.169617 -0.0380195 2.3331e-317)
(-0.169848 -0.0783559 2.21003e-317)
(-0.163996 -0.119428 2.08059e-317)
(-0.155328 -0.159569 1.94637e-317)
(-0.138086 -0.197053 1.79976e-317)
(-0.11955 -0.226318 1.63425e-317)
(-0.0905902 -0.242983 1.4339e-317)
(-0.0649737 -0.234926 1.17707e-317)
(-0.0303848 -0.1925 8.31527e-318)
(-0.00986156 -0.0928018 3.46818e-318)
(-0.00739504 0.0914294 4.38838e-318)
(-0.0189379 0.174827 1.06881e-317)
(-0.0334693 0.204928 1.50324e-317)
(-0.0459115 0.199916 1.79905e-317)
(-0.0603097 0.180486 1.98431e-317)
(-0.0724069 0.150135 2.09267e-317)
(-0.0849594 0.116927 2.14047e-317)
(-0.0954637 0.0802267 2.14724e-317)
(-0.105012 0.0426715 2.12174e-317)
(-0.112862 0.00295108 2.0757e-317)
(-0.118163 -0.0383415 2.01278e-317)
(-0.121998 -0.0816944 1.93976e-317)
(-0.12101 -0.126736 1.85646e-317)
(-0.118705 -0.171527 1.76507e-317)
(-0.108367 -0.214453 1.66061e-317)
(-0.0975309 -0.248374 1.53773e-317)
(-0.0753577 -0.268809 1.38192e-317)
(-0.0564436 -0.259297 1.17032e-317)
(-0.0259561 -0.2108 8.61848e-318)
(-0.00940277 -0.0958646 3.86445e-318)
(-0.00462937 0.0936052 1.20531e-318)
(-0.0102704 0.179508 4.7348e-318)
(-0.0173462 0.210743 8.11146e-318)
(-0.0233655 0.206827 1.10529e-317)
(-0.0312703 0.187937 1.3324e-317)
(-0.0383884 0.157778 1.50032e-317)
(-0.0466161 0.124517 1.61243e-317)
(-0.0544312 0.0873035 1.68106e-317)
(-0.0623445 0.0489751 1.71304e-317)
(-0.0703081 0.00778149 1.71845e-317)
(-0.0769606 -0.0355442 1.70197e-317)
(-0.0840564 -0.082118 1.67038e-317)
(-0.0873174 -0.131366 1.6253e-317)
(-0.0913079 -0.182057 1.56955e-317)
(-0.087003 -0.231891 1.50047e-317)
(-0.0843091 -0.274004 1.41388e-317)
(-0.0669601 -0.301987 1.29704e-317)
(-0.0554981 -0.297877 1.12726e-317)
(-0.0240627 -0.24837 8.57148e-318)
(-0.0129897 -0.119065 4.05361e-318)
(-0.00104454 0.088315 -1.32321e-318)
(-0.002703 0.170383 -4.0711e-320)
(-0.00148099 0.201777 2.49688e-318)
(-0.0020485 0.199017 5.33858e-318)
(-0.00320746 0.182416 7.87572e-318)
(-0.00573263 0.154381 9.98219e-318)
(-0.00940703 0.123483 1.15899e-317)
(-0.0143792 0.0882622 1.27615e-317)
(-0.020181 0.0518002 1.35438e-317)
(-0.0276179 0.0118893 1.4021e-317)
(-0.0349377 -0.0307061 1.42436e-317)
(-0.0443428 -0.0776769 1.42762e-317)
(-0.0513407 -0.128547 1.41457e-317)
(-0.0606822 -0.182732 1.38834e-317)
(-0.0627416 -0.237876 1.34744e-317)
(-0.0675524 -0.287008 1.2887e-317)
(-0.0568265 -0.322836 1.20023e-317)
(-0.0522928 -0.323981 1.06144e-317)
(-0.0229785 -0.27457 8.23257e-318)
(-0.0153681 -0.130919 4.03477e-318)
(0.0018742 0.0836347 -2.89148e-318)
(0.00373174 0.162203 -3.20015e-318)
(0.0114372 0.192812 -1.37246e-318)
(0.0152533 0.191455 1.25586e-318)
(0.0196366 0.176784 3.8601e-318)
(0.0210871 0.151128 6.17229e-318)
(0.0215896 0.122673 8.05675e-318)
(0.0195227 0.0898124 9.52481e-318)
(0.0162116 0.0556805 1.06048e-317)
(0.00996799 0.0176625 1.13612e-317)
(0.00294831 -0.0233261 1.18413e-317)
(-0.00780934 -0.0698689 1.21031e-317)
(-0.0173082 -0.121155 1.21753e-317)
(-0.0314439 -0.178302 1.20857e-317)
(-0.0388175 -0.237749 1.18245e-317)
(-0.0520108 -0.295202 1.13611e-317)
(-0.0470359 -0.339375 1.05882e-317)
(-0.052375 -0.351607 9.32876e-318)
(-0.0223545 -0.305395 7.15443e-318)
(-0.0225098 -0.154235 3.41948e-318)
(0.00439341 0.075162 -3.74406e-318)
(0.00895154 0.147007 -5.11138e-318)
(0.0226083 0.176438 -3.87721e-318)
(0.0303784 0.176231 -1.54465e-318)
(0.0400871 0.164193 9.78354e-319)
(0.0454742 0.141567 3.33661e-318)
(0.0503226 0.116523 5.34733e-318)
(0.0516076 0.0870788 6.98234e-318)
(0.0514381 0.0564629 8.24757e-318)
(0.0474623 0.021763 9.18989e-318)
(0.0418774 -0.0161156 9.84849e-318)
(0.0315587 -0.0603559 1.02724e-317)
(0.0208438 -0.110309 1.04877e-317)
(0.00432201 -0.168267 1.05165e-317)
(-0.00793921 -0.230796 1.03463e-317)
(-0.0268152 -0.295037 9.94743e-318)
(-0.0299221 -0.348793 9.21781e-318)
(-0.0423196 -0.372288 8.01455e-318)
(-0.0191586 -0.333717 6.00551e-318)
(-0.0225275 -0.174471 2.7466e-318)
(0.00731149 0.0678104 -3.94344e-318)
(0.0132668 0.133008 -5.91449e-318)
(0.0320369 0.160139 -5.16678e-318)
(0.0424544 0.161099 -3.18588e-318)
(0.056643 0.151039 -8.63879e-319)
(0.0652353 0.131465 1.40047e-318)
(0.0740989 0.109608 3.40143e-318)
(0.0786565 0.083709 5.07694e-318)
(0.0819516 0.0568056 6.41577e-318)
(0.0808233 0.0258747 7.44509e-318)
(0.0777365 -0.00808341 8.19507e-318)
(0.0689463 -0.0489801 8.7006e-318)
(0.058728 -0.0957959 8.98308e-318)
(0.0406965 -0.152867 9.05551e-318)
(0.0254112 -0.215366 8.90246e-318)
(-0.000280996 -0.28498 8.48978e-318)
(-0.00998752 -0.344275 7.72813e-318)
(-0.035022 -0.38109 6.50286e-318)
(-0.0150811 -0.347618 4.60801e-318)
(-0.0316805 -0.190009 1.84469e-318)
(0.00857808 0.0569291 -3.68753e-318)
(0.0164286 0.114737 -5.93223e-318)
(0.0387236 0.139941 -5.58552e-318)
(0.0520096 0.141999 -3.98082e-318)
(0.0700484 0.134184 -1.93178e-318)
(0.0819831 0.117674 1.54114e-319)
(0.0947171 0.0991882 2.05728e-318)
(0.102871 0.0770312 3.69278e-318)
(0.109973 0.0540967 5.03261e-318)
(0.112619 0.0274206 6.08646e-318)
(0.113036 -0.0020864 6.87378e-318)
(0.107812 -0.0385612 7.42016e-318)
(0.0997186 -0.0812243 7.74001e-318)
(0.0838396 -0.1354 7.83994e-318)
(0.0667962 -0.196787 7.70159e-318)
(0.0399497 -0.26933 7.29152e-318)
(0.021308 -0.335774 6.53163e-318)
(-0.00841458 -0.386088 5.33184e-318)
(-0.00496177 -0.367365 3.59028e-318)
(-0.0228079 -0.215654 1.25455e-318)
(0.0106972 0.0493414 -3.38482e-318)
(0.0180579 0.0991326 -5.69181e-318)
(0.0433418 0.121027 -5.61053e-318)
(0.05779 0.123576 -4.32121e-318)
(0.0788186 0.117156 -2.53827e-318)
(0.0930152 0.10342 -6.56292e-319)
(0.108931 0.087872 1.10835e-318)
(0.120045 0.0692811 2.65678e-318)
(0.13068 0.0501513 3.94964e-318)
(0.136949 0.0277512 4.98338e-318)
(0.141333 0.00299567 5.76796e-318)
(0.140065 -0.0284305 6.31937e-318)
(0.135655 -0.0654753 6.64602e-318)
(0.122384 -0.114796 6.74964e-318)
(0.106373 -0.171077 6.61133e-318)
(0.0767391 -0.242684 6.19739e-318)
(0.0530962 -0.307861 5.45013e-318)
(0.010067 -0.366938 4.29944e-318)
(0.00572497 -0.350628 2.72446e-318)
(-0.0328726 -0.209009 7.73079e-319)
(0.0104653 0.0378018 -2.69482e-318)
(0.0189113 0.081037 -4.90732e-318)
(0.0452451 0.100389 -5.06761e-318)
(0.0615765 0.103668 -4.10612e-318)
(0.084802 0.0986807 -2.62524e-318)
(0.101313 0.0874971 -9.91916e-319)
(0.119877 0.0747296 5.83373e-319)
(0.133799 0.0594709 1.9946e-318)
(0.14768 0.0439049 3.19143e-318)
(0.157822 0.0256218 4.16097e-318)
(0.166457 0.0054287 4.90502e-318)
(0.170625 -0.0207199 5.43275e-318)
(0.171066 -0.0519676 5.74898e-318)
(0.164405 -0.095171 5.8539e-318)
(0.150976 -0.14581 5.73025e-318)
(0.127076 -0.214099 5.35111e-318)
(0.0964674 -0.28018 4.67419e-318)
(0.0559627 -0.349559 3.64826e-318)
(0.0246432 -0.352098 2.28993e-318)
(-0.00790341 -0.237126 6.51203e-319)
(0.0106465 0.0315149 -2.64761e-318)
(0.0171215 0.0664051 -4.62944e-318)
(0.043649 0.0818555 -4.81166e-318)
(0.0598334 0.0846709 -4.0041e-318)
(0.0839369 0.0804686 -2.72263e-318)
(0.10121 0.0714683 -1.28185e-318)
(0.121008 0.0611118 1.28032e-319)
(0.136334 0.0489017 1.40656e-318)
(0.152202 0.0365116 2.5028e-318)
(0.164888 0.0220039 3.40004e-318)
(0.176982 0.0060554 4.09533e-318)
(0.18535 -0.0148722 4.59204e-318)
(0.191006 -0.0399163 4.89396e-318)
(0.189591 -0.0756793 4.99849e-318)
(0.181612 -0.117644 4.89391e-318)
(0.160015 -0.177426 4.55806e-318)
(0.13012 -0.23416 3.96733e-318)
(0.0793982 -0.300099 3.08723e-318)
(0.0410404 -0.297426 1.94813e-318)
(-0.0199398 -0.192719 5.85497e-319)
(0.00883033 0.0215629 -1.68827e-318)
(0.0154572 0.0511303 -3.49479e-318)
(0.0412972 0.0634193 -3.84009e-318)
(0.0582248 0.0663369 -3.30989e-318)
(0.0828559 0.0628407 -2.30748e-318)
(0.100629 0.0557978 -1.12686e-318)
(0.12107 0.0476478 6.08294e-320)
(0.13713 0.0381165 1.1537e-318)
(0.154263 0.0285857 2.10082e-318)
(0.169029 0.0173984 2.88103e-318)
(0.18402 0.00527504 3.48785e-318)
(0.197124 -0.0108775 3.92301e-318)
(0.208 -0.0300692 4.18888e-318)
(0.215128 -0.0584783 4.28371e-318)
(0.213234 -0.0919341 4.1991e-318)
(0.204016 -0.143019 3.92239e-318)
(0.172559 -0.193178 3.43993e-318)
(0.136673 -0.262568 2.73206e-318)
(0.06577 -0.277593 1.81679e-318)
(0.0285863 -0.223443 6.78357e-319)
(0.00617829 0.0173282 -2.11736e-318)
(0.0100347 0.0382892 -3.46407e-318)
(0.0328326 0.0465002 -3.62509e-318)
(0.0480728 0.0482237 -3.09514e-318)
(0.0704006 0.0453756 -2.22176e-318)
(0.0865988 0.0402009 -1.2114e-318)
(0.105018 0.0341054 -2.04059e-319)
(0.119734 0.0271199 7.23772e-319)
(0.135637 0.0199656 1.52999e-318)
(0.149863 0.0116734 2.19725e-318)
(0.165237 0.00256641 2.71959e-318)
(0.179398 -0.00933816 3.0975e-318)
(0.193441 -0.0235661 3.33295e-318)
(0.203916 -0.044218 3.42403e-318)
(0.209031 -0.0687617 3.36715e-318)
(0.20397 -0.105756 3.15412e-318)
(0.182007 -0.141982 2.78461e-318)
(0.141279 -0.190622 2.24914e-318)
(0.0780713 -0.191851 1.55612e-318)
(0.00717606 -0.128563 6.58683e-319)
(0.00301365 0.0107466 -6.79276e-319)
(0.00682962 0.0272034 -2.00961e-318)
(0.0285767 0.0320854 -2.34818e-318)
(0.0427664 0.0334668 -2.10795e-318)
(0.0639616 0.0310673 -1.50514e-318)
(0.0779285 0.0273809 -7.69616e-319)
(0.0947156 0.023183 -1.09485e-320)
(0.107304 0.0182665 6.93555e-319)
(0.121837 0.0135032 1.30908e-318)
(0.135087 0.00770377 1.81834e-318)
(0.150255 0.00174707 2.21676e-318)
(0.165879 -0.00649587 2.50393e-318)
(0.18209 -0.01558 2.68215e-318)
(0.198763 -0.0299153 2.75161e-318)
(0.209369 -0.0454364 2.70919e-318)
(0.218917 -0.0729233 2.55299e-318)
(0.201185 -0.0972842 2.28338e-318)
(0.188732 -0.14591 1.89806e-318)
(0.0981002 -0.15774 1.39289e-318)
(0.0847172 -0.169822 6.86662e-319)
(-0.00123023 0.00797209 -1.44289e-318)
(-0.000349702 0.0147234 -1.99922e-318)
(0.0134712 0.0164568 -2.01203e-318)
(0.0229195 0.0168395 -1.69885e-318)
(0.0361826 0.0155802 -1.24543e-318)
(0.045373 0.0138924 -7.31622e-319)
(0.0554334 0.0115261 -2.26495e-319)
(0.0634604 0.00891943 2.37809e-319)
(0.0723008 0.00585469 6.40922e-319)
(0.0806499 0.00235889 9.75197e-319)
(0.090735 -0.00175958 1.23796e-318)
(0.100732 -0.00679315 1.42971e-318)
(0.113171 -0.0129335 1.55106e-318)
(0.12406 -0.0207509 1.60293e-318)
(0.135802 -0.0303986 1.58462e-318)
(0.141039 -0.0423163 1.49615e-318)
(0.138307 -0.055785 1.34343e-318)
(0.120223 -0.0671232 1.12986e-318)
(0.0746054 -0.0661189 8.49971e-319)
(0.0237399 -0.0182361 4.43893e-319)
(-0.00278196 0.00410774 3.01202e-319)
(0.00025706 0.00874606 -3.97723e-319)
(0.0120606 0.00849237 -5.64673e-319)
(0.0173704 0.00860532 -5.45532e-319)
(0.0275397 0.00767656 -3.61004e-319)
(0.0314725 0.00664671 -1.42296e-319)
(0.0385962 0.00593642 8.80227e-320)
(0.0421402 0.00474634 2.97314e-319)
(0.0480528 0.00420424 4.78987e-319)
(0.0528495 0.00291148 6.27286e-319)
(0.0595185 0.002416 7.42778e-319)
(0.0671991 0.000646442 8.26098e-319)
(0.0758135 9.81046e-05 8.78034e-319)
(0.0876782 -0.00312265 8.99535e-319)
(0.0968378 -0.00370208 8.90114e-319)
(0.112682 -0.0114198 8.49536e-319)
(0.111099 -0.0113402 7.79255e-319)
(0.128195 -0.0353118 6.82147e-319)
(0.0706645 -0.0319049 5.6408e-319)
(0.111726 -0.101507 3.8255e-319)
)
;

boundaryField
{
    cavity
    {
        type            myHeatFlux;
        ThetaWall       uniform 0;
        value           nonuniform List<vector> 
60
(
(0.001 0 0)
(0.001 0 0)
(0.001 0 0)
(0.001 0 0)
(0.001 0 0)
(0.001 0 0)
(0.001 0 0)
(0.001 0 0)
(0.001 0 0)
(0.001 0 0)
(0.001 0 0)
(0.001 0 0)
(0.001 0 0)
(0.001 0 0)
(0.001 0 0)
(0.001 0 0)
(0.001 0 0)
(0.001 0 0)
(0.001 0 0)
(0.001 0 0)
(0 -0.001 0)
(0 -0.001 0)
(0 -0.001 0)
(0 -0.001 0)
(0 -0.001 0)
(0 -0.001 0)
(0 -0.001 0)
(0 -0.001 0)
(0 -0.001 0)
(0 -0.001 0)
(0 -0.001 0)
(0 -0.001 0)
(0 -0.001 0)
(0 -0.001 0)
(0 -0.001 0)
(0 -0.001 0)
(0 -0.001 0)
(0 -0.001 0)
(0 -0.001 0)
(0 -0.001 0)
(-0.001 0 0)
(-0.001 0 0)
(-0.001 0 0)
(-0.001 0 0)
(-0.001 0 0)
(-0.001 0 0)
(-0.001 0 0)
(-0.001 0 0)
(-0.001 0 0)
(-0.001 0 0)
(-0.001 0 0)
(-0.001 0 0)
(-0.001 0 0)
(-0.001 0 0)
(-0.001 0 0)
(-0.001 0 0)
(-0.001 0 0)
(-0.001 0 0)
(-0.001 0 0)
(-0.001 0 0)
)
;
    }
    lid
    {
        type            myHeatFlux;
        ThetaWall       uniform 0;
        value           nonuniform List<vector> 
20
(
(0.000135815 0.0009 0)
(0.000135815 0.0009 0)
(0.000135815 0.0009 0)
(0.000135815 0.0009 0)
(0.000135815 0.0009 0)
(0.000135815 0.0009 0)
(0.000135815 0.0009 0)
(0.000135815 0.0009 0)
(0.000135815 0.0009 0)
(0.000135815 0.0009 0)
(0.000135815 0.0009 0)
(0.000135815 0.0009 0)
(0.000135815 0.0009 0)
(0.000135815 0.0009 0)
(0.000135815 0.0009 0)
(0.000135815 0.0009 0)
(0.000135815 0.0009 0)
(0.000135815 0.0009 0)
(0.000135815 0.0009 0)
(0.000135815 0.0009 0)
)
;
    }
    frontAndBack
    {
        type            empty;
    }
}


// ************************************************************************* //
