/*--------------------------------*- C++ -*----------------------------------*\
| =========                 |                                                 |
| \\      /  F ield         | foam-extend: Open Source CFD                    |
|  \\    /   O peration     | Version:  3.0                                   |
|   \\  /    A nd           | Web:         http://www.extend-project.de       |
|    \\/     M anipulation  |                                                 |
\*---------------------------------------------------------------------------*/
FoamFile
{
    version     2.0;
    format      ascii;
    class       volScalarField;
    location    "8.1";
    object      Theta;
}
// * * * * * * * * * * * * * * * * * * * * * * * * * * * * * * * * * * * * * //

dimensions      [0 0 0 0 0 0 0];

internalField   nonuniform List<scalar> 
400
(
0.364433
-0.192907
-0.234938
-0.32917
-0.237766
-0.205621
-0.0979268
-0.0345753
0.0650227
0.134485
0.228621
0.295987
0.388932
0.441817
0.526648
0.533048
0.576594
0.454232
0.361195
-0.135303
1.11182
0.65724
0.545565
0.364286
0.352693
0.271337
0.275567
0.229003
0.228403
0.190733
0.182588
0.139887
0.124967
0.0644643
0.0410155
-0.0581156
-0.105776
-0.291523
-0.425462
-0.818514
0.862392
0.435316
0.370266
0.233234
0.243176
0.195017
0.213455
0.192138
0.206317
0.191721
0.202853
0.186137
0.196698
0.167524
0.174155
0.109614
0.0921285
-0.0629152
-0.166655
-0.548761
0.855782
0.583084
0.498518
0.380925
0.361943
0.301771
0.294014
0.25322
0.244764
0.2107
0.203142
0.170186
0.166671
0.12677
0.12373
0.056476
0.030034
-0.111381
-0.226705
-0.51677
0.613067
0.368732
0.331593
0.243972
0.250226
0.213851
0.224944
0.206225
0.217931
0.207758
0.226038
0.221641
0.25292
0.246734
0.288858
0.254471
0.279997
0.14992
0.0761244
-0.284404
0.519867
0.369333
0.33623
0.274628
0.272213
0.239299
0.240245
0.218139
0.221995
0.208684
0.223991
0.221245
0.257486
0.261445
0.3193
0.304282
0.354396
0.241827
0.182753
-0.202418
0.353677
0.246772
0.242247
0.203269
0.210389
0.18958
0.195952
0.183496
0.194954
0.193047
0.222262
0.236167
0.298009
0.326472
0.42844
0.442
0.557034
0.447853
0.445696
-0.0799404
0.247752
0.224697
0.227857
0.212781
0.212267
0.194783
0.190696
0.174592
0.176283
0.169773
0.192144
0.205445
0.267103
0.305114
0.41893
0.456962
0.597745
0.515559
0.531172
-0.0402648
0.123205
0.171775
0.184906
0.190503
0.184137
0.171311
0.160096
0.143639
0.139889
0.132077
0.153088
0.168036
0.238804
0.286895
0.433069
0.492583
0.704885
0.633148
0.746484
0.0283007
0.0154494
0.148024
0.170562
0.196903
0.182164
0.170194
0.146254
0.122563
0.103464
0.0842955
0.0875787
0.091304
0.143897
0.189279
0.321343
0.400273
0.606235
0.584066
0.685793
0.0154837
-0.0788429
0.138124
0.154614
0.200395
0.171324
0.160874
0.123149
0.0928992
0.0589843
0.0276464
0.0148035
0.00364758
0.0442917
0.0789791
0.220651
0.305052
0.578869
0.58095
0.84899
0.0980581
-0.174143
0.109576
0.141785
0.203527
0.170547
0.159715
0.11033
0.0701884
0.0170638
-0.0325462
-0.0741087
-0.109593
-0.10915
-0.09605
-0.0071648
0.0822326
0.2888
0.368869
0.548073
0.0394078
-0.228901
0.124763
0.140016
0.219093
0.171742
0.162759
0.0992127
0.0499184
-0.0225017
-0.0918861
-0.160619
-0.226072
-0.258225
-0.280383
-0.211445
-0.144177
0.114452
0.225967
0.662454
0.199989
-0.288652
0.098222
0.136734
0.225966
0.182326
0.173059
0.101514
0.0415042
-0.050708
-0.142585
-0.246336
-0.346652
-0.435954
-0.499472
-0.520711
-0.471326
-0.355111
-0.146213
0.0650797
0.100061
-0.28356
0.134271
0.152591
0.255839
0.20344
0.197459
0.114829
0.0453564
-0.0662345
-0.181077
-0.316633
-0.456445
-0.592439
-0.713561
-0.783911
-0.79421
-0.655869
-0.432365
0.12755
0.361499
-0.275416
0.1378
0.181074
0.288223
0.244126
0.23719
0.149372
0.069294
-0.0597576
-0.197119
-0.366362
-0.544656
-0.74193
-0.91878
-1.09959
-1.15806
-1.22481
-0.919594
-0.770093
0.19758
-0.181362
0.206827
0.233926
0.349792
0.302247
0.297664
0.201151
0.111773
-0.0337475
-0.192301
-0.390242
-0.608216
-0.854602
-1.10107
-1.35158
-1.50924
-1.60217
-1.33988
-0.815263
0.462498
-0.0603904
0.290039
0.33211
0.442996
0.398512
0.387373
0.284557
0.183761
0.0256668
-0.150941
-0.371891
-0.622163
-0.915692
-1.22087
-1.57058
-1.81286
-2.12228
-1.87394
-1.92422
0.133341
0.149714
0.418182
0.450893
0.561122
0.511164
0.495389
0.382801
0.27182
0.102036
-0.0897142
-0.328858
-0.608422
-0.939145
-1.30822
-1.73028
-2.0964
-2.49603
-2.38773
-2.25094
0.0855654
0.444518
0.656215
0.676417
0.761072
0.694063
0.653692
0.530845
0.403112
0.230946
0.0277689
-0.210684
-0.507864
-0.846307
-1.26435
-1.72617
-2.22235
-2.74434
-2.90365
-3.22541
-0.77145
)
;

boundaryField
{
    cavity
    {
        type            implicitExtrapolation;
    }
    lid
    {
        type            implicitExtrapolation;
    }
    frontAndBack
    {
        type            empty;
    }
}


// ************************************************************************* //
