/*--------------------------------*- C++ -*----------------------------------*\
| =========                 |                                                 |
| \\      /  F ield         | foam-extend: Open Source CFD                    |
|  \\    /   O peration     | Version:  3.0                                   |
|   \\  /    A nd           | Web:         http://www.extend-project.de       |
|    \\/     M anipulation  |                                                 |
\*---------------------------------------------------------------------------*/
FoamFile
{
    version     2.0;
    format      ascii;
    class       volScalarField;
    location    "34";
    object      p;
}
// * * * * * * * * * * * * * * * * * * * * * * * * * * * * * * * * * * * * * //

dimensions      [0 0 0 0 0 0 0];

internalField   nonuniform List<scalar> 
2688
(
-0.2262995317
-0.2070835592
-0.1955278369
-0.1822837812
-0.174932441
-0.1654657853
-0.160794063
-0.1538825094
-0.1509896191
-0.1458786626
-0.1441805961
-0.1403615094
-0.1394434377
-0.1365425864
-0.1360793332
-0.1337967164
-0.1335053819
-0.1315761198
-0.1311843444
-0.1293507509
-0.1285720433
-0.1265601818
-0.1250719631
-0.1225690485
-0.2255650117
-0.206408659
-0.194887785
-0.1816853682
-0.1743555506
-0.16491737
-0.1602591795
-0.1533678358
-0.1504829619
-0.145386546
-0.1436927523
-0.1398840238
-0.1389677943
-0.1360743191
-0.1356114607
-0.1333342765
-0.1330427414
-0.1311178868
-0.1307262332
-0.1288969832
-0.1281198073
-0.1261133163
-0.1246293437
-0.1221341143
-0.2240964476
-0.2050624474
-0.1936142972
-0.1804954738
-0.1732111074
-0.1638324057
-0.1592022487
-0.152353924
-0.1494855434
-0.1444205083
-0.1427353895
-0.1389497442
-0.1380370444
-0.1351608007
-0.1346985295
-0.1324346566
-0.1321426801
-0.1302289492
-0.1298376263
-0.128019069
-0.1272449768
-0.125250807
-0.1237751513
-0.1212972252
-0.2219477172
-0.2030934252
-0.1917528564
-0.1787576136
-0.1715414487
-0.1622504992
-0.1576633902
-0.1508786484
-0.148036583
-0.1430181492
-0.1413481421
-0.1375968464
-0.1366919487
-0.1338413265
-0.1333825519
-0.1311384815
-0.1308483231
-0.1289511191
-0.1285625029
-0.1267596254
-0.125991891
-0.1240152445
-0.1225529039
-0.1200976991
-0.2190742837
-0.2004617149
-0.1892657427
-0.1764363742
-0.1693113412
-0.1601385677
-0.1556085019
-0.1489095722
-0.1461019257
-0.1411465004
-0.1394956483
-0.1357910684
-0.134895327
-0.1320798672
-0.1316245019
-0.1294078261
-0.1291190326
-0.1272448282
-0.126859011
-0.1250779867
-0.1243180981
-0.1223657105
-0.120920397
-0.1184970551
-0.2155391422
-0.1972240423
-0.1862065721
-0.1735819222
-0.1665702572
-0.1575433656
-0.1530850827
-0.1464922581
-0.1437287824
-0.1388514456
-0.1372262791
-0.1335796169
-0.132697509
-0.129925629
-0.1294768312
-0.1272941585
-0.1270092456
-0.1251636239
-0.1247832518
-0.1230293244
-0.1222808649
-0.1203582405
-0.1189352754
-0.1165494179
-0.2112973112
-0.1933401718
-0.1825372342
-0.1701586198
-0.1632825887
-0.1544310897
-0.1500581387
-0.1435928714
-0.1408813082
-0.136097861
-0.1345020842
-0.1309252199
-0.1300578023
-0.1273386032
-0.1268960597
-0.1247545859
-0.1244729565
-0.122662122
-0.1222872691
-0.1205666071
-0.1198312486
-0.1179453012
-0.1165487026
-0.1142080264
-0.2064199308
-0.1888743206
-0.1783185987
-0.1662233362
-0.1595044106
-0.1508551014
-0.1465817624
-0.1402637763
-0.1376136908
-0.1329388017
-0.1313789652
-0.1278828198
-0.1270346698
-0.124376436
-0.1239433938
-0.1218496826
-0.1215738869
-0.1198033847
-0.1194366183
-0.1177544662
-0.1170354939
-0.1151920222
-0.1138264819
-0.1115377255
-0.2008632681
-0.1837873618
-0.1735133717
-0.1617411797
-0.1552006622
-0.1467817682
-0.1426209483
-0.1364706979
-0.133889338
-0.1293380732
-0.1278174874
-0.1244133441
-0.1235852464
-0.1209965178
-0.1205724793
-0.118533202
-0.1182624837
-0.11653809
-0.1161794102
-0.114541759
-0.113841337
-0.1120476944
-0.1107196218
-0.1084914994
-0.1947048077
-0.1781493196
-0.1681881291
-0.1567743841
-0.1504327237
-0.1422697784
-0.1382351536
-0.1322714732
-0.1297681354
-0.125354496
-0.1238796329
-0.1205779688
-0.1197744567
-0.117263258
-0.1168513932
-0.1148728839
-0.1146096128
-0.1129364711
-0.1125879723
-0.1109992518
-0.1103195529
-0.108580237
-0.1072921106
-0.105131375
-0.1879033513
-0.1719234114
-0.1623075999
-0.1512898879
-0.1451671485
-0.1372867707
-0.1333904126
-0.1276325723
-0.1252139043
-0.1209520799
-0.1195258628
-0.1163372315
-0.1155588991
-0.1131331118
-0.1127328183
-0.1108211355
-0.110564383
-0.1089475601
-0.1086088153
-0.1070738465
-0.1064159823
-0.1047362862
-0.1034921161
-0.1014055156
-0.1805410806
-0.1651839164
-0.1559425362
-0.1453538636
-0.1394692297
-0.1318953162
-0.1281501574
-0.1226157975
-0.120290707
-0.1161938379
-0.1148225118
-0.1117568389
-0.1110080457
-0.1086753499
-0.1082896676
-0.1064508579
-0.1062028681
-0.1046471495
-0.1043200295
-0.1028426627
-0.1022084813
-0.100592047
-0.09939426863
-0.09738866736
-0.1725805179
-0.1578974976
-0.1490607967
-0.1389361357
-0.133308172
-0.1260654452
-0.1224825593
-0.1171895695
-0.1149640568
-0.1110452852
-0.109731441
-0.1067984293
-0.1060796817
-0.1038472851
-0.1034756516
-0.1017152747
-0.1014752059
-0.09998524923
-0.09966939033
-0.09825397277
-0.09764445785
-0.09609598486
-0.0949480004
-0.09302998328
-0.1641068299
-0.1501411309
-0.1417357761
-0.132105351
-0.1267517449
-0.1198621245
-0.1164535332
-0.1114181145
-0.1093005291
-0.1055719873
-0.1043214848
-0.1015304
-0.1008457975
-0.09872094744
-0.09836629593
-0.09669013245
-0.09646028613
-0.09504082542
-0.09473832234
-0.09338896208
-0.09280635495
-0.09132986176
-0.09023455456
-0.08840927739
-0.1550874334
-0.1418859749
-0.1339395075
-0.1248352292
-0.1197728134
-0.1132588356
-0.1100344959
-0.1052729369
-0.1032686184
-0.09974222255
-0.09855736024
-0.09591695694
-0.09526696863
-0.09325620396
-0.09291811002
-0.09133133882
-0.09111120595
-0.08976681715
-0.08947789481
-0.08819921249
-0.08764528474
-0.08624596279
-0.08520730679
-0.08348053066
-0.145608691
-0.1332101004
-0.1257464669
-0.1171954077
-0.1124401424
-0.1063214652
-0.1032922977
-0.09881916273
-0.09693572507
-0.09362245012
-0.09250856717
-0.09002729457
-0.08941568022
-0.08752565989
-0.08720689934
-0.08571493532
-0.08550685018
-0.08424223079
-0.08396925215
-0.08276578949
-0.0822433023
-0.08092585261
-0.07994720386
-0.07832266922
-0.1356440497
-0.1240901631
-0.1171338503
-0.109164443
-0.1047312286
-0.09902791335
-0.09620266996
-0.09203242532
-0.09027452828
-0.08718490697
-0.08614399668
-0.08382957202
-0.08325672896
-0.08149326081
-0.08119349762
-0.07980105112
-0.07960476949
-0.07842426806
-0.07816795051
-0.07704436207
-0.07655577471
-0.07532549122
-0.07441135341
-0.07289338343
-0.1252792629
-0.114603714
-0.1081756489
-0.1008114922
-0.09671434287
-0.09144354873
-0.08883186722
-0.08497726319
-0.08335163809
-0.08049531995
-0.07953209664
-0.07739195946
-0.07686120705
-0.07523013834
-0.07495181149
-0.07366364924
-0.07348118152
-0.07238903884
-0.07215137976
-0.07111201338
-0.07065967748
-0.06952140832
-0.06867471871
-0.06726761618
-0.1144948499
-0.1047338232
-0.09885512748
-0.0921207967
-0.08837251004
-0.08355155682
-0.0811609064
-0.07763439633
-0.07614498419
-0.07353099649
-0.07264710004
-0.07068784535
-0.07019942794
-0.06870571755
-0.06844842788
-0.06726855428
-0.06709960947
-0.06609948123
-0.06588111822
-0.06492983527
-0.06451613812
-0.06347421837
-0.06269960769
-0.06140644564
-0.1033741852
-0.09455593955
-0.08924426139
-0.08315960751
-0.07977205908
-0.07541540407
-0.07325399077
-0.07006634466
-0.06871889184
-0.06635539456
-0.06555484891
-0.0637827318
-0.0633394494
-0.06198793052
-0.06175360848
-0.06068584057
-0.06053172439
-0.05962685659
-0.05942867175
-0.05856872996
-0.05819441179
-0.05725299538
-0.05655170911
-0.05537993181
-0.09190577303
-0.08406034694
-0.07933317316
-0.07391858466
-0.07090232277
-0.06702431813
-0.06509825466
-0.06225976657
-0.06105745016
-0.05895188221
-0.05823593128
-0.05665636801
-0.05625826057
-0.05505296328
-0.05484105117
-0.05388853423
-0.05374869408
-0.05294175626
-0.05276389939
-0.05199784055
-0.05166469004
-0.05082639217
-0.0502030124
-0.04915366552
-0.08016892725
-0.0733188853
-0.06919036928
-0.06446172
-0.06182632423
-0.05843855095
-0.0567545017
-0.05427381433
-0.05322133529
-0.05138023641
-0.05075219424
-0.04937014982
-0.04901950288
-0.04796416538
-0.04777610454
-0.04694161007
-0.0468166606
-0.04610968943
-0.04595185403
-0.04528133142
-0.04498811094
-0.04425559258
-0.04370868169
-0.04279330291
-0.06816087496
-0.06232969958
-0.05881346868
-0.05478668909
-0.05254033539
-0.04965400014
-0.0482166559
-0.04610180006
-0.0452015362
-0.04363070973
-0.04309141441
-0.04191111638
-0.04160779003
-0.04070554012
-0.04054068259
-0.03982659195
-0.03971584954
-0.03911075826
-0.03897283619
-0.03839951204
-0.03814777397
-0.03752238365
-0.03705694885
-0.03627336701
-0.05595532116
-0.05115962969
-0.04826617266
-0.04495297457
-0.04310282554
-0.04072648848
-0.0395408945
-0.03779826634
-0.03705384005
-0.03575811699
-0.03531018676
-0.0343352756
-0.03408112618
-0.03333465679
-0.03319418179
-0.03260239162
-0.03250626664
-0.03200419729
-0.03188553381
-0.03140979529
-0.03119727124
-0.03067983792
-0.03029156373
-0.02965118922
-0.04355875491
-0.03981515072
-0.03755405856
-0.03496570593
-0.03351746751
-0.03165905878
-0.03072843204
-0.0293637279
-0.02877669709
-0.02776022006
-0.02740410286
-0.02663763566
-0.02643241411
-0.02584404171
-0.02572737486
-0.02525974329
-0.02517775606
-0.02478040523
-0.0246812484
-0.02430496265
-0.02413391499
-0.02372633091
-0.02342179142
-0.02292235041
-0.03103789291
-0.02835686205
-0.02673483483
-0.02487873839
-0.0238370689
-0.02250201646
-0.02182972752
-0.02084700661
-0.02041989059
-0.01968572123
-0.01942335158
-0.01886763299
-0.0187128473
-0.01828429359
-0.01819258664
-0.01785038629
-0.01778330657
-0.01749157129
-0.01741209109
-0.01713576298
-0.0170049268
-0.01670750706
-0.01648201087
-0.01612687537
-0.018408797
-0.01679983585
-0.01582230325
-0.01470491611
-0.01407298175
-0.01326585088
-0.01285360653
-0.0122561831
-0.01198970802
-0.01154030805
-0.01137175657
-0.01102867662
-0.01092400663
-0.01065681009
-0.01058962016
-0.01037425058
-0.01032184032
-0.01013726875
-0.01007788799
-0.009903666802
-0.009814875298
-0.009630663094
-0.009488618196
-0.009279017836
-0.005730027254
-0.005197373652
-0.004867167688
-0.004491508607
-0.004271406189
-0.00399441666
-0.00384387246
-0.003633404382
-0.003528958069
-0.0033655691
-0.003292066959
-0.003162556623
-0.00310915472
-0.003004038984
-0.002962514339
-0.00287463408
-0.002838165308
-0.002761610216
-0.002724002854
-0.0026534016
-0.002609379971
-0.002540741752
-0.002487106064
-0.002422427618
0.00697272028
0.006426807257
0.006108489187
0.005740858622
0.005548541821
0.005294237636
0.005182905538
0.005005514447
0.004948046075
0.004824664573
0.004803430251
0.004718677768
0.004721232136
0.004663578706
0.004679865942
0.004639533433
0.004660422726
0.004628230303
0.00464450068
0.004610923475
0.004611675693
0.004564610085
0.004535079826
0.004453657525
0.01964997609
0.01802755349
0.01706178211
0.01595227559
0.01534803253
0.01456346155
0.01419033885
0.01362587026
0.01340626258
0.0129967316
0.01288028227
0.01258177343
0.0125327775
0.01231276038
0.01230287922
0.01213461359
0.01213868566
0.01199781481
0.01199096577
0.01185299874
0.01180756459
0.01164519863
0.01152756249
0.01130823179
0.0322666066
0.02957268289
0.02796250831
0.02611447246
0.02510030256
0.02378773341
0.023154178
0.02220414462
0.02182335462
0.02112862942
0.02091767293
0.02040594271
0.02030595817
0.01992380904
0.01988826944
0.01959214221
0.01958001329
0.01933062792
0.01930175786
0.01906006551
0.01897095612
0.01869427516
0.01849403492
0.01813171616
0.04478291122
0.04102581533
0.03877620055
0.03619547017
0.03477445423
0.03293815926
0.03204600665
0.03071363789
0.03017262853
0.02919521411
0.02889007494
0.02816711258
0.02801598398
0.02747332825
0.02741160976
0.02698901871
0.02695988503
0.02660332103
0.02655138094
0.02620753957
0.02607340111
0.02568514346
0.02540060434
0.02490418581
0.0571547751
0.052346714
0.04946491639
0.04615969904
0.04433639894
0.04198203465
0.04083416196
0.03912336559
0.03842392793
0.03716648348
0.03676826046
0.0358358273
0.03563425491
0.03493224111
0.03484491246
0.03429667012
0.03425127702
0.03378832164
0.03371464575
0.03326972086
0.03309301148
0.03259428988
0.03222936188
0.03159578722
0.06935268266
0.06350816306
0.06000298101
0.05598346823
0.05376351847
0.05089855951
0.04949853737
0.04741496422
0.04655925424
0.04502615744
0.04453600584
0.04339757372
0.04314600023
0.04228746877
0.04217448598
0.04150304737
0.0414410706
0.04087407382
0.04077827759
0.04023489551
0.04001542952
0.03940964049
0.03896475241
0.03819943936
0.08132424538
0.07446250469
0.07034530786
0.06562445767
0.06301492695
0.05964834282
0.05800053466
0.055550436
0.05454105718
0.05273663321
0.05215602058
0.05081454023
0.05051376065
0.04950071924
0.04936260055
0.04856940428
0.04849146521
0.04782162729
0.04770480048
0.04706416477
0.04680374798
0.04609214854
0.04556965463
0.04467314868
0.09305028484
0.08519184288
0.08047516127
0.07506740418
0.07207641189
0.06821879314
0.06632846265
0.06351984755
0.06236012892
0.06029058097
0.05962149134
0.05808187556
0.05773293794
0.0565693811
0.05640655186
0.05549497334
0.05540114846
0.05463150434
0.05449366938
0.05375877366
0.05345781043
0.05264367399
0.05204517278
0.051021543
0.1044710777
0.09564194083
0.09034110895
0.08426398178
0.08090101808
0.07656453179
0.07443747961
0.0712788631
0.06997219097
0.06764345143
0.06688769515
0.06515403242
0.0647577854
0.06344652322
0.0632593728
0.06223141437
0.06212207751
0.06125421984
0.06109612086
0.06026845452
0.05992831691
0.05901329243
0.05834077317
0.05719238979
0.1155776857
0.1058041511
0.09993527919
0.09320728004
0.08948284495
0.08468106801
0.08232417927
0.07882582826
0.07737665713
0.07479667457
0.07395703466
0.07203560949
0.0715936876
0.07013979782
0.06992920088
0.06878906768
0.06866464567
0.06770215489
0.06752404331
0.06660674512
0.06622776292
0.06521476823
0.06446894718
0.06319951937
0.1263041954
0.1156186858
0.1092008755
0.1018438904
0.09776978229
0.09251792552
0.0899383763
0.08611096527
0.0845234329
0.08169967473
0.0807782886
0.07867427638
0.07818757194
0.07659463598
0.07636085264
0.0751111219
0.07497179282
0.07391679172
0.07371931271
0.07271461396
0.0722985594
0.07119053459
0.07037521795
0.06898863866
0.1366515752
0.1250858623
0.1181386068
0.1101749777
0.1057639374
0.1000783922
0.09728458741
0.09314050473
0.09142011599
0.08836216525
0.08736255937
0.08508352473
0.08455421989
0.08282832712
0.08257266371
0.08121833748
0.081064904
0.07992159351
0.0797053619
0.07861690901
0.07816447737
0.0769649183
0.0760811613
0.07458223948
0.1465490394
0.1341415259
0.1266874492
0.1181431276
0.1134091232
0.1073079553
0.1043083741
0.09986032792
0.09801194215
0.09472871936
0.0936533556
0.09120551105
0.09063455835
0.08878003795
0.08850265953
0.08704688726
0.08687938257
0.08565040404
0.08541598292
0.08424660779
0.08375964073
0.08247219311
0.08152398363
0.07991661406
0.1560069271
0.1427944878
0.1348562233
0.125757121
0.1207149601
0.1142171628
0.1110215994
0.1062839287
0.1043139998
0.1008165812
0.09966964816
0.09706172111
0.09645178545
0.09447564506
0.09417824314
0.09262676237
0.09244634735
0.09113650898
0.09088491597
0.08963880676
0.08911853695
0.08774721326
0.08673639636
0.0850257861
0.1649510209
0.1509775267
0.1425809341
0.1329567346
0.1276223938
0.1207486667
0.1173668218
0.1123541234
0.1102682035
0.1065668715
0.1053511631
0.1025903507
0.1019424761
0.09984976632
0.09953245412
0.09788896701
0.09769556502
0.09630796773
0.096039669
0.09472006925
0.09416827294
0.09271713925
0.09164758528
0.08983851725
0.1734003261
0.1587073214
0.1498778894
0.139757753
0.1341479007
0.1269195889
0.1233624896
0.1180908502
0.1158962163
0.1120033709
0.1107236319
0.1078196804
0.1071369229
0.1049354481
0.1046002219
0.1028710998
0.1026661569
0.1012061212
0.1009224596
0.09953396888
0.09895230289
0.0974256369
0.09629977033
0.09439711743
0.1812787168
0.1659149589
0.1566814575
0.1460984217
0.1402308602
0.1326710469
0.1289495245
0.1234352664
0.1211381354
0.1170653193
0.11572469
0.1126857241
0.1119692603
0.1096647653
0.1093117379
0.1075012236
0.1072845943
0.1057556727
0.1054570248
0.1040033028
0.103393458
0.1017958277
0.100617474
0.09862735612
0.1886130322
0.1726242403
0.1630146891
0.1520007977
0.1458938226
0.1380259207
0.1341520564
0.1284127828
0.126021109
0.1217818515
0.1203855065
0.1172221243
0.116475287
0.1140762304
0.1137075999
0.1118225815
0.1115959093
0.1100038435
0.1096918121
0.1081777976
0.1075418195
0.1058777127
0.1046498571
0.1025768423
0.1953267814
0.1787659608
0.1688116813
0.1574029079
0.1510759454
0.1429251447
0.1389108001
0.1329643785
0.1304850127
0.1260920055
0.1246434489
0.1213646404
0.1205887884
0.1181015809
0.1177175262
0.1157627845
0.1155259253
0.1138747454
0.1135496854
0.1119795329
0.1113190992
0.1095937286
0.1083202525
0.1061717785
0.2014537254
0.1843702197
0.1741014044
0.1623322726
0.1558049889
0.1473964571
0.1432545718
0.1371198682
0.1345612824
0.1300289693
0.1285336654
0.1251506948
0.1243493074
0.1217829019
0.1213857001
0.1193685127
0.1191232018
0.1174189966
0.1170827087
0.1154617068
0.114779271
0.1129974327
0.1116819998
0.1094623327
0.2069185277
0.1893688998
0.1788190326
0.1667280003
0.1600212245
0.1513819575
0.1471253129
0.1408215425
0.1381911863
0.1335332847
0.1319951192
0.1285177709
0.1276924418
0.1250538802
0.1246438501
0.1225695241
0.1223157038
0.1205629881
0.1202158951
0.1185487271
0.1178460406
0.1160136665
0.114660261
0.1123783134
0.2117609184
0.1937975367
0.1829985955
0.1706222289
0.1637567238
0.154913308
0.1505554962
0.1441025175
0.1414092143
0.1366408562
0.1350654371
0.1315054442
0.1306596595
0.1279582147
0.1275375694
0.1254136252
0.1251529753
0.1233580931
0.1230020626
0.1212943936
0.1205742717
0.1186966579
0.1173097931
0.1149695109
0.2159081516
0.1975904083
0.186577626
0.1739563868
0.1669541471
0.1579350621
0.1534896617
0.1469078246
0.1441595803
0.1392953727
0.1376869807
0.1340548407
0.1331904794
0.1304337757
0.1300030434
0.1278352749
0.1275678931
0.1257357841
0.1253713542
0.1236282818
0.1228925511
0.1209761953
0.1195598787
0.1171717316
0.2194049848
0.2007876284
0.1895943576
0.1767663903
0.1696489893
0.1604818883
0.1559629342
0.1492728107
0.146478636
0.1415341689
0.1398984162
0.1362061329
0.1353265548
0.1325240063
0.1320851899
0.1298811923
0.1296085204
0.1277456321
0.1273745053
0.1256019885
0.1248536067
0.1229044516
0.1214641176
0.1190326154
0.2221825703
0.2033270635
0.1919898519
0.1789971183
0.171787463
0.1625019681
0.1579237011
0.1511465466
0.1483149506
0.1433055722
0.1416471396
0.1379058311
0.1370132455
0.1341729997
0.133726902
0.1314928992
0.1312152508
0.1293268411
0.1289496881
0.1271529922
0.1263937728
0.1244183612
0.1229577377
0.1204935853
0.224289793
0.2052525857
0.1938057325
0.1806874709
0.1734076535
0.1640321222
0.159408813
0.152565632
0.1497056594
0.1446471928
0.1429715762
0.1391933316
0.1382908672
0.1354223175
0.1349706219
0.1327141214
0.1324325492
0.1305249528
0.1301430522
0.1283280693
0.1275606645
0.1255652317
0.1240900672
0.1216001392
0.2256628455
0.2065066919
0.1949876096
0.1817867602
0.1744603318
0.1650251714
0.160371574
0.1534842832
0.1506048799
0.1455132524
0.1438255261
0.1400219824
0.1391122174
0.1362239767
0.1357678364
0.1334954645
0.1332106137
0.1312893967
0.1309037416
0.1290758654
0.1283024593
0.1262932526
0.1248077943
0.1223012956
0.2263539186
0.2071362619
0.1955797569
0.182336153
0.174985432
0.1655193379
0.1608497587
0.1539395182
0.1510496248
0.1459406794
0.1442461285
0.1404292958
0.1395150658
0.1366163815
0.1361571206
0.1338761954
0.1335886847
0.1316599371
0.1312712032
0.1294359385
0.1286580269
0.1266407454
0.1251481161
0.122632874
0.2263051831
0.2070892811
0.1955331698
0.1822901967
0.1749390979
0.1654728915
0.1608024338
0.1538915624
0.1510004781
0.1458905432
0.1441946111
0.1403765302
0.1394608049
0.1365606943
0.1360998892
0.1338174428
0.1335284018
0.1315981282
0.1312079674
0.129371282
0.1285922869
0.1265739096
0.1250811134
0.1225656566
0.2255714153
0.206414979
0.1948941297
0.1816917107
0.1743624888
0.1649248376
0.1602676541
0.1533771971
0.1504936377
0.1453983762
0.1437060668
0.1398985241
0.1389838201
0.1360912916
0.1356299319
0.1333530681
0.1330627932
0.1311369546
0.1307457523
0.1289132207
0.1281343607
0.1261211287
0.1246309804
0.1221249811
0.2241014839
0.2050674855
0.1936196514
0.180501077
0.1732177189
0.163839477
0.1592108413
0.1523632461
0.1494967602
0.1444327051
0.1427497792
0.1389650798
0.138054744
0.1351791223
0.1347192168
0.1324552987
0.1321654054
0.1302503369
0.1298602666
0.1280381318
0.1272632522
0.1252620702
0.1237814244
0.1212912999
0.2219521443
0.2030978266
0.1917574939
0.1787622707
0.1715466851
0.1622561316
0.1576698646
0.150885801
0.1480447741
0.1430272197
0.1413583483
0.1376079207
0.13670414
0.1338541024
0.1333963338
0.1311521938
0.1308627314
0.1289642396
0.128575562
0.1267694419
0.1259998663
0.1240172209
0.1225493969
0.1200849337
0.2190794494
0.2004667198
0.1892711101
0.1764418948
0.1693178414
0.1601454753
0.1556168282
0.1489185859
0.1461126919
0.1411581594
0.1395093389
0.1358055839
0.1349120219
0.132097059
0.1316438041
0.1294269928
0.1291399547
0.1272645011
0.1268796909
0.125095745
0.1243353237
0.1223776723
0.1209287732
0.1184959855
0.2155416469
0.1972265458
0.186209325
0.1735847071
0.1665734756
0.1575468357
0.1530891325
0.1464967562
0.1437339592
0.1388571977
0.1372327276
0.1335865899
0.1327051013
0.1299334637
0.1294851147
0.1273021006
0.1270173017
0.1251704035
0.1247895714
0.1230332018
0.1222832432
0.1203568119
0.118930344
0.1165378742
0.2113022314
0.1933448397
0.1825422343
0.1701637042
0.163288524
0.1544373655
0.1500656314
0.1436009587
0.1408909162
0.1361082041
0.1345142094
0.1309379952
0.1300724646
0.1273536398
0.1269128326
0.124771191
0.1244908518
0.122678937
0.1223046479
0.1205818169
0.1198459633
0.1179568454
0.116558221
0.1142124547
0.2064205727
0.1888750034
0.1783194321
0.166224173
0.1595054545
0.1508562372
0.1465831469
0.1402653617
0.1376155385
0.1329409163
0.1313812988
0.127885356
0.1270373134
0.1243790415
0.1239459001
0.1218516574
0.1215753735
0.1198035683
0.1194357656
0.1177515062
0.1170309779
0.1151849798
0.1138177491
0.1115264175
0.2008676397
0.1837914138
0.1735176556
0.1617454734
0.1552056146
0.1467869652
0.1426271092
0.1364773004
0.1338971854
0.1293464504
0.127827343
0.1244236828
0.1235971247
0.1210087151
0.1205860218
0.1185466239
0.1182767185
0.1165513015
0.1161925185
0.1145525685
0.1138507499
0.1120536958
0.1107227519
0.1084924166
0.1947036594
0.1781482589
0.1681870751
0.1567732757
0.1504315612
0.1422685382
0.1382338033
0.1322700734
0.1297665668
0.1253529032
0.1238777959
0.1205760728
0.119772224
0.117260843
0.1168484909
0.1148694773
0.114605367
0.1129310357
0.1125810747
0.1109900708
0.1103080819
0.1085653864
0.1072742356
0.1051121023
0.1879069087
0.1719265955
0.1623108819
0.1512930887
0.14517079
0.137290519
0.1333948522
0.1276372499
0.1252195163
0.1209580037
0.1195329124
0.1163446442
0.1155675054
0.1131421151
0.1127429355
0.1108314837
0.1105755115
0.1089582979
0.108619613
0.1070830301
0.1064240237
0.1047412339
0.1034943812
0.1014068486
0.1805382902
0.1651812418
0.1559397138
0.1453509082
0.1394659554
0.1318917903
0.128146165
0.1226115083
0.1202858292
0.1161886636
0.1148166623
0.11175073
0.1110012499
0.1086683996
0.108282104
0.1064432479
0.1061947066
0.1046388785
0.1043111758
0.1028332665
0.1021982693
0.1005804345
0.09938126149
0.09737511988
0.1725830449
0.1578996101
0.1490628671
0.1389380201
0.1333102752
0.126067485
0.1224850021
0.1171920195
0.1149670825
0.1110483973
0.1097352642
0.1068025009
0.1060845849
0.1038527291
0.1034821161
0.1017226353
0.1014838293
0.09999507569
0.09968070553
0.09826661543
0.09765856522
0.09611088205
0.09496354114
0.09304478463
0.1641026359
0.1501370524
0.1417314017
0.1321007514
0.126746579
0.119856533
0.1164471402
0.1114111797
0.1092926032
0.1055634894
0.1043118849
0.1015203318
0.1008346869
0.09870972739
0.09835437927
0.09667879573
0.0964489507
0.09503111501
0.09472973031
0.09338333113
0.09280316235
0.09133029365
0.0902379633
0.08841290732
0.1550887785
0.1418868777
0.133940238
0.1248356665
0.1197732533
0.1132590317
0.1100347919
0.1052729985
0.1032688485
0.09974227805
0.09855762936
0.09591725541
0.09526760118
0.0932573347
0.09291994737
0.09133451883
0.09111585129
0.08977418004
0.08948799998
0.08821402347
0.08766444766
0.08627114889
0.08523760646
0.08351169462
0.1456034127
0.1332049085
0.1257408474
0.1171894658
0.1124334201
0.1063141522
0.1032838879
0.09880997329
0.09692516755
0.09361102417
0.09249558357
0.09001353404
0.08940036898
0.08751002626
0.08719010025
0.08569883268
0.08549054857
0.08422846138
0.08395711542
0.08275903884
0.08224088772
0.080931384
0.07995953017
0.07833849752
0.1356441326
0.1240897916
0.1171331963
0.1091634006
0.1047299899
0.09902626341
0.09620082194
0.09203010647
0.0902719557
0.08718185199
0.08614059245
0.0838258068
0.08325258413
0.08148916522
0.08118923149
0.07979774457
0.07960192689
0.07842412989
0.07816967374
0.0770517294
0.07656746081
0.07534598419
0.07443918337
0.07292783788
0.1252732823
0.1145977654
0.1081691658
0.1008045951
0.09670650187
0.09143497802
0.08882197006
0.08496638143
0.08333907187
0.08048159432
0.07951636593
0.07737504503
0.07684208365
0.07521012748
0.07492964399
0.07364142106
0.07345729168
0.07236677376
0.07212883037
0.07109407694
0.07064440176
0.06951468094
0.06867548887
0.0672788834
0.1144936603
0.1047321862
0.09885312654
0.09211833771
0.08836969176
0.083548195
0.08115709326
0.07762991078
0.07613987805
0.07352510267
0.07264033226
0.07068023799
0.07019065388
0.06869623867
0.06843751739
0.06725743431
0.06708690192
0.0660877394
0.06586816936
0.06492026307
0.06450735701
0.06347303477
0.06270436972
0.0614266246
0.1033679225
0.0945496354
0.08923734877
0.0831522073
0.07976361841
0.07540614397
0.07324327269
0.07005451301
0.06870518513
0.06634032417
0.06553746462
0.06376381145
0.06331776711
0.06196472055
0.0617272065
0.06065821503
0.06050054203
0.05959528163
0.05939370889
0.0585352626
0.05815969476
0.05722394878
0.05652796402
0.05537336288
0.09190336429
0.08405751924
0.07932993683
0.07391485617
0.07089812696
0.06701950119
0.06509281977
0.06225353348
0.06105036707
0.05894380544
0.05822665824
0.05664590122
0.05624611503
0.05503948469
0.05482522528
0.05387136559
0.05372825222
0.05292026346
0.05273832731
0.05197235792
0.05163599935
0.05080183335
0.05018097708
0.0491529177
0.08016281439
0.07331264564
0.06918348509
0.06445430305
0.06181784806
0.05842923396
0.05674371869
0.05426190505
0.0532075483
0.0513650598
0.05073468424
0.04935101623
0.04899751184
0.04794039672
0.04774884548
0.04691252783
0.04678329309
0.04607466772
0.04591199488
0.04524064387
0.0449439016
0.04421389551
0.04366987074
0.04277179541
0.06815735317
0.06232581023
0.05880916661
0.05478190055
0.05253503698
0.04964806749
0.04821004829
0.04609437236
0.04519321555
0.04362136484
0.04308087077
0.04189933178
0.04159438002
0.04069070581
0.04052360864
0.03980796108
0.03969406983
0.03908740786
0.03894539647
0.03837099183
0.03811541635
0.03749189821
0.037026667
0.03626122542
0.05594977492
0.05115386589
0.04825976652
0.04494602353
0.04309487328
0.04071774711
0.03953080403
0.03778716376
0.03704105857
0.0357441305
0.03529418665
0.03431792014
0.03406141884
0.03331354182
0.03317037596
0.03257725844
0.03247809664
0.0319750235
0.03185330241
0.0313774928
0.03116331195
0.03064822622
0.03026300341
0.02963273844
0.04355426782
0.03981036946
0.03754889818
0.03496010162
0.03351137205
0.03165237458
0.03072111625
0.0293556669
0.02876786773
0.02775050411
0.02739347573
0.0266260205
0.02641975311
0.02583040442
0.02571258517
0.02524415315
0.02516092957
0.02476322667
0.02466293817
0.02428732509
0.02411575754
0.0237107299
0.02340698012
0.02291377493
0.03103328983
0.02835195068
0.02672931591
0.0248726928
0.02383014225
0.0224944121
0.0218209875
0.02083746537
0.02040901616
0.0196739771
0.01941014533
0.01885357625
0.01869732484
0.01826810859
0.01817514789
0.01783270521
0.01776488001
0.01747369858
0.01739447314
0.017120197
0.01699127939
0.01669759118
0.01647601378
0.01612146788
0.01840352321
0.01679435961
0.01581651018
0.01469874891
0.01406638581
0.01325874951
0.01284597951
0.01224794004
0.01198090828
0.01153083778
0.01136178375
0.011018075
0.01091310549
0.01064550457
0.01057846487
0.01036314941
0.01031165933
0.01012792595
0.01007063828
0.009898546696
0.009813156511
0.009631712182
0.009493265516
0.009278483584
0.005726683015
0.00519363464
0.004862878413
0.004486732895
0.004265907581
0.003988385435
0.003836967158
0.003625949165
0.003520565484
0.003356678499
0.003282299469
0.003152447348
0.003098434134
0.002993296691
0.002951733059
0.002864291021
0.002828676245
0.002753064834
0.002717348311
0.002648065372
0.002606042444
0.002537443499
0.00248229572
0.002407904849
-0.00697858037
-0.006432765212
-0.006114685417
-0.005747344937
-0.005555374585
-0.005301482119
-0.005190555206
-0.005013651535
-0.00495653818
-0.004833641807
-0.004812574581
-0.004728200227
-0.004730529622
-0.004673003362
-0.004688397565
-0.004647875187
-0.00466696237
-0.004634404199
-0.004647952404
-0.004614351577
-0.00461247962
-0.00456806219
-0.004539466556
-0.004473145714
-0.01965182122
-0.01802987215
-0.01706458283
-0.01595551073
-0.01535182036
-0.01456763072
-0.01419512089
-0.01363096427
-0.01341193694
-0.01300259195
-0.01288656081
-0.01258804279
-0.01253911515
-0.01231883088
-0.01230845089
-0.01213977261
-0.01214270679
-0.01200178023
-0.01199352053
-0.01185692849
-0.0118115177
-0.01165416748
-0.01154219539
-0.01133552168
-0.03227283752
-0.0295789003
-0.02796888122
-0.0261210496
-0.02510714485
-0.0237949065
-0.02316165887
-0.02221202487
-0.02183146394
-0.02113713209
-0.02092618671
-0.02041477495
-0.02031441205
-0.0199324666
-0.01989599826
-0.01960013327
-0.01958655541
-0.01933810366
-0.01930772433
-0.01906884811
-0.01897972828
-0.01871001374
-0.01851474043
-0.0181681765
-0.04478309998
-0.0410265454
-0.03877734355
-0.03619699201
-0.03477636687
-0.03294031503
-0.03204854677
-0.03071629544
-0.03017559404
-0.02919814807
-0.02889314649
-0.02816999425
-0.02801871987
-0.02747576537
-0.02741355008
-0.02699085468
-0.02696105029
-0.02660534288
-0.02655319383
-0.02621243578
-0.02608015291