/*--------------------------------*- C++ -*----------------------------------*\
| =========                 |                                                 |
| \\      /  F ield         | foam-extend: Open Source CFD                    |
|  \\    /   O peration     | Version:  3.0                                   |
|   \\  /    A nd           | Web:         http://www.extend-project.de       |
|    \\/     M anipulation  |                                                 |
\*---------------------------------------------------------------------------*/
FoamFile
{
    version     2.0;
    format      ascii;
    class       volSymmTensorField;
    location    "34";
    object      sigma;
}
// * * * * * * * * * * * * * * * * * * * * * * * * * * * * * * * * * * * * * //

dimensions      [0 0 0 0 0 0 0];

internalField   nonuniform List<symmTensor> 
2688
(
(-0.1778070102 -0.004905522207 1.459199191e-19 0.1778282912 3.103515366e-19 -2.128100009e-05)
(-0.1741311176 -0.00572002461 5.840311523e-20 0.1741898609 1.640733309e-19 -5.874324969e-05)
(-0.1669003995 -0.0060750395 -9.499295375e-20 0.1669932965 6.757368027e-19 -9.289698195e-05)
(-0.1575263237 -0.006123732726 7.490674562e-20 0.1576502532 2.487156225e-19 -0.0001239294522)
(-0.1476206403 -0.006014291326 2.974547818e-20 0.1477725581 3.863861622e-19 -0.0001519178222)
(-0.1372848881 -0.005792036496 1.003614708e-19 0.1374617594 1.545703178e-19 -0.0001768712973)
(-0.1272967719 -0.005516426077 4.443025511e-20 0.1274955057 2.549483964e-19 -0.0001987338189)
(-0.117472044 -0.005203185366 6.942102805e-20 0.1176894746 9.317758265e-20 -0.000217430548)
(-0.1082108327 -0.004875780499 -5.230736632e-21 0.1084436513 1.820705328e-19 -0.0002328185371)
(-0.09932020235 -0.004541552365 -5.590341742e-20 0.0995649643 -5.665732519e-20 -0.0002447619441)
(-0.09100313824 -0.004208114241 7.134407616e-20 0.09125618941 4.13884844e-19 -0.0002530511671)
(-0.08312483919 -0.003881056195 -3.069451539e-20 0.08338236048 8.833221013e-20 -0.000257521284)
(-0.07577383939 -0.003559963089 3.218584954e-19 0.07603178436 1.048560226e-19 -0.0002579449748)
(-0.06888490177 -0.003251403374 -4.94956066e-20 0.06913909721 3.794659209e-20 -0.0002541954367)
(-0.06247107721 -0.002949950713 -3.448921253e-20 0.06271718823 8.902318159e-20 -0.0002461110183)
(-0.05653608273 -0.002664444056 1.420210037e-20 0.05676977566 3.73328027e-20 -0.0002336929269)
(-0.05103621284 -0.002385781171 -3.618023116e-20 0.05125314683 1.839171646e-19 -0.0002169339968)
(-0.04604100556 -0.002125411067 1.771936589e-19 0.0462370595 1.061829973e-19 -0.0001960539398)
(-0.04146183841 -0.001871764274 -1.778637475e-19 0.04163312894 -5.326138186e-20 -0.0001712905219)
(-0.03742724216 -0.001637905947 1.171927064e-19 0.03757042649 2.358988967e-19 -0.0001431843281)
(-0.03381942375 -0.001412396487 1.075443125e-19 0.03393176464 -1.5271296e-19 -0.0001123408885)
(-0.03080757906 -0.001205898112 4.206857147e-20 0.03088733756 -2.255824726e-19 -7.975849828e-05)
(-0.02827854467 -0.001018994874 -2.83212411e-20 0.0283251127 5.494517565e-20 -4.656802618e-05)
(-0.02639861871 -0.0008125931824 -7.367741267e-20 0.02641298873 -4.824604195e-19 -1.437001828e-05)
(-0.1773073284 -0.01458478705 4.802560169e-20 0.1773295822 -4.23245025e-19 -2.225379542e-05)
(-0.1732155017 -0.01709487015 2.688774034e-19 0.1732768984 -2.179839495e-19 -6.139671634e-05)
(-0.1657425643 -0.01822855921 6.712563678e-20 0.1658396288 -3.999267709e-19 -9.706452026e-05)
(-0.1562437989 -0.01844703325 -1.516741217e-19 0.1563732619 1.208461351e-20 -0.0001294630234)
(-0.14627946 -0.01819419462 6.924897822e-20 0.1464381514 -1.023831387e-19 -0.000158691436)
(-0.1359313144 -0.01760702215 -8.18557611e-20 0.1361160773 -2.477534234e-19 -0.0001847629375)
(-0.1259575868 -0.01686414237 1.763111619e-19 0.1261652191 1.597818614e-19 -0.0002076322356)
(-0.1161650017 -0.01601346814 -4.896032246e-20 0.1163922278 -4.102548797e-19 -0.0002272260909)
(-0.1069468104 -0.01512601423 -8.588900367e-20 0.1071902123 7.674698188e-20 -0.0002434018706)
(-0.09810478069 -0.01422438928 2.35140151e-19 0.09836080001 -3.833643005e-19 -0.0002560193253)
(-0.08984030271 -0.01333216481 1.132427538e-19 0.09010516497 -1.074565129e-19 -0.0002648622619)
(-0.08201460747 -0.01246669173 -5.452293508e-20 0.08228436285 -2.328818613e-19 -0.0002697553786)
(-0.07471719235 -0.01162753716 -1.348310986e-19 0.07498765206 7.959455057e-20 -0.0002704597115)
(-0.06787906738 -0.01083495183 1.445521438e-19 0.06814590204 -1.119385428e-20 -0.0002668346651)
(-0.06151579966 -0.01007363748 -2.61259505e-20 0.06177450312 1.278070584e-19 -0.0002587034619)
(-0.0556269781 -0.009370462465 6.475675527e-20 0.05587303111 3.924368427e-19 -0.0002460530103)
(-0.05017254346 -0.008699528909 2.955088601e-19 0.05040140151 -2.971407241e-19 -0.0002288580505)
(-0.04521729631 -0.008095057264 -3.935002232e-19 0.04542461685 4.233190101e-19 -0.0002073205309)
(-0.04067709711 -0.007524639018 3.003168046e-19 0.04085875179 2.930463575e-19 -0.0001816546829)
(-0.0366751501 -0.007026542229 2.927285511e-20 0.0368275286 -7.295918326e-20 -0.0001523784966)
(-0.03309850641 -0.006570097848 -4.781913216e-19 0.03321857917 1.344666666e-19 -0.0001200727639)
(-0.03011107311 -0.006186174784 1.693404935e-19 0.03019678638 2.701233158e-19 -8.571326826e-05)
(-0.02760219993 -0.005869686233 -3.253450713e-19 0.02765260594 3.051603721e-19 -5.040600488e-05)
(-0.02574076072 -0.005585387383 2.409089434e-19 0.02575649808 -2.62019099e-19 -1.573736172e-05)
(-0.1763124352 -0.02423404705 1.830908144e-19 0.1763355813 3.427943319e-19 -2.314610067e-05)
(-0.171397068 -0.02832405132 2.390935764e-20 0.1714608754 4.49572167e-19 -6.380738584e-05)
(-0.1634437667 -0.03016579864 3.80873131e-20 0.16354461 2.043106362e-19 -0.0001008433082)
(-0.1536966083 -0.03051421782 2.736523188e-19 0.1538310972 1.140884337e-19 -0.0001344889423)
(-0.1436141195 -0.03009567039 -1.787144798e-19 0.143778976 2.973373838e-19 -0.0001648564462)
(-0.133238888 -0.02913360763 2.696952075e-19 0.1334308595 1.151510609e-19 -0.0001919714259)
(-0.1232906739 -0.02792091856 -6.592523926e-20 0.1235064638 2.409806037e-19 -0.0002157898731)
(-0.1135582662 -0.02653515621 -2.173633216e-20 0.1137945041 1.876285092e-19 -0.0002362378488)
(-0.1044213517 -0.02509320781 -3.437167437e-20 0.1046745194 4.75538315e-19 -0.0002531677377)
(-0.09567115462 -0.02363142632 -2.630755897e-19 0.09593758736 1.958971483e-19 -0.0002664327373)
(-0.0875058938 -0.02218896901 1.585753446e-19 0.08778170355 4.550075026e-19 -0.0002758097556)
(-0.07977896064 -0.02079383725 1.476397554e-19 0.08006007617 6.71858595e-20 -0.0002811155303)
(-0.07258164412 -0.01944583414 5.237655966e-19 0.07286374603 -6.264016585e-20 -0.0002821019065)
(-0.06583759168 -0.01817786651 1.56259717e-20 0.06611620844 -8.843013325e-20 -0.0002786167588)
(-0.05956713285 -0.01696539771 3.949956549e-19 0.05983760446 -6.202444025e-20 -0.0002704716103)
(-0.05376183206 -0.01585222742 -3.162256494e-19 0.05401946825 -1.108753194e-19 -0.0002576361862)
(-0.04838850544 -0.0147965582 -3.662102046e-20 0.04862857542 1.622644655e-19 -0.0002400699806)
(-0.0435028898 -0.01385416273 9.679562986e-19 0.04372084193 -1.369083266e-19 -0.0002179521353)
(-0.0390291413 -0.01297290798 -6.450466302e-19 0.03922061868 1.330472442e-19 -0.0001914773874)
(-0.0350805531 -0.01221492688 2.503572204e-20 0.03524169054 -2.302525702e-20 -0.0001611374443)
(-0.03155298656 -0.0115315376 4.898058565e-19 0.03168047608 6.115148828e-20 -0.0001274895206)
(-0.02860042577 -0.01097264199 3.929584019e-19 0.02869190438 -3.385417762e-19 -9.14786134e-05)
(-0.02611864619 -0.01052790189 -6.364267526e-19 0.02617282466 2.86363329e-19 -5.417847042e-05)
(-0.02427336768 -0.0101661129 -9.496737487e-20 0.0242904979 -4.1437678e-19 -1.713021765e-05)
(-0.1748219951 -0.03383311192 5.567194022e-20 0.1748459514 -1.878378402e-21 -2.395630779e-05)
(-0.1687020021 -0.03931352356 1.656065456e-19 0.1687680135 -1.595187e-19 -6.601141486e-05)
(-0.1600466008 -0.04174758617 -5.952006171e-20 0.160150901 -7.130383737e-19 -0.0001043002372)
(-0.1499368943 -0.04216053951 -1.540461092e-19 0.1500759801 1.414118454e-19 -0.0001390858518)
(-0.1396822629 -0.04153959724 1.385559007e-19 0.1398527592 -2.173400132e-19 -0.0001704963072)
(-0.1292680345 -0.0401861507 -1.729775863e-19 0.1294666015 5.867757906e-20 -0.0001985669867)
(-0.11935747 -0.03849922177 3.222258177e-19 0.1195807269 -5.772799943e-20 -0.0002232568505)
(-0.1097132379 -0.03658194967 5.935880539e-20 0.109957729 2.60203778e-19 -0.0002444910948)
(-0.1006949722 -0.03459428771 9.809160994e-20 0.1009570904 -4.48706946e-19 -0.0002621182515)
(-0.0920786308 -0.03258385347 1.970571996e-19 0.09235461728 7.980618921e-20 -0.0002759864861)
(-0.08405762574 -0.03060482497 -3.780480879e-20 0.0843434918 2.062249252e-19 -0.000285866061)
(-0.07647397754 -0.02869396222 -4.895308206e-19 0.0767655435 -3.462225426e-19 -0.0002915659563)
(-0.06942149628 -0.02685180132 -4.157312859e-19 0.06971432502 4.682094718e-19 -0.0002928287436)
(-0.06281307831 -0.02512214636 2.798360974e-19 0.06310257005 -4.377210619e-19 -0.0002894917408)
(-0.05667600129 -0.02347236077 -1.919882017e-19 0.05695735419 9.486448606e-19 -0.0002813529025)
(-0.05099004555 -0.02196127397 4.714697293e-19 0.05125841363 -8.813845858e-20 -0.0002683680728)
(-0.04573212966 -0.02053284689 5.066205673e-20 0.04598260713 3.76138533e-19 -0.0002504774726)
(-0.04094468323 -0.01926209989 -2.62391044e-19 0.04117252492 -3.598737791e-19 -0.0002278416877)
(-0.03656389719 -0.0180794685 6.645053117e-19 0.03676452846 -2.757493687e-20 -0.0002006312703)
(-0.03268909855 -0.01706779222 -1.98600622e-19 0.03285841294 8.16587124e-20 -0.0001693143815)
(-0.02922729319 -0.01616370844 -8.813316999e-19 0.02936171283 1.735642982e-19 -0.0001344196486)
(-0.02632210867 -0.01543212053 6.664264001e-19 0.02641897095 -8.347243949e-20 -9.686228158e-05)
(-0.02387053194 -0.0148605372 -2.22667497e-19 0.02392821486 5.747480157e-19 -5.768292427e-05)
(-0.02204573053 -0.01442195784 3.341321373e-19 0.02206412662 -2.173820272e-19 -1.839608933e-05)
(-0.172835446 -0.04336151532 6.699928861e-20 0.1728601437 1.62787504e-19 -2.469776077e-05)
(-0.1651688682 -0.04997436516 -3.344816939e-19 0.1652368852 -1.82734814e-19 -6.801701418e-05)
(-0.1556137061 -0.05284349358 2.754243513e-19 0.1557211478 -2.530905694e-19 -0.0001074417027)
(-0.1450412646 -0.05323192398 5.107787043e-19 0.1451845253 2.831361141e-19 -0.0001432607235)
(-0.1345685861 -0.05235882077 -1.259416201e-19 0.1347442036 -2.714085163e-19 -0.0001756175124)
(-0.1241075088 -0.05059145947 2.711181026e-19 0.1243120658 4.997928545e-19 -0.000204556941)
(-0.114248262 -0.04842436368 1.942850875e-19 0.1144783037 -2.989326517e-19 -0.0002300417219)
(-0.1047201057 -0.04598036645 -3.066945714e-19 0.1049721016 4.432946464e-19 -0.0002519959559)
(-0.09585670077 -0.04345895093 -2.496770084e-19 0.09612696777 3.710100332e-19 -0.0002702669967)
(-0.08741447902 -0.04091543438 4.325360829e-19 0.08769917652 -2.759580281e-19 -0.0002846974953)
(-0.07958058595 -0.0384183494 6.915680079e-20 0.07987563891 -2.143603517e-19 -0.0002950529626)
(-0.07218248538 -0.03601060215 4.662023991e-19 0.07248361957 -9.296599663e-20 -0.000301134193)
(-0.06531714691 -0.03369413022 2.4662314e-19 0.06561982307 4.112575461e-19 -0.0003026761631)
(-0.05888373099 -0.0315212708 4.427245966e-19 0.05918323477 -2.975066111e-19 -0.000299503771)
(-0.05291829926 -0.02945276407 7.921029706e-19 0.05320970449 3.410884023e-19 -0.0002914052262)
(-0.04738564882 -0.02755995402 -7.38172996e-19 0.04766396653 -9.633990246e-19 -0.0002783177033)
(-0.0422753642 -0.0257746544 -1.436801742e-20 0.04253553214 -5.997012854e-19 -0.0002601679359)
(-0.03761312473 -0.02418827041 2.453682246e-19 0.03785021628 1.659784284e-19 -0.000237091541)
(-0.03334998542 -0.02271642044 -2.373869828e-19 0.03355922554 -1.114276504e-19 -0.0002092401218)
(-0.02956782841 -0.02145955712 6.36208068e-19 0.0297448798 -2.287434414e-20 -0.0001770513916)
(-0.02618807279 -0.02034218619 2.588735485e-19 0.02632910066 -1.461755363e-19 -0.0001410278684)
(-0.023339345 -0.01944211654 5.477505824e-19 0.02344139108 5.59566379e-19 -0.0001020460797)
(-0.0209260595 -0.01874503223 -7.368143832e-20 0.02098716914 -9.471610545e-19 -6.110964033e-05)
(-0.01912037035 -0.01822778011 -6.024063328e-19 0.01914004812 1.078372977e-18 -1.967776556e-05)
(-0.1703524218 -0.05279766232 -2.932323861e-19 0.1703777769 6.301672941e-19 -2.535512036e-05)
(-0.1608474318 -0.06022443028 -4.036812405e-19 0.1609172351 5.017619866e-19 -6.980332461e-05)
(-0.1502259923 -0.06333436279 -5.467791007e-20 0.1503362325 -5.968282555e-20 -0.0001102401476)
(-0.1391086322 -0.06358849151 -1.976661993e-19 0.1392556117 3.340463611e-19 -0.0001469794858)
(-0.1283825578 -0.06240182963 2.141740937e-19 0.1285627374 2.791680154e-19 -0.000180179537)
(-0.1178719512 -0.06019296847 -1.411969881e-19 0.1180818455 -2.123162617e-19 -0.0002098942828)
(-0.108079725 -0.05753843593 3.827713027e-19 0.1083158153 -5.275465929e-20 -0.0002360903345)
(-0.09869542146 -0.05457380678 6.176345778e-19 0.09895411416 5.849605641e-19 -0.0002586926974)
(-0.09002156207 -0.05153343785 -2.964374606e-19 0.09029910878 -1.037306131e-18 -0.0002775467163)
(-0.08179146029 -0.04847616318 -7.408967613e-19 0.08208395201 9.970437639e-19 -0.0002924917208)
(-0.0741846495 -0.04548387853 5.960033198e-20 0.07448793749 2.134427353e-19 -0.0003032879965)
(-0.06701137246 -0.04260252033 -2.332700018e-20 0.06732110164 -6.708055987e-20 -0.0003097291853)
(-0.06037227479 -0.0398361803 -4.455408969e-19 0.06068381703 -1.101156966e-21 -0.0003115422386)
(-0.0541502122 -0.03724287344 1.639667109e-20 0.05445875411 1.212200628e-20 -0.0003085419061)
(-0.04839168034 -0.0347785153 -3.065324041e-19 0.04869218395 6.952247177e-20 -0.0003005036111)
(-0.04304364394 -0.03252394385 -3.728740247e-19 0.04333099487 -3.05227441e-19 -0.0002873509339)
(-0.03811071174 -0.03040138985 4.334478237e-19 0.03837970322 1.376113428e-18 -0.0002689914748)
(-0.03359884316 -0.02851518903 3.700030194e-19 0.03384438489 -1.129730795e-19 -0.0002455417363)
(-0.02947603343 -0.02676934934 2.259524944e-19 0.0296931616 6.076597374e-19 -0.000217128166)
(-0.02580542579 -0.02527771883 -4.666643878e-19 0.02598958788 3.675006308e-19 -0.0001841620945)
(-0.02252083952 -0.02395636811 -1.24345018e-19 0.0226679532 3.939744653e-19 -0.0001471136837)
(-0.01974224698 -0.02289160374 -2.435007683e-19 0.01984907027 1.222652561e-18 -0.000106823283)
(-0.01736798759 -0.0220688827 1.145386234e-18 0.01743224265 -3.011303522e-19 -6.425505507e-05)
(-0.01558544602 -0.02147169395 -2.05096544e-19 0.0156062773 2.360911129e-18 -2.083128142e-05)
(-0.1673725629 -0.0621193091 5.339582346e-19 0.1673985037 -1.170865381e-18 -2.594075976e-05)
(-0.1557976096 -0.06999015374 -9.081992926e-19 0.1558689907 2.97945616e-20 -7.13810084e-05)
(-0.1439804783 -0.0731155977 3.810562935e-19 0.1440931846 -7.718493329e-19 -0.0001127062894)
(-0.1322575865 -0.07310825447 5.138076781e-19 0.1324078395 6.616536868e-19 -0.0001502530443)
(-0.1212551865 -0.07153712609 -7.62614145e-20 0.1214393806 -1.110583634e-18 -0.0001841941398)
(-0.1106986367 -0.06885505504 -1.21269365e-19 0.1109132284 4.537363989e-19 -0.0002145917485)
(-0.1009914397 -0.06570504773 5.91770641e-19 0.1012328576 -8.688193186e-20 -0.000241417826)
(-0.09177864323 -0.06222716087 -3.544324416e-19 0.09204324116 -1.081001519e-18 -0.0002645979287)
(-0.08332715418 -0.05868538868 5.074770372e-19 0.08361113163 -5.188105772e-19 -0.0002839774557)
(-0.07534446564 -0.05513706736 1.424743732e-18 0.07564385806 2.224751403e-19 -0.0002993924169)
(-0.06800127169 -0.05167643079 -7.690303705e-19 0.06831187066 -8.593386374e-19 -0.0003105989686)
(-0.06108856378 -0.04834873273 2.305746482e-19 0.06140594778 4.690573693e-19 -0.0003173839965)
(-0.0547109888 -0.04516115444 3.354694641e-19 0.05503045674 3.299233175e-19 -0.0003194679423)
(-0.04873315051 -0.04217402026 1.961659066e-19 0.04904980418 7.805090243e-19 -0.000316653672)
(-0.04321316893 -0.03934051205 8.422874539e-19 0.04352187705 -3.517422759e-19 -0.0003087081224)
(-0.03807809251 -0.03674742369 -4.692897795e-19 0.03837362882 1.287410125e-18 -0.000295536312)
(-0.03334915168 -0.03431027918 3.138666042e-19 0.0336261845 -5.40130536e-19 -0.0002770328273)
(-0.02901049597 -0.03214255877 -6.207963762e-19 0.02926378475 4.964373315e-19 -0.0002532887786)
(-0.02504854406 -0.03013970518 8.111687738e-19 0.02527295456 -3.267584296e-19 -0.0002244105041)
(-0.02150560221 -0.02842603283 4.058700102e-19 0.0216963786 6.072746356e-19 -0.0001907763848)
(-0.0183301385 -0.02690998234 1.611840332e-18 0.01848296512 -6.001177275e-19 -0.000152826617)
(-0.0156288081 -0.02568821838 -4.207946785e-19 0.01574016565 8.53357864e-19 -0.0001113575512)
(-0.01330072914 -0.02473992295 1.391016568e-18 0.01336801935 4.521543868e-19 -6.729021449e-05)
(-0.01154210356 -0.02406274576 -9.187146628e-19 0.01156408755 -4.758333741e-19 -2.198398838e-05)
(-0.1638961932 -0.07130287752 2.533325589e-19 0.1639226318 1.292468427e-18 -2.643856374e-05)
(-0.1500878535 -0.0792076704 2.078461768e-19 0.1501605828 5.73115502e-20 -7.272925847e-05)
(-0.1369878401 -0.08209908014 -4.482604928e-19 0.1371026542 9.952737665e-19 -0.0001148141332)
(-0.1246232175 -0.08168968905 2.204087396e-19 0.1247762678 -8.019415897e-19 -0.0001530502783)
(-0.1133358361 -0.07965596375 3.167317524e-19 0.1135234605 -1.599114977e-19 -0.0001876244071)
(-0.1027439408 -0.07646608297 6.340434548e-20 0.1029625482 7.900988028e-19 -0.0002186073569)
(-0.09314252328 -0.07281218298 -7.131010349e-19 0.09338849936 9.742091449e-20 -0.0002459760777)
(-0.08412869886 -0.06882975752 3.529747045e-19 0.0843983573 -8.224879012e-21 -0.0002696584476)
(-0.07593034995 -0.06480647734 -7.869863217e-19 0.07621984962 1.292514657e-18 -0.0002894996706)
(-0.06822728304 -0.06079275361 -7.632986432e-20 0.06853261642 -4.563990306e-19 -0.0003053333814)
(-0.06118037161 -0.0568938866 3.201659271e-19 0.06149728411 7.92393743e-19 -0.0003169124999)
(-0.05455995858 -0.05315044189 8.221864103e-19 0.0548839761 -9.485246823e-20 -0.0003240175256)
(-0.04847490977 -0.04957362584 -1.604746321e-19 0.04880127207 2.387720153e-19 -0.0003263623016)
(-0.0427701616 -0.04622245778 -3.349439176e-19 0.0430939023 -7.321603656e-19 -0.0003237407002)
(-0.03751637575 -0.04304958273 3.377905014e-19 0.03783228329 -2.8316782e-20 -0.0003159075389)
(-0.03261909206 -0.04014409719 2.568563987e-19 0.03292184721 -9.13648345e-19 -0.0003027551483)
(-0.02811731062 -0.03741767213 3.672580333e-20 0.02840146987 -2.894684928e-21 -0.0002841592506)
(-0.02397213012 -0.03498937621 7.875906754e-19 0.02423232157 -7.785807194e-19 -0.0002601914462)
(-0.02018825047 -0.03274876657 1.340129899e-19 0.02041918257 -3.189118446e-19 -0.0002309321025)
(-0.01678906684 -0.03082742349 -7.033589569e-19 0.01698579722 -6.187007412e-19 -0.0001967303823)
(-0.01373178164 -0.02912881502 5.482787528e-19 0.01388977246 -2.516391897e-19 -0.0001579908191)
(-0.0111201855 -0.02775445633 1.60169981e-18 0.01123565376 3.962275734e-19 -0.0001154682603)
(-0.008840458483 -0.02668397186 6.317455233e-19 0.008910496368 -1.339068983e-18 -7.003788587e-05)
(-0.007108223559 -0.02591828355 1.666883111e-19 0.007131234895 9.788520194e-19 -2.301133665e-05)
(-0.1599240949 -0.08032380126 -3.290262678e-20 0.1599509573 -7.016370635e-19 -2.686242916e-05)
(-0.1437934502 -0.08782430307 -1.271166653e-18 0.1438673121 4.187857115e-19 -7.386192714e-05)
(-0.1293692881 -0.09021538654 8.589286965e-19 0.1294858656 -2.062792685e-18 -0.0001165775778)
(-0.1163533509 -0.08925440962 -7.391468294e-19 0.116508736 6.557384262e-19 -0.0001553850903)
(-0.1047876822 -0.08667533477 7.610915303e-19 0.1049781677 -2.39652778e-19 -0.0001904854718)
(-0.09417870362 -0.08294147739 7.548590803e-19 0.09440066069 -1.496623428e-19 -0.0002219570764)
(-0.08470662707 -0.0787755038 6.237641058e-20 0.08495641042 -3.275395228e-19 -0.000249783357)
(-0.07591901727 -0.07429863342 2.403555646e-19 0.07619291135 -3.874628079e-19 -0.0002738940872)
(-0.06800220543 -0.0698158833 7.044209061e-19 0.06829634114 -6.905796784e-19 -0.0002941357135)
(-0.06060755294 -0.0653648613 3.462141576e-19 0.06091789299 4.869987578e-19 -0.0003103400488)
(-0.05388524822 -0.06106064657 -7.413562932e-19 0.05420750579 -6.603455796e-19 -0.00032225757)
(-0.04758439784 -0.05693475332 1.275897608e-19 0.04791406058 -1.497859915e-20 -0.0003296627381)
(-0.04181806744 -0.05300347927 3.720921599e-19 0.0421503326 2.645318428e-19 -0.0003322651594)
(-0.03641083963 -0.04932059254 -2.9398658e-19 0.03674068672 5.789602721e-19 -0.000329847084)
(-0.03144643761 -0.04584059904 2.840053449e-20 0.03176859424 7.011811952e-19 -0.0003221566328)
(-0.02680796167 -0.04265095133 -4.107976179e-19 0.02711702965 9.973142142e-19 -0.0003090679772)
(-0.02255314782 -0.03966236896 -9.337034159e-20 0.02284359225 2.815024875e-19 -0.0002904444256)
(-0.01861868485 -0.03699638948 -1.364801746e-18 0.01888501692 6.671610499e-19 -0.0002663320716)
(-0.01502898844 -0.03453747728 1.125782407e-18 0.01526577862 8.161069582e-19 -0.0002367901883)
(-0.01178635743 -0.0324267548 1.113288954e-19 0.01198849021 5.154956375e-19 -0.0002021327764)
(-0.008858515548 -0.03055349198 9.666717312e-19 0.009021246993 8.161115474e-19 -0.0001627314452)
(-0.006343348027 -0.0290411943 -1.280141953e-18 0.006462640394 -7.343977428e-19 -0.0001192923673)
(-0.004115023086 -0.02784382332 2.118793973e-18 0.004187665196 4.214580517e-19 -7.264211015e-05)
(-0.002406374333 -0.02698978993 -3.77449669e-19 0.002430395467 -1.372254914e-18 -2.402113418e-05)
(-0.1554582989 -0.08915613322 1.900604654e-18 0.155485495 5.821967693e-21 -2.719610211e-05)
(-0.1369947854 -0.09579903087 3.029904909e-20 0.1370695432 -8.397922361e-19 -7.475782035e-05)
(-0.1212536428 -0.09741495318 -2.036661693e-19 0.1213716134 -1.774806735e-19 -0.0001179706376)
(-0.1076048181 -0.09574859373 5.16525956e-19 0.1077620454 1.248194269e-18 -0.0001572272873)
(-0.09578385148 -0.09253959638 -5.521722058e-19 0.09597659345 -3.733842675e-19 -0.0001927419689)
(-0.08518405734 -0.08822544478 3.37517045e-19 0.08540865861 5.197855414e-19 -0.0002246012637)
(-0.07586794044 -0.08353999675 -6.105276047e-19 0.07612073512 -1.541725025e-19 -0.0002527946854)
(-0.06733350754 -0.07858019498 -5.928056421e-19 0.06761076247 7.518746404e-19 -0.0002772549372)
(-0.0597242009 -0.07366175206 4.921640255e-20 0.06002203121 6.124580021e-19 -0.000297830309)
(-0.05266314462 -0.06880347337 1.107947687e-19 0.05297749563 7.699541922e-19 -0.0003143510163)
(-0.04628927228 -0.06412879275 2.68559566e-19 0.04661583858 1.440527857e-19 -0.000326566303)
(-0.04033057071 -0.05965573683 7.659564535e-19 0.04066481642 6.658330275e-19 -0.0003342457076)
(-0.03490417598 -0.05540673028 7.272329429e-19 0.03524126942 3.110551043e-20 -0.0003370934406)
(-0.0298142212 -0.05142625847 4.74032897e-19 0.03014910571 -8.448953112e-19 -0.0003348845156)
(-0.0251577149 -0.04767313428 1.065872e-18 0.02548507071 -2.819703054e-19 -0.0003273558028)
(-0.02079482556 -0.04422903717 3.281645147e-19 0.02110919529 -1.268543682e-18 -0.0003143697324)
(-0.01680287195 -0.04100692066 2.119131589e-19 0.01709864357 -2.062245137e-19 -0.0002957716215)
(-0.01309245277 -0.03812676548 9.690941073e-19 0.01336404028 -7.918738939e-19 -0.0002715875145)
(-0.009710717645 -0.03547089952 -9.397077222e-19 0.009952568104 -1.170562957e-19 -0.0002418504593)
(-0.006633222128 -0.03318679585 -4.796734383e-19 0.00684006485 -5.628690642e-19 -0.0002068427218)
(-0.003847387967 -0.03115226693 1.967880913e-20 0.004014285789 -6.319596913e-20 -0.0001668978224)
(-0.001431382321 -0.02950845017 -8.237402134e-20 0.001554058117 8.150117747e-19 -0.0001226757961)
(0.0007360750704 -0.02819103808 -1.614828457e-18 -0.0006611234605 -8.124472671e-19 -7.495160989e-05)
(0.002423470643 -0.027246825 1.238843256e-18 -0.002398562988 -4.827158719e-20 -2.490765509e-05)
(-0.1505018511 -0.09777282576 -5.296424138e-19 0.1505293045 5.095768533e-19 -2.745340443e-05)
(-0.1297751507 -0.1031033338 2.334825639e-19 0.1298505822 -9.572555552e-19 -7.543149576e-05)
(-0.112773665 -0.1036690277 -2.000913527e-19 0.1128926734 1.690427495e-18 -0.0001190083494)
(-0.09853895228 -0.1011441676 3.603148106e-19 0.09869754462 -8.431318977e-19 -0.0001585923372)
(-0.08650213506 -0.09722171223 -6.200571578e-20 0.08669654614 4.577033888e-19 -0.0001944110844)
(-0.07594591825 -0.09229227966 1.362427627e-18 0.07617247667 -6.175178074e-19 -0.0002265584242)
(-0.0668153077 -0.08708136715 2.450316954e-19 0.06707033859 2.3100723e-19 -0.0002550308915)
(-0.05856065107 -0.08165160286 9.944668662e-19 0.05884041515 -8.15816285e-19 -0.0002797640804)
(-0.05128215153 -0.07632269055 2.518776639e-19 0.05158276047 -2.362550759e-19 -0.0003006089405)
(-0.04457608823 -0.07108858261 6.905506239e-19 0.04489348308 -6.624745213e-19 -0.0003173948545)
(-0.03856969029 -0.06607966226 -1.296774295e-18 0.03889956131 -4.923129727e-19 -0.0003298710235)
(-0.03297083159 -0.06129595968 1.945602057e-20 0.03330863317 -2.100068815e-19 -0.0003378015745)
(-0.02790030651 -0.05676712637 -3.298625406e-19 0.02824119548 -6.596032847e-19 -0.0003408889675)
(-0.02314251324 -0.05252421228 -5.086603908e-19 0.02348141061 -2.738563247e-19 -0.0003388973707)
(-0.01880746634 -0.0485329681 -2.85421679e-19 0.01913902482 3.721243792e-19 -0.0003315584812)
(-0.01473273531 -0.04486483997 3.969025367e-20 0.0150514529 7.594896078e-19 -0.0003187175862)
(-0.01101544019 -0.04143890508 -2.586665469e-19 0.01131564827 6.199828741e-19 -0.00030020808)
(-0.007539306028 -0.0383683037 -1.863625316e-20 0.007815336751 -6.071503544e-19 -0.0002760307234)
(-0.004376277809 -0.03553864272 1.712689202e-18 0.004622474569 2.023409235e-18 -0.00024619676)
(-0.001471150962 -0.03309682016 -9.209105111e-20 0.001682102422 -2.42966599e-20 -0.0002109514605)
(0.001162820496 -0.03091636083 2.035713594e-18 -0.0009922273675 1.347708472e-18 -0.0001705931281)
(0.003475030068 -0.02914898379 -5.160952737e-19 -0.003349300834 -1.244167511e-18 -0.0001257292332)
(0.005575650241 -0.0277140744 1.31475197e-20 -0.005498568458 -1.233078607e-19 -7.70817831e-05)
(0.007235173509 -0.02668345406 -1.033071989e-18 -0.007209416616 -2.207068233e-19 -2.575689301e-05)
(-0.1450596424 -0.1061455988 8.830381612e-19 0.1450872608 2.387715949e-19 -2.761840792e-05)
(-0.1222190397 -0.1097211335 -5.107186964e-19 0.1222949024 5.118004183e-19 -7.586264506e-05)
(-0.1040629284 -0.1089699056 4.265156645e-20 0.1041825952 -7.38985751e-20 -0.0001196668163)
(-0.08931765741 -0.1054390643 1.588003479e-19 0.08947711086 3.679559233e-19 -0.0001594534531)
(-0.07712083557 -0.1007236014 -8.319224495e-19 0.07731629788 -3.0509444e-19 -0.0001954623079)
(-0.06665058307 -0.09514671757 5.000236756e-19 0.06687837796 -3.347880308e-19 -0.0002277948933)
(-0.05773797822 -0.08940636156 -3.652146716e-19 0.05799443271 -4.073526446e-19 -0.0002564544959)
(-0.04978927458 -0.0835211073 -4.509145814e-19 0.05007065467 -3.618630162e-19 -0.0002813800853)
(-0.04286227809 -0.07780801803 7.499733634e-19 0.04316470415 -1.66047424e-20 -0.000302426059)
(-0.03652880006 -0.07223036614 1.057112017e-18 0.03684822161 7.787438193e-20 -0.0003194215553)
(-0.03090421082 -0.06692404226 1.128326291e-18 0.03123632683 1.687724327e-19 -0.0003321160057)
(-0.02567799225 -0.06186674757 1.601673276e-19 0.02601826304 3.92560759e-19 -0.0003402707943)
(-0.02097404527 -0.05709639236 2.857114133e-19 0.02131762938 9.0212243e-19 -0.0003435841076)
(-0.01655841967 -0.05262656547 7.244248578e-19 0.01690023439 1.834501613e-19 -0.0003418147174)
(-0.01255338494 -0.04843253542 7.587791552e-19 0.01288806935 1.338715531e-18 -0.0003346844038)
(-0.008775136377 -0.04457106906 3.032788541e-19 0.009097163764 -3.817483231e-19 -0.0003220273871)
(-0.005339792904 -0.04097135783 -5.78089625e-19 0.005643453313 -1.103456368e-18 -0.0003036604097)
(-0.002105185508 -0.03773402852 -1.362892623e-19 0.002384749189 6.85263082e-19 -0.0002795636812)
(0.000832328317 -0.0347542205 6.85778568e-19 -0.0005826060374 -9.944981756e-19 -0.0002497222796)
(0.003558748918 -0.03216956291 -9.625830963e-19 -0.003344401078 -1.051352778e-18 -0.00021434784)
(0.006033666179 -0.02985990775 -4.311425593e-19 -0.005859967612 -9.403539099e-19 -0.0001736985672)
(0.00823665349 -0.02797441764 7.400819652e-19 -0.008108321227 -1.363361741e-18 -0.0001283322627)
(0.01026279015 -0.02642893514 -1.214399418e-18 -0.01018387537 5.821237497e-20 -7.891478343e-05)
(0.01188972379 -0.02530916087 1.138213406e-18 -0.0118632371 -1.228855558e-20 -2.648669598e-05)
(-0.139138176 -0.1142451839 -7.512440316e-20 0.1391658811 5.865914802e-19 -2.770517253e-05)
(-0.1144097783 -0.115648791 5.072701364e-19 0.1144858457 -6.335777767e-19 -7.606732005e-05)
(-0.0952520579 -0.113330548 -6.324436985e-19 0.09537202158 1.342451186e-18 -0.0001199636734)
(-0.08009876062 -0.1086567185 8.027000146e-19 0.08025859032 -6.934438913e-19 -0.0001598296962)
(-0.06781336752 -0.1030754893 -5.720182137e-19 0.06800928461 8.425713308e-20 -0.0001959170983)
(-0.05747904556 -0.09682324218 -4.583052506e-20 0.05770737982 8.206832387e-19 -0.0002283342592)
(-0.04881956213 -0.09055205883 6.468523887e-19 0.04907665382 3.214371481e-19 -0.0002570916926)
(-0.04120244798 -0.08422730758 -5.616482843e-19 0.04148457981 7.66861912e-19 -0.0002821318325)
(-0.0346449185 -0.07815706789 -7.382882902e-19 0.03494823181 2.340419007e-19 -0.000303313312)
(-0.02869782972 -0.07226845488 -4.89543031e-19 0.02901829498 7.726394977e-19 -0.0003204652539)
(-0.02346464927 -0.06670148279 -2.086275219e-19 0.02379798876 -8.382984299e-19 -0.0003333394833)
(-0.01861906483 -0.06140743797 5.165750876e-19 0.01896075789 8.02113183e-19 -0.0003416930547)
(-0.01428723059 -0.05643346142 -6.074679019e-20 0.01463245513 -1.415202108e-18 -0.0003452245313)
(-0.01021906473 -0.05177188357 -4.321477982e-19 0.01056274804 -3.528803771e-19 -0.0003436833109)
(-0.006547762722 -0.04740991475 8.630293752e-19 0.006884549939 -9.330613691e-19 -0.0003367872176)
(-0.00307031843 -0.04338547793 1.389462642e-19 0.003394673124 -1.525135942e-18 -0.0003243546948)
(7.990385258e-05 -0.03964158475 7.884519031e-19 0.0002262872979 4.842038345e-19 -0.0003061911505)
(0.003068490333 -0.03626111501 -9.207142192e-20 -0.00278623847 -1.300596017e-18 -0.0002822518623)