/*--------------------------------*- C++ -*----------------------------------*\
| =========                 |                                                 |
| \\      /  F ield         | foam-extend: Open Source CFD                    |
|  \\    /   O peration     | Version:  3.0                                   |
|   \\  /    A nd           | Web:         http://www.extend-project.de       |
|    \\/     M anipulation  |                                                 |
\*---------------------------------------------------------------------------*/
FoamFile
{
    version     2.0;
    format      ascii;
    class       volScalarField;
    location    "9";
    object      p;
}
// * * * * * * * * * * * * * * * * * * * * * * * * * * * * * * * * * * * * * //

dimensions      [0 0 0 0 0 0 0];

internalField   nonuniform List<scalar> 
672
(
-0.2416640367
-0.2060352649
-0.1961364549
-0.1773300374
-0.1766137248
-0.1658792178
-0.1691662446
-0.1627183009
-0.166825428
-0.1624562167
-0.1642275233
-0.1600926823
-0.2385372037
-0.2033752218
-0.1935696417
-0.1749772444
-0.1742127235
-0.1635635648
-0.1667367408
-0.1603106169
-0.1642964128
-0.1599391051
-0.1616491871
-0.1575653931
-0.232732365
-0.1984523595
-0.1889209188
-0.1708184068
-0.1701127694
-0.159765248
-0.1629009732
-0.1566693083
-0.1605853273
-0.1563475308
-0.158012129
-0.1540151251
-0.2237255816
-0.1907822269
-0.1815919068
-0.1641679462
-0.1634401257
-0.1534506691
-0.1564028226
-0.1503634922
-0.1540700135
-0.1499613888
-0.1515315954
-0.1476639997
-0.2121197792
-0.1809127515
-0.1722216029
-0.1557277178
-0.1550583106
-0.1456113422
-0.1484260594
-0.142717987
-0.1462351562
-0.1423404817
-0.1438014518
-0.1401166992
-0.1977037393
-0.1686358169
-0.1605196989
-0.1451387045
-0.1444808095
-0.1356520524
-0.1382312991
-0.1328826269
-0.1361210564
-0.1324733015
-0.1338238546
-0.1303671157
-0.1808621471
-0.1542985485
-0.1468801602
-0.1328209938
-0.1322145004
-0.1241376356
-0.1264823364
-0.1215795769
-0.1245195146
-0.1211638243
-0.1223712966
-0.1191752989
-0.1617719424
-0.1380392071
-0.1314035729
-0.1188368549
-0.1182794435
-0.111051117
-0.1131210606
-0.1087192562
-0.1113080732
-0.108270801
-0.1092853354
-0.1063841158
-0.140534599
-0.1199475982
-0.1141734086
-0.1032536653
-0.1027387652
-0.09643421095
-0.09818599036
-0.09432279023
-0.09652011639
-0.09383731292
-0.09467819218
-0.09210821288
-0.117727383
-0.1005190851
-0.09569704356
-0.08657462869
-0.08614639942
-0.08088095003
-0.08233942545
-0.07910656886
-0.08092379155
-0.0786557978
-0.07931456175
-0.07711393995
-0.09316684746
-0.07958544017
-0.07574754613
-0.06851608193
-0.06812463783
-0.06391337821
-0.06499409304
-0.0623742029
-0.0637325074
-0.06187783483
-0.06232875369
-0.06053893754
-0.06777416247
-0.05794937632
-0.05518409703
-0.04996335738
-0.04969001643
-0.04665477204
-0.04743702331
-0.0455453926
-0.04651422462
-0.04515359863
-0.04544380066
-0.04407371625
-0.04113999288
-0.0352381092
-0.03353399072
-0.03035544375
-0.03011833
-0.0282196523
-0.02859222673
-0.02736192525
-0.02783796398
-0.0269290476
-0.02700651959
-0.02609798575
-0.01441360317
-0.01245873453
-0.0118908999
-0.01083297695
-0.01073380776
-0.01008311505
-0.01015757067
-0.009704146687
-0.009780692243
-0.009393579212
-0.009291120912
-0.008836434981
0.01293345011
0.01086953128
0.0103480636
0.009312495735
0.009370349185
0.008854025122
0.009192418113
0.008964096296
0.009381200649
0.009297191491
0.009593015171
0.009564804665
0.03968043675
0.03367469635
0.03201424351
0.02885724988
0.02877099881
0.02700252114
0.0276307905
0.02661999927
0.02742803818
0.02681496042
0.02727979424
0.02676510755
0.06634119048
0.05642522392
0.05369764138
0.04849799631
0.04835993015
0.04544661256
0.04646164624
0.04477651414
0.04604839067
0.04496580839
0.04559983127
0.04460085585
0.09179509215
0.07813667791
0.07432873089
0.0671156208
0.06684159004
0.06273950946
0.06402884334
0.06159897323
0.06323891326
0.06164972936
0.06244171222
0.06097996325
0.1164076006
0.09914539223
0.09434256014
0.08523743452
0.08489766796
0.07972495276
0.08134846349
0.07827903631
0.08032659919
0.07828936236
0.07923483223
0.07730633844
0.1393144756
0.1186932477
0.1129267172
0.1020190696
0.1015650162
0.0953305274
0.09720478096
0.09346500028
0.0958332647
0.09331774906
0.09435588716
0.09199196024
0.1606274276
0.1368898027
0.1302487086
0.117693029
0.1171599051
0.1099802865
0.1121163253
0.1078010189
0.1104957388
0.1075726573
0.1087292246
0.1059473588
0.1798516656
0.1533039274
0.1458670792
0.1318119687
0.1311985181
0.1231436548
0.1255068676
0.1206456057
0.123626701
0.1203163674
0.1215699625
0.1184131682
0.1967903346
0.1677685915
0.1596214033
0.1442445866
0.1435435349
0.1347173754
0.1372587317
0.1319187448
0.1351292783
0.1314834288
0.1328024879
0.1293202104
0.2113693613
0.180225306
0.1714914521
0.1549938248
0.1542533727
0.1447843433
0.1475224265
0.1417918796
0.1452458926
0.1413290877
0.1427512742
0.1389793795
0.2230904662
0.1902363805
0.1809937856
0.1635675435
0.1627385882
0.1527122978
0.1555399424
0.1494522962
0.1530346099
0.1488689211
0.1503245014
0.1463253142
0.232282749
0.1980998605
0.1885083081
0.1703947301
0.1695677055
0.1591596751
0.1621383288
0.1558229619
0.1595727214
0.1552318778
0.156725356
0.1525312169
0.2382158119
0.2031694143
0.1932995629
0.1746988113
0.1737927589
0.1630735133
0.1660554866
0.1595266764
0.1633037681
0.1588152316
0.1603166258
0.1560014239
0.2415398554
0.2060257827
0.1960596556
0.1772374349
0.1763708672
0.1655472713
0.1686251698
0.1620449684
0.1659151517
0.1613767962
0.1628995746
0.1585185301
0.2414125703
0.2059215437
0.1959259766
0.1770856438
0.1761617445
0.1652957578
0.168300922
0.161670818
0.1654736274
0.1609044197
0.1624007027
0.1580238351
0.2386751123
0.2036034166
0.1937652233
0.1751776162
0.1743225764
0.1636298174
0.1666649037
0.1601581417
0.1639710053
0.1594777398
0.1609716878
0.156634251
0.2325217586
0.198355922
0.1887432238
0.1706110873
0.1697314418
0.1592745467
0.1621744382
0.155792057
0.1594539655
0.1550519095
0.1564817736
0.152273122
0.223832983
0.1909555007
0.1817413059
0.1643200545
0.1635271699
0.1535055565
0.1563588682
0.1502618467
0.1538457553
0.1496436101
0.1510614754
0.1470112939
0.2119869932
0.1808513896
0.1721100484
0.1555981214
0.1548205658
0.1453066938
0.1479758785
0.1421773383
0.1455419492
0.1415536206
0.1428871836
0.1390746469
0.1977602984
0.1687205708
0.1605943664
0.1452124285
0.1445264996
0.1356796169
0.1382145851
0.1328333069
0.1360125715
0.1323104594
0.1335763557
0.1300338007
0.1808326915
0.1542835801
0.1468561274
0.1327940783
0.1321658089
0.1240762881
0.1263903762
0.1214681384
0.1243734186
0.1209910382
0.1221634536
0.1189396971
0.1617682435
0.1380202302
0.1313903892
0.1188185737
0.118276034
0.1110466994
0.1131379234
0.1087375716
0.1113515425
0.1083202819
0.1093638443
0.1064920892
0.140613553
0.119981467
0.114241609
0.1033354422
0.1028903315
0.09663208447
0.09847698645
0.094676412
0.09697168289
0.09435398991
0.09527581305
0.09279716792
0.1176660849
0.100401697
0.09560050981
0.08646955772
0.08609767344
0.08084943693
0.08239450795
0.07920186666
0.08113051839
0.07894222167
0.07974470711
0.07769387316
0.09333790467
0.07966113786
0.07589468651
0.06869119078
0.06844795646
0.06433417829
0.06561556491
0.06313205686
0.06470996645
0.06300895528
0.06366631879
0.06206297575
0.06766947642
0.05775842875
0.05502528581
0.04979352925
0.04960744482
0.04660221814
0.04751823794
0.04569026296
0.04682608113
0.04558160625
0.04607035367
0.04492748485
0.04136882767
0.03534046136
0.03373104741
0.03058947529
0.03054925671
0.02877887537
0.02941721768
0.02836353327
0.02912698961
0.02840893616
0.0287467124
0.02806634155
0.01428838222
0.01223373789
0.01170322975
0.01063314321
0.01063533321
0.01001992272
0.01024945762
0.009868492903
0.0101382145
0.009880917377
0.01001161617
0.009818824549
-0.01269257033
-0.01076095779
-0.01014007384
-0.009065486668
-0.008916571189
-0.0082658486
-0.008325413986
-0.007913590327
-0.008030244308
-0.007751020547
-0.007776762863
-0.007509561005
-0.03979928199
-0.03388742839
-0.03219163942
-0.02904620432
-0.02886379593
-0.02706218051
-0.02754288245
-0.02646402277
-0.02708800823
-0.0263541734
-0.02659870472
-0.02585006765
-0.06613666117
-0.05633229094
-0.05352018598
-0.04828677327
-0.04797273427
-0.04494419708
-0.0457212907
-0.04387881025
-0.04489496315
-0.04364710844
-0.04406046252
-0.04286801308
-0.09188197005
-0.07829342782
-0.07445907484
-0.06725543134
-0.06690894705
-0.06278284692
-0.06395944225
-0.0614770266
-0.06297325494
-0.06128696293
-0.06190417553
-0.06027059049
-0.1162808429
-0.09908718514
-0.09423161369
-0.08510467266
-0.08465511233
-0.07940882724
-0.08088239486
-0.07770982525
-0.07959170036
-0.07743996084
-0.07823342562
-0.07618711556
-0.1393503582
-0.1187617427
-0.1129830782
-0.1020822795
-0.1015944165
-0.09535257033
-0.09717385819
-0.09341364012
-0.0957147244
-0.0931567888
-0.09411906076
-0.09167510887
-0.1606044182
-0.1368786444
-0.1302272384
-0.1176664294
-0.117112929
-0.1099178762
-0.1120262391
-0.1076892867
-0.1103513838
-0.1074043544
-0.1085251864
-0.1057261424
-0.1798278589
-0.153269533
-0.1458372317
-0.1317862379
-0.1311846669
-0.1231431117
-0.1255253234
-0.1206854803
-0.1236925094
-0.1204143685
-0.1217076073
-0.1185889318
-0.196876312
-0.1678072137
-0.1596941055
-0.1443296275
-0.1437020981
-0.1349217488
-0.1375650148
-0.1322906224
-0.1356149679
-0.1320453239
-0.133475153
-0.1300753903
-0.2112888853
-0.1800934695
-0.1713798054
-0.1548831309
-0.1541968409
-0.1447586807
-0.1475802808
-0.1419032789
-0.1454601659
-0.141624078
-0.1431632338
-0.1395260276
-0.2232688997
-0.1903171772
-0.1811461768
-0.1637461909
-0.1630690816
-0.1531385233
-0.1561737624
-0.1502181688
-0.1540253108
-0.1499992108
-0.1516529068
-0.1478092316
-0.2321594517
-0.1978946536
-0.1883350654
-0.1702192247
-0.1694771013
-0.1591121114
-0.1622211675
-0.1559834986
-0.159896808
-0.1556800754
-0.1573729682
-0.1533946592
-0.2384512378
-0.2032757437
-0.193500763
-0.1749343567
-0.1742278186
-0.1636348932
-0.1668888299
-0.1605348863
-0.1646060674
-0.1603061999
-0.162069453
-0.1579772556
-0.2413956462
-0.2057847397
-0.1958556627
-0.1770287984
-0.1762605392
-0.1654850051
-0.1687133133
-0.1622223141
-0.1662822772
-0.1618928912
-0.1636531765
-0.1595324566
)
;

boundaryField
{
    out
    {
        type            implicitExtrapolation;
    }
    in
    {
        type            implicitExtrapolation;
    }
    frontAndBack
    {
        type            empty;
    }
}


// ************************************************************************* //
