/*--------------------------------*- C++ -*----------------------------------*\
| =========                 |                                                 |
| \\      /  F ield         | foam-extend: Open Source CFD                    |
|  \\    /   O peration     | Version:  3.0                                   |
|   \\  /    A nd           | Web:         http://www.extend-project.de       |
|    \\/     M anipulation  |                                                 |
\*---------------------------------------------------------------------------*/
FoamFile
{
    version     2.0;
    format      ascii;
    class       volSymmTensorField;
    location    "74";
    object      sigma;
}
// * * * * * * * * * * * * * * * * * * * * * * * * * * * * * * * * * * * * * //

dimensions      [0 0 0 0 0 0 0];

internalField   nonuniform List<symmTensor> 
7680
(
(-0.175873 -0.00198353 -1.9769e-20 0.175836 -2.80674e-20 3.71226e-05)
(-0.175067 -0.00273902 5.94929e-20 0.174948 1.07849e-19 0.000118794)
(-0.172249 -0.0033329 -8.39305e-22 0.172038 -1.07796e-19 0.000211005)
(-0.167997 -0.00380625 -1.55058e-23 0.167683 5.74299e-20 0.000314654)
(-0.162931 -0.00420356 1.16955e-20 0.1625 -4.53165e-20 0.000430462)
(-0.157231 -0.00454356 -8.48987e-21 0.156673 2.21565e-20 0.000558273)
(-0.151283 -0.00485179 2.55303e-20 0.150584 -7.6917e-20 0.000698112)
(-0.145102 -0.00513768 9.42358e-21 0.144253 -1.53223e-20 0.000849064)
(-0.138941 -0.00541624 7.91886e-21 0.137931 -9.9576e-20 0.0010104)
(-0.132755 -0.00569246 1.94635e-20 0.131574 -1.88628e-22 0.00118088)
(-0.126712 -0.00597561 -3.85867e-20 0.125352 -1.18901e-19 0.00135939)
(-0.120748 -0.00626847 1.85368e-20 0.119204 6.00608e-20 0.00154426)
(-0.114981 -0.00657705 5.36395e-22 0.113247 -1.03982e-19 0.00173396)
(-0.109346 -0.00690308 -3.50312e-20 0.107419 7.23638e-20 0.0019263)
(-0.103921 -0.0072506 -2.5905e-20 0.101802 -1.76372e-20 0.00211859)
(-0.0986533 -0.00762077 4.39695e-21 0.0963439 1.31949e-19 0.00230945)
(-0.0935952 -0.00801635 -1.31957e-20 0.0910991 -1.1058e-19 0.00249608)
(-0.0887055 -0.00843817 -1.51805e-21 0.0860275 2.23536e-19 0.00267798)
(-0.0840182 -0.0088882 1.76382e-20 0.0811654 -1.27269e-19 0.00285278)
(-0.0795041 -0.00936716 -3.74136e-21 0.0764842 2.045e-19 0.00301991)
(-0.0751828 -0.00987656 -3.05217e-20 0.0720061 -7.19925e-20 0.00317661)
(-0.0710361 -0.0104171 -3.22102e-20 0.0677143 1.71625e-19 0.00332184)
(-0.0670717 -0.0109903 -3.09304e-20 0.0636199 -2.7408e-20 0.00345185)
(-0.0632823 -0.0115968 -2.9374e-20 0.0597173 2.0564e-19 0.00356502)
(-0.0596656 -0.0122385 5.34881e-21 0.0560089 -2.11325e-20 0.00365672)
(-0.0562247 -0.0129164 -6.73025e-20 0.0525 1.64466e-19 0.00372469)
(-0.0529496 -0.0136335 1.53426e-20 0.0491858 9.94721e-20 0.00376385)
(-0.049853 -0.0143914 -1.38251e-20 0.0460813 1.30451e-19 0.00377165)
(-0.0469203 -0.0151965 2.19871e-20 0.0431774 1.02605e-19 0.00374291)
(-0.0441712 -0.01605 -5.0636e-20 0.0404956 4.58971e-20 0.00367559)
(-0.0415904 -0.0169661 -1.9615e-21 0.0380259 6.46497e-20 0.00356449)
(-0.0391984 -0.0179442 -4.18167e-20 0.0357902 -6.98741e-21 0.00340822)
(-0.0369845 -0.0190085 2.6548e-20 0.033782 3.66394e-20 0.00320251)
(-0.0349552 -0.0201557 -6.44779e-20 0.0320094 -7.21443e-21 0.00294584)
(-0.033114 -0.0214119 1.64438e-20 0.0304764 1.19956e-20 0.00263758)
(-0.0314282 -0.0227731 -8.01943e-20 0.0291481 3.83528e-20 0.00228013)
(-0.0299272 -0.0242525 8.96634e-21 0.0280565 -1.20555e-19 0.00187072)
(-0.0285049 -0.0258195 8.81451e-22 0.0270915 7.58162e-20 0.00141344)
(-0.0272395 -0.0273741 -3.51746e-20 0.0263421 -1.09482e-19 0.000897449)
(-0.0259086 -0.0292521 3.82311e-20 0.0255938 4.11701e-22 0.000314816)
(-0.175771 -0.00722264 2.00061e-20 0.175729 3.47572e-20 4.12383e-05)
(-0.174834 -0.00879501 -3.90477e-20 0.174704 8.44884e-20 0.000130056)
(-0.171918 -0.00992719 -3.49237e-20 0.171689 4.06531e-20 0.0002289)
(-0.167594 -0.0107228 4.83353e-20 0.167255 -9.91956e-21 0.000338605)
(-0.162472 -0.0112985 -1.69174e-20 0.162012 -7.93859e-22 0.000460091)
(-0.15673 -0.0117013 4.38506e-21 0.156137 5.48218e-20 0.000593233)
(-0.15075 -0.0119969 -3.61189e-20 0.150011 7.54623e-20 0.000738129)
(-0.144543 -0.012208 -1.21686e-20 0.143649 2.29617e-20 0.00089392)
(-0.138362 -0.0123725 -7.5025e-21 0.137302 1.49033e-19 0.00105991)
(-0.132157 -0.0125021 8.47891e-21 0.130922 1.16691e-19 0.00123492)
(-0.126098 -0.0126193 5.53679e-20 0.124681 -1.41461e-20 0.00141787)
(-0.120121 -0.0127304 6.33673e-21 0.118514 7.28087e-20 0.0016071)
(-0.114339 -0.0128492 2.71033e-20 0.112538 -7.8182e-20 0.00180111)
(-0.108689 -0.0129794 5.29854e-20 0.106692 6.55556e-20 0.00199767)
(-0.10325 -0.0131295 3.4695e-20 0.101055 -1.56808e-19 0.00219413)
(-0.0979656 -0.0133021 -6.48557e-20 0.0955766 -1.40618e-20 0.00238906)
(-0.0928894 -0.0135021 7.16594e-20 0.0903098 -5.63157e-21 0.00257964)
(-0.0879795 -0.0137317 -2.04362e-20 0.0852142 -5.38693e-20 0.00276536)
(-0.0832698 -0.0139937 -1.08305e-20 0.080326 8.88726e-20 0.0029438)
(-0.0787304 -0.0142902 1.35674e-20 0.0756161 -4.89259e-20 0.00311439)
(-0.074381 -0.0146226 -6.44568e-20 0.0711067 9.29218e-21 0.00327429)
(-0.0702028 -0.014993 4.38087e-20 0.0667803 -8.73678e-20 0.00342245)
(-0.0662034 -0.0154017 -1.34157e-20 0.0626484 4.03799e-20 0.00355501)
(-0.0623748 -0.0158515 2.26128e-20 0.0587044 -1.45317e-19 0.00367036)
(-0.0587151 -0.0163419 -9.98965e-20 0.0549515 -1.07579e-20 0.00376368)
(-0.0552265 -0.016876 9.09284e-20 0.0513937 -9.66371e-20 0.00383277)
(-0.0519 -0.0174544 -4.69725e-20 0.0480277 -8.34166e-21 0.00387235)
(-0.048747 -0.0180795 4.58346e-21 0.0448669 -6.01544e-20 0.00388012)
(-0.0457553 -0.018756 -7.24593e-20 0.0419046 -7.42923e-20 0.00385062)
(-0.0429435 -0.0194838 -3.85457e-20 0.0391608 9.27318e-21 0.00378273)
(-0.0402998 -0.0202778 -3.79195e-20 0.0366295 -3.94375e-20 0.00367034)
(-0.0378449 -0.0211312 -3.81786e-20 0.0343312 -3.98318e-21 0.0035137)
(-0.0355726 -0.0220775 3.45156e-20 0.032266 -2.33066e-20 0.0033066)
(-0.0334893 -0.0230974 1.50344e-20 0.030442 -6.06293e-20 0.00304727)
(-0.031606 -0.0242473 1.85286e-20 0.0288708 2.04782e-20 0.00273521)
(-0.0298868 -0.0254849 -1.28105e-19 0.0275182 -5.53064e-21 0.00236856)
(-0.0283658 -0.02689 -2.83072e-20 0.0264167 -1.88139e-21 0.00194911)
(-0.0269341 -0.0283525 6.77287e-21 0.0254541 2.02474e-20 0.00148004)
(-0.0256483 -0.0298878 -8.50588e-20 0.0247011 -2.60358e-20 0.0009472)
(-0.0241984 -0.0315932 -1.68031e-20 0.0238629 1.99105e-20 0.000335534)
(-0.17555 -0.0124684 1.94507e-20 0.175505 -6.7304e-20 4.49921e-05)
(-0.174374 -0.0148358 7.08888e-20 0.174233 3.6116e-20 0.00014057)
(-0.171281 -0.01649 -2.15194e-20 0.171035 -2.33756e-19 0.000245589)
(-0.166829 -0.0175963 -3.03445e-20 0.166468 1.31716e-19 0.000360965)
(-0.161612 -0.0183419 6.99762e-20 0.161124 -1.45085e-19 0.00048777)
(-0.155801 -0.0188009 4.51926e-20 0.155175 -1.68436e-20 0.000625881)
(-0.14977 -0.019079 2.43917e-20 0.148994 -1.25008e-19 0.000775475)
(-0.143527 -0.0192113 5.6931e-20 0.142592 1.59642e-20 0.000935735)
(-0.137319 -0.0192589 8.80382e-20 0.136213 -2.77615e-20 0.00110603)
(-0.131096 -0.0192395 -8.94204e-20 0.129811 -2.11821e-21 0.00128521)
(-0.125023 -0.0191889 -5.39538e-20 0.123551 -1.6955e-19 0.00147226)
(-0.119035 -0.0191169 -3.58541e-20 0.117369 8.14678e-20 0.0016655)
(-0.113245 -0.0190448 4.17058e-21 0.111381 -6.91563e-20 0.00186349)
(-0.107588 -0.0189784 -1.00404e-19 0.105524 6.62804e-20 0.00206396)
(-0.10214 -0.0189302 -9.20545e-20 0.0998759 6.673e-20 0.00226431)
(-0.0968482 -0.0189044 1.13014e-19 0.0943851 1.10522e-19 0.00246303)
(-0.0917627 -0.0189082 -3.52477e-20 0.0891053 5.00679e-20 0.00265741)
(-0.0868417 -0.0189452 6.2053e-20 0.0839949 1.71996e-19 0.00284676)
(-0.0821186 -0.0190187 5.58967e-20 0.0790898 -1.58428e-19 0.0030288)
(-0.0775631 -0.0191325 -8.79681e-20 0.0743604 1.40485e-19 0.00320276)
(-0.0731945 -0.0192876 -5.32381e-20 0.0698285 -4.3506e-20 0.00336598)
(-0.0689936 -0.0194878 -2.21568e-20 0.0654765 1.37745e-19 0.00351712)
(-0.0649677 -0.0197323 -7.07459e-20 0.0613151 -1.03545e-20 0.00365255)
(-0.0611084 -0.0200255 -8.63638e-20 0.0573382 6.91055e-20 0.00377028)
(-0.0574134 -0.0203655 4.29186e-20 0.0535477 1.99276e-19 0.00386576)
(-0.0538849 -0.0207565 -6.78297e-20 0.0499486 1.06429e-19 0.00393629)
(-0.050513 -0.0211977 5.83647e-20 0.0465361 2.0728e-19 0.00397693)
(-0.0473103 -0.0216912 -7.1462e-20 0.0433255 4.20834e-20 0.00398478)
(-0.0442629 -0.0222413 8.72578e-20 0.0403081 1.82938e-19 0.00395474)
(-0.0413926 -0.0228444 -3.32567e-21 0.0375072 -5.91072e-21 0.00388532)
(-0.0386856 -0.0235166 -1.52236e-20 0.0349149 1.04418e-19 0.00377066)
(-0.0361685 -0.0242441 -2.14563e-20 0.0325575 7.49181e-20 0.00361101)
(-0.0338342 -0.0250641 -5.67318e-20 0.030434 1.98745e-19 0.00340018)
(-0.0316957 -0.0259471 -1.59631e-22 0.0285607 -2.77873e-19 0.00313509)
(-0.0297697 -0.0269609 6.48193e-20 0.0269532 2.17422e-19 0.00281644)
(-0.0280146 -0.0280529 -9.34926e-20 0.0255763 -9.47205e-20 0.00243829)
(-0.0264919 -0.0293265 2.58175e-20 0.0244855 7.29939e-21 0.00200646)
(-0.025027 -0.0306766 -3.89511e-20 0.0235031 1.33455e-19 0.00152386)
(-0.0237999 -0.0321711 -3.37829e-20 0.0228248 -7.23401e-20 0.000975089)
(-0.0220126 -0.0337586 1.78902e-20 0.0216694 2.11551e-19 0.000343253)
(-0.17521 -0.0177157 7.1213e-20 0.175161 9.06088e-20 4.85642e-05)
(-0.173688 -0.0208479 -1.01693e-19 0.173538 4.92852e-20 0.000150458)
(-0.170341 -0.0230019 -1.20891e-20 0.17008 3.11632e-19 0.000261245)
(-0.165707 -0.0244017 1.40769e-19 0.165325 -2.28357e-19 0.000381887)
(-0.160356 -0.0253042 -1.20943e-19 0.159842 9.4311e-20 0.00051359)
(-0.154451 -0.0258098 2.15092e-20 0.153795 7.61005e-20 0.000656252)
(-0.148352 -0.0260632 -2.26294e-20 0.147542 9.37614e-20 0.000810132)
(-0.142063 -0.0261116 5.98046e-20 0.141088 -2.77225e-20 0.000974439)
(-0.135823 -0.0260384 1.31461e-20 0.134674 -9.29723e-20 0.00114861)
(-0.12958 -0.0258672 -6.90593e-20 0.128248 -5.27587e-20 0.00133152)
(-0.123495 -0.0256468 1.01016e-19 0.121973 5.82499e-20 0.0015222)
(-0.1175 -0.0253903 7.75151e-20 0.115781 1.95063e-20 0.00171898)
(-0.111707 -0.0251261 3.91991e-20 0.109787 -1.61249e-19 0.00192046)
(-0.106049 -0.0248622 1.50413e-19 0.103925 1.29218e-19 0.00212433)
(-0.100602 -0.0246153 7.10633e-20 0.0982741 -1.55004e-20 0.00232802)
(-0.0953101 -0.0243908 -1.16457e-19 0.0927801 3.3143e-19 0.00252998)
(-0.0902239 -0.024198 1.75908e-19 0.0874964 -2.12083e-19 0.00272754)
(-0.0853004 -0.0240419 -2.2419e-19 0.0823804 2.32647e-19 0.00291996)
(-0.0805728 -0.0239266 -1.49718e-20 0.0774678 -1.47963e-19 0.00310498)
(-0.0760098 -0.0238573 1.0982e-19 0.072728 1.45144e-19 0.00328177)
(-0.0716307 -0.0238346 -5.88647e-20 0.068183 -1.4782e-19 0.0034477)
(-0.0674153 -0.0238641 7.59549e-20 0.0638139 1.40649e-20 0.0036014)
(-0.0633709 -0.0239438 -7.26724e-20 0.0596317 6.0039e-21 0.00373922)
(-0.0594884 -0.02408 1.9407e-19 0.0556293 1.65057e-19 0.00385914)
(-0.0557654 -0.0242689 -2.94009e-20 0.0518088 -1.26909e-19 0.00395659)
(-0.0522032 -0.0245168 1.04527e-19 0.0481744 7.86902e-20 0.0040288)
(-0.0487918 -0.0248203 -8.11112e-20 0.044721 -4.14863e-21 0.00407072)
(-0.0455434 -0.0251829 -2.51852e-20 0.0414641 9.51685e-20 0.00407926)
(-0.0424429 -0.0256064 -9.34467e-20 0.0383937 -1.59372e-19 0.00404921)
(-0.0395141 -0.0260862 -1.23145e-19 0.0355355 9.88832e-20 0.00397859)
(-0.0367393 -0.0266381 6.67031e-20 0.0328778 -4.20143e-20 0.00386155)
(-0.0341525 -0.0272407 9.72932e-20 0.0304546 4.48933e-20 0.00369782)
(-0.0317383 -0.0279394 -3.2955e-19 0.0282571 9.4063e-20 0.00348121)
(-0.0295282 -0.0286815 -1.26787e-20 0.0263189 -1.67391e-20 0.00320933)
(-0.0275247 -0.0295731 2.4658e-19 0.0246428 8.50706e-20 0.00288191)
(-0.0257247 -0.0304962 -3.6379e-19 0.0232299 4.26288e-20 0.00249478)
(-0.0241733 -0.0316769 2.27938e-19 0.0221207 6.13921e-20 0.00205252)
(-0.0227405 -0.0328226 -6.50333e-20 0.0211834 7.97997e-20 0.00155715)
(-0.0216037 -0.0344163 1.38197e-20 0.0206089 -9.911e-20 0.000994773)
(-0.0199621 -0.0357679 -1.01654e-19 0.0196129 -1.82734e-19 0.000349153)
(-0.174748 -0.0229706 3.89e-20 0.174696 -1.64786e-19 5.18611e-05)
(-0.172778 -0.0268244 2.34958e-19 0.172619 -2.60537e-19 0.000159597)
(-0.169102 -0.0294451 -1.21571e-19 0.168827 -3.3988e-19 0.000275705)
(-0.164233 -0.0311149 -1.45777e-19 0.163832 -5.84931e-20 0.000401195)
(-0.158712 -0.0321566 2.56353e-19 0.158174 2.85202e-21 0.000537368)
(-0.152687 -0.032696 6.94652e-20 0.152003 -1.81178e-19 0.000684176)
(-0.146504 -0.0329151 -1.97533e-20 0.145662 -1.75357e-19 0.000841928)
(-0.140159 -0.0328727 -7.86294e-20 0.13915 8.51877e-20 0.00100989)
(-0.133884 -0.0326736 7.30839e-20 0.132696 3.99958e-20 0.00118753)
(-0.12762 -0.0323472 -1.78623e-20 0.126246 1.1227e-19 0.00137378)
(-0.121525 -0.0319547 1.4342e-20 0.119957 -2.11223e-19 0.00156771)
(-0.115528 -0.031512 -2.11758e-19 0.11376 1.24076e-19 0.00176766)
(-0.109737 -0.031055 8.99938e-20 0.107765 -1.4251e-19 0.00197225)
(-0.104086 -0.0305933 -5.39898e-21 0.101906 1.91979e-19 0.00217916)
(-0.0986466 -0.0301474 1.21329e-19 0.0962607 -2.35757e-20 0.00238588)
(-0.093363 -0.0297243 -3.77038e-20 0.0907722 1.81827e-19 0.0025908)
(-0.0882849 -0.0293352 -7.15612e-20 0.0854935 -2.80664e-19 0.00279131)
(-0.0833679 -0.0289864 1.49993e-19 0.0803813 9.80135e-20 0.00298658)
(-0.0786449 -0.0286828 -7.61702e-20 0.0754704 4.95776e-20 0.00317446)
(-0.0740836 -0.0284309 -5.2104e-20 0.0707296 -5.09697e-20 0.00335399)
(-0.069703 -0.0282311 -2.09886e-19 0.0661803 2.12192e-19 0.00352266)
(-0.0654822 -0.0280908 1.12597e-19 0.0618032 1.65992e-19 0.00367899)
(-0.0614282 -0.0280068 5.57994e-20 0.0576088 1.1174e-19 0.00381943)
(-0.0575314 -0.0279873 -1.54576e-19 0.0535896 -1.8838e-19 0.00394188)
(-0.0537886 -0.0280271 -6.14862e-20 0.0497468 2.99833e-19 0.00404181)
(-0.0502013 -0.0281339 9.87548e-20 0.046085 -5.62541e-20 0.00411632)
(-0.0467578 -0.028303 1.07935e-19 0.0425975 1.78355e-19 0.0041603)
(-0.0434718 -0.0285386 -1.93586e-19 0.0393015 4.11534e-20 0.00417026)
(-0.0403242 -0.0288411 7.12393e-20 0.0361833 3.4016e-19 0.00414089)
(-0.0373436 -0.0292051 1.13005e-19 0.0332744 1.89726e-19 0.0040692)
(-0.0345048 -0.029645 -1.09005e-19 0.030555 3.14465e-19 0.00394983)
(-0.0318536 -0.0301364 2.21151e-19 0.0280724 -7.17178e-20 0.00378126)
(-0.0293602 -0.0307233 -8.43385e-20 0.0258013 2.17109e-19 0.00355893)
(-0.0270841 -0.031347 -9.66215e-20 0.0238032 1.09617e-19 0.00328091)
(-0.0249958 -0.0321142 1.81325e-19 0.0220487 3.12826e-19 0.0029471)
(-0.02315 -0.0328904 -8.37709e-20 0.0205952 -6.15892e-20 0.00255481)
(-0.0215376 -0.0339277 5.42729e-20 0.0194322 2.69981e-20 0.0021054)
(-0.020075 -0.0348617 -1.8017e-19 0.0184768 9.87234e-20 0.0015982)
(-0.0191041 -0.0364346 -3.71632e-19 0.0180823 -5.51629e-20 0.00102185)
(-0.017156 -0.0377593 1.61754e-19 0.0167937 1.83179e-19 0.000362358)
(-0.174162 -0.0282305 2.30463e-20 0.174107 9.93506e-20 5.49095e-05)
(-0.171647 -0.0327525 -2.19489e-19 0.171479 3.47881e-19 0.00016801)
(-0.167572 -0.0358013 1.71544e-19 0.167283 -2.69279e-20 0.000288976)
(-0.162418 -0.0377121 2.1924e-19 0.161999 3.8797e-19 0.000418869)
(-0.156691 -0.0388715 -1.92712e-19 0.156132 1.17268e-20 0.000559078)
(-0.150524 -0.039429 -4.66548e-20 0.149814 -6.94644e-20 0.00070959)
(-0.144241 -0.0396023 1.37886e-19 0.14337 1.31231e-19 0.000870786)
(-0.137832 -0.0394608 2.14031e-19 0.13679 -8.81884e-20 0.00104195)
(-0.131516 -0.03913 4.11997e-20 0.130293 -9.62203e-20 0.00122263)
(-0.125231 -0.0386445 -2.59636e-19 0.123819 1.44587e-19 0.00141175)
(-0.119128 -0.0380772 8.99738e-20 0.11752 2.31975e-19 0.00160847)
(-0.113133 -0.0374469 1.10725e-19 0.111322 1.20963e-19 0.00181108)
(-0.107352 -0.0367963 3.94192e-20 0.105333 1.21192e-20 0.00201829)
(-0.101713 -0.0361364 2.98997e-19 0.0994854 -1.89777e-19 0.0022277)
(-0.0962898 -0.0354917 7.47987e-20 0.0938529 3.03271e-20 0.00243689)
(-0.0910229 -0.0348703 -2.35542e-19 0.0883787 -7.08054e-20 0.00264417)
(-0.0859615 -0.0342855 1.29293e-20 0.0831145 1.79729e-19 0.00284702)
(-0.0810598 -0.0337445 4.77173e-20 0.0780153 2.14795e-19 0.00304452)
(-0.0763504 -0.033253 -1.14513e-19 0.0731158 3.6607e-20 0.0032346)
(-0.0717997 -0.032819 2.44404e-19 0.0683834 2.49523e-19 0.00341623)
(-0.0674267 -0.0324423 1.03597e-19 0.0638397 1.97043e-19 0.00358699)
(-0.0632092 -0.0321323 -5.07025e-20 0.0594639 2.07755e-19 0.00374532)
(-0.0591546 -0.0318844 -3.17663e-19 0.0552668 -1.96559e-19 0.00388782)
(-0.0552521 -0.0317093 3.4659e-19 0.0512398 2.59361e-19 0.00401228)
(-0.0514982 -0.0315993 8.46183e-20 0.0473839 6.3758e-20 0.00411431)
(-0.0478943 -0.0315654 -7.41057e-20 0.0437035 3.00812e-19 0.00419085)
(-0.0444271 -0.0315989 1.04978e-19 0.0401903 -1.33795e-19 0.00423678)
(-0.0411116 -0.0317081 1.54981e-19 0.0368634 1.29951e-19 0.00424812)
(-0.0379245 -0.0318879 5.27855e-20 0.0337049 -1.13068e-19 0.00421961)
(-0.0348993 -0.032137 -5.61282e-20 0.0307526 -1.01717e-19 0.00414667)
(-0.0320014 -0.0324627 -9.93639e-20 0.0279763 -5.62727e-19 0.00402511)
(-0.0292901 -0.0328435 -3.88597e-20 0.0254393 2.7344e-20 0.00385076)
(-0.0267161 -0.0333178 9.89538e-21 0.0230937 -3.29318e-19 0.00362234)
(-0.0243732 -0.033823 7.16121e-20 0.021036 6.91732e-20 0.00333724)
(-0.0221844 -0.034474 1.82155e-19 0.0191877 -3.13246e-19 0.00299672)
(-0.0202874 -0.0350991 -6.48374e-19 0.0176868 -1.33577e-19 0.00260064)
(-0.0185502 -0.0360447 4.60155e-19 0.0164048 -1.79556e-19 0.00214541)
(-0.0171372 -0.0366193 -7.92076e-20 0.0155089 -4.36016e-20 0.00162829)
(-0.0159533 -0.0383276 1.078e-19 0.0149136 -4.73916e-19 0.00103965)
(-0.0143205 -0.0388899 -3.14061e-19 0.0139511 7.44344e-20 0.000369472)
(-0.173449 -0.0334979 1.98869e-19 0.173391 -1.36841e-19 5.76906e-05)
(-0.170296 -0.0386253 1.4352e-19 0.170121 1.59702e-20 0.000175661)
(-0.165755 -0.0420535 -1.92302e-19 0.165454 -4.27383e-20 0.000301014)
(-0.160271 -0.0441707 3.02668e-22 0.159837 -3.42063e-19 0.000434867)
(-0.154305 -0.0454219 1.48285e-21 0.153727 1.09807e-19 0.00057867)
(-0.147974 -0.0459787 -1.09379e-20 0.147242 4.19227e-19 0.000732465)
(-0.141578 -0.0460924 -7.24591e-20 0.140681 2.00583e-21 0.000896671)
(-0.135097 -0.0458422 -2.38287e-19 0.134026 1.32488e-19 0.00107063)
(-0.128737 -0.0453729 2.96967e-19 0.127483 -2.34196e-20 0.00125391)
(-0.122431 -0.0447236 2.18532e-19 0.120986 8.69799e-20 0.0014455)
(-0.116323 -0.0439788 -4.9269e-20 0.114679 -1.59795e-20 0.00164456)
(-0.110335 -0.0431593 -3.69671e-19 0.108485 1.48248e-19 0.00184944)
(-0.104568 -0.0423144 -1.75671e-19 0.102509 -1.18719e-20 0.00205884)
(-0.0989494 -0.0414563 -5.62363e-20 0.0966791 2.94642e-19 0.00227037)
(-0.0935497 -0.0406134 3.40933e-19 0.091068 -1.70689e-19 0.00248164)
(-0.0883076 -0.0397946 1.05037e-19 0.0856166 -2.90716e-20 0.00269094)
(-0.0832715 -0.0390149 1.04229e-19 0.0803757 1.14931e-20 0.0028958)
(-0.0783938 -0.0382829 8.65302e-20 0.0752986 -4.12833e-20 0.00309525)
(-0.0737069 -0.0376048 -3.55712e-20 0.0704196 -1.18796e-19 0.0032873)
(-0.0691756 -0.0369897 1.16946e-19 0.0657048 -2.3472e-19 0.00347084)
(-0.064819 -0.0364374 -1.38195e-19 0.0611755 6.40984e-21 0.00364356)
(-0.0606136 -0.0359588 -5.02453e-20 0.0568098 -3.44056e-19 0.00380386)
(-0.0565669 -0.0355483 -2.00082e-20 0.0526185 2.03527e-19 0.00394842)
(-0.0526669 -0.0352186 4.58096e-20 0.0485918 -1.46158e-19 0.0040751)
(-0.0489103 -0.0349602 1.36615e-19 0.0447309 -1.07491e-19 0.00417944)
(-0.0452975 -0.0347869 -3.86924e-20 0.041039 -7.35587e-20 0.0042585)
(-0.0418141 -0.0346868 -1.01672e-19 0.0375073 4.10735e-21 0.00430689)
(-0.0384757 -0.0346722 -4.98453e-20 0.0341554 -3.1612e-19 0.00432033)
(-0.0352552 -0.0347324 -1.98946e-19 0.0309621 6.32402e-19 0.00429315)
(-0.0321894 -0.0348722 -2.60444e-19 0.0279699 -5.54592e-20 0.00421949)
(-0.029235 -0.0350887 -8.86139e-20 0.0251394 3.68041e-19 0.00409557)
(-0.0264629 -0.0353714 4.18134e-19 0.0225473 1.31746e-19 0.00391551)
(-0.0238042 -0.0357388 -2.42946e-20 0.0201237 -1.66955e-19 0.00368049)
(-0.0213879 -0.0361512 -1.26405e-19 0.0179985 2.28322e-19 0.00338944)
(-0.0190856 -0.0366818 1.40261e-19 0.0160413 -1.40284e-19 0.00304428)
(-0.0171284 -0.0372078 -1.92929e-20 0.01448 -2.86451e-20 0.00264847)
(-0.0152237 -0.0379906 4.5284e-21 0.0130304 3.11675e-20 0.00219329)
(-0.0138501 -0.0384651 -4.56102e-19 0.0121789 -6.64607e-20 0.00167127)
(-0.0121779 -0.0399157 -2.71492e-19 0.011104 -1.47329e-19 0.00107389)
(-0.0109238 -0.0408205 3.24137e-19 0.0105333 6.26823e-19 0.000390558)
(-0.172606 -0.0387722 8.82261e-20 0.172546 1.75509e-19 6.01842e-05)
(-0.168731 -0.0444307 -3.20867e-20 0.168549 -3.59149e-20 0.000182524)
(-0.163663 -0.0481851 -2.01802e-20 0.163351 1.36955e-19 0.000311789)
(-0.157806 -0.0504692 1.53082e-19 0.157357 7.60795e-19 0.000449141)
(-0.151571 -0.0517827 2.50003e-19 0.150975 9.32105e-20 0.000596093)
(-0.145056 -0.0523176 1.92e-20 0.144303 -4.07592e-19 0.000752719)
(-0.138534 -0.0523561 1.86996e-20 0.137614 -5.05394e-20 0.000919497)
(-0.131974 -0.0519863 1.77508e-19 0.130878 -1.35892e-19 0.00109579)
(-0.125568 -0.051371 -7.86703e-20 0.124287 -1.89278e-20 0.00128123)
(-0.119242 -0.0505532 -1.36443e-19 0.117767 -1.29282e-19 0.00147481)
(-0.113132 -0.0496279 2.91497e-19 0.111456 -1.01819e-19 0.00167576)
(-0.107155 -0.0486176 2.31629e-19 0.105273 -2.20391e-19 0.00188239)
(-0.101409 -0.0475779 7.51224e-20 0.0993152 1.10432e-19 0.00209348)
(-0.0958172 -0.046522 8.04165e-20 0.0935106 1.36804e-22 0.00230659)
(-0.0904486 -0.0454816 -1.38061e-19 0.0879292 -3.72987e-19 0.00251939)
(-0.0852394 -0.0444665 -1.11381e-19 0.0825093 1.21822e-19 0.00273012)
(-0.0802371 -0.0434934 1.24831e-19 0.0773007 -3.26152e-19 0.00293639)
(-0.0753919 -0.0425717 -2.9705e-20 0.0722548 9.69471e-20 0.00313714)
(-0.0707363 -0.0417082 -1.80993e-19 0.0674058 -4.93346e-19 0.00333051)
(-0.066233 -0.0409133 3.61047e-19 0.0627177 1.20908e-19 0.00351528)
(-0.0619017 -0.0401862 1.06705e-19 0.0582124 -1.15666e-19 0.00368929)
(-0.057717 -0.0395399 8.14876e-20 0.0538661 1.005e-19 0.00385085)
(-0.0536871 -0.0389669 -1.93217e-19 0.0496903 1.34943e-19 0.00399682)
(-0.0497983 -0.0384831 4.82896e-20 0.0456733 9.87861e-20 0.00412497)
(-0.0460479 -0.0380757 1.2848e-19 0.0418169 1.23067e-19 0.004231)
(-0.0424349 -0.0377631 2.16839e-19 0.0381231 -2.86722e-19 0.00431184)
(-0.0389448 -0.0375281 -2.57126e-19 0.0345827 2.29983e-19 0.00436205)
(-0.0355925 -0.0373897 9.25827e-19 0.0312157 -5.3835e-19 0.00437682)
(-0.0323484 -0.0373282 3.00483e-19 0.027998 4.65732e-19 0.00435036)
(-0.0292512 -0.0373593 -2.2118e-19 0.0249761 -5.59155e-19 0.00427511)
(-0.0262509 -0.0374646 -2.37471e-19 0.0221026 4.56067e-19 0.00414827)
(-0.0234264 -0.0376519 -5.84269e-19 0.0194649 -5.42843e-20 0.0039615)
(-0.0206937 -0.037913 1.0753e-19 0.0169743 1.60306e-19 0.00371942)
(-0.018205 -0.0382407 6.37584e-20 0.0147838 2.75878e-19 0.00342115)
(-0.015793 -0.0386591 -2.43365e-19 0.0127223 1.20204e-19 0.00307075)
(-0.0137403 -0.0391107 -4.63877e-19 0.0110668 2.12741e-20 0.00267352)
(-0.0116508 -0.0397581 4.59311e-19 0.00943313 2.59162e-19 0.00221765)
(-0.0101594 -0.0401887 -2.88147e-19 0.00846837 2.62471e-19 0.00169099)
(-0.0080846 -0.0415095 7.40861e-19 0.00699717 -1.76131e-19 0.00108743)
(-0.00681431 -0.0424358 -6.04275e-19 0.00641566 7.60094e-20 0.000398645)
(-0.171629 -0.0440526 1.16582e-19 0.171566 -1.42841e-19 6.2416e-05)
(-0.166954 -0.0501619 1.51613e-19 0.166765 -1.17709e-19 0.000188621)
(-0.161304 -0.0541804 2.2615e-19 0.160982 -1.07451e-19 0.000321319)
(-0.155035 -0.0565868 1.21108e-19 0.154573 -7.59276e-19 0.000461714)
(-0.148505 -0.0579295 -4.9775e-19 0.147894 -5.25038e-19 0.000611363)
(-0.141789 -0.0584187 -3.64368e-20 0.141019 1.29971e-19 0.000770385)
(-0.13513 -0.0583648 1.59583e-20 0.134191 2.2182e-19 0.000939286)
(-0.128487 -0.0578633 -1.72783e-19 0.127369 -4.84215e-21 0.00111749)
(-0.122033 -0.0570936 2.62364e-19 0.120728 3.25866e-19 0.00130463)
(-0.115687 -0.0561018 2.58333e-19 0.114188 -4.91428e-19 0.00149977)
(-0.109578 -0.0549927 -2.95766e-19 0.107876 3.0013e-19 0.00170215)
(-0.103617 -0.0537902 -7.10936e-20 0.101707 -3.26297e-19 0.00191011)
(-0.0978979 -0.0525554 9.24576e-21 0.0957754 6.89505e-20 0.00212242)
(-0.0923403 -0.0513022 -2.85952e-19 0.0900036 -1.32449e-19 0.00233668)
(-0.0870103 -0.0500654 3.35453e-19 0.0844598 2.46927e-19 0.00255058)
(-0.0818419 -0.0488555 1.69739e-19 0.0790796 -2.56532e-19 0.00276234)
(-0.0768815 -0.0476907 -9.61574e-20 0.0739119 4.49206e-19 0.00296962)
(-0.0720771 -0.0465811 8.78961e-20 0.0689058 -2.90523e-19 0.00317135)
(-0.067461 -0.045534 -2.68865e-19 0.0640954 2.69139e-19 0.00336569)
(-0.062994 -0.0445609 3.3252e-19 0.0594425 -4.72579e-20 0.00355142)
(-0.0586961 -0.0436606 -7.47474e-20 0.0549697 -1.8834e-19 0.00372641)
(-0.0545399 -0.0428475 1.82873e-19 0.0506509 -8.54776e-20 0.00388903)
(-0.0505346 -0.0421131 9.37531e-20 0.0464984 -1.52819e-19 0.00403615)
(-0.0466642 -0.0414756 -4.74765e-20 0.0424985 -3.49408e-20 0.00416567)
(-0.0429272 -0.0409195 -3.62891e-19 0.038654 1.73774e-19 0.00427322)
(-0.0393203 -0.0404672 2.39254e-19 0.0349644 -5.11238e-19 0.00435589)
(-0.0358297 -0.0400967 -5.80033e-19 0.0314218 1.24003e-19 0.00440793)
(-0.0324679 -0.0398334 -1.40763e-19 0.0280435 1.91649e-19 0.00442438)
(-0.0292051 -0.0396485 2.46333e-19 0.0248062 2.35866e-20 0.00439892)
(-0.026077 -0.0395694 -1.24511e-19 0.0217541 -2.55629e-19 0.00432287)
(-0.0230321 -0.0395602 6.44921e-19 0.0188384 1.77487e-19 0.00419365)
(-0.0201473 -0.0396513 1.58795e-19 0.016146 -2.52851e-19 0.00400133)
(-0.0173342 -0.0397998 -1.2891e-20 0.0135817 5.90138e-19 0.00375249)
(-0.0147499 -0.0400467 2.53806e-19 0.0113017 -7.19977e-19 0.00344812)
(-0.0122123 -0.0403441 -1.44618e-19 0.00912003 5.45222e-19 0.00309228)
(-0.0100234 -0.0407448 4.22478e-20 0.00732851 -1.83185e-19 0.00269489)
(-0.00775116 -0.0412545 2.04945e-19 0.00551186 4.88128e-19 0.0022393)
(-0.00610343 -0.0417583 -8.39654e-19 0.00439272 -3.1894e-19 0.00171072)
(-0.00375705 -0.0428951 -4.26364e-19 0.00265297 1.34603e-19 0.00110408)
(-0.002685 -0.0442839 5.59746e-19 0.0022733 3.99384e-19 0.000411698)
(-0.170513 -0.0493396 -9.90085e-20 0.170449 6.96214e-19 6.43455e-05)
(-0.164971 -0.0558079 -1.51702e-19 0.164777 3.3938e-19 0.00019391)
(-0.158689 -0.0600246 -3.64293e-19 0.158359 1.24639e-19 0.000329563)
(-0.151975 -0.0625047 1.855e-20 0.151502 5.6207e-19 0.000472534)
(-0.145127 -0.0638407 5.85829e-19 0.144503 7.00357e-19 0.000624434)
(-0.138195 -0.0642583 2.11425e-19 0.13741 2.93857e-19 0.000785397)
(-0.131391 -0.0640931 -2.18501e-20 0.130435 -7.73908e-20 0.000955985)
(-0.124659 -0.063447 2.56329e-19 0.123524 -2.69373e-19 0.00113563)
(-0.118156 -0.062514 -4.08033e-19 0.116832 -2.63339e-19 0.00132404)
(-0.111794 -0.0613427 -1.94407e-19 0.110274 2.48946e-19 0.00152027)
(-0.105689 -0.0600466 3.29091e-19 0.103966 5.05402e-19 0.00172362)
(-0.09975 -0.0586503 -2.07981e-19 0.0978176 4.70632e-19 0.00193241)
(-0.0940634 -0.0572203 2.07487e-19 0.091918 3.0657e-19 0.00214547)
(-0.0885466 -0.0557706 4.36274e-20 0.0861862 3.45803e-19 0.00236034)
(-0.0832627 -0.0543391 -4.38952e-19 0.0806879 5.76772e-20 0.00257481)
(-0.0781427 -0.0529362 1.55526e-19 0.0753556 -7.83678e-21 0.00278703)
(-0.0732321 -0.0515819 7.48211e-20 0.0702374 -2.72676e-20 0.00299476)
(-0.0684764 -0.0502866 -1.03997e-19 0.0652796 -1.96102e-19 0.00319683)
(-0.0639081 -0.0490581 -5.80653e-20 0.0605165 -2.69089e-19 0.00339155)
(-0.0594851 -0.0479088 -2.10152e-19 0.0559076 4.49939e-19 0.00357755)
(-0.0552288 -0.0468369 7.6532e-20 0.0514759 -2.81027e-20 0.00375291)
(-0.0511089 -0.0458586 -4.33786e-20 0.047193 4.04833e-19 0.00391584)
(-0.0471361 -0.0449637 -2.81604e-20 0.0430726 -1.25295e-19 0.00406344)
(-0.0432916 -0.0441731 4.80736e-19 0.0390981 1.50854e-19 0.00419349)
(-0.0395757 -0.0434686 -4.22775e-19 0.0352739 2.16487e-19 0.0043018)
(-0.0359819 -0.0428767 1.11593e-19 0.0315965 -9.03681e-20 0.00438533)
(-0.0324982 -0.0423701 4.44866e-19 0.0280598 5.55384e-19 0.00443833)
(-0.0291329 -0.0419818 4.99597e-19 0.0246775 1.7137e-19 0.00445542)
(-0.0258579 -0.0416731 -1.49778e-19 0.0214278 3.77623e-19 0.00443017)
(-0.0227031 -0.041485 -4.77069e-19 0.0183504 4.65202e-19 0.00435262)
(-0.0196182 -0.0413638 -2.09194e-19 0.0153975 4.42784e-20 0.00422073)
(-0.0166722 -0.0413645 3.14314e-20 0.0126493 -6.94897e-21 0.00402283)
(-0.0137788 -0.0414129 -2.706e-19 0.0100111 -3.51497e-20 0.00376771)
(-0.0110848 -0.0415961 8.20698e-20 0.00762784 -1.84796e-19 0.003457)
(-0.00841494 -0.0418069 4.52451e-19 0.00531899 2.51148e-19 0.00309595)
(-0.00605229 -0.0421914 -4.94354e-19 0.00335521 -3.24518e-19 0.00269708)
(-0.00359467 -0.0426273 7.77009e-19 0.00135363 3.09952e-20 0.00224104)
(-0.00171073 -0.043235 -3.33974e-19 1.79516e-07 -1.30732e-19 0.00171055)
(0.000812059 -0.0442374 1.1061e-18 -0.0019148 5.07135e-19 0.00110274)
(0.00194828 -0.0459027 -7.10647e-19 -0.00236142 -3.41775e-19 0.000413134)
(-0.169255 -0.0546297 5.81788e-20 0.169189 -4.646e-19 6.60265e-05)
(-0.162785 -0.061362 1.30356e-20 0.162587 -5.5557e-19 0.000198445)
(-0.15583 -0.0657039 2.06431e-19 0.155494 1.5789e-19 0.000336573)
(-0.148643 -0.0682052 1.12537e-19 0.148161 -8.39075e-20 0.00048166)
(-0.141457 -0.0694953 -7.81872e-19 0.140822 -1.53404e-19 0.000635351)
(-0.134298 -0.0698135 -3.13506e-20 0.133501 -8.77102e-19 0.000797814)
(-0.127342 -0.0695168 -2.83675e-19 0.126372 -6.3593e-20 0.000969634)
(-0.120519 -0.068712 -1.31602e-19 0.119369 -3.0687e-19 0.00115029)
(-0.113968 -0.0676062 5.69392e-19 0.112629 5.79054e-19 0.0013395)
(-0.107591 -0.0662494 5.60329e-19 0.106055 -5.51121e-20 0.00153638)
(-0.101495 -0.0647629 -1.30861e-20 0.0997547 -5.33934e-20 0.00174022)
(-0.0955823 -0.0631714 6.04504e-20 0.0936329 -8.41933e-19 0.0019494)
(-0.0899347 -0.0615463 -1.71118e-19 0.087772 1.13597e-19 0.00216271)
(-0.0844653 -0.0599012 -6.6878e-20 0.0820876 -7.6842e-19 0.00237775)
(-0.0792347 -0.0582767 1.30814e-19 0.0766424 -9.2928e-20 0.00259231)
(-0.0741705 -0.0566831 -3.03061e-20 0.0713659 -2.28782e-19 0.00280455)
(-0.0693174 -0.0551418 -1.29931e-19 0.0663051 1.77548e-19 0.00301228)
(-0.064618 -0.0536633 -1.04588e-19 0.0614037 -2.48483e-19 0.0032143)
(-0.0601048 -0.0522559 2.2681e-19 0.0566959 3.82452e-19 0.00340896)
(-0.0557334 -0.0509325 6.25423e-19 0.0521385 -1.92195e-19 0.00359489)
(-0.0515259 -0.0496911 -2.58317e-19 0.0477557 1.38919e-19 0.00377018)
(-0.0474491 -0.0485489 1.45115e-19 0.043516 -1.55111e-20 0.00393308)