/*--------------------------------*- C++ -*----------------------------------*\
| =========                 |                                                 |
| \\      /  F ield         | foam-extend: Open Source CFD                    |
|  \\    /   O peration     | Version:  3.0                                   |
|   \\  /    A nd           | Web:         http://www.extend-project.de       |
|    \\/     M anipulation  |                                                 |
\*---------------------------------------------------------------------------*/
FoamFile
{
    version     2.0;
    format      ascii;
    class       volSymmTensorField;
    location    "3.7";
    object      sigma;
}
// * * * * * * * * * * * * * * * * * * * * * * * * * * * * * * * * * * * * * //

dimensions      [0 0 0 0 0 0 0];

internalField   nonuniform List<symmTensor> 
400
(
(0.0720789 -0.0326071 5.89947e-317 -0.0937798 8.12275e-317 0.0217009)
(0.144984 -0.046277 6.55832e-317 -0.0959994 9.53976e-317 -0.0489842)
(0.179679 -0.059836 6.58027e-317 -0.0937204 9.30487e-317 -0.0859581)
(0.189522 -0.0723737 6.45368e-317 -0.0877847 8.58798e-317 -0.101737)
(0.181823 -0.083507 6.06882e-317 -0.0781262 7.52542e-317 -0.103697)
(0.163897 -0.0955633 5.67331e-317 -0.0674429 6.66738e-317 -0.0964539)
(0.136778 -0.105485 5.21214e-317 -0.0543262 5.66952e-317 -0.0824521)
(0.104199 -0.114885 4.77209e-317 -0.0405511 4.99899e-317 -0.0636478)
(0.0669667 -0.121338 4.3412e-317 -0.0255289 4.2034e-317 -0.0414378)
(0.0268317 -0.125439 3.94335e-317 -0.00989271 3.73665e-317 -0.016939)
(-0.0149449 -0.126145 3.57965e-317 0.00639046 3.12665e-317 0.00855448)
(-0.0567434 -0.123639 3.25414e-317 0.0227771 2.8258e-317 0.0339663)
(-0.0974443 -0.118432 2.9719e-317 0.0395568 2.36215e-317 0.0578876)
(-0.133818 -0.11024 2.71982e-317 0.055045 2.18483e-317 0.0787731)
(-0.165576 -0.101243 2.51999e-317 0.0705985 1.83309e-317 0.0949771)
(-0.186391 -0.0899546 2.30578e-317 0.0824926 1.73273e-317 0.103898)
(-0.196383 -0.0793966 2.1658e-317 0.0933836 1.47078e-317 0.102999)
(-0.185724 -0.0671169 1.89216e-317 0.0984486 1.38487e-317 0.0872752)
(-0.149066 -0.0530849 1.69305e-317 0.0992957 1.1772e-317 0.0497705)
(-0.0730487 -0.0382899 1.09304e-317 0.0946322 9.47046e-318 -0.0215835)
(0.0583679 -0.0135955 1.23043e-317 -0.135268 3.864e-317 0.0769004)
(0.125703 -0.0160423 2.22705e-317 -0.145552 6.41292e-317 0.0198492)
(0.155317 -0.0206184 2.91972e-317 -0.142072 7.04804e-317 -0.013245)
(0.16334 -0.0250564 3.36261e-317 -0.132675 6.89333e-317 -0.0306644)
(0.155339 -0.0301703 3.58318e-317 -0.117279 6.25484e-317 -0.0380599)
(0.138044 -0.0362441 3.66482e-317 -0.0993802 5.62942e-317 -0.0386637)
(0.114177 -0.041434 3.63235e-317 -0.0793383 4.85402e-317 -0.0348385)
(0.0860546 -0.046304 3.53332e-317 -0.0582037 4.2795e-317 -0.0278509)
(0.0552759 -0.049253 3.38725e-317 -0.0363651 3.61963e-317 -0.0189108)
(0.0223565 -0.0503547 3.21835e-317 -0.0137111 3.19104e-317 -0.00864536)
(-0.0114151 -0.0494934 3.04137e-317 0.00936853 2.67911e-317 0.00204661)
(-0.0456807 -0.0462074 2.86899e-317 0.0330414 2.39284e-317 0.0126393)
(-0.0792929 -0.0421272 2.71363e-317 0.0571202 2.01354e-317 0.0221727)
(-0.110577 -0.0363379 2.57824e-317 0.0806681 1.84783e-317 0.0299094)
(-0.138428 -0.0317606 2.48284e-317 0.10392 1.58343e-317 0.0345074)
(-0.158303 -0.0272273 2.40713e-317 0.123732 1.51888e-317 0.034571)
(-0.168572 -0.0250011 2.40555e-317 0.140878 1.37509e-317 0.027694)
(-0.159883 -0.0246858 2.39247e-317 0.149191 1.42293e-317 0.0106913)
(-0.128895 -0.0236829 2.48391e-317 0.150678 1.50588e-317 -0.0217838)
(-0.0586292 -0.0254433 2.41695e-317 0.136128 1.87046e-317 -0.0774993)
(0.0543569 -0.0160361 -3.05061e-318 -0.154432 1.81924e-317 0.100075)
(0.119561 -0.0030146 5.30333e-318 -0.168696 4.18446e-317 0.0491352)
(0.145548 0.00604746 1.29421e-317 -0.1634 5.0671e-317 0.0178521)
(0.153008 0.0101184 1.88862e-317 -0.152713 5.2127e-317 -0.000294996)
(0.143795 0.012459 2.28529e-317 -0.133751 4.92157e-317 -0.0100434)
(0.127159 0.0108058 2.54089e-317 -0.113028 4.52167e-317 -0.0141307)
(0.105124 0.00992227 2.66933e-317 -0.0904304 4.00312e-317 -0.0146934)
(0.0796539 0.00781884 2.71642e-317 -0.0668543 3.55521e-317 -0.0127996)
(0.0529471 0.00769942 2.70227e-317 -0.0434194 3.07098e-317 -0.00952762)
(0.0238913 0.00862383 2.65233e-317 -0.0185673 2.69863e-317 -0.00532401)
(-0.00536189 0.01113 2.58292e-317 0.00629578 2.30404e-317 -0.00093389)
(-0.0363185 0.0155045 2.50814e-317 0.0329768 2.02323e-317 0.00334165)
(-0.0671423 0.0193087 2.4402e-317 0.0604215 1.71481e-317 0.00672088)
(-0.0973872 0.0241235 2.38297e-317 0.0886418 1.50945e-317 0.00874535)
(-0.125893 0.0247776 2.3502e-317 0.117634 1.26692e-317 0.0082599)
(-0.147173 0.0240944 2.32266e-317 0.142955 1.11097e-317 0.00421876)
(-0.161356 0.0161 2.32857e-317 0.166871 9.26274e-318 -0.0055146)
(-0.153741 0.00398725 2.29836e-317 0.177227 8.33674e-318 -0.023486)
(-0.126804 -0.0137218 2.28486e-317 0.180872 8.60876e-318 -0.0540674)
(-0.055646 -0.0361787 2.2032e-317 0.158682 1.29293e-317 -0.103036)
(0.0518431 -0.00806009 -1.88905e-317 -0.174244 7.1892e-319 0.122401)
(0.109226 0.0151357 -1.1047e-317 -0.177506 2.30349e-317 0.0682796)
(0.129003 0.0334239 -2.30747e-318 -0.16377 3.30942e-317 0.034767)
(0.131294 0.0399377 5.01926e-318 -0.14601 3.67934e-317 0.014716)
(0.120747 0.0447757 1.08483e-317 -0.123878 3.64174e-317 0.00313038)
(0.104417 0.0427324 1.50594e-317 -0.101505 3.45495e-317 -0.00291174)
(0.0861043 0.0420337 1.79465e-317 -0.0805148 3.13467e-317 -0.00558948)
(0.0653935 0.0397939 1.97669e-317 -0.0593678 2.82952e-317 -0.00602567)
(0.0457111 0.0401729 2.07873e-317 -0.040453 2.47972e-317 -0.00525819)
(0.0236774 0.0423563 2.12356e-317 -0.0199459 2.19555e-317 -0.00373152)
(0.00249142 0.0464872 2.12955e-317 -0.000381223 1.89196e-317 -0.00211019)
(-0.0218005 0.0535959 2.11066e-317 0.0224724 1.66641e-317 -0.000671996)
(-0.0461235 0.0597328 2.07703e-317 0.0462341 1.42681e-317 -0.000110544)
(-0.0729302 0.0678082 2.03322e-317 0.073805 1.26739e-317 -0.000874773)
(-0.0992853 0.0694442 1.98159e-317 0.103357 1.09874e-317 -0.00407158)
(-0.122649 0.0697376 1.91452e-317 0.133454 1.01664e-317 -0.0108047)
(-0.140688 0.0566941 1.82608e-317 0.163964 9.49577e-318 -0.0232755)
(-0.139981 0.0377666 1.69643e-317 0.184207 9.94134e-318 -0.0442263)
(-0.120314 0.0032227 1.51377e-317 0.198585 1.10815e-317 -0.0782712)
(-0.0544703 -0.0392043 1.29649e-317 0.185994 1.28964e-317 -0.131524)
(0.0558475 0.0103183 -1.11036e-317 -0.206721 -1.02259e-318 0.150874)
(0.10824 0.0369008 -7.15362e-318 -0.194931 1.32095e-317 0.0866911)
(0.123232 0.0584363 -1.56709e-318 -0.170862 2.12311e-317 0.0476296)
(0.119992 0.0633435 3.74486e-318 -0.144343 2.5123e-317 0.0243509)
(0.10846 0.06742 8.19493e-318 -0.11913 2.60842e-317 0.0106699)
(0.091788 0.062846 1.17077e-317 -0.0948619 2.55411e-317 0.00307383)
(0.0767771 0.0608241 1.42717e-317 -0.0758265 2.38924e-317 -0.000950571)
(0.0594547 0.0571138 1.60808e-317 -0.0567844 2.19484e-317 -0.00267033)
(0.0454629 0.0572516 1.72743e-317 -0.0422392 1.96511e-317 -0.0032237)
(0.0283867 0.0596784 1.80256e-317 -0.0253261 1.75298e-317 -0.00306064)
(0.0132689 0.0652285 1.84737e-317 -0.0103722 1.53358e-317 -0.00289665)
(-0.00676613 0.0745628 1.87409e-317 0.00974319 1.34869e-317 -0.00297707)
(-0.026936 0.0836941 1.89339e-317 0.0310109 1.16697e-317 -0.0040749)
(-0.0527857 0.0957742 1.91114e-317 0.0594248 1.02726e-317 -0.0066391)
(-0.0795893 0.100605 1.93603e-317 0.0915689 8.99908e-318 -0.0119796)
(-0.107676 0.104972 1.96184e-317 0.129051 8.26507e-318 -0.021375)
(-0.132463 0.0913176 2.00018e-317 0.170056 7.91875e-318 -0.0375933)
(-0.141231 0.0718182 2.024e-317 0.205359 8.49194e-318 -0.064128)
(-0.12961 0.0267848 2.0522e-317 0.236869 1.03244e-317 -0.107259)
(-0.0642194 -0.0267163 2.05068e-317 0.240072 1.48203e-317 -0.175853)
(0.0571123 0.0479172 -1.23561e-317 -0.237471 -3.79129e-318 0.180359)
(0.0992413 0.0684515 -9.28292e-318 -0.202713 6.84268e-318 0.103471)
(0.108102 0.0850171 -4.43114e-318 -0.165734 1.32439e-317 0.057632)
(0.0976267 0.0816226 3.57205e-319 -0.128386 1.69019e-317 0.0307595)
(0.0857213 0.0796003 4.69661e-318 -0.100855 1.8408e-317 0.0151338)
(0.0692285 0.0689441 8.19832e-318 -0.0756029 1.86587e-317 0.00637449)
(0.0588056 0.0625493 1.09173e-317 -0.060378 1.79331e-317 0.00157244)
(0.0464287 0.0558058 1.29077e-317 -0.0456293 1.68029e-317 -0.00079944)
(0.03985 0.0542647 1.43101e-317 -0.0379026 1.5291e-317 -0.00194741)
(0.0299346 0.0568435 1.52547e-317 -0.0275101 1.3779e-317 -0.00242456)
(0.023337 0.0639095 1.58631e-317 -0.0203996 1.21542e-317 -0.00293739)
(0.0103009 0.0769748 1.62357e-317 -0.00647823 1.07131e-317 -0.00382262)
(-0.00225066 0.091101 1.64474e-317 0.00811733 9.29652e-318 -0.00586667)
(-0.0243757 0.110769 1.65453e-317 0.0340683 8.19012e-318 -0.00969262)
(-0.0475261 0.123203 1.65433e-317 0.0643091 7.26609e-318 -0.0167829)
(-0.079208 0.13772 1.64451e-317 0.108088 6.86823e-318 -0.0288796)
(-0.107827 0.130238 1.61742e-317 0.157296 6.98971e-318 -0.0494696)
(-0.129424 0.118099 1.57442e-317 0.212833 8.07953e-318 -0.0834088)
(-0.127135 0.0697598 1.49689e-317 0.266425 1.0167e-317 -0.139289)
(-0.0705573 0.0108378 1.39167e-317 0.300062 1.30808e-317 -0.229505)
(0.0601851 0.104243 -1.02191e-318 -0.266819 4.95587e-319 0.206634)
(0.0912415 0.107858 -7.23184e-319 -0.207419 4.70745e-318 0.116178)
(0.0959471 0.110299 1.20615e-318 -0.160006 8.5063e-318 0.0640585)
(0.0784535 0.094355 3.73568e-318 -0.112737 1.12042e-317 0.0342834)
(0.0677918 0.0823467 6.22084e-318 -0.0851078 1.26998e-317 0.017316)
(0.0515587 0.0643284 8.48195e-318 -0.0594612 1.33004e-317 0.00790249)
(0.0460676 0.0520972 1.03349e-317 -0.048797 1.3168e-317 0.00272942)
(0.0380376 0.0414092 1.18086e-317 -0.0381225 1.26052e-317 8.49257e-05)
(0.0383416 0.0372792 1.29224e-317 -0.0370035 1.16956e-317 -0.00133815)
(0.0346318 0.0385087 1.37542e-317 -0.0325181 1.06566e-317 -0.00211371)
(0.0357244 0.046217 1.43798e-317 -0.0327097 9.49732e-318 -0.0030147)
(0.0288133 0.0610188 1.48804e-317 -0.0244399 8.38274e-318 -0.00437335)
(0.0231159 0.0798925 1.53402e-317 -0.0160119 7.2943e-318 -0.00710395)
(0.00406539 0.105848 1.58222e-317 0.00782842 6.39436e-318 -0.0118938)
(-0.0161968 0.128063 1.64223e-317 0.0367587 5.69776e-318 -0.0205619)
(-0.0525348 0.154901 1.71483e-317 0.0877732 5.43407e-318 -0.0352384)
(-0.0864169 0.161151 1.81406e-317 0.146862 5.75188e-318 -0.0604455)
(-0.123759 0.166507 1.92364e-317 0.226427 7.06891e-318 -0.102668)
(-0.132727 0.130078 2.05669e-317 0.306784 9.91762e-318 -0.174057)
(-0.0854993 0.0871761 2.1591e-317 0.379201 1.5595e-317 -0.293701)
(0.0556864 0.172573 -1.14502e-318 -0.272764 9.87771e-319 0.217077)
(0.0729109 0.15138 -6.1946e-319 -0.192496 3.49846e-318 0.119585)
(0.0742448 0.132438 1.21229e-318 -0.139056 5.82343e-318 0.0648117)
(0.0512141 0.101059 3.42295e-318 -0.0854656 7.73186e-318 0.0342515)
(0.0425562 0.0759397 5.70941e-318 -0.0598145 8.97096e-318 0.0172582)
(0.0276463 0.0498337 7.71272e-318 -0.0356553 9.62471e-318 0.00800903)
(0.0269163 0.0303928 9.38903e-318 -0.0299616 9.73986e-318 0.00304536)
(0.0238512 0.0156567 1.07006e-317 -0.0243893 9.48318e-318 0.000538119)
(0.030672 0.0082257 1.16954e-317 -0.0298896 8.91498e-318 -0.000782384)
(0.0339122 0.00833835 1.24297e-317 -0.0323659 8.17648e-318 -0.00154624)
(0.0429525 0.0165052 1.29697e-317 -0.0404793 7.29389e-318 -0.0024732)
(0.0436917 0.033875 1.3378e-317 -0.0397099 6.38134e-318 -0.00398182)
(0.0467076 0.0582984 1.37097e-317 -0.03974 5.45239e-318 -0.00696757)
(0.0335246 0.0926007 1.40136e-317 -0.021219 4.63261e-318 -0.0123056)
(0.0205964 0.127464 1.43211e-317 0.00135722 3.98067e-318 -0.0219536)
(-0.0168297 0.170816 1.46809e-317 0.0553992 3.71593e-318 -0.0385694)
(-0.0490917 0.197342 1.50711e-317 0.116556 4.05774e-318 -0.0674643)
(-0.100917 0.227148 1.55639e-317 0.217808 5.48376e-318 -0.116891)
(-0.116605 0.213367 1.59994e-317 0.318747 8.46644e-318 -0.202142)
(-0.0881863 0.19402 1.62149e-317 0.435979 1.35166e-317 -0.347792)
(0.0487712 0.241628 7.04553e-318 -0.255483 4.69817e-318 0.206712)
(0.0529854 0.192522 6.03652e-318 -0.163778 3.5579e-318 0.110793)
(0.0526546 0.147971 6.04583e-318 -0.111262 4.18028e-318 0.0586079)
(0.0263725 0.10178 6.78293e-318 -0.0566104 5.21289e-318 0.0302379)
(0.0208991 0.0622912 7.73914e-318 -0.035772 6.1333e-318 0.0148729)
(0.00784937 0.0287378 8.7946e-318 -0.0145637 6.76346e-318 0.00671436)
(0.0117435 0.00165215 9.73804e-318 -0.0142191 7.04155e-318 0.00247559)
(0.0130858 -0.0175045 1.05468e-317 -0.0135184 7.01164e-318 0.000432605)
(0.0256726 -0.028948 1.11906e-317 -0.0250819 6.70584e-318 -0.00059065)
(0.0349606 -0.0316737 1.16976e-317 -0.0338043 6.20378e-318 -0.00115632)
(0.0511107 -0.0244311 1.21028e-317 -0.0491367 5.54228e-318 -0.00197394)
(0.0588303 -0.00771967 1.24549e-317 -0.0554129 4.79703e-318 -0.00341735)
(0.0699218 0.020627 1.28159e-317 -0.0634787 4.00345e-318 -0.00644312)
(0.062582 0.059123 1.3244e-317 -0.0506622 3.25134e-318 -0.0119198)
(0.056412 0.106718 1.38421e-317 -0.0344082 2.619e-318 -0.0220037)
(0.018389 0.164113 1.46569e-317 0.0211632 2.29344e-318 -0.0395523)
(-0.0137674 0.21698 1.58878e-317 0.08437 2.53412e-318 -0.0706026)
(-0.0803036 0.277029 1.74463e-317 0.204973 3.85851e-318 -0.124669)
(-0.106686 0.303259 1.95865e-317 0.326921 7.15796e-318 -0.220235)
(-0.0972267 0.331915 2.16588e-317 0.486217 1.43435e-317 -0.38899)
(0.0329492 0.300371 5.22986e-318 -0.202157 4.71832e-318 0.169208)
(0.0258104 0.224471 5.15351e-318 -0.114085 3.42947e-318 0.0882747)
(0.0236869 0.154767 5.81004e-318 -0.0690168 3.28031e-318 0.0453299)
(-0.00218594 0.0958041 6.75555e-318 -0.0203643 3.73878e-318 0.0225503)
(-0.00518964 0.0424409 7.83587e-318 -0.00539212 4.34879e-318 0.0105818)
(-0.0150572 0.00262414 8.7874e-318 0.0106182 4.86868e-318 0.00443901)
(-0.00805707 -0.0320382 9.59008e-318 0.00661067 5.17455e-318 0.0014464)
(-0.00233273 -0.0550421 1.02079e-317 0.0021651 5.24111e-318 0.000167627)
(0.0140925 -0.0706711 1.06668e-317 -0.0137747 5.06964e-318 -0.000317795)
(0.0289483 -0.0758533 1.09956e-317 -0.028442 4.70108e-318 -0.000506228)
(0.0503423 -0.0698245 1.12293e-317 -0.0493693 4.16107e-318 -0.000973011)
(0.0651577 -0.0532314 1.14022e-317 -0.0630407 3.49875e-318 -0.00211696)
(0.0836601 -0.0210579 1.1548e-317 -0.0788808 2.74431e-318 -0.00477934)
(0.0843574 0.0228943 1.17017e-317 -0.074456 1.9613e-318 -0.00990134)
(0.0876459 0.0842088 1.18983e-317 -0.0681309 1.22353e-318 -0.019515)
(0.0547007 0.158315 1.21955e-317 -0.0180582 6.97833e-319 -0.0366425)
(0.0312135 0.240979 1.26265e-317 0.036133 6.56144e-319 -0.0673464)
(-0.0422035 0.33477 1.3321e-317 0.164015 1.66263e-318 -0.121812)
(-0.0683062 0.406629 1.42875e-317 0.287872 4.6114e-318 -0.219566)
(-0.083355 0.481368 1.546e-317 0.477549 1.09852e-317 -0.394194)
(0.0148882 0.335141 9.99953e-318 -0.123871 6.62696e-318 0.108982)
(-0.00167486 0.241554 9.17193e-318 -0.052357 3.38899e-318 0.0540319)
(-0.00506785 0.151231 8.88345e-318 -0.0211296 2.3702e-318 0.0261974)
(-0.0278366 0.0840289 9.07497e-318 0.0158862 2.35825e-318 0.0119505)
(-0.0280844 0.0189522 9.3706e-318 0.0232701 2.79876e-318 0.00481428)
(-0.0340966 -0.0255929 9.73211e-318 0.0327199 3.3054e-318 0.0013767)
(-0.0243438 -0.0668531 1.0029e-317 0.0243916 3.68649e-318 -4.78628e-05)
(-0.0146591 -0.0935314 1.02655e-317 0.0150522 3.86331e-318 -0.000393102)
(0.00489992 -0.113287 1.04253e-317 -0.00463477 3.81453e-318 -0.000265143)
(0.0244099 -0.122062 1.05249e-317 -0.0244185 3.56297e-318 8.58452e-06)
(0.0502807 -0.118493 1.05785e-317 -0.0502279 3.13019e-318 -5.28845e-05)
(0.071389 -0.10524 1.06084e-317 -0.070638 2.55206e-318 -0.000751032)
(0.096771 -0.0720018 1.06466e-317 -0.0938901 1.85569e-318 -0.00288091)
(0.105566 -0.0287099 1.07223e-317 -0.09833 1.08702e-318 -0.00723614)
(0.117784 0.0430656 1.09141e-317 -0.102049 3.02862e-319 -0.0157343)
(0.0912873 0.125397 1.12561e-317 -0.0602147 -3.66043e-319 -0.0310727)
(0.0737973 0.237959 1.19644e-317 -0.0147894 -6.79286e-319 -0.0590079)
(-0.00509309 0.36037 1.30135e-317 0.114309 -1.24673e-319 -0.109216)
(-0.0405426 0.488502 1.48488e-317 0.241867 2.409e-318 -0.201324)
(-0.0806724 0.625983 1.71768e-317 0.452398 9.33916e-318 -0.371725)
(-0.00853103 0.344519 6.81222e-318 -0.0219348 5.76105e-318 0.0304658)
(-0.0308674 0.239628 7.34946e-318 0.0189321 2.92594e-318 0.0119353)
(-0.0383869 0.136143 8.24038e-318 0.0346577 1.64403e-318 0.00372919)
(-0.0542418 0.0648866 8.9603e-318 0.0542366 1.43954e-318 5.22418e-06)
(-0.053442 -0.00858348 9.55411e-318 0.0549055 1.79538e-318 -0.00146353)
(-0.0540703 -0.0560038 9.89136e-318 0.0559194 2.28841e-318 -0.00184909)
(-0.0431007 -0.102592 1.00747e-317 0.0446637 2.69816e-318 -0.00156304)
(-0.0296568 -0.13196 1.013e-317 0.0305713 2.92357e-318 -0.00091447)
(-0.00925475 -0.155294 1.01048e-317 0.00936649 2.93631e-318 -0.000111744)
(0.0136033 -0.166985 1.00225e-317 -0.0142737 2.74806e-318 0.000670479)
(0.0407368 -0.16588 9.89739e-318 -0.0418649 2.37652e-318 0.00112812)
(0.0668077 -0.15536 9.73645e-318 -0.0677999 1.84692e-318 0.000992157)
(0.095712 -0.12165 9.54286e-318 -0.0953755 1.1764e-318 -0.000336522)
(0.113339 -0.0778958 9.31281e-318 -0.109764 3.92288e-319 -0.00357527)
(0.133462 0.00346456 9.04831e-318 -0.123261 -4.67386e-319 -0.0102016)
(0.119681 0.0966487 8.76108e-318 -0.0971705 -1.30903e-318 -0.0225106)
(0.114824 0.238298 8.46289e-318 -0.0697509 -1.93005e-318 -0.0450733)
(0.0448127 0.392217 8.29191e-318 0.0412862 -1.88342e-318 -0.0860989)
(0.0178696 0.573129 8.35111e-318 0.14406 -2.08891e-319 -0.16193)
(-0.0428209 0.760721 9.16033e-318 0.345039 4.80765e-318 -0.302218)
(-0.0321021 0.321208 9.53887e-318 0.0867621 6.095e-318 -0.05466)
(-0.0588576 0.219256 9.8258e-318 0.0912449 1.91585e-318 -0.0323873)
(-0.0687676 0.11165 1.03276e-317 0.0879021 3.97169e-319 -0.0191346)
(-0.0767929 0.0399077 1.06268e-317 0.0885768 2.49656e-319 -0.0117839)
(-0.074518 -0.0376737 1.0665e-317 0.0820317 7.56622e-319 -0.00751378)
(-0.0694372 -0.0866384 1.05567e-317 0.0743683 1.39023e-318 -0.00493113)
(-0.0572816 -0.136016 1.0344e-317 0.0603232 1.9057e-318 -0.00304157)
(-0.0403908 -0.167037 1.00965e-317 0.0418742 2.21235e-318 -0.00148341)
(-0.0195412 -0.192637 9.83099e-318 0.0196247 2.29324e-318 -8.35275e-05)
(0.00574917 -0.206994 9.55936e-318 -0.00692225 2.16873e-318 0.00117307)
(0.0336731 -0.208807 9.27612e-318 -0.0357772 1.86257e-318 0.00210407)
(0.0636606 -0.202845 8.97346e-318 -0.0662143 1.39993e-318 0.00255368)
(0.0960792 -0.171858 8.645e-318 -0.0981184 7.96128e-319 0.00203919)
(0.122227 -0.133708 8.27271e-318 -0.122315 7.06514e-320 8.78627e-05)
(0.150818 -0.049511 7.87724e-318 -0.146425 -7.522e-319 -0.00439283)
(0.150768 0.041286 7.4334e-318 -0.137899 -1.61574e-318 -0.0128692)
(0.156551 0.203351 7.0713e-318 -0.128091 -2.37366e-318 -0.0284595)
(0.0945617 0.369017 6.76537e-318 -0.0379171 -2.72936e-318 -0.0566446)
(0.0600942 0.600878 6.92336e-318 0.0495486 -1.80751e-318 -0.109643)
(-0.0323045 0.838664 7.95055e-318 0.246457 2.16828e-318 -0.214153)
(-0.0538539 0.271092 7.0996e-318 0.190085 5.05163e-318 -0.136231)
(-0.0838924 0.177109 8.67218e-318 0.156786 9.96204e-319 -0.0728932)
(-0.100627 0.0745213 1.02894e-317 0.139739 -4.3337e-319 -0.0391114)
(-0.0978963 0.0070001 1.08645e-317 0.11955 -3.57911e-319 -0.0216536)
(-0.0946567 -0.0703797 1.09674e-317 0.107061 2.91637e-319 -0.0124041)
(-0.0824637 -0.118552 1.06902e-317 0.0898047 9.95952e-319 -0.00734103)
(-0.0696367 -0.16856 1.02921e-317 0.0737942 1.53039e-318 -0.00415751)
(-0.0498054 -0.199748 9.85422e-318 0.051684 1.8371e-318 -0.00187859)
(-0.030418 -0.226307 9.4256e-318 0.0304068 1.92049e-318 1.12128e-05)
(-0.00463007 -0.242308 9.01227e-318 0.00296594 1.81026e-318 0.00166413)
(0.0204593 -0.246543 8.59957e-318 -0.023505 1.5332e-318 0.00304578)
(0.0516737 -0.244444 8.16366e-318 -0.0557216 1.11186e-318 0.00404797)
(0.0821845 -0.216847 7.6709e-318 -0.086574 5.59361e-319 0.00438955)
(0.115086 -0.183346 7.07602e-318 -0.118831 -1.14865e-319 0.00374579)
(0.146122 -0.0985269 6.32962e-318 -0.147723 -8.95642e-319 0.00160189)
(0.163812 -0.006847 5.37874e-318 -0.161071 -1.75212e-318 -0.00274104)
(0.18004 0.171728 4.14004e-318 -0.169727 -2.57353e-318 -0.0103134)
(0.145803 0.357081 2.70544e-318 -0.122684 -3.173e-318 -0.0231192)
(0.12645 0.631876 9.9821e-319 -0.0811056 -2.98775e-318 -0.0453446)
(0.0321973 0.911843 1.42963e-319 0.0534755 -1.35123e-318 -0.0856727)
(-0.0781603 0.203442 1.11531e-317 0.283085 4.1097e-318 -0.204925)
(-0.103615 0.122726 1.18861e-317 0.207874 -1.28817e-318 -0.10426)
(-0.122366 0.0313722 1.25521e-317 0.175933 -2.25874e-318 -0.0535667)
(-0.110323 -0.0333437 1.23111e-317 0.138749 -1.52061e-318 -0.0284263)
(-0.105816 -0.105825 1.1655e-317 0.12144 -4.49985e-319 -0.0156232)
(-0.0874023 -0.151949 1.08802e-317 0.0963021 4.85681e-319 -0.00889979)
(-0.0741184 -0.198868 1.01224e-317 0.0790059 1.12344e-318 -0.00488748)
(-0.0520401 -0.228177 9.4542e-318 0.0542037 1.47961e-318 -0.00216359)
(-0.0344297 -0.253391 8.86917e-318 0.0344032 1.59812e-318 2.64959e-05)
(-0.00912668 -0.269422 8.34723e-318 0.00718178 1.52936e-318 0.0019449)
(0.01301 -0.275529 7.85246e-318 -0.0166501 1.31107e-318 0.0036401)
(0.0441915 -0.277072 7.34681e-318 -0.0492767 9.70375e-319 0.00508521)
(0.0734865 -0.255387 6.7877e-318 -0.0795968 5.22529e-319 0.00611031)
(0.111943 -0.23027 6.12339e-318 -0.118552 -2.20007e-320 0.00660886)
(0.147899 -0.153466 5.3209e-318 -0.154379 -6.53318e-319 0.00647976)
(0.182299 -0.0749956 4.30972e-318 -0.188231 -1.35415e-318 0.00593129)
(0.211634 0.102255 3.10752e-318 -0.217486 -2.05653e-318 0.00585214)
(0.197519 0.27217 1.67621e-318 -0.20584 -2.69993e-318 0.00832038)
(0.177215 0.56927 1.64346e-319 -0.194105 -2.95478e-318 0.0168901)
(0.0396798 0.855614 -6.62048e-319 -0.0705882 -2.51584e-318 0.0309083)
(-0.088461 0.104051 1.30925e-317 0.334411 5.4465e-318 -0.24595)
(-0.120694 0.0479192 1.35748e-317 0.241798 -4.41616e-319 -0.121104)
(-0.141518 -0.0219927 1.38187e-317 0.201829 -1.50121e-318 -0.0603109)
(-0.118463 -0.0769738 1.28921e-317 0.149616 -7.07038e-319 -0.0311527)
(-0.109951 -0.139982 1.1753e-317 0.126706 2.36875e-319 -0.0167555)
(-0.0848288 -0.181284 1.06094e-317 0.0942122 9.80681e-319 -0.00938335)
(-0.0708809 -0.222615 9.62275e-318 0.0759722 1.42239e-318 -0.00509131)
(-0.0478279 -0.248515 8.80772e-318 0.0500624 1.61537e-318 -0.00223457)
(-0.0334707 -0.270826 8.13329e-318 0.0334151 1.61587e-318 5.55786e-05)
(-0.0108477 -0.28575 7.55486e-318 0.00876786 1.47246e-318 0.00207981)
(0.0052772 -0.292798 7.02122e-318 -0.00923381 1.21999e-318 0.00395661)
(0.0330939 -0.296922 6.4815e-318 -0.0387782 8.79219e-319 0.00568423)
(0.0552452 -0.281225 5.87911e-318 -0.0624697 4.62964e-319 0.00722451)
(0.0947616 -0.263233 5.1468e-318 -0.103333 -2.13486e-320 0.00857187)
(0.12511 -0.196771 4.20838e-318 -0.135146 -5.60893e-319 0.0100361)
(0.174968 -0.127666 2.98842e-318 -0.18739 -1.14299e-318 0.0124216)
(0.204737 0.0428859 1.34342e-318 -0.223223 -1.7034e-318 0.0184853)
(0.233888 0.214337 -6.45507e-319 -0.268043 -2.21436e-318 0.0341559)
(0.226728 0.528309 -3.26357e-318 -0.300729 -2.60444e-318 0.0740002)
(0.133839 0.852018 -5.39098e-318 -0.302811 -3.42808e-318 0.168972)
(-0.109398 0.0293792 1.93958e-317 0.369503 1.59602e-318 -0.260105)
(-0.113824 -0.0303483 1.736e-317 0.235076 -4.40617e-318 -0.121251)
(-0.136114 -0.0848812 1.51521e-317 0.194649 -4.08787e-318 -0.0585352)
(-0.105757 -0.136492 1.29897e-317 0.135441 -2.23043e-318 -0.0296841)
(-0.0967831 -0.187944 1.10849e-317 0.112587 -7.8715e-319 -0.0158039)
(-0.0686825 -0.222208 9.62665e-318 0.0775149 2.05413e-319 -0.00883244)
(-0.0556473 -0.254931 8.49668e-318 0.060452 7.75866e-319 -0.00480468)
(-0.033337 -0.275065 7.64467e-318 0.03547 1.06665e-318 -0.00213294)
(-0.0223865 -0.292513 6.97433e-318 0.022355 1.16452e-318 3.14589e-05)
(-0.00325621 -0.304712 6.41991e-318 0.00127929 1.13412e-318 0.00197692)
(0.00770759 -0.311612 5.91883e-318 -0.011545 1.01472e-318 0.00383738)
(0.0312259 -0.317338 5.41746e-318 -0.0368666 8.31695e-319 0.00564077)
(0.0481472 -0.308338 4.86365e-318 -0.0555487 5.99475e-319 0.00740153)
(0.0863835 -0.298815 4.199e-318 -0.0955889 3.26301e-319 0.00920537)
(0.115558 -0.249371 3.37642e-318 -0.127091 2.1892e-320 0.011533)
(0.174673 -0.200451 2.3364e-318 -0.190246 -3.09878e-319 0.0155731)
(0.215351 -0.0580802 1.06366e-318 -0.240438 -6.49029e-319 0.025087)
(0.264849 0.0696888 -4.3047e-319 -0.313629 -1.02627e-318 0.0487801)
(0.273975 0.356432 -2.11392e-318 -0.38254 -1.53242e-318 0.108566)
(0.118603 0.602269 -3.55275e-318 -0.363684 -2.71861e-318 0.245081)
(-0.0948768 -0.105231 2.39992e-317 0.319573 1.133e-317 -0.224696)
(-0.119138 -0.120148 2.01234e-317 0.221368 3.69362e-318 -0.102229)
(-0.123264 -0.134498 1.58547e-317 0.171656 2.02259e-318 -0.0483915)
(-0.0871514 -0.172217 1.25633e-317 0.111472 2.14503e-318 -0.0243211)
(-0.0713683 -0.203138 1.01033e-317 0.0843189 2.32593e-318 -0.0129506)
(-0.0406123 -0.229268 8.42243e-318 0.0479133 2.37084e-318 -0.00730109)
(-0.0289067 -0.250333 7.22988e-318 0.0329271 2.2645e-318 -0.00402044)
(-0.00892249 -0.26461 6.38605e-318 0.0107446 2.05645e-318 -0.00182211)
(-0.00285844 -0.275936 5.75372e-318 0.00285967 1.78387e-318 -1.23324e-06)
(0.0112369 -0.283995 5.25184e-318 -0.0129036 1.4713e-318 0.00166674)
(0.014926 -0.289451 4.8116e-318 -0.018234 1.13379e-318 0.003308)
(0.0317085 -0.293043 4.37957e-318 -0.0366564 7.81039e-319 0.00494795)
(0.0384473 -0.28924 3.90152e-318 -0.0450864 4.20761e-319 0.00663908)
(0.0703 -0.281873 3.3185e-318 -0.0787678 5.98313e-320 0.00846778)
(0.0859093 -0.250172 2.56301e-318 -0.0968705 -2.84488e-319 0.0109612)
(0.148943 -0.211738 1.57739e-318 -0.164195 -5.9446e-319 0.0152521)
(0.17295 -0.106505 2.43609e-319 -0.198215 -8.21547e-319 0.0252657)
(0.26925 0.00677759 -1.31942e-318 -0.319711 -9.37411e-319 0.0504605)
(0.266584 0.253722 -3.34321e-318 -0.38588 -1.0911e-318 0.119296)
(0.248304 0.555646 -5.20012e-318 -0.560854 -2.01894e-318 0.31255)
(-0.0855488 -0.14531 2.04601e-317 0.244618 -4.42215e-318 -0.159069)
(-0.0414046 -0.208294 1.57267e-317 0.109512 -6.53445e-318 -0.0681074)
(-0.056636 -0.230024 1.09948e-317 0.0883504 -4.80724e-318 -0.0317144)
(-0.0253194 -0.258424 8.25655e-318 0.0412834 -2.77505e-318 -0.0159641)
(-0.0163494 -0.282362 6.39687e-318 0.0249385 -1.56766e-318 -0.00858908)
(0.00579898 -0.295826 5.25977e-318 -0.000856124 -7.90935e-319 -0.00494286)
(0.0134487 -0.308655 4.48613e-318 -0.0106695 -3.16671e-319 -0.0027792)
(0.0270623 -0.315422 3.95952e-318 -0.0257604 -8.93765e-321 -0.00130192)
(0.0302012 -0.321704 3.56859e-318 -0.0301626 1.96228e-319 -3.859e-05)
(0.0388702 -0.326991 3.25786e-318 -0.0400133 3.37936e-319 0.0011431)
(0.0397907 -0.330919 2.98086e-318 -0.0421226 4.41458e-319 0.0023319)
(0.0499655 -0.336657 2.7039e-318 -0.0535131 5.22109e-319 0.00354759)
(0.0529409 -0.337031 2.39629e-318 -0.0577763 5.89613e-319 0.00483536)
(0.0743948 -0.340091 2.02614e-318 -0.0806525 6.48417e-319 0.00625761)
(0.0853553 -0.32521 1.57203e-318 -0.0935583 6.97181e-319 0.00820298)
(0.131983 -0.313422 1.01553e-318 -0.143436 7.2555e-319 0.0114526)
(0.158823 -0.24894 3.82036e-319 -0.17775 7.02364e-319 0.0189265)
(0.231006 -0.20054 -2.75486e-319 -0.268904 5.75888e-319 0.0378973)
(0.272952 -0.0274798 -8.0007e-319 -0.365093 1.91895e-319 0.0921405)
(0.154201 0.0605313 -1.34196e-318 -0.401071 -8.21853e-319 0.24687)
(0.00929453 -0.309425 1.85516e-317 0.0359257 2.45416e-317 -0.0452202)
(-0.0261562 -0.279459 1.37613e-317 0.0492045 1.45665e-317 -0.0230483)
(0.00548269 -0.220245 8.37273e-318 0.00559698 1.01776e-317 -0.0110797)
(0.0303675 -0.233555 5.69857e-318 -0.024654 7.53059e-318 -0.00571346)
(0.0418951 -0.218244 4.01607e-318 -0.0387358 6.04792e-318 -0.00315931)
(0.0611009 -0.227436 3.12099e-318 -0.0592112 4.91988e-318 -0.00188977)
(0.0628516 -0.223088 2.55475e-318 -0.0617516 4.03554e-318 -0.00109995)
(0.0715232 -0.226652 2.20073e-318 -0.07098 3.26262e-318 -0.000543168)
(0.0686974 -0.224933 1.95379e-318 -0.0686524 2.57106e-318 -4.50301e-05)
(0.0723032 -0.223431 1.77147e-318 -0.0727359 1.93334e-318 0.000432649)
(0.066795 -0.222636 1.62114e-318 -0.0677178 1.34119e-318 0.000922758)
(0.0703469 -0.215269 1.48016e-318 -0.0717811 7.9012e-319 0.00143428)
(0.0632716 -0.214752 1.32628e-318 -0.065256 2.85056e-319 0.00198442)
(0.0741888 -0.198407 1.13273e-318 -0.0767824 -1.65542e-319 0.00259363)
(0.0670589 -0.19757 8.65643e-319 -0.0704687 -5.38235e-319 0.0034098)
(0.103498 -0.166089 4.94051e-319 -0.108184 -8.06029e-319 0.00468596)
(0.0966856 -0.1655 -5.61012e-320 -0.104219 -9.33423e-319 0.00753375)
(0.199639 -0.110074 -6.81045e-319 -0.21441 -8.64877e-319 0.0147703)
(0.171676 -0.108562 -1.49975e-318 -0.210406 -7.61365e-319 0.0387298)
(0.306285 0.0830898 -2.21796e-318 -0.453085 -8.97806e-319 0.1468)
)
;

boundaryField
{
    cavity
    {
        type            mySigma;
    }
    lid
    {
        type            fixedValue;
        value           uniform (0.1 -0.3 0 -0.1 0 0);
    }
    frontAndBack
    {
        type            empty;
    }
}


// ************************************************************************* //
