/*--------------------------------*- C++ -*----------------------------------*\
| =========                 |                                                 |
| \\      /  F ield         | foam-extend: Open Source CFD                    |
|  \\    /   O peration     | Version:  3.0                                   |
|   \\  /    A nd           | Web:         http://www.extend-project.de       |
|    \\/     M anipulation  |                                                 |
\*---------------------------------------------------------------------------*/
FoamFile
{
    version     2.0;
    format      ascii;
    class       volScalarField;
    location    "3.7";
    object      Theta;
}
// * * * * * * * * * * * * * * * * * * * * * * * * * * * * * * * * * * * * * //

dimensions      [0 0 0 0 0 0 0];

internalField   nonuniform List<scalar> 
400
(
0.104658
0.049842
0.0368681
0.0225831
0.0262772
0.0296719
0.0412026
0.0528095
0.0680593
0.0829926
0.099382
0.114274
0.129425
0.140596
0.151339
0.153223
0.154713
0.137609
0.121116
0.0636097
0.158931
0.111731
0.0971848
0.0802718
0.0786197
0.0753776
0.0787442
0.0810465
0.0860703
0.0900572
0.095157
0.0986904
0.102786
0.10373
0.105229
0.0998412
0.0955186
0.0764077
0.0592422
0.0126644
0.137488
0.0936413
0.0806572
0.0654177
0.0659961
0.0644194
0.0703161
0.0746371
0.0823668
0.0887639
0.0968513
0.103062
0.11048
0.114084
0.119033
0.115845
0.114327
0.0966979
0.08062
0.0367966
0.132544
0.0883592
0.0780341
0.0638931
0.0665131
0.0655305
0.0721561
0.0762711
0.0838273
0.0896175
0.0973761
0.10319
0.110921
0.114868
0.12138
0.119327
0.120534
0.103736
0.0898359
0.0439496
0.110619
0.0606809
0.0538894
0.0413392
0.0483095
0.0501911
0.0606456
0.0677924
0.0789086
0.0879346
0.0994917
0.108945
0.121195
0.129224
0.141274
0.143105
0.150369
0.134412
0.1238
0.0663484
0.0966168
0.041606
0.0389951
0.0282928
0.0391339
0.0430973
0.0559111
0.0644519
0.0770415
0.087188
0.100241
0.111229
0.125965
0.136556
0.15297
0.158274
0.171799
0.157235
0.151006
0.0807418
0.0775578
0.0172598
0.0196304
0.0109414
0.0258983
0.0322295
0.0477806
0.0582858
0.0729928
0.0850423
0.100392
0.113766
0.131861
0.145838
0.16769
0.177186
0.19872
0.185487
0.186166
0.0971628
0.0609662
0.00207111
0.00848073
0.00264845
0.0199804
0.0279493
0.0445007
0.0556687
0.0707223
0.0830869
0.0988505
0.112932
0.132399
0.148318
0.173633
0.186771
0.214622
0.204416
0.211314
0.110779
0.0402352
-0.0119301
-0.001393
-0.00386332
0.0149389
0.0242516
0.0411315
0.0526597
0.0675854
0.0799589
0.0956532
0.110054
0.130293
0.147718
0.175973
0.192548
0.227175
0.220611
0.2372
0.125867
0.0186676
-0.017459
-0.00477155
-0.00256678
0.0155911
0.025863
0.0414869
0.0524704
0.0658407
0.0770122
0.0910133
0.10425
0.123105
0.140429
0.168525
0.187613
0.224608
0.224374
0.246124
0.14134
-0.00780723
-0.0224112
-0.00725206
0.000357923
0.017349
0.0284808
0.0423463
0.0524633
0.0637179
0.0731712
0.0847272
0.0960677
0.112547
0.128919
0.155969
0.177071
0.217246
0.224501
0.258377
0.163573
-0.0352236
-0.0223801
-0.00593425
0.00839399
0.0231413
0.0351904
0.0464336
0.0551888
0.0634371
0.0703271
0.0782375
0.0864376
0.0985404
0.112279
0.13456
0.156288
0.192566
0.210064
0.244675
0.184461
-0.0647143
-0.0231077
-0.00499982
0.0164632
0.0293
0.0424077
0.0510495
0.0582919
0.0632525
0.0671836
0.0709128
0.0753277
0.082336
0.0925955
0.109861
0.131588
0.167117
0.195662
0.246246
0.219936
-0.092395
-0.0224878
-0.00101291
0.0280722
0.0394392
0.0535933
0.0594567
0.0648299
0.0661266
0.0665642
0.0654823
0.0652075
0.0656764
0.0708166
0.0793355
0.0989182
0.123839
0.164498
0.207066
0.243117
-0.113918
-0.0181923
0.00378612
0.0403932
0.0502738
0.0655394
0.0686846
0.0720817
0.0696278
0.0663896
0.0603149
0.0550126
0.0487369
0.0481065
0.0485439
0.0650632
0.0855911
0.137724
0.200671
0.290047
-0.128272
-0.013975
0.0151531
0.0575636
0.0673069
0.0826982
0.0831605
0.0840249
0.0778329
0.0706667
0.0596554
0.0489166
0.0353952
0.0276202
0.0170012
0.0273171
0.0313089
0.0917893
0.131601
0.301031
-0.124858
0.00364226
0.0301158
0.0782351
0.0860579
0.101384
0.0986958
0.0968942
0.0869104
0.0759152
0.0601147
0.0440654
0.023553
0.00835786
-0.0121774
-0.00936058
-0.0139917
0.052021
0.111803
0.343212
-0.0988378
0.0274413
0.060923
0.108453
0.114801
0.127155
0.121145
0.115738
0.102418
0.0876645
0.0680377
0.0469559
0.0204219
-0.0029178
-0.0342412
-0.0430944
-0.0675374
-0.00733204
0.00891373
0.308898
-0.0497617
0.0686475
0.0956143
0.143245
0.145104
0.154272
0.144062
0.135049
0.118336
0.100229
0.0770855
0.0515676
0.0194503
-0.0117002
-0.0529861
-0.0745097
-0.112911
-0.0623202
-0.0438022
0.301678
0.0646655
0.141459
0.161649
0.195552
0.190019
0.189955
0.175556
0.161278
0.142776
0.121551
0.0975795
0.0684938
0.0345666
-0.0045564
-0.0516376
-0.0923537
-0.145843
-0.133829
-0.163757
0.151517
)
;

boundaryField
{
    cavity
    {
        type            implicitExtrapolation;
    }
    lid
    {
        type            implicitExtrapolation;
    }
    frontAndBack
    {
        type            empty;
    }
}


// ************************************************************************* //
