/*--------------------------------*- C++ -*----------------------------------*\
| =========                 |                                                 |
| \\      /  F ield         | foam-extend: Open Source CFD                    |
|  \\    /   O peration     | Version:  3.0                                   |
|   \\  /    A nd           | Web:         http://www.extend-project.de       |
|    \\/     M anipulation  |                                                 |
\*---------------------------------------------------------------------------*/
FoamFile
{
    version     2.0;
    format      ascii;
    class       volVectorField;
    location    "3.7";
    object      u;
}
// * * * * * * * * * * * * * * * * * * * * * * * * * * * * * * * * * * * * * //

dimensions      [0 0 0 0 0 0 0];

internalField   nonuniform List<vector> 
400
(
(-0.0943528 0.276047 8.81282e-316)
(-0.282997 0.268026 7.94486e-316)
(-0.427079 0.279684 6.77739e-316)
(-0.604152 0.285468 6.30789e-316)
(-0.727256 0.261812 5.09322e-316)
(-0.864236 0.24745 4.91515e-316)
(-0.959916 0.211893 3.74888e-316)
(-1.04883 0.172421 3.74479e-316)
(-1.10224 0.130997 2.66611e-316)
(-1.13996 0.0759793 2.77526e-316)
(-1.14109 0.0302296 1.7833e-316)
(-1.12293 -0.0282774 1.97396e-316)
(-1.07017 -0.0757757 1.05644e-316)
(-0.990283 -0.123187 1.29811e-316)
(-0.892371 -0.167105 4.54632e-317)
(-0.747937 -0.187209 6.87702e-317)
(-0.623571 -0.21435 -3.61241e-318)
(-0.426137 -0.20584 6.11106e-318)
(-0.289949 -0.186064 -4.40386e-317)
(-0.0837338 -0.186238 -6.87878e-317)
(-0.0457993 0.325395 3.75096e-316)
(-0.197495 0.271367 4.06224e-316)
(-0.307668 0.242875 3.85904e-316)
(-0.423699 0.207423 3.88197e-316)
(-0.518027 0.164405 3.47991e-316)
(-0.600225 0.135826 3.39064e-316)
(-0.665432 0.090917 2.89797e-316)
(-0.715488 0.0616693 2.77036e-316)
(-0.747612 0.0173042 2.25331e-316)
(-0.766927 -0.0134304 2.12782e-316)
(-0.764632 -0.0612305 1.62341e-316)
(-0.752451 -0.0912033 1.52032e-316)
(-0.716321 -0.146715 1.04464e-316)
(-0.668944 -0.172862 9.64517e-317)
(-0.602097 -0.23617 5.21769e-317)
(-0.514728 -0.2574 4.32961e-317)
(-0.424423 -0.317392 2.18349e-318)
(-0.294966 -0.340407 -1.76384e-317)
(-0.199132 -0.371568 -5.80788e-317)
(-0.0318635 -0.412108 -1.13662e-316)
(-0.0183952 0.618299 3.69989e-316)
(-0.209847 0.642589 3.77872e-316)
(-0.308475 0.600568 3.52861e-316)
(-0.449395 0.584548 3.3868e-316)
(-0.557264 0.509464 2.98892e-316)
(-0.651891 0.453515 2.81767e-316)
(-0.735025 0.36919 2.37789e-316)
(-0.795079 0.282977 2.21927e-316)
(-0.8387 0.195192 1.78382e-316)
(-0.869377 0.0920738 1.64443e-316)
(-0.867784 -0.00107784 1.2248e-316)
(-0.866773 -0.106421 1.1003e-316)
(-0.818879 -0.207114 6.91708e-317)
(-0.776516 -0.296687 5.65722e-317)
(-0.687778 -0.401424 1.57175e-317)
(-0.588319 -0.453335 -6.54261e-319)
(-0.479368 -0.544603 -4.17891e-317)
(-0.306441 -0.541468 -6.75201e-317)
(-0.226696 -0.578757 -1.06737e-316)
(0.0113415 -0.526462 -1.41314e-316)
(-0.0445006 0.646513 4.14472e-317)
(-0.180469 0.690523 1.24228e-316)
(-0.288871 0.590701 1.56173e-316)
(-0.362424 0.572733 1.84152e-316)
(-0.456092 0.462011 1.8581e-316)
(-0.489961 0.398984 1.87126e-316)
(-0.553016 0.302279 1.7257e-316)
(-0.570163 0.215579 1.61943e-316)
(-0.600597 0.1265 1.40113e-316)
(-0.613011 0.0293027 1.25113e-316)
(-0.611544 -0.0666804 1.01187e-316)
(-0.621204 -0.164725 8.57241e-317)
(-0.586704 -0.282236 6.26437e-317)
(-0.585201 -0.367773 4.91094e-317)
(-0.516094 -0.515203 2.9252e-317)
(-0.482324 -0.564135 2.02797e-317)
(-0.385572 -0.73039 7.01839e-318)
(-0.28592 -0.706642 7.68763e-318)
(-0.195502 -0.829059 6.93464e-318)
(-0.00976312 -0.713368 2.8925e-317)
(-0.0954507 0.902094 2.06072e-316)
(-0.205464 0.958153 2.13664e-316)
(-0.375967 0.830557 2.08195e-316)
(-0.42859 0.797477 1.99354e-316)
(-0.560838 0.667556 1.84533e-316)
(-0.587754 0.572346 1.71373e-316)
(-0.674554 0.46518 1.52106e-316)
(-0.698559 0.337268 1.37239e-316)
(-0.740908 0.243414 1.16113e-316)
(-0.771408 0.0999531 1.00268e-316)
(-0.770125 0.00328449 7.81519e-317)
(-0.805878 -0.143788 6.12972e-317)
(-0.75763 -0.26019 3.78647e-317)
(-0.785756 -0.393699 1.87433e-317)
(-0.685006 -0.544013 -7.53726e-318)
(-0.676692 -0.630299 -3.23319e-317)
(-0.526309 -0.813755 -6.41086e-317)
(-0.435019 -0.797626 -1.0071e-316)
(-0.267316 -0.953336 -1.41589e-316)
(-0.0584081 -0.797667 -1.9611e-316)
(-0.16463 1.02698 -1.20444e-317)
(-0.177291 1.05071 5.01616e-317)
(-0.39772 0.877158 8.11679e-317)
(-0.359284 0.812127 1.06134e-316)
(-0.497697 0.667358 1.14246e-316)
(-0.455583 0.546577 1.17352e-316)
(-0.534377 0.445104 1.11729e-316)
(-0.512388 0.301376 1.03954e-316)
(-0.548634 0.219723 9.14382e-317)
(-0.557083 0.0663269 7.90269e-317)
(-0.558297 -0.0237955 6.38324e-317)
(-0.600198 -0.182381 5.01642e-317)
(-0.561769 -0.310635 3.49101e-317)
(-0.632006 -0.46364 2.24258e-317)
(-0.537751 -0.658898 9.57538e-318)
(-0.61558 -0.770805 1.72387e-318)
(-0.445426 -1.04445 -5.19378e-318)
(-0.48207 -1.03998 -2.11987e-318)
(-0.231581 -1.31271 2.1166e-318)
(-0.155285 -1.12419 2.42247e-317)
(-0.265199 1.30394 1.92315e-316)
(-0.176286 1.23285 1.73138e-316)
(-0.496235 1.04203 1.60473e-316)
(-0.393936 0.911038 1.44967e-316)
(-0.576309 0.775771 1.32679e-316)
(-0.510587 0.609331 1.19793e-316)
(-0.608001 0.526613 1.06704e-316)
(-0.589964 0.348515 9.39302e-317)
(-0.633391 0.291935 7.97748e-317)
(-0.665474 0.10769 6.61404e-317)
(-0.666844 0.0514589 5.083e-317)
(-0.749544 -0.142053 3.58615e-317)
(-0.701442 -0.225574 1.88403e-317)
(-0.82988 -0.425459 1.20671e-318)
(-0.704479 -0.570095 -1.93395e-317)
(-0.857317 -0.747015 -4.33944e-317)
(-0.609777 -0.985838 -7.12688e-317)
(-0.73077 -1.06366 -1.09595e-316)
(-0.315399 -1.36045 -1.51128e-316)
(-0.303425 -1.26745 -2.14105e-316)
(-0.334032 1.52883 9.9336e-318)
(-0.108238 1.31431 4.91071e-317)
(-0.479906 1.1247 6.86852e-317)
(-0.284282 0.90235 8.45723e-317)
(-0.470512 0.798923 8.8881e-317)
(-0.344582 0.580947 8.91006e-317)
(-0.432007 0.533964 8.38777e-317)
(-0.371511 0.328749 7.62723e-317)
(-0.408314 0.304621 6.61659e-317)
(-0.410547 0.103508 5.51984e-317)
(-0.415361 0.0715748 4.30818e-317)
(-0.485104 -0.143369 3.10698e-317)
(-0.449515 -0.219054 1.87274e-317)
(-0.597093 -0.460639 7.43901e-318)
(-0.481084 -0.627956 -3.25603e-318)
(-0.714973 -0.879942 -1.08707e-317)
(-0.439782 -1.19041 -1.69497e-317)
(-0.743932 -1.37702 -1.50711e-317)
(-0.19507 -1.80199 -1.221e-317)
(-0.465728 -1.82564 4.95769e-318)
(-0.394455 1.77734 2.038e-316)
(-0.06372 1.38598 1.66675e-316)
(-0.497452 1.22752 1.45972e-316)
(-0.253051 0.895309 1.24594e-316)
(-0.459475 0.836045 1.10455e-316)
(-0.325671 0.562702 9.66025e-317)
(-0.4155 0.551935 8.45154e-317)
(-0.369133 0.319785 7.26212e-317)
(-0.40477 0.332187 6.06849e-317)
(-0.43626 0.114393 4.87091e-317)
(-0.441822 0.131546 3.62078e-317)
(-0.557273 -0.104866 2.33894e-317)
(-0.521978 -0.105546 9.65841e-318)
(-0.737265 -0.39238 -5.32273e-318)
(-0.606307 -0.447787 -2.21082e-317)
(-0.935502 -0.797453 -4.31329e-317)
(-0.592134 -0.967587 -6.72466e-317)
(-1.01564 -1.3404 -1.03746e-316)
(-0.277309 -1.68059 -1.43394e-316)
(-0.650107 -1.99184 -2.10914e-316)
(-0.360832 1.99439 3.45029e-317)
(0.0228172 1.41493 6.20788e-317)
(-0.373158 1.31393 7.32772e-317)
(-0.100587 0.858077 8.23849e-317)
(-0.272117 0.86837 8.20365e-317)
(-0.11405 0.531247 7.88496e-317)
(-0.177276 0.574349 7.19595e-317)
(-0.100248 0.31451 6.34671e-317)
(-0.122682 0.3707 5.36384e-317)
(-0.114233 0.139901 4.32401e-317)
(-0.122614 0.194616 3.24112e-317)
(-0.191196 -0.0612039 2.16079e-317)
(-0.175943 -0.0337676 1.09068e-317)
(-0.350475 -0.372896 9.08651e-319)
(-0.252271 -0.422177 -8.2201e-318)
(-0.58566 -0.891985 -1.48489e-317)
(-0.26309 -1.10356 -1.961e-317)
(-0.819044 -1.69473 -1.70222e-317)
(-0.0263053 -2.16802 -1.28833e-317)
(-0.741588 -2.7619 4.42865e-318)
(-0.310095 2.10382 2.0805e-316)
(0.0802117 1.39308 1.64144e-316)
(-0.269327 1.34336 1.40034e-316)
(-0.0200098 0.792138 1.16376e-316)
(-0.159755 0.845893 1.00851e-316)
(-0.0313344 0.467371 8.62806e-317)
(-0.0707634 0.537252 7.40375e-317)
(-0.0228487 0.266241 6.2321e-317)
(-0.032806 0.346955 5.10908e-317)
(-0.055453 0.116598 4.00351e-317)
(-0.0654258 0.209486 2.89916e-317)
(-0.174155 -0.0490787 1.78753e-317)
(-0.174952 0.0522262 6.46885e-318)
(-0.408263 -0.315254 -5.74782e-318)
(-0.332512 -0.220843 -1.88994e-317)
(-0.749766 -0.789313 -3.55626e-317)
(-0.423106 -0.753066 -5.41315e-317)
(-1.06959 -1.58193 -8.46589e-317)
(-0.172577 -1.77993 -1.16785e-316)
(-0.889438 -2.75255 -1.78525e-316)
(-0.140272 2.20106 4.66041e-317)
(0.121675 1.37033 7.44327e-317)
(-0.0495918 1.39871 8.14486e-317)
(0.136037 0.75014 8.67627e-317)
(0.0874561 0.871889 8.25128e-317)
(0.202367 0.443682 7.62745e-317)
(0.209489 0.561207 6.73968e-317)
(0.276564 0.275742 5.77183e-317)
(0.286839 0.397148 4.75543e-317)
(0.312683 0.167966 3.73187e-317)
(0.302263 0.302077 2.71806e-317)
(0.276199 0.0394203 1.73471e-317)
(0.249803 0.181779 7.97794e-318)
(0.1381 -0.226226 -5.48976e-319)
(0.14928 -0.105051 -7.77191e-318)
(-0.123541 -0.803941 -1.22707e-317)
(0.0827673 -0.800402 -1.39012e-317)
(-0.48822 -1.91312 -6.78305e-318)
(0.22197 -2.31141 4.12772e-318)
(-0.7131 -3.70657 3.50182e-317)
(0.0103279 2.12262 1.96554e-316)
(0.177381 1.30962 1.59679e-316)
(0.148766 1.32897 1.36261e-316)
(0.238291 0.668619 1.13185e-316)
(0.271613 0.786957 9.68655e-317)
(0.326107 0.359494 8.17665e-317)
(0.381474 0.473738 6.90034e-317)
(0.411219 0.200612 5.71123e-317)
(0.443834 0.319806 4.60611e-317)
(0.442198 0.108598 3.55187e-317)
(0.430041 0.248904 2.5399e-317)
(0.374903 0.00514026 1.55883e-317)
(0.31758 0.181876 6.02922e-318)
(0.161496 -0.218514 -3.66447e-318)
(0.103679 0.0132538 -1.33419e-317)
(-0.24089 -0.726812 -2.51304e-317)
(-0.131347 -0.442346 -3.71527e-317)
(-0.773764 -1.71176 -5.82786e-317)
(-0.0939207 -1.61574 -7.84878e-317)
(-0.904622 -3.21103 -1.20467e-316)
(0.20728 2.04518 5.30365e-317)
(0.133821 1.25021 9.38341e-317)
(0.375635 1.34046 9.62851e-317)
(0.375174 0.641409 9.72312e-317)
(0.532036 0.792295 8.80398e-317)
(0.564545 0.347269 7.80384e-317)
(0.671856 0.485786 6.66821e-317)
(0.715406 0.220457 5.54937e-317)
(0.768591 0.368109 4.4641e-317)
(0.816687 0.177299 3.42743e-317)
(0.807944 0.355487 2.44604e-317)
(0.855297 0.131625 1.5268e-317)
(0.778327 0.356765 6.87359e-318)
(0.810258 -0.049019 -4.2332e-319)
(0.676115 0.227563 -5.996e-318)
(0.647839 -0.60619 -8.28593e-318)
(0.542372 -0.352783 -6.6748e-318)
(0.323807 -1.92778 6.44115e-318)
(0.473232 -2.16884 2.53727e-317)
(-0.189387 -4.46948 7.83378e-317)
(0.478665 1.86194 1.77749e-316)
(0.224827 1.1749 1.55817e-316)
(0.625456 1.14378 1.33105e-316)
(0.486423 0.544161 1.10309e-316)
(0.738335 0.640938 9.31903e-317)
(0.702585 0.250226 7.76128e-317)
(0.865739 0.359195 6.46065e-317)
(0.873951 0.128465 5.27902e-317)
(0.952225 0.247709 4.21157e-317)
(0.97864 0.0859382 3.21871e-317)
(0.96981 0.230933 2.29679e-317)
(0.996932 0.0414 1.43303e-317)
(0.885821 0.234366 6.31241e-318)
(0.879824 -0.121992 -1.27742e-318)
(0.649264 0.158908 -8.19909e-318)
(0.529562 -0.607734 -1.59284e-317)
(0.246585 -0.182026 -2.29245e-317)
(-0.150282 -1.66136 -3.58103e-317)
(-0.0803047 -1.25259 -4.72558e-317)
(-0.790653 -3.06109 -7.079e-317)
(0.424797 1.53608 1.29243e-316)
(0.147241 1.136 1.57699e-316)
(0.797267 1.13903 1.38876e-316)
(0.675689 0.549799 1.23273e-316)
(1.0414 0.626155 1.03602e-316)
(1.00687 0.247429 8.64439e-317)
(1.20624 0.35491 7.08964e-317)
(1.22517 0.152922 5.70601e-317)
(1.31494 0.28796 4.46468e-317)
(1.38404 0.162359 3.3334e-317)
(1.38279 0.340113 2.30168e-317)
(1.51244 0.192735 1.35828e-317)
(1.40288 0.441258 5.15631e-318)
(1.61482 0.124625 -2.0024e-318)
(1.33783 0.482867 -7.2026e-318)
(1.66887 -0.30937 -8.72337e-318)
(1.13463 0.148726 -5.92224e-318)
(1.6044 -1.67207 1.04516e-317)
(0.71759 -1.65954 3.29592e-317)
(1.03094 -5.00352 9.83103e-317)
(1.0538 1.46112 1.58914e-316)
(0.253506 0.919373 1.27033e-316)
(0.984407 0.786278 1.07077e-316)
(0.681848 0.375942 8.62269e-317)
(1.07457 0.414737 7.29784e-317)
(0.98791 0.136088 6.0718e-317)
(1.21353 0.211017 5.08837e-317)
(1.20646 0.0564053 4.18975e-317)
(1.31054 0.14516 3.37995e-317)
(1.354 0.0481957 2.62935e-317)
(1.35573 0.157095 1.93871e-317)
(1.4471 0.0445505 1.30602e-317)
(1.32132 0.188503 7.41025e-318)
(1.4551 -0.0518459 2.35624e-318)
(1.11698 0.156756 -1.94428e-318)
(1.25371 -0.439079 -6.58972e-318)
(0.613106 -0.101965 -1.1123e-317)
(0.550932 -1.36819 -2.11742e-317)
(-0.0662586 -0.877428 -3.29331e-317)
(-0.90217 -1.99767 -6.01282e-317)
(0.269716 0.707481 4.54711e-316)
(0.441666 1.16141 3.40263e-316)
(1.3887 0.844349 2.5611e-316)
(1.3336 0.476978 1.9405e-316)
(1.88877 0.416771 1.51196e-316)
(1.81267 0.149197 1.18516e-316)
(2.0774 0.206511 9.3374e-317)
(2.06783 0.0850507 7.25286e-317)
(2.17699 0.187757 5.48172e-317)
(2.26776 0.130297 3.91223e-317)
(2.28108 0.276433 2.50098e-317)
(2.50742 0.213797 1.21066e-317)
(2.40791 0.432424 4.3711e-319)
(2.83256 0.25617 -9.77816e-318)
(2.48599 0.606689 -1.77717e-317)
(3.23919 0.017132 -2.1614e-317)
(2.25875 0.594677 -2.01679e-317)
(3.6373 -1.21181 -3.60556e-318)
(1.11656 -0.689351 2.05674e-317)
(3.44652 -5.43998 8.63581e-317)
(1.73526 0.993406 -6.58254e-317)
(0.281621 0.263588 -7.10584e-317)
(0.8204 0.254916 -4.33481e-317)
(0.518595 0.0786947 -2.84796e-317)
(0.726462 0.125466 -1.55293e-317)
(0.669418 0.0201916 -7.79176e-318)
(0.808267 0.0563393 -2.17658e-318)
(0.799637 -0.00266843 1.5059e-318)
(0.871975 0.0294801 4.13981e-318)
(0.88444 -0.00622196 6.06181e-318)
(0.895361 0.026955 7.65507e-318)
(0.927569 -0.0131712 9.19955e-318)
(0.857232 0.0204964 1.08503e-317)
(0.90838 -0.0669258 1.2611e-317)
(0.690779 -0.0415866 1.42359e-317)
(0.744927 -0.259353 1.43913e-317)
(0.322639 -0.276112 1.18782e-317)
(0.157898 -0.661635 -6.20265e-319)
(0.0230893 -0.73176 -2.10112e-317)
(-2.09904 0.521636 -7.61422e-317)
(-0.44225 -0.409416 1.2715e-315)
(1.42963 1.61583 7.69144e-316)
(3.07553 0.672211 5.43925e-316)
(3.14508 0.50009 3.88747e-316)
(4.14911 0.310186 2.98571e-316)
(3.94481 0.090886 2.31793e-316)
(4.34641 0.121611 1.81931e-316)
(4.26811 0.0423526 1.40624e-316)
(4.41693 0.13136 1.05271e-316)
(4.56854 0.111674 7.37254e-317)
(4.6203 0.242913 4.49961e-317)
(5.08445 0.229746 1.83896e-317)
(5.04465 0.430426 -6.15974e-318)
(5.95496 0.344612 -2.8366e-317)
(5.6023 0.678722 -4.69288e-317)
(7.19815 0.227068 -5.92813e-317)
(5.60612 0.896852 -6.23848e-317)
(8.44893 -0.991623 -4.51714e-317)
(2.58958 0.592172 -1.49598e-317)
(8.3134 -6.25788 5.83055e-317)
)
;

boundaryField
{
    cavity
    {
        type            myImplicitVelocity;
    }
    lid
    {
        type            fixedValue;
        value           uniform (1 0 0);
    }
    frontAndBack
    {
        type            empty;
    }
}


// ************************************************************************* //
