/*--------------------------------*- C++ -*----------------------------------*\
| =========                 |                                                 |
| \\      /  F ield         | foam-extend: Open Source CFD                    |
|  \\    /   O peration     | Version:  3.0                                   |
|   \\  /    A nd           | Web:         http://www.extend-project.de       |
|    \\/     M anipulation  |                                                 |
\*---------------------------------------------------------------------------*/
FoamFile
{
    version     2.0;
    format      ascii;
    class       volScalarField;
    location    "24";
    object      p;
}
// * * * * * * * * * * * * * * * * * * * * * * * * * * * * * * * * * * * * * //

dimensions      [0 0 0 0 0 0 0];

internalField   nonuniform List<scalar> 
672
(
-0.2351104378
-0.1997634925
-0.189051251
-0.1703133654
-0.1682188331
-0.1574098524
-0.1588386933
-0.1522863192
-0.1542767857
-0.1496430398
-0.1495833236
-0.1446400791
-0.2320404744
-0.1971465528
-0.1865687212
-0.1680687005
-0.1659963263
-0.155323251
-0.156728507
-0.1502576461
-0.1522175091
-0.1476389734
-0.147576804
-0.1426830904
-0.2261144257
-0.192099262
-0.1817839567
-0.1637468676
-0.1617221182
-0.1513125757
-0.1526777272
-0.1463629663
-0.1482677255
-0.1437981817
-0.1437287756
-0.138959657
-0.217285834
-0.1845895025
-0.1746710082
-0.1573315983
-0.1553809931
-0.1453730455
-0.1466804909
-0.1406087218
-0.142435164
-0.1381352694
-0.1380658681
-0.1334676772
-0.2057843588
-0.1748056376
-0.1654045237
-0.1489731651
-0.1471204815
-0.1376334008
-0.1388670898
-0.1331082791
-0.1348316869
-0.1307518398
-0.130674487
-0.1263133506
-0.1916369863
-0.1627778168
-0.1540166765
-0.1387079894
-0.1369779299
-0.1281376303
-0.1292824174
-0.1239150642
-0.1255156939
-0.1217107737
-0.121633904
-0.1175581335
-0.1751373857
-0.1487485548
-0.1407332747
-0.126732093
-0.1251451647
-0.1170567726
-0.1180983261
-0.1131845177
-0.1146416997
-0.1111555908
-0.1110761904
-0.1073395536
-0.1563789748
-0.132804213
-0.1256401988
-0.1131301756
-0.1117081724
-0.1044789318
-0.105404478
-0.1010102128
-0.1023046553
-0.0991836802
-0.09910018246
-0.09574616899
-0.135709267
-0.115233457
-0.1090059799
-0.09813712891
-0.0968958187
-0.09061160903
-0.09140907909
-0.08758599794
-0.08870317407
-0.08598375735
-0.08590265939
-0.08297303232
-0.1132785433
-0.09617041267
-0.0909628713
-0.08187885125
-0.08083641006
-0.07558080986
-0.07624130553
-0.07304042599
-0.07396566244
-0.07168492949
-0.07160332716
-0.06914186258
-0.08947597505
-0.07593968926
-0.07181211454
-0.06462034472
-0.06378653742
-0.05962157726
-0.06013434094
-0.05759411618
-0.05831430258
-0.0564993852
-0.05641974131
-0.05444623274
-0.06449574694
-0.05471214397
-0.05172200095
-0.04651927841
-0.04590805711
-0.04288974603
-0.04325117391
-0.04140506779
-0.04191415264
-0.04059025557
-0.04051585038
-0.03907422421
-0.0387548836
-0.03283653846
-0.03101549529
-0.02786083507
-0.02747562295
-0.02563843711
-0.02584017254
-0.02471039325
-0.02499851318
-0.02418072743
-0.02411148179
-0.02320069638
-0.01247588939
-0.01050735622
-0.009884159762
-0.008823068417
-0.008672684525
-0.00804252162
-0.008085362395
-0.007686329365
-0.007752543687
-0.007452527259
-0.007388651039
-0.007042109308
0.01391124695
0.01191530528
0.01133893883
0.01029921183
0.01021744076
0.009635648888
0.009755896398
0.009419558107
0.00957740249
0.009357252279
0.009409619461
0.009206010427
0.04017292221
0.03422776352
0.03245321317
0.02932017731
0.02900326686
0.02721443861
0.02749337189
0.02642615998
0.02680563533
0.02606681042
0.02611336882
0.02534202941
0.06588165184
0.05607193247
0.05312750439
0.04794648675
0.04740286318
0.04443227479
0.04486966613
0.04308510536
0.04368145281
0.04243423511
0.04246604069
0.04115224637
0.0908104851
0.07724981646
0.07316691464
0.0659974345
0.06523014098
0.06111238873
0.06170004356
0.05922007012
0.06002529247
0.05828363461
0.05830564124
0.05644894108
0.1145499328
0.09741869212
0.09225422602
0.0831924217
0.0822151429
0.07700513703
0.07773904296
0.07459548036
0.07560149266
0.07338788994
0.07339749711
0.07103432894
0.1368969309
0.1164007361
0.1102144957
0.09936840395
0.0981900212
0.091949791
0.09281773753
0.08904845982
0.09023919756
0.08757938648
0.08757288801
0.08471795288
0.1574748301
0.1338813564
0.1267560367
0.1142682389
0.1129067716
0.1057186683
0.1067126133
0.1023670881
0.10373117
0.1006602025
0.1006423087
0.09734154386
0.1761202
0.149716165
0.1417368508
0.1277581278
0.1262280638
0.1181783528
0.1192837228
0.1144140949
0.115932044
0.1124870766
0.1124552313
0.1087460258
0.1925028295
0.1636303411
0.1549014862
0.1396140337
0.1379365691
0.1291310688
0.1303348398
0.1250059434
0.1266587647
0.1228857572
0.1228400332
0.1187674526
0.2065122234
0.1755241984
0.1661517436
0.1497411671
0.1479357553
0.1384802697
0.139766914
0.1340418194
0.1358098154
0.1317542128
0.1316979359
0.1273221382
0.2178764076
0.1851726993
0.1752778933
0.1579571385
0.1560474357
0.1460659604
0.1474190409
0.1413741184
0.1432342025
0.138949305
0.1388829878
0.1342485791
0.2265479109
0.1925295096
0.1822335364
0.1642134336
0.1622224541
0.1518347356
0.1532371358
0.1469430106
0.1488713029
0.1444081004
0.1443288335
0.1395065523
0.2323223606
0.1974272336
0.1868624235
0.1683763042
0.1663294708
0.1556717893
0.1571056833
0.150646826
0.1526210039
0.1480382781
0.1479557083
0.142995041
0.2352218247
0.1998785599
0.1891749003
0.1704481143
0.1683704942
0.1575706961
0.1590178364
0.1524695218
0.1544625536
0.1498154445
0.1497218938
0.1447005792
0.2351158089
0.1997789213
0.1890735947
0.1703483862
0.1682661544
0.1574660049
0.1589076293
0.1523582301
0.1543468011
0.1496969759
0.1496029011
0.1445705814
0.2320987309
0.1972025553
0.1866274439
0.1681323058
0.1660711396
0.1554004839
0.1568186912
0.1503449462
0.1523032679
0.1477071001
0.1476082663
0.1426461311
0.2261166673
0.1921098533
0.1818005625
0.1637746522
0.1617605402
0.1513592342
0.1527351581
0.1464241475
0.148327121
0.1438456743
0.1437470165
0.1389024987
0.2173354791
0.1846359671
0.1747192545
0.1573825854
0.1554402068
0.1454335726
0.1467504432
0.1406765547
0.1425014449
0.138189112
0.138091975
0.1334435066
0.2057766486
0.1748051051
0.1654086494
0.1489855134
0.147139953
0.1376588951
0.1388996901
0.133143892
0.134867036
0.1307803809
0.1306869278
0.1262804811
0.1916730901
0.1628097128
0.1540483918
0.1387390477
0.1370122313
0.1281710378
0.1293197329
0.123950105
0.1255492997
0.121737458
0.1216462381
0.117546019
0.1751164934
0.1487333018
0.1407208498
0.1267237771
0.1251391331
0.1170534255
0.1180968535
0.1131842948
0.1146418532
0.1111542771
0.1110720879
0.1073266624
0.1563994167
0.1328193501
0.1256526721
0.113138115
0.111713385
0.1044807672
0.1054039422
0.1010074072
0.1023018875
0.0991808712
0.09910244861
0.0957570373
0.1356745994
0.115202877
0.1089763157
0.09810730194
0.09686308755
0.09057833742
0.09137185199
0.08754911816
0.08866671374
0.08595329334
0.08588295404
0.0829838921
0.113284323
0.09616990109
0.09095731421
0.08186523066
0.08081428344
0.07555331076
0.07620506749
0.0730029168
0.07392853945
0.0716561223
0.07159641606
0.06917510519
0.08942970697
0.07589624177
0.07176801335
0.06457255871
0.06373156753
0.05956360952
0.06006785976
0.05752778956
0.05824979864
0.05644806293
0.05639416694
0.05448689065
0.06449075402
0.05470014875
0.05170324085
0.04648988805
0.04586593157
0.0428408039
0.04318871093
0.04134205486
0.0418510312
0.04054138315
0.04049883582
0.03911853334
0.03870150368
0.03278521407
0.03096261628
0.02780213629
0.02740725961
0.02556559276
0.02575628356
0.02462642368
0.02491745872
0.02411665063
0.02408186631
0.02325759574
0.0124661084
0.0104902552
0.009859598296
0.008786766037
0.008621929391
0.007984362589
0.00801195222
0.00761266577
0.007679406725
0.007396080821
0.007369882064
0.007094484812
-0.01396585507
-0.01196798922
-0.01139326592
-0.01035967839
-0.01028788755
-0.009710679121
-0.009842323879
-0.009505817627
-0.009660817118
-0.00942268284
-0.009440161229
-0.009147409135
-0.04018061718
-0.03424264414
-0.03247513677
-0.02935324564
-0.02904981589
-0.02726777746
-0.02756075592
-0.02649325737
-0.02687152876
-0.02611632953
-0.02612603579
-0.02528716556
-0.06593136452
-0.0561192131
-0.05317573881
-0.04799929429
-0.04746383517
-0.04449638719
-0.04494334364
-0.04315750823
-0.0437518436
-0.04248802078
-0.04249132101
-0.0411027169
-0.09080967727
-0.07725563611
-0.07317837876
-0.0660179279
-0.06526079303
-0.06114832907
-0.06174652371
-0.05926589616
-0.06007036005
-0.05831542484
-0.05830984139
-0.05640228913
-0.1145895828
-0.09745488148
-0.09229006616
-0.08322978983
-0.08225705954
-0.07704780585
-0.07778729656
-0.07464149739
-0.07564576608
-0.07342017824
-0.07341070865
-0.07099982132
-0.1368828777
-0.1163924425
-0.1102097594
-0.09936959231
-0.09819633167
-0.09195971047
-0.09283295884
-0.08906397981
-0.09025545234
-0.08758965834
-0.08757262098
-0.08469566074
-0.1575012185
-0.1339029265
-0.1267756173
-0.1142855107
-0.1129239092
-0.1057340971
-0.1067284095
-0.1023810626
-0.1037440043
-0.1006698834
-0.1006469501
-0.09733633256
-0.1760907371
-0.1496914222
-0.1417132995
-0.1277369865
-0.1262061894
-0.118158519
-0.1192627158
-0.114395511
-0.1159145553
-0.112473908
-0.112448691
-0.1087505589
-0.1925153666
-0.1636365696
-0.154904107
-0.1396103429
-0.1379280137
-0.1291183978
-0.1303175248
-0.1249875038
-0.1266412373
-0.1228746257
-0.1228419559
-0.1188011413
-0.2064682018
-0.1754837986
-0.1661103899
-0.1496988034
-0.1478872222
-0.1384321062
-0.1397114641
-0.1339902367
-0.1357592179
-0.1317165424
-0.131681313
-0.1273459208
-0.2178772425
-0.1851657917
-0.1752661323
-0.1579355108
-0.156016977
-0.1460290382
-0.1473731146
-0.1413268918
-0.1431888605
-0.1389169903
-0.1388765591
-0.1343064839
-0.2264930388
-0.1924772265
-0.1821788558
-0.1641549962
-0.162153917
-0.1517650186
-0.1531558366
-0.146865945
-0.1487961293
-0.144351286
-0.1443063626
-0.1395479157
-0.2323160023
-0.1974119996
-0.1868416342
-0.1683433549
-0.1662851258
-0.1556192427
-0.1570411
-0.1505802602
-0.1525561454
-0.1479900083
-0.1479400216
-0.1430638579
-0.235161891
-0.1998205305
-0.189113882
-0.1703820474
-0.1682924367
-0.1574905713
-0.1589239162
-0.1523795877
-0.1543745608
-0.1497476982
-0.1496941984
-0.1447471035
)
;

boundaryField
{
    out
    {
        type            implicitExtrapolation;
    }
    in
    {
        type            implicitExtrapolation;
    }
    frontAndBack
    {
        type            empty;
    }
}


// ************************************************************************* //
