/*--------------------------------*- C++ -*----------------------------------*\
| =========                 |                                                 |
| \\      /  F ield         | foam-extend: Open Source CFD                    |
|  \\    /   O peration     | Version:  3.0                                   |
|   \\  /    A nd           | Web:         http://www.extend-project.de       |
|    \\/     M anipulation  |                                                 |
\*---------------------------------------------------------------------------*/
FoamFile
{
    version     2.0;
    format      ascii;
    class       volScalarField;
    location    "11";
    object      p;
}
// * * * * * * * * * * * * * * * * * * * * * * * * * * * * * * * * * * * * * //

dimensions      [0 0 0 0 0 0 0];

internalField   nonuniform List<scalar> 
2688
(
-0.2415745144
-0.2220742817
-0.2106893818
-0.1973744456
-0.1904973156
-0.1810898836
-0.177136208
-0.1703516015
-0.1683846584
-0.1634310216
-0.1628277991
-0.159183753
-0.1594776868
-0.1567765388
-0.1575774724
-0.1555369803
-0.1564892447
-0.1548634656
-0.1556235652
-0.154167477
-0.1543869721
-0.152829958
-0.1521356671
-0.1501689128
-0.240817936
-0.2213789768
-0.2100287597
-0.1967552329
-0.1899004352
-0.1805220376
-0.1765821571
-0.169818233
-0.1678587223
-0.1629199113
-0.1623197403
-0.1586863076
-0.1589803293
-0.1562867425
-0.1570860775
-0.1550510901
-0.1560012356
-0.1543796842
-0.1551380821
-0.1536856324
-0.1539048895
-0.1523522243
-0.1516603133
-0.1496995071
-0.2392980237
-0.2199816418
-0.2087035172
-0.1955139111
-0.1887020502
-0.1793828948
-0.1754672341
-0.168745949
-0.1667980772
-0.1618904457
-0.1612934959
-0.1576830142
-0.1579748792
-0.1552982847
-0.1560925693
-0.1540704321
-0.1550147573
-0.1534034301
-0.1541571524
-0.1527138943
-0.1529319294
-0.1513893632
-0.1507018408
-0.1487534995
-0.2370291656
-0.2178960269
-0.2067250132
-0.1936603385
-0.1869138523
-0.1776827345
-0.1738054615
-0.1671474104
-0.1652192325
-0.1603574708
-0.159767284
-0.1561902435
-0.156480297
-0.1538281498
-0.1546157221
-0.1526117381
-0.1535478299
-0.1519507666
-0.1526979766
-0.1512674924
-0.1514839025
-0.1499552648
-0.1492743341
-0.1473442767
-0.2340111426
-0.2151215798
-0.2040927891
-0.1911944602
-0.1845335623
-0.1754199444
-0.1715915394
-0.1650182379
-0.1631140259
-0.1583142014
-0.157731112
-0.1541996611
-0.1544858698
-0.1518674945
-0.1526451141
-0.1506666492
-0.1515910305
-0.1500143717
-0.1507523092
-0.1493402196
-0.1495541397
-0.1480451624
-0.1473730578
-0.1454676767
-0.2302600659
-0.2116732917
-0.2008216204
-0.1881298858
-0.181576528
-0.1726086927
-0.1688427834
-0.1623743504
-0.1605017786
-0.1557782209
-0.1552054605
-0.1517298039
-0.1520122864
-0.1494349455
-0.1502008796
-0.1482531183
-0.1491634086
-0.1476110361
-0.1483378451
-0.1469475724
-0.1471586813
-0.1456733117
-0.1450122111
-0.1431371943
-0.2257813538
-0.2075560727
-0.196915396
-0.1844704626
-0.1780443175
-0.1692508696
-0.1655578484
-0.1592152319
-0.1573786901
-0.1527470764
-0.1521852444
-0.148777251
-0.1490542475
-0.1465270322
-0.1472782188
-0.145368287
-0.146261079
-0.1447388258
-0.145451713
-0.1440884457
-0.144295707
-0.1428392423
-0.1421911511
-0.1403526773
-0.2205952355
-0.2027885278
-0.1923926335
-0.1802333903
-0.1739555576
-0.1653637641
-0.1617565626
-0.1555591056
-0.1537657302
-0.1492398425
-0.1486918153
-0.1453613755
-0.1456328899
-0.1431629582
-0.1438977805
-0.1420309162
-0.1429040557
-0.1414159289
-0.1421132089
-0.1407805038
-0.1409836807
-0.139560162
-0.1389272486
-0.13713083
-0.2147121737
-0.1973803042
-0.1872615959
-0.1754265718
-0.169315986
-0.1609532944
-0.1574420681
-0.151409899
-0.1496641299
-0.1452589748
-0.1447254712
-0.1414838022
-0.141748099
-0.1393438697
-0.1400591949
-0.1382418818
-0.1390918899
-0.137643186
-0.138322028
-0.1370246423
-0.1372226347
-0.135837004
-0.1352211291
-0.1334726854
-0.2081561594
-0.1913534229
-0.1815440282
-0.1700701962
-0.1641468209
-0.1560391222
-0.1526359916
-0.1467874968
-0.1450959419
-0.1408247391
-0.1403084406
-0.1371652051
-0.1374223992
-0.1350910084
-0.1357854881
-0.1340230146
-0.1348480064
-0.1334427659
-0.1341016594
-0.1328431036
-0.1330356969
-0.1316918354
-0.1310950307
-0.1293997773
-0.2009427816
-0.1847222723
-0.175252791
-0.164176529
-0.1584583212
-0.1506315416
-0.1473462267
-0.1417003492
-0.1400672869
-0.1359439829
-0.1354454931
-0.1324109283
-0.1326591755
-0.1304082102
-0.1310786846
-0.1293769214
-0.1301735071
-0.1288166477
-0.1294529255
-0.1282377432
-0.1284239589
-0.127126616
-0.1265507103
-0.124914282
-0.1930992933
-0.1775118408
-0.1684123065
-0.1577682066
-0.1522737789
-0.1447521678
-0.1415959263
-0.1361699971
-0.1346015851
-0.1306388165
-0.1301607444
-0.127244216
-0.1274837839
-0.1253201795
-0.1259654952
-0.1243295167
-0.125095949
-0.1237912596
-0.1244034661
-0.1232348909
-0.1234144539
-0.1221671891
-0.1216140049
-0.1200412423
-0.1846463544
-0.1697412029
-0.1610400287
-0.1508618304
-0.1456078796
-0.1384154268
-0.1353973051
-0.1302087085
-0.1287088655
-0.1249192666
-0.1244620319
-0.1216727483
-0.1219017965
-0.1198324278
-0.1204496096
-0.1188848363
-0.1196180028
-0.1183701073
-0.1189558465
-0.1178381862
-0.1180102841
-0.1168175723
-0.1162888792
-0.1147850406
-0.1756140496
-0.1614379257
-0.1531626938
-0.1434822143
-0.1384858344
-0.1316449272
-0.1287752754
-0.123840151
-0.122414593
-0.1188100437
-0.1183761421
-0.1157229113
-0.1159417487
-0.1139730643
-0.1145610419
-0.1130721098
-0.1137703422
-0.1125826556
-0.1131405065
-0.1120766803
-0.1122409749
-0.1111060536
-0.1106034616
-0.1091729763
-0.1660278519
-0.1526255189
-0.144802064
-0.1356499308
-0.1309262842
-0.1244586008
-0.121745604
-0.1170795333
-0.1157317488
-0.1123235152
-0.11191326
-0.1094043428
-0.1096112852
-0.1077495423
-0.1083056505
-0.1068975499
-0.1075580727
-0.1064348481
-0.1069626901
-0.1059566218
-0.1061124349
-0.1050393587
-0.1045645151
-0.1032121683
-0.1559203573
-0.1433338613
-0.1359870084
-0.127391908
-0.1229564065
-0.1168822315
-0.1143352402
-0.109952941
-0.1086881158
-0.1054870421
-0.1051027
-0.1027460707
-0.1029413762
-0.1011923436
-0.1017155753
-0.1003924241
-0.1010136892
-0.09995797865
-0.1004544786
-0.0995088171
-0.09965578283
-0.09864748943
-0.09820180146
-0.09693157236
-0.1453214221
-0.1335904707
-0.1267431144
-0.118732146
-0.1145981939
-0.1089366162
-0.1065628469
-0.1024779825
-0.1012991861
-0.09831518113
-0.09795704178
-0.09576004182
-0.09594225251
-0.09431153934
-0.09479956014
-0.09356582562
-0.0941453849
-0.09316094216
-0.09362424234
-0.09274240473
-0.09287996501
-0.09194000354
-0.09152496639
-0.09034110367
-0.1342658838
-0.1234273225
-0.1171012465
-0.1096996221
-0.1058807677
-0.1006496907
-0.09845735957
-0.09468294609
-0.09359471426
-0.09083732432
-0.09050733653
-0.08847692565
-0.08864622676
-0.08713884593
-0.08759075636
-0.08645004177
-0.0869865443
-0.08607610222
-0.08650502614
-0.085689426
-0.08581722385
-0.08494823134
-0.08456505256
-0.08347104013
-0.1227874706
-0.1128754438
-0.1070902976
-0.1003212482
-0.0968289741
-0.092044707
-0.09004000631
-0.08658772132
-0.08559272044
-0.08307046954
-0.08276893031
-0.08091146958
-0.08106663797
-0.07968744698
-0.08010122644
-0.07905735022
-0.07954864334
-0.07871533554
-0.07910825668
-0.0783617138
-0.07847928741
-0.07768423983
-0.07733422657
-0.07633372297
-0.1109229281
-0.1019686248
-0.0967428835
-0.09062781574
-0.08747361963
-0.0831514022
-0.08134127582
-0.07822218361
-0.07732420441
-0.07504516038
-0.0747736601
-0.07309500628
-0.07323616518
-0.07198940328
-0.07236430708
-0.07142038193
-0.07186538189
-0.0711116521
-0.07146762315
-0.07079232081
-0.07089936298
-0.07018058049
-0.06986473743
-0.06896068943
-0.09870938436
-0.09074095007
-0.08609077368
-0.08064878156
-0.07784210373
-0.073995321
-0.07238489068
-0.06960860257
-0.06880989565
-0.06678111494
-0.06653995273
-0.06504538165
-0.06517154349
-0.06406120514
-0.0643955298
-0.06355462024
-0.06395145976
-0.06327974551
-0.06359733854
-0.06299546104
-0.06309156763
-0.0624514188
-0.06217083374
-0.06136626141
-0.0861850168
-0.07922759563
-0.07516790817
-0.07041629847
-0.06796641753
-0.06460740376
-0.0632022338
-0.06077768231
-0.06008124104
-0.05830921166
-0.05809960731
-0.05679383354
-0.05690506288
-0.05593460617
-0.05622776767
-0.05549249901
-0.05584037415
-0.05525281562
-0.05553133951
-0.05500479541
-0.05508973175
-0.05453016777
-0.054285623
-0.05358289768
-0.07338996886
-0.06746535009
-0.06400863168
-0.05996214607
-0.05787636156
-0.05501544626
-0.05381953144
-0.05175415505
-0.05116177538
-0.04965197421
-0.04947421084
-0.04836131734
-0.04845687812
-0.04762934667
-0.04788000817
-0.04725263143
-0.04755002546
-0.04704834544
-0.04728661464
-0.04683696653
-0.04691039176
-0.04643318726
-0.04622555195
-0.04562702235
-0.06036322262
-0.05549019381
-0.05264761714
-0.04931922531
-0.04760446741
-0.04525090335
-0.04426836275
-0.04256885534
-0.04208271602
-0.04084000511
-0.04069493545
-0.03977847872
-0.03985837239
-0.03917643171
-0.03938414025
-0.03886676856
-0.03911310155
-0.03869908795
-0.03889661737
-0.03852543834
-0.03858717522
-0.03819385353
-0.03802367031
-0.03753109887
-0.04714763612
-0.04334134966
-0.04112156784
-0.03852148624
-0.03718282624
-0.03534376179
-0.03457739695
-0.03324890605
-0.03287029523
-0.03189845619
-0.03178631837
-0.03106909092
-0.03113284078
-0.03059851584
-0.03076235599
-0.03035639783
-0.03055060336
-0.03022526538
-0.03038121055
-0.03008944177
-0.03013924989
-0.02983098432
-0.0296988931
-0.02931393158
-0.03378226133
-0.03105491994
-0.029465208
-0.02760190128
-0.02664383759
-0.02532533589
-0.02477779185
-0.0238247229
-0.02355501238
-0.0228572715
-0.02277857271
-0.02226297694
-0.02231053766
-0.0219256985
-0.02204533813
-0.02175236748
-0.02189403979
-0.02165877163
-0.0217727929
-0.02156164926
-0.02159939031
-0.02137726482
-0.02128358231
-0.02100736054
-0.02031239788
-0.01867231854
-0.01771739518
-0.01659642328
-0.01602172384
-0.01522764239
-0.01490046246
-0.01432556434
-0.0141654783
-0.01374381898
-0.01369870876
-0.01338615899
-0.01341728495
-0.01318287646
-0.01325782162
-0.01307838038
-0.01316694245
-0.01302203255
-0.01309368073
-0.01296345003
-0.01298900112
-0.01285354012
-0.01279864087
-0.01263209215
-0.006776406187
-0.006229061826
-0.005912215683
-0.005537440377
-0.005348130633
-0.005081291772
-0.004975644058
-0.004781022534
-0.004731147051
-0.00458717362
-0.004575850431
-0.004467618245
-0.004482264491
-0.004399376776
-0.004429457205
-0.004364571059
-0.004399808393
-0.004346237612
-0.004375314313
-0.004326857244
-0.004340117958
-0.004291983833
-0.0042759779
-0.004219582006
0.00677828014
0.006231522075
0.005909572838
0.005537331552
0.005340840882
0.005079948212
0.004963828908
0.004777902477
0.004717453264
0.004583632632
0.004561154474
0.004465103779
0.004467004621
0.004398559833
0.004413467695
0.004364145423
0.004382357114
0.004345025024
0.004358588054
0.004325652183
0.004324685049
0.004285645255
0.004262661539
0.004208697018
0.02031471778
0.01867517318
0.01771515862
0.01659667508
0.01601483781
0.01522663931
0.01488905011
0.01432275667
0.01415216014
0.01374053751
0.01368433387
0.0133838275
0.01340227018
0.01318215768
0.01324200388
0.01307799231
0.01314962133
0.0130208321
0.01307705902
0.01296223698
0.01297362965
0.01284717959
0.01278531646
0.01262117661
0.03378372206
0.03105699876
0.0294622211
0.02760144197
0.02663622899
0.02532363706
0.02476567696
0.02382125964
0.02354103545
0.02285341685
0.02276363608
0.02226019689
0.0222951071
0.02192467758
0.02202925989
0.02175180291
0.02187656855
0.02165747094
0.02175607973
0.02156039473
0.02158401915
0.02137096932
0.02127038072
0.02099657625
0.04715041051
0.04334458896
0.04111977673
0.03852208739
0.0371764095
0.03534307027
0.03456648195
0.03324638046
0.03285745482
0.03189540121
0.03177238
0.03106690747
0.03111821328
0.03059786776
0.03074689407
0.03035605128
0.03053364689
0.0302241266
0.03036494831
0.03008830751
0.03012421408
0.02982478416
0.02968583781
0.02930322504
0.06036432287
0.0554919225
0.05264436795
0.04931844591
0.04759664517
0.04524885349
0.04425606647
0.04256502779
0.04206855105
0.04083577638
0.04067982179
0.03977532301
0.0398428038
0.03917504894
0.03936799012
0.03886589122
0.0390956405
0.0386975365
0.03887994718
0.03852397336
0.03857188331
0.03818749844
0.03801055835
0.03752035383
0.07339318353
0.06746894231
0.06400730279
0.05996306543
0.05787046182
0.05501502584
0.05380920106
0.0517518832
0.05114952289
0.04964913123
0.04946085073
0.04835928307
0.0484428247
0.04762879237
0.04786514319
0.04725238676
0.04753372698
0.04704737092
0.04727101965
0.04683604553
0.04689601515
0.04642737757
0.0462130983
0.04561682116
0.08618581956
0.07922901416
0.07516448933
0.07041524456
0.06795850563
0.06460503139
0.06318989987
0.06077349646
0.06006700913
0.05830457197
0.0580844036
0.0567902115
0.05688941175
0.05593272287
0.05621159215
0.05549116332
0.05582300169
0.05525089795
0.05551481121
0.05500302282
0.05507461038
0.05452371903
0.05427264701
0.0535722048
0.09871300833
0.09074484668
0.08608990601
0.08064997236
0.07783675342
0.07399512144
0.07237522341
0.06960655521
0.0687983412
0.06677847772
0.06652731934
0.06504351124
0.06515825758
0.06406077801
0.06438149984
0.06355453497
0.06393609272
0.06327901326
0.06358267805
0.06299483698
0.06307811132
0.06244615778
0.06215923729
0.06135679055
0.1109234929
0.1019697683
0.09673938492
0.09062653743
0.08746575307
0.08314876056
0.08132907946
0.07821768908
0.0773100758
0.07504012803
0.07475851518
0.07309089218
0.07322056399
0.07198696037
0.07234824942
0.07141854268
0.07184829596
0.07110938288
0.07145148027
0.07079030929
0.07088467645
0.07017420082
0.06985215576
0.06895028191
0.1227914649
0.1128795875
0.1070898804
0.100322656
0.09682419615
0.09204467319
0.09003107312
0.08658586804
0.0855819695
0.08306803402
0.08275716726
0.08090977985
0.08105430216
0.0796871775
0.08008824903
0.07905747207
0.07953445444
0.07871490716
0.07909476685
0.07836144154
0.07846696493
0.07767963502
0.07732367319
0.07632514395
0.1342662534
0.1234282077
0.1170977397
0.1096981584
0.1058730766
0.1006468477
0.09844550114
0.09467824174
0.09358091862
0.09083199366
0.09049248123
0.08847238367
0.08863090015
0.08713587964
0.08757504918
0.08644774302
0.08697001189
0.08607357199
0.08648955774
0.08568731163
0.08580327862
0.08494214751
0.08455318373
0.08346121748
0.1453257478
0.1335948041
0.126743137
0.1187337204
0.1145940125
0.1089366994
0.1065547195
0.1024762993
0.1012893444
0.0983129493
0.09794629038
0.09575855519
0.09593104393
0.09431146548
0.09478784919
0.0935662195
0.09413263127
0.09316091669
0.09361219344
0.09274259778
0.09286903746
0.0919362249
0.0915156908
0.09033363236
0.1559205504
0.1433344794
0.1359835361
0.1273902724
0.1229489961
0.1168792482
0.1143239216
0.1099481604
0.1086749309
0.1054815866
0.1050884498
0.1027412665
0.1029266411
0.1011889869
0.1017005219
0.1003897749
0.1009979993
0.0999552896
0.1004399394
0.09950669446
0.09964280834
0.09864184317
0.0981908545
0.09692252599
0.1660324752
0.1526299899
0.144802525
0.135651637
0.1309227388
0.1244587754
0.1217383707
0.1170780197
0.1157229371
0.1123215088
0.111903672
0.1094030981
0.1096013878
0.1077497199
0.1082954288
0.1068983071
0.1075470304
0.1064353672
0.106952391
0.1059574592
0.1061032273
0.1050366608
0.1045568413
0.1032061166
0.1756140675
0.1614382494
0.1531592735
0.1434803912
0.1384787734
0.1316418332
0.1287646642
0.1238354225
0.1224023033
0.1188046882
0.1183628776
0.1157181127
0.1159280223
0.1139695696
0.1145470459
0.1130693217
0.1137558608
0.1125799734
0.1131271982
0.1120746732
0.1122292251
0.1111010027
0.1105936609
0.1091649181
0.1846512481
0.1697457672
0.1610409391
0.1508636556
0.145605035
0.1384157058
0.1353910868
0.130207407
0.1287012384
0.1249175464
0.1244537872
0.1216718148
0.1218934124
0.1198329353
0.120441109
0.1188860611
0.1196089433
0.1183713103
0.1189475867
0.1178398315
0.1180031
0.1168161933
0.1162831237
0.1147807185
0.1930991442
0.1775118496
0.1684089557
0.1577661714
0.1522671123
0.1447489559
0.1415861298
0.1361653915
0.1345904096
0.1306337595
0.1301488378
0.1272397415
0.1274715546
0.1253169195
0.1259530843
0.1243269498
0.1250831786
0.123788883
0.124391808
0.1232332229
0.1234042739
0.1221629716
0.1216056584
0.1200344658
0.2009479295
0.1847268988
0.1752541754
0.16417848
0.1584562673
0.1506319785
0.1473411821
0.1416993555
0.1400610423
0.1359426612
0.1354388109
0.1324104157
0.1326525327
0.1304091481
0.1310721373
0.1293787097
0.1301666617
0.1288186151
0.1294469
0.128240246
0.1284189633
0.1271266389
0.1265470213
0.1249118295
0.2081558927
0.1913531428
0.1815408064
0.1700679595
0.164140615
0.1560357862
0.1526270803
0.1467830121
0.1450859782
0.1408200471
0.1402981183
0.13716127
0.1374120791
0.1350883516
0.1357752138
0.1340211107
0.1348375289
0.1334410926
0.1340921451
0.1328420616
0.1330274685
0.131688691
0.1310884193
0.1293945325
0.2147175821
0.1973849917
0.1872634986
0.1754286731
0.169314829
0.160953972
0.1574383825
0.1514093528
0.1496594976
0.14525821
0.144720603
0.1414838576
0.1417434458
0.1393453524
0.1400548159
0.13824429
0.1390874
0.1376458764
0.1383182671
0.1370278724
0.1372197891
0.1358382863
0.1352194068
0.1334719913
0.2205949625
0.2027880634
0.1923896821
0.1802310509
0.1739499626
0.1653603841
0.1617486673
0.1555547609
0.1537570193
0.1492354532
0.1486830853
0.1453579326
0.1456245897
0.1431609918
0.1438899212
0.1420299083
0.1428962576
0.1414152413
0.142106243
0.140780382
0.1409778215
0.1395584054
0.1389227291
0.1371274469
0.225787051
0.207560868
0.1969178893
0.1844727619
0.1780441727
0.1692518867
0.1655557162
0.1592152958
0.1573759047
0.1527470507
0.1521824465
0.1487780437
0.1490518356
0.1465291776
0.1472761901
0.1453713189
0.146258982
0.1447420908
0.1454501313
0.1440922022
0.144294906
0.1428415803
0.1421912214
0.1403535553
0.2302599216
0.2116728075
0.2008191489
0.1881276359
0.181571794
0.1726054845
0.1688361781
0.1623703252
0.1604944859
0.1557741463
0.1551982887
0.1517266482
0.1520058037
0.1494333188
0.1501951531
0.1482526234
0.149158014
0.1476110447
0.1483333118
0.146948349
0.1471553443
0.1456731411
0.1450100584
0.1431359559
0.2340171358
0.2151265643
0.2040959425
0.1911970162
0.1845345268
0.1754213766
0.1715911083
0.1650190264
0.1631132321
0.1583150145
0.1577305138
0.1542012562
0.1544858085
0.1518702992
0.1526454664
0.150670193
0.151591248
0.1500180508
0.150752842
0.1493444383
0.1495553874
0.1480485
0.1473748451
0.1454700361
0.2370292252
0.2178956418
0.2067231986
0.1936584076
0.1869102574
0.177679973
0.17380048
0.1671439915
0.165213646
0.1603538931
0.1597617893
0.1561873192
0.1564754642
0.1538264432
0.1546116034
0.1526109856
0.1535440336
0.1519505644
0.1526950166
0.1512683665
0.1514823183
0.1499559653
0.1492738181
0.1473444628
0.2393043425
0.2199869414
0.2087073938
0.1955168783
0.1887042752
0.1793848608
0.1754686649
0.1687475641
0.1667993355
0.1618920879
0.1612950435
0.1576853059
0.157977043
0.155301566
0.1560951435
0.1540743004
0.15501717
0.1534074427
0.1541597528
0.1527185776
0.1529351296
0.1513936236
0.1507051522
0.1487571534
0.2408177421
0.2213783075
0.2100275818
0.1967538107
0.1898982159
0.180520032
0.176579141
0.1698157243
0.1678551494
0.1629170952
0.1623161926
0.1586838415
0.1589773534
0.1562851069
0.15708372
0.1550501696
0.1559991425
0.1543792067
0.1551364847
0.1536860805
0.1539043021
0.1523529871
0.1516603564
0.1497000109
0.2415821853
0.2220808803
0.2106942543
0.1973780262
0.1905009837
0.181092499
0.1771396263
0.1703540238
0.1683878642
0.1634332918
0.162831216
0.1591863859
0.159481644
0.1567798378
0.1575818517
0.155540846
0.1564936792
0.1548676617
0.1556280364
0.1541722132
0.1543916523
0.1528349152
0.152140292
0.1501736015
0.2415778284
0.2220770065
0.2106907423
0.1973749168
0.1904980926
0.1810899441
0.1771372162
0.1703519223
0.1683857755
0.163431515
0.1628293721
0.1591848143
0.1594800036
0.1567783833
0.157580408
0.1555394927
0.156492459
0.1548664214
0.1556270052
0.1541710778
0.1543908281
0.1528340519
0.1521396493
0.1501729664
0.2408220205
0.22138205
0.2100315397
0.1967570563
0.189902059
0.1805228179
0.1765829809
0.1698182047
0.1678588431
0.1629192467
0.1623197156
0.1586856217
0.1589806939
0.1562865276
0.1570868981
0.1550513902
0.1560022089
0.1543803474
0.1551392267
0.1536870687
0.1539066369
0.1523542549
0.1516622187
0.1497015711
0.2392999237
0.2199829511
0.2087043394
0.1955139141
0.1887023431
0.1793825411
0.175467687
0.1687458414
0.1667988511
0.1618906816
0.1612948738
0.1576839355
0.1579770932
0.1553000672
0.1560954208
0.1540728005
0.1550177794
0.1534060825
0.15416041
0.1527172622
0.1529357781
0.1513931132
0.1507056699
0.1487573828
0.2370334084
0.2178992392
0.2067275843
0.1936617778
0.1869150331
0.1776829817
0.1738057286
0.1671468449
0.1652189248
0.1603564162
0.1597669742
0.1561893099
0.1564804912
0.1538278375
0.1546165049
0.1526120862
0.1535489365
0.1519516261
0.1526994666
0.1512692433
0.1514861785
0.1499576856
0.149276941
0.1473469963
0.2340126742
0.2151224748
0.2040933532
0.1911942055
0.18453355
0.1754192946
0.1715915494
0.1650176793
0.163114334
0.158313973
0.1577319973
0.1542000814
0.1544875253
0.151868752
0.1526474367
0.1506685417
0.1515936523
0.1500165605
0.1507551453
0.1493429235
0.1495574533
0.1480482987
0.1473764556
0.1454710672
0.2302639912
0.2116762451
0.2008239363
0.1881311147
0.1815774685
0.1726087017
0.1688427934
0.1623735363
0.1605013056
0.1557770267
0.1552050906
0.1517288388
0.1520124727
0.1494346816
0.1502017333
0.1482536035
0.1491647079
0.1476120338
0.1483394333
0.1469491354
0.1471607117
0.1456753379
0.1450144492
0.1431394802
0.2257825693
0.2075567008
0.1969157696
0.184470114
0.1780441391
0.1692500455
0.1655575496
0.1592143213
0.157378562
0.1527463712
0.1521855521
0.1487770681
0.1490551894
0.1465275955
0.1472798241
0.1453695358
0.1462631473
0.144740492
0.1454540447
0.1440905095
0.1442983505
0.1428416872
0.1421938887
0.1403553624
0.2205988968
0.2027913235
0.1923948355
0.180234616
0.173956486
0.1653637873
0.1617565848
0.1555583027
0.1537653086
0.1492386619
0.148691427
0.145360294
0.1456328172
0.1431622956
0.1438980894
0.1420307376
0.142904643
0.1414161229
0.1421139399
0.1407810459
0.1409846093
0.1395610315
0.1389283153
0.1371319014
0.2147131086
0.1973807742
0.1872618519
0.1754262
0.1693157195
0.1609523769
0.1574415703
0.1514087501
0.1496636686
0.1452578958
0.1447252931
0.1414830993
0.1417484083
0.1393437752
0.1400600953
0.1382424345
0.1390933143
0.1376442449
0.1383237938
0.1370260969
0.1372246338
0.1358387851
0.1352231762
0.1334746335
0.2081596651
0.1913562043
0.1815462794
0.1700715818
0.1641479206
0.1560393442
0.1526362121
0.1467868456
0.1450956377
0.1408235392
0.1403078889
0.1371637539
0.1374217404
0.1350895432
0.1357848273
0.1340217215
0.1348474406
0.1334417767
0.1341012407
0.1328424942
0.1330354918
0.131691597
0.1310950147
0.1293997451
0.2009434983
0.1847226644
0.1752530049
0.1641761971
0.1584580573
0.150630638
0.147345676
0.1416991272
0.1400666753
0.1359427217
0.1354450412
0.132409906
0.1326590753
0.1304076396
0.1310790523
0.1293768767
0.1301743328
0.1288170756
0.129454081
0.1282385485
0.1284252888
0.1271276889
0.1265520138
0.1249154428
0.1931027226
0.1775146868
0.1684146911
0.1577698143
0.1522751167
0.1447526286
0.1415963649
0.1361694665
0.1346013139
0.130637478
0.1301598966
0.1272422864
0.1274824902
0.125317931
0.1259639597
0.124327254
0.1250944012
0.123789249
0.1244020665
0.123233273
0.1234132783
0.1221659468
0.1216129999
0.1200401916
0.1846469
0.1697415557
0.1610402479
0.1508615817
0.1456076945
0.1384146314
0.1353968286
0.1302075572
0.1287082699
0.1249179933
0.1244615012
0.1216715896
0.1219014946
0.1198315665
0.1204496375
0.1188843522
0.1196183649
0.1183699909
0.1189564503
0.1178383738
0.1180109761
0.1168179482
0.1162894513
0.1147854309
0.1756174144
0.1614408321
0.1531652034
0.1434840111
0.1384873771
0.131645573
0.1287758708
0.1238396808
0.1224143046
0.11880857
0.1183750621
0.1157206561
0.1159400534
0.1139703395
0.1145589846
0.1130692467
0.1137681705
0.112579926
0.1131383861
0.112074226
0.1122389699
0.1111038739
0.1106015103
0.1091709416
0.1660282563
0.1526258468
0.1448023162
0.135649794
0.1309262324
0.1244579805
0.121745291
0.1170785521
0.1157312889
0.1123223505
0.1119127937
0.1094031865
0.1096109425
0.1077485481
0.1083055112
0.1068967963
0.107558141
0.1064343463
0.1069628907
0.1059563297
0.1061126295
0.105039177
0.1045645085
0.1032119505
0.1559236234
0.143336774
0.1359895833
0.12739382
0.1229580856
0.1168830016
0.11433595
0.1099525388
0.1086878643
0.1054855686
0.105101585
0.1027437557
0.1029395851
0.1011894786
0.1017133349
0.1003892915
0.1010112011
0.09995479977
0.1004518784
0.09950572718
0.0996531349
0.09864454464
0.09819907709
0.0969287385
0.1453217085
0.1335907794
0.1267434126
0.1187321319
0.1145982987
0.1089361974
0.1065627371
0.1024772142
0.1012989208
0.09831418585
0.09795671864
0.09575897042
0.09594196863
0.09431052203
0.09479937595
0.0935649381
0.09414530044
0.09316020722
0.0936241928
0.09274179597
0.09287983104
0.0919394469
0.09152457822
0.09034049001
0.1342690077
0.1234301786
0.1171038202
0.1097015804
0.1058825272
0.1006505576
0.0984581879
0.09468267546
0.09359460776
0.0908360176
0.09050638721
0.08847478186
0.08864457986
0.0871360862
0.08758856638
0.08644686607
0.08698394442
0.08607266974
0.08650212188
0.08568587617
0.08581409835
0.08494469634
0.08456172715
0.08346759327
0.1227876577
0.1128757332
0.1070906397
0.1003213453
0.09682922601
0.09204447601
0.09004009327
0.08658715957
0.08559265506
0.08306965344
0.08276877269
0.08091051568
0.08106645617
0.07968646596
0.08010106404
0.07905641626
0.07954849876
0.07871448183
0.079108076
0.07836092663
0.07847896452
0.07768346511
0.07733361501
0.0763328855
0.1109258838
0.1019713806
0.0967454103
0.09062977889
0.08747543252
0.0831523687
0.08134225162
0.07822211432
0.07732433804
0.07504414287
0.07477301293
0.07309317957
0.0732348125
0.07198690131
0.07236231769
0.07141731712
0.07186281563
0.07110812472
0.07146455725
0.07078847656
0.07089590622
0.07017662059
0.06986096624
0.0689567935
0.09870948475
0.09074121442
0.08609114414
0.08064896106
0.07784246979
0.07399523719
0.07238513763
0.06960821009
0.06881000053
0.06678045453
0.06653994356
0.06504454042
0.06517146163
0.06406027518
0.06439540324
0.06355367418
0.06395128906
0.06327882714
0.06359708257
0.06299456779
0.0630911277
0.06245051103
0.06217008053
0.06136529306
0.08618780639
0.07923023703
0.07517037119
0.07041825205
0.06796827778
0.06460848032
0.06320337941
0.06077785182
0.06008166018
0.05830853443
0.05809931969
0.05679238452
0.05690407688
0.05593244168
0.05622607818
0.05548965861
0.05583797904
0.05524935647
0.05552828838
0.05500086643
0.0550861486
0.05452601788
0.05428164063
0.05357879577
0.07338999064
0.06746558032
0.06400900822
0.05996237107
0.05787679858
0.05501545829
0.05381988797
0.05175388077
0.05116200262
0.0496514279
0.04947430932
0.04836055946
0.04845686298
0.04762844904
0.04787989028
0.0472516612
0.04754980597
0.04704735332
0.04728626581
0.04683596286
0.04690982901
0.04643215241
0.04622466623
0.04562594095
0.06036587407
0.05549273371
0.05265002228
0.0493211708
0.04760637417
0.0452520884
0.04426967363
0.04256925397
0.04208340722
0.04083964819
0.0406949894
0.03977738977
0.03985774908
0.03917460963
0.03938278447
0.03886420395
0.03911097167
0.03869581458
0.03889373515
0.03852160056
0.03858365058
0.03818971751
0.03801967789
0.03752699693
0.04714758688
0.04334153832
0.04112192899
0.03852172173
0.03718329142
0.03534381897
0.03457781033
0.03324869604
0.03287059071
0.03189797544
0.03178647429
0.03106837758
0.03113284888
0.03059762189
0.03076220987
0.03035538093
0.03055029989
0.03022417821
0.03038073402
0.0300883114
0.03013854396
0.02982981928
0.02969787817
0.02931274475
0.03378482062
0.03105738965
0.02946757363
0.02760384459
0.02664578322
0.02532660724
0.02477923187
0.02382529699
0.02355591143
0.02285715687
0.02277888706
0.02226216289
0.02231019766
0.02192414597
0.02204426005
0.02175003915
0.02189216276
0.0216556917
0.02177011265
0.02155794964
0.02159597829
0.02137320287
0.02127963144
0.02100330827
0.02031228928
0.01867246418
0.01771772563
0.016596642
0.01602218039
0.01522770046
0.01490088351
0.01432536735
0.01416578885
0.01374335559
0.0136988735
0.01338545459
0.01341728129
0.01318197034
0.01325763239
0.01307732185
0.01316655813
0.01302087288
0.01309309233
0.01296223117
0.01298818315
0.01285229384
0.01279754428
0.01263084545
0.006778928917
0.006231502562
0.005914564579
0.005539386063
0.0053500972
0.005082609152
0.0049771521
0.004781687624
0.004732155943
0.004587184992
0.004576302506
0.004466948046
0.004482074718
0.004397965052
0.004428528936
0.004362368266
0.004398075013
0.004343268186
0.004372756725
0.004323244086
0.004336775134
0.004287967643
0.004272045328
0.0042155522
-0.006778430057
-0.006231413213
-0.005909280312
-0.005537147435
-0.005340422165
-0.00507992546
-0.004963443947
-0.004778132927
-0.004717176557
-0.00458412354
-0.004561023277
-0.004465827778
-0.004467041533
-0.004399477143
-0.004413688164
-0.004365209071
-0.004382774624
-0.004346188664
-0.004359215521
-0.004326872795
-0.004325536226
-0.004286889259
-0.004263768756
-0.004209941094
-0.02031217253
-0.01867271628
-0.01771280262
-0.01659472363
-0.01601287482
-0.01522532481
-0.01488754819
-0.0143220989
-0.01415115466
-0.01374053321
-0.01368388368
-0.01338450403
-0.01340246371
-0.01318357846
-0.01324293847
-0.01308020637
-0.01315136014
-0.01302380651
-0.01307961653
-0.01296584345
-0.01297696725
-0.01285118598
-0.01278924205
-0.01262519848
-0.03378388935
-0.0310569141
-0.02946196683
-0.02760130243
-0.02663587074
-0.02532367836
-0.02476536663
-0.02382156487
-0.02354083677
-0.02285397713
-0.02276357549
-0.02226096633
-0.02229519295
-0.02192560148
-0.02202949318
-0.02175282935
-0.02187696161
-0.0216585623
-0.02175666044
-0.02156152676
-0.02158481837
-0.02137213332
-0.02127143568
-0.02099776724
-0.04714778467
-0.04334207118
-0.04111738907
-0.03852012481
-0.03717447356
-0.03534180425
-0.03456506011
-0.03324582533
-0.03285656511
-0.03189553436
-0.03177206787
-0.0310677363
-0.03111855868
-0.03059944043
-0.03074798462
-0.03035840582
-0.03053553617
-0.03022721827
-0.03036762898
-0.03009199036
-0.03012761414
-0.02982882236
-0.02968977195
-0.02930725839
-0.06036448019
-0.05549184662
-0.052644148
-0.04931835655
-0.04759636512
-0.04524898175
-0.04425586484
-0.0425654439
-0.04206847028
-0.04083644577
-0.0406798662
-0.03977616713