/*--------------------------------*- C++ -*----------------------------------*\
| =========                 |                                                 |
| \\      /  F ield         | foam-extend: Open Source CFD                    |
|  \\    /   O peration     | Version:  3.0                                   |
|   \\  /    A nd           | Web:         http://www.extend-project.de       |
|    \\/     M anipulation  |                                                 |
\*---------------------------------------------------------------------------*/
FoamFile
{
    version     2.0;
    format      ascii;
    class       volScalarField;
    location    "11";
    object      p;
}
// * * * * * * * * * * * * * * * * * * * * * * * * * * * * * * * * * * * * * //

dimensions      [0 0 0 0 0 0 0];

internalField   nonuniform List<scalar> 
576
(
-6.27843
-6.29151
-4.99449
-4.85438
-4.36431
-4.05906
-4.19487
-3.59651
-4.15184
-3.59181
-4.0502
-3.91268
-6.16834
-6.18238
-4.90636
-4.77142
-4.28907
-3.98864
-4.12337
-3.53478
-4.08115
-3.53085
-3.98126
-3.84624
-5.95874
-5.97112
-4.73925
-4.60749
-4.14203
-3.85177
-3.98157
-3.41308
-3.94063
-3.40915
-3.84399
-3.71356
-5.64082
-5.65384
-4.48766
-4.36343
-3.92279
-3.64804
-3.77114
-3.23282
-3.73246
-3.22918
-3.64096
-3.51748
-5.23247
-5.24327
-4.1613
-4.046
-3.63723
-3.38246
-3.4965
-2.99736
-3.46056
-2.994
-3.37573
-3.26126
-4.729
-4.73998
-3.7621
-3.65834
-3.28867
-3.05859
-3.1617
-2.71053
-3.12927
-2.70754
-3.0526
-2.94913
-4.14914
-4.15821
-3.29992
-3.20896
-2.88459
-2.68274
-2.77314
-2.37752
-2.74459
-2.37492
-2.67738
-2.5867
-3.49512
-3.50321
-2.78018
-2.70381
-2.4306
-2.26061
-2.33679
-2.00364
-2.31274
-2.00152
-2.2562
-2.17987
-2.78349
-2.78977
-2.21393
-2.15306
-1.93556
-1.80015
-1.86072
-1.59568
-1.84145
-1.59399
-1.79652
-1.73584
-2.02306
-2.02756
-1.60913
-1.56497
-1.40703
-1.30865
-1.35259
-1.16028
-1.33854
-1.1591
-1.30604
-1.26206
-1.22867
-1.23122
-0.977227
-0.950436
-0.854631
-0.794957
-0.821445
-0.705125
-0.812815
-0.70443
-0.793265
-0.766719
-0.412968
-0.413498
-0.328346
-0.319479
-0.287456
-0.267582
-0.276171
-0.23785
-0.273151
-0.237671
-0.26691
-0.258252
0.409683
0.411162
0.32606
0.316831
0.284591
0.264308
0.273785
0.233467
0.271153
0.233141
0.263991
0.254621
1.22539
1.22884
0.974964
0.947742
0.851816
0.791694
0.81907
0.700809
0.810817
0.699974
0.790375
0.763138
2.02014
2.02546
1.60719
1.56241
1.40446
1.30552
1.35033
1.15616
1.3366
1.15483
1.30323
1.25859
2.78035
2.78743
2.21193
2.15033
1.93309
1.79702
1.85848
1.59173
1.8395
1.58993
1.79379
1.73252
3.49299
3.50169
2.77884
2.70146
2.42864
2.25776
2.33482
2.00007
2.31093
1.99783
2.25365
2.1768
4.14588
4.15602
3.29821
3.20636
2.88265
2.67988
2.77122
2.3742
2.74281
2.37154
2.67495
2.58383
4.72783
4.73924
3.76115
3.65639
3.28732
3.05615
3.16019
2.7077
3.12776
2.70468
3.05049
2.94665
5.22889
5.24136
4.15974
4.04386
3.63575
3.38012
3.49509
2.99488
3.4592
2.99154
3.37382
3.25906
5.64048
5.6538
4.48716
4.36213
3.92198
3.64626
3.77019
3.23081
3.73144
3.22722
3.63944
3.5157
5.95555
5.96949
4.7378
4.60577
4.14109
3.85002
3.98078
3.41146
3.93984
3.40768
3.84278
3.71219
6.16873
6.18304
4.90737
4.7706
4.28935
3.9879
4.12325
3.53375
4.08083
3.52983
3.98037
3.84517
6.27635
6.29079
4.99298
4.8538
4.36422
4.05754
4.19518
3.59557
4.15199
3.59159
4.04985
3.91235
6.27659
6.29091
4.99316
4.85395
4.36441
4.05777
4.19532
3.59588
4.15212
3.5919
4.05005
3.91259
6.16943
6.18339
4.9079
4.77105
4.28993
3.98856
4.12369
3.53466
4.0812
3.53075
3.98095
3.8459
5.95671
5.97007
4.73867
4.60652
4.14206
3.85111
3.98149
3.41296
3.94045
3.40919
3.84374
3.71339
5.64207
5.6546
4.48837
4.36317
3.92331
3.64778
3.77118
3.23287
3.73229
3.22931
3.64076
3.51736
5.2309
5.24238
4.16127
4.04516
3.63744
3.38203
3.49635
2.99747
3.46027
2.99417
3.37549
3.26115
4.73023
4.74047
3.76298
3.65795
3.28933
3.05841
3.16169
2.71079
3.12904
2.70781
3.05247
2.94914
4.14863
4.15745
3.3003
3.20815
2.88495
2.68247
2.77294
2.37772
2.74429
2.37511
2.67723
2.58667
3.49605
3.5033
2.78116
2.70346
2.43122
2.26064
2.33676
2.00398
2.31257
2.00179
2.25618
2.17995
2.78366
2.78921
2.21445
2.15252
1.93588
1.80012
1.86059
1.59595
1.8413
1.59421
1.79653
1.73593
2.02366
2.0274
1.60985
1.56475
1.40743
1.30881
1.35259
1.16061
1.33852
1.15935
1.30614
1.2622
1.22904
1.23092
0.977713
0.950221
0.854911
0.795113
0.82145
0.705417
0.81284
0.704662
0.793403
0.766885
0.413393
0.413366
0.328846
0.319421
0.287754
0.267804
0.276255
0.238151
0.273254
0.237915
0.267091
0.258449
-0.409287
-0.411229
-0.325607
-0.316817
-0.284297
-0.264064
-0.273646
-0.233173
-0.270992
-0.232892
-0.263781
-0.254397
-1.22502
-1.22884
-0.974547
-0.947678
-0.851528
-0.791445
-0.818889
-0.700528
-0.810607
-0.699723
-0.79014
-0.762883
-2.01965
-2.02531
-1.60668
-1.56223
-1.40409
-1.30521
-1.35005
-1.15584
-1.3363
-1.15455
-1.30294
-1.25828
-2.77998
-2.78731
-2.21154
-2.15019
-1.93279
-1.79675
-1.85821
-1.59147
-1.83917
-1.58966
-1.79346
-1.73217
-3.49231
-3.50129
-2.77826
-2.70116
-2.4282
-2.25737
-2.3344
-1.99973
-2.31044
-1.99748
-2.2532
-2.17635
-4.14553
-4.15584
-3.29786
-3.20617
-2.88238
-2.6796
-2.77091
-2.37399
-2.74236
-2.37128
-2.67448
-2.58339
-4.72716
-4.73857
-3.76064
-3.65595
-3.28693
-3.05572
-3.15969
-2.70741
-3.12711
-2.70433
-3.04986
-2.94612
-5.22834
-5.24108
-4.15939
-4.0437
-3.63557
-3.37989
-3.49483
-2.9949
-3.4588
-2.9915
-3.37346
-3.25881
-5.64043
-5.65292
-4.48706
-4.36154
-3.92182
-3.64599
-3.76974
-3.2308
-3.73084
-3.22712
-3.6391
-3.51548
-5.95464
-5.96899
-4.73713
-4.60575
-4.14071
-3.84995
-3.9804
-3.41186
-3.93964
-3.40803
-3.84295
-3.71243
-6.16952
-6.1823
-4.90803
-4.77038
-4.28915
-3.98837
-4.12265
-3.53402
-4.08017
-3.52969
-3.98004
-3.84489
-6.27496
-6.28981
-4.99145
-4.85407
-4.36318
-4.05742
-4.19448
-3.59603
-4.15178
-3.59198
-4.04986
-3.91239
)
;

boundaryField
{
    out
    {
        type            implicitExtrapolation;
    }
    in
    {
        type            implicitExtrapolation;
    }
    frontAndBack
    {
        type            empty;
    }
}


// ************************************************************************* //
