/*--------------------------------*- C++ -*----------------------------------*\
| =========                 |                                                 |
| \\      /  F ield         | foam-extend: Open Source CFD                    |
|  \\    /   O peration     | Version:  3.0                                   |
|   \\  /    A nd           | Web:         http://www.extend-project.de       |
|    \\/     M anipulation  |                                                 |
\*---------------------------------------------------------------------------*/
FoamFile
{
    version     2.0;
    format      ascii;
    class       volSymmTensorField;
    location    "11";
    object      sigma;
}
// * * * * * * * * * * * * * * * * * * * * * * * * * * * * * * * * * * * * * //

dimensions      [0 0 0 0 0 0 0];

internalField   nonuniform List<symmTensor> 
576
(
(1.97789 -0.0411108 2.35868e-18 -1.73671 1.95681e-18 2.98944e-36)
(1.93831 0.132548 7.43982e-18 -1.69324 -2.57757e-17 -1.32387e-34)
(2.22266 0.209361 1.34022e-18 -2.07407 -1.35317e-17 -1.36659e-35)
(2.03371 0.222227 -5.94373e-19 -1.79385 -5.57496e-18 1.24102e-35)
(1.76611 0.21846 8.0616e-18 -1.69647 -1.98469e-18 2.23366e-35)
(1.68167 0.210184 5.83842e-18 -1.40928 -6.22224e-19 5.33379e-36)
(1.25963 0.180668 -8.68141e-18 -1.19813 -3.21361e-18 -1.62595e-35)
(1.16345 0.170276 -1.29914e-17 -0.967153 2.00802e-17 -1.6009e-34)
(0.879831 0.142702 -2.03711e-17 -0.723864 1.16504e-17 -1.10438e-34)
(0.655382 0.12508 -1.3203e-17 -0.525779 4.55261e-18 -8.53816e-36)
(0.474655 0.103149 2.53842e-20 -0.293604 -1.09721e-17 5.38371e-35)
(0.268375 0.0886339 -1.16734e-17 -0.108048 -1.11241e-17 -5.92079e-36)
(2.10996 -0.0926914 -1.47939e-17 -1.87247 -8.66371e-18 -7.76116e-35)
(1.89258 0.389644 -3.95934e-17 -1.65189 2.03591e-17 3.23363e-34)
(2.11626 0.608136 -6.40511e-18 -1.97004 1.08747e-17 1.94422e-34)
(1.90119 0.64187 -9.69542e-19 -1.66542 -1.09172e-17 -1.49622e-35)
(1.62997 0.629365 1.33341e-17 -1.56184 -1.38483e-17 -1.66376e-35)
(1.5422 0.604959 -9.99376e-18 -1.27443 1.39141e-17 0)
(1.13665 0.518725 -2.07219e-17 -1.0763 3.69688e-17 -3.87496e-34)
(1.04152 0.488327 3.83978e-17 -0.848647 7.73757e-18 1.73664e-34)
(0.773277 0.408083 2.58314e-17 -0.62004 1.61931e-17 3.46288e-34)
(0.556428 0.356324 1.64682e-17 -0.429228 -8.50664e-19 -4.25067e-34)
(0.386968 0.292972 -2.62257e-17 -0.209153 2.30403e-18 -2.37405e-34)
(0.185708 0.25058 -2.96018e-17 -0.0281446 2.54116e-17 3.88352e-34)
(2.34725 -0.0478955 2.31568e-18 -2.11824 5.09451e-18 -6.53724e-35)
(1.80354 0.63424 1.85975e-17 -1.57108 7.69996e-18 -4.09962e-35)
(1.91596 0.958369 -1.82899e-17 -1.77417 -1.41899e-17 -2.29113e-34)
(1.65407 0.99577 -4.15485e-17 -1.42608 3.45978e-17 -3.18664e-34)
(1.37593 0.969834 -2.07098e-17 -1.31007 7.68102e-18 1.44159e-34)
(1.28328 0.92717 3.34838e-17 -1.0244 1.0538e-17 -7.66246e-35)
(0.90819 0.790665 8.0142e-17 -0.8499 -2.11716e-17 9.39046e-34)
(0.814979 0.740348 6.43074e-18 -0.628744 8.24126e-18 8.2446e-35)
(0.575675 0.614621 7.42122e-17 -0.427685 -8.16299e-18 1.3214e-33)
(0.373184 0.531707 3.21622e-17 -0.250469 3.81324e-18 8.41959e-34)
(0.225184 0.432652 -1.79682e-17 -0.0534969 3.02567e-17 -7.64511e-34)
(0.0336183 0.363916 4.60709e-17 0.118504 3.22864e-17 1.03847e-33)
(2.63928 0.138509 2.43686e-18 -2.42169 1.86147e-18 0)
(1.67738 0.856726 -8.05639e-19 -1.45664 -2.13715e-17 0)
(1.64398 1.23441 -3.79082e-17 -1.50956 4.71053e-17 2.90386e-34)
(1.32348 1.24971 7.75602e-17 -1.10749 -3.81936e-17 3.95072e-34)
(1.03856 1.20374 -3.50978e-17 -0.976102 1.22748e-17 -4.07896e-34)
(0.939702 1.13975 4.6228e-17 -0.694614 -3.0749e-17 7.41689e-34)
(0.606634 0.962739 -3.89488e-17 -0.551454 7.15966e-18 -9.67551e-34)
(0.51661 0.892922 9.30897e-17 -0.340316 -5.0258e-17 2.65031e-34)
(0.316288 0.732846 3.90672e-17 -0.176159 -6.2957e-17 -1.96795e-33)
(0.133865 0.623479 1.58713e-17 -0.0176675 -1.89779e-17 -5.57045e-34)
(0.0145711 0.497531 4.25498e-17 0.148039 -1.00665e-19 -4.32172e-34)
(-0.163214 0.404734 1.01735e-16 0.307296 -9.57058e-17 -8.01966e-35)
(2.91836 0.489187 -8.12182e-18 -2.71638 5.65167e-19 0)
(1.51972 1.05194 -3.13284e-17 -1.31503 2.36221e-17 8.14945e-35)
(1.33042 1.42074 4.10133e-17 -1.20544 -1.73048e-17 -3.49737e-34)
(0.951007 1.38509 -4.53048e-17 -0.750652 1.96621e-17 -4.31596e-34)
(0.662444 1.31117 7.35462e-17 -0.604416 -5.01615e-17 -6.16439e-34)
(0.558208 1.22247 -7.92615e-17 -0.330954 -1.49494e-18 2.98956e-34)
(0.274512 1.01701 -1.28888e-17 -0.223397 -3.47854e-17 0)
(0.189029 0.9281 -1.12933e-16 -0.02572 -1.94151e-17 1.45459e-33)
(0.0331498 0.746973 -1.10894e-16 0.0966476 1.9661e-17 2.45363e-33)
(-0.125285 0.616761 -7.84203e-17 0.232861 -1.02765e-17 4.81471e-36)
(-0.212152 0.474393 1.95863e-17 0.362792 -5.31599e-17 -1.34642e-33)
(-0.372861 0.36055 -1.40315e-16 0.506303 -2.13533e-18 8.01966e-35)
(3.11506 0.99761 3.24421e-18 -2.9322 1.01643e-17 0)
(1.3387 1.21721 2.62313e-17 -1.15328 -1.35699e-17 1.16449e-34)
(1.0075 1.51459 -1.18384e-17 -0.894114 -1.05694e-17 -1.00944e-34)
(0.581492 1.39944 -7.76474e-18 -0.400144 1.28573e-18 0)
(0.296005 1.29031 -5.77571e-17 -0.243421 2.14426e-17 2.44167e-34)
(0.189009 1.17383 2.24959e-17 0.0165029 -1.85334e-17 -2.0086e-34)
(-0.0421114 0.952338 -1.19064e-16 0.088336 5.81456e-17 7.12067e-34)
(-0.121461 0.845141 1.44564e-16 0.269027 -1.40684e-17 -2.04929e-33)
(-0.232331 0.656576 2.21475e-17 0.3496 -1.70398e-17 -1.80707e-33)
(-0.364807 0.511563 -6.41019e-17 0.461954 4.51915e-17 1.19135e-33)
(-0.419457 0.363552 5.53618e-18 0.555554 2.10319e-17 0)
(-0.560643 0.232072 -1.06341e-17 0.681177 4.01938e-17 0)
(3.16376 1.63002 3.49019e-18 -3.00275 4.36255e-18 0)
(1.14178 1.35094 -1.63828e-17 -0.978825 4.38783e-17 -5.40544e-34)
(0.706158 1.52446 9.77814e-17 -0.606497 -3.69807e-17 1.77524e-33)
(0.257242 1.30735 -1.61104e-17 -0.0979986 -1.86403e-17 0)
(-0.0153804 1.15764 4.21418e-17 0.0616241 -1.70214e-17 -8.92363e-35)
(-0.120846 1.01159 -5.33459e-17 0.301088 2.01726e-17 7.33894e-35)
(-0.300482 0.785379 1.27677e-16 0.341054 -1.39683e-17 4.5003e-34)
(-0.371967 0.661079 1.07544e-16 0.501254 -2.71789e-17 2.27966e-34)
(-0.44191 0.47719 -1.64834e-16 0.544655 3.4813e-17 -1.4936e-33)
(-0.548292 0.323051 4.3197e-17 0.633352 1.27337e-17 -2.13306e-34)
(-0.574533 0.179006 -1.46484e-17 0.69376 -1.77963e-17 0)
(-0.694578 0.0333804 -1.6582e-17 0.800154 3.28221e-17 0)
(3.01754 2.32897 3.5688e-18 -2.8818 5.49947e-18 0)
(0.935786 1.45487 5.6048e-17 -0.798233 -2.30497e-18 3.97989e-34)
(0.450558 1.46972 -4.03086e-17 -0.366419 -8.24408e-18 -1.51879e-33)
(0.0109993 1.13785 -5.64799e-17 0.123336 2.95982e-17 1.37823e-35)
(-0.236769 0.945241 1.55257e-17 0.275817 -1.14815e-17 9.78788e-36)
(-0.335104 0.769541 1.72745e-17 0.486937 -4.27069e-17 1.78185e-34)
(-0.467643 0.54752 1.84342e-17 0.501865 9.38526e-18 0)
(-0.529425 0.407822 -7.51367e-17 0.638243 -2.21598e-17 -3.35134e-34)
(-0.566158 0.237699 -1.53869e-16 0.652631 2.95058e-17 2.77408e-33)
(-0.647833 0.0791983 3.59038e-17 0.719368 2.05295e-17 5.47346e-34)
(-0.652331 -0.0537061 -3.63061e-17 0.752637 7.96184e-18 5.27319e-34)
(-0.750428 -0.210165 9.54275e-17 0.839231 -6.75047e-18 -9.78052e-34)
(2.65322 3.02093 2.10563e-17 -2.54459 -1.20368e-18 6.07362e-35)
(0.7262 1.53121 -2.89098e-17 -0.616201 -5.54586e-18 -4.70053e-35)
(0.255669 1.37615 -6.41629e-17 -0.188427 3.62152e-17 -2.14976e-34)
(-0.138065 0.929496 1.4867e-16 0.245206 -4.25288e-17 7.93842e-34)
(-0.348158 0.695626 -1.43724e-16 0.379385 4.3155e-17 -3.76794e-34)
(-0.433263 0.492412 1.24509e-16 0.554093 -9.60743e-18 8.88797e-34)
(-0.525326 0.28014 7.01863e-17 0.552624 -8.37956e-17 -1.74513e-33)
(-0.575617 0.127289 -1.85941e-16 0.662123 -7.95383e-18 2.23996e-33)
(-0.589016 -0.0240864 -2.65039e-17 0.657754 3.75424e-17 -1.08479e-33)
(-0.648343 -0.183491 -3.34461e-18 0.705154 1.22447e-18 -5.2159e-35)
(-0.639371 -0.301334 1.2109e-17 0.719056 3.94995e-17 -1.44875e-34)
(-0.715279 -0.465653 7.6887e-17 0.785809 -1.60248e-17 9.78052e-34)
(2.07719 3.62828 6.2819e-18 -1.99784 1.20196e-17 0)
(0.516448 1.58394 2.31926e-17 -0.436098 -7.0152e-18 5.15308e-35)
(0.124607 1.27272 5.5143e-17 -0.0755231 1.04138e-18 1.57017e-34)
(-0.187583 0.724637 -1.16025e-16 0.26557 2.61306e-17 -9.45307e-34)
(-0.347819 0.45521 1.14697e-16 0.370601 -1.14811e-17 5.48455e-34)
(-0.413743 0.228836 -4.05815e-17 0.501429 3.52795e-17 -2.98901e-34)
(-0.472632 0.0281771 -8.16954e-17 0.492471 -8.28568e-18 -5.68577e-34)
(-0.509829 -0.13506 5.58408e-17 0.572508 -1.19524e-17 -5.57096e-34)
(-0.510156 -0.267196 6.13016e-17 0.559948 2.98667e-17 -7.76822e-34)
(-0.54988 -0.425528 5.206e-17 0.59097 5.37741e-18 1.81372e-35)
(-0.535924 -0.527971 1.67646e-16 0.593596 -2.4259e-17 3.50549e-35)
(-0.589789 -0.697643 -8.39884e-17 0.640813 -1.13782e-18 5.18694e-35)
(1.32471 4.07918 6.54066e-18 -1.2757 -1.67185e-18 0)
(0.308497 1.61639 -4.20083e-17 -0.258987 1.35904e-17 -4.95739e-35)
(0.0494507 1.18615 -4.8895e-17 -0.0192111 -1.00262e-18 -9.85901e-35)
(-0.15131 0.562442 6.27894e-17 0.198887 -8.81167e-18 -3.35845e-35)
(-0.251742 0.266952 -6.01494e-17 0.265746 1.72578e-17 1.3186e-35)
(-0.293575 0.0238301 1.46456e-17 0.346658 -1.54485e-17 0)
(-0.325846 -0.166824 -4.07199e-17 0.337897 2.67393e-17 -3.53667e-34)
(-0.348706 -0.337228 2.44432e-17 0.386505 2.65715e-17 1.85025e-34)
(-0.344858 -0.453812 -1.64531e-17 0.374855 8.96642e-18 -4.42792e-34)
(-0.367494 -0.610484 -2.73781e-18 0.392165 2.15329e-17 -7.76733e-34)
(-0.355852 -0.7005 -1.00408e-17 0.390526 -2.82135e-17 2.49759e-34)
(-0.387974 -0.873441 3.46409e-17 0.418618 -2.87558e-17 5.71118e-34)
(0.455342 4.31935 1.13933e-18 -0.437555 -1.04747e-17 0)
(0.102275 1.63171 4.36837e-18 -0.0845246 -8.79979e-18 -4.65561e-35)
(0.012099 1.13724 -8.27055e-18 -0.00125173 1.64508e-17 -3.2719e-35)
(-0.0573472 0.473128 -1.0586e-17 0.0736597 9.59258e-19 7.70064e-36)
(-0.0914362 0.163876 3.87425e-17 0.0963819 -1.10058e-17 2.60258e-36)
(-0.1059 -0.0880414 -1.12596e-17 0.123452 9.82924e-19 9.50307e-36)
(-0.116043 -0.27298 9.90263e-18 0.120063 3.36987e-18 6.11446e-37)
(-0.123775 -0.447018 -1.82332e-17 0.136023 5.45373e-18 -1.85534e-34)
(-0.121755 -0.554959 2.53078e-17 0.131423 -2.43934e-18 -9.78673e-35)
(-0.12906 -0.710479 -1.23798e-17 0.136869 2.0089e-18 -1.80632e-34)
(-0.124637 -0.793595 -3.62084e-18 0.135704 5.40267e-19 -2.48356e-34)
(-0.135278 -0.968078 6.84509e-18 0.145002 -9.1801e-18 4.07988e-35)
(-0.454851 4.31927 2.26825e-18 0.441222 7.62014e-18 1.61354e-35)
(-0.10311 1.63146 2.09545e-17 0.0888739 1.27808e-17 2.37315e-35)
(-0.0118155 1.13719 3.19359e-18 0.0031601 4.4986e-18 3.14422e-35)
(0.0570265 0.473038 -8.34622e-18 -0.0722033 6.78393e-20 -4.36745e-35)
(0.0915206 0.163859 -9.33461e-18 -0.0956912 -7.44191e-18 8.47648e-35)
(0.105574 -0.088064 9.38811e-18 -0.123822 2.08992e-18 1.50913e-35)
(0.115958 -0.27303 -7.50079e-18 -0.120033 -9.46706e-18 9.35222e-36)
(0.123611 -0.447005 -1.59056e-18 -0.137114 -2.02013e-17 1.25795e-34)
(0.12168 -0.554957 -9.53638e-18 -0.132506 -4.1785e-18 1.80482e-34)
(0.129063 -0.710429 -7.94684e-18 -0.138251 9.13732e-18 1.44536e-34)
(0.12454 -0.793553 -8.0894e-19 -0.137271 1.51669e-17 6.84903e-36)
(0.135277 -0.968039 -8.54141e-19 -0.146644 -2.19509e-18 -1.26889e-35)
(-1.32421 4.07898 1.29895e-17 1.2794 -2.85243e-18 -1.8807e-35)
(-0.309166 1.61573 -4.52317e-17 0.263178 -9.28084e-18 3.53599e-34)
(-0.0491442 1.18603 -4.36776e-17 0.0211353 2.97545e-18 4.61368e-35)
(0.151075 0.562201 -2.38273e-17 -0.197477 1.81529e-17 -2.27682e-34)
(0.251844 0.266916 2.39839e-17 -0.265069 2.64775e-18 8.2285e-35)
(0.293302 0.0237787 8.88531e-18 -0.347035 -2.99752e-17 0)
(0.325817 -0.16695 -7.20483e-17 -0.337925 -2.49215e-17 1.03514e-34)
(0.348567 -0.33718 2.0923e-17 -0.387595 -6.4045e-18 -1.33604e-34)
(0.344815 -0.453795 6.31996e-17 -0.375955 -6.47629e-18 -5.94992e-34)
(0.367491 -0.610336 4.07428e-17 -0.393527 1.80669e-17 -6.94106e-35)
(0.355763 -0.700372 -2.2396e-17 -0.39208 -9.98796e-19 5.91908e-35)
(0.387988 -0.873322 -3.54245e-17 -0.420257 1.25408e-17 1.47202e-34)
(-2.07671 3.62786 -8.90642e-18 2.00152 -2.00807e-17 1.50072e-34)
(-0.516917 1.5829 7.1778e-17 0.439982 8.82135e-18 -6.16159e-34)
(-0.124342 1.2725 5.01513e-17 0.0774783 1.89358e-18 7.54053e-35)
(0.187422 0.72428 -3.47281e-17 -0.264234 -6.49973e-18 3.42035e-34)
(0.34789 0.455171 -1.04254e-16 -0.369937 5.4212e-18 1.52948e-34)
(0.413519 0.228782 -1.99753e-17 -0.501802 -2.91343e-18 -2.96388e-34)
(0.472659 0.0280167 1.00267e-16 -0.492591 1.13698e-17 9.95984e-35)
(0.509704 -0.134966 -2.83341e-17 -0.573585 -7.49816e-18 1.82618e-34)
(0.510147 -0.267146 4.29087e-17 -0.561067 -7.38596e-19 1.4741e-33)
(0.549849 -0.425287 4.69096e-17 -0.592288 -1.36147e-17 9.69098e-34)
(0.535839 -0.527755 -6.87046e-18 -0.595119 -2.95646e-17 8.42737e-34)
(0.589824 -0.697432 8.0852e-17 -0.642443 2.48026e-17 -9.06663e-34)
(-2.6527 3.02042 1.3746e-18 2.5484 7.8067e-18 0)
(-0.726342 1.53005 -7.99538e-18 0.619774 -1.25993e-17 0)
(-0.25536 1.3759 -6.30758e-17 0.190443 -3.37284e-17 9.91554e-34)
(0.138037 0.929116 1.46091e-16 -0.243938 1.63498e-17 -1.49819e-34)
(0.348214 0.69562 3.67675e-18 -0.37871 2.15191e-17 4.61322e-34)
(0.433107 0.492396 -3.33152e-17 -0.554426 4.7882e-17 4.19947e-34)
(0.525414 0.280004 -1.41359e-16 -0.552829 -2.22992e-17 -1.74033e-33)
(0.575513 0.127444 3.43693e-17 -0.663156 3.2931e-17 1.10131e-33)
(0.589051 -0.0239835 -3.14511e-17 -0.658879 1.35606e-17 5.6695e-34)
(0.648289 -0.18317 1.2212e-17 -0.706407 -5.60215e-17 3.27434e-34)
(0.639303 -0.301033 -3.0711e-18 -0.720531 -2.15062e-17 2.87052e-34)
(0.715353 -0.465347 9.11825e-17 -0.78742 -3.27667e-17 1.33153e-33)
(-3.01697 2.32818 4.58217e-18 2.88534 -8.72468e-18 0)
(-0.935759 1.45351 -1.00709e-17 0.801381 -2.75979e-17 4.97264e-34)
(-0.45035 1.46933 7.22647e-17 0.368491 5.19777e-17 -5.86719e-34)
(-0.0110579 1.13742 -1.3152e-16 -0.122116 -2.14602e-17 -3.68082e-34)
(0.236692 0.945229 1.44548e-16 -0.275114 2.85381e-17 -4.67142e-34)
(0.334923 0.769548 -4.99909e-17 -0.487198 7.12242e-18 -9.55606e-35)
(0.467719 0.547413 3.40845e-17 -0.502148 3.22105e-17 0)
(0.529308 0.408011 -7.27347e-17 -0.639211 3.10672e-17 8.0639e-34)
(0.566213 0.237846 -1.65321e-16 -0.653752 -8.95779e-18 -3.0778e-33)
(0.647745 0.0795691 -1.12271e-16 -0.720546 -8.5915e-18 -2.79909e-33)
(0.652267 -0.0533243 3.49437e-17 -0.754052 4.45755e-17 1.33375e-33)
(0.750527 -0.209745 -1.7595e-16 -0.840809 -4.79679e-17 -1.33153e-33)
(-3.16326 1.62915 6.17308e-18 3.00656 -1.17966e-17 0)
(-1.1416 1.34966 3.4939e-17 0.981705 9.15124e-18 -2.74136e-34)
(-0.705968 1.52401 3.29013e-17 0.608563 3.45163e-18 -6.39258e-34)
(-0.257315 1.3069 1.30077e-17 0.0991487 2.48186e-17 0)
(0.0152268 1.1576 -6.83067e-17 -0.0609223 -2.30236e-17 1.2537e-34)
(0.120642 1.01159 8.62051e-17 -0.301265 1.23842e-17 -1.03139e-34)
(0.300547 0.785298 -7.19601e-17 -0.3414 -4.65309e-17 1.92336e-33)
(0.371872 0.661288 1.72312e-16 -0.502155 5.10135e-17 -2.41292e-33)
(0.442012 0.477391 6.91779e-17 -0.545763 2.83609e-17 1.0367e-33)
(0.548221 0.323468 -3.86377e-17 -0.634459 2.61168e-18 -1.35872e-34)
(0.574505 0.179479 6.17948e-18 -0.695104 -5.37527e-18 0)
(0.694739 0.0339238 2.70682e-17 -0.801689 5.10434e-17 0)
(-3.11439 0.996443 -2.89198e-18 2.93528 -1.20473e-18 0)
(-1.33845 1.2157 -3.77184e-17 1.15578 -2.89177e-17 2.88055e-35)
(-1.00743 1.51388 6.13724e-17 0.896138 1.99113e-17 6.24175e-34)
(-0.581695 1.39886 7.50059e-18 0.401243 -6.61753e-18 0)
(-0.296268 1.29018 6.52982e-17 0.244079 2.37722e-17 -2.75948e-34)
(-0.18927 1.1738 -4.33566e-17 -0.016612 -2.49722e-17 2.26987e-34)
(0.0421963 0.95229 5.19418e-17 -0.0887745 4.85761e-17 8.25956e-34)
(0.121448 0.845384 -1.29028e-17 -0.269881 1.70564e-17 4.47346e-33)
(0.232522 0.656857 -1.07378e-16 -0.350709 -7.70249e-17 -2.37268e-33)
(0.364799 0.512048 9.73831e-17 -0.462999 -2.54066e-18 1.88208e-33)
(0.419456 0.36415 -5.38517e-19 -0.556805 1.8181e-17 0)
(0.560828 0.232776 1.02096e-17 -0.682616 1.88569e-17 0)
(-2.91797 0.487697 5.56937e-18 2.71952 -7.51755e-19 0)
(-1.51946 1.0504 -4.25605e-18 1.31712 2.79358e-17 3.82422e-34)
(-1.33033 1.41992 -5.97491e-17 1.20706 -4.21664e-17 -5.58884e-34)
(-0.951259 1.38435 -9.50626e-18 0.751608 -1.10749e-17 7.26742e-34)
(-0.662673 1.3109 -9.94813e-18 0.604881 -2.13945e-17 4.40455e-34)
(-0.558462 1.22237 5.99307e-17 0.330845 4.88204e-17 -1.32335e-34)
(-0.274376 1.01698 -6.78848e-17 0.222869 1.77276e-17 0)
(-0.188941 0.928403 -5.4017e-17 0.0248972 -3.83776e-18 -2.47221e-33)
(-0.0328904 0.747378 -6.80281e-17 -0.0977097 -8.96641e-18 6.50198e-35)
(0.125341 0.617354 1.56011e-17 -0.233822 -8.06625e-18 -2.76574e-35)
(0.212152 0.475143 -6.91878e-18 -0.3639 3.75587e-18 1.04579e-33)
(0.373056 0.361429 8.1862e-17 -0.507597 3.22706e-17 9.85914e-34)
(-2.6385 0.136959 -7.71655e-19 2.42409 9.09312e-18 6.94976e-35)
(-1.67696 0.854717 -8.15881e-18 1.45841 -1.04e-17 -5.37825e-35)
(-1.64405 1.23332 -1.01876e-17 1.5109 -1.11637e-17 -6.35599e-34)
(-1.3239 1.2488 8.43056e-17 1.10846 3.10213e-17 -5.15793e-34)
(-1.0388 1.20331 -7.70973e-17 0.976389 -2.62634e-17 1.87341e-34)
(-0.940053 1.13965 7.98542e-17 0.694594 4.62865e-18 -6.16726e-34)
(-0.606459 0.962798 7.64507e-17 0.550906 6.30277e-17 2.02703e-34)
(-0.516433 0.893366 -4.27937e-17 0.339585 1.58809e-17 3.99423e-34)
(-0.315994 0.733442 4.44194e-17 0.175215 1.22073e-17 7.37898e-34)
(-0.133749 0.6242 1.05233e-17 0.0168439 2.16209e-17 5.57192e-34)
(-0.0146168 0.498443 -7.29014e-18 -0.148933 1.53177e-17 2.21161e-34)
(0.163344 0.405783 -1.95148e-17 -0.308336 -4.26006e-17 -9.85914e-34)
(-2.34693 -0.0497538 -3.25959e-18 2.12023 -9.89816e-18 0)
(-1.8033 0.631977 8.61096e-18 1.5723 -6.39254e-18 2.55541e-34)
(-1.91602 0.957293 7.77727e-18 1.77527 8.36942e-18 2.4854e-36)
(-1.65451 0.994542 -5.7916e-17 1.42697 -4.70762e-17 7.58045e-35)
(-1.37607 0.969229 6.68273e-17 1.31012 1.92665e-17 -2.46758e-34)
(-1.28361 0.92707 -6.04169e-17 1.0245 -3.59277e-17 4.69121e-34)
(-0.908005 0.790667 2.01442e-17 0.849354 -3.42918e-17 6.71256e-34)
(-0.814776 0.740866 1.11472e-16 0.628149 1.80283e-17 -1.28871e-33)
(-0.575474 0.61528 6.54027e-17 0.426926 -2.08697e-17 -1.81782e-33)
(-0.373072 0.532468 6.01391e-17 0.249743 -5.52504e-18 -1.4603e-33)
(-0.225318 0.433647 1.02268e-16 0.0527649 2.17554e-17 -1.0889e-33)
(-0.0336404 0.365072 -7.62611e-17 -0.119321 -1.9735e-18 -4.58885e-34)
(-2.10942 -0.0945581 -1.99298e-17 1.8743 4.18998e-18 0)
(-1.89177 0.387882 -2.44621e-17 1.65225 -1.22041e-17 -3.41571e-34)
(-2.11647 0.606979 3.80056e-19 1.97053 -2.02561e-17 -2.98111e-35)
(-1.90165 0.640741 2.09686e-17 1.66591 2.48209e-17 4.82206e-35)
(-1.62982 0.628802 -3.72489e-17 1.56144 -2.30119e-17 -6.48749e-35)
(-1.54268 0.605064 1.22464e-17 1.27437 1.05366e-17 0)
(-1.13655 0.518972 -3.81085e-17 1.07581 -1.54024e-17 1.13055e-34)
(-1.04131 0.489065 7.92297e-18 0.848098 -3.68273e-17 -5.88022e-35)
(-0.773194 0.408863 -2.65062e-17 0.619419 -2.58911e-17 1.38537e-35)
(-0.556227 0.357107 -1.79353e-17 0.428583 -3.95238e-17 2.21233e-34)
(-0.387103 0.293975 -5.0896e-18 0.208498 -2.32675e-17 6.13958e-34)
(-0.185814 0.251879 2.98395e-17 0.0275003 4.20915e-17 -4.43017e-34)
(-1.97682 -0.0434741 -5.31019e-19 1.73731 7.07784e-18 0)
(-1.93734 0.130101 6.0354e-18 1.6934 2.39337e-17 1.17114e-34)
(-2.22278 0.207597 4.51907e-19 2.07414 4.36733e-18 5.74313e-36)
(-2.03372 0.220847 1.02982e-17 1.79381 -1.00697e-17 -2.41926e-36)
(-1.7659 0.217639 1.44262e-17 1.69627 1.51491e-17 1.34425e-35)
(-1.68179 0.210188 -6.71169e-18 1.40886 -1.38682e-18 1.00069e-35)
(-1.25964 0.180899 1.37452e-17 1.19784 3.41184e-18 -2.07337e-35)
(-1.16342 0.17101 -2.41647e-17 0.966923 -6.28874e-18 7.61169e-35)
(-0.879979 0.143507 -4.80764e-18 0.723608 1.26675e-18 1.12922e-35)
(-0.655352 0.125843 -3.20363e-17 0.525578 -4.33248e-18 1.58352e-35)
(-0.474818 0.104194 -1.98973e-17 0.293218 -5.0842e-18 8.27549e-35)
(-0.268593 0.0901114 2.93176e-18 0.107636 -1.40372e-17 -2.90501e-35)
(-1.97675 0.0414857 2.35621e-18 1.73695 1.96581e-18 -2.98881e-36)
(-1.93733 -0.13239 7.43313e-18 1.69315 -2.5785e-17 1.32469e-34)
(-2.22272 -0.208901 1.34543e-18 2.07392 -1.35332e-17 1.36545e-35)
(-2.03363 -0.222174 -5.91455e-19 1.79365 -5.57398e-18 -1.2406e-35)
(-1.76587 -0.218301 8.05662e-18 1.69618 -1.99247e-18 -2.23171e-35)
(-1.68176 -0.210234 5.83265e-18 1.40888 -6.25372e-19 -5.32934e-36)
(-1.25971 -0.180473 -8.68318e-18 1.19792 -3.21519e-18 1.62255e-35)
(-1.16344 -0.170305 -1.29889e-17 0.967033 2.00789e-17 1.6008e-34)
(-0.880038 -0.142557 -2.03669e-17 0.723746 1.16491e-17 1.10414e-34)
(-0.655369 -0.125063 -1.32022e-17 0.525685 4.55093e-18 8.51996e-36)
(-0.474846 -0.103204 2.63247e-20 0.293359 -1.09733e-17 -5.38421e-35)
(-0.268662 -0.0887536 -1.16727e-17 0.107815 -1.11218e-17 5.91788e-36)
(-2.10923 0.0926857 -1.47975e-17 1.87323 -8.66487e-18 7.76171e-35)
(-1.89176 -0.390156 -3.95922e-17 1.6515 2.03598e-17 -3.23501e-34)
(-2.11631 -0.608206 -6.40029e-18 1.9699 1.08836e-17 -1.94383e-34)
(-1.90141 -0.642013 -9.7353e-19 1.66547 -1.09174e-17 1.48658e-35)
(-1.62974 -0.629434 1.33295e-17 1.56117 -1.38436e-17 1.6687e-35)
(-1.54259 -0.605105 -9.98991e-18 1.27443 1.39185e-17 0)
(-1.13676 -0.518596 -2.07172e-17 1.07602 3.697e-17 3.87416e-34)
(-1.04139 -0.488394 3.83947e-17 0.848422 7.73816e-18 -1.73628e-34)
(-0.773365 -0.407965 2.5828e-17 0.619826 1.61895e-17 -3.46199e-34)
(-0.556276 -0.35635 1.64677e-17 0.428901 -8.52499e-19 4.25109e-34)
(-0.387184 -0.293019 -2.62185e-17 0.208914 2.30625e-18 2.37299e-34)
(-0.186014 -0.250579 -2.96013e-17 0.0280296 2.54081e-17 -3.88325e-34)
(-2.34667 0.0481005 2.32323e-18 2.11852 5.09299e-18 6.54245e-35)
(-1.80327 -0.634218 1.85914e-17 1.57106 7.70733e-18 4.096e-35)
(-1.91578 -0.958377 -1.82901e-17 1.77426 -1.41927e-17 2.29109e-34)
(-1.65413 -0.995707 -4.15426e-17 1.42626 3.4599e-17 3.18614e-34)
(-1.37596 -0.969807 -2.07065e-17 1.3097 7.68556e-18 -1.43986e-34)
(-1.28346 -0.927103 3.34758e-17 1.02461 1.05355e-17 7.64871e-35)
(-0.908315 -0.790384 8.01345e-17 0.849676 -2.11742e-17 -9.38846e-34)
(-0.814898 -0.740259 6.43211e-18 0.628671 8.24066e-18 -8.24654e-35)
(-0.575735 -0.614481 7.42086e-17 0.427576 -8.16561e-18 -1.32122e-33)
(-0.373148 -0.531755 3.21617e-17 0.250261 3.81483e-18 -8.41847e-34)
(-0.225442 -0.43276 -1.79703e-17 0.0534391 3.02552e-17 7.64396e-34)
(-0.0339498 -0.363881 4.60726e-17 -0.118469 3.22853e-17 -1.03835e-33)
(-2.63823 -0.138315 2.43487e-18 2.42182 1.85806e-18 0)
(-1.67688 -0.8569 -8.07544e-19 1.45668 -2.13738e-17 0)
(-1.64378 -1.23421 -3.79026e-17 1.50958 4.71066e-17 -2.90382e-34)
(-1.32342 -1.24983 7.75472e-17 1.10753 -3.81978e-17 -3.95043e-34)
(-1.03866 -1.20381 -3.5098e-17 0.975832 1.2267e-17 4.07929e-34)
(-0.939867 -1.13968 4.62259e-17 0.694752 -3.07509e-17 -7.41664e-34)
(-0.606836 -0.962639 -3.89446e-17 0.551298 7.16219e-18 9.67419e-34)
(-0.516577 -0.892848 9.30825e-17 0.340279 -5.02558e-17 -2.65004e-34)
(-0.316312 -0.732778 3.90642e-17 0.176068 -6.2951e-17 1.96779e-33)
(-0.133844 -0.623552 1.58727e-17 0.0175481 -1.89729e-17 5.56945e-34)
(-0.0147664 -0.497651 4.25493e-17 -0.148026 -1.01245e-19 4.3217e-34)
(0.162959 -0.404744 1.01736e-16 -0.307205 -9.56985e-17 8.01844e-35)
(-2.91777 -0.48871 -8.11973e-18 2.71681 5.67108e-19 0)
(-1.51931 -1.0525 -3.13303e-17 1.31489 2.36299e-17 -8.14553e-35)
(-1.3301 -1.42059 4.10011e-17 1.20551 -1.73042e-17 3.49817e-34)
(-0.950723 -1.38521 -4.52977e-17 0.750497 1.96649e-17 4.3154e-34)
(-0.66254 -1.31132 7.35364e-17 0.60422 -5.01577e-17 6.16499e-34)
(-0.55824 -1.22238 -7.92585e-17 0.331054 -1.49261e-18 -2.98992e-34)
(-0.274771 -1.01696 -1.28905e-17 0.223285 -3.47813e-17 0)
(-0.189085 -0.927992 -1.12927e-16 0.0257326 -1.94115e-17 -1.45453e-33)
(-0.0332253 -0.746871 -1.10884e-16 -0.0967049 1.96634e-17 -2.45365e-33)
(0.125237 -0.616786 -7.84188e-17 -0.232953 -1.02764e-17 -4.80466e-36)
(0.211997 -0.474467 1.95866e-17 -0.362794 -5.31581e-17 1.34634e-33)
(0.372635 -0.360569 -1.4032e-16 -0.50624 -2.13604e-18 -8.01844e-35)
(-3.11435 -0.997103 3.24878e-18 2.93227 1.01668e-17 0)
(-1.33821 -1.21765 2.623e-17 1.15307 -1.3568e-17 -1.16567e-34)
(-1.00729 -1.51434 -1.18416e-17 0.894438 -1.05708e-17 1.00906e-34)
(-0.581142 -1.39954 -7.7691e-18 0.40001 1.28575e-18 0)
(-0.296157 -1.29051 -5.77527e-17 0.243344 2.14426e-17 -2.44158e-34)
(-0.189017 -1.17382 2.24935e-17 -0.0163505 -1.85291e-17 2.00852e-34)
(0.0418315 -0.952406 -1.19056e-16 -0.0883863 5.81438e-17 -7.11917e-34)
(0.121329 -0.845086 1.44551e-16 -0.268941 -1.40701e-17 2.04911e-33)
(0.232213 -0.656513 2.21446e-17 -0.349606 -1.70432e-17 1.80706e-33)
(0.364697 -0.511573 -6.40961e-17 -0.461991 4.51897e-17 -1.19129e-33)
(0.419317 -0.363602 5.536e-18 -0.555538 2.1031e-17 0)
(0.560415 -0.232106 -1.06315e-17 -0.681093 4.01921e-17 0)
(-3.16343 -1.62948 3.4925e-18 3.00336 4.36258e-18 0)
(-1.14124 -1.35144 -1.63748e-17 0.978552 4.38808e-17 5.40637e-34)
(-0.70596 -1.52427 9.77844e-17 0.606789 -3.69876e-17 -1.77543e-33)
(-0.256776 -1.30742 -1.6112e-17 0.0978381 -1.86443e-17 0)
(0.0153031 -1.15786 4.2138e-17 -0.0617042 -1.70241e-17 8.92248e-35)
(0.120922 -1.01161 -5.33426e-17 -0.300957 2.01724e-17 -7.33805e-35)
(0.300258 -0.785526 1.27669e-16 -0.341085 -1.39706e-17 -4.49924e-34)
(0.371801 -0.661101 1.07539e-16 -0.501148 -2.71802e-17 -2.2778e-34)
(0.441767 -0.4772 -1.64829e-16 -0.544615 3.48147e-17 1.49328e-33)
(0.548134 -0.323094 4.31937e-17 -0.63334 1.27338e-17 2.13371e-34)
(0.574402 -0.179061 -1.46485e-17 -0.693717 -1.77944e-17 0)
(0.694374 -0.0334397 -1.65813e-17 -0.800059 3.28225e-17 0)
(-3.01739 -2.32824 3.57026e-18 2.88206 5.50029e-18 0)
(-0.935277 -1.45505 5.60449e-17 0.797818 -2.30761e-18 -3.97994e-34)
(-0.450496 -1.46944 -4.02945e-17 0.3667 -8.24933e-18 1.51904e-33)
(-0.010553 -1.1378 -5.64754e-17 -0.123468 2.95982e-17 -1.37554e-35)
(0.236727 -0.945423 1.5528e-17 -0.275921 -1.14801e-17 -9.75427e-36)
(0.33523 -0.769577 1.72726e-17 -0.486851 -4.27043e-17 -1.78155e-34)
(0.467539 -0.547713 1.84304e-17 -0.501939 9.38302e-18 0)
(0.529303 -0.407922 -7.51339e-17 -0.638171 -2.21556e-17 3.34994e-34)
(0.56606 -0.237782 -1.53859e-16 -0.652603 2.95073e-17 -2.77385e-33)
(0.647684 -0.0792951 3.59004e-17 -0.719345 2.05284e-17 -5.47285e-34)
(0.652216 0.0536186 -3.63049e-17 -0.752585 7.96287e-18 -5.27278e-34)
(0.75024 0.210063 9.5428e-17 -0.839126 -6.75112e-18 9.78043e-34)
(-2.65337 -3.02029 2.10569e-17 2.5451 -1.20604e-18 -6.07414e-35)
(-0.72573 -1.53129 -2.89084e-17 0.61586 -5.55073e-18 4.70091e-35)
(-0.255654 -1.37591 -6.41619e-17 0.18867 3.62188e-17 2.14825e-34)
(0.138501 -0.929361 1.4866e-16 -0.245309 -4.25361e-17 -7.93808e-34)
(0.348212 -0.69576 -1.43715e-16 -0.379526 4.31561e-17 3.76699e-34)
(0.433442 -0.492432 1.24503e-16 -0.554054 -9.61039e-18 -8.88721e-34)
(0.525359 -0.280325 7.01837e-17 -0.552742 -8.37924e-17 1.74495e-33)
(0.575582 -0.127432 -1.85932e-16 -0.662109 -7.95108e-18 -2.23975e-33)
(0.589003 0.0239571 -2.65026e-17 -0.657762 3.75399e-17 1.08471e-33)
(0.648259 0.183348 -3.34631e-18 -0.705151 1.2246e-18 5.21929e-35)
(0.639311 0.301216 1.21079e-17 -0.719018 3.94988e-17 1.44884e-34)
(0.715159 0.46553 7.68854e-17 -0.785726 -1.60253e-17 -9.78043e-34)
(-2.07759 -3.62761 6.28182e-18 1.99824 1.20174e-17 0)
(-0.516187 -1.58379 2.31908e-17 0.435794 -7.01741e-18 -5.15186e-35)
(-0.12475 -1.27246 5.51386e-17 0.0757309 1.03949e-18 -1.56946e-34)
(0.187849 -0.724409 -1.16014e-16 -0.26561 2.61365e-17 9.45215e-34)
(0.347859 -0.455266 1.1469e-16 -0.370751 -1.14845e-17 -5.48356e-34)
(0.413883 -0.228817 -4.05785e-17 -0.501417 3.52782e-17 2.989e-34)
(0.47272 -0.0283029 -8.16882e-17 -0.492617 -8.28343e-18 5.6851e-34)
(0.509844 0.134927 5.58403e-17 -0.572549 -1.19504e-17 5.57073e-34)
(0.510196 0.267071 6.12994e-17 -0.559995 2.98648e-17 7.76742e-34)
(0.549848 0.425377 5.20595e-17 -0.590999 5.37808e-18 -1.81793e-35)
(0.535903 0.527845 1.67642e-16 -0.593586 -2.42595e-17 -3.51541e-35)
(0.58972 0.697514 -8.39868e-17 -0.640764 -1.13923e-18 -5.18255e-35)
(-1.32522 -4.07865 6.54102e-18 1.27615 -1.67205e-18 0)
(-0.308343 -1.61622 -4.20067e-17 0.25881 1.35902e-17 4.95384e-35)
(-0.0496129 -1.18596 -4.88929e-17 0.0194012 -1.00176e-18 9.85357e-35)
(0.151473 -0.56222 6.27858e-17 -0.19885 -8.81124e-18 3.36007e-35)
(0.251798 -0.266972 -6.01465e-17 -0.265873 1.7259e-17 -1.32076e-35)
(0.293688 -0.0238019 1.46446e-17 -0.346644 -1.54475e-17 0)
(0.325964 0.166746 -4.07191e-17 -0.338031 2.67401e-17 3.53597e-34)
(0.348762 0.337113 2.44434e-17 -0.386574 2.65694e-17 -1.85004e-34)
(0.344934 0.453708 -1.64514e-17 -0.374924 8.96612e-18 4.42763e-34)
(0.367511 0.610346 -2.73674e-18 -0.39222 2.15324e-17 7.76713e-34)
(0.355868 0.700383 -1.00394e-17 -0.390545 -2.8212e-17 -2.49712e-34)
(0.387953 0.87333 3.46405e-17 -0.418606 -2.8755e-17 -5.71101e-34)
(-0.455906 -4.31891 1.13998e-18 0.437975 -1.04751e-17 0)
(-0.102253 -1.63153 4.36928e-18 0.0844432 -8.80159e-18 4.65564e-35)
(-0.0122873 -1.13711 -8.27212e-18 0.00141401 1.64493e-17 3.27104e-35)
(0.0573943 -0.472945 -1.05844e-17 -0.0735625 9.5939e-19 -7.69212e-36)
(0.0914743 -0.16388 3.87408e-17 -0.0964768 -1.10053e-17 -2.59169e-36)
(0.105969 0.0880644 -1.12591e-17 -0.12343 9.83311e-19 -9.5053e-36)
(0.116144 0.272938 9.90267e-18 -0.120165 3.36912e-18 -6.06532e-37)
(0.123836 0.446926 -1.82328e-17 -0.136101 5.45409e-18 1.85508e-34)
(0.12183 0.554882 2.53068e-17 -0.131494 -2.43896e-18 9.78626e-35)
(0.129093 0.710363 -1.23798e-17 -0.136936 2.00907e-18 1.80612e-34)
(0.124664 0.793494 -3.62102e-18 -0.135746 5.40987e-19 2.48343e-34)
(0.135279 0.967987 6.84535e-18 -0.145021 -9.1794e-18 -4.07953e-35)
(0.454329 -4.31892 2.26814e-18 -0.440814 7.61773e-18 -1.61306e-35)
(0.103114 -1.63135 2.09527e-17 -0.0888912 1.27775e-17 -2.37155e-35)
(0.0116888 -1.13712 3.19393e-18 -0.00303833 4.49791e-18 -3.14349e-35)
(-0.057007 -0.472926 -8.3452e-18 0.0723299 6.84202e-20 4.36638e-35)
(-0.0914607 -0.163868 -9.3328e-18 0.0956209 -7.44103e-18 -8.47499e-35)
(-0.10551 0.0880699 9.38777e-18 0.123848 2.08952e-18 -1.50863e-35)
(-0.115864 0.273002 -7.49971e-18 0.119964 -9.46624e-18 -9.3591e-36)
(-0.12354 0.446932 -1.59068e-18 0.137036 -2.01997e-17 -1.25795e-34)
(-0.121616 0.5549 -9.53679e-18 0.132443 -4.17808e-18 -1.80477e-34)
(-0.129024 0.710335 -7.9475e-18 0.138182 9.13726e-18 -1.44532e-34)
(-0.124511 0.793469 -8.09368e-19 0.137213 1.51668e-17 -6.84794e-36)
(-0.135269 0.967964 -8.54041e-19 0.146599 -2.19461e-18 1.2687e-35)
(1.32376 -4.07867 1.29895e-17 -1.27899 -2.85276e-18 1.88079e-35)