/*--------------------------------*- C++ -*----------------------------------*\
| =========                 |                                                 |
| \\      /  F ield         | foam-extend: Open Source CFD                    |
|  \\    /   O peration     | Version:  3.0                                   |
|   \\  /    A nd           | Web:         http://www.extend-project.de       |
|    \\/     M anipulation  |                                                 |
\*---------------------------------------------------------------------------*/
FoamFile
{
    version     2.0;
    format      ascii;
    class       volVectorField;
    location    "11";
    object      u;
}
// * * * * * * * * * * * * * * * * * * * * * * * * * * * * * * * * * * * * * //

dimensions      [0 0 0 0 0 0 0];

internalField   nonuniform List<vector> 
576
(
(0.0499354 -0.0256744 5.10162e-20)
(0.140587 -0.0313909 2.33947e-19)
(0.245486 -0.0449664 -4.79848e-19)
(0.379324 -0.0459914 -5.89795e-19)
(0.476608 -0.0499792 1.29561e-19)
(0.5998 -0.0472547 4.71347e-19)
(0.690762 -0.0460577 4.46751e-19)
(0.772911 -0.0412945 6.7916e-19)
(0.864633 -0.035002 8.96972e-20)
(0.903554 -0.0283105 2.12258e-19)
(0.974624 -0.0175421 6.84488e-19)
(0.98125 -0.00777368 -2.15066e-19)
(0.0632472 -0.0752798 1.94911e-19)
(0.156879 -0.0925391 -3.66286e-18)
(0.268901 -0.132367 -2.46128e-18)
(0.403245 -0.135484 -8.54933e-19)
(0.50264 -0.14728 1.26131e-18)
(0.624397 -0.139245 -4.00013e-19)
(0.714748 -0.135749 -3.17112e-19)
(0.79442 -0.121733 6.9828e-18)
(0.882875 -0.103203 5.71783e-18)
(0.918323 -0.0835214 4.11878e-19)
(0.983788 -0.0517956 -4.07126e-18)
(0.985314 -0.0229714 -4.26454e-18)
(0.0889119 -0.119751 -3.59784e-19)
(0.188486 -0.14733 1.85591e-18)
(0.314087 -0.210675 -7.83559e-19)
(0.44956 -0.21571 -5.00788e-18)
(0.552974 -0.234498 -2.41069e-18)
(0.671984 -0.221685 4.42504e-18)
(0.761176 -0.216172 7.45729e-18)
(0.836032 -0.193835 2.38453e-18)
(0.918172 -0.164341 9.79082e-18)
(0.946883 -0.133022 3.38162e-18)
(1.00149 -0.082493 1.50153e-18)
(0.993167 -0.0366003 1.00868e-17)
(0.125251 -0.156084 -3.60515e-19)
(0.23324 -0.192094 8.52971e-19)
(0.378058 -0.274658 -2.4084e-18)
(0.515069 -0.281219 4.75687e-18)
(0.624171 -0.305726 -6.55777e-18)
(0.739301 -0.289012 -1.36362e-18)
(0.826815 -0.281834 -2.02581e-19)
(0.894878 -0.252707 9.60815e-18)
(0.968065 -0.21426 7.61862e-18)
(0.987265 -0.173427 9.84845e-18)
(1.02652 -0.107548 7.6248e-18)
(1.00428 -0.0477102 2.21921e-17)
(0.169722 -0.181738 -2.38163e-19)
(0.287987 -0.22373 -9.98277e-19)
(0.456348 -0.319895 2.89204e-20)
(0.595273 -0.327546 -1.68001e-19)
(0.711345 -0.356091 3.43504e-18)
(0.821734 -0.336632 -8.66643e-18)
(0.907201 -0.32827 -5.66085e-18)
(0.966956 -0.294345 -1.66526e-17)
(1.02918 -0.249562 -1.64436e-17)
(1.03673 -0.201999 -5.75695e-18)
(1.05719 -0.125268 -6.03893e-18)
(1.01789 -0.0555696 -2.41848e-17)
(0.219356 -0.195045 2.46288e-19)
(0.349109 -0.24013 1.48054e-18)
(0.543723 -0.343317 -3.52835e-20)
(0.684755 -0.351539 -3.66524e-18)
(0.808603 -0.382164 -6.7909e-19)
(0.913694 -0.361289 -2.46216e-18)
(0.99687 -0.352313 -6.66561e-18)
(1.04736 -0.315903 5.62117e-19)
(1.09735 -0.267846 -7.40855e-18)
(1.09191 -0.216795 -1.32482e-17)
(1.09141 -0.134449 1.96239e-18)
(1.03308 -0.0596383 -7.26038e-18)
(0.270703 -0.195014 4.36762e-19)
(0.412346 -0.240127 6.31822e-19)
(0.634142 -0.343318 6.84322e-18)
(0.777367 -0.351552 1.27815e-18)
(0.909276 -0.382171 3.56682e-19)
(1.00889 -0.361308 -1.53714e-18)
(1.0897 -0.352325 8.31899e-19)
(1.1306 -0.315917 3.64831e-18)
(1.16793 -0.26786 -9.43155e-19)
(1.14904 -0.216802 3.32405e-18)
(1.12683 -0.134459 -7.15281e-19)
(1.04879 -0.0596373 -4.6231e-18)
(0.32032 -0.181731 2.90247e-19)
(0.473462 -0.223774 1.00702e-18)
(0.72151 -0.31992 4.43476e-18)
(0.866844 -0.327597 -3.90095e-18)
(1.00654 -0.356119 7.30289e-18)
(1.10085 -0.336687 -5.20374e-18)
(1.17937 -0.328309 -3.72535e-18)
(1.21101 -0.294387 3.42469e-19)
(1.23611 -0.249609 -1.15859e-17)
(1.20423 -0.202024 4.86715e-18)
(1.16105 -0.125302 1.15739e-18)
(1.06398 -0.0555698 1.02384e-17)
(0.364786 -0.156043 4.2662e-19)
(0.528236 -0.192142 8.37148e-19)
(0.799821 -0.274698 -2.68953e-18)
(0.94705 -0.281295 4.33074e-18)
(1.09373 -0.305776 -4.45156e-18)
(1.18329 -0.2891 6.92629e-18)
(1.25976 -0.281898 -2.22776e-18)
(1.28311 -0.252773 -1.45753e-17)
(1.29723 -0.214329 -1.33154e-17)
(1.25371 -0.173463 -5.16882e-18)
(1.19173 -0.107598 -1.13138e-17)
(1.07759 -0.0477092 1.12206e-17)
(0.401104 -0.119735 7.54895e-19)
(0.572979 -0.147422 1.84607e-18)
(0.863781 -0.210753 2.40273e-20)
(1.01255 -0.215811 3.60254e-18)
(1.16493 -0.234581 2.60796e-19)
(1.25062 -0.221795 4.93242e-18)
(1.32541 -0.21626 7.31703e-18)
(1.34198 -0.193917 -2.77848e-18)
(1.34714 -0.164431 3.1119e-18)
(1.29411 -0.133067 5.53916e-18)
(1.21679 -0.0825555 4.35446e-18)
(1.08871 -0.0365932 -5.21244e-18)
(0.42678 -0.07526 1.81698e-19)
(0.604613 -0.0926396 -1.75348e-19)
(0.908999 -0.132427 1.63438e-18)
(1.05887 -0.135601 -2.62801e-18)
(1.21528 -0.14738 2.1506e-18)
(1.29823 -0.139354 -9.7952e-20)
(1.37182 -0.135866 -7.84937e-19)
(1.38361 -0.121825 6.73485e-18)
(1.38243 -0.103313 6.158e-18)
(1.32268 -0.0835888 8.68756e-18)
(1.23451 -0.0518792 1.33831e-17)
(1.09657 -0.022979 -1.91699e-18)
(0.440073 -0.0256554 -5.08261e-20)
(0.621 -0.0315385 -1.86933e-18)
(0.932412 -0.0450656 -1.24038e-18)
(1.08285 -0.0461341 2.07251e-18)
(1.24134 -0.0501196 -1.47384e-18)
(1.32288 -0.0473973 3.80317e-19)
(1.39585 -0.0461954 -1.32119e-18)
(1.40517 -0.0414128 1.45601e-18)
(1.4007 -0.0351398 2.30636e-19)
(1.33747 -0.0284008 1.11734e-18)
(1.24368 -0.0176605 1.24793e-18)
(1.10063 -0.00779443 2.27983e-18)
(0.44007 0.0257019 -4.22051e-20)
(0.621013 0.0317226 1.47757e-18)
(0.932412 0.0453799 1.61449e-18)
(1.08286 0.0464936 2.00988e-18)
(1.24134 0.0505734 1.65292e-18)
(1.32289 0.0478089 1.22336e-19)
(1.39585 0.0466401 2.15395e-18)
(1.40517 0.0418396 -3.04412e-18)
(1.40071 0.0354413 -3.38729e-18)
(1.33747 0.0287356 -4.18098e-18)
(1.24369 0.0177683 -1.34597e-19)
(1.10063 0.00792528 1.32672e-18)
(0.426774 0.0753096 3.88696e-19)
(0.604655 0.0928318 -1.25606e-18)
(0.909004 0.132744 -1.96493e-19)
(1.0589 0.135969 1.26793e-18)
(1.21528 0.147836 3.56607e-18)
(1.29826 0.139776 6.17739e-19)
(1.37183 0.136314 -4.5869e-18)
(1.38363 0.122258 -2.84517e-18)
(1.38244 0.10362 -6.05626e-18)
(1.32268 0.0839262 -4.83001e-18)
(1.23453 0.0519927 7.95681e-19)
(1.09656 0.0231091 -4.21083e-18)
(0.401087 0.119786 4.0761e-20)
(0.573039 0.147625 -3.35811e-18)
(0.863781 0.211073 -5.66032e-19)
(1.01259 0.216195 -5.18597e-18)
(1.16493 0.23504 9.53391e-19)
(1.25066 0.222236 -6.30808e-19)
(1.32541 0.216714 2.64104e-18)
(1.34201 0.194362 9.86868e-19)
(1.34716 0.16475 2.94115e-18)
(1.29412 0.13341 2.6024e-18)
(1.21682 0.08268 -3.62573e-19)
(1.0887 0.0367222 -9.77723e-18)
(0.364762 0.156098 -7.94995e-19)
(0.528319 0.192369 1.90901e-18)
(0.799825 0.275027 -2.93986e-18)
(0.947099 0.281704 -7.20002e-19)
(1.09373 0.306242 -6.58415e-18)
(1.18335 0.289568 5.50811e-18)
(1.25977 0.282363 9.26569e-18)
(1.28315 0.253238 6.63355e-18)
(1.29725 0.214665 1.64116e-17)
(1.25372 0.173814 1.23121e-17)
(1.19177 0.107739 -3.85516e-18)
(1.07759 0.047837 5.85222e-18)
(0.320274 0.181771 -5.51642e-19)
(0.473542 0.224015 -1.39823e-18)
(0.721495 0.320249 -5.397e-18)
(0.866883 0.328031 5.15384e-18)
(1.00653 0.35659 -9.85035e-19)
(1.1009 0.337185 2.64553e-18)
(1.17937 0.328785 2.6014e-18)
(1.21105 0.294873 4.83171e-18)
(1.23613 0.249964 1.06277e-17)
(1.20424 0.202385 8.06091e-18)
(1.16109 0.125462 4.58021e-18)
(1.06397 0.055696 2.30711e-17)
(0.270656 0.195055 -6.56686e-19)
(0.412441 0.240405 -1.84561e-18)
(0.634129 0.343657 -1.71889e-18)
(0.777411 0.352019 -2.65269e-18)
(0.90927 0.382653 1.26234e-18)
(1.00894 0.36184 -3.12037e-18)
(1.0897 0.352817 -4.47433e-18)
(1.13064 0.316429 -1.39538e-17)
(1.16795 0.26824 3.15224e-18)
(1.14905 0.217176 -5.8196e-18)
(1.12687 0.13464 -4.02471e-19)
(1.04879 0.0597639 -8.12665e-18)
(0.219289 0.195044 -1.78742e-19)
(0.34918 0.240422 3.60228e-19)
(0.543682 0.343655 -8.15932e-19)
(0.684779 0.352032 -2.88236e-19)
(0.808577 0.382655 -3.3953e-18)
(0.91373 0.361854 1.14779e-19)
(0.996859 0.352822 -6.45015e-18)
(1.04739 0.316438 1.50398e-17)
(1.09737 0.268249 1.49793e-17)
(1.09191 0.21718 -8.46009e-18)
(1.09144 0.134649 4.54956e-18)
(1.03307 0.0597633 -4.74545e-18)
(0.169676 0.181738 -2.99695e-19)
(0.28807 0.224067 -7.62181e-19)
(0.456318 0.320244 6.26066e-18)
(0.595299 0.32807 -2.50694e-18)
(0.711316 0.356596 2.82574e-18)
(0.821761 0.337225 -5.14748e-18)
(0.907185 0.328798 4.35764e-18)
(0.966969 0.2949 1.22768e-17)
(1.02919 0.249989 -1.05254e-18)
(1.03673 0.202395 -6.03794e-18)
(1.05722 0.125488 -6.22498e-18)
(1.01789 0.0556944 -1.89174e-17)
(0.125196 0.156044 -4.90481e-19)
(0.233276 0.192452 2.07274e-18)
(0.37799 0.275019 -8.77848e-19)
(0.515071 0.281766 -3.19193e-18)
(0.624113 0.306252 9.50083e-19)
(0.739301 0.289632 -7.32568e-18)
(0.826784 0.282384 4.34857e-19)
(0.894866 0.253281 1.58773e-18)
(0.968063 0.214706 -1.27827e-17)
(0.987244 0.173831 -7.74636e-18)
(1.02653 0.107782 -1.24055e-17)
(1.00428 0.0478346 -2.66546e-18)
(0.0888821 0.119714 1.18994e-19)
(0.188531 0.147732 -1.21548e-19)
(0.314036 0.211062 -8.53418e-19)
(0.44956 0.216275 3.29108e-18)
(0.552912 0.235054 -5.48162e-18)
(0.671968 0.222319 3.79344e-18)
(0.761136 0.216743 -2.43238e-18)
(0.835992 0.19442 -1.40829e-17)
(0.918148 0.164803 -1.11662e-17)
(0.946841 0.133433 -1.47893e-17)
(1.00147 0.0827363 -1.14819e-17)
(0.993163 0.0367194 1.72916e-17)
(0.0632083 0.075224 7.75144e-19)
(0.156885 0.0929563 3.09573e-18)
(0.268815 0.132732 1.38159e-18)
(0.403233 0.136061 -1.55901e-18)
(0.502565 0.147854 2.8579e-18)
(0.624352 0.139873 -8.13784e-19)
(0.714715 0.136348 5.66092e-19)
(0.794359 0.122326 -1.94911e-18)
(0.88285 0.103682 5.69985e-19)
(0.918271 0.0839545 -1.44033e-18)
(0.983752 0.0520587 -2.35546e-18)
(0.985304 0.0231065 -7.41855e-18)
(0.0499244 0.0256049 9.28829e-20)
(0.140494 0.0318562 1.55649e-19)
(0.245408 0.0453672 2.0862e-19)
(0.379245 0.04659 -3.81586e-19)
(0.476503 0.0505944 -1.47518e-18)
(0.599697 0.0479121 3.3454e-19)
(0.690683 0.0466777 -9.62702e-19)
(0.772803 0.0419139 -5.73085e-19)
(0.864574 0.0355085 -1.75861e-18)
(0.90348 0.0287679 1.21662e-18)
(0.974573 0.0178397 -1.01573e-18)
(0.981237 0.00792359 -1.41886e-18)
(0.0499354 -0.0257613 -5.1565e-20)
(0.140477 -0.0314038 -2.33525e-19)
(0.245411 -0.0450782 4.79727e-19)
(0.379231 -0.0460407 5.89293e-19)
(0.476501 -0.0500958 -1.3003e-19)
(0.599684 -0.0472957 -4.71177e-19)
(0.690679 -0.0461565 -4.46227e-19)
(0.772794 -0.0413369 -6.78435e-19)
(0.864565 -0.0350721 -8.93078e-20)
(0.903477 -0.028366 -2.12195e-19)
(0.974564 -0.0175887 -6.84185e-19)
(0.981237 -0.00779466 2.14886e-19)
(0.0632406 -0.075374 -1.95635e-19)
(0.156832 -0.0925127 3.66367e-18)
(0.268822 -0.132441 2.46145e-18)
(0.403192 -0.135518 8.55358e-19)
(0.50256 -0.147355 -1.26057e-18)
(0.624313 -0.139262 4.00402e-19)
(0.714702 -0.135828 3.16829e-19)
(0.794333 -0.121753 -6.98277e-18)
(0.882825 -0.103249 -5.71761e-18)
(0.918261 -0.0835536 -4.11464e-19)
(0.983725 -0.051812 4.07119e-18)
(0.985306 -0.0229771 4.26372e-18)
(0.088933 -0.119852 3.59307e-19)
(0.188447 -0.147306 -1.85615e-18)
(0.314047 -0.210767 7.82941e-19)
(0.449496 -0.215745 5.00728e-18)
(0.552904 -0.234555 2.40981e-18)
(0.671905 -0.22172 -4.4254e-18)
(0.761115 -0.216226 -7.4567e-18)
(0.835951 -0.193854 -2.38448e-18)
(0.918107 -0.164378 -9.79062e-18)
(0.946825 -0.133034 -3.38155e-18)
(1.00143 -0.082498 -1.50193e-18)
(0.993166 -0.0365889 -1.00857e-17)
(0.125262 -0.156164 3.60394e-19)
(0.233165 -0.192049 -8.52234e-19)
(0.378003 -0.274718 2.40894e-18)
(0.514985 -0.281253 -4.75618e-18)
(0.624101 -0.305753 6.55729e-18)
(0.739217 -0.289051 1.36421e-18)
(0.826754 -0.281872 2.0242e-19)
(0.894811 -0.252726 -9.60777e-18)
(0.968008 -0.214291 -7.61801e-18)
(0.987222 -0.173435 -9.84804e-18)
(1.02648 -0.107556 -7.62484e-18)
(1.00428 -0.0477027 -2.21911e-17)
(0.16975 -0.181837 2.37952e-19)
(0.287941 -0.223694 9.98285e-19)
(0.456332 -0.319937 -2.88323e-20)
(0.595198 -0.327579 1.68175e-19)
(0.711299 -0.356098 -3.43482e-18)
(0.821661 -0.336665 8.66608e-18)
(0.907147 -0.328292 5.66077e-18)
(0.966903 -0.294358 1.66519e-17)
(1.02913 -0.249587 1.64423e-17)
(1.0367 -0.202004 5.7564e-18)
(1.05715 -0.125277 6.03901e-18)
(1.01789 -0.055561 2.41835e-17)
(0.219367 -0.195119 -2.46388e-19)
(0.34904 -0.240083 -1.48094e-18)
(0.543694 -0.343341 3.49383e-20)
(0.684667 -0.351565 3.66511e-18)
(0.808556 -0.382158 6.79097e-19)
(0.913619 -0.361318 2.4619e-18)
(0.996815 -0.352322 6.66473e-18)
(1.04731 -0.315912 -5.62713e-19)
(1.0973 -0.267862 7.40913e-18)
(1.09188 -0.216794 1.32479e-17)
(1.09137 -0.134455 -1.96201e-18)
(1.03308 -0.0596283 7.26039e-18)
(0.270731 -0.195107 -4.36914e-19)
(0.412299 -0.2401 -6.31778e-19)
(0.634138 -0.343337 -6.84404e-18)
(0.777295 -0.351578 -1.27836e-18)
(0.909243 -0.382158 -3.56894e-19)
(1.00882 -0.36133 1.53715e-18)
(1.08965 -0.352325 -8.32002e-19)
(1.13056 -0.315919 -3.64765e-18)
(1.16788 -0.26787 9.43477e-19)
(1.14902 -0.216797 -3.32351e-18)
(1.1268 -0.134464 7.15459e-19)
(1.04879 -0.0596276 4.62306e-18)
(0.320341 -0.1818 -2.90253e-19)
(0.473406 -0.223743 -1.00732e-18)
(0.721497 -0.319924 -4.43454e-18)
(0.86677 -0.327616 3.90089e-18)
(1.0065 -0.356098 -7.30202e-18)
(1.10079 -0.336701 5.20318e-18)
(1.17932 -0.328302 3.72519e-18)
(1.21097 -0.294381 -3.41969e-19)
(1.23605 -0.249611 1.15848e-17)
(1.2042 -0.202013 -4.86674e-18)
(1.16102 -0.125303 -1.15764e-18)
(1.06398 -0.0555589 -1.02384e-17)
(0.364816 -0.156107 -4.26717e-19)
(0.528198 -0.192129 -8.37198e-19)
(0.799821 -0.274699 2.69048e-18)
(0.946994 -0.281312 -4.33072e-18)
(1.0937 -0.305754 4.45156e-18)
(1.18324 -0.289108 -6.92594e-18)
(1.25971 -0.281889 2.22718e-18)
(1.28307 -0.252763 1.45744e-17)
(1.29718 -0.214328 1.33146e-17)
(1.25368 -0.173449 5.16847e-18)
(1.19171 -0.107597 1.13132e-17)
(1.07759 -0.0476994 -1.12206e-17)
(0.401126 -0.119779 -7.54903e-19)
(0.57294 -0.14741 -1.84581e-18)
(0.86377 -0.210743 -2.40829e-20)
(1.0125 -0.215823 -3.60206e-18)
(1.16489 -0.234557 -2.60598e-19)
(1.25057 -0.221796 -4.93207e-18)
(1.32535 -0.216249 -7.31598e-18)
(1.34194 -0.193903 2.77812e-18)
(1.34709 -0.164427 -3.11199e-18)
(1.29408 -0.133052 -5.53945e-18)
(1.21676 -0.0825529 -4.35491e-18)
(1.0887 -0.0365848 5.21239e-18)
(0.426796 -0.0752899 -1.81747e-19)
(0.604584 -0.0926355 1.75315e-19)
(0.908988 -0.132414 -1.63377e-18)
(1.05882 -0.135611 2.62786e-18)
(1.21524 -0.147359 -2.15039e-18)
(1.29818 -0.139352 9.80518e-20)
(1.37177 -0.135856 7.84918e-19)
(1.38357 -0.121811 -6.73437e-18)
(1.38239 -0.103308 -6.15764e-18)
(1.32265 -0.0835758 -8.68707e-18)
(1.23448 -0.0518765 -1.33828e-17)
(1.09656 -0.0229724 1.91681e-18)
(0.440076 -0.0256732 5.08579e-20)
(0.620974 -0.0315378 1.86926e-18)
(0.932392 -0.0450516 1.2405e-18)
(1.08281 -0.0461418 -2.07223e-18)
(1.2413 -0.0501014 1.47379e-18)
(1.32284 -0.0473934 -3.80249e-19)
(1.3958 -0.0461878 1.32114e-18)
(1.40513 -0.0414011 -1.45584e-18)
(1.40066 -0.0351356 -2.30598e-19)
(1.33744 -0.0283911 -1.11721e-18)
(1.24366 -0.0176586 -1.24777e-18)
(1.10063 -0.00779012 -2.27983e-18)
(0.440064 0.0256906 4.22234e-20)
(0.620994 0.0317196 -1.47732e-18)
(0.932391 0.0453925 -1.61424e-18)
(1.08283 0.0464866 -2.00962e-18)
(1.2413 0.0505873 -1.65271e-18)
(1.32285 0.0478132 -1.22241e-19)
(1.3958 0.0466449 -2.15369e-18)
(1.40513 0.0418482 3.04412e-18)
(1.40067 0.0354439 3.38726e-18)
(1.33744 0.0287409 4.18098e-18)
(1.24367 0.0177688 1.34625e-19)
(1.10063 0.00792731 -1.32665e-18)
(0.426758 0.0753014 -3.88656e-19)
(0.604641 0.0928254 1.25602e-18)
(0.908981 0.132754 1.96799e-19)
(1.05887 0.135962 -1.26758e-18)
(1.21524 0.147846 -3.56564e-18)
(1.29822 0.13978 -6.17672e-19)
(1.37178 0.136316 4.58699e-18)
(1.3836 0.122264 2.84524e-18)
(1.3824 0.103622 6.05595e-18)
(1.32265 0.0839277 4.82971e-18)
(1.2345 0.051992 -7.95687e-19)
(1.09655 0.0231089 4.21087e-18)
(0.401068 0.11978 -4.06105e-20)
(0.573034 0.147617 3.35775e-18)
(0.863764 0.211084 5.66038e-19)
(1.01257 0.21619 5.18567e-18)
(1.16491 0.23505 -9.52812e-19)
(1.25064 0.222242 6.31033e-19)
(1.32537 0.216717 -2.64118e-18)
(1.34198 0.194368 -9.87024e-19)
(1.34712 0.164753 -2.94131e-18)
(1.29409 0.133409 -2.60264e-18)
(1.2168 0.0826794 3.62442e-19)
(1.08869 0.0367202 9.77696e-18)
(0.36474 0.156095 7.94917e-19)
(0.528321 0.192358 -1.90853e-18)
(0.799813 0.27504 2.94005e-18)
(0.947087 0.281699 7.19891e-19)
(1.09371 0.306254 6.58367e-18)
(1.18333 0.289578 -5.50774e-18)
(1.25974 0.282368 -9.26471e-18)
(1.28312 0.253247 -6.6336e-18)
(1.29722 0.214672 -1.64113e-17)
(1.25369 0.173816 -1.23119e-17)
(1.19175 0.107741 3.85485e-18)
(1.07757 0.0478345 -5.85273e-18)
(0.320256 0.181776 5.51544e-19)
(0.473559 0.224005 1.39851e-18)
(0.721497 0.320273 5.39621e-18)
(0.866889 0.328031 -5.15243e-18)
(1.00653 0.356613 9.84476e-19)
(1.1009 0.337205 -2.64489e-18)
(1.17936 0.328801 -2.60088e-18)
(1.21105 0.294893 -4.83063e-18)
(1.23611 0.249981 -1.06254e-17)
(1.20422 0.202397 -8.05912e-18)
(1.16107 0.125472 -4.58006e-18)
(1.06396 0.0556963 -2.30688e-17)
(0.270637 0.195066 6.56626e-19)
(0.412466 0.240392 1.84549e-18)
(0.634139 0.34369 1.71868e-18)
(0.77743 0.352022 2.65224e-18)
(0.909286 0.382687 -1.2615e-18)
(1.00895 0.361868 3.11993e-18)
(1.0897 0.352843 4.47547e-18)
(1.13064 0.316462 1.39525e-17)
(1.16794 0.268271 -3.15293e-18)
(1.14904 0.217201 5.81962e-18)
(1.12686 0.134662 4.02533e-19)
(1.04878 0.0597704 8.1266e-18)
(0.219272 0.195069 1.78621e-19)
(0.349222 0.240416 -3.59761e-19)
(0.543706 0.343706 8.15374e-19)
(0.684819 0.352046 2.88432e-19)
(0.808613 0.382711 3.39472e-18)
(0.91376 0.3619 -1.13933e-19)
(0.996885 0.352872 6.44981e-18)
(1.04742 0.316494 -1.50402e-17)
(1.09738 0.268305 -1.49775e-17)
(1.09193 0.217228 8.45914e-18)
(1.09145 0.13469 -4.54931e-18)
(1.03307 0.0597844 4.74527e-18)
(0.169663 0.181778 2.99674e-19)
(0.288121 0.224056 7.61822e-19)
(0.456347 0.320314 -6.25977e-18)
(0.595354 0.328089 2.50655e-18)
(0.711364 0.35667 -2.82476e-18)
(0.821811 0.337278 5.14695e-18)
(0.907228 0.328859 -4.35765e-18)
(0.967017 0.294963 -1.22767e-17)
(1.02922 0.250053 1.05436e-18)
(1.03676 0.202452 6.03836e-18)
(1.05724 0.125537 6.22604e-18)
(1.0179 0.0557262 1.89161e-17)
(0.125169 0.156087 4.90228e-19)
(0.233335 0.19245 -2.07218e-18)
(0.378026 0.275096 8.77895e-19)
(0.515146 0.281804 3.19109e-18)
(0.624172 0.306333 -9.49836e-19)
(0.739364 0.289697 7.32601e-18)
(0.826838 0.282464 -4.35286e-19)
(0.894934 0.253356 -1.58733e-18)
(0.968108 0.214787 1.27835e-17)
(0.987303 0.173896 7.74651e-18)
(1.02657 0.107834 1.24058e-17)
(1.0043 0.0478723 2.66504e-18)
(0.0888791 0.119786 -1.19044e-19)
(0.188606 0.147727 1.2153e-19)
(0.314076 0.211166 8.52944e-19)
(0.449642 0.216318 -3.28985e-18)
(0.552963 0.235154 5.48083e-18)
(0.67205 0.222392 -3.79315e-18)
(0.761195 0.216822 2.43197e-18)
(0.83607 0.194474 1.40834e-17)
(0.918189 0.164857 1.11668e-17)
(0.946889 0.133464 1.47898e-17)
(1.00151 0.082755 1.14835e-17)
(0.993178 0.0367284 -1.72927e-17)
(0.063183 0.0752765 -7.7539e-19)
(0.156962 0.0929564 -3.09464e-18)
(0.268872 0.13281 -1.3812e-18)
(0.40333 0.136116 1.55826e-18)
(0.502657 0.147922 -2.85726e-18)
(0.624443 0.139919 8.14035e-19)
(0.714789 0.136422 -5.65282e-19)
(0.794457 0.122371 1.95005e-18)
(0.8829 0.103749 -5.69569e-19)
(0.918334 0.0839915 1.44039e-18)
(0.98379 0.0520761 2.35539e-18)
(0.985299 0.0231039 7.41853e-18)
(0.0499433 0.0256968 -9.27784e-20)
(0.140558 0.0318551 -1.56193e-19)
(0.245456 0.0454793 -2.08843e-19)
(0.379309 0.0466513 3.81954e-19)
(0.476561 0.0506977 1.47455e-18)
(0.599777 0.0479906 -3.34598e-19)
(0.69073 0.0467775 9.61828e-19)
(0.772906 0.0419602 5.72611e-19)
(0.864613 0.0355723 1.75836e-18)
(0.903525 0.0288022 -1.21661e-18)
(0.974605 0.0178842 1.01547e-18)
(0.981228 0.00796393 1.41896e-18)
)
;

boundaryField
{
    out
    {
        type            fixedValue;
        value           uniform (1 0 0);
    }
    in
    {
        type            fixedValue;
        value           uniform (0 0 0);
    }
    frontAndBack
    {
        type            empty;
    }
}


// ************************************************************************* //
