/*--------------------------------*- C++ -*----------------------------------*\
| =========                 |                                                 |
| \\      /  F ield         | foam-extend: Open Source CFD                    |
|  \\    /   O peration     | Version:  3.0                                   |
|   \\  /    A nd           | Web:         http://www.extend-project.de       |
|    \\/     M anipulation  |                                                 |
\*---------------------------------------------------------------------------*/
FoamFile
{
    version     2.0;
    format      ascii;
    class       volVectorField;
    location    "80";
    object      s;
}
// * * * * * * * * * * * * * * * * * * * * * * * * * * * * * * * * * * * * * //

dimensions      [0 1 -1 0 0 0 0];

internalField   nonuniform List<vector> 
1280
(
(1.36467 0.053453 0)
(1.16824 0.0464159 0)
(1.02053 0.0409149 0)
(0.906511 0.0365997 0)
(0.815065 0.033137 0)
(0.740748 0.0302693 0)
(0.678581 0.0278853 0)
(0.626319 0.0258399 0)
(0.58132 0.0240942 0)
(0.542536 0.0225433 0)
(0.508459 0.0211889 0)
(0.478485 0.0199348 0)
(0.451799 0.018791 0)
(0.427856 0.0176918 0)
(0.406471 0.0165672 0)
(0.386765 0.0155251 0)
(1.35646 0.161613 0)
(1.16125 0.137973 0)
(1.01444 0.120857 0)
(0.901111 0.107429 0)
(0.810224 0.0967743 0)
(0.736367 0.0880487 0)
(0.67459 0.0807937 0)
(0.62267 0.0746529 0)
(0.577968 0.0694058 0)
(0.539464 0.0648257 0)
(0.505625 0.0608654 0)
(0.4759 0.057258 0)
(0.449406 0.0541704 0)
(0.425698 0.0511031 0)
(0.404445 0.0486202 0)
(0.384969 0.0456054 0)
(1.33929 0.267565 0)
(1.14654 0.22851 0)
(1.00193 0.199916 0)
(0.890021 0.177573 0)
(0.800317 0.159792 0)
(0.72739 0.145279 0)
(0.6664 0.133188 0)
(0.615155 0.122994 0)
(0.571021 0.114255 0)
(0.533061 0.106687 0)
(0.499646 0.10009 0)
(0.47043 0.0942085 0)
(0.444215 0.0890641 0)
(0.4211 0.08425 0)
(0.399868 0.0801209 0)
(0.381248 0.075809 0)
(1.31397 0.370999 0)
(1.12488 0.317529 0)
(0.983159 0.277617 0)
(0.873394 0.246585 0)
(0.785414 0.221791 0)
(0.713878 0.201593 0)
(0.654051 0.184737 0)
(0.603785 0.17055 0)
(0.560497 0.158357 0)
(0.523272 0.147843 0)
(0.490504 0.13861 0)
(0.46186 0.130494 0)
(0.436161 0.123229 0)
(0.413484 0.116767 0)
(0.392674 0.110827 0)
(0.374317 0.105614 0)
(1.28062 0.47249 0)
(1.09636 0.40452 0)
(0.95829 0.353559 0)
(0.85134 0.314022 0)
(0.765631 0.282384 0)
(0.695922 0.256631 0)
(0.637627 0.235119 0)
(0.588644 0.21703 0)
(0.546455 0.201464 0)
(0.510175 0.188064 0)
(0.478228 0.176277 0)
(0.450291 0.165953 0)
(0.425225 0.156703 0)
(0.403038 0.148527 0)
(0.38276 0.141048 0)
(0.364633 0.134501 0)
(1.23937 0.571171 0)
(1.06108 0.488968 0)
(0.927502 0.427262 0)
(0.824024 0.379477 0)
(0.741102 0.341191 0)
(0.673648 0.310053 0)
(0.617239 0.284019 0)
(0.569828 0.262143 0)
(0.528995 0.243298 0)
(0.493862 0.227098 0)
(0.462932 0.212821 0)
(0.43585 0.200362 0)
(0.411569 0.189166 0)
(0.39002 0.179339 0)
(0.370365 0.170337 0)
(0.35272 0.162496 0)
(1.19042 0.6663 0)
(1.01926 0.570346 0)
(0.890988 0.498286 0)
(0.791624 0.442542 0)
(0.711995 0.397855 0)
(0.647206 0.361526 0)
(0.593023 0.331141 0)
(0.547466 0.305613 0)
(0.50823 0.283618 0)
(0.474442 0.26471 0)
(0.444707 0.248053 0)
(0.41862 0.233513 0)
(0.395268 0.220471 0)
(0.374458 0.209002 0)
(0.355561 0.198553 0)
(0.338476 0.18939 0)
(1.13413 0.757266 0)
(0.971155 0.648135 0)
(0.848993 0.566187 0)
(0.754352 0.50283 0)
(0.678503 0.452028 0)
(0.616773 0.410739 0)
(0.565145 0.376197 0)
(0.521716 0.347182 0)
(0.484313 0.322179 0)
(0.452078 0.300687 0)
(0.423715 0.281759 0)
(0.3988 0.265231 0)
(0.37651 0.250424 0)
(0.356611 0.237384 0)
(0.338564 0.225539 0)
(0.322219 0.215092 0)
(1.07083 0.843466 0)
(0.917075 0.721864 0)
(0.801783 0.630546 0)
(0.712452 0.559974 0)
(0.640847 0.503376 0)
(0.582554 0.457387 0)
(0.533795 0.418908 0)
(0.492756 0.386586 0)
(0.457412 0.358737 0)
(0.42692 0.334789 0)
(0.400104 0.31371 0)
(0.376504 0.295284 0)
(0.355424 0.278802 0)
(0.336548 0.264247 0)
(0.319487 0.251067 0)
(0.303963 0.239382 0)
(1.00095 0.924374 0)
(0.85737 0.791058 0)
(0.749661 0.690964 0)
(0.666191 0.613616 0)
(0.599267 0.551587 0)
(0.544768 0.501187 0)
(0.499171 0.459022 0)
(0.460775 0.4236 0)
(0.427701 0.393089 0)
(0.399147 0.366838 0)
(0.374035 0.343751 0)
(0.351915 0.323541 0)
(0.332164 0.305491 0)
(0.314462 0.289505 0)
(0.298474 0.275065 0)
(0.283921 0.262192 0)
(0.924928 0.999476 0)
(0.792417 0.855311 0)
(0.692964 0.74707 0)
(0.615868 0.663436 0)
(0.554041 0.596364 0)
(0.50367 0.541871 0)
(0.46152 0.496283 0)
(0.426003 0.457984 0)
(0.395405 0.425 0)
(0.368963 0.396612 0)
(0.345714 0.371653 0)
(0.325204 0.34978 0)
(0.306914 0.330262 0)
(0.290483 0.312934 0)
(0.275686 0.297309 0)
(0.262166 0.283325 0)
(0.843265 1.06832 0)
(0.722642 0.914207 0)
(0.632044 0.798516 0)
(0.561801 0.709117 0)
(0.505441 0.637429 0)
(0.45951 0.579186 0)
(0.421057 0.53047 0)
(0.38864 0.489538 0)
(0.360698 0.454302 0)
(0.336537 0.423957 0)
(0.315281 0.397303 0)
(0.296526 0.373906 0)
(0.27979 0.353059 0)
(0.264766 0.33449 0)
(0.251235 0.317781 0)
(0.23889 0.30275 0)
(0.756464 1.13049 0)
(0.648467 0.96741 0)
(0.5673 0.844994 0)
(0.504331 0.75039 0)
(0.4538 0.674536 0)
(0.412591 0.612909 0)
(0.378084 0.561366 0)
(0.34897 0.518064 0)
(0.323868 0.480788 0)
(0.30214 0.448692 0)
(0.28302 0.420491 0)
(0.266126 0.395731 0)
(0.25106 0.373661 0)
(0.237507 0.353971 0)
(0.225338 0.336263 0)
(0.214195 0.32027 0)
(0.665081 1.1856 0)
(0.570385 1.01456 0)
(0.499116 0.886202 0)
(0.443821 0.786985 0)
(0.399414 0.707439 0)
(0.363184 0.642813 0)
(0.332826 0.588771 0)
(0.307197 0.543368 0)
(0.285075 0.504306 0)
(0.26592 0.470657 0)
(0.249028 0.44113 0)
(0.23412 0.415167 0)
(0.220769 0.392071 0)
(0.208825 0.371393 0)
(0.198041 0.352835 0)
(0.188284 0.335976 0)
(0.569654 1.23334 0)
(0.48884 1.05541 0)
(0.427949 0.92191 0)
(0.380645 0.818691 0)
(0.342659 0.735955 0)
(0.311628 0.668734 0)
(0.285626 0.612527 0)
(0.263649 0.565322 0)
(0.244672 0.524698 0)
(0.22822 0.489743 0)
(0.213701 0.459035 0)
(0.200863 0.432092 0)
(0.18936 0.408057 0)
(0.179038 0.386575 0)
(0.169744 0.367243 0)
(0.161292 0.349568 0)
(0.470756 1.27342 0)
(0.404391 1.08963 0)
(0.354204 0.951853 0)
(0.315203 0.845291 0)
(0.283854 0.75987 0)
(0.258219 0.690471 0)
(0.236723 0.632444 0)
(0.21853 0.583709 0)
(0.202806 0.541793 0)
(0.189156 0.505714 0)
(0.177069 0.474075 0)
(0.166396 0.446293 0)
(0.156711 0.421605 0)
(0.148168 0.399506 0)
(0.140159 0.3797 0)
(0.133541 0.36149 0)
(0.369408 1.30559 0)
(0.317468 1.11705 0)
(0.278406 0.975902 0)
(0.247896 0.866632 0)
(0.223402 0.77908 0)
(0.203312 0.707931 0)
(0.186472 0.648444 0)
(0.172186 0.5985 0)
(0.15984 0.555521 0)
(0.149103 0.518595 0)
(0.139602 0.486136 0)
(0.131198 0.457819 0)
(0.123591 0.432446 0)
(0.116844 0.410186 0)
(0.110533 0.389684 0)
(0.105115 0.371863 0)
(0.265889 1.32925 0)
(0.228714 1.13758 0)
(0.20098 0.993803 0)
(0.179155 0.882583 0)
(0.161654 0.793407 0)
(0.147229 0.720951 0)
(0.135144 0.660357 0)
(0.124838 0.609465 0)
(0.115953 0.565682 0)
(0.108158 0.528006 0)
(0.101327 0.494938 0)
(0.095155 0.465958 0)
(0.0897369 0.440107 0)
(0.0846081 0.41717 0)
(0.0801828 0.396332 0)
(0.0754538 0.377795 0)
(0.16064 1.34475 0)
(0.138741 1.15099 0)
(0.122418 1.00556 0)
(0.109422 0.893047 0)
(0.0990042 0.802832 0)
(0.090329 0.729512 0)
(0.0830569 0.668193 0)
(0.0767929 0.61668 0)
(0.0713827 0.572349 0)
(0.0665816 0.534192 0)
(0.0623523 0.500676 0)
(0.0584743 0.471276 0)
(0.0550125 0.445043 0)
(0.051679 0.421662 0)
(0.0486738 0.400548 0)
(0.04552 0.381426 0)
(0.0545925 1.35189 0)
(0.048032 1.15724 0)
(0.043235 1.01105 0)
(0.0391218 0.897962 0)
(0.0358487 0.807247 0)
(0.0329633 0.733519 0)
(0.030549 0.671842 0)
(0.0283505 0.620003 0)
(0.0264589 0.5754 0)
(0.0246569 0.53695 0)
(0.0230942 0.503218 0)
(0.0214956 0.473535 0)
(0.0201169 0.447131 0)
(0.0185505 0.42349 0)
(0.0171959 0.402254 0)
(0.0154774 0.382959 0)
(-0.0515845 1.35066 0)
(-0.0427772 1.15631 0)
(-0.0360842 1.01029 0)
(-0.0312913 0.897324 0)
(-0.02743 0.80669 0)
(-0.0245149 0.733006 0)
(-0.0220835 0.671361 0)
(-0.020209 0.619526 0)
(-0.0186115 0.574921 0)
(-0.0173999 0.536441 0)
(-0.016354 0.502686 0)
(-0.0156316 0.472938 0)
(-0.0150091 0.446504 0)
(-0.014714 0.422767 0)
(-0.0144764 0.401518 0)
(-0.0146026 0.382113 0)
(-0.157232 1.34109 0)
(-0.133171 1.14823 0)
(-0.115032 1.00329 0)
(-0.101391 0.891141 0)
(-0.0904218 0.801137 0)
(-0.0817383 0.727955 0)
(-0.0744755 0.666719 0)
(-0.068549 0.615204 0)
(-0.0634633 0.570883 0)
(-0.0592553 0.532607 0)
(-0.0555807 0.499061 0)
(-0.0525554 0.469445 0)
(-0.0498849 0.443176 0)
(-0.0477527 0.419535 0)
(-0.0458675 0.398419 0)
(-0.0444594 0.379096 0)
(-0.261694 1.32328 0)
(-0.222562 1.13308 0)
(-0.193131 0.990123 0)
(-0.170737 0.879478 0)
(-0.152753 0.790668 0)
(-0.138363 0.71844 0)
(-0.126334 0.657994 0)
(-0.116398 0.607126 0)
(-0.107877 0.563361 0)
(-0.100695 0.525543 0)
(-0.0944384 0.492405 0)
(-0.089111 0.463122 0)
(-0.0844278 0.437168 0)
(-0.0804398 0.413776 0)
(-0.0769221 0.392911 0)
(-0.0739572 0.37378 0)
(-0.36434 1.29735 0)
(-0.310423 1.11098 0)
(-0.269894 0.970872 0)
(-0.238906 0.862412 0)
(-0.214023 0.775338 0)
(-0.194025 0.704509 0)
(-0.177305 0.645228 0)
(-0.163425 0.595324 0)
(-0.151518 0.552393 0)
(-0.141411 0.515271 0)
(-0.132601 0.482761 0)
(-0.125011 0.454002 0)
(-0.118333 0.428538 0)
(-0.112526 0.405552 0)
(-0.107396 0.385076 0)
(-0.102912 0.366266 0)
(-0.464543 1.26349 0)
(-0.396207 1.08209 0)
(-0.344857 0.945684 0)
(-0.30548 0.840068 0)
(-0.273867 0.75527 0)
(-0.248394 0.686276 0)
(-0.227097 0.628527 0)
(-0.209363 0.579899 0)
(-0.194151 0.538067 0)
(-0.181182 0.501881 0)
(-0.169878 0.470196 0)
(-0.160068 0.44215 0)
(-0.151437 0.417324 0)
(-0.143845 0.394897 0)
(-0.13713 0.374926 0)
(-0.131163 0.356561 0)
(-0.561695 1.22192 0)
(-0.479401 1.04658 0)
(-0.417559 0.914715 0)
(-0.370053 0.81259 0)
(-0.33191 0.730583 0)
(-0.301125 0.663849 0)
(-0.275382 0.607988 0)
(-0.253907 0.560938 0)
(-0.235482 0.520468 0)
(-0.219733 0.485444 0)
(-0.206004 0.454787 0)
(-0.194039 0.427627 0)
(-0.183514 0.403602 0)
(-0.174189 0.381869 0)
(-0.165946 0.362531 0)
(-0.158537 0.344717 0)
(-0.65521 1.17292 0)
(-0.559495 1.00469 0)
(-0.487563 0.878177 0)
(-0.432232 0.78016 0)
(-0.387804 0.70145 0)
(-0.351904 0.637383 0)
(-0.321879 0.583755 0)
(-0.296798 0.538575 0)
(-0.275274 0.499716 0)
(-0.256843 0.466075 0)
(-0.240772 0.436633 0)
(-0.226732 0.410537 0)
(-0.214373 0.387455 0)
(-0.203386 0.366562 0)
(-0.193662 0.347965 0)
(-0.184883 0.330825 0)
(-0.74452 1.11679 0)
(-0.636008 0.956703 0)
(-0.55444 0.836294 0)
(-0.49164 0.742983 0)
(-0.441205 0.668045 0)
(-0.400415 0.607038 0)
(-0.366294 0.555969 0)
(-0.33776 0.512935 0)
(-0.31327 0.475928 0)
(-0.292268 0.443875 0)
(-0.273956 0.415835 0)
(-0.257923 0.390959 0)
(-0.243818 0.368968 0)
(-0.231238 0.349033 0)
(-0.220113 0.331298 0)
(-0.210018 0.31492 0)
(-0.829092 1.05391 0)
(-0.708477 0.902906 0)
(-0.617792 0.789343 0)
(-0.547919 0.701298 0)
(-0.491796 0.630591 0)
(-0.446372 0.573012 0)
(-0.408366 0.524816 0)
(-0.376557 0.484191 0)
(-0.349247 0.449263 0)
(-0.325803 0.418997 0)
(-0.305355 0.39253 0)
(-0.287435 0.369033 0)
(-0.27166 0.348266 0)
(-0.257585 0.329424 0)
(-0.245121 0.312647 0)
(-0.233813 0.297146 0)
(-0.908405 0.984668 0)
(-0.776468 0.84365 0)
(-0.677231 0.73761 0)
(-0.600731 0.655366 0)
(-0.539268 0.589314 0)
(-0.489494 0.535511 0)
(-0.447839 0.490477 0)
(-0.412945 0.452504 0)
(-0.382983 0.419866 0)
(-0.35723 0.391565 0)
(-0.33477 0.366838 0)
(-0.315058 0.344854 0)
(-0.297711 0.325449 0)
(-0.282217 0.307796 0)
(-0.268505 0.292095 0)
(-0.256055 0.277533 0)
(-0.98199 0.909516 0)
(-0.839572 0.779306 0)
(-0.732409 0.681432 0)
(-0.649764 0.605479 0)
(-0.583347 0.544482 0)
(-0.529533 0.494778 0)
(-0.484486 0.453176 0)
(-0.446723 0.418083 0)
(-0.414287 0.38793 0)
(-0.386379 0.361764 0)
(-0.362032 0.338922 0)
(-0.34064 0.318582 0)
(-0.321811 0.300657 0)
(-0.304996 0.284306 0)
(-0.290104 0.26977 0)
(-0.276644 0.256253 0)
(-1.04938 0.828939 0)
(-0.897426 0.710289 0)
(-0.782994 0.621154 0)
(-0.694726 0.551951 0)
(-0.623768 0.496365 0)
(-0.566249 0.451057 0)
(-0.518092 0.413132 0)
(-0.477687 0.381123 0)
(-0.442982 0.35363 0)
(-0.413074 0.329746 0)
(-0.386988 0.308924 0)
(-0.364014 0.290338 0)
(-0.343801 0.274015 0)
(-0.325721 0.259035 0)
(-0.309697 0.245811 0)
(-0.295319 0.233298 0)
(-1.11021 0.743362 0)
(-0.949703 0.637046 0)
(-0.828701 0.55716 0)
(-0.735361 0.495118 0)
(-0.660305 0.445274 0)
(-0.59944 0.404631 0)
(-0.548473 0.370607 0)
(-0.505682 0.341873 0)
(-0.46892 0.317197 0)
(-0.437197 0.295731 0)
(-0.409527 0.277039 0)
(-0.385086 0.260294 0)
(-0.363603 0.245654 0)
(-0.344264 0.232078 0)
(-0.327223 0.22026 0)
(-0.311742 0.208733 0)
(-1.16424 0.653284 0)
(-0.996076 0.560039 0)
(-0.869268 0.489833 0)
(-0.771428 0.435332 0)
(-0.69274 0.391514 0)
(-0.628908 0.35578 0)
(-0.575453 0.32585 0)
(-0.53054 0.30056 0)
(-0.491968 0.278834 0)
(-0.458625 0.259913 0)
(-0.429583 0.243432 0)
(-0.403823 0.228639 0)
(-0.381277 0.215698 0)
(-0.360777 0.203681 0)
(-0.342923 0.193217 0)
(-0.326286 0.183084 0)
(-1.21117 0.559388 0)
(-1.03629 0.479704 0)
(-0.904478 0.419609 0)
(-0.802728 0.372958 0)
(-0.7209 0.33543 0)
(-0.654497 0.304815 0)
(-0.598891 0.27916 0)
(-0.552152 0.257472 0)
(-0.512013 0.238826 0)
(-0.477296 0.222581 0)
(-0.447063 0.20841 0)
(-0.420223 0.195701 0)
(-0.396743 0.18455 0)
(-0.375362 0.174256 0)
(-0.356745 0.165229 0)
(-0.339337 0.156704 0)
(-1.25064 0.462245 0)
(-1.07013 0.396537 0)
(-0.934111 0.346901 0)
(-0.829077 0.308375 0)
(-0.744607 0.277355 0)
(-0.676046 0.252043 0)
(-0.618633 0.230814 0)
(-0.57036 0.212859 0)
(-0.528917 0.197409 0)
(-0.493044 0.183942 0)
(-0.461831 0.172183 0)
(-0.434083 0.161645 0)
(-0.409842 0.152389 0)
(-0.387726 0.143886 0)
(-0.368474 0.13642 0)
(-0.350462 0.129465 0)
(-1.28246 0.362418 0)
(-1.09741 0.311032 0)
(-0.958017 0.272154 0)
(-0.850329 0.241973 0)
(-0.76374 0.217648 0)
(-0.693444 0.197791 0)
(-0.634585 0.18112 0)
(-0.585092 0.167014 0)
(-0.5426 0.154856 0)
(-0.505828 0.144266 0)
(-0.473821 0.134994 0)
(-0.445385 0.126714 0)
(-0.420514 0.119411 0)
(-0.397855 0.112764 0)
(-0.378065 0.106894 0)
(-0.3596 0.101517 0)
(-1.30643 0.260475 0)
(-1.11798 0.223695 0)
(-0.976032 0.195807 0)
(-0.866354 0.174148 0)
(-0.778167 0.156667 0)
(-0.70657 0.142384 0)
(-0.646623 0.130376 0)
(-0.596215 0.120205 0)
(-0.552943 0.111425 0)
(-0.515491 0.103772 0)
(-0.482901 0.0970626 0)
(-0.45394 0.0910794 0)
(-0.428611 0.0857967 0)
(-0.405531 0.0810151 0)
(-0.385355 0.0767918 0)
(-0.366537 0.0729621 0)
(-1.32244 0.157021 0)
(-1.1317 0.135052 0)
(-0.988069 0.118319 0)
(-0.877059 0.10531 0)
(-0.787817 0.0947794 0)
(-0.715358 0.0861586 0)
(-0.654695 0.0788887 0)
(-0.603691 0.072719 0)
(-0.559904 0.0673703 0)
(-0.522024 0.0627089 0)
(-0.489041 0.0585971 0)
(-0.459762 0.0549509 0)
(-0.434114 0.0517059 0)
(-0.410786 0.0488139 0)
(-0.390328 0.0462354 0)
(-0.371303 0.0439658 0)
(-1.33034 0.0526646 0)
(-1.13849 0.0456256 0)
(-0.994032 0.0401538 0)
(-0.882372 0.0358681 0)
(-0.792611 0.0323587 0)
(-0.719733 0.0294529 0)
(-0.658723 0.0269732 0)
(-0.607433 0.0248422 0)
(-0.563401 0.0229675 0)
(-0.525315 0.0213199 0)
(-0.492153 0.0198418 0)
(-0.462717 0.0185383 0)
(-0.436926 0.0173587 0)
(-0.413469 0.0163433 0)
(-0.392886 0.0154258 0)
(-0.373746 0.0146862 0)
(-1.33012 -0.0519697 0)
(-1.1383 -0.044041 0)
(-0.993899 -0.0382221 0)
(-0.88226 -0.0337569 0)
(-0.792531 -0.0302237 0)
(-0.719679 -0.0273951 0)
(-0.658695 -0.0250679 0)
(-0.607438 -0.0231457 0)
(-0.563431 -0.0215356 0)
(-0.525385 -0.0201596 0)
(-0.49224 -0.0190015 0)
(-0.462848 -0.0179581 0)
(-0.437059 -0.0170804 0)
(-0.413643 -0.0162207 0)
(-0.393042 -0.0154936 0)
(-0.373936 -0.0147027 0)
(-1.32175 -0.156252 0)
(-1.13114 -0.133417 0)
(-0.987649 -0.116334 0)
(-0.876716 -0.103148 0)
(-0.78756 -0.0925854 0)
(-0.715177 -0.0840386 0)
(-0.654591 -0.07691 0)
(-0.603674 -0.070945 0)
(-0.559962 -0.0658509 0)
(-0.522178 -0.0614626 0)
(-0.48926 -0.0576683 0)
(-0.460074 -0.0542962 0)
(-0.434463 -0.0513646 0)
(-0.411208 -0.0486573 0)
(-0.390742 -0.0462964 0)
(-0.371758 -0.044011 0)
(-1.3053 -0.259556 0)
(-1.11703 -0.221952 0)
(-0.97533 -0.193714 0)
(-0.865771 -0.171885 0)
(-0.777732 -0.154359 0)
(-0.706259 -0.140144 0)
(-0.646438 -0.128258 0)
(-0.596174 -0.118285 0)
(-0.553022 -0.109739 0)
(-0.515738 -0.102365 0)
(-0.483246 -0.0959616 0)
(-0.454461 -0.0902847 0)
(-0.429175 -0.0853253 0)
(-0.40625 -0.0807953 0)
(-0.386026 -0.0768255 0)
(-0.367315 -0.0730703 0)
(-1.28083 -0.361255 0)
(-1.09605 -0.309124 0)
(-0.957003 -0.269888 0)
(-0.849489 -0.239555 0)
(-0.763101 -0.215164 0)
(-0.692969 -0.195367 0)
(-0.634278 -0.178787 0)
(-0.584965 -0.164864 0)
(-0.542638 -0.152907 0)
(-0.506066 -0.142589 0)
(-0.474205 -0.133602 0)
(-0.445976 -0.125658 0)
(-0.421187 -0.118692 0)
(-0.398702 -0.112382 0)
(-0.378869 -0.106835 0)
(-0.360503 -0.101659 0)
(-1.24854 -0.460731 0)
(-1.06834 -0.394387 0)
(-0.932784 -0.344402 0)
(-0.827967 -0.305746 0)
(-0.743752 -0.274644 0)
(-0.675387 -0.249384 0)
(-0.618178 -0.228217 0)
(-0.570113 -0.210425 0)
(-0.528862 -0.195134 0)
(-0.493225 -0.181929 0)
(-0.462186 -0.170417 0)
(-0.434696 -0.160246 0)
(-0.41055 -0.151321 0)
(-0.388677 -0.143269 0)
(-0.369339 -0.136181 0)
(-0.351486 -0.129636 0)
(-1.20856 -0.557369 0)
(-1.03406 -0.477248 0)
(-0.902822 -0.416798 0)
(-0.80134 -0.370064 0)
(-0.719812 -0.332436 0)
(-0.653625 -0.30187 0)
(-0.598246 -0.276238 0)
(-0.551713 -0.254683 0)
(-0.511789 -0.236136 0)
(-0.477288 -0.220116 0)
(-0.447262 -0.206117 0)
(-0.420645 -0.19377 0)
(-0.397307 -0.182894 0)
(-0.376118 -0.17315 0)
(-0.35743 -0.164536 0)
(-0.340104 -0.156696 0)
(-1.1612 -0.650572 0)
(-0.993426 -0.55717 0)
(-0.867294 -0.486645 0)
(-0.769773 -0.432116 0)
(-0.691416 -0.388202 0)
(-0.62781 -0.352516 0)
(-0.574587 -0.322587 0)
(-0.529858 -0.297397 0)
(-0.491492 -0.275723 0)
(-0.458317 -0.256969 0)
(-0.429471 -0.240593 0)
(-0.403877 -0.226108 0)
(-0.381473 -0.213374 0)
(-0.361127 -0.20195 0)
(-0.343182 -0.191873 0)
(-0.326623 -0.182809 0)
(-1.10674 -0.739725 0)
(-0.94671 -0.633732 0)
(-0.826444 -0.553523 0)
(-0.733466 -0.49154 0)
(-0.65876 -0.44161 0)
(-0.598118 -0.401026 0)
(-0.547375 -0.366985 0)
(-0.504724 -0.33832 0)
(-0.468144 -0.313645 0)
(-0.436497 -0.292278 0)
(-0.409001 -0.273585 0)
(-0.384557 -0.25704 0)
(-0.363238 -0.242405 0)
(-0.343737 -0.229334 0)
(-0.32676 -0.217624 0)
(-0.31064 -0.207486 0)
(-1.04527 -0.824516 0)
(-0.894253 -0.706428 0)
(-0.780484 -0.617042 0)
(-0.692648 -0.547978 0)
(-0.622026 -0.49234 0)
(-0.564722 -0.447109 0)
(-0.516757 -0.409177 0)
(-0.476434 -0.377213 0)
(-0.441851 -0.34972 0)
(-0.41189 -0.325856 0)
(-0.385884 -0.305036 0)
(-0.36266 -0.28647 0)
(-0.342497 -0.270197 0)
(-0.323818 -0.255324 0)
(-0.307848 -0.24238 0)
(-0.292231 -0.230372 0)
(-0.977506 -0.90457 0)
(-0.836282 -0.774795 0)
(-0.729747 -0.676856 0)
(-0.647563 -0.601092 0)
(-0.581463 -0.540106 0)
(-0.527846 -0.490504 0)
(-0.482956 -0.448927 0)
(-0.44523 -0.413882 0)
(-0.41285 -0.38376 0)
(-0.384825 -0.357602 0)
(-0.360445 -0.334822 0)
(-0.338747 -0.31447 0)
(-0.319789 -0.296719 0)
(-0.302449 -0.280361 0)
(-0.287372 -0.266285 0)
(-0.273283 -0.252737 0)
(-0.903863 -0.97907 0)
(-0.773142 -0.838518 0)
(-0.674518 -0.732568 0)
(-0.598477 -0.650578 0)
(-0.537304 -0.584601 0)
(-0.487707 -0.530936 0)
(-0.446172 -0.485968 0)
(-0.41128 -0.448061 0)
(-0.381329 -0.415496 0)
(-0.355421 -0.387213 0)
(-0.332887 -0.362598 0)
(-0.312868 -0.340609 0)
(-0.295392 -0.321417 0)
(-0.279498 -0.303771 0)
(-0.265678 -0.28846 0)
(-0.252947 -0.273919 0)
(-0.82467 -1.04766 0)
(-0.705247 -0.897193 0)
(-0.615122 -0.78387 0)
(-0.545691 -0.696134 0)
(-0.48982 -0.625574 0)
(-0.444553 -0.568173 0)
(-0.406633 -0.520094 0)
(-0.374808 -0.47957 0)
(-0.347473 -0.444772 0)
(-0.323877 -0.414558 0)
(-0.303322 -0.388273 0)
(-0.285152 -0.364798 0)
(-0.269235 -0.344305 0)
(-0.254906 -0.325459 0)
(-0.242368 -0.309063 0)
(-0.230998 -0.293496 0)
(-0.740381 -1.10996 0)
(-0.632953 -0.950479 0)
(-0.551905 -0.830434 0)
(-0.489504 -0.737484 0)
(-0.439291 -0.662757 0)
(-0.398637 -0.601969 0)
(-0.36458 -0.551067 0)
(-0.336028 -0.508176 0)
(-0.311502 -0.471346 0)
(-0.290374 -0.439395 0)
(-0.271966 -0.411578 0)
(-0.255759 -0.386784 0)
(-0.241551 -0.365079 0)
(-0.228848 -0.345209 0)
(-0.217703 -0.327799 0)
(-0.207686 -0.311429 0)
(-0.651447 -1.16555 0)
(-0.556704 -0.998032 0)
(-0.485228 -0.871975 0)
(-0.430254 -0.77437 0)
(-0.386011 -0.695926 0)
(-0.350229 -0.632121 0)
(-0.32025 -0.578704 0)
(-0.295154 -0.533708 0)
(-0.273592 -0.495071 0)
(-0.255066 -0.461573 0)
(-0.238916 -0.432395 0)
(-0.22476 -0.406417 0)
(-0.212338 -0.383642 0)
(-0.201301 -0.362833 0)
(-0.191603 -0.344545 0)
(-0.182942 -0.327419 0)
(-0.558393 -1.21411 0)
(-0.476927 -1.03955 0)
(-0.415487 -0.908228 0)
(-0.368284 -0.806555 0)
(-0.330298 -0.724864 0)
(-0.299616 -0.658427 0)
(-0.273912 -0.602815 0)
(-0.252433 -0.555989 0)
(-0.23398 -0.515772 0)
(-0.218171 -0.480938 0)
(-0.204388 -0.450565 0)
(-0.192363 -0.423577 0)
(-0.181801 -0.399859 0)
(-0.172482 -0.378268 0)
(-0.164271 -0.359213 0)
(-0.157005 -0.341472 0)
(-0.46176 -1.25528 0)
(-0.394104 -1.07475 0)
(-0.34309 -0.938953 0)
(-0.303963 -0.833831 0)
(-0.272477 -0.749384 0)
(-0.247091 -0.680719 0)
(-0.225826 -0.623247 0)
(-0.208097 -0.574872 0)
(-0.19287 -0.533318 0)
(-0.17987 -0.497349 0)
(-0.168539 -0.465968 0)
(-0.158703 -0.438117 0)
(-0.150066 -0.413609 0)
(-0.142493 -0.391344 0)
(-0.135826 -0.371656 0)
(-0.129966 -0.353388 0)
(-0.362126 -1.28883 0)
(-0.308724 -1.1034 0)
(-0.268471 -0.963952 0)
(-0.237675 -0.856017 0)
(-0.212896 -0.769326 0)
(-0.192969 -0.698849 0)
(-0.176283 -0.639865 0)
(-0.162417 -0.590235 0)
(-0.150514 -0.547593 0)
(-0.140401 -0.510713 0)
(-0.13159 -0.47851 0)
(-0.123995 -0.449973 0)
(-0.117326 -0.424821 0)
(-0.111541 -0.402031 0)
(-0.10644 -0.381828 0)
(-0.102027 -0.363157 0)
(-0.260089 -1.3145 0)
(-0.221303 -1.12532 0)
(-0.192077 -0.983052 0)
(-0.169818 -0.872963 0)
(-0.151908 -0.784552 0)
(-0.137571 -0.712692 0)
(-0.125571 -0.652553 0)
(-0.115655 -0.601967 0)
(-0.107152 -0.558497 0)
(-0.0999822 -0.520922 0)
(-0.0937469 -0.488095 0)
(-0.0884313 -0.459037 0)
(-0.0837748 -0.433401 0)
(-0.0797984 -0.410212 0)
(-0.0763047 -0.38963 0)
(-0.073348 -0.370657 0)
(-0.156266 -1.33213 0)
(-0.13237 -1.14033 0)
(-0.114372 -0.996124 0)
(-0.100802 -0.884552 0)
(-0.0898828 -0.794963 0)
(-0.0812317 -0.722157 0)
(-0.0739978 -0.66123 0)
(-0.0680946 -0.609997 0)
(-0.0630453 -0.565963 0)
(-0.0588619 -0.527924 0)
(-0.0552381 -0.494672 0)
(-0.0522307 -0.465273 0)
(-0.0496096 -0.439307 0)
(-0.0474654 -0.415867 0)
(-0.045593 -0.395026 0)
(-0.0441188 -0.375871 0)
(-0.0512893 -1.34158 0)
(-0.0424665 -1.14834 0)
(-0.0358283 -1.00307 0)
(-0.0310462 -0.890698 0)
(-0.0271959 -0.800477 0)
(-0.024291 -0.727171 0)
(-0.0218731 -0.665829 0)
(-0.0200209 -0.614259 0)
(-0.0184587 -0.56993 0)
(-0.0172856 -0.531655 0)
(-0.0162973 -0.498185 0)
(-0.0156129 -0.468618 0)
(-0.0150465 -0.442486 0)
(-0.0147437 -0.418931 0)
(-0.0145104 -0.397968 0)
(-0.0145229 -0.37874 0)
(0.0541993 -1.34278 0)
(0.0478564 -1.14928 0)
(0.043073 -1.00383 0)
(0.0390214 -0.891354 0)
(0.0357694 -0.801056 0)
(0.032903 -0.7277 0)
(0.0304853 -0.666318 0)
(0.028273 -0.614728 0)
(0.0263367 -0.570376 0)
(0.0244928 -0.532102 0)
(0.022839 -0.498617 0)
(0.0211972 -0.469067 0)
(0.0197044 -0.442926 0)
(0.0181635 -0.419402 0)
(0.0167532 -0.398441 0)
(0.0152508 -0.379259 0)
(0.15955 -1.33569 0)
(0.138043 -1.14312 0)
(0.121847 -0.998399 0)
(0.108971 -0.886502 0)
(0.0986266 -0.796682 0)
(0.0899992 -0.723726 0)
(0.082756 -0.662682 0)
(0.0764897 -0.611388 0)
(0.0710648 -0.567287 0)
(0.0662144 -0.529244 0)
(0.0619279 -0.495953 0)
(0.0579696 -0.466594 0)
(0.0544262 -0.440612 0)
(0.0510491 -0.417255 0)
(0.0480031 -0.396431 0)
(0.0450127 -0.377406 0)
(0.26411 -1.32034 0)
(0.227537 -1.12989 0)
(0.200008 -0.986787 0)
(0.17837 -0.876163 0)
(0.160989 -0.787376 0)
(0.146646 -0.715271 0)
(0.134618 -0.654942 0)
(0.124334 -0.604261 0)
(0.115452 -0.560683 0)
(0.107625 -0.523109 0)
(0.100731 -0.490215 0)
(0.0944802 -0.461234 0)
(0.0889034 -0.435565 0)
(0.08371 -0.412527 0)
(0.079036 -0.391961 0)
(0.0745799 -0.373218 0)
(0.367234 -1.29679 0)
(0.315785 -1.10966 0)
(0.277071 -0.969054 0)
(0.246791 -0.860389 0)
(0.222469 -0.773184 0)
(0.202493 -0.702376 0)
(0.185748 -0.643136 0)
(0.171506 -0.59338 0)
(0.159218 -0.550595 0)
(0.148461 -0.513718 0)
(0.138999 -0.481428 0)
(0.130494 -0.452995 0)
(0.122916 -0.427803 0)
(0.115935 -0.40521 0)
(0.109661 -0.385039 0)
(0.103753 -0.366665 0)
(0.468287 -1.2652 0)
(0.402234 -1.08253 0)
(0.352559 -0.945302 0)
(0.313806 -0.839269 0)
(0.282687 -0.754189 0)
(0.257192 -0.685116 0)
(0.235831 -0.627333 0)
(0.217715 -0.578811 0)
(0.202097 -0.537085 0)
(0.188476 -0.501138 0)
(0.176506 -0.46965 0)
(0.165799 -0.44195 0)
(0.156272 -0.417386 0)
(0.147544 -0.395394 0)
(0.139714 -0.375731 0)
(0.132373 -0.35787 0)
(0.566629 -1.22572 0)
(0.486351 -1.04866 0)
(0.425999 -0.915664 0)
(0.379001 -0.812924 0)
(0.341264 -0.730498 0)
(0.310401 -0.66359 0)
(0.284549 -0.607623 0)
(0.262667 -0.560638 0)
(0.243809 -0.520231 0)
(0.227406 -0.485437 0)
(0.212995 -0.45495 0)
(0.200154 -0.428154 0)
(0.188727 -0.404376 0)
(0.178311 -0.383118 0)
(0.168961 -0.364092 0)
(0.160249 -0.346846 0)
(0.661644 -1.17859 0)
(0.567603 -1.00824 0)
(0.496933 -0.880315 0)
(0.441964 -0.781509 0)
(0.397837 -0.702251 0)
(0.361789 -0.637925 0)
(0.331601 -0.584123 0)
(0.306085 -0.538966 0)
(0.284101 -0.50013 0)
(0.265014 -0.466706 0)
(0.248252 -0.43741 0)
(0.233354 -0.411687 0)
(0.220103 -0.388842 0)
(0.208064 -0.36846 0)
(0.197262 -0.350181 0)
(0.187226 -0.33368 0)
(0.752722 -1.12409 0)
(0.645487 -0.961514 0)
(0.564914 -0.839464 0)
(0.502304 -0.74521 0)
(0.452049 -0.669617 0)
(0.411032 -0.608274 0)
(0.376687 -0.556974 0)
(0.347689 -0.513927 0)
(0.322706 -0.476907 0)
(0.301052 -0.445061 0)
(0.282029 -0.417142 0)
(0.26517 -0.392654 0)
(0.250156 -0.370889 0)
(0.236581 -0.351506 0)
(0.224365 -0.334094 0)
(0.213117 -0.31842 0)
(0.839287 -1.06253 0)
(0.719505 -0.908761 0)
(0.629514 -0.793353 0)
(0.55964 -0.704244 0)
(0.50356 -0.632789 0)
(0.45782 -0.574813 0)
(0.419526 -0.526333 0)
(0.387219 -0.485663 0)
(0.359389 -0.450688 0)
(0.335294 -0.420614 0)
(0.314127 -0.394245 0)
(0.295399 -0.371133 0)
(0.278718 -0.350583 0)
(0.263676 -0.332301 0)
(0.250132 -0.315867 0)
(0.237713 -0.301087 0)
(0.920798 -0.994282 0)
(0.78919 -0.850296 0)
(0.690326 -0.742265 0)
(0.613609 -0.658861 0)
(0.552045 -0.591994 0)
(0.50186 -0.537747 0)
(0.459847 -0.492393 0)
(0.424427 -0.454353 0)
(0.393914 -0.421641 0)
(0.367524 -0.393526 0)
(0.344334 -0.368871 0)
(0.323854 -0.347279 0)
(0.305596 -0.32807 0)
(0.289185 -0.311 0)
(0.274384 -0.295639 0)
(0.260882 -0.281842 0)
(0.996726 -0.919755 0)
(0.854097 -0.78648 0)
(0.746962 -0.686506 0)
(0.663873 -0.609337 0)
(0.597199 -0.547476 0)
(0.542873 -0.497298 0)
(0.497397 -0.45535 0)
(0.459075 -0.420174 0)
(0.426064 -0.389929 0)
(0.397533 -0.363942 0)
(0.372461 -0.341154 0)
(0.350342 -0.321204 0)
(0.330622 -0.303457 0)
(0.312924 -0.287691 0)
(0.296965 -0.273504 0)
(0.282437 -0.260761 0)
(1.0666 -0.839418 0)
(0.913812 -0.717702 0)
(0.799068 -0.626426 0)
(0.710113 -0.555976 0)
(0.638739 -0.499513 0)
(0.580603 -0.453716 0)
(0.53194 -0.415439 0)
(0.49095 -0.383347 0)
(0.45564 -0.355756 0)
(0.425142 -0.332059 0)
(0.398335 -0.311279 0)
(0.374715 -0.293098 0)
(0.353643 -0.27692 0)
(0.334772 -0.26256 0)
(0.317737 -0.249628 0)
(0.30228 -0.238025 0)
(1.12995 -0.753755 0)
(0.967958 -0.644389 0)
(0.846309 -0.562388 0)
(0.752038 -0.499107 0)
(0.676401 -0.448393 0)
(0.61481 -0.407266 0)
(0.563258 -0.372896 0)
(0.519845 -0.344085 0)
(0.48245 -0.31932 0)
(0.450163 -0.298055 0)
(0.421785 -0.279413 0)
(0.396794 -0.263107 0)
(0.374504 -0.248602 0)
(0.354555 -0.235728 0)
(0.336557 -0.224141 0)
(0.320239 -0.21374 0)
(1.1864 -0.663311 0)
(1.01619 -0.566997 0)
(0.888393 -0.494798 0)
(0.789383 -0.439081 0)
(0.709951 -0.394438 0)
(0.645283 -0.358236 0)
(0.591157 -0.327988 0)
(0.545588 -0.302638 0)
(0.506335 -0.280853 0)
(0.472458 -0.262154 0)
(0.442676 -0.245766 0)
(0.416471 -0.23144 0)
(0.393086 -0.218698 0)
(0.372189 -0.207398 0)
(0.35332 -0.197226 0)
(0.336252 -0.188104 0)
(1.23556 -0.568637 0)
(1.0582 -0.486005 0)
(0.925049 -0.424065 0)
(0.821915 -0.376269 0)
(0.739174 -0.337974 0)
(0.671824 -0.306926 0)
(0.615455 -0.280987 0)
(0.568006 -0.259255 0)
(0.527135 -0.240585 0)
(0.491865 -0.224566 0)
(0.460865 -0.210534 0)
(0.433589 -0.198272 0)
(0.409259 -0.187377 0)
(0.387518 -0.177717 0)
(0.367902 -0.169031 0)
(0.350159 -0.161241 0)
(1.27714 -0.470343 0)
(1.09373 -0.401924 0)
(0.956052 -0.35064 0)
(0.849424 -0.31106 0)
(0.763886 -0.279354 0)
(0.694269 -0.253653 0)
(0.636005 -0.232187 0)
(0.586969 -0.214209 0)
(0.54473 -0.198769 0)
(0.50829 -0.185531 0)
(0.476254 -0.173942 0)
(0.448082 -0.163827 0)
(0.422941 -0.154847 0)
(0.4005 -0.146898 0)
(0.380237 -0.139757 0)
(0.361944 -0.13336 0)
(1.31086 -0.369038 0)
(1.12256 -0.31527 0)
(0.981203 -0.274961 0)
(0.871742 -0.243852 0)
(0.783927 -0.218935 0)
(0.71247 -0.198747 0)
(0.652668 -0.181888 0)
(0.602343 -0.167778 0)
(0.558997 -0.155664 0)
(0.521602 -0.145288 0)
(0.488731 -0.136214 0)
(0.459818 -0.128304 0)
(0.434027 -0.121298 0)
(0.410995 -0.115106 0)
(0.390218 -0.109562 0)
(0.371455 -0.104603 0)
(1.33655 -0.265395 0)
(1.14452 -0.226592 0)
(1.00035 -0.19751 0)
(0.888714 -0.175059 0)
(0.799164 -0.157091 0)
(0.726305 -0.142546 0)
(0.665337 -0.130401 0)
(0.614039 -0.12025 0)
(0.569857 -0.111536 0)
(0.531747 -0.104088 0)
(0.498244 -0.09758 0)
(0.468783 -0.0919269 0)
(0.44249 -0.0869378 0)
(0.419025 -0.0825487 0)
(0.397837 -0.0786507 0)
(0.378736 -0.0751761 0)
(1.35408 -0.160097 0)
(1.15949 -0.136409 0)
(1.01335 -0.11873 0)
(0.900232 -0.105099 0)
(0.809486 -0.0942013 0)
(0.735678 -0.085402 0)
(0.67392 -0.0780557 0)
(0.621969 -0.0719326 0)
(0.577229 -0.0666775 0)
(0.538637 -0.0622031 0)
(0.50472 -0.0583028 0)
(0.474876 -0.0549354 0)
(0.448258 -0.05199 0)
(0.424465 -0.0494222 0)
(0.403003 -0.0471924 0)
(0.383631 -0.0452254 0)
(1.36353 -0.05398 0)
(1.1674 -0.045269 0)
(1.02011 -0.039117 0)
(0.906181 -0.0344011 0)
(0.814805 -0.0306569 0)
(0.740506 -0.0276729 0)
(0.678348 -0.0251756 0)
(0.626074 -0.0231268 0)
(0.581061 -0.0213583 0)
(0.542247 -0.0198903 0)
(0.508133 -0.0186031 0)