/*--------------------------------*- C++ -*----------------------------------*\
| =========                 |                                                 |
| \\      /  F ield         | OpenFOAM: The Open Source CFD Toolbox           |
|  \\    /   O peration     | Version:  2.2.0                                 |
|   \\  /    A nd           | Web:      www.OpenFOAM.org                      |
|    \\/     M anipulation  |                                                 |
\*---------------------------------------------------------------------------*/
FoamFile
{
    version     2.0;
    format      ascii;
    class       volScalarField;
    location    "16";
    object      Theta;
}
// * * * * * * * * * * * * * * * * * * * * * * * * * * * * * * * * * * * * * //

dimensions      [0 2 -2 0 0 0 0];

internalField   nonuniform List<scalar> 
7920
(
2.72336
3.00393
3.09587
3.39594
3.46292
4.02144
3.65828
5.20928
2.72872
2.93672
3.05458
3.27532
3.40231
3.72905
3.69554
4.37239
2.73352
2.87411
3.02145
3.19464
3.3497
3.58825
3.66548
4.07868
2.68451
2.81093
2.94673
3.09485
3.24838
3.42325
3.55879
3.78021
2.65546
2.75924
2.89542
3.02955
3.18189
3.33075
3.48677
3.63145
2.5912
2.73381
2.84068
2.98316
3.12684
3.2677
3.43148
3.54416
2.62922
2.72089
2.86
2.98404
3.13658
3.27293
3.43755
3.54916
2.57463
2.79238
2.85278
3.03495
3.1623
3.32549
3.47696
3.62555
2.66519
2.8216
2.93746
3.09875
3.2459
3.42447
3.55915
3.78067
2.70714
2.88311
3.00732
3.19491
3.34245
3.58491
3.66138
4.07441
2.72509
2.93849
3.0524
3.27526
3.4013
3.72787
3.69573
4.36996
2.74519
2.99582
3.10624
3.39449
3.46683
4.02195
3.65925
5.2102
2.34494
2.32427
2.38523
2.41594
2.43912
2.53931
2.4767
2.76179
2.33235
2.33154
2.3821
2.40658
2.45097
2.48825
2.54465
2.57331
2.35823
2.32551
2.38679
2.3912
2.43327
2.44391
2.48991
2.46761
2.31854
2.36103
2.3659
2.40131
2.42442
2.43601
2.48978
2.44576
2.39577
2.33989
2.40574
2.39245
2.43235
2.42322
2.46966
2.4135
2.40239
2.34946
2.40923
2.39645
2.43205
2.42267
2.46543
2.41162
2.3963
2.35251
2.40699
2.39765
2.43205
2.42361
2.46623
2.41289
2.37744
2.34663
2.39607
2.39319
2.42757
2.42159
2.4669
2.41161
2.35736
2.34035
2.38783
2.3949
2.43364
2.4367
2.49341
2.44836
2.33631
2.33357
2.37556
2.3912
2.42752
2.4413
2.48589
2.46517
2.32243
2.3359
2.37769
2.40827
2.4498
2.48935
2.54471
2.57495
2.31558
2.33525
2.36998
2.41679
2.43171
2.53618
2.47278
2.75707
2.22407
2.1854
2.24939
2.25426
2.29961
2.33609
2.37988
2.44233
2.22849
2.18722
2.25095
2.24989
2.30273
2.31227
2.40101
2.35759
2.23137
2.18709
2.24566
2.23917
2.28291
2.28549
2.34845
2.30867
2.23649
2.19467
2.249
2.243
2.28365
2.28757
2.3479
2.31945
2.24367
2.20261
2.25097
2.24398
2.2781
2.28123
2.32846
2.30778
2.24475
2.21001
2.25241
2.24737
2.2782
2.2832
2.32619
2.31395
2.24178
2.21226
2.25102
2.24876
2.27819
2.28418
2.32676
2.3149
2.2227
2.21204
2.23969
2.24599
2.27299
2.28018
2.32589
2.30646
2.24147
2.19263
2.25162
2.24258
2.28478
2.28792
2.34836
2.3202
2.22288
2.18975
2.24111
2.23884
2.28019
2.28416
2.34629
2.30753
2.21368
2.19333
2.24374
2.25117
2.29983
2.31207
2.39974
2.3577
2.20258
2.19467
2.23816
2.25608
2.29459
2.33477
2.37749
2.43987
2.11788
2.08413
2.11568
2.10782
2.12656
2.12845
2.15491
2.14519
2.11721
2.08605
2.11596
2.10726
2.12886
2.12097
2.16581
2.11526
2.11722
2.08829
2.11267
2.10383
2.11866
2.10988
2.13642
2.09576
2.11142
2.09515
2.11154
2.1075
2.11937
2.11447
2.13781
2.11014
2.14743
2.0854
2.13004
2.1054
2.12464
2.11384
2.13144
2.10917
2.15718
2.08639
2.13527
2.10777
2.12717
2.11679
2.13221
2.11522
2.14822
2.08926
2.13138
2.10804
2.1258
2.11656
2.13184
2.11526
2.14323
2.08788
2.12745
2.10648
2.12349
2.114
2.13096
2.10901
2.13049
2.08718
2.12123
2.10578
2.12334
2.11516
2.1393
2.11129
2.12144
2.08552
2.11488
2.10259
2.11911
2.10958
2.13589
2.09618
2.11094
2.08934
2.11284
2.10837
2.12768
2.12146
2.16499
2.11632
2.10351
2.08958
2.10841
2.1086
2.12319
2.12763
2.15297
2.14431
2.08333
2.03522
2.07394
2.05736
2.07569
2.07435
2.09154
2.08795
2.0853
2.03632
2.07464
2.05715
2.07655
2.07002
2.09557
2.07106
2.08868
2.03552
2.07502
2.05517
2.0727
2.06527
2.08228
2.06328
2.0893
2.03819
2.07587
2.0571
2.07351
2.06753
2.08287
2.06991
2.08928
2.0414
2.07571
2.05827
2.07239
2.06718
2.0786
2.06948
2.08758
2.04432
2.07516
2.05984
2.07238
2.06846
2.07847
2.0725
2.08101
2.04799
2.07184
2.06117
2.0713
2.06875
2.07823
2.07254
2.07197
2.04819
2.06727
2.05968
2.0691
2.06683
2.07751
2.06911
2.09193
2.03979
2.07594
2.05881
2.07355
2.06823
2.08306
2.06984
2.10568
2.02728
2.08393
2.05301
2.07625
2.06571
2.08366
2.06437
2.08363
2.03643
2.07396
2.05676
2.07606
2.06972
2.09487
2.07113
2.08484
2.03629
2.0743
2.05863
2.07609
2.07543
2.09178
2.08935
2.04726
2.01276
2.03789
2.02547
2.03543
2.03391
2.0401
2.04057
2.05074
2.0125
2.03903
2.02523
2.03579
2.03153
2.04142
2.03147
2.04789
2.01413
2.03762
2.02539
2.0343
2.03041
2.03685
2.02933
2.04402
2.01701
2.03584
2.02645
2.03366
2.03093
2.03648
2.0314
2.07277
2.00615
2.05069
2.02423
2.03965
2.03172
2.03762
2.03247
2.07958
2.00369
2.05427
2.02381
2.041
2.03207
2.03796
2.0333
2.0735
2.0064
2.0515
2.02449
2.04017
2.03214
2.03786
2.0334
2.07185
2.00654
2.05009
2.02447
2.03933
2.03176
2.03749
2.03228
2.06507
2.00857
2.04647
2.02495
2.03819
2.03199
2.03842
2.03275
2.05573
2.01052
2.04127
2.02431
2.03531
2.03036
2.03663
2.02977
2.05134
2.01387
2.03901
2.02684
2.03609
2.03318
2.04143
2.03396
2.02559
2.02299
2.02619
2.02805
2.03034
2.03319
2.03767
2.03923
2.03396
2.00113
2.02398
2.01172
2.01959
2.01851
2.0196
2.02507
2.04515
1.99635
2.02931
2.01023
2.02139
2.01694
2.02037
2.01928
2.04652
1.99609
2.03036
2.0103
2.02214
2.01702
2.02057
2.01917
2.05159
1.99463
2.03269
2.01018
2.02296
2.01686
2.02069
2.01851
2.05393
1.99505
2.03388
2.01098
2.0238
2.01753
2.02128
2.01893
2.04957
1.99624
2.0316
2.01055
2.02233
2.01654
2.02013
2.01798
2.05352
1.99616
2.03373
2.01208
2.02411
2.01833
2.0218
2.01945
2.02092
2.00967
2.01682
2.01455
2.01691
2.01668
2.01883
2.01736
2.06906
1.98882
2.04156
2.00986
2.02735
2.01813
2.02332
2.01897
2.08024
1.98185
2.04717
2.0077
2.02922
2.01858
2.02406
2.0212
2.06818
1.98733
2.04077
2.00854
2.02616
2.01784
2.02206
2.02035
2.06299
1.98893
2.03897
2.01006
2.02622
2.02139
2.02229
2.03058
2.02337
1.99594
2.01509
2.00429
2.01049
2.00965
2.00869
2.01532
2.03478
1.99374
2.01995
2.00454
2.01231
2.00923
2.00908
2.01156
2.03124
1.99126
2.01984
2.00281
2.01284
2.0091
2.01065
2.01254
2.03856
1.99673
2.02059
2.00807
2.01363
2.01127
2.0114
2.01198
2.04526
1.98981
2.02592
2.00431
2.01596
2.01023
2.01252
2.01193
2.06157
1.9809
2.03464
2.00177
2.01929
2.01015
2.01367
2.01168
2.05989
1.98378
2.03388
2.00326
2.01972
2.01102
2.01442
2.01241
2.05654
1.98145
2.03219
2.00087
2.01783
2.00912
2.01263
2.01102
2.0758
1.97998
2.04113
2.00488
2.02337
2.01419
2.01634
2.01632
2.03548
1.9884
2.02101
2.00034
2.01155
2.0069
2.00797
2.01049
2.1
1.96794
2.05292
2.00244
2.02672
2.01681
2.0148
2.02361
1.94381
2.0348
1.97116
2.01444
1.99088
2.00696
1.99874
2.00987
2.02499
1.98959
2.01487
1.99874
2.00782
2.00384
2.00509
2.00651
2.0084
1.99495
2.0067
1.99833
2.00376
2.001
2.00236
2.00164
2.01761
1.99375
2.01109
1.99988
2.00658
2.00326
2.00489
2.00456
2.00956
1.99466
2.00713
1.9984
2.00399
2.00104
2.00267
2.00192
2.01447
1.99476
2.00934
1.99979
2.00557
2.00254
2.00415
2.0034
2.00874
1.99658
2.00638
1.99949
2.00386
2.00147
2.0028
2.00218
2.01182
1.99414
2.00841
1.99898
2.0049
2.00202
2.00361
2.00308
2.00599
2.00061
2.00365
2.00202
2.0028
2.00248
2.00264
2.00269
2.01246
1.99568
2.00808
2.00001
2.00481
2.00249
2.00349
2.00343
2.00611
1.99857
2.00466
2.00069
2.00326
2.00237
2.00269
2.00348
2.00667
1.9987
2.00474
2.00101
2.00324
2.00265
2.00252
2.00366
2.00496
1.99971
2.0038
2.00147
2.00291
2.00309
2.00245
2.00498
2.01099
1.99437
2.00684
1.99858
2.00333
2.00143
2.00139
2.00342
2.01068
1.99437
2.00639
1.99821
2.00275
2.00043
2.00078
2.00125
2.0083
1.99507
2.00576
1.99859
2.00314
2.00106
2.00195
2.00228
2.00611
1.99748
2.00347
1.99954
2.00166
2.00052
2.00081
2.00085
2.01985
1.98939
2.01167
1.99704
2.00541
2.00095
2.00281
2.00195
2.00402
1.99621
2.00359
1.99789
2.0018
1.99961
2.00084
2.00039
2.01172
1.99452
2.00714
1.99874
2.0037
2.00097
2.00213
2.00155
2.00584
1.99576
2.00424
1.99822
2.00207
2.00006
2.00108
2.00087
2.00632
1.99658
2.0043
1.99899
2.00228
2.00058
2.00127
2.00114
2.0058
1.99663
2.00388
1.99897
2.00197
2.00053
2.00119
2.00119
2.00396
1.99777
2.00293
1.99942
2.00164
2.00064
2.00091
2.00101
2.00471
1.99764
2.00288
1.99935
2.00146
2.00031
2.00128
2.0004
2.01008
1.99555
2.00465
1.9992
2.00154
2.00075
1.99988
2.00177
2.00987
1.99171
2.0063
1.99598
2.00203
1.99899
1.99961
2.00012
2.00648
1.9951
2.00412
1.99767
2.00166
1.99957
2.00033
2.00055
2.00867
1.99373
2.00519
1.99724
2.00198
1.99937
2.00033
2.00007
2.00419
1.99523
2.00303
1.99727
2.00106
1.999
2.00005
1.99979
2.00638
1.99501
2.00386
1.99765
2.00142
1.9993
2.00022
1.99985
2.00147
1.99687
2.00152
1.99801
2.00054
1.99924
1.99996
1.99988
2.00199
1.9968
2.0015
1.99796
2.0003
1.99906
1.99965
1.99965
2.01442
1.99086
2.00825
1.9965
2.0032
1.99957
2.00078
2.00055
1.99973
1.99779
2.00036
1.99818
1.99974
1.99918
1.99919
2.00011
2.00596
1.99596
2.00336
1.99843
2.00108
1.99994
1.9996
2.00062
2.00178
1.99736
2.00114
1.99844
1.99993
1.99958
1.99896
2.00052
2.00187
1.9942
1.99999
1.99541
1.99744
1.99624
1.9949
1.99664
2.00082
1.99389
1.99935
1.99487
1.99681
1.9956
1.99425
1.99604
1.99739
1.99579
1.99806
1.99583
1.99713
1.99648
1.99579
1.99723
1.99728
1.99482
1.99782
1.9948
1.99648
1.99535
1.99494
1.99576
2.01438
1.98705
2.00701
1.99327
2.00077
1.99637
1.99745
1.997
1.99658
1.99507
1.99752
1.99468
1.99653
1.9951
1.99532
1.99529
2.00681
1.99193
2.00258
1.9951
1.99909
1.99652
1.99691
1.99656
2.00004
1.99361
1.99929
1.99464
1.99731
1.99561
1.99576
1.99601
2.00118
1.99421
1.99973
1.99533
1.9976
1.99611
1.99573
1.99634
2.00038
1.9944
1.9993
1.99541
1.99735
1.99633
1.99562
1.99715
1.99762
1.99602
1.99758
1.99573
1.99621
1.99583
1.9941
1.99612
1.99833
1.99543
1.99818
1.9956
1.99661
1.99601
1.99459
1.9962
2.00536
1.98802
2.00055
1.99191
1.99613
1.99419
1.99262
1.99597
1.99468
1.99225
1.99478
1.99221
1.99313
1.99294
1.99027
1.99464
2.00195
1.98991
1.99879
1.99285
1.99604
1.99503
1.99413
1.99767
1.99691
1.99047
1.9962
1.99184
1.99439
1.99333
1.99279
1.99484
1.99739
1.99057
1.99648
1.99226
1.99499
1.99392
1.99401
1.9955
1.99667
1.99015
1.99597
1.9918
1.99451
1.99334
1.99359
1.99456
1.99325
1.99203
1.99438
1.99249
1.99414
1.99362
1.99369
1.99481
1.99442
1.99116
1.99502
1.99195
1.99418
1.99338
1.99348
1.99498
2.00953
1.98474
2.00291
1.99065
1.99734
1.994
1.99414
1.99581
1.99673
1.99083
1.99645
1.99206
1.99472
1.99406
1.99311
1.99699
2.00325
1.98912
1.99917
1.99211
1.99517
1.99401
1.99117
1.99611
1.99842
1.99063
1.99695
1.99215
1.99434
1.9937
1.99138
1.99562
1.9752
1.96317
1.96411
1.95452
1.94977
1.94261
1.93097
1.92795
1.97497
1.96203
1.96355
1.95402
1.94826
1.94416
1.92628
1.93662
1.97166
1.96327
1.9634
1.95623
1.95182
1.94884
1.93656
1.94489
1.97031
1.96106
1.96223
1.95417
1.95054
1.94642
1.9352
1.93976
1.98116
1.95489
1.96792
1.95314
1.95409
1.94782
1.93991
1.94167
1.971
1.95717
1.96257
1.9524
1.95149
1.94597
1.93865
1.93876
1.97628
1.95581
1.96512
1.9528
1.95283
1.94677
1.93951
1.93941
1.97418
1.95748
1.96449
1.95332
1.95258
1.94724
1.93916
1.94113
1.97526
1.95927
1.96485
1.95393
1.95181
1.94674
1.93586
1.94004
1.97687
1.96062
1.96609
1.95537
1.95279
1.94876
1.93681
1.94502
1.97347
1.96268
1.96298
1.95415
1.94815
1.94421
1.92624
1.93673
1.97271
1.96376
1.96304
1.95438
1.94933
1.94234
1.93085
1.92753
1.98069
1.96715
1.97066
1.96165
1.95884
1.95334
1.94421
1.9435
1.97865
1.96675
1.96935
1.96109
1.95706
1.95438
1.93948
1.95054
1.98056
1.96591
1.97165
1.96286
1.9614
1.95903
1.94957
1.95867
1.97876
1.96434
1.97044
1.96127
1.96037
1.95698
1.94851
1.95385
1.97728
1.96341
1.96999
1.96117
1.96129
1.95782
1.95188
1.9552
1.97686
1.96195
1.9695
1.96017
1.9608
1.95681
1.95165
1.95315
1.97397
1.96325
1.96829
1.96062
1.96057
1.95701
1.95178
1.95333
1.97011
1.9658
1.96654
1.96137
1.95983
1.95733
1.9513
1.95467
1.98885
1.95988
1.97576
1.96033
1.96274
1.95736
1.94967
1.95418
1.98524
1.96273
1.97457
1.96136
1.96259
1.95865
1.95
1.95869
1.98823
1.96241
1.97455
1.96002
1.95937
1.95473
1.94041
1.9511
1.98647
1.96349
1.97425
1.96021
1.96034
1.95347
1.94452
1.94459
2.75386
3.06948
3.15603
3.4802
3.55502
4.12598
3.78255
5.31496
2.74726
3.03675
3.12957
3.39556
3.53607
3.87741
3.9023
4.53168
2.73667
3.00609
3.09624
3.33028
3.48198
3.73289
3.84144
4.19956
2.73929
2.97141
3.0699
3.2718
3.42789
3.61819
3.77905
3.96693
2.70869
2.96067
3.03327
3.23518
3.37743
3.54532
3.70773
3.83043
2.71022
2.94705
3.02157
3.21402
3.35263
3.50863
3.67128
3.76865
2.70665
2.94263
3.01766
3.20813
3.3473
3.50115
3.66609
3.75803
2.71295
2.9458
3.02532
3.21657
3.3588
3.51608
3.68132
3.77974
2.71547
2.95898
3.04438
3.2467
3.39865
3.57795
3.75254
3.90069
2.72962
2.97308
3.06672
3.28037
3.42976
3.64822
3.77277
4.03907
2.727
2.99946
3.09611
3.34382
3.49335
3.79825
3.88329
4.38645
2.75002
3.00466
3.10951
3.38978
3.47089
3.97249
3.68885
4.99714
2.26033
2.31287
2.32681
2.38751
2.39209
2.5122
2.42283
2.76853
2.25445
2.3041
2.31772
2.36435
2.38582
2.44458
2.44958
2.55643
2.25387
2.29407
2.31034
2.34824
2.37253
2.41135
2.42922
2.48281
2.24679
2.28642
2.30119
2.33466
2.36126
2.38459
2.42253
2.42538
2.24694
2.28018
2.29611
2.32497
2.35125
2.36522
2.40658
2.3825
2.24341
2.27813
2.29292
2.32108
2.34743
2.35839
2.40281
2.36879
2.24988
2.279
2.29678
2.32334
2.34994
2.361
2.40342
2.37183
2.24269
2.28929
2.29844
2.33363
2.35828
2.37799
2.41614
2.4061
2.26661
2.29033
2.31616
2.34373
2.37192
2.39865
2.42457
2.44902
2.26451
2.31154
2.3274
2.37243
2.39628
2.45222
2.45668
2.5657
2.28267
2.31794
2.33956
2.38368
2.39874
2.47296
2.43342
2.61387
2.28834
2.34053
2.36044
2.42893
2.43121
2.58528
2.45525
2.93448
2.15025
2.18907
2.20463
2.24449
2.2723
2.33191
2.35309
2.477
2.14759
2.18242
2.19688
2.22931
2.2595
2.29427
2.34072
2.37171
2.14609
2.17715
2.19133
2.22079
2.24898
2.27999
2.32086
2.35029
2.14068
2.17345
2.18476
2.21325
2.24027
2.26716
2.31166
2.33018
2.14654
2.16704
2.18492
2.20723
2.23542
2.25814
2.30188
2.31372
2.14259
2.16801
2.18183
2.20608
2.23268
2.25532
2.29913
2.30944
2.14825
2.16742
2.18492
2.20678
2.23393
2.25634
2.29822
2.3108
2.14885
2.17203
2.18853
2.21287
2.24017
2.26668
2.3064
2.3306
2.15434
2.17652
2.19352
2.21835
2.24427
2.27432
2.30617
2.34457
2.16067
2.18586
2.20551
2.23542
2.26358
2.30668
2.33344
2.41024
2.16316
2.19176
2.20749
2.23854
2.26052
2.30706
2.31277
2.40605
2.17113
2.20551
2.22633
2.26871
2.29375
2.37604
2.3638
2.58828
2.06837
2.08543
2.08435
2.09756
2.10449
2.11846
2.13165
2.15473
2.07261
2.07986
2.08366
2.09034
2.09917
2.10281
2.12286
2.11197
2.06992
2.0783
2.08026
2.08697
2.09381
2.09784
2.11185
2.1074
2.07011
2.07635
2.07904
2.08463
2.0913
2.09454
2.1086
2.10369
2.06994
2.07518
2.07795
2.08289
2.08908
2.09175
2.10441
2.09917
2.07094
2.07505
2.07848
2.08307
2.0894
2.09218
2.10465
2.10028
2.07088
2.07629
2.07891
2.08403
2.08992
2.09325
2.1044
2.10222
2.07473
2.07787
2.08253
2.08746
2.09413
2.09926
2.10944
2.11349
2.08079
2.07794
2.0869
2.08907
2.09652
2.10206
2.10839
2.11847
2.07756
2.08616
2.08985
2.09888
2.10575
2.1187
2.12382
2.15212
2.08605
2.08616
2.0936
2.09878
2.10398
2.11539
2.11063
2.14085
2.08658
2.09491
2.10261
2.11524
2.12344
2.15139
2.14576
2.23218
2.03555
2.045
2.046
2.05318
2.05912
2.0663
2.07835
2.08657
2.0357
2.04354
2.0445
2.05007
2.05577
2.05878
2.07266
2.0661
2.0355
2.04215
2.04335
2.04826
2.05314
2.05654
2.06666
2.06484
2.03594
2.04135
2.04287
2.04732
2.05196
2.05527
2.06487
2.06398
2.03504
2.04129
2.04197
2.04674
2.05078
2.0542
2.06275
2.0625
2.03698
2.04062
2.04306
2.04674
2.05133
2.05462
2.06303
2.06354
2.03807
2.04092
2.04381
2.04724
2.05185
2.0553
2.06306
2.06473
2.03903
2.04205
2.04524
2.04897
2.05384
2.05816
2.06551
2.07005
2.04103
2.04308
2.04673
2.0502
2.05487
2.05954
2.06523
2.07214
2.04323
2.04531
2.05014
2.05445
2.06021
2.06728
2.07325
2.08728
2.04412
2.04672
2.05082
2.05483
2.05956
2.06577
2.06814
2.08139
2.0474
2.04985
2.05675
2.06259
2.07007
2.08279
2.08717
2.12378
2.00966
2.0234
2.01675
2.02378
2.0238
2.02729
2.0324
2.03393
2.0171
2.0193
2.01995
2.02178
2.02395
2.02454
2.03053
2.02586
2.01315
2.01991
2.0175
2.02078
2.02171
2.02288
2.02693
2.0246
2.01549
2.01907
2.0184
2.02063
2.02186
2.02289
2.0266
2.02508
2.01538
2.01868
2.01816
2.02013
2.02131
2.02229
2.02552
2.02441
2.01613
2.01861
2.01862
2.02031
2.02165
2.02266
2.02577
2.02516
2.01713
2.01859
2.01926
2.02058
2.02209
2.02311
2.026
2.02595
2.01781
2.01893
2.02
2.02124
2.02297
2.02425
2.027
2.02805
2.01925
2.01929
2.02109
2.02198
2.0239
2.02525
2.02758
2.02955
2.01877
2.02073
2.02183
2.02367
2.02577
2.02806
2.03061
2.03497
2.02191
2.02072
2.02375
2.02433
2.02684
2.02839
2.03022
2.03367
2.02234
2.02225
2.0258
2.02748
2.03104
2.03528
2.0382
2.05097
2.00455
2.01044
2.00798
2.0109
2.0113
2.01271
2.01574
2.0156
2.00425
2.01021
2.00762
2.01029
2.01064
2.01135
2.01451
2.01194
2.00676
2.00909
2.00844
2.0098
2.01036
2.01091
2.01307
2.01178
2.0058
2.00941
2.00795
2.00982
2.0101
2.01089
2.01281
2.01209
2.00043
2.01201
2.0049
2.01045
2.00863
2.01062
2.0118
2.01174
2.00702
2.00857
2.00861
2.00952
2.01026
2.01091
2.01253
2.01245
2.00536
2.00947
2.00776
2.00974
2.00993
2.01091
2.0124
2.01261
2.00721
2.00907
2.00887
2.00999
2.0107
2.01146
2.01301
2.01334
2.00854
2.00905
2.00973
2.0104
2.01146
2.0121
2.01388
2.01431
2.00952
2.00903
2.01052
2.01076
2.01225
2.01269
2.01477
2.01507
2.01064
2.00936
2.01169
2.01162
2.0137
2.01387
2.01671
2.01619
2.01123
2.00946
2.01267
2.0124
2.01515
2.01579
2.01915
2.02097
1.99076
2.01008
1.99716
2.00608
2.00201
2.00473
2.00546
2.00494
2.00159
2.0043
2.00321
2.00445
2.0045
2.005
2.00625
2.00533
1.99557
2.00649
1.99991
2.00427
2.00257
2.00383
2.00445
2.00392
1.99982
2.00523
2.00203
2.00451
2.00371
2.00462
2.00519
2.00514
1.99993
2.00488
2.00201
2.00416
2.00348
2.00427
2.00476
2.00475
2.00079
2.00465
2.00253
2.00424
2.00384
2.00451
2.00505
2.00511
2.0042
2.00351
2.0041
2.00417
2.00451
2.00473
2.00541
2.00538
2.00408
2.00352
2.00417
2.00417
2.00462
2.00474
2.00547
2.0053
1.99911
2.00582
2.00186
2.00494
2.00409
2.00509
2.00602
2.00592
2.00308
2.00413
2.0039
2.00446
2.00489
2.00477
2.00613
2.00475
2.00354
2.00427
2.00474
2.00514
2.00631
2.00606
2.00877
2.00674
2.00537
2.00379
2.00567
2.00512
2.00675
2.00596
2.00892
2.0061
1.99347
2.00408
1.99766
2.00175
2.00008
2.00102
2.00188
2.00061
1.99258
2.00425
1.99739
2.00173
2
2.00109
2.00163
2.00091
1.99742
2.00248
1.99939
2.00135
2.00045
2.00098
2.00125
2.00085
1.99704
2.00262
1.99937
2.00142
2.00059
2.00118
2.00142
2.00128
1.98976
2.00636
1.99531
2.00246
1.99883
2.00099
2.00055
2.00092
1.99703
2.00303
1.99922
2.00179
2.00058
2.00142
2.00142
2.00151
1.99377
2.0039
1.99761
2.00158
1.99976
2.00092
2.00097
2.00105
1.99768
2.00306
1.99951
2.00189
2.00081
2.0014
2.00165
2.00122
1.99706
2.00257
1.99937
2.00144
2.00078
2.00112
2.00192
2.00101
2.00145
2.00186
2.00148
2.00183
2.00196
2.00143
2.00272
2.00051
1.99837
2.00167
2.00072
2.00132
2.00215
2.00139
2.00387
2.0008
2.01217
1.99835
2.00665
2.00159
2.00462
2.00196
2.00535
2.00061
2.00148
2.00003
2.00098
2.00047
2.00075
2.00072
2.00071
2.00104
1.99984
2.00033
2.00019
2.00023
2.00028
2.0003
2.00032
2.00038
2.00211
1.99977
2.0013
2.0004
2.00088
2.00069
2.00075
2.00083
2.00058
1.99979
2.00063
2.00005
2.00046
2.0003
2.00044
2.00046
2.002
1.99967
2.0013
2.00029
2.00089
2.0006
2.00076
2.00071
2.00115
1.99944
2.0009
1.9999
2.00054
2.00022
2.00046
2.00037
2.00234
1.99943
2.00155
2.00025
2.00106
2.00065
2.00094
2.00077
1.99877
2.00028
1.99975
1.99989
2.00005
1.99991
2.00023
1.99994
2.00645
1.99713
2.00384
1.99958
2.00208
2.00071
2.00157
2.0009
1.99915
2.00034
1.99988
1.9999
2.00015
1.99973
2.00037
1.99939
2.00436
1.99874
2.00273
2.00031
2.00201
2.00095
2.00218
2.00096
2.00174
1.99916
2.00133
1.99971
2.00102
1.99981
2.00133
1.99921
1.99911
1.99996
1.99933
1.99969
1.99946
1.99953
1.99952
1.99938
1.99893
1.99994
1.9993
1.99965
1.99944
1.99955
1.99941
1.99954
1.99893
1.99998
1.99934
1.99973
1.99954
1.99968
1.99959
1.99975
1.99868
2.00001
1.9992
1.99962
1.99942
1.99954
1.99944
1.9996
2.0013
1.99887
2.00055
1.99948
2.00003
1.99975
1.99981
1.99984
1.99925
1.99953
1.99954
1.99941
1.99954
1.99946
1.99951
1.99954
2.0012
1.99895
2.00048
1.99949
2.00002
1.99971
1.99985
1.99974
2.00004
1.99901
1.99996
1.99922
1.99969
1.99936
1.99956
1.99933
2.00016
1.99902
2.00006
1.99928
1.99986
1.99948
1.99989
1.99949
2.00078
1.99868
2.00027
1.99908
1.9998
1.99913
1.99963
1.99873
1.99842
1.99951
1.99943
1.99933
1.99985
1.99939
2.00035
1.99921
2.00016
1.9984
2.00017
1.9987
1.99983
1.99873
1.99995
1.9977
1.99723
1.9982
1.99707
1.99728
1.99657
1.99631
1.99549
1.99509
1.99815
1.99782
1.9976
1.99735
1.9969
1.99674
1.9958
1.99622
1.99842
1.99774
1.99781
1.99739
1.99711
1.99686
1.99619
1.99631
1.9982
1.99774
1.99778
1.99737
1.99714
1.99687
1.99625
1.99627
1.99853
1.99767
1.99796
1.9974
1.99728
1.99695
1.99644
1.99638
1.99874
1.99753
1.99805
1.99732
1.99728
1.99686
1.99639
1.99619
1.99791
1.99773
1.99776
1.99734
1.99728
1.9969
1.99655
1.99629
1.99937
1.99707
1.99821
1.99699
1.99715
1.99644
1.99615
1.99551
2.00431
1.99431
2.00121
1.99624
1.99867
1.9968
1.99718
1.99625
1.99422
1.99856
1.99559
1.99675
1.99579
1.99548
1.99525
1.994
2.00179
1.99602
1.99952
1.99694
1.99803
1.99677
1.99723
1.99589
1.99659
1.99681
1.99669
1.9958
1.99592
1.99452
1.99498
1.99181
1.99512
1.99548
1.99481
1.99479
1.99425
1.99392
1.99323
1.99252
1.99555
1.99564
1.99524
1.99528
1.99478
1.99496
1.99378
1.99508
1.99549
1.99561
1.99533
1.99533
1.995
1.99514
1.99447
1.99527
1.99592
1.99564
1.99559
1.9955
1.99523
1.99533
1.99466
1.99536
1.99438
1.99644
1.9948
1.99579
1.995
1.99544
1.99479
1.99553
1.99588
1.99555
1.99561
1.99544
1.99529
1.99532
1.99485
1.99535
1.99637
1.99529
1.99581
1.99536
1.99536
1.99527
1.99497
1.99521
1.99513
1.99526
1.99514
1.99493
1.99485
1.99461
1.99446
1.99412
1.996
1.99498
1.99552
1.99497
1.99517
1.99472
1.99506
1.99413
1.99539
1.99445
1.99488
1.99404
1.99421
1.99311
1.9937
1.99103
1.99507
1.9946
1.99509
1.99445
1.99509
1.99405
1.99577
1.99289
1.99538
1.9935
1.99443
1.99277
1.99339
1.99077
1.99298
1.98526
1.96974
1.97312
1.96208
1.9601
1.95133
1.94373
1.93619
1.92055
1.98019
1.96898
1.96878
1.961
1.95571
1.94966
1.9395
1.93685
1.97471
1.97159
1.96661
1.96197
1.95572
1.95049
1.94172
1.93793
1.978
1.97138
1.96873
1.96309
1.95757
1.95244
1.94355
1.9406
1.97713
1.97167
1.96859
1.9633
1.9579
1.95298
1.94455
1.94182
1.97743
1.97158
1.96879
1.96335
1.95807
1.95306
1.94475
1.94178
1.97728
1.97119
1.96863
1.96304
1.95797
1.95277
1.94497
1.94129
1.97663
1.97036
1.96772
1.96174
1.95661
1.9506
1.94318
1.93726
1.97673
1.96943
1.96764
1.96119
1.95673
1.95013
1.94438
1.93623
1.97383
1.96858
1.96451
1.95818
1.95264
1.94394
1.93863
1.92363
1.97567
1.96721
1.9659
1.95855
1.95503
1.94591
1.94494
1.92789
1.97257
1.96487
1.96162
1.95269
1.94808
1.9331
1.93382
1.89565
1.9784
1.9741
1.97047
1.9654
1.96072
1.95326
1.94916
1.93476
1.97933
1.97495
1.97175
1.96747
1.96254
1.95822
1.95081
1.94842
1.98042
1.9751
1.97276
1.96829
1.96389
1.95976
1.95346
1.95075
1.97991
1.9759
1.97303
1.96919
1.96474
1.96114
1.95452
1.95282
1.97576
1.97821
1.97105
1.97019
1.96438
1.9619
1.95528
1.95432
1.98169
1.9754
1.9742
1.96957
1.96576
1.96217
1.95596
1.95462
1.97868
1.97596
1.97265
1.96924
1.965
1.96159
1.9558
1.95392
1.97959
1.97489
1.97258
1.96824
1.96423
1.95992
1.95453
1.95045
1.97891
1.97415
1.97207
1.96758
1.96406
1.95922
1.95546
1.94919
1.97822
1.97244
1.9703
1.96466
1.96088
1.95369
1.95059
1.93771
1.97765
1.972
1.97056
1.96509
1.96273
1.95538
1.95645
1.94139
1.97638
1.96937
1.96743
1.95979
1.95685
1.94394
1.94682
1.91232
2.76232
3.06511
3.16099
3.47781
3.55712
4.12199
3.78526
5.29804
2.75832
3.03448
3.13904
3.39863
3.54655
3.88374
3.92216
4.53494
2.74449
3.00632
3.10389
3.33363
3.49006
3.73701
3.85302
4.19621
2.73625
2.98005
3.07382
3.28111
3.43833
3.62985
3.79768
3.97874
2.72777
2.96186
3.05012
3.24495
3.39489
3.56118
3.72964
3.84832
2.72344
2.95301
3.03844
3.22802
3.374
3.53131
3.69981
3.79906
2.72503
2.95232
3.03909
3.22786
3.37414
3.53125
3.69976
3.79897
2.7281
2.96227
3.05017
3.24534
3.395
3.56145
3.72976
3.84856
2.73018
2.98253
3.07066
3.28144
3.43686
3.62939
3.79686
3.97824
2.74695
3.00586
3.10494
3.334
3.49057
3.73756
3.85328
4.19687
2.7532
3.03629
3.13625
3.39862
3.54497
3.88304
3.92098
4.5342
2.76265
3.06506
3.16109
3.47804
3.55707
4.12256
3.78484
5.2993
2.25733
2.31402
2.32542
2.38832
2.3917
2.51452
2.42193
2.77759
2.25158
2.30392
2.31525
2.36327
2.3829
2.44352
2.44361
2.55834
2.24715
2.29449
2.30622
2.34738
2.36985
2.41117
2.42658
2.48702
2.23755
2.28702
2.2949
2.33267
2.35646
2.38177
2.4171
2.424
2.23501
2.27972
2.288
2.32158
2.34511
2.36099
2.40085
2.37957
2.23475
2.27527
2.28522
2.31606
2.34013
2.35167
2.39498
2.36097
2.23258
2.27602
2.28422
2.3161
2.33971
2.35153
2.39479
2.36089
2.23573
2.27949
2.28834
2.32161
2.34526
2.36109
2.40093
2.37968
2.23985
2.28654
2.29588
2.33288
2.3569
2.3821
2.41734
2.42432
2.2445
2.29565
2.30487
2.34762
2.36929
2.4111
2.42631
2.48695
2.25187
2.3047
2.31523
2.36395
2.38311
2.44399
2.44391
2.55873
2.25567
2.31478
2.32453
2.38847
2.3913
2.51436
2.42185
2.77713
2.14349
2.19329
2.20089
2.24678
2.271
2.33483
2.35166
2.48621
2.15259
2.17973
2.19912
2.22896
2.25964
2.29591
2.33757
2.37766
2.14124
2.17757
2.18914
2.22096
2.24833
2.28208
2.32079
2.35787
2.14262
2.17121
2.18538
2.21289
2.24047
2.26858
2.3114
2.33485
2.13798
2.16779
2.18009
2.20678
2.23334
2.2586
2.30165
2.31749
2.13705
2.16587
2.17817
2.20407
2.23047
2.25428
2.29836
2.31022
2.13784
2.16581
2.17839
2.2041
2.23047
2.25422
2.29824
2.31005
2.13696
2.16804
2.17978
2.20687
2.23337
2.25877
2.30183
2.31775
2.13728
2.17371
2.18237
2.21342
2.23904
2.26818
2.31066
2.3342
2.1477
2.17533
2.19236
2.22096
2.24989
2.2828
2.32172
2.35867
2.14735
2.18183
2.19635
2.22903
2.25828
2.29511
2.3368
2.37651
2.15188
2.1886
2.20575
2.24537
2.27315
2.33514
2.35261
2.48718
2.07127
2.08364
2.0863
2.09759
2.10562
2.1209
2.13159
2.16362
2.06998
2.08012
2.08178
2.08972
2.09703
2.10243
2.11784
2.11466
2.06962
2.07756
2.0799
2.08695
2.09356
2.09938
2.11123
2.1137
2.06562
2.07614
2.07621
2.08356
2.08912
2.09376
2.10572
2.10506
2.05888
2.07818
2.07103
2.08269
2.08515
2.09062
2.1016
2.09979
2.07111
2.07103
2.0771
2.08001
2.08691
2.08944
2.10155
2.0979
2.06295
2.07382
2.07305
2.07999
2.085
2.08857
2.10046
2.0971
2.06815
2.07365
2.0762
2.0816
2.08749
2.09108
2.10272
2.1005
2.06737
2.07531
2.07692
2.08325
2.0892
2.09361
2.10553
2.10503
2.06958
2.07776
2.08003
2.08717
2.09379
2.09973
2.11138
2.11428
2.0712
2.0796
2.08226
2.08959
2.09707
2.10247
2.11757
2.11498
2.07286
2.08349
2.08706
2.0979
2.10597
2.1215
2.13138
2.16486
2.03033
2.04852
2.04303
2.05492
2.05811
2.06806
2.07738
2.09234
2.04183
2.04071
2.04717
2.0495
2.05609
2.05945
2.07007
2.06931
2.03245
2.04255
2.04183
2.04819
2.05241
2.05732
2.06592
2.06886
2.03684
2.04033
2.04291
2.04694
2.05155
2.05544
2.06365
2.06565
2.03378
2.03981
2.04095
2.04551
2.04974
2.05358
2.06162
2.0633
2.03434
2.03954
2.04096
2.0453
2.04952
2.05316
2.06124
2.06246
2.03461
2.03921
2.04097
2.04505
2.04931
2.05289
2.06096
2.06216
2.03455
2.03999
2.0414
2.04593
2.05018
2.05405
2.06205
2.06378
2.02897
2.04386
2.03862
2.04758
2.04956
2.05485
2.06263
2.06483
2.04037
2.04011
2.04572
2.04841
2.05435
2.05832
2.06709
2.06991
2.03478
2.04309
2.0436
2.04933
2.0543
2.05838
2.06901
2.06803
2.03898
2.04439
2.04784
2.05401
2.0603
2.06865
2.07841
2.09353
2.01639
2.02011
2.02046
2.02323
2.02556
2.02846
2.0331
2.03766
2.01673
2.01928
2.01956
2.02146
2.02331
2.02421
2.02868
2.02643
2.0165
2.01858
2.01904
2.02078
2.02243
2.02372
2.02715
2.02716
2.01574
2.01841
2.01834
2.02024
2.02156
2.02274
2.0258
2.02556
2.00907
2.0214
2.01435
2.02061
2.01942
2.02187
2.02429
2.02445
2.02012
2.01604
2.02008
2.01938
2.02173
2.0222
2.0252
2.02475
2.01259
2.01836
2.01642
2.01914
2.01994
2.02126
2.02412
2.02394
2.01709
2.01777
2.01869
2.01995
2.0214
2.02244
2.02529
2.02517
2.01527
2.01818
2.01803
2.01986
2.02117
2.02238
2.02534
2.02539
2.01645
2.01884
2.01914
2.02105
2.02263
2.02411
2.02726
2.02784
2.01682
2.01904
2.01945
2.02123
2.02296
2.02404
2.02805
2.02661
2.01716
2.02023
2.02083
2.02359
2.02571
2.02909
2.03268
2.03918
2.00407
2.01111
2.00768
2.01132
2.01131
2.0133
2.01554
2.01758
2.01025
2.00809
2.01032
2.01011
2.01153
2.0118
2.01392
2.01311
2.0054
2.00914
2.00791
2.00965
2.01016
2.01109
2.01282
2.01301
2.008
2.00853
2.00887
2.00968
2.01037
2.01102
2.0125
2.01261
2.00646
2.00843
2.00807
2.0092
2.00976
2.0105
2.01196
2.01214
2.00684
2.00848
2.00821
2.00931
2.00985
2.01056
2.01198
2.0121
2.00698
2.00826
2.00821
2.00913
2.00971
2.01038
2.0118
2.01191
2.0067
2.00864
2.00824
2.00948
2.00999
2.01079
2.01219
2.01244
2.00288
2.01075
2.00617
2.00999
2.00912
2.0106
2.01181
2.01209
2.0095
2.00816
2.00983
2.01
2.01114
2.01175
2.01344
2.0137
2.0057
2.00942
2.00807
2.00985
2.01032
2.01106
2.01307
2.01233
2.00809
2.00953
2.00976
2.01118
2.01223
2.01376
2.01592
2.0184
2.00276
2.00411
2.00383
2.00458
2.00503
2.00549
2.00681
2.00705
2.00287
2.00403
2.00365
2.00429
2.00456
2.00468
2.00579
2.00488
2.00291
2.00376
2.0035
2.00402
2.00423
2.00447
2.00529
2.00503
2.00266
2.00397
2.00348
2.00423
2.00433
2.00465
2.00531
2.00511
1.99426
2.00761
1.99896
2.00471
2.00218
2.00394
2.00406
2.00442
2.0082
2.00208
2.00591
2.00413
2.00523
2.00498
2.00557
2.00541
1.99895
2.0044
2.00158
2.00351
2.00305
2.00374
2.00424
2.00444
2.00415
2.00374
2.00404
2.00434
2.00452
2.00481
2.00527
2.00535
2.00186
2.00381
2.00298
2.00381
2.0038
2.00424
2.00468
2.00493
2.00257
2.0041
2.00348
2.00434
2.00438
2.00496
2.00533
2.00596
2.00317
2.00378
2.00356
2.00408
2.0041
2.00454
2.00488
2.00514
2.00242
2.00447
2.00367
2.0049
2.00483
2.00615
2.00599
2.00893
1.99715
2.00411
1.99901
2.00263
2.00083
2.00198
2.00211
2.00215
2.00497
1.99978
2.00344
2.00138
2.00264
2.00214
2.00267
2.00234
1.9977
2.00245
1.99974
2.00141
2.00084
2.00125
2.00156
2.00137
2.00271
2.00124
2.00208
2.0018
2.00203
2.00202
2.00225
2.00214
1.99957
2.00159
2.00061
2.00126
2.00113
2.00134
2.00157
2.00156
2.00078
2.00174
2.00117
2.00167
2.00157
2.00177
2.00194