/*--------------------------------*- C++ -*----------------------------------*\
| =========                 |                                                 |
| \\      /  F ield         | foam-extend: Open Source CFD                    |
|  \\    /   O peration     | Version:  3.0                                   |
|   \\  /    A nd           | Web:         http://www.extend-project.de       |
|    \\/     M anipulation  |                                                 |
\*---------------------------------------------------------------------------*/
FoamFile
{
    version     2.0;
    format      ascii;
    class       volScalarField;
    location    "18";
    object      p;
}
// * * * * * * * * * * * * * * * * * * * * * * * * * * * * * * * * * * * * * //

dimensions      [0 0 0 0 0 0 0];

internalField   nonuniform List<scalar> 
7680
(
-0.234095
-0.22196
-0.21293
-0.203443
-0.196493
-0.188963
-0.18356
-0.177519
-0.173295
-0.168413
-0.165104
-0.161141
-0.158553
-0.155325
-0.15331
-0.150677
-0.149117
-0.146966
-0.145765
-0.144002
-0.143081
-0.141626
-0.140915
-0.139699
-0.139134
-0.138092
-0.137615
-0.136688
-0.136242
-0.135369
-0.134896
-0.134019
-0.13346
-0.132517
-0.131808
-0.130732
-0.129806
-0.128524
-0.127305
-0.125736
-0.23387
-0.221747
-0.212726
-0.203249
-0.196306
-0.188784
-0.183386
-0.177352
-0.173132
-0.168255
-0.16495
-0.160991
-0.158406
-0.155182
-0.153169
-0.150539
-0.148981
-0.146832
-0.145633
-0.143872
-0.142952
-0.1415
-0.140789
-0.139575
-0.139011
-0.137971
-0.137495
-0.136569
-0.136123
-0.135252
-0.13478
-0.133904
-0.133345
-0.132403
-0.131695
-0.130619
-0.129694
-0.128412
-0.127194
-0.125625
-0.233357
-0.221262
-0.212262
-0.202806
-0.19588
-0.188375
-0.18299
-0.176969
-0.17276
-0.167895
-0.164598
-0.160648
-0.15807
-0.154853
-0.152846
-0.150222
-0.148668
-0.146525
-0.145329
-0.143573
-0.142656
-0.141207
-0.140499
-0.139288
-0.138726
-0.137689
-0.137215
-0.136291
-0.135847
-0.134978
-0.134507
-0.133634
-0.133077
-0.132136
-0.13143
-0.130356
-0.129433
-0.128154
-0.126938
-0.125372
-0.232631
-0.220574
-0.211603
-0.202177
-0.195273
-0.187791
-0.182424
-0.176422
-0.172226
-0.167376
-0.16409
-0.160152
-0.157583
-0.154377
-0.152376
-0.149761
-0.148212
-0.146076
-0.144885
-0.143134
-0.14222
-0.140776
-0.140071
-0.138864
-0.138304
-0.13727
-0.136798
-0.135877
-0.135435
-0.134569
-0.1341
-0.133229
-0.132674
-0.131736
-0.131032
-0.129961
-0.129041
-0.127765
-0.126553
-0.124992
-0.231619
-0.219615
-0.210684
-0.2013
-0.194427
-0.186979
-0.181635
-0.175661
-0.171484
-0.166656
-0.163385
-0.159465
-0.156907
-0.153716
-0.151725
-0.149122
-0.147581
-0.145454
-0.144269
-0.142526
-0.141617
-0.14018
-0.139479
-0.138277
-0.137721
-0.136692
-0.136222
-0.135306
-0.134866
-0.134004
-0.133537
-0.13267
-0.132117
-0.131184
-0.130483
-0.129417
-0.128501
-0.127231
-0.126024
-0.12447
-0.230396
-0.218456
-0.209572
-0.200238
-0.193402
-0.185994
-0.180679
-0.174736
-0.170581
-0.165779
-0.162526
-0.158627
-0.156083
-0.152909
-0.150928
-0.14834
-0.146807
-0.144692
-0.143513
-0.14178
-0.140876
-0.139447
-0.138749
-0.137554
-0.137001
-0.135978
-0.13551
-0.134599
-0.134161
-0.133304
-0.13284
-0.131977
-0.131427
-0.130499
-0.129802
-0.128742
-0.12783
-0.126567
-0.125367
-0.123823
-0.228888
-0.217028
-0.208203
-0.198931
-0.19214
-0.184781
-0.179502
-0.173599
-0.169472
-0.164702
-0.161471
-0.157599
-0.155072
-0.151919
-0.149952
-0.147381
-0.145859
-0.143758
-0.142588
-0.140867
-0.139969
-0.13855
-0.137857
-0.136671
-0.136121
-0.135105
-0.134641
-0.133736
-0.133302
-0.13245
-0.131989
-0.131132
-0.130586
-0.129664
-0.128971
-0.127918
-0.127013
-0.125759
-0.124567
-0.123034
-0.227173
-0.215402
-0.206644
-0.197442
-0.190702
-0.183399
-0.178159
-0.172301
-0.168205
-0.163471
-0.160264
-0.156421
-0.153914
-0.150785
-0.148833
-0.146281
-0.14477
-0.142686
-0.141524
-0.139816
-0.138926
-0.137517
-0.13683
-0.135652
-0.135107
-0.134099
-0.133638
-0.13274
-0.132309
-0.131463
-0.131005
-0.130155
-0.129613
-0.128698
-0.12801
-0.126966
-0.126067
-0.124823
-0.123641
-0.122121
-0.225177
-0.21351
-0.20483
-0.19571
-0.18903
-0.181792
-0.176599
-0.170793
-0.166734
-0.162042
-0.158864
-0.155055
-0.152571
-0.14947
-0.147535
-0.145007
-0.14351
-0.141444
-0.140293
-0.138601
-0.137719
-0.136323
-0.135642
-0.134475
-0.133935
-0.132936
-0.132479
-0.131589
-0.131162
-0.130324
-0.12987
-0.129028
-0.128491
-0.127583
-0.126902
-0.125867
-0.124977
-0.123745
-0.122573
-0.121069
-0.222977
-0.211425
-0.20283
-0.193799
-0.187185
-0.180017
-0.174876
-0.169126
-0.165107
-0.160462
-0.157315
-0.153544
-0.151083
-0.148013
-0.146098
-0.143594
-0.142112
-0.140067
-0.138927
-0.137251
-0.136377
-0.134995
-0.134321
-0.133166
-0.132631
-0.131641
-0.131189
-0.130308
-0.129885
-0.129055
-0.128606
-0.127771
-0.127239
-0.126341
-0.125666
-0.124642
-0.12376
-0.122541
-0.121382
-0.119894
-0.220501
-0.209078
-0.200579
-0.191649
-0.185109
-0.178022
-0.172938
-0.167254
-0.16328
-0.158687
-0.155575
-0.151847
-0.149414
-0.146379
-0.144485
-0.14201
-0.140544
-0.138522
-0.137396
-0.135739
-0.134875
-0.133509
-0.132842
-0.1317
-0.131171
-0.130193
-0.129746
-0.128875
-0.128456
-0.127636
-0.127192
-0.126367
-0.125841
-0.124953
-0.124286
-0.123273
-0.122402
-0.121197
-0.120052
-0.118583
-0.217826
-0.206542
-0.198147
-0.189325
-0.182865
-0.175864
-0.170842
-0.165227
-0.161301
-0.156764
-0.15369
-0.150007
-0.147604
-0.144606
-0.142735
-0.14029
-0.138843
-0.136845
-0.135732
-0.134096
-0.133243
-0.131893
-0.131234
-0.130106
-0.129583
-0.128617
-0.128175
-0.127315
-0.126901
-0.126091
-0.125651
-0.124836
-0.124316
-0.123439
-0.12278
-0.12178
-0.12092
-0.119731
-0.118601
-0.117151
-0.21488
-0.203749
-0.195469
-0.186768
-0.180395
-0.17349
-0.168536
-0.162997
-0.159126
-0.15465
-0.151619
-0.147986
-0.145616
-0.142659
-0.140814
-0.138402
-0.136975
-0.135005
-0.133907
-0.132293
-0.131452
-0.130121
-0.129471
-0.128359
-0.127843
-0.12689
-0.126455
-0.125606
-0.125197
-0.124398
-0.123965
-0.123161
-0.122648
-0.121783
-0.121134
-0.120148
-0.1193
-0.118128
-0.117015
-0.115586
-0.211742
-0.200774
-0.192614
-0.18404
-0.177761
-0.170957
-0.166076
-0.160618
-0.156803
-0.152393
-0.149406
-0.145827
-0.143492
-0.140577
-0.13876
-0.136383
-0.134977
-0.133036
-0.131954
-0.130364
-0.129534
-0.128223
-0.127583
-0.126486
-0.125978
-0.125039
-0.124609
-0.123773
-0.12337
-0.122583
-0.122155
-0.121364
-0.120858
-0.120006
-0.119366
-0.118395
-0.11756
-0.116407
-0.11531
-0.113905
-0.208339
-0.197548
-0.18952
-0.181085
-0.174907
-0.168213
-0.163411
-0.158042
-0.154289
-0.14995
-0.147012
-0.14349
-0.141193
-0.138326
-0.136538
-0.1342
-0.132817
-0.130907
-0.129843
-0.128279
-0.127463
-0.126173
-0.125543
-0.124464
-0.123965
-0.123041
-0.122618
-0.121795
-0.121399
-0.120625
-0.120204
-0.119426
-0.118928
-0.11809
-0.117461
-0.116506
-0.115685
-0.114552
-0.113474
-0.112093
-0.20475
-0.194146
-0.186256
-0.177966
-0.171896
-0.165317
-0.160598
-0.155321
-0.151632
-0.147369
-0.144481
-0.14102
-0.138763
-0.135945
-0.134188
-0.131891
-0.130531
-0.128654
-0.127609
-0.126071
-0.12527
-0.124001
-0.123382
-0.122322
-0.121831
-0.120923
-0.120507
-0.119698
-0.119309
-0.118548
-0.118134
-0.117369
-0.11688
-0.116057
-0.115439
-0.114501
-0.113695
-0.112582
-0.111524
-0.110168
-0.200905
-0.1905
-0.182759
-0.174626
-0.16867
-0.162215
-0.157585
-0.152408
-0.14879
-0.144607
-0.141774
-0.138378
-0.136164
-0.1334
-0.131676
-0.129422
-0.128088
-0.126247
-0.125222
-0.123713
-0.122927
-0.121682
-0.121075
-0.120035
-0.119553
-0.118662
-0.118255
-0.117461
-0.117079
-0.116333
-0.115927
-0.115176
-0.114697
-0.11389
-0.113284
-0.112364
-0.111574
-0.110483
-0.109446
-0.108117
-0.196881
-0.186685
-0.1791
-0.17113
-0.165293
-0.158968
-0.154431
-0.149357
-0.145811
-0.141712
-0.138936
-0.135609
-0.133438
-0.13073
-0.129041
-0.126832
-0.125525
-0.12372
-0.122715
-0.121237
-0.120466
-0.119247
-0.118652
-0.117632
-0.11716
-0.116287
-0.115887
-0.11511
-0.114735
-0.114003
-0.113606
-0.11287
-0.112401
-0.11161
-0.111016
-0.110115
-0.109341
-0.108273
-0.107258
-0.105958
-0.19261
-0.182636
-0.175215
-0.167419
-0.161709
-0.155522
-0.151084
-0.146121
-0.142652
-0.138643
-0.135927
-0.132673
-0.13055
-0.127901
-0.126248
-0.124088
-0.122809
-0.121045
-0.120062
-0.118616
-0.117862
-0.116669
-0.116087
-0.11509
-0.114628
-0.113774
-0.113384
-0.112623
-0.112257
-0.111541
-0.111152
-0.110433
-0.109974
-0.1092
-0.10862
-0.10774
-0.106983
-0.105939
-0.104947
-0.103677
-0.188169
-0.178425
-0.171176
-0.16356
-0.157982
-0.151937
-0.147601
-0.142753
-0.139365
-0.135448
-0.132795
-0.129615
-0.127541
-0.124953
-0.123339
-0.121228
-0.119979
-0.118255
-0.117295
-0.115882
-0.115146
-0.11398
-0.113412
-0.112437
-0.111986
-0.111151
-0.11077
-0.110026
-0.109669
-0.108969
-0.10859
-0.107887
-0.107439
-0.106684
-0.106117
-0.105257
-0.104519
-0.1035
-0.102531
-0.101291
-0.18349
-0.173989
-0.166921
-0.159494
-0.154055
-0.148162
-0.143934
-0.139207
-0.135903
-0.132084
-0.129498
-0.126398
-0.124376
-0.121853
-0.120279
-0.118221
-0.117004
-0.115323
-0.114386
-0.113009
-0.112291
-0.111155
-0.110601
-0.109651
-0.109211
-0.108397
-0.108025
-0.107301
-0.106952
-0.10627
-0.1059
-0.105216
-0.104779
-0.104043
-0.10349
-0.102653
-0.101934
-0.100941
-0.0999974
-0.0987896
-0.178651
-0.169401
-0.162519
-0.155288
-0.149993
-0.144255
-0.140139
-0.135537
-0.13232
-0.128602
-0.126084
-0.123066
-0.121097
-0.11864
-0.117108
-0.115104
-0.113919
-0.112282
-0.111371
-0.11003
-0.109331
-0.108224
-0.107685
-0.10676
-0.106331
-0.105539
-0.105177
-0.104471
-0.104132
-0.103468
-0.103108
-0.102441
-0.102016
-0.1013
-0.100762
-0.0999477
-0.0992476
-0.0982818
-0.0973642
-0.0961894
-0.173583
-0.164596
-0.15791
-0.150885
-0.145741
-0.140166
-0.136168
-0.131696
-0.128572
-0.124959
-0.122513
-0.119581
-0.117669
-0.115282
-0.113793
-0.111847
-0.110695
-0.109105
-0.10822
-0.106917
-0.106238
-0.105164
-0.10464
-0.103741
-0.103325
-0.102556
-0.102204
-0.101518
-0.101189
-0.100544
-0.100195
-0.0995472
-0.0991342
-0.0984389
-0.097917
-0.0971262
-0.0964466
-0.095509
-0.0946183
-0.0934778
-0.168368
-0.15965
-0.153166
-0.146352
-0.141362
-0.135955
-0.132077
-0.12774
-0.124709
-0.121205
-0.118832
-0.115988
-0.114134
-0.111818
-0.110375
-0.108487
-0.10737
-0.105828
-0.104969
-0.103705
-0.103047
-0.102004
-0.101496
-0.100624
-0.100221
-0.0994742
-0.0991328
-0.0984682
-0.0981483
-0.0975233
-0.0971842
-0.0965565
-0.096156
-0.0954819
-0.0949761
-0.0942095
-0.0935509
-0.0926422
-0.0917789
-0.0906736
-0.162934
-0.154498
-0.148223
-0.14163
-0.136802
-0.13157
-0.127817
-0.123621
-0.120688
-0.117298
-0.115002
-0.112251
-0.110456
-0.108216
-0.10682
-0.104993
-0.103912
-0.10242
-0.101589
-0.100367
-0.0997298
-0.0987214
-0.0982295
-0.0973865
-0.096996
-0.096274
-0.0959439
-0.095301
-0.0949917
-0.0943872
-0.0940593
-0.0934522
-0.0930651
-0.0924133
-0.0919242
-0.091183
-0.0905461
-0.0896675
-0.0888328
-0.0877641
-0.157363
-0.149216
-0.143156
-0.136788
-0.132125
-0.127072
-0.123448
-0.119395
-0.116563
-0.113288
-0.111071
-0.108413
-0.10668
-0.104517
-0.103168
-0.101404
-0.10036
-0.0989192
-0.0981167
-0.0969359
-0.0963206
-0.0953467
-0.0948715
-0.0940574
-0.0936801
-0.0929828
-0.0926639
-0.0920431
-0.0917444
-0.0911607
-0.090844
-0.090258
-0.0898842
-0.089255
-0.088783
-0.0880676
-0.087453
-0.086605
-0.0857995
-0.0847681
-0.151586
-0.143738
-0.137901
-0.131768
-0.127277
-0.12241
-0.118919
-0.115016
-0.112288
-0.109134
-0.106999
-0.104439
-0.10277
-0.100687
-0.0993876
-0.0976886
-0.0966837
-0.0952959
-0.0945231
-0.0933861
-0.0927936
-0.0918558
-0.0913984
-0.0906144
-0.0902513
-0.0895798
-0.089273
-0.0886752
-0.0883878
-0.0878258
-0.0875212
-0.086957
-0.0865974
-0.0859917
-0.0855375
-0.0848489
-0.0842574
-0.0834412
-0.082666
-0.0816731
-0.145684
-0.138142
-0.132533
-0.126638
-0.122322
-0.117644
-0.11429
-0.110538
-0.107917
-0.104886
-0.102834
-0.100374
-0.0987698
-0.0967675
-0.095519
-0.0938862
-0.0929204
-0.0915866
-0.0908439
-0.0897511
-0.0891817
-0.0882804
-0.0878408
-0.0870873
-0.0867383
-0.0860931
-0.0857981
-0.0852237
-0.0849476
-0.0844076
-0.0841149
-0.0835729
-0.0832275
-0.0826458
-0.0822095
-0.0815482
-0.0809802
-0.0801963
-0.0794518
-0.0784984
-0.139589
-0.132363
-0.126988
-0.121341
-0.117206
-0.112725
-0.109511
-0.105917
-0.103406
-0.100502
-0.0985365
-0.0961801
-0.0946436
-0.0927254
-0.0915297
-0.0899656
-0.0890405
-0.0877629
-0.0870517
-0.086005
-0.0854597
-0.0845965
-0.0841755
-0.0834539
-0.0831199
-0.0825019
-0.0822197
-0.0816697
-0.0814054
-0.0808884
-0.0806083
-0.0800894
-0.0797588
-0.0792019
-0.0787844
-0.0781512
-0.0776075
-0.076857
-0.0761443
-0.0752314
-0.133381
-0.126477
-0.121342
-0.115945
-0.111994
-0.107712
-0.104642
-0.101208
-0.0988082
-0.0960341
-0.0941557
-0.091904
-0.090436
-0.0886032
-0.0874606
-0.0859661
-0.0850822
-0.0838615
-0.0831819
-0.0821818
-0.0816608
-0.0808359
-0.0804337
-0.0797442
-0.079425
-0.0788347
-0.078565
-0.0780395
-0.0777871
-0.0772933
-0.0770258
-0.0765302
-0.0762145
-0.0756826
-0.075284
-0.0746794
-0.0741603
-0.0734437
-0.0727632
-0.0718915
-0.126993
-0.12042
-0.115532
-0.110394
-0.106633
-0.102557
-0.0996338
-0.0963648
-0.0940806
-0.0914399
-0.089652
-0.0875087
-0.0861114
-0.0843669
-0.0832794
-0.081857
-0.0810158
-0.079854
-0.0792073
-0.0782555
-0.0777598
-0.0769748
-0.0765922
-0.0759361
-0.0756326
-0.0750708
-0.0748144
-0.0743145
-0.0740745
-0.0736047
-0.0733504
-0.072879
-0.0725789
-0.0720729
-0.0716939
-0.0711188
-0.070625
-0.0699433
-0.0692959
-0.0684665
-0.120507
-0.11427
-0.109631
-0.104756
-0.101187
-0.0973194
-0.0945457
-0.0914438
-0.0892764
-0.0867707
-0.0850742
-0.0830405
-0.0817146
-0.0800593
-0.0790275
-0.0776777
-0.0768796
-0.0757772
-0.0751636
-0.0742604
-0.0737901
-0.0730453
-0.0726823
-0.0720598
-0.0717718
-0.0712389
-0.0709956
-0.0705214
-0.0702938
-0.0698481
-0.069607
-0.0691599
-0.0688753
-0.0683956
-0.0680362
-0.0674908
-0.0670227
-0.0663763
-0.0657625
-0.0649761
-0.113854
-0.107962
-0.10358
-0.0989748
-0.0956034
-0.0919496
-0.0893297
-0.0863997
-0.0843525
-0.0819857
-0.0803833
-0.0784624
-0.0772103
-0.0756468
-0.0746725
-0.0733977
-0.0726441
-0.071603
-0.0710237
-0.0701709
-0.0697269
-0.0690236
-0.0686811
-0.0680933
-0.0678216
-0.0673185
-0.0670891
-0.0666414
-0.0664268
-0.0660062
-0.0657788
-0.0653568
-0.0650884
-0.0646356
-0.0642965
-0.0637817
-0.06334
-0.0627298
-0.0621504
-0.0614079
-0.107117
-0.101574
-0.097451
-0.0931186
-0.0899469
-0.0865095
-0.0840447
-0.0812882
-0.0793624
-0.0771357
-0.0756284
-0.0738213
-0.0726433
-0.0711725
-0.070256
-0.0690567
-0.0683478
-0.0673684
-0.0668235
-0.0660212
-0.0656037
-0.0649421
-0.0646199
-0.0640671
-0.0638115
-0.0633383
-0.0631226
-0.0627016
-0.0624998
-0.0621043
-0.0618906
-0.0614938
-0.0612415
-0.0608159
-0.0604972
-0.0600133
-0.0595981
-0.0590245
-0.0584799
-0.0577819
-0.100228
-0.0950415
-0.0911844
-0.0871314
-0.0841643
-0.0809486
-0.0786431
-0.0760645
-0.0742631
-0.0721803
-0.0707705
-0.0690802
-0.0679786
-0.0666029
-0.0657458
-0.0646243
-0.0639614
-0.0630455
-0.0625362
-0.0617859
-0.0613957
-0.0607771
-0.0604761
-0.0599593
-0.0597206
-0.0592783
-0.0590768
-0.0586834
-0.058495
-0.0581254
-0.0579258
-0.057555
-0.0573195
-0.0569216
-0.0566239
-0.0561717
-0.0557837
-0.0552476
-0.0547385
-0.054086
-0.0932688
-0.0884428
-0.0848537
-0.0810822
-0.0783214
-0.0753292
-0.0731839
-0.0707846
-0.0691085
-0.0671705
-0.0658588
-0.0642861
-0.0632611
-0.0619812
-0.0611837
-0.0601402
-0.0595236
-0.0586715
-0.0581976
-0.0574996
-0.0571366
-0.0565612
-0.0562812
-0.0558004
-0.0555785
-0.055167
-0.0549798
-0.0546138
-0.0544387
-0.054095
-0.0539096
-0.0535648
-0.0533459
-0.0529761
-0.0526994
-0.052279
-0.0519184
-0.0514199
-0.0509468
-0.0503402
-0.086172
-0.0817139
-0.0783986
-0.0749149
-0.0723648
-0.0696011
-0.0676197
-0.0654037
-0.0638558
-0.0620659
-0.0608546
-0.0594022
-0.0584559
-0.057274
-0.0565378
-0.0555743
-0.0550051
-0.0542184
-0.0537811
-0.0531368
-0.0528019
-0.0522707
-0.0520126
-0.0515689
-0.0513643
-0.0509847
-0.0508121
-0.0504745
-0.0503132
-0.0499962
-0.0498253
-0.0495073
-0.0493056
-0.0489644
-0.0487093
-0.0483214
-0.0479888
-0.0475289
-0.0470923
-0.0465324
-0.0790209
-0.074933
-0.0718932
-0.0686988
-0.0663606
-0.0638265
-0.0620099
-0.059978
-0.0585589
-0.0569179
-0.0558074
-0.0544758
-0.0536082
-0.0525246
-0.0518498
-0.0509665
-0.0504448
-0.0497236
-0.0493229
-0.0487322
-0.0484253
-0.0479385
-0.047702
-0.0472953
-0.047108
-0.0467601
-0.0466021
-0.0462928
-0.0461451
-0.0458547
-0.0456983
-0.045407
-0.0452224
-0.0449099
-0.0446764
-0.0443212
-0.0440166
-0.0435954
-0.0431956
-0.0426829
-0.0717472
-0.0680364
-0.0652772
-0.0623777
-0.0602556
-0.0579556
-0.056307
-0.054463
-0.0531752
-0.051686
-0.0506785
-0.0494702
-0.0486832
-0.0477
-0.047088
-0.0462867
-0.0458136
-0.0451595
-0.0447962
-0.0442606
-0.0439825
-0.0435411
-0.0433269
-0.0429583
-0.0427887
-0.0424734
-0.0423305
-0.0420502
-0.0419167
-0.0416535
-0.0415121
-0.0412482
-0.0410811
-0.040798
-0.0405865
-0.0402646
-0.0399887
-0.0396069
-0.0392446
-0.0387797
-0.0644348
-0.0611026
-0.058625
-0.0560214
-0.054116
-0.0520508
-0.0505706
-0.0489149
-0.0477588
-0.0464218
-0.0455174
-0.0444326
-0.0437262
-0.0428436
-0.0422943
-0.041575
-0.0411505
-0.0405634
-0.0402375
-0.0397567
-0.0395073
-0.0391112
-0.0389192
-0.0385884
-0.0384364
-0.0381536
-0.0380256
-0.0377742
-0.0376546
-0.0374187
-0.037292
-0.0370555
-0.0369058
-0.036652
-0.0364626
-0.0361741
-0.0359268
-0.0355846
-0.0352598
-0.0348431
-0.0570153
-0.0540677
-0.0518764
-0.0495736
-0.0478886
-0.0460622
-0.0447534
-0.0432893
-0.0422672
-0.0410851
-0.0402856
-0.0393266
-0.0387024
-0.0379223
-0.037437
-0.0368014
-0.0364265
-0.0359077
-0.03562
-0.0351954
-0.0349754
-0.0346256
-0.0344564
-0.0341644
-0.0340306
-0.033781
-0.0336683
-0.0334466
-0.0333414
-0.0331333
-0.0330218
-0.0328132
-0.0326814
-0.0324575
-0.0322906
-0.032036
-0.0318179
-0.0315158
-0.0312292
-0.0308613
-0.0495729
-0.0470107
-0.045106
-0.0431044
-0.0416399
-0.0400525
-0.0389151
-0.0376427
-0.0367547
-0.0357274
-0.0350329
-0.0341996
-0.0336574
-0.0329797
-0.0325583
-0.0320061
-0.0316806
-0.0312301
-0.0309804
-0.0306117
-0.0304209
-0.0301172
-0.0299704
-0.0297171
-0.0296011
-0.0293846
-0.0292871
-0.0290947
-0.0290037
-0.0288233
-0.0287269
-0.028546
-0.028432
-0.028238
-0.0280934
-0.0278727
-0.0276838
-0.027422
-0.0271736
-0.0268546
-0.0420394
-0.0398677
-0.0382537
-0.0365575
-0.0353168
-0.0339718
-0.0330085
-0.0319307
-0.0311787
-0.0303086
-0.0297207
-0.0290152
-0.0285564
-0.0279827
-0.0276263
-0.027159
-0.026884
-0.0265029
-0.026292
-0.0259803
-0.0258193
-0.0255627
-0.0254391
-0.025225
-0.0251275
-0.0249447
-0.0248628
-0.0247006
-0.0246242
-0.024472
-0.024391
-0.0242385
-0.0241426
-0.0239789
-0.0238571
-0.0236709
-0.0235116
-0.0232905
-0.0230808
-0.0228113
-0.034499
-0.0327178
-0.0313942
-0.0300031
-0.0289859
-0.0278831
-0.0270934
-0.0262098
-0.0255936
-0.0248805
-0.0243989
-0.0238208
-0.0234451
-0.0229751
-0.0226834
-0.0223008
-0.0220758
-0.0217638
-0.0215915
-0.0213363
-0.0212049
-0.020995
-0.0208943
-0.0207193
-0.0206399
-0.0204906
-0.0204241
-0.0202916
-0.0202296
-0.0201054
-0.0200397
-0.0199153
-0.0198373
-0.0197038
-0.0196048
-0.0194529
-0.0193231
-0.0191427
-0.0189717
-0.0187518
-0.0268836
-0.0254973
-0.0244675
-0.0233852
-0.0225942
-0.0217364
-0.0211227
-0.0204357
-0.0199571
-0.0194029
-0.0190291
-0.0185801
-0.0182887
-0.0179239
-0.017698
-0.0174011
-0.0172271
-0.0169853
-0.0168522
-0.0166547
-0.0165535
-0.0163911
-0.0163137
-0.0161786
-0.0161178
-0.0160026
-0.0159518
-0.0158497
-0.0158025
-0.0157068
-0.0156567
-0.0155609
-0.0155013
-0.0153984
-0.0153224
-0.0152053
-0.0151054
-0.0149662
-0.0148343
-0.0146644
-0.0192776
-0.0182851
-0.0175483
-0.0167739
-0.0162082
-0.0155948
-0.0151562
-0.0146652
-0.0143235
-0.0139277
-0.0136611
-0.0133406
-0.0131331
-0.0128729
-0.0127122
-0.0125007
-0.0123772
-0.0122051
-0.0121109
-0.0119705
-0.0118991
-0.0117839
-0.0117296
-0.0116338
-0.0115914
-0.0115099
-0.0114746
-0.0114026
-0.0113698
-0.0113025
-0.0112677
-0.0112002
-0.0111587
-0.0110863
-0.0110331
-0.0109507
-0.0108805
-0.0107824
-0.0106895
-0.0105695
-0.0116129
-0.0110179
-0.0105768
-0.0101131
-0.00977515
-0.00940841
-0.00914692
-0.00885384
-0.00865057
-0.00841474
-0.00825663
-0.00806606
-0.00794344
-0.0077891
-0.0076946
-0.00756948
-0.00749727
-0.00739578
-0.00734115
-0.00725867
-0.00721768
-0.00715029
-0.0071195
-0.00706378
-0.00704011
-0.00699296
-0.00697356
-0.00693206
-0.00691417
-0.0068755
-0.00685641
-0.00681775
-0.00679467
-0.00675312
-0.00672311
-0.00667561
-0.00663555
-0.00657881
-0.00652525
-0.00645566
-0.00397397
-0.00377449
-0.00362771
-0.0034732
-0.00336162
-0.00324024
-0.00315473
-0.00305845
-0.00299274
-0.00291592
-0.00286551
-0.00280402
-0.0027656
-0.00271636
-0.00268741
-0.00264801
-0.00262654
-0.00259508
-0.00257949
-0.00255441
-0.00254336
-0.00252333
-0.00251567
-0.00249955
-0.00249426
-0.00248102
-0.00247715
-0.00246584
-0.0024625
-0.00245221
-0.00244852
-0.00243835
-0.00243343
-0.00242245
-0.00241539
-0.00240265
-0.00239245
-0.00237693
-0.00236254
-0.00234312
0.00370729
0.00350843
0.00335878
0.00320184
0.00308526
0.00295941
0.00286748
0.00276539
0.00269234
0.00260883
0.00255051
0.00248178
0.00243511
0.00237827
0.00234091
0.00229373
0.00226379
0.00222446
0.00220043
0.00216745
0.00214803
0.00212011
0.00210417
0.00208016
0.00206667
0.00204551
0.00203347
0.00201416
0.00200262
0.00198415
0.00197211
0.00195345
0.00193991
0.00191999
0.00190385
0.00188153
0.0018616
0.00183563
0.00181061
0.00177961
0.0113464
0.0107519
0.010308
0.00984183
0.00949882
0.00912759
0.00885967
0.00856076
0.00835015
0.00810762
0.0079416
0.00774376
0.0076129
0.00745095
0.00734803
0.00721511
0.00713444
0.00702506
0.00696199
0.0068716
0.00682224
0.00674696
0.00670788
0.00664428
0.0066124
0.00655734
0.00652976
0.00648026
0.00645417
0.00640733
0.00637989
0.00633276
0.00630106
0.00625058
0.00621151
0.00615443
0.00610465
0.00603747
0.00597331
0.00589213
0.0190114
0.0180194
0.0172796
0.0165027
0.015932
0.015314
0.014869
0.0143722
0.0140231
0.0136205
0.013346
0.0130182
0.0128024
0.0125346
0.0123655
0.0121462
0.0120142
0.0118342
0.0117316
0.0115833
0.0115035
0.0113803
0.0113177
0.0112141
0.0111634
0.0110741
0.0110306
0.0109506
0.0109096
0.0108341
0.010791
0.0107151
0.0106649
0.0105836
0.0105214
0.0104294
0.0103495
0.010241
0.0101375
0.010006
0.0266178
0.0252318
0.0241991
0.0231142
0.022318
0.0214557
0.0208355
0.0201426
0.0196566
0.0190957
0.0187139
0.0182575
0.0179579
0.0175854
0.0173511
0.0170464
0.0168639
0.0166141
0.0164726
0.0162671
0.0161575
0.0159872
0.0159015
0.0157585
0.0156895
0.0155664
0.0155075
0.0153974
0.0153419
0.0152382
0.0151797
0.0150755
0.0150073
0.0148955
0.0148105
0.0146839
0.0145743
0.0144247
0.0142823
0.0141008
0.0342338
0.0324528
0.0311261
0.0297323
0.0287099
0.0276024
0.0268063
0.0259167
0.025293
0.0245731
0.0240835
0.0234981
0.0231141
0.0226364
0.0223362
0.0219457
0.0217122
0.0213922
0.0212115
0.0209484
0.0208086
0.0205907
0.0204816
0.0202988
0.0202112
0.020054
0.0199793
0.0198388
0.0197686
0.0196363
0.0195623
0.0194295
0.019343
0.0192006
0.0190926
0.0189312
0.0187918
0.0186011
0.0184196
0.0181882
0.0417748
0.0396033
0.037986
0.036287
0.035041
0.0336913
0.0327214
0.0316375
0.030878
0.0300011
0.0294052
0.0286923
0.0282251
0.0276437
0.0272788
0.0268036
0.02652
0.0261309
0.0259116
0.0255918
0.0254224
0.0251578
0.0250259
0.024804
0.0246982
0.0245075
0.0244175
0.0242472
0.0241627
0.0240024
0.0239132
0.0237522
0.0236478
0.0234753
0.0233447
0.023149
0.0229801
0.0227487
0.0225286
0.0222477
0.0493093
0.0467469
0.0448388
0.0428342
0.0413644
0.0397721
0.0386281
0.0373496
0.036454
0.0354198
0.0347172
0.0338765
0.0333259
0.0326403
0.0322104
0.0316502
0.0313162
0.0308576
0.0305994
0.0302227
0.0300234
0.0297118
0.0295567
0.0292953
0.0291712
0.0289467
0.0288411
0.0286408
0.0285417
0.0283531
0.0282485
0.0280593
0.0279368
0.027734
0.0275806
0.0273506
0.0271522
0.0268801
0.0266214
0.026291
0.0567527
0.0538047
0.0516099
0.0493039
0.0476134
0.045782
0.0444665
0.0429962
0.0419665
0.0407773
0.0399697
0.0390032
0.0383705
0.0375826
0.0370887
0.036445
0.0360616
0.0355347
0.0352385
0.0348058
0.0345773
0.0342195
0.0340419
0.033742
0.0335999
0.0333424
0.0332216
0.0329919
0.0328786
0.0326625
0.0325428
0.0323259
0.0321857
0.0319532
0.0317774
0.0315135
0.0312861
0.0309739
0.030677
0.0302978
0.0641734
0.0608404
0.0583591
0.0557522
0.0538412
0.0517709
0.0502838
0.0486219
0.0474581
0.046114
0.0452013
0.0441089
0.043394
0.0425036
0.0419456
0.0412182
0.0407851
0.0401898
0.0398552
0.0393664
0.0391085
0.0387044
0.0385039
0.0381652
0.038005
0.0377142
0.0375781
0.0373188
0.0371911
0.0369472
0.0368124
0.0365676
0.0364096
0.0361472
0.0359491
0.0356513
0.0353948
0.0350426
0.0347076
0.0342798
0.0714871
0.0677753
0.0650122
0.0621091
0.0599813
0.057676
0.0560204
0.0541699
0.0528744
0.051378
0.0503622
0.0491463
0.0483507
0.0473596
0.0467388
0.0459294
0.0454476
0.0447853
0.0444133
0.0438695
0.0435829
0.0431334
0.0429108
0.0425342
0.0423564
0.0420332
0.0418821
0.0415939
0.0414523
0.0411812
0.0410317
0.0407597
0.0405843
0.0402927
0.0400726
0.0397416
0.0394565
0.0390649
0.0386925
0.0382167
0.0787624
0.0746731
0.0716291
0.0684309
0.0660869
0.0635473
0.0617236
0.0596852
0.0582582
0.0566099
0.0554911
0.0541517
0.0532755
0.0521838
0.0515002
0.0506087
0.0500782
0.0493488
0.0489393
0.0483405
0.048025
0.04753
0.047285
0.0468704
0.0466748
0.046319
0.0461528
0.0458356
0.0456799
0.0453816
0.0452172
0.0449178
0.044725
0.0444041
0.0441621
0.0437979
0.0434843
0.0430534
0.0426437
0.0421202
0.0859151
0.0814552
0.0781356
0.0746478
0.0720917
0.0693223
0.0673338
0.065111
0.0635552
0.0617579
0.0605382
0.0590779
0.0581229
0.0569328
0.0561878
0.055216
0.054638
0.0538429
0.0533968
0.0527443
0.0524007
0.0518614
0.0515947
0.051143
0.0509301
0.0505426
0.0503619
0.0500165
0.0498472
0.0495223
0.0493434
0.0490174
0.0488076
0.0484581
0.0481947
0.047798
0.0474565
0.046987
0.0465407
0.0459702
0.0930139
0.0881857
0.0845919
0.0808162
0.0780491
0.0750511
0.0728985
0.0704923
0.0688082
0.0668626
0.0655424
0.0639617
0.0629279
0.0616397
0.0608334
0.0597815
0.0591559
0.0582954
0.0578127
0.0571064
0.0567346
0.056151
0.0558625
0.0553736
0.0551434
0.054724
0.0545286
0.0541549
0.0539718
0.0536203
0.0534269
0.0530743
0.0528474
0.0524694
0.0521845
0.0517555
0.0513861
0.0508783
0.0503957
0.0497786
0.0999748
0.0947859
0.090924
0.0868663
0.0838929
0.0806712
0.0783582
0.0757726
0.073963
0.0718725
0.0704541
0.0687557
0.0676452
0.0662612
0.0653951
0.0642651
0.0635933
0.0626689
0.0621506
0.061392
0.0609929
0.0603661
0.0600565
0.0595316
0.0592845
0.0588343
0.0586247
0.0582235
0.0580271
0.0576498
0.0574424
0.0570638
0.0568204
0.0564146
0.0561088
0.0556482
0.0552517
0.0547064
0.0541881
0.0535253
0.106867
0.10132
0.0971921
0.0928548
0.0896765
0.0862329
0.0837606
0.0809969
0.0790627
0.0768283
0.0753122
0.0734969
0.07231
0.0708308
0.0699051
0.0686973
0.0679793
0.0669913
0.0664374
0.0656266
0.0652002
0.0645303
0.0641995
0.0636385
0.0633746
0.0628934
0.0626696
0.0622408
0.0620311
0.061628
0.0614065
0.061002
0.060742
0.0603085
0.0599819
0.0594899
0.0590663
0.0584838
0.0579302
0.0572223
0.113606
0.10771
0.103323
0.0987123
0.0953342
0.0916739
0.0890463
0.0861089
0.0840534
0.0816786
0.0800675
0.0781382
0.076877
0.075305
0.0743215
0.073038
0.0722752
0.0712254
0.0706371
0.0697756
0.0693228
0.0686111
0.0682598
0.0676639
0.0673838
0.0668727
0.0666352
0.0661798
0.0659572
0.0655291
0.065294
0.0648645
0.0645885
0.064128
0.0637812
0.0632585
0.0628087
0.0621899
0.0616018
0.0608497
0.120262
0.114021
0.109376
0.104495
0.100919
0.0970449
0.0942634
0.091154
0.0889781
0.0864643
0.0847588
0.0827166
0.0813816
0.0797176
0.0786765
0.077318
0.0765106
0.0753994
0.0747766
0.0738648
0.0733854
0.0726321
0.0722604
0.0716297
0.0713332
0.0707923
0.0705409
0.070059
0.0698235
0.0693704
0.0691217
0.0686672
0.0683752
0.067888
0.0675211
0.066968
0.0664921
0.0658374
0.0652152
0.0644194
0.12675
0.120173
0.115278
0.110135
0.106367
0.102284
0.0993525
0.0960759
0.0937831
0.0911341
0.0893372
0.0871853
0.0857787
0.0840254
0.0829286
0.0814972
0.0806467
0.079476
0.07882
0.0778594
0.0773546
0.0765611
0.0761697
0.0755053
0.0751932
0.0746235
0.074359
0.0738514
0.0736036
0.0731264
0.0728646
0.0723859
0.0720785
0.0715653
0.071179
0.0705965
0.0700952
0.0694056
0.0687501
0.0679119
0.133141
0.126232
0.121091
0.115688
0.11173
0.107441
0.104362
0.10092
0.0985117
0.0957293
0.0938417
0.0915814
0.0901039
0.0882622
0.0871101
0.0856066
0.0847132
0.0834836
0.0827946
0.0817856
0.0812554
0.0804219
0.0800108
0.0793129
0.0789852
0.0783868
0.0781089
0.0775758
0.0773156
0.0768144
0.0765395
0.0760369
0.0757141
0.0751753
0.0747696
0.0741579
0.0736317
0.0729075
0.0722193
0.0713392
0.139352
0.132121
0.12674
0.121086
0.116943
0.112455
0.109233
0.105631
0.103111
0.100199
0.0982236
0.0958583
0.0943123
0.0923851
0.0911797
0.0896065
0.0886718
0.0873852
0.0866644
0.0856088
0.0850542
0.0841822
0.0837523
0.0830222
0.0826795
0.0820536
0.0817631
0.0812055
0.0809334
0.0804092
0.0801218
0.079596
0.0792585
0.0786948
0.0782706
0.0776307
0.0770802
0.0763226
0.0756026
0.0746817
0.145451
0.137903
0.132287
0.126385
0.122061
0.117376
0.114013
0.110253
0.107623
0.104584
0.102522
0.100053
0.0984396
0.0964281
0.0951699
0.0935279
0.0925523
0.0912093
0.090457
0.0893552
0.0887763
0.0878662
0.0874174
0.0866555
0.0862978
0.0856445
0.0853413
0.0847593
0.0844754
0.0839283
0.0836284
0.0830797
0.0827275
0.0821393
0.0816966
0.0810289
0.0804545
0.079664
0.0789128
0.077952
0.151356
0.143502
0.137658
0.131518
0.127018
0.122144
0.118644
0.114733
0.111996
0.108834
0.106689
0.10412
0.102441
0.100348
0.0990396
0.0973312
0.0963164
0.0949192
0.0941368
0.0929905
0.0923885
0.0914417
0.0909751
0.0901826
0.0898106
0.0891311
0.0888159
0.0882106
0.0879155
0.0873465
0.0870347
0.086464
0.0860978
0.085486
0.0850256
0.0843311
0.0837337
0.0829114
0.08213
0.0811304
0.157137
0.148984
0.142916
0.13654
0.13187
0.126808
0.123176
0.119114
0.116273
0.11299
0.110763
0.108096
0.106353
0.10418
0.102821
0.101048
0.0999942
0.0985436
0.0977312
0.0965412
0.0959162
0.0949332
0.0944487
0.0936259
0.0932398
0.0925343
0.0922071
0.0915787
0.0912723
0.0906816
0.0903579
0.0897655
0.0893854
0.0887503
0.0882725
0.0875516
0.0869315
0.086078
0.085267
0.0842296
0.162712
0.154269
0.147987
0.141386
0.136549
0.131309
0.127548
0.123343
0.120401
0.117002