/*--------------------------------*- C++ -*----------------------------------*\
| =========                 |                                                 |
| \\      /  F ield         | foam-extend: Open Source CFD                    |
|  \\    /   O peration     | Version:  3.0                                   |
|   \\  /    A nd           | Web:         http://www.extend-project.de       |
|    \\/     M anipulation  |                                                 |
\*---------------------------------------------------------------------------*/
FoamFile
{
    version     2.0;
    format      ascii;
    class       volVectorField;
    location    "18";
    object      u;
}
// * * * * * * * * * * * * * * * * * * * * * * * * * * * * * * * * * * * * * //

dimensions      [0 0 0 0 0 0 0];

internalField   nonuniform List<vector> 
7680
(
(0.0733221 -0.0319237 1.91692e-19)
(0.192621 -0.0281694 2.15529e-19)
(0.293675 -0.0249774 9.9669e-20)
(0.379512 -0.022243 1.69876e-19)
(0.453313 -0.0198922 7.26466e-20)
(0.516794 -0.0178568 2.04256e-19)
(0.572066 -0.0160892 1.19341e-19)
(0.620102 -0.014544 2.06356e-19)
(0.662379 -0.0131898 3.36042e-19)
(0.699433 -0.0119958 1.42001e-19)
(0.732347 -0.0109407 8.95692e-20)
(0.761391 -0.0100032 1.01465e-19)
(0.787397 -0.00916866 5.81607e-20)
(0.810465 -0.00842217 -1.11429e-19)
(0.831264 -0.00775316 2.33166e-19)
(0.849783 -0.0071514 3.41704e-19)
(0.866579 -0.00660895 3.0883e-19)
(0.881567 -0.00611884 1.45499e-19)
(0.895229 -0.00567486 1.82347e-19)
(0.907429 -0.00527244 -2.72667e-19)
(0.918596 -0.00490647 7.13093e-20)
(0.928556 -0.00457427 1.28681e-19)
(0.937703 -0.00427134 2.38479e-19)
(0.945834 -0.00399656 1.60939e-19)
(0.953318 -0.00374571 1.97415e-19)
(0.959931 -0.00351901 4.43337e-19)
(0.966025 -0.00331232 6.11168e-19)
(0.971355 -0.00312704 2.10299e-19)
(0.976264 -0.0029589 4.24425e-20)
(0.980493 -0.00281043 1.90025e-19)
(0.984376 -0.00267703 3.59011e-19)
(0.98764 -0.00256222 3.17238e-19)
(0.990618 -0.00246077 8.31126e-20)
(0.993019 -0.00237656 -4.80305e-19)
(0.99518 -0.00230198 -1.34699e-19)
(0.996795 -0.00223708 8.32756e-20)
(0.998203 -0.0021603 6.29995e-19)
(0.999084 -0.00203712 2.10457e-19)
(0.999785 -0.00174901 1.02912e-19)
(0.999975 -0.00100222 1.42686e-19)
(0.0775036 -0.0957576 1.4934e-19)
(0.19631 -0.084499 -9.63698e-20)
(0.296947 -0.074939 1.26815e-19)
(0.382427 -0.0667553 2.4483e-19)
(0.455921 -0.0597198 2.90839e-20)
(0.519137 -0.0536266 1.07308e-20)
(0.574178 -0.0483311 1.32865e-20)
(0.622013 -0.0436973 1.96415e-19)
(0.664113 -0.0396306 5.46916e-20)
(0.701012 -0.036039 3.17227e-20)
(0.733788 -0.0328586 1.20324e-19)
(0.762709 -0.0300261 1.96077e-19)
(0.788606 -0.0274972 2.52746e-19)
(0.811577 -0.0252275 1.6465e-19)
(0.832287 -0.0231854 4.35364e-19)
(0.850726 -0.0213398 5.89741e-19)
(0.86745 -0.0196671 5.16609e-19)
(0.882373 -0.0181456 -6.99973e-20)
(0.895975 -0.0167571 -1.97577e-19)
(0.90812 -0.0154866 -3.43897e-19)
(0.919237 -0.0143193 2.32793e-19)
(0.92915 -0.0132453 3.02724e-19)
(0.938254 -0.012252 2.19372e-19)
(0.946345 -0.0113336 5.09461e-20)
(0.953792 -0.0104786 1.02361e-18)
(0.96037 -0.00968458 5.26239e-19)
(0.96643 -0.00894038 2.58771e-19)
(0.971729 -0.00824656 -1.91053e-21)
(0.976609 -0.00759191 1.71945e-19)
(0.980809 -0.00697948 3.04757e-19)
(0.984665 -0.00639761 4.68926e-19)
(0.987903 -0.00585151 9.53344e-19)
(0.990855 -0.00532856 8.1872e-19)
(0.993232 -0.00483536 -5.56943e-19)
(0.995368 -0.00435659 -2.37041e-19)
(0.996959 -0.00389604 -2.93783e-19)
(0.998343 -0.00342465 1.10003e-18)
(0.999199 -0.00291406 2.84763e-19)
(0.999868 -0.00224303 2.80408e-19)
(1.00002 -0.00114049 8.46305e-19)
(0.085851 -0.159181 2.99821e-19)
(0.203676 -0.140466 -1.57651e-19)
(0.303479 -0.12458 4.37229e-19)
(0.388246 -0.110982 4.37767e-20)
(0.461129 -0.0992918 4.3689e-19)
(0.523814 -0.0891671 6.48792e-20)
(0.578395 -0.0803663 8.60939e-20)
(0.625827 -0.0726639 5.9719e-20)
(0.667573 -0.0659021 -8.09011e-19)
(0.704159 -0.0599283 -4.02226e-19)
(0.736659 -0.0546363 4.3366e-19)
(0.765334 -0.0499209 3.2121e-19)
(0.791011 -0.0457085 1.92001e-20)
(0.813784 -0.0419253 2.60437e-19)
(0.834316 -0.038519 7.92349e-19)
(0.852594 -0.0354374 1.10729e-18)
(0.869172 -0.0326418 -4.75865e-19)
(0.883961 -0.0300954 5.54335e-19)
(0.897442 -0.0277684 -6.23963e-19)
(0.909475 -0.0256352 8.28467e-20)
(0.920488 -0.0236715 1.93672e-19)
(0.930307 -0.0218605 6.86137e-19)
(0.939322 -0.0201811 3.71614e-19)
(0.947331 -0.0186231 1.38356e-18)
(0.9547 -0.0171676 4.19333e-19)
(0.961205 -0.0158096 7.09965e-19)
(0.967197 -0.0145312 1.28702e-19)
(0.972431 -0.0133318 7.03015e-19)
(0.977249 -0.0121935 4.20735e-19)
(0.98139 -0.0111198 5.13645e-19)
(0.98519 -0.0100921 4.27573e-19)
(0.988373 -0.00911713 1.92365e-19)
(0.991272 -0.00817507 1.03253e-18)
(0.993597 -0.00727522 1.35602e-18)
(0.995683 -0.0063946 2.5118e-20)
(0.997226 -0.00554077 8.50309e-20)
(0.99856 -0.00467723 8.27491e-19)
(0.999366 -0.00378188 -1.44148e-19)
(0.999982 -0.00273089 -1.04519e-19)
(1.00006 -0.00127627 -2.80064e-19)
(0.0983287 -0.221922 3.21281e-19)
(0.214686 -0.195832 -2.47548e-19)
(0.313244 -0.173687 2.67011e-19)
(0.396946 -0.154733 3.71592e-19)
(0.468913 -0.138439 6.03345e-19)
(0.530806 -0.124326 -2.14932e-20)
(0.584697 -0.112058 1.77431e-19)
(0.631526 -0.10132 2.86806e-19)
(0.672744 -0.0918919 -1.91809e-19)
(0.708862 -0.0835615 4.77604e-19)
(0.740947 -0.0761808 7.21529e-19)
(0.769253 -0.0696026 6.14631e-19)
(0.7946 -0.0637248 5.71928e-19)
(0.817076 -0.0584444 1.99478e-19)
(0.837342 -0.0536885 -8.29107e-19)
(0.855378 -0.0493841 -2.64979e-19)
(0.871736 -0.0454775 -1.05695e-18)
(0.886325 -0.0419173 -5.98196e-19)
(0.899623 -0.0386616 9.14123e-19)
(0.911488 -0.035675 -2.28519e-19)
(0.922346 -0.0329234 1.04544e-18)
(0.932021 -0.030383 7.1828e-19)
(0.940902 -0.0280247 6.89547e-19)
(0.948786 -0.0258339 -3.16261e-20)
(0.956039 -0.0237841 1.12755e-19)
(0.962435 -0.0218681 -5.68192e-19)
(0.968322 -0.0200609 -1.09059e-18)
(0.973459 -0.0183612 -9.13388e-20)
(0.978182 -0.0167442 5.09159e-19)
(0.982235 -0.015214 1.24225e-18)
(0.985948 -0.0137449 7.99342e-19)
(0.989048 -0.0123455 -1.75748e-18)
(0.991867 -0.0109887 -3.5652e-19)
(0.994115 -0.00968649 3.42028e-18)
(0.996125 -0.0084083 -1.03429e-18)
(0.997593 -0.00716555 -4.32178e-19)
(0.998854 -0.00591433 4.24642e-19)
(0.999587 -0.00463887 -1.65994e-18)
(1.00013 -0.00321262 -3.16891e-19)
(1.00012 -0.00141047 1.59146e-19)
(0.114883 -0.283712 7.53088e-19)
(0.229294 -0.250359 6.4459e-19)
(0.326201 -0.22205 -5.55866e-20)
(0.408489 -0.197822 1.70705e-18)
(0.479241 -0.176993 5.91381e-19)
(0.540082 -0.158953 1.17865e-19)
(0.593059 -0.14327 3.03023e-19)
(0.639088 -0.129542 2.56265e-19)
(0.679602 -0.117488 -1.15244e-19)
(0.715099 -0.106837 5.14862e-19)
(0.746635 -0.0973992 7.30309e-19)
(0.77445 -0.0889865 9.88085e-19)
(0.799359 -0.0814686 1.41604e-18)
(0.821441 -0.0747136 -4.77034e-19)
(0.841352 -0.0686283 -1.33535e-18)
(0.859067 -0.0631198 -1.93487e-18)
(0.875133 -0.0581189 6.96519e-19)
(0.889455 -0.05356 -4.38147e-19)
(0.902509 -0.0493898 -7.28981e-20)
(0.91415 -0.0455625 -1.23433e-19)
(0.924801 -0.0420348 1.02202e-18)
(0.934285 -0.038776 7.77001e-19)
(0.942988 -0.035749 -5.64858e-19)
(0.950706 -0.0329347 2.92059e-19)
(0.957803 -0.0302995 7.63533e-19)
(0.964053 -0.0278338 4.56048e-19)
(0.969802 -0.0255056 -1.73137e-18)
(0.974807 -0.0233131 -7.35658e-19)
(0.979406 -0.0212245 5.2721e-19)
(0.983339 -0.0192445 -1.49588e-18)
(0.986937 -0.0173406 -1.35954e-18)
(0.989927 -0.0155231 -1.12603e-18)
(0.992639 -0.0137578 -2.67347e-18)
(0.994783 -0.0120593 5.98995e-19)
(0.996692 -0.0103898 -2.64113e-18)
(0.998061 -0.00876447 -2.1306e-18)
(0.999224 -0.00713199 -1.98057e-18)
(0.99986 -0.00548301 -3.28083e-18)
(1.0003 -0.00368788 -2.01465e-19)
(1.00019 -0.00154371 1.8313e-18)
(0.135443 -0.344288 9.86268e-19)
(0.247437 -0.303813 9.64165e-19)
(0.342292 -0.269462 1.45285e-18)
(0.422825 -0.240063 4.16679e-19)
(0.492068 -0.214789 4.1569e-19)
(0.551603 -0.192899 1.58781e-18)
(0.603444 -0.173868 1.07335e-18)
(0.648478 -0.15721 3.77479e-19)
(0.68812 -0.142582 -5.14367e-19)
(0.722845 -0.129656 -2.80521e-19)
(0.753697 -0.118201 7.67239e-19)
(0.780903 -0.10799 3.32991e-19)
(0.805267 -0.098864 1.64917e-18)
(0.82686 -0.0906633 4.47389e-19)
(0.846329 -0.083275 -2.211e-18)
(0.863644 -0.0765858 -1.75166e-18)
(0.879347 -0.0705121 4.892e-19)
(0.893338 -0.0649741 -1.38314e-18)
(0.906088 -0.0599073 -8.78097e-19)
(0.91745 -0.0552557 -1.08061e-18)
(0.927844 -0.0509671 -2.48475e-18)
(0.937089 -0.0470038 -2.76547e-18)
(0.945571 -0.0433211 9.63568e-19)
(0.953083 -0.0398954 9.02905e-19)
(0.959985 -0.0366862 -2.61708e-18)
(0.966053 -0.0336814 -1.45994e-18)
(0.971629 -0.0308423 -1.14923e-18)
(0.976471 -0.0281664 -2.31743e-18)
(0.980914 -0.0256153 -1.01745e-18)
(0.984699 -0.0231942 -1.66436e-18)
(0.988154 -0.020864 8.7832e-19)
(0.991007 -0.0186367 1.09929e-18)
(0.993584 -0.0164709 -1.19525e-18)
(0.9956 -0.0143843 1.02446e-19)
(0.997382 -0.0123315 -4.34138e-18)
(0.998629 -0.0103318 5.268e-19)
(0.99967 -0.0083263 1.60666e-18)
(1.00019 -0.00631222 -2.1528e-18)
(1.0005 -0.0041562 -2.52808e-20)
(1.00026 -0.00167649 1.97441e-18)
(0.159921 -0.403388 1.24602e-18)
(0.269037 -0.355967 -3.57258e-19)
(0.36145 -0.31572 8.89116e-19)
(0.439894 -0.281276 8.68935e-19)
(0.50734 -0.251666 -1.59827e-19)
(0.565319 -0.226019 -3.51289e-19)
(0.615807 -0.203722 -5.97165e-20)
(0.659658 -0.184204 6.35248e-19)
(0.69826 -0.167065 6.24734e-19)
(0.732067 -0.151919 -1.53644e-18)
(0.762104 -0.138497 -1.60083e-18)
(0.788584 -0.126531 -1.22082e-18)
(0.812299 -0.115836 1.36732e-18)
(0.833308 -0.106225 1.41167e-18)
(0.852252 -0.0975652 -9.17346e-19)
(0.86909 -0.089724 -9.73093e-19)
(0.88436 -0.0826036 -1.46954e-18)
(0.897957 -0.0761103 -1.96863e-18)
(0.910345 -0.0701685 -1.50059e-18)
(0.921375 -0.0647126 -1.36712e-18)
(0.931462 -0.0596815 -2.80287e-18)
(0.940423 -0.0550308 -1.167e-18)
(0.94864 -0.0507082 1.01367e-18)
(0.955905 -0.0466859 3.6634e-19)
(0.962576 -0.0429165 -1.12392e-18)
(0.968426 -0.0393855 -3.26075e-18)
(0.973797 -0.0360479 3.54978e-19)
(0.978445 -0.0329002 -2.40503e-18)
(0.982702 -0.0298977 -1.20598e-18)
(0.986309 -0.0270463 -9.28521e-19)
(0.989593 -0.0243001 5.8582e-18)
(0.992282 -0.021673 1.88568e-18)
(0.994701 -0.0191167 1.26399e-18)
(0.996563 -0.0166519 1.27965e-18)
(0.998194 -0.0142256 2.08538e-18)
(0.999294 -0.0118614 1.6028e-18)
(1.00019 -0.00949304 1.53403e-18)
(1.00057 -0.00712397 1.47276e-18)
(1.00074 -0.00461662 5.24402e-18)
(1.00035 -0.00180894 1.04822e-18)
(0.188212 -0.460761 1.45626e-18)
(0.294002 -0.406595 1.06607e-19)
(0.383593 -0.360625 6.99854e-19)
(0.459621 -0.321285 -3.4792e-19)
(0.524991 -0.287465 -1.04104e-18)
(0.581172 -0.258171 -4.75329e-19)
(0.630097 -0.232704 6.86385e-19)
(0.672579 -0.21041 2.15454e-19)
(0.709979 -0.190834 7.74338e-19)
(0.742724 -0.173532 -7.40851e-19)
(0.77182 -0.1582 8.43683e-19)
(0.797461 -0.14453 -1.02665e-18)
(0.820425 -0.132313 4.30546e-19)
(0.84076 -0.121332 -2.14399e-19)
(0.859095 -0.111438 1.10141e-18)
(0.875383 -0.102478 -1.37793e-20)
(0.890152 -0.0943419 7.3359e-19)
(0.903292 -0.0869211 -1.32964e-18)
(0.915262 -0.0801297 2.29935e-18)
(0.925907 -0.073893 1.57613e-18)
(0.935639 -0.0681409 -1.68482e-18)
(0.944271 -0.0628228 -6.70013e-19)
(0.952182 -0.0578789 -1.15672e-18)
(0.959162 -0.0532772 9.34112e-19)
(0.965566 -0.0489638 8.94357e-19)
(0.971164 -0.044922 -1.81487e-18)
(0.976297 -0.0411003 3.17252e-18)
(0.980719 -0.0374945 2.86156e-18)
(0.984761 -0.0340538 -6.68361e-18)
(0.988163 -0.0307846 -3.65111e-18)
(0.99125 -0.0276346 -1.65024e-18)
(0.99375 -0.0246196 5.13423e-19)
(0.995984 -0.0216844 3.64859e-18)
(0.997668 -0.0188528 -3.68547e-18)
(0.999126 -0.0160646 2.18986e-19)
(1.00006 -0.0133476 3.14771e-18)
(1.00079 -0.010628 2.55082e-18)
(1.001 -0.00791565 9.53891e-19)
(1.001 -0.00506799 2.3364e-18)
(1.00044 -0.001941 -1.23234e-18)
(0.220195 -0.516161 1.52134e-18)
(0.322225 -0.455483 5.66916e-19)
(0.408625 -0.403987 4.74754e-19)
(0.481923 -0.359918 -6.72383e-19)
(0.544946 -0.322032 6.31367e-19)
(0.599094 -0.289217 1.14493e-18)
(0.646252 -0.260689 7.20104e-20)
(0.687187 -0.235715 3.89896e-19)
(0.723228 -0.213784 8.88449e-19)
(0.754772 -0.194402 5.86147e-19)
(0.782803 -0.177225 9.2831e-19)
(0.807494 -0.161911 1.52463e-18)
(0.82961 -0.148223 6.8156e-19)
(0.849182 -0.13592 1.30121e-18)
(0.86683 -0.124834 2.68101e-18)
(0.882494 -0.114794 -1.83505e-19)
(0.896698 -0.105676 5.54413e-19)
(0.909321 -0.0973598 -6.2042e-19)
(0.920817 -0.0897481 2.87005e-18)
(0.931027 -0.0827572 2.57463e-18)
(0.940357 -0.0763089 4.91744e-19)
(0.948618 -0.0703462 8.51555e-19)
(0.956183 -0.0648021 -1.37355e-18)
(0.962841 -0.059641 -1.35199e-18)
(0.968941 -0.0548022 1.00754e-18)
(0.974255 -0.0502669 1.43572e-18)
(0.979118 -0.0459776 2.22769e-18)
(0.983286 -0.0419295 4.80946e-18)
(0.987084 -0.0380656 -1.40129e-18)
(0.990255 -0.034393 2.94509e-18)
(0.993118 -0.0308531 -3.29152e-19)
(0.995403 -0.0274637 -2.15148e-18)
(0.997429 -0.0241631 -8.33374e-19)
(0.998913 -0.0209778 -2.45046e-18)
(1.00017 -0.0178409 -1.44474e-18)
(1.00091 -0.0147841 -4.99123e-19)
(1.00146 -0.0117266 -4.4684e-18)
(1.00148 -0.00868417 -2.44679e-18)
(1.0013 -0.00550865 8.12651e-18)
(1.00054 -0.00207222 -8.77078e-19)
(0.255733 -0.56935 -9.56105e-20)
(0.353585 -0.502419 -6.7818e-19)
(0.43644 -0.445618 1.06159e-18)
(0.506704 -0.397009 1.21006e-18)
(0.567119 -0.355221 5.66881e-19)
(0.619008 -0.319025 -1.6335e-18)
(0.664202 -0.287557 -9.72136e-20)
(0.703417 -0.26001 5.01014e-19)
(0.737949 -0.23582 1.44512e-18)
(0.768158 -0.21444 1.72053e-18)
(0.795007 -0.195492 -1.12191e-18)
(0.818643 -0.178598 -1.21223e-18)
(0.839815 -0.163498 1.27796e-19)
(0.858539 -0.149926 -1.7669e-18)
(0.875423 -0.137695 8.9347e-19)
(0.890395 -0.126619 1.77458e-18)
(0.903969 -0.116558 -3.94976e-19)
(0.916018 -0.107382 1.07472e-18)
(0.926988 -0.0989825 2.20219e-18)
(0.936715 -0.0912675 1.26276e-18)
(0.945598 -0.0841505 1.14615e-18)
(0.953446 -0.0775689 2.82194e-19)
(0.960626 -0.0714486 8.9837e-19)
(0.966924 -0.0657501 -1.72595e-18)
(0.972688 -0.0604068 -1.835e-18)
(0.977686 -0.0553977 4.95494e-18)
(0.98225 -0.0506593 3.35202e-19)
(0.986134 -0.0461865 -2.54489e-18)
(0.989662 -0.0419161 -7.60945e-18)
(0.992575 -0.0378562 -2.35124e-18)
(0.99519 -0.0339422 -6.80667e-19)
(0.997238 -0.0301936 9.06442e-19)
(0.999032 -0.0265423 -2.63824e-18)
(1.00029 -0.0230181 5.11502e-18)
(1.00134 -0.0195471 -3.77798e-18)
(1.00186 -0.0161653 2.05666e-18)
(1.0022 -0.0127845 8.57205e-20)
(1.00202 -0.00942642 1.59614e-18)
(1.00163 -0.0059368 1.40888e-18)
(1.00066 -0.00220204 -3.33762e-18)
(0.294673 -0.6201 -1.0656e-18)
(0.387947 -0.547204 -6.14313e-19)
(0.466918 -0.485341 1.06209e-19)
(0.533858 -0.4324 -2.55815e-18)
(0.591416 -0.386888 -1.93625e-18)
(0.640829 -0.347467 1.03936e-18)
(0.683871 -0.313194 1.05746e-18)
(0.721202 -0.283192 3.5203e-18)
(0.754079 -0.256845 2.46938e-18)
(0.782826 -0.233559 -1.51009e-18)
(0.808378 -0.212921 -2.60903e-18)
(0.830858 -0.194521 -8.12653e-19)
(0.850997 -0.178073 -6.77011e-19)
(0.868792 -0.163289 6.59946e-19)
(0.884837 -0.149967 2.30427e-18)
(0.899051 -0.137901 1.92738e-18)
(0.911935 -0.126941 5.6731e-19)
(0.923354 -0.116944 3.30418e-18)
(0.933748 -0.107793 3.66705e-18)
(0.942944 -0.0993871 -2.27594e-19)
(0.951339 -0.0916321 -1.7282e-18)
(0.958733 -0.0844597 -1.4295e-18)
(0.965491 -0.0777894 1.70739e-18)
(0.971397 -0.0715782 -3.57181e-20)
(0.976791 -0.0657533 -2.61057e-18)
(0.981443 -0.060292 1.49026e-18)
(0.985678 -0.0551251 -1.90818e-18)
(0.989253 -0.050247 1.7188e-18)
(0.992484 -0.0455888 -7.59798e-18)
(0.995115 -0.0411595 -6.47053e-18)
(0.997458 -0.0368885 -1.94555e-18)
(0.999245 -0.0327975 -1.49912e-19)
(1.00079 -0.0288121 1.31484e-18)
(1.0018 -0.024965 3.51392e-18)
(1.00261 -0.0211759 -4.19256e-18)
(1.0029 -0.017485 3.78562e-18)
(1.00301 -0.0137968 5.08649e-19)
(1.0026 -0.0101389 -1.55071e-18)
(1.00198 -0.00635023 2.20719e-18)
(1.00078 -0.00232956 -1.89868e-18)
(0.336849 -0.668196 3.58606e-18)
(0.425165 -0.589646 2.29711e-18)
(0.499929 -0.522985 1.1363e-18)
(0.563269 -0.46594 3.23948e-19)
(0.617731 -0.416898 -1.501e-18)
(0.664463 -0.37442 8.79109e-19)
(0.705174 -0.33749 1.30147e-18)
(0.740465 -0.305161 3.52405e-19)
(0.77155 -0.27677 -8.14796e-19)
(0.798712 -0.251678 1.93206e-18)
(0.82286 -0.229438 2.48179e-19)
(0.844088 -0.20961 3.03096e-19)
(0.863108 -0.191886 -2.41972e-18)
(0.879896 -0.175954 -1.26303e-18)
(0.895034 -0.161596 9.77556e-19)
(0.908425 -0.148593 -1.20097e-18)
(0.920562 -0.136781 -1.27593e-18)
(0.931299 -0.126006 -1.06409e-18)
(0.941068 -0.116142 4.70202e-19)
(0.94969 -0.107081 1.24734e-18)
(0.957554 -0.0987216 -1.94525e-18)
(0.964458 -0.0909894 -1.5647e-18)
(0.970759 -0.0837978 2.60934e-18)
(0.976239 -0.0771005 2.9204e-18)
(0.981233 -0.0708191 -6.9934e-19)
(0.985509 -0.0649292 5.60044e-18)
(0.989389 -0.0593561 -1.47681e-18)
(0.992628 -0.0540938 5.17343e-19)
(0.995538 -0.0490682 -6.84434e-19)
(0.997864 -0.0442888 1.9366e-18)
(0.999913 -0.0396797 -2.1835e-18)
(1.00142 -0.0352644 -1.30638e-18)
(1.00269 -0.0309627 5.55382e-18)
(1.00344 -0.0268103 5.93153e-18)
(1.00398 -0.0227204 -4.56866e-18)
(1.00403 -0.0187375 -2.33174e-19)
(1.00388 -0.0147592 1.14553e-18)
(1.00323 -0.0108183 -2.86088e-18)
(1.00237 -0.00674671 -7.78734e-18)
(1.00092 -0.00245387 -1.84285e-18)
(0.38208 -0.713429 3.45702e-18)
(0.46508 -0.629562 2.415e-18)
(0.535331 -0.55839 1.17641e-18)
(0.59481 -0.497483 6.79573e-19)
(0.645953 -0.445123 3.0457e-19)
(0.68981 -0.39977 -1.46018e-18)
(0.728021 -0.36034 2.22517e-18)
(0.761124 -0.325823 1.27354e-18)
(0.790286 -0.29551 -2.28193e-20)
(0.81575 -0.268718 1.67774e-18)
(0.838391 -0.244973 2.95523e-19)
(0.858276 -0.223802 -3.1439e-18)
(0.876095 -0.204876 -6.18023e-19)
(0.891803 -0.187865 -2.16029e-18)
(0.905968 -0.172533 -1.73456e-18)
(0.918477 -0.158648 -1.72225e-18)
(0.929812 -0.146035 8.06157e-19)
(0.939818 -0.134528 1.87756e-18)
(0.948917 -0.123994 2.20458e-18)
(0.956923 -0.114317 -2.4983e-18)
(0.964219 -0.105389 -1.03768e-18)
(0.970596 -0.0971296 -1.16398e-18)
(0.976407 -0.0894476 -1.97397e-18)
(0.98143 -0.0822932 1.26124e-18)
(0.985996 -0.0755824 1.3939e-18)
(0.989869 -0.0692893 5.55704e-18)
(0.993368 -0.0633341 2.07266e-20)
(0.996247 -0.0577105 2.57321e-18)
(0.998813 -0.0523392 2.2437e-18)
(1.00081 -0.0472307 -1.37884e-18)
(1.00254 -0.0423038 1.02622e-18)
(1.00375 -0.0375837 -9.10996e-19)
(1.00472 -0.0329848 -6.81331e-19)
(1.00519 -0.0285458 5.97032e-18)
(1.00546 -0.0241737 8.32903e-18)
(1.00524 -0.0199171 -1.09091e-18)
(1.00482 -0.0156668 4.69149e-19)
(1.00391 -0.0114608 -2.966e-18)
(1.00279 -0.00712375 4.61479e-18)
(1.00106 -0.00257381 -3.62866e-19)
(0.430174 -0.755608 -1.51813e-19)
(0.50752 -0.666783 1.69603e-18)
(0.572973 -0.591403 1.05864e-18)
(0.628347 -0.526897 1.04525e-18)
(0.675961 -0.471441 3.58122e-18)
(0.716761 -0.423408 7.74268e-19)
(0.752314 -0.381647 1.2508e-18)
(0.783089 -0.345089 5.57729e-19)
(0.810208 -0.312984 -2.50314e-18)
(0.833865 -0.284608 -9.35105e-19)
(0.854905 -0.259458 -4.12203e-19)
(0.873362 -0.237035 -2.00495e-19)
(0.889903 -0.216989 -6.77652e-19)
(0.904463 -0.198971 -4.7982e-19)
(0.917593 -0.182732 -5.10609e-19)
(0.929164 -0.168024 3.94958e-18)
(0.939647 -0.154663 -2.41748e-19)
(0.948875 -0.142474 5.81876e-18)
(0.957262 -0.131315 4.34881e-18)
(0.964613 -0.121064 1.88592e-18)
(0.971304 -0.111605 7.5172e-19)
(0.977121 -0.102854 -4.09588e-19)
(0.982411 -0.094715 -1.85009e-18)
(0.986948 -0.0871341 2.36037e-18)
(0.991058 -0.0800228 2.08552e-19)
(0.994504 -0.0733536 -2.25932e-18)
(0.997598 -0.0670421 3.69479e-18)
(1.00009 -0.0610816 -1.14781e-18)
(1.00229 -0.055388 3.81168e-19)
(1.00394 -0.0499727 -1.99491e-18)
(1.00534 -0.0447495 -7.27571e-19)
(1.00623 -0.0397455 -3.32152e-18)
(1.00689 -0.0348699 4.68811e-18)
(1.00706 -0.030164 3.99669e-18)
(1.00703 -0.0255295 2.27372e-18)
(1.00652 -0.0210184 6.7268e-18)
(1.00583 -0.0165155 -3.43766e-18)
(1.00464 -0.0120632 4.42661e-19)
(1.00323 -0.00747898 -5.99009e-18)
(1.00122 -0.00268832 -7.23596e-18)
(0.480922 -0.794551 4.22842e-19)
(0.552303 -0.701148 1.65751e-18)
(0.612695 -0.621883 8.03983e-19)
(0.663736 -0.554053 1.56698e-18)
(0.707626 -0.49574 2.29892e-18)
(0.7452 -0.445232 1.9559e-18)
(0.777948 -0.401319 8.2446e-19)
(0.806268 -0.362877 -9.63064e-19)
(0.83123 -0.329117 -3.43359e-18)
(0.85298 -0.299279 6.03112e-19)
(0.87233 -0.272832 -1.0546e-18)
(0.88928 -0.249252 -8.65015e-19)
(0.904474 -0.228173 -5.35084e-18)
(0.917822 -0.209224 -2.87539e-18)
(0.92986 -0.192147 -2.49069e-18)
(0.940441 -0.17668 -4.96111e-19)
(0.950025 -0.162629 -2.4371e-19)
(0.958432 -0.14981 -7.81614e-19)
(0.966066 -0.138074 -1.05988e-19)
(0.972727 -0.127292 -2.58453e-18)
(0.978779 -0.117343 2.76048e-18)
(0.984006 -0.108139 7.16855e-19)
(0.988746 -0.0995771 1.7914e-18)
(0.992771 -0.0916024 7.14897e-19)
(0.9964 -0.0841213 -1.2847e-19)
(0.999394 -0.0771049 -1.02264e-18)
(1.00206 -0.0704643 6.78627e-19)
(1.00415 -0.0641926 -1.70391e-18)
(1.00597 -0.0582015 3.03498e-18)
(1.00725 -0.052503 2.98556e-18)
(1.0083 -0.0470063 1.58619e-18)
(1.00884 -0.0417404 7.90218e-21)
(1.00917 -0.0366096 1.78233e-18)
(1.00903 -0.0316578 -4.24069e-18)
(1.00869 -0.0267815 -1.77662e-20)
(1.00788 -0.0220362 -2.06984e-18)
(1.00689 -0.0173008 -6.13142e-18)
(1.00541 -0.0126219 -2.76181e-18)
(1.0037 -0.00780992 -6.33242e-18)
(1.00138 -0.00279619 -1.82499e-18)
(0.53411 -0.830091 3.34975e-18)
(0.599238 -0.73251 2.20821e-18)
(0.654324 -0.649701 1.04382e-19)
(0.700826 -0.578837 2.16976e-18)
(0.740812 -0.517916 1.49433e-18)
(0.775005 -0.465149 3.68455e-18)
(0.804814 -0.419272 2.65703e-18)
(0.83056 -0.379111 1.53708e-18)
(0.853262 -0.343841 -7.4652e-22)
(0.873014 -0.312667 1.03062e-18)
(0.890593 -0.285037 -7.32389e-19)
(0.905963 -0.260402 1.03309e-18)
(0.919744 -0.238379 1.1106e-18)
(0.931823 -0.218582 -5.95212e-19)
(0.942715 -0.20074 -2.08288e-18)
(0.952259 -0.184579 -4.31211e-18)
(0.960901 -0.169898 -3.9561e-18)
(0.968447 -0.156504 -4.52473e-19)
(0.975294 -0.144242 -6.56744e-18)
(0.981229 -0.132975 -1.23583e-18)
(0.986613 -0.122579 2.60002e-18)
(0.991221 -0.112961 -3.70988e-19)
(0.995385 -0.104013 -7.95681e-19)
(0.998873 -0.0956792 -1.02462e-18)
(1.002 -0.0878603 -6.37533e-19)
(1.00452 -0.0805269 -2.79363e-18)
(1.00674 -0.073586 1.53576e-18)
(1.00841 -0.0670303 -9.82362e-19)
(1.00982 -0.0607677 2.07876e-18)
(1.01072 -0.0548108 2.08514e-18)
(1.01139 -0.0490647 5.65772e-18)
(1.01158 -0.0435599 5.15755e-19)
(1.01157 -0.0381964 -5.87e-19)
(1.01109 -0.0330206 -7.02671e-18)
(1.01043 -0.027924 4.95502e-18)
(1.00931 -0.0229657 -8.64545e-18)
(1.008 -0.0180187 -1.65014e-18)
(1.00621 -0.0131338 1.28284e-18)
(1.00419 -0.0081143 -1.16509e-18)
(1.00155 -0.00289638 2.76089e-18)
(0.589508 -0.862077 3.05019e-18)
(0.648125 -0.760736 3.11714e-18)
(0.697685 -0.674736 -9.34566e-19)
(0.739458 -0.601142 2.79349e-18)
(0.775378 -0.537874 1.57922e-18)
(0.80605 -0.483074 1.34217e-18)
(0.832797 -0.43543 1.11992e-18)
(0.855862 -0.39372 6.5371e-19)
(0.876209 -0.357091 -1.3924e-18)
(0.89388 -0.324716 2.9251e-18)
(0.909614 -0.296021 1.5692e-18)
(0.923339 -0.270436 7.90842e-20)
(0.935649 -0.247563 -2.75784e-18)
(0.946405 -0.227003 -6.2165e-18)
(0.956105 -0.208472 -1.4125e-18)
(0.964569 -0.191688 1.32103e-18)
(0.972228 -0.17644 1.29544e-18)
(0.978878 -0.162528 -1.45094e-18)
(0.984904 -0.149791 -2.63432e-18)
(0.990085 -0.138089 6.1072e-19)
(0.994772 -0.12729 5.85314e-21)
(0.998735 -0.117299 -3.41987e-18)
(1.0023 -0.108005 -3.97028e-18)
(1.00523 -0.0993467 -3.97916e-18)
(1.00783 -0.0912239 7.59261e-19)
(1.00986 -0.0836052 -3.15974e-18)
(1.01161 -0.0763938 9.8022e-20)
(1.01284 -0.0695825 3.20727e-18)
(1.01383 -0.0630754 5.06586e-18)
(1.01433 -0.056886 -1.64905e-18)
(1.01462 -0.0509155 3.84251e-18)
(1.01444 -0.045196 -1.69904e-18)
(1.01407 -0.0396232 4.00197e-18)
(1.01325 -0.0342462 4.16246e-18)
(1.01225 -0.0289519 5.13388e-18)
(1.01079 -0.0238023 -5.82058e-18)
(1.00916 -0.0186656 5.12869e-18)
(1.00705 -0.0135957 -7.46458e-18)
(1.00471 -0.00838987 -5.66082e-18)
(1.00173 -0.00298779 2.24566e-18)
(0.646879 -0.890371 3.64618e-18)
(0.698752 -0.785704 7.71766e-19)
(0.74259 -0.696881 1.60004e-19)
(0.779465 -0.620872 4.18867e-18)
(0.811176 -0.555528 1.46787e-18)
(0.8382 -0.49893 -9.54019e-19)
(0.861776 -0.449722 -2.06046e-18)
(0.882066 -0.406644 5.31032e-19)
(0.899974 -0.368812 1.54253e-18)
(0.91549 -0.335374 4.2343e-19)
(0.929313 -0.305737 2.47678e-18)
(0.941334 -0.279312 3.76659e-20)
(0.95212 -0.255688 1.05461e-18)
(0.961506 -0.234452 1.38048e-18)
(0.969971 -0.215312 4.00185e-18)
(0.977316 -0.197975 1.30285e-18)
(0.983958 -0.182226 1.05202e-18)
(0.989681 -0.167856 1.96813e-19)
(0.994856 -0.1547 1.38997e-18)
(0.999256 -0.142611 -2.71108e-18)
(1.00322 -0.131456 -2.92426e-19)
(1.00652 -0.121135 -1.0691e-18)
(1.00946 -0.111534 -3.1131e-19)
(1.01181 -0.10259 -4.52276e-18)
(1.01387 -0.0941977 1.39245e-18)
(1.01539 -0.0863264 -2.74114e-18)
(1.01666 -0.0788757 -2.30907e-18)
(1.01743 -0.0718383 6.72494e-19)
(1.01798 -0.065115 1.39257e-18)
(1.01807 -0.0587199 -5.48479e-19)
(1.01796 -0.0525509 -3.06382e-18)
(1.0174 -0.0466415 1.24159e-18)
(1.01666 -0.0408839 -3.30961e-18)
(1.01548 -0.0353292 -1.59118e-18)
(1.01413 -0.0298602 4.97864e-18)
(1.01233 -0.024542 7.57037e-18)
(1.01036 -0.0192379 7.91982e-18)
(1.00793 -0.0140051 2.04148e-18)
(1.00524 -0.00863468 -4.30953e-18)
(1.00192 -0.00306951 -1.87406e-19)
(0.705979 -0.914853 3.326e-18)
(0.750905 -0.807307 1.39645e-18)
(0.788847 -0.716042 1.64011e-18)
(0.820678 -0.637944 1.78307e-18)
(0.848052 -0.570803 -2.09475e-18)
(0.871319 -0.512648 -2.00488e-18)
(0.891629 -0.462088 1.49912e-19)
(0.909058 -0.417825 1.0338e-18)
(0.924455 -0.378953 2.82505e-19)
(0.93775 -0.344596 1.86697e-18)
(0.949605 -0.314143 2.41107e-18)
(0.959871 -0.28699 -1.7541e-18)
(0.969088 -0.262716 1.69527e-18)
(0.977062 -0.240896 4.71327e-19)
(0.984255 -0.221229 -1.74242e-18)
(0.990447 -0.203414 -7.10084e-21)
(0.996042 -0.187231 1.513e-18)
(1.00081 -0.172465 5.70666e-19)
(1.00511 -0.158945 2.09211e-18)
(1.0087 -0.146523 -3.77401e-18)
(1.01193 -0.135059 1.59287e-18)
(1.01453 -0.124453 -4.19525e-20)
(1.01684 -0.114586 -3.09573e-19)
(1.01859 -0.105394 1.32272e-18)
(1.02009 -0.0967689 3.07055e-18)
(1.02108 -0.088679 1.67395e-18)
(1.02185 -0.0810211 3.3157e-19)
(1.02216 -0.073788 4.25684e-19)
(1.02226 -0.0668775 1.18734e-18)
(1.02193 -0.0603044 2.07709e-18)
(1.02141 -0.0539637 -1.28514e-18)
(1.02045 -0.0478902 -3.54078e-18)
(1.01933 -0.0419728 -1.3155e-18)
(1.01778 -0.0362645 3.68216e-18)
(1.01607 -0.0306448 -9.07109e-18)
(1.01393 -0.025181 -9.92176e-18)
(1.01161 -0.0197326 5.214e-18)
(1.00883 -0.0143592 -3.12291e-18)
(1.00579 -0.00884688 -1.06505e-18)
(1.00212 -0.00314064 3.15732e-19)
(0.766553 -0.935417 2.76043e-18)
(0.804359 -0.825453 2.42658e-18)
(0.836259 -0.732137 6.33025e-19)
(0.86292 -0.652283 1.58546e-18)
(0.885848 -0.583633 1.55012e-18)
(0.905265 -0.524171 -5.33591e-19)
(0.922226 -0.472474 -6.7574e-19)
(0.936724 -0.427216 5.72061e-19)
(0.949547 -0.387471 1.51154e-18)
(0.960566 -0.352341 2.25469e-18)
(0.970404 -0.321204 1.57331e-18)
(0.97887 -0.29344 3.08597e-18)
(0.986478 -0.26862 1.6176e-18)
(0.993006 -0.246308 -3.26284e-18)
(0.998895 -0.226198 -3.07191e-18)
(1.00391 -0.207982 -1.52527e-18)
(1.00843 -0.191434 -3.77597e-18)
(1.01221 -0.176335 -6.48473e-19)
(1.01562 -0.16251 1.30321e-18)
(1.01839 -0.149808 1.65503e-18)
(1.02085 -0.138085 1.21647e-18)
(1.02275 -0.127239 8.9332e-20)
(1.0244 -0.117148 -2.19198e-18)
(1.02554 -0.107747 -8.10637e-19)
(1.02646 -0.0989266 -7.44096e-20)
(1.02692 -0.0906529 -1.45838e-18)
(1.02718 -0.0828209 1.85278e-18)
(1.02701 -0.0754232 -6.78785e-19)
(1.02665 -0.0683554 9.83144e-19)
(1.02588 -0.0616328 -7.46075e-18)
(1.02494 -0.0551479 -1.00518e-18)
(1.02358 -0.0489365 2.541e-18)
(1.02207 -0.042885 -4.28287e-18)
(1.02014 -0.0370479 -3.83286e-18)
(1.01806 -0.0313019 -5.11819e-18)
(1.01556 -0.0257161 -8.06446e-20)
(1.01288 -0.0201469 -2.79341e-18)
(1.00975 -0.014656 -3.74062e-18)
(1.00636 -0.00902491 2.38016e-18)
(1.00232 -0.00320048 3.46419e-18)
(0.828343 -0.951976 -1.25136e-19)
(0.858886 -0.840065 -1.0624e-18)
(0.884623 -0.745096 -3.0637e-19)
(0.906009 -0.663829 1.73093e-18)
(0.924402 -0.593964 -6.78842e-19)
(0.939891 -0.533449 2.43854e-19)
(0.953438 -0.480837 -2.23332e-18)
(0.964946 -0.434778 -1.54657e-18)
(0.975142 -0.394328 1.24163e-18)
(0.983839 -0.358576 3.65183e-18)
(0.991619 -0.326888 3.26533e-18)
(0.99825 -0.298632 -3.79971e-19)
(1.00422 -0.273372 -3.32437e-18)
(1.00927 -0.250665 -3.36288e-18)
(1.01383 -0.230198 -2.27798e-18)
(1.01763 -0.211659 2.81071e-18)
(1.02106 -0.194817 1.30617e-18)
(1.02385 -0.17945 -1.3571e-18)
(1.02633 -0.165379 1.83877e-18)
(1.02826 -0.152451 1.1409e-18)
(1.02995 -0.140519 1.86729e-18)
(1.03113 -0.129479 1.45511e-18)
(1.03211 -0.119208 -8.0068e-18)
(1.03263 -0.10964 -2.8649e-18)
(1.03297 -0.100661 6.99274e-18)
(1.03287 -0.0922395 -1.24764e-18)
(1.03262 -0.0842671 1.58817e-18)
(1.03195 -0.0767369 2.26865e-18)
(1.03113 -0.0695423 -4.77594e-18)
(1.02991 -0.0626992 -2.07444e-18)
(1.02854 -0.0560981 1.02214e-18)
(1.02678 -0.0497758 5.25275e-18)
(1.02486 -0.0436164 1.88569e-18)
(1.02255 -0.0376758 7.05675e-18)
(1.02009 -0.0318282 7.37445e-18)
(1.01723 -0.0261447 2.30253e-18)
(1.01419 -0.0204786 3.70239e-18)
(1.0107 -0.0148935 1.79437e-18)
(1.00694 -0.00916738 -5.62605e-18)
(1.00252 -0.00324833 2.1266e-18)
(0.891084 -0.964458 -3.13058e-19)
(0.914253 -0.851079 -9.76902e-19)
(0.933731 -0.754865 -5.50993e-20)
(0.949761 -0.672531 2.6392e-20)
(0.96355 -0.60175 -2.42313e-18)
(0.975051 -0.540442 -9.68716e-19)
(0.985129 -0.48714 -3.14025e-19)
(0.993601 -0.440477 -1.55177e-18)
(1.00113 -0.399497 -6.43331e-19)
(1.00747 -0.363276 3.04356e-20)
(1.01316 -0.331171 1.95089e-19)
(1.01793 -0.302545 -4.1935e-18)
(1.02223 -0.276953 -3.58604e-18)
(1.02578 -0.253948 2.36426e-18)
(1.02899 -0.233212 -9.9438e-19)
(1.03157 -0.21443 1.11915e-18)
(1.03389 -0.197366 6.21864e-19)
(1.03566 -0.181796 8.81526e-19)
(1.03722 -0.16754 5.67833e-18)
(1.03829 -0.154441 2.0242e-19)
(1.03919 -0.142351 4.39778e-18)
(1.03964 -0.131166 3.98998e-18)
(1.03994 -0.120759 -5.32274e-18)
(1.03983 -0.111063 -3.72067e-18)
(1.03957 -0.101966 1.07701e-18)
(1.03892 -0.0934322 -3.36928e-18)
(1.03814 -0.0853538 3.7523e-18)
(1.03697 -0.0777234 6.83449e-18)
(1.03568 -0.070433 -6.07767e-18)
(1.03401 -0.0634991 1.69251e-18)