/*--------------------------------*- C++ -*----------------------------------*\
| =========                 |                                                 |
| \\      /  F ield         | foam-extend: Open Source CFD                    |
|  \\    /   O peration     | Version:  3.0                                   |
|   \\  /    A nd           | Web:         http://www.extend-project.de       |
|    \\/     M anipulation  |                                                 |
\*---------------------------------------------------------------------------*/
FoamFile
{
    version     2.0;
    format      ascii;
    class       volVectorField;
    location    "1";
    object      u;
}
// * * * * * * * * * * * * * * * * * * * * * * * * * * * * * * * * * * * * * //

dimensions      [0 0 0 0 0 0 0];

internalField   nonuniform List<vector> 
7680
(
(0.0733033 -0.0310885 4.66833e-19)
(0.178693 -0.0267936 5.54606e-18)
(0.275251 -0.023836 2.43369e-19)
(0.35132 -0.021179 -1.10213e-19)
(0.422083 -0.0189835 4.83942e-19)
(0.478076 -0.0170536 3.27142e-18)
(0.531535 -0.0154318 1.86752e-19)
(0.573746 -0.0139838 2.8297e-19)
(0.615137 -0.0127565 1.49309e-18)
(0.647565 -0.0116312 4.01118e-19)
(0.680273 -0.0106812 2.46089e-19)
(0.70555 -0.00979531 1.11347e-19)
(0.731863 -0.00904071 3.73944e-19)
(0.751791 -0.00834815 -2.74904e-18)
(0.7733 -0.0077324 2.95728e-19)
(0.78915 -0.00719447 6.30368e-20)
(0.806996 -0.00668287 -4.05822e-19)
(0.8197 -0.00626295 1.92974e-19)
(0.834732 -0.00583609 2.00857e-18)
(0.844995 -0.00550201 -1.79233e-18)
(0.857878 -0.0051472 1.79719e-19)
(0.866266 -0.00487405 -4.88492e-19)
(0.877544 -0.00457928 5.82565e-19)
(0.884534 -0.00435014 2.25361e-19)
(0.894669 -0.00410228 -1.27037e-18)
(0.900674 -0.00390652 4.31422e-19)
(0.910067 -0.00369228 1.30805e-18)
(0.915439 -0.00352317 -1.63543e-20)
(0.924427 -0.00333098 -6.13127e-19)
(0.929448 -0.00318398 4.41338e-20)
(0.938288 -0.00300529 5.49256e-19)
(0.943152 -0.00287768 -1.41116e-19)
(0.951997 -0.00270741 -1.17034e-19)
(0.956788 -0.00259817 -9.50661e-19)
(0.965669 -0.00243456 1.25154e-19)
(0.970346 -0.00234382 1.50237e-20)
(0.97915 -0.0021884 9.1248e-19)
(0.983545 -0.00211816 -2.01222e-19)
(0.992021 -0.00195546 -1.33043e-19)
(0.995813 -0.00223041 -1.90579e-19)
(0.0774431 -0.0908535 -4.01514e-18)
(0.182084 -0.0775922 -8.74022e-18)
(0.278241 -0.0694425 -5.62048e-18)
(0.353997 -0.0616539 6.82667e-18)
(0.424522 -0.0552642 -7.49546e-18)
(0.480304 -0.0495517 -3.1041e-18)
(0.533585 -0.0447691 -2.63809e-18)
(0.575614 -0.0404535 2.84624e-18)
(0.616837 -0.0368156 5.31109e-18)
(0.649102 -0.0335044 2.89121e-18)
(0.68167 -0.0306926 -1.57602e-18)
(0.706814 -0.0281167 7.02522e-20)
(0.733019 -0.0259034 2.92675e-18)
(0.752845 -0.0238725 9.89319e-21)
(0.774272 -0.0220983 -7.316e-19)
(0.790048 -0.0204836 -8.25433e-19)
(0.807828 -0.0190377 4.99389e-18)
(0.820476 -0.0177486 -3.7029e-18)
(0.835453 -0.0165524 6.85926e-19)
(0.845674 -0.015519 -2.52063e-18)
(0.858506 -0.0145161 1.55255e-18)
(0.86686 -0.0136813 -9.7068e-20)
(0.878093 -0.0128298 1.20934e-19)
(0.885052 -0.0121468 -3.81687e-18)
(0.895149 -0.0114128 4.28278e-18)
(0.901125 -0.0108446 -4.14112e-19)
(0.910487 -0.0101982 -1.45451e-19)
(0.915832 -0.00971676 -1.4319e-18)
(0.924796 -0.00913226 8.39191e-20)
(0.929791 -0.00871783 8.35606e-20)
(0.938613 -0.00817515 3.99351e-20)
(0.943454 -0.00781515 2.01289e-18)
(0.952285 -0.00730172 1.846e-18)
(0.957057 -0.00698989 -3.19874e-18)
(0.965925 -0.00650148 1.086e-19)
(0.970589 -0.00623718 -2.06158e-18)
(0.979379 -0.00577781 2.98866e-18)
(0.983769 -0.00556761 -2.96348e-19)
(0.99223 -0.00510358 -7.87214e-20)
(0.996056 -0.00572886 4.14406e-18)
(0.0851638 -0.150521 7.98482e-18)
(0.188948 -0.128555 -2.39763e-18)
(0.284406 -0.114678 1.43775e-17)
(0.359418 -0.101772 -1.05606e-17)
(0.429349 -0.0912315 7.96801e-18)
(0.484579 -0.081797 1.4041e-19)
(0.537411 -0.0739442 5.77623e-20)
(0.579049 -0.0668311 2.61492e-20)
(0.619951 -0.060841 -1.71743e-17)
(0.651941 -0.0553651 -1.10625e-17)
(0.684267 -0.0507035 3.28853e-18)
(0.709209 -0.046425 -2.38932e-19)
(0.735217 -0.0427358 -5.00288e-18)
(0.754887 -0.0393652 -2.64181e-19)
(0.776149 -0.036401 8.28731e-18)
(0.791798 -0.0337309 1.10082e-17)
(0.809446 -0.0313169 -7.03038e-18)
(0.821987 -0.0291888 1.0331e-17)
(0.836861 -0.0271992 -9.26106e-18)
(0.846989 -0.0254897 3.18054e-18)
(0.859744 -0.0238304 -2.50301e-18)
(0.86802 -0.0224432 2.36733e-18)
(0.879191 -0.0210398 -2.29625e-18)
(0.886088 -0.0199005 7.52219e-18)
(0.896131 -0.0186911 -2.01589e-18)
(0.902057 -0.0177423 3.35683e-18)
(0.911369 -0.0166752 -7.12206e-20)
(0.916674 -0.0158727 2.80633e-18)
(0.925588 -0.014906 -9.87736e-20)
(0.930552 -0.014217 -2.04659e-19)
(0.939322 -0.0133193 -1.47885e-19)
(0.944138 -0.0127215 1.1285e-19)
(0.952918 -0.0118734 2.03753e-18)
(0.957666 -0.0113555 1.69068e-18)
(0.966484 -0.01055 -2.46483e-19)
(0.971127 -0.0101108 1.75942e-20)
(0.979871 -0.00935359 1.91498e-18)
(0.984242 -0.00900362 -1.87073e-19)
(0.992659 -0.0082438 7.56651e-20)
(0.996529 -0.00921873 -2.07488e-18)
(0.0969319 -0.209204 -7.51869e-18)
(0.198792 -0.178637 -2.76231e-17)
(0.293159 -0.15948 9.71309e-18)
(0.367237 -0.141483 -2.1141e-17)
(0.436394 -0.12681 6.17734e-18)
(0.490935 -0.113646 -4.18395e-18)
(0.543189 -0.10269 1.35452e-18)
(0.584278 -0.0927709 5.3936e-18)
(0.62472 -0.0844233 6.55918e-19)
(0.656266 -0.0768081 8.11935e-18)
(0.688227 -0.0703287 3.16574e-18)
(0.712815 -0.0643943 -8.63649e-19)
(0.738539 -0.0592796 -2.8871e-19)
(0.75793 -0.0546002 5.18331e-18)
(0.778969 -0.0505004 -9.57403e-18)
(0.794402 -0.0467799 4.26418e-18)
(0.811867 -0.0434458 -1.03172e-17)
(0.82424 -0.0404712 -6.57715e-18)
(0.83896 -0.0377214 1.18613e-17)
(0.848957 -0.0353307 -5.75612e-18)
(0.861577 -0.033031 4.61083e-18)
(0.869749 -0.0310957 -1.03226e-18)
(0.880802 -0.0291434 4.22369e-18)
(0.887613 -0.0275599 -3.9222e-18)
(0.897555 -0.0258728 -3.69847e-19)
(0.903408 -0.0245586 -3.44029e-18)
(0.912632 -0.0230678 -2.60511e-18)
(0.917873 -0.0219589 2.05605e-19)
(0.926711 -0.0206077 -4.63353e-20)
(0.931619 -0.0196569 4.70982e-18)
(0.940323 -0.0184022 4.53598e-18)
(0.945088 -0.0175775 -6.29814e-18)
(0.953809 -0.0163921 -1.54678e-18)
(0.958514 -0.0156769 1.22957e-17)
(0.967277 -0.0145511 -4.79566e-18)
(0.971884 -0.0139432 5.08039e-19)
(0.980575 -0.0128852 4.23993e-18)
(0.98492 -0.0124004 -3.93339e-18)
(0.993282 -0.0113417 3.1227e-19)
(0.997228 -0.0126654 -3.32662e-19)
(0.112459 -0.26726 6.86447e-18)
(0.212211 -0.228146 1.41812e-17)
(0.305136 -0.203563 -5.15704e-17)
(0.377854 -0.18062 6.16959e-17)
(0.445883 -0.161894 -2.70376e-18)
(0.499417 -0.1451 -2.22191e-17)
(0.55083 -0.131131 -7.87808e-18)
(0.591178 -0.11847 3.88377e-20)
(0.630989 -0.107815 7.69731e-19)
(0.66198 -0.0980841 6.25247e-18)
(0.693453 -0.0898 -2.00491e-18)
(0.717614 -0.08221 4.36794e-18)
(0.742947 -0.0756626 9.91932e-18)
(0.762003 -0.0696812 -1.00606e-17)
(0.782727 -0.0644291 2.60019e-18)
(0.79789 -0.0596803 -1.43927e-17)
(0.815102 -0.0554089 1.43057e-17)
(0.827254 -0.0516145 -6.12195e-19)
(0.84177 -0.0480951 -7.38586e-20)
(0.851586 -0.0450427 -5.34647e-20)
(0.864041 -0.0421039 9.27272e-18)
(0.872064 -0.0396289 8.70213e-18)
(0.88298 -0.0371372 -8.03763e-18)
(0.889669 -0.0351098 4.33789e-19)
(0.89949 -0.0329569 6.67319e-18)
(0.905244 -0.0312744 5.80484e-18)
(0.914359 -0.0293713 -5.58653e-18)
(0.91952 -0.0279529 4.96919e-19)
(0.928255 -0.0262278 5.02352e-18)
(0.933096 -0.0250123 -5.04912e-18)
(0.941701 -0.0234113 -4.15885e-18)
(0.946409 -0.0223566 1.77864e-19)
(0.955034 -0.0208461 -8.38796e-18)
(0.959689 -0.0199298 4.33856e-18)
(0.968361 -0.0184974 -4.05615e-18)
(0.972924 -0.0177173 -3.6801e-18)
(0.981531 -0.0163724 -3.84091e-18)
(0.985838 -0.0157494 -7.39313e-18)
(0.994119 -0.0144048 6.64648e-19)
(0.998157 -0.0160686 8.11956e-18)
(0.131822 -0.323957 -1.24843e-19)
(0.228608 -0.276602 3.27395e-17)
(0.319752 -0.246811 5.11772e-17)
(0.390824 -0.218935 -4.04768e-17)
(0.457528 -0.196216 -1.07427e-18)
(0.509862 -0.175826 5.11431e-17)
(0.560286 -0.158875 2.26401e-17)
(0.599713 -0.143515 -1.7309e-19)
(0.638763 -0.130594 -1.67253e-17)
(0.669037 -0.118801 1.1555e-18)
(0.699915 -0.108764 2.33137e-17)
(0.723515 -0.0995729 -9.59985e-19)
(0.748382 -0.0916461 9.25358e-18)
(0.766996 -0.0844001 2.91089e-18)
(0.787349 -0.0780463 -1.59454e-17)
(0.802163 -0.0722856 -5.90313e-18)
(0.819072 -0.0671208 1.47749e-17)
(0.830949 -0.0625125 -6.86328e-18)
(0.845212 -0.058256 1.71986e-18)
(0.854809 -0.0545487 4.24383e-19)
(0.867049 -0.0509911 -8.75467e-18)
(0.874896 -0.0479875 -1.6287e-17)
(0.885627 -0.0449677 7.97048e-18)
(0.892172 -0.0425099 6.2475e-18)
(0.901834 -0.0398985 -1.35352e-17)
(0.907467 -0.0378606 6.38535e-19)
(0.916443 -0.035551 1.80738e-19)
(0.921501 -0.033834 -4.86025e-18)
(0.930112 -0.0317394 8.26498e-20)
(0.934864 -0.0302689 -4.543e-18)
(0.943357 -0.028324 -1.9246e-19)
(0.947987 -0.0270493 3.92823e-18)
(0.956508 -0.0252127 -4.47526e-18)
(0.961097 -0.0241067 4.09446e-18)
(0.969671 -0.0223634 -1.63944e-17)
(0.974177 -0.0214224 4.67876e-18)
(0.982692 -0.0197846 7.52204e-18)
(0.986956 -0.0190335 -8.03426e-18)
(0.995143 -0.0173983 -4.073e-18)
(0.9993 -0.0194004 7.26789e-18)
(0.154787 -0.379464 1.333e-17)
(0.248294 -0.323864 -5.67176e-17)
(0.33731 -0.288977 -4.39099e-18)
(0.406425 -0.256387 3.50206e-17)
(0.47149 -0.229793 4.21298e-18)
(0.522377 -0.205925 -2.39383e-17)
(0.571579 -0.186081 -2.46643e-17)
(0.609923 -0.168089 8.66899e-18)
(0.648043 -0.152956 1.68497e-17)
(0.677491 -0.139136 -2.16187e-17)
(0.707647 -0.127374 -3.2387e-17)
(0.730606 -0.116601 -1.49445e-17)
(0.754901 -0.107308 1.06978e-17)
(0.77301 -0.0988177 1.84914e-17)
(0.792903 -0.0913666 -7.93712e-18)
(0.807314 -0.0846212 3.54836e-19)
(0.823852 -0.0785639 -1.40274e-17)
(0.835402 -0.0731694 -5.51526e-18)
(0.849363 -0.068179 -1.10477e-17)
(0.858695 -0.063837 -4.71451e-18)
(0.870686 -0.0596687 -7.99826e-18)
(0.878315 -0.0561481 1.53641e-18)
(0.888836 -0.0526113 7.58728e-18)
(0.895203 -0.0497295 -1.21877e-18)
(0.904683 -0.0466711 1.59039e-19)
(0.910171 -0.0442824 -1.17869e-17)
(0.918983 -0.0415769 5.83075e-18)
(0.92392 -0.0395659 -1.11797e-17)
(0.93238 -0.0371125 6.68393e-18)
(0.937029 -0.0353909 -3.63925e-18)
(0.94538 -0.0331141 2.33126e-17)
(0.949921 -0.0316209 -1.261e-18)
(0.958306 -0.0294732 -1.87854e-19)
(0.962817 -0.0281753 4.41971e-18)
(0.971262 -0.0261396 8.09398e-18)
(0.975702 -0.0250329 -4.9068e-19)
(0.984096 -0.0231225 -2.72536e-19)
(0.988305 -0.0222377 -3.71536e-19)
(0.996372 -0.0203308 1.61102e-17)
(1.00067 -0.0226587 -8.40572e-19)
(0.181378 -0.43318 7.91831e-18)
(0.270939 -0.369816 -1.12877e-17)
(0.35751 -0.329939 1.47854e-17)
(0.42432 -0.29267 -1.3638e-17)
(0.48754 -0.262286 -4.16909e-17)
(0.536749 -0.235019 -2.70293e-17)
(0.584575 -0.212355 2.39993e-17)
(0.621648 -0.191814 -1.16095e-17)
(0.658719 -0.174537 8.92645e-18)
(0.687188 -0.158767 -1.37697e-17)
(0.716529 -0.145343 2.93833e-17)
(0.738724 -0.133054 -2.62312e-17)
(0.762376 -0.122451 1.28033e-18)
(0.779884 -0.112764 -2.25163e-17)
(0.799263 -0.104266 7.33265e-18)
(0.813197 -0.0965639 -9.45732e-19)
(0.829315 -0.0896569 1.51524e-17)
(0.840487 -0.0834942 -1.17737e-17)
(0.8541 -0.0778035 1.73044e-17)
(0.863128 -0.0728431 8.60241e-18)
(0.874826 -0.0680881 -9.63932e-18)
(0.882211 -0.0640674 4.09855e-19)
(0.892482 -0.0600314 -7.20282e-18)
(0.898649 -0.0567412 7.48575e-18)
(0.907912 -0.0532503 5.92482e-18)
(0.913234 -0.0505234 -1.15332e-17)
(0.921856 -0.0474349 1.10826e-17)
(0.926652 -0.0451392 1.35344e-17)
(0.934942 -0.0423376 -2.62711e-17)
(0.939471 -0.0403728 -8.39947e-18)
(0.947664 -0.0377714 -8.65698e-18)
(0.952101 -0.0360687 2.53131e-19)
(0.96034 -0.0336126 1.63128e-17)
(0.96476 -0.0321348 -1.61942e-17)
(0.973067 -0.0298043 9.39689e-19)
(0.97743 -0.0285462 7.99005e-18)
(0.985695 -0.0263571 7.91347e-18)
(0.989843 -0.0253523 -1.79221e-19)
(0.997781 -0.0231687 -8.86193e-19)
(1.00224 -0.025818 -9.09065e-18)
(0.211403 -0.485202 4.71168e-17)
(0.296585 -0.41407 3.06788e-17)
(0.380379 -0.369461 -1.0819e-17)
(0.444646 -0.327781 -5.69856e-17)
(0.50574 -0.293769 2.63094e-17)
(0.553073 -0.263236 6.82183e-17)
(0.599313 -0.237857 -1.07109e-17)
(0.634973 -0.214845 5.50585e-18)
(0.670835 -0.195493 1.02505e-18)
(0.69822 -0.177821 -4.36283e-18)
(0.726622 -0.162782 9.8168e-18)
(0.747974 -0.149009 3.59512e-17)
(0.770883 -0.13713 3.78392e-19)
(0.787727 -0.126275 2.1415e-17)
(0.80651 -0.116752 2.53259e-17)
(0.819916 -0.108125 -1.66921e-17)
(0.835552 -0.100385 7.86516e-18)
(0.846298 -0.0934829 -1.20893e-17)
(0.859516 -0.0871061 1.12069e-17)
(0.868199 -0.0815492 8.15229e-18)
(0.87957 -0.0762223 -1.35764e-18)
(0.886673 -0.0717163 8.0034e-18)
(0.896667 -0.0671954 -7.62092e-18)
(0.902603 -0.063508 -6.11328e-18)
(0.911626 -0.0595972 6.85277e-18)
(0.916757 -0.0565425 -7.61636e-19)
(0.925165 -0.0530818 -7.78826e-19)
(0.929801 -0.0505117 2.08377e-17)
(0.937895 -0.0473727 -2.31484e-19)
(0.942287 -0.045174 1.94281e-17)
(0.950297 -0.0422606 -2.886e-19)
(0.954617 -0.0403545 -8.42749e-18)
(0.962681 -0.0376062 5.76607e-19)
(0.966999 -0.0359497 -8.24085e-18)
(0.975139 -0.033345 2.88725e-19)
(0.979415 -0.0319317 -1.41308e-19)
(0.987523 -0.0294877 -1.4905e-17)
(0.9916 -0.0283568 -1.50616e-17)
(0.999383 -0.0259199 3.2032e-17)
(1.00402 -0.0288747 -9.16082e-18)
(0.244771 -0.53501 1.02051e-18)
(0.32506 -0.456698 -3.64635e-17)
(0.40579 -0.407434 4.26995e-17)
(0.467152 -0.361417 1.05277e-16)
(0.525918 -0.323884 4.23126e-17)
(0.571134 -0.290208 -9.00209e-17)
(0.615638 -0.262214 -7.1661e-18)
(0.649703 -0.236842 -3.43957e-17)
(0.684244 -0.215502 -5.87535e-18)
(0.710405 -0.196025 4.62434e-17)
(0.737781 -0.179444 -1.08227e-17)
(0.758179 -0.164266 -2.36966e-17)
(0.780279 -0.151171 1.02138e-17)
(0.796371 -0.139207 -3.99901e-17)
(0.814505 -0.12871 -8.97052e-18)
(0.827313 -0.119199 1.28098e-17)
(0.84242 -0.110668 -1.47441e-17)
(0.85269 -0.103057 -1.34155e-18)
(0.86547 -0.0960288 -2.03102e-18)
(0.873771 -0.0899002 -7.53805e-19)
(0.884774 -0.0840287 8.7423e-18)
(0.891568 -0.0790599 -5.12346e-19)
(0.90125 -0.0740763 7.4637e-18)
(0.906934 -0.0700103 -6.27502e-18)
(0.915687 -0.0656994 -1.17735e-17)
(0.920609 -0.0623304 2.4287e-17)
(0.928778 -0.0585159 -2.00751e-18)
(0.933239 -0.0556809 -1.09175e-17)
(0.941117 -0.0522205 -1.90921e-17)
(0.94536 -0.0497952 2.04485e-18)
(0.953171 -0.0465822 -3.30386e-20)
(0.957361 -0.0444806 8.85961e-18)
(0.965238 -0.0414476 -1.61803e-17)
(0.969445 -0.0396232 2.44521e-17)
(0.977408 -0.0367457 -1.66675e-17)
(0.981589 -0.0351919 8.59274e-18)
(0.989532 -0.0324893 -3.12469e-19)
(0.993533 -0.0312478 7.53852e-18)
(1.00115 -0.0285532 -1.08221e-18)
(1.00599 -0.0318071 -1.6295e-17)
(0.281336 -0.58266 -1.53852e-16)
(0.356253 -0.497213 -6.4256e-17)
(0.433598 -0.443638 -2.20479e-17)
(0.491864 -0.393579 -1.34735e-16)
(0.548051 -0.352728 -5.12584e-17)
(0.590987 -0.316054 5.17071e-17)
(0.633567 -0.285575 -7.05716e-19)
(0.665912 -0.257937 7.62774e-17)
(0.698984 -0.234698 4.85383e-17)
(0.723824 -0.213476 -6.11879e-17)
(0.750059 -0.195418 -3.62738e-17)
(0.769428 -0.17888 3.66984e-19)
(0.790626 -0.164617 1.85819e-18)
(0.805908 -0.151583 2.02724e-17)
(0.82332 -0.140149 1.60428e-17)
(0.835484 -0.129789 1.40796e-17)
(0.850006 -0.120496 1.84887e-18)
(0.859759 -0.112206 2.52619e-17)
(0.872058 -0.104551 2.12744e-17)
(0.879941 -0.0978746 -1.16172e-17)
(0.890544 -0.0914799 -7.92821e-18)
(0.896997 -0.0860659 -7.35636e-18)
(0.90634 -0.0806382 6.46583e-18)
(0.911743 -0.0762083 -9.85026e-19)
(0.920203 -0.0715124 -1.22528e-17)
(0.924892 -0.0678435 1.18569e-19)
(0.932801 -0.0636875 -1.20795e-17)
(0.937066 -0.0606019 2.09425e-17)
(0.944707 -0.0568317 -2.01952e-17)
(0.948782 -0.0541931 -1.68055e-17)
(0.956372 -0.0506935 1.20372e-18)
(0.960417 -0.0484069 2.63727e-19)
(0.968084 -0.0451054 -7.95619e-19)
(0.972164 -0.0431188 7.00815e-18)
(0.979928 -0.0399894 -1.551e-17)
(0.984 -0.0382946 1.56968e-17)
(0.991755 -0.0353583 -1.4445e-18)
(0.995669 -0.0340015 -7.84637e-18)
(1.0031 -0.0310757 1.7764e-17)
(1.00816 -0.0346097 -8.05507e-18)
(0.320922 -0.627705 1.33344e-16)
(0.39005 -0.53577 6.14269e-17)
(0.46377 -0.477966 2.05326e-17)
(0.51859 -0.423994 6.09321e-17)
(0.572008 -0.379954 -2.95619e-17)
(0.61243 -0.340444 3.66579e-17)
(0.652947 -0.307596 -5.62003e-18)
(0.6834 -0.277829 -4.17949e-17)
(0.714902 -0.25279 -5.39725e-17)
(0.738291 -0.229938 4.59511e-17)
(0.763307 -0.210484 1.12908e-17)
(0.781547 -0.192678 3.83009e-17)
(0.801783 -0.177313 -2.94725e-17)
(0.816175 -0.163278 -8.06482e-18)
(0.832815 -0.150962 1.64344e-17)
(0.844271 -0.139804 -1.31058e-17)
(0.858163 -0.129795 -1.33824e-17)
(0.867349 -0.120864 -2.29367e-17)
(0.879129 -0.112619 -1.1239e-17)
(0.886556 -0.105427 2.04696e-17)
(0.896724 -0.0985391 -8.14577e-18)
(0.902809 -0.0927077 -6.71297e-18)
(0.911782 -0.0868612 1.52235e-17)
(0.916885 -0.0820895 1.30862e-17)
(0.925026 -0.0770319 -1.33341e-17)
(0.929466 -0.073079 2.32394e-17)
(0.937093 -0.0686036 -1.21273e-17)
(0.94115 -0.065278 1.33594e-19)
(0.948536 -0.0612183 -9.12254e-19)
(0.952434 -0.0583739 1.82657e-17)
(0.959786 -0.0546048 -8.92216e-18)
(0.963678 -0.0521403 -7.05014e-18)
(0.971122 -0.0485826 1.6326e-17)
(0.97507 -0.0464428 1.41624e-17)
(0.982623 -0.0430681 -2.48112e-17)
(0.986583 -0.041245 1.20039e-18)
(0.99414 -0.0380756 5.80463e-18)
(0.997965 -0.0366184 -7.22103e-20)
(1.0052 -0.0334593 -3.07505e-17)
(1.01049 -0.0372643 1.0145e-19)
(0.363393 -0.67017 8.91991e-17)
(0.42627 -0.571868 1.19877e-17)
(0.496056 -0.510239 -3.07669e-18)
(0.547273 -0.452655 -6.93442e-18)
(0.597702 -0.405663 -1.53253e-17)
(0.635475 -0.363476 -8.22651e-17)
(0.673761 -0.328418 4.1806e-17)
(0.702215 -0.296627 1.85626e-17)
(0.732015 -0.269899 1.88564e-17)
(0.753868 -0.24549 2.6633e-17)
(0.777562 -0.224722 9.27135e-18)
(0.794604 -0.205702 -5.8849e-17)
(0.813796 -0.189298 2.0263e-17)
(0.827244 -0.174307 -1.91749e-17)
(0.843048 -0.161158 -1.44313e-17)
(0.853754 -0.149241 -2.8894e-17)
(0.866968 -0.138554 1.4849e-17)
(0.875554 -0.129017 -2.32502e-18)
(0.886776 -0.120214 9.38687e-18)
(0.893719 -0.112533 -3.17052e-17)
(0.903421 -0.105179 1.42576e-18)
(0.909112 -0.0989501 1.42157e-19)
(0.91769 -0.0927085 -1.36479e-17)
(0.922469 -0.0876119 8.22236e-19)
(0.930267 -0.0822115 -3.95268e-19)
(0.934438 -0.0779912 2.35111e-17)
(0.941762 -0.0732114 -1.24179e-17)
(0.945592 -0.0696629 1.06548e-17)
(0.952701 -0.0653265 8.5415e-18)
(0.956404 -0.062293 -9.29524e-18)
(0.963501 -0.0582675 9.02772e-18)
(0.967223 -0.0556394 4.94246e-19)
(0.974425 -0.0518416 -1.51508e-17)
(0.978225 -0.0495588 7.46006e-18)
(0.985548 -0.0459586 2.85632e-17)
(0.989381 -0.0440116 -1.726e-17)
(0.996721 -0.0406332 8.33921e-18)
(1.00044 -0.0390744 -1.5247e-17)
(1.00746 -0.0357093 3.08267e-17)
(1.01301 -0.0397648 2.68544e-19)
(0.408529 -0.709677 -1.16166e-16)
(0.464804 -0.605686 1.98634e-18)
(0.53046 -0.540329 -1.60993e-18)
(0.577758 -0.479328 -1.49875e-17)
(0.625026 -0.429533 9.06958e-17)
(0.659934 -0.384865 4.7876e-18)
(0.695864 -0.347725 1.18523e-18)
(0.722164 -0.314071 1.97788e-17)
(0.750171 -0.285761 -2.88481e-17)
(0.770372 -0.259926 -2.59449e-17)
(0.792674 -0.237932 -4.38353e-19)
(0.808431 -0.217801 2.65867e-17)
(0.826524 -0.20043 2.38537e-17)
(0.838958 -0.184563 2.16295e-17)
(0.85388 -0.170639 1.33735e-18)
(0.863779 -0.158024 5.79775e-17)
(0.876275 -0.146708 -2.91023e-17)
(0.884214 -0.13661 4.77208e-17)
(0.894844 -0.127289 1.69565e-17)
(0.901266 -0.119157 2.00919e-17)
(0.910472 -0.11137 -2.83214e-19)
(0.915742 -0.104776 3.74318e-20)
(0.923899 -0.0981666 -1.43807e-17)
(0.928335 -0.0927714 1.34996e-17)
(0.935769 -0.0870533 -1.03305e-18)
(0.939657 -0.0825845 -2.22503e-17)
(0.946659 -0.0775246 2.17894e-17)
(0.950251 -0.0737658 -1.11626e-17)
(0.95707 -0.069176 1.61211e-20)
(0.960571 -0.0659616 -9.42955e-18)
(0.967398 -0.0617007 4.64453e-19)
(0.970946 -0.0589157 -1.58856e-17)
(0.977893 -0.0548944 1.63606e-17)
(0.981542 -0.0524761 7.15093e-18)
(0.988623 -0.048662 -8.06717e-18)
(0.992329 -0.046601 2.87501e-17)
(0.999443 -0.0430194 -1.56353e-17)
(1.00306 -0.0413716 1.52957e-17)
(1.00986 -0.0378024 -1.47239e-17)
(1.01568 -0.0420954 -2.87289e-17)
(0.456176 -0.746232 -6.41624e-17)
(0.505437 -0.636755 6.34161e-18)
(0.566682 -0.568126 -3.37076e-18)
(0.609925 -0.503997 9.92021e-19)
(0.653846 -0.451668 -7.69152e-18)
(0.685779 -0.40469 -1.0626e-17)
(0.71921 -0.365652 -2.27041e-17)
(0.743265 -0.330252 -3.4397e-17)
(0.769366 -0.300492 -6.2945e-17)
(0.787842 -0.273315 3.41722e-17)
(0.808663 -0.250191 -1.42748e-17)
(0.823074 -0.229014 -2.29776e-18)
(0.839997 -0.210749 -8.27007e-17)
(0.851371 -0.194058 -1.92584e-17)
(0.865357 -0.179416 -1.60549e-17)
(0.874414 -0.166147 8.87268e-19)
(0.88615 -0.154248 1.52981e-17)
(0.893415 -0.143627 -2.4621e-17)
(0.90342 -0.133826 1.24827e-17)
(0.909298 -0.125272 -2.90346e-17)
(0.917983 -0.117085 1.74601e-17)
(0.92281 -0.110148 -1.82827e-18)
(0.930524 -0.103199 1.39908e-17)
(0.934597 -0.0975229 -6.0977e-19)
(0.941647 -0.0915104 6.5513e-19)
(0.945233 -0.086811 1.02797e-18)
(0.951895 -0.0814894 2.39634e-19)
(0.955233 -0.0775387 -8.9367e-18)
(0.961742 -0.0727107 1.00894e-17)
(0.965024 -0.0693339 7.55223e-18)
(0.971564 -0.0648521 -7.7506e-19)
(0.974921 -0.0619272 -6.68839e-19)
(0.981597 -0.0576985 7.79788e-18)
(0.98508 -0.0551585 -1.43459e-17)
(0.991903 -0.0511496 2.58083e-19)
(0.995467 -0.0489836 -2.26365e-19)
(1.00234 -0.0452213 -1.40099e-17)
(1.00584 -0.0434875 -2.65593e-19)
(1.0124 -0.0397407 -1.43505e-17)
(1.0185 -0.0442508 9.53482e-19)
(0.506093 -0.779524 9.58444e-17)
(0.548045 -0.665252 -7.342e-18)
(0.604722 -0.593457 -1.20754e-17)
(0.643644 -0.526471 2.12452e-17)
(0.684066 -0.471772 -2.43393e-17)
(0.712835 -0.42271 6.44377e-17)
(0.743659 -0.381913 3.32338e-17)
(0.765334 -0.344948 3.83335e-17)
(0.789448 -0.313851 3.601e-17)
(0.8061 -0.285475 -3.24682e-18)
(0.825379 -0.261315 -2.38899e-17)
(0.838371 -0.239206 2.28076e-17)
(0.854077 -0.220124 6.2477e-17)
(0.864331 -0.202698 3.89165e-17)
(0.87734 -0.187403 3.39214e-18)
(0.885506 -0.173547 -3.89241e-17)
(0.896447 -0.161117 -3.78243e-17)
(0.902997 -0.150025 2.59044e-17)
(0.912346 -0.139787 -4.93633e-17)
(0.917648 -0.130854 2.11368e-18)
(0.925784 -0.122301 1.54759e-17)
(0.930146 -0.115058 -9.23663e-19)
(0.937394 -0.107798 7.76032e-19)
(0.941087 -0.101872 5.88768e-19)
(0.947735 -0.0955912 4.82641e-19)
(0.951007 -0.0906836 -1.06141e-17)
(0.957314 -0.0851254 1.14324e-17)
(0.960388 -0.0809981 -1.03206e-17)
(0.966577 -0.0759566 1.76478e-19)
(0.969634 -0.0724274 -1.30882e-19)
(0.975876 -0.0677477 1.52992e-17)
(0.97904 -0.06469 -1.25318e-18)
(0.985435 -0.060274 8.28103e-21)
(0.988751 -0.0576187 -3.01495e-17)
(0.995307 -0.0534308 2.95524e-17)
(0.99873 -0.0511674 -2.86447e-17)
(1.00535 -0.0472352 1.22621e-18)
(1.00874 -0.045425 1.49662e-17)
(1.01505 -0.0415071 -2.2008e-19)
(1.02145 -0.0462167 1.52643e-17)
(0.5581 -0.809543 -3.58748e-17)
(0.592399 -0.690765 1.04593e-16)
(0.644271 -0.616304 -8.00867e-17)
(0.678749 -0.546727 1.10449e-17)
(0.715522 -0.489954 -9.68546e-18)
(0.741038 -0.43899 -4.39083e-18)
(0.76914 -0.39664 1.92114e-17)
(0.788361 -0.358237 -1.44344e-18)
(0.810399 -0.325953 -6.76149e-17)
(0.825166 -0.296471 5.63356e-17)
(0.842831 -0.271387 7.41308e-18)
(0.854352 -0.248415 -3.88224e-18)
(0.868783 -0.228601 -4.07327e-17)
(0.877879 -0.210496 -8.4923e-17)
(0.889867 -0.194612 -1.64647e-17)
(0.897111 -0.180217 2.61533e-17)
(0.907224 -0.167309 2.45718e-17)
(0.913037 -0.155786 -1.10418e-17)
(0.921704 -0.145154 -7.22427e-18)
(0.926413 -0.135873 1.81781e-17)
(0.93398 -0.126992 -4.2362e-19)
(0.937859 -0.119466 -1.51465e-17)
(0.944623 -0.111928 -1.26309e-17)
(0.94792 -0.105771 -1.07658e-17)
(0.954149 -0.0992489 1.2269e-17)
(0.957093 -0.0941512 -1.05037e-17)
(0.963029 -0.0883788 2.037e-18)
(0.965825 -0.0840936 9.26287e-18)
(0.971676 -0.0788569 1.74394e-17)
(0.974495 -0.0751945 -1.71008e-17)
(0.980423 -0.0703334 1.73197e-17)
(0.983379 -0.0671614 -1.6186e-17)
(0.989478 -0.062575 1.65172e-17)
(0.992612 -0.0598208 1.34321e-17)
(0.998888 -0.0554724 1.28191e-17)
(1.00215 -0.0531243 -3.04811e-17)
(1.00851 -0.0490432 2.75787e-17)
(1.01178 -0.0471642 -2.99595e-17)
(1.01782 -0.0431 -1.21086e-17)
(1.02454 -0.0479896 1.56108e-17)
(0.611943 -0.836048 4.76292e-17)
(0.638354 -0.713449 -7.54925e-17)
(0.685287 -0.636445 -3.16198e-17)
(0.715123 -0.564616 9.91411e-17)
(0.748119 -0.505949 5.35301e-17)
(0.770229 -0.453332 -1.26131e-17)
(0.795513 -0.409574 -7.41048e-17)
(0.812171 -0.36993 1.60789e-18)
(0.832063 -0.336578 4.78597e-17)
(0.844865 -0.306146 -4.36522e-17)
(0.860865 -0.280235 2.08263e-17)
(0.870856 -0.256524 2.48702e-18)
(0.883972 -0.236059 2.2756e-17)
(0.891862 -0.21737 3.33447e-17)
(0.902795 -0.200966 5.94008e-17)
(0.909079 -0.186106 -3.98681e-18)
(0.918334 -0.172775 -3.004e-18)
(0.923376 -0.160878 -1.02245e-18)
(0.931336 -0.149899 1.81045e-17)
(0.935424 -0.140316 -1.70059e-17)
(0.942399 -0.131145 1.63994e-18)
(0.945775 -0.123375 -8.28816e-19)
(0.952038 -0.11559 1.36157e-17)
(0.954925 -0.109235 -2.53103e-17)
(0.96072 -0.102499 1.1793e-17)
(0.963325 -0.0972364 -1.20452e-17)
(0.968877 -0.0912751 -8.74742e-18)
(0.97139 -0.0868502 1.06748e-19)
(0.976894 -0.0814431 -3.99827e-19)
(0.979471 -0.0776598 -9.88564e-19)
(0.985077 -0.0726411 -1.51819e-17)
(0.987825 -0.0693634 1.58774e-17)
(0.993621 -0.0646282 -1.45376e-17)
(0.996575 -0.0617816 -1.3766e-17)
(1.00256 -0.0572917 1.61664e-17)
(1.00568 -0.0548649 2.77699e-17)
(1.01176 -0.0506496 1.12469e-17)
(1.01491 -0.0487084 1.28475e-17)
(1.02068 -0.044509 -1.28191e-17)
(1.02772 -0.0495564 1.06417e-18)
(0.667423 -0.859018 1.06699e-17)
(0.68567 -0.732973 -2.29882e-17)
(0.727494 -0.653951 4.45122e-17)
(0.752568 -0.580116 -1.7665e-17)
(0.781677 -0.519869 -1.30061e-16)
(0.80031 -0.465789 -3.50555e-17)
(0.822696 -0.420849 4.05316e-17)
(0.836732 -0.3801 1.34155e-17)
(0.854414 -0.345844 -3.34997e-17)
(0.865202 -0.314562 1.605e-17)
(0.879482 -0.287947 2.33995e-17)
(0.887904 -0.263573 -6.54848e-17)
(0.899661 -0.242549 1.34232e-17)
(0.906313 -0.223337 1.05289e-17)
(0.916158 -0.206483 -3.01865e-17)
(0.921458 -0.191208 3.08885e-18)
(0.92983 -0.177512 2.6062e-17)
(0.934085 -0.165283 -2.03146e-18)
(0.941318 -0.154002 1.85197e-17)
(0.944771 -0.144153 -3.58915e-17)
(0.95114 -0.13473 1.78346e-17)
(0.954001 -0.126744 -1.46432e-18)
(0.959748 -0.118746 -5.57534e-19)
(0.962213 -0.112213 1.21083e-17)
(0.967561 -0.105294 1.18426e-17)
(0.969817 -0.099885 9.90542e-18)
(0.974972 -0.0937607 -1.00038e-19)
(0.97719 -0.0892145 9.08397e-19)
(0.982333 -0.0836587 -1.26257e-19)
(0.984657 -0.0797734 1.6489e-17)
(0.989928 -0.0746165 -4.64968e-20)
(0.992455 -0.0712516 -1.44004e-17)
(0.997935 -0.0663862 1.11935e-18)
(1.0007 -0.0634649 2.77607e-17)
(1.00638 -0.0588521 -2.65526e-17)
(1.00933 -0.0563619 -3.85046e-17)
(1.01514 -0.0520324 2.85849e-17)
(1.01815 -0.0500402 -1.43845e-17)
(1.02364 -0.0457288 -1.01909e-19)
(1.03101 -0.0509157 -4.59671e-19)
(0.724269 -0.878282 7.03867e-17)
(0.734187 -0.749455 1.13301e-16)
(0.770778 -0.668561 -1.86718e-17)
(0.790972 -0.59311 2.73114e-18)
(0.81609 -0.53148 1.01e-16)
(0.831134 -0.476205 -5.43226e-20)
(0.85054 -0.430236 2.46652e-18)
(0.861875 -0.38859 1.72851e-17)
(0.877287 -0.353553 1.33781e-17)
(0.886003 -0.321585 -5.54656e-18)
(0.898523 -0.294365 -2.62914e-17)
(0.905331 -0.269459 5.65595e-17)
(0.915699 -0.24796 3.46711e-17)
(0.921078 -0.228329 -2.71397e-17)
(0.929809 -0.211095 -9.12256e-18)
(0.934096 -0.195485 -1.23048e-17)
(0.941561 -0.181481 -4.68585e-17)
(0.945004 -0.168983 1.92712e-18)
(0.95149 -0.157449 9.96418e-20)
(0.954288 -0.147382 1.52374e-17)
(0.960033 -0.137749 -9.4738e-19)
(0.962364 -0.129586 -4.39885e-19)
(0.967581 -0.121409 1.11328e-18)
(0.969613 -0.114732 1.63228e-19)
(0.974503 -0.107657 -1.20546e-17)
(0.9764 -0.10213 -1.04457e-17)
(0.981151 -0.0958676 9.75434e-18)
(0.983069 -0.0912208 -9.64905e-18)
(0.987846 -0.0855406 1.682e-17)
(0.989914 -0.0815681 -3.12079e-17)
(0.994846 -0.0762964 1.19698e-18)
(0.997153 -0.0728548 1.30382e-17)
(1.00231 -0.0678815 -1.563e-17)
(1.00488 -0.0648926 -1.42833e-17)
(1.01027 -0.0601774 -1.417e-17)
(1.01305 -0.0576291 1.3213e-17)
(1.01857 -0.053203 -1.34763e-17)
(1.02146 -0.0511644 -1.24974e-17)
(1.02666 -0.0467556 1.40288e-17)
(1.03438 -0.0520561 1.28415e-17)
(0.782275 -0.893808 -7.79046e-17)
(0.783656 -0.762657 -9.85682e-17)
(0.814927 -0.680419 -3.39094e-17)
(0.830121 -0.60359 5.33586e-17)
(0.851179 -0.540899 -3.60157e-17)
(0.86258 -0.484629 3.89932e-17)
(0.878962 -0.437868 -5.27476e-17)
(0.887552 -0.395469 -2.65962e-17)
(0.900657 -0.359825 1.68727e-17)
(0.907265 -0.327278 4.651e-17)
(0.917989 -0.299585 3.9812e-17)
(0.923155 -0.274225 -1.60589e-18)
(0.932103 -0.252351 -3.13672e-17)
(0.936189 -0.232362 -3.04099e-17)
(0.943781 -0.214826 -1.06904e-17)
(0.947039 -0.198932 3.77077e-17)
(0.953581 -0.184681 2.24097e-17)
(0.9562 -0.171957 -1.99279e-17)
(0.961926 -0.16022 4.51993e-19)
(0.964061 -0.149971 -2.37882e-18)
(0.969171 -0.140167 -1.80244e-18)
(0.970963 -0.131857 1.1667e-17)
(0.975641 -0.123536 -3.70008e-17)
(0.977232 -0.116739 -8.01775e-18)
(0.981655 -0.10954 4.2359e-17)
(0.983187 -0.103913 -1.09589e-17)
(0.987523 -0.0975417 5.66251e-19)
(0.989133 -0.0928125 7.10662e-18)
(0.993533 -0.0870327 -1.53869e-17)
(0.995336 -0.0829911 1.09585e-18)
(0.999918 -0.0776267 3.82048e-19)
(1.00199 -0.0741266 1.42474e-17)
(1.00682 -0.0690659 1.19779e-19)
(1.00919 -0.0660272 2.87432e-17)
(1.01426 -0.0612296 2.54392e-17)
(1.01687 -0.0586396 -1.04012e-18)
(1.0221 -0.0541366 1.23569e-17)
(1.02484 -0.0520652 1.23165e-17)
(1.02976 -0.047581 -2.60939e-17)
(1.03782 -0.0529778 1.36498e-17)
(0.84115 -0.9055 9.80383e-17)
(0.833908 -0.772653 3.66503e-17)
(0.859736 -0.689254 4.75275e-17)
(0.869894 -0.611466 -6.02647e-20)
(0.886816 -0.547927 -3.87997e-17)
(0.894508 -0.490939 -8.44218e-20)
(0.9078 -0.443546 3.95358e-17)
(0.913595 -0.400608 -7.53021e-18)
(0.924347 -0.364485 -3.98257e-17)
(0.928811 -0.331527 -2.73547e-17)
(0.93771 -0.303465 2.12387e-17)
(0.941206 -0.277788 -5.24679e-17)
(0.948713 -0.255623 -2.6267e-17)
(0.951482 -0.235385 7.9734e-17)
(0.95792 -0.217617 -3.32561e-17)
(0.96013 -0.201524 -2.80296e-19)
(0.965732 -0.187086 -1.21782e-18)
(0.967511 -0.1742 -3.71348e-19)
(0.972464 -0.16231 3.58184e-17)
(0.973921 -0.15193 -1.73234e-17)
(0.978385 -0.141999 1.32705e-17)
(0.979628 -0.133582 2.45111e-17)
(0.983758 -0.125153 -1.15826e-17)
(0.9849 -0.11827 -9.39007e-18)
(0.988849 -0.110976 1.1842e-17)