/*--------------------------------*- C++ -*----------------------------------*\
| =========                 |                                                 |
| \\      /  F ield         | foam-extend: Open Source CFD                    |
|  \\    /   O peration     | Version:  3.0                                   |
|   \\  /    A nd           | Web:         http://www.extend-project.de       |
|    \\/     M anipulation  |                                                 |
\*---------------------------------------------------------------------------*/
FoamFile
{
    version     2.0;
    format      ascii;
    class       volScalarField;
    location    "1.3";
    object      p;
}
// * * * * * * * * * * * * * * * * * * * * * * * * * * * * * * * * * * * * * //

dimensions      [0 0 0 0 0 0 0];

internalField   nonuniform List<scalar> 
400
(
0.88837
0.869807
0.873072
0.86943
0.886203
0.892415
0.917089
0.929227
0.958173
0.973054
1.00353
1.01826
1.04768
1.05938
1.08476
1.09032
1.10763
1.10329
1.10652
1.08751
0.909136
0.88785
0.893465
0.889755
0.906079
0.910101
0.931601
0.939695
0.963919
0.973849
0.999084
1.0088
1.03337
1.0409
1.06293
1.06622
1.08304
1.07873
1.08464
1.06319
0.903087
0.878576
0.883939
0.879012
0.897436
0.901968
0.926663
0.936146
0.963936
0.9756
1.00452
1.01606
1.04436
1.05347
1.07898
1.08296
1.10213
1.09657
1.10218
1.07712
0.906622
0.879321
0.884578
0.878836
0.897642
0.901946
0.926523
0.935703
0.962777
0.974007
1.00198
1.01316
1.04078
1.04979
1.07525
1.0792
1.09876
1.09235
1.09761
1.06941
0.891933
0.861014
0.867727
0.861703
0.884187
0.889894
0.918944
0.930309
0.962068
0.975847
1.0086
1.02247
1.05501
1.06659
1.09698
1.1027
1.12648
1.11975
1.12661
1.09386
0.889235
0.85493
0.862377
0.856438
0.880278
0.886923
0.916571
0.928771
0.960318
0.974782
1.007
1.02171
1.05407
1.06686
1.098
1.10511
1.13049
1.12387
1.13138
1.09405
0.867014
0.828271
0.839376
0.834524
0.863442
0.872593
0.907019
0.921983
0.957875
0.975221
1.01171
1.02954
1.06662
1.08285
1.11965
1.13012
1.16195
1.15668
1.16883
1.12497
0.859679
0.817422
0.83131
0.828306
0.859431
0.870691
0.905622
0.921977
0.95712
0.975409
1.01064
1.02955
1.06573
1.08381
1.12106
1.13434
1.16877
1.16563
1.18098
1.13101
0.831192
0.785637
0.805718
0.805969
0.842598
0.857383
0.896255
0.915564
0.953685
0.974687
1.01267
1.03459
1.07414
1.09607
1.13842
1.15663
1.19892
1.20001
1.22421
1.1674
0.820653
0.775461
0.79981
0.804284
0.842433
0.859976
0.898145
0.918708
0.954831
0.976331
1.01166
1.03414
1.07102
1.09446
1.13518
1.15685
1.20034
1.20647
1.23567
1.17591
0.787594
0.74651
0.777985
0.788293
0.830352
0.851791
0.891892
0.914939
0.952031
0.97546
1.01146
1.03611
1.07405
1.10084
1.1442
1.17151
1.22132
1.23552
1.27629
1.21779
0.774279
0.745626
0.7798
0.796614
0.8375
0.861455
0.898918
0.922409
0.956113
0.979088
1.01104
1.03511
1.06826
1.09525
1.13336
1.16337
1.20915
1.23126
1.27392
1.22771
0.735722
0.726561
0.766266
0.791375
0.833327
0.860874
0.89795
0.922952
0.955673
0.979419
1.01006
1.03503
1.06674
1.09579
1.13302
1.16827
1.21602
1.25031
1.30361
1.28047
0.717686
0.738224
0.777562
0.810774
0.848983
0.878105
0.911062
0.93535
0.963848
0.986074
1.01193
1.03507
1.0606
1.08808
1.11685
1.15282
1.19
1.23393
1.28091
1.2965
0.674186
0.729055
0.773269
0.816546
0.854028
0.885923
0.916815
0.941375
0.967516
0.989294
1.01251
1.03518
1.05742
1.08529
1.11021
1.15016
1.18506
1.24471
1.30084
1.36796
0.657529
0.751028
0.794923
0.845635
0.878759
0.910465
0.936713
0.959273
0.981119
1.00053
1.01915
1.03907
1.05511
1.07975
1.09516
1.13299
1.15353
1.22113
1.26225
1.38924
0.628117
0.755001
0.80422
0.863664
0.895077
0.927635
0.950655
0.972034
0.990776
1.0087
1.02412
1.04244
1.05434
1.07758
1.08738
1.12663
1.14187
1.22484
1.27328
1.47036
0.646547
0.794239
0.844223
0.904468
0.930918
0.960105
0.978301
0.996419
1.01136
1.02649
1.03826
1.05351
1.06047
1.07932
1.08092
1.1143
1.1154
1.19696
1.22193
1.46777
0.677118
0.828948
0.878374
0.939567
0.961565
0.988041
1.0019
1.01735
1.029
1.04196
1.05071
1.06367
1.06666
1.08243
1.07781
1.10806
1.10063
1.18754
1.20701
1.51301
0.811502
0.90765
0.949257
0.996484
1.01026
1.02916
1.03825
1.0495
1.05838
1.06853
1.07516
1.08523
1.08558
1.09656
1.08714
1.10727
1.09005
1.15558
1.14727
1.40978
)
;

boundaryField
{
    cavity
    {
        type            implicitExtrapolation;
    }
    lid
    {
        type            implicitExtrapolation;
    }
    frontAndBack
    {
        type            empty;
    }
}


// ************************************************************************* //
