/*--------------------------------*- C++ -*----------------------------------*\
| =========                 |                                                 |
| \\      /  F ield         | foam-extend: Open Source CFD                    |
|  \\    /   O peration     | Version:  3.0                                   |
|   \\  /    A nd           | Web:         http://www.extend-project.de       |
|    \\/     M anipulation  |                                                 |
\*---------------------------------------------------------------------------*/
FoamFile
{
    version     2.0;
    format      ascii;
    class       volVectorField;
    location    "1.3";
    object      s;
}
// * * * * * * * * * * * * * * * * * * * * * * * * * * * * * * * * * * * * * //

dimensions      [0 0 0 0 0 0 0];

internalField   nonuniform List<vector> 
400
(
(-0.0015617 -0.000537358 3.79128e-318)
(-0.0016911 9.83255e-05 6.8081e-318)
(-0.00201781 0.000645354 7.79133e-318)
(-0.00243508 0.00113408 7.71037e-318)
(-0.00301188 0.00124596 7.04048e-318)
(-0.00363569 0.00115076 6.15085e-318)
(-0.00422829 0.000845403 5.05381e-318)
(-0.00472473 0.000430219 4.06501e-318)
(-0.00507435 -6.99909e-05 3.05114e-318)
(-0.00524969 -0.00060687 2.25759e-318)
(-0.00523152 -0.00116771 1.48558e-318)
(-0.00501372 -0.00172233 9.38078e-319)
(-0.00459844 -0.00225833 3.90297e-319)
(-0.00400255 -0.00272954 3.28652e-320)
(-0.0032534 -0.00311102 -3.6174e-319)
(-0.00241348 -0.00331223 -6.02592e-319)
(-0.00152003 -0.00331686 -8.79333e-319)
(-0.00072078 -0.00295957 -1.03161e-318)
(9.29785e-05 -0.00233872 -9.7078e-319)
(0.000551127 -0.0010372 -6.78204e-319)
(-0.00195572 0.000191533 3.59615e-318)
(-0.00246831 0.00137903 7.8345e-318)
(-0.00345841 0.00233694 9.91286e-318)
(-0.00413196 0.00301973 1.06984e-317)
(-0.00491726 0.00323102 1.04061e-317)
(-0.00562665 0.00308296 9.61336e-318)
(-0.00628299 0.00261525 8.3298e-318)
(-0.00681404 0.00192474 7.00849e-318)
(-0.00718235 0.00107456 5.53653e-318)
(-0.00735335 0.000130211 4.26027e-318)
(-0.00730556 -0.000857347 2.97262e-318)
(-0.00703175 -0.00183569 1.94755e-318)
(-0.0065381 -0.00275174 9.26259e-319)
(-0.00584974 -0.00353968 1.50324e-319)
(-0.00499606 -0.00412892 -6.51979e-319)
(-0.00405599 -0.00442227 -1.23522e-318)
(-0.00301846 -0.00435111 -1.83752e-318)
(-0.0020954 -0.00377916 -2.16151e-318)
(-0.000903851 -0.00273818 -2.1914e-318)
(-0.000163453 -0.00103905 -1.43289e-318)
(-0.00183149 0.00160364 3.29991e-318)
(-0.00240486 0.00413709 7.50685e-318)
(-0.00360851 0.00578027 9.74989e-318)
(-0.0044224 0.00669236 1.06706e-317)
(-0.00531735 0.00682921 1.05669e-317)
(-0.00603953 0.00637929 9.89257e-318)
(-0.00667112 0.00543796 8.74305e-318)
(-0.00714773 0.00415138 7.46215e-318)
(-0.00746915 0.00261902 6.02327e-318)
(-0.00761372 0.000938799 4.67789e-318)
(-0.00757266 -0.000810155 3.31751e-318)
(-0.00733785 -0.00254755 2.13019e-318)
(-0.00690525 -0.00418813 9.633e-319)
(-0.00628576 -0.00562586 -2.23021e-320)
(-0.00547467 -0.00674182 -9.85775e-319)
(-0.00454164 -0.0073703 -1.74989e-318)
(-0.0034164 -0.00737782 -2.41093e-318)
(-0.00236888 -0.00653036 -2.71367e-318)
(-0.000945295 -0.00479911 -2.50964e-318)
(-8.57759e-05 -0.00192281 -1.35061e-318)
(-0.00178459 0.00258708 2.27751e-318)
(-0.00227631 0.0062594 5.70634e-318)
(-0.00347564 0.00839478 7.86721e-318)
(-0.0041923 0.00940433 8.98301e-318)
(-0.00497527 0.00938685 9.209e-318)
(-0.00552196 0.00864405 8.82634e-318)
(-0.00597824 0.00732769 7.98694e-318)
(-0.00629093 0.00561994 6.90689e-318)
(-0.0064968 0.00363863 5.66754e-318)
(-0.0065882 0.00149081 4.4097e-318)
(-0.00656827 -0.000737684 3.14739e-318)
(-0.00642783 -0.00296158 1.96886e-318)
(-0.00615051 -0.00508602 8.53162e-319)
(-0.00573024 -0.00698883 -1.30043e-319)
(-0.00512211 -0.00852488 -1.00168e-318)
(-0.00437984 -0.00947897 -1.67063e-318)
(-0.00336004 -0.0096606 -2.11974e-318)
(-0.00237856 -0.00871977 -2.19717e-318)
(-0.000886686 -0.00654521 -1.82216e-318)
(-3.77705e-05 -0.0026933 -8.27313e-319)
(-0.00169523 0.0038181 2.30602e-318)
(-0.00201059 0.00878359 5.4021e-318)
(-0.00314745 0.0114062 7.24706e-318)
(-0.00368995 0.0124506 8.13694e-318)
(-0.00430327 0.0121793 8.30238e-318)
(-0.00462259 0.0110493 7.94668e-318)
(-0.00486786 0.00927696 7.2102e-318)
(-0.00499116 0.00709114 6.24728e-318)
(-0.00506874 0.00462355 5.13453e-318)
(-0.00510497 0.00198457 3.9737e-318)
(-0.00511521 -0.000744714 2.79332e-318)
(-0.00508823 -0.00348505 1.65728e-318)
(-0.00499278 -0.00614413 5.67227e-319)
(-0.00480553 -0.00859027 -4.27747e-319)
(-0.00443357 -0.0106569 -1.32356e-318)
(-0.00392117 -0.0120659 -2.05363e-318)
(-0.00303371 -0.0125548 -2.56701e-318)
(-0.00216649 -0.0115965 -2.74091e-318)
(-0.000638727 -0.00894856 -2.38605e-318)
(7.6421e-05 -0.00383073 -1.21263e-318)
(-0.00164328 0.00497455 1.73761e-318)
(-0.00174023 0.0111399 4.31872e-318)
(-0.00272849 0.0141088 6.00592e-318)
(-0.00295955 0.0150716 6.92297e-318)
(-0.0032696 0.0144666 7.18628e-318)
(-0.00323576 0.0129281 6.95953e-318)
(-0.00317146 0.0107328 6.36798e-318)
(-0.00303159 0.00814936 5.53658e-318)
(-0.00293392 0.00531065 4.55138e-318)
(-0.00289229 0.00231652 3.49272e-318)
(-0.0029336 -0.000771911 2.40658e-318)
(-0.00304561 -0.00389703 1.34255e-318)
(-0.00318275 -0.00698607 3.27931e-319)
(-0.00330845 -0.00991384 -5.94875e-319)
(-0.00327725 -0.0125077 -1.39111e-318)
(-0.00312775 -0.0144324 -1.99557e-318)
(-0.00250665 -0.0153512 -2.34161e-318)
(-0.00189176 -0.0145149 -2.31716e-318)
(-0.000401018 -0.0115045 -1.83481e-318)
(0.000144904 -0.00505565 -7.90001e-319)
(-0.00166284 0.00625123 1.90708e-318)
(-0.00142056 0.0135292 4.35525e-318)
(-0.00216982 0.0166883 5.79702e-318)
(-0.0019279 0.0174356 6.48543e-318)
(-0.00180319 0.0164192 6.62611e-318)
(-0.00129456 0.0144501 6.34885e-318)
(-0.000831362 0.011857 5.76993e-318)
(-0.000361691 0.00893649 4.98407e-318)
(-4.55383e-05 0.00581159 4.0633e-318)
(9.82681e-05 0.00256124 3.07022e-318)
(3.16632e-05 -0.000783459 2.04785e-318)
(-0.0002338 -0.0041975 1.03574e-318)
(-0.000641242 -0.00763933 6.25438e-320)
(-0.00114847 -0.011005 -8.37135e-319)
(-0.00155671 -0.0141293 -1.63014e-318)
(-0.00191155 -0.0166343 -2.26605e-318)
(-0.00170702 -0.0181107 -2.67349e-318)
(-0.00153383 -0.0175679 -2.76029e-318)
(-0.000161226 -0.0143453 -2.34246e-318)
(8.50614e-05 -0.00653348 -1.17261e-318)
(-0.00172069 0.0075366 1.56009e-318)
(-0.00101856 0.0156956 3.74232e-318)
(-0.00138456 0.0188402 5.11597e-318)
(-0.000500911 0.019235 5.82815e-318)
(0.000197174 0.0177682 6.00153e-318)
(0.00129282 0.015396 5.77061e-318)
(0.00223543 0.0124863 5.24307e-318)
(0.00309254 0.00934218 4.51259e-318)
(0.00366623 0.00606642 3.65039e-318)
(0.00393765 0.00270712 2.71532e-318)
(0.00385856 -0.000741707 1.751e-318)
(0.00343765 -0.00429554 7.94744e-319)
(0.00273767 -0.00795341 -1.20532e-319)
(0.00179723 -0.0116478 -9.59352e-319)
(0.000861695 -0.0152366 -1.67937e-318)
(-0.000133845 -0.0183286 -2.22349e-318)
(-0.000514454 -0.0204524 -2.51998e-318)
(-0.000993312 -0.0203986 -2.46451e-318)
(0.00011529 -0.0171963 -1.95653e-318)
(-6.40017e-05 -0.00816648 -8.67337e-319)
(-0.00182492 0.00880181 1.72627e-318)
(-0.000448559 0.0174761 3.87446e-318)
(-0.000272483 0.0204134 5.09559e-318)
(0.00141629 0.020344 5.64243e-318)
(0.00279381 0.0184428 5.71414e-318)
(0.00454803 0.0157337 5.42655e-318)
(0.00601307 0.0126171 4.8839e-318)
(0.00728447 0.00937542 4.16425e-318)
(0.00813599 0.00608727 3.33065e-318)
(0.0085541 0.00276305 2.43385e-318)
(0.00848284 -0.000640739 1.51245e-318)
(0.00792607 -0.00418383 5.99267e-319)
(0.00694516 -0.00790787 -2.76232e-319)
(0.00556537 -0.0117959 -1.0832e-318)
(0.00406301 -0.0157365 -1.78649e-318)
(0.00233679 -0.0193696 -2.3425e-318)
(0.00122952 -0.022164 -2.68249e-318)
(-0.000128533 -0.022785 -2.72614e-318)
(0.00053676 -0.0198487 -2.29723e-318)
(-0.000346792 -0.00994403 -1.15317e-318)
(-0.00182798 0.00987092 1.49648e-318)
(0.000373296 0.0186014 3.50715e-318)
(0.00127547 0.0212004 4.71483e-318)
(0.00384622 0.0206219 5.29267e-318)
(0.00595543 0.018373 5.37679e-318)
(0.00837177 0.0154367 5.10296e-318)
(0.0103554 0.0122508 4.57474e-318)
(0.01203 0.00904904 3.87604e-318)
(0.0131569 0.00588849 3.07143e-318)
(0.0137312 0.00273961 2.20981e-318)
(0.0136925 -0.000474395 1.32959e-318)
(0.0130392 -0.00385539 4.61571e-319)
(0.0118229 -0.00748442 -3.64704e-319)
(0.0100505 -0.0114035 -1.1177e-318)
(0.00800321 -0.0155326 -1.76005e-318)
(0.00554164 -0.0195916 -2.2425e-318)
(0.00362553 -0.0229815 -2.4997e-318)
(0.00125496 -0.0243942 -2.43933e-318)
(0.00124119 -0.021922 -1.95609e-318)
(-0.000557358 -0.0116541 -9.00968e-319)
(-0.00165664 0.0105153 1.62974e-318)
(0.00148748 0.0188071 3.64365e-318)
(0.00325804 0.0210597 4.75266e-318)
(0.00670765 0.0200086 5.21067e-318)
(0.00953719 0.0175646 5.2165e-318)
(0.0125567 0.0145373 4.89304e-318)
(0.0150095 0.0114271 4.34497e-318)
(0.0170391 0.00839359 3.64829e-318)
(0.0184157 0.00548327 2.8617e-318)
(0.0191438 0.00262716 2.02984e-318)
(0.0191641 -0.000275529 1.1868e-318)
(0.0184703 -0.0033636 3.60836e-319)
(0.0170961 -0.0067478 -4.21166e-319)
(0.0150299 -0.0105334 -1.13204e-318)
(0.012523 -0.0146602 -1.7402e-318)
(0.00940846 -0.0189777 -2.20733e-318)
(0.00667658 -0.0227844 -2.47721e-318)
(0.00324436 -0.0250034 -2.48683e-318)
(0.0023276 -0.0230473 -2.08473e-318)
(-0.000632858 -0.0130339 -1.05941e-318)
(-0.00111364 0.0105755 1.47298e-318)
(0.00283619 0.0180648 3.41842e-318)
(0.00560265 0.0200313 4.52943e-318)
(0.00978761 0.0186126 5.00542e-318)
(0.0132742 0.0161437 5.00421e-318)
(0.0167752 0.0131643 4.67443e-318)
(0.0196122 0.0102599 4.12568e-318)
(0.0219179 0.00750106 3.43928e-318)
(0.0234982 0.00493404 2.67453e-318)
(0.0243647 0.00245544 1.8751e-318)
(0.024466 -4.94688e-05 1.07235e-318)
(0.0237935 -0.00274647 2.93154e-319)
(0.0223554 -0.00576446 -4.37396e-319)
(0.0201296 -0.0092677 -1.09147e-318)
(0.0172955 -0.013202 -1.6362e-318)
(0.0137007 -0.017581 -2.03053e-318)
(0.0102183 -0.0215675 -2.22115e-318)
(0.005867 -0.0245016 -2.13794e-318)
(0.00380453 -0.0230275 -1.69914e-318)
(-0.000226191 -0.0138221 -7.94882e-319)
(-0.000313141 0.00978651 1.57855e-318)
(0.00421233 0.0163025 3.53883e-318)
(0.00800123 0.0181347 4.56419e-318)
(0.0127436 0.0165178 4.93125e-318)
(0.0167941 0.0142019 4.85745e-318)
(0.0206336 0.0114049 4.48278e-318)
(0.0237481 0.00881653 3.91747e-318)
(0.0262311 0.00641415 3.23723e-318)
(0.0279519 0.00425324 2.49586e-318)
(0.0289276 0.00220354 1.73175e-318)
(0.0291234 0.00014742 9.72875e-319)
(0.0285315 -0.00209604 2.43357e-319)
(0.0271302 -0.00466064 -4.34264e-319)
(0.0248955 -0.00775847 -1.03561e-318)
(0.0218945 -0.0113266 -1.53012e-318)
(0.0180338 -0.0155541 -1.88459e-318)
(0.0139145 -0.019439 -2.05266e-318)
(0.00884706 -0.0228696 -1.99663e-318)
(0.00548285 -0.021673 -1.61325e-318)
(0.000503133 -0.0136285 -7.96414e-319)
(0.000769765 0.00851038 1.49094e-318)
(0.00537537 0.0140488 3.40569e-318)
(0.0101923 0.015734 4.3994e-318)
(0.0152227 0.0140538 4.74139e-318)
(0.0197157 0.0119905 4.63413e-318)
(0.0237167 0.00947711 4.24177e-318)
(0.0269795 0.00727469 3.6764e-318)
(0.0295215 0.00527759 3.01464e-318)
(0.0313034 0.00354892 2.30611e-318)
(0.0323443 0.00194204 1.58539e-318)
(0.0326348 0.000345042 8.77762e-319)
(0.0321704 -0.00142424 2.04355e-319)
(0.0308994 -0.00349357 -4.1418e-319)
(0.0288068 -0.00610412 -9.54095e-319)
(0.0258146 -0.00918113 -1.38349e-318)
(0.0219472 -0.013072 -1.66597e-318)
(0.0173588 -0.0166438 -1.75527e-318)
(0.0119575 -0.0203503 -1.60512e-318)
(0.0071552 -0.0194131 -1.17641e-318)
(0.00183935 -0.0127681 -4.79846e-319)
(0.00159985 0.00651985 1.60276e-318)
(0.00602828 0.011269 3.48804e-318)
(0.0117126 0.0128291 4.35244e-318)
(0.0168581 0.0112734 4.56257e-318)
(0.0216521 0.00955468 4.37933e-318)
(0.02565 0.00742615 3.95315e-318)
(0.0289164 0.00565973 3.39015e-318)
(0.0313906 0.00409532 2.75566e-318)
(0.0331411 0.00279778 2.09147e-318)
(0.03419 0.00161867 1.42555e-318)
(0.0345609 0.000459258 7.78751e-319)
(0.0342523 -0.000848917 1.68634e-319)
(0.0331905 -0.00241873 -3.87031e-319)
(0.0313696 -0.00449309 -8.66413e-319)
(0.0285583 -0.00699091 -1.24005e-318)
(0.0249135 -0.0103564 -1.47599e-318)
(0.0200482 -0.0134021 -1.53044e-318)
(0.0145873 -0.0170101 -1.38177e-318)
(0.00841994 -0.0161254 -9.81002e-319)
(0.00297307 -0.0107031 -3.64314e-319)
(0.00220166 0.00491386 1.60703e-318)
(0.00604334 0.00880467 3.36145e-318)
(0.0123917 0.00999011 4.10039e-318)
(0.0173748 0.00860168 4.22843e-318)
(0.0222414 0.00722236 3.99875e-318)
(0.026018 0.00552669 3.56742e-318)
(0.0291053 0.00420366 3.02952e-318)
(0.0313687 0.00306456 2.44175e-318)
(0.0329829 0.00216607 1.83951e-318)
(0.033972 0.00136946 1.24334e-318)
(0.0343934 0.000596278 6.70141e-319)
(0.0342474 -0.000298482 1.33403e-319)
(0.0334522 -0.00140396 -3.51997e-319)
(0.0320104 -0.00294365 -7.65481e-319)
(0.029562 -0.004839 -1.07878e-318)
(0.0264002 -0.0075736 -1.25793e-318)
(0.0215666 -0.0100292 -1.25853e-318)
(0.0165431 -0.0133709 -1.04522e-318)
(0.00921061 -0.0128055 -6.15823e-319)
(0.00452704 -0.0089447 -7.67037e-320)
(0.00216434 0.00307482 1.67001e-318)
(0.00551097 0.00622863 3.22922e-318)
(0.0120611 0.00697606 3.76694e-318)
(0.0167099 0.00593544 3.75807e-318)
(0.0213611 0.00493429 3.48375e-318)
(0.0247097 0.00373494 3.06355e-318)
(0.0274243 0.00284821 2.57474e-318)
(0.0293378 0.00210942 2.0586e-318)
(0.0307108 0.00155713 1.53963e-318)
(0.0315665 0.00108003 1.0321e-318)
(0.0319973 0.000621631 5.47894e-319)
(0.0319925 7.18653e-05 9.72272e-320)
(0.0314914 -0.000634336 -3.08845e-319)
(0.0304792 -0.00166979 -6.53007e-319)
(0.0285406 -0.00297901 -9.11363e-319)
(0.0260177 -0.00496803 -1.05512e-318)
(0.0215334 -0.00674262 -1.04514e-318)
(0.0171267 -0.00935197 -8.61374e-319)
(0.00921821 -0.00886056 -4.92e-319)
(0.00495004 -0.00576438 -1.53062e-320)
(0.00125329 0.0021293 1.73963e-318)
(0.00418926 0.00432922 2.91265e-318)
(0.0104369 0.00455692 3.20984e-318)
(0.0143979 0.00379144 3.09902e-318)
(0.018412 0.00313031 2.81101e-318)
(0.0210634 0.00238809 2.43509e-318)
(0.0231901 0.00188339 2.02447e-318)
(0.0246283 0.00147538 1.60489e-318)
(0.0256652 0.00119567 1.19052e-318)
(0.0263282 0.000954999 7.90836e-319)
(0.0267139 0.000731335 4.11922e-319)
(0.0268168 0.000438677 6.03649e-320)
(0.0265917 5.26488e-05 -2.55738e-319)
(0.0260343 -0.000560963 -5.23285e-319)
(0.0247228 -0.00134651 -7.23554e-319)
(0.023048 -0.00263726 -8.29922e-319)
(0.0193672 -0.00378213 -8.07555e-319)
(0.0161942 -0.00576446 -6.24726e-319)
(0.00841122 -0.00564756 -2.95545e-319)
(0.00604602 -0.00441213 1.02454e-319)
(0.00115179 0.00155958 1.19712e-318)
(0.00287285 0.00234232 1.9898e-318)
(0.00778303 0.00223175 2.15645e-318)
(0.0105507 0.00193007 2.0472e-318)
(0.0134051 0.0016294 1.84127e-318)
(0.0151275 0.00133115 1.58479e-318)
(0.0164838 0.00113217 1.3116e-318)
(0.0173503 0.000980839 1.03571e-318)
(0.0179869 0.000886369 7.65016e-319)
(0.0183863 0.000804739 5.05187e-319)
(0.0186787 0.000728134 2.59325e-319)
(0.0187893 0.00061107 3.14423e-320)
(0.0187897 0.00044258 -1.73783e-319)
(0.0185525 0.000163106 -3.47936e-319)
(0.0179071 -0.000217154 -4.79258e-319)
(0.0169625 -0.000819653 -5.51955e-319)
(0.0145417 -0.00140129 -5.45083e-319)
(0.0124521 -0.00226194 -4.4622e-319)
(0.00652152 -0.00224452 -2.62754e-319)
(0.00464823 -0.000700623 -9.53053e-321)
(-0.000997342 0.000782655 1.33747e-318)
(0.00125396 0.0017423 1.40138e-318)
(0.00418889 0.00129154 1.25274e-318)
(0.0054509 0.00111716 1.06437e-318)
(0.00676231 0.000999371 8.94239e-319)
(0.00732114 0.000914355 7.35021e-319)
(0.0077844 0.000898248 5.88358e-319)
(0.00803561 0.00087322 4.5245e-319)
(0.00822215 0.00088475 3.26488e-319)
(0.00838148 0.000875348 2.09024e-319)
(0.00849677 0.000889638 9.9574e-320)
(0.00865692 0.000865946 -2.1393e-321)
(0.00873549 0.000863135 -9.5409e-320)
(0.00891578 0.000788573 -1.77735e-319)
(0.00878513 0.000745892 -2.44162e-319)
(0.00888766 0.000536584 -2.86766e-319)
(0.00777217 0.000451788 -2.91963e-319)
(0.00765331 -0.000152093 -2.41899e-319)
(0.00348154 -8.46775e-05 -1.3776e-319)
(0.00457332 -0.000923593 2.20057e-320)
)
;

boundaryField
{
    cavity
    {
        type            myHeatFlux;
        ThetaWall       uniform 0;
        value           nonuniform List<vector> 
60
(
(0.001 0 0)
(0.001 0 0)
(0.001 0 0)
(0.001 0 0)
(0.001 0 0)
(0.001 0 0)
(0.001 0 0)
(0.001 0 0)
(0.001 0 0)
(0.001 0 0)
(0.001 0 0)
(0.001 0 0)
(0.001 0 0)
(0.001 0 0)
(0.001 0 0)
(0.001 0 0)
(0.001 0 0)
(0.001 0 0)
(0.001 0 0)
(0.001 0 0)
(0 -0.001 0)
(0 -0.001 0)
(0 -0.001 0)
(0 -0.001 0)
(0 -0.001 0)
(0 -0.001 0)
(0 -0.001 0)
(0 -0.001 0)
(0 -0.001 0)
(0 -0.001 0)
(0 -0.001 0)
(0 -0.001 0)
(0 -0.001 0)
(0 -0.001 0)
(0 -0.001 0)
(0 -0.001 0)
(0 -0.001 0)
(0 -0.001 0)
(0 -0.001 0)
(0 -0.001 0)
(-0.001 0 0)
(-0.001 0 0)
(-0.001 0 0)
(-0.001 0 0)
(-0.001 0 0)
(-0.001 0 0)
(-0.001 0 0)
(-0.001 0 0)
(-0.001 0 0)
(-0.001 0 0)
(-0.001 0 0)
(-0.001 0 0)
(-0.001 0 0)
(-0.001 0 0)
(-0.001 0 0)
(-0.001 0 0)
(-0.001 0 0)
(-0.001 0 0)
(-0.001 0 0)
(-0.001 0 0)
)
;
    }
    lid
    {
        type            myHeatFlux;
        ThetaWall       uniform 0;
        value           nonuniform List<vector> 
20
(
(0.000135815 0.0009 0)
(0.000135815 0.0009 0)
(0.000135815 0.0009 0)
(0.000135815 0.0009 0)
(0.000135815 0.0009 0)
(0.000135815 0.0009 0)
(0.000135815 0.0009 0)
(0.000135815 0.0009 0)
(0.000135815 0.0009 0)
(0.000135815 0.0009 0)
(0.000135815 0.0009 0)
(0.000135815 0.0009 0)
(0.000135815 0.0009 0)
(0.000135815 0.0009 0)
(0.000135815 0.0009 0)
(0.000135815 0.0009 0)
(0.000135815 0.0009 0)
(0.000135815 0.0009 0)
(0.000135815 0.0009 0)
(0.000135815 0.0009 0)
)
;
    }
    frontAndBack
    {
        type            empty;
    }
}


// ************************************************************************* //
