/*--------------------------------*- C++ -*----------------------------------*\
| =========                 |                                                 |
| \\      /  F ield         | foam-extend: Open Source CFD                    |
|  \\    /   O peration     | Version:  3.0                                   |
|   \\  /    A nd           | Web:         http://www.extend-project.de       |
|    \\/     M anipulation  |                                                 |
\*---------------------------------------------------------------------------*/
FoamFile
{
    version     2.0;
    format      ascii;
    class       volScalarField;
    location    "1.3";
    object      Theta;
}
// * * * * * * * * * * * * * * * * * * * * * * * * * * * * * * * * * * * * * //

dimensions      [0 0 0 0 0 0 0];

internalField   nonuniform List<scalar> 
400
(
0.0860688
0.0790113
0.0760664
0.0745339
0.0749261
0.0764596
0.0789982
0.0822002
0.0858846
0.0898265
0.0938607
0.0977818
0.101419
0.104504
0.106857
0.107993
0.107866
0.105244
0.101033
0.0912987
0.0981634
0.0884801
0.0862549
0.0846234
0.0847801
0.085375
0.0864754
0.0878239
0.0893561
0.0909792
0.0926161
0.0941793
0.0955916
0.0967405
0.0975711
0.0977904
0.0975085
0.0953824
0.0926398
0.0828345
0.0964089
0.0848377
0.0819845
0.0799218
0.0804213
0.0815059
0.0833721
0.0855321
0.0879429
0.0904519
0.0929975
0.0954804
0.0978346
0.0998926
0.101604
0.102454
0.102643
0.100191
0.09688
0.0849965
0.0943871
0.0814268
0.0785195
0.0764121
0.0774137
0.0789945
0.0814857
0.0842403
0.0872519
0.0903453
0.0934855
0.0965811
0.0995917
0.102324
0.104759
0.106209
0.106995
0.104536
0.101158
0.0876654
0.0885265
0.0737044
0.0708936
0.0689202
0.070832
0.073372
0.0770526
0.0810094
0.0852734
0.0896256
0.09405
0.0984498
0.102803
0.106861
0.110641
0.113186
0.115014
0.112647
0.109282
0.0933615
0.0812227
0.064724
0.0624685
0.0609918
0.0641586
0.0678535
0.0728359
0.0780106
0.0834897
0.0890254
0.0946512
0.100284
0.105954
0.111374
0.116649
0.120529
0.123816
0.121922
0.119049
0.100717
0.0719978
0.0533786
0.0523109
0.0516782
0.0565462
0.0616657
0.0681694
0.0746961
0.0814851
0.0882693
0.0951562
0.102092
0.109189
0.116132
0.123178
0.128734
0.134051
0.133036
0.13142
0.109841
0.0610031
0.0407388
0.0415222
0.0422069
0.0491163
0.0558166
0.0638844
0.0717079
0.0796952
0.0875791
0.0955656
0.103652
0.112057
0.120473
0.129363
0.136811
0.144631
0.145071
0.145552
0.120947
0.0485529
0.0269209
0.0305075
0.0329606
0.0422134
0.050573
0.0601669
0.0691654
0.0781787
0.0869602
0.0958278
0.104846
0.114359
0.124101
0.134784
0.144243
0.154987
0.157477
0.16135
0.133582
0.03463
0.0134621
0.0204032
0.0251012
0.0366722
0.0466126
0.0575066
0.067432
0.0771823
0.0865602
0.0959863
0.105606
0.115876
0.126628
0.138792
0.150152
0.163808
0.168976
0.177053
0.148091
0.0195842
0.000888044
0.0118527
0.0191815
0.0329127
0.0442551
0.0561241
0.0666636
0.076806
0.086435
0.0960497
0.105884
0.116475
0.127811
0.140965
0.153952
0.170248
0.17865
0.191969
0.164076
0.00376028
-0.00840278
0.00607576
0.0163583
0.0316108
0.0440386
0.0564023
0.0671819
0.0773266
0.0868412
0.0962543
0.105891
0.116303
0.127705
0.141122
0.155227
0.173181
0.18524
0.203193
0.181857
-0.0132456
-0.0154095
0.0027259
0.0163108
0.0326128
0.0458433
0.058252
0.0689087
0.0786794
0.0877283
0.0965667
0.105606
0.115346
0.126293
0.139228
0.153937
0.172606
0.188803
0.211592
0.201931
-0.0295463
-0.0168689
0.00322471
0.0202398
0.0366532
0.0502789
0.0621998
0.0723609
0.0814036
0.0896781
0.0976242
0.105721
0.114346
0.124323
0.135961
0.150571
0.168333
0.188694
0.213574
0.223511
-0.0471182
-0.0174311
0.0055741
0.0264269
0.0427656
0.056544
0.0676125
0.0769639
0.0849856
0.0922251
0.0990191
0.105886
0.113035
0.121616
0.13135
0.145386
0.161473
0.18654
0.214343
0.249025
-0.0589725
-0.0103516
0.0133739
0.0373764
0.0527
0.06601
0.0757488
0.0839442
0.0907041
0.0967182
0.102204
0.107653
0.113098
0.119894
0.127165
0.139731
0.152558
0.18099
0.206859
0.271587
-0.0692828
-0.00385197
0.0226948
0.0498642
0.0642632
0.0767771
0.0849145
0.0916983
0.0970202
0.101676
0.105745
0.109655
0.11324
0.117998
0.122507
0.13322
0.142684
0.174847
0.201666
0.298646
-0.0607406
0.0153826
0.0419345
0.0691595
0.0813214
0.0918293
0.0979031
0.102918
0.106706
0.109931
0.112624
0.114972
0.116766
0.119228
0.120844
0.12829
0.133109
0.163938
0.183628
0.305146
-0.0435597
0.0363998
0.0628289
0.089465
0.099108
0.107242
0.111043
0.114167
0.116369
0.118179
0.119519
0.120355
0.120372
0.120514
0.119164
0.123147
0.12346
0.15311
0.168556
0.31568
0.0222157
0.0784868
0.100466
0.119364
0.124477
0.128266
0.129502
0.130337
0.131107
0.131463
0.13177
0.131143
0.12992
0.127553
0.123916
0.122246
0.118018
0.135188
0.138872
0.261969
)
;

boundaryField
{
    cavity
    {
        type            implicitExtrapolation;
    }
    lid
    {
        type            implicitExtrapolation;
    }
    frontAndBack
    {
        type            empty;
    }
}


// ************************************************************************* //
