/*--------------------------------*- C++ -*----------------------------------*\
| =========                 |                                                 |
| \\      /  F ield         | foam-extend: Open Source CFD                    |
|  \\    /   O peration     | Version:  3.0                                   |
|   \\  /    A nd           | Web:         http://www.extend-project.de       |
|    \\/     M anipulation  |                                                 |
\*---------------------------------------------------------------------------*/
FoamFile
{
    version     2.0;
    format      ascii;
    class       volScalarField;
    location    "10";
    object      p;
}
// * * * * * * * * * * * * * * * * * * * * * * * * * * * * * * * * * * * * * //

dimensions      [0 0 0 0 0 0 0];

internalField   nonuniform List<scalar> 
2688
(
-0.2099398081
-0.1912411639
-0.1795588004
-0.1668716127
-0.1588122397
-0.1500828674
-0.1441748358
-0.1382308775
-0.1336394114
-0.1297136156
-0.1259495137
-0.1234632742
-0.120245137
-0.1187031279
-0.1158735546
-0.1148193395
-0.1122766175
-0.1112832322
-0.1089171805
-0.1075904721
-0.1052295485
-0.1032004557
-0.1005847211
-0.09746657513
-0.20927743
-0.1906376209
-0.1789932295
-0.1663459311
-0.1583121065
-0.1496101144
-0.1437203843
-0.137795274
-0.1332180631
-0.1293045981
-0.1255519446
-0.1230733833
-0.1198648484
-0.118327536
-0.1155062677
-0.1144552015
-0.11191993
-0.110929527
-0.1085705581
-0.1072479981
-0.1048943365
-0.1028717013
-0.1002642101
-0.09715603617
-0.2079588682
-0.1894364878
-0.1778648852
-0.1652969217
-0.1573138725
-0.1486663022
-0.1428143967
-0.1369262072
-0.1323788164
-0.1284894452
-0.1247616358
-0.1222979763
-0.119111124
-0.117582592
-0.1147807643
-0.1137352071
-0.1112176308
-0.1102323317
-0.1078898172
-0.1065746789
-0.1042369273
-0.1022263414
-0.09963565852
-0.09654680668
-0.2059848465
-0.1876381386
-0.176176286
-0.1637278088
-0.1558202862
-0.1472548717
-0.141458107
-0.1356259146
-0.131121404
-0.127268964
-0.1235761492
-0.1211357706
-0.1179786437
-0.1164644854
-0.1136886543
-0.1126528673
-0.1101586582
-0.1091825476
-0.106861916
-0.1055591642
-0.1032434416
-0.1012519513
-0.09868585316
-0.09562645061
-0.2033632782
-0.185249996
-0.1739338427
-0.1616435703
-0.1538368982
-0.1453800998
-0.1396576885
-0.1338992816
-0.1294530304
-0.1256490548
-0.1220044327
-0.1195943729
-0.116478905
-0.1149830905
-0.112244302
-0.1112206006
-0.1087599009
-0.1077950851
-0.1055055281
-0.1042184059
-0.1019331756
-0.09996638247
-0.09743331736
-0.09441257592
-0.2001015398
-0.1822787059
-0.171143882
-0.1590508514
-0.1513691293
-0.1430479635
-0.1374169786
-0.1317509372
-0.12737569
-0.1236326688
-0.1200461048
-0.1176745691
-0.1146085426
-0.1131365662
-0.1104411108
-0.109433657
-0.1070119272
-0.1060623959
-0.1038092405
-0.1025426043
-0.1002938289
-0.09835851633
-0.09586600397
-0.09289382696
-0.1962103046
-0.1787339722
-0.1678156059
-0.1559575414
-0.148425434
-0.1402657045
-0.1347447647
-0.1291884659
-0.1248992017
-0.1212283918
-0.1177127713
-0.1153866019
-0.1123817081
-0.1109374156
-0.1082961313
-0.1073071586
-0.1049343109
-0.1040021125
-0.1017943263
-0.1005513875
-0.09834739643
-0.09644908669
-0.09400545808
-0.09109081619
-0.1917018305
-0.174627055
-0.1639593647
-0.1523738045
-0.1450145136
-0.1370422123
-0.1316478104
-0.1262191252
-0.1220281106
-0.1184415313
-0.1150062984
-0.1127334071
-0.1097970426
-0.1083857377
-0.1058045733
-0.1048380919
-0.1025193296
-0.101608318
-0.0994510716
-0.09823656012
-0.0960831939
-0.09422849773
-0.0918411035
-0.08899356394
-0.186589928
-0.1699703936
-0.1595871232
-0.1483103086
-0.1411475093
-0.1333874389
-0.1281374242
-0.1228530663
-0.1187747045
-0.1152831826
-0.1119407646
-0.1097277256
-0.1068711974
-0.1054965835
-0.1029860052
-0.1020441865
-0.09978899087
-0.09890113199
-0.09680285306
-0.09561975161
-0.09352469371
-0.09171874117
-0.08939525524
-0.08662338355
-0.1808914435
-0.1647794754
-0.1547130835
-0.1437806357
-0.136836339
-0.129313153
-0.1242231781
-0.1191000967
-0.1151459981
-0.1117609355
-0.1085202247
-0.1063745427
-0.1036047767
-0.1022718744
-0.09983748897
-0.09892413158
-0.09673755895
-0.09587656066
-0.0938424501
-0.0926953828
-0.09066455026
-0.08891377309
-0.08666146926
-0.08397437745
-0.1746231543
-0.1590694358
-0.1493518284
-0.1387980243
-0.1320946262
-0.1248317927
-0.1199187489
-0.1149727658
-0.1111565916
-0.1078882421
-0.1047610556
-0.102688968
-0.1000167191
-0.09872906813
-0.09638073233
-0.09549790608
-0.09338866619
-0.09255631027
-0.09059390019
-0.0894855385
-0.08752577836
-0.08583491507
-0.0836608125
-0.08106657451
-0.1678063211
-0.1528597753
-0.1435212678
-0.1333793873
-0.1269374292
-0.1199579704
-0.1152364494
-0.1104833907
-0.1068159355
-0.1036749434
-0.1006695167
-0.09867802047
-0.09610971918
-0.0948720001
-0.0926150708
-0.09176635657
-0.08973949443
-0.08893930476
-0.08705381315
-0.08598848131
-0.08410552477
-0.08248052316
-0.08039144116
-0.07789855018
-0.1604604372
-0.1461681313
-0.1372383906
-0.1275402989
-0.1213806273
-0.1147063692
-0.1101921125
-0.1056466994
-0.1021407192
-0.09913663319
-0.09626401138
-0.09435892381
-0.09190455556
-0.09072005252
-0.08856347642
-0.08775074186
-0.08581397507
-0.08504759583
-0.08324575604
-0.08222609285
-0.08042632388
-0.07887182896
-0.07687447941
-0.07449048802
-0.1526109892
-0.1390178217
-0.1305246412
-0.1213008666
-0.1154422864
-0.1090943401
-0.1048006792
-0.100477422
-0.09714275389
-0.09428533319
-0.0915530177
-0.08974076309
-0.08740628023
-0.08627933109
-0.08422826977
-0.08345484627
-0.08161310295
-0.08088367687
-0.07917036957
-0.07820006369
-0.07648858452
-0.07500975969
-0.07311018007
-0.07084283466
-0.1442798548
-0.131428695
-0.1233991314
-0.114678716
-0.109140268
-0.1031385319
-0.09907986988
-0.09499219317
-0.0918405253
-0.08913847653
-0.08655656343
-0.08484242232
-0.0826368133
-0.08157034415
-0.07963266675
-0.07890024519
-0.07716033797
-0.07646957573
-0.07485099937
-0.07393285131
-0.07231573093
-0.0709171406
-0.06912166617
-0.06697788977
-0.1354965278
-0.1234276776
-0.1158866465
-0.1076969825
-0.1024954883
-0.096858901
-0.09304713048
-0.08920805435
-0.08624814244
-0.08371023676
-0.08128543576
-0.07967522382
-0.07760395059
-0.07660192444
-0.07478248543
-0.07409400447
-0.07246045065
-0.07181089485
-0.07029129884
-0.069428238
-0.06790985383
-0.06659587141
-0.06490980189
-0.06289653231
-0.1262848786
-0.1150364773
-0.1080080871
-0.1003750227
-0.09552748234
-0.09027375579
-0.08672176446
-0.08314323341
-0.08038554285
-0.07801950625
-0.07576079681
-0.07425914971
-0.07233006487
-0.0713950393
-0.06970066367
-0.06905776743
-0.06753663481
-0.06693015949
-0.06551522005
-0.06471009585
-0.06329596173
-0.06207083188
-0.06049980551
-0.05862319753
-0.1166781661
-0.1062854019
-0.09979136806
-0.09273881392
-0.08825984515
-0.08340551283
-0.08012359815
-0.07681699149
-0.07426909097
-0.07208262347
-0.06999586026
-0.06860793218
-0.06682590779
-0.06596135973
-0.06439636934
-0.06380144085
-0.06239660789
-0.06183510088
-0.06052840789
-0.05978350103
-0.05847741793
-0.05734484746
-0.0558935579
-0.05415968844
-0.1067018098
-0.0971976209
-0.09125880544
-0.08480908882
-0.08071344254
-0.0762737995
-0.07327317587
-0.07024879229
-0.06791978632
-0.06591951177
-0.06401243885
-0.06274216887
-0.06111390186
-0.06032208325
-0.05889235473
-0.05834706054
-0.05706386351
-0.05654926447
-0.05535577783
-0.05467375053
-0.05348040028
-0.05244410051
-0.05111728553
-0.04953144237
-0.09639256199
-0.08780657237
-0.08244121157
-0.07661446019
-0.07291436107
-0.06890333458
-0.06619257008
-0.06346001901
-0.06135619337
-0.05954865746
-0.05782618073
-0.05667796704
-0.05520757389
-0.05449134363
-0.05320046612
-0.05270657731
-0.05154818702
-0.05108183332
-0.05000457111
-0.04938721969
-0.04830992861
-0.0473730183
-0.04617477669
-0.04474211081
-0.08577691998
-0.07813646005
-0.07336191232
-0.06817665192
-0.06488442139
-0.06131469153
-0.05890319063
-0.05647098429
-0.05459997418
-0.05299061432
-0.05145918825
-0.05043627406
-0.04912933487
-0.04849068191
-0.04734361433
-0.04690275832
-0.04587366673
-0.04545737267
-0.04450038158
-0.04394998517
-0.04299245811
-0.04215799497
-0.04109209891
-0.03981696391
-0.07489482408
-0.06822357325
-0.06405436108
-0.05952668392
-0.05665199576
-0.05353471404
-0.05142920256
-0.04930506651
-0.04767178121
-0.04626589477
-0.04492935525
-0.04403527314
-0.04289498336
-0.04233607612
-0.04133556673
-0.0409489619
-0.04005164798
-0.03968634416
-0.03885211854
-0.03837008838
-0.0375351566
-0.03680567418
-0.03587554456
-0.03476209927
-0.06377335373
-0.05809269972
-0.05454246527
-0.05068686346
-0.04823945941
-0.04558452832
-0.04379248953
-0.04198304152
-0.04059357429
-0.03939536701
-0.03825887138
-0.03749617885
-0.03652703303
-0.03604956818
-0.03519961852
-0.03486871682
-0.03410670732
-0.03379391987
-0.03308549771
-0.03267363199
-0.03196400744
-0.03134186924
-0.03055032501
-0.02960193755
-0.05245529897
-0.04778267168
-0.0448620373
-0.04169036521
-0.03967724298
-0.03749290055
-0.0360191255
-0.0345301065
-0.03338789917
-0.03240132576
-0.03146751798
-0.03083880184
-0.03004295394
-0.02964841786
-0.02895089042
-0.0286764633
-0.02805154885
-0.02779189854
-0.02721121217
-0.02687054781
-0.02628845654
-0.02577555343
-0.02512521014
-0.02434498707
-0.04096781909
-0.03731840106
-0.03503712505
-0.03255966058
-0.03098786421
-0.02928111104
-0.02813107833
-0.02696713708
-0.02607669973
-0.02530471049
-0.02457745797
-0.02408457342
-0.02346543436
-0.02315514453
-0.0226130327
-0.0223962187
-0.02191091053
-0.02170553824
-0.02125463094
-0.0209864628
-0.02053369782
-0.02013170717
-0.01962449171
-0.01901478104
-0.02935617506
-0.02674092216
-0.0251055903
-0.02332979946
-0.02220355906
-0.02097961519
-0.02015610976
-0.01932092011
-0.0186841495
-0.01812928372
-0.01760994672
-0.01725450757
-0.01681312372
-0.01658794542
-0.01620219759
-0.01604342117
-0.015698777
-0.01554804863
-0.01522819488
-0.01503317073
-0.01471122184
-0.01442133926
-0.01405895065
-0.01362176106
-0.01764710656
-0.01607481168
-0.01509117958
-0.01402299965
-0.01334657779
-0.01260945691
-0.01211589693
-0.01161209184
-0.01123189161
-0.01089582145
-0.01058697212
-0.01037008153
-0.01010875448
-0.009969521077
-0.009742089565
-0.009642066388
-0.00943959004
-0.00934419556
-0.009156495532
-0.009035382589
-0.008845183017
-0.008668385815
-0.008451879749
-0.008188514117
-0.005887932675
-0.005362933775
-0.005033464192
-0.004675876325
-0.004450677182
-0.004202512354
-0.004039629098
-0.003868760066
-0.003745431816
-0.003629246656
-0.003530920928
-0.003453240037
-0.003371896603
-0.003318926254
-0.00324983269
-0.003208713365
-0.00314868039
-0.003108771798
-0.003053770297
-0.003006841864
-0.00294908881
-0.00288587839
-0.002816015936
-0.002727358619
0.005895514056
0.005370918828
0.005044540726
0.004690011081
0.004462552873
0.004220781001
0.004051659121
0.003889002095
0.003754178213
0.00365011498
0.003536669286
0.003474855273
0.003375073944
0.003341518731
0.003251398184
0.003233387399
0.003150477446
0.003134704328
0.003056838131
0.00302938031
0.002954635319
0.002904022055
0.002827111463
0.00274081869
0.01765430652
0.01608245656
0.01510192727
0.0140368249
0.01335815698
0.01262743283
0.01212765055
0.01163205874
0.01124039158
0.01091643413
0.01059249391
0.01039142944
0.01011167999
0.009991770786
0.009743317941
0.009666269367
0.009440927705
0.009369524663
0.009158982739
0.009057230704
0.008850058464
0.008685802061
0.008462253191
0.008201264504
0.0293639835
0.02674909884
0.02511681792
0.02334404402
0.0222155671
0.02099795182
0.0201682731
0.01934121064
0.01869305442
0.01815018155
0.01761586339
0.01727614018
0.01681650129
0.01661059421
0.01620405282
0.0160682403
0.01570098965
0.01557424393
0.01523179985
0.0150561086
0.01471737288
0.01443997927
0.01407063046
0.0136357636
0.04097449114
0.03732556454
0.03504737444
0.03257298502
0.03099899278
0.02929857861
0.02814242202
0.02698660739
0.02608486792
0.02532483931
0.02458269212
0.02410540624
0.02346806298
0.02317678797
0.02261390192
0.02241967269
0.02191179221
0.02172999852
0.02125657572
0.02100744188
0.02053796924
0.02014832354
0.01963419152
0.01902684241
0.05246317483
0.04779088637
0.04487323158
0.04170451264
0.03968920842
0.03751107015
0.03603126602
0.03455021036
0.03339686871
0.03242202854
0.0314735521
0.0308602085
0.03004648639
0.02967082865
0.02895297375
0.02870106999
0.02805409281
0.02781796156
0.02721524054
0.0268935141
0.02629504088
0.02579434758
0.02513720049
0.02435923169
0.06377936076
0.05809924905
0.05455205516
0.05069950342
0.04824998985
0.04560127762
0.04380329381
0.04200179571
0.04060132629
0.03941478359
0.03826376121
0.03751625707
0.03652933808
0.03607036954
0.03520014093
0.03489119021
0.03410717913
0.03381729973
0.03308697793
0.03269360966
0.03196776888
0.03135764209
0.03055941255
0.02961334276
0.07490260629
0.06823167065
0.06406533398
0.0595405225
0.056663734
0.05355247128
0.05144114803
0.04932473468
0.04768070573
0.04628617071
0.04493545444
0.04405621709
0.0428986321
0.04235795832
0.04133780204
0.04097298088
0.04005439478
0.03971184958
0.03885640862
0.03839269509
0.03754198779
0.03682429681
0.03588760239
0.03477632337
0.08578213504
0.07814227116
0.07337068821
0.0681884288
0.06489420674
0.06133051249
0.05891332091
0.05648879863
0.05460721951
0.05300908674
0.05146367734
0.05045535965
0.04913129925
0.04851041513
0.04734381874
0.04692403641
0.04587378659
0.04547946769
0.04450145741
0.04396879773
0.04299573225
0.04217279225
0.04110050871
0.03982761456
0.09640009296
0.08781439956
0.08245177507
0.0766277761
0.07292567941
0.06892042428
0.0662041295
0.0634789823
0.06136493365
0.05956825093
0.0578322689
0.05669820462
0.05521129708
0.0545124161
0.05320276665
0.05272962615
0.0515509591
0.05110632022
0.0500088922
0.04940903941
0.04831677515
0.0473911289
0.04618665765
0.04475605275
0.1067061171
0.09720257843
0.09126661729
0.08481982524
0.08072232859
0.07628847372
0.07328247987
0.07026542849
0.06792641296
0.06593679341
0.06401645148
0.06276000672
0.06111548597
0.06034049664
0.0588922372
0.05836689644
0.05706364337
0.05656982975
0.05535644306
0.05469117309
0.0534831186
0.05245770114
0.05112484117
0.04954112771
0.1166852973
0.1062928128
0.09980133776
0.0927513935
0.08827054357
0.08342166969
0.08013455937
0.07683495583
0.07427746636
0.07210123775
0.07000180991
0.06862718732
0.0668296409
0.06598134947
0.06439865913
0.06382316005
0.06239921729
0.06185809122
0.06053246308
0.05980403262
0.05848393903
0.05736199409
0.05590489213
0.05417295837
0.1262881752
0.1150404754
0.1080147878
0.1003845389
0.09553530033
0.09028704812
0.08673005928
0.0831584262
0.080391398
0.07803532064
0.07576421257
0.07427544963
0.07233117266
0.07141182683
0.06970014037
0.06907584057
0.06753598835
0.06694887399
0.06551537162
0.06472583913
0.06329798084
0.06208296813
0.06050628618
0.05863166738
0.1355031253
0.1234345377
0.1158958452
0.1077086143
0.1025053596
0.09687384929
0.09305725885
0.08922469994
0.08625592699
0.08372752642
0.08129104671
0.07969315856
0.07760756893
0.07662054124
0.07478470357
0.07411409126
0.07246277228
0.07183197409
0.07029481378
0.06944697602
0.06791565581
0.06661152803
0.0649201226
0.06290864234
0.1442820535
0.1314316388
0.1234045782
0.1146868299
0.1091468324
0.1031501868
0.09908693568
0.09500564297
0.09184540332
0.08915250717
0.08655920164
0.08485685344
0.08263728098
0.08158514714
0.07963156785
0.07891615985
0.07715907685
0.07648603764
0.074850446
0.07394656979
0.07231686368
0.07092752785
0.06912685356
0.06698490256
0.1526169372
0.1390240113
0.1305329033
0.1213113462
0.1154511203
0.109107798
0.1048097221
0.1004924112
0.09714968621
0.09430091693
0.09155802135
0.08975696899
0.08740955864
0.08629621389
0.08423031077
0.08347302499
0.081615093
0.08090256072
0.07917319894
0.07821661846
0.07649333092
0.07502341984
0.07311898268
0.07085325141
0.1604614669
0.1461699391
0.1372424504
0.1275468349
0.1213857462
0.1147161221
0.1101977045
0.1056580838
0.1021443731
0.09914853371
0.09626564224
0.09437113
0.09190417274
0.09073249484
0.08856158691
0.08776407689
0.08581185601
0.08506136046
0.08324424797
0.08223739582
0.08042634261
0.07888015508
0.07687814128
0.07449579447
0.1678115193
0.1528651896
0.1435284455
0.1333885295
0.1269450275
0.1199696691
0.1152441574
0.1104963948
0.1068217523
0.1036884482
0.1006736271
0.0986920695
0.09611235441
0.09488670315
0.09261670955
0.09178228228
0.08974109655
0.08895579749
0.08705597727
0.08600268704
0.08410909978
0.08249189059
0.08039836834
0.07790687873
0.1746229518
0.1590700347
0.1493543848
0.1388028315
0.132098128
0.1248394033
0.1199226372
0.1149817836
0.111158784
0.1078976866
0.1047614562
0.1026986188
0.1000152901
0.09873881927
0.09637787108
0.09550830496
0.09338548539
0.09256698591
0.09059119794
0.08949404207
0.08752441763
0.08584082835
0.08366265557
0.08106987407
0.1808957925
0.1647840135
0.154719046
0.1437882876
0.1368425385
0.1293228682
0.1242293445
0.1191108443
0.1151504917
0.111772067
0.1085232289
0.1063860983
0.1036065138
0.1022839835
0.09983843805
0.09893737708
0.09673859737
0.09589042053
0.09384402327
0.09270727985
0.09066719722
0.08892303386
0.08666674878
0.08398083322
0.1865884205
0.1699697013
0.1595880691
0.1483132712
0.1411492659
0.1333927267
0.1281394392
0.1228594935
0.1187752751
0.1152899402
0.1119398007
0.1097345934
0.1068686234
0.1055034293
0.1029821129
0.1020514457
0.09978470374
0.09890851336
0.09679887999
0.09562523467
0.09352179673
0.09172198849
0.08939504323
0.08662443594
0.191705214
0.1746305966
0.1639639758
0.1523798362
0.1450191838
0.1370497704
0.1316522847
0.1262274233
0.1220311588
0.118450111
0.1150081047
0.1127422923
0.1097977843
0.1083950247
0.105804671
0.1048483274
0.1025195929
0.1016192242
0.09945197237
0.09824608793
0.09608515454
0.09423598196
0.09184530213
0.08899873845
0.1962074053
0.1787318742
0.1678148136
0.1559585598
0.1484253425
0.1402685355
0.1347447867
0.1291921536
0.1248980721
0.121232339
0.1177104105
0.1153905776
0.1123779921
0.1109412589
0.1082912607
0.1073112153
0.1049290328
0.1040061916
0.1017892201
0.1005538652
0.09834304794
0.09644966911
0.09400320524
0.09108961808
0.2001038469
0.1822811108
0.1711469722
0.1590551288
0.1513721332
0.1430532003
0.1374196229
0.1317566286
0.1273772145
0.1236385892
0.1200466899
0.1176807052
0.114608291
0.1131429618
0.1104403625
0.1094407844
0.1070113674
0.1060701504
0.1038092855
0.1025494419
0.100294821
0.09836390398
0.09586888596
0.09289747226
0.2033589469
0.1852463689
0.1739311685
0.1616425599
0.1538348648
0.1453803706
0.1396556234
0.1339001367
0.1294501887
0.1256501645
0.1220007292
0.1195954547
0.1164741253
0.1149839346
0.1122385612
0.1112214799
0.1087537926
0.1077959269
0.1054994763
0.1042179691
0.1019275596
0.09996443738
0.09742921464
0.09440929116
0.2059860714
0.1876393445
0.176177702
0.163730216
0.1558214895
0.147257655
0.1414588237
0.1356289179
0.1311214177
0.1272722401
0.1235756054
0.1211392161
0.1179775189
0.1164680649
0.113687192
0.1126569686
0.1101574061
0.1091871951
0.1068611351
0.1055631894
0.1032432217
0.10125485
0.09868686164
0.09562796634
0.2079531148
0.1894312669
0.1778602229
0.1652937984
0.157309813
0.1486639559
0.1428102027
0.1369242468
0.1323743911
0.1284878708
0.1247568167
0.1222963582
0.1191055272
0.1175806317
0.1147743934
0.1137330829
0.1112109067
0.1102300823
0.1078830159
0.106571493
0.1042302828
0.1022221204
0.09963001597
0.09654173578
0.2092779117
0.1906379119
0.1789928977
0.1663463024
0.1583112952
0.1496102555
0.1437190849
0.137795586
0.1332166727
0.1293053557
0.1255504591
0.1230743147
0.1198630787
0.1183284957
0.1155043036
0.1144564055
0.1119181145
0.1109311246
0.1085691062
0.107249392
0.1048932407
0.1028724261
0.1002637551
0.09715584723
0.2099321396
0.1912339452
0.1795525717
0.1668663641
0.1588064937
0.1500780049
0.1441688615
0.1382264615
0.1336339147
0.1297097807
0.1259440243
0.1234593324
0.1202391189
0.1186987071
0.1158668832
0.1148144546
0.1122694944
0.1112780644
0.1089098837
0.1075848568
0.1052222743
0.1031943384
0.1005779405
0.09746014154
0.2099379696
0.1912391026
0.1795571546
0.1668704865
0.1588102366
0.1500814123
0.1441719783
0.13822938
0.1336366245
0.1297123597
0.1259464073
0.1234616541
0.1202412464
0.1187008422
0.1158688291
0.1148164454
0.112271329
0.1112799837
0.1089116959
0.1075868202
0.1052241061
0.1031962696
0.1005797191
0.09746188459
0.2092711353
0.1906317361
0.1789869352
0.1663404837
0.1583060886
0.1496047383
0.1437145179
0.1377904084
0.1332129247
0.1293005317
0.1255474269
0.1230697564
0.1198606504
0.1183241052
0.1155022987
0.1144520017
0.1119162505
0.1109267001
0.1085671717
0.1072453194
0.1048910585
0.1028688609
0.1002610584
0.09715294913
0.2079579429
0.1894353553
0.1778633758
0.1652961751
0.1573120383
0.1486651988
0.1428118076
0.1369248423
0.1323759913
0.1284881314
0.1247584701
0.1222963602
0.1191072652
0.1175804181
0.1147761827
0.1137325563
0.111212605
0.1102293811
0.1078845937
0.1065712284
0.1042316574
0.1022223092
0.09963078412
0.09654223362
0.205978415
0.1876322127
0.1761704267
0.1637227704
0.1558148907
0.1472501076
0.1414528854
0.1356215704
0.1311167147
0.1272652689
0.1235720107
0.1211325263
0.1179748788
0.1164615322
0.113685221
0.1126502763
0.1101556122
0.1091804
0.1068591832
0.1055571415
0.103240793
0.1012497716
0.09868334652
0.0956240135
0.2033627323
0.1852493532
0.1739328619
0.1616431664
0.1538355421
0.1453794255
0.1396556802
0.1338983807
0.1294506307
0.12564807
0.1220015939
0.1195930934
0.1164754065
0.1149813231
0.1122401199
0.1112183822
0.1087552756
0.1077925463
0.1055007381
0.1042154084
0.1019283976
0.09996281341
0.09742890348
0.09440847862
0.2000953837
0.1822730934
0.1711384626
0.1590461407
0.1513642248
0.1430437197
0.137412401
0.1317472171
0.1273716406
0.1236295805
0.1200426108
0.1176719952
0.1146055093
0.1131343987
0.1104384885
0.1094319193
0.1070097054
0.1060611053
0.1038073816
0.1025415346
0.1002922193
0.09835741953
0.09586464059
0.09289255745
0.1962101256
0.1787337381
0.1678150425
0.1559574005
0.1484244695
0.1402654162
0.1347432914
0.12918806
0.1248973393
0.1212278996
0.1177104611
0.1153858621
0.1123787865
0.1109362609
0.1082925596
0.1073055656
0.1049302771
0.1040001554
0.1017901464
0.1005490207
0.0983433303
0.09644623051
0.09400180058
0.09108748466
0.1916960209
0.1746217684
0.1639543183
0.1523694008
0.1450100545
0.1370384662
0.131643869
0.126216063
0.1220247902
0.118439178
0.1150036013
0.1127316693
0.1097949014
0.1083845294
0.1058029144
0.1048373824
0.1025180712
0.1016080172
0.09945012263
0.09823639468
0.09608239726
0.09422815536
0.09184037203
0.08899291558
0.1865900728
0.1699704493
0.1595868548
0.1483103816
0.1411468714
0.1333874868
0.1281364233
0.1228531227
0.1187733876
0.1152832178
0.1119390502
0.1097275904
0.1068689438
0.1054961214
0.1029831728
0.1020433391
0.0997857462
0.09889993199
0.09679952212
0.09561820892
0.09352158247
0.09171682217
0.08939261367
0.08662105371
0.1808859482
0.1647744527
0.1547083328
0.1437765083
0.1368322801
0.1293098589
0.1242198231
0.1190976568
0.1151433935
0.111759324
0.1085183404
0.1063736652
0.10360354
0.1022716435
0.09983678082
0.09892442749
0.09673717812
0.09587711408
0.09384218096
0.09269583572
0.09066424322
0.08891387871
0.0866611209
0.08397410063
0.1746235536
0.1590696913
0.1493517745
0.1387982777
0.132094271
0.124832136
0.1199181671
0.1149732418
0.1111557968
0.1078887931
0.1047599529
0.1026894481
0.1000151846
0.09872933388
0.09637874847
0.09549789655
0.09338640187
0.09255603481
0.09059165124
0.08948500371
0.08752381866
0.08583408977
0.08365933593
0.08106538252
0.1678011044
0.1528549769
0.1435167741
0.133375518
0.1269337344
0.1199550822
0.1152336163
0.1104815085
0.106813979
0.103674014
0.1006683757
0.09867793208
0.0961092787
0.09487260939
0.09261511133
0.09176740978
0.08973972206
0.0889404616
0.08705407698
0.08598952727
0.0841058869
0.08248140906
0.08039200638
0.07789921375
0.1604610538
0.146168548
0.1372385147
0.1275407109
0.1213805124
0.1147069561
0.110191876
0.1056475177
0.1021403684
0.09913762288
0.09626345811
0.09435995323
0.09190370714
0.09072100323
0.08856234858
0.08775155674
0.08581272452
0.08504824422
0.08324460294
0.08222653285
0.08042546412
0.078872011
0.07687406725
0.07449033749
0.1526060353
0.1390132319
0.1305203782
0.1212972238
0.115438892
0.1090917723
0.104798249
0.1004759655
0.09714128797
0.09428492157
0.0915524218
0.08974124843
0.08740636369
0.08628047937
0.08422873046
0.08345634418
0.08161371523
0.0808853096
0.07917119712
0.07820182772
0.07648983006
0.07501166418
0.07311189363
0.07084467709
0.1442806764
0.1314292589
0.1233994069
0.1146792525
0.1091403279
0.1031392792
0.09907986555
0.09499322992
0.09184047894
0.08913976228
0.08655641586
0.08484385753
0.0826365178
0.0815718397
0.07963226514
0.0789017302
0.07715994835
0.07647096394
0.07485075479
0.07393405723
0.07231576242
0.0709181138
0.0691221103
0.06697857849
0.1354918253
0.1234232833
0.1158825804
0.107693515
0.1024923049
0.09685653938
0.09304494984
0.08920685197
0.08624695963
0.08371012149
0.08128512064
0.07967600484
0.07760424859
0.07660331791
0.07478311854
0.0740957677
0.07246137144
0.07181298407
0.07029270616
0.06943070775
0.06791189144
0.06659862502
0.06491238459
0.06289925562
0.1262858965
0.1150371775
0.1080084843
0.1003756422
0.0955276442
0.09027457599
0.08672187472
0.08314436304
0.08038565334
0.07802093985
0.07576089355
0.07426082926
0.07233014948
0.07139689409
0.06970078813
0.0690596993
0.06753687259
0.06693204423
0.06551564628
0.06471184042
0.06329667569
0.06207239952
0.0605009249
0.05862454574
0.1166736956
0.1062811833
0.09978745961
0.09273546709
0.08825678588
0.08340325064
0.08012152671
0.07681588667
0.07426800273
0.0720826047
0.06999560102
0.06860879035
0.06682621878
0.06596284011
0.06439708301
0.06380341843
0.06239781195
0.06183759905
0.06053028012
0.05978649317
0.05847996714
0.05734811541
0.05589661882
0.05416289338
0.1067030076
0.09719844195
0.09125929484
0.08480975496
0.08071364648
0.07627462629
0.07327330953
0.07024992141
0.06791993798
0.06592097746
0.06401264301
0.06274394945
0.06111419852
0.06032411268
0.05889279642
0.05834922165
0.05706449729
0.05655143078
0.05535665842
0.05467584737
0.0534816143
0.05244610082
0.05111892074
0.0495332905
0.09638829485
0.0878025045
0.08243742373
0.07661118927
0.07291135994
0.06890109461
0.06619050758
0.06345890109
0.06135507186
0.0595486051
0.05782585387
0.05667879867
0.05520784064
0.05449287963
0.05320126535
0.05270875461
0.05154962014
0.0510846221
0.05000670384
0.0493904758
0.04831267055
0.04737646389
0.04617796531
0.04474544511
0.08577827167
0.07813738177
0.07336246666
0.06817733889
0.06488462687
0.06131548593
0.05890329016
0.05647205741
0.05460009115
0.05299203407
0.05145939679
0.05043804156
0.04912969925
0.04849273139
0.04734419036
0.04690497569
0.04587450137
0.04545965507
0.04450153214
0.04395227993
0.04299400005
0.04216027246
0.04109408088
0.03981914133
0.07489072513
0.0682196283
0.06405066251
0.05952345812
0.05664901196
0.05353245235
0.05142709426
0.04930387728
0.04767056946
0.0462657569
0.04492894101
0.04403607276
0.04289525007
0.04233770158
0.04133649471
0.04095132745
0.04005325525
0.03968930687
0.03885434684
0.03837341164
0.0375378758
0.03680907696
0.03587864155
0.03476533944
0.06377482628
0.05809369854
0.05454306068
0.05068755505
0.04823964288
0.04558527386
0.04379252609
0.0419840342
0.04059361512
0.039396696
0.0382590153
0.03749785539
0.03652735703
0.0360515315
0.03520018982
0.03487087318
0.03410759112
0.03379619515
0.03308675984
0.03267598445
0.03196570339
0.03134425455
0.03055245947
0.02960424818
0.05245132968
0.04777882106
0.0448584025
0.04168716582
0.0396742569
0.0374906014
0.03601695549
0.03452883254
0.03338659741
0.03240110768
0.03146705987
0.03083960985
0.03004329928
0.02965017726
0.02895199889
0.02867901648
0.02805332253
0.0277949902
0.02721349873
0.02687388824
0.02629112975
0.02577889022
0.02512821434
0.02434812837
0.04096937499
0.03731945154
0.03503774081
0.03256034754
0.03098801488
0.02928180734
0.02813104475
0.02696804861
0.02607665146
0.02530593501
0.02457750507
0.02408612559
0.02346565916
0.02315697514
0.02261351701
0.02239825837
0.02191174179
0.02170773179
0.02125588057
0.02098876544
0.02053539501
0.02013405336
0.01962660322
0.01901705232
0.0293522953
0.02673713704
0.02510199793
0.02332661612
0.02220056578
0.020977283
0.02015388871
0.01931957806
0.01868278789
0.0181290141
0.0176094953
0.01725535472
0.0168135939
0.01658984832
0.01620350305
0.01604614965
0.01570072163
0.01555126434
0.01523056773
0.01503655616
0.01471391388
0.01442467382
0.01406194596
0.01362488649
0.01764870626
0.0160758878
0.01509179782
0.01402367754
0.01334669406
0.01261011463
0.0121158018
0.01161293985
0.01123176533
0.01089695781
0.0105869297
0.01037152407
0.01010888079
0.009971236886
0.009742477174
0.009644005716
0.009440342844
0.009346310012
0.009157688477
0.009037616521
0.008846823557
0.008670653439
0.008453910623
0.008190695662
0.005884101426
0.005359185033
0.00502989511
0.004672703376
0.004447680137
0.004200163612
0.004037381512
0.003867381586
0.003744044985
0.003628950769
0.003530493056
0.003454114553
0.003372462038
0.003320917417
0.003251266951
0.003211549618
0.003150730603
0.003112067251
0.003056198944
0.003010262476
0.00295180124
0.002889222225
0.002819016054
0.00273048581
-0.00589391038
-0.005369842734
-0.005043935386
-0.004689343601
-0.004462466554
-0.004220144375
-0.004051797046
-0.003888187304
-0.003754353833
-0.003649026527
-0.003536761018
-0.003473468651
-0.003374991971
-0.003339847634
-0.003251045383
-0.003231467365
-0.003149742343
-0.003132585065
-0.003055641943
-0.003027130303
-0.002952982528
-0.002901743356
-0.002825074638
-0.002738634085
-0.01765813086
-0.01608619847
-0.0151054915
-0.01403999139
-0.01336115099
-0.01262977645
-0.01212989566
-0.01163343678
-0.01124177512
-0.01091674026
-0.01059291676
-0.01039057551
-0.01011111271
-0.009989799969
-0.009741898494
-0.00966344949
-0.009438916631
-0.009366250985
-0.009156609284
-0.009053842537
-0.008847400036
-0.008682493688
-0.008459293856
-0.008198171766
-0.02936241452
-0.02674804736
-0.02511623898
-0.02334338689
-0.02221550342
-0.02099731637
-0.02016843107
-0.01934039362
-0.01869324413
-0.01814909052
-0.01761595241
-0.01727474175
-0.01681638955
-0.01660888239
-0.01620364418
-0.01606624014
-0.01570017546
-0.01557201185
-0.01523049891
-0.01505372643
-0.01471559267
-0.01443756059
-0.01406845523
-0.01363343992
-0.04097835059
-0.03732932959