/*--------------------------------*- C++ -*----------------------------------*\
| =========                 |                                                 |
| \\      /  F ield         | foam-extend: Open Source CFD                    |
|  \\    /   O peration     | Version:  3.0                                   |
|   \\  /    A nd           | Web:         http://www.extend-project.de       |
|    \\/     M anipulation  |                                                 |
\*---------------------------------------------------------------------------*/
FoamFile
{
    version     2.0;
    format      ascii;
    class       volVectorField;
    location    "10";
    object      u;
}
// * * * * * * * * * * * * * * * * * * * * * * * * * * * * * * * * * * * * * //

dimensions      [0 0 0 0 0 0 0];

internalField   nonuniform List<vector> 
2688
(
(0.1649588121 -0.05456180133 1.553721204e-17)
(0.2761605288 -0.04153256445 -2.24133482e-17)
(0.4615435613 -0.03681496659 4.494136382e-17)
(0.5249860701 -0.02913187526 1.77123772e-17)
(0.6439058208 -0.02583979964 5.460410772e-18)
(0.6795433497 -0.02117127436 7.626182591e-18)
(0.7623121296 -0.01883405766 -8.733138762e-18)
(0.780948364 -0.01576876752 8.802868107e-18)
(0.8422097401 -0.01408150296 -2.867492384e-17)
(0.8500017009 -0.01197748339 9.754896659e-18)
(0.8977434623 -0.01068722521 3.120697753e-18)
(0.8980819681 -0.009221861078 9.817103062e-18)
(0.9371035579 -0.008153825038 1.074971685e-17)
(0.931856088 -0.007139256461 -3.697808909e-17)
(0.965220771 -0.006181351955 2.96624455e-17)
(0.9554078543 -0.005502585226 -1.525476153e-17)
(0.9851626773 -0.004580373994 2.848865752e-17)
(0.9713135383 -0.004162728854 -1.097598901e-17)
(0.9988914778 -0.003216570568 1.921016306e-19)
(0.9812331382 -0.003010975482 1.806068412e-17)
(1.007689076 -0.002006963462 -5.60095008e-18)
(0.9862629062 -0.0019377448 -7.285246538e-18)
(1.012210746 -0.001000941117 -2.369297502e-18)
(0.987459092 -0.0009838646702 -5.968834789e-18)
(0.1771755725 -0.1629885008 -6.257213783e-17)
(0.2854472402 -0.1239825106 1.381252025e-17)
(0.4698052354 -0.110007278 -1.531170923e-16)
(0.5314864032 -0.08698399108 6.929122289e-18)
(0.6496941659 -0.07723837173 -5.535860582e-17)
(0.684261745 -0.06321653983 -1.220636241e-19)
(0.7665221994 -0.05631079685 6.157331822e-22)
(0.784463712 -0.04708960935 -3.976724792e-17)
(0.8453574339 -0.04212339053 4.437770875e-17)
(0.8526718641 -0.03577449994 -1.593991645e-17)
(0.9001321073 -0.03197561951 -3.531512166e-17)
(0.9001373626 -0.02754323493 -3.369133753e-17)
(0.9389261312 -0.02439521671 5.452161963e-18)
(0.9334474386 -0.02132199395 9.554384987e-18)
(0.9666029227 -0.0184913867 -2.06978743e-17)
(0.9566341839 -0.0164293831 2.526030159e-17)
(0.9861871936 -0.01369423809 -4.89523744e-17)
(0.972241819 -0.01242328974 -3.399933465e-18)
(0.9996137655 -0.009618731088 5.130745256e-17)
(0.9819068464 -0.008996607289 -7.98704984e-17)
(1.008141408 -0.006010961846 4.18642115e-17)
(0.9866938128 -0.005788355413 5.254262473e-18)
(1.012436501 -0.002997627805 1.214639441e-17)
(0.9876786801 -0.002944814211 1.79804547e-17)
(0.2014478973 -0.2693623659 1.667878069e-16)
(0.3039296804 -0.204971848 5.070976412e-17)
(0.4861821172 -0.1817821108 1.460177524e-16)
(0.5444511333 -0.1437705527 1.284910862e-17)
(0.6612117163 -0.1276445826 3.638641695e-17)
(0.69368678 -0.1044603046 6.067282048e-17)
(0.7749324751 -0.09307781073 -5.393230403e-17)
(0.7914890897 -0.07779540981 1.113473061e-16)
(0.8516476993 -0.06961894239 -7.051167973e-17)
(0.8580086307 -0.05909598458 9.803176533e-17)
(0.9049051718 -0.05284594246 4.964681738e-17)
(0.9042453049 -0.04550115642 4.289225128e-17)
(0.9425660235 -0.04032116403 4.004462194e-18)
(0.9366259835 -0.0352286475 -4.463053258e-17)
(0.9693602199 -0.03056764218 4.621714791e-17)
(0.9590824422 -0.02714959482 -9.929733728e-17)
(0.9882290322 -0.0226397784 1.528228292e-16)
(0.9740941768 -0.02052984854 -9.005994226e-17)
(1.001048815 -0.01589975779 -2.545003835e-17)
(0.9832479718 -0.01486467391 6.892243821e-17)
(1.00903605 -0.00993541682 -1.083079639e-17)
(0.9875555885 -0.009565789931 -5.336869016e-17)
(1.012883293 -0.004956898305 -2.368387717e-17)
(0.9881174329 -0.004867413609 4.00342764e-17)
(0.2375159701 -0.3723443511 -1.811581797e-16)
(0.331312884 -0.2832883546 -1.427166054e-16)
(0.5105158369 -0.2513056267 -2.479779212e-16)
(0.5636722445 -0.1987339957 4.837232937e-17)
(0.6782886262 -0.1764708681 -1.482853448e-16)
(0.7076552627 -0.1444030765 3.271872496e-17)
(0.7873790057 -0.1286798139 -3.753934214e-17)
(0.8018885151 -0.107543444 -5.126459101e-17)
(0.860958291 -0.0962536912 -3.720309512e-17)
(0.8659101563 -0.08169672398 -7.181244242e-17)
(0.9119754057 -0.07306461148 -9.433783338e-17)
(0.9103308088 -0.06290081869 -6.013531747e-17)
(0.9479621156 -0.05574532079 6.640964679e-17)
(0.9413380273 -0.0486975249 -1.114795459e-17)
(0.9734514269 -0.04225871507 4.214088704e-17)
(0.9627133264 -0.03752829375 3.592767898e-17)
(0.9912591336 -0.0312978171 -9.893125605e-17)
(0.9768392667 -0.02837779797 5.574361979e-17)
(1.003177522 -0.02198063203 -1.14215722e-18)
(0.9852357603 -0.02054778122 -8.08010451e-17)
(1.010367604 -0.0137364894 3.472252749e-17)
(0.988834476 -0.01322430189 7.859773925e-17)
(1.013548741 -0.006853494713 -6.242802436e-17)
(0.9887672462 -0.00673034379 8.159299816e-17)
(0.28483821 -0.4706508396 2.44536454e-16)
(0.3673572632 -0.3581225459 1.161310381e-16)
(0.542474727 -0.3176401191 3.2812515e-16)
(0.5889422471 -0.2512048955 -5.970251568e-17)
(0.7007388779 -0.223053402 1.104133496e-16)
(0.7260123922 -0.1825156401 4.46480889e-17)
(0.8037531931 -0.1626556266 -2.91202798e-17)
(0.8155630915 -0.135920861 8.747882439e-17)
(0.8732051925 -0.1216649226 8.725933306e-17)
(0.8762976222 -0.1032515216 9.660336101e-17)
(0.9212693429 -0.09235374515 -6.328745512e-19)
(0.9183271704 -0.07949808971 1.003599605e-16)
(0.9550514416 -0.07046396734 -9.618586228e-17)
(0.9475280147 -0.0615494225 6.729151871e-17)
(0.9788249401 -0.05341855188 -1.293834671e-16)
(0.9674835801 -0.04743473408 -8.302388021e-17)
(0.9952390944 -0.03956454853 8.950507702e-17)
(0.9804469857 -0.03586946365 -5.276500158e-17)
(1.005972978 -0.02778577103 3.974742841e-17)
(0.9878478913 -0.02597118641 3.986706503e-17)
(1.012114307 -0.01736297239 -5.505459012e-17)
(0.9905150817 -0.0167153657 3.357234217e-17)
(1.01442049 -0.008663619739 -1.506348991e-16)
(0.9896225627 -0.008507120015 1.690430716e-16)
(0.3429114378 -0.5630298197 -2.618538309e-16)
(0.4114957973 -0.4283908232 -1.903899814e-17)
(0.5816498771 -0.3800042861 -2.949896374e-16)
(0.619915215 -0.3005141615 9.267587601e-17)
(0.728247472 -0.2668554039 -1.049952697e-16)
(0.7485206077 -0.2183460901 -8.694808239e-17)
(0.8238133645 -0.1945969968 5.927977065e-17)
(0.8323240395 -0.1626049429 -1.636547493e-16)
(0.8882117424 -0.1455578605 -2.285875316e-16)
(0.8890317159 -0.1235229498 7.331861074e-17)
(0.9326630491 -0.1104896916 -3.332531336e-17)
(0.9281332174 -0.09510459865 -2.385592655e-17)
(0.9637459624 -0.08429934884 -1.571300213e-17)
(0.9551205897 -0.07363080302 9.700661576e-17)
(0.9854168395 -0.06390592448 -2.784891704e-17)
(0.9733348503 -0.05674517604 1.941789036e-16)
(1.000121735 -0.04733192747 1.267173844e-17)
(0.9848711175 -0.04291030916 2.636314346e-17)
(1.009402514 -0.033240729 -3.102553109e-17)
(0.9910507384 -0.03106947762 4.809795367e-18)
(1.014258589 -0.02077170065 4.884844718e-17)
(0.9925763537 -0.01999722663 3.990869026e-17)
(1.015491481 -0.01036493461 1.007237579e-16)
(0.9906707798 -0.01017857829 -1.14478236e-16)
(0.4109256878 -0.6483369878 -2.474020579e-17)
(0.4632763065 -0.4933169173 -9.13967291e-17)
(0.6275745979 -0.4375703398 3.840161269e-16)
(0.656229501 -0.3460447449 -1.672776549e-16)
(0.7605010297 -0.3072795695 -1.393366157e-17)
(0.7748998403 -0.2514194041 1.83055294e-16)
(0.8473342615 -0.2240792119 6.813257876e-19)
(0.8519686584 -0.1872311388 -4.852103928e-17)
(0.9058041343 -0.1676099326 3.908076153e-16)
(0.9039539039 -0.1422292195 -2.383389855e-16)
(0.9460153179 -0.1272292624 -2.00177165e-17)
(0.939621396 -0.1095079041 1.185115034e-16)
(0.9739320945 -0.09707183646 -5.280247519e-17)
(0.9640142634 -0.08478295543 2.274486827e-17)
(0.9931382123 -0.07358942572 -1.254338201e-16)
(0.9801886981 -0.06534091026 -4.733017045e-17)
(1.005840341 -0.0545047881 -1.320874806e-16)
(0.9900537688 -0.0494110576 1.800355022e-17)
(1.013418442 -0.03827805166 -2.034993494e-17)
(0.9948030305 -0.03577621903 -7.302009195e-18)
(1.016768054 -0.02391888097 -1.107687977e-16)
(0.9949912996 -0.02302652264 -6.366718697e-17)
(1.0167439 -0.01193522992 -7.6110952e-18)
(0.9918998746 -0.01172028224 -1.472779312e-16)
(0.4880905359 -0.7254835195 3.747347194e-16)
(0.5219606014 -0.5520082259 -7.639082857e-17)
(0.6796408881 -0.489650025 -7.445006587e-17)
(0.6973993265 -0.3872240785 -8.218233057e-17)
(0.7970647038 -0.3438592548 1.098603213e-16)
(0.8048148514 -0.2813408337 -2.166277025e-16)
(0.8739995899 -0.2507559066 5.519245972e-17)
(0.8742468339 -0.2095142661 5.683020554e-18)
(0.9257511987 -0.1875637909 -1.183799199e-16)
(0.9208787573 -0.1591568253 1.193617302e-16)
(0.9611583227 -0.1423748262 9.388518874e-17)
(0.9526535472 -0.1225403543 -1.118478274e-16)
(0.985486775 -0.1086260637 -2.765857656e-17)
(0.9741045587 -0.09487203113 -1.005316578e-17)
(1.001898566 -0.08234770183 1.448502774e-16)
(0.9879653851 -0.07311620607 -7.00735286e-17)
(1.012329524 -0.06099144516 1.779012161e-16)
(0.995934356 -0.05529126272 -7.84136899e-17)
(1.017976406 -0.04283359735 4.547639983e-17)
(0.9990606406 -0.04003435487 -5.986406938e-17)
(1.019617253 -0.02676548649 2.49228603e-16)
(0.9977313258 -0.02576750181 -1.171620458e-16)
(1.01816657 -0.01335585356 4.878800352e-17)
(0.99329381 -0.01311641855 -3.314313891e-17)
(0.5733856268 -0.7935128413 -6.003183341e-16)
(0.5868802682 -0.603777385 1.18464372e-16)
(0.7372215161 -0.5355589718 -2.104108217e-16)
(0.7429353206 -0.423532496 2.272647195e-16)
(0.8375038929 -0.37609744 2.648797958e-17)
(0.8378949448 -0.3077160507 5.497536545e-18)
(0.9034904252 -0.2742669899 -7.635324921e-17)
(0.8988799843 -0.2291532862 5.177063024e-17)
(0.9478095162 -0.2051499116 -7.297833898e-17)
(0.9395903533 -0.1740748672 -2.659374557e-17)
(0.9779012845 -0.1557242204 -1.741319509e-16)
(0.9670595427 -0.1340264361 2.228190492e-16)
(0.9982602322 -0.1188113997 -1.040004138e-16)
(0.9852572981 -0.1037650282 1.059029026e-16)
(1.011581448 -0.09006931351 -1.004292412e-16)
(0.996560192 -0.07997032481 1.043040589e-16)
(1.019500825 -0.06671072556 -1.559210887e-16)
(1.002433359 -0.06047492388 1.630383976e-16)
(1.023012367 -0.04685045298 1.127774475e-17)
(1.003766034 -0.04378819471 2.498133876e-18)
(1.022764129 -0.02927568602 -9.6456862e-17)
(1.000759757 -0.02818364759 -1.517255217e-17)
(1.019737103 -0.01460835082 1.455175974e-16)
(0.9948353266 -0.01434635511 -2.831907308e-16)
(0.6657776269 -0.8515590836 5.799717709e-16)
(0.6571639994 -0.6479417357 -6.291804109e-16)
(0.7995723062 -0.5747437152 7.540911025e-16)
(0.7922386022 -0.4545168649 -4.640984565e-16)
(0.8812906256 -0.4036205021 1.846682437e-16)
(0.8737174295 -0.3302290982 -7.972728489e-17)
(0.9354234397 -0.2943401244 9.576754798e-17)
(0.9255574463 -0.2459190826 5.899332504e-17)
(0.9716963651 -0.2201643633 1.921296296e-16)
(0.9598567655 -0.186811104 -6.700086238e-18)
(0.9960342596 -0.1671205653 1.404535391e-16)
(0.982664222 -0.1438321302 -7.263468412e-17)
(1.012095872 -0.1275054104 -5.026057029e-17)
(0.9973393248 -0.1113562243 -1.08715026e-16)
(1.022070998 -0.09665931733 1.254967184e-17)
(1.005872124 -0.08582051165 -2.267177054e-16)
(1.027270834 -0.07159100717 1.683664105e-16)
(1.009475143 -0.06489900216 -2.837646865e-16)
(1.02846978 -0.05027754014 6.538334573e-17)
(1.008864437 -0.04699205707 -8.230469195e-17)
(1.026175017 -0.03141711027 1.81596686e-16)
(1.004040637 -0.03024592853 -1.081478304e-16)
(1.021439696 -0.0156765623 8.784513899e-17)
(0.9965046403 -0.01539670537 1.099883018e-16)
(0.7640741256 -0.8988995927 -1.67606815e-16)
(0.7319693733 -0.6839640116 3.590817047e-16)
(0.8659224663 -0.6066917907 -1.821300277e-16)
(0.8447113136 -0.479782848 -3.114255219e-17)
(0.9278883533 -0.4260549977 9.112727037e-17)
(0.9118382977 -0.3485830308 -1.603225867e-16)
(0.9694059783 -0.3107012079 -7.63311328e-17)
(0.9539440058 -0.2595853794 -2.39778062e-16)
(0.9971147492 -0.232402328 -1.773883513e-16)
(0.9814194763 -0.19719215 -1.924697931e-16)
(1.015328027 -0.1764101677 -9.953203141e-17)
(0.9992653064 -0.1518248833 1.294115752e-16)
(1.026815541 -0.1345931113 -6.937161653e-17)
(1.01019141 -0.1175445265 2.205421547e-16)
(1.033229237 -0.1020325218 4.278176618e-17)
(1.015776567 -0.09059002709 2.885531888e-16)
(1.035534907 -0.07557069578 -1.487367864e-16)
(1.016964709 -0.06850601954 3.544332977e-16)
(1.034273502 -0.05307256555 -9.569204965e-17)
(1.014287484 -0.04960440392 5.678619866e-17)
(1.029802016 -0.03316403041 -5.069372215e-17)
(1.007531097 -0.03192756832 -2.046745446e-16)
(1.023249901 -0.01654817697 1.059348875e-16)
(0.9982813696 -0.01625299651 -1.595722601e-16)
(0.8670639925 -0.9349344197 1.101997238e-16)
(0.8103242919 -0.7113828825 -2.45447126e-16)
(0.9354303706 -0.6310176903 1.812996438e-16)
(0.8996751512 -0.4990188129 -6.159555899e-17)
(0.9767018692 -0.4431421469 2.708044854e-17)
(0.9517721991 -0.3625596622 2.149058363e-16)
(1.005004928 -0.3231641768 -1.776140166e-17)
(0.9836828 -0.2699939656 4.004388949e-16)
(1.023743379 -0.2417246751 1.722470615e-16)
(1.004011149 -0.2050991412 2.102545321e-16)
(1.035541862 -0.183486038 -4.427137191e-17)
(1.016660146 -0.1579125631 1.053093865e-18)
(1.042238568 -0.1399910066 1.760403736e-17)
(1.023659348 -0.122257405 -1.295318399e-16)
(1.04492194 -0.106123876 -6.522426671e-17)
(1.026156487 -0.09422199981 -3.579560966e-16)
(1.044195657 -0.07860017749 3.159403818e-17)
(1.02481392 -0.07125243209 -1.481172165e-16)
(1.040356119 -0.05519951713 -6.187460854e-17)
(1.019970482 -0.05159333003 -1.338886702e-16)
(1.033603363 -0.03449289134 1.823901432e-16)
(1.011188154 -0.03320788492 -5.669079342e-17)
(1.025147069 -0.01721068634 1.412540558e-16)
(1.000142268 -0.0169051681 6.591580553e-18)
(0.9734313421 -0.9592125264 6.273007284e-17)
(0.8912660697 -0.7298552724 -7.246445249e-17)
(1.007224721 -0.6474016451 1.487881168e-16)
(0.9564532717 -0.5119756239 -2.449271075e-16)
(1.027122522 -0.454646992 3.481441687e-17)
(0.9930216838 -0.3719714893 -3.373707494e-17)
(1.04177562 -0.3315545504 -9.620338217e-17)
(1.014399139 -0.2770017104 -3.024699205e-16)
(1.051247411 -0.2480006019 -6.027110986e-17)
(1.02734358 -0.2104222621 -1.002982587e-16)
(1.056418858 -0.188250002 1.706382745e-19)
(1.034623712 -0.1620111323 9.219917529e-17)
(1.058166179 -0.1436258747 -2.770839171e-16)
(1.037566257 -0.1254308856 3.531915549e-16)
(1.056995961 -0.1088796238 -1.817942502e-16)
(1.03687398 -0.09666809607 3.637772107e-16)
(1.053138127 -0.08064119768 -5.346111243e-17)
(1.032918482 -0.07310230528 1.470604968e-16)
(1.046636441 -0.05663273906 1.289737145e-16)
(1.025839018 -0.05293308759 -9.155372137e-18)
(1.03752832 -0.03538851167 -1.142790496e-17)
(1.014965277 -0.03407032552 -1.427562246e-17)
(1.027105808 -0.01765719735 4.569307867e-18)
(1.002064775 -0.01734442905 -1.350914604e-16)
(1.081856686 -0.9714284741 -3.717539356e-17)
(0.9737607703 -0.7391518444 5.729500844e-17)
(1.080403364 -0.6556496071 -1.687208655e-16)
(1.014320828 -0.5184985523 1.603544751e-16)
(1.078514443 -0.460442154 -1.833780078e-17)
(1.035064618 -0.3767112323 -4.746454843e-17)
(1.079255129 -0.3357826122 8.382821564e-17)
(1.045708166 -0.2805315614 1.293920519e-16)
(1.079282579 -0.2511634441 2.447760586e-17)
(1.051127899 -0.2131038414 -2.080062676e-17)
(1.077700182 -0.1906505452 8.375001512e-17)
(1.052936708 -0.1640756763 -1.095399582e-16)
(1.07440344 -0.1454568581 1.676585833e-16)
(1.051744903 -0.1270291408 -1.838895721e-16)
(1.069305591 -0.1102670864 1.437323014e-16)
(1.047801404 -0.09789980536 -1.947931337e-16)
(1.06225538 -0.08166813036 -5.937350008e-18)
(1.04118154 -0.07403367714 -5.023976826e-18)
(1.053039406 -0.05735332197 -1.66821786e-16)
(1.031821814 -0.05360777644 9.49214592e-17)
(1.0415299 -0.0358385523 -1.332128425e-17)
(1.018815537 -0.03450491239 1.217370028e-17)
(1.029102911 -0.01788126921 3.477024859e-17)
(1.004024279 -0.01756625582 -1.994044823e-18)
(1.190960001 -0.9714270295 1.424679326e-17)
(1.056781464 -0.7391496745 -2.201700106e-17)
(1.154042728 -0.6556472385 -9.169015276e-17)
(1.072557648 -0.518496605 1.521653132e-16)
(1.130230469 -0.460439767 -4.145231764e-17)
(1.077374208 -0.3767086623 1.413426434e-16)
(1.11697061 -0.3357811739 -1.010670058e-16)
(1.077214002 -0.280528946 1.087640072e-16)
(1.10749336 -0.2511623868 3.373381556e-17)
(1.075060084 -0.2131017947 -6.610968492e-18)
(1.09911371 -0.1906498791 -1.455742644e-16)
(1.071362085 -0.1640743628 5.181370931e-17)
(1.090740505 -0.145456601 1.103970015e-17)
(1.066009493 -0.1270285392 -1.878739291e-17)
(1.08169018 -0.1102671373 -1.227922813e-16)
(1.058794722 -0.09789968814 1.054586442e-16)
(1.071427922 -0.08166806898 -3.896474996e-17)
(1.049494632 -0.07403362679 -1.363607558e-17)
(1.059481142 -0.05735291102 4.009273442e-17)
(1.037841154 -0.0536078753 -9.532375762e-17)
(1.045555512 -0.03583800917 -9.001314332e-18)
(1.022689485 -0.03450502919 1.695714299e-17)
(1.031111587 -0.01788032919 -1.257153074e-16)
(1.005995955 -0.01756648993 1.539473386e-16)
(1.29938507 -0.9592109613 -8.037503994e-17)
(1.13927818 -0.7298567977 1.538368159e-16)
(1.227222205 -0.647404062 -9.267313071e-17)
(1.130426764 -0.5119791734 -1.212681889e-16)
(1.181623404 -0.4546528407 3.029952232e-18)
(1.119417986 -0.3719738967 -1.674632534e-16)
(1.154451144 -0.3315624991 6.56046094e-17)
(1.108523444 -0.2770031772 -2.368064054e-16)
(1.135529301 -0.2480071274 -1.389568009e-16)
(1.098844616 -0.2104235689 -8.613052843e-17)
(1.120395522 -0.1882546111 1.995196839e-16)
(1.089675134 -0.1620122435 -6.393018236e-17)
(1.106977932 -0.143628713 4.755283628e-17)
(1.080188024 -0.1254319824 -8.714565994e-18)
(1.093999673 -0.1088810166 8.854615077e-17)
(1.069721969 -0.09666932946 7.542890762e-17)
(1.080544894 -0.0806409132 -3.03299703e-19)
(1.057757649 -0.07310329304 1.216414694e-16)
(1.065883922 -0.05663104656 -5.205631933e-17)
(1.043824232 -0.05293459085 1.593317715e-16)
(1.049557135 -0.03538669557 -4.108805856e-17)
(1.026540237 -0.0340721447 5.461489929e-17)
(1.033108778 -0.01765474757 1.386399911e-17)
(1.007956008 -0.01734692893 -1.092399273e-16)
(1.405752784 -0.9349303432 -9.729773796e-18)
(1.220215652 -0.7113807964 -5.646488119e-17)
(1.299014327 -0.6310152471 -1.802624958e-17)
(1.187202438 -0.4990186147 1.328707331e-16)
(1.232041951 -0.4431429622 -1.519944322e-17)
(1.160666163 -0.3625568522 1.554422562e-16)
(1.191220513 -0.3231690261 2.648251562e-17)
(1.139238943 -0.2699900595 2.124977341e-16)
(1.163032446 -0.241728925 1.573131621e-16)
(1.122176532 -0.2050962109 1.637281475e-16)
(1.141271997 -0.1834891937 -6.380926804e-17)
(1.107638495 -0.1579108827 -3.649839745e-17)
(1.122905409 -0.1399931785 1.6504407e-17)
(1.094095107 -0.122257077 -1.372051904e-17)
(1.106073882 -0.1061251663 -1.522991089e-16)
(1.080439817 -0.09422278541 -9.861224196e-17)
(1.08948744 -0.07859964688 -1.658268427e-17)
(1.065862226 -0.07125328676 -1.813023071e-16)
(1.072163835 -0.05519711105 8.796371576e-17)
(1.049692355 -0.05159522741 -1.480352451e-16)
(1.053481373 -0.03449026395 2.866295848e-17)
(1.030316712 -0.03321022554 3.6311201e-17)
(1.035066648 -0.01720666376 -1.100330429e-16)
(1.009878075 -0.01690835873 2.503876162e-16)
(1.508741113 -0.8988946094 -6.748956943e-17)
(1.298577025 -0.6839640089 2.416252692e-16)
(1.368524901 -0.606694488 -1.413092232e-16)
(1.242170997 -0.4797874395 1.636938268e-17)
(1.28085861 -0.42606445 8.490884543e-18)
(1.200602467 -0.3485849684 -1.950982019e-16)
(1.226822499 -0.3107153251 4.737492456e-17)
(1.168978856 -0.259585491 -2.063904385e-16)
(1.189663275 -0.2324138039 -6.684194995e-17)
(1.144768695 -0.1971924917 -2.198462664e-16)
(1.16148714 -0.1764181721 1.069574678e-16)
(1.125033391 -0.1518254992 -6.492914433e-17)
(1.138328859 -0.1345980014 5.317138318e-17)
(1.107562724 -0.1175457307 -1.200778784e-16)
(1.117766221 -0.1020348644 2.87363557e-16)
(1.090819277 -0.09059195669 1.781523281e-17)
(1.098147351 -0.07556974962 1.112489485e-16)
(1.073711242 -0.06850774363 5.6826439e-17)
(1.078245713 -0.05306880201 2.196402248e-18)
(1.055375936 -0.04960755622 4.428548385e-17)
(1.057282527 -0.03316002469 -7.625554921e-17)
(1.033974913 -0.03193139382 2.392384371e-17)
(1.036963768 -0.01654255814 -1.207304823e-16)
(1.011740359 -0.01625826076 3.495221456e-18)
(1.60703905 -0.8515525609 1.163023738e-16)
(1.373373295 -0.6479409561 -1.762850229e-16)
(1.434869947 -0.5747410021 2.373477586e-16)
(1.294638845 -0.4545182023 -1.18127666e-16)
(1.327451682 -0.4036240562 8.612989029e-18)
(1.238720941 -0.3302255611 2.98481082e-17)
(1.260802147 -0.2943505301 3.174846902e-17)
(1.197363806 -0.2459133941 1.116696682e-16)
(1.215079779 -0.2201731316 -4.778331158e-17)
(1.166330368 -0.1868067935 2.241023765e-16)
(1.180779813 -0.1671268237 -4.558532653e-17)
(1.141633959 -0.1438295624 -8.057739469e-17)
(1.153048083 -0.1275093412 1.024964307e-16)
(1.120414837 -0.1113555529 3.949613072e-17)
(1.128924474 -0.0966612044 -1.922101629e-16)
(1.100724025 -0.08582160155 3.287319609e-17)
(1.106411318 -0.07158966108 -8.862129312e-17)
(1.081200785 -0.06490062273 -1.146017728e-16)
(1.084048857 -0.0502733797 3.814850239e-17)
(1.060798659 -0.04699604913 -3.140131655e-17)
(1.060908725 -0.03141282413 5.836175422e-17)
(1.037464754 -0.03025082479 4.599086814e-17)
(1.038772817 -0.01566995343 4.424265503e-17)
(1.013516641 -0.01540302908 -3.525551107e-17)
(1.699426735 -0.7935039064 -2.303400175e-16)
(1.443669653 -0.6037747629 1.498288047e-16)
(1.49722595 -0.5355623346 -2.122457148e-16)
(1.343950259 -0.4235374842 1.729292165e-16)
(1.371244031 -0.3761105759 -7.97272555e-17)
(1.274547077 -0.3077171477 4.321474347e-17)
(1.292740217 -0.2742864411 2.867189922e-17)
(1.224042856 -0.2291517748 -1.208052685e-16)
(1.238970016 -0.2051653205 5.751347288e-17)
(1.186597286 -0.1740739395 -8.486738848e-17)
(1.198914577 -0.1557346355 -2.38936695e-17)
(1.157238504 -0.1340260784 4.625375949e-17)
(1.166884234 -0.1188173777 -1.222007356e-17)
(1.132496384 -0.10376562 -8.997615417e-17)
(1.139413549 -0.09007171511 9.842138719e-17)
(1.110035447 -0.07997223902 -4.281608884e-18)
(1.114180113 -0.06670877283 4.351269369e-17)
(1.088242336 -0.06047736619 5.95599562e-17)
(1.089504919 -0.04684515529 -4.799769322e-17)
(1.065897709 -0.04379349104 3.004472843e-17)
(1.064318733 -0.02927021039 -8.734020831e-17)
(1.040746847 -0.028190027 1.819124641e-17)
(1.040474631 -0.01460051139 -7.521136966e-17)
(1.015187677 -0.01435485679 3.250124387e-17)
(1.784725532 -0.7254746105 1.439045529e-16)
(1.508574452 -0.5520111039 -5.126385924e-17)
(1.554797123 -0.4896465036 3.664655982e-17)
(1.389479529 -0.3872266889 -6.286864848e-17)
(1.411675338 -0.3438648617 5.346230467e-17)
(1.307624489 -0.2813359548 -9.30448444e-17)
(1.322226339 -0.2507708456 -3.235486037e-18)
(1.248673904 -0.2095062084 8.873065032e-17)
(1.261025432 -0.1875758969 -1.210377029e-16)
(1.205307473 -0.1591505901 8.818037046e-17)
(1.215656021 -0.1423831815 2.156925649e-17)
(1.171643743 -0.1225364182 -8.37601522e-17)
(1.179657016 -0.1086309987 5.371928886e-17)
(1.143648882 -0.09487053844 4.988153186e-17)
(1.149096172 -0.08234973632 -1.499388707e-17)
(1.118630282 -0.07311733383 -2.080053618e-17)
(1.121351046 -0.06098952767 4.515240488e-17)
(1.094741303 -0.05529408385 -3.426650813e-17)
(1.094540387 -0.04282848888 3.278082599e-17)
(1.070603286 -0.04004082846 -3.277198767e-17)
(1.06746523 -0.02675987629 9.362608682e-17)
(1.043775287 -0.02577508469 1.425509312e-17)
(1.042044306 -0.01334716244 9.416626394e-17)
(1.016729284 -0.01312587332 -2.987735419e-17)
(1.861879986 -0.6483237631 -4.503555978e-17)
(1.567280668 -0.4933100942 8.077416544e-17)
(1.606871698 -0.4375746008 -2.072994537e-17)
(1.43066093 -0.3460498871 3.272277739e-17)
(1.448247332 -0.30729622 -4.911374493e-17)
(1.337543856 -0.2514196898 9.682156865e-17)
(1.348898871 -0.2241026043 -8.760367872e-18)
(1.270954215 -0.1872280784 -2.710359011e-18)
(1.280977035 -0.1676280414 1.082662494e-16)
(1.222232859 -0.1422271221 -6.104034951e-17)
(1.230801033 -0.1272411177 2.99790299e-17)
(1.184675518 -0.109506427 3.335526074e-17)
(1.191212135 -0.09707806482 -7.20185341e-17)
(1.153738656 -0.08478254396 8.868389622e-19)
(1.15785611 -0.07359137733 -4.37513859e-17)
(1.126406815 -0.06534263797 3.824670528e-17)
(1.127839174 -0.05450227388 -8.60082635e-17)
(1.100622242 -0.0494148144 2.740688557e-17)
(1.099096957 -0.03827217497 -2.048998453e-17)
(1.074861987 -0.03578391711 5.315923824e-18)
(1.070312986 -0.02391230342 -4.213229189e-17)
(1.046516563 -0.02303562492 -3.046963462e-17)
(1.043465399 -0.01192599913 -3.619801795e-17)
(1.018125193 -0.01173212636 -1.263850682e-17)
(1.929902249 -0.5630185947 -4.146379627e-17)
(1.619039625 -0.4284015042 -4.704471335e-17)
(1.652782132 -0.3799989126 -7.088202768e-17)
(1.466968739 -0.3005183164 3.715555413e-17)
(1.480489518 -0.266862129 -3.747533155e-17)
(1.36392162 -0.2183395605 -3.531929961e-17)
(1.372412948 -0.1946153531 2.313809836e-17)
(1.290596248 -0.1625941185 -3.12925853e-17)
(1.298565419 -0.1455718463 -8.333083074e-17)
(1.237153286 -0.1235143981 1.576432274e-17)
(1.244151699 -0.1104990464 -1.014377843e-17)
(1.196162955 -0.09509917499 -2.213591838e-17)
(1.20139788 -0.08430480008 7.062478646e-17)
(1.162632163 -0.07362864711 -1.727991534e-17)
(1.165577489 -0.06390837942 3.560973353e-17)
(1.133260702 -0.05674697672 -8.181439117e-19)
(1.133557497 -0.04733071336 2.593561888e-17)
(1.105804803 -0.04291527936 1.812747753e-18)
(1.103112316 -0.03323564762 -1.184543462e-17)
(1.078614555 -0.03107819473 1.494929325e-17)
(1.07282206 -0.02076462271 -1.462275983e-17)
(1.048931811 -0.02000729531 6.99951187e-17)
(1.04471699 -0.01035466211 -1.115095926e-17)
(1.019354841 -0.01019093296 4.129566074e-17)
(1.987954739 -0.4706341479 4.688440797e-17)
(1.663211813 -0.3581091167 9.10575832e-17)
(1.691963996 -0.3176449518 3.64743625e-17)
(1.497954991 -0.2512101878 1.786144348e-18)
(1.508007209 -0.22307215 3.146461517e-17)
(1.386433838 -0.1825155987 2.868172367e-17)
(1.39248239 -0.1626803396 -2.249597421e-17)
(1.307360528 -0.1359166412 1.211503991e-17)
(1.31357788 -0.1216842988 6.110396297e-17)
(1.24988842 -0.1032489551 -1.432522504e-17)
(1.255547529 -0.09236641735 4.383106856e-17)
(1.205968541 -0.07949602307 -1.805562997e-17)
(1.210092587 -0.07047016053 -1.493807934e-17)
(1.170224263 -0.06154837045 -1.521890542e-17)
(1.17216904 -0.05342025258 -1.38209215e-17)
(1.139112376 -0.04743673392 1.515764242e-17)
(1.138439571 -0.03956234212 -1.263947291e-17)
(1.110230166 -0.03587478286 6.118826203e-19)
(1.106540859 -0.02777972054 6.167423033e-18)
(1.081819306 -0.02598040592 1.233821843e-18)
(1.074964773 -0.01735492224 -4.843432962e-20)
(1.050994811 -0.0167265714 -3.187374518e-17)
(1.045786166 -0.008653088558 8.549945456e-18)
(1.020405652 -0.008521508607 -1.579311255e-18)
(2.035289396 -0.3723307918 -2.257987323e-17)
(1.699229659 -0.2833103684 -6.736012013e-17)
(1.723911549 -0.2512965283 -3.244318928e-17)
(1.523220835 -0.1987409619 7.14437827e-19)
(1.530443544 -0.1764772101 -6.235353798e-18)
(1.404789315 -0.1443952768 -3.489377204e-17)
(1.408845349 -0.1287000327 1.725996904e-17)
(1.321028614 -0.1075295131 -1.365326821e-17)
(1.32581727 -0.09626732172 -1.553073455e-17)
(1.260270855 -0.08168519433 -9.376531019e-18)
(1.26483791 -0.07307329011 -2.352935537e-17)
(1.213962056 -0.06289367453 6.54867472e-18)
(1.217180477 -0.0557506046 1.374611517e-17)
(1.176412757 -0.04869504105 -1.003935975e-17)
(1.177541973 -0.04226186124 2.623689598e-17)
(1.14388163 -0.03753137845 -1.697383012e-17)
(1.142418556 -0.03129809352 -6.56044658e-18)
(1.113836461 -0.02838488085 1.115846056e-17)
(1.109334748 -0.02197583844 -8.586036014e-18)
(1.084430668 -0.02055751619 7.65836854e-18)
(1.076710524 -0.0137276593 -1.162575434e-17)
(1.052675668 -0.01323662147 2.64147086e-17)
(1.046656777 -0.006842481209 -1.50926497e-17)
(1.021261564 -0.006745296781 -3.371776757e-18)
(2.071329025 -0.2693451885 2.967059189e-17)
(1.726652794 -0.2049513811 3.223352075e-17)
(1.748235953 -0.181787243 1.60326694e-17)
(1.542458063 -0.1437740691 7.343008232e-18)
(1.547527033 -0.1276618328 7.027582022e-18)
(1.418765451 -0.1044600409 1.282378616e-17)
(1.421305291 -0.09309971176 3.389147015e-18)
(1.331436186 -0.07779045611 -3.717008126e-18)
(1.335137773 -0.06963797203 1.516740165e-17)
(1.268177136 -0.05909398054 -7.002627776e-18)
(1.271913122 -0.05285933965 2.648188646e-17)
(1.220049762 -0.04549973064 -9.389637505e-18)
(1.222578776 -0.04032793381 -1.677533258e-18)
(1.181126458 -0.03522818127 5.717382481e-18)
(1.181634569 -0.03056983126 -3.912915935e-18)
(1.14751496 -0.02715241114 3.64624574e-18)
(1.145449727 -0.02263811596 1.338131733e-18)
(1.116584297 -0.02053618756 -3.623048974e-18)
(1.111463354 -0.01589387062 4.966511127e-18)
(1.086420781 -0.01487446193 -2.994308825e-18)
(1.07804083 -0.009926798694 4.119190035e-20)
(1.053957004 -0.009579121025 -1.08995079e-17)
(1.04732054 -0.004945818048 9.923086643e-18)
(1.021914647 -0.004883904176 -9.902858599e-18)
(2.095602433 -0.1629730183 -1.086877299e-17)
(1.745123521 -0.1240130722 -9.024840476e-18)
(1.764618628 -0.1099930899 -1.72077489e-17)
(1.555415077 -0.08699813288 -4.081465887e-18)
(1.559032486 -0.0772424882 6.967586185e-19)
(1.428178269 -0.06321098233 -9.60839806e-18)
(1.429696646 -0.05633025137 5.115471747e-18)
(1.338444956 -0.04707358255 -6.440379782e-18)
(1.341414437 -0.04213474219 4.442006095e-18)
(1.273500938 -0.03576050192 -4.117712397e-18)
(1.276677353 -0.03198265911 -5.68910323e-18)
(1.224148506 -0.02753486505 1.815466374e-18)
(1.226213409 -0.02440027332 2.368846274e-18)
(1.184299639 -0.02132000381 -4.451820751e-18)
(1.184389674 -0.01849563534 5.561826941e-18)
(1.149960471 -0.01643407744 -2.69229708e-18)
(1.147489884 -0.01369560555 -2.799009218e-18)
(1.118433516 -0.01243148601 -2.416059762e-19)
(1.11289567 -0.009613674598 7.449171549e-19)
(1.087759981 -0.009006331861 -3.51634234e-18)
(1.078935681 -0.00600186163 1.532303691e-18)
(1.054819155 -0.005802561558 5.570978502e-19)