/*--------------------------------*- C++ -*----------------------------------*\
| =========                 |                                                 |
| \\      /  F ield         | foam-extend: Open Source CFD                    |
|  \\    /   O peration     | Version:  3.0                                   |
|   \\  /    A nd           | Web:         http://www.extend-project.de       |
|    \\/     M anipulation  |                                                 |
\*---------------------------------------------------------------------------*/
FoamFile
{
    version     2.0;
    format      ascii;
    class       volVectorField;
    location    "30";
    object      u;
}
// * * * * * * * * * * * * * * * * * * * * * * * * * * * * * * * * * * * * * //

dimensions      [0 0 0 0 0 0 0];

internalField   nonuniform List<vector> 
576
(
(0.0533835 -0.0283239 2.20902e-20)
(0.137681 -0.0362619 3.90495e-19)
(0.255593 -0.0496815 -5.62268e-19)
(0.386591 -0.0530701 -7.74469e-19)
(0.49739 -0.0554779 -2.31562e-19)
(0.620019 -0.054262 4.12053e-19)
(0.709748 -0.0517634 2.88609e-19)
(0.810904 -0.0464834 2.24925e-19)
(0.871371 -0.040382 -1.83764e-19)
(0.944953 -0.031025 -8.91894e-20)
(0.969282 -0.0210866 4.94631e-19)
(1.00877 -0.00751169 -6.43412e-20)
(0.0680474 -0.083045 4.12655e-19)
(0.156451 -0.106321 -4.47569e-18)
(0.281313 -0.145673 -2.82959e-18)
(0.414065 -0.155609 -8.06296e-19)
(0.526113 -0.162682 1.51953e-18)
(0.64811 -0.159112 -1.5881e-19)
(0.736549 -0.151794 -4.8271e-19)
(0.834968 -0.136303 8.14241e-18)
(0.89228 -0.118423 6.38516e-18)
(0.961016 -0.0909732 1.51728e-18)
(0.980201 -0.061841 -4.30985e-18)
(1.01266 -0.0220215 -4.54768e-18)
(0.0963708 -0.132105 -5.73136e-19)
(0.192716 -0.169133 2.30892e-18)
(0.331 -0.231737 -7.44093e-19)
(0.467143 -0.247542 -6.32576e-18)
(0.581601 -0.258798 -2.96307e-18)
(0.702384 -0.25312 3.81728e-18)
(0.788324 -0.24148 8.3575e-18)
(0.881463 -0.216837 1.89942e-18)
(0.932675 -0.188393 1.02778e-17)
(0.992048 -0.144727 4.2141e-18)
(1.0013 -0.0983811 6.61783e-19)
(1.02017 -0.0350358 1.16558e-17)
(0.13643 -0.172165 -4.51785e-19)
(0.244004 -0.22042 1.1268e-18)
(0.401272 -0.302006 -3.17513e-18)
(0.542207 -0.322606 6.50482e-18)
(0.66008 -0.337276 -7.45364e-18)
(0.779141 -0.329875 -3.63957e-19)
(0.861552 -0.314707 -1.17281e-18)
(0.947217 -0.282588 1.13658e-17)
(0.989804 -0.245522 8.15736e-18)
(1.03594 -0.18861 1.13982e-17)
(1.03113 -0.128215 6.9674e-18)
(1.0308 -0.0456571 2.58213e-17)
(0.18549 -0.200489 -1.77776e-19)
(0.306814 -0.256685 -1.417e-18)
(0.487333 -0.351696 5.94391e-19)
(0.634139 -0.375684 -1.05131e-18)
(0.756193 -0.39277 4.30097e-18)
(0.873146 -0.384152 -1.04554e-17)
(0.951234 -0.36649 -6.00451e-18)
(1.02775 -0.329085 -1.9668e-17)
(1.05977 -0.285921 -1.79942e-17)
(1.08968 -0.219644 -8.84358e-18)
(1.06766 -0.149311 -4.61652e-18)
(1.04381 -0.0531702 -2.97392e-17)
(0.240212 -0.215152 2.23218e-19)
(0.376874 -0.275457 1.80471e-18)
(0.583326 -0.377416 -1.69255e-19)
(0.736678 -0.403159 -3.99216e-18)
(0.863397 -0.421496 -1.0235e-18)
(0.977998 -0.412247 -1.99879e-18)
(1.05127 -0.393294 -8.00366e-18)
(1.11757 -0.353153 2.11164e-18)
(1.13781 -0.306833 -7.70605e-18)
(1.14963 -0.235706 -1.44999e-17)
(1.10842 -0.160232 2.28482e-18)
(1.05832 -0.0570574 -7.13848e-18)
(0.296862 -0.215152 6.27109e-19)
(0.449402 -0.275458 4.30551e-19)
(0.682701 -0.377417 7.98125e-18)
(0.842832 -0.40316 1.61561e-18)
(0.97438 -0.421497 5.76267e-19)
(1.08655 -0.412248 -1.64453e-18)
(1.15482 -0.393296 9.36476e-19)
(1.21056 -0.353154 4.83651e-18)
(1.2186 -0.306835 -2.57676e-18)
(1.2117 -0.235707 3.46655e-18)
(1.15061 -0.160233 -1.15653e-18)
(1.07335 -0.0570575 -4.90268e-18)
(0.351583 -0.200489 3.29876e-19)
(0.519462 -0.256686 1.08881e-18)
(0.778694 -0.351696 5.0249e-18)
(0.945373 -0.375685 -5.28273e-18)
(1.08158 -0.392772 8.45655e-18)
(1.1914 -0.384154 -6.1373e-18)
(1.25485 -0.366493 -4.15971e-18)
(1.30038 -0.329087 8.36989e-19)
(1.29664 -0.285925 -1.32791e-17)
(1.27165 -0.219643 6.06463e-18)
(1.19136 -0.149315 -6.71426e-20)
(1.08786 -0.0531682 1.25963e-17)
(0.400644 -0.172163 5.01001e-19)
(0.582274 -0.220422 9.18833e-19)
(0.864756 -0.302008 -3.34509e-18)
(1.0373 -0.322608 5.64832e-18)
(1.1777 -0.337282 -5.56247e-18)
(1.2854 -0.32988 8.3414e-18)
(1.34454 -0.314715 -2.50007e-18)
(1.38091 -0.282593 -1.60882e-17)
(1.36661 -0.24553 -1.49713e-17)
(1.3254 -0.188611 -5.23872e-18)
(1.2279 -0.12822 -1.27833e-17)
(1.10087 -0.0456558 1.25214e-17)
(0.440704 -0.132105 8.56476e-19)
(0.633562 -0.169135 2.16929e-18)
(0.935029 -0.231737 5.84799e-20)
(1.11237 -0.247544 3.92059e-18)
(1.25618 -0.258804 3.88349e-19)
(1.36216 -0.253124 5.31272e-18)
(1.41777 -0.241489 8.10988e-18)
(1.44667 -0.216839 -2.99223e-18)
(1.42374 -0.188401 3.64632e-18)
(1.36928 -0.144725 6.08968e-18)
(1.25773 -0.0983873 5.56201e-18)
(1.11149 -0.0350316 -5.93405e-18)
(0.469028 -0.0830435 2.508e-19)
(0.669826 -0.106323 -2.51821e-19)
(0.984717 -0.145675 1.889e-18)
(1.16545 -0.155612 -3.10556e-18)
(1.31167 -0.162691 2.431e-18)
(1.41644 -0.15912 -1.73871e-19)
(1.46954 -0.151806 -1.07695e-18)
(1.49316 -0.136309 7.38274e-18)
(1.46414 -0.118433 6.31978e-18)
(1.40031 -0.0909757 9.19011e-18)
(1.27883 -0.0618489 1.39894e-17)
(1.11901 -0.0220203 -2.01639e-18)
(0.483693 -0.0283224 -3.70025e-20)
(0.688601 -0.0362645 -2.22283e-18)
(1.01044 -0.0496837 -1.54805e-18)
(1.19293 -0.0530731 2.53161e-18)
(1.3404 -0.0554881 -1.8944e-18)
(1.44453 -0.0542687 6.07014e-19)
(1.49635 -0.051776 -1.62752e-18)
(1.51723 -0.0464876 1.65394e-18)
(1.48505 -0.0403938 1.81234e-19)
(1.41638 -0.0310259 1.24558e-18)
(1.28975 -0.021096 1.43408e-18)
(1.12289 -0.0075079 2.33685e-18)
(0.483691 0.0283285 -2.40435e-20)
(0.688599 0.0362646 1.74944e-18)
(1.01044 0.0496925 1.91116e-18)
(1.19292 0.053081 2.08761e-18)
(1.3404 0.0554946 2.00618e-18)
(1.44453 0.0542787 -1.55327e-20)
(1.49635 0.0517812 2.65136e-18)
(1.51723 0.0465002 -3.45785e-18)
(1.48505 0.0403982 -3.4159e-18)
(1.41638 0.0310374 -4.59752e-18)
(1.28975 0.0210948 1.57466e-19)
(1.12289 0.00751586 1.17872e-18)
(0.469031 0.0830499 4.21514e-19)
(0.66983 0.106324 -1.36321e-18)
(0.984722 0.145685 -3.23728e-19)
(1.16545 0.155621 1.58583e-18)
(1.31168 0.162698 3.72419e-18)
(1.41644 0.159131 7.9137e-19)
(1.46955 0.151812 -5.26604e-18)
(1.49316 0.136322 -3.06413e-18)
(1.46414 0.118439 -6.69047e-18)
(1.40032 0.0909874 -5.46949e-18)
(1.27883 0.0618488 8.15853e-19)
(1.11901 0.0220281 -4.55831e-18)
(0.440704 0.13211 1.53637e-19)
(0.633563 0.169136 -4.04304e-18)
(0.935032 0.231747 -5.13705e-19)
(1.11237 0.247553 -5.92507e-18)
(1.25618 0.258813 1.44563e-18)
(1.36217 0.253135 -7.12514e-19)
(1.41777 0.241496 3.12372e-18)
(1.44667 0.216851 8.96495e-19)
(1.42374 0.188407 3.48155e-18)
(1.36928 0.144735 2.33904e-18)
(1.25774 0.0983872 2.58408e-21)
(1.11149 0.0350387 -1.04098e-17)
(0.400648 0.17217 -1.0074e-18)
(0.582278 0.220424 2.41359e-18)
(0.864765 0.30202 -3.37166e-18)
(1.03731 0.322618 -9.90636e-19)
(1.17771 0.337293 -7.82696e-18)
(1.28541 0.329894 5.84069e-18)
(1.34455 0.314725 1.03717e-17)
(1.38092 0.282607 6.72347e-18)
(1.36662 0.245538 1.7773e-17)
(1.3254 0.188622 1.26664e-17)
(1.22791 0.128222 -3.92548e-18)
(1.10087 0.0456625 4.84578e-18)
(0.351585 0.200494 -7.03969e-19)
(0.519463 0.256688 -1.36051e-18)
(0.7787 0.351708 -6.35446e-18)
(0.945376 0.375695 6.64616e-18)
(1.08159 0.392785 -1.29821e-18)
(1.19141 0.384167 3.42064e-18)
(1.25486 0.366504 2.85256e-18)
(1.30038 0.3291 6.03144e-18)
(1.29665 0.285934 1.17298e-17)
(1.27165 0.219653 1.02306e-17)
(1.19137 0.149318 3.54709e-18)
(1.08786 0.0531736 2.69323e-17)
(0.296866 0.215158 -7.01668e-19)
(0.449406 0.275462 -2.20345e-18)
(0.682711 0.377431 -1.58994e-18)
(0.842839 0.403172 -3.5248e-18)
(0.974394 0.421513 1.97001e-18)
(1.08656 0.412265 -4.38951e-18)
(1.15484 0.39331 -4.06186e-18)
(1.21056 0.353169 -1.69669e-17)
(1.21861 0.306847 3.76826e-18)
(1.2117 0.235717 -6.61073e-18)
(1.15062 0.16024 2.6917e-19)
(1.07335 0.0570623 -9.22183e-18)
(0.240213 0.215157 -3.65207e-19)
(0.376875 0.27546 7.34226e-19)
(0.583332 0.37743 -1.43568e-18)
(0.736683 0.403171 -1.20528e-19)
(0.863408 0.421513 -4.33814e-18)
(0.978007 0.412264 6.25678e-19)
(1.05128 0.39331 -7.50137e-18)
(1.11757 0.353169 1.60603e-17)
(1.13782 0.306847 1.8053e-17)
(1.14963 0.235716 -8.87088e-18)
(1.10842 0.16024 5.67226e-18)
(1.05832 0.0570614 -4.8794e-18)
(0.185494 0.200496 -1.98607e-19)
(0.306817 0.25669 -1.20286e-18)
(0.487342 0.351712 7.62309e-18)
(0.634145 0.375698 -2.67402e-18)
(0.756207 0.392792 4.03319e-18)
(0.873157 0.384173 -6.1074e-18)
(0.951246 0.366511 5.37041e-18)
(1.02775 0.329103 1.32507e-17)
(1.05978 0.285939 -6.81563e-19)
(1.08969 0.219654 -6.71637e-18)
(1.06767 0.149322 -5.09711e-18)
(1.04381 0.053173 -2.20793e-17)
(0.136432 0.17217 -7.46153e-19)
(0.244003 0.220423 2.52765e-18)
(0.401277 0.302023 -9.90327e-19)
(0.54221 0.322619 -4.61743e-18)
(0.66009 0.3373 1.33202e-18)
(0.77915 0.329898 -8.65352e-18)
(0.861561 0.314732 4.02792e-20)
(0.947223 0.282608 2.76318e-18)
(0.989809 0.245543 -1.33951e-17)
(1.03594 0.188621 -7.67877e-18)
(1.03113 0.128227 -1.26034e-17)
(1.0308 0.0456603 -3.56343e-18)
(0.0963738 0.132113 1.49649e-19)
(0.192717 0.169138 -2.24554e-19)
(0.331006 0.231755 -1.03588e-18)
(0.467147 0.247558 4.79507e-18)
(0.581611 0.258826 -6.41303e-18)
(0.702393 0.253144 5.01119e-18)
(0.788333 0.241508 -2.15704e-18)
(0.88147 0.216857 -1.59247e-17)
(0.932679 0.188416 -1.25747e-17)
(0.992051 0.144736 -1.62244e-17)
(1.0013 0.0983951 -1.53907e-17)
(1.02017 0.0350368 1.987e-17)
(0.0680478 0.0830505 7.65624e-19)
(0.156451 0.106324 3.74459e-18)
(0.281316 0.145691 1.74379e-18)
(0.414068 0.155624 -2.27342e-18)
(0.526117 0.162711 3.73721e-18)
(0.648118 0.159138 -1.32697e-18)
(0.736552 0.151824 9.11413e-19)
(0.834975 0.136326 -1.90739e-18)
(0.892281 0.118447 1.28639e-18)
(0.961019 0.0909865 -1.26047e-18)
(0.9802 0.0618568 -1.74851e-18)
(1.01266 0.0220252 -8.74429e-18)
(0.0533854 0.0283308 5.38491e-20)
(0.137679 0.0362664 1.93215e-19)
(0.255595 0.0497016 2.14853e-19)
(0.386593 0.0530862 -9.80027e-20)
(0.497391 0.0555097 -1.94465e-18)
(0.620022 0.054289 6.76733e-19)
(0.709748 0.0517957 -1.23005e-18)
(0.810907 0.0465061 -4.89286e-19)
(0.871369 0.0404089 -2.38622e-18)
(0.944955 0.0310379 1.41241e-18)
(0.969279 0.0211043 -1.41465e-18)
(1.00877 0.00751331 -1.14345e-18)
(0.0533851 -0.0283208 -2.21592e-20)
(0.137679 -0.0362644 -3.90507e-19)
(0.255594 -0.0496764 5.6225e-19)
(0.386592 -0.05307 7.74454e-19)
(0.497389 -0.0554749 2.31514e-19)
(0.62002 -0.0542604 -4.11979e-19)
(0.709746 -0.051763 -2.88547e-19)
(0.810906 -0.0464833 -2.24837e-19)
(0.871368 -0.0403841 1.83771e-19)
(0.944955 -0.0310264 8.91457e-20)
(0.969278 -0.0210869 -4.94669e-19)
(1.00877 -0.0075109 6.43312e-20)
(0.0680471 -0.0830409 -4.12725e-19)
(0.156451 -0.106323 4.47589e-18)
(0.281313 -0.145667 2.82961e-18)
(0.414067 -0.155608 8.0646e-19)
(0.526111 -0.162677 -1.5195e-18)
(0.648114 -0.15911 1.58891e-19)
(0.736547 -0.151792 4.827e-19)
(0.834972 -0.136303 -8.14252e-18)
(0.892277 -0.118423 -6.38534e-18)
(0.961018 -0.0909751 -1.51745e-18)
(0.980197 -0.0618401 4.30984e-18)
(1.01266 -0.0220227 4.54771e-18)
(0.0963724 -0.132103 5.73068e-19)
(0.192716 -0.169136 -2.30898e-18)
(0.331001 -0.231731 7.44012e-19)
(0.467144 -0.247542 6.32582e-18)
(0.581602 -0.258793 2.96296e-18)
(0.702387 -0.253117 -3.81719e-18)
(0.788324 -0.241478 -8.35753e-18)
(0.881466 -0.216835 -1.89955e-18)
(0.932672 -0.188393 -1.02779e-17)
(0.99205 -0.144724 -4.21432e-18)
(1.00129 -0.0983794 -6.6189e-19)
(1.02018 -0.0350339 -1.16559e-17)
(0.13643 -0.172161 4.51761e-19)
(0.244002 -0.220422 -1.12681e-18)
(0.40127 -0.302002 3.17511e-18)
(0.542206 -0.322605 -6.50501e-18)
(0.660077 -0.337272 7.45356e-18)
(0.779141 -0.329873 3.63993e-19)
(0.861549 -0.314705 1.17306e-18)
(0.947219 -0.282588 -1.13659e-17)
(0.9898 -0.245522 -8.15735e-18)
(1.03594 -0.18861 -1.13982e-17)
(1.03112 -0.128213 -6.96744e-18)
(1.0308 -0.045657 -2.58216e-17)
(0.185491 -0.200486 1.77756e-19)
(0.306815 -0.256688 1.41694e-18)
(0.487332 -0.351692 -5.94424e-19)
(0.63414 -0.375684 1.05139e-18)
(0.756192 -0.392766 -4.30096e-18)
(0.873147 -0.384149 1.04555e-17)
(0.951232 -0.366486 6.00465e-18)
(1.02775 -0.329083 1.96682e-17)
(1.05977 -0.28592 1.79945e-17)
(1.08968 -0.219642 8.84384e-18)
(1.06766 -0.14931 4.61658e-18)
(1.04381 -0.053169 2.97396e-17)
(0.240211 -0.215149 -2.23213e-19)
(0.376873 -0.27546 -1.80485e-18)
(0.583323 -0.377413 1.69312e-19)
(0.736677 -0.403159 3.9921e-18)
(0.863393 -0.421492 1.02364e-18)
(0.977996 -0.412245 1.99863e-18)
(1.05126 -0.39329 8.00384e-18)
(1.11757 -0.353151 -2.11206e-18)
(1.13781 -0.306831 7.70606e-18)
(1.14963 -0.235705 1.45e-17)
(1.10841 -0.16023 -2.28477e-18)
(1.05832 -0.0570571 7.13845e-18)
(0.296862 -0.215149 -6.27102e-19)
(0.449403 -0.27546 -4.30613e-19)
(0.6827 -0.377415 -7.98128e-18)
(0.842833 -0.40316 -1.61567e-18)
(0.974377 -0.421494 -5.76274e-19)
(1.08655 -0.412246 1.64447e-18)
(1.15482 -0.393293 -9.36529e-19)
(1.21056 -0.353152 -4.83663e-18)
(1.2186 -0.306833 2.57693e-18)
(1.2117 -0.235706 -3.46649e-18)
(1.15061 -0.160232 1.1566e-18)
(1.07335 -0.0570571 4.90265e-18)
(0.351583 -0.200487 -3.29845e-19)
(0.519462 -0.256688 -1.08893e-18)
(0.778691 -0.351695 -5.02469e-18)
(0.945371 -0.375685 5.28271e-18)
(1.08158 -0.392772 -8.45644e-18)
(1.1914 -0.384153 6.13712e-18)
(1.25485 -0.366492 4.15979e-18)
(1.30038 -0.329085 -8.36855e-19)
(1.29664 -0.285923 1.32794e-17)
(1.27165 -0.219642 -6.06467e-18)
(1.19136 -0.149313 6.72406e-20)
(1.08786 -0.0531682 -1.25969e-17)
(0.400643 -0.172162 -5.00977e-19)
(0.582275 -0.220423 -9.18865e-19)
(0.864754 -0.302008 3.34517e-18)
(1.0373 -0.322608 -5.64852e-18)
(1.17769 -0.337281 5.56251e-18)
(1.2854 -0.32988 -8.34153e-18)
(1.34453 -0.314714 2.50001e-18)
(1.38091 -0.282592 1.60882e-17)
(1.36661 -0.245528 1.49712e-17)
(1.3254 -0.188611 5.23864e-18)
(1.2279 -0.128218 1.27832e-17)
(1.10087 -0.0456562 -1.25215e-17)
(0.440702 -0.132104 -8.56472e-19)
(0.633562 -0.169137 -2.16929e-18)
(0.935025 -0.231739 -5.8524e-20)
(1.11237 -0.247546 -3.92047e-18)
(1.25617 -0.258806 -3.88544e-19)
(1.36216 -0.253125 -5.3127e-18)
(1.41776 -0.241489 -8.10979e-18)
(1.44666 -0.21684 2.99195e-18)
(1.42374 -0.188401 -3.64664e-18)
(1.36928 -0.144725 -6.09e-18)
(1.25773 -0.0983858 -5.56274e-18)
(1.11149 -0.0350327 5.93434e-18)
(0.469027 -0.0830431 -2.50797e-19)
(0.669826 -0.106323 2.51882e-19)
(0.984714 -0.145676 -1.88891e-18)
(1.16545 -0.155612 3.10554e-18)
(1.31167 -0.162692 -2.43095e-18)
(1.41643 -0.159119 1.73856e-19)
(1.46954 -0.151806 1.07701e-18)
(1.49316 -0.136309 -7.38278e-18)
(1.46413 -0.118433 -6.3198e-18)
(1.40031 -0.0909761 -9.19014e-18)
(1.27883 -0.0618478 -1.39894e-17)
(1.11901 -0.0220213 2.01627e-18)
(0.48369 -0.0283234 3.69941e-20)
(0.688599 -0.036265 2.22285e-18)
(1.01044 -0.0496863 1.54807e-18)
(1.19292 -0.0530746 -2.53159e-18)
(1.34039 -0.0554907 1.89432e-18)
(1.44453 -0.0542707 -6.07011e-19)
(1.49635 -0.0517776 1.62747e-18)
(1.51723 -0.0464896 -1.65394e-18)
(1.48505 -0.0403939 -1.81317e-19)
(1.41638 -0.0310277 -1.24556e-18)
(1.28975 -0.0210948 -1.43408e-18)
(1.12289 -0.00750969 -2.33687e-18)
(0.483689 0.0283274 2.40341e-20)
(0.688598 0.0362655 -1.74942e-18)
(1.01044 0.0496911 -1.91113e-18)
(1.19292 0.0530816 -2.08758e-18)
(1.34039 0.0554936 -2.00618e-18)
(1.44453 0.054279 1.55255e-20)
(1.49635 0.051781 -2.65136e-18)
(1.51723 0.0465002 3.45783e-18)
(1.48505 0.0403989 3.41588e-18)
(1.41638 0.031037 4.5975e-18)
(1.28975 0.0210962 -1.57467e-19)
(1.12289 0.00751473 -1.17872e-18)
(0.469029 0.0830474 -4.21561e-19)
(0.669827 0.106324 1.3633e-18)
(0.984719 0.145681 3.23803e-19)
(1.16545 0.155619 -1.58573e-18)
(1.31167 0.162695 -3.7242e-18)
(1.41644 0.159128 -7.91361e-19)
(1.46955 0.15181 5.26609e-18)
(1.49316 0.136319 3.064e-18)
(1.46414 0.118439 6.69024e-18)
(1.40031 0.090985 5.46929e-18)
(1.27883 0.06185 -8.15893e-19)
(1.119 0.022026 4.5584e-18)
(0.440702 0.132108 -1.53661e-19)
(0.63356 0.169137 4.043e-18)
(0.935029 0.231745 5.13679e-19)
(1.11237 0.247553 5.92512e-18)
(1.25618 0.258812 -1.44561e-18)
(1.36216 0.253135 7.12546e-19)
(1.41777 0.241496 -3.12387e-18)
(1.44666 0.216851 -8.96591e-19)
(1.42374 0.188408 -3.48177e-18)
(1.36928 0.144735 -2.33926e-18)
(1.25774 0.0983885 -2.64957e-21)
(1.11149 0.0350377 1.04096e-17)
(0.400646 0.172166 1.00738e-18)
(0.582276 0.220424 -2.41359e-18)
(0.864762 0.302015 3.37175e-18)
(1.03731 0.322617 9.90523e-19)
(1.17771 0.33729 7.82694e-18)
(1.28541 0.329891 -5.84064e-18)
(1.34455 0.314723 -1.03714e-17)
(1.38091 0.282604 -6.72365e-18)
(1.36662 0.245538 -1.7773e-17)
(1.3254 0.18862 -1.26665e-17)
(1.2279 0.128223 3.92545e-18)
(1.10087 0.0456603 -4.8462e-18)
(0.351583 0.20049 7.03947e-19)
(0.519461 0.256689 1.36049e-18)
(0.778698 0.351704 6.35437e-18)
(0.945374 0.375695 -6.64605e-18)
(1.08159 0.392784 1.29805e-18)
(1.1914 0.384166 -3.42053e-18)
(1.25486 0.366504 -2.85246e-18)
(1.30038 0.329099 -6.03114e-18)
(1.29665 0.285934 -1.17293e-17)
(1.27165 0.219652 -1.02301e-17)
(1.19137 0.149319 -3.54711e-18)
(1.08786 0.0531728 -2.69315e-17)
(0.296865 0.215153 7.01662e-19)
(0.449404 0.275462 2.20333e-18)
(0.68271 0.377426 1.58995e-18)
(0.842839 0.403171 3.52473e-18)
(0.974394 0.42151 -1.96984e-18)
(1.08656 0.412262 4.38931e-18)
(1.15484 0.393309 4.06209e-18)
(1.21057 0.353167 1.69664e-17)
(1.21861 0.306847 -3.76836e-18)
(1.2117 0.235715 6.61086e-18)
(1.15061 0.160241 -2.69148e-19)
(1.07335 0.0570608 9.2218e-18)
(0.240213 0.215152 3.65189e-19)
(0.376872 0.275461 -7.34239e-19)
(0.583331 0.377425 1.43557e-18)
(0.736681 0.40317 1.20493e-19)
(0.863407 0.421512 4.33804e-18)
(0.978005 0.412262 -6.25674e-19)
(1.05128 0.393311 7.50128e-18)
(1.11757 0.353167 -1.60604e-17)
(1.13782 0.306848 -1.80526e-17)
(1.14963 0.235716 8.87084e-18)
(1.10842 0.160241 -5.67216e-18)
(1.05832 0.0570617 4.87939e-18)
(0.185495 0.200491 1.9862e-19)
(0.306815 0.25669 1.20274e-18)
(0.487343 0.351706 -7.62285e-18)
(0.634145 0.375697 2.67395e-18)
(0.756208 0.392789 -4.03306e-18)
(0.873157 0.38417 6.10722e-18)
(0.95125 0.36651 -5.37032e-18)
(1.02776 0.329101 -1.32506e-17)
(1.05978 0.28594 6.81921e-19)
(1.08969 0.219654 6.71635e-18)
(1.06767 0.149324 5.09727e-18)
(1.04381 0.0531736 2.20788e-17)
(0.136433 0.172163 7.4615e-19)
(0.243999 0.220424 -2.52766e-18)
(0.401277 0.302016 9.90389e-19)
(0.542208 0.322618 4.61726e-18)
(0.66009 0.337297 -1.33196e-18)
(0.779147 0.329895 8.6534e-18)
(0.861561 0.314732 -4.03001e-20)
(0.947222 0.282608 -2.76306e-18)
(0.98981 0.245544 1.33952e-17)
(1.03594 0.188623 7.67872e-18)
(1.03113 0.128229 1.26034e-17)
(1.0308 0.0456624 3.56327e-18)
(0.0963762 0.132107 -1.49651e-19)
(0.192715 0.169139 2.24549e-19)
(0.331009 0.231748 1.03581e-18)
(0.467145 0.247558 -4.79496e-18)
(0.581614 0.258822 6.41282e-18)
(0.702392 0.253143 -5.01111e-18)
(0.788337 0.241507 2.15713e-18)
(0.881468 0.216856 1.59244e-17)
(0.932681 0.188416 1.25745e-17)
(0.992051 0.144737 1.62241e-17)
(1.0013 0.0983962 1.53902e-17)
(1.02018 0.0350372 -1.98698e-17)
(0.0680488 0.083044 -7.65635e-19)
(0.156449 0.106324 -3.74448e-18)
(0.281317 0.145684 -1.74373e-18)
(0.414065 0.155622 2.27342e-18)
(0.526119 0.162705 -3.73716e-18)
(0.648114 0.159134 1.32701e-18)
(0.736554 0.151822 -9.1128e-19)
(0.834972 0.136325 1.90738e-18)
(0.892284 0.118447 -1.28635e-18)
(0.961017 0.090988 1.26043e-18)
(0.980202 0.0618563 1.74848e-18)
(1.01266 0.0220255 8.7442e-18)
(0.0533868 0.0283266 -5.38272e-20)
(0.137675 0.0362685 -1.93159e-19)
(0.255595 0.049696 -2.14859e-19)
(0.386587 0.0530864 9.80497e-20)
(0.497393 0.0555074 1.94455e-18)
(0.620016 0.054289 -6.76758e-19)
(0.709749 0.0517965 1.22996e-18)
(0.810901 0.0465062 4.89267e-19)
(0.871371 0.0404097 2.38614e-18)
(0.944952 0.0310396 -1.4124e-18)
(0.969281 0.0211057 1.41464e-18)
(1.00877 0.00751637 1.14341e-18)
)
;

boundaryField
{
    out
    {
        type            fixedValue;
        value           uniform (1 0 0);
    }
    in
    {
        type            fixedValue;
        value           uniform (0 0 0);
    }
    frontAndBack
    {
        type            empty;
    }
}


// ************************************************************************* //
