/*--------------------------------*- C++ -*----------------------------------*\
| =========                 |                                                 |
| \\      /  F ield         | foam-extend: Open Source CFD                    |
|  \\    /   O peration     | Version:  3.0                                   |
|   \\  /    A nd           | Web:         http://www.extend-project.de       |
|    \\/     M anipulation  |                                                 |
\*---------------------------------------------------------------------------*/
FoamFile
{
    version     2.0;
    format      ascii;
    class       volVectorField;
    location    "44";
    object      u;
}
// * * * * * * * * * * * * * * * * * * * * * * * * * * * * * * * * * * * * * //

dimensions      [0 0 0 0 0 0 0];

internalField   nonuniform List<vector> 
2688
(
(0.2329868535 -0.05378517832 6.545730955e-17)
(0.2051238133 -0.04237706909 -6.637690002e-17)
(0.5244632128 -0.0379350529 1.469124916e-16)
(0.4601793832 -0.02882102186 -3.673644181e-17)
(0.6962044511 -0.02766305455 7.209074824e-17)
(0.6237805928 -0.02076973882 -1.057827509e-17)
(0.8053835627 -0.02063560279 -1.18012797e-18)
(0.7325671452 -0.01569715503 5.152177932e-17)
(0.8790135271 -0.01566067999 -5.606834686e-17)
(0.8067511019 -0.01230510751 6.445743569e-17)
(0.9308452621 -0.012041078 -1.7038995e-17)
(0.8581488408 -0.009914626871 3.494331325e-17)
(0.9684288567 -0.009324721184 2.875356482e-17)
(0.8939101989 -0.008151560195 -8.34490242e-17)
(0.996198019 -0.007209636981 9.121352355e-17)
(0.9184791812 -0.006787538214 -9.489641818e-17)
(1.016870061 -0.005500608993 9.181739078e-17)
(0.934716727 -0.005650013849 -5.94684874e-17)
(1.032101639 -0.004079489561 1.341594497e-17)
(0.9445849121 -0.004575746436 1.919127975e-17)
(1.042793663 -0.0028471442 -2.435014412e-17)
(0.9495671477 -0.003516943132 3.936613594e-18)
(1.049246558 -0.00160363448 -2.502825471e-17)
(0.9508241845 -0.002428164112 -1.24029524e-19)
(0.2449022776 -0.1585520802 -2.065303965e-16)
(0.214398059 -0.1245853434 -7.339727974e-18)
(0.5328308287 -0.1113768364 -3.440486234e-16)
(0.4664622456 -0.0841271388 3.389186793e-17)
(0.7022778196 -0.08068043611 -1.607372229e-16)
(0.6282810599 -0.05999168021 -2.469871129e-17)
(0.8098747825 -0.05957521812 -1.243217556e-17)
(0.7359283006 -0.04469930873 -1.233257777e-16)
(0.8823707862 -0.04454906908 5.914098988e-17)
(0.8093347697 -0.03438977361 -9.619637289e-17)
(0.9333639472 -0.03353906961 -2.186291478e-17)
(0.8601699935 -0.02704436705 -8.218428768e-17)
(0.9703030739 -0.0252042171 1.174957253e-17)
(0.8955023245 -0.02155391204 2.765680326e-17)
(0.9975548289 -0.01865192351 -4.591710086e-17)
(0.9197290204 -0.01724502373 8.110165992e-17)
(1.017795252 -0.01331185087 -8.116638196e-17)
(0.9356827819 -0.01363093286 2.006859914e-17)
(1.03266359 -0.008861591526 7.620529688e-17)
(0.9453026506 -0.0102757549 -1.077091045e-16)
(1.043065761 -0.005123717764 9.162175424e-17)
(0.9500435774 -0.006865146245 -7.076135331e-18)
(1.049308199 -0.001867732025 3.566669816e-17)
(0.9510549064 -0.003280216715 3.658345407e-17)
(0.2683940438 -0.2612241733 3.822306627e-16)
(0.2328157744 -0.2050572183 1.048463612e-16)
(0.549268737 -0.1832849891 4.298717418e-16)
(0.4788399437 -0.1382456196 -1.547492521e-17)
(0.7141327146 -0.1325595186 1.898321174e-16)
(0.6370491829 -0.09834739316 1.044374e-16)
(0.8185791465 -0.09766416185 -2.341511142e-17)
(0.7424097654 -0.07304217775 2.120955957e-16)
(0.8888331929 -0.07280243535 -5.989443415e-17)
(0.8142782248 -0.05596382712 1.862597618e-16)
(0.9381859589 -0.05456425842 4.171406726e-17)
(0.8640194623 -0.04377663246 1.067582484e-16)
(0.9738842403 -0.04073941157 -1.654501489e-17)
(0.8985350947 -0.03465295146 -6.011486407e-17)
(1.000161039 -0.02986270684 7.138051078e-17)
(0.9221248323 -0.02748874855 -1.873141184e-16)
(1.019606529 -0.02100008065 2.15990789e-16)
(0.9375581368 -0.02149676488 -1.621267313e-16)
(1.033806148 -0.01361875615 -1.762622653e-17)
(0.9467278682 -0.01599109962 6.164691044e-17)
(1.043628223 -0.007431250633 -5.550339468e-17)
(0.9510615377 -0.01041199931 -4.913594207e-17)
(1.049327577 -0.002126814961 -6.586469408e-17)
(0.9517397986 -0.00447372908 3.115647739e-17)
(0.3032783237 -0.3607102369 -4.163726441e-16)
(0.2601741728 -0.2831171059 -2.459193898e-16)
(0.5737570065 -0.2530202755 -5.540024019e-16)
(0.4972805945 -0.1907603394 4.233082788e-17)
(0.7318454115 -0.1828956164 -3.035069374e-16)
(0.6501652493 -0.1355857212 -4.591047383e-17)
(0.8316222163 -0.1346314511 -7.435926512e-17)
(0.7521420076 -0.1005743348 -1.532214571e-16)
(0.8985404002 -0.1002265151 -9.047437588e-17)
(0.8217163324 -0.07692817733 -1.32663262e-16)
(0.9454347714 -0.0749708032 -1.148580682e-16)
(0.8698083503 -0.06003566846 -1.126299378e-16)
(0.979255358 -0.05581021325 8.53401301e-17)
(0.9030756385 -0.04737077063 -1.880200525e-18)
(1.0040364 -0.04072123985 4.33311889e-17)
(0.925669811 -0.03740543658 1.039910806e-16)
(1.022239373 -0.02841852814 -1.227413466e-16)
(0.9402555682 -0.02904889201 9.941402458e-17)
(1.035382495 -0.01818326245 2.826045828e-17)
(0.948634574 -0.02134874443 -8.933871962e-17)
(1.044331902 -0.009666045767 9.864338298e-17)
(0.9521644615 -0.01347144916 8.838682295e-17)
(1.049368409 -0.002571603028 -3.610593324e-17)
(0.9520872682 -0.004954278865 1.397090671e-16)
(0.349053887 -0.4555885335 4.516490806e-16)
(0.2960437581 -0.3574947462 2.102866941e-16)
(0.60580644 -0.3194828478 6.650765624e-16)
(0.5213990654 -0.2407821966 -7.652029955e-17)
(0.7549653395 -0.2308509777 2.892855072e-16)
(0.6672596313 -0.1710371251 1.173041211e-16)
(0.8485993154 -0.1698385322 2.174639834e-17)
(0.7647812282 -0.1267674663 1.707129622e-16)
(0.9111423046 -0.1263372023 1.600489523e-16)
(0.8313509699 -0.09685834303 1.517625101e-16)
(0.9548288102 -0.09439337889 -1.597989623e-17)
(0.87729991 -0.07548065173 2.076134656e-16)
(0.9862189988 -0.07014930313 -1.864440959e-16)
(0.9089628086 -0.05944313555 1.25499204e-16)
(1.009088114 -0.05105317975 -1.99460406e-16)
(0.9302985326 -0.04681861179 -1.038845727e-16)
(1.025730688 -0.03548639705 7.118985081e-17)
(0.9438443009 -0.03624395989 -8.495227122e-17)
(1.03756459 -0.0225377413 1.187516821e-18)
(0.9513138394 -0.02656165651 4.083531395e-17)
(1.045400544 -0.01177307579 -1.367869938e-16)
(0.9540093646 -0.01672182553 3.401024225e-17)
(1.049425766 -0.002944518249 -2.126013858e-16)
(0.9533557784 -0.006160981175 1.321335458e-16)
(0.4051878306 -0.5448105994 -3.529329259e-16)
(0.3400830224 -0.4274907582 -1.731169726e-16)
(0.6451934854 -0.3820178349 -5.08679628e-16)
(0.5510671321 -0.2878690608 1.494101155e-17)
(0.7834371085 -0.2759839671 -1.840241072e-16)
(0.6883403445 -0.204422833 -2.218144567e-16)
(0.8695510252 -0.2029809364 5.571355027e-17)
(0.7804074616 -0.1514485152 -2.311617406e-16)
(0.9267253472 -0.1509215992 -3.175442348e-16)
(0.8432844531 -0.1156505175 7.817024034e-17)
(0.9664607359 -0.1126847923 -5.566299186e-17)
(0.8865843875 -0.09005402108 -7.787696099e-17)
(0.9948413031 -0.08365537013 2.340312082e-17)
(0.9162478749 -0.07083960641 7.278957069e-17)
(1.015324869 -0.06078219023 2.727557088e-17)
(0.9359900042 -0.05569780989 1.961365634e-16)
(1.029999004 -0.04213900664 7.22671883e-17)
(0.948162834 -0.04299208144 -3.482461125e-19)
(1.040159899 -0.02666781364 7.18065685e-17)
(0.9543094352 -0.03132444401 -5.521271221e-17)
(1.046572685 -0.0139211434 1.995175619e-16)
(0.9556062806 -0.01930682168 -9.462352832e-18)
(1.049514719 -0.003873163681 2.113853505e-16)
(0.9534423184 -0.006021422158 -9.220420966e-17)
(0.4709367106 -0.6271410854 -6.841166783e-17)
(0.3916252508 -0.4920430538 4.991630133e-17)
(0.6912416441 -0.4397023128 5.305816972e-16)
(0.5857260808 -0.3312858651 -1.10528467e-16)
(0.8166592517 -0.3176099123 6.49775944e-17)
(0.7129067848 -0.2351933343 2.624381659e-16)
(0.8939462797 -0.2335411818 1.535401628e-17)
(0.7985695359 -0.1741801216 -4.40334323e-17)
(0.9448303094 -0.1735817859 4.629726398e-16)
(0.8571233393 -0.1329399264 -2.491019633e-16)
(0.9799504175 -0.1295327932 -7.470375925e-17)
(0.8973360329 -0.1034411752 2.630884815e-16)
(1.004831938 -0.09608075701 -2.066539757e-16)
(0.9246838568 -0.08128512698 1.872575154e-16)
(1.022561817 -0.06971237435 -3.037436967e-16)
(0.9425986051 -0.06381079265 8.750558656e-17)
(1.03498682 -0.04820319159 -2.86580835e-16)
(0.9532293462 -0.04914105106 1.142178637e-16)
(1.043249893 -0.03032199002 -1.317513125e-16)
(0.9579520326 -0.0357151595 1.097065739e-17)
(1.048012174 -0.01563497864 -1.732836104e-16)
(0.9578560801 -0.02200432816 -1.696588857e-16)
(1.049282198 -0.004315745267 8.262273695e-17)
(0.9550907593 -0.007717289483 -4.413219963e-16)
(0.5455100232 -0.701627712 6.019813733e-16)
(0.4501287462 -0.5504680339 -3.344465311e-16)
(0.7435552162 -0.491898514 4.126331115e-17)
(0.6251325655 -0.3705820379 -3.065599728e-16)
(0.8544678205 -0.35527396 2.144613831e-16)
(0.7408994595 -0.2630497371 -3.735406184e-16)
(0.9217634145 -0.2611934051 1.527607602e-16)
(0.819313453 -0.1947696724 -5.4485181e-18)
(0.9655171753 -0.1940895411 -1.178603314e-16)
(0.8729637284 -0.148614703 1.490384347e-16)
(0.9953946427 -0.1447870497 1.555434166e-16)
(0.9096648364 -0.1155954963 -2.246295134e-16)
(1.016292545 -0.107337773 8.160595235e-17)
(0.9343724293 -0.0907862351 -1.683735073e-16)
(1.030886749 -0.07780624905 3.06241759e-16)
(0.9502024034 -0.07120015846 -2.726576867e-16)
(1.040771848 -0.05369974878 3.967831762e-16)
(0.9590731372 -0.054711347 -3.033218162e-16)
(1.046959215 -0.03364901696 2.826501708e-16)
(0.9621363306 -0.0394896951 -2.44492815e-16)
(1.050077837 -0.01728502143 4.962156238e-16)
(0.9601024837 -0.02346873756 -2.159699965e-16)
(1.050353744 -0.005569086888 1.808966395e-16)
(0.9555554736 -0.007352314724 4.734760986e-17)
(0.627942374 -0.7672819542 -9.212212341e-16)
(0.5147658773 -0.6019568533 3.660554012e-16)
(0.8012995002 -0.5379138412 -3.875029874e-16)
(0.6685988856 -0.4052177915 3.895737047e-16)
(0.8961299362 -0.3884843289 -4.428803387e-17)
(0.7717080993 -0.2875988046 4.202979812e-17)
(0.9523543974 -0.2855766358 -1.50052025e-16)
(0.8420873638 -0.2129036853 -2.182870874e-17)
(0.9882157631 -0.2121673504 -1.351184567e-16)
(0.8903109965 -0.1624029593 -3.315084181e-17)
(1.012300093 -0.1582233492 -3.407852336e-16)
(0.9231348425 -0.1262666699 4.473161544e-16)
(1.02880486 -0.1172405838 -3.367446525e-16)
(0.9449335556 -0.0991112358 4.267096321e-16)
(1.039945316 -0.08491423023 -3.693681998e-16)
(0.9584673116 -0.07767721404 4.504678475e-16)
(1.047029482 -0.05850670907 -4.262073674e-16)
(0.9653918369 -0.05965330624 4.277017147e-16)
(1.050927182 -0.036484467 -1.62095419e-16)
(0.9666173443 -0.0430609076 6.691852365e-17)
(1.052318611 -0.01838802432 -1.315667175e-16)
(0.9624534999 -0.02573217741 -2.053600522e-16)
(1.052078376 -0.005004534596 3.709153598e-16)
(0.9547549606 -0.009604167171 -7.853730282e-16)
(0.7172146454 -0.8233019014 9.692281244e-16)
(0.5847971456 -0.645880876 -9.712591464e-16)
(0.8639148962 -0.5771507735 1.12474192e-15)
(0.7157664418 -0.4347493986 -7.527173634e-16)
(0.941380596 -0.4167863758 4.040431631e-16)
(0.8052105408 -0.3085244104 -1.621487273e-16)
(0.985645268 -0.3063466772 2.644676993e-16)
(0.8669123361 -0.2283641891 1.410573791e-16)
(1.012973225 -0.227563973 3.155088242e-16)
(0.9092681656 -0.1741693796 3.054421033e-17)
(1.030784593 -0.1696697028 2.814717734e-16)
(0.9378921673 -0.1353894969 -2.367743627e-16)
(1.042523245 -0.1256801831 1.104176764e-16)
(0.9565366879 -0.1062455199 -3.971020135e-16)
(1.049910868 -0.0909663242 2.268246912e-16)
(0.9675896699 -0.08323785476 -6.085972384e-16)
(1.053953636 -0.06257163745 4.551646166e-16)
(0.97244944 -0.06388177195 -6.512687272e-16)
(1.055376098 -0.03882787045 3.441983905e-16)
(0.9718130704 -0.04605163204 -3.31132108e-16)
(1.054816994 -0.01915511007 4.329985634e-16)
(0.9657288968 -0.02767104851 -2.002116728e-16)
(1.053142226 -0.003779166109 1.808826805e-16)
(0.9551162777 -0.01037356539 2.519715516e-16)
(0.8122048754 -0.8689863283 -4.893759017e-16)
(0.6592947293 -0.6817244084 6.005080581e-16)
(0.9304676047 -0.6091902428 -4.432405006e-16)
(0.7658660392 -0.4588691846 9.044499887e-17)
(0.9893984734 -0.4399176779 -1.655349426e-18)
(0.8407198138 -0.3256242953 -2.325483901e-16)
(1.020900277 -0.3233335258 -1.688535986e-16)
(0.8931571854 -0.2409959794 -4.160713576e-16)
(1.039126904 -0.240158244 -3.023189974e-16)
(0.9292531384 -0.1837712451 -2.269183855e-16)
(1.050254807 -0.1790280559 -2.968372762e-16)
(0.9534035009 -0.1428171528 3.730259719e-16)
(1.056921878 -0.1325747727 -3.397184624e-16)
(0.9686961835 -0.1120418312 6.442755483e-16)
(1.060317368 -0.09591578907 -2.682345566e-16)
(0.9771230656 -0.08776704254 7.712253836e-16)
(1.061110826 -0.06593042335 -4.498794558e-16)
(0.9798069788 -0.0673934158 7.093599255e-16)
(1.059837797 -0.0408431889 -2.687544893e-16)
(0.9772027256 -0.04870882578 1.541683051e-16)
(1.056993641 -0.01990447543 -7.024471673e-17)
(0.9691635891 -0.02970335042 -3.789702288e-16)
(1.053113714 -0.002808337473 3.259971076e-16)
(0.9559096721 -0.01101819334 -6.287792882e-16)
(0.9116999419 -0.9037329767 3.652650064e-16)
(0.7373371269 -0.7089436501 -4.766975559e-16)
(1.000241913 -0.6334971821 4.559164979e-16)
(0.8184253001 -0.4771515535 -2.149647037e-16)
(1.039820529 -0.4574333826 1.825054082e-16)
(0.878050137 -0.3385643288 2.3287362e-16)
(1.057995515 -0.3361732361 1.211903619e-16)
(0.920818485 -0.2505454252 5.566820219e-16)
(1.066714375 -0.2496639692 2.960843849e-16)
(0.950377115 -0.1910317606 2.666208609e-16)
(1.070851934 -0.1860857925 1.057812397e-16)
(0.9698471408 -0.1484439639 -1.71375468e-16)
(1.072200628 -0.1377746219 2.145956363e-16)
(0.9816197736 -0.116447128 -4.766556231e-16)
(1.071386313 -0.0996511181 1.655481338e-16)
(0.9872685299 -0.09121971946 -7.676980808e-16)
(1.06871109 -0.06846795245 2.599874319e-16)
(0.9876221419 -0.07006503286 -4.678761722e-16)
(1.064486724 -0.04237791606 1.131518503e-16)
(0.9828843066 -0.05068664024 -3.119125509e-16)
(1.059035114 -0.02054288248 3.492098443e-16)
(0.9728098517 -0.03107982378 -1.265199789e-16)
(1.052441425 -0.002296551078 2.216526063e-16)
(0.957428685 -0.01114681395 9.689965484e-17)
(1.014491857 -0.9271546521 -7.303358873e-17)
(0.817968629 -0.7273439619 1.767732213e-17)
(1.072273969 -0.6499541115 5.122432844e-17)
(0.8726534515 -0.489547062 -2.284463166e-16)
(1.091792647 -0.469327525 -6.794634213e-18)
(0.9164851 -0.3473604478 -9.938032122e-17)
(1.096151133 -0.3449155424 -1.813248356e-16)
(0.9492218191 -0.2570460685 -4.429986698e-16)
(1.095013781 -0.2561484352 -1.70214446e-16)
(0.9719981636 -0.1959704807 -1.116909776e-16)
(1.091909008 -0.190902465 -1.973327915e-16)
(0.9866161447 -0.1522563227 3.311523225e-16)
(1.087754874 -0.1413188386 -5.68935431e-16)
(0.9947462912 -0.1194098014 7.751651911e-16)
(1.082594115 -0.102194123 -5.012858456e-16)
(0.9975304001 -0.09351939577 8.012830616e-16)
(1.076346828 -0.07020827341 -2.860894564e-16)
(0.9954959972 -0.07182778433 3.998759739e-16)
(1.069091096 -0.04347536748 4.870957581e-17)
(0.9885886699 -0.05197844627 3.351468636e-17)
(1.060992259 -0.02110082848 -1.484342119e-17)
(0.9764288293 -0.03188728549 -1.068687709e-16)
(1.051738062 -0.002297955032 9.761833774e-17)
(0.9592115154 -0.01083555759 -3.645652502e-16)
(1.119221291 -0.9388864892 2.537104693e-17)
(0.9001015715 -0.7364923535 1.207183668e-17)
(1.14570335 -0.6581094468 -1.079489701e-16)
(0.9279624914 -0.4956601905 1.030384519e-16)
(1.144853414 -0.4751736651 5.967377173e-17)
(0.9557669202 -0.3516607138 -9.605261865e-17)
(1.135187869 -0.3491738917 2.096131594e-16)
(0.9783300184 -0.2601978056 1.484614416e-16)
(1.124047306 -0.2592766211 1.44351566e-16)
(0.9942294071 -0.1983501279 -7.165270368e-17)
(1.113588566 -0.1932042635 2.755306079e-16)
(1.003922681 -0.1540892319 -3.136955336e-16)
(1.103836327 -0.1430002624 4.080640891e-16)
(1.008341695 -0.1208386137 -4.935864693e-16)
(1.09423436 -0.1034004315 3.790746708e-16)
(1.008179984 -0.09463575121 -4.794880482e-16)
(1.084308209 -0.0710527853 1.210379131e-16)
(1.0036507 -0.07268591423 -1.239889182e-16)
(1.073897916 -0.04405968045 -1.577715523e-16)
(0.9944410641 -0.05259532974 9.31152043e-17)
(1.063062841 -0.02153634382 5.451593329e-18)
(0.9799985737 -0.0321288884 1.17853685e-17)
(1.051328257 -0.00285518099 7.689589894e-17)
(0.9610857774 -0.01025519314 5.806866433e-18)
(1.224666612 -0.9388679857 2.104725408e-17)
(0.982834025 -0.7365249571 -6.12653165e-17)
(1.219611665 -0.6581574108 -5.314567882e-17)
(0.9836088156 -0.495709813 1.76982988e-16)
(1.198181776 -0.475235183 -6.910148926e-17)
(0.9952081849 -0.3517140109 2.324319808e-16)
(1.174338039 -0.3492365959 -1.961061308e-16)
(1.007474659 -0.2602457718 1.730100435e-16)
(1.153079582 -0.2593316769 -5.661121405e-17)
(1.016407812 -0.1983842633 9.378435754e-17)
(1.135181643 -0.1932437723 -3.2343046e-16)
(1.021110004 -0.1541002501 2.351734657e-16)
(1.119771863 -0.1430177441 -2.129707979e-16)
(1.02176944 -0.1208166672 2.308800126e-16)
(1.105697508 -0.1033948189 -3.555022267e-16)
(1.018628264 -0.09457157919 3.163949478e-16)
(1.092097975 -0.07103531362 -1.579839276e-16)
(1.011581482 -0.07257540378 4.343155503e-17)
(1.078588256 -0.04405900587 4.756968834e-17)
(1.000050868 -0.05244356021 -1.235889736e-16)
(1.065175133 -0.02164353713 -1.78492665e-17)
(0.9832007245 -0.03179894823 4.732474998e-17)
(1.051503183 -0.003516875699 -2.143443013e-16)
(0.9624781852 -0.009681076125 2.644089004e-16)
(1.329378967 -0.926995947 -1.35123898e-16)
(1.064930432 -0.727143445 2.342797693e-16)
(1.293007107 -0.6497508009 -1.744571202e-16)
(1.03888617 -0.4893454109 -1.663143541e-16)
(1.251213655 -0.469115399 3.22957454e-17)
(1.034464841 -0.3471549627 -3.408926653e-16)
(1.213352904 -0.3446941562 1.763658311e-16)
(1.036564878 -0.2568347711 -4.258147249e-16)
(1.182099762 -0.2559153969 -2.444949314e-17)
(1.038629647 -0.195752463 -2.786640125e-16)
(1.156858947 -0.1906570596 4.012898236e-16)
(1.03841675 -0.152030318 -2.588711745e-16)
(1.135866039 -0.1410657575 2.633887084e-16)
(1.035372586 -0.1191732597 -1.976346215e-16)
(1.117372365 -0.1019517911 2.942091636e-16)
(1.029282732 -0.09326646737 -3.058651277e-17)
(1.100130713 -0.07002068574 6.380517655e-17)
(1.019716628 -0.07155542161 1.686944635e-16)
(1.0835346 -0.04341723331 -1.229603529e-16)
(1.005830175 -0.05169198976 2.64567744e-16)
(1.067574654 -0.02138728496 -1.060329118e-16)
(0.9864388949 -0.03118694178 7.690301823e-17)
(1.052226197 -0.004016905163 4.235218306e-17)
(0.9637143022 -0.009421169964 -2.069924409e-16)
(1.43219569 -0.9035342949 8.2052969e-17)
(1.145625656 -0.7088031229 -1.799660394e-16)
(1.365095025 -0.6333845644 1.14866113e-16)
(1.093170015 -0.4770447855 1.526325733e-16)
(1.303233734 -0.4573403442 -5.923739426e-18)
(1.072944645 -0.3384630027 3.291624217e-16)
(1.251544507 -0.3360760184 -4.110707801e-17)
(1.06500059 -0.2504312562 4.29865023e-16)
(1.21041997 -0.2495440795 8.562047506e-17)
(1.060266271 -0.1908890124 3.509045104e-16)
(1.177917217 -0.1859276506 -2.009350486e-16)
(1.055176049 -0.1482555361 8.589788915e-17)
(1.151397969 -0.137567763 -1.227393568e-16)
(1.048448833 -0.116195364 8.841082515e-17)
(1.128537107 -0.09939986519 -3.173262751e-16)
(1.039426562 -0.09089090582 -6.234843493e-17)
(1.107725098 -0.06820454098 -6.831710197e-17)
(1.027364876 -0.06967029335 -2.575396716e-16)
(1.088163148 -0.04216679917 1.433873326e-16)
(1.011156135 -0.05028239494 -2.243994008e-16)
(1.069868628 -0.0206155468 4.370103359e-17)
(0.9892014634 -0.03026428429 1.076611989e-16)
(1.053311247 -0.003924424888 -2.435517311e-16)
(0.9641651189 -0.009635104505 5.071885809e-16)
(1.531638857 -0.8686521926 -1.979302637e-16)
(1.223559546 -0.6813632561 4.060832523e-16)
(1.434768067 -0.6088382191 -3.29667631e-16)
(1.145634785 -0.4585225834 4.34166227e-17)
(1.353568727 -0.439561369 -3.257935405e-17)
(1.110198523 -0.3252723192 -3.612981808e-16)
(1.288571859 -0.3229584925 1.153292959e-16)
(1.092604858 -0.2406250775 -4.75777489e-16)
(1.237962323 -0.2397490682 4.621348791e-17)
(1.08135674 -0.1833704501 -4.758878345e-16)
(1.198498382 -0.1785702448 2.82538137e-16)
(1.071614687 -0.1423747555 -2.327613032e-16)
(1.166698561 -0.1320566206 2.328402851e-16)
(1.061396944 -0.111548715 -2.599182257e-16)
(1.139675904 -0.09533309809 4.946713493e-16)
(1.049614486 -0.08722817871 -3.913954404e-17)
(1.115455615 -0.06528786325 1.903727299e-16)
(1.035210856 -0.06686315157 1.285942753e-16)
(1.093024249 -0.04014962435 -6.171722155e-17)
(1.016810671 -0.04832273395 1.557231139e-16)
(1.072362972 -0.01929114712 -1.785730729e-16)
(0.9924348013 -0.02926533473 7.028506706e-17)
(1.054271862 -0.0031051345 -1.602961016e-16)
(0.965029428 -0.01038946498 -6.740433802e-17)
(1.626675585 -0.8229192192 2.596823521e-16)
(1.298180792 -0.6455643536 -3.499482387e-16)
(1.501429977 -0.5768736045 4.318576823e-16)
(1.195843775 -0.4344841017 -1.817647645e-16)
(1.401682075 -0.4165363787 7.664899874e-17)
(1.145798284 -0.3082678141 1.381632121e-16)
(1.323901566 -0.3060901461 2.548595833e-18)
(1.11891981 -0.2280911043 3.336948077e-16)
(1.264164826 -0.2272742326 -1.236830921e-16)
(1.101385764 -0.1738599551 4.193892546e-16)
(1.217983122 -0.1693217959 -1.317494465e-16)
(1.087132702 -0.1350233236 -1.121734729e-17)
(1.181065247 -0.1252466505 3.30727501e-17)
(1.073507504 -0.105807412 8.553201112e-17)
(1.149988908 -0.09041087596 -3.121774708e-16)
(1.05901688 -0.08274042841 2.933906617e-17)
(1.122442395 -0.06182836697 -1.255119364e-16)
(1.042321745 -0.06342392793 -1.94466362e-16)
(1.09724052 -0.03777084872 9.70506284e-17)
(1.021793285 -0.04588651181 -1.035539084e-16)
(1.07437271 -0.01762614868 1.194660644e-16)
(0.9951199622 -0.02809393899 6.769621828e-17)
(1.054892334 -0.001595924074 2.148094496e-17)
(0.9650853071 -0.0115609469 1.126615857e-16)
(1.715860454 -0.7667742505 -3.774996248e-16)
(1.36803523 -0.6014446271 3.401702244e-16)
(1.56387896 -0.5374213206 -4.180594673e-16)
(1.242856291 -0.4047361658 2.852808128e-16)
(1.446787133 -0.3879933924 -1.692111397e-16)
(1.179171139 -0.2871101474 -1.051400124e-17)
(1.357073348 -0.2850590173 5.467483328e-17)
(1.143640802 -0.2123839651 -3.217280589e-16)
(1.288832874 -0.2115949226 1.658465032e-16)
(1.120270372 -0.1618323868 -2.91266307e-16)
(1.236415212 -0.157564782 8.431967053e-17)
(1.10186022 -0.1256243717 -4.938045521e-17)
(1.1947773 -0.1164538774 7.381301909e-17)
(1.085140778 -0.09838528319 -1.647539793e-16)
(1.159994287 -0.08392871823 2.185513488e-16)
(1.068252598 -0.07689808516 -2.047414125e-17)
(1.129415025 -0.05717872753 7.563978013e-17)
(1.049598998 -0.05896596545 1.241432462e-16)
(1.101622592 -0.03455210414 -1.175513777e-16)
(1.027316082 -0.04279933451 1.128051584e-16)
(1.076406115 -0.0154324391 -1.986977235e-16)
(0.9989319925 -0.02670389269 6.051105943e-17)
(1.054433137 0.0004167303417 -1.498671956e-16)
(0.9667439829 -0.01266613293 -6.122837986e-18)
(1.798354575 -0.7010585554 2.560088869e-16)
(1.432848741 -0.5499752432 -2.121299145e-16)
(1.621779969 -0.4914541996 1.809856023e-16)
(1.286480985 -0.3701578351 -1.642197124e-16)
(1.488589956 -0.354865402 1.227682786e-16)
(1.210115446 -0.2626377331 -8.581917742e-17)
(1.38778073 -0.2607787977 -1.28983654e-17)
(1.1665289 -0.1943403053 2.188652453e-16)
(1.311619133 -0.1936371383 -2.009652789e-16)
(1.137707456 -0.1481474122 2.173256631e-16)
(1.253370063 -0.1442648642 -1.824265188e-17)
(1.115388595 -0.1150703867 -6.863405111e-17)
(1.207281558 -0.1066995152 6.181312392e-17)
(1.095721635 -0.09019309914 4.465349258e-17)
(1.168950163 -0.07695812598 -3.825379417e-17)
(1.07650394 -0.07057306325 -5.389255154e-17)
(1.135408296 -0.0524218831 6.294121529e-17)
(1.055900615 -0.05420639347 -9.82556705e-17)
(1.10507459 -0.03150274778 9.693089789e-17)
(1.031803805 -0.03947612865 -7.608389684e-17)
(1.077676498 -0.01351365665 1.619689574e-16)
(1.001671933 -0.02513453226 2.775506673e-17)
(1.053451487 0.002338844889 1.094894215e-16)
(0.9669775116 -0.01364005555 6.589711373e-17)
(1.872805201 -0.6264645088 -1.197022138e-16)
(1.491113209 -0.4913918546 2.384192315e-16)
(1.673867027 -0.4390790285 -1.32129793e-16)
(1.325676797 -0.3306814732 1.4431603e-16)
(1.526196304 -0.3169966851 -1.10812072e-16)
(1.237925173 -0.2345814142 1.261410144e-16)
(1.415423635 -0.2328982586 1.748825818e-18)
(1.187113439 -0.1735294007 -9.751164697e-17)
(1.332159314 -0.1728732044 2.040328599e-16)
(1.153416057 -0.1322256986 -1.816324416e-16)
(1.268700074 -0.1287172915 9.246546022e-17)
(1.127627556 -0.1026370277 -5.895325734e-18)
(1.218669775 -0.09509690873 -6.383555358e-17)
(1.105396881 -0.08037506743 -1.075251617e-17)
(1.177247289 -0.06844359689 -3.52161724e-17)
(1.084247532 -0.06282869671 6.349340552e-17)
(1.141169864 -0.04639897819 -1.155742156e-16)
(1.062184402 -0.04824093087 7.664480873e-17)
(1.108610502 -0.02752068184 -8.212657314e-17)
(1.036977512 -0.03519447138 3.866502132e-17)
(1.078890341 -0.0111390871 -1.0921068e-16)
(1.006276 -0.0227749741 -3.721414539e-17)
(1.05094563 0.003959328916 -6.347155938e-17)
(0.9703518362 -0.01322222696 -8.249556672e-17)
(1.938621991 -0.5440570839 -2.10359007e-17)
(1.542874835 -0.4268248854 -1.694228282e-16)
(1.720109152 -0.3814058566 -3.556144647e-17)
(1.360535021 -0.2872873695 -3.497046605e-17)
(1.559597982 -0.2754156493 -1.755998729e-17)
(1.262668009 -0.2038552555 -7.41879879e-17)
(1.439976031 -0.2024088831 1.672314115e-17)
(1.205434937 -0.1508633053 8.389470113e-18)
(1.350398023 -0.1503139232 -1.46510751e-16)
(1.167399724 -0.1150294532 7.273910558e-17)
(1.282293786 -0.112011165 -3.036849853e-17)
(1.138508153 -0.08938163274 -2.984341701e-17)
(1.228714977 -0.08287203992 1.084234355e-16)
(1.113943509 -0.07011218295 -4.409961425e-17)
(1.184442067 -0.05979487644 6.914114957e-17)
(1.090951004 -0.05495411642 -3.529987953e-17)
(1.145934142 -0.04071477691 6.039376867e-17)
(1.067324577 -0.04237630813 -2.039777203e-17)
(1.111227697 -0.02433516653 1.614009173e-17)
(1.040569557 -0.03114036705 2.799843477e-17)
(1.079563871 -0.009911353064 -3.426074491e-18)
(1.008433916 -0.02061717922 1.284667164e-16)
(1.049025855 0.004222180408 -4.350941572e-17)
(0.969957252 -0.01261702905 1.541579709e-16)
(1.994600769 -0.4547535529 5.924045652e-17)
(1.58662209 -0.3567197714 2.110512753e-16)
(1.759218669 -0.318739544 2.223564898e-17)
(1.389945081 -0.2400686815 7.530453479e-17)
(1.587817212 -0.2301285893 1.962393975e-17)
(1.283516417 -0.170316984 7.585302998e-17)
(1.460700248 -0.1690898975 -1.105344592e-17)
(1.220843745 -0.1260071382 -1.160626022e-17)
(1.365772083 -0.12552683 1.320664807e-16)
(1.17912796 -0.0960344412 -7.253382601e-17)
(1.293733876 -0.09348491389 9.231412948e-17)
(1.14760633 -0.07456886606 -4.270343018e-17)
(1.237169304 -0.0690927833 -1.897277351e-17)
(1.121091586 -0.05842679956 -1.556872502e-17)
(1.190548095 -0.04975716786 -3.36130838e-17)
(1.09664497 -0.04571294047 3.21097595e-17)
(1.150102704 -0.03375340293 -4.139775235e-17)
(1.072008854 -0.03513464311 1.464575943e-17)
(1.113639737 -0.02000084124 -2.061108961e-17)
(1.044769869 -0.02560864658 -5.446934382e-18)
(1.079967745 -0.007875044595 -1.741687664e-17)
(1.013158323 -0.01660514738 -6.671734127e-17)
(1.045733232 0.003956309243 1.894964441e-17)
(0.975510288 -0.008836482332 -6.950821094e-17)
(2.040441173 -0.3597832827 -6.448860352e-17)
(1.622739735 -0.2822849586 -1.588153743e-16)
(1.791485581 -0.2522434681 -6.128184611e-17)
(1.414290437 -0.1900242126 -4.403576297e-17)
(1.611143588 -0.1821667691 -2.009967112e-17)
(1.300816576 -0.1348625124 -7.666411459e-17)
(1.477866198 -0.1339007889 1.04652308e-17)
(1.233677925 -0.09983126072 -2.088330304e-17)
(1.378548973 -0.09946594949 -5.295903425e-17)
(1.18895424 -0.07615031381 3.322721361e-18)
(1.303289548 -0.07415864878 -3.876873665e-17)
(1.155290389 -0.05921322548 -5.009975072e-19)
(1.244270969 -0.05492707823 4.003147919e-17)
(1.127168467 -0.0465086338 -2.969879392e-17)
(1.195682858 -0.03974111342 5.765292495e-17)
(1.10143661 -0.0365469733 -3.429613929e-17)
(1.153576834 -0.02728209154 1.415389399e-17)
(1.075638057 -0.02832165085 1.255211755e-17)
(1.115725772 -0.01676230557 -3.84112481e-18)
(1.0470508 -0.02098464204 3.262817457e-17)
(1.080964454 -0.007650014337 -2.051690654e-17)
(1.013645694 -0.01391895284 7.421035871e-17)
(1.045889005 0.001418818535 -4.493295558e-17)
(0.971599746 -0.006921277172 6.557849828e-17)
(2.075136884 -0.260248331 7.974273839e-17)
(1.649772892 -0.2041773844 1.191730436e-16)
(1.815655689 -0.1824329333 4.51704491e-17)
(1.432440489 -0.1374365309 5.547232064e-17)
(1.628563432 -0.131739317 2.036282527e-17)
(1.313661809 -0.09753278696 5.085581188e-17)
(1.490638449 -0.09682519935 1.690814361e-17)
(1.243144358 -0.07219077133 -7.941575116e-19)
(1.387994835 -0.07191695696 5.936945689e-17)
(1.196120713 -0.05505929848 -2.943923948e-17)
(1.310276744 -0.05361312064 6.241957873e-17)
(1.160792434 -0.04280574124 -2.646656504e-17)
(1.249376131 -0.03970988835 1.491279311e-18)
(1.131403842 -0.03361045509 2.448065232e-18)
(1.199287233 -0.0287496197 -1.528365562e-17)
(1.104677257 -0.02638338343 7.349503859e-18)
(1.155898576 -0.01980631431 -1.045170224e-17)
(1.078144235 -0.02036416297 -5.776170953e-18)
(1.116775349 -0.01237735086 -2.278242334e-18)
(1.049312975 -0.01489624781 -1.579348655e-17)
(1.080597584 -0.006311811645 -2.0128455e-19)
(1.016939303 -0.009254796041 -3.829295312e-17)
(1.042898531 -0.001823233878 2.471255773e-17)
(0.9799499199 -0.0009716538264 -5.157833687e-17)
(2.098703632 -0.1574748693 -6.880829023e-17)
(1.668436926 -0.123600514 -7.047460787e-17)
(1.832329131 -0.110441039 -6.784437062e-17)
(1.44505021 -0.08324237419 -3.193592471e-17)
(1.640640774 -0.0797910469 -2.505488849e-17)
(1.322645271 -0.05911521139 -4.0847209e-17)
(1.499548539 -0.05868401245 -3.357747146e-18)
(1.249835043 -0.04379724488 -2.60141383e-17)
(1.394654662 -0.04363175081 -1.30455925e-17)
(1.201275589 -0.03344850865 -1.172927601e-17)
(1.315293795 -0.03257989779 -1.425688317e-17)
(1.164861262 -0.0260537888 -6.219983723e-18)
(1.253153041 -0.02420038826 1.515976307e-17)
(1.134656933 -0.02050939528 -1.519471442e-17)
(1.202092918 -0.01762400251 2.223365633e-17)
(1.10724536 -0.01614090155 -8.477381706e-18)
(1.157954219 -0.01232519513 5.67178308e-18)
(1.079965884 -0.01244307856 4.492477936e-18)
(1.118392097 -0.00807429458 2.585863673e-18)
(1.049865335 -0.0089168458 9.086732772e-18)
(1.082481394 -0.004932618488 -7.050011534e-19)