/*--------------------------------*- C++ -*----------------------------------*\
| =========                 |                                                 |
| \\      /  F ield         | foam-extend: Open Source CFD                    |
|  \\    /   O peration     | Version:  3.0                                   |
|   \\  /    A nd           | Web:         http://www.extend-project.de       |
|    \\/     M anipulation  |                                                 |
\*---------------------------------------------------------------------------*/
FoamFile
{
    version     2.0;
    format      ascii;
    class       volSymmTensorField;
    location    "2";
    object      sigma;
}
// * * * * * * * * * * * * * * * * * * * * * * * * * * * * * * * * * * * * * //

dimensions      [0 0 0 0 0 0 0];

internalField   nonuniform List<symmTensor> 
7680
(
(-0.136076 -0.00155444 1.38751e-22 0.137039 -4.38489e-22 -0.000962865)
(-0.140401 -0.00207468 4.36242e-23 0.143102 -7.93438e-22 -0.00270092)
(-0.141828 -0.00242725 -7.53535e-22 0.146136 -3.89871e-21 -0.00430823)
(-0.14121 -0.00265637 -1.48565e-21 0.147009 -4.43335e-21 -0.00579916)
(-0.139154 -0.00279351 -1.77928e-21 0.146339 -3.93083e-21 -0.00718513)
(-0.136094 -0.00286158 -2.56321e-21 0.144569 -1.71635e-21 -0.00847489)
(-0.132347 -0.00287744 -2.30311e-21 0.142022 -4.3617e-22 -0.00967549)
(-0.128142 -0.00285368 -2.63969e-21 0.138934 5.24717e-22 -0.0107922)
(-0.123649 -0.00279975 -2.54653e-21 0.135478 2.86931e-21 -0.0118291)
(-0.118991 -0.00272278 -1.65883e-21 0.13178 8.50659e-22 -0.0127891)
(-0.114259 -0.00262821 -1.72471e-21 0.127934 -2.06298e-21 -0.0136744)
(-0.109519 -0.00252017 -1.42212e-21 0.124006 -3.34526e-21 -0.0144861)
(-0.10482 -0.00240182 -2.0215e-21 0.120045 -3.5263e-21 -0.0152252)
(-0.100197 -0.00227557 -4.16492e-21 0.116088 -1.95438e-22 -0.0158915)
(-0.095674 -0.00214325 -7.97184e-21 0.112159 1.906e-21 -0.0164848)
(-0.0912696 -0.00200627 -8.14696e-21 0.108274 3.58161e-21 -0.0170042)
(-0.0869952 -0.00186569 -7.99471e-21 0.104444 7.06568e-21 -0.0174486)
(-0.0828586 -0.00172232 -8.96627e-21 0.100675 9.97997e-21 -0.0178166)
(-0.0788642 -0.00157678 -1.25155e-20 0.0969707 1.1298e-20 -0.0181065)
(-0.0750141 -0.00142956 -1.58877e-20 0.0933303 1.17375e-20 -0.0183161)
(-0.0713086 -0.00128105 -2.31327e-20 0.0897521 1.01132e-20 -0.0184435)
(-0.0677467 -0.00113158 -2.43423e-20 0.0862327 1.04499e-20 -0.0184861)
(-0.064326 -0.000981447 -2.48314e-20 0.0827674 1.24012e-20 -0.0184414)
(-0.0610438 -0.000830946 -2.42713e-20 0.0793505 1.4406e-20 -0.0183067)
(-0.0578964 -0.000680386 -2.40495e-20 0.0759757 1.51437e-20 -0.0180793)
(-0.05488 -0.000530139 -2.35211e-20 0.072636 1.98112e-20 -0.017756)
(-0.0519901 -0.000380627 -2.11206e-20 0.069324 2.33225e-20 -0.017334)
(-0.0492222 -0.000232387 -1.67496e-20 0.066032 2.253e-20 -0.0168097)
(-0.0465715 -8.60662e-05 -1.7773e-20 0.0627517 1.8555e-20 -0.0161802)
(-0.0440332 5.75177e-05 -2.04739e-20 0.0594747 1.45222e-20 -0.0154416)
(-0.0416021 0.00019735 -1.99544e-20 0.0561926 1.16333e-20 -0.0145904)
(-0.0392736 0.000332178 -1.37321e-20 0.0528963 9.09059e-21 -0.0136227)
(-0.0370429 0.000460401 -4.76257e-21 0.0495773 5.87633e-21 -0.0125345)
(-0.0349057 0.000580143 -1.87761e-21 0.0462268 7.46077e-21 -0.0113211)
(-0.0328595 0.000689013 -1.18713e-20 0.0428374 8.77866e-21 -0.0099779)
(-0.030903 0.000784811 -1.83126e-20 0.0394026 7.94126e-21 -0.00849961)
(-0.029042 0.000865706 -1.74808e-20 0.0359226 3.40404e-21 -0.00688051)
(-0.0272898 0.000934755 -6.16889e-21 0.0324041 4.02502e-21 -0.00511427)
(-0.0256831 0.00100527 -3.38431e-21 0.0288768 1.18497e-21 -0.00319377)
(-0.0242813 0.00112317 -4.80545e-22 0.0253926 -1.42403e-21 -0.00111132)
(-0.136143 -0.00432122 8.00842e-22 0.137105 -1.12424e-21 -0.000961818)
(-0.140331 -0.00605861 7.86846e-22 0.143029 -1.64502e-21 -0.00269803)
(-0.141657 -0.00727778 -3.93823e-22 0.14596 -4.55604e-21 -0.00430362)
(-0.140964 -0.0081142 -2.32577e-22 0.146757 -4.59859e-21 -0.00579297)
(-0.138853 -0.00866483 5.93066e-22 0.14603 -4.72499e-21 -0.00717746)
(-0.135753 -0.00900056 3.21281e-22 0.144219 -2.03852e-21 -0.00846586)
(-0.131978 -0.00917393 5.63767e-24 0.141643 -8.26093e-22 -0.0096652)
(-0.127755 -0.00922429 -4.31234e-23 0.138536 1.2544e-21 -0.0107807)
(-0.12325 -0.00918134 -3.7191e-22 0.135067 4.74913e-21 -0.0118165)
(-0.118585 -0.00906767 -2.49566e-21 0.131361 1.95139e-21 -0.0127756)
(-0.113851 -0.00890053 -2.94294e-21 0.127511 -1.96119e-21 -0.0136599)
(-0.109112 -0.00869316 -1.70342e-21 0.123582 -2.44864e-21 -0.0144709)
(-0.104415 -0.00845574 -1.29027e-21 0.119625 -7.72323e-22 -0.0152092)
(-0.099797 -0.00819611 -2.77212e-21 0.115672 2.83309e-21 -0.0158748)
(-0.0952806 -0.00792031 -6.42128e-21 0.111748 7.43998e-21 -0.0164676)
(-0.0908836 -0.00763299 -6.46058e-21 0.10787 1.02856e-20 -0.0169865)
(-0.0866173 -0.00733773 -5.92726e-21 0.104048 1.53753e-20 -0.0174306)
(-0.0824894 -0.00703729 -5.18717e-21 0.100288 1.33333e-20 -0.0177982)
(-0.0785041 -0.00673381 -9.38033e-21 0.0965919 1.43491e-20 -0.0180879)
(-0.0746633 -0.00642892 -1.60549e-20 0.0929607 1.17973e-20 -0.0182974)
(-0.0709672 -0.0061239 -2.39821e-20 0.0893919 1.14039e-20 -0.0184247)
(-0.0674147 -0.00581976 -2.32922e-20 0.0858819 1.17851e-20 -0.0184673)
(-0.0640034 -0.00551731 -2.16586e-20 0.0824261 1.46666e-20 -0.0184227)
(-0.0607305 -0.00521725 -2.11459e-20 0.0790188 1.56667e-20 -0.0182883)
(-0.0575924 -0.00492018 -2.42414e-20 0.0756536 2.26823e-20 -0.0180611)
(-0.0545852 -0.00462672 -1.59025e-20 0.0723235 2.82047e-20 -0.0177382)
(-0.0517045 -0.0043375 -1.45358e-20 0.0690212 3.22099e-20 -0.0173167)
(-0.0489458 -0.00405326 -1.57631e-20 0.0657388 2.71536e-20 -0.016793)
(-0.0463043 -0.00377489 -1.98192e-20 0.0624684 2.28321e-20 -0.0161641)
(-0.0437753 -0.00350348 -2.14421e-20 0.0592016 2.00405e-20 -0.0154263)
(-0.0413539 -0.00324051 -2.18154e-20 0.0559299 1.9691e-20 -0.014576)
(-0.0390355 -0.00298775 -2.13321e-20 0.0526448 1.90414e-20 -0.0136093)
(-0.036816 -0.00274774 -1.03468e-20 0.0493381 1.02236e-20 -0.0125221)
(-0.0346917 -0.00252338 3.46154e-21 0.0460016 2.43974e-21 -0.0113099)
(-0.0326608 -0.00231874 -6.15625e-21 0.0426288 1.03742e-20 -0.00996806)
(-0.030724 -0.00213742 -1.51032e-20 0.0392153 1.3128e-20 -0.00849122)
(-0.0288883 -0.00198328 -2.13584e-20 0.035762 1.36588e-20 -0.00687368)
(-0.0271687 -0.001853 -6.7131e-21 0.0322778 1.49342e-20 -0.00510916)
(-0.0255984 -0.00173352 -7.52644e-21 0.028789 9.41771e-21 -0.00319055)
(-0.024233 -0.00157571 -4.60245e-21 0.0253432 3.96476e-21 -0.0011102)
(-0.136284 -0.00711531 1.4371e-21 0.137244 -1.89783e-21 -0.000959856)
(-0.140195 -0.0100479 1.58494e-21 0.142887 -3.28863e-21 -0.00269256)
(-0.141314 -0.0121174 -3.09365e-23 0.145609 -4.55674e-21 -0.0042949)
(-0.140469 -0.0135488 1.36441e-21 0.14625 -5.52012e-21 -0.00578122)
(-0.138245 -0.0145037 1.5148e-21 0.145408 -4.67517e-21 -0.0071629)
(-0.135065 -0.0151002 2.57878e-21 0.143513 -2.58434e-21 -0.00844869)
(-0.131232 -0.015426 2.09465e-21 0.140877 -1.74553e-21 -0.00964558)
(-0.126969 -0.0155468 3.70266e-21 0.137728 3.64848e-22 -0.0107588)
(-0.122438 -0.0155123 4.28622e-21 0.134231 2.21439e-21 -0.0117925)
(-0.117759 -0.0153602 -2.46551e-21 0.130508 1.02497e-22 -0.0127496)
(-0.113018 -0.0151194 -5.34354e-21 0.12665 -1.18898e-21 -0.0136321)
(-0.108279 -0.0148122 -9.05631e-22 0.12272 -1.11586e-21 -0.0144414)
(-0.103588 -0.0144556 2.99465e-21 0.118766 5.74681e-22 -0.0151782)
(-0.0989781 -0.0140628 1.10138e-21 0.114821 8.18049e-21 -0.0158425)
(-0.0944735 -0.013644 -4.4549e-21 0.110908 1.85768e-20 -0.016434)
(-0.0900904 -0.0132071 -4.98158e-21 0.107042 2.18378e-20 -0.0169519)
(-0.0858398 -0.012758 6.84647e-22 0.103235 2.114e-20 -0.017395)
(-0.0817285 -0.0123016 -1.00596e-20 0.0994905 1.79968e-20 -0.017762)
(-0.0777606 -0.0118413 -6.47574e-21 0.0958117 1.25336e-20 -0.018051)
(-0.0739378 -0.0113799 -1.85513e-20 0.0921979 1.4184e-20 -0.0182601)
(-0.07026 -0.0109197 -2.24408e-20 0.0886471 1.39434e-20 -0.0183871)
(-0.0667258 -0.0104623 -2.35598e-20 0.0851555 1.72536e-20 -0.0184297)
(-0.0633329 -0.010009 -2.00955e-20 0.0817181 2.04236e-20 -0.0183852)
(-0.0600783 -0.00956085 -2.22617e-20 0.0783294 2.63843e-20 -0.018251)
(-0.0569584 -0.00911885 -1.03177e-20 0.0749828 3.47394e-20 -0.0180244)
(-0.0539692 -0.00868383 -1.07335e-20 0.0716713 4.11497e-20 -0.0177021)
(-0.0511063 -0.00825663 -1.171e-20 0.0683877 4.40921e-20 -0.0172814)
(-0.0483653 -0.00783819 -2.17898e-20 0.0651242 3.77468e-20 -0.0167588)
(-0.0457415 -0.00742965 -2.05746e-20 0.0618728 3.14985e-20 -0.0161312)
(-0.0432305 -0.00703236 -1.96004e-20 0.0586254 2.84301e-20 -0.0153949)
(-0.0408275 -0.00664816 -1.5232e-20 0.0553739 3.01648e-20 -0.0145463)
(-0.0385287 -0.00627927 -1.74987e-20 0.0521102 3.65703e-20 -0.0135815)
(-0.0363302 -0.00592881 -2.51221e-20 0.0488267 2.67438e-20 -0.0124965)
(-0.0342299 -0.00560023 -1.08175e-20 0.0455167 8.1043e-21 -0.0112868)
(-0.0322273 -0.00529816 2.88651e-21 0.0421748 2.21963e-20 -0.00994759)
(-0.0303253 -0.00502613 -9.38972e-21 0.038799 2.32372e-20 -0.00847372)
(-0.0285319 -0.00478697 -1.21036e-20 0.0353914 2.62732e-20 -0.00685945)
(-0.0268631 -0.00457394 -2.40726e-21 0.0319616 2.72568e-20 -0.00509854)
(-0.0253461 -0.0043661 -6.51841e-21 0.02853 1.39611e-20 -0.00318388)
(-0.0240308 -0.00409692 -1.48344e-21 0.0251387 4.36845e-21 -0.00110789)
(-0.136497 -0.00995506 2.10798e-21 0.137453 -2.86609e-21 -0.000956867)
(-0.139991 -0.0140466 3.11157e-21 0.142676 -5.41189e-21 -0.00268418)
(-0.140802 -0.016939 1.01013e-21 0.145084 -4.44659e-21 -0.00428153)
(-0.139728 -0.0189448 2.06359e-21 0.145491 -6.1102e-21 -0.00576322)
(-0.137336 -0.0202885 3.09858e-21 0.144476 -2.62098e-21 -0.0071406)
(-0.134032 -0.0211343 4.42951e-21 0.142455 -2.97594e-21 -0.00842238)
(-0.130112 -0.0216039 3.31522e-21 0.139728 -2.35239e-21 -0.00961554)
(-0.12579 -0.021789 4.51609e-21 0.136515 -2.65108e-22 -0.0107253)
(-0.12122 -0.0217585 2.98457e-21 0.132976 5.29728e-22 -0.0117558)
(-0.116518 -0.021565 -5.25278e-21 0.129228 1.71064e-21 -0.0127098)
(-0.111767 -0.0212488 -6.11791e-21 0.125357 3.0193e-21 -0.0135897)
(-0.107028 -0.0208408 -2.13463e-21 0.121424 2.18079e-21 -0.0143964)
(-0.102344 -0.0203648 4.96213e-21 0.117475 1.37318e-21 -0.0151309)
(-0.097747 -0.0198392 1.17684e-20 0.11354 1.23557e-20 -0.0157931)
(-0.0932597 -0.0192782 1.20426e-20 0.109642 2.34602e-20 -0.0163827)
(-0.088897 -0.0186927 2.26329e-21 0.105796 2.68269e-20 -0.016899)
(-0.0846692 -0.0180912 3.5318e-21 0.10201 1.50152e-20 -0.0173408)
(-0.0805826 -0.0174803 -6.72615e-21 0.0982892 1.86272e-20 -0.0177066)
(-0.0766405 -0.0168649 -1.64061e-20 0.0946352 1.65575e-20 -0.0179947)
(-0.0728443 -0.0162491 -1.35802e-20 0.0910474 1.99681e-20 -0.0182031)
(-0.0691935 -0.0156357 -2.5313e-20 0.0875232 2.29898e-20 -0.0183298)
(-0.0656866 -0.0150271 -1.92302e-20 0.0840587 2.7612e-20 -0.0183722)
(-0.062321 -0.0144251 -1.46676e-20 0.0806488 3.00411e-20 -0.0183279)
(-0.0590936 -0.0138313 -4.72315e-21 0.0772877 3.37211e-20 -0.0181941)
(-0.0560007 -0.0132468 5.7805e-22 0.0739688 3.81282e-20 -0.0179681)
(-0.0530384 -0.0126726 8.3703e-21 0.0706853 4.38746e-20 -0.0176469)
(-0.0502021 -0.01211 1.47941e-21 0.0674296 4.87084e-20 -0.0172275)
(-0.0474878 -0.0115599 -1.82182e-20 0.0641943 4.74736e-20 -0.0167065)
(-0.0448907 -0.0110238 -2.34907e-20 0.0609715 4.2015e-20 -0.0160808)
(-0.0424067 -0.0105032 -2.26037e-20 0.0577535 4.4471e-20 -0.0153468)
(-0.0400316 -0.01 -6.91747e-21 0.0545325 3.90571e-20 -0.0145008)
(-0.0377621 -0.00951687 5.13115e-21 0.0513011 3.46242e-20 -0.013539)
(-0.0355954 -0.00905683 -2.58164e-20 0.0480527 3.77833e-20 -0.0124573)
(-0.0335306 -0.00862324 -2.75771e-20 0.0447819 3.23132e-20 -0.0112513)
(-0.0315684 -0.00822 2.19074e-20 0.0414847 3.69753e-20 -0.00991626)
(-0.0297137 -0.00784912 -7.6167e-22 0.0381607 2.87941e-20 -0.00844696)
(-0.0279744 -0.0075101 -3.39024e-21 0.0348122 2.7506e-20 -0.00683773)
(-0.0263655 -0.0071911 4.12922e-21 0.0314479 2.15505e-20 -0.00508235)
(-0.0249088 -0.00685964 -1.84806e-20 0.0280825 1.20404e-21 -0.00317375)
(-0.0236527 -0.00642538 -7.42161e-21 0.0247571 -6.94359e-21 -0.00110438)
(-0.136773 -0.0128579 2.34232e-21 0.137726 -2.80913e-21 -0.000952849)
(-0.139719 -0.0180583 3.81339e-21 0.142391 -4.31363e-21 -0.0026729)
(-0.140121 -0.0217357 3.12247e-21 0.144385 -5.633e-21 -0.00426355)
(-0.138744 -0.0242873 8.90574e-22 0.144483 -2.0431e-22 -0.00573901)
(-0.136129 -0.0259982 4.66654e-21 0.14324 9.32699e-22 -0.0071106)
(-0.132664 -0.0270771 4.66525e-21 0.141051 -3.24875e-21 -0.00838699)
(-0.128628 -0.0276787 4.55069e-21 0.138203 -2.2711e-21 -0.00957513)
(-0.124226 -0.0279193 6.78961e-21 0.134906 2.8746e-22 -0.0106802)
(-0.119605 -0.0278867 5.18201e-21 0.131311 2.90813e-21 -0.0117064)
(-0.114873 -0.0276477 -3.91611e-21 0.127529 8.93116e-21 -0.0126564)
(-0.110108 -0.0272535 -6.53098e-21 0.123641 1.01185e-20 -0.0135325)
(-0.105368 -0.0267434 -6.23375e-21 0.119704 1.00651e-20 -0.0143359)
(-0.100694 -0.0261477 3.51267e-21 0.115761 5.72257e-21 -0.0150673)
(-0.096114 -0.0254897 2.39876e-20 0.111841 9.21077e-21 -0.0157267)
(-0.0916492 -0.0247874 2.26563e-20 0.107963 1.59701e-20 -0.0163138)
(-0.0873135 -0.0240548 9.86577e-21 0.104141 1.52728e-20 -0.0168279)
(-0.0831158 -0.0233028 -7.50619e-21 0.100384 9.28779e-21 -0.0172678)
(-0.0790616 -0.0225395 -4.4435e-22 0.0966937 1.66186e-20 -0.0176321)
(-0.0751536 -0.0217715 -6.62177e-21 0.0930726 2.06623e-20 -0.017919)
(-0.0713925 -0.0210037 -9.4e-21 0.089519 2.49531e-20 -0.0181265)
(-0.0677774 -0.0202398 -2.07993e-20 0.08603 3.92061e-20 -0.0182526)
(-0.0643066 -0.0194829 -1.72931e-20 0.0826014 4.01732e-20 -0.0182948)
(-0.0609771 -0.0187352 -5.28252e-21 0.0792279 2.73782e-20 -0.0182507)
(-0.0577859 -0.0179987 -3.1127e-21 0.0759034 2.85816e-20 -0.0181175)
(-0.0547289 -0.0172747 2.43813e-21 0.0726214 4.32062e-20 -0.0178925)
(-0.0518023 -0.0165646 1.1337e-20 0.0693749 4.30317e-20 -0.0175726)
(-0.0490017 -0.0158696 1.9327e-20 0.0661566 3.78821e-20 -0.0171549)
(-0.046323 -0.0151911 -6.11694e-21 0.0629592 4.56786e-20 -0.0166361)
(-0.0437618 -0.0145304 -1.5358e-20 0.0597749 4.69951e-20 -0.016013)
(-0.0413144 -0.0138891 -5.49278e-22 0.0565964 4.08488e-20 -0.015282)
(-0.038977 -0.0132694 2.71423e-22 0.0534166 1.59711e-20 -0.0144396)
(-0.036747 -0.0126734 8.2182e-21 0.0502288 3.72077e-21 -0.0134818)
(-0.0346226 -0.012104 9.27028e-21 0.0470272 1.37493e-20 -0.0124046)
(-0.0326039 -0.0115635 -2.97647e-21 0.0438075 2.58753e-20 -0.0112036)
(-0.0306927 -0.0110544 3.05008e-20 0.0405668 1.71065e-20 -0.00987417)
(-0.0288942 -0.0105762 1.09151e-20 0.0373053 -9.36428e-21 -0.00841105)
(-0.0272157 -0.0101243 1.31812e-20 0.0340243 -1.79933e-20 -0.00680861)
(-0.0256697 -0.00968201 3.8078e-21 0.0307304 -2.165e-20 -0.00506068)
(-0.0242753 -0.0092058 -3.64915e-20 0.0274356 -2.68639e-20 -0.00316021)
(-0.0230872 -0.00858096 -1.88535e-20 0.0241869 -1.32044e-20 -0.00109967)
(-0.137106 -0.0158414 2.99858e-21 0.138053 -1.62196e-21 -0.000947804)
(-0.139373 -0.0220865 3.69208e-21 0.142032 3.57638e-22 -0.00265875)
(-0.139273 -0.0265006 3.56159e-21 0.143514 -9.57374e-22 -0.00424096)
(-0.137523 -0.0295616 6.17271e-21 0.143231 3.9046e-21 -0.00570861)
(-0.134633 -0.0316123 3.4947e-21 0.141706 4.71698e-21 -0.00707293)
(-0.130968 -0.0329037 -1.17977e-21 0.13931 3.81565e-21 -0.00834256)
(-0.12679 -0.0336222 3.10602e-21 0.136314 2.32258e-21 -0.0095244)
(-0.12229 -0.0339073 9.04904e-21 0.132914 1.06386e-21 -0.0106236)
(-0.117605 -0.0338648 1.22134e-20 0.12925 2.00315e-21 -0.0116443)
(-0.112836 -0.0335751 3.14914e-21 0.125426 1.32845e-20 -0.0125894)
(-0.108055 -0.0330997 -6.1398e-21 0.121516 1.82203e-20 -0.0134608)
(-0.103315 -0.0324857 -6.62927e-21 0.117574 1.81182e-20 -0.0142599)
(-0.0986515 -0.0317697 -3.16405e-21 0.113639 1.13811e-20 -0.0149874)
(-0.0940926 -0.0309797 2.14179e-20 0.109736 4.51788e-21 -0.0156433)
(-0.0896558 -0.0301374 3.28075e-20 0.105883 4.98208e-22 -0.0162274)
(-0.0853534 -0.0292596 1.2695e-20 0.102092 -1.55945e-21 -0.0167387)
(-0.081193 -0.0283592 -1.72654e-21 0.0983692 7.46748e-21 -0.0171763)
(-0.0771789 -0.0274463 1.10154e-20 0.0947174 8.59768e-21 -0.0175386)
(-0.0733129 -0.0265286 5.89739e-21 0.0911369 7.86872e-21 -0.017824)
(-0.0695953 -0.0256119 1.23195e-20 0.0876257 1.48075e-20 -0.0180304)
(-0.0660245 -0.0247009 1.38249e-20 0.0841803 2.92923e-20 -0.0181558)
(-0.0625984 -0.0237992 -2.0345e-21 0.0807962 2.37823e-20 -0.0181978)
(-0.0593139 -0.0229094 -2.21066e-20 0.0774678 1.64097e-20 -0.0181539)
(-0.0561675 -0.0220338 7.29647e-21 0.0741889 2.36625e-20 -0.0180214)
(-0.0531553 -0.021174 3.87504e-20 0.0709528 2.94468e-20 -0.0177975)
(-0.0502734 -0.0203317 2.06573e-20 0.0677527 2.99016e-20 -0.0174793)
(-0.0475173 -0.019508 2.33122e-20 0.0645812 1.28657e-20 -0.0170638)
(-0.0448834 -0.0187045 2.22646e-20 0.0614311 2.65352e-20 -0.0165477)
(-0.0423673 -0.0179224 -4.79163e-21 0.0582952 3.6171e-20 -0.0159279)
(-0.0399658 -0.0171634 -1.83279e-20 0.0551665 1.63232e-20 -0.0152007)
(-0.0376756 -0.0164291 -3.28162e-20 0.0520383 -1.61387e-20 -0.0143627)
(-0.0354949 -0.0157216 -7.25379e-21 0.0489049 -1.47649e-20 -0.0134099)
(-0.0334225 -0.0150425 1.54064e-20 0.0457609 -1.84594e-20 -0.0123385)
(-0.0314592 -0.0143932 9.60195e-21 0.042603 -8.52422e-21 -0.0111438)
(-0.029607 -0.0137738 2.66528e-20 0.0394284 -3.78324e-20 -0.0098214)
(-0.0278709 -0.0131817 -3.3958e-20 0.036237 -5.28937e-20 -0.00836605)
(-0.0262566 -0.0126087 -1.98683e-20 0.0330287 -5.3901e-20 -0.00677215)
(-0.0247744 -0.0120342 1.50082e-21 0.0298079 -6.31084e-20 -0.00503357)
(-0.0234438 -0.0114062 -2.90699e-20 0.0265871 -5.72493e-20 -0.00314328)
(-0.0223329 -0.0105877 -1.47292e-20 0.0234267 -1.06085e-20 -0.00109379)
(-0.137483 -0.0189217 4.47618e-21 0.138425 2.60544e-23 -0.000941738)
(-0.138953 -0.0261343 7.1115e-21 0.141594 4.69869e-23 -0.00264173)
(-0.138259 -0.031227 5.20159e-21 0.142473 2.54012e-21 -0.00421381)
(-0.136069 -0.0347536 7.40404e-21 0.141741 7.13969e-21 -0.00567206)
(-0.132855 -0.0371111 6.98254e-21 0.139883 6.02158e-21 -0.00702764)
(-0.128955 -0.0385903 3.67662e-21 0.137244 4.99159e-21 -0.00828913)
(-0.12461 -0.0394073 4.08241e-21 0.134074 2.1357e-21 -0.00946341)
(-0.119995 -0.0397237 6.36757e-21 0.130551 1.98713e-21 -0.0105556)
(-0.115236 -0.039662 1.34009e-20 0.126806 2.12304e-21 -0.0115698)
(-0.110424 -0.0393152 1.84531e-20 0.122933 8.44028e-21 -0.0125087)
(-0.105624 -0.0387545 9.62184e-21 0.118998 1.16072e-20 -0.0133746)
(-0.100883 -0.0380346 -1.31093e-21 0.115051 1.51226e-20 -0.0141686)
(-0.0962336 -0.0371977 -1.087e-20 0.111125 1.55139e-20 -0.0148914)
(-0.0916996 -0.0362763 6.55712e-21 0.107243 7.75475e-21 -0.0155431)
(-0.0872961 -0.0352954 2.52414e-20 0.103419 -1.24837e-20 -0.0161234)
(-0.0830333 -0.0342745 1.67094e-20 0.0996647 -1.33546e-20 -0.0166314)
(-0.0789171 -0.0332285 1.62265e-20 0.0959832 -9.41498e-21 -0.0170662)
(-0.0749506 -0.0321691 1.47617e-20 0.0923768 -1.30873e-20 -0.0174262)
(-0.0711347 -0.0311051 1.46699e-20 0.0888444 -2.35629e-20 -0.0177097)
(-0.0674686 -0.0300433 2.61012e-20 0.0853835 -1.5925e-20 -0.0179148)
(-0.0639505 -0.0289892 2.61821e-20 0.0819899 -4.36395e-21 -0.0180394)
(-0.0605776 -0.0279467 -4.8159e-21 0.0786587 -2.00579e-21 -0.0180811)
(-0.0573465 -0.0269189 -1.79681e-20 0.075384 1.43127e-20 -0.0180375)
(-0.0542536 -0.0259085 9.19402e-21 0.0721594 1.22958e-20 -0.0179058)
(-0.0512948 -0.0249171 3.49517e-20 0.0689782 -2.3321e-21 -0.0176834)
(-0.0484662 -0.0239466 3.47898e-20 0.0658334 -7.29235e-21 -0.0173671)
(-0.0457636 -0.0229983 1.64792e-20 0.0627179 -1.84451e-20 -0.0169543)
(-0.0431832 -0.0220735 4.85188e-20 0.0596246 -6.1489e-21 -0.0164415)
(-0.0407211 -0.0211735 4.58092e-21 0.0565467 3.43758e-20 -0.0158256)
(-0.0383746 -0.0202996 -4.35802e-20 0.0534776 2.0305e-20 -0.015103)
(-0.0361407 -0.0194531 -8.91106e-20 0.050411 2.03953e-20 -0.0142703)
(-0.0340182 -0.0186352 -2.416e-20 0.0473418 1.16331e-20 -0.0133236)
(-0.0320061 -0.0178465 -1.03004e-20 0.0442651 -8.90067e-21 -0.012259)
(-0.0301058 -0.0170871 -2.13155e-20 0.0411777 4.0552e-21 -0.011072)
(-0.0283188 -0.016355 -4.05586e-20 0.0380769 -2.91954e-20 -0.00975804)
(-0.0266493 -0.0156456 -4.39611e-20 0.0349613 -3.39283e-20 -0.00831204)
(-0.0251012 -0.0149483 -4.33795e-20 0.0318296 -2.96867e-20 -0.00672841)
(-0.0236834 -0.01424 -5.32648e-20 0.0286845 -4.22078e-20 -0.00500105)
(-0.0224192 -0.0134626 -5.75037e-20 0.0255422 -3.04312e-20 -0.00312298)
(-0.0213955 -0.0124596 7.02855e-21 0.0224822 6.61689e-21 -0.00108673)
(-0.137894 -0.0221139 4.74814e-21 0.138828 1.87154e-21 -0.000934656)
(-0.138452 -0.0302046 9.10197e-21 0.141074 -6.83093e-22 -0.00262186)
(-0.137081 -0.0359085 8.94477e-21 0.141264 2.83889e-21 -0.00418212)
(-0.13439 -0.0398496 1.20137e-20 0.14002 5.21415e-21 -0.00562939)
(-0.130808 -0.0424756 9.84285e-21 0.137783 -1.96458e-22 -0.00697477)
(-0.12664 -0.0441142 4.04286e-21 0.134867 -1.02007e-21 -0.00822678)
(-0.122105 -0.0450085 1.51331e-21 0.131497 1.58474e-21 -0.00939222)
(-0.11736 -0.0453408 8.05261e-21 0.127836 1.4471e-21 -0.0104762)
(-0.112516 -0.0452489 1.32815e-20 0.123999 3.44265e-21 -0.0114827)
(-0.107655 -0.0448376 1.87678e-20 0.120069 2.97736e-21 -0.0124146)
(-0.102833 -0.0441871 4.55481e-21 0.116107 9.91982e-21 -0.0132739)
(-0.0980923 -0.0433589 5.55057e-21 0.112154 9.99981e-21 -0.0140619)
(-0.0934597 -0.0424004 -7.38322e-21 0.108239 1.6808e-20 -0.0147793)
(-0.0889547 -0.0413481 4.75451e-22 0.104381 7.61006e-21 -0.0154261)
(-0.0845898 -0.0402303 2.24983e-21 0.100592 -1.23688e-20 -0.016002)
(-0.0803727 -0.0390688 8.66668e-21 0.0968789 -1.45377e-20 -0.0165062)
(-0.0763075 -0.0378803 1.99484e-21 0.0932453 -1.78497e-20 -0.0169377)
(-0.072396 -0.0366779 4.30891e-21 0.089691 -2.81582e-20 -0.017295)
(-0.0686377 -0.0354716 -1.38333e-20 0.0862141 -3.50224e-20 -0.0175764)
(-0.0650312 -0.034269 1.71471e-20 0.0828111 -2.48575e-20 -0.0177799)
(-0.0615738 -0.0330761 3.48123e-20 0.0794773 -1.95512e-20 -0.0179036)
(-0.0582622 -0.0318975 9.80508e-21 0.0762072 -1.00925e-20 -0.0179449)
(-0.0550928 -0.0307364 2.41473e-21 0.0729945 7.04976e-21 -0.0179016)
(-0.0520617 -0.0295958 -1.03433e-20 0.0698326 7.34889e-21 -0.0177709)
(-0.0491647 -0.0284775 6.43812e-21 0.0667148 -1.15916e-20 -0.0175501)
(-0.0463979 -0.0273834 1.99441e-20 0.0636341 -3.3228e-20 -0.0172362)
(-0.043757 -0.0263148 -7.53648e-21 0.0605835 -1.82247e-20 -0.0168265)
(-0.0412386 -0.0252728 4.87724e-20 0.0575561 -2.61458e-21 -0.0163175)
(-0.0388391 -0.0242586 8.77067e-20 0.0545453 2.05234e-20 -0.0157062)
(-0.0365559 -0.023273 -1.94726e-21 0.0515449 5.87443e-21 -0.014989)
(-0.0343864 -0.0223167 -3.8808e-20 0.048549 3.30662e-20 -0.0141626)
(-0.0323298 -0.0213901 -4.76921e-20 0.0455528 2.97002e-20 -0.0132229)
(-0.0303853 -0.0204927 -3.45103e-20 0.0425516 2.66824e-20 -0.0121663)
(-0.028554 -0.0196232 1.72962e-20 0.0395422 1.89753e-20 -0.0109882)
(-0.026837 -0.0187781 -5.70571e-20 0.0365212 1.14166e-20 -0.00968418)
(-0.0252371 -0.0179514 -7.45182e-20 0.0334862 1.53475e-20 -0.0082491)
(-0.0237572 -0.0171308 -6.02921e-20 0.0304346 3.17702e-20 -0.00667745)
(-0.0224056 -0.0162922 -5.65676e-20 0.0273687 1.50119e-20 -0.00496318)
(-0.0212114 -0.0153732 -3.4757e-20 0.0243107 -4.28316e-22 -0.00309933)
(-0.0202851 -0.0142 1.32686e-20 0.0213636 1.13094e-20 -0.00107851)
(-0.138323 -0.0254316 3.75518e-21 0.139249 4.39129e-21 -0.000926568)
(-0.137866 -0.0342994 9.36115e-21 0.140466 7.50974e-22 -0.00259917)
(-0.135743 -0.0405384 1.19697e-20 0.139889 5.51386e-22 -0.00414592)
(-0.132495 -0.0448368 1.38434e-20 0.138075 -5.33169e-22 -0.00558066)
(-0.128503 -0.0476882 5.04714e-21 0.135417 7.66786e-23 -0.00691439)
(-0.124037 -0.0494538 5.47456e-22 0.132193 2.94163e-21 -0.00815555)
(-0.119291 -0.0504015 4.44013e-21 0.128602 5.57583e-22 -0.0093109)
(-0.114401 -0.0507324 7.22785e-21 0.124787 3.02728e-23 -0.0103855)
(-0.109465 -0.0505982 1.26702e-20 0.120848 5.49492e-21 -0.0113833)
(-0.10455 -0.0501141 1.6646e-20 0.116857 9.37204e-21 -0.0123071)
(-0.0997059 -0.0493686 5.01323e-21 0.112865 2.36776e-20 -0.013159)
(-0.0949658 -0.0484293 -6.49407e-21 0.108906 2.35218e-20 -0.0139402)
(-0.0903524 -0.0473483 -9.93498e-21 0.105004 2.32514e-20 -0.0146513)
(-0.0858805 -0.0461659 -2.00084e-20 0.101173 1.73342e-20 -0.0152925)
(-0.0815594 -0.044913 -1.84303e-20 0.0974228 4.21169e-21 -0.0158634)
(-0.077394 -0.0436135 5.09427e-21 0.0937573 -8.5336e-21 -0.0163633)
(-0.0733865 -0.042286 -6.76876e-21 0.0901775 -9.71939e-21 -0.016791)
(-0.069537 -0.0409447 -8.43273e-21 0.0866821 -2.71393e-20 -0.0171451)
(-0.0658437 -0.0396005 -2.53229e-20 0.0832678 -1.65907e-20 -0.0174241)
(-0.0623043 -0.0382619 2.81046e-21 0.0799302 -2.42178e-21 -0.0176259)
(-0.0589153 -0.0369352 2.04944e-20 0.0766637 -6.73491e-21 -0.0177485)
(-0.0556729 -0.0356254 9.65258e-21 0.0734624 -2.38058e-21 -0.0177894)
(-0.0525731 -0.0343362 1.94535e-20 0.0703196 -4.70542e-21 -0.0177465)
(-0.0496118 -0.0330705 6.99074e-22 0.0672286 3.02382e-21 -0.0176168)
(-0.0467845 -0.0318304 -2.20835e-20 0.0641824 -3.4368e-21 -0.0173979)
(-0.0440873 -0.0306176 -7.12679e-21 0.0611741 -2.63474e-20 -0.0170867)
(-0.0415162 -0.0294334 1.41735e-21 0.0581967 1.56176e-20 -0.0166805)
(-0.0390677 -0.0282787 2.1733e-20 0.0552436 4.54762e-20 -0.0161758)
(-0.0367385 -0.0271543 4.68815e-20 0.0523083 3.41883e-20 -0.0155698)
(-0.0345261 -0.0260606 -3.13152e-20 0.0493849 1.68316e-20 -0.0148588)
(-0.0324284 -0.0249975 -1.09149e-20 0.0464679 1.53444e-20 -0.0140395)
(-0.0304444 -0.0239647 -6.8374e-21 0.0435524 7.29084e-21 -0.013108)
(-0.0285734 -0.0229606 -1.21745e-20 0.0406339 1.05639e-20 -0.0120605)
(-0.0268161 -0.0219828 1.659e-20 0.0377087 -2.75004e-20 -0.0108927)
(-0.0251729 -0.0210266 -1.65223e-20 0.0347729 1.04452e-20 -0.00959993)
(-0.0236455 -0.020085 -1.75979e-20 0.0318228 1.82181e-20 -0.00817732)
(-0.0222359 -0.0191455 1.26743e-21 0.0288552 2.39308e-20 -0.00661934)
(-0.020953 -0.0181831 -6.44228e-20 0.025873 7.57727e-21 -0.00491999)
(-0.0198336 -0.0171323 -1.00776e-19 0.022906 2.79184e-20 -0.00307237)
(-0.0190146 -0.0158049 1.83426e-20 0.0200838 2.39555e-20 -0.00106913)
(-0.138755 -0.028887 5.26763e-21 0.139672 -4.81048e-22 -0.00091748)
(-0.137191 -0.0384204 1.15299e-20 0.139765 -5.35609e-21 -0.00257367)
(-0.134247 -0.0451107 1.11747e-20 0.138352 2.77938e-22 -0.00410525)
(-0.130391 -0.0497031 1.07922e-20 0.135917 5.18337e-21 -0.00552592)
(-0.125952 -0.0527323 7.03905e-21 0.132799 4.92475e-21 -0.00684656)
(-0.121164 -0.0545892 9.76439e-21 0.12924 -5.02236e-21 -0.00807554)
(-0.116189 -0.0555642 3.34044e-21 0.125409 -4.47776e-21 -0.00921955)
(-0.111143 -0.0558745 7.87437e-21 0.121426 -1.27132e-21 -0.0102836)
(-0.106105 -0.0556843 1.22694e-20 0.117377 1.25278e-20 -0.0112716)
(-0.101134 -0.0551184 1.786e-20 0.11332 2.57874e-20 -0.0121864)
(-0.096266 -0.0542722 2.31397e-20 0.109296 3.12122e-20 -0.0130299)
(-0.0915282 -0.0532188 7.24989e-21 0.105332 2.9252e-20 -0.0138034)
(-0.0869369 -0.0520144 -8.8437e-21 0.101444 3.02926e-20 -0.0145076)
(-0.0825023 -0.0507026 -9.64037e-21 0.0976447 1.91136e-20 -0.0151424)
(-0.07823 -0.0493166 -2.63193e-20 0.0939378 1.14758e-20 -0.0157077)
(-0.0741222 -0.0478823 -1.81145e-20 0.0903249 4.10015e-21 -0.0162027)
(-0.0701788 -0.0464195 -1.0161e-20 0.086805 -2.54606e-21 -0.0166262)
(-0.0663979 -0.0449437 -2.46051e-20 0.0833748 -1.60844e-20 -0.0169768)
(-0.0627767 -0.0434664 -1.76489e-20 0.0800297 2.62732e-21 -0.017253)
(-0.0593116 -0.0419968 5.04776e-21 0.0767644 2.28232e-20 -0.0174528)
(-0.0559983 -0.0405417 5.36559e-21 0.0735724 2.26212e-20 -0.0175742)
(-0.0528326 -0.0391063 1.76962e-21 0.0704473 1.29208e-20 -0.0176147)
(-0.0498098 -0.0376945 3.25176e-21 0.0673819 -7.45265e-21 -0.0175722)
(-0.0469256 -0.0363093 1.68833e-20 0.0643694 -8.49242e-21 -0.0174438)
(-0.0441755 -0.0349529 -1.30453e-20 0.0614025 -4.26952e-21 -0.017227)
(-0.0415554 -0.0336268 -3.37904e-20 0.0584743 9.97424e-22 -0.0169188)
(-0.0390614 -0.032332 4.8362e-20 0.0555779 3.82463e-20 -0.0165165)
(-0.03669 -0.0310695 9.71227e-20 0.0527068 4.59447e-20 -0.0160168)
(-0.034438 -0.0298393 9.30672e-20 0.0498547 3.34247e-20 -0.0154167)
(-0.0323033 -0.0286415 -1.40533e-20 0.0470159 2.13683e-20 -0.0147127)
(-0.0302835 -0.0274754 -3.74434e-20 0.0441849 -4.20667e-21 -0.0139014)
(-0.0283779 -0.0263397 -3.85656e-20 0.0413569 -2.37451e-20 -0.012979)
(-0.0265854 -0.0252321 -1.19196e-20 0.0385272 -4.42943e-20 -0.0119418)
(-0.0249063 -0.0241493 -3.33888e-20 0.0356916 -4.03255e-20 -0.0107854)
(-0.0233403 -0.0230858 3.27485e-20 0.0328457 -3.12998e-21 -0.00950537)
(-0.0218881 -0.0220343 -3.04705e-20 0.0299849 -8.74912e-21 -0.00809677)
(-0.0205514 -0.020982 -5.78929e-21 0.0271055 5.43809e-21 -0.00655413)
(-0.0193407 -0.0199038 -3.88637e-20 0.0242122 3.42632e-20 -0.00487153)
(-0.0183012 -0.0187319 -1.83461e-20 0.0213433 6.79129e-20 -0.00304212)
(-0.0175988 -0.0172664 2.05147e-20 0.0186574 2.29825e-20 -0.0010586)
(-0.139172 -0.0324903 9.71424e-21 0.140079 -1.25228e-20 -0.000907404)
(-0.136421 -0.0425687 1.60686e-20 0.138966 -1.35508e-20 -0.0025454)
(-0.132596 -0.0496193 1.86479e-20 0.136656 -3.92828e-21 -0.00406016)
(-0.128089 -0.0544372 2.5057e-20 0.133554 -7.43904e-21 -0.00546522)
(-0.123173 -0.0575925 1.19615e-20 0.129944 -6.49527e-21 -0.00677134)
(-0.118039 -0.0595023 -1.74094e-21 0.126025 -5.99159e-21 -0.00798682)
(-0.112819 -0.060476 -4.09299e-22 0.121938 -1.67354e-21 -0.00911826)
(-0.107607 -0.060745 -3.39786e-21 0.117777 1.62501e-20 -0.0101706)
(-0.102463 -0.0604843 1.29521e-20 0.113611 3.00515e-20 -0.0111478)
(-0.0974319 -0.0598267 3.99598e-20 0.109484 2.18312e-20 -0.0120525)
(-0.0925405 -0.0588736 3.66546e-20 0.105427 1.8506e-20 -0.0128867)
(-0.0878066 -0.0577028 1.19844e-20 0.101458 2.42487e-20 -0.0136517)
(-0.0832405 -0.0563742 -5.15881e-21 0.0975887 3.13494e-20 -0.0143481)
(-0.0788475 -0.0549337 -2.86509e-20 0.0938236 2.39006e-20 -0.014976)
(-0.0746292 -0.0534168 -3.97209e-20 0.0901643 2.45993e-20 -0.0155351)
(-0.0705846 -0.0518509 -3.05278e-20 0.0866092 2.63499e-20 -0.0160246)
(-0.0667112 -0.050257 -2.83363e-20 0.0831547 1.18358e-20 -0.0164435)
(-0.0630055 -0.0486514 -4.72276e-20 0.0797957 1.24665e-20 -0.0167902)
(-0.0594629 -0.0470462 -2.21888e-20 0.0765263 2.80744e-20 -0.0170634)
(-0.0560788 -0.0454512 2.39332e-20 0.0733398 3.41427e-20 -0.017261)
(-0.0528482 -0.0438734 2.09711e-20 0.0702291 3.14075e-20 -0.017381)