/*--------------------------------*- C++ -*----------------------------------*\
| =========                 |                                                 |
| \\      /  F ield         | foam-extend: Open Source CFD                    |
|  \\    /   O peration     | Version:  3.0                                   |
|   \\  /    A nd           | Web:         http://www.extend-project.de       |
|    \\/     M anipulation  |                                                 |
\*---------------------------------------------------------------------------*/
FoamFile
{
    version     2.0;
    format      ascii;
    class       volVectorField;
    location    "2";
    object      u;
}
// * * * * * * * * * * * * * * * * * * * * * * * * * * * * * * * * * * * * * //

dimensions      [0 0 0 0 0 0 0];

internalField   nonuniform List<vector> 
7680
(
(0.0707856 -0.0293049 1.11913e-19)
(0.187575 -0.0259536 1.45375e-19)
(0.287532 -0.0231244 3.36821e-20)
(0.373198 -0.0206808 1.21042e-19)
(0.447224 -0.0185653 2.38635e-20)
(0.511148 -0.0167211 1.76275e-19)
(0.566853 -0.0151145 9.31471e-20)
(0.615303 -0.0137098 1.99431e-19)
(0.657878 -0.0124835 3.51097e-19)
(0.695155 -0.0114117 1.38479e-19)
(0.728178 -0.0104769 8.78862e-20)
(0.757263 -0.0096625 1.08386e-19)
(0.783229 -0.00895487 6.09087e-20)
(0.806212 -0.00834302 -1.21685e-19)
(0.826882 -0.00781587 2.87095e-19)
(0.845248 -0.00736724 4.22769e-19)
(0.861884 -0.00698797 3.81376e-19)
(0.876707 -0.00667584 1.81694e-19)
(0.890231 -0.00642289 2.01061e-19)
(0.902301 -0.0062303 -3.35775e-19)
(0.913398 -0.00609062 5.07608e-20)
(0.923309 -0.00600821 1.13264e-19)
(0.932501 -0.00597551 2.2729e-19)
(0.940704 -0.00599999 1.36444e-19)
(0.948391 -0.00607357 1.92211e-19)
(0.955239 -0.00620674 4.75062e-19)
(0.961733 -0.00639066 6.63861e-19)
(0.967499 -0.0066385 2.1297e-19)
(0.973042 -0.00694068 2.09407e-20)
(0.977939 -0.00731196 1.86235e-19)
(0.98271 -0.00774225 3.82511e-19)
(0.986891 -0.00824427 3.54148e-19)
(0.990997 -0.00880689 7.8399e-20)
(0.994532 -0.00942755 -5.70668e-19)
(0.997942 -0.0100841 -1.95215e-19)
(1.0007 -0.010702 8.72133e-20)
(1.00302 -0.0111722 7.38695e-19)
(1.00432 -0.0110743 2.73029e-19)
(1.0042 -0.00976298 1.39158e-19)
(1.00231 -0.00524436 1.86439e-19)
(0.0748841 -0.0924996 4.73803e-20)
(0.19123 -0.0825753 -2.02394e-19)
(0.290826 -0.0740371 5.02695e-20)
(0.376178 -0.0665698 1.90866e-19)
(0.449928 -0.060025 -3.01304e-20)
(0.51361 -0.054269 -4.51532e-20)
(0.569103 -0.0492167 -3.38702e-20)
(0.617366 -0.0447688 1.75788e-19)
(0.659776 -0.0408599 1.773e-20)
(0.696909 -0.0374147 2.46782e-21)
(0.729804 -0.034383 1.20726e-19)
(0.758777 -0.0317079 2.15592e-19)
(0.784643 -0.0293502 2.84752e-19)
(0.807539 -0.0272684 1.95706e-19)
(0.828131 -0.0254321 5.25483e-19)
(0.846429 -0.0238125 7.17268e-19)
(0.863004 -0.022386 6.14609e-19)
(0.877773 -0.0211343 -6.21658e-20)
(0.891247 -0.0200378 -2.35376e-19)
(0.903273 -0.019087 -4.15481e-19)
(0.91433 -0.0182644 2.44323e-19)
(0.924204 -0.0175676 3.27339e-19)
(0.93336 -0.0169802 2.24856e-19)
(0.941531 -0.0165057 5.23531e-20)
(0.949184 -0.0161278 1.1476e-18)
(0.955998 -0.0158551 6.0415e-19)
(0.962455 -0.015671 2.87643e-19)
(0.968181 -0.0155873 -5.12908e-21)
(0.973677 -0.0155876 1.82242e-19)
(0.978516 -0.0156828 3.41842e-19)
(0.983218 -0.0158576 5.39717e-19)
(0.987306 -0.0161111 1.07079e-18)
(0.991298 -0.0164274 9.25191e-19)
(0.994673 -0.016762 -5.71973e-19)
(0.997897 -0.0170824 -2.93035e-19)
(1.00041 -0.0171937 -2.91641e-19)
(1.00251 -0.0169646 1.25906e-18)
(1.00359 -0.0156935 3.73174e-19)
(1.00362 -0.0128248 3.57498e-19)
(1.00199 -0.00603745 9.12846e-19)
(0.0830917 -0.155307 1.90642e-19)
(0.198583 -0.138846 -2.81957e-19)
(0.297445 -0.124639 3.67697e-19)
(0.382151 -0.112175 -2.72105e-20)
(0.455331 -0.101229 4.0466e-19)
(0.518512 -0.0915854 5.6048e-21)
(0.573564 -0.0831099 3.87895e-20)
(0.62144 -0.0756384 1.54246e-20)
(0.663509 -0.0690646 -9.54818e-19)
(0.70034 -0.0632615 -4.86737e-19)
(0.73297 -0.0581465 4.74659e-19)
(0.761708 -0.0536224 3.62733e-19)
(0.787366 -0.0496252 3.04564e-20)
(0.810076 -0.0460823 3.07596e-19)
(0.830503 -0.0429449 9.21357e-19)
(0.848653 -0.0401613 1.29427e-18)
(0.865095 -0.0376937 -5.23243e-19)
(0.879744 -0.0355073 6.38368e-19)
(0.89311 -0.0335718 -6.99424e-19)
(0.905037 -0.0318657 8.49724e-20)
(0.916003 -0.0303631 2.37331e-19)
(0.925791 -0.0290531 7.95157e-19)
(0.934867 -0.0279118 4.40457e-19)
(0.94296 -0.0269374 1.57799e-18)
(0.950537 -0.0261064 5.17609e-19)
(0.957274 -0.0254241 8.18031e-19)
(0.963651 -0.0248665 1.54135e-19)
(0.96929 -0.0244432 7.97512e-19)
(0.974691 -0.0241297 5.13663e-19)
(0.979419 -0.0239334 6.2303e-19)
(0.983992 -0.0238293 5.1217e-19)
(0.98792 -0.0238067 2.26606e-19)
(0.991727 -0.0238372 1.19574e-18)
(0.994864 -0.0238493 1.62059e-18)
(0.997836 -0.0237926 7.68646e-20)
(1.00004 -0.0234173 1.31465e-19)
(1.00192 -0.0225731 9.63614e-19)
(1.00283 -0.0204806 -1.67117e-19)
(1.00314 -0.0165116 -1.27442e-19)
(1.00182 -0.00796727 -2.6548e-19)
(0.0953832 -0.217444 2.07736e-19)
(0.209593 -0.19451 -3.83429e-19)
(0.307352 -0.174691 1.81086e-19)
(0.391085 -0.157288 3.23307e-19)
(0.463412 -0.141987 5.81774e-19)
(0.525839 -0.128498 -8.95044e-20)
(0.580229 -0.116634 1.38582e-19)
(0.627519 -0.10617 2.64558e-19)
(0.669072 -0.096958 -2.73234e-19)
(0.705446 -0.0888206 4.9743e-19)
(0.737672 -0.0816432 8.06656e-19)
(0.766051 -0.0752887 7.0611e-19)
(0.791391 -0.0696684 6.73198e-19)
(0.813818 -0.0646793 2.29674e-19)
(0.833991 -0.0602537 -9.60779e-19)
(0.851913 -0.0563175 -3.18736e-19)
(0.86815 -0.0528187 -1.20323e-18)
(0.882614 -0.0497065 -6.74642e-19)
(0.895811 -0.0469393 1.05791e-18)
(0.907583 -0.0444845 -2.31371e-19)
(0.918406 -0.0423064 1.23184e-18)
(0.928062 -0.0403873 8.6488e-19)
(0.937013 -0.0386942 8.10652e-19)
(0.944986 -0.0372211 1.6949e-20)
(0.952446 -0.0359355 1.68165e-19)
(0.959067 -0.0348408 -6.05418e-19)
(0.965326 -0.0339035 -1.22611e-18)
(0.97084 -0.033132 -7.87184e-20)
(0.976109 -0.0324913 6.40351e-19)
(0.980688 -0.0319866 1.41082e-18)
(0.9851 -0.0315802 8.65507e-19)
(0.988838 -0.0312565 -1.95512e-18)
(0.992442 -0.0309701 -3.75107e-19)
(0.995339 -0.0306429 3.79871e-18)
(0.998084 -0.0302045 -1.08057e-18)
(1.00005 -0.0294145 -5.17639e-19)
(1.00182 -0.0281034 3.69491e-19)
(1.0027 -0.0255425 -1.93899e-18)
(1.0033 -0.020856 -4.35614e-19)
(1.00211 -0.010751 1.9347e-19)
(0.111709 -0.278656 6.60641e-19)
(0.224219 -0.24935 5.48032e-19)
(0.32051 -0.224005 -1.59046e-19)
(0.402949 -0.201732 1.74055e-18)
(0.474136 -0.182141 5.61125e-19)
(0.535557 -0.164864 6.52403e-20)
(0.589061 -0.149664 2.80702e-19)
(0.635569 -0.136253 2.32329e-19)
(0.676434 -0.124444 -1.87894e-19)
(0.712198 -0.114008 5.33387e-19)
(0.743885 -0.104799 8.12511e-19)
(0.771786 -0.0966421 1.12703e-18)
(0.7967 -0.089423 1.64563e-18)
(0.818747 -0.0830091 -5.35523e-19)
(0.838581 -0.0773142 -1.58455e-18)
(0.856198 -0.0722419 -2.25956e-18)
(0.872161 -0.0677264 7.8655e-19)
(0.886375 -0.0637007 -5.05807e-19)
(0.899346 -0.0601124 -7.21094e-20)
(0.910912 -0.0569175 -1.34002e-19)
(0.921543 -0.0540714 1.16727e-18)
(0.931022 -0.0515483 8.86275e-19)
(0.939805 -0.0493071 -5.84661e-19)
(0.94762 -0.047337 3.91031e-19)
(0.954928 -0.0455968 8.83505e-19)
(0.961398 -0.0440873 5.12831e-19)
(0.967508 -0.0427653 -1.93599e-18)
(0.972869 -0.0416385 -8.37104e-19)
(0.977981 -0.0406596 5.74264e-19)
(0.982394 -0.0398347 -1.66709e-18)
(0.986633 -0.0391098 -1.51941e-18)
(0.990183 -0.0384727 -1.35787e-18)
(0.9936 -0.0378574 -2.99816e-18)
(0.996302 -0.0371993 5.75378e-19)
(0.99889 -0.0364063 -3.08521e-18)
(1.00072 -0.0352901 -2.52227e-18)
(1.00249 -0.0336537 -2.35985e-18)
(1.00343 -0.030858 -3.846e-18)
(1.00421 -0.0256595 -3.45768e-19)
(1.00286 -0.0139545 1.94453e-18)
(0.132 -0.338664 9.05421e-19)
(0.242396 -0.303108 8.75586e-19)
(0.336857 -0.272345 1.42599e-18)
(0.417686 -0.245299 3.52431e-19)
(0.487456 -0.221503 3.53797e-19)
(0.547626 -0.200511 1.64861e-18)
(0.600028 -0.18204 1.11873e-18)
(0.645563 -0.165739 3.67061e-19)
(0.685569 -0.151381 -6.28281e-19)
(0.720573 -0.13869 -3.79179e-19)
(0.751587 -0.127489 8.19651e-19)
(0.778889 -0.117563 3.62328e-19)
(0.803272 -0.108775 1.91344e-18)
(0.824844 -0.100963 5.24894e-19)
(0.844254 -0.0940229 -2.57746e-18)
(0.861489 -0.0878355 -2.06988e-18)
(0.877107 -0.0823217 5.31834e-19)
(0.89101 -0.0773988 -1.62195e-18)
(0.903698 -0.0730035 -1.0358e-18)
(0.915004 -0.0690808 -1.27442e-18)
(0.925397 -0.0655766 -2.90529e-18)
(0.934655 -0.0624583 -3.18623e-18)
(0.943232 -0.0596752 1.11245e-18)
(0.950852 -0.0572129 1.07376e-18)
(0.957973 -0.0550204 -2.931e-18)
(0.964264 -0.0530971 -1.69623e-18)
(0.970199 -0.0513888 -1.3023e-18)
(0.975386 -0.049904 -2.59996e-18)
(0.980326 -0.048582 -1.17307e-18)
(0.984564 -0.0474325 -1.8433e-18)
(0.988632 -0.0463849 1.0872e-18)
(0.992009 -0.0454364 1.25628e-18)
(0.99527 -0.0445011 -1.30579e-18)
(0.997828 -0.0435409 -9.59172e-22)
(1.00032 -0.0424435 -4.78806e-18)
(1.00211 -0.0410889 4.37883e-19)
(1.00392 -0.0392443 1.60837e-18)
(1.00497 -0.0363362 -2.4393e-18)
(1.00578 -0.0307 6.0428e-20)
(1.00395 -0.017263 2.1642e-18)
(0.156173 -0.397225 1.17104e-18)
(0.26405 -0.355575 -5.21035e-19)
(0.356331 -0.319526 8.19562e-19)
(0.435239 -0.287821 8.03249e-19)
(0.503318 -0.259921 -2.97947e-19)
(0.561994 -0.235305 -4.77571e-19)
(0.613081 -0.213641 -1.29828e-19)
(0.657454 -0.19452 6.52001e-19)
(0.696435 -0.177676 6.43292e-19)
(0.730531 -0.162785 -1.79537e-18)
(0.760743 -0.14964 -1.85724e-18)
(0.787332 -0.137988 -1.42477e-18)
(0.811081 -0.12767 1.57425e-18)
(0.832086 -0.118493 1.62761e-18)
(0.850989 -0.110336 -1.06319e-18)
(0.867769 -0.10306 -1.16228e-18)
(0.882977 -0.0965704 -1.71242e-18)
(0.896508 -0.0907704 -2.32763e-18)
(0.908858 -0.0855853 -1.73001e-18)
(0.919856 -0.0809499 -1.5812e-18)
(0.929967 -0.0768004 -3.28546e-18)
(0.938962 -0.0730973 -1.39494e-18)
(0.947297 -0.0697811 1.17426e-18)
(0.954689 -0.0668333 4.86802e-19)
(0.961596 -0.0641934 -1.28272e-18)
(0.967682 -0.0618598 -3.68924e-18)
(0.973422 -0.059767 4.48356e-19)
(0.97842 -0.0579257 -2.58649e-18)
(0.983178 -0.0562612 -1.45623e-18)
(0.98724 -0.0547901 -9.97387e-19)
(0.991144 -0.0534244 6.56802e-18)
(0.994368 -0.0521767 2.34993e-18)
(0.9975 -0.0509415 1.57438e-18)
(0.999957 -0.0497145 1.42452e-18)
(1.0024 -0.0483639 2.24166e-18)
(1.00419 -0.046837 1.93166e-18)
(1.00606 -0.044858 1.83837e-18)
(1.00718 -0.0418775 1.74691e-18)
(1.00787 -0.0358033 5.90026e-18)
(1.0053 -0.0205216 1.34896e-18)
(0.184122 -0.454073 1.3753e-18)
(0.289085 -0.406505 -5.4997e-20)
(0.378842 -0.365323 5.97983e-19)
(0.455529 -0.329097 -5.20617e-19)
(0.521651 -0.297212 -1.26329e-18)
(0.578599 -0.269077 -6.29872e-19)
(0.628165 -0.244313 6.71069e-19)
(0.671192 -0.222453 1.92019e-19)
(0.708987 -0.203195 8.31683e-19)
(0.742033 -0.186167 -8.79022e-19)
(0.771315 -0.171133 9.021e-19)
(0.797077 -0.157805 -1.18881e-18)
(0.820092 -0.145999 4.98783e-19)
(0.840441 -0.135496 -2.12986e-19)
(0.858756 -0.126157 1.28597e-18)
(0.875008 -0.117822 -2.25241e-20)
(0.889741 -0.110384 8.09992e-19)
(0.902842 -0.10373 -1.55802e-18)
(0.914801 -0.0977765 2.68189e-18)
(0.925443 -0.0924467 1.87576e-18)
(0.935227 -0.087668 -1.92459e-18)
(0.943922 -0.0833941 -7.80558e-19)
(0.951979 -0.0795566 -1.2961e-18)
(0.959113 -0.0761335 1.07827e-18)
(0.965779 -0.0730547 1.0435e-18)
(0.971639 -0.0703183 -1.92537e-18)
(0.977165 -0.0678473 3.78368e-18)
(0.981963 -0.0656561 3.38451e-18)
(0.986533 -0.0636562 -7.405e-18)
(0.99042 -0.0618729 -4.1123e-18)
(0.994165 -0.0602023 -1.7251e-18)
(0.997251 -0.0586748 6.54885e-19)
(1.00027 -0.0571671 3.94104e-18)
(1.00266 -0.0557101 -3.98906e-18)
(1.00507 -0.0541531 1.68901e-19)
(1.00687 -0.0525005 3.48578e-18)
(1.00878 -0.0504298 2.75209e-18)
(1.00993 -0.0473753 1.10371e-18)
(1.01038 -0.0408362 2.89389e-18)
(1.00684 -0.0236529 -1.16758e-18)
(0.21573 -0.508978 1.41447e-18)
(0.317399 -0.455698 4.10849e-19)
(0.4043 -0.409561 3.48234e-19)
(0.478473 -0.368968 -8.79772e-19)
(0.542381 -0.333235 5.26121e-19)
(0.597373 -0.3017 1.11236e-18)
(0.645216 -0.273944 -2.76168e-21)
(0.686721 -0.249439 3.9592e-19)
(0.723173 -0.227849 9.89479e-19)
(0.75503 -0.208757 6.4628e-19)
(0.78326 -0.191899 1.02432e-18)
(0.808087 -0.176951 1.70121e-18)
(0.830271 -0.163708 7.81988e-19)
(0.849876 -0.151924 1.4872e-18)
(0.867528 -0.141443 3.11112e-18)
(0.883183 -0.132084 -1.81589e-19)
(0.897379 -0.123728 6.0756e-19)
(0.909994 -0.116249 -7.18743e-19)
(0.921512 -0.109551 3.38827e-18)
(0.931753 -0.103548 3.07065e-18)
(0.941171 -0.0981591 6.25087e-19)
(0.94953 -0.093331 9.86742e-19)
(0.957278 -0.0889866 -1.56166e-18)
(0.964126 -0.085101 -1.56038e-18)
(0.970527 -0.0815944 1.14092e-18)
(0.976141 -0.0784655 1.80132e-18)
(0.981439 -0.0756262 2.83168e-18)
(0.986026 -0.0730952 5.62559e-18)
(0.990401 -0.070771 -1.53028e-18)
(0.994113 -0.0686892 3.21947e-18)
(0.997704 -0.0667304 -3.1297e-19)
(1.00066 -0.0649445 -2.36164e-18)
(1.00358 -0.0631915 -1.03279e-18)
(1.0059 -0.0615355 -2.80126e-18)
(1.00828 -0.0598076 -1.86334e-18)
(1.01009 -0.0580563 -7.15764e-19)
(1.01202 -0.0559117 -5.00515e-18)
(1.01313 -0.0527644 -2.57969e-18)
(1.01325 -0.0457322 8.8575e-18)
(1.00856 -0.0266435 -7.61011e-19)
(0.25086 -0.56169 -3.0642e-19)
(0.348865 -0.502925 -8.97441e-19)
(0.432591 -0.452031 9.61517e-19)
(0.503969 -0.407244 1.10456e-18)
(0.565415 -0.367816 4.34493e-19)
(0.618233 -0.333019 -1.89994e-18)
(0.66416 -0.302387 -1.76391e-19)
(0.703973 -0.275342 5.52946e-19)
(0.738932 -0.251512 1.63297e-18)
(0.769466 -0.230437 1.91697e-18)
(0.796526 -0.211827 -1.30589e-18)
(0.820312 -0.195323 -1.40261e-18)
(0.841571 -0.180699 1.14051e-19)
(0.86035 -0.167684 -2.01878e-18)
(0.877263 -0.156104 1.07015e-18)
(0.892254 -0.145761 2.04744e-18)
(0.905852 -0.136523 -4.70543e-19)
(0.917928 -0.128249 1.24238e-18)
(0.928958 -0.120834 2.62995e-18)
(0.938754 -0.114183 1.52883e-18)
(0.947766 -0.108206 1.32353e-18)
(0.955756 -0.102843 3.33683e-19)
(0.963163 -0.0980096 1.01391e-18)
(0.9697 -0.0936776 -2.01838e-18)
(0.975814 -0.0897579 -2.10172e-18)
(0.981164 -0.0862505 5.68658e-18)
(0.986219 -0.0830564 5.72774e-19)
(0.990585 -0.0801996 -2.71021e-18)
(0.994759 -0.0775662 -8.65184e-18)
(0.998295 -0.0752026 -2.80794e-18)
(1.00173 -0.0729754 -8.31712e-19)
(1.00456 -0.0709535 8.72867e-19)
(1.00738 -0.0689816 -2.77307e-18)
(1.00964 -0.0671529 5.4353e-18)
(1.01198 -0.0652808 -4.13304e-18)
(1.01379 -0.0634466 2.19388e-18)
(1.01569 -0.0612335 9.29564e-20)
(1.01671 -0.0579728 1.68961e-18)
(1.01643 -0.0504302 1.76125e-18)
(1.01044 -0.0294762 -3.52985e-18)
(0.289362 -0.611997 -1.29788e-18)
(0.383353 -0.548002 -8.07917e-19)
(0.4636 -0.492567 -4.62513e-20)
(0.531913 -0.44378 -2.92023e-18)
(0.590659 -0.400826 -2.26628e-18)
(0.641093 -0.362914 1.01085e-18)
(0.68492 -0.329538 1.1206e-18)
(0.722877 -0.30007 3.89658e-18)
(0.756198 -0.274102 2.75589e-18)
(0.785282 -0.251136 -1.68096e-18)
(0.811059 -0.230853 -2.98301e-18)
(0.833705 -0.212864 -9.67542e-19)
(0.85395 -0.196921 -8.18152e-19)
(0.871824 -0.18273 7.16198e-19)
(0.887928 -0.170101 2.66416e-18)
(0.902192 -0.158817 2.20683e-18)
(0.915137 -0.148736 6.1109e-19)
(0.926622 -0.139702 3.79132e-18)
(0.937117 -0.131602 4.27459e-18)
(0.946429 -0.124331 -2.23243e-19)
(0.955 -0.11779 -2.03404e-18)
(0.962588 -0.111915 -1.68865e-18)
(0.969628 -0.106612 1.95357e-18)
(0.975829 -0.101852 -6.31967e-20)
(0.981634 -0.0975367 -3.01384e-18)
(0.986705 -0.0936669 1.80098e-18)
(0.991502 -0.0901339 -2.03747e-18)
(0.995638 -0.0869673 1.84837e-18)
(0.999603 -0.0840415 -8.6418e-18)
(1.00296 -0.0814141 -7.3733e-18)
(1.00623 -0.0789385 -2.35834e-18)
(1.00894 -0.0767013 -2.56998e-19)
(1.01166 -0.074533 1.55024e-18)
(1.01384 -0.0725518 4.01093e-18)
(1.01613 -0.0705538 -4.55807e-18)
(1.0179 -0.0686439 4.09401e-18)
(1.01975 -0.0663609 7.33767e-19)
(1.02065 -0.0629703 -1.57782e-18)
(1.01991 -0.054912 2.17617e-18)
(1.0125 -0.0321584 -2.11377e-18)
(0.33107 -0.659671 3.63296e-18)
(0.420711 -0.590716 2.28684e-18)
(0.497187 -0.53098 1.06469e-18)
(0.562181 -0.4784 1.76205e-19)
(0.618002 -0.432105 -1.77543e-18)
(0.665852 -0.391241 8.51695e-19)
(0.707403 -0.355265 1.40219e-18)
(0.743348 -0.323498 3.89758e-19)
(0.774895 -0.295504 -9.19648e-19)
(0.802408 -0.270743 2.17023e-18)
(0.826794 -0.248875 2.63985e-19)
(0.848204 -0.229476 2.94486e-19)
(0.867351 -0.212284 -2.79876e-18)
(0.884243 -0.196976 -1.49475e-18)
(0.89947 -0.183352 1.08841e-18)
(0.912947 -0.171176 -1.42553e-18)
(0.925184 -0.160294 -1.53918e-18)
(0.936031 -0.150539 -1.22329e-18)
(0.945949 -0.141787 5.86268e-19)
(0.954738 -0.133926 1.3809e-18)
(0.962834 -0.12685 -2.31351e-18)
(0.969989 -0.120488 -1.88054e-18)
(0.976634 -0.114739 2.94818e-18)
(0.982477 -0.109573 3.33912e-18)
(0.987955 -0.104881 -7.37505e-19)
(0.992729 -0.100668 6.43541e-18)
(0.997256 -0.0968144 -1.51659e-18)
(1.00115 -0.0933563 7.06214e-19)
(1.0049 -0.0901571 -7.3755e-19)
(1.00806 -0.0872849 1.99873e-18)
(1.01118 -0.0845811 -2.46199e-18)
(1.01375 -0.0821483 -1.4803e-18)
(1.01635 -0.0798038 6.16852e-18)
(1.01845 -0.0776866 6.74004e-18)
(1.02067 -0.0755763 -4.73194e-18)
(1.0224 -0.0735947 -1.79965e-19)
(1.02417 -0.0712391 1.25412e-18)
(1.02491 -0.0677082 -3.34886e-18)
(1.02366 -0.0591416 -8.50551e-18)
(1.0147 -0.0346761 -2.32571e-18)
(0.375807 -0.704519 3.51498e-18)
(0.460783 -0.630902 2.43836e-18)
(0.533216 -0.56712 1.12953e-18)
(0.594648 -0.510974 6.07684e-19)
(0.647331 -0.461535 2.27435e-19)
(0.69241 -0.417894 -1.66611e-18)
(0.731519 -0.379472 2.41705e-18)
(0.765306 -0.345544 1.37468e-18)
(0.794949 -0.315644 -9.56619e-20)
(0.820775 -0.289195 1.88371e-18)
(0.84367 -0.265834 3.35212e-19)
(0.863754 -0.24511 -3.57105e-18)
(0.881723 -0.226741 -7.57807e-19)
(0.897564 -0.210383 -2.51682e-18)
(0.911851 -0.195822 -2.02809e-18)
(0.924484 -0.182805 -1.99288e-18)
(0.935964 -0.171168 8.81252e-19)
(0.946126 -0.160733 2.22538e-18)
(0.955428 -0.151368 2.6139e-18)
(0.963657 -0.142951 -2.83789e-18)
(0.971246 -0.135369 -1.25085e-18)
(0.977942 -0.128548 -1.4172e-18)
(0.984168 -0.122379 -2.27534e-18)
(0.989631 -0.116828 1.48113e-18)
(0.994762 -0.111783 1.63843e-18)
(0.999224 -0.107247 6.35889e-18)
(1.00347 -0.103093 1.95061e-19)
(1.00711 -0.0993623 2.96848e-18)
(1.01063 -0.095909 2.58635e-18)
(1.0136 -0.0928109 -1.45179e-18)
(1.01654 -0.089898 9.72171e-19)
(1.01897 -0.0872875 -1.20541e-18)
(1.02144 -0.0847838 -4.93417e-19)
(1.02345 -0.0825438 6.97752e-18)
(1.02558 -0.0803309 9.34632e-18)
(1.02724 -0.0782799 -5.68795e-19)
(1.02891 -0.0758491 6.59304e-19)
(1.02947 -0.0721734 -2.90875e-18)
(1.02767 -0.0631149 4.71596e-18)
(1.01706 -0.0370349 -4.70381e-19)
(0.423378 -0.746336 -2.76877e-19)
(0.503393 -0.668372 1.69593e-18)
(0.571526 -0.600817 1.01953e-18)
(0.629169 -0.541346 1.0491e-18)
(0.678515 -0.488975 3.82577e-18)
(0.720646 -0.442745 8.00328e-19)
(0.757158 -0.402041 1.35045e-18)
(0.78865 -0.366096 5.49268e-19)
(0.816268 -0.334418 -2.90556e-18)
(0.840301 -0.306394 -1.0632e-18)
(0.861609 -0.281641 -4.62243e-19)
(0.880283 -0.25968 -2.35832e-19)
(0.896999 -0.240212 -8.14688e-19)
(0.911721 -0.222874 -5.95918e-19)
(0.925009 -0.207437 -6.11864e-19)
(0.936746 -0.193636 4.52632e-18)
(0.94742 -0.181294 -2.29463e-19)
(0.956857 -0.170224 6.77177e-18)
(0.965503 -0.160284 5.11699e-18)
(0.97314 -0.151349 2.19944e-18)
(0.980192 -0.143294 9.37544e-19)
(0.986402 -0.136044 -4.50999e-19)
(0.992186 -0.129481 -2.09765e-18)
(0.997249 -0.123573 2.67953e-18)
(1.00202 -0.118197 2.15586e-19)
(1.00615 -0.11336 -2.51239e-18)
(1.0101 -0.108927 4.07705e-18)
(1.01348 -0.104945 -1.26249e-18)
(1.01676 -0.101258 4.39501e-19)
(1.01952 -0.0979532 -2.22786e-18)
(1.02228 -0.0948502 -9.35628e-19)
(1.02455 -0.0920788 -3.72617e-18)
(1.02689 -0.0894316 5.13263e-18)
(1.0288 -0.0870803 4.66535e-18)
(1.03082 -0.0847733 3.14416e-18)
(1.0324 -0.0826551 7.52695e-18)
(1.03396 -0.0801485 -3.3802e-18)
(1.03431 -0.0763288 2.92193e-19)
(1.03192 -0.0668029 -6.73369e-18)
(1.01956 -0.039219 -7.9345e-18)
(0.473582 -0.784956 3.47064e-19)
(0.548364 -0.70298 1.6737e-18)
(0.611959 -0.631942 7.58908e-19)
(0.665604 -0.5694 1.6437e-18)
(0.711427 -0.514322 2.48387e-18)
(0.750447 -0.4657 2.13054e-18)
(0.784218 -0.422889 8.89576e-19)
(0.813287 -0.385083 -1.13365e-18)
(0.838768 -0.351761 -3.93739e-18)
(0.860908 -0.322284 6.59336e-19)
(0.880542 -0.296244 -1.1725e-18)
(0.897728 -0.27314 -9.55126e-19)
(0.913122 -0.252657 -6.09485e-18)
(0.926664 -0.234413 -3.33245e-18)
(0.938899 -0.218167 -2.8981e-18)
(0.94969 -0.20364 -5.9693e-19)
(0.959515 -0.190647 -3.31171e-19)
(0.968188 -0.178989 -8.64911e-19)
(0.976145 -0.168518 -1.71999e-19)
(0.983159 -0.159102 -2.94597e-18)
(0.989647 -0.15061 3.26833e-18)
(0.995346 -0.142962 9.30546e-19)
(1.00067 -0.136036 2.08653e-18)
(1.00531 -0.129797 8.69044e-19)
(1.0097 -0.124115 -1.77023e-19)
(1.01349 -0.119002 -1.29698e-18)
(1.01713 -0.114313 6.92761e-19)
(1.02023 -0.1101 -1.9699e-18)
(1.02326 -0.106199 3.39436e-18)
(1.02581 -0.102706 3.38719e-18)
(1.02837 -0.0994308 1.89449e-18)
(1.03048 -0.0965141 -3.15099e-20)
(1.03268 -0.0937375 1.85072e-18)
(1.03446 -0.091285 -4.66277e-18)
(1.03638 -0.0888913 7.80836e-20)
(1.03785 -0.0867086 -2.32918e-18)
(1.03928 -0.0841275 -6.72334e-18)
(1.03941 -0.0801683 -3.16526e-18)
(1.0364 -0.070205 -7.13864e-18)
(1.02219 -0.041232 -2.24799e-18)
(0.526201 -0.820201 3.49022e-18)
(0.595496 -0.734563 2.28329e-18)
(0.654334 -0.660346 2.6909e-20)
(0.70379 -0.595002 2.31791e-18)
(0.74592 -0.537453 1.62098e-18)
(0.781679 -0.486648 4.01644e-18)
(0.812576 -0.441914 2.90432e-18)
(0.839105 -0.402407 1.65332e-18)
(0.862346 -0.367586 -7.93763e-20)
(0.882502 -0.33678 1.19622e-18)
(0.900381 -0.309565 -7.58642e-19)
(0.916007 -0.285417 1.23908e-18)
(0.930016 -0.264007 1.26472e-18)
(0.942321 -0.244935 -7.31146e-19)
(0.953451 -0.22795 -2.41934e-18)
(0.963252 -0.212759 -4.96632e-18)
(0.972189 -0.19917 -4.57874e-18)
(0.980061 -0.186975 -6.03906e-19)
(0.987297 -0.176018 -7.63782e-18)
(0.99366 -0.166162 -1.46892e-18)
(0.999558 -0.15727 3.08471e-18)
(1.00472 -0.149259 -3.47045e-19)
(1.00956 -0.142 -8.92129e-19)
(1.01377 -0.135459 -1.20057e-18)
(1.01776 -0.129499 -7.68239e-19)
(1.0212 -0.124133 -3.28821e-18)
(1.02451 -0.119211 1.59516e-18)
(1.02733 -0.114789 -1.09287e-18)
(1.0301 -0.110696 2.44785e-18)
(1.03243 -0.107033 2.48545e-18)
(1.03478 -0.103604 6.41869e-18)
(1.03672 -0.100557 6.35933e-19)
(1.03876 -0.0976642 -6.94406e-19)
(1.04041 -0.0951205 -7.59715e-18)
(1.0422 -0.0926478 5.2256e-18)
(1.04356 -0.0904044 -9.31379e-18)
(1.04485 -0.0877519 -1.75796e-18)
(1.04474 -0.0836613 1.38051e-18)
(1.04109 -0.0732957 -1.2401e-18)
(1.02494 -0.0430581 2.98305e-18)
(0.581013 -0.851933 3.25123e-18)
(0.644595 -0.762999 3.26066e-18)
(0.698479 -0.685923 -1.05058e-18)
(0.743569 -0.618055 3.01495e-18)
(0.781854 -0.558283 1.69553e-18)
(0.814214 -0.505512 1.42596e-18)
(0.842118 -0.459046 1.18113e-18)
(0.866002 -0.418008 6.91106e-19)
(0.886909 -0.381837 -1.56814e-18)
(0.904998 -0.349835 3.34742e-18)
(0.921049 -0.321562 1.88176e-18)
(0.935051 -0.296474 1.75383e-19)
(0.947617 -0.274228 -3.08623e-18)
(0.958634 -0.25441 -7.08629e-18)
(0.968615 -0.236759 -1.56588e-18)
(0.977386 -0.22097 1.57407e-18)
(0.985398 -0.206843 1.53822e-18)
(0.992438 -0.194164 -1.63821e-18)
(0.998924 -0.182769 -3.05757e-18)
(1.00461 -0.172516 6.85541e-19)
(1.0099 -0.163263 1.15337e-19)
(1.01451 -0.154924 -3.86576e-18)
(1.01885 -0.147365 -4.56157e-18)
(1.0226 -0.140551 -4.6153e-18)
(1.02618 -0.134341 7.955e-19)
(1.02925 -0.128749 -3.69414e-18)
(1.03223 -0.123617 1.58563e-20)
(1.03475 -0.119008 3.61327e-18)
(1.03726 -0.114743 5.73224e-18)
(1.03935 -0.11093 -1.66457e-18)
(1.04148 -0.107363 4.27609e-18)
(1.04324 -0.1042 -1.63568e-18)
(1.04511 -0.101205 4.47642e-18)
(1.04662 -0.0985795 4.7728e-18)
(1.04827 -0.0960353 6.03076e-18)
(1.04952 -0.0937358 -5.82552e-18)
(1.05065 -0.0910167 5.71387e-18)
(1.05029 -0.0868051 -7.83208e-18)
(1.04596 -0.0760753 -6.36505e-18)
(1.02781 -0.0447003 2.27284e-18)
(0.637778 -0.880003 3.91943e-18)
(0.695443 -0.788155 8.29641e-19)
(0.744195 -0.708548 1.42282e-19)
(0.784765 -0.638449 4.51697e-18)
(0.819066 -0.576709 1.54109e-18)
(0.847907 -0.522199 -1.13653e-18)
(0.872711 -0.4742 -2.34802e-18)
(0.893855 -0.431808 5.53473e-19)
(0.912344 -0.39444 1.71437e-18)
(0.928293 -0.36138 5.74062e-19)
(0.94245 -0.33217 2.92838e-18)
(0.954769 -0.306249 1.38158e-19)
(0.965841 -0.283263 1.30263e-18)
(0.975525 -0.262784 1.64428e-18)
(0.984316 -0.244543 4.67699e-18)
(0.992019 -0.228224 1.62885e-18)
(0.999075 -0.21362 1.32565e-18)
(1.00525 -0.200511 3.07251e-19)
(1.01096 -0.188727 1.65672e-18)
(1.01595 -0.178122 -3.07174e-18)
(1.0206 -0.168549 -2.25032e-19)
(1.02465 -0.15992 -1.1338e-18)
(1.02847 -0.152095 -3.44699e-19)
(1.03176 -0.14504 -5.09476e-18)
(1.03491 -0.138608 1.63566e-18)
(1.0376 -0.132815 -3.12354e-18)
(1.04024 -0.127499 -2.66467e-18)
(1.04245 -0.122726 7.6261e-19)
(1.04468 -0.118309 1.65587e-18)
(1.04652 -0.114364 -6.43476e-19)
(1.04844 -0.110677 -3.37102e-18)
(1.05 -0.107413 1.15525e-18)
(1.05169 -0.104328 -3.5432e-18)
(1.05305 -0.101631 -1.41431e-18)
(1.05456 -0.0990235 5.74535e-18)
(1.05568 -0.0966736 8.60796e-18)
(1.05666 -0.0938943 9.58244e-18)
(1.05603 -0.0895742 2.44466e-18)
(1.051 -0.0785218 -4.6931e-18)
(1.03077 -0.0461442 -1.93762e-19)
(0.696258 -0.904302 3.59839e-18)
(0.747828 -0.809935 1.49629e-18)
(0.791296 -0.728139 1.72754e-18)
(0.827209 -0.656108 1.93584e-18)
(0.857405 -0.592664 -2.31883e-18)
(0.882622 -0.536649 -2.30309e-18)
(0.904231 -0.487323 5.41731e-20)
(0.922552 -0.443757 1.10509e-18)
(0.938551 -0.405355 3.40857e-19)
(0.952295 -0.371377 2.19338e-18)
(0.964501 -0.341356 2.85606e-18)
(0.975088 -0.314714 -1.87299e-18)
(0.984621 -0.291087 2.03442e-18)
(0.992932 -0.270035 5.75804e-19)
(1.0005 -0.251281 -1.96554e-18)
(1.0071 -0.234503 3.06745e-20)
(1.01317 -0.219486 1.75844e-18)
(1.01847 -0.206003 7.10032e-19)
(1.02338 -0.193883 2.49345e-18)
(1.02765 -0.182972 -4.24656e-18)
(1.03165 -0.17312 1.95875e-18)
(1.03511 -0.164239 1.24754e-19)
(1.03839 -0.156183 -2.48474e-19)
(1.04121 -0.148918 1.59868e-18)
(1.04393 -0.142294 3.67972e-18)
(1.04623 -0.136328 1.94903e-18)
(1.04851 -0.130853 4.19927e-19)
(1.05041 -0.125937 5.34098e-19)
(1.05234 -0.12139 1.39562e-18)
(1.05393 -0.117331 2.15558e-18)
(1.05562 -0.113542 -1.51447e-18)
(1.05698 -0.110192 -3.87079e-18)
(1.05848 -0.107029 -1.5647e-18)
(1.05968 -0.104271 3.70869e-18)
(1.06104 -0.101609 -1.00478e-17)
(1.06202 -0.0992147 -1.07373e-17)
(1.06284 -0.0963826 5.64524e-18)
(1.06194 -0.0919681 -3.19482e-18)
(1.05619 -0.0806365 -1.21926e-18)
(1.03382 -0.0473928 4.63675e-19)
(0.756198 -0.924718 2.9664e-18)
(0.801521 -0.828233 2.55761e-18)
(0.839571 -0.744598 6.63954e-19)
(0.87071 -0.670945 1.71497e-18)
(0.8967 -0.606069 1.60237e-18)
(0.9182 -0.548788 -6.91314e-19)
(0.936535 -0.498347 -8.56051e-19)
(0.951963 -0.453796 5.72659e-19)
(0.965409 -0.414523 1.71071e-18)
(0.976892 -0.379774 2.64774e-18)
(0.9871 -0.34907 1.91923e-18)
(0.99591 -0.32182 3.56667e-18)
(1.00387 -0.297653 1.86338e-18)
(1.01077 -0.276119 -3.77529e-18)
(1.01708 -0.256934 -3.60306e-18)
(1.02256 -0.239768 -1.76467e-18)
(1.02762 -0.224403 -4.36177e-18)
(1.03201 -0.210606 -7.8166e-19)
(1.0361 -0.1982 1.59512e-18)
(1.03963 -0.187032 1.99067e-18)
(1.04297 -0.176946 1.61007e-18)
(1.04583 -0.167851 2.89864e-19)
(1.04857 -0.159601 -2.51459e-18)
(1.0509 -0.152159 -8.71833e-19)
(1.05317 -0.145373 1.51565e-19)
(1.05507 -0.139261 -1.55445e-18)
(1.05699 -0.133652 2.14973e-18)
(1.05856 -0.128617 -6.3791e-19)
(1.06021 -0.123961 9.11052e-19)
(1.06154 -0.119807 -8.34368e-18)
(1.06298 -0.115932 -1.18136e-18)
(1.06414 -0.11251 2.82028e-18)
(1.06545 -0.109283 -4.61534e-18)
(1.06648 -0.106474 -4.10333e-18)
(1.06768 -0.103766 -5.65863e-18)
(1.06852 -0.101336 -3.50995e-19)
(1.06916 -0.0984597 -2.75762e-18)
(1.06799 -0.0939661 -3.94847e-18)
(1.0615 -0.082401 2.52935e-18)
(1.03694 -0.0484338 3.88396e-18)
(0.817345 -0.94117 -1.26915e-19)
(0.856297 -0.842983 -1.13803e-18)
(0.888821 -0.757867 -3.48664e-19)
(0.915091 -0.682907 1.84505e-18)
(0.93679 -0.616878 -8.10615e-19)
(0.954499 -0.558577 1.62624e-19)
(0.969494 -0.507236 -2.56391e-18)
(0.98197 -0.461889 -1.79215e-18)
(0.992813 -0.421915 1.39849e-18)
(1.00199 -0.386544 4.18301e-18)
(1.01016 -0.355289 3.75143e-18)
(1.01716 -0.327549 -4.55783e-19)
(1.0235 -0.302946 -3.86198e-18)
(1.02897 -0.281023 -3.91535e-18)
(1.034 -0.261489 -2.66948e-18)
(1.03834 -0.24401 3.24165e-18)
(1.04237 -0.228363 1.48393e-18)
(1.04583 -0.214311 -1.56217e-18)
(1.04909 -0.201674 2.23831e-18)
(1.05187 -0.190297 1.44338e-18)
(1.05454 -0.18002 2.40721e-18)
(1.05678 -0.170753 1.87198e-18)
(1.05897 -0.162344 -9.17573e-18)
(1.06079 -0.15476 -3.28648e-18)
(1.06262 -0.147842 8.01383e-18)
(1.06411 -0.141612 -1.2969e-18)
(1.06566 -0.135894 1.97877e-18)
(1.0669 -0.130763 2.71986e-18)
(1.06824 -0.12602 -5.40106e-18)
(1.06931 -0.12179 -2.50882e-18)
(1.07051 -0.117846 1.27036e-18)
(1.07145 -0.114367 6.13461e-18)
(1.07256 -0.11109 2.4743e-18)
(1.07342 -0.10824 7.98643e-18)
(1.07446 -0.105496 8.41884e-18)
(1.07516 -0.103037 3.1414e-18)
(1.07562 -0.100126 4.47226e-18)
(1.07416 -0.0955696 2.06294e-18)
(1.06691 -0.0838179 -5.92379e-18)
(1.04013 -0.0492706 2.19771e-18)
(0.879432 -0.953582 -3.97884e-19)
(0.911915 -0.854111 -1.0836e-18)
(0.938828 -0.767879 -1.04343e-19)
(0.960154 -0.691932 -8.5746e-21)
(0.977495 -0.625033 -2.72092e-18)
(0.991355 -0.565962 -1.15356e-18)
(1.00296 -0.513942 -4.32333e-19)
(1.01244 -0.467995 -1.7808e-18)
(1.02064 -0.427489 -7.00491e-19)
(1.02747 -0.391648 6.03799e-20)
(1.03357 -0.359976 1.69773e-19)
(1.03873 -0.331866 -4.85639e-18)
(1.04344 -0.306933 -4.18198e-18)
(1.04745 -0.284714 2.6393e-18)
(1.05118 -0.264916 -1.10564e-18)
(1.05435 -0.247199 1.33519e-18)
(1.05734 -0.231337 7.11244e-19)
(1.05986 -0.217092 1.02004e-18)
(1.06228 -0.20428 6.66661e-18)
(1.0643 -0.192743 3.81447e-19)
(1.06628 -0.182321 5.32701e-18)
(1.0679 -0.172922 4.81741e-18)
(1.06953 -0.164392 -6.10965e-18)
(1.07085 -0.156698 -4.27555e-18)
(1.07221 -0.149681 1.24389e-18)
(1.07329 -0.14336 -3.75885e-18)
(1.07446 -0.137561 4.46499e-18)
(1.07537 -0.132356 7.99682e-18)
(1.0764 -0.127547 -6.60928e-18)
(1.0772 -0.12326 1.75664e-18)
(1.07815 -0.119265 1.97751e-18)
(1.07887 -0.115743 1.91033e-18)
(1.07978 -0.112429 -1.27021e-18)
(1.08047 -0.109549 -1.02772e-17)
(1.08134 -0.10678 -4.98552e-18)
(1.08188 -0.1043 -1.83288e-18)
(1.08216 -0.101365 -9.25891e-19)
(1.08042 -0.0967627 -6.09936e-19)