/*--------------------------------*- C++ -*----------------------------------*\
| =========                 |                                                 |
| \\      /  F ield         | foam-extend: Open Source CFD                    |
|  \\    /   O peration     | Version:  3.0                                   |
|   \\  /    A nd           | Web:         http://www.extend-project.de       |
|    \\/     M anipulation  |                                                 |
\*---------------------------------------------------------------------------*/
FoamFile
{
    version     2.0;
    format      ascii;
    class       volVectorField;
    location    "8";
    object      u;
}
// * * * * * * * * * * * * * * * * * * * * * * * * * * * * * * * * * * * * * //

dimensions      [0 0 0 0 0 0 0];

internalField   nonuniform List<vector> 
400
(
(-1.31546 5.14185 -3.0328e-16)
(0.960258 1.03181 2.58577e-16)
(0.118459 0.287935 -2.53077e-16)
(1.12009 0.153869 6.24675e-17)
(0.511287 -0.0309563 -7.24609e-17)
(1.22481 0.0568034 6.99415e-17)
(0.693408 -0.0318538 -6.02637e-17)
(1.27556 0.0320337 -1.63224e-17)
(0.757402 -0.0283972 3.88437e-17)
(1.246 0.00725662 -1.14977e-16)
(-5.08441 -1.67235 3.19927e-16)
(-2.30156 -0.905906 4.67464e-16)
(0.224247 -0.300595 -3.58963e-16)
(0.212567 -0.256481 5.78793e-16)
(0.931828 -0.0834122 -2.45257e-16)
(0.587654 -0.14136 -1.16285e-17)
(0.981139 -0.0426449 2.11815e-16)
(0.670399 -0.102128 -2.26472e-16)
(1.06623 0.00491884 2.39994e-16)
(0.825841 -0.0473011 -3.33025e-17)
(1.46366 -5.97917 -5.01146e-16)
(1.55009 -1.12359 3.80075e-16)
(0.443935 -0.851306 -1.21455e-16)
(1.24124 -0.195979 -8.7351e-17)
(0.605309 -0.311174 -5.60458e-17)
(1.2646 -0.0211984 1.64156e-15)
(0.741566 -0.178442 -2.12265e-15)
(1.28082 0.0568703 8.42794e-16)
(0.777995 -0.105309 1.27585e-15)
(1.22899 0.0962711 -2.32742e-15)
(-0.756851 -0.971246 -6.90762e-16)
(-0.198542 -1.34389 -8.39761e-17)
(0.816365 -0.398149 5.42074e-16)
(0.607666 -0.600236 -4.0509e-16)
(1.04756 -0.17174 3.07387e-16)
(0.71379 -0.380359 -5.70449e-16)
(1.03221 -0.105164 2.29787e-16)
(0.739644 -0.266977 2.84942e-17)
(1.08253 -0.000560298 -1.50465e-17)
(0.844316 -0.115685 4.19445e-16)
(1.97746 -3.04145 7.30633e-16)
(1.76416 -0.902346 8.46638e-16)
(0.803763 -0.906465 -6.46342e-16)
(1.39011 -0.297313 7.54255e-16)
(0.814291 -0.504048 7.93612e-16)
(1.32771 -0.057063 -1.40722e-15)
(0.862727 -0.308875 6.70619e-16)
(1.27336 0.0835359 -2.44629e-15)
(0.83086 -0.172209 2.30245e-15)
(1.1741 0.156409 -1.79941e-15)
(0.929417 -0.388961 1.19787e-15)
(0.894394 -1.23963 3.24383e-16)
(1.30876 -0.257507 -3.94164e-16)
(0.994204 -0.708945 2.66424e-16)
(1.22949 -0.165644 -2.02888e-16)
(0.923264 -0.517771 2.02576e-16)
(1.14481 -0.11322 2.03978e-16)
(0.88393 -0.377976 1.7959e-18)
(1.12448 0.0169947 -4.16343e-17)
(0.898524 -0.186127 4.01271e-16)
(2.19943 -1.5968 -1.58563e-15)
(1.86359 -0.463517 -1.60475e-16)
(1.22806 -0.799626 1.13358e-15)
(1.54248 -0.170465 -6.85615e-16)
(1.10416 -0.544932 -1.89183e-16)
(1.37938 0.0100344 -5.6006e-16)
(1.01714 -0.354709 2.71791e-16)
(1.23455 0.131726 -1.81695e-15)
(0.88672 -0.207548 -3.40934e-16)
(1.09757 0.190862 1.53443e-15)
(1.61637 0.00729662 8.94366e-16)
(1.42139 -0.941846 2.28723e-16)
(1.56935 -0.0259023 -6.79239e-17)
(1.27678 -0.626767 -4.52613e-16)
(1.3758 -0.0391895 6.43115e-16)
(1.14879 -0.48678 1.51868e-16)
(1.25638 -0.0118644 7.00116e-17)
(1.06256 -0.361171 5.19703e-17)
(1.15791 0.0843661 4.19343e-17)
(0.988951 -0.21381 1.02464e-16)
(2.41767 -0.861338 -1.5952e-15)
(1.87131 0.0101953 6.62451e-16)
(1.55188 -0.575501 -8.02742e-16)
(1.57085 0.0773081 1.29483e-15)
(1.31931 -0.447891 -5.57548e-16)
(1.35086 0.127373 -2.10723e-16)
(1.1318 -0.335903 9.11114e-16)
(1.1618 0.169661 -1.96411e-15)
(0.938139 -0.236505 1.38487e-15)
(1.02126 0.199059 -6.04904e-16)
(1.86266 0.387701 4.62795e-16)
(1.69543 -0.586227 1.31426e-16)
(1.64203 0.227204 -1.25013e-16)
(1.45463 -0.439437 -8.5646e-17)
(1.41992 0.158265 -6.86679e-17)
(1.30234 -0.329382 4.03533e-17)
(1.28017 0.160188 -9.98919e-18)
(1.18323 -0.24251 1.1652e-16)
(1.13516 0.17869 -4.7295e-17)
(1.06831 -0.188714 -1.26979e-17)
(2.42536 -0.248884 2.56062e-16)
(1.68464 0.443121 5.91232e-16)
(1.66069 -0.293275 -4.78748e-16)
(1.4342 0.312802 1.81511e-16)
(1.39958 -0.30472 -1.57555e-16)
(1.24386 0.225544 1.69091e-16)
(1.20158 -0.296341 -1.60222e-16)
(1.08085 0.185214 -8.67931e-17)
(1.00704 -0.262382 8.51929e-17)
(0.958846 0.191053 -3.03847e-16)
(1.79387 0.809642 -1.16359e-15)
(1.7936 -0.19473 3.9836e-17)
(1.56029 0.4808 6.35472e-17)
(1.52884 -0.20119 1.79215e-16)
(1.3447 0.354293 -6.83877e-17)
(1.35141 -0.140788 8.75446e-17)
(1.19522 0.309677 -2.38773e-16)
(1.21609 -0.113493 9.0047e-16)
(1.05165 0.243794 -4.86637e-16)
(1.11185 -0.14374 2.18894e-16)
(2.11447 0.23178 9.5159e-16)
(1.29768 0.709736 8.72954e-16)
(1.57106 -0.070936 2.56396e-18)
(1.1785 0.437905 -4.41204e-16)
(1.37952 -0.189597 1.6576e-16)
(1.08925 0.272408 2.80835e-15)
(1.24345 -0.247577 -3.63838e-15)
(0.996677 0.188502 1.02639e-15)
(1.09193 -0.261355 2.52301e-15)
(0.903425 0.17555 -4.3819e-15)
(1.42435 1.15753 -2.58273e-15)
(1.6962 0.177724 -1.64717e-16)
(1.32488 0.683954 -3.32099e-16)
(1.48841 0.0308682 8.69782e-16)
(1.16925 0.480979 -1.26476e-15)
(1.32073 0.00543086 4.43673e-16)
(1.04764 0.370578 -1.62502e-16)
(1.20055 -0.0336287 1.67001e-15)
(0.947163 0.245368 -3.8137e-16)
(1.13183 -0.104934 7.09133e-17)
(1.62371 0.435616 2.13355e-15)
(0.834381 0.722632 1.37991e-15)
(1.39977 0.0199701 -8.94799e-16)
(0.898744 0.41725 1.10122e-15)
(1.32415 -0.12563 1.26962e-15)
(0.922001 0.25716 -2.48866e-15)
(1.2647 -0.18961 1.19562e-15)
(0.903454 0.17602 -4.69491e-15)
(1.16961 -0.222235 4.26627e-15)
(0.848348 0.148126 -3.46614e-15)
(0.838034 1.24719 2.12103e-15)
(1.42019 0.414292 -1.83387e-16)
(0.969116 0.739937 -2.74674e-17)
(1.34926 0.183593 -3.35286e-16)
(0.941925 0.487945 2.96295e-16)
(1.2546 0.0800141 4.5768e-16)
(0.89962 0.331516 1.16249e-16)
(1.18335 -0.00336476 1.60062e-15)
(0.864409 0.190864 -1.86747e-15)
(1.14576 -0.073882 2.40135e-15)
(1.18504 0.355484 -3.47885e-15)
(0.458952 0.510451 -7.96638e-17)
(1.26622 0.00391717 1.54799e-15)
(0.683563 0.281738 -7.04168e-16)
(1.28206 -0.0956126 -5.21125e-16)
(0.778322 0.18349 -1.13945e-15)
(1.26887 -0.127088 2.47453e-16)
(0.810187 0.133875 -2.80394e-15)
(1.22195 -0.154625 -7.06334e-16)
(0.799502 0.102721 2.30105e-15)
(0.234833 0.952371 2.45339e-15)
(1.08109 0.413354 2.35885e-17)
(0.602358 0.572165 5.19857e-17)
(1.17702 0.204313 -1.03726e-15)
(0.733778 0.357922 1.0686e-15)
(1.19296 0.0865666 -1.35796e-16)
(0.795028 0.217352 1.30599e-15)
(1.18317 0.00409249 -4.16068e-16)
(0.821134 0.109199 -4.17522e-16)
(1.15896 -0.0424911 1.50157e-15)
(0.947594 0.120711 -3.01265e-15)
(0.266064 0.18642 8.7521e-16)
(1.21887 -0.0425431 -1.04775e-15)
(0.5746 0.0954866 1.78892e-15)
(1.26877 -0.0697676 -7.47285e-16)
(0.687756 0.0691224 -4.23087e-16)
(1.26329 -0.0662774 1.26855e-15)
(0.740501 0.0573836 -2.88486e-15)
(1.24564 -0.0747103 2.09771e-15)
(0.768006 0.0412837 -1.03694e-15)
(-0.127601 0.308359 9.26614e-16)
(0.852973 0.180975 -4.58885e-17)
(0.375631 0.197639 -1.45411e-16)
(1.06208 0.101367 -1.87294e-16)
(0.617601 0.1202 -1.227e-16)
(1.16308 0.0485513 4.49899e-17)
(0.752742 0.064713 6.0972e-17)
(1.19477 0.0113006 1.59974e-16)
(0.811879 0.0247849 -6.96821e-17)
(1.16798 -0.00595544 1.53346e-16)
(0.930096 -0.121744 3.93516e-16)
(0.25778 -0.138713 7.4752e-16)
(1.23802 -0.0602325 -6.7098e-16)
(0.567798 -0.086213 2.74107e-16)
(1.27584 -0.0283731 -2.4816e-16)
(0.66647 -0.0591818 1.92189e-16)
(1.25749 -0.0076349 -1.86071e-16)
(0.717786 -0.0401585 -1.81e-16)
(1.24641 0.00662303 1.31718e-16)
(0.76149 -0.0274771 -3.38314e-16)
(-0.064949 -0.467904 -1.6006e-15)
(0.866309 -0.146966 -2.1064e-16)
(0.398859 -0.259121 2.68898e-16)
(1.06842 -0.0517558 -5.5865e-17)
(0.637783 -0.154718 4.03427e-17)
(1.17538 -0.000840814 1.00737e-16)
(0.77335 -0.0929363 -4.68612e-16)
(1.20562 0.0261189 1.4984e-15)
(0.824129 -0.0532874 -9.19742e-16)
(1.16796 0.0348033 4.72191e-16)
(1.08176 -0.283791 1.09958e-15)
(0.393555 -0.404355 9.68803e-16)
(1.28524 -0.0360244 2.25389e-17)
(0.641118 -0.234638 -5.79464e-16)
(1.28867 0.0323225 2.26555e-16)
(0.715064 -0.172122 3.28979e-15)
(1.2555 0.0556177 -4.26381e-15)
(0.751251 -0.132194 1.14445e-15)
(1.22951 0.0857768 2.99211e-15)
(0.78145 -0.0927117 -5.1526e-15)
(0.418229 -1.07369 -2.87419e-15)
(1.12243 -0.37226 -2.05005e-16)
(0.673271 -0.622887 -4.98587e-16)
(1.1947 -0.152832 1.1668e-15)
(0.789977 -0.381029 -1.64021e-15)
(1.22247 -0.0286044 6.76444e-16)
(0.848446 -0.229343 -2.81197e-16)
(1.2081 0.0459602 2.07473e-15)
(0.852154 -0.12627 -4.93041e-16)
(1.1566 0.0754996 -6.36371e-17)
(1.34995 -0.325228 2.81184e-15)
(0.639561 -0.583919 1.62862e-15)
(1.34325 0.0178702 -9.10746e-16)
(0.777312 -0.337761 1.18964e-15)
(1.2982 0.106477 1.33613e-15)
(0.819424 -0.245036 -2.54806e-15)
(1.25073 0.130007 1.23362e-15)
(0.830142 -0.191999 -4.92789e-15)
(1.19458 0.160994 4.51183e-15)
(0.823906 -0.144679 -3.79094e-15)
(1.11736 -1.28085 1.94787e-15)
(1.4847 -0.346744 -1.96928e-16)
(1.08473 -0.758628 -7.3546e-17)
(1.37186 -0.124773 -2.46573e-16)
(1.02177 -0.49094 2.3958e-16)
(1.28233 -0.0103138 4.69157e-16)
(0.96524 -0.322426 9.02682e-17)
(1.20297 0.0675745 1.56111e-15)
(0.900296 -0.193493 -1.75758e-15)
(1.13517 0.111683 2.15146e-15)
(1.68559 -0.20808 -3.07454e-15)
(0.969723 -0.645554 -1.34417e-16)
(1.41478 0.100735 1.5067e-15)
(0.964818 -0.381194 -7.27724e-16)
(1.30257 0.188644 -4.31862e-16)
(0.955374 -0.264188 -1.03438e-15)
(1.23015 0.212302 2.16035e-16)
(0.928732 -0.206504 -2.63978e-15)
(1.13755 0.225507 -6.19369e-16)
(0.880548 -0.176818 2.08345e-15)
(1.73773 -1.05699 1.94351e-15)
(1.75477 -0.0578659 7.78255e-17)
(1.46374 -0.64162 5.46354e-17)
(1.49887 0.0430094 -9.07018e-16)
(1.25385 -0.460588 9.7348e-16)
(1.32452 0.0641239 -1.56348e-17)
(1.10426 -0.351707 8.79684e-16)
(1.19457 0.0958313 -2.27011e-16)
(0.974971 -0.242622 -2.50258e-16)
(1.10721 0.141783 1.03036e-15)
(1.99858 0.106731 -2.41726e-15)
(1.32766 -0.544755 7.77416e-16)
(1.48736 0.23502 -8.97517e-16)
(1.17992 -0.341691 1.53903e-15)
(1.29871 0.279975 -6.60583e-16)
(1.09511 -0.22893 -3.33691e-16)
(1.18472 0.288044 1.09429e-15)
(1.0195 -0.182852 -2.42234e-15)
(1.05817 0.265504 1.71382e-15)
(0.940391 -0.187988 -7.13266e-16)
(2.05327 -0.568803 7.41014e-16)
(1.78725 0.36889 1.29438e-16)
(1.67726 -0.363461 -1.54764e-16)
(1.49795 0.289712 -1.06417e-16)
(1.41285 -0.316693 -9.06804e-17)
(1.31784 0.187691 3.23582e-17)
(1.23438 -0.302674 7.32747e-17)
(1.17931 0.14497 8.5465e-17)
(1.07033 -0.250955 -2.5167e-17)
(1.07435 0.168543 1.40033e-16)
(2.14096 0.595307 4.22518e-17)
(1.60546 -0.269226 5.78529e-16)
(1.50359 0.433332 -4.84613e-16)
(1.37098 -0.20491 2.01863e-16)
(1.26988 0.382613 -1.68797e-16)
(1.21255 -0.150457 1.11318e-16)
(1.11584 0.340003 -8.80815e-17)
(1.08789 -0.143079 -1.14358e-16)
(0.967467 0.266764 8.97891e-17)
(0.994285 -0.184174 -1.55531e-16)
(2.00662 -0.0737721 -8.31603e-16)
(1.56595 0.755901 1.15411e-16)
(1.69249 -0.067509 -5.80963e-18)
(1.3559 0.520474 2.26976e-16)
(1.45884 -0.120068 -6.0413e-17)
(1.23728 0.335096 6.6879e-18)
(1.31273 -0.179462 -7.73101e-17)
(1.13488 0.224878 5.1849e-16)
(1.15864 -0.20181 -2.77856e-16)
(1.03064 0.194702 2.44699e-16)
(1.98651 1.11379 4.25996e-16)
(1.69313 0.111464 6.893e-16)
(1.38231 0.648116 -5.3302e-17)
(1.47084 0.00562626 -3.09387e-16)
(1.18375 0.481954 6.07135e-17)
(1.28847 -0.0481077 2.27729e-15)
(1.03144 0.358621 -2.93068e-15)
(1.13992 -0.106919 1.00628e-15)
(0.887369 0.228329 1.84855e-15)
(1.04262 -0.174673 -3.28165e-15)
(1.68978 0.219379 -1.63333e-15)
(1.182 0.987219 -1.30465e-16)
(1.56279 0.141846 1.75273e-16)
(1.11965 0.660703 1.38778e-16)
(1.39186 0.0608457 -3.22398e-16)
(1.07263 0.458908 -2.11005e-16)
(1.29891 -0.0211914 5.70252e-17)
(1.02832 0.313288 5.84878e-16)
(1.2001 -0.108042 -1.7467e-16)
(0.964382 0.210666 2.49318e-16)
(1.55894 1.48931 1.24407e-15)
(1.5719 0.475491 9.69096e-16)
(1.09027 0.771621 -7.61466e-16)
(1.43823 0.221671 8.48955e-16)
(1.01274 0.532455 8.8518e-16)
(1.31216 0.056151 -1.54174e-15)
(0.93462 0.342676 7.21688e-16)
(1.19057 -0.0730627 -2.82169e-15)
(0.834957 0.170907 2.65216e-15)
(1.09639 -0.15977 -2.20386e-15)
(1.2137 0.244757 8.99964e-16)
(0.723443 1.0507 3.15076e-16)
(1.34421 0.239301 -4.37302e-16)
(0.848884 0.679127 3.22479e-16)
(1.24317 0.167532 -2.45505e-16)
(0.848935 0.490753 2.15787e-16)
(1.19019 0.0975493 1.62807e-16)
(0.85878 0.343757 1.88278e-17)
(1.17612 -0.0174677 9.38534e-18)
(0.879185 0.189349 1.86759e-16)
(1.01303 1.82657 -1.13036e-15)
(1.33896 0.754353 -9.72816e-17)
(0.69199 0.721045 1.08765e-15)
(1.29505 0.356459 -7.2987e-16)
(0.773152 0.468018 -9.79041e-17)
(1.28126 0.13195 -4.57877e-16)
(0.822009 0.281637 2.343e-16)
(1.23643 -0.0283847 -1.65821e-15)
(0.801867 0.117506 -2.50521e-16)
(1.15994 -0.126235 1.30615e-15)
(0.472894 0.0735517 1.82987e-16)
(0.153972 0.940389 3.08026e-16)
(1.03185 0.227695 -7.53647e-17)
(0.578038 0.553255 -3.12528e-16)
(1.06845 0.162575 5.42238e-16)
(0.64425 0.375769 2.83016e-16)
(1.05112 0.112569 -4.2771e-16)
(0.69742 0.256365 2.73739e-16)
(1.11679 0.0234394 2.20797e-16)
(0.813188 0.115661 -4.08665e-16)
(0.273694 2.82591 -7.08009e-16)
(1.12446 0.982464 4.5698e-16)
(0.320028 0.537741 -6.33876e-16)
(1.14003 0.338826 9.57553e-16)
(0.561466 0.255444 -4.67258e-16)
(1.22654 0.133141 -1.26852e-16)
(0.718716 0.149033 7.01363e-16)
(1.26059 0.0134509 -1.4401e-15)
(0.770298 0.0570017 9.48912e-16)
(1.21675 -0.0679357 -2.60443e-16)
(-1.12492 -0.315228 1.03026e-16)
(-0.76193 0.448356 2.55213e-16)
(0.606309 0.0644593 -1.90557e-16)
(0.337239 0.235003 -9.63445e-18)
(0.943015 0.0521173 -4.55033e-17)
(0.550878 0.132039 1.56236e-17)
(0.973415 0.0382371 -3.47253e-18)
(0.635588 0.0779663 2.92017e-17)
(1.07443 0.0173564 -7.60425e-19)
(0.802998 0.0228867 -2.91408e-17)
)
;

boundaryField
{
    up
    {
        type            fixedValue;
        value           uniform (1 0 0);
    }
    hole
    {
        type            myImplicitVelocity;
    }
    frontAndBack
    {
        type            empty;
    }
}


// ************************************************************************* //
