/*--------------------------------*- C++ -*----------------------------------*\
| =========                 |                                                 |
| \\      /  F ield         | OpenFOAM: The Open Source CFD Toolbox           |
|  \\    /   O peration     | Version:  2.2.0                                 |
|   \\  /    A nd           | Web:      www.OpenFOAM.org                      |
|    \\/     M anipulation  |                                                 |
\*---------------------------------------------------------------------------*/
FoamFile
{
    version     2.0;
    format      ascii;
    class       volVectorField;
    location    "120";
    object      s;
}
// * * * * * * * * * * * * * * * * * * * * * * * * * * * * * * * * * * * * * //

dimensions      [0 1 -1 0 0 0 0];

internalField   nonuniform List<vector> 
81920
(
(1.52604 0.00749201 0)
(1.4915 0.00732178 0)
(1.45849 0.00715959 0)
(1.42691 0.00700448 0)
(1.39666 0.006856 0)
(1.36767 0.00671368 0)
(1.33986 0.00657715 0)
(1.31316 0.00644607 0)
(1.2875 0.00632011 0)
(1.26283 0.00619898 0)
(1.23908 0.00608241 0)
(1.21621 0.00597014 0)
(1.19417 0.00586194 0)
(1.17291 0.00575759 0)
(1.1524 0.0056569 0)
(1.13259 0.00555966 0)
(1.11345 0.00546571 0)
(1.09495 0.00537488 0)
(1.07705 0.00528702 0)
(1.05973 0.00520199 0)
(1.04296 0.00511965 0)
(1.0267 0.00503988 0)
(1.01095 0.00496255 0)
(0.995675 0.00488756 0)
(0.980854 0.0048148 0)
(0.966466 0.00474418 0)
(0.952495 0.00467559 0)
(0.938922 0.00460897 0)
(0.925731 0.00454421 0)
(0.912904 0.00448125 0)
(0.900429 0.00442001 0)
(0.88829 0.00436042 0)
(0.876473 0.00430242 0)
(0.864967 0.00424594 0)
(0.853759 0.00419092 0)
(0.842838 0.00413731 0)
(0.832193 0.00408505 0)
(0.821813 0.0040341 0)
(0.811689 0.0039844 0)
(0.801811 0.00393592 0)
(0.792171 0.00388859 0)
(0.78276 0.0038424 0)
(0.773569 0.00379728 0)
(0.764593 0.00375322 0)
(0.755822 0.00371016 0)
(0.74725 0.00366809 0)
(0.73887 0.00362695 0)
(0.730676 0.00358673 0)
(0.722662 0.00354739 0)
(0.714821 0.0035089 0)
(0.707149 0.00347124 0)
(0.69964 0.00343438 0)
(0.692289 0.0033983 0)
(0.68509 0.00336296 0)
(0.67804 0.00332835 0)
(0.671133 0.00329445 0)
(0.664366 0.00326123 0)
(0.657734 0.00322867 0)
(0.651233 0.00319676 0)
(0.644859 0.00316547 0)
(0.638608 0.00313479 0)
(0.632478 0.0031047 0)
(0.626464 0.00307518 0)
(0.620564 0.00304621 0)
(0.614773 0.00301779 0)
(0.60909 0.00298989 0)
(0.60351 0.0029625 0)
(0.598033 0.00293561 0)
(0.592653 0.0029092 0)
(0.58737 0.00288327 0)
(0.582179 0.00285779 0)
(0.57708 0.00283276 0)
(0.572069 0.00280816 0)
(0.567145 0.00278399 0)
(0.562305 0.00276023 0)
(0.557546 0.00273687 0)
(0.552868 0.00271391 0)
(0.548267 0.00269132 0)
(0.543742 0.00266911 0)
(0.539291 0.00264726 0)
(0.534913 0.00262577 0)
(0.530605 0.00260462 0)
(0.526366 0.00258381 0)
(0.522194 0.00256333 0)
(0.518087 0.00254318 0)
(0.514045 0.00252333 0)
(0.510065 0.0025038 0)
(0.506147 0.00248456 0)
(0.502288 0.00246562 0)
(0.498488 0.00244697 0)
(0.494744 0.00242859 0)
(0.491057 0.00241049 0)
(0.487424 0.00239266 0)
(0.483844 0.00237509 0)
(0.480317 0.00235777 0)
(0.47684 0.0023407 0)
(0.473414 0.00232389 0)
(0.470037 0.00230731 0)
(0.466707 0.00229096 0)
(0.463424 0.00227485 0)
(0.460187 0.00225896 0)
(0.456995 0.00224329 0)
(0.453846 0.00222783 0)
(0.450742 0.00221259 0)
(0.447678 0.00219755 0)
(0.444658 0.00218273 0)
(0.441675 0.00216809 0)
(0.438736 0.00215366 0)
(0.435831 0.0021394 0)
(0.43297 0.00212536 0)
(0.430139 0.00211146 0)
(0.427354 0.00209779 0)
(0.424594 0.00208424 0)
(0.421881 0.00207092 0)
(0.419191 0.00205772 0)
(0.416546 0.00204473 0)
(0.413924 0.00203186 0)
(0.411344 0.0020192 0)
(0.408788 0.00200665 0)
(0.406269 0.00199429 0)
(0.403779 0.00198206 0)
(0.401317 0.00196998 0)
(0.398892 0.00195807 0)
(0.396485 0.00194625 0)
(0.394122 0.00193466 0)
(0.391767 0.0019231 0)
(0.389463 0.00191179 0)
(0.387162 0.00190049 0)
(1.52589 0.0224743 0)
(1.49136 0.0219647 0)
(1.45835 0.0214779 0)
(1.42677 0.0210129 0)
(1.39653 0.0205672 0)
(1.36754 0.0201404 0)
(1.33973 0.0197308 0)
(1.31304 0.0193376 0)
(1.28738 0.0189597 0)
(1.26271 0.0185964 0)
(1.23896 0.0182466 0)
(1.21609 0.0179098 0)
(1.19406 0.0175853 0)
(1.1728 0.0172722 0)
(1.15229 0.0169701 0)
(1.13248 0.0166784 0)
(1.11335 0.0163966 0)
(1.09484 0.0161241 0)
(1.07695 0.0158606 0)
(1.05963 0.0156055 0)
(1.04286 0.0153585 0)
(1.02661 0.0151191 0)
(1.01085 0.0148872 0)
(0.995579 0.0146622 0)
(0.980759 0.0144439 0)
(0.966373 0.0142321 0)
(0.952403 0.0140263 0)
(0.938832 0.0138265 0)
(0.925641 0.0136322 0)
(0.912816 0.0134433 0)
(0.900342 0.0132596 0)
(0.888204 0.0130808 0)
(0.876389 0.0129068 0)
(0.864884 0.0127374 0)
(0.853677 0.0125724 0)
(0.842757 0.0124115 0)
(0.832112 0.0122548 0)
(0.821734 0.0121019 0)
(0.81161 0.0119528 0)
(0.801734 0.0118074 0)
(0.792094 0.0116654 0)
(0.782684 0.0115268 0)
(0.773495 0.0113915 0)
(0.764519 0.0112593 0)
(0.755749 0.0111301 0)
(0.747178 0.0110039 0)
(0.738799 0.0108805 0)
(0.730605 0.0107598 0)
(0.722592 0.0106418 0)
(0.714752 0.0105264 0)
(0.707081 0.0104134 0)
(0.699573 0.0103028 0)
(0.692222 0.0101946 0)
(0.685024 0.0100886 0)
(0.677975 0.00998473 0)
(0.671069 0.00988302 0)
(0.664302 0.00978337 0)
(0.65767 0.0096857 0)
(0.65117 0.00958997 0)
(0.644797 0.0094961 0)
(0.638547 0.00940406 0)
(0.632417 0.00931379 0)
(0.626404 0.00922523 0)
(0.620504 0.00913834 0)
(0.614714 0.00905307 0)
(0.609031 0.00896938 0)
(0.603452 0.00888722 0)
(0.597975 0.00880655 0)
(0.592596 0.00872733 0)
(0.587313 0.00864953 0)
(0.582123 0.0085731 0)
(0.577025 0.00849801 0)
(0.572014 0.00842422 0)
(0.56709 0.0083517 0)
(0.56225 0.00828042 0)
(0.557492 0.00821035 0)
(0.552814 0.00814145 0)
(0.548214 0.0080737 0)
(0.54369 0.00800707 0)
(0.539239 0.00794153 0)
(0.534861 0.00787705 0)
(0.530554 0.00781362 0)
(0.526315 0.00775119 0)
(0.522143 0.00768975 0)
(0.518037 0.00762929 0)
(0.513996 0.00756976 0)
(0.510016 0.00751116 0)
(0.506098 0.00745345 0)
(0.50224 0.00739663 0)
(0.49844 0.00734066 0)
(0.494697 0.00728554 0)
(0.491009 0.00723124 0)
(0.487377 0.00717774 0)
(0.483798 0.00712503 0)
(0.48027 0.00707308 0)
(0.476794 0.00702189 0)
(0.473368 0.00697143 0)
(0.469991 0.00692169 0)
(0.466662 0.00687266 0)
(0.463379 0.00682432 0)
(0.460142 0.00677665 0)
(0.456951 0.00672965 0)
(0.453803 0.00668328 0)
(0.450699 0.00663757 0)
(0.447635 0.00659245 0)
(0.444615 0.00654798 0)
(0.441633 0.00650405 0)
(0.438694 0.00646077 0)
(0.435789 0.00641799 0)
(0.432929 0.00637586 0)
(0.430098 0.00633417 0)
(0.427313 0.00629316 0)
(0.424554 0.00625252 0)
(0.421841 0.00621256 0)
(0.419151 0.00617295 0)
(0.416506 0.006134 0)
(0.413884 0.00609539 0)
(0.411304 0.0060574 0)
(0.408749 0.00601976 0)
(0.40623 0.00598266 0)
(0.40374 0.005946 0)
(0.401279 0.00590974 0)
(0.398854 0.00587403 0)
(0.396446 0.00583858 0)
(0.394084 0.00580378 0)
(0.391729 0.00576911 0)
(0.389426 0.00573518 0)
(0.387124 0.00570129 0)
(1.5256 0.037454 0)
(1.49107 0.0366052 0)
(1.45807 0.0357942 0)
(1.42649 0.0350192 0)
(1.39626 0.0342766 0)
(1.36728 0.0335652 0)
(1.33948 0.0328826 0)
(1.31278 0.0322272 0)
(1.28713 0.0315975 0)
(1.26246 0.0309919 0)
(1.23872 0.0304091 0)
(1.21586 0.0298478 0)
(1.19383 0.0293069 0)
(1.17257 0.0287852 0)
(1.15207 0.0282818 0)
(1.13226 0.0277956 0)
(1.11313 0.0273259 0)
(1.09463 0.0268718 0)
(1.07674 0.0264326 0)
(1.05942 0.0260074 0)
(1.04265 0.0255958 0)
(1.02641 0.0251969 0)
(1.01066 0.0248103 0)
(0.995388 0.0244354 0)
(0.98057 0.0240717 0)
(0.966187 0.0237186 0)
(0.95222 0.0233757 0)
(0.938651 0.0230426 0)
(0.925463 0.0227189 0)
(0.91264 0.0224041 0)
(0.900168 0.0220979 0)
(0.888033 0.0218 0)
(0.87622 0.02151 0)
(0.864717 0.0212276 0)
(0.853512 0.0209526 0)
(0.842594 0.0206845 0)
(0.831952 0.0204233 0)
(0.821575 0.0201686 0)
(0.811454 0.0199201 0)
(0.801579 0.0196777 0)
(0.791942 0.0194411 0)
(0.782533 0.0192101 0)
(0.773346 0.0189846 0)
(0.764371 0.0187643 0)
(0.755603 0.018549 0)
(0.747033 0.0183387 0)
(0.738656 0.018133 0)
(0.730465 0.0179319 0)
(0.722453 0.0177352 0)
(0.714615 0.0175428 0)
(0.706945 0.0173545 0)
(0.699438 0.0171702 0)
(0.692089 0.0169898 0)
(0.684892 0.0168132 0)
(0.677844 0.0166401 0)
(0.670939 0.0164706 0)
(0.664174 0.0163046 0)
(0.657544 0.0161418 0)
(0.651044 0.0159822 0)
(0.644672 0.0158258 0)
(0.638424 0.0156724 0)
(0.632295 0.015522 0)
(0.626283 0.0153744 0)
(0.620384 0.0152296 0)
(0.614595 0.0150875 0)
(0.608914 0.014948 0)
(0.603336 0.0148111 0)
(0.59786 0.0146766 0)
(0.592482 0.0145446 0)
(0.5872 0.014415 0)
(0.582011 0.0142876 0)
(0.576913 0.0141624 0)
(0.571904 0.0140395 0)
(0.566981 0.0139186 0)
(0.562142 0.0137998 0)
(0.557385 0.013683 0)
(0.552708 0.0135682 0)
(0.548108 0.0134553 0)
(0.543585 0.0133443 0)
(0.539135 0.013235 0)
(0.534758 0.0131276 0)
(0.530451 0.0130219 0)
(0.526213 0.0129178 0)
(0.522043 0.0128154 0)
(0.517938 0.0127147 0)
(0.513896 0.0126155 0)
(0.509918 0.0125178 0)
(0.506001 0.0124216 0)
(0.502143 0.0123269 0)
(0.498344 0.0122337 0)
(0.494601 0.0121418 0)
(0.490915 0.0120513 0)
(0.487283 0.0119621 0)
(0.483704 0.0118743 0)
(0.480178 0.0117877 0)
(0.476703 0.0117024 0)
(0.473277 0.0116183 0)
(0.469901 0.0115354 0)
(0.466572 0.0114537 0)
(0.46329 0.0113731 0)
(0.460054 0.0112937 0)
(0.456863 0.0112154 0)
(0.453715 0.0111381 0)
(0.450612 0.0110619 0)
(0.447549 0.0109867 0)
(0.44453 0.0109126 0)
(0.441548 0.0108394 0)
(0.43861 0.0107673 0)
(0.435705 0.010696 0)
(0.432845 0.0106258 0)
(0.430015 0.0105563 0)
(0.42723 0.0104879 0)
(0.424472 0.0104202 0)
(0.421759 0.0103536 0)
(0.41907 0.0102876 0)
(0.416426 0.0102227 0)
(0.413804 0.0101583 0)
(0.411225 0.010095 0)
(0.40867 0.0100323 0)
(0.406152 0.00997047 0)
(0.403663 0.00990936 0)
(0.401201 0.00984894 0)
(0.398777 0.00978942 0)
(0.39637 0.00973034 0)
(0.394008 0.00967235 0)
(0.391654 0.00961457 0)
(0.389351 0.00955802 0)
(0.38705 0.00950154 0)
(1.52516 0.0524297 0)
(1.49064 0.0512421 0)
(1.45764 0.0501071 0)
(1.42608 0.049022 0)
(1.39585 0.0479826 0)
(1.36688 0.0469867 0)
(1.33909 0.0460311 0)
(1.3124 0.0451138 0)
(1.28676 0.0442322 0)
(1.2621 0.0433845 0)
(1.23837 0.0425687 0)
(1.21551 0.0417829 0)
(1.19348 0.0410257 0)
(1.17224 0.0402954 0)
(1.15173 0.0395906 0)
(1.13194 0.0389101 0)
(1.11281 0.0382526 0)
(1.09432 0.0376169 0)
(1.07643 0.037002 0)
(1.05912 0.0364069 0)
(1.04235 0.0358306 0)
(1.02611 0.0352723 0)
(1.01037 0.0347311 0)
(0.9951 0.0342063 0)
(0.980286 0.0336971 0)
(0.965908 0.0332028 0)
(0.951944 0.0327228 0)
(0.938379 0.0322565 0)
(0.925195 0.0318033 0)
(0.912377 0.0313627 0)
(0.899908 0.0309341 0)
(0.887776 0.0305171 0)
(0.875966 0.0301111 0)
(0.864467 0.0297158 0)
(0.853266 0.0293308 0)
(0.842351 0.0289556 0)
(0.831711 0.0285899 0)
(0.821338 0.0282333 0)
(0.811219 0.0278854 0)
(0.801347 0.0275461 0)
(0.791713 0.0272149 0)
(0.782307 0.0268916 0)
(0.773122 0.0265759 0)
(0.76415 0.0262675 0)
(0.755385 0.0259661 0)
(0.746817 0.0256716 0)
(0.738443 0.0253838 0)
(0.730253 0.0251023 0)
(0.722244 0.0248269 0)
(0.714408 0.0245576 0)
(0.70674 0.024294 0)
(0.699236 0.024036 0)
(0.691889 0.0237835 0)
(0.684694 0.0235362 0)
(0.677648 0.023294 0)
(0.670745 0.0230567 0)
(0.663982 0.0228242 0)
(0.657353 0.0225963 0)
(0.650856 0.022373 0)
(0.644486 0.022154 0)
(0.638239 0.0219393 0)
(0.632112 0.0217287 0)
(0.626102 0.0215221 0)
(0.620205 0.0213194 0)
(0.614418 0.0211204 0)
(0.608738 0.0209252 0)
(0.603162 0.0207335 0)
(0.597687 0.0205453 0)
(0.59231 0.0203605 0)
(0.58703 0.020179 0)
(0.581843 0.0200007 0)
(0.576746 0.0198255 0)
(0.571739 0.0196534 0)
(0.566817 0.0194842 0)
(0.561979 0.0193179 0)
(0.557224 0.0191544 0)
(0.552548 0.0189937 0)
(0.54795 0.0188356 0)
(0.543428 0.0186802 0)
(0.538979 0.0185273 0)
(0.534603 0.0183768 0)
(0.530298 0.0182288 0)
(0.526061 0.0180832 0)
(0.521892 0.0179399 0)
(0.517788 0.0177988 0)
(0.513748 0.0176599 0)
(0.50977 0.0175232 0)
(0.505854 0.0173886 0)
(0.501998 0.017256 0)
(0.498199 0.0171255 0)
(0.494458 0.0169969 0)
(0.490773 0.0168702 0)
(0.487142 0.0167454 0)
(0.483564 0.0166224 0)
(0.480039 0.0165012 0)
(0.476565 0.0163818 0)
(0.47314 0.0162641 0)
(0.469765 0.016148 0)
(0.466437 0.0160336 0)
(0.463156 0.0159209 0)
(0.459921 0.0158096 0)
(0.456731 0.0157 0)
(0.453584 0.0155918 0)
(0.450482 0.0154852 0)
(0.447419 0.0153799 0)
(0.444401 0.0152762 0)
(0.44142 0.0151737 0)
(0.438483 0.0150727 0)
(0.435579 0.0149729 0)
(0.43272 0.0148746 0)
(0.429891 0.0147774 0)
(0.427107 0.0146817 0)
(0.424349 0.0145869 0)
(0.421637 0.0144937 0)
(0.418949 0.0144012 0)
(0.416305 0.0143104 0)
(0.413685 0.0142203 0)
(0.411106 0.0141317 0)
(0.408552 0.0140439 0)
(0.406034 0.0139573 0)
(0.403546 0.0138718 0)
(0.401085 0.0137872 0)
(0.398661 0.0137039 0)
(0.396255 0.0136212 0)
(0.393894 0.01354 0)
(0.391541 0.0134591 0)
(0.389238 0.0133799 0)
(0.386938 0.0133009 0)
(1.52457 0.0674003 0)
(1.49006 0.0658739 0)
(1.45708 0.0644151 0)
(1.42553 0.0630201 0)
(1.39532 0.061684 0)
(1.36635 0.0604036 0)
(1.33857 0.0591753 0)
(1.3119 0.057996 0)
(1.28626 0.0568627 0)
(1.26161 0.0557729 0)
(1.23789 0.0547241 0)
(1.21504 0.053714 0)
(1.19302 0.0527405 0)
(1.17178 0.0518017 0)
(1.15129 0.0508957 0)
(1.1315 0.0500209 0)
(1.11238 0.0491756 0)
(1.0939 0.0483584 0)
(1.07601 0.0475679 0)
(1.05871 0.0468029 0)
(1.04195 0.046062 0)
(1.02572 0.0453443 0)
(1.00998 0.0446486 0)
(0.994716 0.0439739 0)
(0.979908 0.0433193 0)
(0.965535 0.0426839 0)
(0.951577 0.0420668 0)
(0.938017 0.0414674 0)
(0.924838 0.0408848 0)
(0.912025 0.0403183 0)
(0.899561 0.0397673 0)
(0.887434 0.0392312 0)
(0.875629 0.0387093 0)
(0.864134 0.0382011 0)
(0.852936 0.0377061 0)
(0.842026 0.0372238 0)
(0.831391 0.0367537 0)
(0.821021 0.0362952 0)
(0.810906 0.0358481 0)
(0.801038 0.0354119 0)
(0.791407 0.0349861 0)
(0.782005 0.0345705 0)
(0.772824 0.0341646 0)
(0.763856 0.0337681 0)
(0.755093 0.0333807 0)
(0.746529 0.0330022 0)
(0.738158 0.0326321 0)
(0.729972 0.0322702 0)
(0.721965 0.0319162 0)
(0.714132 0.03157 0)
(0.706468 0.0312311 0)
(0.698966 0.0308995 0)
(0.691622 0.0305748 0)
(0.68443 0.0302569 0)
(0.677387 0.0299455 0)
(0.670487 0.0296405 0)
(0.663726 0.0293416 0)
(0.6571 0.0290487 0)
(0.650605 0.0287616 0)
(0.644237 0.0284801 0)
(0.637993 0.028204 0)
(0.631868 0.0279333 0)
(0.62586 0.0276677 0)
(0.619966 0.0274071 0)
(0.614181 0.0271514 0)
(0.608503 0.0269003 0)
(0.602929 0.0266539 0)
(0.597456 0.026412 0)
(0.592082 0.0261744 0)
(0.586804 0.0259411 0)
(0.581618 0.0257119 0)
(0.576524 0.0254866 0)
(0.571518 0.0252653 0)
(0.566598 0.0250479 0)
(0.561763 0.0248341 0)
(0.557009 0.0246239 0)
(0.552335 0.0244173 0)
(0.547738 0.0242141 0)
(0.543218 0.0240143 0)
(0.538771 0.0238177 0)
(0.534397 0.0236243 0)
(0.530093 0.0234341 0)
(0.525858 0.0232468 0)
(0.52169 0.0230626 0)
(0.517588 0.0228812 0)
(0.51355 0.0227027 0)
(0.509574 0.0225269 0)
(0.505659 0.0223539 0)
(0.501804 0.0221835 0)
(0.498007 0.0220156 0)
(0.494268 0.0218503 0)
(0.490584 0.0216874 0)
(0.486954 0.021527 0)
(0.483378 0.0213689 0)
(0.479854 0.0212131 0)
(0.476381 0.0210596 0)
(0.472958 0.0209082 0)
(0.469584 0.0207591 0)
(0.466257 0.020612 0)
(0.462977 0.020467 0)
(0.459743 0.0203241 0)
(0.456555 0.0201831 0)
(0.453409 0.020044 0)
(0.450308 0.0199069 0)
(0.447247 0.0197716 0)
(0.44423 0.0196382 0)
(0.44125 0.0195065 0)
(0.438314 0.0193767 0)
(0.435411 0.0192484 0)
(0.432553 0.0191221 0)
(0.429725 0.018997 0)
(0.426942 0.018874 0)
(0.424185 0.0187521 0)
(0.421475 0.0186323 0)
(0.418787 0.0185135 0)
(0.416145 0.0183967 0)
(0.413525 0.0182809 0)
(0.410948 0.0181669 0)
(0.408394 0.0180541 0)
(0.405878 0.0179428 0)
(0.40339 0.0178328 0)
(0.400931 0.0177241 0)
(0.398508 0.017617 0)
(0.396102 0.0175107 0)
(0.393742 0.0174063 0)
(0.39139 0.0173023 0)
(0.389088 0.0172006 0)
(0.386789 0.0170989 0)
(1.52383 0.0823643 0)
(1.48934 0.0804993 0)
(1.45638 0.0787168 0)
(1.42484 0.0770121 0)
(1.39464 0.0753794 0)
(1.3657 0.0738148 0)
(1.33793 0.0723137 0)
(1.31126 0.0708726 0)
(1.28564 0.0694877 0)
(1.261 0.0681559 0)
(1.23729 0.0668743 0)
(1.21445 0.0656399 0)
(1.19244 0.0644503 0)
(1.17122 0.063303 0)
(1.15073 0.0621959 0)
(1.13096 0.0611268 0)
(1.11184 0.0600938 0)
(1.09337 0.0590952 0)
(1.0755 0.0581292 0)
(1.0582 0.0571943 0)
(1.04145 0.056289 0)
(1.02522 0.0554119 0)
(1.00949 0.0545617 0)
(0.994236 0.0537372 0)
(0.979436 0.0529373 0)
(0.965069 0.0521608 0)
(0.951119 0.0514068 0)
(0.937565 0.0506742 0)
(0.924393 0.0499622 0)
(0.911585 0.04927 0)
(0.899127 0.0485967 0)
(0.887006 0.0479415 0)
(0.875206 0.0473038 0)
(0.863717 0.0466828 0)
(0.852525 0.0460779 0)
(0.84162 0.0454885 0)
(0.83099 0.0449139 0)
(0.820625 0.0443537 0)
(0.810515 0.0438073 0)
(0.800652 0.0432742 0)
(0.791026 0.0427539 0)
(0.781628 0.042246 0)
(0.772451 0.04175 0)
(0.763487 0.0412655 0)
(0.754729 0.0407921 0)
(0.746169 0.0403295 0)
(0.737802 0.0398772 0)
(0.72962 0.039435 0)
(0.721617 0.0390025 0)
(0.713788 0.0385793 0)
(0.706127 0.0381653 0)
(0.698629 0.03776 0)
(0.691288 0.0373632 0)
(0.6841 0.0369747 0)
(0.67706 0.0365942 0)
(0.670163 0.0362215 0)
(0.663406 0.0358562 0)
(0.656783 0.0354983 0)
(0.650291 0.0351474 0)
(0.643927 0.0348034 0)
(0.637685 0.0344661 0)
(0.631564 0.0341352 0)
(0.625559 0.0338106 0)
(0.619667 0.0334922 0)
(0.613885 0.0331797 0)
(0.608209 0.0328729 0)
(0.602638 0.0325718 0)
(0.597168 0.0322762 0)
(0.591796 0.0319858 0)
(0.586521 0.0317007 0)
(0.581338 0.0314205 0)
(0.576246 0.0311453 0)
(0.571243 0.0308749 0)
(0.566325 0.0306091 0)
(0.561492 0.0303479 0)
(0.55674 0.0300911 0)
(0.552068 0.0298386 0)
(0.547474 0.0295903 0)
(0.542956 0.0293461 0)
(0.538512 0.0291058 0)
(0.53414 0.0288695 0)
(0.529838 0.028637 0)
(0.525605 0.0284082 0)
(0.521439 0.0281831 0)
(0.517338 0.0279615 0)
(0.513302 0.0277433 0)
(0.509328 0.0275285 0)
(0.505415 0.027317 0)
(0.501562 0.0271088 0)
(0.497767 0.0269037 0)
(0.494029 0.0267016 0)
(0.490347 0.0265026 0)
(0.486719 0.0263065 0)
(0.483145 0.0261133 0)
(0.479623 0.025923 0)
(0.476151 0.0257353 0)
(0.47273 0.0255504 0)
(0.469357 0.0253681 0)
(0.466032 0.0251884 0)
(0.462754 0.0250113 0)
(0.459522 0.0248365 0)
(0.456335 0.0246643 0)
(0.45319 0.0244943 0)
(0.450091 0.0243268 0)
(0.447031 0.0241614 0)
(0.444015 0.0239984 0)
(0.441037 0.0238375 0)
(0.438102 0.0236788 0)
(0.435201 0.023522 0)
(0.432345 0.0233676 0)
(0.429518 0.0232149 0)
(0.426736 0.0230645 0)
(0.423981 0.0229156 0)
(0.421271 0.0227692 0)
(0.418585 0.022624 0)
(0.415944 0.0224812 0)
(0.413326 0.0223397 0)
(0.410749 0.0222005 0)
(0.408197 0.0220625 0)
(0.405682 0.0219266 0)
(0.403196 0.0217922 0)
(0.400737 0.0216593 0)
(0.398316 0.0215284 0)
(0.395911 0.0213985 0)
(0.393552 0.021271 0)
(0.391201 0.0211439 0)
(0.3889 0.0210195 0)
(0.386602 0.0208953 0)
(1.52295 0.0973203 0)
(1.48848 0.0951169 0)
(1.45554 0.0930109 0)
(1.42402 0.0909966 0)
(1.39383 0.0890676 0)
(1.36491 0.0872188 0)
(1.33715 0.0854452 0)
(1.3105 0.0837423 0)
(1.2849 0.082106 0)
(1.26027 0.0805324 0)
(1.23658 0.079018 0)
(1.21375 0.0775595 0)
(1.19175 0.0761538 0)
(1.17054 0.0747982 0)
(1.15007 0.07349 0)
(1.1303 0.0722268 0)
(1.1112 0.0710063 0)
(1.09273 0.0698263 0)
(1.07487 0.0686849 0)
(1.05759 0.0675803 0)
(1.04085 0.0665105 0)
(1.02463 0.0654742 0)
(1.00891 0.0644696 0)
(0.993661 0.0634954 0)
(0.978869 0.0625502 0)
(0.964511 0.0616327 0)
(0.950568 0.0607417 0)
(0.937022 0.0598761 0)
(0.923857 0.0590349 0)
(0.911057 0.058217 0)
(0.898607 0.0574214 0)
(0.886492 0.0566472 0)
(0.8747 0.0558937 0)
(0.863217 0.0551599 0)
(0.852032 0.0544452 0)
(0.841133 0.0537487 0)
(0.830509 0.0530699 0)
(0.82015 0.0524079 0)
(0.810046 0.0517623 0)
(0.800189 0.0511324 0)
(0.790568 0.0505176 0)
(0.781176 0.0499175 0)
(0.772004 0.0493314 0)
(0.763045 0.0487589 0)
(0.754292 0.0481996 0)
(0.745738 0.0476529 0)
(0.737375 0.0471185 0)
(0.729197 0.046596 0)
(0.721199 0.0460849 0)
(0.713375 0.0455849 0)
(0.705718 0.0450957 0)
(0.698225 0.0446168 0)
(0.690888 0.044148 0)
(0.683704 0.043689 0)
(0.676668 0.0432394 0)
(0.669775 0.0427989 0)
(0.663022 0.0423674 0)
(0.656403 0.0419444 0)
(0.649915 0.0415298 0)
(0.643554 0.0411233 0)
(0.637316 0.0407248 0)
(0.631198 0.0403338 0)
(0.625196 0.0399503 0)
(0.619308 0.039574 0)
(0.613529 0.0392048 0)
(0.607857 0.0388423 0)
(0.602289 0.0384865 0)
(0.596822 0.0381372 0)
(0.591454 0.0377941 0)
(0.586181 0.0374572 0)
(0.581001 0.0371262 0)
(0.575912 0.036801 0)
(0.570912 0.0364815 0)
(0.565997 0.0361675 0)
(0.561167 0.0358588 0)
(0.556418 0.0355553 0)
(0.551749 0.035257 0)
(0.547157 0.0349636 0)
(0.542642 0.034675 0)
(0.5382 0.0343912 0)
(0.53383 0.034112 0)
(0.529531 0.0338372 0)
(0.525301 0.0335669 0)
(0.521137 0.0333009 0)
(0.517039 0.033039 0)
(0.513005 0.0327812 0)
(0.509033 0.0325274 0)
(0.505123 0.0322775 0)
(0.501272 0.0320315 0)
(0.497479 0.0317891 0)
(0.493743 0.0315504 0)
(0.490063 0.0313152 0)
(0.486438 0.0310835 0)
(0.482865 0.0308553 0)
(0.479345 0.0306303 0)
(0.475876 0.0304086 0)
(0.472456 0.0301901 0)
(0.469085 0.0299747 0)
(0.465762 0.0297624 0)
(0.462486 0.0295531 0)
(0.459256 0.0293466 0)
(0.45607 0.0291431 0)
(0.452928 0.0289423 0)
(0.44983 0.0287443 0)
(0.446772 0.0285489 0)
(0.443758 0.0283563 0)
(0.440782 0.0281661 0)
(0.437849 0.0279787 0)
(0.434949 0.0277934 0)
(0.432094 0.027611 0)
(0.429269 0.0274305 0)
(0.426489 0.0272528 0)
(0.423735 0.0270768 0)
(0.421028 0.0269038 0)
(0.418343 0.0267323 0)
(0.415703 0.0265636 0)
(0.413086 0.0263964 0)
(0.410512 0.0262318 0)
(0.407961 0.0260689 0)
(0.405447 0.0259082 0)
(0.402962 0.0257494 0)
(0.400505 0.0255924 0)
(0.398085 0.0254378 0)
(0.395682 0.0252842 0)
(0.393324 0.0251336 0)
(0.390975 0.0249834 0)
(0.388675 0.0248365 0)
(0.386378 0.0246897 0)
(1.52192 0.112267 0)
(1.48747 0.109725 0)
(1.45455 0.107296 0)
(1.42306 0.104972 0)
(1.39289 0.102747 0)
(1.36398 0.100614 0)
(1.33625 0.0985684 0)
(1.30962 0.096604 0)
(1.28403 0.0947163 0)
(1.25942 0.0929011 0)
(1.23574 0.0911541 0)
(1.21293 0.0894715 0)
(1.19095 0.08785 0)
(1.16975 0.0862862 0)
(1.14929 0.0847771 0)
(1.12954 0.0833199 0)
(1.11045 0.0819119 0)
(1.092 0.0805507 0)
(1.07415 0.079234 0)
(1.05687 0.0779597 0)
(1.04014 0.0767257 0)
(1.02394 0.0755301 0)
(1.00822 0.0743713 0)
(0.992989 0.0732474 0)
(0.978208 0.072157 0)
(0.963859 0.0710986 0)
(0.949926 0.0700708 0)
(0.936389 0.0690723 0)
(0.923233 0.0681019 0)
(0.910442 0.0671583 0)
(0.898 0.0662405 0)
(0.885893 0.0653475 0)
(0.874109 0.0644782 0)
(0.862634 0.0636318 0)
(0.851456 0.0628072 0)
(0.840564 0.0620038 0)
(0.829948 0.0612207 0)
(0.819596 0.0604571 0)
(0.809499 0.0597123 0)
(0.799648 0.0589856 0)
(0.790034 0.0582764 0)
(0.780648 0.0575841 0)
(0.771483 0.056908 0)
(0.76253 0.0562476 0)
(0.753783 0.0556024 0)
(0.745234 0.0549718 0)
(0.736877 0.0543553 0)
(0.728705 0.0537525 0)
(0.720712 0.053163 0)
(0.712893 0.0525862 0)
(0.705242 0.0520218 0)
(0.697753 0.0514694 0)
(0.690421 0.0509286 0)
(0.683242 0.050399 0)
(0.676211 0.0498804 0)
(0.669323 0.0493723 0)
(0.662574 0.0488744 0)
(0.65596 0.0483865 0)
(0.649476 0.0479082 0)
(0.643119 0.0474393 0)
(0.636886 0.0469795 0)
(0.630772 0.0465285 0)
(0.624774 0.0460861 0)
(0.61889 0.0456521 0)
(0.613115 0.0452261 0)
(0.607447 0.044808 0)
(0.601882 0.0443975 0)
(0.596419 0.0439945 0)
(0.591054 0.0435988 0)
(0.585785 0.0432101 0)
(0.580609 0.0428283 0)
(0.575523 0.0424532 0)
(0.570526 0.0420846 0)
(0.565615 0.0417223 0)
(0.560788 0.0413662 0)
(0.556042 0.0410161 0)
(0.551376 0.040672 0)
(0.546788 0.0403335 0)
(0.542275 0.0400006 0)
(0.537836 0.0396732 0)
(0.53347 0.0393511 0)
(0.529173 0.0390342 0)
(0.524946 0.0387223 0)
(0.520785 0.0384154 0)
(0.51669 0.0381133 0)
(0.512658 0.037816 0)
(0.508689 0.0375232 0)
(0.504782 0.0372349 0)
(0.500933 0.0369511 0)
(0.497143 0.0366715 0)
(0.49341 0.0363961 0)
(0.489732 0.0361248 0)
(0.486109 0.0358576 0)
(0.482539 0.0355942 0)
(0.479021 0.0353347 0)
(0.475554 0.035079 0)
(0.472137 0.0348269 0)
(0.468769 0.0345785 0)
(0.465448 0.0343335 0)
(0.462174 0.034092 0)
(0.458945 0.0338539 0)
(0.455762 0.0336191 0)
(0.452622 0.0333874 0)
(0.449526 0.0331591 0)
(0.446471 0.0329337 0)
(0.443459 0.0327115 0)
(0.440484 0.0324921 0)
(0.437553 0.0322758 0)
(0.434655 0.0320621 0)
(0.431802 0.0318517 0)
(0.428979 0.0316434 0)
(0.426201 0.0314385 0)
(0.423449 0.0312355 0)
(0.420743 0.0310359 0)
(0.41806 0.030838 0)
(0.415423 0.0306434 0)
(0.412807 0.0304505 0)
(0.410234 0.0302607 0)
(0.407686 0.0300727 0)
(0.405173 0.0298874 0)
(0.40269 0.0297042 0)
(0.400235 0.0295231 0)
(0.397816 0.0293447 0)
(0.395415 0.0291676 0)
(0.393059 0.0289937 0)
(0.39071 0.0288205 0)
(0.388413 0.028651 0)
(0.386117 0.0284817 0)
(1.52075 0.127203 0)
(1.48633 0.124323 0)
(1.45343 0.121571 0)
(1.42196 0.118938 0)
(1.39182 0.116417 0)
(1.36293 0.114 0)
(1.33522 0.111682 0)
(1.30861 0.109456 0)
(1.28304 0.107318 0)
(1.25845 0.105261 0)
(1.23479 0.103281 0)
(1.21199 0.101375 0)
(1.19003 0.0995377 0)
(1.16885 0.0977659 0)
(1.1484 0.096056 0)
(1.12866 0.0944049 0)
(1.10959 0.0928096 0)
(1.09115 0.0912673 0)
(1.07332 0.0897755 0)
(1.05606 0.0883316 0)
(1.03934 0.0869334 0)
(1.02314 0.0855788 0)
(1.00745 0.0842658 0)
(0.992223 0.0829924 0)
(0.977452 0.0817569 0)
(0.963115 0.0805577 0)
(0.949192 0.0793932 0)
(0.935666 0.0782618 0)
(0.92252 0.0771623 0)
(0.909739 0.0760932 0)
(0.897306 0.0750533 0)
(0.885209 0.0740414 0)
(0.873434 0.0730565 0)
(0.861968 0.0720974 0)
(0.850799 0.0711632 0)
(0.839915 0.0702529 0)
(0.829307 0.0693656 0)
(0.818963 0.0685004 0)
(0.808874 0.0676565 0)
(0.79903 0.0668332 0)
(0.789424 0.0660297 0)
(0.780045 0.0652452 0)
(0.770887 0.0644792 0)
(0.761941 0.0637309 0)
(0.753201 0.0629998 0)
(0.744658 0.0622853 0)
(0.736307 0.0615869 0)
(0.728142 0.0609039 0)
(0.720156 0.0602359 0)
(0.712342 0.0595824 0)
(0.704697 0.0589429 0)
(0.697214 0.058317 0)
(0.689888 0.0577042 0)
(0.682715 0.0571042 0)
(0.675689 0.0565165 0)
(0.668806 0.0559408 0)
(0.662062 0.0553768 0)
(0.655453 0.0548239 0)
(0.648974 0.054282 0)
(0.642622 0.0537508 0)
(0.636394 0.0532298 0)
(0.630285 0.0527188 0)
(0.624292 0.0522175 0)
(0.618412 0.0517257 0)
(0.612641 0.051243 0)
(0.606978 0.0507693 0)
(0.601418 0.0503043 0)
(0.595959 0.0498477 0)
(0.590598 0.0493993 0)
(0.585333 0.0489589 0)
(0.58016 0.0485263 0)
(0.575079 0.0481012 0)
(0.570086 0.0476836 0)
(0.565178 0.0472731 0)
(0.560355 0.0468696 0)
(0.555613 0.046473 0)
(0.55095 0.046083 0)
(0.546365 0.0456996 0)
(0.541856 0.0453224 0)
(0.537421 0.0449514 0)
(0.533058 0.0445865 0)
(0.528765 0.0442274 0)
(0.52454 0.043874 0)
(0.520383 0.0435263 0)
(0.516291 0.043184 0)
(0.512262 0.0428471 0)
(0.508297 0.0425154 0)
(0.504392 0.0421887 0)
(0.500546 0.0418671 0)
(0.496759 0.0415503 0)
(0.493029 0.0412383 0)
(0.489354 0.0409309 0)
(0.485734 0.0406281 0)
(0.482166 0.0403298 0)
(0.478651 0.0400357 0)
(0.475187 0.039746 0)
(0.471772 0.0394604 0)
(0.468407 0.0391788 0)
(0.465088 0.0389013 0)
(0.461817 0.0386277 0)
(0.458591 0.0383578 0)
(0.45541 0.0380918 0)
(0.452273 0.0378294 0)
(0.449179 0.0375706 0)
(0.446126 0.0373152 0)
(0.443116 0.0370635 0)
(0.440144 0.0368149 0)
(0.437215 0.0365699 0)
(0.43432 0.0363277 0)
(0.431469 0.0360893 0)
(0.428648 0.0358533 0)
(0.425872 0.0356211 0)
(0.423122 0.0353911 0)
(0.420418 0.035165 0)
(0.417737 0.0349407 0)
(0.415102 0.0347203 0)
(0.412488 0.0345017 0)
(0.409918 0.0342867 0)
(0.407371 0.0340736 0)
(0.40486 0.0338637 0)
(0.402379 0.0336561 0)
(0.399926 0.0334509 0)
(0.397509 0.0332488 0)
(0.39511 0.0330481 0)
(0.392755 0.0328511 0)
(0.390409 0.0326549 0)
(0.388113 0.0324628 0)
(0.385819 0.032271 0)
(1.51942 0.142126 0)
(1.48503 0.138909 0)
(1.45216 0.135834 0)
(1.42072 0.132892 0)
(1.39061 0.130075 0)
(1.36174 0.127375 0)
(1.33406 0.124785 0)
(1.30747 0.122298 0)
(1.28192 0.119908 0)
(1.25736 0.11761 0)
(1.23371 0.115399 0)
(1.21094 0.113269 0)
(1.18899 0.111216 0)
(1.16783 0.109236 0)
(1.14741 0.107326 0)
(1.12768 0.105481 0)
(1.10863 0.103698 0)
(1.0902 0.101975 0)
(1.07238 0.100308 0)
(1.05514 0.098695 0)
(1.03844 0.0971328 0)
(1.02225 0.0956192 0)
(1.00657 0.0941521 0)
(0.99136 0.0927294 0)
(0.976602 0.091349 0)
(0.962278 0.0900091 0)
(0.948367 0.0887079 0)
(0.934853 0.0874438 0)
(0.921718 0.0862152 0)
(0.908948 0.0850207 0)
(0.896526 0.0838588 0)
(0.88444 0.0827283 0)
(0.872674 0.0816278 0)
(0.861218 0.0805562 0)
(0.850059 0.0795124 0)
(0.839185 0.0784953 0)
(0.828586 0.0775038 0)
(0.818251 0.0765371 0)
(0.808171 0.0755943 0)
(0.798336 0.0746743 0)
(0.788737 0.0737765 0)
(0.779367 0.0729 0)
(0.770217 0.0720441 0)
(0.761279 0.0712081 0)
(0.752546 0.0703912 0)
(0.744011 0.0695929 0)
(0.735667 0.0688125 0)
(0.727509 0.0680493 0)
(0.71953 0.067303 0)
(0.711723 0.0665728 0)
(0.704084 0.0658583 0)
(0.696608 0.0651589 0)
(0.689288 0.0644743 0)
(0.682121 0.0638039 0)
(0.675101 0.0631473 0)
(0.668225 0.062504 0)
(0.661487 0.0618738 0)
(0.654883 0.0612561 0)
(0.64841 0.0606506 0)
(0.642064 0.060057 0)
(0.63584 0.0594749 0)
(0.629737 0.058904 0)
(0.623749 0.0583439 0)
(0.617874 0.0577943 0)
(0.612109 0.0572551 0)
(0.60645 0.0567258 0)
(0.600895 0.0562062 0)
(0.595441 0.055696 0)
(0.590084 0.055195 0)
(0.584824 0.0547029 0)
(0.579656 0.0542196 0)
(0.574579 0.0537446 0)
(0.56959 0.053278 0)
(0.564687 0.0528194 0)
(0.559867 0.0523686 0)
(0.55513 0.0519254 0)
(0.550471 0.0514897 0)
(0.545891 0.0510612 0)
(0.541385 0.0506398 0)
(0.536954 0.0502253 0)
(0.532594 0.0498175 0)
(0.528305 0.0494163 0)
(0.524084 0.0490215 0)
(0.51993 0.048633 0)
(0.515842 0.0482505 0)
(0.511817 0.0478741 0)
(0.507855 0.0475034 0)
(0.503953 0.0471385 0)
(0.500111 0.0467791 0)
(0.496327 0.0464252 0)
(0.4926 0.0460765 0)
(0.488929 0.0457331 0)
(0.485311 0.0453948 0)
(0.481747 0.0450614 0)
(0.478235 0.0447329 0)
(0.474774 0.0444091 0)
(0.471362 0.04409 0)
(0.467999 0.0437755 0)
(0.464684 0.0434653 0)
(0.461416 0.0431596 0)
(0.458192 0.0428581 0)
(0.455014 0.0425609 0)
(0.451879 0.0422676 0)
(0.448789 0.0419785 0)
(0.445738 0.0416932 0)
(0.442731 0.0414119 0)
(0.439761 0.0411341 0)
(0.436835 0.0408604 0)
(0.433942 0.0405898 0)
(0.431094 0.0403234 0)
(0.428275 0.0400597 0)
(0.425502 0.0398003 0)
(0.422754 0.0395433 0)
(0.420053 0.0392906 0)
(0.417374 0.0390401 0)
(0.414741 0.0387938 0)
(0.41213 0.0385496 0)
(0.409561 0.0383093 0)
(0.407017 0.0380713 0)
(0.404508 0.0378367 0)
(0.402029 0.0376048 0)
(0.399578 0.0373755 0)
(0.397163 0.0371496 0)
(0.394766 0.0369254 0)
(0.392413 0.0367053 0)
(0.390069 0.0364861 0)
(0.387775 0.0362715 0)
(0.385484 0.0360572 0)
(1.51795 0.157036 0)
(1.4836 0.153481 0)