/*--------------------------------*- C++ -*----------------------------------*\
| =========                 |                                                 |
| \\      /  F ield         | foam-extend: Open Source CFD                    |
|  \\    /   O peration     | Version:  3.0                                   |
|   \\  /    A nd           | Web:         http://www.extend-project.de       |
|    \\/     M anipulation  |                                                 |
\*---------------------------------------------------------------------------*/
FoamFile
{
    version     2.0;
    format      ascii;
    class       volScalarField;
    location    "4.5";
    object      Theta;
}
// * * * * * * * * * * * * * * * * * * * * * * * * * * * * * * * * * * * * * //

dimensions      [0 0 0 0 0 0 0];

internalField   nonuniform List<scalar> 
400
(
0.120453
0.0365639
0.0203664
-0.000185622
0.00747871
0.0117935
0.0287653
0.0438437
0.0646878
0.0839293
0.105894
0.125016
0.145577
0.159793
0.175193
0.176898
0.180602
0.155962
0.134338
0.0494918
0.211099
0.1422
0.120404
0.0930764
0.0897334
0.0819306
0.0853853
0.085949
0.0916151
0.0948521
0.100485
0.102901
0.106828
0.104988
0.105026
0.0936097
0.0855734
0.0550483
0.0291273
-0.0368836
0.175378
0.111732
0.0941006
0.0712015
0.0716953
0.067279
0.0743151
0.0778235
0.0869604
0.0932607
0.102737
0.108683
0.117237
0.119448
0.124787
0.117626
0.114476
0.0878693
0.0650941
0.00314091
0.169736
0.109813
0.0952481
0.0742162
0.0765557
0.0723957
0.0795267
0.0820219
0.0901566
0.09493
0.103317
0.108097
0.116526
0.118671
0.125639
0.119668
0.11971
0.0944241
0.0740375
0.0121614
0.13643
0.0695183
0.0612708
0.0432555
0.0519469
0.051971
0.0642883
0.070852
0.083682
0.0927074
0.106223
0.115946
0.130809
0.13881
0.154091
0.154002
0.163613
0.139868
0.125565
0.0458221
0.118398
0.0477051
0.0450502
0.0298694
0.0429616
0.0453179
0.0599498
0.0677655
0.0818571
0.091815
0.106798
0.118135
0.136003
0.147179
0.168244
0.172772
0.191027
0.169237
0.161229
0.0636971
0.0918292
0.0175203
0.0213575
0.00923189
0.0269922
0.0322095
0.04981
0.0598931
0.0763585
0.0885906
0.106424
0.120832
0.143258
0.159024
0.187802
0.198075
0.227859
0.207599
0.209611
0.0848867
0.0701587
0.00279613
0.0108281
0.00280907
0.0222066
0.0290716
0.0468529
0.0572175
0.073297
0.0854051
0.103123
0.118025
0.141728
0.159783
0.192693
0.20775
0.245417
0.229426
0.238944
0.100163
0.0423023
-0.011454
0.000737176
-0.002568
0.0172763
0.0254955
0.0427019
0.0531163
0.0683619
0.0801293
0.0972978
0.112358
0.136829
0.156743
0.193623
0.213224
0.260439
0.249126
0.272424
0.118173
0.0143336
-0.0151753
-0.00114251
0.0018291
0.0196341
0.0287626
0.0433764
0.0526403
0.0650516
0.0747514
0.0889203
0.101943
0.123751
0.143139
0.178839
0.201733
0.25082
0.248591
0.276889
0.133987
-0.018322
-0.0182855
-0.00254283
0.00735623
0.0224388
0.0323702
0.0438832
0.0516846
0.0606963
0.0677697
0.0781334
0.0882399
0.106401
0.124147
0.158358
0.183706
0.238072
0.245584
0.293021
0.160415
-0.0517778
-0.0183433
-0.000523127
0.0175413
0.0295981
0.0405043
0.0482293
0.0540045
0.058532
0.0618233
0.0666207
0.0719955
0.0833093
0.0969589
0.123399
0.149359
0.196487
0.218436
0.263456
0.179534
-0.0838334
-0.0159463
0.0017727
0.0282725
0.0369965
0.0490314
0.0529192
0.056529
0.0563062
0.0553716
0.0540647
0.0538789
0.0577528
0.0660308
0.0854915
0.110634
0.158304
0.194102
0.266467
0.222496
-0.115287
-0.0176941
0.00596667
0.0408764
0.0484738
0.0616749
0.0621229
0.0632178
0.0579499
0.0521013
0.0437914
0.0367595
0.0307912
0.0314041
0.0372955
0.0589622
0.0891383
0.141832
0.196712
0.24062
-0.134305
-0.00846067
0.0127278
0.0562165
0.0612071
0.0757612
0.0725354
0.0710428
0.0606468
0.0497184
0.034323
0.020007
0.00429555
-0.00390196
-0.00944783
0.00642621
0.0321235
0.0981558
0.189432
0.299451
-0.147998
-0.00619874
0.0256885
0.0749241
0.08081
0.0955001
0.0893074
0.0846458
0.0693878
0.0531257
0.0307675
0.00867425
-0.0177344
-0.0364143
-0.0588714
-0.052257
-0.0533127
0.0245884
0.0732454
0.300107
-0.136717
0.0179863
0.0442006
0.100003
0.103189
0.118064
0.107963
0.10005
0.0798645
0.0584877
0.0295208
-0.000140571
-0.0365438
-0.0663752
-0.103035
-0.108881
-0.120903
-0.0389459
0.0477181
0.353921
-0.102682
0.0451761
0.0806746
0.135034
0.137347
0.148816
0.135093
0.122858
0.0985906
0.0723313
0.0382128
0.00156737
-0.0434754
-0.0849357
-0.137725
-0.160297
-0.203452
-0.129026
-0.115623
0.298511
-0.0398761
0.0947191
0.122227
0.176905
0.174059
0.182136
0.16347
0.146971
0.11855
0.0880128
0.0492813
0.00651767
-0.0463057
-0.0991215
-0.166135
-0.208015
-0.270598
-0.213117
-0.188222
0.285299
0.0922768
0.181605
0.201386
0.240284
0.229026
0.226115
0.202754
0.179854
0.14966
0.115309
0.0759667
0.0285808
-0.0263359
-0.0901047
-0.165067
-0.233857
-0.318417
-0.314982
-0.363869
0.0850087
)
;

boundaryField
{
    cavity
    {
        type            implicitExtrapolation;
    }
    lid
    {
        type            implicitExtrapolation;
    }
    frontAndBack
    {
        type            empty;
    }
}


// ************************************************************************* //
