/*--------------------------------*- C++ -*----------------------------------*\
| =========                 |                                                 |
| \\      /  F ield         | foam-extend: Open Source CFD                    |
|  \\    /   O peration     | Version:  3.0                                   |
|   \\  /    A nd           | Web:         http://www.extend-project.de       |
|    \\/     M anipulation  |                                                 |
\*---------------------------------------------------------------------------*/
FoamFile
{
    version     2.0;
    format      ascii;
    class       volVectorField;
    location    "36";
    object      u;
}
// * * * * * * * * * * * * * * * * * * * * * * * * * * * * * * * * * * * * * //

dimensions      [0 0 0 0 0 0 0];

internalField   nonuniform List<vector> 
2688
(
(0.124161651 -0.05254501223 9.516020072e-19)
(0.2967457947 -0.04298863311 -4.153406053e-18)
(0.4346074812 -0.03566687627 -1.496074113e-18)
(0.537504728 -0.02983326329 1.991448704e-18)
(0.6237294174 -0.02524057814 -9.377904859e-19)
(0.6888058187 -0.02147643653 -4.09989784e-19)
(0.745819993 -0.01843282102 -1.681819304e-18)
(0.7887496501 -0.01587933764 -4.113043087e-18)
(0.8280789061 -0.01376087184 -3.238935344e-18)
(0.8571918419 -0.01195089552 -1.546507429e-18)
(0.8851938292 -0.01040806069 -1.19069884e-18)
(0.9052003257 -0.009072632397 -1.101427132e-18)
(0.9255862475 -0.007898432042 -7.157574972e-19)
(0.9392811625 -0.006874397398 -5.918613574e-18)
(0.9543163422 -0.005939807247 1.542513212e-18)
(0.963418256 -0.0051235016 3.110876936e-18)
(0.9745336973 -0.004344201527 1.652030757e-18)
(0.9801242526 -0.003666835992 7.461209305e-19)
(0.9882463775 -0.002985023986 3.645859463e-18)
(0.9910124036 -0.00239899486 2.331486635e-18)
(0.9967492703 -0.001773445764 -5.771286065e-19)
(0.9971219417 -0.001243115395 -1.683144967e-18)
(1.000867322 -0.0006541603239 -4.252250891e-19)
(0.9991422475 -7.608009495e-05 -2.424367179e-18)
(0.1359280187 -0.1569753881 3.372053463e-18)
(0.3063722665 -0.1284266193 -3.721296702e-19)
(0.4425942151 -0.1065529939 -9.927163917e-18)
(0.5441852817 -0.08912572702 -2.251275437e-18)
(0.6293815192 -0.07540534211 -2.961373875e-18)
(0.6936150587 -0.06416024767 4.977422813e-19)
(0.7499477254 -0.05506777952 -2.248336385e-18)
(0.7923055868 -0.04743930715 -1.277876824e-18)
(0.8311604676 -0.0411105733 4.172693754e-18)
(0.8598680819 -0.03570332868 4.804327438e-18)
(0.8875245905 -0.03109427889 -2.286293411e-18)
(0.9072320275 -0.02710476682 -4.186868901e-18)
(0.9273550194 -0.02359699321 -7.295279316e-20)
(0.9408206059 -0.02053776708 -2.716718246e-18)
(0.9556465094 -0.01774577112 -2.801003323e-18)
(0.9645656108 -0.01530706628 -1.263447639e-19)
(0.9755065549 -0.01297891861 -4.549044632e-18)
(0.9809454324 -0.01095532525 -4.651703517e-18)
(0.9889149188 -0.008918570321 6.575042558e-18)
(0.9915497187 -0.007167999587 -1.293636518e-17)
(0.9971464749 -0.005299212944 6.152900252e-18)
(0.9974003757 -0.003714833921 5.131545211e-19)
(1.001013908 -0.001955502722 5.07952953e-18)
(0.9991593896 -0.0002286320434 5.005925079e-18)
(0.1593130683 -0.2594316366 6.661470736e-18)
(0.3255041523 -0.2122493918 -2.109319922e-18)
(0.4584676647 -0.1760992779 -5.207955895e-18)
(0.5574626483 -0.147297428 -1.236304893e-18)
(0.6406148891 -0.1246218523 -3.003826782e-18)
(0.7031732715 -0.1060372592 4.71868847e-18)
(0.7581514158 -0.09101020711 -5.475005945e-18)
(0.7993728499 -0.0784026663 6.096496591e-18)
(0.8372849138 -0.06794322105 -6.120835333e-18)
(0.8651869909 -0.05900670715 8.372645196e-18)
(0.8921568632 -0.05138939348 5.516160737e-18)
(0.9112699629 -0.04479597247 3.218969824e-18)
(0.9308703738 -0.03899874107 4.273504141e-18)
(0.9438802103 -0.03394281076 -6.851876151e-18)
(0.958290168 -0.02932854292 4.323793264e-18)
(0.9668459736 -0.02529813635 -1.086980493e-17)
(0.9774400949 -0.02145043933 2.103693624e-17)
(0.9825775377 -0.01810605401 -1.771345774e-17)
(0.9902436099 -0.01473992318 -1.394975492e-17)
(0.9926176158 -0.01184678963 1.277448915e-17)
(0.9979359434 -0.00875832033 3.095599888e-18)
(0.9979538373 -0.006139868053 -2.041606542e-17)
(1.001305288 -0.003232240494 -8.350306053e-18)
(0.9991935108 -0.000378290681 1.150627942e-17)
(0.1940224332 -0.3586254405 -2.608157851e-19)
(0.3539010242 -0.2934031073 -6.145203315e-18)
(0.4820280718 -0.2434310087 -6.508564295e-18)
(0.5771696217 -0.2036167853 2.265422687e-19)
(0.657288115 -0.1722711948 -8.138429894e-18)
(0.7173600473 -0.1465808077 4.17570275e-18)
(0.7703277447 -0.1258081935 -7.02300913e-18)
(0.8098624129 -0.1083801282 -1.533108639e-18)
(0.8463751268 -0.0939215191 -3.402355826e-18)
(0.8730815788 -0.08156810758 -6.115315773e-18)
(0.899032343 -0.07103832016 -1.651337999e-17)
(0.9172632923 -0.06192389361 -6.106059371e-18)
(0.9360880968 -0.05391009689 1.19271873e-17)
(0.9484214784 -0.04692103081 1.454061752e-18)
(0.9622140945 -0.04054250748 2.31623313e-18)
(0.9702306524 -0.03497108249 -9.002890797e-18)
(0.9803099993 -0.02965222813 -1.329576103e-17)
(0.9849999886 -0.02502912124 5.708220872e-18)
(0.9922157241 -0.02037594916 -3.526576682e-18)
(0.9942026477 -0.01637661982 -1.983135738e-17)
(0.9991077759 -0.0121072816 1.027586321e-17)
(0.9987753309 -0.008487691128 1.905272383e-17)
(1.001737782 -0.004468343218 -1.99935097e-17)
(0.9992441725 -0.0005232001112 2.291892189e-17)
(0.2396197222 -0.453309253 -6.289952381e-19)
(0.3912056301 -0.3708670199 6.320412447e-18)
(0.5129790211 -0.3077014546 1.155476863e-17)
(0.6030584395 -0.2573755173 7.14981276e-19)
(0.6791914935 -0.2177540931 -1.145164453e-18)
(0.7359970607 -0.1852809871 9.439699261e-19)
(0.7863236268 -0.1590240131 -5.812849577e-18)
(0.8236424199 -0.1369945961 -6.227750017e-18)
(0.8583167913 -0.1187186343 -1.106937637e-18)
(0.8834525766 -0.1031036814 1.473273819e-17)
(0.9080645268 -0.08979383683 -9.414556549e-19)
(0.9251366283 -0.0782730322 6.277365216e-18)
(0.9429425128 -0.06814345532 -5.289523548e-18)
(0.954387276 -0.05930915556 9.913802212e-18)
(0.9673688919 -0.0512466036 -2.860288006e-17)
(0.9746770815 -0.04420423497 -9.297873263e-18)
(0.9840801662 -0.03748112079 2.174854357e-17)
(0.9881823611 -0.03163743261 1.616355563e-18)
(0.9948064703 -0.02575573278 1.126239026e-17)
(0.9962848981 -0.02070050448 9.617964892e-18)
(1.000647205 -0.01530398987 -1.762347515e-18)
(0.9998545494 -0.01072878125 5.786914397e-18)
(1.002305959 -0.005648264363 -3.172561127e-17)
(0.9993107491 -0.0006615389622 3.458493877e-17)
(0.2955315513 -0.5422924891 -1.820509555e-17)
(0.4369489469 -0.4436671355 -1.407952838e-19)
(0.5509314243 -0.3681023913 2.587898606e-18)
(0.6348035501 -0.3078976364 -6.430744132e-19)
(0.7060496613 -0.2604986405 -1.197426908e-17)
(0.7588499419 -0.221651183 1.277815519e-18)
(0.8059379591 -0.1902400623 2.464060403e-18)
(0.8405396019 -0.1638863225 -2.882374554e-17)
(0.872959806 -0.1420228437 -1.816739726e-17)
(0.8961696065 -0.1233427095 2.770970405e-18)
(0.9191399126 -0.1074201805 -1.653258637e-18)
(0.9347910021 -0.09363786833 2.735628965e-18)
(0.9513474956 -0.0815198835 -5.114731513e-19)
(0.9617026026 -0.07095143651 1.582393727e-17)
(0.9736897754 -0.06130623287 -9.975929856e-18)
(0.9801293308 -0.05288147757 3.713969545e-17)
(0.9887031832 -0.04483864214 1.482931288e-17)
(0.9920845944 -0.03784786187 4.137642918e-20)
(0.9979832551 -0.03081159288 -1.011857848e-17)
(0.9988381507 -0.02476403856 1.128469174e-18)
(1.002534857 -0.01830820334 4.392554959e-18)
(1.00117788 -0.01283490623 2.21855309e-17)
(1.003002661 -0.006757111546 1.705215167e-17)
(0.99939238 -0.0007915178086 -2.979827574e-17)
(0.3610547477 -0.6244560339 -8.801849031e-18)
(0.4905556127 -0.5108878104 -7.780975128e-18)
(0.595407881 -0.4238741966 1.525621019e-17)
(0.6720057084 -0.3545477243 -1.278325134e-17)
(0.7375247613 -0.2999672366 -9.932952422e-18)
(0.7856312705 -0.2552339532 1.112046988e-17)
(0.8289239901 -0.2190636936 6.100005452e-19)
(0.8603414155 -0.1887170492 -7.174215794e-18)
(0.8901199275 -0.1635409998 3.707670022e-17)
(0.9110726828 -0.1420306034 -2.400073891e-17)
(0.9321191236 -0.1236956315 -6.688793759e-18)
(0.9461049556 -0.1078251392 1.206512293e-17)
(0.9611972744 -0.09387114775 -3.425085338e-18)
(0.9702754448 -0.08170146289 -1.838139034e-19)
(0.9810972217 -0.07059491251 -1.764381808e-17)
(0.9865188545 -0.06089371949 -1.60973338e-17)
(0.9941209199 -0.05163231485 -2.396390716e-17)
(0.9966576671 -0.04358235733 -4.670398487e-18)
(1.001706159 -0.03548001007 -5.49600804e-18)
(1.001830355 -0.02851617895 -9.488400308e-18)
(1.004747026 -0.02108221042 -2.675198326e-17)
(1.002728732 -0.01477964866 -2.94390177e-17)
(1.003819149 -0.007781010441 -2.044837828e-17)
(0.9994880694 -0.0009115654171 -4.365960875e-17)
(0.4353653685 -0.6987667133 -1.94865525e-18)
(0.5513515788 -0.5716838328 -9.892938447e-18)
(0.6458491993 -0.4743155626 -7.764522836e-18)
(0.714197133 -0.3967392039 3.887812964e-18)
(0.7732210932 -0.3356635944 6.998438075e-18)
(0.8160043124 -0.2856070343 -1.684967515e-17)
(0.8549927694 -0.2451324951 -2.809547559e-18)
(0.8827989125 -0.2111745708 7.411608187e-18)
(0.9095814716 -0.1830025487 1.397601106e-18)
(0.9279744588 -0.1589323922 8.91094641e-18)
(0.9468390363 -0.138415539 9.863559097e-18)
(0.9589362498 -0.1206564416 -8.221009755e-18)
(0.972368042 -0.1050419088 -1.663753933e-17)
(0.9799979945 -0.09142402342 3.341472388e-18)
(0.9894980924 -0.07899578413 2.172978525e-17)
(0.9937652624 -0.06814015123 -6.238415886e-18)
(1.000265223 -0.05777663759 2.248647035e-17)
(1.001844008 -0.04876874273 3.0602991e-18)
(1.005928325 -0.03970221099 2.377497136e-18)
(1.005223815 -0.0319096863 3.599874302e-18)
(1.007255852 -0.02359106745 5.441981699e-17)
(1.004487544 -0.01653850231 -2.330824889e-17)
(1.00474513 -0.008707030263 -1.094625468e-17)
(0.9995965793 -0.001020124729 -2.475863e-17)
(0.5175288787 -0.7642899561 -2.258747437e-17)
(0.6185722363 -0.6252905411 -1.824398071e-17)
(0.7016209418 -0.5187921034 3.089505651e-18)
(0.7608471846 -0.4339414186 1.741039409e-17)
(0.8126896435 -0.367138765 1.293028643e-17)
(0.8495870509 -0.3123884142 -1.520408727e-17)
(0.8838163598 -0.2681185945 -9.196732467e-18)
(0.9076296168 -0.2309764321 1.434199348e-17)
(0.9310996015 -0.2001627261 -4.225968661e-18)
(0.9466623426 -0.1738355072 -4.282185787e-18)
(0.9631144718 -0.151394795 -8.799123838e-18)
(0.9731235173 -0.1319704237 2.243493324e-17)
(0.9847192951 -0.1148917215 -1.63505134e-17)
(0.9907480173 -0.09999688482 -1.638882094e-18)
(0.9987867559 -0.08640325558 -9.833631472e-18)
(1.001777488 -0.07452969118 -6.053926898e-18)
(1.007058865 -0.06319439828 -1.442285369e-17)
(1.00757847 -0.0533418383 2.141789158e-17)
(1.010596706 -0.043425145 1.973054952e-17)
(1.008975925 -0.03490192011 -3.871634063e-18)
(1.010029824 -0.02580326486 -1.232330267e-17)
(1.006432248 -0.01808937914 8.257264651e-18)
(1.005768977 -0.009523560739 3.425094734e-17)
(0.9997165741 -0.001115858516 -5.216054208e-17)
(0.6065120601 -0.8202018369 1.178897663e-17)
(0.691372301 -0.6710339002 -2.505540763e-17)
(0.7620218493 -0.5567445502 4.491670064e-17)
(0.811369273 -0.4656865941 -1.604685151e-17)
(0.8554341804 -0.3939969614 1.119208214e-17)
(0.8859572218 -0.3352413411 -1.344332019e-17)
(0.9150323881 -0.2877329471 -6.482690735e-18)
(0.9345213173 -0.2478736336 2.205558854e-18)
(0.9544037948 -0.2148057323 9.333778665e-18)
(0.9669013452 -0.1865525342 -1.645471988e-17)
(0.9807408008 -0.1624701562 7.809407066e-18)
(0.9884883271 -0.1416247891 3.455193925e-18)
(0.9980957098 -0.1232966822 -1.946476791e-17)
(1.002390273 -0.1073122132 -1.176988116e-17)
(1.008846372 -0.0927241347 -4.992097745e-18)
(1.010454703 -0.0799819636 -2.413823464e-17)
(1.014416369 -0.06781743294 1.009043818e-17)
(1.01378887 -0.05724411724 -3.633584856e-17)
(1.015652556 -0.04660196866 -4.212939896e-18)
(1.013039445 -0.03745523953 -3.477962591e-19)
(1.013034035 -0.02769096722 2.348659383e-17)
(1.008538354 -0.01941277373 -3.125169964e-17)
(1.00687781 -0.01022032451 3.098720027e-17)
(0.9998465275 -0.001197561143 2.526159593e-17)
(0.7011958428 -0.8657991731 1.214496855e-17)
(0.7688362161 -0.7083385787 9.622065597e-18)
(0.8262922464 -0.5876955914 1.585612856e-17)
(0.865127989 -0.4915754623 -1.54442625e-17)
(0.9009170621 -0.4159004076 1.028538441e-17)
(0.9246573923 -0.3538783977 -7.468886802e-18)
(0.9482482036 -0.3037288894 -1.420025903e-17)
(0.9631357973 -0.2616536744 -1.160942127e-17)
(0.9792009234 -0.2267474391 -1.330719802e-17)
(0.9884369442 -0.1969235553 -3.095722007e-17)
(0.9994963357 -0.1715023722 -1.428945104e-17)
(1.004837489 -0.1494981431 1.321557251e-17)
(1.012329078 -0.1301511268 -3.02012636e-19)
(1.014778407 -0.1132780288 2.824925007e-17)
(1.019550459 -0.09787896016 2.609917634e-17)
(1.019687844 -0.08442841118 2.009935688e-17)
(1.022245235 -0.07158762185 -6.207002255e-18)
(1.020397157 -0.06042650468 5.778750383e-17)
(1.021032314 -0.04919273533 -1.694363967e-17)
(1.017363309 -0.0395375212 -5.884624434e-18)
(1.016230712 -0.02923042936 -1.952998493e-17)
(1.010779397 -0.02049202607 -7.436314822e-17)
(1.008057678 -0.01078855169 1.889463176e-17)
(0.9999848125 -0.001264189375 -1.008504072e-17)
(0.8003896036 -0.9005085953 9.763589079e-18)
(0.8499898897 -0.7367355127 -3.293450343e-18)
(0.8936239914 -0.6112560243 7.751708214e-18)
(0.9214473465 -0.5112824977 -1.655914527e-17)
(0.9485664091 -0.4325736607 5.053811537e-18)
(0.9652009341 -0.3680652305 2.140782158e-17)
(0.9830461761 -0.3159052514 -5.841608588e-18)
(0.9931132381 -0.2721432638 3.163150611e-17)
(1.005179198 -0.235837648 2.972986806e-17)
(1.010998311 -0.2048181436 1.9130504e-17)
(1.019145231 -0.1783778316 -1.069770738e-17)
(1.021965368 -0.1554914705 1.262915793e-18)
(1.0272404 -0.1353688375 -8.18076967e-18)
(1.027756584 -0.117819314 -8.894693892e-21)
(1.030764394 -0.1018029013 -3.330821078e-17)
(1.029360754 -0.08781313494 -6.288131685e-17)
(1.030447 -0.07445756038 -1.238966052e-17)
(1.027320194 -0.06284900744 -3.299076693e-18)
(1.02666832 -0.05116488022 -2.86091197e-17)
(1.021893122 -0.04112260816 -3.300687707e-17)
(1.01957966 -0.03040230759 3.76954321e-17)
(1.013127185 -0.02131359073 -1.771372098e-18)
(1.009293758 -0.01122111013 4.12611954e-17)
(1.000129689 -0.001314928293 8.217882087e-19)
(0.9028458485 -0.923893586 7.439469348e-18)
(0.9338127041 -0.7558675359 -1.033281399e-17)
(0.9631702557 -0.6271295446 1.050130376e-18)
(0.9796190386 -0.5245598372 -2.056281274e-17)
(0.9977829174 -0.4438070475 5.465330992e-19)
(1.007077948 -0.3776234188 9.660431502e-18)
(1.018988635 -0.3241089263 -1.074469913e-17)
(1.024076641 -0.2792104879 -1.758040913e-17)
(1.032011891 -0.2419620691 2.324968106e-18)
(1.034301734 -0.2101370187 -2.488322088e-19)
(1.039440378 -0.1830100905 6.886807595e-18)
(1.039656602 -0.1595293926 -3.97319759e-18)
(1.042642157 -0.138884205 -3.701410399e-17)
(1.041161632 -0.1208789382 3.695961467e-17)
(1.042347155 -0.104446605 -1.359249337e-17)
(1.039351819 -0.09009353906 3.574325809e-17)
(1.038918517 -0.07639114019 8.328326659e-18)
(1.034470938 -0.06448112611 2.939162385e-17)
(1.032489689 -0.05249358235 3.345515608e-17)
(1.026571926 -0.04219053207 1.23117006e-18)
(1.023038749 -0.03119184485 4.255347457e-18)
(1.015552194 -0.02186710519 6.971313525e-18)
(1.010570485 -0.01151254496 -2.378810656e-19)
(1.000279333 -0.001349113952 -3.073744607e-17)
(1.007276177 -0.9356600905 9.873972039e-19)
(1.019250586 -0.7654941096 -5.976748573e-18)
(1.034056535 -0.6351165463 -2.040107963e-17)
(1.038911573 -0.5312405399 9.060338482e-18)
(1.047947738 -0.4494592915 8.824701318e-19)
(1.04976184 -0.3824327724 -2.008593585e-18)
(1.055623641 -0.3282367262 3.349485458e-18)
(1.055636636 -0.282766475 9.936058447e-18)
(1.059361598 -0.2450436604 -5.838020619e-19)
(1.058054153 -0.2128133007 -1.394462234e-17)
(1.060126574 -0.1853408827 -3.561834571e-18)
(1.057688696 -0.161561149 -9.588503795e-18)
(1.058340679 -0.1406530232 1.270269311e-17)
(1.054824958 -0.1224184554 -1.376234297e-17)
(1.054153099 -0.1057768389 9.731142894e-18)
(1.049535385 -0.09124098489 -1.552277477e-17)
(1.047553271 -0.07736406828 -6.033608833e-18)
(1.041759458 -0.06530237776 -2.99538518e-18)
(1.038423232 -0.05316215674 -3.263915709e-17)
(1.03134088 -0.04272790164 1.258085747e-17)
(1.026564499 -0.03158913199 7.962734559e-19)
(1.018023931 -0.02214563983 1.992884677e-18)
(1.011871825 -0.01165920446 2.022445637e-18)
(1.000431865 -0.001366341838 1.016558507e-19)
(1.112367263 -0.935660118 -2.645343123e-18)
(1.105229062 -0.7654941307 -2.454960484e-18)
(1.105391322 -0.6351165848 -2.349577346e-17)
(1.098579268 -0.5312405685 1.188415444e-17)
(1.098429951 -0.4494593263 1.34971033e-18)
(1.092715807 -0.3824328008 4.176990957e-18)
(1.092490436 -0.328236764 -3.246058303e-18)
(1.087396326 -0.2827664999 8.377491851e-18)
(1.086884347 -0.2450436898 -4.45777568e-18)
(1.081956867 -0.2128133188 -1.574954556e-17)
(1.080943647 -0.1853409047 -1.79823147e-17)
(1.075834889 -0.1615611634 5.662268488e-18)
(1.074138518 -0.1406530416 1.684324626e-17)
(1.068574738 -0.122418469 -2.125209273e-17)
(1.066033731 -0.1057768571 -1.658202498e-17)
(1.059783388 -0.09124099923 1.461602355e-17)
(1.056242649 -0.07736408485 -2.401181531e-18)
(1.049094097 -0.0653023915 -9.385619432e-19)
(1.044394311 -0.05316217334 -6.667114509e-18)
(1.036140013 -0.04272792228 -1.659754603e-17)
(1.030112551 -0.03158915666 -5.855259667e-18)
(1.020511311 -0.02214566324 -3.08781756e-18)
(1.013181393 -0.01165923532 -2.773875355e-17)
(1.000585366 -0.001366372947 2.529108578e-17)
(1.216797616 -0.923893669 -6.27320833e-18)
(1.190666958 -0.7558676237 6.343496428e-18)
(1.176277612 -0.627129655 -1.60150071e-17)
(1.157871811 -0.5245599413 -6.407696822e-18)
(1.148594777 -0.4438071345 -1.490091985e-18)
(1.135399707 -0.3776235135 -4.774968641e-18)
(1.129125449 -0.3241090154 2.777137298e-18)
(1.11895633 -0.279210571 -2.03842439e-17)
(1.114234064 -0.2419621376 -2.114359155e-17)
(1.105709298 -0.2101370904 3.530419976e-19)
(1.101629854 -0.1830101487 2.541249346e-17)
(1.093866995 -0.1595294616 9.86368374e-19)
(1.08983705 -0.1388842641 3.676681225e-18)
(1.082238074 -0.1208790132 -2.91583528e-18)
(1.077839683 -0.1044466729 1.041472648e-18)
(1.069966963 -0.09009362261 1.976146995e-17)
(1.064877409 -0.07639120983 4.597229128e-18)
(1.056382622 -0.06448120755 1.72013788e-17)
(1.050327858 -0.05249365064 7.602283862e-18)
(1.040908972 -0.04219062875 2.976892747e-17)
(1.033638304 -0.03119193171 4.123029097e-18)
(1.022983053 -0.02186720208 1.569269192e-17)
(1.014482739 -0.01151264296 -6.156130643e-18)
(1.000737906 -0.001349227324 -1.628725907e-17)
(1.319253866 -0.9005087226 -4.556022804e-18)
(1.274489781 -0.736735624 8.347299022e-18)
(1.245823893 -0.6112562034 -6.520016707e-18)
(1.216043519 -0.5112826536 3.290326058e-18)
(1.197811302 -0.4325738146 -6.077712253e-19)
(1.177276734 -0.3680653802 1.562930865e-18)
(1.165067922 -0.3159054139 9.953755052e-18)
(1.149919741 -0.2721433965 1.21509787e-17)
(1.141066763 -0.2358377761 1.714070592e-17)
(1.129012723 -0.2048182535 1.917359338e-17)
(1.121925002 -0.1783779358 5.478597625e-18)
(1.111558227 -0.1554915696 -1.090825667e-17)
(1.105238808 -0.135368934 1.104102859e-19)
(1.095643122 -0.1178194154 -7.920122032e-18)
(1.089422447 -0.1018030038 -1.937429868e-17)
(1.079958033 -0.08781324469 -1.885789674e-17)
(1.073348933 -0.07445766024 -8.537474319e-18)
(1.063533373 -0.06284911333 -3.200709083e-17)
(1.056149235 -0.05116497939 7.670562709e-18)
(1.045587789 -0.04112274375 -2.699273908e-17)
(1.037097407 -0.03040244196 -2.213683858e-18)
(1.025408078 -0.02131373276 2.640555726e-18)
(1.015759484 -0.01122126837 -2.196603548e-17)
(1.000887568 -0.001315102497 4.773303247e-17)
(1.418447633 -0.8657993589 -1.575421029e-18)
(1.355643463 -0.7083387642 1.450681415e-17)
(1.313155655 -0.5876958439 2.872137253e-18)
(1.272362892 -0.4915756942 -3.072777692e-19)
(1.24546066 -0.4159006125 -3.73220463e-18)
(1.217820293 -0.3538786102 -1.547250224e-17)
(1.199865912 -0.3037290991 5.763359961e-18)
(1.179897205 -0.2616538589 -9.569543255e-18)
(1.16704506 -0.226747599 -1.08241915e-17)
(1.151574116 -0.1969237082 -1.129673944e-17)
(1.141573924 -0.1715025016 5.480497762e-18)
(1.128686136 -0.1494982838 -1.198796821e-17)
(1.120150157 -0.1301512509 2.027592192e-18)
(1.108621329 -0.1132781776 -1.040017014e-17)
(1.100636406 -0.09787909875 4.25165573e-17)
(1.089630967 -0.08442857672 1.968320215e-17)
(1.081550714 -0.07158776352 1.676031394e-17)
(1.070456427 -0.0604266698 -1.409681613e-18)
(1.061785253 -0.04919288139 4.456368034e-18)
(1.050117618 -0.03953772954 -4.688475745e-18)
(1.04044637 -0.029230624 -1.621819563e-17)
(1.027755883 -0.02049224022 -6.447447445e-18)
(1.016995582 -0.01078877603 -4.189866419e-17)
(1.001032469 -0.001264444397 -1.40004307e-19)
(1.513131449 -0.8202020622 -2.931584091e-18)
(1.433107406 -0.6710341117 1.292781907e-18)
(1.377426093 -0.556744867 1.414483107e-17)
(1.32612164 -0.4656868702 -4.700204656e-18)
(1.290943574 -0.393997225 -7.764436023e-18)
(1.25652049 -0.3352416019 -4.058824398e-18)
(1.233081757 -0.2877332242 6.633487426e-18)
(1.208511703 -0.2478738653 -3.838016088e-18)
(1.191842206 -0.2148059506 -8.094176116e-18)
(1.173109722 -0.1865527273 2.06828536e-17)
(1.160329465 -0.1624703339 -6.511890654e-18)
(1.145035298 -0.1416249632 -1.472877104e-17)
(1.134383526 -0.1232968456 2.107131223e-17)
(1.121009462 -0.107312389 1.017339823e-18)
(1.111340496 -0.09272430598 -2.097762267e-17)
(1.098864111 -0.0799821523 7.928084182e-18)
(1.089379586 -0.06781760181 -1.645006487e-17)
(1.077064721 -0.05724430469 -2.809196669e-17)
(1.06716502 -0.04660214456 1.844021863e-19)
(1.054441502 -0.03745548445 1.5113082e-18)
(1.043643068 -0.02769120551 1.242628827e-17)
(1.02999695 -0.01941302889 2.262041064e-17)
(1.018175478 -0.01022060427 3.359565823e-18)
(1.001170787 -0.001197872251 -1.582325097e-17)
(1.602114675 -0.7642902381 -1.037898048e-17)
(1.505907504 -0.6252908236 2.071781256e-18)
(1.437827036 -0.5187924883 -3.435176292e-18)
(1.376643759 -0.4339417658 6.626382625e-18)
(1.333688129 -0.3671390755 -5.650916012e-18)
(1.292890684 -0.3123887324 1.868887265e-18)
(1.264297805 -0.2681189134 5.621274493e-18)
(1.235403428 -0.2309767073 -7.285114409e-18)
(1.21514642 -0.2001629671 -5.810516731e-19)
(1.193348753 -0.17383573 4.511982677e-18)
(1.177955819 -0.1513949828 -7.025332396e-18)
(1.160400141 -0.1319706205 1.047542078e-18)
(1.147759971 -0.1148918914 3.002756556e-18)
(1.132651755 -0.0999970845 -1.103243462e-17)
(1.121400144 -0.08640343933 3.384887973e-18)
(1.107541362 -0.07452991296 4.427091802e-18)
(1.096737118 -0.06319459045 1.048266888e-17)
(1.083275153 -0.05334207227 6.3998489e-18)
(1.072220898 -0.04342535939 -9.588461589e-18)
(1.058505059 -0.03490222851 -2.189504557e-18)
(1.046647313 -0.02580355411 -1.166094466e-17)
(1.032103092 -0.01808969841 5.464968447e-18)
(1.019284349 -0.009523899461 -7.410546211e-18)
(1.001300785 -0.001116242654 3.003127321e-18)
(1.684278218 -0.6987670219 1.187755318e-18)
(1.573128199 -0.5716841203 1.42791303e-18)
(1.493598838 -0.4743159942 -4.213537232e-18)
(1.423293859 -0.3967395785 -4.850244677e-19)
(1.373156728 -0.3356639486 -8.585170005e-20)
(1.326473462 -0.2856073876 -4.985807713e-18)
(1.293121442 -0.2451328671 2.52679009e-18)
(1.260234164 -0.2111748829 7.190377272e-18)
(1.236664583 -0.1830028371 -7.536140051e-18)
(1.212036658 -0.1589326502 6.794449774e-18)
(1.194231275 -0.1384157711 4.037179751e-18)
(1.174587419 -0.1206566724 -1.137082673e-17)
(1.160111234 -0.1050421194 1.662636711e-18)
(1.143401782 -0.09142425421 9.829309088e-18)
(1.130688814 -0.07899600526 6.703716116e-19)
(1.115553592 -0.06814040403 -1.28846125e-18)
(1.103530765 -0.05777686775 1.072550888e-17)
(1.089009622 -0.04876901331 1.473575849e-18)
(1.07688929 -0.03970246749 2.660311558e-19)
(1.062257192 -0.03191003564 -3.342263412e-18)
(1.049421309 -0.02359139983 2.233137997e-17)
(1.034047823 -0.01653886079 1.683171755e-17)
(1.020308232 -0.008707421108 2.597602399e-17)
(1.001420822 -0.001020560483 -3.862808273e-18)
(1.758588894 -0.6244564055 3.249742986e-19)
(1.633924205 -0.5108881744 2.551063512e-18)
(1.544040205 -0.42387469 -2.748432432e-18)
(1.465485331 -0.3545481637 -1.499376836e-18)
(1.408853088 -0.2999676323 -3.840986964e-18)
(1.356846536 -0.2552343583 5.551102604e-18)
(1.319190243 -0.2190641038 2.71498651e-18)
(1.282691683 -0.1887173997 4.891218972e-18)
(1.256126139 -0.1635413078 6.322564143e-18)
(1.228938452 -0.1420308853 -2.172150625e-18)
(1.2089512 -0.1236958681 6.288817051e-18)
(1.187418736 -0.1078253834 1.406587708e-18)
(1.171282022 -0.09387135413 -9.060594014e-18)
(1.153124365 -0.08170170336 -5.934795016e-19)
(1.139089717 -0.07059513128 -6.096528934e-18)
(1.122800045 -0.06089399093 1.431824165e-18)
(1.10967511 -0.05163255738 -1.720271946e-17)
(1.094196015 -0.04358266415 -1.359072444e-18)
(1.081111505 -0.03548029002 -1.601010216e-18)
(1.065650714 -0.02851656647 -2.270541053e-18)
(1.051930191 -0.02108256717 -7.502107207e-18)
(1.035806692 -0.01478004729 -7.316433571e-18)
(1.021234272 -0.007781437116 -7.065561547e-18)
(1.001529398 -0.0009120512417 -2.588942581e-18)
(1.824112149 -0.5422928797 -1.314416614e-18)
(1.687530928 -0.4436674882 7.100964188e-19)
(1.588516743 -0.3681029206 -4.009439952e-18)
(1.50268755 -0.3078980887 2.337281189e-18)
(1.440328252 -0.2604990634 -3.022667901e-18)
(1.383627915 -0.2216516074 1.757882688e-18)
(1.342176335 -0.1902405034 2.553134759e-18)
(1.302493543 -0.1638866909 -4.481339938e-18)
(1.27328631 -0.142023177 -6.068633389e-18)
(1.243841568 -0.1233430079 -9.373533313e-19)
(1.221930451 -0.1074204434 2.180573953e-18)
(1.198732723 -0.09363813461 9.830938193e-19)
(1.181131835 -0.08152012321 7.185496026e-18)
(1.161697236 -0.07095170765 -2.41898137e-18)
(1.146497194 -0.06130649582 3.817624457e-18)
(1.129189597 -0.05288179381 4.957580268e-18)
(1.115092872 -0.04483894267 1.316801687e-18)
(1.098769112 -0.03784822443 -1.462655127e-19)
(1.084834432 -0.03081192672 -3.870850062e-18)
(1.068642951 -0.02476446836 -6.028823429e-21)
(1.054142389 -0.01830860598 -3.554013251e-18)
(1.037357575 -0.01283535062 1.649524017e-17)
(1.022050804 -0.006757595175 2.015332099e-18)
(1.001625138 -0.0007920581115 8.115532088e-18)
(1.880024028 -0.4533097044 2.831928499e-18)
(1.733274275 -0.3708674398 3.624871869e-18)
(1.62646919 -0.3077020281 6.271496301e-19)
(1.534432718 -0.2573760159 1.657002386e-18)
(1.46718645 -0.2177545412 3.177895527e-18)
(1.406480836 -0.1852814489 4.215675857e-19)
(1.36179069 -0.1590244849 -2.335927618e-18)
(1.319390741 -0.1369949958 -7.880003187e-19)
(1.287929325 -0.1187189855 3.118482483e-18)
(1.256558598 -0.1031040023 6.12294421e-19)
(1.233005826 -0.08979410809 4.501832247e-18)
(1.208387097 -0.07827331492 -1.477914327e-18)
(1.189536814 -0.06814369736 -6.963426978e-19)
(1.169012578 -0.05930944097 -4.440626043e-18)
(1.152818095 -0.0512468703 1.173496427e-18)
(1.134641882 -0.04420457219 3.878134853e-18)
(1.119715923 -0.03748143439 2.28706381e-19)
(1.102671394 -0.03163782275 5.595835105e-19)
(1.08801126 -0.02575607342 2.494244334e-18)
(1.071196268 -0.02070094728 2.361550932e-18)
(1.056030096 -0.01530439338 -1.427345898e-18)
(1.038680968 -0.01072924691 -4.492418326e-18)
(1.022747572 -0.00564876255 2.397749229e-18)
(1.001706843 -0.0006621080909 2.598389681e-18)
(1.925621369 -0.3586259058 2.678230626e-18)
(1.770578958 -0.2934035048 -1.272916245e-18)
(1.657420223 -0.2434316132 -5.799297727e-19)
(1.560321585 -0.2036172839 1.058321209e-18)
(1.489089884 -0.172271649 2.10362908e-18)
(1.425117886 -0.1465812704 -2.075441451e-18)
(1.377786619 -0.1258086654 1.479038706e-19)
(1.333170777 -0.1083805163 -1.525010984e-19)
(1.299871021 -0.09392186109 8.638742107e-19)
(1.26692962 -0.08156841344 -1.727819645e-18)
(1.242038041 -0.07103858637 -1.409318087e-18)
(1.216260461 -0.06192417097 9.361421021e-19)
(1.196391267 -0.05391034787 3.056225543e-19)
(1.174978414 -0.04692132733 -9.531759879e-19)
(1.157972938 -0.04054280257 4.052884171e-18)
(1.139088357 -0.03497145062 -3.076843605e-18)
(1.123486133 -0.02965258623 -3.478850761e-18)
(1.105853806 -0.0250295502 2.104823497e-18)
(1.090602042 -0.02037632878 2.717977805e-19)
(1.073278569 -0.01637708896 3.822406587e-19)
(1.057569571 -0.01210772271 -1.830666848e-18)
(1.039760238 -0.008488205299 3.631613914e-18)
(1.023315812 -0.004468896472 -3.672496803e-18)
(1.001773488 -0.0005238201308 -3.343118576e-18)
(1.96033081 -0.2594321599 2.813311312e-18)
(1.798975891 -0.2122498532 -8.629008387e-20)
(1.680980661 -0.1760998833 -3.23903961e-19)
(1.580028614 -0.1472979418 7.179142207e-19)
(1.505763139 -0.1246223121 1.207782016e-18)
(1.439304712 -0.106037736 2.784735713e-19)
(1.389962981 -0.09101069515 8.881413267e-19)
(1.343660358 -0.07840307328 -5.121556816e-19)
(1.308961231 -0.06794357917 5.675781754e-19)
(1.274824201 -0.05900703821 -6.051266096e-19)
(1.248913501 -0.05138967884 2.194193527e-18)
(1.222253781 -0.04479628036 1.939703179e-19)
(1.201608978 -0.03899901368 1.13557025e-19)
(1.179519691 -0.03394313987 1.878143996e-18)
(1.161896878 -0.02932885926 1.498509183e-18)
(1.142473073 -0.02529853593 -4.087779224e-19)
(1.126356069 -0.0214508182 -8.366591111e-19)
(1.108276299 -0.01810651428 -3.892625596e-19)
(1.092574181 -0.01474032279 9.24381611e-19)
(1.074863644 -0.01184727985 -8.884658037e-19)
(1.058741442 -0.008758775708 -1.553513018e-18)
(1.040581792 -0.00614042144 -1.331096393e-18)
(1.023748366 -0.003232817907 1.14948765e-18)
(1.001824221 -0.0003789460605 -2.672420408e-18)
(1.983715805 -0.1569759062 1.608413513e-18)
(1.818107923 -0.1284270207 4.00899341e-19)
(1.696854176 -0.1065536066 -6.929132742e-19)
(1.593305953 -0.08912623678 1.571639157e-19)
(1.516996514 -0.0754057965 8.868282111e-19)
(1.448862894 -0.06416071671 3.878790668e-19)
(1.398166644 -0.05506823527 6.566094202e-19)
(1.350727581 -0.04743967057 -1.352135865e-19)
(1.315085646 -0.04111089079 1.080489622e-18)
(1.280143082 -0.03570361983 1.850556234e-20)
(1.253545763 -0.03109453814 5.455170168e-19)
(1.226291718 -0.02710505331 6.746375212e-19)
(1.205124358 -0.02359726276 3.069572924e-19)
(1.182579338 -0.02053809756 3.008366809e-19)
(1.164540601 -0.01774610333 1.063186703e-18)
(1.144753505 -0.01530747409 -7.692942085e-20)
(1.128289672 -0.01297930504 -9.778343142e-19)
(1.109908446 -0.01095577223 -5.350289867e-19)
(1.093902904 -0.008918956868 2.977025201e-19)
(1.075931592 -0.00716847467 -1.410724723e-18)