/*--------------------------------*- C++ -*----------------------------------*\
| =========                 |                                                 |
| \\      /  F ield         | foam-extend: Open Source CFD                    |
|  \\    /   O peration     | Version:  3.0                                   |
|   \\  /    A nd           | Web:         http://www.extend-project.de       |
|    \\/     M anipulation  |                                                 |
\*---------------------------------------------------------------------------*/
FoamFile
{
    version     2.0;
    format      ascii;
    class       volVectorField;
    location    "32";
    object      s;
}
// * * * * * * * * * * * * * * * * * * * * * * * * * * * * * * * * * * * * * //

dimensions      [0 1 -1 0 0 0 0];

internalField   nonuniform List<vector> 
3012
(
(-2.25766 0.117698 0)
(-1.85809 -0.264629 0)
(-2.60853 0.157328 0)
(-1.75629 0.107523 0)
(-3.13246 0.333003 0)
(-2.20188 0.212733 0)
(-3.04319 -0.331683 0)
(-2.89144 0.0929503 0)
(-2.02334 0.222262 0)
(-2.23472 -0.409328 0)
(-1.91628 -0.0884966 0)
(-2.244 0.439625 0)
(-1.29756 -0.147141 0)
(-2.02413 0.07223 0)
(-2.27272 0.0602644 0)
(-1.23584 0.0999403 0)
(-3.11876 0.28593 0)
(-2.22162 0.261667 0)
(-2.97134 -0.358526 0)
(-2.90257 0.0865864 0)
(-1.27829 0.410558 0)
(-1.69085 -0.227449 0)
(-1.90138 -0.359379 0)
(-1.23208 0.291516 0)
(-2.69399 0.0227655 0)
(-1.99048 -0.155278 0)
(-1.95269 0.249538 0)
(-2.2854 0.0395571 0)
(-1.89191 0.323636 0)
(-2.08331 0.406815 0)
(-1.39038 -0.18166 0)
(-1.57179 -0.455644 0)
(-1.32783 -0.161027 0)
(-2.10285 0.366883 0)
(-1.90746 0.300015 0)
(-1.48894 -0.428249 0)
(-2.11365 -0.207615 0)
(-2.74631 0.0424576 0)
(-2.30748 0.0427561 0)
(-2.06435 0.22861 0)
(-1.18596 -0.130166 0)
(-2.18258 0.0563951 0)
(-1.12383 0.0947997 0)
(-1.9559 0.0686238 0)
(-1.31016 -0.12096 0)
(-1.45398 -0.388202 0)
(-1.94768 0.268669 0)
(-2.15693 0.323317 0)
(-1.29439 -0.38618 0)
(-2.03393 0.322171 0)
(-1.85253 0.282473 0)
(-1.16462 -0.148112 0)
(-2.24255 0.115122 0)
(-1.79044 -0.249055 0)
(-1.69317 0.110246 0)
(-2.58106 0.146341 0)
(-2.73648 -0.338843 0)
(-2.29447 0.441059 0)
(-3.0787 0.220194 0)
(-2.91581 0.0793361 0)
(-2.71857 -0.367221 0)
(-2.27175 0.350672 0)
(-3.01563 0.24655 0)
(-2.93732 0.0324727 0)
(-1.32338 -0.0976519 0)
(-2.04031 0.0268771 0)
(-2.30059 -0.00203107 0)
(-1.2775 0.146745 0)
(-2.14815 -0.154725 0)
(-1.19728 0.258353 0)
(-1.21301 0.0764008 0)
(-1.91476 -0.0891895 0)
(-1.7964 0.456117 0)
(-1.59046 -0.503596 0)
(-1.38295 -0.252365 0)
(-1.65653 0.361729 0)
(-1.71045 0.346121 0)
(-1.85955 0.417149 0)
(-1.43668 -0.485984 0)
(-1.25806 -0.243557 0)
(-1.41214 -0.0936179 0)
(-2.08887 0.0192612 0)
(-1.3714 0.169144 0)
(-2.36999 -0.0139856 0)
(-2.12704 -0.0434793 0)
(-1.10441 0.178372 0)
(-1.14578 -0.0152574 0)
(-1.9057 -0.00861588 0)
(-1.2311 -0.197502 0)
(-2.00776 0.379175 0)
(-1.83268 0.320202 0)
(-1.38651 -0.446266 0)
(-2.2864 -0.404714 0)
(-2.02677 0.211484 0)
(-1.95199 -0.0841095 0)
(-2.24739 0.444502 0)
(-2.23452 0.00437227 0)
(-2.3127 0.345739 0)
(-2.16278 -0.0478242 0)
(-2.70799 -0.203942 0)
(-2.12345 -0.171057 0)
(-1.17666 0.267565 0)
(-1.19075 0.0928568 0)
(-1.89512 -0.102854 0)
(-1.75737 0.462235 0)
(-1.37182 -0.259969 0)
(-1.58144 -0.508521 0)
(-1.62344 0.368062 0)
(-1.82015 -0.405033 0)
(-1.25735 0.316136 0)
(-1.61977 -0.255661 0)
(-1.31972 0.428156 0)
(-1.97894 0.216617 0)
(-2.20097 0.25032 0)
(-1.37467 -0.327675 0)
(-1.25907 -0.0643697 0)
(-1.5395 -0.509246 0)
(-1.34836 -0.28468 0)
(-1.52441 0.496669 0)
(-1.41587 0.393791 0)
(-1.77589 -0.184768 0)
(-1.09651 0.20282 0)
(-1.09517 0.309028 0)
(-1.97097 -0.270599 0)
(-2.50958 -0.220978 0)
(-2.34103 -0.00504567 0)
(-2.809 0.137143 0)
(-2.31824 0.304122 0)
(-3.07764 0.0285992 0)
(-2.69529 0.661104 0)
(-3.00248 0.0528341 0)
(-2.44405 -0.309721 0)
(-2.58434 -0.228546 0)
(-2.33224 -0.00102828 0)
(-2.4233 0.336233 0)
(-2.8536 0.11386 0)
(-3.08387 0.0559584 0)
(-3.05068 0.0814031 0)
(-2.62196 0.672984 0)
(-2.49545 -0.366617 0)
(-2.68828 0.0609876 0)
(-1.87872 0.213809 0)
(-2.2838 0.0564604 0)
(-1.9392 -0.187547 0)
(-3.01014 0.178027 0)
(-2.4429 0.484961 0)
(-2.55596 -0.319612 0)
(-2.97182 -0.0167965 0)
(-2.94371 0.203482 0)
(-2.39214 0.471337 0)
(-2.4753 -0.235732 0)
(-2.87025 -0.064736 0)
(-1.08304 -0.101777 0)
(-1.84347 0.238697 0)
(-1.1865 -0.326113 0)
(-2.03309 0.264379 0)
(-1.33631 -0.402698 0)
(-2.04708 0.342376 0)
(-1.86304 0.295224 0)
(-1.19727 -0.157908 0)
(-1.76371 -0.430859 0)
(-1.5675 -0.266333 0)
(-1.36713 0.448297 0)
(-1.29323 0.338287 0)
(-2.32481 0.0454336 0)
(-2.38671 -0.211659 0)
(-2.82546 0.0223365 0)
(-2.37167 0.277363 0)
(-1.33969 -0.177961 0)
(-2.07783 0.387344 0)
(-1.88795 0.314707 0)
(-1.50973 -0.446063 0)
(-2.88643 0.286468 0)
(-2.81073 -0.0996177 0)
(-2.49382 -0.203824 0)
(-2.25895 0.338661 0)
(-2.42892 -0.0818739 0)
(-2.85182 0.267336 0)
(-2.35295 0.309676 0)
(-2.75134 -0.183824 0)
(-2.3104 0.0469237 0)
(-2.40777 -0.244242 0)
(-2.83516 0.041391 0)
(-2.36982 0.283748 0)
(-1.62351 0.443933 0)
(-1.8678 -0.206494 0)
(-1.53728 0.258148 0)
(-2.14781 -0.387412 0)
(-1.58985 0.292235 0)
(-2.07497 -0.432982 0)
(-1.69852 0.464241 0)
(-1.80467 -0.224812 0)
(-1.80242 -0.419008 0)
(-1.60096 -0.260206 0)
(-1.35703 0.445712 0)
(-1.28704 0.332155 0)
(-1.67542 -0.45257 0)
(-2.1468 0.407193 0)
(-1.94076 0.311223 0)
(-1.48387 -0.162686 0)
(-1.31296 -0.0713193 0)
(-2.02558 0.0108253 0)
(-1.27246 0.164385 0)
(-2.28226 -0.023864 0)
(-1.32564 -0.169189 0)
(-2.28694 0.0831338 0)
(-2.03579 0.0884023 0)
(-1.25696 0.0841362 0)
(-1.11908 -0.267435 0)
(-2.02349 0.203019 0)
(-1.03852 -0.0508089 0)
(-1.83113 0.187277 0)
(-1.11407 0.216788 0)
(-1.77749 -0.182984 0)
(-1.98115 -0.272179 0)
(-1.11526 0.336107 0)
(-2.36573 -0.04217 0)
(-1.37979 0.192783 0)
(-1.41193 -0.0628469 0)
(-2.08266 0.000205827 0)
(-1.57014 -0.523424 0)
(-1.42126 0.390392 0)
(-1.37709 -0.298005 0)
(-1.5296 0.493759 0)
(-1.39421 -0.191692 0)
(-1.86217 0.327928 0)
(-1.57902 -0.461846 0)
(-2.04449 0.413534 0)
(-1.16404 0.209741 0)
(-1.78311 -0.175468 0)
(-1.17427 0.335478 0)
(-1.99114 -0.271565 0)
(-1.41929 -0.279235 0)
(-1.55511 0.476134 0)
(-1.44595 0.372714 0)
(-1.61569 -0.502178 0)
(-2.11329 0.420626 0)
(-1.69839 -0.461995 0)
(-1.49825 -0.174374 0)
(-1.91512 0.319275 0)
(-1.28307 0.404924 0)
(-1.7216 -0.217866 0)
(-1.93674 -0.348043 0)
(-1.2397 0.279361 0)
(-1.26428 0.307747 0)
(-1.87162 -0.386273 0)
(-1.32232 0.426842 0)
(-1.66274 -0.241701 0)
(-1.66623 0.448499 0)
(-1.87467 -0.203921 0)
(-1.57286 0.259261 0)
(-2.15862 -0.393062 0)
(-1.60376 0.277114 0)
(-1.71072 0.458547 0)
(-2.12187 -0.421786 0)
(-1.84219 -0.216271 0)
(-2.56898 -0.304599 0)
(-2.01029 0.0947119 0)
(-2.14159 -0.064817 0)
(-2.16931 0.42892 0)
(-1.16165 -0.213806 0)
(-1.76332 0.328566 0)
(-1.30999 -0.447029 0)
(-1.91852 0.380798 0)
(-1.10789 -0.11338 0)
(-2.09903 0.0548615 0)
(-1.04874 0.0927497 0)
(-1.89117 0.0660798 0)
(-1.76248 0.453649 0)
(-1.64935 0.260103 0)
(-1.87308 -0.203144 0)
(-2.16656 -0.41374 0)
(-1.22373 -0.131398 0)
(-2.19746 0.0583937 0)
(-1.16075 0.0961948 0)
(-1.967 0.0705399 0)
(-1.2916 -0.120194 0)
(-2.02197 0.0515699 0)
(-2.27274 0.0335811 0)
(-1.23543 0.121008 0)
(-2.2818 0.0738505 0)
(-1.90805 -0.248223 0)
(-1.82946 0.149557 0)
(-2.66329 0.0927917 0)
(-1.06931 -0.0865852 0)
(-2.03479 0.247773 0)
(-1.84229 0.22385 0)
(-1.16585 -0.307972 0)
(-2.76799 -0.206051 0)
(-2.29721 0.00118559 0)
(-2.69649 0.383023 0)
(-2.87314 0.0340645 0)
(-2.9038 -0.240879 0)
(-2.87051 0.380403 0)
(-2.28337 0.0466478 0)
(-2.90276 0.0439267 0)
(-1.27583 -0.122584 0)
(-1.93996 0.266561 0)
(-1.41444 -0.386168 0)
(-2.14684 0.316631 0)
(-1.81145 0.464135 0)
(-1.69005 0.269055 0)
(-1.86983 -0.198734 0)
(-2.16591 -0.418769 0)
(-1.36412 -0.341785 0)
(-1.95511 0.236778 0)
(-2.16961 0.275543 0)
(-1.24236 -0.0834371 0)
(-2.2739 0.0726342 0)
(-1.91454 -0.216289 0)
(-1.83924 0.172621 0)
(-2.65691 0.0928819 0)
(-2.57224 -0.279821 0)
(-1.97607 0.0695425 0)
(-2.14815 -0.0741728 0)
(-2.10638 0.398778 0)
(-1.90152 -0.47103 0)
(-1.64923 0.479129 0)
(-1.53766 0.338039 0)
(-1.6628 -0.254731 0)
(-1.14777 -0.046794 0)
(-2.14096 -0.017568 0)
(-1.91856 0.011241 0)
(-1.1017 0.154455 0)
(-1.39262 0.24558 0)
(-1.84601 -0.201063 0)
(-1.44916 0.413233 0)
(-2.10053 -0.34803 0)
(-2.23461 -0.0368038 0)
(-2.17715 0.342717 0)
(-2.05761 -0.0282383 0)
(-2.6892 -0.21941 0)
(-2.15188 -0.0709267 0)
(-1.17575 -0.00449693 0)
(-1.1393 0.193008 0)
(-1.9233 -0.0291608 0)
(-1.86798 0.430845 0)
(-1.71757 0.352874 0)
(-1.4858 -0.485645 0)
(-1.29782 -0.240821 0)
(-1.89633 0.412327 0)
(-1.74239 0.3442 0)
(-1.41615 -0.477116 0)
(-1.24293 -0.23411 0)
(-1.27844 -0.264297 0)
(-1.76349 0.442253 0)
(-1.62838 0.36356 0)
(-1.47266 -0.505215 0)
(-1.1245 0.0510787 0)
(-2.09001 -0.112732 0)
(-1.09561 0.227719 0)
(-1.87225 -0.0627877 0)
(-1.10994 -0.244466 0)
(-2.03226 0.187816 0)
(-1.02715 -0.0245242 0)
(-1.83948 0.171538 0)
(-1.06694 -0.138057 0)
(-1.80047 0.264354 0)
(-1.97503 0.291767 0)
(-1.17626 -0.355422 0)
(-1.30539 -0.256642 0)
(-1.77352 0.443165 0)
(-1.50268 -0.499319 0)
(-1.63786 0.36121 0)
(-1.15073 0.0532596 0)
(-2.1025 -0.122374 0)
(-1.88179 -0.069001 0)
(-1.12452 0.230871 0)
(-1.86734 0.314083 0)
(-1.91176 -0.470842 0)
(-1.66703 -0.185095 0)
(-2.05066 0.456641 0)
(-1.92724 0.307936 0)
(-1.90705 -0.46834 0)
(-2.12745 0.445689 0)
(-1.66913 -0.169406 0)
(-2.20085 -0.29885 0)
(-1.46531 0.381084 0)
(-1.92845 -0.167836 0)
(-1.42085 0.18874 0)
(-1.65779 -0.239008 0)
(-1.6441 0.339168 0)
(-1.77787 0.483926 0)
(-1.90492 -0.480715 0)
(-1.33138 -0.108007 0)
(-1.97347 0.255695 0)
(-2.19103 0.309493 0)
(-1.47233 -0.381012 0)
(-1.86416 0.461726 0)
(-1.95463 -0.172787 0)
(-1.74173 0.237853 0)
(-2.27717 -0.389674 0)
(-1.90944 0.446593 0)
(-1.99161 -0.152201 0)
(-1.78254 0.205449 0)
(-2.33301 -0.373488 0)
(-1.68488 -0.248361 0)
(-1.45235 0.44787 0)
(-1.37483 0.314597 0)
(-1.90917 -0.420103 0)
(-1.53854 0.30333 0)
(-1.52353 0.0533656 0)
(-2.07726 -0.0788747 0)
(-2.38447 -0.169486 0)
(-1.32821 -0.221559 0)
(-2.0174 0.129597 0)
(-1.24436 0.0352179 0)
(-2.25882 0.137377 0)
(-2.3339 -0.343879 0)
(-2.31332 0.084211 0)
(-2.69567 0.253168 0)
(-2.09984 0.107573 0)
(-1.55174 0.285968 0)
(-2.11543 -0.0535137 0)
(-1.54888 0.0207146 0)
(-2.43044 -0.129737 0)
(-2.59941 0.427901 0)
(-2.88033 0.11033 0)
(-2.37036 -0.116951 0)
(-2.86125 -0.153077 0)
(-1.43086 -0.26655 0)
(-1.57328 0.372692 0)
(-1.64146 -0.51375 0)
(-1.70009 0.477558 0)
(-1.23669 -0.439845 0)
(-1.75144 0.338165 0)
(-1.09752 -0.212549 0)
(-1.89714 0.383326 0)
(-1.86342 0.0801759 0)
(-2.06507 0.0742941 0)
(-0.992729 0.0611056 0)
(-1.05119 -0.141481 0)
(-1.87544 -0.138991 0)
(-1.21245 0.146648 0)
(-1.21282 0.309477 0)
(-2.10508 -0.22483 0)
(-2.08855 -0.123189 0)
(-1.7654 0.376527 0)
(-2.44311 -0.271625 0)
(-1.69491 0.106573 0)
(-2.11665 -0.103445 0)
(-1.75957 0.364495 0)
(-2.47502 -0.242064 0)
(-1.69766 0.0834158 0)
(-1.5387 -0.505602 0)
(-1.32704 -0.27831 0)
(-1.56284 0.482127 0)
(-1.45234 0.388889 0)
(-2.54891 -0.226862 0)
(-1.87575 0.361605 0)
(-2.16511 -0.0838098 0)
(-1.80327 0.0518357 0)
(-1.09872 0.295058 0)
(-1.09629 0.171283 0)
(-1.78848 -0.168896 0)
(-1.98754 -0.250464 0)
(-2.27931 0.895959 0)
(-3.12669 -0.914874 0)
(-3.70602 -0.0177144 0)
(-3.1184 0.412463 0)
(-2.18652 -0.288045 0)
(-1.41924 0.375581 0)
(-1.38278 0.188355 0)
(-1.91953 -0.164644 0)
(-1.9839 0.281096 0)
(-1.05927 -0.118934 0)
(-1.16446 -0.334374 0)
(-1.80441 0.254483 0)
(-2.23858 0.17412 0)
(-2.74488 0.259914 0)
(-2.33878 0.0133016 0)
(-2.54835 -0.308513 0)
(-1.79968 0.342887 0)
(-2.52979 -0.208423 0)
(-2.15573 -0.0825214 0)
(-1.74607 0.0436269 0)
(-1.49956 0.461599 0)
(-1.67879 -0.254406 0)
(-1.41261 0.326044 0)
(-1.9075 -0.438113 0)
(-1.62161 -0.251173 0)
(-1.62761 0.347168 0)
(-1.76027 0.483075 0)
(-1.85925 -0.491892 0)
(-1.37349 -0.111146 0)
(-2.06498 0.0385973 0)
(-1.3251 0.144382 0)
(-2.33346 0.0129791 0)
(-2.27111 0.566706 0)
(-3.02582 -0.482803 0)
(-3.36089 0.190139 0)
(-2.9798 0.237713 0)
(-1.86627 -0.479061 0)
(-1.66609 0.483972 0)
(-1.54971 0.347466 0)
(-1.63183 -0.256517 0)
(-1.36612 0.228808 0)
(-1.85607 -0.196076 0)
(-1.41607 0.396434 0)
(-2.1087 -0.333531 0)
(-1.55342 -0.0701377 0)
(-2.34963 0.316322 0)
(-1.71394 -0.392885 0)
(-2.09087 0.238551 0)
(-1.26435 -0.183561 0)
(-2.02629 0.370922 0)
(-1.84722 0.310521 0)
(-1.42178 -0.436222 0)
(-2.24949 0.0918584 0)
(-2.8307 0.374203 0)
(-2.80124 -0.228165 0)
(-2.86896 0.0271899 0)
(-1.20056 0.288605 0)
(-1.88367 -0.34843 0)
(-1.24121 0.403067 0)
(-1.67857 -0.222924 0)
(-2.35304 0.337722 0)
(-1.58851 -0.0786709 0)
(-1.76285 -0.406998 0)
(-2.09311 0.248503 0)
(-1.33729 0.356231 0)
(-1.69791 -0.473705 0)
(-1.50605 -0.288001 0)
(-1.42614 0.462304 0)
(-1.35213 0.352759 0)
(-1.73179 -0.466923 0)
(-1.53337 -0.280681 0)
(-1.44108 0.463432 0)
(-2.32476 0.194466 0)
(-1.35129 0.00131846 0)
(-2.06907 0.168307 0)
(-1.45345 -0.283686 0)
(-3.35151 0.00924551 0)
(-3.08337 0.715463 0)
(-2.30642 -0.267318 0)
(-2.95191 -0.0318439 0)
(-1.80799 0.48659 0)
(-1.79366 -0.497681 0)
(-1.66622 0.359819 0)
(-1.56247 -0.245083 0)
(-2.25229 0.3142 0)
(-1.40111 -0.0927643 0)
(-1.5488 -0.383901 0)
(-2.01987 0.253046 0)
(-1.37775 -0.00737159 0)
(-1.48855 -0.296663 0)
(-2.07776 0.179991 0)
(-2.33444 0.214017 0)
(-1.10663 -0.103496 0)
(-1.84998 0.244054 0)
(-2.03979 0.271875 0)
(-1.2141 -0.33024 0)
(-1.85223 0.480145 0)
(-1.80424 -0.494566 0)
(-1.57242 -0.236781 0)
(-1.70417 0.352857 0)
(-1.34718 0.139983 0)
(-1.3671 0.333454 0)
(-1.94838 -0.141953 0)
(-2.21078 -0.246373 0)
(-1.3717 0.120897 0)
(-1.38822 0.323764 0)
(-1.9714 -0.12806 0)
(-2.24087 -0.228322 0)
(-1.42591 0.00605425 0)
(-2.10021 0.17432 0)
(-1.53867 -0.293283 0)
(-2.36599 0.21166 0)
(-1.60637 -0.51228 0)
(-1.57787 0.372987 0)
(-1.39581 -0.264456 0)
(-1.70485 0.472593 0)
(-2.26055 0.316726 0)
(-1.58681 -0.391229 0)
(-1.43499 -0.0963653 0)
(-2.02638 0.251868 0)
(-1.30845 -0.194802 0)
(-2.01178 0.115279 0)
(-1.23048 0.0563712 0)
(-2.25252 0.117821 0)
(-1.87389 -0.129482 0)
(-1.19072 0.129174 0)
(-1.18448 0.291497 0)
(-2.09921 -0.20764 0)
(-2.04521 -0.340333 0)
(-3.84262 -0.150303 0)
(-3.63806 0.652298 0)
(-2.81839 -0.180447 0)
(-1.44404 0.0299595 0)
(-1.54886 -0.274625 0)
(-2.12464 0.157182 0)
(-2.40113 0.187708 0)
(-2.24477 0.365265 0)
(-1.7008 -0.433014 0)
(-2.0138 0.276625 0)
(-1.52112 -0.126706 0)
(-1.86404 -0.124789 0)
(-2.19402 0.455739 0)
(-1.98099 0.258322 0)
(-2.1623 -0.439657 0)
(-3.18198 -0.101026 0)
(-2.95145 0.56353 0)
(-2.31927 -0.168424 0)
(-2.928 0.0258091 0)
(-2.33367 0.0750937 0)
(-2.57214 -0.20584 0)
(-2.8923 -0.00966138 0)
(-2.62125 0.326094 0)
(-2.06621 0.260776 0)
(-1.85234 -0.43145 0)
(-2.31808 0.370967 0)
(-1.65285 -0.0979029 0)
(-1.34132 -0.142302 0)
(-2.13842 0.354823 0)
(-1.49937 -0.414485 0)
(-1.93512 0.289674 0)
(-2.24033 0.161598 0)
(-2.08341 -0.365709 0)
(-1.88739 0.0303022 0)
(-2.57008 0.285124 0)
(-1.16288 -0.285393 0)
(-1.85696 0.206635 0)
(-1.06954 -0.0627671 0)
(-2.05413 0.227927 0)
(-1.23916 -0.42211 0)
(-1.76903 0.332937 0)
(-1.9234 0.379025 0)
(-1.10257 -0.19609 0)
(-2.22728 0.164906 0)
(-2.12675 -0.380951 0)
(-2.56024 0.305267 0)
(-1.91253 0.026869 0)
(-1.17729 -0.274447 0)
(-2.07207 0.213077 0)
(-1.8728 0.193588 0)
(-1.08571 -0.047855 0)
(-1.8689 0.092794 0)
(-1.00633 0.045502 0)
(-2.0712 0.0901331 0)
(-1.06936 -0.164811 0)
(-2.24793 0.359299 0)
(-1.49432 -0.113426 0)
(-1.66753 -0.415507 0)
(-2.017 0.275638 0)
(-2.62313 0.308865 0)
(-2.84447 -0.121317 0)
(-2.28475 0.118301 0)
(-2.42672 -0.179356 0)
(-2.04884 0.271978 0)
(-1.80602 -0.434752 0)
(-1.61147 -0.109424 0)
(-2.29271 0.376684 0)
(-2.17848 0.336651 0)
(-2.28575 0.011108 0)
(-2.14182 -0.106053 0)
(-2.76396 -0.073306 0)
(-2.20778 0.504604 0)
(-2.68135 -0.342679 0)
(-3.07989 0.273336 0)
(-2.87319 0.0788038 0)
(-2.753 0.227642 0)
(-2.21361 0.223207 0)
(-2.48939 -0.271465 0)
(-2.3343 0.0107553 0)
(-2.35489 0.312632 0)
(-2.36516 -0.0165526 0)
(-2.83116 0.175553 0)
(-2.597 -0.222754 0)
(-2.12297 -0.128702 0)
(-2.13583 0.304003 0)
(-2.74812 -0.0381486 0)
(-2.28887 0.0218324 0)
(-1.14399 -0.186843 0)
(-1.80682 0.316131 0)
(-1.28272 -0.420696 0)
(-1.97349 0.361609 0)
(-1.16419 -0.198118 0)
(-1.96857 0.370705 0)
(-1.80288 0.320557 0)
(-1.30871 -0.435609 0)
(-3.22499 -0.789801 0)
(-2.14053 0.931139 0)
(-3.69584 0.0312489 0)
(-2.97367 0.491873 0)
(-1.92914 0.303554 0)
(-2.1318 0.386361 0)
(-1.43012 -0.162476 0)
(-1.60855 -0.445864 0)
(-2.40085 0.287457 0)
(-2.12868 0.217235 0)
(-1.71485 -0.369471 0)
(-1.56494 -0.0435687 0)
(-1.15076 0.303785 0)
(-1.15236 0.162332 0)
(-1.82596 -0.152774 0)
(-2.03739 -0.23588 0)
(-2.03231 -0.258923 0)
(-1.17575 0.324905 0)
(-1.81786 -0.166846 0)
(-1.16975 0.186566 0)
(-1.61746 0.475831 0)
(-1.5855 -0.512805 0)
(-1.50218 0.37759 0)
(-1.37598 -0.268736 0)
(-3.78919 0.124352 0)
(-2.05322 -0.396348 0)
(-3.52548 0.954136 0)
(-2.83089 -0.178961 0)
(-1.27797 -0.397122 0)
(-2.00772 0.340205 0)
(-1.83198 0.299227 0)
(-1.14557 -0.162689 0)
(-1.60023 0.484547 0)
(-1.48656 0.380259 0)
(-1.41433 -0.274568 0)
(-1.61726 -0.512539 0)
(-1.99205 0.219715 0)
(-1.02322 -0.0698806 0)
(-1.11159 -0.278604 0)
(-1.80124 0.200055 0)
(-1.59755 0.475125 0)
(-1.55584 -0.509299 0)
(-1.48572 0.380532 0)
(-1.34098 -0.267598 0)
(-1.11936 0.290739 0)
(-1.81108 -0.157192 0)
(-1.12453 0.156193 0)
(-2.01564 -0.236163 0)
(-1.30054 0.307327 0)
(-1.89506 -0.396336 0)
(-1.364 0.432817 0)
(-1.6799 -0.243508 0)
(-2.28939 0.0329093 0)
(-2.37898 -0.150821 0)
(-2.82551 -0.0245947 0)
(-2.39481 0.361737 0)
(-1.6174 0.0375346 0)
(-2.49506 0.204876 0)
(-1.736 -0.303173 0)
(-2.19085 0.155876 0)
(-2.30464 0.0885438 0)
(-2.02771 -0.261785 0)
(-2.69179 0.139767 0)
(-1.91951 0.152137 0)
(-2.03339 -0.082925 0)
(-1.99805 0.172193 0)
(-2.40587 -0.375009 0)
(-2.19583 0.443887 0)
(-2.11007 -0.252641 0)
(-2.31931 0.0680949 0)
(-2.72725 0.113906 0)
(-2.00935 0.179243 0)
(-2.1607 -0.242317 0)
(-2.32398 0.0549254 0)
(-2.75737 0.0698367 0)
(-2.09635 0.202005 0)
(-1.96017 0.0222736 0)
(-2.19867 -0.391039 0)
(-2.57185 0.308049 0)
(-2.23435 0.144494 0)
(-1.80477 0.466426 0)
(-1.66268 0.364391 0)
(-1.63993 -0.512609 0)
(-1.42829 -0.257458 0)
(-2.27938 -0.284064 0)
(-1.54647 0.376013 0)
(-1.4968 0.16049 0)
(-1.98445 -0.150187 0)
(-2.08644 -0.0688371 0)
(-2.03613 0.135621 0)
(-2.48703 -0.346737 0)
(-2.22576 0.437174 0)
(-1.87338 0.480244 0)
(-1.72542 0.323383 0)
(-1.70614 -0.220728 0)
(-1.96686 -0.475604 0)
(-2.01535 -0.157676 0)
(-1.75468 0.420296 0)
(-2.34581 -0.335008 0)
(-1.66666 0.181541 0)
(-2.17294 -0.17471 0)
(-1.24333 0.09544 0)
(-1.23399 0.28211 0)
(-1.931 -0.101176 0)
(-2.50727 0.235941 0)
(-1.65553 0.0193942 0)
(-1.79216 -0.328832 0)
(-2.20088 0.17263 0)
(-2.39599 0.268448 0)
(-1.665 -0.357185 0)
(-2.12379 0.208408 0)
(-1.52633 -0.0344739 0)
(-1.50406 0.128236 0)
(-1.54488 0.36032 0)
(-2.02676 -0.132656 0)
(-2.33159 -0.255532 0)
(-1.77432 0.28062 0)
(-1.05656 -0.152008 0)
(-1.94129 0.311487 0)
(-1.16959 -0.363681 0)
(-1.08146 -0.229505 0)
(-1.00054 -0.00188202 0)
(-2.01573 0.16323 0)
(-1.82256 0.153335 0)
(-1.95768 -0.484272 0)
(-1.77394 0.329694 0)
(-1.69638 -0.217103 0)
(-1.93534 0.486343 0)
(-1.75129 0.431771 0)
(-1.97965 -0.171958 0)
(-2.29926 -0.360083 0)
(-1.65511 0.205732 0)
(-1.38844 -0.0490658 0)
(-2.30574 0.267982 0)
(-1.51853 -0.34246 0)
(-2.05798 0.219513 0)
(-2.00043 0.22138 0)
(-2.22811 0.261458 0)
(-1.4249 -0.332325 0)
(-1.3034 -0.0623019 0)
(-2.31148 0.0781149 0)
(-2.05316 0.0837913 0)
(-1.36548 -0.169054 0)
(-1.29904 0.0907748 0)
(-1.71751 0.31751 0)
(-2.00465 -0.475701 0)
(-1.8641 0.482453 0)
(-1.73665 -0.223047 0)
(-1.30679 0.216767 0)
(-1.34166 0.375853 0)
(-2.08843 -0.304485 0)
(-1.84743 -0.183055 0)
(-1.50518 0.370756 0)
(-1.22985 -0.262866 0)
(-1.61493 0.443982 0)
(-1.43572 -0.49816 0)
(-2.73859 0.306939 0)
(-2.36428 -0.0421666 0)
(-2.20137 0.22062 0)
(-2.62922 -0.230316 0)
(-1.5676 -0.263398 0)
(-1.65241 0.47996 0)
(-1.7891 -0.491011 0)
(-1.53451 0.356096 0)
(-2.22734 0.18859 0)
(-2.75252 -0.17741 0)
(-2.70031 0.333058 0)
(-2.39381 -0.104623 0)
(-2.68527 0.302587 0)
(-2.15591 0.146759 0)
(-2.31546 0.0466561 0)
(-2.48363 -0.307498 0)
(-1.97829 -0.162608 0)
(-1.0573 0.0964636 0)
(-1.7836 -0.106611 0)
(-1.03551 0.239882 0)
(-2.52557 0.249276 0)
(-2.34618 0.0225861 0)
(-2.60084 -0.296852 0)
(-2.88389 0.0567413 0)
(-2.76205 0.327857 0)
(-2.26978 0.221137 0)
(-2.40531 -0.107702 0)
(-2.77574 -0.194257 0)
(-2.2199 0.209885 0)
(-2.68392 0.354269 0)
(-2.76612 -0.152452 0)
(-2.38227 -0.106528 0)
(-2.13419 0.2292 0)
(-1.95862 -0.418756 0)
(-2.4131 0.354667 0)
(-1.74903 -0.0628819 0)
(-1.63969 0.355545 0)
(-1.23689 -0.260052 0)
(-1.7756 0.426953 0)
(-1.41968 -0.493691 0)
(-1.0661 0.20119 0)
(-1.85913 -0.0370012 0)
(-2.07166 -0.0776552 0)
(-1.10161 0.0227176 0)
(-2.32357 0.077467 0)
(-2.26915 -0.252071 0)
(-2.75727 0.160578 0)
(-2.13039 0.229881 0)
(-2.02699 -0.346076 0)
(-1.35918 0.399846 0)
(-1.79327 -0.210245 0)
(-1.31172 0.253764 0)
(-1.57479 0.477488 0)
(-1.59419 -0.262696 0)
(-1.47098 0.351141 0)
(-1.81519 -0.470822 0)
(-2.34551 0.0539847 0)
(-2.36794 -0.267877 0)
(-2.18275 0.218187 0)
(-2.77717 0.182662 0)
(-1.46774 0.0616354 0)
(-2.06543 -0.0819446 0)
(-1.47666 0.303606 0)
(-2.36366 -0.168979 0)
(-2.05043 -0.133772 0)
(-1.68604 0.375659 0)
(-2.38116 -0.281484 0)
(-1.62137 0.127688 0)
(-1.8403 0.331934 0)
(-2.01834 0.46552 0)
(-1.62383 -0.208947 0)
(-1.86028 -0.489584 0)
(-2.06742 -0.331823 0)
(-1.36674 0.388376 0)
(-1.32195 0.233691 0)
(-1.82701 -0.199383 0)
(-1.59515 -0.260604 0)
(-1.81965 -0.478087 0)
(-1.51014 0.354993 0)
(-1.62028 0.483823 0)
(-1.92034 0.39106 0)
(-2.11543 -0.102406 0)
(-1.82627 0.0964947 0)
(-2.50097 -0.277796 0)
(-1.74799 0.471853 0)
(-1.44936 -0.261354 0)
(-1.61435 0.365931 0)
(-1.66164 -0.510031 0)
(-1.17509 -0.0647503 0)
(-1.94561 0.025501 0)
(-2.17429 0.000600483 0)
(-1.12541 0.146711 0)
(-2.38483 0.0601897 0)
(-2.10423 0.0712786 0)
(-1.37889 0.114282 0)
(-1.44116 -0.163065 0)
(-2.0176 -0.145584 0)
(-1.68081 0.392691 0)
(-1.61174 0.157414 0)
(-2.3388 -0.299425 0)
(-1.74794 0.476678 0)
(-1.49034 -0.25838 0)
(-1.61425 0.364402 0)
(-1.70734 -0.507558 0)
(-1.28158 -0.350172 0)
(-1.16377 -0.108927 0)
(-2.08579 0.28451 0)
(-1.88945 0.250935 0)
(-1.60114 0.305128 0)
(-1.77558 -0.227715 0)
(-2.04408 -0.441275 0)
(-1.71357 0.472957 0)
(-1.15382 -0.123704 0)
(-1.27736 -0.360257 0)
(-2.05418 0.309173 0)
(-1.86585 0.27174 0)
(-1.24156 0.303891 0)
(-1.90094 -0.126225 0)
(-1.24243 0.130748 0)
(-2.13864 -0.210162 0)
(-2.16769 0.208803 0)
(-1.98755 -0.399142 0)
(-1.78235 -0.0304295 0)
(-2.46072 0.331151 0)
(-2.28121 -0.298259 0)
(-1.57182 0.400001 0)
(-1.51587 0.182081 0)
(-1.97912 -0.15576 0)
(-1.48165 -0.192814 0)
(-1.68357 -0.469774 0)
(-2.05211 0.429424 0)
(-1.86771 0.328302 0)
(-1.58752 0.436568 0)
(-1.88682 -0.196468 0)
(-1.51105 0.247899 0)
(-2.16705 -0.365234 0)
(-1.67179 0.359681 0)
(-1.81262 0.430295 0)
(-1.22978 -0.252679 0)
(-1.40909 -0.487032 0)
(-1.97717 -0.477383 0)
(-1.80919 0.318381 0)
(-1.71269 -0.20433 0)
(-1.97752 0.478172 0)
(-1.57596 0.346981 0)
(-2.04855 -0.117573 0)
(-1.53699 0.106366 0)
(-2.36204 -0.23791 0)
(-1.28127 0.320969 0)
(-1.90653 -0.136905 0)
(-1.27287 0.145804 0)
(-2.14991 -0.23008 0)
(-1.94373 0.404714 0)
(-1.43034 -0.47523 0)
(-1.25928 -0.226383 0)
(-1.78039 0.336693 0)
(-1.87745 -0.0235883 0)
(-2.09207 -0.0613513 0)
(-1.06743 0.180756 0)
(-1.1059 -0.00488998 0)
(-2.32317 -0.0679345 0)
(-1.35021 0.20816 0)
(-1.37646 -0.0329452 0)
(-2.05113 -0.018878 0)
(-2.59391 -0.260146 0)
(-2.2913 0.028432 0)
(-2.16842 0.136139 0)
(-2.60525 0.366831 0)
(-2.68271 -0.190357 0)
(-2.24757 0.247689 0)
(-2.35682 -0.0319732 0)
(-2.71299 0.329993 0)
(-2.35881 -0.121353 0)
(-1.42887 0.00656981 0)
(-1.42077 0.252136 0)
(-2.07115 -0.0537007 0)
(-1.28595 -0.311876 0)
(-2.14186 0.240063 0)
(-1.17901 -0.0654433 0)
(-1.9307 0.212982 0)
(-1.4099 0.367974 0)
(-1.47539 -0.28823 0)
(-1.67208 -0.496542 0)
(-1.51229 0.475894 0)
(-1.35856 -0.385451 0)
(-1.88362 0.279979 0)
(-2.07306 0.326298 0)
(-1.22181 -0.137806 0)
(-2.325 0.0642059 0)
(-2.75849 0.144523 0)
(-2.2598 -0.246849 0)
(-2.12676 0.222554 0)
(-2.51515 -0.235044 0)
(-2.39656 0.310634 0)
(-2.32433 0.0205243 0)
(-2.83975 0.0940726 0)
(-1.40645 -0.40445 0)
(-2.09214 0.341462 0)
(-1.26078 -0.148563 0)
(-1.89864 0.288098 0)
(-1.2071 0.363433 0)
(-1.78523 -0.180703 0)
(-1.18757 0.232236 0)
(-2.00124 -0.284733 0)
(-1.75072 -0.196885 0)
(-1.21821 0.373792 0)
(-1.96267 -0.308614 0)
(-1.19154 0.249019 0)
(-1.44604 0.370122 0)
(-1.65936 -0.511075 0)
(-1.55591 0.477122 0)
(-1.46067 -0.289728 0)
(-1.36389 -0.0346545 0)
(-2.30034 0.245423 0)
(-1.48457 -0.321866 0)
(-2.05362 0.204348 0)
(-1.73108 0.343312 0)
(-1.88173 0.405985 0)
(-1.20204 -0.235395 0)
(-1.36673 -0.470879 0)
(-2.50146 0.376649 0)
(-2.83677 -0.203312 0)
(-2.37813 -0.136825 0)
(-2.88507 0.157923 0)
(-1.76764 0.327218 0)
(-1.19018 -0.225385 0)
(-1.92524 0.384058 0)
(-1.34525 -0.464734 0)
(-1.88034 -0.418769 0)
(-1.33407 0.321824 0)
(-1.66299 -0.253414 0)
(-1.40776 0.448175 0)
(-1.83792 0.458037 0)
(-1.69126 0.356509 0)
(-1.64987 -0.503146 0)
(-1.44003 -0.246696 0)
(-1.80914 -0.395509 0)
(-1.22437 0.315777 0)
(-1.28091 0.424356 0)
(-1.61189 -0.254281 0)
(-2.11115 0.00140259 0)
(-1.06589 0.137656 0)
(-1.89737 0.0252652 0)
(-1.11561 -0.0615724 0)
(-1.06866 0.115477 0)
(-2.12356 0.0416453 0)
(-1.12605 -0.0917186 0)
(-1.90898 0.0570676 0)
(-2.19153 -0.16045 0)
(-1.94536 -0.0891352 0)
(-1.2676 0.0793516 0)
(-1.25665 0.27153 0)
(-1.7389 -0.438299 0)
(-1.54668 -0.275066 0)
(-1.34934 0.451858 0)
(-1.27591 0.345088 0)
(-1.90058 0.100014 0)
(-1.12424 -0.16633 0)
(-1.05472 0.0512022 0)
(-2.11018 0.0982818 0)
(-1.12764 -0.143084 0)
(-2.12479 0.0731403 0)
(-1.0639 0.0726001 0)
(-1.91156 0.0797616 0)
(-2.39245 0.0907064 0)
(-2.11184 0.091345 0)
(-1.39005 0.0979919 0)
(-1.46236 -0.187245 0)
(-1.77916 -0.477623 0)
(-1.55769 -0.195246 0)
(-2.05097 0.455711 0)
(-1.86647 0.336267 0)
(-2.1437 0.164851 0)
(-1.99869 -0.00845741 0)
(-2.33108 -0.373924 0)
(-2.41209 0.403448 0)
(-1.4174 0.291988 0)
(-1.99729 -0.406236 0)
(-1.49439 0.441401 0)
(-1.75582 -0.234733 0)
(-1.70718 0.343305 0)
(-1.85323 0.404067 0)
(-1.34422 -0.47581 0)
(-1.18322 -0.243704 0)
(-1.87729 0.024725 0)
(-2.08678 0.00105539 0)
(-1.09028 -0.0511575 0)
(-1.04132 0.141392 0)
(-2.18081 0.161165 0)
(-2.47567 0.394181 0)
(-2.0044 0.0102431 0)
(-2.32638 -0.378705 0)
(-1.42197 0.27911 0)
(-2.04405 -0.390568 0)
(-1.49516 0.437289 0)
(-1.79409 -0.224065 0)
(-1.81598 -0.459828 0)
(-1.60317 -0.270511 0)
(-1.48518 0.466272 0)
(-1.39448 0.34445 0)
(-2.58428 -0.196784 0)
(-1.91571 0.352609 0)
(-2.19062 -0.0596765 0)
(-1.84657 0.027169 0)
(-2.20262 0.3945 0)
(-1.71422 -0.442287 0)
(-1.98305 0.296282 0)
(-1.522 -0.141275 0)
(-2.64088 0.312701 0)
(-2.80608 -0.124216 0)
(-2.2487 0.141911 0)
(-2.41969 -0.16324 0)
(-2.13674 0.193707 0)
(-1.22521 -0.262171 0)
(-1.13245 -0.0241317 0)
(-1.92456 0.177086 0)
(-1.43084 0.0323878 0)
(-2.3434 -0.135037 0)
(-1.42583 0.270462 0)
(-2.05567 -0.0637858 0)
(-1.15999 0.0332706 0)
(-1.9591 0.128552 0)
(-1.2395 -0.204907 0)
(-2.18326 0.13355 0)
(-1.79326 -0.483928 0)
(-1.57088 -0.202874 0)
(-2.02261 0.451403 0)
(-1.84326 0.331694 0)
(-1.18662 0.0552925 0)
(-1.9816 0.109776 0)
(-1.2623 -0.184795 0)
(-2.21273 0.110492 0)
(-2.12049 -0.037995 0)
(-1.52447 0.259313 0)
(-1.53159 -0.00908171 0)
(-2.43149 -0.103253 0)
(-2.14792 0.437956 0)
(-1.63808 -0.160868 0)
(-1.942 0.308426 0)
(-1.86643 -0.463985 0)
(-1.42803 -0.421434 0)
(-1.27567 -0.163643 0)
(-2.07312 0.352059 0)
(-1.88407 0.295365 0)
(-2.012 0.0730676 0)
(-2.62266 0.298675 0)
(-2.27273 -0.355293 0)
(-2.27097 0.112204 0)
(-2.61403 -0.262134 0)
(-2.17235 0.0991797 0)
(-2.53239 0.377453 0)
(-2.25243 0.0272684 0)
(-2.21297 0.0796834 0)
(-1.18629 0.0792618 0)
(-1.25412 -0.156009 0)
(-1.98065 0.0871627 0)
(-2.60114 0.317558 0)
(-2.10956 0.0528022 0)
(-2.41169 -0.373355 0)
(-2.25754 0.0892838 0)
(-1.22779 -0.266307 0)
(-1.65993 0.445119 0)
(-1.54269 0.370784 0)
(-1.42424 -0.49792 0)
(-1.10604 -0.142366 0)
(-1.99785 0.310367 0)
(-1.22483 -0.36696 0)
(-1.8208 0.276861 0)
(-1.11568 -0.158407 0)
(-1.99651 0.327301 0)
(-1.82174 0.290939 0)
(-1.24077 -0.387182 0)
(-2.07466 0.167794 0)
(-1.13985 -0.235811 0)
(-1.05663 -0.00819391 0)
(-1.87301 0.156437 0)
(-2.09001 0.147856 0)
(-1.05468 0.0087675 0)
(-1.88484 0.139969 0)
(-1.13251 -0.217336 0)
(-1.14194 -0.228168 0)
(-1.7543 0.337103 0)
(-1.28974 -0.460975 0)
(-1.90744 0.389385 0)
(-2.09369 -0.336254 0)
(-2.27195 0.149317 0)
(-2.61864 0.265603 0)
(-1.90739 0.0722667 0)
(-2.00427 -0.140701 0)
(-1.06104 0.0738912 0)
(-1.80473 -0.0885568 0)
(-1.03793 0.229126 0)
(-1.02235 0.0962561 0)
(-2.09785 0.054284 0)
(-1.08044 -0.109049 0)
(-1.89121 0.0655714 0)
(-1.50692 0.467481 0)
(-1.63778 -0.256789 0)
(-1.41681 0.337837 0)
(-1.86008 -0.445657 0)
(-1.98547 0.410735 0)
(-2.10855 -0.105395 0)
(-1.86512 0.113534 0)
(-2.50185 -0.309322 0)
(-2.29138 0.0042289 0)
(-2.2136 -0.138816 0)
(-2.34077 0.281919 0)
(-2.78962 -0.174316 0)
(-1.86076 0.0496121 0)
(-2.06409 0.0312468 0)
(-1.05824 -0.0629856 0)
(-1.00324 0.128649 0)
(-1.84898 0.389479 0)
(-1.14085 -0.249844 0)
(-1.29154 -0.478972 0)
(-1.70325 0.335577 0)
(-2.65474 -0.25201 0)
(-2.18516 0.101828 0)
(-2.54373 0.370666 0)
(-2.26507 -0.00729982 0)
(-2.70843 0.229503 0)
(-2.30042 -0.306882 0)
(-2.31079 0.0785802 0)
(-2.08896 0.152212 0)
(-2.22339 0.357843 0)
(-2.00001 0.279595 0)
(-1.62207 -0.411962 0)
(-1.45319 -0.119147 0)
(-1.4026 0.42647 0)
(-1.74002 -0.231985 0)
(-1.33967 0.287111 0)
(-1.96938 -0.385618 0)
(-2.10723 0.241755 0)
(-1.14036 -0.0708596 0)
(-1.24442 -0.309066 0)
(-1.90254 0.217107 0)
(-2.13032 0.166854 0)
(-1.1092 -0.0117076 0)
(-1.19361 -0.248296 0)
(-1.91847 0.155597 0)
(-1.44771 0.441326 0)
(-1.7303 -0.238397 0)
(-1.37517 0.300239 0)
(-1.96313 -0.403331 0)
(-1.77894 -0.211407 0)
(-1.32476 0.397877 0)
(-2.00733 -0.343261 0)
(-1.28104 0.256857 0)
(-2.28053 0.0879317 0)
(-2.85484 -0.0515377 0)
(-2.51853 -0.193936 0)
(-2.62171 0.337412 0)
(-2.06411 0.465824 0)
(-1.86059 -0.154376 0)
(-1.88459 0.266678 0)
(-2.16335 -0.437435 0)
(-2.10455 0.472168 0)
(-1.84075 -0.151415 0)
(-1.91337 0.273872 0)
(-2.14334 -0.445491 0)
(-1.82883 0.30864 0)