/*--------------------------------*- C++ -*----------------------------------*\
| =========                 |                                                 |
| \\      /  F ield         | foam-extend: Open Source CFD                    |
|  \\    /   O peration     | Version:  3.0                                   |
|   \\  /    A nd           | Web:         http://www.extend-project.de       |
|    \\/     M anipulation  |                                                 |
\*---------------------------------------------------------------------------*/
FoamFile
{
    version     2.0;
    format      ascii;
    class       volScalarField;
    location    "32";
    object      Theta;
}
// * * * * * * * * * * * * * * * * * * * * * * * * * * * * * * * * * * * * * //

dimensions      [0 2 -2 0 0 0 0];

internalField   nonuniform List<scalar> 
3012
(
-2.52049
1.77672
4.08678
-0.323997
27.1534
9.84786
-21.0601
-4.29624
-2.60612
3.55618
-2.91881
3.51787
1.01577
-0.699498
2.51229
0.836399
-20.4805
-24.0831
18.0233
23.2271
1.09679
0.0352319
1.71839
0.934884
3.82355
-2.19343
5.11042
-1.64635
-1.53173
3.86748
-0.11674
2.34178
0.471882
2.83809
-0.869815
1.44628
2.0679
7.8603
-6.06176
-0.924932
0.973692
3.11604
1.14662
-0.995839
0.978951
1.03467
-1.14386
3.13187
0.55989
1.37729
0.410594
1.13443
-4.14123
1.72169
1.36068
6.85794
-4.32115
-14.1625
1.76754
11.7557
-14.4509
12.8836
21.9269
-5.04693
0.953339
-1.70747
4.10584
1.40406
1.85198
1.01328
1.04662
0.159386
2.25673
1.13435
0.113074
-0.413398
-0.714119
2.72609
1.77414
0.258539
0.915523
-1.46277
1.13619
3.50103
2.8637
0.76962
1.07634
-0.807044
-0.292974
3.92873
-1.63481
2.63365
2.97019
-1.69566
-0.0816762
4.02516
-5.91851
4.02741
-3.52423
6.19192
4.07221
2.06946
0.311588
-1.74789
3.38426
-0.935016
3.13692
-1.06762
2.15992
0.88781
-0.301664
1.10096
-1.03724
3.28681
1.14423
1.12106
2.4496
0.0873127
2.35786
0.189917
-0.792987
-0.0902679
0.905571
2.6281
5.1645
-9.56565
7.10121
-7.7266
28.1854
-30.2763
3.7807
-4.86865
-3.24863
2.20739
10.8809
4.69623
-15.4531
12.4747
24.1521
-7.55226
9.37046
-2.24331
-5.38904
5.20678
6.95982
8.94172
-4.57356
-2.85428
5.46434
-24.4841
-5.99991
21.7528
0.237311
-0.677908
1.77204
2.77841
2.4144
3.43602
-1.25457
-0.191981
2.52606
-0.402161
1.96378
0.101062
-2.2856
-7.2394
4.25947
9.31457
0.463731
3.0175
-1.07706
1.44009
9.84566
9.78936
-9.3364
-10.0878
-7.96238
11.3889
16.1644
-9.92398
-8.2226
3.41705
8.39864
-2.85001
3.43774
-1.58927
-1.12229
4.12393
-0.165952
2.65111
2.12575
-0.753496
2.31508
-0.207492
2.05512
0.0187502
2.08774
3.09083
-1.01914
0.0485648
0.871765
-0.447951
0.798192
2.09091
1.19203
4.51127
-2.12219
1.35424
1.42059
1.19315
1.16114
0.287903
1.13141
1.74627
-0.0530946
1.01678
3.13245
1.38091
0.495436
-1.11249
0.21361
1.05387
0.888053
0.377041
0.16323
-0.25352
1.38535
1.94907
0.922146
1.85343
1.01541
-0.34681
0.967674
-0.0584354
1.30792
0.228089
2.93139
2.3258
-0.434358
-1.1081
2.32121
-0.928625
3.15785
-0.0931167
-0.256551
3.25274
2.51788
-0.811625
1.61583
-1.73214
0.594992
3.99706
-1.8951
4.17201
3.82117
-1.44011
5.89493
1.87027
-1.83027
1.35555
1.18068
2.10194
0.0200043
-0.58954
0.719017
-0.00771099
0.633036
1.55593
2.15165
-0.467972
-1.0502
2.79099
1.30973
4.16444
1.00288
-1.83577
1.5384
-1.21172
3.22191
0.390687
-5.31313
2.51552
0.311921
8.45247
0.895511
1.49473
0.190318
1.04728
18.4353
-17.2492
-21.1131
15.0897
-18.7551
25.1112
6.25113
-0.725498
-0.426414
-1.94763
2.76517
4.31653
3.02807
-0.702068
-1.69638
4.25749
2.00581
-1.32281
3.43369
-0.102833
-0.924833
-1.27076
1.53252
0.858153
5.5739
-1.32669
-3.86328
2.58985
3.29249
3.66113
-1.09419
-0.782751
0.510511
1.38813
0.387595
1.39061
0.00265693
-0.864548
2.09647
3.06084
-4.27762
-0.287027
3.27249
8.80608
2.48489
0.416272
1.59821
-0.524812
2.04008
0.0309019
2.12785
-0.142945
1.21391
0.615784
1.37169
0.189424
-0.21102
3.5066
-1.25304
2.09155
1.10304
3.50287
1.25786
-1.14429
0.784082
1.90662
-0.163182
0.0561382
0.753148
0.205745
1.86575
1.21654
-0.622786
2.54841
2.7852
-0.380782
0.190622
3.26309
-1.14955
1.91044
0.0675661
2.48129
-1.70351
0.940035
-2.93663
3.83327
6.19873
-0.230892
2.02183
2.0618
-0.304956
-0.167606
-0.420464
0.462904
0.967637
1.74096
-0.0689536
-1.46361
3.63252
2.10469
4.05371
-1.92448
-1.16557
5.15699
3.21581
-1.94963
-2.14081
2.82367
-1.0873
2.36409
-0.24973
3.20795
2.34573
-0.96622
-0.90592
2.0905
0.904572
-1.15216
1.39749
3.3701
-2.1376
-4.85182
10.0196
8.67336
1.66784
-3.01201
1.36265
6.29122
-11.7343
8.92669
-11.1739
9.1298
-0.915296
-0.511825
3.38378
2.82494
1.56967
-0.294176
0.688393
1.81014
-0.260579
2.49726
0.756244
0.999244
-1.48048
-0.0961789
2.32891
3.76177
-2.10743
1.36519
3.87711
0.198139
-2.63028
2.63706
4.57614
-0.488295
-0.059858
-0.177421
1.82969
-0.0905885
6.01231
0.522876
-3.7244
1.43562
1.29072
1.27365
1.31853
0.701896
-33.2791
5.88431
-9.14921
30.9079
5.53824
2.30931
0.332058
-2.59329
1.20766
1.11719
0.563822
0.517785
9.86093
9.0904
-5.20563
-4.23894
2.78969
5.35268
-2.29179
-0.251181
1.83378
0.282818
0.195985
1.61674
-1.4536
-2.2097
4.89837
4.15771
0.974838
-1.53914
0.894597
3.61434
-21.8037
11.473
-12.1157
22.7864
1.8313
2.07489
-0.418472
-0.229481
0.798925
-0.700532
1.07714
2.61445
-0.649243
2.41557
1.91999
-1.14962
0.233578
3.3581
-1.06317
1.7474
-23.318
-21.5437
18.1317
21.0939
0.0178886
2.89935
2.37575
-0.670307
5.70733
0.0835827
3.14755
-2.80258
-0.316672
2.47612
-0.358387
2.4906
-0.03826
2.17164
-0.178582
1.95415
2.9625
0.562006
-1.11874
1.46435
24.0083
-22.9768
-5.37804
6.33082
4.27787
3.33116
-1.78729
-1.01988
4.46462
0.584475
1.74058
-2.24156
0.218158
2.39395
-2.75397
5.48389
0.961909
-1.1167
3.09893
1.31671
2.41591
2.80291
-0.800598
-0.477118
0.532564
1.8397
-2.25086
4.7289
0.0211424
2.20397
-1.00293
3.08818
0.157367
-1.08265
1.34682
2.60367
1.11623
-0.287824
0.0536851
2.12385
3.59735
2.50547
-0.37066
-1.49924
1.19662
-0.526752
0.360114
2.24903
0.213023
0.96454
1.05793
1.77711
-19.0834
29.8704
-32.4369
16.3257
0.685084
1.96226
-2.36101
5.12739
3.90445
2.18962
-1.68111
0.156038
-0.454935
5.68371
-2.2076
4.61806
-15.7706
20.3442
-10.4685
13.7952
4.89569
-18.8059
0.105575
24.4707
-1.99753
2.15211
3.69373
-0.566635
-0.334109
3.3402
2.30476
-1.13176
-3.9686
3.7592
-1.69787
6.12385
1.45723
-0.842378
0.25072
2.99643
0.225234
1.52555
0.49494
1.11867
-3.01993
2.48027
3.97371
-1.4599
1.59624
2.84596
-0.838342
0.897342
1.1029
0.946438
0.506849
0.91562
2.74788
0.0408968
1.59786
-1.14309
16.2852
0.187474
6.65646
-9.66349
-2.74524
3.61831
-0.456642
5.55397
-2.31048
-3.76643
5.53167
7.62811
-5.7041
6.65964
-3.75683
11.1669
3.55758
-14.6369
11.8731
-5.23609
12.249
-2.098
8.48671
-4.37772
-4.82811
5.22277
4.86946
-4.41013
1.2683
1.32678
0.171345
0.274061
-0.374716
5.22454
-2.54867
3.04381
-24.2289
-3.87255
24.0027
4.39159
-1.55757
3.61055
-0.384775
2.46167
5.52327
-2.71149
3.09098
-0.303979
0.729192
1.30011
0.981066
0.788258
4.38539
2.12813
-1.90964
0.313517
1.44574
0.171198
0.207902
0.51457
-17.3911
-20.4948
17.9259
20.6789
2.09518
4.06077
-1.56953
0.201053
3.56145
-1.10437
-0.783968
3.54191
2.88293
0.615381
1.49724
-0.362065
3.42468
2.83593
-1.13158
-0.725049
1.82002
-1.10716
0.58886
3.57174
0.384483
2.21612
1.69795
-0.323634
-10.5828
13.8676
11.8625
-13.3653
0.493317
4.00732
1.11536
-2.73305
-2.87139
2.71108
5.24086
-0.0806051
-2.23011
-3.94502
3.03894
4.92094
2.28782
-6.31533
9.04967
0.342728
-0.185307
-2.79284
4.37666
2.19889
0.63908
3.29579
7.45542
-3.9984
2.12421
-0.0659498
2.48882
-0.297957
2.7085
2.10199
-0.216314
-0.755119
-1.91693
1.45687
6.35598
1.94706
1.871
-0.342776
-0.562509
2.06771
-2.39289
3.17929
5.74822
-0.247835
2.87473
0.117426
1.66323
-0.910857
4.84591
0.449133
2.25236
-2.26329
3.80108
1.19991
-2.07627
0.768644
0.0641564
2.17789
-1.99649
4.26164
-0.434168
0.615488
2.63983
1.43814
1.48122
1.72128
2.7354
-0.371442
3.89815
-1.00976
-1.43039
3.35017
2.21864
-1.2723
2.63839
-0.72571
0.879479
4.59679
1.50715
-2.13886
-1.31344
3.22977
2.54897
-0.563311
3.1473
-1.23972
1.36108
0.353307
-1.10058
3.06705
3.26968
-0.752401
0.790826
1.54945
3.36295
-1.15636
-0.453337
0.159488
2.40597
2.13893
0.795958
1.20748
-13.683
15.4231
-0.400358
3.1493
2.27711
-1.06238
-4.57824
5.45253
6.13776
-5.49579
3.60678
-9.96269
-2.70632
10.0972
2.77633
0.649377
-0.549024
1.33005
9.59397
2.30058
-2.67862
4.23698
2.58516
0.671756
2.39431
6.67074
-0.257968
9.28826
2.44754
-7.6443
-2.84029
3.47679
5.36528
-0.980877
0.866523
0.462833
0.841262
1.18579
1.12301
0.674204
0.994171
0.510791
-5.7088
0.900507
5.91283
-0.339631
2.47855
1.84554
-0.57319
0.321741
1.64751
-0.300016
0.0285798
2.02014
-2.61589
0.428536
6.32777
8.80154
1.46982
-3.79733
1.5634
7.09699
-1.92641
3.12994
4.67206
-0.530386
-3.61814
6.71941
-0.587042
3.90346
3.12832
2.02489
0.0725045
-0.947815
-0.579812
2.93509
-0.670486
3.00065
1.52502
-3.85925
0.222447
5.73231
2.74965
-0.109989
-0.874858
1.68511
1.05672
-1.19846
3.42856
0.895736
4.49479
-2.2272
0.867008
1.34067
-1.35078
0.813482
0.32558
2.43146
2.89974
-0.752779
-0.672387
2.80446
1.53426
0.634264
3.32639
-1.06165
0.00916348
-0.971163
2.61
1.56332
0.392724
1.54
2.2204
-0.26521
1.27692
-0.426094
1.04529
2.55901
-2.4126
3.96275
-1.84003
4.50989
2.99111
1.10182
0.532817
-1.15888
-1.27485
3.33703
2.71193
-0.59838
2.04994
-0.833202
-0.249337
2.56518
-0.619414
2.77375
-0.018263
1.89924
3.70782
-1.60997
-1.45702
3.7995
3.10042
-2.27807
-0.495736
4.89652
1.86925
-1.24513
0.200679
3.46885
3.23585
2.12571
0.0601792
-1.09757
-0.755475
2.90025
1.28161
0.98819
3.70715
2.16401
-0.0924773
-1.69331
10.336
1.77744
-5.02394
2.41993
-0.3246
0.310178
-10.5143
10.4229
4.98263
0.634201
1.69159
-2.71166
1.09865
2.22528
0.600677
-0.489973
0.780247
-0.420577
2.32887
0.990577
1.44942
-0.920276
3.12244
0.637476
-4.31797
5.72957
4.04908
-2.6045
4.07065
-5.94742
-10.6605
8.83389
1.12787
2.11018
0.63426
-0.347148
1.09956
-1.33755
1.23119
3.59687
0.397696
2.4986
1.57959
-0.455419
-1.13203
2.19548
3.46292
-0.0114591
-0.405529
2.82982
2.27529
-1.07036
-0.204246
2.27166
-0.105332
2.07205
17.4249
-9.63256
-5.01466
10.4856
-1.14441
0.185514
3.44591
2.09559
2.68609
-0.235556
-0.438278
2.41932
3.82183
-1.53361
3.24663
-1.24777
3.1048
-0.600561
2.93039
-0.618444
2.6403
1.29831
-0.653988
0.659194
1.11401
3.33071
1.102
-1.10718
4.20002
-1.71748
0.395787
2.25573
3.34174
-0.997937
2.56257
-0.300292
-0.0252662
1.14288
0.66836
1.83411
1.16359
3.93848
1.20543
-1.61521
3.55662
-1.39394
0.545288
1.59079
3.20063
-0.851562
4.26377
-1.9201
-3.57018
-2.92443
4.27539
4.92797
-0.578325
3.76523
2.82624
-1.52327
-0.147265
2.1848
1.63275
0.261921
-0.191485
2.26147
0.871281
1.16592
-0.592761
3.62335
-1.77786
5.47739
0.448049
2.20086
1.37317
-0.28964
3.00743
-0.777077
2.52739
-0.213062
5.52151
3.3475
-3.24845
-0.989569
4.32447
3.19507
-2.05187
-0.976669
-3.77458
11.1499
-12.756
1.60542
3.4363
1.62094
0.545716
-1.17816
0.419617
0.610619
0.680953
0.526168
0.39528
0.276523
0.98674
1.24939
0.689465
0.254092
0.384643
0.620409
1.15785
-1.49906
1.10311
3.81792
-0.933152
0.36439
0.625461
1.95998
1.65643
-0.0614747
-0.761715
0.920117
1.57553
0.353356
2.7191
-0.723829
-6.30453
3.13332
6.92743
-2.10024
2.90591
-3.41227
8.12805
-8.11124
1.9378
0.598471
1.13487
-0.114817
5.44573
-0.0720937
3.55808
-2.6719
0.232662
1.64925
0.312962
1.32869
0.47097
2.98855
1.7106
-0.894229
0.793651
1.14941
0.66022
0.947058
2.95671
1.39088
0.822482
-0.968628
1.58887
0.53629
0.259163
0.993344
-0.567817
-2.36061
3.22128
5.12873
3.31662
-2.23281
3.55949
-1.97149
1.51168
0.742541
0.286732
1.07589
1.34071
5.44161
1.3096
-2.7598
1.85071
-0.682884
-0.0158424
2.62854
2.26941
-1.84729
0.620695
5.09076
-1.70951
-0.74609
4.19735
5.78122
-0.511647
2.40343
0.663844
1.46104
2.20195
-0.0328844
2.05374
-0.0748796
4.99499
-0.744432
4.42079
-1.37611
2.89762
4.7539
-4.19722
-6.41347
4.75896
-2.32046
2.73731
-0.34661
2.00156
-0.746622
0.136903
2.70103
3.08021
0.629202
1.72669
-0.863739
2.5201
0.542287
1.44908
-0.631252
2.18585
0.0651309
-0.171582
1.99753
-1.22612
2.07377
3.63126
0.276387
-16.5994
16.2177
15.0473
-16.8379
3.38514
-0.606465
-1.36838
2.91225
2.06514
-2.34709
-0.781559
3.53505
0.649644
0.869675
1.13979
0.724279
-0.573744
1.14273
-1.45817
2.20911
4.49027
-1.39901
-1.72518
4.51966
-0.0491382
2.72213
-0.651034
2.07166
5.34989
0.355871
2.2351
-2.64438
0.138362
1.64519
0.206876
1.3647
3.06394
-0.656237
-2.02453
1.84144
1.73875
-0.824258
2.7142
0.179409
-1.79959
4.12363
-0.437107
2.73687
0.214523
1.40744
0.146942
1.31494
-1.33387
4.73944
-1.99069
4.18235
1.59482
0.61968
1.24532
0.351625
0.136066
1.96012
2.50001
-0.564241
1.25852
1.88724
0.647977
0.0555269
-0.950074
1.05363
0.667333
2.8915
-0.768277
-1.55394
3.95645
3.08741
-0.101748
-0.106522
1.47185
1.58384
0.0348086
1.16567
1.54701
0.387249
2.00836
-0.194017
0.326109
0.968364
-1.7624
0.618678
0.0863048
2.56323
2.66323
5.30397
-2.24627
0.480488
18.5432
-11.9911
11.2169
-6.14303
2.24966
0.910844
-0.359108
0.49711
9.62244
-18.8772
25.4949
-3.76924
-5.31385
-1.03602
9.20075
4.84565
2.99067
-2.55655
-0.150895
5.05669
1.36293
0.315656
-1.00754
2.72999
1.04651
1.02508
-0.461502
2.60428
0.0575056
1.45253
2.02898
-0.329561
0.586008
0.442376
1.44162
1.2484
1.55752
0.85033
0.154231
0.886223
1.78871
0.254599
5.15634
-1.95452
1.62115
1.96222
-0.0468068
-0.27298
3.30284
-1.03373
-0.909157
3.38685
8.63591
20.6413
-14.4005
-2.94558
-2.07706
3.62256
3.85292
-2.295
-22.1183
10.3988
19.9289
-14.2462
5.00283
2.57825
1.8503
7.29587
3.06434
-0.685373
2.76122
-0.803048
0.259562
-2.41433
2.73993
5.23589
1.77721
-1.26663
2.38278
-0.643521
1.70313
-0.763044
2.85344
0.553328
-1.13021
3.46999
0.397769
1.82776
0.138144
1.29844
0.446883
1.19568
-1.48207
4.35125
-1.87411
4.50372
0.0384817
0.50054
1.31213
1.07315
-1.89862
4.01678
-1.46577
4.65573
1.95512
-0.570464
2.55154
0.181736
2.00236
-1.87155
4.30693
0.297992
3.33315
3.7502
-1.1233
-1.48791
-0.397684
0.609682
2.49331
1.41055
0.864188
0.577992
-0.868278
2.34795
4.86209
1.97169
-2.93448
0.231165
3.18505
1.33546
-1.10022
0.718982
2.49294
-2.00195
3.44662
-0.765648
5.69554
-4.35271
0.141924
1.21338
3.47772
0.601888
1.59074
-1.50959
1.55398
-0.575532
-2.22937
3.39752
0.196488
-0.223296
1.83389
2.30576
-21.92
-3.84957
19.4566
2.85034
2.63413
-0.475821
2.13496
-0.0689364
1.05524
0.62759
1.84742
-0.0712412
0.294592
0.0645161
1.48571
1.69683
0.89893
-0.441323
2.60585
1.1479
1.95386
0.320097
2.54611
-0.45675
0.417317
0.706291
1.30907
1.28882
-21.5392
15.6635
-12.7814
21.9836
0.409766
0.338673
1.34145
1.10098
1.52272
-0.106594
-0.208806
1.92383
1.46478
0.183538
1.78226
0.721408
0.213586
0.519608
1.30859
0.866495
0.327765
2.01074
1.83246
0.16777
-0.180762
1.41079
2.12682
0.415857
-0.757736
2.36079
3.08143
-0.18831
0.529059
0.306799
0.814548
1.11334
1.07373
0.816611
2.90638
-0.780601
-1.64437
-2.18982
6.27463
6.62871
-0.621056
-0.124615
2.25406
2.73169
1.01353
-2.13831
4.71091
1.14413
-1.29945
0.188763
2.01179
3.3576
-0.0520967
1.81355
0.263592
1.09463
-0.954778
3.14648
0.797312
1.54997
1.7879
-0.144687
0.789059
0.6649
-0.418198
2.93324
-1.12968
2.15007
1.80403
-0.011549
-1.09066
2.99453
-0.469751
3.44277
-1.00015
2.79309
-2.27622
0.862232
1.61123
4.77346
-5.72567
-24.5498
6.1651
26.073
0.141234
-0.182518
5.16612
4.8096
3.88648
-1.6992
-0.277075
2.15028
5.2962
2.35471
0.677823
-2.67895
3.17289
3.6292
-0.935434
-1.43434
-1.04667
2.80738
2.38808
5.68528
2.97805
-3.4121
5.09399
-1.46461
0.1519
2.62546
-2.15664
5.35678
-0.792769
-0.419356
2.74974
0.780917
1.90002
0.691576
1.30784
0.19862
-1.64562
1.41102
-0.517201
2.38981
-2.60762
1.74537
1.10257
5.96327
-0.631062
2.32542
0.800727
0.881723
3.38785
2.9815
-1.28206
-1.02218
-0.830152
3.10108
1.9486
0.39034
1.96523
-4.10343
-0.557778
5.47976
-1.50113
-0.551696
3.54429
2.87019
2.43987
-0.0852091
2.05172
-0.442465
2.2586
-0.692101
2.85403
-0.476041
-0.582432
1.74137
0.683158
2.91267
1.80049
-0.768959
0.211728
2.75442
3.67135
-1.56907
0.516348
1.53727
5.15747
-1.61241
-1.45573
4.84938
-0.29935
-0.35772
2.28572
2.43424
1.64421
-0.684909
2.82944
0.356045
-1.14984
1.81431
3.57207
0.474885
-1.01107
-2.10343
3.34958
4.53472
-1.01509
1.00464
3.25006
1.14725
1.95362
-1.07019
1.43846
-1.35488
-0.634376
-2.32418
4.39347
5.56066
1.88095
0.929705
-3.01309
5.90787
1.19321
-0.247224
2.37502
-0.207816
3.53686
-1.39379
3.55309
-1.65721
-0.174205
1.15228
2.13077
0.744973
4.19322
-2.12518
1.41126
0.461407
3.55217
-1.45224
1.92834
0.52599
-5.17873
-4.52483
6.9133
6.10718
4.3579
-2.13404
1.54286
0.597093
0.399289
-1.89036
3.26659
1.28801
-3.28644
7.67697
-4.56385
6.22603
-0.614743
3.71824
-1.62222
2.31131
2.34968
5.3644
-2.38571
0.415366
-1.7347
4.08507
1.32445
0.789487
-12.7642
7.4316
-8.5549
13.0595
2.48512
0.954461
0.955306
-0.444371
-0.249279
1.69068
2.27051
0.391327
0.430378
0.45534
1.37527
1.21825
0.915922
0.931927
1.8062
0.0144962
3.07971
-1.76946
2.16607
-1.11489
-0.073913
2.17622
3.07604
-0.834844
-2.03695
4.11219
2.40883
0.10491
-1.01398
3.1127
2.20849
-0.246172
0.999177
1.92058
-0.168935
0.749929
-0.569253
1.68683
3.38778
-2.17186
2.79708
-0.512273
4.91463
1.94478
2.6005
-0.630784
2.76657
-0.461153
0.167449
3.06869
1.67147
-0.569709
1.62156
0.975734
0.590024
3.50268
-0.868012
1.90371
0.523045
3.13485
2.48726
0.825425
-0.565032
1.50563
-0.116748
2.05423
-0.0218955
2.3434
0.493494
-0.718933
1.587
2.79708
3.37383
-1.55019
0.616162
1.00582
2.14005
-0.057645
0.575428
1.34256
-0.426869
-0.780926
2.90387
2.56625
1.97176
0.254638
0.128459
1.84759
4.24021
-2.72918
3.72427
-3.14534
2.23562
3.10659
-0.00971
-1.06936
6.16033
0.362557
3.28281
-1.2851
2.20732
-0.431584
-5.02762
6.47404
-2.25064
2.83745
-0.669493
4.65297
-0.743419
2.94709
2.71141
-1.04018
3.6727
1.29508
0.641867
-1.77431
1.29177
3.15525
-1.30669
0.430487
-6.15439
3.38333
-2.04013
7.66165
2.85308
-1.79985
4.88306
-0.317057
5.66744
1.1641
1.59488
-2.7641
-3.90817
1.92138
1.3604
7.12366
1.71511
-0.00235411
5.10421
3.19225
0.204677
2.62982
1.39828
-1.02155
1.43752
-2.04103
3.74863
0.240803
-0.661543
1.08543
2.81676
1.03686
3.20199
-0.303145
2.58568
-0.966096
-1.34644
1.4285
3.61357
0.767817
0.389191
2.59197
-0.50331
1.83255
0.473848
1.94744
-0.0308584
1.8388
-3.42297
10.2295
5.23572
-7.80027
0.553348
1.94336
1.40663
0.0188971
0.485449
0.269213
1.492
1.70911
0.332803
1.69287
2.58035
-0.518408
-0.137826
2.08597
2.17592
-0.0144884
1.92248
1.8577
-0.140778
-0.162189
1.40777
-0.581048
2.31462
0.351061
-0.322673
2.17871
2.31104
-0.239055
-3.28382
2.82501
0.265084
6.45364
5.80206
-1.33694
5.32583
-2.26917
3.53284
-0.630502
1.10369
-2.81768
1.61331
0.132069
-1.49941
3.48114
0.776852
0.273546
1.51965
0.865031
0.559472
1.43232
1.29425
0.40007
2.51514
1.36534
0.169107
-0.92418
-1.31417
5.92016
-2.71952
4.73567
-0.0947836
2.17636
3.24326
-1.25339
-0.128395
0.406641
5.63585
-4.68628
2.51882
1.72251
6.48479
-2.33265
-2.87555
2.66534
0.651551
6.34585
-1.00776
1.58956
3.45823
-2.8088
-13.976
24.1606
11.7025
-26.572
-0.773645
3.82231
4.3894
7.11119
-0.9709
3.31819
3.44807
-1.19148
0.687584
4.6608
0.192878
-3.41334
-1.21974
3.22289
1.38727
0.429339
3.03303
-3.46476
5.05074
-1.77102
3.8786
-0.905905
-2.17745
2.20574
2.78547
-0.529132
2.25968
-1.14729
3.0659
1.58966
-0.982691
0.479697
2.57964
-0.619621
-0.981907
3.09517
1.03093
-5.76926
5.85975
-1.14245
1.30371
-0.367971
0.708486
2.23049
-0.213635
1.70043
-0.333269
1.57864
-0.725287
0.993715
0.379298
1.98225
0.0203654
-0.307403
2.32855
2.5182
-0.0394525
1.95376
2.15267
0.0471062
1.68164
2.61336
-0.549001
0.271944
4.79701
-2.47013
1.07934
1.1919
-5.11395
-10.1009
10.2637
5.43867
0.010812
-1.69753
4.11611
2.35403
0.303403
3.75892
2.45085
-1.46685
-4.77831
5.17557
-4.53661
5.63274
2.06071
1.20963
-0.415745
1.06006
2.17189
-0.104968
0.479891
1.6051
-1.46578
3.31858
-2.15118
2.64844
0.346723
14.6465
3.67529
-9.88283
-19.9404
5.82526
-4.57489
20.4105
-1.47388
-0.997959
2.67922
3.2809
5.03744
0.461742
2.27964
-1.70356
0.865154
-3.35294
6.53151
2.19494
8.12044
-0.549239
1.61923
-7.29343
3.68833
-4.31774
-3.24701
4.95145
-0.912273
1.8864
2.92028
0.0106496
0.835499
0.668356
0.169927
1.48503
0.0574881
2.53048
1.82729
-0.470189
4.16615
1.50391
0.374042
-2.43771
-0.354295
2.53044
-0.224883
2.55021
0.889991
-0.524434
1.26398
2.54894
2.40497
-1.42644
3.44561
-0.462558
3.49243
-1.54819
4.04844
-1.10548
0.295242
2.15346
1.53423
-0.292209
-27.6929
9.08145
-11.5891
26.0293
2.28884
-0.306443
2.26284
-0.229856
0.32369
3.5039
-1.73761
1.50763
2.70924
-0.522069
1.39739
0.775235
7.15607
3.01187
-3.16986
1.05202
0.871174
-0.178669
2.14013
1.11987
1.96277
0.205596
0.061711
1.56822
1.96188
-0.90026
2.91991
0.0172496
2.8036
-0.88046
2.13137
-0.229839
-9.72084
12.3334
15.3637
-3.93595
-2.36364
4.06812
-0.875655
2.76
5.24366
-2.01132
3.74781
-1.04349
5.39425
0.913081
-3.48682
1.59738
2.25286
-3.80817
-0.804486
5.45201
-6.65468
-24.7657
5.01723
21.7121
-2.10338
2.12191
4.1935
0.34883
-3.59976
-2.98309
4.46821
3.89563
-4.5308
-0.411973
3.27213
8.57497
1.61533
0.320114
1.41388
0.384186
-4.31763
4.24598
-4.04384
3.99863
-1.24564
2.62633
2.43548
-0.908177
0.67507
0.289117
1.4715
0.86419
0.423139
-1.90878
4.40076
2.02939
-1.09225
3.94408
3.23018
-1.5309
-2.91062
3.16288
-0.911054
4.97825
2.68843
3.6004
-0.505605
-1.43209
3.08871
3.63835
-0.866627
-1.24517
-0.126612
3.84055
-1.85411
1.96214
1.72363
0.0155446
0.833114
1.10979
0.0839615
-1.53328
3.90675
2.07905
-2.60608
1.31428
1.10141
4.58152
-1.25579
-0.860148
3.55208
3.81745
8.32483
0.240967
3.21864
-3.84832
2.29646
4.13711
-1.85825
0.268415
2.70801
1.83983
0.0789142
-0.736478
0.670087
0.997905
3.1088
-1.30595
-0.628365
2.27349
2.87929
-0.172039
-0.593627
2.62557
2.81854
-0.295741
1.82347
25.9348
4.60325
-19.2205
3.21201
0.0430987
1.87333
-1.33837
2.96304
-2.86081
5.76556
-0.77383
0.615486
4.21626
1.48662
-1.80289
-0.772525
5.88076
-2.61383
3.75968
0.457462
1.30732
0.523487
1.45112
1.64898
0.145834
1.0909
0.66212
-1.68289
1.88084
-1.69911
2.15639
5.30758
-1.3461
4.73369
-1.27882
4.12821
-1.8634
-0.199385
2.50768
4.81763
1.29369
-4.01006
-0.854341
4.88327
-0.867697
-2.33007
3.23018
2.49613
6.34142
-1.34274
-4.1599
-1.87829
1.92711
3.86609
-0.0275105
6.9789
-5.02437
-1.81539
4.00907
0.179906
3.66583
-1.65238
1.64929
2.77626
-1.49536
-4.72973
5.96252
-2.60771
1.19485
6.08932
2.0944
12.1433
-16.7467
-11.526
18.0241
-0.692732
10.9382
5.63388
-1.19109
2.47955
-0.315093
2.04095
-0.653333
2.76237
1.38762
-0.736809
0.536497
1.87533
4.28424
-3.57832
-1.34464
4.35587
4.90589
-1.0352
-0.766567
-0.381929
3.61884
-2.13505
1.75477
2.47707
5.35153
0.58896
-2.42385
5.89242
-0.295825
1.98107
-3.78811
-4.62114
3.09709
6.32588
-1.44786
3.5593
1.7146
0.528845
-1.63301
0.3482
2.59749
1.80437
-0.460498
-0.316359
1.97576
0.167514
2.48221
6.02555
1.18544
2.4405
-2.37517
16.5916
-23.6941
21.5682
-18.8472
0.840476
-1.13475
3.48798
1.52353
1.73671
0.166939
2.30834
-0.126349
2.63643
1.40988
0.998271
-0.424605
-0.597025
2.88241
2.9053
-0.70336
1.85661
-1.48726
0.324408
3.62744
0.34372
1.29132
-1.27859
3.29606
-0.930423
0.613912
3.07997
1.54233
1.83572
0.550761
0.0604341
1.81999
1.86159
-0.00159073
1.98333
0.0899427
2.49817
-0.0189976
-0.370865
2.15014
-1.20355
4.28168
3.42978
-1.87475
2.98776
2.10157
-1.06459
-2.28463
-24.173
9.36084
-8.16985
24.9458
2.20039
-2.40354
4.50868
0.0552307
0.518553
1.30478
-1.57097
3.63675
0.399067
-1.29094
3.39658
1.80235
1.68985
0.518826
-1.77235
4.00718
-0.498704
1.08587
2.61329
0.533029
-1.00268
3.0222
1.44715
0.537217
3.65493
-1.52593
0.801383
1.54346
1.43173
-0.232276
3.52
-2.42495
-1.25649
0.447949
1.95991
3.47767
-1.78482
2.85416
-0.586759
4.15993
2.71227
-0.695111
3.15521
-0.987394
2.87052
-0.031395
-0.747228
2.04387
0.511143
2.1418
-2.85649
5.61068
8.29014
1.6611
-5.80936
1.41833
5.87518
-3.10449
4.80597
-3.96578
-2.29435
-1.16793
4.89279
3.86466
-1.5617
3.66872
2.79414
-0.645681
4.85099
14.6959
-10.0334
-0.718986
4.93033
7.59686
-2.33714
-3.73658
-4.67916
4.94308
5.71887
-4.46151
0.0228643
0.0762005
1.95652
1.89367
-0.492348
2.38099
1.46648
0.443413
0.276689
1.85514
4.09455
-1.81965
-2.54184
1.0946
5.17345
1.63147
-2.86354
-0.331952
3.0356
5.59872
-2.49605
2.61476
4.33351
-0.96564
2.18296
3.88383
-0.0972444
-1.80322
4.69085
1.16338
1.22531
-2.31194
2.43124
-3.24041
2.97325
8.7209
-1.02369
0.740987
3.02445
1.22772
2.06629
2.3338
-0.339828
0.0930256
-0.808928
2.80222
1.24899
0.548863
3.88339
-2.29387
-2.84267
3.10619
-1.42856
-0.215796
1.92298
3.30413
2.01499
-0.235629
-0.33717
1.98948
0.418624
2.22109
-0.309017
1.62233
5.15729
1.13963
2.07567
-2.13872
2.01607
0.827959
-0.0862395
1.04348
-0.441831
1.68295
2.43574
0.183639
-19.1717
-17.7755
14.5728
17.6139
0.792731
-0.351349
2.07772
0.885952
-1.72253
0.475775
1.71386
4.15943
-1.33555
2.97496
-0.754001
3.44208
-1.55806
3.0629
4.35179
-0.590984
4.5384
-2.67337
-2.73941
4.6414
5.90917
-0.539
-2.29785
3.46644
5.98697
0.719588
2.3648
-2.25585
3.06531
-1.18373
3.61184
-0.706354
0.493462
1.35613
2.71543
-0.739129
1.44359
-0.428254
0.523368
2.44969
1.69752
2.41297
-0.28969
-0.433427
1.65116
0.297391
0.0657744
1.43962
2.0454
-4.51621
-0.526406
6.82147
0.269953
0.69863
1.02735
1.40145
1.15888
0.709391
0.0671156
0.511155
4.53298
-1.6842
-2.4968
5.3902
0.224776
0.860842
1.09583
0.394685
6.29736
0.180963
2.67032
-3.39126
-27.2687
1.86962
24.2894
-4.42267
-0.0965551
2.38167
2.0355
-0.413669
4.48255
3.51057
-1.77031
-0.218169
2.50836
-0.518135
0.120204
1.86299
2.97709
0.458687
1.34679
-1.03685
0.892592
3.28291
0.686777
-1.56037
4.87283
0.0877976
-2.40044
2.37349
7.85436
1.90195
0.529009
-4.3181
4.06227
-1.55567
3.78288
-1.47613
2.8263
-4.03499
-0.705927
5.89682
2.50635
1.31281
-0.462512
0.86486
2.58174
0.163338
-1.08382
1.34871
1.08163
-1.8341
3.25765
0.523794
-2.62932
3.46594
3.48647
-2.06467
4.32012
-0.995109
3.40415
-1.77176
-1.80373
4.10026
1.92122
0.231536
4.20599
-2.07312
1.44076
0.685953
0.869245
2.05291
-0.466833
0.812906
5.18836
3.63384
-0.671707
-1.72075
-1.98399
0.443755
1.74731
4.28998
3.73673
-1.35758
-0.827711
3.01886
-0.0327461
-3.92086
6.88587
2.32851
0.619671
1.32518
2.66795
-0.701114
-3.49653
5.01279
4.0154
-4.37786
0.537866
0.771228
1.211
0.652862
0.0208571
1.26336
1.78967
0.546347
-0.020571
2.32827
-2.2892
4.537
0.75763
1.09535
-0.772171
2.66126
-7.03827
4.82556
9.33363
-1.19755
6.58063
-5.22127
8.9148
-2.38857
2.95082
4.933
-0.387146
-2.44934
6.13477
-0.139686
1.27396
-4.35969
9.05244
-5.17071
2.29479
1.07217
2.68279
2.48185
-1.41625
-0.855024
-2.44367
6.76634
3.96549
-5.43678
4.55963
-3.13696
-1.08688
7.18406
-1.17607
-1.45889
3.53811
3.85956
4.40637
-1.92182
-1.3185
3.82549
3.25267
-1.93233
-1.28325
3.8095
0.786929
0.674951
1.36063
0.0121616
1.4134
0.992426
0.545209
0.186379
-0.0284068
2.16136
-1.41211
3.73601
-0.88125
3.10791
-0.708348
2.91602
-3.94019
-3.45938
4.81886
4.56911
2.25439
-0.0140154
-0.451081
1.67021
2.59978
0.543747
1.61486
-0.552657
2.2491
-0.362503
1.65598
0.239096
2.09275
-0.264105
2.33383
-0.524706
3.52658
-1.23262
3.07192
-1.60298
5.68704
-1.33321
4.71792
-2.91526
-6.08892
7.89109
-5.24928
5.97153
0.380778
1.87674
-2.68335
5.13927
)
;

boundaryField
{
    insideCircle
    {
        type            myTemperature;
        value           nonuniform List<scalar> 
24
(
5.00283
2.19147
1.23734
7.56097
-2.68685
-0.952032
6.90365
5.51293
0.367541
-0.567779
5.28118
4.79891
-1.10516
2.33922
3.00946
6.05834
3.2677
0.0773939
5.58412
1.96968
1.69838
-0.0904079
5.22334
3.32236
)
;
    }
    outsideCircle
    {
        type            myTemperature;
        value           nonuniform List<scalar> 
124
(
2.44959
0.324617
1.64996
-0.296889
0.676844
1.58434
2.08693
1.72498
1.26638
0.274315
0.434928
2.43345
-0.0945157
1.89384
1.17032
1.2001
2.2795
1.02245
1.31028
-0.742418
-0.453579
0.689149
2.50797
1.51762
1.1123
-0.461885
2.54853
-0.715143
-0.130246
-0.264507
2.4498
1.76909
2.46466
0.796763
-0.437395
1.37778
0.909862
0.026032
2.23777
1.08327
-0.466957
1.05434
2.50031
1.07579
0.231185
-0.375021
1.89302
2.61722
0.885191
-0.702441
2.75592
1.21053
1.92202
0.0963911
2.25737
-0.182993
0.493843
2.00871
2.00721
-0.250588
-1.86187
-1.54639
4.18324
0.343232
2.64225
0.581274
-0.240415
1.4003
-0.42219
2.17537
-0.0160419
2.55894
2.28335
-0.249157
0.626551
1.57127
1.87288
-0.0461687
0.0671898
1.91415
-0.741673
0.830259
2.84916
1.3421
-0.0206085
2.56664
-0.402586
2.151
-0.0864584
-0.164548
1.88843
2.33009
1.92385
2.58864
-0.316829
0.417119
2.45426
0.693715
0.0575014
1.02944
2.05379
-0.0802221
0.560935
1.44273
2.4188
-0.490275
1.3437
0.7201
0.173251
2.51825
1.91139
-0.34008
-0.271532
2.07392
-0.0186342
2.47289
2.24467
0.146277
2.39459
-0.412084
2.64319
1.09457
0.622353
-0.640476
)
;
    }
    topAndBottom
    {
        type            empty;
    }
}


// ************************************************************************* //
