/*--------------------------------*- C++ -*----------------------------------*\
| =========                 |                                                 |
| \\      /  F ield         | OpenFOAM: The Open Source CFD Toolbox           |
|  \\    /   O peration     | Version:  2.2.0                                 |
|   \\  /    A nd           | Web:      www.OpenFOAM.org                      |
|    \\/     M anipulation  |                                                 |
\*---------------------------------------------------------------------------*/
FoamFile
{
    version     2.0;
    format      ascii;
    class       volVectorField;
    location    "2.6";
    object      s;
}
// * * * * * * * * * * * * * * * * * * * * * * * * * * * * * * * * * * * * * //

dimensions      [0 1 -1 0 0 0 0];

internalField   nonuniform List<vector> 
1600
(
(1.77578 0.0697725 0)
(1.50803 0.059251 0)
(1.30886 0.0514252 0)
(1.15602 0.0454202 0)
(1.03492 0.0406622 0)
(0.936627 0.0368001 0)
(0.855253 0.0336029 0)
(0.786779 0.0309126 0)
(0.728365 0.0286175 0)
(0.677943 0.0266364 0)
(0.633979 0.0249091 0)
(0.595307 0.0233897 0)
(0.561025 0.0220427 0)
(0.530426 0.0208405 0)
(0.502947 0.0197609 0)
(0.478137 0.0187861 0)
(0.455623 0.0179015 0)
(0.435118 0.0170958 0)
(0.416269 0.0163552 0)
(0.399253 0.0156867 0)
(1.76483 0.208885 0)
(1.49873 0.177388 0)
(1.30079 0.153959 0)
(1.1489 0.135981 0)
(1.02854 0.121736 0)
(0.930852 0.110174 0)
(0.84998 0.100602 0)
(0.781929 0.0925473 0)
(0.723874 0.0856761 0)
(0.673764 0.0797451 0)
(0.630071 0.0745738 0)
(0.591637 0.0700248 0)
(0.557566 0.0659922 0)
(0.527155 0.0623929 0)
(0.499846 0.0591607 0)
(0.475189 0.0562423 0)
(0.452814 0.0535941 0)
(0.432435 0.0511821 0)
(0.413702 0.0489649 0)
(0.396792 0.0469634 0)
(1.743 0.346708 0)
(1.48019 0.29443 0)
(1.2847 0.255543 0)
(1.13468 0.225703 0)
(1.01582 0.20206 0)
(0.919338 0.182868 0)
(0.839466 0.16698 0)
(0.772257 0.153611 0)
(0.714921 0.142206 0)
(0.66543 0.132362 0)
(0.622277 0.123779 0)
(0.584319 0.116228 0)
(0.550669 0.109535 0)
(0.520635 0.103561 0)
(0.493664 0.0981958 0)
(0.469311 0.0933518 0)
(0.447213 0.0889562 0)
(0.427087 0.0849528 0)
(0.408585 0.0812726 0)
(0.391884 0.0779505 0)
(1.71042 0.482393 0)
(1.45253 0.409657 0)
(1.26069 0.355552 0)
(1.11348 0.314034 0)
(0.996837 0.281137 0)
(0.902157 0.254435 0)
(0.823777 0.232329 0)
(0.757824 0.213729 0)
(0.701559 0.19786 0)
(0.652994 0.184163 0)
(0.610648 0.17222 0)
(0.573398 0.161715 0)
(0.540378 0.152402 0)
(0.510905 0.14409 0)
(0.484438 0.136626 0)
(0.46054 0.129886 0)
(0.438855 0.12377 0)
(0.419105 0.1182 0)
(0.400949 0.113079 0)
(0.38456 0.108457 0)
(1.6673 0.615103 0)
(1.41591 0.522358 0)
(1.2289 0.453368 0)
(1.08541 0.400428 0)
(0.971706 0.358481 0)
(0.879413 0.324433 0)
(0.80301 0.296246 0)
(0.738719 0.272528 0)
(0.683873 0.252294 0)
(0.636531 0.234829 0)
(0.595253 0.2196 0)
(0.558943 0.206205 0)
(0.526754 0.19433 0)
(0.498025 0.183731 0)
(0.472225 0.174213 0)
(0.44893 0.165619 0)
(0.427791 0.157821 0)
(0.408539 0.150718 0)
(0.390841 0.144189 0)
(0.374865 0.138295 0)
(1.6139 0.744021 0)
(1.37056 0.631839 0)
(1.18955 0.548389 0)
(1.05064 0.484354 0)
(0.940584 0.433615 0)
(0.851247 0.39243 0)
(0.777291 0.358336 0)
(0.71506 0.329647 0)
(0.66197 0.305172 0)
(0.616145 0.284047 0)
(0.576188 0.265626 0)
(0.541041 0.249423 0)
(0.509884 0.23506 0)
(0.482074 0.222239 0)
(0.457101 0.210726 0)
(0.434552 0.200331 0)
(0.41409 0.190898 0)
(0.395454 0.182307 0)
(0.378323 0.174409 0)
(0.362859 0.16728 0)
(1.55055 0.868351 0)
(1.31676 0.737424 0)
(1.14285 0.640029 0)
(1.0094 0.565293 0)
(0.903664 0.506076 0)
(0.817833 0.458009 0)
(0.74678 0.418217 0)
(0.686992 0.384734 0)
(0.635986 0.356169 0)
(0.591959 0.331513 0)
(0.553571 0.310015 0)
(0.519804 0.291104 0)
(0.489869 0.27434 0)
(0.463151 0.259377 0)
(0.439158 0.24594 0)
(0.417494 0.233808 0)
(0.397836 0.222799 0)
(0.379932 0.212772 0)
(0.363473 0.203555 0)
(0.348616 0.195234 0)
(1.47764 0.987328 0)
(1.25484 0.838462 0)
(1.08911 0.727723 0)
(0.961939 0.642747 0)
(0.861172 0.575417 0)
(0.779377 0.520763 0)
(0.711665 0.475519 0)
(0.654688 0.437448 0)
(0.60608 0.40497 0)
(0.564124 0.376936 0)
(0.527541 0.352492 0)
(0.495361 0.33099 0)
(0.466835 0.311929 0)
(0.441373 0.294916 0)
(0.418508 0.279638 0)
(0.397863 0.265843 0)
(0.379129 0.253326 0)
(0.362067 0.241925 0)
(0.346382 0.231445 0)
(0.332223 0.221984 0)
(1.39562 1.10022 0)
(1.18519 0.934331 0)
(1.02866 0.81093 0)
(0.908544 0.716239 0)
(0.81337 0.64121 0)
(0.736116 0.580307 0)
(0.672163 0.52989 0)
(0.618348 0.487466 0)
(0.572438 0.451274 0)
(0.532811 0.420034 0)
(0.498259 0.392796 0)
(0.467865 0.368835 0)
(0.440922 0.347595 0)
(0.416874 0.328637 0)
(0.395278 0.311612 0)
(0.375779 0.29624 0)
(0.358085 0.282291 0)
(0.341969 0.269587 0)
(0.327155 0.257908 0)
(0.313782 0.247366 0)
(1.30499 1.20632 0)
(1.10823 1.02444 0)
(0.961864 0.889138 0)
(0.849548 0.785314 0)
(0.760554 0.703049 0)
(0.688317 0.636273 0)
(0.628516 0.580994 0)
(0.578196 0.534478 0)
(0.535267 0.494796 0)
(0.498213 0.460543 0)
(0.465905 0.430678 0)
(0.437485 0.404406 0)
(0.412291 0.381118 0)
(0.389804 0.360331 0)
(0.369611 0.341664 0)
(0.351378 0.32481 0)
(0.334833 0.309516 0)
(0.319764 0.295586 0)
(0.305911 0.282782 0)
(0.293407 0.271223 0)
(1.20632 1.30499 0)
(1.02444 1.10823 0)
(0.889138 0.961864 0)
(0.785314 0.849548 0)
(0.703049 0.760554 0)
(0.636273 0.688316 0)
(0.580994 0.628516 0)
(0.534479 0.578196 0)
(0.494796 0.535267 0)
(0.460544 0.498213 0)
(0.430678 0.465904 0)
(0.404407 0.437484 0)
(0.381118 0.412291 0)
(0.360331 0.389804 0)
(0.341665 0.36961 0)
(0.32481 0.351377 0)
(0.309516 0.334832 0)
(0.295586 0.319764 0)
(0.282782 0.305911 0)
(0.271223 0.293407 0)
(1.10022 1.39562 0)
(0.934331 1.18519 0)
(0.81093 1.02866 0)
(0.716239 0.908544 0)
(0.64121 0.81337 0)
(0.580307 0.736116 0)
(0.52989 0.672162 0)
(0.487466 0.618348 0)
(0.451274 0.572438 0)
(0.420035 0.532811 0)
(0.392796 0.498259 0)
(0.368835 0.467865 0)
(0.347595 0.440922 0)
(0.328637 0.416873 0)
(0.311612 0.395278 0)
(0.29624 0.375778 0)
(0.282291 0.358085 0)
(0.269587 0.341969 0)
(0.257908 0.327155 0)
(0.247366 0.313783 0)
(0.987328 1.47764 0)
(0.838462 1.25484 0)
(0.727723 1.08911 0)
(0.642747 0.961939 0)
(0.575417 0.861172 0)
(0.520763 0.779377 0)
(0.47552 0.711665 0)
(0.437449 0.654688 0)
(0.40497 0.60608 0)
(0.376936 0.564124 0)
(0.352492 0.527541 0)
(0.33099 0.495361 0)
(0.311929 0.466835 0)
(0.294916 0.441373 0)
(0.279638 0.418508 0)
(0.265844 0.397863 0)
(0.253326 0.379129 0)
(0.241925 0.362067 0)
(0.231445 0.346382 0)
(0.221985 0.332223 0)
(0.868352 1.55055 0)
(0.737424 1.31676 0)
(0.640029 1.14285 0)
(0.565293 1.0094 0)
(0.506076 0.903664 0)
(0.458009 0.817833 0)
(0.418217 0.74678 0)
(0.384734 0.686991 0)
(0.356169 0.635985 0)
(0.331513 0.591959 0)
(0.310015 0.553571 0)
(0.291104 0.519803 0)
(0.27434 0.489869 0)
(0.259377 0.463151 0)
(0.24594 0.439158 0)
(0.233808 0.417494 0)
(0.222799 0.397836 0)
(0.212772 0.379932 0)
(0.203555 0.363473 0)
(0.195234 0.348616 0)
(0.744021 1.6139 0)
(0.631839 1.37056 0)
(0.548389 1.18955 0)
(0.484354 1.05064 0)
(0.433616 0.940584 0)
(0.392431 0.851247 0)
(0.358336 0.777291 0)
(0.329647 0.71506 0)
(0.305172 0.66197 0)
(0.284047 0.616145 0)
(0.265626 0.576188 0)
(0.249423 0.541041 0)
(0.23506 0.509884 0)
(0.222239 0.482074 0)
(0.210726 0.457101 0)
(0.200331 0.434552 0)
(0.190898 0.41409 0)
(0.182307 0.395454 0)
(0.17441 0.378323 0)
(0.16728 0.362859 0)
(0.615103 1.6673 0)
(0.522359 1.41591 0)
(0.453368 1.2289 0)
(0.400428 1.08541 0)
(0.358482 0.971706 0)
(0.324433 0.879413 0)
(0.296246 0.80301 0)
(0.272528 0.738719 0)
(0.252294 0.683873 0)
(0.234829 0.636531 0)
(0.2196 0.595253 0)
(0.206205 0.558943 0)
(0.19433 0.526754 0)
(0.183731 0.498025 0)
(0.174213 0.472225 0)
(0.165619 0.44893 0)
(0.157821 0.427791 0)
(0.150718 0.408539 0)
(0.144189 0.390841 0)
(0.138295 0.374865 0)
(0.482393 1.71042 0)
(0.409657 1.45253 0)
(0.355552 1.26069 0)
(0.314034 1.11348 0)
(0.281137 0.996837 0)
(0.254435 0.902157 0)
(0.232329 0.823777 0)
(0.213729 0.757824 0)
(0.19786 0.701559 0)
(0.184163 0.652994 0)
(0.17222 0.610648 0)
(0.161715 0.573398 0)
(0.152402 0.540378 0)
(0.14409 0.510905 0)
(0.136626 0.484438 0)
(0.129886 0.46054 0)
(0.12377 0.438855 0)
(0.1182 0.419105 0)
(0.113079 0.400949 0)
(0.108457 0.38456 0)
(0.346708 1.743 0)
(0.29443 1.48019 0)
(0.255543 1.2847 0)
(0.225703 1.13468 0)
(0.20206 1.01582 0)
(0.182868 0.919338 0)
(0.16698 0.839466 0)
(0.153612 0.772257 0)
(0.142207 0.714921 0)
(0.132362 0.66543 0)
(0.123779 0.622277 0)
(0.116228 0.584319 0)
(0.109535 0.550669 0)
(0.103561 0.520635 0)
(0.0981959 0.493664 0)
(0.0933518 0.469311 0)
(0.0889563 0.447213 0)
(0.0849529 0.427087 0)
(0.0812727 0.408585 0)
(0.0779506 0.391884 0)
(0.208885 1.76483 0)
(0.177388 1.49873 0)
(0.153959 1.30079 0)
(0.135981 1.1489 0)
(0.121736 1.02854 0)
(0.110174 0.930852 0)
(0.100602 0.84998 0)
(0.0925473 0.781929 0)
(0.0856761 0.723874 0)
(0.0797451 0.673764 0)
(0.0745737 0.630071 0)
(0.0700248 0.591637 0)
(0.0659922 0.557566 0)
(0.0623929 0.527155 0)
(0.0591607 0.499847 0)
(0.0562423 0.475189 0)
(0.0535941 0.452814 0)
(0.0511821 0.432436 0)
(0.0489649 0.413702 0)
(0.0469634 0.396792 0)
(0.0697725 1.77578 0)
(0.0592511 1.50803 0)
(0.0514252 1.30886 0)
(0.0454202 1.15602 0)
(0.0406622 1.03492 0)
(0.0368 0.936627 0)
(0.0336029 0.855253 0)
(0.0309126 0.786779 0)
(0.0286174 0.728365 0)
(0.0266364 0.677943 0)
(0.024909 0.633979 0)
(0.0233896 0.595307 0)
(0.0220427 0.561025 0)
(0.0208404 0.530426 0)
(0.0197608 0.502947 0)
(0.018786 0.478137 0)
(0.0179015 0.455623 0)
(0.0170959 0.435118 0)
(0.0163552 0.416269 0)
(0.0156867 0.399254 0)
(-0.0697726 1.77578 0)
(-0.0592512 1.50803 0)
(-0.0514255 1.30886 0)
(-0.0454205 1.15602 0)
(-0.0406625 1.03492 0)
(-0.0368004 0.936627 0)
(-0.0336032 0.855253 0)
(-0.0309128 0.786779 0)
(-0.0286177 0.728365 0)
(-0.0266366 0.677943 0)
(-0.0249092 0.633979 0)
(-0.0233898 0.595307 0)
(-0.0220428 0.561025 0)
(-0.0208405 0.530426 0)
(-0.0197609 0.502947 0)
(-0.0187861 0.478137 0)
(-0.0179015 0.455623 0)
(-0.0170958 0.435118 0)
(-0.0163552 0.416269 0)
(-0.0156867 0.399254 0)
(-0.208885 1.76483 0)
(-0.177388 1.49873 0)
(-0.153959 1.30079 0)
(-0.135981 1.1489 0)
(-0.121737 1.02854 0)
(-0.110174 0.930852 0)
(-0.100602 0.84998 0)
(-0.0925476 0.781929 0)
(-0.0856764 0.723874 0)
(-0.0797454 0.673764 0)
(-0.0745739 0.630071 0)
(-0.0700249 0.591637 0)
(-0.0659924 0.557566 0)
(-0.062393 0.527155 0)
(-0.0591608 0.499847 0)
(-0.0562423 0.475189 0)
(-0.0535941 0.452814 0)
(-0.0511821 0.432436 0)
(-0.0489649 0.413703 0)
(-0.0469634 0.396792 0)
(-0.346708 1.743 0)
(-0.294431 1.48019 0)
(-0.255543 1.2847 0)
(-0.225704 1.13469 0)
(-0.20206 1.01582 0)
(-0.182868 0.919338 0)
(-0.166981 0.839467 0)
(-0.153612 0.772257 0)
(-0.142207 0.714921 0)
(-0.132362 0.66543 0)
(-0.123779 0.622277 0)
(-0.116228 0.584319 0)
(-0.109535 0.550669 0)
(-0.103561 0.520635 0)
(-0.098196 0.493664 0)
(-0.0933519 0.469311 0)
(-0.0889563 0.447213 0)
(-0.0849529 0.427087 0)
(-0.0812727 0.408585 0)
(-0.0779506 0.391884 0)
(-0.482393 1.71042 0)
(-0.409658 1.45253 0)
(-0.355552 1.26069 0)
(-0.314034 1.11348 0)
(-0.281138 0.996837 0)
(-0.254435 0.902157 0)
(-0.23233 0.823778 0)
(-0.213729 0.757824 0)
(-0.19786 0.701559 0)
(-0.184163 0.652994 0)
(-0.172221 0.610648 0)
(-0.161715 0.573398 0)
(-0.152402 0.540378 0)
(-0.14409 0.510905 0)
(-0.136626 0.484438 0)
(-0.129886 0.46054 0)
(-0.12377 0.438855 0)
(-0.1182 0.419105 0)
(-0.113079 0.400949 0)
(-0.108457 0.38456 0)
(-0.615104 1.6673 0)
(-0.522359 1.41591 0)
(-0.453368 1.22891 0)
(-0.400429 1.08541 0)
(-0.358482 0.971706 0)
(-0.324433 0.879413 0)
(-0.296246 0.80301 0)
(-0.272528 0.738719 0)
(-0.252294 0.683873 0)
(-0.234829 0.636531 0)
(-0.219601 0.595253 0)
(-0.206205 0.558943 0)
(-0.19433 0.526755 0)
(-0.183731 0.498025 0)
(-0.174213 0.472225 0)
(-0.165619 0.44893 0)
(-0.157821 0.427792 0)
(-0.150718 0.408539 0)
(-0.144189 0.390841 0)
(-0.138295 0.374865 0)
(-0.744021 1.6139 0)
(-0.631839 1.37056 0)
(-0.548389 1.18955 0)
(-0.484354 1.05064 0)
(-0.433616 0.940585 0)
(-0.392431 0.851247 0)
(-0.358337 0.777291 0)
(-0.329647 0.71506 0)
(-0.305173 0.66197 0)
(-0.284047 0.616145 0)
(-0.265627 0.576188 0)
(-0.249423 0.541041 0)
(-0.23506 0.509884 0)
(-0.222239 0.482074 0)
(-0.210726 0.457101 0)
(-0.200331 0.434552 0)
(-0.190898 0.41409 0)
(-0.182307 0.395455 0)
(-0.17441 0.378324 0)
(-0.16728 0.362859 0)
(-0.868352 1.55055 0)
(-0.737424 1.31676 0)
(-0.64003 1.14285 0)
(-0.565294 1.0094 0)
(-0.506077 0.903664 0)
(-0.458009 0.817834 0)
(-0.418218 0.74678 0)
(-0.384734 0.686992 0)
(-0.356169 0.635986 0)
(-0.331513 0.591959 0)
(-0.310015 0.553571 0)
(-0.291104 0.519804 0)
(-0.27434 0.489869 0)
(-0.259377 0.463151 0)
(-0.245941 0.439158 0)
(-0.233808 0.417494 0)
(-0.222799 0.397836 0)
(-0.212772 0.379932 0)
(-0.203555 0.363473 0)
(-0.195234 0.348616 0)
(-0.987329 1.47764 0)
(-0.838462 1.25485 0)
(-0.727724 1.08911 0)
(-0.642748 0.961939 0)
(-0.575417 0.861172 0)
(-0.520764 0.779377 0)
(-0.47552 0.711665 0)
(-0.437449 0.654688 0)
(-0.40497 0.60608 0)
(-0.376936 0.564124 0)
(-0.352492 0.527541 0)
(-0.33099 0.495361 0)
(-0.311929 0.466835 0)
(-0.294916 0.441373 0)
(-0.279638 0.418508 0)
(-0.265844 0.397863 0)
(-0.253326 0.379129 0)
(-0.241925 0.362067 0)
(-0.231445 0.346382 0)
(-0.221985 0.332224 0)
(-1.10022 1.39562 0)
(-0.934331 1.18519 0)
(-0.810931 1.02866 0)
(-0.716239 0.908544 0)
(-0.64121 0.813371 0)
(-0.580308 0.736116 0)
(-0.529891 0.672163 0)
(-0.487467 0.618348 0)
(-0.451274 0.572438 0)
(-0.420035 0.532811 0)
(-0.392796 0.498259 0)
(-0.368835 0.467865 0)
(-0.347595 0.440922 0)
(-0.328637 0.416874 0)
(-0.311612 0.395278 0)
(-0.29624 0.375779 0)
(-0.282291 0.358085 0)
(-0.269587 0.341969 0)
(-0.257909 0.327155 0)
(-0.247366 0.313783 0)
(-1.20633 1.30499 0)
(-1.02444 1.10823 0)
(-0.889139 0.961864 0)
(-0.785315 0.849548 0)
(-0.70305 0.760555 0)
(-0.636274 0.688317 0)
(-0.580995 0.628516 0)
(-0.534479 0.578196 0)
(-0.494796 0.535267 0)
(-0.460544 0.498213 0)
(-0.430678 0.465905 0)
(-0.404407 0.437485 0)
(-0.381118 0.412291 0)
(-0.360331 0.389804 0)
(-0.341665 0.369611 0)
(-0.32481 0.351378 0)
(-0.309516 0.334833 0)
(-0.295587 0.319764 0)
(-0.282782 0.305912 0)
(-0.271223 0.293407 0)
(-1.30499 1.20633 0)
(-1.10823 1.02444 0)
(-0.961865 0.889138 0)
(-0.849549 0.785315 0)
(-0.760555 0.703049 0)
(-0.688317 0.636273 0)
(-0.628516 0.580994 0)
(-0.578196 0.534479 0)
(-0.535268 0.494796 0)
(-0.498213 0.460544 0)
(-0.465905 0.430678 0)
(-0.437485 0.404407 0)
(-0.412291 0.381118 0)
(-0.389804 0.360331 0)
(-0.369611 0.341665 0)
(-0.351378 0.32481 0)
(-0.334833 0.309516 0)
(-0.319764 0.295587 0)
(-0.305912 0.282782 0)
(-0.293407 0.271223 0)
(-1.39562 1.10022 0)
(-1.18519 0.934331 0)
(-1.02866 0.810931 0)
(-0.908545 0.716239 0)
(-0.813371 0.64121 0)
(-0.736117 0.580307 0)
(-0.672163 0.52989 0)
(-0.618348 0.487466 0)
(-0.572439 0.451274 0)
(-0.532811 0.420035 0)
(-0.498259 0.392796 0)
(-0.467865 0.368835 0)
(-0.440922 0.347595 0)
(-0.416874 0.328637 0)
(-0.395278 0.311612 0)
(-0.375779 0.29624 0)
(-0.358085 0.282291 0)
(-0.34197 0.269587 0)
(-0.327155 0.257909 0)
(-0.313783 0.247366 0)
(-1.47764 0.987329 0)
(-1.25485 0.838462 0)
(-1.08911 0.727723 0)
(-0.96194 0.642748 0)
(-0.861172 0.575417 0)
(-0.779378 0.520764 0)
(-0.711666 0.47552 0)
(-0.654688 0.437449 0)
(-0.606081 0.40497 0)
(-0.564125 0.376936 0)
(-0.527542 0.352492 0)
(-0.495362 0.33099 0)
(-0.466835 0.311929 0)
(-0.441373 0.294916 0)
(-0.418508 0.279638 0)
(-0.397863 0.265844 0)
(-0.379129 0.253326 0)
(-0.362067 0.241925 0)
(-0.346382 0.231445 0)
(-0.332224 0.221985 0)
(-1.55055 0.868352 0)
(-1.31676 0.737424 0)
(-1.14285 0.640029 0)
(-1.0094 0.565293 0)
(-0.903664 0.506076 0)
(-0.817834 0.458009 0)
(-0.746781 0.418217 0)
(-0.686992 0.384734 0)
(-0.635986 0.356169 0)
(-0.59196 0.331513 0)
(-0.553572 0.310015 0)
(-0.519804 0.291104 0)
(-0.48987 0.27434 0)
(-0.463152 0.259377 0)
(-0.439158 0.245941 0)
(-0.417495 0.233808 0)
(-0.397836 0.222799 0)
(-0.379932 0.212772 0)
(-0.363474 0.203555 0)
(-0.348616 0.195235 0)
(-1.6139 0.744022 0)
(-1.37056 0.631839 0)
(-1.18955 0.548389 0)
(-1.05064 0.484354 0)
(-0.940585 0.433616 0)
(-0.851248 0.392431 0)
(-0.777292 0.358336 0)
(-0.71506 0.329647 0)
(-0.66197 0.305172 0)
(-0.616145 0.284047 0)
(-0.576189 0.265626 0)
(-0.541041 0.249423 0)
(-0.509884 0.23506 0)
(-0.482074 0.222239 0)
(-0.457101 0.210726 0)
(-0.434552 0.200331 0)
(-0.414091 0.190898 0)
(-0.395455 0.182307 0)
(-0.378324 0.17441 0)
(-0.36286 0.167281 0)
(-1.6673 0.615104 0)
(-1.41591 0.522359 0)
(-1.22891 0.453368 0)
(-1.08541 0.400428 0)
(-0.971707 0.358482 0)
(-0.879413 0.324433 0)
(-0.80301 0.296246 0)
(-0.73872 0.272528 0)
(-0.683873 0.252294 0)
(-0.636532 0.234829 0)
(-0.595253 0.2196 0)
(-0.558943 0.206205 0)
(-0.526755 0.19433 0)
(-0.498025 0.183731 0)
(-0.472225 0.174213 0)
(-0.44893 0.165619 0)
(-0.427792 0.157821 0)
(-0.40854 0.150718 0)
(-0.390842 0.144189 0)
(-0.374866 0.138295 0)
(-1.71042 0.482393 0)
(-1.45253 0.409658 0)
(-1.26069 0.355552 0)
(-1.11348 0.314034 0)
(-0.996837 0.281137 0)
(-0.902157 0.254435 0)
(-0.823778 0.232329 0)
(-0.757825 0.213729 0)
(-0.70156 0.19786 0)
(-0.652994 0.184163 0)
(-0.610648 0.17222 0)
(-0.573399 0.161715 0)
(-0.540378 0.152402 0)
(-0.510905 0.14409 0)
(-0.484438 0.136626 0)
(-0.460541 0.129886 0)
(-0.438856 0.12377 0)
(-0.419105 0.1182 0)
(-0.40095 0.113079 0)
(-0.384561 0.108457 0)
(-1.743 0.346709 0)
(-1.48019 0.294431 0)
(-1.2847 0.255543 0)
(-1.13469 0.225703 0)
(-1.01582 0.20206 0)
(-0.919339 0.182868 0)
(-0.839467 0.16698 0)
(-0.772258 0.153611 0)
(-0.714921 0.142206 0)
(-0.66543 0.132362 0)
(-0.622278 0.123779 0)
(-0.584319 0.116228 0)
(-0.55067 0.109535 0)
(-0.520635 0.103561 0)
(-0.493664 0.0981959 0)
(-0.469312 0.0933518 0)
(-0.447214 0.0889563 0)
(-0.427087 0.0849529 0)
(-0.408586 0.0812728 0)
(-0.391885 0.0779507 0)
(-1.76483 0.208885 0)
(-1.49873 0.177388 0)
(-1.30079 0.153959 0)
(-1.1489 0.135981 0)
(-1.02854 0.121736 0)
(-0.930853 0.110174 0)
(-0.84998 0.100602 0)
(-0.781929 0.0925473 0)
(-0.723874 0.0856761 0)
(-0.673764 0.0797451 0)
(-0.630071 0.0745737 0)
(-0.591637 0.0700247 0)
(-0.557566 0.0659922 0)
(-0.527156 0.0623929 0)
(-0.499847 0.0591607 0)
(-0.475189 0.0562423 0)
(-0.452815 0.0535941 0)
(-0.432436 0.0511821 0)
(-0.413703 0.0489649 0)
(-0.396793 0.0469635 0)
(-1.77578 0.0697725 0)
(-1.50803 0.059251 0)
(-1.30886 0.0514252 0)
(-1.15602 0.0454202 0)
(-1.03493 0.0406622 0)
(-0.936627 0.0368 0)
(-0.855253 0.0336028 0)
(-0.78678 0.0309125 0)
(-0.728365 0.0286174 0)
(-0.677944 0.0266363 0)
(-0.63398 0.024909 0)
(-0.595307 0.0233896 0)
(-0.561025 0.0220426 0)
(-0.530426 0.0208404 0)
(-0.502948 0.0197608 0)
(-0.478137 0.018786 0)
(-0.455624 0.0179014 0)
(-0.435119 0.0170958 0)
(-0.416269 0.0163552 0)
(-0.399254 0.0156867 0)
(-1.77578 -0.0697727 0)
(-1.50803 -0.0592513 0)
(-1.30886 -0.0514256 0)
(-1.15602 -0.0454206 0)
(-1.03493 -0.0406626 0)
(-0.936627 -0.0368004 0)
(-0.855253 -0.0336032 0)
(-0.78678 -0.0309129 0)
(-0.728365 -0.0286177 0)
(-0.677944 -0.0266366 0)
(-0.63398 -0.0249093 0)
(-0.595307 -0.0233898 0)
(-0.561025 -0.0220428 0)
(-0.530426 -0.0208406 0)
(-0.502948 -0.0197609 0)
(-0.478137 -0.0187861 0)
(-0.455624 -0.0179016 0)
(-0.435119 -0.0170959 0)
(-0.416269 -0.0163553 0)
(-0.399254 -0.0156867 0)
(-1.76483 -0.208885 0)
(-1.49873 -0.177388 0)
(-1.30079 -0.153959 0)
(-1.1489 -0.135981 0)
(-1.02854 -0.121737 0)
(-0.930853 -0.110174 0)
(-0.84998 -0.100602 0)
(-0.781929 -0.0925477 0)
(-0.723874 -0.0856764 0)
(-0.673764 -0.0797454 0)
(-0.630071 -0.074574 0)
(-0.591637 -0.070025 0)
(-0.557566 -0.0659924 0)
(-0.527156 -0.0623931 0)
(-0.499847 -0.0591609 0)
(-0.475189 -0.0562424 0)
(-0.452815 -0.0535942 0)
(-0.432436 -0.0511822 0)
(-0.413703 -0.048965 0)
(-0.396793 -0.0469635 0)
(-1.743 -0.346709 0)
(-1.48019 -0.294431 0)
(-1.2847 -0.255544 0)
(-1.13469 -0.225704 0)
(-1.01582 -0.20206 0)
(-0.919339 -0.182868 0)
(-0.839467 -0.166981 0)
(-0.772257 -0.153612 0)
(-0.714921 -0.142207 0)
(-0.66543 -0.132362 0)
(-0.622278 -0.123779 0)
(-0.584319 -0.116228 0)
(-0.55067 -0.109535 0)
(-0.520635 -0.103561 0)
(-0.493664 -0.098196 0)
(-0.469312 -0.093352 0)
(-0.447214 -0.0889564 0)
(-0.427087 -0.084953 0)
(-0.408586 -0.0812728 0)
(-0.391885 -0.0779507 0)
(-1.71042 -0.482394 0)
(-1.45253 -0.409658 0)
(-1.26069 -0.355552 0)
(-1.11348 -0.314034 0)
(-0.996837 -0.281138 0)
(-0.902157 -0.254435 0)
(-0.823778 -0.23233 0)
(-0.757825 -0.213729 0)
(-0.70156 -0.197861 0)
(-0.652994 -0.184164 0)
(-0.610648 -0.172221 0)
(-0.573399 -0.161715 0)
(-0.540378 -0.152402 0)
(-0.510905 -0.14409 0)
(-0.484438 -0.136626 0)
(-0.460541 -0.129886 0)
(-0.438856 -0.12377 0)
(-0.419105 -0.1182 0)
(-0.40095 -0.11308 0)
(-0.384561 -0.108457 0)
(-1.6673 -0.615104 0)
(-1.41591 -0.522359 0)
(-1.22891 -0.453369 0)
(-1.08541 -0.400429 0)
(-0.971707 -0.358482 0)
(-0.879413 -0.324433 0)
(-0.80301 -0.296246 0)
(-0.73872 -0.272528 0)
(-0.683873 -0.252294 0)
(-0.636532 -0.234829 0)
(-0.595253 -0.219601 0)
(-0.558943 -0.206205 0)
(-0.526755 -0.19433 0)
(-0.498025 -0.183731 0)
(-0.472225 -0.174213 0)
(-0.44893 -0.165619 0)
(-0.427792 -0.157821 0)
(-0.40854 -0.150718 0)
(-0.390842 -0.144189 0)
(-0.374866 -0.138295 0)
(-1.6139 -0.744022 0)
(-1.37056 -0.63184 0)
(-1.18955 -0.54839 0)
(-1.05064 -0.484355 0)
(-0.940585 -0.433616 0)
(-0.851248 -0.392431 0)
(-0.777292 -0.358337 0)
(-0.71506 -0.329647 0)
(-0.66197 -0.305173 0)
(-0.616145 -0.284047 0)
(-0.576189 -0.265627 0)
(-0.541041 -0.249424 0)
(-0.509884 -0.23506 0)
(-0.482074 -0.222239 0)
(-0.457101 -0.210727 0)
(-0.434552 -0.200331 0)
(-0.414091 -0.190898 0)
(-0.395455 -0.182307 0)
(-0.378324 -0.17441 0)
(-0.36286 -0.167281 0)
(-1.55055 -0.868353 0)
(-1.31676 -0.737424 0)
(-1.14285 -0.64003 0)
(-1.0094 -0.565294 0)
(-0.903664 -0.506077 0)
(-0.817834 -0.458009 0)
(-0.746781 -0.418218 0)
(-0.686992 -0.384734 0)
(-0.635986 -0.356169 0)
(-0.59196 -0.331513 0)
(-0.553572 -0.310015 0)
(-0.519804 -0.291104 0)
(-0.48987 -0.27434 0)
(-0.463152 -0.259377 0)
(-0.439159 -0.245941 0)
(-0.417495 -0.233808 0)
(-0.397836 -0.222799 0)
(-0.379932 -0.212772 0)
(-0.363474 -0.203555 0)
(-0.348616 -0.195235 0)
(-1.47764 -0.987329 0)
(-1.25485 -0.838463 0)
(-1.08911 -0.727724 0)
(-0.96194 -0.642748 0)
(-0.861172 -0.575417 0)
(-0.779378 -0.520764 0)
(-0.711666 -0.47552 0)
(-0.654688 -0.437449 0)
(-0.606081 -0.40497 0)
(-0.564125 -0.376936 0)
(-0.527542 -0.352492 0)
(-0.495362 -0.33099 0)
(-0.466835 -0.311929 0)
(-0.441373 -0.294916 0)
(-0.418508 -0.279638 0)
(-0.397863 -0.265844 0)
(-0.379129 -0.253326 0)
(-0.362067 -0.241926 0)
(-0.346382 -0.231445 0)
(-0.332224 -0.221985 0)
(-1.39562 -1.10022 0)
(-1.18519 -0.934332 0)
(-1.02866 -0.810931 0)
(-0.908545 -0.71624 0)
(-0.813371 -0.64121 0)
(-0.736117 -0.580308 0)
(-0.672163 -0.529891 0)
(-0.618348 -0.487467 0)
(-0.572439 -0.451275 0)
(-0.532811 -0.420035 0)
(-0.498259 -0.392796 0)
(-0.467865 -0.368836 0)
(-0.440922 -0.347595 0)
(-0.416874 -0.328637 0)
(-0.395278 -0.311612 0)
(-0.375779 -0.29624 0)
(-0.358085 -0.282291 0)
(-0.34197 -0.269587 0)
(-0.327156 -0.257909 0)
(-0.313783 -0.247367 0)
(-1.305 -1.20633 0)
(-1.10823 -1.02444 0)
(-0.961865 -0.889139 0)
(-0.849549 -0.785315 0)
(-0.760555 -0.70305 0)
(-0.688317 -0.636274 0)
(-0.628516 -0.580995 0)
(-0.578196 -0.534479 0)
(-0.535268 -0.494796 0)
(-0.498213 -0.460544 0)
(-0.465905 -0.430678 0)
(-0.437485 -0.404407 0)
(-0.412291 -0.381118 0)
(-0.389804 -0.360331 0)
(-0.369611 -0.341665 0)
(-0.351378 -0.32481 0)
(-0.334833 -0.309516 0)
(-0.319764 -0.295587 0)
(-0.305912 -0.282782 0)
(-0.293408 -0.271223 0)
(-1.20633 -1.305 0)
(-1.02444 -1.10823 0)
(-0.889139 -0.961865 0)
(-0.785315 -0.849549 0)
(-0.70305 -0.760555 0)
(-0.636274 -0.688317 0)
(-0.580994 -0.628516 0)
(-0.534479 -0.578196 0)
(-0.494796 -0.535268 0)
(-0.460544 -0.498214 0)
(-0.430678 -0.465905 0)
(-0.404407 -0.437485 0)
(-0.381118 -0.412291 0)
(-0.360331 -0.389804 0)
(-0.341665 -0.369611 0)
(-0.32481 -0.351378 0)
(-0.309516 -0.334833 0)
(-0.295587 -0.319764 0)
(-0.282782 -0.305912 0)
(-0.271223 -0.293408 0)
(-1.10022 -1.39562 0)
(-0.934332 -1.18519 0)
(-0.810931 -1.02866 0)
(-0.71624 -0.908545 0)
(-0.64121 -0.813371 0)
(-0.580308 -0.736117 0)
(-0.529891 -0.672163 0)
(-0.487467 -0.618349 0)
(-0.451274 -0.572439 0)
(-0.420035 -0.532812 0)
(-0.392796 -0.498259 0)
(-0.368835 -0.467866 0)
(-0.347595 -0.440922 0)
(-0.328637 -0.416874 0)
(-0.311612 -0.395278 0)
(-0.29624 -0.375779 0)
(-0.282291 -0.358085 0)
(-0.269587 -0.34197 0)
(-0.257909 -0.327156 0)
(-0.247367 -0.313783 0)
(-0.98733 -1.47764 0)
(-0.838463 -1.25485 0)
(-0.727724 -1.08911 0)
(-0.642748 -0.96194 0)
(-0.575417 -0.861173 0)
(-0.520764 -0.779378 0)
(-0.47552 -0.711666 0)
(-0.437449 -0.654689 0)
(-0.40497 -0.606081 0)
(-0.376936 -0.564125 0)
(-0.352492 -0.527542 0)
(-0.33099 -0.495362 0)
(-0.311929 -0.466835 0)
(-0.294916 -0.441374 0)
(-0.279638 -0.418509 0)
(-0.265844 -0.397863 0)
(-0.253326 -0.37913 0)
(-0.241926 -0.362067 0)
(-0.231445 -0.346382 0)
(-0.221985 -0.332224 0)
(-0.868353 -1.55055 0)
(-0.737424 -1.31676 0)
(-0.64003 -1.14285 0)
(-0.565294 -1.0094 0)
(-0.506077 -0.903665 0)
(-0.458009 -0.817834 0)
(-0.418217 -0.746781 0)
(-0.384734 -0.686992 0)
(-0.356169 -0.635986 0)
(-0.331513 -0.59196 0)
(-0.310015 -0.553572 0)
(-0.291104 -0.519804 0)
(-0.27434 -0.48987 0)
(-0.259377 -0.463152 0)
(-0.245941 -0.439159 0)
(-0.233808 -0.417495 0)
(-0.222799 -0.397837 0)
(-0.212772 -0.379932 0)
(-0.203555 -0.363474 0)
(-0.195235 -0.348616 0)
(-0.744022 -1.6139 0)
(-0.63184 -1.37056 0)
(-0.54839 -1.18955 0)
(-0.484354 -1.05064 0)
(-0.433616 -0.940585 0)
(-0.392431 -0.851248 0)
(-0.358336 -0.777292 0)
(-0.329647 -0.71506 0)
(-0.305173 -0.66197 0)
(-0.284047 -0.616145 0)
(-0.265627 -0.576189 0)
(-0.249423 -0.541042 0)
(-0.23506 -0.509884 0)
(-0.222239 -0.482075 0)
(-0.210727 -0.457101 0)
(-0.200331 -0.434552 0)
(-0.190898 -0.414091 0)
(-0.182307 -0.395455 0)
(-0.17441 -0.378324 0)
(-0.167281 -0.36286 0)
(-0.615104 -1.6673 0)
(-0.522359 -1.41591 0)
(-0.453369 -1.22891 0)
(-0.400429 -1.08541 0)
(-0.358482 -0.971707 0)
(-0.324433 -0.879414 0)
(-0.296246 -0.803011 0)
(-0.272528 -0.73872 0)
(-0.252294 -0.683873 0)
(-0.234829 -0.636532 0)
(-0.219601 -0.595254 0)
(-0.206205 -0.558943 0)
(-0.19433 -0.526755 0)
(-0.183731 -0.498025 0)
(-0.174213 -0.472226 0)
(-0.165619 -0.44893 0)
(-0.157821 -0.427792 0)
(-0.150718 -0.40854 0)
(-0.144189 -0.390842 0)
(-0.138295 -0.374866 0)
(-0.482394 -1.71042 0)
(-0.409658 -1.45253 0)
(-0.355552 -1.26069 0)
(-0.314034 -1.11348 0)
(-0.281138 -0.996838 0)
(-0.254435 -0.902158 0)
(-0.23233 -0.823778 0)
(-0.213729 -0.757825 0)
(-0.19786 -0.70156 0)
(-0.184163 -0.652994 0)
(-0.172221 -0.610648 0)
(-0.161715 -0.573399 0)
(-0.152402 -0.540378 0)
(-0.14409 -0.510905 0)
(-0.136626 -0.484439 0)
(-0.129886 -0.460541 0)
(-0.12377 -0.438856 0)
(-0.1182 -0.419106 0)
(-0.11308 -0.40095 0)
(-0.108457 -0.384561 0)
(-0.346709 -1.743 0)
(-0.294431 -1.48019 0)
(-0.255543 -1.2847 0)
(-0.225703 -1.13469 0)
(-0.20206 -1.01582 0)
(-0.182868 -0.919339 0)
(-0.16698 -0.839467 0)
(-0.153612 -0.772258 0)
(-0.142207 -0.714921 0)
(-0.132362 -0.665431 0)
(-0.123779 -0.622278 0)
(-0.116228 -0.584319 0)
(-0.109535 -0.55067 0)
(-0.103561 -0.520636 0)
(-0.098196 -0.493665 0)
(-0.0933519 -0.469312 0)
(-0.0889564 -0.447214 0)
(-0.084953 -0.427088 0)
(-0.0812728 -0.408586 0)
(-0.0779507 -0.391885 0)
(-0.208885 -1.76483 0)
(-0.177388 -1.49873 0)
(-0.153959 -1.30079 0)
(-0.135981 -1.1489 0)
(-0.121736 -1.02854 0)
(-0.110174 -0.930853 0)
(-0.100602 -0.849981 0)
(-0.0925474 -0.78193 0)
(-0.0856762 -0.723875 0)
(-0.0797452 -0.673764 0)
(-0.0745738 -0.630071 0)
(-0.0700248 -0.591637 0)
(-0.0659923 -0.557566 0)
(-0.062393 -0.527156 0)
(-0.0591608 -0.499847 0)
(-0.0562424 -0.47519 0)
(-0.0535941 -0.452815 0)
(-0.0511822 -0.432436 0)
(-0.048965 -0.413703 0)
(-0.0469635 -0.396793 0)
(-0.0697726 -1.77578 0)
(-0.0592512 -1.50803 0)
(-0.0514254 -1.30886 0)
(-0.0454204 -1.15602 0)
(-0.0406624 -1.03493 0)
(-0.0368002 -0.936628 0)
(-0.033603 -0.855254 0)
(-0.0309126 -0.78678 0)
(-0.0286175 -0.728365 0)
(-0.0266364 -0.677944 0)
(-0.0249091 -0.63398 0)
(-0.0233896 -0.595308 0)
(-0.0220427 -0.561025 0)
(-0.0208405 -0.530426 0)
(-0.0197609 -0.502948 0)
(-0.018786 -0.478138 0)
(-0.0179015 -0.455624 0)
(-0.0170959 -0.435119 0)
(-0.0163553 -0.41627 0)
(-0.0156867 -0.399254 0)
(1.77578 -0.0697726 0)
(1.76483 -0.208885 0)
(1.743 -0.346708 0)
(1.71042 -0.482393 0)
(1.6673 -0.615104 0)
(1.6139 -0.744021 0)
(1.55055 -0.868352 0)
(1.47764 -0.987329 0)
(1.39562 -1.10022 0)
(1.30499 -1.20633 0)
(1.20633 -1.30499 0)
(1.10022 -1.39562 0)
(0.987329 -1.47764 0)
(0.868352 -1.55055 0)
(0.744022 -1.6139 0)
(0.615104 -1.6673 0)
(0.482394 -1.71042 0)
(0.346709 -1.743 0)
(0.208885 -1.76483 0)
(0.0697726 -1.77578 0)
(1.50803 -0.0592513 0)
(1.49873 -0.177388 0)
(1.48019 -0.294431 0)
(1.45253 -0.409658 0)
(1.41591 -0.522359 0)
(1.37056 -0.631839 0)
(1.31676 -0.737424 0)
(1.25485 -0.838462 0)
(1.18519 -0.934331 0)
(1.10823 -1.02444 0)
(1.02444 -1.10823 0)
(0.934331 -1.18519 0)
(0.838462 -1.25485 0)
(0.737424 -1.31676 0)
(0.631839 -1.37056 0)
(0.522359 -1.41591 0)
(0.409658 -1.45253 0)
(0.294431 -1.48019 0)
(0.177388 -1.49873 0)
(0.0592511 -1.50803 0)
(1.30886 -0.0514254 0)
(1.30079 -0.153959 0)
(1.2847 -0.255543 0)
(1.26069 -0.355552 0)
(1.22891 -0.453368 0)
(1.18955 -0.548389 0)
(1.14285 -0.640029 0)
(1.08911 -0.727723 0)
(1.02866 -0.810931 0)
(0.961864 -0.889138 0)
(0.889138 -0.961864 0)
(0.810931 -1.02866 0)
(0.727723 -1.08911 0)
(0.640029 -1.14285 0)
(0.548389 -1.18955 0)
(0.453368 -1.22891 0)
(0.355552 -1.26069 0)
(0.255543 -1.2847 0)
(0.153959 -1.30079 0)
(0.0514254 -1.30886 0)
(1.15602 -0.0454205 0)
(1.1489 -0.135981 0)
(1.13468 -0.225703 0)
(1.11348 -0.314034 0)
(1.08541 -0.400428 0)
(1.05064 -0.484354 0)
(1.0094 -0.565293 0)
(0.961939 -0.642748 0)
(0.908545 -0.716239 0)
(0.849548 -0.785315 0)
(0.785315 -0.849548 0)
(0.716239 -0.908545 0)
(0.642748 -0.961939 0)
(0.565294 -1.0094 0)
(0.484354 -1.05064 0)
(0.400429 -1.08541 0)
(0.314034 -1.11348 0)
(0.225703 -1.13469 0)
(0.135981 -1.1489 0)
(0.0454204 -1.15602 0)
(1.03492 -0.0406625 0)
(1.02854 -0.121736 0)
(1.01582 -0.20206 0)
(0.996837 -0.281137 0)