/*--------------------------------*- C++ -*----------------------------------*\
| =========                 |                                                 |
| \\      /  F ield         | foam-extend: Open Source CFD                    |
|  \\    /   O peration     | Version:  3.0                                   |
|   \\  /    A nd           | Web:         http://www.extend-project.de       |
|    \\/     M anipulation  |                                                 |
\*---------------------------------------------------------------------------*/
FoamFile
{
    version     2.0;
    format      ascii;
    class       volScalarField;
    location    "16";
    object      p;
}
// * * * * * * * * * * * * * * * * * * * * * * * * * * * * * * * * * * * * * //

dimensions      [0 0 0 0 0 0 0];

internalField   nonuniform List<scalar> 
2688
(
-0.2301060225
-0.2108449988
-0.1994784148
-0.1861827668
-0.1792084463
-0.1696574777
-0.1655460895
-0.1584842228
-0.1563403494
-0.1509844157
-0.1502227299
-0.146049198
-0.1462360339
-0.142876689
-0.1436415963
-0.1408279936
-0.14180887
-0.1393391513
-0.140147229
-0.1378589921
-0.1380581754
-0.1357948604
-0.1348990162
-0.1324643582
-0.2293852858
-0.210184399
-0.1988509586
-0.1855971146
-0.1786443072
-0.1691234906
-0.1650246997
-0.1579854852
-0.1558478152
-0.1505093943
-0.1497493831
-0.1455898329
-0.1457752361
-0.1424274595
-0.1431891163
-0.1403854778
-0.141362525
-0.1389016242
-0.1397064485
-0.1374261709
-0.1376242099
-0.1353686724
-0.1344753952
-0.1320484261
-0.2279387011
-0.2088586683
-0.1975976619
-0.1844275268
-0.177518783
-0.1680580193
-0.1639852586
-0.1569902219
-0.1548662339
-0.1495611344
-0.1488061421
-0.1446723919
-0.1448568506
-0.1415297015
-0.1422867901
-0.1395003284
-0.1404714629
-0.1380255545
-0.1388255304
-0.136559181
-0.1367562596
-0.1345146454
-0.1336270469
-0.1312154354
-0.2257763317
-0.2068774345
-0.1957223735
-0.1826775449
-0.1758338535
-0.1664632686
-0.1624287509
-0.1555007021
-0.1533963524
-0.1481423815
-0.1473938965
-0.1433003129
-0.1434822505
-0.1401877149
-0.1409368101
-0.1381778698
-0.1391390358
-0.1367173468
-0.1375090865
-0.1352650276
-0.1354597607
-0.1332397907
-0.1323604328
-0.1299717634
-0.2229024955
-0.2042442167
-0.1932315986
-0.1803527988
-0.1735964923
-0.1643450318
-0.1603620958
-0.1535219545
-0.1514446023
-0.1462571421
-0.1455183907
-0.1414764863
-0.1416562896
-0.1384032064
-0.1391429155
-0.136418573
-0.1373676633
-0.1349763071
-0.1357581824
-0.1335422899
-0.1337347919
-0.1315427227
-0.1306747119
-0.1283164477
-0.2193284287
-0.2009693605
-0.190132774
-0.1774608091
-0.1708123689
-0.1617097445
-0.1577902487
-0.1510604398
-0.1490158909
-0.1439124108
-0.1431848739
-0.1392087041
-0.139384885
-0.1361849668
-0.1369120277
-0.1342323904
-0.1351655121
-0.1328134587
-0.1335821681
-0.1314025891
-0.1315915429
-0.1294350092
-0.1285806901
-0.1262603105
-0.215063214
-0.1970611941
-0.1864355899
-0.1740099646
-0.1674910328
-0.1585652333
-0.1547221685
-0.1481229602
-0.1461183735
-0.1411138201
-0.1404006232
-0.1365014221
-0.1366743346
-0.1335362468
-0.1342492803
-0.1316213144
-0.1325363952
-0.1302296603
-0.1309835861
-0.1288460918
-0.1290315804
-0.1269167449
-0.1260791892
-0.1238039637
-0.2101223829
-0.1925339733
-0.1821521174
-0.1700122784
-0.1636426938
-0.1549224521
-0.1511672492
-0.1447202846
-0.1427612388
-0.1378724256
-0.1371749852
-0.133366244
-0.1335344606
-0.1304694308
-0.1311653212
-0.1285987181
-0.129492032
-0.1272392051
-0.1279751539
-0.1258875381
-0.1260682982
-0.1240024643
-0.123183902
-0.1209610292
-0.2045194195
-0.1873999861
-0.1772950769
-0.1654788584
-0.1592792577
-0.1507913768
-0.147136477
-0.1408612017
-0.1389545749
-0.1341958765
-0.1335172034
-0.1298097541
-0.1299736162
-0.1269900166
-0.1276674403
-0.1251689438
-0.1260385199
-0.1238454213
-0.1245618563
-0.1225296504
-0.1227057764
-0.1206948397
-0.1198982449
-0.1177346886
-0.1982738815
-0.1816772766
-0.1718806787
-0.1604256047
-0.1544149423
-0.1461867283
-0.1426430093
-0.1365599592
-0.1347110343
-0.1300983765
-0.1294397978
-0.1258464019
-0.126004549
-0.1231129951
-0.123769001
-0.1213477823
-0.1221901
-0.1200648798
-0.1207587929
-0.1187893935
-0.1189596903
-0.1170105816
-0.1162380662
-0.1141406664
-0.1914036682
-0.1753820976
-0.1659249761
-0.1548667606
-0.1490644341
-0.1411212146
-0.1377004088
-0.1318279813
-0.130043266
-0.1255902624
-0.1249546329
-0.1214855541
-0.1216383043
-0.1188467224
-0.119480042
-0.1171424732
-0.1179556504
-0.1159038009
-0.1165737253
-0.1146723378
-0.1148368667
-0.1129551229
-0.112209485
-0.110184806
-0.1839318942
-0.168535803
-0.1594476338
-0.1488213844
-0.1432451993
-0.135612494
-0.132324795
-0.1266821659
-0.1249665959
-0.1206881097
-0.1200766663
-0.1167438152
-0.1168899058
-0.1142082117
-0.1148161062
-0.1125707616
-0.1133515365
-0.1113806878
-0.1120238589
-0.1101974225
-0.1103551068
-0.1085472229
-0.1078304568
-0.1058848967
-0.1758808886
-0.1611586722
-0.1524682746
-0.1423071346
-0.1369750348
-0.1296763699
-0.1265326509
-0.1211369167
-0.1194965343
-0.1154052153
-0.1148206071
-0.111633512
-0.1117732221
-0.1092087556
-0.1097900137
-0.1076427763
-0.1083893524
-0.1065045719
-0.1071195759
-0.1053729038
-0.1055237583
-0.1037948589
-0.1031095436
-0.1012491933
-0.1672767973
-0.1532748493
-0.145009383
-0.135345608
-0.1302740019
-0.1233328068
-0.1203424521
-0.1152112139
-0.1136505585
-0.1097600528
-0.1092034242
-0.1061730313
-0.1063052235
-0.1038671143
-0.1044192571
-0.1023780279
-0.1030874627
-0.1012957798
-0.1018801505
-0.1002196405
-0.1003627459
-0.0987188151
-0.0980668156
-0.09629754939
-0.158146294
-0.1449085894
-0.1370942078
-0.1279579373
-0.1231631092
-0.1166007875
-0.1137736731
-0.1089224826
-0.1074470462
-0.1037688516
-0.1032426038
-0.100377556
-0.1005024602
-0.09819734306
-0.09871922691
-0.09678931361
-0.0974599075
-0.09576589579
-0.09631825913
-0.09474826213
-0.09488355102
-0.09332923053
-0.09271285649
-0.09104021971
-0.1485180655
-0.136086364
-0.1287475394
-0.1201677879
-0.1156645271
-0.109502149
-0.1068467315
-0.1022914227
-0.1009052978
-0.09745170078
-0.09695687866
-0.09426704885
-0.09438367048
-0.09221979468
-0.09270923068
-0.09089777125
-0.0915269403
-0.08993694679
-0.0904551825
-0.08898147948
-0.08910823416
-0.08764892562
-0.08706991254
-0.0854991796
-0.1384229082
-0.1268362074
-0.119996119
-0.1119996248
-0.1078023629
-0.1020589147
-0.09958394953
-0.09533830716
-0.09404636247
-0.09082753833
-0.09036626062
-0.08785927534
-0.08796779595
-0.08595100156
-0.08640694581
-0.08471861604
-0.08530479985
-0.08382285616
-0.08430564132
-0.08293206147
-0.08305008394
-0.08168988463
-0.08115019406
-0.07968629454
-0.1278916224
-0.1171865236
-0.1108666328
-0.1034788207
-0.099600532
-0.09429448284
-0.09200739053
-0.08808530702
-0.08689114007
-0.08391788603
-0.0834910884
-0.08117564217
-0.0812752157
-0.07941276859
-0.07983332344
-0.07827439226
-0.07881535613
-0.07744703055
-0.07789258033
-0.07662420809
-0.07673298811
-0.07547664532
-0.07497788906
-0.07362543278
-0.1169587654
-0.1071687966
-0.1013890278
-0.09463288334
-0.09108597242
-0.08623363134
-0.08414193784
-0.08055523441
-0.07946302509
-0.07674404247
-0.07635353129
-0.07423612326
-0.07432689196
-0.07262377038
-0.07300804225
-0.07158251845
-0.07207692744
-0.07082568386
-0.07123282749
-0.07007293782
-0.07017221027
-0.06902323377
-0.06856700181
-0.06733023748
-0.1056568687
-0.09681301375
-0.09159153933
-0.08548859064
-0.08228404663
-0.07790106798
-0.07601106205
-0.07277153648
-0.07178434458
-0.06932882833
-0.06897542051
-0.06706347135
-0.06714473928
-0.06560712915
-0.06595350701
-0.06466669204
-0.06511263191
-0.06398316435
-0.06435038587
-0.06330328085
-0.06339265879
-0.06235507625
-0.06194280895
-0.0608256308
-0.09402378851
-0.08615368308
-0.08150692745
-0.07607610713
-0.07322415662
-0.06932395025
-0.0676418346
-0.0647591752
-0.063880436
-0.06169548136
-0.06138064569
-0.05967943132
-0.05975130489
-0.05838325909
-0.05869102647
-0.05754621826
-0.05794263724
-0.05693781398
-0.05726419991
-0.05633257897
-0.0564118577
-0.05548854805
-0.05512151128
-0.05412742805
-0.08209342582
-0.07522204568
-0.07116465808
-0.06642333594
-0.06393283902
-0.06052806207
-0.05905891183
-0.05654269202
-0.05577488924
-0.05386799357
-0.05359241711
-0.05210800585
-0.05216994588
-0.0509765033
-0.05124435821
-0.05024583479
-0.050591159
-0.04971474053
-0.04999902204
-0.04918633476
-0.04925516958
-0.0484493853
-0.0481287628
-0.04726090718
-0.06990639831
-0.06405514125
-0.06059984377
-0.05656265372
-0.05444153482
-0.05154251642
-0.05029113567
-0.04814877182
-0.04749455465
-0.04587109983
-0.04563589864
-0.04437226086
-0.04442433474
-0.04340855026
-0.04363594116
-0.04278621861
-0.04307965921
-0.04233386467
-0.04257538647
-0.04188373124
-0.04194202288
-0.04125598366
-0.04098276541
-0.04024386385
-0.05749761798
-0.05268513573
-0.04984286639
-0.04652280761
-0.04477768096
-0.04239393274
-0.04136411388
-0.0396028489
-0.03906408652
-0.03772979254
-0.03753550476
-0.03649729618
-0.03653912474
-0.03570485658
-0.03589082796
-0.03519315196
-0.03543354036
-0.03482118573
-0.03501898322
-0.03445091764
-0.03449836696
-0.03393449471
-0.03370954352
-0.03310191882
-0.04490988613
-0.04115107033
-0.03893069171
-0.03633791036
-0.03497430353
-0.03311293482
-0.03230802982
-0.03093290364
-0.03051143789
-0.02946989522
-0.02931728784
-0.02850710882
-0.0285387293
-0.02788796277
-0.02803211762
-0.02748813961
-0.02767491017
-0.0271974931
-0.02735111268
-0.02690809804
-0.02694467198
-0.0265045224
-0.02632856656
-0.02585414126
-0.0321787505
-0.02948569382
-0.02789429212
-0.02603725723
-0.0250594497
-0.02372671434
-0.02314917534
-0.0221650171
-0.02186206161
-0.02111714746
-0.02100657741
-0.02042762497
-0.0204488018
-0.0199841991
-0.02008593856
-0.01969788502
-0.0198303141
-0.01948972472
-0.01959856446
-0.01928226095
-0.01930775058
-0.01899287014
-0.01886642692
-0.01852667219
-0.0193485974
-0.01772949954
-0.01677196936
-0.01565620873
-0.01506726772
-0.01426696026
-0.01391865706
-0.01332806256
-0.01314465134
-0.0126981172
-0.01263002563
-0.01228348831
-0.01229426091
-0.01201668415
-0.01207579377
-0.0118443826
-0.01192213899
-0.0117190813
-0.01178287183
-0.01159404926
-0.01160844949
-0.01141971642
-0.0113432397
-0.0111392587
-0.006455218779
-0.005915459968
-0.005594943481
-0.005224292209
-0.0050261016
-0.004761143545
-0.004643143246
-0.004448469229
-0.004385119795
-0.004238951456
-0.004213473679
-0.004101056448
-0.00410129627
-0.004012201976
-0.00402840792
-0.00395485999
-0.003977642399
-0.003913109539
-0.003931610899
-0.003871059894
-0.003874272834
-0.00381235279
-0.003786018984
-0.003718411174
0.006456018751
0.005915033391
0.005597668227
0.005222372507
0.005029236758
0.004758415943
0.004645733606
0.004444368372
0.004387415409
0.004233326104
0.004216042482
0.004094583049
0.004104790516
0.004005692631
0.004032367033
0.003948309456
0.003980538363
0.003906693827
0.003933527481
0.003865796071
0.003873746738
0.003808698397
0.00378473441
0.003715705444
0.01934949339
0.01772916326
0.01677476076
0.01565436288
0.0150704441
0.01426428993
0.01392127217
0.01332401305
0.01314696895
0.01269255336
0.01263263065
0.01227709793
0.01229781354
0.01201027656
0.01207982913
0.01183794122
0.01192511799
0.01171277083
0.01178486338
0.0115888809
0.01160799577
0.01141615651
0.01134204261
0.01113664535
0.03217945401
0.0294851864
0.02789691306
0.02603527804
0.02506249054
0.0237239456
0.02315169143
0.02216089827
0.02186429447
0.02111152008
0.02100907656
0.02042114952
0.02045220741
0.0199776829
0.0200898044
0.01969133597
0.0198331423
0.01948332569
0.01960044352
0.01927701448
0.01930721542
0.01898920975
0.01886510878
0.01852393726
0.0449108825
0.04115083786
0.03893351674
0.03633615647
0.03497747207
0.03311034131
0.03231062283
0.03092893972
0.03051373415
0.02946444651
0.02931988299
0.02850086702
0.02854228541
0.02788172765
0.02803617652
0.02748188707
0.02767794446
0.02719137498
0.02735317406
0.02690310422
0.0269443196
0.02650111294
0.02632748095
0.02585165416
0.05749822022
0.05268455204
0.04984534151
0.04652077729
0.0447805683
0.04239113169
0.04136649913
0.03959873828
0.03906621127
0.03772421974
0.03753790378
0.03649090437
0.0365424232
0.03569843958
0.03589460074
0.03518672965
0.03543633357
0.03481494028
0.03502087347
0.03444581261
0.03449788789
0.03393092609
0.03370825186
0.03309922628
0.06990750402
0.06405502877
0.06060267231
0.056561011
0.05444464809
0.05154001879
0.05029365878
0.04814492406
0.04749678059
0.04586581123
0.04563842599
0.04436621959
0.04442782162
0.04340254235
0.04363994966
0.04278022029
0.0430827006
0.04232801607
0.04257749703
0.04187898467
0.04194178947
0.04125277211
0.04098180356
0.04024152504
0.08209391865
0.07522138523
0.07116694064
0.06642125552
0.06393550671
0.06052522755
0.05906109922
0.05653860266
0.05577684721
0.05386251719
0.05359467141
0.05210176836
0.05217310186
0.05097027245
0.05124801016
0.05023963455
0.05059390279
0.04970874135
0.05000090649
0.04918144081
0.04925474073
0.04844595168
0.04812750683
0.04725828339
0.09402501617
0.08615370762
0.08150973082
0.0760745932
0.07322716688
0.06932156397
0.06764423703
0.06475546806
0.06388253726
0.06169039018
0.06138304145
0.05967363571
0.05975464582
0.05837753066
0.05869491165
0.05754054631
0.05794564842
0.05693233193
0.05726636221
0.05632818341
0.05641179165
0.05548561946
0.05512072179
0.05412529694
0.1056572425
0.09681227176
0.09159357932
0.08548645401
0.08228642293
0.07789818881
0.07601297434
0.07276746625
0.07178605971
0.0693234681
0.06897745969
0.06705742967
0.0671476809
0.06560113207
0.06595695509
0.06466075217
0.0651152322
0.06397742701
0.06435215264
0.06329857974
0.063392184
0.06235173372
0.06194152222
0.0608230293
0.1169601297
0.1071689738
0.1013917773
0.09463151205
0.09108883063
0.0862313667
0.08414416589
0.08055168597
0.07946494416
0.07673918035
0.07635573144
0.07423061576
0.07433001413
0.0726183741
0.07301173763
0.07157724771
0.07207987908
0.07082067122
0.0712350548
0.07006900823
0.07017237489
0.06902069652
0.06856646435
0.06732841002
0.1278918688
0.1171856931
0.1108683803
0.103476617
0.09960254409
0.09429154155
0.0920089461
0.08808124361
0.08689252518
0.08391264425
0.08349282211
0.08116981406
0.0812778459
0.07940702796
0.07983645951
0.07826872786
0.07881770221
0.07744155543
0.07789412636
0.07661968592
0.0767324137
0.07547337747
0.07497655362
0.07362285433
0.1384244235
0.1268365496
0.119998785
0.111998405
0.1078050195
0.1020567773
0.09958594939
0.09533493164
0.09404804348
0.09082293512
0.09036820641
0.08785409884
0.08797063416
0.08594598785
0.08641038613
0.08471380651
0.0853076462
0.08381838144
0.08430791013
0.08292866341
0.08305049552
0.08168780052
0.08114995494
0.07968484116
0.1485181823
0.1360854402
0.128748951
0.1201655072
0.1156661096
0.1094991299
0.1068478561
0.1022873557
0.1009062712
0.09744657922
0.09695821934
0.09426145137
0.09438590122
0.09221434518
0.09271198035
0.09089243768
0.09152899746
0.08993181382
0.09045653271
0.08897724616
0.08910767326
0.08764587696
0.08706868262
0.08549679821
0.1581479723
0.1449091037
0.1370967593
0.1279568729
0.1231655167
0.1165987814
0.1137753971
0.1089192968
0.107448444
0.103764544
0.1032442522
0.1003727637
0.1005049684
0.09819277108
0.09872236066
0.09678502149
0.09746259734
0.09576200096
0.09632051567
0.09474541397
0.09488418061
0.09332760868
0.09271291814
0.09103917048
0.1672767947
0.1532738369
0.1450104317
0.1353432512
0.1302751099
0.1233297091
0.1203430956
0.1152071519
0.113651066
0.1097550752
0.1092043148
0.1061677065
0.1063070042
0.1038620262
0.1044216011
0.1023731374
0.1030892712
0.1012911435
0.1018814051
0.1002158798
0.1003623597
0.09871618697
0.09806587589
0.09629557258
0.1758827384
0.1611593613
0.1524706813
0.1423062268
0.1369771529
0.1296745031
0.1265340665
0.1211339495
0.1194976272
0.1154012596
0.1148219463
0.1116291838
0.1117753926
0.1092047172
0.1097928332
0.1076390926
0.1083918763
0.1065013291
0.1071217979
0.1053706445
0.1055245946
0.1037937179
0.1031099104
0.1012485774
0.183931804
0.1685347277
0.1594483238
0.1488189787
0.1432458271
0.13560935
0.1323249527
0.1266781566
0.1249666341
0.1206833436
0.120077104
0.1167388486
0.1168912367
0.1142035924
0.1148180637
0.1125664511
0.1133531465
0.1113767006
0.1120250762
0.1101942697
0.1103549558
0.1085451164
0.1078298645
0.1058834053
0.1914056954
0.1753829637
0.165927212
0.1548660124
0.1490662354
0.1411195052
0.1377015074
0.131825282
0.1300440666
0.1255867446
0.1249556936
0.1214818066
0.1216401791
0.1188433509
0.1194825937
0.117139533
0.1179580513
0.1159013237
0.1165759347
0.1146707463
0.114837935
0.1129545164
0.1122101855
0.1101846748
0.1982737632
0.181676197
0.1718810608
0.1604232231
0.1544151454
0.1461836274
0.1426427467
0.1365561128
0.1347106731
0.1300939516
0.129439851
0.1258419347
0.1260054903
0.1231089862
0.1237706198
0.1213441842
0.1221915421
0.120061646
0.1207599777
0.1187869269
0.1189597965
0.1170090597
0.1162378616
0.1141397259
0.2045216285
0.1874010368
0.177297124
0.1654782797
0.1592807333
0.150789857
0.1471372793
0.1408588429
0.1389551326
0.1341929103
0.1335180565
0.1298067317
0.1299752754
0.1269874663
0.1276697955
0.1251668792
0.1260408353
0.1238437902
0.1245640539
0.1225287881
0.122707106
0.1206948302
0.1198993318
0.1177351163
0.2101223133
0.1925329819
0.1821522928
0.170010053
0.1636426025
0.1549195619
0.1511667233
0.1447167971
0.1427606431
0.1378685519
0.1371748103
0.1333624832
0.1335351428
0.13046621
0.1311666789
0.128595942
0.1294933011
0.1272367489
0.1279762518
0.1258857777
0.1260686563
0.1240015595
0.123184114
0.1209606884
0.2150655946
0.1970624434
0.1864374304
0.1740095697
0.1674921894
0.158563945
0.1547227183
0.1481210268
0.1461187598
0.1411115267
0.1404013554
0.136499267
0.1366758616
0.1335346465
0.134251481
0.1316201853
0.1325385876
0.130228855
0.130985711
0.1288459649
0.1290331665
0.1269173431
0.1260806798
0.1238049773
0.2193284508
0.2009685513
0.1901328519
0.177458907
0.1708121564
0.1617072923
0.1577896867
0.1510575826
0.1490153094
0.1439093725
0.1431847082
0.1392059163
0.1393855023
0.1361827388
0.1369132284
0.1342305238
0.1351665952
0.1328117694
0.1335831415
0.131401537
0.1315921231
0.1294346634
0.1285812493
0.126260496
0.222904994
0.2042456824
0.1932331831
0.1803525932
0.1735973362
0.1643440018
0.1603624286
0.1535205037
0.1514448562
0.1462555838
0.1455190226
0.1414752445
0.1416576667
0.138402551
0.1391448741
0.1364182917
0.1373695889
0.1349762179
0.1357601463
0.1335428333
0.1337365632
0.1315438054
0.1306764992
0.1283179298
0.2257764036
0.2068768222
0.1957223769
0.1826761103
0.1758336444
0.166461458
0.1624283485
0.1554987293
0.1533960152
0.1481404463
0.1473939669
0.14329875
0.1434829978
0.1401866849
0.1409380029
0.1381770718
0.1391400786
0.1367165969
0.1375101326
0.135264836
0.135460728
0.1332400388
0.1323613849
0.1299724898
0.2279412387
0.2088604178
0.1975989188
0.1844275801
0.1775193946
0.1680573368
0.1639854834
0.156989368
0.1548664373
0.1495603868
0.1488066924
0.1446720819
0.1448580314
0.1415299552
0.1422884264
0.1395008511
0.1404730755
0.13802617
0.1388273093
0.1365603195
0.1367581395
0.1345160274
0.1336289847
0.13121721
0.2293850832
0.2101834937
0.1988505754
0.1855960528
0.1786439176
0.1691222719
0.1650243739
0.1579843872
0.1558476707
0.1505085662
0.1497496537
0.1455895167
0.1457761033
0.1424276993
0.1431903906
0.1403859586
0.1413637824
0.1389021265
0.1397078378
0.1374270899
0.1376258156
0.1353698276
0.1344769784
0.1320499848
0.230110994
0.210848615
0.1994797339
0.1861832833
0.1792090401
0.1696572501
0.1655463172
0.1584839932
0.1563404695
0.1509843711
0.1502230131
0.1460495713
0.1462367002
0.1428775243
0.1436425963
0.1408290931
0.1418100116
0.1393403523
0.1401486235
0.1378604727
0.1380598922
0.1357966253
0.1349009991
0.1324663494
0.2301091088
0.2108469821
0.1994781079
0.1861820137
0.1792076344
0.1696562721
0.1655451161
0.1584832976
0.1563394452
0.1509839526
0.1502221457
0.1460494109
0.1462359832
0.1428776028
0.1436420676
0.1408294081
0.1418097415
0.1393408739
0.1401486164
0.137861105
0.1380601549
0.1357972441
0.1349014225
0.132466853
0.2293869727
0.2101852706
0.1988519755
0.1855976228
0.1786450233
0.1691236207
0.1650253001
0.157985582
0.1558484133
0.150509627
0.1497501697
0.1455903869
0.1457763306
0.1424283087
0.1431903494
0.1403863125
0.1413635815
0.1389022379
0.1397074716
0.1374269426
0.1376254503
0.1353694932
0.1344765435
0.1320496362
0.2279393743
0.208858943
0.1975970821
0.1844266237
0.1775177052
0.1680567427
0.1639840259
0.1569891863
0.1548651541
0.1495606276
0.1488055012
0.1446726498
0.144856855
0.1415307385
0.1422873545
0.1395018445
0.1404723481
0.1380273218
0.1388269258
0.1365614234
0.1367582851
0.134516914
0.1336293816
0.1312178538
0.2257782807
0.2068787269
0.1957235383
0.1826779642
0.1758344377
0.1664631596
0.1624289847
0.1555004023
0.1533964572
0.1481421248
0.1473941089
0.1433003035
0.143482712
0.140187958
0.140937373
0.1381780775
0.1391393984
0.1367173351
0.1375093996
0.1352651782
0.1354602737
0.133239998
0.1323609507
0.1299723059
0.2229031656
0.2042443769
0.1932311529
0.1803519574
0.1735953815
0.1643437982
0.1603607345
0.1535208417
0.1514433367
0.146256489
0.1455175343
0.1414765459
0.1416560611
0.1384040432
0.1391432876
0.1364199629
0.137368423
0.134977991
0.1357593925
0.1335443934
0.133736586
0.1315449442
0.1306768609
0.1283187019
0.2193303003
0.2009705669
0.1901337658
0.1774610253
0.17081263
0.1617093256
0.1577900239
0.1510597092
0.1490154398
0.1439116403
0.1431844644
0.1392081237
0.1393846936
0.136184649
0.136912004
0.1342321596
0.1351654341
0.1328131197
0.1335820471
0.1314023619
0.1315915863
0.1294349149
0.128580821
0.1262604778
0.215063815
0.1970613145
0.1864352242
0.1740092561
0.1674899887
0.1585641306
0.1547208063
0.148121879
0.1461170232
0.1411130864
0.1403995914
0.1365012892
0.1366738512
0.1335368341
0.1342494043
0.1316225182
0.1325370018
0.1302312299
0.1309845984
0.1288479604
0.1290330654
0.1269187154
0.1260809982
0.1238058634
0.2101241217
0.1925350916
0.1821529555
0.1700124146
0.1636427554
0.1549219039
0.1511667597
0.1447193507
0.1427604608
0.1378713793
0.137174183
0.1333653153
0.1335338199
0.1304687324
0.131164873
0.1285981872
0.1294916705
0.1272386943
0.1279748064
0.1258870753
0.1260680419
0.1240021013
0.1231836978
0.1209608375
0.2045199072
0.1874000873
0.1772947593
0.1654782831
0.1592783061
0.1507904223
0.1471351669
0.1408601925
0.1389531945
0.1341950989
0.1335160317
0.1298094431
0.1299728769
0.1269903152
0.1276672458
0.1251698379
0.126038842
0.1238467306
0.1245625915
0.1225311859
0.1227068764
0.1206964074
0.1198995921
0.117736093
0.1982755202
0.1816783849
0.1718814736
0.1604258058
0.1544149834
0.1461862536
0.1426424885
0.136559065
0.1347101873
0.1300973072
0.1294388568
0.1258453619
0.1260036802
0.1231120972
0.1237682659
0.1213470199
0.1221894702
0.1200641706
0.1207582024
0.1187886887
0.1189591142
0.1170098936
0.1162374688
0.1141400482
0.1914040384
0.1753821913
0.1659247056
0.154866321
0.1490636013
0.1411204329
0.1376992108
0.1318271018
0.1300419401
0.125589523
0.1249534196
0.1214851591
0.1216374059
0.1188468097
0.1194795853
0.1171430651
0.1179556611
0.1159047798
0.1165741327
0.1146735068
0.114837576
0.1129562707
0.1122103793
0.1101857238
0.1839335026
0.1685369793
0.1594484936
0.1488217595
0.1432453624
0.1356122345
0.1323244127
0.1266814764
0.1249658619
0.1206871921
0.1200757691
0.1167428363
0.1168889791
0.1142072629
0.1148152088
0.112569851
0.1133506723
0.1113797784
0.112022997
0.1101964743
0.1103542092
0.108546229
0.1078294933
0.1058838913
0.1758811478
0.161158759
0.1524680492
0.1423068226
0.1369743318
0.1296757691
0.1265316025
0.1211362044
0.1194953261
0.1154045794
0.1148194371
0.1116331205
0.1117722639
0.1092087273
0.10978939
0.1076431417
0.1083891126
0.106505254
0.1071196854
0.1053737417
0.1055241306
0.1037956482
0.103110063
0.101249713
0.1672784311
0.153276139
0.145010371
0.1353462066
0.1302743608
0.1233328238
0.1203422921
0.115210804
0.1136500293
0.1097593735
0.1092026701
0.106172209
0.1063043424
0.103866212
0.1044182934
0.1023770549
0.1030864296
0.1012947214
0.1018790366
0.1002184719
0.1003615291
0.09871752602
0.09806549002
0.09629617449
0.1581464468
0.1449086598
0.1370940167
0.1279577324
0.1231625291
0.1166003562
0.1137727837
0.1089219465
0.1074459855
0.1037683522
0.1032415286
0.1003772249
0.1005015157
0.09819727606
0.0987185258
0.0967895396
0.09745950808
0.09576636327
0.09631815133
0.09474884718
0.09488366935
0.0933297474
0.09271309262
0.09104044294
0.1485197555
0.1360877807
0.1287486769
0.1201686128
0.1156650995
0.1095024449
0.1068468115
0.1022912996
0.1009049944
0.09745127507
0.09695629559
0.09426640906
0.09438287577
0.0922189829
0.09270826119
0.09089680052
0.09152581074
0.08993580798
0.09045387284
0.08898013726
0.08910671742
0.08764735819
0.08706822037
0.08549744026
0.1384229589
0.1268362488
0.119995947
0.1119994999
0.1078018867
0.1020586269
0.09958320658
0.09533793209
0.09404544911
0.09082717656
0.09036529747
0.08785902556
0.08796690264
0.08595093563
0.08640622066
0.08471875353
0.08530429834
0.08382315914
0.0843053685
0.08293243883
0.08305000105
0.08169018108
0.08115021172
0.07968629592
0.12789338
0.1171880605
0.1108679138
0.1034798474
0.09960130103
0.09429502455
0.09200768631
0.08808543392
0.08689103374
0.08391767674
0.08349064918
0.08117515506
0.08127449438
0.07941203955
0.07983236537
0.07827344913
0.07881418738
0.0774458714
0.07789117282
0.07662278748
0.07673130103
0.07547493032
0.0749759753
0.07362348263
0.1169587204
0.1071687984
0.1013888592
0.0946328105
0.09108557505
0.08623345363
0.08414131552
0.08055499025
0.07946223948
0.07674379832
0.07635267309
0.07423594914
0.07432605782
0.07262371329
0.07300731063
0.07158258115
0.0720763403
0.07082583072
0.07123239653
0.07007310472
0.07017192535
0.06902330578
0.06856680821
0.06733003453
0.1056586934
0.09681465413
0.09159294412
0.08548978265
0.08228497828
0.07790180574
0.07601152789
0.07277185411
0.07178438054
0.0693287702
0.06897506716
0.06706307476
0.06714404071
0.06560643403
0.06595252468
0.06466574549
0.0651114143
0.06398198358
0.06434892438
0.06330183575
0.06339092275
0.06235334001
0.06194084805
0.06082365102
0.09402365632
0.0861536387
0.08150674915
0.07607606106
0.07322381224
0.06932384815
0.0676413024
0.06475902669
0.06387975048
0.06169532619
0.06137987407
0.05967931578
0.05975052374
0.05838320747
0.0586902936
0.05754621555
0.05794197818
0.05693782027
0.05726362486
0.05633254518
0.05641137416
0.05548839498
0.05512110313
0.05412702324
0.08209531006
0.07522376892
0.07116616146
0.06642465368
0.06393389411
0.06052894265
0.05905949706
0.05654313694
0.05577500874
0.05386801841
0.05359208935
0.0521076346
0.05216921125
0.05097578009
0.05124328579
0.050244818
0.0505898157
0.04971347007
0.04999744014
0.04918481785
0.04925336536
0.0484476228
0.04812679003
0.04725893805
0.06990618916
0.06405504792
0.06059964585
0.05656261334
0.05444122005
0.05154245837
0.05029066414
0.04814868509
0.04749394105
0.04587100464
0.04563519247
0.04437218538
0.04442359657
0.04340850269
0.04363521448
0.04278617371
0.04307896005
0.04233377862
0.04257471987
0.04188355673
0.04194139716
0.04125566018
0.04098218833
0.04024330141
0.05749955046
0.05268692037
0.04984444238
0.04652421343
0.04477882219
0.04239490747
0.04136477397
0.03960336689
0.0390642439
0.03772984839
0.03753516319
0.0364969071
0.03653832016
0.03570406635
0.03588962334
0.03519201834
0.03543200735
0.03481976474
0.03501719663
0.03444925854
0.03449641161
0.03393263924
0.03370750824
0.03309991255
0.04490961113
0.04115092878
0.03893046767
0.03633785918
0.03497399883
0.03311289387
0.03230759304
0.03093284881
0.03051087035
0.02946983346
0.02931662556
0.02850705551
0.02853802108
0.02788791804
0.02803140145
0.02748807808
0.02767420316
0.02719737112
0.02735041675
0.0269078618
0.02694398588
0.02650411233
0.02632790026
0.02585349542
0.03218071716
0.02948751846
0.02789591564
0.02603871687
0.02506064455
0.02372774247
0.02314987701
0.02216556916
0.02186223135
0.0211172061
0.02100621166
0.02042720596
0.02044793216
0.01998334321
0.0200846148
0.01969664225
0.01982860161
0.0194881568
0.01959656776
0.01928044745
0.01930561633
0.01899089092
0.01886429572
0.01852459187
0.01934826817
0.01772931297
0.01677171562
0.01565613414
0.01506695725
0.01426691374
0.01391823263
0.01332801353
0.01314410607
0.01269806449
0.01262938499
0.01228343883
0.01229356478
0.01201663574
0.01207508039
0.01184431596
0.0119214335
0.01171895628
0.01178217843
0.01159380412
0.01160775822
0.01141928303
0.01134254999
0.01113859034
0.006457203435
0.00591730295
0.005596590333
0.005225774084
0.005027322186
0.00476219163
0.004643863798
0.004449030211
0.004385293728
0.004239004396
0.004213095598
0.004100619132
0.004100395049
0.004011312889
0.004027021805
0.003953560476
0.003975827298
0.00391145779
0.003929483949
0.003869146452
0.003872015713
0.003810279197
0.003783809938
0.003716264047
-0.006456390349
-0.005915260368
-0.005597953196
-0.005222480805
-0.005029566251
-0.004758488162
-0.004646165993
-0.004444435672
-0.004387961342
-0.004233392984
-0.004216684218
-0.004094647346
-0.004105495449
-0.00400575635
-0.004033095843
-0.003948385259
-0.003981256798
-0.003906817399
-0.003934223328
-0.003866033531
-0.003874429643
-0.003809126192
-0.003785413976
-0.003716364664
-0.0193475087
-0.01772732456
-0.01677311467
-0.01565288963
-0.01506922318
-0.01426325172
-0.01392054957
-0.01332346088
-0.01314679019
-0.01269250504
-0.01263299982
-0.0122775322
-0.01229870234
-0.01201115441
-0.01208120345
-0.01183922626
-0.01192692771
-0.01171441377
-0.01178699317
-0.01159079785
-0.01161026113
-0.01141824542
-0.01134426183
-0.01113880543
-0.03217985596
-0.02948544894
-0.0278972298
-0.02603543003
-0.02506285125
-0.02372406348
-0.0231521518
-0.02216100806
-0.02186486436
-0.02111162423
-0.02100974164
-0.02042124627
-0.02045294016
-0.01997777333
-0.02009056602
-0.01969142881
-0.01983389195
-0.01948345276
-0.01960115668
-0.01927724074
-0.01930789101
-0.0189896151
-0.0188657576
-0.01852456661
-0.04490891714
-0.04114902783
-0.03893189639
-0.03633472459
-0.03497627672
-0.03310934436
-0.03230991557
-0.03092841545
-0.03051355123
-0.02946440377
-0.02932022456
-0.02850128043
-0.02854312129
-0.02788255446
-0.02803746754
-0.02748309038
-0.02767964026
-0.02719291728
-0.0273551749
-0.02690492401
-0.02694647151
-0.02650312842
-0.02632963445
-0.02585376384
-0.05749864039
-0.05268484623
-0.04984569047
-0.04652098478