/*--------------------------------*- C++ -*----------------------------------*\
| =========                 |                                                 |
| \\      /  F ield         | foam-extend: Open Source CFD                    |
|  \\    /   O peration     | Version:  3.0                                   |
|   \\  /    A nd           | Web:         http://www.extend-project.de       |
|    \\/     M anipulation  |                                                 |
\*---------------------------------------------------------------------------*/
FoamFile
{
    version     2.0;
    format      ascii;
    class       volSymmTensorField;
    location    "37";
    object      sigma;
}
// * * * * * * * * * * * * * * * * * * * * * * * * * * * * * * * * * * * * * //

dimensions      [0 0 0 0 0 0 0];

internalField   nonuniform List<symmTensor> 
576
(
(1.95613 -0.0689225 3.02094e-18 -1.95454 3.74447e-18 4.92792e-36)
(2.0283 0.154762 8.09136e-18 -2.02665 -3.32082e-17 -1.65255e-34)
(2.34023 0.22619 -3.1268e-19 -2.33784 -1.63978e-17 -1.97138e-35)
(2.12911 0.252795 -2.40893e-18 -2.12878 -3.83443e-18 1.65641e-35)
(1.93303 0.248136 8.73651e-18 -1.93011 -3.36605e-18 2.44628e-35)
(1.64949 0.231266 6.94131e-18 -1.64979 1.74629e-18 1.14266e-36)
(1.39224 0.211508 -1.0841e-17 -1.38919 -5.32209e-18 -6.96437e-36)
(1.10691 0.185474 -1.51006e-17 -1.10715 2.46161e-17 -1.87822e-34)
(0.860614 0.163874 -2.04845e-17 -0.85793 1.22341e-17 -1.2037e-34)
(0.590357 0.137622 -1.40384e-17 -0.589955 8.34219e-18 -2.3603e-35)
(0.359186 0.115728 1.66373e-18 -0.357232 -1.22387e-17 5.944e-35)
(0.10997 0.0950337 -1.16408e-17 -0.108547 -1.1244e-17 -5.34314e-36)
(2.12235 -0.165854 -1.85272e-17 -2.12077 -1.18275e-17 -9.50661e-35)
(1.97144 0.457177 -4.49064e-17 -1.9698 2.4637e-17 4.04074e-34)
(2.22634 0.66001 -3.10619e-18 -2.22399 1.38304e-17 2.2168e-34)
(1.97793 0.731191 3.30076e-18 -1.9776 -1.57115e-17 -2.89744e-35)
(1.77681 0.715673 1.51574e-17 -1.77393 -1.521e-17 -2.25922e-36)
(1.4965 0.665017 -1.14917e-17 -1.49679 1.11473e-17 0)
(1.24646 0.606665 -1.91104e-17 -1.24347 4.37914e-17 -4.36393e-34)
(0.973561 0.530498 4.42468e-17 -0.973797 8.03466e-18 1.93639e-34)
(0.736908 0.467162 2.6542e-17 -0.734267 1.82466e-17 4.37583e-34)
(0.480004 0.390577 1.4301e-17 -0.479613 1.25818e-18 -4.07585e-34)
(0.259558 0.326637 -3.12815e-17 -0.257639 2.10911e-19 -3.04765e-34)
(0.0190504 0.265771 -2.95156e-17 -0.0176535 2.95233e-17 4.18578e-34)
(2.42153 -0.146846 4.70977e-18 -2.42002 3.71638e-18 -7.86323e-35)
(1.86208 0.739237 1.84699e-17 -1.86052 1.38211e-17 -4.0363e-35)
(2.01176 1.04071 -2.61287e-17 -2.0095 -2.04088e-17 -2.76223e-34)
(1.69565 1.1321 -5.09622e-17 -1.69534 4.62091e-17 -4.90513e-34)
(1.4858 1.10121 -1.93767e-17 -1.48302 7.20095e-18 3.45431e-34)
(1.21213 1.01672 3.78974e-17 -1.21241 1.67325e-17 -1.98671e-34)
(0.975978 0.922359 8.5786e-17 -0.973089 -2.70062e-17 1.02273e-33)
(0.726563 0.801638 4.2404e-18 -0.726792 9.71684e-18 1.24637e-34)
(0.5082 0.700718 8.11912e-17 -0.505654 -9.60481e-18 1.43294e-33)
(0.276449 0.580061 2.98249e-17 -0.276072 2.24183e-18 1.02604e-33)
(0.0762444 0.479001 -1.58693e-17 -0.0743932 2.95316e-17 -9.92517e-34)
(-0.147683 0.381536 4.14122e-17 0.149031 3.96068e-17 1.11683e-33)
(2.7924 0.0439572 2.41721e-18 -2.79096 5.02869e-18 0)
(1.70834 0.98988 -1.05975e-18 -1.70685 -3.0015e-17 0)
(1.72094 1.34099 -3.63066e-17 -1.71879 5.87761e-17 3.20976e-34)
(1.31938 1.41636 8.41667e-17 -1.31908 -4.54402e-17 5.61267e-34)
(1.09961 1.36351 -4.27081e-17 -1.09698 1.7141e-17 -4.10831e-34)
(0.836342 1.24525 4.95299e-17 -0.836611 -3.53241e-17 7.79624e-34)
(0.619712 1.11888 -3.9378e-17 -0.61697 8.11068e-18 -1.05929e-33)
(0.402318 0.962068 1.06498e-16 -0.402537 -5.72132e-17 2.70388e-34)
(0.209061 0.829894 4.30855e-17 -0.206645 -7.10565e-17 -2.20082e-33)
(0.0113713 0.67463 1.79533e-17 -0.0110152 -3.10168e-17 -8.60107e-34)
(-0.161329 0.543921 4.68858e-17 0.163084 7.89551e-18 -2.90796e-34)
(-0.362321 0.415278 1.02283e-16 0.363598 -1.15552e-16 -1.87006e-34)
(3.15519 0.433693 -1.05533e-17 -3.15386 -7.47808e-20 0)
(1.52095 1.20144 -3.18746e-17 -1.51957 2.8631e-17 7.35824e-35)
(1.38598 1.5445 4.00438e-17 -1.38399 -1.97902e-17 -4.55733e-34)
(0.897695 1.56165 -4.34922e-17 -0.897425 1.70909e-17 -5.25537e-34)
(0.670115 1.47934 7.74841e-17 -0.667677 -5.74926e-17 -6.90823e-34)
(0.421431 1.3277 -8.79288e-17 -0.421683 -4.20501e-18 3.5768e-34)
(0.228584 1.17431 -1.65569e-17 -0.226046 -3.91704e-17 0)
(0.0484373 0.991627 -1.26974e-16 -0.0486423 -2.09735e-17 1.62445e-33)
(-0.115335 0.835887 -1.16809e-16 0.117571 2.39436e-17 2.76663e-33)
(-0.273837 0.657406 -7.00138e-17 0.274166 -8.20542e-18 9.69416e-35)
(-0.414735 0.506056 1.46591e-17 0.41636 -5.67971e-17 -1.65414e-33)
(-0.588475 0.352882 -1.2536e-16 0.589658 -1.85304e-18 1.87006e-34)
(3.4243 1.01569 3.78488e-18 -3.42309 1.25243e-17 0)
(1.31195 1.37031 2.82212e-17 -1.3107 -1.577e-17 1.37849e-34)
(1.04199 1.64773 -1.57249e-17 -1.04019 -1.28382e-17 -5.46314e-35)
(0.483482 1.56549 -1.36704e-17 -0.483233 6.21548e-18 0)
(0.253646 1.44671 -5.88441e-17 -0.251437 2.5505e-17 2.40486e-34)
(0.0241242 1.26267 1.92053e-17 -0.0243521 -1.9196e-17 -1.97825e-34)
(-0.142199 1.08769 -1.25456e-16 0.144499 6.81634e-17 7.09703e-34)
(-0.28352 0.889805 1.53435e-16 0.283334 -7.03368e-18 -2.21721e-33)
(-0.416082 0.718591 1.73417e-17 0.418107 -2.67469e-17 -1.99875e-33)
(-0.534423 0.528678 -7.29732e-17 0.534719 5.57046e-17 1.53385e-33)
(-0.642452 0.366049 1.20725e-17 0.643922 2.06522e-17 0)
(-0.786847 0.195405 -1.95802e-17 0.787916 4.9318e-17 0)
(3.52168 1.74959 2.8662e-18 -3.52063 4.68218e-18 0)
(1.09303 1.49696 -1.50946e-17 -1.09194 5.03957e-17 -6.24717e-34)
(0.722005 1.66017 1.07581e-16 -0.720424 -3.84381e-17 2.11055e-33)
(0.125982 1.44528 -1.39465e-17 -0.125769 -2.60083e-17 0)
(-0.0974085 1.28494 4.13895e-17 0.0993445 -1.79281e-17 -7.69503e-35)
(-0.302919 1.07027 -5.45846e-17 0.302714 1.9372e-17 6.32992e-35)
(-0.441469 0.87908 1.3888e-16 0.443484 -1.21941e-17 6.172e-34)
(-0.545815 0.675769 1.14638e-16 0.545647 -3.86319e-17 2.52748e-34)
(-0.647975 0.496608 -1.74837e-16 0.649749 3.39898e-17 -1.5304e-33)
(-0.729075 0.305919 4.45711e-17 0.729331 1.74375e-17 -5.51228e-34)
(-0.806225 0.140532 -1.24689e-17 0.807513 -2.22142e-17 0)
(-0.921321 -0.0408985 -1.93313e-17 0.922256 3.80046e-17 0)
(3.38955 2.56668 4.95651e-18 -3.38865 5.40133e-18 0)
(0.874191 1.58546 6.11573e-17 -0.873264 -1.02374e-18 4.6164e-34)
(0.452268 1.60238 -4.19871e-17 -0.450931 -1.66714e-17 -1.79436e-33)
(-0.136399 1.23535 -6.68634e-17 0.136581 3.76717e-17 -1.9621e-35)
(-0.342401 1.03143 2.30035e-17 0.344035 -1.23591e-17 -1.86085e-35)
(-0.519004 0.78887 1.33043e-17 0.518832 -4.9521e-17 2.08228e-34)
(-0.629797 0.586341 2.35079e-17 0.631498 1.39594e-17 0)
(-0.701776 0.385357 -7.96924e-17 0.701633 -2.86887e-17 -5.26913e-34)
(-0.776386 0.20439 -1.6416e-16 0.777884 3.82994e-17 3.43714e-33)
(-0.826261 0.0211315 3.7765e-17 0.826476 2.2128e-17 5.71564e-34)
(-0.876954 -0.140345 -3.41429e-17 0.87804 1.09039e-17 7.1767e-34)
(-0.964545 -0.326941 8.87123e-17 0.965334 -7.49372e-18 -1.19098e-33)
(2.99971 3.37955 2.37114e-17 -2.999 -1.44767e-18 7.06552e-35)
(0.662527 1.64242 -3.51938e-17 -0.661793 -7.8458e-18 -5.46835e-35)
(0.248626 1.50249 -6.66951e-17 -0.247563 4.49784e-17 -2.07943e-34)
(-0.281717 0.981452 1.60487e-16 0.281857 -4.90681e-17 9.91375e-34)
(-0.458397 0.735773 -1.56199e-16 0.459698 4.7293e-17 -3.98273e-34)
(-0.601446 0.469163 1.37453e-16 0.601303 -8.13385e-18 1.0475e-33)
(-0.685399 0.259315 7.18778e-17 0.686753 -9.81274e-17 -1.98305e-33)
(-0.731322 0.0655993 -2.02616e-16 0.731204 -1.01317e-17 2.53906e-33)
(-0.782531 -0.113001 -3.22341e-17 0.783722 4.55358e-17 -1.3198e-33)
(-0.809059 -0.283954 -1.90415e-18 0.809226 1.88482e-19 -7.981e-38)
(-0.839199 -0.437414 7.68344e-18 0.840061 4.63955e-17 -3.1669e-34)
(-0.902226 -0.625099 8.50259e-17 0.902851 -1.91395e-17 1.19098e-33)
(2.35889 4.0949 7.27489e-18 -2.35836 1.47588e-17 0)
(0.461675 1.67568 2.76235e-17 -0.461137 -8.3842e-18 5.78867e-35)
(0.114578 1.39157 5.70554e-17 -0.113803 1.33427e-18 1.94051e-34)
(-0.307474 0.733589 -1.22744e-16 0.307576 2.91674e-17 -1.17992e-33)
(-0.443405 0.452026 1.2276e-16 0.444353 -1.25208e-17 6.25228e-34)
(-0.548825 0.166245 -4.15707e-17 0.548719 3.89365e-17 -3.89034e-34)
(-0.607318 -0.0478916 -8.94746e-17 0.608305 -8.40503e-18 -6.61981e-34)
(-0.63394 -0.232525 5.91404e-17 0.633851 -1.30802e-17 -6.19393e-34)
(-0.666298 -0.406782 6.39126e-17 0.667167 3.2673e-17 -8.80047e-34)
(-0.677758 -0.564242 5.72039e-17 0.677876 7.25839e-18 5.60322e-35)
(-0.693602 -0.708407 1.69562e-16 0.694229 -2.87493e-17 1.64576e-34)
(-0.735431 -0.894852 -8.48967e-17 0.735884 -3.2119e-18 -1.83165e-35)
(1.5084 4.62705 7.42304e-18 -1.50808 -2.04542e-18 0)
(0.271688 1.69281 -4.55268e-17 -0.271365 1.5887e-17 -5.32086e-35)
(0.0411607 1.29867 -5.25199e-17 -0.040691 -2.32102e-18 -1.20967e-34)
(-0.230709 0.538163 6.82819e-17 0.230765 -1.02528e-17 -4.91591e-35)
(-0.316438 0.230294 -6.4379e-17 0.317013 2.01834e-17 2.93012e-35)
(-0.381047 -0.0688455 1.48789e-17 0.380976 -1.87342e-17 0)
(-0.415465 -0.2852 -4.20184e-17 0.416064 3.0391e-17 -3.89463e-34)
(-0.428724 -0.461863 2.65429e-17 0.428664 2.89666e-17 2.09132e-34)
(-0.446278 -0.631869 -1.62768e-17 0.446804 8.11738e-18 -4.70745e-34)
(-0.449875 -0.778086 -1.31887e-18 0.449941 2.32226e-17 -8.29591e-34)
(-0.456891 -0.914325 -6.36493e-18 0.457269 -3.09881e-17 2.37992e-34)
(-0.480567 -1.09885 3.43692e-17 0.480838 -3.01844e-17 6.02702e-34)
(0.518999 4.91078 1.51698e-18 -0.518888 -1.29704e-17 0)
(0.0896017 1.69976 3.58596e-18 -0.0894887 -1.14947e-17 -5.96712e-35)
(0.00887292 1.24616 -9.3001e-18 -0.00871129 2.09058e-17 -4.12037e-35)
(-0.0849981 0.430802 -1.28037e-17 0.0850145 8.83424e-19 9.33794e-36)
(-0.114298 0.10902 4.21989e-17 0.114494 -1.29811e-17 -3.7157e-36)
(-0.136069 -0.196982 -1.21186e-17 0.136038 1.7153e-18 1.18807e-35)
(-0.147417 -0.41424 8.24487e-18 0.147622 3.13231e-18 -1.97461e-36)
(-0.15136 -0.586304 -1.88411e-17 0.151331 6.61735e-18 -2.07483e-34)
(-0.156881 -0.753751 2.58943e-17 0.15706 -2.64885e-18 -9.94163e-35)
(-0.157503 -0.893626 -1.29483e-17 0.157518 2.90486e-18 -1.93735e-34)
(-0.159406 -1.02535 -4.06145e-18 0.159532 2.93429e-19 -2.66177e-34)
(-0.167044 -1.20857 7.27375e-18 0.167131 -9.90188e-18 4.41148e-35)
(-0.519005 4.91076 2.79437e-18 0.518901 9.63844e-18 2.04235e-35)
(-0.0896166 1.69975 2.22356e-17 0.0895079 1.54057e-17 3.51727e-35)
(-0.00888349 1.24615 2.93683e-18 0.0087282 3.81577e-18 3.35316e-35)
(0.0849857 0.430797 -8.8695e-18 -0.085015 1.00951e-19 -4.97342e-35)
(0.114288 0.109015 -1.14759e-17 -0.114478 -8.32033e-18 9.50506e-35)
(0.136052 -0.196987 1.07407e-17 -0.136046 2.81362e-18 1.75331e-35)
(0.147407 -0.414245 -7.74491e-18 -0.147604 -1.02069e-17 6.80299e-36)
(0.151349 -0.586308 -1.58075e-18 -0.151346 -2.27448e-17 1.45282e-34)
(0.156875 -0.753755 -9.69595e-18 -0.15705 -4.11658e-18 1.96307e-34)
(0.157502 -0.893626 -7.32231e-18 -0.15754 1.03332e-17 1.65271e-34)
(0.159398 -1.02535 -7.38452e-19 -0.15953 1.61016e-17 4.27009e-36)
(0.167048 -1.20857 -2.86902e-19 -0.167149 -2.61998e-18 -1.52608e-35)
(-1.50841 4.62707 1.38373e-17 1.50811 -3.33785e-18 -2.09561e-35)
(-0.271704 1.69281 -4.77861e-17 0.271386 -1.09433e-17 4.25266e-34)
(-0.0411743 1.29868 -4.79623e-17 0.0407115 4.28463e-18 5.1993e-35)
(0.230694 0.538165 -2.54142e-17 -0.230764 2.02393e-17 -2.58952e-34)
(0.316427 0.230293 2.61121e-17 -0.316996 2.25439e-18 9.449e-35)
(0.381029 -0.0688468 9.52503e-18 -0.380983 -3.40057e-17 0)
(0.415454 -0.285204 -7.8045e-17 -0.416047 -2.86405e-17 1.18782e-34)
(0.428712 -0.461864 2.29131e-17 -0.428678 -6.19188e-18 -1.50964e-34)
(0.446272 -0.631874 6.79154e-17 -0.446796 -8.0732e-18 -6.71527e-34)
(0.449872 -0.778082 4.31634e-17 -0.449961 2.06898e-17 -8.96277e-35)
(0.456884 -0.914331 -2.53966e-17 -0.45727 -7.46613e-19 7.28323e-35)
(0.480572 -1.09886 -3.63484e-17 -0.480858 1.37349e-17 1.65089e-34)
(-2.35889 4.09489 -8.31105e-18 2.35837 -2.4116e-17 1.83581e-34)
(-0.461683 1.67567 7.90406e-17 0.461151 9.67273e-18 -7.53398e-34)
(-0.114587 1.39157 5.55586e-17 0.113817 2.90805e-18 9.59946e-35)
(0.307466 0.733584 -3.76868e-17 -0.307578 -6.18066e-18 4.46129e-34)
(0.443398 0.452017 -1.13079e-16 -0.444342 7.60588e-18 1.29428e-34)
(0.548815 0.166237 -2.12398e-17 -0.548731 -4.05778e-18 -2.85235e-34)
(0.607313 -0.0479033 1.06491e-16 -0.608295 1.21574e-17 1.10214e-34)
(0.633934 -0.23253 -2.93207e-17 -0.633867 -7.70942e-18 1.60217e-34)
(0.666298 -0.406793 4.39544e-17 -0.667164 -8.4061e-19 1.65217e-33)
(0.677756 -0.564237 4.98846e-17 -0.677895 -1.38641e-17 9.83065e-34)
(0.693599 -0.708414 -6.0989e-18 -0.694233 -3.0268e-17 9.07289e-34)
(0.735433 -0.894846 8.54883e-17 -0.735899 2.72968e-17 -9.37513e-34)
(-2.99974 3.37956 2.84626e-18 2.99904 1.09925e-17 0)
(-0.662539 1.64241 -1.3267e-17 0.661811 -1.61734e-17 0)
(-0.248643 1.50249 -6.37935e-17 0.247587 -3.89102e-17 1.20818e-33)
(0.281703 0.981451 1.57908e-16 -0.281854 1.53193e-17 -1.24106e-34)
(0.458386 0.735768 7.75295e-18 -0.459684 2.57238e-17 5.21547e-34)
(0.601433 0.469157 -4.08789e-17 -0.601312 5.65227e-17 5.23656e-34)
(0.685393 0.259304 -1.52734e-16 -0.686745 -2.71629e-17 -1.91328e-33)
(0.731314 0.0655958 3.43646e-17 -0.731217 3.38842e-17 1.24656e-33)
(0.782531 -0.113011 -3.52932e-17 -0.783723 1.4346e-17 6.42976e-34)
(0.809054 -0.28395 8.09893e-18 -0.809241 -6.43921e-17 5.20038e-34)
(0.839199 -0.437423 1.88675e-18 -0.840071 -2.3738e-17 1.95494e-34)
(0.902232 -0.625097 8.11114e-17 -0.902871 -3.50203e-17 1.50489e-33)
(-3.38955 2.56667 3.5682e-18 3.38866 -1.01311e-17 0)
(-0.874192 1.58545 -5.87858e-18 0.873273 -3.11125e-17 5.82296e-34)
(-0.452279 1.60238 7.46464e-17 0.450948 6.16496e-17 -7.10278e-34)
(0.136393 1.23534 -1.4571e-16 -0.136581 -2.31899e-17 -5.42767e-34)
(0.342396 1.03142 1.54208e-16 -0.344028 2.71698e-17 -5.91218e-34)
(0.519001 0.788865 -5.24313e-17 -0.518844 1.08153e-17 -1.2434e-34)
(0.629798 0.586329 3.56846e-17 -0.631497 3.55029e-17 0)
(0.701775 0.385354 -7.58697e-17 -0.701649 3.82086e-17 1.01397e-33)
(0.776393 0.20438 -1.77247e-16 -0.777891 -1.07646e-17 -3.50185e-33)
(0.826258 0.0211374 -1.13342e-16 -0.826488 -1.58558e-17 -3.11712e-33)
(0.876959 -0.140352 3.43344e-17 -0.878052 4.95085e-17 1.5919e-33)
(0.964547 -0.326935 -1.71489e-16 -0.965346 -5.54458e-17 -1.50489e-33)
(-3.52172 1.74959 8.06706e-18 3.52067 -1.35807e-17 0)
(-1.09304 1.49695 3.65814e-17 1.09195 1.1073e-17 -3.00574e-34)
(-0.722026 1.66016 3.71057e-17 0.720448 2.23726e-18 -7.49277e-34)
(-0.125996 1.44528 1.80048e-17 0.125775 3.19024e-17 0)
(0.0973984 1.28493 -7.22184e-17 -0.0993359 -2.622e-17 1.69322e-34)
(0.302912 1.07026 9.44401e-17 -0.302724 1.47968e-17 -1.39286e-34)
(0.441469 0.879068 -7.24101e-17 -0.443487 -5.42228e-17 2.25713e-33)
(0.545813 0.675763 1.91226e-16 -0.545661 5.87403e-17 -2.89921e-33)
(0.647982 0.496599 6.52516e-17 -0.649761 3.39183e-17 1.2067e-33)
(0.729071 0.305921 -3.76151e-17 -0.729343 6.27655e-18 -2.37815e-34)
(0.806233 0.140528 2.25564e-18 -0.80753 -9.83318e-18 0)
(0.921327 -0.0408932 3.3835e-17 -0.922275 5.8342e-17 0)
(-3.4243 1.01568 -4.9219e-18 3.4231 -1.46404e-18 0)
(-1.31195 1.3703 -3.89937e-17 1.3107 -3.31277e-17 4.52869e-35)
(-1.04201 1.64772 6.49027e-17 1.04021 1.92168e-17 7.31318e-34)
(-0.483487 1.56549 5.75349e-18 0.483237 -1.0861e-17 0)
(-0.253651 1.4467 6.88575e-17 0.251442 2.66956e-17 -3.22904e-34)
(-0.024124 1.26267 -4.92765e-17 0.024343 -2.9545e-17 2.65621e-34)
(0.142205 1.08769 5.73552e-17 -0.144506 5.33775e-17 8.15752e-34)
(0.283525 0.889803 -2.97625e-17 -0.283347 2.1748e-17 5.18086e-33)
(0.416095 0.718587 -1.14361e-16 -0.418123 -8.66279e-17 -2.92586e-33)
(0.534422 0.528683 1.05651e-16 -0.534728 -4.33887e-18 2.4043e-33)
(0.642462 0.366051 -2.59431e-18 -0.64394 1.80026e-17 0)
(0.786851 0.195412 1.55175e-17 -0.787929 2.07152e-17 0)
(-3.15522 0.433672 7.81211e-18 3.15389 -1.30573e-18 0)
(-1.52096 1.20143 -8.57132e-18 1.51958 3.46244e-17 4.62136e-34)
(-1.386 1.54448 -6.97886e-17 1.384 -4.94621e-17 -6.51039e-34)
(-0.897707 1.56165 -5.64125e-18 0.897431 -5.93017e-18 1.00453e-33)
(-0.670123 1.47933 -1.21942e-17 0.667677 -2.97808e-17 5.63374e-34)
(-0.42143 1.3277 6.98508e-17 0.421673 5.88302e-17 -1.02863e-34)
(-0.228579 1.1743 -7.76223e-17 0.226032 2.07591e-17 0)
(-0.0484281 0.991623 -6.00088e-17 0.0486253 -8.99058e-18 -2.71159e-33)
(0.115349 0.835886 -6.20352e-17 -0.117594 -9.34136e-18 -2.6684e-34)
(0.27384 0.657409 1.29415e-17 -0.274178 -8.16956e-18 -7.93492e-35)
(0.414745 0.506062 1.62576e-18 -0.416381 8.38323e-19 9.80692e-34)
(0.588482 0.352892 7.60873e-17 -0.589675 3.72931e-17 1.2164e-33)
(-2.7924 0.0439441 -1.12399e-18 2.79097 1.17872e-17 7.97828e-35)
(-1.70834 0.989872 -1.11562e-17 1.70686 -1.35363e-17 -6.17479e-35)
(-1.72095 1.34098 1.56973e-18 1.7188 -1.08004e-17 -8.25533e-34)
(-1.31938 1.41635 8.52991e-17 1.31909 3.2237e-17 -7.0907e-34)
(-1.09962 1.3635 -8.02529e-17 1.09698 -2.25042e-17 1.10071e-34)
(-0.836337 1.24524 8.57986e-17 0.836603 -7.41813e-19 -6.93986e-34)
(-0.619706 1.11888 7.39451e-17 0.616959 7.48358e-17 2.96058e-34)
(-0.402307 0.96207 -4.53815e-17 0.402523 2.01897e-17 3.61356e-34)
(-0.209047 0.829901 5.20306e-17 0.206627 1.69848e-17 9.31088e-34)
(-0.0113676 0.674635 1.02754e-17 0.0110069 2.49145e-17 6.22713e-34)
(0.161337 0.543933 1.96802e-18 -0.163099 2.70883e-17 5.8006e-34)
(0.362326 0.41529 -2.79459e-17 -0.36361 -5.3681e-17 -1.2164e-33)
(-2.42155 -0.146875 -3.72391e-18 2.42003 -1.24772e-17 0)
(-1.8621 0.739221 9.62759e-18 1.86053 -8.1093e-18 3.23995e-34)
(-2.01178 1.04068 -7.66103e-19 2.00951 1.00322e-17 6.42826e-36)
(-1.69566 1.13208 -6.10797e-17 1.69535 -5.8752e-17 3.10457e-35)
(-1.48581 1.1012 7.23644e-17 1.48302 2.00287e-17 -2.05628e-34)
(-1.21212 1.01671 -7.1643e-17 1.2124 -4.00953e-17 5.93434e-34)
(-0.975976 0.922359 2.9203e-17 0.973074 -4.40197e-17 7.17406e-34)
(-0.726547 0.801641 1.25727e-16 0.726776 2.19634e-17 -1.41353e-33)
(-0.508191 0.700729 6.49857e-17 0.505634 -2.21312e-17 -2.01995e-33)
(-0.27644 0.580066 7.3306e-17 0.27606 -7.97883e-18 -1.56751e-33)
(-0.0762386 0.479018 9.16187e-17 0.0743777 2.62624e-17 -1.73378e-33)
(0.147687 0.381549 -8.20531e-17 -0.149043 -5.7997e-20 -2.59698e-34)
(-2.12235 -0.165867 -2.43799e-17 2.12078 5.70967e-18 0)
(-1.97144 0.457163 -2.77141e-17 1.96982 -1.49827e-17 -4.30806e-34)
(-2.22635 0.659994 6.48317e-18 2.224 -2.44117e-17 -4.42393e-35)
(-1.97794 0.731179 2.15339e-17 1.97762 3.37565e-17 5.70394e-35)
(-1.77682 0.715669 -4.09878e-17 1.77393 -2.65384e-17 -8.3099e-35)
(-1.49649 0.665018 1.60243e-17 1.49678 1.39384e-17 0)
(-1.24646 0.606672 -4.17594e-17 1.24346 -1.42369e-17 6.80032e-35)
(-0.973547 0.530507 5.97375e-18 0.973787 -4.32568e-17 -5.53003e-35)
(-0.736904 0.467176 -2.92757e-17 0.734257 -2.88514e-17 -2.79911e-35)
(-0.479995 0.390584 -1.8909e-17 0.479604 -4.44156e-17 2.01909e-34)
(-0.259558 0.326655 -2.00708e-18 0.257632 -3.41214e-17 8.34938e-34)
(-0.019046 0.265789 2.96681e-17 0.0176438 4.85455e-17 -4.80518e-34)
(-1.95614 -0.0689387 -5.16484e-19 1.95454 6.79285e-18 0)
(-2.02829 0.154728 6.36999e-18 2.02664 3.15809e-17 1.50617e-34)
(-2.34023 0.226174 -8.11197e-19 2.33784 6.4813e-18 9.92525e-37)
(-2.1291 0.252768 1.23528e-17 2.12877 -1.55672e-17 1.74473e-36)
(-1.93303 0.248133 1.57928e-17 1.9301 1.84189e-17 2.22676e-35)
(-1.64948 0.231265 -8.30089e-18 1.64978 -3.80541e-18 1.18338e-35)
(-1.39224 0.211518 1.57382e-17 1.38918 4.5311e-18 -2.45005e-35)
(-1.1069 0.185484 -2.4219e-17 1.10714 -8.04282e-18 7.57641e-35)
(-0.860618 0.163892 -4.54893e-18 0.857923 2.51563e-18 -1.55585e-36)
(-0.590347 0.13763 -3.42565e-17 0.589949 -4.66376e-18 1.66737e-35)
(-0.359187 0.115751 -2.00151e-17 0.357227 -3.98945e-18 7.94071e-35)
(-0.109968 0.0950504 2.43104e-18 0.108541 -1.69721e-17 -3.04238e-35)
(-1.95614 0.0689175 3.02103e-18 1.95454 3.74495e-18 -4.92831e-36)
(-2.02829 -0.154748 8.09122e-18 2.02664 -3.32088e-17 1.6526e-34)
(-2.34023 -0.226194 -3.12736e-19 2.33784 -1.63979e-17 1.97141e-35)
(-2.1291 -0.252784 -2.40875e-18 2.12877 -3.83473e-18 -1.65644e-35)
(-1.93303 -0.248139 8.73638e-18 1.9301 -3.3661e-18 -2.44644e-35)
(-1.64948 -0.231259 6.94111e-18 1.64978 1.74633e-18 -1.14266e-36)
(-1.39224 -0.211509 -1.08411e-17 1.38919 -5.32216e-18 6.96377e-36)
(-1.1069 -0.185468 -1.51005e-17 1.10715 2.46166e-17 1.87826e-34)
(-0.860621 -0.163874 -2.04845e-17 0.857927 1.22345e-17 1.20374e-34)
(-0.590347 -0.13762 -1.40385e-17 0.589952 8.34274e-18 2.36069e-35)
(-0.35919 -0.115731 1.66369e-18 0.357232 -1.22387e-17 -5.94398e-35)
(-0.109969 -0.0950311 -1.16407e-17 0.108544 -1.12441e-17 5.34318e-36)
(-2.12235 0.165853 -1.85276e-17 2.12077 -1.18276e-17 9.50673e-35)
(-1.97144 -0.45718 -4.49068e-17 1.96981 2.46372e-17 -4.04087e-34)
(-2.22634 -0.660011 -3.10613e-18 2.22399 1.38306e-17 -2.2168e-34)
(-1.97793 -0.731193 3.30125e-18 1.97761 -1.57118e-17 2.89732e-35)
(-1.77682 -0.715675 1.51577e-17 1.77393 -1.52099e-17 2.26182e-36)
(-1.49649 -0.665012 -1.14918e-17 1.49679 1.11471e-17 0)
(-1.24647 -0.606664 -1.91099e-17 1.24346 4.37917e-17 4.36398e-34)
(-0.97355 -0.530491 4.42475e-17 0.973794 8.03522e-18 -1.93642e-34)
(-0.736915 -0.46716 2.65421e-17 0.734265 1.8247e-17 -4.37604e-34)
(-0.479994 -0.390574 1.43003e-17 0.479606 1.25859e-18 4.07579e-34)
(-0.259566 -0.326637 -3.12822e-17 0.257641 2.10912e-19 3.04782e-34)
(-0.0190498 -0.265771 -2.95155e-17 0.0176495 2.95236e-17 -4.1858e-34)
(-2.42153 0.146854 4.7102e-18 2.42002 3.71609e-18 7.86358e-35)
(-1.86209 -0.739242 1.84696e-17 1.86052 1.38219e-17 4.03643e-35)
(-2.01177 -1.0407 -2.61291e-17 2.0095 -2.0409e-17 2.76224e-34)
(-1.69565 -1.1321 -5.09626e-17 1.69535 4.62102e-17 4.90523e-34)
(-1.48581 -1.10121 -1.93767e-17 1.48302 7.20082e-18 -3.45438e-34)
(-1.21212 -1.01671 3.78977e-17 1.21241 1.67325e-17 1.98668e-34)
(-0.975988 -0.922357 8.57871e-17 0.973085 -2.70066e-17 -1.02275e-33)
(-0.726552 -0.801629 4.24073e-18 0.726791 9.71698e-18 -1.24642e-34)
(-0.508206 -0.700718 8.11916e-17 0.505649 -9.60522e-18 -1.43296e-33)
(-0.276439 -0.580057 2.98248e-17 0.276068 2.2415e-18 -1.02606e-33)
(-0.076251 -0.479004 -1.58698e-17 0.0743935 2.95315e-17 9.92533e-34)
(0.147681 -0.381531 4.14112e-17 -0.149031 3.96075e-17 -1.11685e-33)
(-2.79239 -0.0439492 2.41733e-18 2.79095 5.02856e-18 0)
(-1.70833 -0.989885 -1.0601e-18 1.70685 -3.00151e-17 0)
(-1.72094 -1.34099 -3.6306e-17 1.71879 5.87761e-17 -3.2098e-34)
(-1.31937 -1.41636 8.4167e-17 1.31908 -4.544e-17 -5.61281e-34)
(-1.09962 -1.36351 -4.27089e-17 1.09698 1.71406e-17 4.10835e-34)
(-0.836337 -1.24524 4.95289e-17 0.836613 -3.53246e-17 -7.79614e-34)
(-0.619721 -1.11888 -3.93771e-17 0.616968 8.11032e-18 1.05928e-33)
(-0.402312 -0.962059 1.065e-16 0.402539 -5.72137e-17 -2.70367e-34)
(-0.209065 -0.829895 4.30859e-17 0.206642 -7.10577e-17 2.20086e-33)
(-0.0113666 -0.674626 1.7954e-17 0.0110151 -3.1018e-17 8.60144e-34)
(0.161322 -0.543925 4.68868e-17 -0.163081 7.89571e-18 2.90802e-34)
(0.362319 -0.415276 1.02283e-16 -0.363598 -1.15553e-16 1.8701e-34)
(-3.1552 -0.433684 -1.0553e-17 3.15387 -7.47348e-20 0)
(-1.52095 -1.20145 -3.18751e-17 1.51957 2.86316e-17 -7.35784e-35)
(-1.38598 -1.54449 4.00434e-17 1.38399 -1.97904e-17 4.55735e-34)
(-0.89769 -1.56166 -4.34918e-17 0.897424 1.70905e-17 5.25543e-34)
(-0.670123 -1.47934 7.74847e-17 0.667676 -5.7493e-17 6.90817e-34)
(-0.421427 -1.3277 -8.79298e-17 0.421687 -4.20486e-18 -3.57681e-34)
(-0.228592 -1.17431 -1.65574e-17 0.226042 -3.91706e-17 0)
(-0.0484324 -0.991618 -1.26975e-16 0.0486461 -2.09734e-17 -1.62443e-33)
(0.115331 -0.835888 -1.1681e-16 -0.117577 2.39434e-17 -2.76668e-33)
(0.273842 -0.6574 -7.00129e-17 -0.274165 -8.20545e-18 -9.69789e-35)
(0.41473 -0.50606 1.46589e-17 -0.41636 -5.67974e-17 1.65418e-33)
(0.588473 -0.352878 -1.25358e-16 -0.589656 -1.85299e-18 -1.8701e-34)
(-3.4243 -1.01568 3.78547e-18 3.42309 1.25246e-17 0)
(-1.31194 -1.37031 2.82209e-17 1.31069 -1.577e-17 -1.37857e-34)
(-1.042 -1.64773 -1.57252e-17 1.04019 -1.28381e-17 5.46401e-35)
(-0.483474 -1.56549 -1.36711e-17 0.483231 6.21566e-18 0)
(-0.253654 -1.44671 -5.88436e-17 0.251438 2.55052e-17 -2.40485e-34)
(-0.0241221 -1.26267 1.92048e-17 0.0243568 -1.91958e-17 1.97824e-34)
(0.142191 -1.0877 -1.25456e-16 -0.1445 6.81643e-17 -7.09683e-34)
(0.28352 -0.889799 1.53435e-16 -0.283326 -7.03205e-18 2.21718e-33)
(0.416077 -0.718593 1.73401e-17 -0.41811 -2.67477e-17 1.99877e-33)
(0.534423 -0.528674 -7.29738e-17 -0.534715 5.5705e-17 -1.53388e-33)
(0.642448 -0.366054 1.20728e-17 -0.643922 2.06525e-17 0)
(0.786843 -0.195402 -1.95808e-17 -0.787913 4.93188e-17 0)
(-3.52169 -1.74959 2.86653e-18 3.52064 4.68233e-18 0)
(-1.09302 -1.49696 -1.50944e-17 1.09193 5.03957e-17 6.24725e-34)
(-0.722011 -1.66017 1.07582e-16 0.720429 -3.84385e-17 -2.11054e-33)
(-0.125977 -1.44528 -1.39464e-17 0.125768 -2.60084e-17 0)
(0.0974031 -1.28494 4.13894e-17 -0.0993439 -1.79278e-17 7.69433e-35)
(0.302921 -1.07026 -5.45845e-17 -0.30271 1.9372e-17 -6.32934e-35)
(0.441463 -0.879084 1.3888e-16 -0.443485 -1.21933e-17 -6.17223e-34)
(0.545813 -0.675765 1.14639e-16 -0.545639 -3.86336e-17 -2.52732e-34)
(0.647971 -0.496611 -1.74837e-16 -0.649752 3.39887e-17 1.5304e-33)
(0.729073 -0.305915 4.4571e-17 -0.729325 1.74381e-17 5.51259e-34)
(0.806223 -0.140536 -1.24686e-17 -0.807514 -2.22142e-17 0)
(0.921316 0.0409007 -1.93321e-17 -0.922252 3.80054e-17 0)
(-3.38955 -2.56666 4.95688e-18 3.38866 5.40167e-18 0)
(-0.874184 -1.58545 6.1157e-17 0.87326 -1.02456e-18 -4.61635e-34)
(-0.452273 -1.60238 -4.19867e-17 0.450936 -1.66722e-17 1.79436e-33)
(0.136404 -1.23534 -6.68638e-17 -0.136582 3.76724e-17 1.96506e-35)
(0.342397 -1.03143 2.30041e-17 -0.344035 -1.23588e-17 1.86231e-35)
(0.519007 -0.78887 1.33039e-17 -0.51883 -4.95207e-17 -2.08231e-34)
(0.629793 -0.586347 2.35072e-17 -0.6315 1.39585e-17 0)
(0.701775 -0.385357 -7.96921e-17 -0.701628 -2.86897e-17 5.26917e-34)
(0.776383 -0.204394 -1.6416e-16 -0.777886 3.83001e-17 -3.43719e-33)
(0.826258 -0.0211312 3.77651e-17 -0.82647 2.21285e-17 -5.71557e-34)
(0.876953 0.140341 -3.41422e-17 -0.878041 1.09053e-17 -7.17672e-34)
(0.96454 0.326941 8.87114e-17 -0.965329 -7.49464e-18 1.19101e-33)
(-2.99972 -3.37955 2.37113e-17 2.99901 -1.44754e-18 -7.06557e-35)
(-0.66252 -1.64241 -3.51934e-17 0.661788 -7.84646e-18 5.46838e-35)
(-0.24863 -1.50249 -6.66959e-17 0.247567 4.49796e-17 2.07911e-34)
(0.281722 -0.981449 1.60488e-16 -0.281859 -4.90683e-17 -9.91404e-34)
(0.458396 -0.735779 -1.562e-16 -0.459699 4.72934e-17 3.98271e-34)
(0.601449 -0.469162 1.37454e-16 -0.601302 -8.1338e-18 -1.04751e-33)
(0.685399 -0.259321 7.18774e-17 -0.686756 -9.8128e-17 1.98305e-33)
(0.731321 -0.0655999 -2.02617e-16 -0.731199 -1.01313e-17 -2.53905e-33)
(0.782531 0.112997 -3.22352e-17 -0.783725 4.55368e-17 1.31984e-33)
(0.809055 0.283953 -1.90479e-18 -0.809219 1.88902e-19 1.00133e-37)
(0.839199 0.437412 7.68188e-18 -0.840063 4.63965e-17 3.16736e-34)
(0.902222 0.625098 8.50271e-17 -0.902847 -1.91407e-17 -1.19101e-33)
(-2.35889 -4.09489 7.27477e-18 2.35837 1.47589e-17 0)
(-0.461673 -1.67568 2.76242e-17 0.461137 -8.38422e-18 -5.78803e-35)
(-0.114581 -1.39157 5.7055e-17 0.113806 1.33382e-18 -1.94051e-34)
(0.307476 -0.733583 -1.22743e-16 -0.307576 2.91677e-17 1.17993e-33)
(0.443405 -0.452028 1.2276e-16 -0.444354 -1.25204e-17 -6.25243e-34)
(0.548826 -0.166242 -4.15705e-17 -0.548719 3.89354e-17 3.89061e-34)
(0.60732 0.0478876 -8.94738e-17 -0.608309 -8.404e-18 6.61992e-34)
(0.633939 0.232525 5.91404e-17 -0.63385 -1.30787e-17 6.19374e-34)
(0.6663 0.406779 6.39126e-17 -0.66717 3.26733e-17 8.8002e-34)
(0.677756 0.56424 5.72043e-17 -0.677874 7.25971e-18 -5.60594e-35)
(0.693603 0.708404 1.69562e-16 -0.694232 -2.87509e-17 -1.64695e-34)
(0.735427 0.89485 -8.48969e-17 -0.735881 -3.21313e-18 1.83633e-35)
(-1.5084 -4.62705 7.42288e-18 1.50809 -2.04575e-18 0)
(-0.271686 -1.69281 -4.55267e-17 0.271363 1.58867e-17 5.32006e-35)
(-0.041162 -1.29867 -5.25195e-17 0.0406921 -2.32076e-18 1.20965e-34)
(0.230711 -0.53816 6.82814e-17 -0.230766 -1.02525e-17 4.9159e-35)
(0.316441 -0.230298 -6.43785e-17 -0.317016 2.01833e-17 -2.93e-35)
(0.381049 0.0688463 1.48788e-17 -0.380976 -1.87342e-17 0)
(0.415468 0.285196 -4.20187e-17 -0.416068 3.03913e-17 3.89457e-34)
(0.428725 0.461862 2.65438e-17 -0.428662 2.89667e-17 -2.09134e-34)
(0.446281 0.631867 -1.62763e-17 -0.446807 8.11715e-18 4.70746e-34)
(0.449874 0.778083 -1.31802e-18 -0.449939 2.32224e-17 8.29593e-34)
(0.456893 0.914324 -6.3634e-18 -0.45727 -3.09884e-17 -2.3797e-34)
(0.480565 1.09885 3.43686e-17 -0.480835 -3.01847e-17 -6.02708e-34)
(-0.519007 -4.91077 1.51689e-18 0.518898 -1.29704e-17 0)
(-0.089603 -1.69975 3.58557e-18 0.0894923 -1.14948e-17 5.96741e-35)
(-0.00887523 -1.24616 -9.30037e-18 0.00871524 2.09059e-17 4.12036e-35)
(0.0849962 -0.430798 -1.28035e-17 -0.0850121 8.83798e-19 -9.33767e-36)
(0.1143 -0.109021 4.21987e-17 -0.114495 -1.2981e-17 3.71375e-36)
(0.136067 0.196984 -1.21185e-17 -0.136037 1.71517e-18 -1.18801e-35)
(0.147421 0.414239 8.24469e-18 -0.147625 3.13237e-18 1.97387e-36)
(0.151358 0.586304 -1.88409e-17 -0.151332 6.6175e-18 2.07485e-34)
(0.156885 0.75375 2.58943e-17 -0.157063 -2.64889e-18 9.94173e-35)
(0.157502 0.893624 -1.29482e-17 -0.157518 2.90457e-18 1.93737e-34)
(0.159409 1.02535 -4.06137e-18 -0.159534 2.93505e-19 2.66178e-34)
(0.167042 1.20857 7.27394e-18 -0.16713 -9.90197e-18 -4.41151e-35)
(0.519 -4.91076 2.79406e-18 -0.518898 9.63839e-18 -2.04235e-35)
(0.0896179 -1.69975 2.22361e-17 -0.0895102 1.54056e-17 -3.51684e-35)
(0.00888412 -1.24615 2.93709e-18 -0.00872895 3.81575e-18 -3.35312e-35)
(-0.0849846 -0.430796 -8.86916e-18 0.0850145 1.01158e-19 4.97337e-35)
(-0.114284 -0.109017 -1.14758e-17 0.114475 -8.32024e-18 -9.50517e-35)
(-0.136051 0.196986 1.07407e-17 0.136046 2.81359e-18 -1.75334e-35)
(-0.147402 0.414244 -7.74469e-18 0.147601 -1.02069e-17 -6.80255e-36)
(-0.151348 0.586306 -1.58121e-18 0.151347 -2.27448e-17 -1.45278e-34)
(-0.156871 0.753754 -9.69633e-18 0.157048 -4.11664e-18 -1.96302e-34)
(-0.157502 0.893624 -7.32289e-18 0.157541 1.0333e-17 -1.65266e-34)
(-0.159397 1.02535 -7.38503e-19 0.15953 1.61015e-17 -4.26961e-36)
(-0.167048 1.20857 -2.86695e-19 0.16715 -2.61999e-18 1.52609e-35)
(1.5084 -4.62707 1.38373e-17 -1.5081 -3.33818e-18 2.09572e-35)
(0.271704 -1.69281 -4.77862e-17 -0.271382 -1.09438e-17 -4.25276e-34)