/*--------------------------------*- C++ -*----------------------------------*\
| =========                 |                                                 |
| \\      /  F ield         | foam-extend: Open Source CFD                    |
|  \\    /   O peration     | Version:  3.0                                   |
|   \\  /    A nd           | Web:         http://www.extend-project.de       |
|    \\/     M anipulation  |                                                 |
\*---------------------------------------------------------------------------*/
FoamFile
{
    version     2.0;
    format      ascii;
    class       volScalarField;
    location    "12";
    object      p;
}
// * * * * * * * * * * * * * * * * * * * * * * * * * * * * * * * * * * * * * //

dimensions      [0 0 0 0 0 0 0];

internalField   nonuniform List<scalar> 
7680
(
-0.23463
-0.222419
-0.213324
-0.20377
-0.196762
-0.189174
-0.183719
-0.177627
-0.173355
-0.168429
-0.165077
-0.161073
-0.158446
-0.155183
-0.153131
-0.150467
-0.148873
-0.146695
-0.145464
-0.143677
-0.142729
-0.141255
-0.14052
-0.139287
-0.138703
-0.137649
-0.137155
-0.136219
-0.13576
-0.134881
-0.134399
-0.133518
-0.132953
-0.132007
-0.131294
-0.130214
-0.129284
-0.127993
-0.126766
-0.125177
-0.234407
-0.222208
-0.213123
-0.203579
-0.196579
-0.189
-0.18355
-0.177465
-0.173198
-0.168277
-0.164929
-0.16093
-0.158306
-0.155046
-0.152997
-0.150336
-0.148745
-0.146569
-0.14534
-0.143556
-0.14261
-0.141138
-0.140404
-0.139174
-0.13859
-0.137538
-0.137046
-0.136111
-0.135652
-0.134775
-0.134294
-0.133414
-0.13285
-0.131904
-0.131192
-0.130112
-0.129183
-0.127892
-0.126665
-0.125077
-0.233895
-0.221724
-0.21266
-0.203138
-0.196155
-0.188593
-0.183157
-0.177086
-0.17283
-0.16792
-0.164581
-0.160591
-0.157974
-0.154723
-0.15268
-0.150026
-0.148439
-0.146269
-0.145044
-0.143264
-0.142321
-0.140853
-0.140122
-0.138896
-0.138314
-0.137265
-0.136775
-0.135842
-0.135386
-0.134511
-0.134031
-0.133153
-0.13259
-0.131647
-0.130936
-0.129859
-0.128931
-0.127643
-0.126419
-0.124835
-0.233171
-0.221039
-0.212003
-0.202513
-0.195552
-0.188014
-0.182595
-0.176544
-0.172301
-0.167408
-0.164079
-0.160103
-0.157494
-0.154254
-0.152217
-0.149572
-0.147991
-0.145828
-0.144607
-0.142834
-0.141894
-0.140431
-0.139703
-0.138481
-0.137902
-0.136856
-0.136368
-0.135438
-0.134983
-0.134111
-0.133633
-0.132758
-0.132196
-0.131255
-0.130547
-0.129472
-0.128547
-0.127264
-0.126044
-0.124467
-0.232158
-0.22008
-0.211085
-0.201637
-0.194707
-0.187203
-0.181809
-0.175786
-0.171562
-0.166691
-0.163378
-0.15942
-0.156824
-0.153598
-0.151572
-0.148939
-0.147365
-0.145213
-0.143998
-0.142234
-0.141299
-0.139843
-0.139119
-0.137902
-0.137326
-0.136286
-0.1358
-0.134875
-0.134422
-0.133554
-0.133078
-0.132207
-0.131647
-0.130711
-0.130005
-0.128935
-0.128014
-0.126738
-0.125523
-0.123957
-0.230936
-0.218922
-0.209976
-0.200578
-0.193686
-0.186222
-0.180857
-0.174865
-0.170665
-0.16582
-0.162525
-0.158588
-0.156006
-0.152798
-0.150782
-0.148164
-0.146599
-0.144459
-0.143251
-0.141496
-0.140566
-0.139118
-0.138398
-0.137188
-0.136616
-0.135581
-0.135097
-0.134177
-0.133727
-0.132863
-0.132389
-0.131522
-0.130965
-0.130033
-0.129331
-0.128267
-0.127351
-0.126082
-0.124876
-0.123322
-0.229427
-0.217493
-0.208606
-0.199271
-0.192425
-0.185011
-0.179682
-0.173731
-0.169559
-0.164746
-0.161473
-0.157563
-0.154999
-0.151813
-0.149811
-0.147211
-0.145657
-0.143531
-0.142332
-0.140589
-0.139666
-0.138229
-0.137514
-0.136312
-0.135743
-0.134715
-0.134235
-0.133321
-0.132874
-0.132016
-0.131544
-0.130683
-0.13013
-0.129204
-0.128506
-0.12745
-0.12654
-0.125282
-0.124085
-0.122545
-0.227711
-0.215867
-0.207048
-0.197783
-0.190989
-0.183631
-0.178342
-0.172436
-0.168296
-0.16352
-0.160272
-0.156392
-0.153847
-0.150685
-0.148699
-0.146118
-0.144577
-0.142467
-0.141277
-0.139547
-0.138631
-0.137204
-0.136495
-0.135302
-0.134738
-0.133717
-0.133241
-0.132333
-0.131889
-0.131037
-0.130568
-0.129714
-0.129163
-0.128245
-0.127552
-0.126504
-0.125601
-0.124355
-0.123169
-0.121646
-0.225712
-0.213974
-0.205232
-0.19605
-0.189317
-0.182025
-0.176783
-0.17093
-0.166827
-0.162094
-0.158875
-0.15503
-0.152508
-0.149375
-0.147407
-0.14485
-0.143322
-0.141231
-0.140053
-0.138339
-0.137431
-0.136017
-0.135314
-0.134132
-0.133573
-0.132562
-0.132089
-0.13119
-0.130749
-0.129904
-0.12944
-0.128592
-0.128047
-0.127136
-0.126449
-0.125412
-0.124517
-0.123284
-0.122111
-0.120606
-0.223511
-0.211887
-0.203232
-0.19414
-0.187473
-0.180252
-0.175063
-0.169267
-0.165204
-0.160518
-0.157331
-0.153524
-0.151027
-0.147925
-0.145976
-0.143444
-0.141931
-0.139861
-0.138694
-0.136997
-0.136098
-0.134698
-0.134002
-0.132831
-0.132277
-0.131276
-0.130807
-0.129916
-0.129479
-0.128643
-0.128182
-0.127343
-0.126802
-0.125901
-0.12522
-0.124194
-0.123309
-0.12209
-0.12093
-0.119446
-0.22103
-0.209537
-0.200979
-0.191989
-0.185396
-0.178257
-0.173126
-0.167395
-0.163379
-0.158745
-0.155594
-0.15183
-0.149362
-0.146295
-0.144368
-0.141865
-0.14037
-0.138323
-0.137169
-0.135491
-0.134603
-0.133219
-0.13253
-0.131373
-0.130825
-0.129835
-0.129371
-0.12849
-0.128058
-0.127231
-0.126775
-0.125945
-0.12541
-0.124519
-0.123846
-0.122833
-0.121958
-0.120756
-0.119611
-0.118148
-0.218352
-0.206999
-0.198545
-0.189665
-0.183153
-0.1761
-0.171032
-0.165371
-0.161403
-0.156826
-0.153714
-0.149996
-0.147557
-0.144528
-0.142625
-0.140152
-0.138675
-0.136653
-0.135513
-0.133856
-0.132978
-0.131611
-0.13093
-0.129787
-0.129245
-0.128267
-0.127809
-0.126938
-0.12651
-0.125693
-0.125242
-0.124422
-0.123893
-0.123014
-0.122349
-0.121349
-0.120486
-0.1193
-0.118172
-0.116731
-0.215401
-0.204202
-0.195864
-0.187104
-0.180681
-0.173725
-0.168726
-0.163142
-0.159229
-0.154715
-0.151645
-0.147978
-0.145573
-0.142585
-0.140708
-0.138269
-0.136813
-0.134819
-0.133695
-0.13206
-0.131195
-0.129846
-0.129175
-0.128047
-0.127513
-0.126547
-0.126095
-0.125237
-0.124814
-0.124008
-0.123563
-0.122755
-0.122233
-0.121366
-0.120711
-0.119725
-0.118875
-0.117708
-0.116597
-0.115179
-0.212258
-0.201224
-0.193007
-0.184376
-0.178047
-0.171193
-0.166267
-0.160765
-0.156909
-0.152461
-0.149437
-0.145823
-0.143454
-0.140509
-0.13866
-0.136257
-0.134822
-0.132857
-0.131749
-0.130138
-0.129285
-0.127956
-0.127295
-0.126183
-0.125656
-0.124705
-0.124259
-0.123413
-0.122996
-0.122201
-0.121763
-0.120966
-0.120452
-0.119598
-0.118952
-0.117982
-0.117146
-0.115998
-0.114906
-0.113512
-0.208848
-0.197992
-0.189909
-0.181417
-0.17519
-0.168447
-0.163601
-0.158189
-0.154396
-0.15002
-0.147044
-0.143489
-0.141159
-0.138262
-0.136443
-0.134079
-0.132667
-0.130735
-0.129645
-0.128061
-0.127221
-0.125914
-0.125263
-0.12417
-0.123651
-0.122715
-0.122276
-0.121444
-0.121034
-0.120252
-0.11982
-0.119037
-0.118531
-0.117692
-0.117057
-0.116104
-0.115282
-0.114155
-0.113082
-0.111714
-0.205255
-0.194586
-0.186642
-0.178297
-0.172178
-0.165551
-0.160788
-0.15547
-0.151742
-0.147441
-0.144517
-0.141024
-0.138733
-0.135887
-0.134099
-0.131776
-0.130389
-0.128489
-0.127418
-0.125861
-0.125036
-0.123751
-0.123111
-0.122036
-0.121526
-0.120606
-0.120175
-0.119356
-0.118953
-0.118185
-0.117761
-0.116991
-0.116494
-0.115669
-0.115046
-0.114111
-0.113304
-0.112198
-0.111146
-0.109804
-0.201401
-0.190933
-0.183139
-0.174952
-0.168949
-0.162447
-0.157775
-0.152557
-0.148899
-0.14468
-0.141812
-0.138385
-0.136138
-0.133345
-0.131592
-0.129313
-0.127952
-0.126088
-0.125038
-0.12351
-0.122701
-0.12144
-0.120812
-0.119758
-0.119258
-0.118355
-0.117932
-0.117129
-0.116733
-0.11598
-0.115563
-0.114808
-0.114321
-0.113513
-0.112902
-0.111986
-0.111195
-0.110112
-0.109081
-0.107767
-0.197372
-0.187114
-0.179476
-0.171453
-0.16557
-0.159199
-0.15462
-0.149507
-0.145923
-0.141789
-0.138978
-0.135619
-0.133417
-0.130681
-0.128962
-0.126729
-0.125395
-0.123569
-0.122539
-0.121042
-0.120249
-0.119013
-0.118398
-0.117365
-0.116874
-0.115989
-0.115574
-0.114787
-0.1144
-0.113661
-0.113253
-0.112514
-0.112037
-0.111245
-0.110647
-0.10975
-0.108977
-0.107916
-0.106908
-0.105622
-0.193091
-0.183056
-0.175585
-0.167737
-0.161982
-0.15575
-0.151271
-0.14627
-0.142764
-0.13872
-0.135971
-0.132686
-0.130532
-0.127856
-0.126175
-0.12399
-0.122686
-0.1209
-0.119893
-0.118428
-0.117653
-0.116444
-0.115842
-0.114831
-0.114352
-0.113487
-0.113081
-0.112311
-0.111932
-0.11121
-0.110811
-0.110088
-0.109622
-0.108848
-0.108264
-0.107387
-0.106632
-0.105596
-0.104611
-0.103355
-0.188643
-0.17884
-0.171541
-0.163874
-0.158252
-0.152164
-0.147788
-0.142902
-0.139478
-0.135527
-0.132841
-0.129632
-0.127528
-0.124913
-0.123271
-0.121137
-0.119863
-0.118118
-0.117134
-0.115703
-0.114945
-0.113764
-0.113176
-0.112189
-0.11172
-0.110875
-0.110478
-0.109726
-0.109356
-0.108651
-0.108261
-0.107555
-0.1071
-0.106345
-0.105775
-0.104919
-0.104182
-0.103172
-0.102211
-0.100985
-0.183953
-0.174394
-0.167278
-0.159802
-0.154321
-0.148385
-0.144119
-0.139355
-0.136016
-0.132164
-0.129546
-0.126417
-0.124366
-0.121817
-0.120216
-0.118135
-0.116893
-0.115192
-0.114233
-0.112838
-0.112099
-0.110948
-0.110375
-0.109412
-0.108955
-0.108131
-0.107745
-0.107012
-0.106651
-0.105964
-0.105584
-0.104897
-0.104453
-0.103718
-0.103163
-0.102329
-0.101612
-0.100627
-0.0996916
-0.0984977
-0.179106
-0.169799
-0.16287
-0.155592
-0.150255
-0.144476
-0.140323
-0.135684
-0.132434
-0.128684
-0.126135
-0.123088
-0.121091
-0.118609
-0.117051
-0.115025
-0.113816
-0.112159
-0.111226
-0.109867
-0.109148
-0.108027
-0.107469
-0.106532
-0.106087
-0.105285
-0.104908
-0.104195
-0.103844
-0.103175
-0.102805
-0.102136
-0.101705
-0.100989
-0.10045
-0.0996392
-0.0989414
-0.0979841
-0.097074
-0.0959128
-0.174027
-0.164985
-0.158253
-0.151182
-0.145998
-0.140383
-0.136348
-0.131842
-0.128684
-0.125041
-0.122565
-0.119605
-0.117666
-0.115255
-0.113741
-0.111773
-0.110598
-0.108989
-0.108082
-0.106763
-0.106065
-0.104976
-0.104434
-0.103523
-0.103092
-0.102312
-0.101947
-0.101254
-0.100913
-0.100264
-0.0999056
-0.0992559
-0.0988375
-0.098143
-0.0976194
-0.0968329
-0.0961558
-0.0952266
-0.0943435
-0.0932162
-0.168801
-0.160031
-0.153502
-0.146643
-0.141615
-0.136169
-0.132256
-0.127885
-0.124822
-0.121289
-0.118887
-0.116016
-0.114135
-0.111796
-0.110328
-0.10842
-0.10728
-0.105719
-0.10484
-0.10356
-0.102883
-0.101827
-0.101301
-0.100418
-0.099999
-0.0992432
-0.0988888
-0.0982171
-0.0978866
-0.0972569
-0.0969097
-0.09628
-0.0958746
-0.0952015
-0.0946943
-0.0939321
-0.0932762
-0.0923758
-0.0915201
-0.0904276
-0.163355
-0.154869
-0.148551
-0.141914
-0.137049
-0.131779
-0.127993
-0.123764
-0.120801
-0.117382
-0.115058
-0.112281
-0.110461
-0.108198
-0.106778
-0.104931
-0.103829
-0.102319
-0.101468
-0.10023
-0.0995751
-0.0985535
-0.0980452
-0.0971911
-0.096786
-0.0960551
-0.0957125
-0.095063
-0.0947436
-0.0941347
-0.0937993
-0.0931905
-0.0927989
-0.0921482
-0.0916581
-0.0909214
-0.0902874
-0.089417
-0.0885898
-0.0875334
-0.157774
-0.149578
-0.143476
-0.137066
-0.132367
-0.127278
-0.123621
-0.119537
-0.116675
-0.113373
-0.111129
-0.108447
-0.106689
-0.104504
-0.103132
-0.101349
-0.100284
-0.0988262
-0.0980044
-0.0968089
-0.096176
-0.0951895
-0.0946986
-0.0938738
-0.0934827
-0.0927768
-0.0924461
-0.091819
-0.0915107
-0.090923
-0.0905994
-0.0900118
-0.089634
-0.0890061
-0.0885333
-0.0878225
-0.0872109
-0.0863709
-0.0855728
-0.0845533
-0.151983
-0.144089
-0.138212
-0.132038
-0.127512
-0.12261
-0.119089
-0.115155
-0.112399
-0.109219
-0.107058
-0.104475
-0.102782
-0.100678
-0.0993567
-0.0976393
-0.0966142
-0.0952103
-0.0944191
-0.093268
-0.0926587
-0.0917088
-0.0912364
-0.0904423
-0.090066
-0.0893866
-0.0890684
-0.0884648
-0.0881684
-0.0876028
-0.0872916
-0.0867263
-0.086363
-0.0857589
-0.0853041
-0.0846201
-0.0840318
-0.0832234
-0.0824553
-0.081474
-0.14607
-0.138483
-0.132835
-0.126902
-0.122552
-0.117841
-0.114457
-0.110676
-0.108028
-0.104971
-0.102895
-0.100412
-0.0987855
-0.0967632
-0.0954939
-0.0938435
-0.0928584
-0.0915093
-0.090749
-0.0896428
-0.0890574
-0.0881446
-0.0876906
-0.0869276
-0.0865661
-0.0859133
-0.0856078
-0.0850279
-0.0847433
-0.0842001
-0.0839013
-0.0833584
-0.0830097
-0.0824296
-0.0819931
-0.0813363
-0.0807715
-0.0799953
-0.0792578
-0.0783153
-0.139961
-0.132692
-0.12728
-0.121596
-0.117429
-0.112916
-0.109674
-0.106052
-0.103515
-0.100588
-0.0985983
-0.0962203
-0.0946623
-0.0927252
-0.0915096
-0.0899288
-0.0889855
-0.0876932
-0.0869653
-0.0859059
-0.0853454
-0.0844713
-0.0840368
-0.0833063
-0.0829604
-0.0823354
-0.0820432
-0.0814881
-0.0812159
-0.0806961
-0.0804104
-0.0798909
-0.0795574
-0.0790023
-0.0785847
-0.0779561
-0.0774157
-0.0766726
-0.0759667
-0.0750643
-0.133741
-0.126795
-0.121625
-0.116193
-0.112212
-0.107899
-0.104802
-0.101341
-0.0989171
-0.0961199
-0.0942192
-0.0919472
-0.0904586
-0.0886078
-0.0874464
-0.085936
-0.0850348
-0.0838002
-0.0831048
-0.0820927
-0.0815573
-0.0807222
-0.0803072
-0.0796094
-0.079279
-0.0786821
-0.0784031
-0.0778731
-0.0776133
-0.0771169
-0.0768443
-0.0763483
-0.0760301
-0.0755001
-0.0751017
-0.0745016
-0.0739858
-0.0732764
-0.0726025
-0.0717408
-0.127338
-0.120726
-0.115804
-0.110633
-0.106843
-0.102738
-0.0997893
-0.0964953
-0.094188
-0.0915254
-0.0897163
-0.0875538
-0.0861371
-0.0843756
-0.0832704
-0.0818329
-0.0809755
-0.0798006
-0.079139
-0.0781759
-0.0776667
-0.0768722
-0.0764776
-0.0758138
-0.0754998
-0.074932
-0.0746669
-0.0741628
-0.0739161
-0.0734441
-0.0731852
-0.0727136
-0.0724113
-0.0719074
-0.0715287
-0.070958
-0.0704676
-0.0697928
-0.0691519
-0.0683321
-0.120839
-0.114564
-0.109894
-0.104987
-0.101391
-0.0974957
-0.0946977
-0.0915723
-0.0893829
-0.0868566
-0.0851401
-0.0830882
-0.0817441
-0.0800728
-0.0790243
-0.0776605
-0.076847
-0.0757324
-0.0751048
-0.0741911
-0.0737082
-0.0729545
-0.0725803
-0.0719506
-0.0716529
-0.0711144
-0.0708632
-0.0703852
-0.0701514
-0.0697039
-0.0694586
-0.0690115
-0.0687251
-0.0682475
-0.0678887
-0.0673477
-0.0668829
-0.0662432
-0.0656356
-0.0648582
-0.114171
-0.108243
-0.103831
-0.0991962
-0.0957991
-0.0921198
-0.0894771
-0.0865249
-0.0844572
-0.082071
-0.08045
-0.0785121
-0.0772429
-0.0756645
-0.0746745
-0.0733867
-0.0726188
-0.0715663
-0.070974
-0.0701113
-0.0696557
-0.0689442
-0.0685913
-0.0679969
-0.0677163
-0.0672082
-0.0669714
-0.0665204
-0.0663002
-0.065878
-0.0656469
-0.0652252
-0.0649553
-0.0645047
-0.0641664
-0.063656
-0.0632175
-0.0626138
-0.0620404
-0.0613066
-0.10742
-0.101843
-0.0976919
-0.0933315
-0.0901357
-0.0866743
-0.0841882
-0.081411
-0.0794659
-0.0772212
-0.0756965
-0.0738735
-0.0726797
-0.071195
-0.0702639
-0.0690526
-0.0683304
-0.0673404
-0.0667835
-0.0659722
-0.0655437
-0.0648747
-0.0645429
-0.0639841
-0.0637204
-0.0632427
-0.0630203
-0.0625964
-0.0623896
-0.0619928
-0.0617759
-0.0613796
-0.0611261
-0.0607027
-0.060385
-0.0599053
-0.0594934
-0.058926
-0.0583872
-0.0576974
-0.100514
-0.0952967
-0.0914136
-0.0873345
-0.084345
-0.0811071
-0.0787817
-0.0761839
-0.0743647
-0.0722652
-0.0708393
-0.0691343
-0.0680181
-0.0666296
-0.0657591
-0.0646264
-0.0639513
-0.0630258
-0.0625053
-0.0617469
-0.0613467
-0.0607214
-0.0604117
-0.0598894
-0.0596434
-0.0591971
-0.0589897
-0.0585937
-0.0584009
-0.0580303
-0.057828
-0.0574579
-0.0572215
-0.056826
-0.0565295
-0.0560814
-0.0556966
-0.0551664
-0.054663
-0.0540182
-0.0935403
-0.0886852
-0.085072
-0.0812764
-0.0784947
-0.075482
-0.0733184
-0.0709013
-0.0692088
-0.0672554
-0.0659289
-0.0643427
-0.0633043
-0.0620126
-0.0612029
-0.0601492
-0.0595214
-0.0586605
-0.0581766
-0.0574712
-0.0570992
-0.0565176
-0.0562298
-0.0557443
-0.0555157
-0.0551008
-0.0549082
-0.0545402
-0.0543612
-0.0540169
-0.0538291
-0.0534853
-0.0532658
-0.0528984
-0.052623
-0.0522066
-0.0518492
-0.0513565
-0.0508886
-0.0502894
-0.0864272
-0.0819423
-0.0786049
-0.0750989
-0.0725298
-0.0697472
-0.0677491
-0.0655169
-0.063954
-0.0621501
-0.0609254
-0.0594608
-0.0585022
-0.0573097
-0.0565624
-0.0555897
-0.0550105
-0.0542159
-0.0537696
-0.0531186
-0.0527757
-0.0522392
-0.051974
-0.0515262
-0.0513157
-0.0509332
-0.050756
-0.0504168
-0.0502521
-0.0499348
-0.0497621
-0.0494452
-0.0492431
-0.0489044
-0.0486508
-0.0482668
-0.0479374
-0.0474829
-0.0470515
-0.0464985
-0.0792606
-0.0751482
-0.0720881
-0.0688734
-0.0665179
-0.0639666
-0.0621349
-0.0600883
-0.0586556
-0.0570019
-0.0558793
-0.0545367
-0.0536582
-0.0525651
-0.0518804
-0.0509889
-0.0504582
-0.04973
-0.0493212
-0.0487248
-0.0484108
-0.0479193
-0.0476766
-0.0472665
-0.047074
-0.0467237
-0.0465618
-0.0462512
-0.0461008
-0.0458104
-0.0456526
-0.0453626
-0.0451779
-0.044868
-0.044636
-0.0442847
-0.0439833
-0.0435673
-0.0431724
-0.0426661
-0.0719702
-0.0682372
-0.0654598
-0.0625419
-0.0604043
-0.0580889
-0.0564267
-0.0545696
-0.0532698
-0.0517693
-0.050751
-0.049533
-0.0487363
-0.0477448
-0.0471241
-0.0463156
-0.0458347
-0.0451745
-0.0448042
-0.0442636
-0.0439794
-0.043534
-0.0433145
-0.042943
-0.0427691
-0.042452
-0.0423058
-0.0420247
-0.041889
-0.0416262
-0.0414838
-0.0412213
-0.0410545
-0.040774
-0.0405643
-0.0402461
-0.0399734
-0.0395965
-0.0392388
-0.03878
-0.0646417
-0.0612895
-0.0587957
-0.0561758
-0.0542566
-0.0521777
-0.0506857
-0.0490184
-0.0478518
-0.0465048
-0.045591
-0.0444978
-0.0437829
-0.0428931
-0.0423363
-0.0416108
-0.0411796
-0.0405873
-0.0402554
-0.0397706
-0.0395159
-0.0391166
-0.0389201
-0.0385871
-0.0384316
-0.0381474
-0.0380168
-0.0377651
-0.0376439
-0.0374085
-0.0372813
-0.0370464
-0.0368974
-0.0366462
-0.0364586
-0.0361737
-0.0359296
-0.035592
-0.0352717
-0.0348607
-0.0572052
-0.0542401
-0.0520346
-0.0497175
-0.0480205
-0.0461822
-0.0448631
-0.0433891
-0.042358
-0.0411673
-0.0403599
-0.0393937
-0.0387624
-0.0379762
-0.0374846
-0.0368438
-0.0364633
-0.0359403
-0.0356478
-0.0352198
-0.0349956
-0.0346433
-0.0344705
-0.0341769
-0.0340403
-0.0337899
-0.0336754
-0.0334536
-0.0333474
-0.0331402
-0.0330287
-0.0328218
-0.0326909
-0.0324697
-0.0323048
-0.0320537
-0.0318388
-0.0315411
-0.0312587
-0.030896
-0.0497463
-0.0471688
-0.0452519
-0.0432381
-0.0417634
-0.0401659
-0.0390199
-0.0377391
-0.0368435
-0.0358092
-0.0351081
-0.0342689
-0.0337209
-0.0330382
-0.0326117
-0.0320554
-0.0317255
-0.0312717
-0.0310181
-0.0306469
-0.0304528
-0.0301474
-0.029998
-0.0297436
-0.0296257
-0.0294088
-0.0293101
-0.0291182
-0.0290267
-0.0288475
-0.0287514
-0.0285725
-0.0284597
-0.0282683
-0.0281259
-0.0279087
-0.0277229
-0.0274652
-0.0272208
-0.0269066
-0.0421954
-0.040011
-0.0383869
-0.0366805
-0.0354315
-0.0340783
-0.0331079
-0.0320233
-0.0312653
-0.0303897
-0.0297966
-0.0290864
-0.0286232
-0.0280457
-0.0276854
-0.0272151
-0.0269367
-0.0265532
-0.0263396
-0.0260262
-0.0258629
-0.0256053
-0.0254799
-0.0252655
-0.0251668
-0.0249842
-0.0249018
-0.0247403
-0.0246641
-0.0245133
-0.0244332
-0.0242827
-0.0241883
-0.0240274
-0.0239079
-0.023725
-0.0235687
-0.0233515
-0.0231456
-0.0228806
-0.0346381
-0.0328465
-0.0315148
-0.0301157
-0.029092
-0.0279827
-0.0271878
-0.026299
-0.0256783
-0.024961
-0.0244756
-0.0238942
-0.0235153
-0.0230427
-0.0227484
-0.0223637
-0.0221365
-0.0218231
-0.0216491
-0.0213931
-0.0212604
-0.0210502
-0.0209486
-0.0207738
-0.0206941
-0.0205455
-0.0204791
-0.0203478
-0.0202865
-0.0201641
-0.0200995
-0.0199774
-0.0199012
-0.0197705
-0.0196738
-0.0195252
-0.0193984
-0.0192217
-0.0190543
-0.0188384
-0.0270052
-0.025611
-0.0245753
-0.023487
-0.0226913
-0.021829
-0.0212116
-0.0205211
-0.0200395
-0.0194827
-0.0191065
-0.0186554
-0.0183622
-0.017996
-0.0177686
-0.0174708
-0.0172958
-0.0170535
-0.0169198
-0.0167222
-0.0166207
-0.0164587
-0.0163814
-0.016247
-0.0161867
-0.0160727
-0.0160228
-0.0159223
-0.0158763
-0.0157827
-0.0157342
-0.0156408
-0.0155833
-0.0154832
-0.0154098
-0.0152958
-0.0151988
-0.0150631
-0.0149345
-0.0147683
-0.019382
-0.018384
-0.0176433
-0.016865
-0.0162966
-0.0156804
-0.0152399
-0.0147469
-0.0144038
-0.0140068
-0.0137392
-0.013418
-0.01321
-0.0129495
-0.0127886
-0.0125773
-0.0124539
-0.0122822
-0.0121885
-0.0120489
-0.0119781
-0.0118641
-0.0118106
-0.0117163
-0.0116751
-0.0115954
-0.0115616
-0.0114916
-0.0114606
-0.0113956
-0.0113628
-0.011298
-0.0112588
-0.0111893
-0.0111388
-0.0110593
-0.0109921
-0.0108971
-0.0108074
-0.0106908
-0.0116997
-0.0111016
-0.0106589
-0.0101934
-0.00985453
-0.00948688
-0.00922512
-0.00893175
-0.00872866
-0.00849303
-0.00833543
-0.00814545
-0.00802363
-0.00787021
-0.00777673
-0.00765281
-0.00758185
-0.00748181
-0.00742861
-0.00734781
-0.00730843
-0.00724294
-0.00721393
-0.00716031
-0.00713861
-0.00709374
-0.00707648
-0.00703743
-0.00702186
-0.0069858
-0.00696921
-0.00693329
-0.00691286
-0.00687416
-0.00684695
-0.00680237
-0.0067652
-0.00671141
-0.00666081
-0.00659412
-0.00404326
-0.00384322
-0.00369678
-0.00354263
-0.00343205
-0.00331161
-0.00322752
-0.0031326
-0.0030686
-0.00299345
-0.00294498
-0.0028854
-0.0028491
-0.00280196
-0.00277527
-0.00273814
-0.00271905
-0.00268999
-0.00267689
-0.00265433
-0.00264587
-0.00262846
-0.00262347
-0.00261006
-0.00260752
-0.00259707
-0.00259601
-0.00258755
-0.00258709
-0.00257968
-0.00257891
-0.00257164
-0.00256965
-0.00256156
-0.00255741
-0.00254749
-0.00254015
-0.00252734
-0.00251569
-0.00249879
0.00365558
0.00345477
0.00330268
0.00314325
0.00302379
0.00289514
0.0028001
0.00269501
0.0026187
0.00253205
0.00247036
0.00239841
0.0023483
0.00228818
0.00224731
0.00219681
0.00216334
0.00212067
0.00209309
0.00205675
0.00203378
0.00200251
0.00198302
0.00195569
0.00193866
0.00191422
0.00189869
0.00187614
0.00186117
0.00183953
0.00182416
0.00180245
0.00178569
0.00176287
0.00174368
0.00171865
0.0016959
0.00166747
0.00163991
0.00160677
0.0113124
0.0107135
0.010265
0.00979418
0.00944643
0.00907052
0.0087978
0.00849425
0.00827882
0.00803169
0.00786086
0.00765849
0.00752285
0.00735644
0.00724878
0.00711149
0.00702614
0.00691248
0.0068448
0.00675023
0.00669633
0.00661698
0.00657348
0.00650593
0.00646975
0.00641089
0.00637916
0.00632603
0.00629597
0.00624569
0.0062145
0.00616416
0.00612896
0.00607555
0.00603331
0.00597362
0.00592105
0.00585165
0.00578516
0.00570223
0.0189949
0.0179959
0.0172495
0.0164658
0.0158885
0.015264
0.0148125
0.0143094
0.0139539
0.0135453
0.0132646
0.0129309
0.0127091
0.0124356
0.0122605
0.0120358
0.011898
0.0117128
0.0116045
0.0114511
0.0113659
0.011238
0.01117
0.0110618
0.0110061
0.0109125
0.0108642
0.0107801
0.0107347
0.0106554
0.0106081
0.0105289
0.010475
0.0103907
0.0103252
0.0102307
0.0101481
0.0100375
0.00993191
0.00979907
0.0266191
0.0252237
0.0241821
0.0230883
0.0222837
0.021413
0.0207846
0.0200838
0.0195898
0.0190214
0.018632
0.0181685
0.0178614
0.0174821
0.0172405
0.0169294
0.0167399
0.016484
0.0163358
0.0161244
0.0160084
0.0158326
0.0157408
0.0155925
0.0155178
0.0153898
0.0153254
0.0152109
0.0151504
0.0150427
0.0149796
0.0148719
0.0147996
0.0146849
0.0145965
0.0144674
0.0143551
0.0142038
0.0140594
0.013877
0.0342525
0.0324596
0.0311219
0.0297172
0.0286844
0.0275667
0.0267607
0.0258615
0.0252284
0.0244996
0.0240009
0.023407
0.0230142
0.0225286
0.02222
0.021822
0.0215804
0.0212533
0.0210648
0.0207951
0.0206478
0.0204238
0.0203077
0.0201191
0.0200249
0.0198624
0.0197815
0.0196363
0.0195605
0.019424
0.019345
0.0192085
0.0191177
0.0189723
0.0188607
0.0186971
0.018555
0.0183628
0.0181795
0.0179475
0.0418113
0.0396254
0.0379951
0.0362829
0.0350247
0.0336629
0.0326814
0.0315863
0.0308159
0.0299286
0.0293221
0.0285995
0.0281223
0.0275317
0.0271572
0.0266734
0.0263806
0.0259835
0.0257554
0.0254281
0.0252504
0.0249789
0.0248391
0.0246107
0.0244977
0.0243012
0.0242044
0.0240289
0.0239383
0.0237735
0.0236788
0.0235141
0.0234051
0.0232296
0.0230953
0.0228974
0.0227259
0.0224932
0.0222716
0.0219905
0.049363
0.0467837
0.0448605
0.0428407
0.0413568
0.0397506
0.0385933
0.037302
0.0363939
0.0353479
0.0346334
0.0337817
0.0332197
0.0325239
0.0320831
0.0315134
0.031169
0.0307015
0.0304335
0.0300485
0.0298399
0.0295206
0.0293568
0.0290885
0.0289563
0.0287256
0.0286125
0.0284067
0.0283009
0.0281076
0.0279972
0.027804
0.0276767
0.0274708
0.0273136
0.0270815
0.0268805
0.0266074
0.0263474
0.0260172
0.0568241
0.0538568
0.0516447
0.0493214
0.047615
0.0457678
0.0444374
0.0429526
0.041909
0.0407065
0.0398856
0.0389068
0.0382615
0.0374621
0.0369562
0.0363019
0.035907
0.0353703
0.0350632
0.0346214
0.0343827
0.0340166
0.0338294
0.0335219
0.033371
0.0331067
0.0329779
0.0327423
0.0326218
0.0324006
0.0322748
0.0320538
0.0319085
0.0316729
0.0314932
0.0312274
0.0309973
0.0306844
0.0303864
0.0300077
0.0642618
0.060907
0.0584064
0.05578
0.0538513
0.0517634
0.0502599
0.0485819
0.0474026
0.0460438
0.0451165
0.0440105
0.0432817
0.0423787
0.0418075
0.0410685
0.0406228
0.0400168
0.0396704
0.0391717
0.0389026
0.0384895
0.0382786
0.0379318
0.037762
0.037464
0.0373192
0.0370536
0.0369183
0.0366691
0.0365277
0.0362786
0.0361153
0.0358498
0.0356476
0.035348
0.035089
0.0347362
0.0344004
0.0339734
0.0715931
0.067857
0.0650725
0.0621479
0.0600005
0.0576758
0.0560021
0.054134
0.0528215
0.051309
0.0502772
0.0490463
0.0482356
0.0472308
0.0465956
0.0457735
0.0452781
0.0446041
0.0442193
0.0436649
0.0433662
0.042907
0.0426732
0.0422879
0.0420997
0.0417688
0.0416085
0.0413137
0.0411639
0.0408872
0.0407307
0.0404543
0.0402733
0.0399786
0.0397543
0.0394216
0.039134
0.038742
0.0383689
0.0378943
0.0788849
0.074769
0.0717016
0.0684799
0.0661145
0.0635537
0.0617103
0.0596527
0.0582073
0.0565414
0.0554052
0.0540498
0.0531572
0.0520507
0.0513516
0.0504464
0.0499013
0.0491593
0.0487359
0.0481257
0.0477972
0.0472919
0.0470349
0.046611
0.0464043
0.0460404
0.0458643
0.0455402
0.0453757
0.0450716
0.0448998
0.044596
0.0443973
0.0440733
0.043827
0.0434612
0.0431451
0.0427141
0.0423039
0.041782
0.086055
0.0815661
0.0782211
0.0747076
0.0721284
0.069336
0.0673261
0.0650826
0.0635069
0.0616907
0.0604523
0.0589746
0.0580019
0.0567959
0.0560342
0.0550478
0.054454
0.0536456
0.0531847
0.0525199
0.0521624
0.0516121
0.0513326
0.0508711
0.0506464
0.0502503
0.0500591
0.0497063
0.0495278
0.0491968
0.0490102
0.0486796
0.0484637
0.0481111
0.0478432
0.047445
0.047101
0.0466317
0.0461851
0.0456166
0.09317
0.0883104
0.0846893
0.0808858
0.0780939
0.0750712
0.0728957
0.0704672
0.0687617
0.066796
0.0654557
0.0638565
0.0628038
0.0614987
0.0606745
0.059607
0.0589646
0.0580899
0.0575914
0.0568721
0.0564856
0.0558903
0.0555882
0.0550889
0.0548462
0.0544178
0.0542113
0.0538299
0.0536371
0.0532793
0.0530778
0.0527205
0.0524872
0.052106
0.0518166
0.0513862
0.0510144
0.050507
0.0500243
0.0494096
0.100148
0.0949254
0.091034
0.0869467
0.0839466
0.0806984
0.078361
0.0757516
0.0739192
0.0718072
0.0703674
0.0686493
0.0675187
0.0661166
0.0652315
0.064085
0.0633953
0.0624558
0.0619207
0.0611484
0.0607337
0.0600946
0.0597706
0.0592347
0.0589746
0.0585148
0.0582935
0.0578842
0.0576777
0.0572939
0.057078
0.0566946
0.0564445
0.0560355
0.0557252
0.0552631
0.0548643
0.0543196
0.0538014
0.0531414
0.107056
0.101473
0.0973137
0.0929448
0.0897381
0.0862664
0.0837681
0.0809791
0.0790208
0.0767635
0.0752248
0.0733886
0.0721804
0.070682
0.0697363
0.0685111
0.0677742
0.0667703
0.0661987
0.0653735
0.0649306
0.0642478
0.0639018
0.0633293
0.0630516
0.0625605
0.0623244
0.0618873
0.0616669
0.061257
0.0610267
0.0606172
0.0603504
0.0599137
0.0595824
0.0590891
0.0586633
0.0580816
0.0575283
0.0568234
0.113812
0.107878
0.103457
0.0988128
0.0954046
0.0917145
0.0890594
0.0860952
0.0840141
0.0816151
0.0799801
0.0780288
0.0767451
0.0751529
0.0741482
0.0728464
0.0720637
0.0709972
0.0703902
0.0695136
0.0690435
0.0683182
0.067951
0.0673431
0.0670485
0.066527
0.0662766
0.0658125
0.0655789
0.0651437
0.0648995
0.0644648
0.0641817
0.063718
0.0633665
0.0628426
0.0623905
0.0617727
0.0611851
0.0604364
0.120483
0.114201
0.109521
0.104605
0.100997
0.0970914
0.0942809
0.0911434
0.0889406
0.0864013
0.0846707
0.0826054
0.0812468
0.0795616
0.0784983
0.0771205
0.0762922
0.0751635
0.0745212
0.0735936
0.0730961
0.0723286
0.0719402
0.071297
0.0709854
0.0704337
0.0701689
0.0696779
0.0694309
0.0689706
0.0687123
0.0682526
0.0679533
0.0674628
0.0670911
0.066537
0.0660588
0.0654054
0.0647839
0.0639919
0.126987
0.120367
0.115435
0.110255
0.106453
0.102337
0.0993756
0.0960693
0.0937483
0.0910726
0.0892493
0.0870731
0.0856418
0.0838662
0.0827462
0.0812946
0.0804223
0.0792332
0.0785569
0.0775798
0.077056
0.0762477
0.0758389
0.0751615
0.0748337
0.0742527
0.0739742
0.0734573
0.0731974
0.0727128
0.0724412
0.0719571
0.0716422
0.0711258
0.0707345
0.070151
0.0696476
0.0689594
0.0683048
0.0674707
0.133393
0.126439
0.121259
0.115817
0.111824
0.1075
0.104389
0.100917
0.0984787
0.0956682
0.0937532
0.0914674
0.0899641
0.0880993
0.086923
0.0853984
0.0844823
0.0832335
0.0825233
0.0814971
0.0809471
0.0800983
0.0796691
0.0789578
0.0786136
0.0780036
0.0777113
0.0771685
0.0768958
0.0763871
0.076102
0.0755938
0.0752633
0.0747212
0.0743105
0.073698
0.0731696
0.0724471
0.07176
0.0708843
0.139619
0.132341
0.12692
0.121225
0.117046
0.112521
0.109265
0.105631
0.10308
0.100139
0.0981353
0.0957435
0.0941706
0.0922193
0.0909887
0.0893935
0.0884352
0.0871287
0.0863858
0.0853123
0.0847372
0.0838493
0.0834005
0.0826565
0.0822968
0.0816589
0.0813534
0.0807858
0.0805008
0.0799688
0.0796709
0.0791395
0.078794
0.0782271
0.0777977
0.077157
0.0766044
0.0758488
0.0751301
0.074214
0.145732
0.138136
0.132477
0.126532
0.122171
0.117448
0.11405
0.110257
0.107594
0.104525
0.102433
0.0999368
0.0982953
0.0962587
0.0949744
0.0933096
0.0923094
0.0909459
0.0901707
0.0890503
0.0884502
0.0875236
0.0870554
0.086279
0.0859037
0.085238
0.0849193
0.0843271
0.0840299
0.0834748
0.083164
0.0826096
0.0822493
0.0816578
0.0812099
0.0805416
0.0799651
0.0791768
0.078427
0.0774713
0.151653
0.143748
0.13786
0.131675
0.127136
0.122222
0.118687
0.11474
0.11197
0.108776
0.1066
0.104003
0.102295
0.100176
0.0988404
0.0971085
0.0960683
0.0946498
0.0938436
0.0926782
0.0920542
0.0910904
0.0906036
0.0897962
0.0894061
0.0887138
0.0883826
0.0877667
0.0874579
0.0868807
0.0865577
0.0859812
0.0856067
0.0849916
0.0845259
0.0838309
0.0832314
0.0824115
0.0816317
0.0806376
0.157447
0.14924
0.143127
0.136706
0.131994
0.126892
0.123222
0.119124
0.116248
0.112933
0.110674
0.107977
0.106205
0.104005
0.102618
0.10082
0.0997402
0.0982677
0.0974308
0.096221
0.0955733
0.0945728
0.0940675
0.0932293
0.0928245
0.0921059
0.0917622
0.091123
0.0908025
0.0902034
0.0898683
0.08927
0.0888814
0.0882431
0.0877598
0.0870385
0.0864165
0.0855656
0.0847563
0.0837247
0.163036
0.154539
0.148209
0.14156
0.136681