/*--------------------------------*- C++ -*----------------------------------*\
| =========                 |                                                 |
| \\      /  F ield         | foam-extend: Open Source CFD                    |
|  \\    /   O peration     | Version:  3.0                                   |
|   \\  /    A nd           | Web:         http://www.extend-project.de       |
|    \\/     M anipulation  |                                                 |
\*---------------------------------------------------------------------------*/
FoamFile
{
    version     2.0;
    format      ascii;
    class       volSymmTensorField;
    location    "12";
    object      sigma;
}
// * * * * * * * * * * * * * * * * * * * * * * * * * * * * * * * * * * * * * //

dimensions      [0 0 0 0 0 0 0];

internalField   nonuniform List<symmTensor> 
7680
(
(-0.179383 -0.00279047 3.83837e-22 0.179349 -1.09993e-21 3.40568e-05)
(-0.178767 -0.00314999 6.2976e-22 0.17867 -2.25276e-21 9.62978e-05)
(-0.176108 -0.00337401 1.43497e-22 0.175954 -5.5799e-21 0.00015457)
(-0.172088 -0.00349993 -3.86906e-22 0.171878 -6.25172e-21 0.000209285)
(-0.167175 -0.00355444 -5.47329e-22 0.166914 -5.83623e-21 0.000260767)
(-0.161698 -0.00355683 -1.26493e-21 0.161389 -3.76483e-21 0.000309258)
(-0.155888 -0.00352114 -1.03067e-21 0.155533 -2.46434e-21 0.000354946)
(-0.149905 -0.0034577 -1.43089e-21 0.149507 -1.40616e-21 0.000397962)
(-0.143864 -0.00337418 -1.48117e-21 0.143426 9.31056e-22 0.000438406)
(-0.137845 -0.00327626 -7.10023e-22 0.137369 -4.99086e-22 0.000476333)
(-0.131904 -0.00316823 -9.0472e-22 0.131392 -2.62468e-21 0.000511779)
(-0.126078 -0.00305327 -8.55037e-22 0.125533 -3.34299e-21 0.000544746)
(-0.120394 -0.00293381 -1.54665e-21 0.119819 -3.16665e-21 0.000575223)
(-0.114869 -0.00281168 -3.50961e-21 0.114266 -3.54204e-23 0.00060317)
(-0.109513 -0.00268826 -7.36324e-21 0.108885 2.04165e-21 0.000628539)
(-0.104333 -0.00256459 -8.01873e-21 0.103682 3.78513e-21 0.000651257)
(-0.0993308 -0.00244146 -8.2968e-21 0.0986595 7.06527e-21 0.000671245)
(-0.0945071 -0.00231948 -9.36415e-21 0.0938187 9.90631e-21 0.000688401)
(-0.0898611 -0.0021991 -1.26814e-20 0.0891584 1.14142e-20 0.000702621)
(-0.0853907 -0.00208068 -1.52989e-20 0.0846769 1.22277e-20 0.000713781)
(-0.0810934 -0.00196449 -2.19257e-20 0.0803717 1.13328e-20 0.000721752)
(-0.0769666 -0.00185073 -2.31507e-20 0.0762402 1.21333e-20 0.00072639)
(-0.0730073 -0.00173959 -2.37321e-20 0.0722798 1.42508e-20 0.000727549)
(-0.0692131 -0.00163123 -2.31441e-20 0.0684881 1.63625e-20 0.000725064)
(-0.0655816 -0.00152578 -2.29722e-20 0.0648628 1.71453e-20 0.000718776)
(-0.0621107 -0.00142339 -2.27688e-20 0.0614022 2.11621e-20 0.000708504)
(-0.0587992 -0.0013242 -2.08102e-20 0.0581051 2.40197e-20 0.000694076)
(-0.055646 -0.00122839 -1.65331e-20 0.0549707 2.31417e-20 0.000675303)
(-0.0526509 -0.00113614 -1.7105e-20 0.0519989 1.94902e-20 0.000652005)
(-0.0498142 -0.00104766 -1.93971e-20 0.0491902 1.56586e-20 0.000623985)
(-0.0471371 -0.000963198 -1.90015e-20 0.0465461 1.26704e-20 0.000591062)
(-0.0446215 -0.000883059 -1.36142e-20 0.0440685 9.9123e-21 0.00055304)
(-0.0422701 -0.000807564 -5.61082e-21 0.0417604 6.73132e-21 0.000509742)
(-0.0400867 -0.000737094 -2.37627e-21 0.0396257 7.88298e-21 0.000460979)
(-0.038076 -0.000672066 -1.0889e-20 0.0376694 8.35575e-21 0.000406587)
(-0.036244 -0.000612951 -1.6306e-20 0.0358976 7.21075e-21 0.000346395)
(-0.0345979 -0.000560256 -1.62304e-20 0.0343176 2.75839e-21 0.00028026)
(-0.0331462 -0.000514572 -6.31277e-21 0.0329382 3.13936e-21 0.000208041)
(-0.0318988 -0.000476591 -3.85867e-21 0.0317692 6.91661e-22 0.000129628)
(-0.0308664 -0.000447021 -1.06643e-21 0.0308215 -1.49158e-21 4.4918e-05)
(-0.179233 -0.00824602 1.07295e-21 0.179199 -1.65237e-21 3.40237e-05)
(-0.178512 -0.00940874 1.50682e-21 0.178416 -2.86581e-21 9.62031e-05)
(-0.175779 -0.0101544 7.0712e-22 0.175624 -5.95499e-21 0.000154417)
(-0.171705 -0.0105983 1.0429e-21 0.171496 -6.1194e-21 0.000209078)
(-0.166755 -0.0108227 1.94754e-21 0.166495 -6.2612e-21 0.000260508)
(-0.161254 -0.0108869 1.74582e-21 0.160945 -3.7187e-21 0.000308951)
(-0.155428 -0.0108339 1.43914e-21 0.155073 -2.45893e-21 0.000354592)
(-0.149437 -0.0106957 1.27103e-21 0.149039 -3.95788e-22 0.000397565)
(-0.143392 -0.0104957 9.98886e-22 0.142954 2.96348e-21 0.000437966)
(-0.137374 -0.0102515 -9.24849e-22 0.136898 8.3731e-22 0.000475854)
(-0.131436 -0.00997622 -1.53533e-21 0.130925 -2.19451e-21 0.000511263)
(-0.125616 -0.00967983 -7.6101e-22 0.125072 -2.23619e-21 0.000544196)
(-0.119939 -0.00936984 -7.16722e-22 0.119365 -4.76425e-22 0.00057464)
(-0.114423 -0.00905193 -2.20209e-21 0.11382 2.78977e-21 0.000602557)
(-0.109076 -0.00873046 -5.83712e-21 0.108448 6.89575e-21 0.000627898)
(-0.103905 -0.00840872 -6.37581e-21 0.103255 9.57616e-21 0.000650591)
(-0.0989133 -0.00808925 -6.23179e-21 0.0982427 1.43139e-20 0.000670556)
(-0.0940999 -0.00777397 -5.41734e-21 0.0934122 1.29573e-20 0.000687692)
(-0.0894641 -0.00746437 -9.10051e-21 0.0887622 1.43856e-20 0.000701896)
(-0.0850039 -0.00716158 -1.47733e-20 0.0842909 1.26965e-20 0.000713041)
(-0.0807167 -0.00686651 -2.21726e-20 0.0799957 1.29256e-20 0.000721003)
(-0.0765997 -0.00657983 -2.18103e-20 0.075874 1.37502e-20 0.000725633)
(-0.07265 -0.00630212 -2.04289e-20 0.0719232 1.66915e-20 0.000726789)
(-0.068865 -0.00603385 -1.99347e-20 0.0681407 1.78324e-20 0.000724304)
(-0.0652423 -0.00577541 -2.35852e-20 0.0645243 2.4e-20 0.00071802)
(-0.06178 -0.00552719 -1.59883e-20 0.0610722 2.86515e-20 0.000707757)
(-0.0584765 -0.00528952 -1.45129e-20 0.0577832 3.19504e-20 0.000693342)
(-0.0553311 -0.00506279 -1.51803e-20 0.0546565 2.73677e-20 0.000674588)
(-0.0523432 -0.00484736 -1.87529e-20 0.0516919 2.34673e-20 0.000651312)
(-0.0495134 -0.00464367 -2.02405e-20 0.0488901 2.06688e-20 0.000623321)
(-0.0468427 -0.00445216 -2.07833e-20 0.0462523 1.97984e-20 0.000590432)
(-0.044333 -0.00427336 -2.08197e-20 0.0437806 1.86202e-20 0.00055245)
(-0.0419872 -0.00410782 -1.09782e-20 0.041478 1.05936e-20 0.000509197)
(-0.0398088 -0.00395619 2.19641e-21 0.0393483 3.62458e-21 0.000460486)
(-0.0378027 -0.00381914 -6.18299e-21 0.0373966 9.94414e-21 0.000406152)
(-0.0359748 -0.00369742 -1.34358e-20 0.0356288 1.15117e-20 0.000346024)
(-0.0343323 -0.00359185 -2.016e-20 0.0340523 1.10944e-20 0.00027996)
(-0.0328836 -0.0035034 -6.67939e-21 0.0326758 1.19467e-20 0.000207817)
(-0.0316385 -0.00343348 -7.55427e-21 0.031509 7.33993e-21 0.000129488)
(-0.0306074 -0.00338426 -5.14409e-21 0.0305625 3.20462e-21 4.48692e-05)
(-0.178946 -0.0136997 1.70636e-21 0.178912 -2.26905e-21 3.39496e-05)
(-0.178013 -0.0156486 2.38903e-21 0.177917 -4.21157e-21 9.59922e-05)
(-0.175128 -0.0169036 1.21883e-21 0.174974 -5.68453e-21 0.000154078)
(-0.170947 -0.0176565 2.81026e-21 0.170738 -6.68886e-21 0.000208618)
(-0.165922 -0.0180442 2.99635e-21 0.165662 -5.87953e-21 0.000259936)
(-0.160371 -0.0181654 4.10979e-21 0.160063 -3.82611e-21 0.000308272)
(-0.154513 -0.0180921 3.62697e-21 0.154159 -2.86428e-21 0.000353813)
(-0.148504 -0.0178769 5.01213e-21 0.148107 -7.58099e-22 0.000396693)
(-0.142452 -0.0175591 5.88344e-21 0.142015 1.11676e-21 0.000437006)
(-0.136434 -0.0171679 -2.77345e-22 0.135959 -4.2611e-22 0.000474812)
(-0.130502 -0.0167252 -3.39131e-21 0.129992 -1.16851e-21 0.000510145)
(-0.124692 -0.0162476 2.31616e-22 0.124149 -7.4785e-22 0.000543006)
(-0.11903 -0.0157475 3.41188e-21 0.118456 9.81473e-22 0.000573385)
(-0.113529 -0.0152345 1.28073e-21 0.112928 7.61479e-21 0.000601242)
(-0.108201 -0.0147158 -4.10034e-21 0.107574 1.65914e-20 0.000626529)
(-0.103049 -0.0141969 -5.00515e-21 0.1024 1.9559e-20 0.000649173)
(-0.0980768 -0.0136821 8.15488e-22 0.0974077 1.93977e-20 0.000669096)
(-0.0932834 -0.0131746 -9.4549e-21 0.0925972 1.71507e-20 0.000686196)
(-0.0886678 -0.0126769 -5.57445e-21 0.0879674 1.30275e-20 0.000700369)
(-0.0842276 -0.0121908 -1.66286e-20 0.0835162 1.5012e-20 0.000711491)
(-0.0799602 -0.011718 -2.01676e-20 0.0792408 1.52794e-20 0.000719436)
(-0.0758625 -0.0112595 -2.17699e-20 0.0751384 1.85866e-20 0.000724057)
(-0.0719316 -0.0108163 -1.86998e-20 0.0712064 2.17422e-20 0.000725211)
(-0.0681648 -0.0103891 -2.16115e-20 0.067442 2.71257e-20 0.000722733)
(-0.0645596 -0.00997869 -1.06325e-20 0.0638431 3.44172e-20 0.000716463)
(-0.061114 -0.00958559 -1.1331e-20 0.0604078 3.97952e-20 0.000706223)
(-0.0578265 -0.00921036 -1.14619e-20 0.0571346 4.22217e-20 0.00069184)
(-0.0546961 -0.00885357 -2.04907e-20 0.054023 3.64853e-20 0.000673127)
(-0.0517225 -0.00851578 -1.92315e-20 0.0510726 3.08474e-20 0.000649903)
(-0.0489061 -0.00819761 -1.87327e-20 0.0482841 2.76165e-20 0.000621973)
(-0.0462478 -0.00789972 -1.49101e-20 0.0456586 2.852e-20 0.000589156)
(-0.0437496 -0.00762286 -1.64973e-20 0.0431983 3.37341e-20 0.000551257)
(-0.0414142 -0.0073678 -2.38188e-20 0.0409061 2.44885e-20 0.000508098)
(-0.0392454 -0.00713544 -1.19373e-20 0.0387859 7.24541e-21 0.000459493)
(-0.0372477 -0.0069267 1.11867e-21 0.0368424 1.95554e-20 0.000405277)
(-0.0354271 -0.00674261 -9.16443e-21 0.0350818 1.93864e-20 0.00034528)
(-0.0337906 -0.00658429 -1.18434e-20 0.0335113 2.12164e-20 0.000279359)
(-0.0323467 -0.0064531 -2.05661e-21 0.0321393 2.20999e-20 0.000207371)
(-0.0311047 -0.00635111 -5.20384e-21 0.0309755 1.09073e-20 0.00012921)
(-0.0300747 -0.00628189 -9.95356e-22 0.0300299 3.5251e-21 4.47729e-05)
(-0.17852 -0.0191509 2.36136e-21 0.178486 -3.08325e-21 3.38393e-05)
(-0.177271 -0.0218578 3.93216e-21 0.177175 -6.02637e-21 9.56797e-05)
(-0.174159 -0.0236013 2.38145e-21 0.174006 -5.32244e-21 0.000153576)
(-0.169818 -0.0246481 3.63133e-21 0.16961 -6.97018e-21 0.000207938)
(-0.164682 -0.0251883 4.69971e-21 0.164423 -3.65725e-21 0.000259088)
(-0.159055 -0.0253589 6.12291e-21 0.158748 -3.78375e-21 0.000307267)
(-0.153149 -0.0252596 4.9982e-21 0.152797 -2.95655e-21 0.000352661)
(-0.147113 -0.0249639 5.94845e-21 0.146718 -8.39415e-22 0.0003954)
(-0.14105 -0.0245262 4.78648e-21 0.140614 7.73704e-23 0.000435584)
(-0.135032 -0.0239868 -2.77774e-21 0.134558 1.37655e-21 0.000473267)
(-0.129109 -0.0233764 -3.82053e-21 0.1286 2.83779e-21 0.000508485)
(-0.123315 -0.0227177 -6.63758e-22 0.122774 2.40759e-21 0.000541241)
(-0.117673 -0.0220283 4.98522e-21 0.117101 1.95321e-21 0.000571522)
(-0.112197 -0.0213212 1.06935e-20 0.111597 1.15193e-20 0.00059929)
(-0.106895 -0.0206066 1.15638e-20 0.10627 2.10394e-20 0.000624496)
(-0.101771 -0.0198921 2.76384e-21 0.101124 2.41134e-20 0.000647067)
(-0.0968281 -0.0191836 4.36606e-21 0.0961612 1.4316e-20 0.000666926)
(-0.0920646 -0.0184856 -5.01893e-21 0.0913806 1.79099e-20 0.000683972)
(-0.0874789 -0.0178015 -1.47138e-20 0.0867808 1.65671e-20 0.0006981)
(-0.0830685 -0.017134 -1.14424e-20 0.0823593 1.99628e-20 0.000709187)
(-0.0788304 -0.0164851 -2.27361e-20 0.0781133 2.27848e-20 0.000717107)
(-0.0747614 -0.0158566 -1.73693e-20 0.0740397 2.72034e-20 0.000721715)
(-0.0708584 -0.0152496 -1.35827e-20 0.0701356 2.98477e-20 0.000722866)
(-0.0671186 -0.0146653 -4.66843e-21 0.0663982 3.3344e-20 0.000720397)
(-0.0635394 -0.0141045 -4.76036e-22 0.0628253 3.70257e-20 0.000714148)
(-0.0601187 -0.013568 6.92129e-21 0.0594147 4.20024e-20 0.000703942)
(-0.0568548 -0.0130567 1.69478e-21 0.0561652 4.62836e-20 0.000689608)
(-0.0537469 -0.0125712 -1.60683e-20 0.0530759 4.48594e-20 0.000670956)
(-0.0507944 -0.0121123 -2.14586e-20 0.0501466 3.95179e-20 0.000647808)
(-0.0479977 -0.0116809 -2.17848e-20 0.0473777 4.13106e-20 0.00061997)
(-0.0453578 -0.0112776 -7.61877e-21 0.0447705 3.63101e-20 0.000587261)
(-0.0428765 -0.0109036 5.38528e-21 0.042327 3.20697e-20 0.000549485)
(-0.0405566 -0.0105598 -2.32977e-20 0.0400501 3.40445e-20 0.000506467)
(-0.0384015 -0.0102473 -2.82752e-20 0.0379435 2.7575e-20 0.00045802)
(-0.0364161 -0.00996737 1.8974e-20 0.0360121 3.18558e-20 0.000403979)
(-0.0346059 -0.00972121 -1.23766e-21 0.0342618 2.41432e-20 0.000344175)
(-0.032978 -0.00951025 -3.26456e-21 0.0326996 2.27618e-20 0.000278466)
(-0.0315405 -0.00933623 6.19147e-21 0.0313338 1.81409e-20 0.000206709)
(-0.0303025 -0.00920183 -1.44281e-20 0.0301737 4.87039e-22 0.000128798)
(-0.0292733 -0.00911186 -5.91748e-21 0.0292287 -6.61112e-21 4.46298e-05)
(-0.177954 -0.0245989 2.54482e-21 0.177921 -2.93441e-21 3.3693e-05)
(-0.176288 -0.0280246 4.58958e-21 0.176193 -4.76285e-21 9.52659e-05)
(-0.172878 -0.0302279 4.5256e-21 0.172725 -6.23155e-21 0.000152911)
(-0.168324 -0.0315476 2.51837e-21 0.168117 -1.16027e-21 0.000207038)
(-0.163041 -0.0322251 6.42872e-21 0.162783 -6.61224e-23 0.000257967)
(-0.157315 -0.0324342 6.60354e-21 0.157009 -3.66095e-21 0.000305937)
(-0.151347 -0.0323016 6.36044e-21 0.150996 -2.43825e-21 0.000351134)
(-0.145275 -0.0319204 8.2491e-21 0.144881 1.46061e-22 0.000393689)
(-0.139196 -0.0313595 6.93007e-21 0.138763 2.6752e-21 0.000433699)
(-0.133179 -0.0306704 -1.35517e-21 0.132708 8.1373e-21 0.00047122)
(-0.127268 -0.0298916 -3.84621e-21 0.126762 9.33611e-21 0.000506286)
(-0.121495 -0.0290523 -4.08969e-21 0.120956 9.54313e-21 0.000538901)
(-0.11588 -0.0281745 3.46913e-21 0.115311 6.04188e-21 0.000569052)
(-0.110435 -0.0272748 2.1859e-20 0.109839 9.19256e-21 0.000596701)
(-0.105168 -0.0263661 2.12892e-20 0.104546 1.50999e-20 0.000621799)
(-0.100082 -0.0254581 1.09563e-20 0.0994379 1.46749e-20 0.000644274)
(-0.0951777 -0.0245581 -6.04566e-21 0.0945136 9.78026e-21 0.000664048)
(-0.0904535 -0.0236719 7.97794e-22 0.0897725 1.64652e-20 0.000681022)
(-0.0859074 -0.0228039 -4.98071e-21 0.0852123 2.03378e-20 0.000695091)
(-0.0815363 -0.0219574 -7.4844e-21 0.0808302 2.42306e-20 0.000706131)
(-0.077337 -0.0211351 -1.8205e-20 0.076623 3.65992e-20 0.000714018)
(-0.0733059 -0.0203389 -1.47976e-20 0.0725873 3.7822e-20 0.000718607)
(-0.0694398 -0.0195705 -3.49826e-21 0.0687201 2.73295e-20 0.000719755)
(-0.0657357 -0.0188313 -3.00963e-21 0.0650184 2.85955e-20 0.000717298)
(-0.0621907 -0.0181223 1.02729e-21 0.0614797 4.13749e-20 0.000711078)
(-0.0588028 -0.0174447 9.23317e-21 0.0581019 4.12466e-20 0.000700917)
(-0.0555702 -0.0167993 1.83202e-20 0.0548836 3.7181e-20 0.000686646)
(-0.0524919 -0.0161869 -4.69773e-21 0.0518238 4.36626e-20 0.000668077)
(-0.0495673 -0.0156087 -1.37418e-20 0.0489222 4.40288e-20 0.000645031)
(-0.0467966 -0.0150654 7.85805e-22 0.0461793 3.89438e-20 0.000617314)
(-0.0441809 -0.0145583 6.87499e-22 0.0435961 1.72408e-20 0.000584747)
(-0.0417218 -0.0140883 7.21708e-21 0.0411747 6.00285e-21 0.000547135)
(-0.0394221 -0.0136568 9.17607e-21 0.0389178 1.43832e-20 0.000504303)
(-0.0372852 -0.013265 -4.67889e-21 0.0368291 2.36548e-20 0.000456065)
(-0.0353156 -0.0129145 2.80531e-20 0.0349134 1.64555e-20 0.000402257)
(-0.033519 -0.0126066 1.11536e-20 0.0331763 -6.929e-21 0.000342709)
(-0.0319021 -0.0123431 1.39189e-20 0.0316248 -1.41564e-20 0.000277281)
(-0.0304728 -0.0121261 7.7975e-21 0.0302669 -1.64097e-20 0.00020583)
(-0.0292396 -0.0119588 -3.03655e-20 0.0291114 -2.14469e-20 0.00012825)
(-0.0282113 -0.011847 -1.73529e-20 0.0281668 -1.09802e-20 4.444e-05)
(-0.177248 -0.030043 3.13711e-21 0.177214 -1.74725e-21 3.3511e-05)
(-0.175068 -0.0341376 4.46126e-21 0.174974 -1.32572e-22 9.47509e-05)
(-0.17129 -0.0367642 4.83163e-21 0.171138 -1.52858e-21 0.000152084)
(-0.166476 -0.0383301 7.77021e-21 0.16627 2.88736e-21 0.000205918)
(-0.161012 -0.0391256 5.58877e-21 0.160755 3.7428e-21 0.000256571)
(-0.155164 -0.0393594 1.17073e-21 0.15486 3.25616e-21 0.000304281)
(-0.149118 -0.0391839 5.11044e-21 0.148769 2.22949e-21 0.000349234)
(-0.143003 -0.0387108 1.04553e-20 0.142611 1.36347e-21 0.000391559)
(-0.136906 -0.0380229 1.34805e-20 0.136475 2.3521e-21 0.000431353)
(-0.130889 -0.0371819 5.38744e-21 0.13042 1.24121e-20 0.000468672)
(-0.124993 -0.0362342 -3.28922e-21 0.12449 1.68348e-20 0.00050355)
(-0.119246 -0.0352146 -3.67744e-21 0.11871 1.6879e-20 0.000535989)
(-0.113664 -0.0341496 -2.13164e-21 0.113098 1.12743e-20 0.000565978)
(-0.108259 -0.0330592 1.92406e-20 0.107666 5.58345e-21 0.000593479)
(-0.103036 -0.0319587 3.07957e-20 0.102417 2.44227e-21 0.000618442)
(-0.0979958 -0.0308598 1.33695e-20 0.097355 8.71911e-22 0.000640797)
(-0.0931391 -0.0297712 -6.92486e-22 0.0924787 8.8969e-21 0.000660466)
(-0.0884637 -0.0286999 1.17237e-20 0.0877863 1.01728e-20 0.000677349)
(-0.0839665 -0.027651 6.74102e-21 0.0832751 9.99108e-21 0.000691343)
(-0.079644 -0.0266287 1.22384e-20 0.0789417 1.6156e-20 0.000702326)
(-0.0754926 -0.0256359 1.50863e-20 0.0747824 2.8697e-20 0.000710172)
(-0.0715084 -0.0246752 2.12662e-21 0.0707937 2.41378e-20 0.000714738)
(-0.0676879 -0.0237484 -1.86656e-20 0.066972 1.7796e-20 0.000715881)
(-0.0640279 -0.0228572 6.14025e-21 0.0633144 2.43781e-20 0.000713439)
(-0.0605254 -0.0220029 3.60825e-20 0.0598181 2.99978e-20 0.000707255)
(-0.057178 -0.0211867 1.95219e-20 0.0564809 3.083e-20 0.000697152)
(-0.0539841 -0.0204096 2.16378e-20 0.0533011 1.62506e-20 0.00068296)
(-0.0509423 -0.0196728 2.14469e-20 0.0502778 2.81376e-20 0.000664492)
(-0.0480521 -0.0189774 -2.82464e-21 0.0474105 3.54e-20 0.000641572)
(-0.0453136 -0.0183243 -1.36684e-20 0.0446996 1.79744e-20 0.000614007)
(-0.0427277 -0.017715 -2.95486e-20 0.0421461 -1.10008e-20 0.000581617)
(-0.0402961 -0.0171506 -8.73404e-21 0.0397519 -9.36198e-21 0.000544209)
(-0.0380213 -0.0166327 1.23966e-20 0.0375197 -1.29834e-20 0.000501609)
(-0.0359066 -0.0161627 6.73477e-21 0.035453 -4.74542e-21 0.000453631)
(-0.0339566 -0.0157422 2.6221e-20 0.0335565 -2.95882e-20 0.000400113)
(-0.0321765 -0.0153731 -3.11657e-20 0.0318357 -4.27946e-20 0.000340884)
(-0.030573 -0.0150572 -1.8345e-20 0.0302972 -4.32943e-20 0.000275806)
(-0.0291535 -0.014797 4.61493e-21 0.0289488 -5.04061e-20 0.000204736)
(-0.0279261 -0.0145962 -2.51971e-20 0.0277986 -4.68478e-20 0.000127569)
(-0.0268988 -0.0144613 -1.52577e-20 0.0268546 -7.8154e-21 4.42035e-05)
(-0.176399 -0.0354821 4.5096e-21 0.176365 -1.23078e-22 3.32934e-05)
(-0.173615 -0.0401855 7.78329e-21 0.173521 -3.38144e-22 9.41354e-05)
(-0.169404 -0.0431914 6.39932e-21 0.169253 2.01157e-21 0.000151096)
(-0.164284 -0.0449716 8.89089e-21 0.164079 6.26716e-21 0.00020458)
(-0.158607 -0.0458618 9.08261e-21 0.158352 5.34998e-21 0.000254903)
(-0.152616 -0.046104 6.31942e-21 0.152314 4.72694e-21 0.000302303)
(-0.14648 -0.045874 6.55467e-21 0.146133 2.51485e-21 0.000346964)
(-0.140313 -0.0453014 8.10867e-21 0.139924 2.74865e-21 0.000389014)
(-0.134196 -0.0444817 1.41192e-20 0.133767 3.06548e-21 0.00042855)
(-0.12818 -0.0434863 1.9573e-20 0.127714 8.64978e-21 0.000465627)
(-0.122302 -0.0423689 1.19286e-20 0.121802 1.14297e-20 0.000500279)
(-0.116586 -0.0411695 2.13546e-21 0.116053 1.46267e-20 0.000532508)
(-0.111045 -0.0399188 -8.25226e-21 0.110482 1.51984e-20 0.000562303)
(-0.105686 -0.0386399 6.11027e-21 0.105097 8.85739e-21 0.000589626)
(-0.100514 -0.0373504 2.35009e-20 0.0998999 -8.18129e-21 0.000614429)
(-0.0955292 -0.0360636 1.621e-20 0.0948925 -8.59172e-21 0.00063664)
(-0.0907292 -0.0347899 1.63119e-20 0.0900731 -4.94978e-21 0.000656183)
(-0.0861115 -0.0335371 1.55642e-20 0.0854386 -7.62439e-21 0.000672958)
(-0.0816723 -0.0323111 1.48513e-20 0.0809855 -1.61108e-20 0.000686863)
(-0.0774076 -0.0311166 2.40761e-20 0.0767098 -9.36099e-21 0.000697776)
(-0.0733129 -0.0299571 2.57216e-20 0.0726074 5.70798e-22 0.000705573)
(-0.0693843 -0.0288355 -1.61906e-21 0.0686742 2.38831e-21 0.000710112)
(-0.0656179 -0.027754 -1.47552e-20 0.0649067 1.63393e-20 0.000711249)
(-0.0620101 -0.0267143 8.74461e-21 0.0613013 1.46383e-20 0.000708826)
(-0.0585579 -0.0257179 3.2156e-20 0.0578552 2.67395e-21 0.000702684)
(-0.0552586 -0.0247663 3.38795e-20 0.054566 -3.00353e-22 0.000692648)
(-0.0521105 -0.0238607 1.41362e-20 0.0514319 -1.0259e-20 0.00067855)
(-0.049112 -0.0230022 4.34706e-20 0.0484518 -1.59531e-23 0.000660205)
(-0.0462626 -0.0221921 4.90478e-21 0.0456251 3.44272e-20 0.000637436)
(-0.0435622 -0.0214317 -3.60673e-20 0.0429521 2.11654e-20 0.000610051)
(-0.0410116 -0.0207223 -8.20963e-20 0.0404337 1.98861e-20 0.000577873)
(-0.0386124 -0.0200654 -2.33313e-20 0.0380717 1.24765e-20 0.00054071)
(-0.036367 -0.0194625 -1.22626e-20 0.0358686 -6.27371e-21 0.000498387)
(-0.0342787 -0.0189155 -2.19188e-20 0.033828 6.11787e-21 0.000450719)
(-0.0323516 -0.0184261 -3.771e-20 0.0319541 -2.36126e-20 0.000397547)
(-0.030591 -0.0179963 -3.96079e-20 0.0302523 -2.6752e-20 0.0003387)
(-0.0290032 -0.0176283 -3.92951e-20 0.0287291 -2.28185e-20 0.00027404)
(-0.0275952 -0.0173247 -4.80896e-20 0.0273918 -3.39399e-20 0.000203426)
(-0.0263747 -0.0170896 -5.57667e-20 0.026248 -2.50004e-20 0.000126753)
(-0.0253487 -0.0169304 3.57161e-21 0.0253048 6.99453e-21 4.39205e-05)
(-0.175405 -0.0409149 4.75073e-21 0.175372 1.72909e-21 3.30403e-05)
(-0.171932 -0.0461576 9.5988e-21 0.171839 -7.47838e-22 9.34199e-05)
(-0.167229 -0.0494919 9.88541e-21 0.167079 2.65179e-21 0.000149948)
(-0.16176 -0.0514492 1.33649e-20 0.161557 4.87379e-21 0.000203024)
(-0.155841 -0.0524074 1.19649e-20 0.155588 7.76666e-23 0.000252965)
(-0.149689 -0.0526386 6.83367e-21 0.149389 -2.5301e-22 0.000300005)
(-0.14345 -0.0523409 4.19371e-21 0.143106 2.61254e-21 0.000344326)
(-0.137226 -0.0516599 9.96097e-21 0.13684 2.8101e-21 0.000386056)
(-0.131085 -0.0507029 1.40135e-20 0.13066 4.81013e-21 0.000425292)
(-0.125072 -0.0495504 1.94484e-20 0.12461 4.36537e-21 0.000462087)
(-0.119216 -0.0482622 6.202e-21 0.11872 1.0478e-20 0.000496477)
(-0.113536 -0.0468837 8.20124e-21 0.113007 1.05078e-20 0.000528462)
(-0.108041 -0.045449 -4.24137e-21 0.107483 1.65933e-20 0.000558032)
(-0.102737 -0.0439842 2.44707e-21 0.102152 8.94631e-21 0.000585148)
(-0.0976244 -0.0425088 2.45116e-21 0.0970146 -7.7796e-21 0.000609764)
(-0.0927024 -0.0410379 8.55278e-21 0.0920706 -9.21274e-21 0.000631808)
(-0.0879679 -0.039583 2.35871e-21 0.0873167 -1.17851e-20 0.000651203)
(-0.0834167 -0.0381528 6.15385e-21 0.0827488 -1.99773e-20 0.000667853)
(-0.0790442 -0.036754 -1.29804e-20 0.0783626 -2.56035e-20 0.000681654)
(-0.0748458 -0.0353917 1.34225e-20 0.0741533 -1.68357e-20 0.000692486)
(-0.0708165 -0.0340699 3.15284e-20 0.0701163 -1.22487e-20 0.000700226)
(-0.0669518 -0.0327917 9.98318e-21 0.0662471 -4.37021e-21 0.000704733)
(-0.0632476 -0.0315595 4.62333e-21 0.0625417 1.02343e-20 0.000705864)
(-0.0596999 -0.0303754 -8.11079e-21 0.0589964 1.02266e-20 0.000703461)
(-0.0563054 -0.0292409 6.58394e-21 0.055608 -5.47362e-21 0.000697368)
(-0.0530615 -0.0281576 2.01593e-20 0.0523741 -2.30923e-20 0.000687411)
(-0.0499659 -0.0271269 -9.97874e-21 0.0492925 -1.08875e-20 0.000673423)
(-0.0470173 -0.02615 3.80594e-20 0.0463621 1.3509e-21 0.00065522)
(-0.0442147 -0.0252283 8.11793e-20 0.0435821 2.23023e-20 0.000632626)
(-0.0415581 -0.0243631 2.41349e-21 0.0409527 8.05712e-21 0.000605451)
(-0.0390482 -0.0235561 -3.12853e-20 0.0384746 3.16235e-20 0.000573519)
(-0.0366863 -0.0228087 -4.26653e-20 0.0361496 2.72491e-20 0.000536639)
(-0.0344746 -0.0221228 -3.42132e-20 0.03398 2.40709e-20 0.000494638)
(-0.0324165 -0.0215002 1.75634e-20 0.0319691 1.96452e-20 0.000447332)
(-0.0305157 -0.0209429 -5.09143e-20 0.0301211 1.19722e-20 0.000394561)
(-0.0287774 -0.0204531 -6.76664e-20 0.0284413 1.43827e-20 0.000336158)
(-0.0272075 -0.0200332 -5.40058e-20 0.0269355 2.93699e-20 0.000271985)
(-0.0258127 -0.0196861 -4.90002e-20 0.0256108 1.50244e-20 0.000201901)
(-0.0246002 -0.0194162 -3.24553e-20 0.0244744 -6.91535e-22 0.000125803)
(-0.0235761 -0.0192312 1.06992e-20 0.0235325 9.9607e-21 4.35911e-05)
(-0.174264 -0.0463399 3.80909e-21 0.174231 4.31567e-21 3.27523e-05)
(-0.170026 -0.0520434 9.72868e-21 0.169933 1.03337e-21 9.26053e-05)
(-0.164775 -0.0556488 1.26448e-20 0.164627 9.4503e-22 0.00014864)
(-0.158919 -0.0577413 1.506e-20 0.158718 1.02261e-23 0.000201253)
(-0.152733 -0.0587371 7.20421e-21 0.152482 1.00769e-21 0.000250758)
(-0.146401 -0.0589359 3.32041e-21 0.146104 4.12089e-21 0.000297387)
(-0.140051 -0.0585556 7.17994e-21 0.139709 2.2693e-21 0.000341322)
(-0.133765 -0.0577562 9.25455e-21 0.133382 2.03694e-21 0.000382689)
(-0.127599 -0.0566558 1.346e-20 0.127177 7.01408e-21 0.000421582)
(-0.121589 -0.0553428 1.68799e-20 0.121131 1.03882e-20 0.000458057)
(-0.115759 -0.0538829 6.52515e-21 0.115267 2.28839e-20 0.000492147)
(-0.110119 -0.0523259 -3.76184e-21 0.109595 2.2665e-20 0.000523855)
(-0.104677 -0.0507093 -6.28859e-21 0.104124 2.23733e-20 0.000553168)
(-0.0994344 -0.0490614 -1.58026e-20 0.0988543 1.75227e-20 0.000580049)
(-0.0943892 -0.0474038 -1.60606e-20 0.0937848 6.64787e-21 0.000604451)
(-0.0895385 -0.045753 5.86269e-21 0.0889122 -4.00901e-21 0.000626304)
(-0.0848776 -0.0441214 -4.91726e-21 0.0842321 -4.59471e-21 0.000645533)
(-0.0804013 -0.0425185 -5.3026e-21 0.0797393 -1.90336e-20 0.000662039)
(-0.076104 -0.0409517 -2.34425e-20 0.0754283 -9.94282e-21 0.000675722)
(-0.0719802 -0.0394266 -1.1765e-24 0.0712937 1.87371e-21 0.000686462)
(-0.0680244 -0.0379473 1.6941e-20 0.0673303 -1.99385e-21 0.000694137)
(-0.0642317 -0.0365174 8.0236e-21 0.063533 1.73119e-21 0.000698606)
(-0.0605973 -0.0351393 1.9223e-20 0.0598975 -1.61607e-22 0.00069973)
(-0.0571171 -0.0338152 3.66981e-21 0.0564198 6.64592e-21 0.000697351)
(-0.0537876 -0.032547 -1.76302e-20 0.0530963 1.16936e-21 0.000691314)
(-0.0506059 -0.0313362 -5.75557e-21 0.0499244 -1.88503e-20 0.000681446)
(-0.0475695 -0.0301842 -1.52193e-21 0.0469019 1.67303e-20 0.000667583)
(-0.0446768 -0.0290926 1.20753e-20 0.0440273 4.11021e-20 0.000649541)
(-0.0419269 -0.0280626 4.03802e-20 0.0412998 3.14813e-20 0.000627146)
(-0.0393196 -0.0270959 -2.91006e-20 0.0387194 1.57137e-20 0.00060021)
(-0.0368552 -0.0261939 -7.36022e-21 0.0362867 1.52313e-20 0.000568558)
(-0.0345352 -0.0253585 -3.52539e-21 0.0340032 8.8304e-21 0.000532)
(-0.0323615 -0.0245916 -1.08451e-20 0.0318711 1.32199e-20 0.000490365)
(-0.0303372 -0.0238951 1.53924e-20 0.0298937 -2.07823e-20 0.000443471)
(-0.028466 -0.0232712 -1.44843e-20 0.0280748 1.37374e-20 0.000391158)
(-0.0267527 -0.0227223 -1.45041e-20 0.0264194 1.95816e-20 0.000333261)
(-0.0252029 -0.022251 6.22022e-21 0.0249332 2.53963e-20 0.000269642)
(-0.023823 -0.0218603 -5.43514e-20 0.0236228 8.34282e-21 0.000200162)
(-0.0226195 -0.0215549 -9.57326e-20 0.0224948 2.21019e-20 0.000124719)
(-0.021598 -0.0213429 1.60591e-20 0.0215548 2.07724e-20 4.32155e-05)
(-0.172974 -0.0517549 5.43136e-21 0.172941 -1.80349e-22 3.24295e-05)
(-0.167902 -0.057833 1.17658e-20 0.16781 -4.45032e-21 9.16923e-05)
(-0.162056 -0.0616462 1.16241e-20 0.161908 1.24087e-21 0.000147174)
(-0.155779 -0.0638278 1.17613e-20 0.15558 6.1016e-21 0.000199269)
(-0.149302 -0.064828 9.01174e-21 0.149054 6.18035e-21 0.000248285)
(-0.142777 -0.0649706 1.24764e-20 0.142482 -2.70177e-21 0.000294454)
(-0.136305 -0.0644912 6.21123e-21 0.135967 -1.81364e-21 0.000337956)
(-0.129953 -0.0635624 9.79865e-21 0.129574 1.15568e-21 0.000378915)
(-0.123762 -0.0623119 1.28596e-20 0.123344 1.34649e-20 0.000417425)
(-0.117758 -0.0608348 1.73345e-20 0.117304 2.52205e-20 0.000453541)
(-0.111956 -0.0592022 2.35741e-20 0.111469 2.9686e-20 0.000487296)
(-0.106363 -0.0574675 9.92085e-21 0.105844 2.781e-20 0.000518691)
(-0.10098 -0.055671 -4.76147e-21 0.100432 2.8675e-20 0.000547716)
(-0.0958053 -0.0538433 -4.19429e-21 0.095231 1.91212e-20 0.000574334)
(-0.0908349 -0.0520076 -2.10786e-20 0.0902364 1.28374e-20 0.000598497)
(-0.0860631 -0.0501814 -1.52565e-20 0.085443 6.75154e-21 0.000620136)
(-0.0814838 -0.0483781 -6.7537e-21 0.0808446 1.53841e-21 0.000639177)
(-0.0770903 -0.0466079 -2.05496e-20 0.0764348 -9.78526e-21 0.000655522)
(-0.0728761 -0.0448785 -1.64024e-20 0.0722071 6.0468e-21 0.000669073)
(-0.0688348 -0.0431959 3.00863e-21 0.0681551 2.29021e-20 0.000679709)
(-0.0649602 -0.0415646 3.53044e-21 0.0642729 2.25354e-20 0.000687311)
(-0.0612469 -0.0399882 1.87689e-21 0.0605552 1.45033e-20 0.000691739)
(-0.0576897 -0.0384694 3.03689e-21 0.0569968 -2.85434e-21 0.000692855)
(-0.0542842 -0.0370105 1.7792e-20 0.0535937 -3.18779e-21 0.000690501)
(-0.0510264 -0.0356134 -7.48666e-21 0.0503419 5.6231e-22 0.000684527)
(-0.0479133 -0.0342797 -3.23509e-20 0.0472385 3.58128e-21 0.000674759)
(-0.0449423 -0.0330109 4.09961e-20 0.0442812 3.53467e-20 0.000661035)
(-0.0421114 -0.0318085 8.44332e-20 0.0414683 4.15802e-20 0.000643173)
(-0.0394197 -0.030674 8.62217e-20 0.0387987 3.2255e-20 0.000621002)
(-0.0368667 -0.0296091 -9.237e-21 0.0362724 2.18591e-20 0.000594333)
(-0.0344527 -0.0286153 -2.987e-20 0.0338897 -7.10756e-22 0.000562994)
(-0.0321788 -0.0276946 -3.23465e-20 0.031652 -1.70888e-20 0.000526797)
(-0.0300471 -0.0268489 -8.68682e-21 0.0295615 -3.27025e-20 0.000485573)
(-0.0280601 -0.0260804 -3.5839e-20 0.0276209 -3.0765e-20 0.000439139)
(-0.0262215 -0.0253914 2.95168e-20 0.0258341 5.2678e-21 0.00038734)
(-0.0245357 -0.0247844 -3.0792e-20 0.0242057 -3.48813e-21 0.00033001)
(-0.0230081 -0.0242621 -6.72107e-21 0.0227411 8.17421e-21 0.000267013)
(-0.0216448 -0.023828 -3.61693e-20 0.0214466 3.07429e-20 0.000198211)
(-0.0204516 -0.0234867 -1.71786e-20 0.0203281 5.8853e-20 0.000123503)
(-0.0194336 -0.0232465 2.0164e-20 0.0193908 1.94461e-20 4.2794e-05)
(-0.171531 -0.0571579 9.69755e-21 0.171499 -1.15359e-20 3.20723e-05)
(-0.165566 -0.0635167 1.58877e-20 0.165475 -1.18565e-20 9.0682e-05)
(-0.159083 -0.0674693 1.85598e-20 0.158937 -2.27151e-21 0.000145552)
(-0.152357 -0.0696902 2.54916e-20 0.15216 -5.28924e-21 0.000197073)
(-0.14557 -0.0706586 1.38895e-20 0.145325 -3.89493e-21 0.000245549)
(-0.138839 -0.0707194 1.06876e-21 0.138548 -2.92791e-21 0.000291209)
(-0.13224 -0.0701231 2.3339e-21 0.131905 1.12397e-21 0.000334231)
(-0.125818 -0.0690531 -1.56519e-21 0.125443 1.72264e-20 0.000374739)
(-0.119602 -0.0676453 1.30958e-20 0.119189 2.93138e-20 0.000412825)
(-0.113606 -0.0660004 3.85204e-20 0.113158 2.18118e-20 0.000448544)
(-0.107838 -0.0641939 3.6126e-20 0.107356 1.87657e-20 0.000481927)
(-0.102296 -0.0622823 1.3738e-20 0.101783 2.37504e-20 0.000512977)
(-0.0969781 -0.0603085 -9.26077e-22 0.0964364 2.99047e-20 0.000541684)
(-0.0918784 -0.0583046 -2.20669e-20 0.0913104 2.34819e-20 0.000568009)
(-0.0869897 -0.0562951 -3.31869e-20 0.0863978 2.42077e-20 0.000591908)
(-0.0823043 -0.0542986 -2.55305e-20 0.081691 2.60238e-20 0.00061331)
(-0.077814 -0.052329 -2.27254e-20 0.0771819 1.39527e-20 0.000632143)
(-0.0735109 -0.0503971 -4.16843e-20 0.0728626 1.47359e-20 0.00064831)