/*--------------------------------*- C++ -*----------------------------------*\
| =========                 |                                                 |
| \\      /  F ield         | foam-extend: Open Source CFD                    |
|  \\    /   O peration     | Version:  3.0                                   |
|   \\  /    A nd           | Web:         http://www.extend-project.de       |
|    \\/     M anipulation  |                                                 |
\*---------------------------------------------------------------------------*/
FoamFile
{
    version     2.0;
    format      ascii;
    class       volVectorField;
    location    "12";
    object      u;
}
// * * * * * * * * * * * * * * * * * * * * * * * * * * * * * * * * * * * * * //

dimensions      [0 0 0 0 0 0 0];

internalField   nonuniform List<vector> 
7680
(
(0.0729778 -0.0309833 1.89728e-19)
(0.191809 -0.0272688 2.13901e-19)
(0.292506 -0.0240761 9.82173e-20)
(0.378048 -0.0213194 1.68566e-19)
(0.451605 -0.0189349 7.1523e-20)
(0.514879 -0.0168606 2.02952e-19)
(0.569981 -0.0150516 1.18074e-19)
(0.617876 -0.0134639 2.04783e-19)
(0.660042 -0.0120665 3.34031e-19)
(0.697008 -0.010829 1.406e-19)
(0.72986 -0.00972998 8.80395e-20)
(0.758858 -0.00874839 9.97262e-20)
(0.78484 -0.00786928 5.6763e-20)
(0.807897 -0.00707809 -1.12648e-19)
(0.828702 -0.00636406 2.28256e-19)
(0.847238 -0.00571723 3.35173e-19)
(0.864066 -0.00512951 3.03283e-19)
(0.879097 -0.00459428 1.42925e-19)
(0.892814 -0.00410516 1.81474e-19)
(0.905078 -0.00365804 -2.68614e-19)
(0.91632 -0.00324758 7.0109e-20)
(0.926364 -0.00287166 1.24641e-19)
(0.935605 -0.00252554 2.31742e-19)
(0.943838 -0.00220874 1.53434e-19)
(0.951432 -0.00191679 1.87006e-19)
(0.958163 -0.00165063 4.28513e-19)
(0.96438 -0.00140583 5.94232e-19)
(0.969842 -0.00118459 1.99907e-19)
(0.974887 -0.000982308 3.54615e-20)
(0.979258 -0.000802355 1.80376e-19)
(0.983285 -0.000639734 3.4509e-19)
(0.986696 -0.000498842 3.0229e-19)
(0.989817 -0.000374059 7.4282e-20)
(0.992363 -0.000270561 -4.75566e-19)
(0.994656 -0.000181866 -1.33584e-19)
(0.996399 -0.000113809 7.67323e-20)
(0.99791 -5.97119e-05 6.08429e-19)
(0.998886 -2.80057e-05 1.94925e-19)
(0.99965 -1.53091e-05 9.17796e-20)
(0.999919 -2.53991e-05 1.34601e-19)
(0.0771129 -0.0945226 1.46858e-19)
(0.195457 -0.0833627 -9.8776e-20)
(0.295739 -0.0738364 1.24808e-19)
(0.380924 -0.0656527 2.43005e-19)
(0.454175 -0.0586009 2.75418e-20)
(0.517183 -0.0524843 9.54977e-21)
(0.572054 -0.0471615 1.2325e-20)
(0.619748 -0.0424988 1.95344e-19)
(0.661737 -0.0384015 5.44284e-20)
(0.698547 -0.0347781 3.08977e-20)
(0.731261 -0.0315646 1.17773e-19)
(0.760136 -0.0286979 1.92445e-19)
(0.786008 -0.0261336 2.48702e-19)
(0.808967 -0.0238277 1.60973e-19)
(0.829683 -0.0217486 4.29057e-19)
(0.848139 -0.0198655 5.818e-19)
(0.864894 -0.0181548 5.11101e-19)
(0.879859 -0.0165951 -6.91488e-20)
(0.893515 -0.0151681 -1.93426e-19)
(0.905724 -0.0138593 -3.38526e-19)
(0.916914 -0.0126538 2.29173e-19)
(0.926911 -0.0115423 2.94969e-19)
(0.936107 -0.0105117 2.10607e-19)
(0.944299 -0.00955716 4.12649e-20)
(0.951854 -0.00866663 1.00103e-18)
(0.958548 -0.00783842 5.09421e-19)
(0.964731 -0.00706111 2.47828e-19)
(0.97016 -0.00633569 -8.63539e-21)
(0.975174 -0.00565076 1.62607e-19)
(0.979514 -0.0050095 2.91268e-19)
(0.983511 -0.00440009 4.50532e-19)
(0.986893 -0.00382737 9.26954e-19)
(0.989986 -0.00327877 7.93996e-19)
(0.992505 -0.00276008 -5.58946e-19)
(0.994771 -0.00225781 -2.36484e-19)
(0.996488 -0.00177851 -2.95708e-19)
(0.997975 -0.00131028 1.07232e-18)
(0.998927 -0.000866832 2.69424e-19)
(0.999671 -0.000456196 2.67649e-19)
(0.999924 -0.000124411 8.30721e-19)
(0.0853954 -0.157654 2.96831e-19)
(0.202766 -0.139097 -1.60733e-19)
(0.302219 -0.123277 4.34846e-19)
(0.386693 -0.109702 4.11921e-20)
(0.459332 -0.0980134 4.34605e-19)
(0.521811 -0.0878806 6.33475e-20)
(0.576223 -0.079067 8.48342e-20)
(0.623514 -0.0713491 5.91743e-20)
(0.66515 -0.0645693 -8.06221e-19)
(0.701648 -0.0585755 -4.0166e-19)
(0.734085 -0.0532611 4.2885e-19)
(0.762714 -0.0485214 3.1557e-19)
(0.788366 -0.0442828 1.5148e-20)
(0.811127 -0.0404721 2.56599e-19)
(0.831665 -0.0370367 7.86445e-19)
(0.84996 -0.0339252 1.09951e-18)
(0.866568 -0.0310986 -4.69877e-19)
(0.881399 -0.028521 5.52888e-19)
(0.894933 -0.026162 -6.15598e-19)
(0.907028 -0.023997 8.40392e-20)
(0.918115 -0.0220014 1.88612e-19)
(0.928015 -0.0201588 6.7224e-19)
(0.937121 -0.018448 3.58404e-19)
(0.945229 -0.0168595 1.35732e-18)
(0.952706 -0.015374 4.03698e-19)
(0.959325 -0.013987 6.94778e-19)
(0.965437 -0.0126803 1.24345e-19)
(0.970799 -0.0114535 6.90026e-19)
(0.975748 -0.0102886 4.07438e-19)
(0.980027 -0.00918863 4.96569e-19)
(0.983963 -0.00813492 4.11658e-19)
(0.987288 -0.00713288 1.81583e-19)
(0.990324 -0.00616297 1.00472e-18)
(0.992789 -0.00523186 1.31809e-18)
(0.995001 -0.00431897 1.72897e-20)
(0.996667 -0.00343199 8.03336e-20)
(0.998104 -0.00255354 8.10166e-19)
(0.99901 -0.00170302 -1.41019e-19)
(0.999714 -0.000898574 -1.01578e-19)
(0.999934 -0.000227058 -2.77788e-19)
(0.0977893 -0.220107 3.17154e-19)
(0.213705 -0.194233 -2.51554e-19)
(0.311918 -0.172188 2.63809e-19)
(0.39533 -0.153279 3.68327e-19)
(0.467056 -0.137004 6.00401e-19)
(0.528744 -0.122898 -2.35689e-20)
(0.582468 -0.110631 1.75394e-19)
(0.629158 -0.0998911 2.85282e-19)
(0.670266 -0.0904578 -1.91008e-19)
(0.706297 -0.082119 4.74764e-19)
(0.73832 -0.0747265 7.14708e-19)
(0.766581 -0.068134 6.06248e-19)
(0.791903 -0.0622391 5.63677e-19)
(0.814368 -0.0569396 1.98123e-19)
(0.834639 -0.0521624 -8.1821e-19)
(0.852692 -0.0478357 -2.55381e-19)
(0.869081 -0.0439052 -1.04122e-18)
(0.88371 -0.0403205 -5.86491e-19)
(0.89706 -0.0370395 9.10786e-19)
(0.908987 -0.0340273 -2.2383e-19)
(0.919917 -0.0312498 1.03301e-18)
(0.929673 -0.0286838 7.05156e-19)
(0.938644 -0.0262999 6.75308e-19)
(0.946625 -0.0240841 -3.91711e-20)
(0.953983 -0.0220096 1.07415e-19)
(0.960491 -0.0200695 -5.59171e-19)
(0.966496 -0.0182387 -1.06789e-18)
(0.971757 -0.0165157 -8.40863e-20)
(0.976609 -0.0148757 5.01546e-19)
(0.980795 -0.0133216 1.22366e-18)
(0.984642 -0.0118281 7.88825e-19)
(0.98788 -0.0104013 -1.72832e-18)
(0.990832 -0.00901482 -3.50756e-19)
(0.993215 -0.00767636 3.36336e-18)
(0.995348 -0.00635832 -1.01739e-18)
(0.996936 -0.00507002 -4.1384e-19)
(0.998301 -0.00378827 4.3304e-19)
(0.999137 -0.00253856 -1.61629e-18)
(0.99978 -0.00134687 -2.99144e-19)
(0.99995 -0.000337715 1.58484e-19)
(0.114241 -0.281614 7.48283e-19)
(0.228226 -0.248534 6.40852e-19)
(0.324796 -0.220359 -5.9853e-20)
(0.406799 -0.196197 1.70374e-18)
(0.477314 -0.175404 5.88194e-19)
(0.537952 -0.157386 1.14909e-19)
(0.590764 -0.141719 2.99923e-19)
(0.636655 -0.128003 2.54143e-19)
(0.677063 -0.115956 -1.15034e-19)
(0.712474 -0.105308 5.12223e-19)
(0.743949 -0.0958687 7.23893e-19)
(0.77172 -0.0874516 9.77859e-19)
(0.796605 -0.0799254 1.40243e-18)
(0.818676 -0.0731598 -4.7305e-19)
(0.838593 -0.0670611 -1.31556e-18)
(0.856324 -0.0615375 -1.90733e-18)
(0.872421 -0.0565197 7.02329e-19)
(0.886784 -0.0519431 -4.23127e-19)
(0.899889 -0.0477538 -6.32355e-20)
(0.911591 -0.0439072 -1.13887e-19)
(0.922314 -0.0403595 1.01866e-18)
(0.931876 -0.0370809 7.72989e-19)
(0.940668 -0.0340338 -5.60871e-19)
(0.948481 -0.0311998 2.85552e-19)
(0.955681 -0.028545 7.58083e-19)
(0.96204 -0.0260599 4.61837e-19)
(0.967904 -0.0237126 -1.69183e-18)
(0.973031 -0.0215005 -7.0644e-19)
(0.977755 -0.0193922 5.36301e-19)
(0.981817 -0.0173908 -1.46174e-18)
(0.985545 -0.0154641 -1.331e-18)
(0.988669 -0.0136193 -1.09523e-18)
(0.991509 -0.0118229 -2.62076e-18)
(0.993783 -0.0100845 6.03205e-19)
(0.995812 -0.00836904 -2.57504e-18)
(0.997299 -0.00668834 -2.07052e-18)
(0.998567 -0.00501284 -1.92491e-18)
(0.999312 -0.00337458 -3.2026e-18)
(0.999873 -0.00180428 -1.84172e-19)
(0.999975 -0.000459659 1.80783e-18)
(0.13468 -0.341913 9.80521e-19)
(0.246268 -0.301768 9.60024e-19)
(0.340796 -0.267583 1.44948e-18)
(0.42105 -0.238273 4.12996e-19)
(0.49006 -0.213051 4.12679e-19)
(0.549396 -0.191198 1.58331e-18)
(0.601075 -0.172197 1.06854e-18)
(0.645974 -0.155563 3.74316e-19)
(0.685511 -0.140955 -5.13436e-19)
(0.720154 -0.128043 -2.78973e-19)
(0.750947 -0.116597 7.62988e-19)
(0.77811 -0.106391 3.27772e-19)
(0.802451 -0.0972658 1.63397e-18)
(0.824034 -0.0890628 4.44763e-19)
(0.843509 -0.0816686 -2.18577e-18)
(0.860841 -0.0749716 -1.72395e-18)
(0.876574 -0.0688878 4.99046e-19)
(0.890606 -0.0633386 -1.35584e-18)
(0.903407 -0.0582588 -8.55799e-19)
(0.91483 -0.053594 -1.05353e-18)
(0.925294 -0.0492911 -2.43888e-18)
(0.934617 -0.0453136 -2.72039e-18)
(0.943185 -0.0416161 9.57876e-19)
(0.95079 -0.0381758 8.94629e-19)
(0.957793 -0.0349518 -2.5742e-18)
(0.963968 -0.0319322 -1.41994e-18)
(0.969656 -0.0290782 -1.11206e-18)
(0.974617 -0.0263864 -2.26001e-18)
(0.97918 -0.0238189 -9.74807e-19)
(0.98309 -0.0213788 -1.62194e-18)
(0.986671 -0.0190275 8.63215e-19)
(0.989652 -0.0167733 1.07842e-18)
(0.992355 -0.0145758 -1.17755e-18)
(0.994496 -0.0124467 1.10742e-19)
(0.996396 -0.0103438 -4.2651e-18)
(0.997758 -0.00828184 5.29625e-19)
(0.998907 -0.00622444 1.5849e-18)
(0.999538 -0.0042105 -2.12397e-18)
(0.999997 -0.00227205 -4.29977e-20)
(1.00001 -0.000594544 1.93499e-18)
(0.15902 -0.400745 1.23978e-18)
(0.267752 -0.353707 -3.63859e-19)
(0.35985 -0.313658 8.8488e-19)
(0.438023 -0.279325 8.66064e-19)
(0.505241 -0.249783 -1.61761e-19)
(0.563025 -0.224188 -3.53695e-19)
(0.613356 -0.201935 -6.33417e-20)
(0.657075 -0.182454 6.30307e-19)
(0.695576 -0.165347 6.21545e-19)
(0.729303 -0.150226 -1.52936e-18)
(0.759283 -0.136823 -1.59306e-18)
(0.785723 -0.124872 -1.21565e-18)
(0.809416 -0.114186 1.35473e-18)
(0.830416 -0.104581 1.40095e-18)
(0.849367 -0.0959223 -9.06484e-19)
(0.866223 -0.0880805 -9.55776e-19)
(0.881524 -0.0809565 -1.44708e-18)
(0.89516 -0.0744583 -1.93807e-18)
(0.9076 -0.0685095 -1.47803e-18)
(0.918689 -0.0630462 -1.3416e-18)
(0.928845 -0.0580063 -2.75299e-18)
(0.937883 -0.0533467 -1.13619e-18)
(0.946185 -0.0490143 1.00945e-18)
(0.953542 -0.0449823 3.64449e-19)
(0.960311 -0.0412027 -1.0989e-18)
(0.966266 -0.0376612 -3.20472e-18)
(0.971746 -0.0343126 3.59974e-19)
(0.976508 -0.0311526 -2.35818e-18)
(0.980882 -0.0281368 -1.15313e-18)
(0.984611 -0.0252688 -8.94985e-19)
(0.988017 -0.0225034 5.76932e-18)
(0.99083 -0.0198503 1.83229e-18)
(0.99337 -0.0172625 1.224e-18)
(0.995354 -0.014754 1.25258e-18)
(0.997101 -0.0122754 2.04779e-18)
(0.998316 -0.00984522 1.55027e-18)
(0.999323 -0.00741961 1.47483e-18)
(0.999819 -0.00504455 1.41039e-18)
(1.00015 -0.00274985 5.118e-18)
(1.00006 -0.000742716 1.00029e-18)
(0.187154 -0.457857 1.44972e-18)
(0.292587 -0.404128 1.00364e-19)
(0.381877 -0.358388 6.95538e-19)
(0.457643 -0.319178 -3.50722e-19)
(0.522792 -0.285443 -1.04244e-18)
(0.578783 -0.256216 -4.77417e-19)
(0.627555 -0.230805 6.81392e-19)
(0.669911 -0.208561 2.10193e-19)
(0.707213 -0.189027 7.68808e-19)
(0.739881 -0.171762 -7.37827e-19)
(0.768923 -0.156459 8.41968e-19)
(0.794526 -0.142814 -1.02139e-18)
(0.81747 -0.130613 4.24632e-19)
(0.837798 -0.119646 -2.1804e-19)
(0.856142 -0.109761 1.09039e-18)
(0.872448 -0.100808 -1.32298e-20)
(0.887248 -0.0926738 7.30475e-19)
(0.900428 -0.0852543 -1.3172e-18)
(0.912449 -0.0784618 2.27054e-18)
(0.923153 -0.0722231 1.55558e-18)
(0.932954 -0.0664675 -1.6602e-18)
(0.941662 -0.0611455 -6.51735e-19)
(0.949656 -0.0561967 -1.13668e-18)
(0.956726 -0.0515899 9.2703e-19)
(0.963225 -0.0472706 8.84173e-19)
(0.968926 -0.0432223 -1.79957e-18)
(0.974165 -0.0393933 3.11416e-18)
(0.978699 -0.0357787 2.821e-18)
(0.982855 -0.0323275 -6.56125e-18)
(0.986375 -0.0290443 -3.56389e-18)
(0.98958 -0.0258771 -1.61557e-18)
(0.9922 -0.0228376 5.04674e-19)
(0.994553 -0.0198719 3.59477e-18)
(0.996356 -0.016997 -3.63318e-18)
(0.997928 -0.0141562 2.1745e-19)
(0.998974 -0.0113724 3.08201e-18)
(0.999818 -0.00859374 2.48834e-18)
(1.00016 -0.00587336 9.01656e-19)
(1.00035 -0.00323551 2.24103e-18)
(1.00012 -0.000903041 -1.24667e-18)
(0.218963 -0.513007 1.51446e-18)
(0.320666 -0.452817 5.60652e-19)
(0.406782 -0.40158 4.6981e-19)
(0.479828 -0.357662 -6.75383e-19)
(0.542637 -0.319877 6.29483e-19)
(0.596602 -0.287143 1.1415e-18)
(0.643612 -0.258683 6.70651e-20)
(0.684425 -0.233772 3.82472e-19)
(0.720373 -0.211895 8.80068e-19)
(0.751844 -0.19256 5.82398e-19)
(0.779825 -0.175422 9.25765e-19)
(0.804481 -0.16014 1.51945e-18)
(0.82658 -0.146477 6.76707e-19)
(0.846147 -0.134196 1.28934e-18)
(0.863804 -0.123125 2.65441e-18)
(0.879488 -0.113099 -1.89732e-19)
(0.893723 -0.10399 5.43746e-19)
(0.906387 -0.0956803 -6.27432e-19)
(0.917935 -0.0880729 2.82027e-18)
(0.928203 -0.0810855 2.52965e-18)
(0.937601 -0.0746385 4.80778e-19)
(0.945936 -0.0686768 8.45015e-19)
(0.953584 -0.0631324 -1.35317e-18)
(0.960329 -0.0579705 -1.33133e-18)
(0.966524 -0.0531298 9.91217e-19)
(0.971938 -0.0485919 1.3929e-18)
(0.976905 -0.0442988 2.16608e-18)
(0.981181 -0.0402451 4.73512e-18)
(0.985091 -0.0363736 -1.34917e-18)
(0.988376 -0.0326896 2.94441e-18)
(0.991355 -0.0291347 -3.00208e-19)
(0.993758 -0.025723 -2.10447e-18)
(0.995901 -0.0223934 -8.06488e-19)
(0.997502 -0.0191667 -2.40186e-18)
(0.998877 -0.0159787 -1.4009e-18)
(0.999733 -0.0128571 -4.85039e-19)
(1.00039 -0.00974175 -4.40218e-18)
(1.00056 -0.00669266 -2.4308e-18)
(1.00058 -0.00372572 7.97655e-18)
(1.00019 -0.00107351 -8.93097e-19)
(0.254311 -0.565956 -1.06388e-19)
(0.351869 -0.499563 -6.87635e-19)
(0.434459 -0.44305 1.05632e-18)
(0.504483 -0.394611 1.20772e-18)
(0.564692 -0.352939 5.6506e-19)
(0.616404 -0.316837 -1.63569e-18)
(0.661457 -0.285451 -1.03593e-19)
(0.700556 -0.257978 4.91031e-19)
(0.735 -0.233852 1.43361e-18)
(0.765141 -0.212529 1.7132e-18)
(0.791943 -0.193629 -1.11281e-18)
(0.815547 -0.176777 -1.20049e-18)
(0.836705 -0.16171 1.32008e-19)
(0.855426 -0.148166 -1.75676e-18)
(0.872321 -0.135958 8.78403e-19)
(0.887314 -0.124901 1.75145e-18)
(0.900921 -0.114855 -4.04172e-19)
(0.913011 -0.105692 1.04433e-18)
(0.924033 -0.0973017 2.15108e-18)
(0.933818 -0.0895951 1.22801e-18)
(0.942769 -0.0824843 1.12803e-18)
(0.95069 -0.0759082 2.79095e-19)
(0.957951 -0.0697917 8.89691e-19)
(0.964337 -0.0640966 -1.7019e-18)
(0.970193 -0.0587551 -1.81719e-18)
(0.975289 -0.053747 4.87007e-18)
(0.979955 -0.0490082 3.1252e-19)
(0.983946 -0.0445328 -2.50079e-18)
(0.987583 -0.0402578 -7.44368e-18)
(0.990608 -0.0361892 -2.25191e-18)
(0.993337 -0.0322627 -6.27028e-19)
(0.9955 -0.0284943 9.19347e-19)
(0.997411 -0.0248167 -2.60412e-18)
(0.998788 -0.0212541 5.03791e-18)
(0.999946 -0.0177351 -3.7249e-18)
(1.00059 -0.0142926 2.02142e-18)
(1.00105 -0.0108578 7.55496e-20)
(1.00102 -0.00749716 1.56428e-18)
(1.00085 -0.00421601 1.35981e-18)
(1.00028 -0.00125127 -3.3039e-18)
(0.293046 -0.61648 -1.08099e-18)
(0.386063 -0.544168 -6.25833e-19)
(0.464788 -0.48262 9.88346e-20)
(0.5315 -0.429868 -2.56278e-18)
(0.588861 -0.384486 -1.93878e-18)
(0.638106 -0.345172 1.03324e-18)
(0.681014 -0.310993 1.04713e-18)
(0.718236 -0.281076 3.50308e-18)
(0.75103 -0.254804 2.45617e-18)
(0.779714 -0.231585 -1.50604e-18)
(0.805224 -0.211004 -2.59133e-18)
(0.827676 -0.192653 -7.97631e-19)
(0.847804 -0.176246 -6.61984e-19)
(0.865598 -0.161498 6.62473e-19)
(0.881657 -0.148204 2.28514e-18)
(0.895893 -0.136163 1.90618e-18)
(0.908811 -0.125224 5.5167e-19)
(0.920272 -0.115245 3.25407e-18)
(0.930718 -0.106109 3.60584e-18)
(0.939973 -0.0977158 -2.41093e-19)
(0.948435 -0.0899714 -1.70858e-18)
(0.955902 -0.0828088 -1.40875e-18)
(0.962741 -0.0761463 1.68538e-18)
(0.968732 -0.0699423 -3.93011e-20)
(0.974219 -0.0641228 -2.58574e-18)
(0.978966 -0.0586659 1.44547e-18)
(0.983303 -0.0535017 -1.89563e-18)
(0.986982 -0.048624 1.7168e-18)
(0.990321 -0.043964 -7.43579e-18)
(0.993063 -0.0395289 -6.3137e-18)
(0.995519 -0.0352482 -1.86513e-18)
(0.997421 -0.0311404 -1.27997e-19)
(0.999078 -0.0271318 1.27445e-18)
(1.00021 -0.0232505 3.42118e-18)
(1.00113 -0.0194179 -4.15049e-18)
(1.00155 -0.0156721 3.7166e-18)
(1.00179 -0.0119358 4.83464e-19)
(1.00154 -0.00828128 -1.52854e-18)
(1.00116 -0.00470155 2.19581e-18)
(1.00039 -0.00143323 -1.86481e-18)
(0.335002 -0.664361 3.5755e-18)
(0.4231 -0.58644 2.28709e-18)
(0.49764 -0.520121 1.12782e-18)
(0.560766 -0.463281 3.18431e-19)
(0.615042 -0.414384 -1.50557e-18)
(0.661615 -0.372025 8.71273e-19)
(0.702199 -0.3352 1.28985e-18)
(0.737387 -0.302967 3.42704e-19)
(0.768396 -0.274661 -8.17397e-19)
(0.795501 -0.249645 1.9254e-18)
(0.819611 -0.227471 2.55305e-19)
(0.840815 -0.2077 3.17199e-19)
(0.859827 -0.190023 -2.38889e-18)
(0.876618 -0.174134 -1.24058e-18)
(0.891772 -0.159811 9.7792e-19)
(0.905187 -0.146838 -1.19113e-18)
(0.91736 -0.135052 -1.27174e-18)
(0.92814 -0.1243 -1.07457e-18)
(0.937962 -0.114456 4.42956e-19)
(0.946643 -0.105413 1.22948e-18)
(0.954575 -0.0970676 -1.91797e-18)
(0.961552 -0.0893491 -1.53887e-18)
(0.967933 -0.082169 2.57732e-18)
(0.973498 -0.0754825 2.87237e-18)
(0.978584 -0.0692099 -7.13028e-19)
(0.982955 -0.0633276 5.49607e-18)
(0.986935 -0.0577601 -1.48185e-18)
(0.990278 -0.0525013 5.03287e-19)
(0.993295 -0.0474766 -6.569e-19)
(0.995731 -0.0426944 1.94518e-18)
(0.997893 -0.0380785 -2.1281e-18)
(0.999513 -0.03365 -1.28263e-18)
(1.0009 -0.0293289 5.43759e-18)
(1.00177 -0.0251471 5.77731e-18)
(1.00244 -0.0210194 -4.55482e-18)
(1.00261 -0.0169888 -2.53065e-19)
(1.0026 -0.0129695 1.12828e-18)
(1.00212 -0.00903906 -2.78643e-18)
(1.00151 -0.00517713 -7.64377e-18)
(1.00051 -0.0016161 -1.78286e-18)
(0.38 -0.709394 3.44314e-18)
(0.462823 -0.626198 2.40256e-18)
(0.532875 -0.555391 1.1657e-18)
(0.592154 -0.494708 6.70789e-19)
(0.643122 -0.442504 2.96544e-19)
(0.686829 -0.397282 -1.46773e-18)
(0.724921 -0.357968 2.21197e-18)
(0.757929 -0.323557 1.26416e-18)
(0.787022 -0.293338 -2.41748e-20)
(0.812434 -0.266632 1.67236e-18)
(0.835044 -0.24296 3.02327e-19)
(0.85491 -0.221854 -3.11334e-18)
(0.872724 -0.202983 -5.92022e-19)
(0.888438 -0.186019 -2.12522e-18)
(0.902622 -0.170729 -1.70776e-18)
(0.915157 -0.156879 -1.70471e-18)
(0.926531 -0.144297 7.95452e-19)
(0.936581 -0.132818 1.84111e-18)
(0.945734 -0.122308 2.16392e-18)
(0.9538 -0.112653 -2.48159e-18)
(0.961163 -0.103743 -1.0204e-18)
(0.967614 -0.0955012 -1.13984e-18)
(0.973506 -0.0878342 -1.94936e-18)
(0.978613 -0.0806938 1.23431e-18)
(0.98327 -0.0739949 1.35623e-18)
(0.987239 -0.0677125 5.45665e-18)
(0.990838 -0.0617658 -1.11365e-20)
(0.99382 -0.0561486 2.52096e-18)
(0.996493 -0.0507811 2.2056e-18)
(0.998602 -0.0456728 -1.35683e-18)
(1.00045 -0.0407422 1.02743e-18)
(1.00177 -0.0360128 -8.91444e-19)
(1.00286 -0.0313988 -7.18493e-19)
(1.00346 -0.0269359 5.80155e-18)
(1.00385 -0.0225324 8.13565e-18)
(1.00376 -0.018236 -1.13899e-18)
(1.00349 -0.0139528 4.58373e-19)
(1.00276 -0.00976484 -2.90877e-18)
(1.0019 -0.00563782 4.60186e-18)
(1.00065 -0.00179686 -3.34595e-19)
(0.427846 -0.751388 -1.74238e-19)
(0.505061 -0.663272 1.68067e-18)
(0.57034 -0.588281 1.04599e-18)
(0.62553 -0.524013 1.03336e-18)
(0.67298 -0.468727 3.56881e-18)
(0.71364 -0.420835 7.63373e-19)
(0.749083 -0.3792 1.2394e-18)
(0.779772 -0.342757 5.52207e-19)
(0.806829 -0.310756 -2.49491e-18)
(0.830441 -0.282473 -9.31217e-19)
(0.851455 -0.257405 -4.03658e-19)
(0.869898 -0.235053 -1.8348e-19)
(0.88644 -0.215068 -6.49662e-19)
(0.901009 -0.197104 -4.50936e-19)
(0.914161 -0.180911 -4.88137e-19)
(0.925761 -0.166244 3.92995e-18)
(0.936284 -0.152919 -2.44227e-19)
(0.945558 -0.140762 5.75387e-18)
(0.954 -0.129631 4.29318e-18)
(0.961413 -0.119405 1.86292e-18)
(0.968172 -0.109968 7.41279e-19)
(0.974063 -0.101239 -3.99837e-19)
(0.979435 -0.0931178 -1.8255e-18)
(0.984057 -0.0855541 2.3303e-18)
(0.988258 -0.0784576 2.00973e-19)
(0.991799 -0.071802 -2.2427e-18)
(0.994994 -0.0655017 3.63803e-18)
(0.997593 -0.0595504 -1.14591e-18)
(0.999902 -0.0538634 3.63245e-19)
(1.00166 -0.0484515 -1.97364e-18)
(1.00318 -0.043228 -7.14814e-19)
(1.00418 -0.0382187 -3.27649e-18)
(1.00496 -0.0333326 4.59565e-18)
(1.00526 -0.0286089 3.88496e-18)
(1.00537 -0.0239496 2.1702e-18)
(1.005 -0.0194072 6.60515e-18)
(1.00445 -0.0148797 -3.38145e-18)
(1.00345 -0.010453 4.96556e-19)
(1.00232 -0.00607878 -5.83597e-18)
(1.00081 -0.00197262 -7.10062e-18)
(0.478336 -0.790161 3.99992e-19)
(0.549633 -0.697503 1.6411e-18)
(0.609876 -0.618649 7.90175e-19)
(0.660752 -0.551071 1.55336e-18)
(0.70449 -0.492939 2.28453e-18)
(0.741934 -0.442582 1.94243e-18)
(0.774582 -0.398805 8.14177e-19)
(0.802824 -0.360487 -9.64862e-19)
(0.827732 -0.326839 -3.42354e-18)
(0.849445 -0.297101 6.00264e-19)
(0.868775 -0.270743 -1.04658e-18)
(0.885716 -0.247241 -8.48377e-19)
(0.900915 -0.226228 -5.29988e-18)
(0.914277 -0.20734 -2.83025e-18)
(0.926339 -0.190314 -2.44967e-18)
(0.936953 -0.174892 -4.76443e-19)
(0.946579 -0.160881 -2.31221e-19)
(0.955035 -0.148098 -7.73953e-19)
(0.962726 -0.136394 -9.84242e-20)
(0.969449 -0.125641 -2.55728e-18)
(0.975571 -0.115717 2.72908e-18)
(0.980873 -0.106538 7.112e-19)
(0.985695 -0.0979973 1.78087e-18)
(0.989806 -0.0900427 7.14637e-19)
(0.993527 -0.0825791 -1.14356e-19)
(0.996618 -0.075579 -9.92988e-19)
(0.999386 -0.0689523 6.72493e-19)
(1.00158 -0.0626927 -1.68763e-18)
(1.00351 -0.0567109 2.9711e-18)
(1.00491 -0.051019 2.91521e-18)
(1.00607 -0.0455255 1.53398e-18)
(1.00674 -0.0402586 -2.10258e-21)
(1.0072 -0.0351221 1.75253e-18)
(1.00718 -0.0301586 -4.17918e-18)
(1.00698 -0.0252646 -1.9801e-20)
(1.00631 -0.0204964 -2.00781e-18)
(1.00548 -0.0157448 -5.98612e-18)
(1.00419 -0.0110985 -2.6449e-18)
(1.00277 -0.00649584 -6.16086e-18)
(1.00097 -0.00214098 -1.75156e-18)
(0.531254 -0.825548 3.33057e-18)
(0.596348 -0.728745 2.19238e-18)
(0.651314 -0.646365 9.00387e-20)
(0.697667 -0.575767 2.15591e-18)
(0.737515 -0.515038 1.48054e-18)
(0.771589 -0.462431 3.67015e-18)
(0.801308 -0.416698 2.64443e-18)
(0.826986 -0.376669 1.52874e-18)
(0.849642 -0.341519 -3.30674e-21)
(0.869364 -0.310453 1.02062e-18)
(0.886929 -0.282918 -7.32212e-19)
(0.902296 -0.258367 1.03442e-18)
(0.916088 -0.236416 1.12423e-18)
(0.928184 -0.216684 -5.64576e-19)
(0.939105 -0.198897 -2.04454e-18)
(0.948685 -0.182787 -4.26209e-18)
(0.957371 -0.168149 -3.90876e-18)
(0.964969 -0.154796 -4.2946e-19)
(0.971874 -0.142568 -6.48755e-18)
(0.977874 -0.131334 -1.20909e-18)
(0.98333 -0.120966 2.57704e-18)
(0.988014 -0.111375 -3.53915e-19)
(0.992261 -0.102452 -7.61967e-19)
(0.995836 -0.0941407 -9.83038e-19)
(0.999055 -0.086342 -6.02321e-19)
(1.00167 -0.0790275 -2.72903e-18)
(1.004 -0.0721029 1.53045e-18)
(1.00577 -0.0655621 -9.79442e-19)
(1.00729 -0.0593116 2.0175e-18)
(1.00831 -0.0533645 2.0177e-18)
(1.00911 -0.047625 5.5408e-18)
(1.00942 -0.0421236 4.90497e-19)
(1.00954 -0.0367594 -5.79386e-19)
(1.0092 -0.031578 -6.92214e-18)
(1.00868 -0.0264708 4.90007e-18)
(1.00771 -0.0214978 -8.4944e-18)
(1.00657 -0.0165427 -1.58323e-18)
(1.00498 -0.0116967 1.32268e-18)
(1.00326 -0.0068851 -1.09135e-18)
(1.00115 -0.0022998 2.75297e-18)
(0.586373 -0.857399 3.02959e-18)
(0.645007 -0.756865 3.10358e-18)
(0.694476 -0.671311 -9.49009e-19)
(0.736118 -0.597995 2.78066e-18)
(0.771914 -0.534927 1.56813e-18)
(0.802479 -0.480297 1.33281e-18)
(0.829147 -0.432804 1.11156e-18)
(0.852153 -0.391235 6.45603e-19)
(0.872464 -0.354732 -1.3967e-18)
(0.890112 -0.322472 2.90319e-18)
(0.90584 -0.293877 1.55341e-18)
(0.919568 -0.268381 7.9228e-20)
(0.931893 -0.245586 -2.73106e-18)
(0.942672 -0.225095 -6.16051e-18)
(0.952404 -0.206624 -1.38791e-18)
(0.960907 -0.189894 1.32286e-18)
(0.968615 -0.174693 1.29581e-18)
(0.975318 -0.160825 -1.42561e-18)
(0.981406 -0.148126 -2.59149e-18)
(0.986653 -0.13646 6.22236e-19)
(0.991414 -0.125692 1.58537e-20)
(0.995455 -0.115731 -3.35965e-18)
(0.999104 -0.106463 -3.8882e-18)
(1.00212 -0.0978308 -3.89097e-18)
(1.00482 -0.0897305 7.8301e-19)
(1.00695 -0.0821331 -3.08798e-18)
(1.0088 -0.0749405 1.12511e-19)
(1.01014 -0.0681468 3.15439e-18)
(1.01125 -0.0616546 4.97027e-18)
(1.01187 -0.0554781 -1.65302e-18)
(1.01228 -0.0495178 3.77561e-18)
(1.01223 -0.0438059 -1.69024e-18)
(1.012 -0.0382374 3.93979e-18)
(1.01132 -0.0328609 4.08664e-18)
(1.01047 -0.0275627 5.02811e-18)
(1.00917 -0.0224062 -5.75965e-18)
(1.00771 -0.0172689 5.05778e-18)
(1.00581 -0.0122437 -7.34005e-18)
(1.00377 -0.0072434 -5.52037e-18)
(1.00134 -0.00244742 2.25036e-18)
(0.643456 -0.885575 3.62893e-18)
(0.6954 -0.781741 7.56556e-19)
(0.739176 -0.69338 1.4846e-19)
(0.775941 -0.617659 4.17894e-18)
(0.807541 -0.552524 1.46116e-18)
(0.834471 -0.496102 -9.5607e-19)
(0.857979 -0.447053 -2.0608e-18)
(0.878219 -0.404122 5.23319e-19)
(0.8961 -0.366423 1.52821e-18)
(0.911602 -0.333105 4.05137e-19)
(0.925426 -0.303574 2.45203e-18)
(0.937456 -0.277243 3.2379e-20)
(0.948264 -0.253701 1.05324e-18)
(0.957677 -0.232538 1.38402e-18)
(0.966179 -0.213462 3.98439e-18)
(0.973567 -0.196183 1.29549e-18)
(0.980261 -0.180484 1.04392e-18)
(0.986039 -0.166161 1.96981e-19)
(0.991279 -0.153046 1.38288e-18)
(0.995748 -0.140996 -2.67646e-18)
(0.99979 -0.129875 -2.82952e-19)
(1.00317 -0.119587 -1.03998e-18)
(1.0062 -0.110014 -2.75512e-19)
(1.00864 -0.101097 -4.44068e-18)
(1.01079 -0.0927302 1.39598e-18)
(1.01241 -0.0848826 -2.68509e-18)
(1.01379 -0.0774531 -2.26493e-18)
(1.01467 -0.0704357 6.61205e-19)
(1.01535 -0.06373 1.36236e-18)
(1.01556 -0.057351 -5.34632e-19)
(1.01558 -0.0511957 -3.00778e-18)
(1.01515 -0.0452982 1.25406e-18)
(1.01455 -0.0395496 -3.24691e-18)
(1.01352 -0.0340011 -1.57116e-18)
(1.01233 -0.0285349 4.89978e-18)
(1.0107 -0.0232169 7.4444e-18)
(1.0089 -0.0179192 7.74818e-18)
(1.00668 -0.0127356 2.0105e-18)
(1.0043 -0.00756786 -4.22254e-18)
(1.00154 -0.00258238 -1.70505e-19)
(0.70226 -0.909958 3.31316e-18)
(0.747312 -0.803267 1.38647e-18)
(0.785224 -0.712477 1.63357e-18)
(0.816964 -0.634675 1.77651e-18)
(0.844242 -0.567751 -2.09618e-18)
(0.867428 -0.50978 -2.00124e-18)
(0.88768 -0.459384 1.50724e-19)
(0.905072 -0.415274 1.02674e-18)
(0.92045 -0.376541 2.6988e-19)
(0.93374 -0.342309 1.84324e-18)
(0.945604 -0.311967 2.3853e-18)
(0.955885 -0.284913 -1.75345e-18)
(0.965129 -0.260725 1.68855e-18)
(0.973137 -0.238981 4.79985e-19)
(0.980371 -0.219381 -1.72127e-18)
(0.98661 -0.201628 -3.18534e-21)
(0.99226 -0.185498 1.50188e-18)
(0.997086 -0.170781 5.60645e-19)
(1.00145 -0.157305 2.06434e-18)
(1.00512 -0.144924 -3.74495e-18)
(1.00842 -0.133497 1.57093e-18)
(1.01111 -0.122925 -3.75339e-20)
(1.0135 -0.113089 -2.86076e-19)
(1.01535 -0.103926 1.32598e-18)
(1.01695 -0.0953286 3.03455e-18)
(1.01805 -0.0872646 1.65886e-18)
(1.01893 -0.0796301 3.27996e-19)
(1.01935 -0.0724195 4.17762e-19)
(1.01958 -0.0655291 1.17488e-18)
(1.01937 -0.0589753 2.0784e-18)
(1.01898 -0.0526517 -1.2359e-18)
(1.01817 -0.046594 -3.46476e-18)
(1.01719 -0.0406903 -1.25726e-18)
(1.0158 -0.0349937 3.6804e-18)
(1.01425 -0.0293828 -8.88859e-18)
(1.01228 -0.0239259 -9.73755e-18)
(1.01014 -0.01849 5.17056e-18)
(1.00758 -0.0131696 -3.06038e-18)
(1.00486 -0.00785631 -1.01962e-18)
(1.00174 -0.00270365 3.1605e-19)
(0.762533 -0.930442 2.7549e-18)
(0.800521 -0.821351 2.42429e-18)
(0.832423 -0.728521 6.30009e-19)
(0.859012 -0.648971 1.58376e-18)
(0.88186 -0.580544 1.55341e-18)
(0.901208 -0.521272 -5.26855e-19)
(0.918124 -0.469745 -6.70295e-19)
(0.932595 -0.424645 5.68991e-19)
(0.94541 -0.385042 1.49715e-18)
(0.956432 -0.350042 2.23042e-18)
(0.966286 -0.31902 1.55218e-18)
(0.974776 -0.291359 3.06953e-18)
(0.982417 -0.266628 1.61795e-18)
(0.988983 -0.244397 -3.22705e-18)
(0.994918 -0.224357 -3.03596e-18)
(0.99998 -0.206205 -1.50848e-18)
(1.00456 -0.189713 -3.74738e-18)
(1.00841 -0.174666 -6.50779e-19)
(1.01188 -0.160887 1.26946e-18)
(1.01473 -0.148227 1.61806e-18)
(1.01727 -0.136543 1.18076e-18)
(1.01926 -0.125733 8.49161e-20)
(1.021 -0.115675 -2.13888e-18)
(1.02224 -0.106306 -7.76979e-19)
(1.02326 -0.0975147 -7.49874e-20)
(1.02383 -0.089269 -1.43935e-18)
(1.0242 -0.0814624 1.82387e-18)
(1.02415 -0.0740896 -6.75894e-19)
(1.02392 -0.0670444 1.00032e-18)
(1.02328 -0.060344 -7.32184e-18)
(1.02248 -0.0538794 -9.6148e-19)
(1.02127 -0.0476876 2.51726e-18)
(1.01991 -0.0416542 -4.20708e-18)
(1.01814 -0.0358338 -3.75539e-18)
(1.01623 -0.0301022 -5.00552e-18)
(1.0139 -0.0245294 -2.91514e-20)
(1.01141 -0.0189781 -2.73539e-18)
(1.0085 -0.0135431 -3.65748e-18)
(1.00544 -0.00810675 2.38646e-18)
(1.00196 -0.00281029 3.42551e-18)
(0.824016 -0.94694 -1.2582e-19)
(0.854799 -0.835917 -1.06302e-18)
(0.88057 -0.741443 -3.04428e-19)
(0.901905 -0.660486 1.73504e-18)
(0.920234 -0.590848 -6.71208e-19)
(0.935668 -0.530528 2.53381e-19)
(0.949181 -0.478091 -2.22239e-18)
(0.960673 -0.432194 -1.54189e-18)
(0.970871 -0.391891 1.2309e-18)
(0.979581 -0.356273 3.628e-18)
(0.987385 -0.324702 3.24634e-18)
(0.994047 -0.296553 -3.71997e-19)
(1.00005 -0.271385 -3.29222e-18)
(1.00515 -0.248761 -3.32642e-18)
(1.00976 -0.228367 -2.252e-18)
(1.01362 -0.209895 2.79073e-18)
(1.01711 -0.193111 1.29141e-18)
(1.01996 -0.177798 -1.36143e-18)
(1.02252 -0.163775 1.78974e-18)
(1.02453 -0.150891 1.09597e-18)
(1.0263 -0.139 1.81343e-18)
(1.02757 -0.127999 1.43277e-18)
(1.02865 -0.117762 -7.88228e-18)
(1.02926 -0.108227 -2.7958e-18)
(1.02971 -0.0992794 6.92262e-18)
(1.02973 -0.0908874 -1.23048e-18)
(1.02959 -0.0829424 1.54986e-18)
(1.02905 -0.0754391 2.22248e-18)
(1.02836 -0.0682696 -4.68908e-18)
(1.02727 -0.0614513 -2.01004e-18)
(1.02605 -0.0548736 1.00845e-18)
(1.02443 -0.0485745 5.152e-18)
(1.02268 -0.0424372 1.83252e-18)
(1.02054 -0.0365179 6.94724e-18)
(1.01825 -0.0306899 7.26054e-18)
(1.01556 -0.0250245 2.25667e-18)
(1.01272 -0.0193811 3.65565e-18)
(1.00945 -0.013854 1.80203e-18)
(1.00602 -0.00831784 -5.51499e-18)
(1.00218 -0.00290174 2.12801e-18)
(0.886446 -0.959381 -3.03007e-19)
(0.909913 -0.8469 -9.69477e-19)
(0.929458 -0.751187 -4.67114e-20)
(0.945459 -0.669169 3.5414e-20)
(0.9592 -0.59862 -2.41039e-18)
(0.970659 -0.53751 -9.5583e-19)
(0.980716 -0.484386 -3.03816e-19)
(0.989183 -0.437889 -1.54464e-18)
(0.996725 -0.397059 -6.45305e-19)
(1.00309 -0.360975 2.55964e-20)
(1.00881 -0.328991 1.97986e-19)
(1.01362 -0.300474 -4.16192e-18)
(1.01796 -0.274976 -3.55249e-18)
(1.02157 -0.252057 2.36291e-18)
(1.02483 -0.231396 -9.86985e-19)
(1.02747 -0.212682 1.10303e-18)
(1.02985 -0.195678 6.05456e-19)
(1.0317 -0.180164 8.52572e-19)
(1.03333 -0.165957 5.59024e-18)
(1.03449 -0.152905 1.6176e-19)
(1.03547 -0.140857 4.31419e-18)
(1.03602 -0.129712 3.93592e-18)
(1.03642 -0.119341 -5.22677e-18)
(1.0364 -0.109681 -3.63233e-18)
(1.03626 -0.100615 1.09663e-18)
(1.03572 -0.0921131 -3.3119e-18)
(1.03506 -0.0840638 3.68431e-18)
(1.03403 -0.0764624 6.71255e-18)