/*--------------------------------*- C++ -*----------------------------------*\
| =========                 |                                                 |
| \\      /  F ield         | foam-extend: Open Source CFD                    |
|  \\    /   O peration     | Version:  3.0                                   |
|   \\  /    A nd           | Web:         http://www.extend-project.de       |
|    \\/     M anipulation  |                                                 |
\*---------------------------------------------------------------------------*/
FoamFile
{
    version     2.0;
    format      ascii;
    class       volVectorField;
    location    "13";
    object      u;
}
// * * * * * * * * * * * * * * * * * * * * * * * * * * * * * * * * * * * * * //

dimensions      [0 0 0 0 0 0 0];

internalField   nonuniform List<vector> 
728
(
(1.02381 -0.00565837 3.88867e-19)
(1.02356 -0.00554231 3.08149e-19)
(1.01139 0.0103818 -1.72382e-18)
(1.01106 0.0110017 -2.51407e-18)
(1.41452 -0.0752452 -1.54115e-18)
(1.41496 -0.0754938 2.05028e-18)
(0.597999 0.00788531 -6.5383e-17)
(0.600709 0.00435462 1.01456e-17)
(1.09821 0.102403 -1.28364e-17)
(1.01358 -0.0896579 4.62649e-18)
(1.10013 0.101868 5.41764e-18)
(1.0123 -0.0888077 -3.2891e-18)
(1.07173 0.0965081 -4.79901e-19)
(0.997473 -0.0820111 1.52915e-18)
(1.07387 0.0964431 9.15138e-18)
(0.996822 -0.0799326 -2.73173e-17)
(1.10719 -0.0114607 -6.38903e-18)
(0.974818 0.00327084 -4.47661e-18)
(0.976096 0.00349782 -2.29675e-17)
(1.10651 -0.011439 3.0506e-18)
(1.17837 0.0711017 8.25333e-18)
(0.951766 -0.0778663 2.87571e-18)
(0.946599 -0.080867 -2.49311e-18)
(1.17867 0.0710292 4.52806e-19)
(1.78414 0.0796176 -1.00989e-17)
(0.563879 0.214952 4.56025e-17)
(0.563569 0.220987 -7.29372e-17)
(1.78401 0.0791173 -9.67347e-19)
(1.11832 -0.0189914 -6.48373e-18)
(0.955642 0.000539565 4.63363e-18)
(0.957596 0.000873885 2.47235e-17)
(1.11861 -0.0197112 4.56232e-18)
(1.23358 0.0766104 7.145e-18)
(0.930038 -0.0272915 -2.60867e-18)
(0.927873 -0.029266 -3.03e-18)
(1.2344 0.0762393 1.52792e-18)
(0.99527 -0.021211 2.52589e-17)
(1.0569 0.0163062 4.68969e-18)
(0.994996 -0.0213345 -2.56989e-17)
(1.05675 0.016189 1.3497e-17)
(1.12127 0.0420219 3.4511e-18)
(1.02185 -0.0787048 -8.39065e-18)
(1.1215 0.0416401 -9.5966e-18)
(1.02072 -0.0788593 3.74732e-17)
(1.09232 0.0366939 -1.32941e-17)
(0.988517 -0.0382018 9.74614e-18)
(1.09273 0.0360205 -1.1025e-18)
(0.989505 -0.037403 -3.07283e-17)
(1.11449 -0.165185 6.92397e-18)
(0.991562 0.137412 -5.78025e-18)
(0.991488 0.13676 -1.07102e-18)
(1.11382 -0.164014 3.21464e-18)
(0.207805 0.234361 -8.31146e-17)
(1.52838 -0.216085 -1.10981e-18)
(0.212619 0.237312 -7.66795e-17)
(1.52813 -0.216443 1.94765e-18)
(1.05482 -0.0320485 9.13322e-19)
(0.999084 0.0253527 1.78922e-18)
(0.998888 0.0254105 2.33014e-18)
(1.0544 -0.0318124 -9.46814e-20)
(1.11622 0.0297917 -3.69164e-18)
(0.990683 -0.0494057 1.51397e-18)
(0.992135 -0.0508862 -5.55892e-19)
(1.1173 0.0299439 -1.04166e-18)
(1.01974 0.0365707 -1.64336e-17)
(1.04576 -0.0210244 -1.7555e-18)
(1.01956 0.0378809 5.95307e-18)
(1.0471 -0.0210414 1.19005e-17)
(1.47939 0.123094 1.1177e-18)
(1.47967 0.123534 -9.5747e-18)
(0.844877 -0.0806867 2.90736e-17)
(0.844692 -0.0793686 -1.02409e-16)
(1.0183 -0.00870664 3.05219e-19)
(1.05243 0.00986534 -2.76639e-18)
(1.05171 0.0102678 2.36347e-18)
(1.01821 -0.00874261 -6.2054e-19)
(1.13216 0.00707341 -3.6977e-18)
(0.983208 -0.0251973 -2.09702e-18)
(1.1331 0.00679607 -2.95595e-19)
(0.982233 -0.0242575 1.21552e-18)
(1.0296 -0.315468 -2.61783e-17)
(1.02967 -0.314154 6.56613e-18)
(1.12042 0.22272 -3.25202e-17)
(1.12131 0.223804 -1.34933e-17)
(1.02844 -0.00304821 -1.48753e-18)
(1.01655 0.00488171 2.16061e-17)
(1.02858 -0.0032671 -1.01733e-18)
(1.01653 0.00501574 -1.43632e-18)
(1.04854 -0.454764 -1.44834e-17)
(0.401364 0.429132 -3.93029e-17)
(1.04822 -0.454295 1.12927e-17)
(0.404732 0.434376 5.42287e-17)
(1.119 -0.27892 1.0924e-17)
(1.11909 -0.279018 -2.70976e-17)
(1.06373 0.235067 2.41604e-17)
(1.06968 0.235586 4.06657e-17)
(1.09129 0.125108 -3.34846e-18)
(0.988439 -0.123676 -1.65511e-17)
(1.09271 0.126599 -7.21441e-18)
(0.986481 -0.123289 -2.31624e-17)
(1.02683 -0.0208024 -6.38904e-18)
(1.02714 -0.0204979 -2.07848e-17)
(0.995686 0.0148405 -9.61268e-18)
(0.995149 0.0147575 -3.45432e-18)
(1.05178 -0.0437316 8.90465e-20)
(1.00928 0.0184774 1.66624e-17)
(1.0111 0.0166619 -1.6182e-18)
(1.05291 -0.0431815 -9.47499e-18)
(1.02096 -0.00893851 -1.53951e-18)
(0.998883 0.0182234 6.14262e-18)
(1.02116 -0.00911705 -8.60651e-19)
(0.997556 0.0181192 -2.44655e-18)
(1.07718 -0.00425069 -2.91173e-19)
(0.992827 -0.00610467 9.3912e-18)
(1.0771 -0.00395371 -4.13955e-18)
(0.993144 -0.00515272 -1.80997e-18)
(1.02507 -0.0250281 -2.67554e-18)
(1.02499 -0.0254318 5.35383e-20)
(1.00706 0.0123672 8.76686e-18)
(1.0072 0.0128905 -1.5292e-18)
(1.04952 -0.0246328 1.44725e-18)
(1.01306 0.020579 2.03849e-17)
(1.01262 0.0208687 1.34456e-17)
(1.04871 -0.0240664 3.35763e-18)
(1.078 0.0945151 1.02753e-17)
(1.03738 -0.0742356 1.68831e-17)
(1.0817 0.0957478 2.07437e-17)
(1.03452 -0.0737681 -1.23822e-17)
(1.02107 -0.0512489 -3.73983e-18)
(1.01905 -0.0520324 -5.69651e-18)
(1.03114 0.0402091 -4.24708e-18)
(1.03221 0.0393741 -6.80735e-19)
(1.06513 -0.0203207 5.60574e-18)
(1.01592 0.00540359 -5.39573e-18)
(1.01601 0.00488944 6.02151e-18)
(1.06473 -0.0201671 -4.40827e-18)
(1.05663 -0.0422977 -2.68281e-19)
(1.0557 0.0348349 -1.99567e-18)
(1.05595 -0.0427724 -2.91958e-18)
(1.0551 0.0364773 -2.37087e-18)
(1.30651 0.111634 4.49631e-18)
(0.889486 -0.0851358 4.41451e-18)
(0.885362 -0.083905 -3.5504e-18)
(1.30657 0.111999 4.46819e-18)
(1.08367 -0.0551941 -1.6334e-18)
(1.01098 0.0675593 -1.53207e-17)
(1.08258 -0.0561048 -8.64755e-18)
(1.01168 0.066845 -1.09832e-17)
(1.07324 0.0275756 -6.85161e-18)
(1.00232 -0.0204813 -2.02288e-17)
(1.00188 -0.0203622 1.6552e-17)
(1.07362 0.0267893 2.89279e-18)
(1.00546 0.00799719 5.64467e-19)
(1.00522 0.00782902 3.17589e-19)
(1.01907 -0.0280693 -1.3155e-18)
(1.01852 -0.0275096 2.03855e-18)
(1.07066 0.00891924 1.13661e-18)
(1.00132 -0.00648189 -1.39985e-19)
(1.07038 0.0092235 -1.96098e-19)
(1.00234 -0.00711089 3.77129e-18)
(0.750853 0.346107 2.55858e-17)
(1.29579 -0.239056 -2.04542e-18)
(0.745912 0.352138 3.11761e-18)
(1.29663 -0.238506 2.31883e-18)
(1.37214 -0.174445 -2.75381e-18)
(0.788233 0.108301 3.43257e-17)
(0.776768 0.107414 1.62379e-17)
(1.37121 -0.177629 5.68106e-18)
(0.999069 0.0501168 4.60831e-18)
(1.10071 -0.047196 -7.7854e-18)
(1.00051 0.0500818 5.47032e-17)
(1.10138 -0.0470473 -1.2261e-17)
(1.02677 -0.059501 -5.11083e-19)
(1.02474 -0.0593046 -7.07698e-18)
(1.06284 0.0548655 4.97682e-19)
(1.06302 0.0550987 6.91577e-19)
(1.01748 0.00157998 1.87031e-19)
(1.01695 0.00131908 8.31583e-19)
(1.02479 -0.014875 2.03132e-18)
(1.02529 -0.0152798 -9.34753e-19)
(0.989777 0.127895 1.85512e-17)
(0.989996 0.129342 -6.89343e-18)
(1.17703 -0.140244 4.22955e-18)
(1.17888 -0.139759 -2.73184e-19)
(1.52395 -0.274336 -7.11259e-18)
(0.686206 0.347276 1.94084e-17)
(0.678201 0.351149 -6.29058e-18)
(1.52329 -0.273299 1.36058e-17)
(1.15606 0.059444 1.80151e-17)
(0.99554 -0.0495392 4.3073e-17)
(1.15645 0.0596461 -4.92336e-18)
(0.994765 -0.0510027 -1.70879e-17)
(1.12471 0.0845029 7.12016e-18)
(0.994547 -0.0893077 -6.84492e-18)
(0.993671 -0.0889867 1.23593e-17)
(1.12495 0.0853023 -8.44104e-18)
(1.02482 0.00421847 -5.53328e-18)
(1.01036 -0.00113611 -1.32142e-18)
(1.01035 -0.00121242 -1.96756e-17)
(1.02532 0.00409954 3.72557e-18)
(1.02227 0.00327626 9.03378e-18)
(0.9916 -0.0078677 -5.7683e-18)
(0.991633 -0.0078292 3.78524e-18)
(1.02201 0.00329138 6.30259e-18)
(1.06961 -0.0437039 6.36269e-18)
(1.01927 0.0576555 -1.995e-18)
(1.06915 -0.0422201 1.88895e-17)
(1.02222 0.0580922 1.70921e-18)
(1.01547 0.0133849 2.23827e-17)
(0.998972 -0.0152555 2.78902e-17)
(0.998732 -0.0152194 -2.60065e-17)
(1.01563 0.0133121 -2.13112e-17)
(1.00147 -0.0373 3.00274e-18)
(1.00185 -0.0374234 -8.42466e-18)
(1.09759 0.0306122 1.51398e-18)
(1.0974 0.0308095 -7.46526e-18)
(1.41313 -0.036451 -2.50169e-18)
(0.765246 0.1992 1.31656e-16)
(0.772256 0.199561 1.23184e-18)
(1.41456 -0.0371473 3.21758e-18)
(1.04202 0.0140836 -3.31447e-18)
(0.987872 -0.00988303 -2.11364e-17)
(0.988011 -0.0100553 2.2674e-17)
(1.04175 0.0140836 9.91243e-18)
(1.16012 0.0216977 -1.65537e-18)
(1.16049 0.0221808 1.73747e-18)
(0.985319 -0.0451486 -1.73832e-18)
(0.985178 -0.0416823 2.78049e-18)
(1.02152 0.00710147 -5.04879e-18)
(1.05063 -0.0383428 6.60776e-19)
(1.05031 -0.0368213 -3.10726e-18)
(1.02326 0.00879478 4.45587e-18)
(1.05445 0.00313973 2.78093e-18)
(0.998995 -0.00648932 -1.00243e-17)
(1.05424 0.00327035 -5.54806e-19)
(0.998928 -0.00603569 -3.96462e-19)
(1.00531 0.0800449 2.95898e-17)
(1.1021 -0.071975 -1.36667e-17)
(1.10301 -0.0717128 -4.25849e-18)
(1.00589 0.0820669 5.90959e-18)
(1.31802 0.0500154 1.0085e-17)
(1.31756 0.0502287 1.25936e-17)
(0.843961 -0.0814722 2.40308e-17)
(0.837447 -0.0797087 -3.9583e-17)
(1.46024 0.672498 2.24445e-17)
(0.748463 -0.509572 -2.38927e-17)
(1.46146 0.674216 1.704e-17)
(0.748916 -0.511554 5.73412e-17)
(1.02682 -0.0468937 2.29452e-18)
(1.10272 0.0377092 -6.47047e-19)
(1.02757 -0.0464286 -1.03034e-17)
(1.1031 0.037847 -1.86208e-18)
(1.39326 0.440898 8.71781e-18)
(0.638391 -0.533208 -3.80681e-17)
(1.39327 0.441625 3.2403e-17)
(0.639199 -0.531404 4.83621e-18)
(1.05055 -0.0138363 -1.06701e-18)
(1.00283 0.00709946 1.23246e-17)
(1.05067 -0.0140654 -5.10843e-19)
(1.00303 0.0070746 2.39728e-18)
(0.989932 -0.0549173 -6.86423e-18)
(1.19917 0.0916418 1.31226e-17)
(0.990147 -0.0526138 -1.74637e-17)
(1.20031 0.0924312 -1.76037e-19)
(1.02036 0.0569637 1.14716e-17)
(1.06362 -0.0603037 2.62004e-18)
(1.06429 -0.0621109 2.07347e-17)
(1.02436 0.056553 4.24039e-18)
(1.23243 0.230948 5.84155e-18)
(1.23314 0.230231 -4.12796e-18)
(0.843545 -0.174165 -3.29474e-20)
(0.842987 -0.174611 -5.19902e-18)
(0.991176 0.00224542 5.67926e-19)
(1.02142 -0.00409168 1.0866e-18)
(1.02121 -0.00423286 -2.61425e-18)
(0.991155 0.00221734 -2.13716e-17)
(1.02448 -0.0299453 -1.12669e-18)
(1.0235 0.0163915 -3.54069e-19)
(1.02445 0.016141 1.0254e-18)
(1.02478 -0.0295272 8.99777e-19)
(1.14011 0.0374659 -5.20472e-18)
(0.97009 -0.0464294 -3.07395e-18)
(1.13933 0.037412 2.45534e-18)
(0.967059 -0.0477393 1.12774e-17)
(1.07537 -0.0122887 -4.16626e-18)
(0.968339 0.00834031 -1.26142e-17)
(0.969411 0.00910602 -5.23967e-18)
(1.07539 -0.012435 3.64936e-18)
(1.03888 0.0775826 -1.61837e-17)
(1.09196 -0.071691 3.43795e-18)
(1.09441 -0.0717455 1.38403e-19)
(1.03897 0.0796663 8.67961e-18)
(1.01392 0.00156916 -3.27126e-19)
(1.01004 -0.0126133 -4.46503e-18)
(1.01025 -0.0128198 5.8437e-18)
(1.01457 0.00179637 -2.9055e-19)
(1.00895 0.0038226 -1.29836e-18)
(1.02086 0.00204997 -2.19768e-18)
(1.00884 0.00373133 -2.46072e-19)
(1.02111 0.00203423 1.04226e-19)
(1.03599 0.023957 -2.84508e-18)
(1.00456 -0.020809 -8.69274e-18)
(1.00425 -0.0202973 1.06635e-17)
(1.03632 0.024026 7.29369e-18)
(1.3441 0.0260873 -3.12363e-19)
(1.34481 0.0250762 8.77038e-19)
(0.925061 -0.0161919 -4.55542e-17)
(0.917154 -0.0190656 4.70943e-17)
(1.09702 0.0135232 -6.45304e-18)
(0.976399 -0.0211142 -1.08695e-18)
(0.975602 -0.0210558 2.40883e-19)
(1.09749 0.0131043 -5.81669e-19)
(1.372 0.384571 -2.64614e-18)
(1.37253 0.382782 -1.16781e-17)
(0.752617 -0.166959 -3.54967e-17)
(0.75061 -0.165591 1.51932e-17)
(1.1246 0.073562 -5.52775e-18)
(1.12487 0.0735509 9.92189e-18)
(0.996266 -0.0581124 -1.75397e-17)
(0.998436 -0.059098 4.29438e-18)
(0.883683 -0.347093 -5.27411e-18)
(1.14193 0.275116 -2.3547e-17)
(1.14228 0.274712 -1.12145e-17)
(0.882357 -0.347348 2.86557e-18)
(1.24434 0.19917 -1.30945e-17)
(1.24549 0.200689 -1.35466e-17)
(0.974054 -0.227924 4.4881e-18)
(0.974092 -0.227738 -4.02999e-18)
(1.01909 0.00503757 6.17686e-19)
(1.00358 -0.00234275 -3.03148e-18)
(1.01884 0.00487278 1.71855e-18)
(1.00353 -0.00247919 2.79734e-18)
(1.07627 -0.0426424 -1.04014e-19)
(1.07567 -0.0427321 -1.25138e-17)
(1.00498 0.0457001 2.49587e-17)
(1.00367 0.0445506 1.50542e-18)
(1.22447 0.268217 2.02701e-17)
(1.22467 0.267688 -6.82916e-18)
(0.780917 -0.253628 4.61054e-18)
(0.781924 -0.253842 -2.44375e-17)
(1.16853 -0.0244 -2.92754e-19)
(0.918254 -0.0179727 4.36056e-19)
(0.921348 -0.015477 7.85829e-18)
(1.16899 -0.0242943 2.24592e-19)
(1.12573 -0.153229 2.01417e-17)
(1.03794 0.16301 -1.48177e-17)
(1.12445 -0.152724 9.5678e-18)
(1.03862 0.164761 -4.99772e-17)
(1.05456 0.140651 2.08895e-17)
(1.02871 -0.148766 2.22468e-17)
(1.05861 0.138585 -7.90886e-18)
(1.0273 -0.150147 1.64858e-17)
(1.14648 -0.0166751 5.00031e-18)
(1.14696 -0.0161949 -4.56201e-18)
(0.945866 -0.00030074 9.14171e-19)
(0.947292 0.000120097 2.34146e-17)
(1.04737 0.0537095 1.00568e-17)
(0.997242 -0.0505888 1.27637e-17)
(1.04645 0.0546005 -3.76477e-18)
(0.996579 -0.0498656 3.55907e-18)
(1.1238 -0.0672967 6.19596e-18)
(0.986654 0.067758 -1.18267e-17)
(1.12384 -0.0675786 5.16582e-18)
(0.986391 0.0644541 -1.0826e-17)
(1.02485 -0.0116554 -4.35076e-19)
(0.998804 0.0138989 -1.37693e-17)
(0.999285 0.013513 -3.67713e-18)
(1.02502 -0.011373 -2.21816e-18)
(1.03006 -0.219912 3.88465e-19)
(1.07549 0.183426 -1.13761e-18)
(1.03082 -0.218781 -7.00881e-19)
(1.07649 0.181601 5.94635e-18)
(1.13932 -0.189644 -3.46766e-18)
(1.01794 0.230683 1.40319e-17)
(1.0165 0.233258 -1.29925e-18)
(1.13883 -0.190005 8.41355e-18)
(1.05972 0.0593655 2.10675e-17)
(1.00947 -0.0663779 2.50454e-18)
(1.05999 0.0601705 -1.83112e-17)
(1.00883 -0.0659463 -1.83606e-17)
(1.00156 0.0214116 2.51453e-18)
(1.06272 -0.0317879 -9.90264e-18)
(1.00247 0.0212397 -2.86114e-17)
(1.06242 -0.0312575 8.95565e-18)
(1.02403 -0.00476919 -4.35152e-18)
(0.994732 -0.0122446 6.69614e-18)
(0.994832 -0.0122374 1.61792e-20)
(1.0242 -0.0050788 2.51212e-18)
(1.05173 -0.00373355 3.19133e-18)
(0.996758 -0.00625766 9.28626e-19)
(1.05175 -0.00381463 -1.67051e-18)
(0.996739 -0.00607465 3.45661e-18)
(1.06412 -0.0262035 1.78356e-19)
(0.993489 -0.00614337 2.22502e-17)
(1.06324 -0.0264291 -4.40478e-19)
(0.994266 -0.00613232 -4.20231e-17)
(1.16061 0.186602 -4.52017e-18)
(0.960396 -0.194036 7.75741e-18)
(1.16128 0.186684 -2.43754e-17)
(0.96127 -0.193824 3.51123e-17)
(0.804929 -0.527816 1.78631e-17)
(0.597846 0.661999 3.41346e-18)
(0.598309 0.664731 7.48575e-19)
(0.804765 -0.528391 -1.7333e-17)
(1.52812 0.228963 -2.93918e-18)
(0.205863 -0.255815 7.57131e-17)
(1.52813 0.228326 -3.28263e-17)
(0.206461 -0.253713 2.23511e-17)
(1.05465 -0.0748675 -1.44144e-18)
(1.05469 -0.0743619 -5.79699e-18)
(1.04302 0.0535899 9.41477e-19)
(1.04319 0.051872 -1.99577e-17)
(1.11974 -0.000429198 1.73551e-18)
(1.11988 -0.00143808 -1.28138e-18)
(1.00174 -0.0345904 -5.33573e-18)
(1.0016 -0.0337532 1.74676e-18)
(1.17583 0.153506 -8.89852e-19)
(0.93568 -0.192267 -3.76315e-18)
(0.936603 -0.190519 -2.40838e-17)
(1.17633 0.152768 4.55075e-18)
(1.05785 -0.00961118 -1.89371e-18)
(1.00302 0.0210731 -3.21441e-17)
(1.05803 -0.00991177 -3.72137e-19)
(1.0023 0.021294 3.4574e-17)
(1.06833 -0.0113178 4.65524e-18)
(0.979323 0.0093458 4.74239e-18)
(1.06836 -0.0114353 -3.55894e-18)
(0.979838 0.00912226 -5.20131e-18)
(1.07844 -0.000421926 -2.69331e-18)
(1.07881 -0.000561808 -2.01139e-18)
(1.01123 -0.00669121 3.97626e-19)
(1.01103 -0.00612134 8.27267e-18)
(1.02458 -0.00362402 -7.67448e-19)
(1.01315 0.00544212 -3.49179e-18)
(1.01313 0.00561963 -2.08446e-18)
(1.02493 -0.00372048 -2.51147e-18)
(1.02275 0.00329854 -2.41262e-17)
(1.01074 -0.000771359 -2.74156e-18)
(1.01065 -0.000766404 6.92729e-18)
(1.02318 0.0034406 -5.3936e-18)
(1.02092 -0.0254897 -1.33556e-18)
(1.00691 0.014476 6.68964e-19)
(1.0201 -0.0257125 1.35025e-18)
(1.00617 0.0147858 1.22626e-18)
(1.02643 0.116534 3.4489e-17)
(1.08043 -0.0994798 3.95663e-18)
(1.02585 0.115575 1.42903e-17)
(1.08506 -0.099948 -1.85081e-18)
(0.957892 -0.0423499 6.79974e-18)
(1.17942 0.0175513 8.55434e-19)
(1.17868 0.0169879 -2.04791e-19)
(0.961395 -0.0421887 -3.47507e-18)
(1.01873 -0.0118684 -2.70757e-19)
(1.01225 0.0113222 -7.80788e-19)
(1.01867 -0.0116813 1.47513e-18)
(1.01209 0.0109686 2.15918e-18)
(1.1527 -0.0490584 -1.82598e-18)
(1.15201 -0.0493641 3.8626e-18)
(0.963396 0.0534104 -2.30327e-17)
(0.966792 0.0535023 -2.73213e-18)
(1.00418 0.0473886 1.32358e-17)
(1.08384 -0.0351897 -6.76751e-18)
(1.00294 0.0461667 3.0079e-17)
(1.08426 -0.0354557 -2.18003e-18)
(1.23204 -0.00147736 1.52144e-18)
(0.910888 0.0086249 -4.05739e-18)
(1.23246 -0.00167006 -3.27562e-18)
(0.906604 0.00723127 7.82338e-18)
(0.974222 0.0291541 -8.47573e-18)
(0.978164 0.0270937 -1.58917e-18)
(1.11712 -0.0490205 -3.54244e-18)
(1.11757 -0.0495104 -1.8139e-19)
(1.02539 0.0906546 9.91298e-20)
(1.02471 -0.0894359 -2.55935e-17)
(1.02545 0.0879886 1.99069e-17)
(1.02919 -0.0882718 -1.26043e-17)
(1.02059 0.0145166 -3.31443e-20)
(1.00448 -0.00658427 6.10858e-18)
(1.00439 -0.00638563 -7.2978e-18)
(1.02065 0.0145027 4.78927e-18)
(1.069 0.12644 -1.03846e-17)
(1.05028 -0.109227 -6.88605e-18)
(1.04656 -0.107165 4.21315e-17)
(1.06573 0.129235 -2.57195e-17)
(1.0168 0.00322618 -1.21612e-18)
(0.99691 -0.000176671 9.38239e-18)
(1.01734 0.00325144 -6.21048e-18)
(0.996928 -0.000167665 -1.1292e-17)
(0.988942 0.0137438 -3.37054e-18)
(0.98607 0.0162043 7.55625e-19)
(1.13042 -0.0285733 -3.26479e-18)
(1.13074 -0.0294268 9.69281e-19)
(0.954414 -0.00227528 -3.87371e-18)
(1.22791 0.0393 3.32448e-18)
(1.22768 0.0384978 -5.05369e-19)
(0.95024 -0.00441382 7.27723e-18)
(1.00405 0.0907129 9.54565e-18)
(1.12496 -0.105222 -3.90736e-18)
(1.1236 -0.106149 -1.01818e-17)
(1.00539 0.0900371 2.58712e-17)
(1.0109 0.00366181 5.92152e-18)
(1.00444 -0.0161671 -9.44957e-18)
(1.01064 0.0033346 -4.20655e-18)
(1.00446 -0.0160558 9.35392e-18)
(1.27403 0.310077 -3.63337e-17)
(0.954841 -0.514385 3.94902e-18)
(1.2688 0.304745 -6.29213e-17)
(0.953429 -0.515782 -2.68195e-17)
(1.04622 0.139066 -9.42566e-18)
(1.03176 -0.216791 5.89634e-18)
(1.04569 0.14013 4.43173e-17)
(1.02703 -0.215189 -2.73083e-18)
(0.789448 -0.000255082 1.77292e-17)
(1.32337 -0.0837132 -5.46849e-18)
(0.789343 -0.000748358 -2.38569e-17)
(1.32278 -0.0844398 -3.25928e-18)
(0.997418 0.00162138 9.78185e-18)
(0.997436 0.00167548 1.05963e-18)
(1.01181 0.000748601 -2.55616e-18)
(1.01217 0.000831812 2.47153e-19)
(0.997319 -0.032675 5.41057e-17)
(1.06656 0.0291826 2.27175e-18)
(0.99793 -0.0316219 -7.63338e-19)
(1.06637 0.0294625 -4.82147e-18)
(0.918893 0.0483423 -5.06924e-18)
(1.15528 -0.0723207 -4.23887e-18)
(0.920587 0.0465451 1.28679e-18)
(1.15465 -0.0722595 3.48676e-18)
(1.01395 -0.00523091 1.08483e-18)
(1.0003 0.00782721 2.16631e-18)
(1.01362 -0.0051281 -2.51423e-18)
(1.0003 0.00733798 -1.28844e-17)
(1.01475 -0.0481786 1.63996e-19)
(1.02508 0.0424769 2.45268e-18)
(1.01603 -0.046134 -3.66259e-18)
(1.02295 0.0427719 -4.5721e-18)
(1.02078 -0.0284912 1.26289e-18)
(1.03987 0.0387957 -2.23233e-18)
(1.02047 -0.027514 -1.98627e-18)
(1.04153 0.0392516 2.23011e-18)
(0.99101 -0.0608236 -5.62363e-18)
(1.09018 0.0566963 -2.01482e-18)
(0.99 -0.0617352 -1.31744e-17)
(1.09043 0.0556321 -3.51113e-18)
(0.997553 -0.0739231 -4.04418e-18)
(1.07956 0.0800668 7.08759e-18)
(1.0791 0.0783002 -1.00764e-17)
(0.997057 -0.0730435 1.4894e-17)
(1.26453 -0.0385413 -4.93293e-18)
(1.26377 -0.0398883 -5.92048e-18)
(0.869695 0.0219093 3.45044e-17)
(0.875445 0.0222438 -4.44966e-18)
(1.22782 -0.0299669 -2.86823e-18)
(0.889033 0.00572265 5.9717e-18)
(1.22713 -0.0305077 -2.09661e-18)
(0.892651 0.00873545 -1.04037e-20)
(1.00509 -0.0107142 -2.15107e-17)
(1.02299 0.00515865 1.50781e-18)
(1.02304 0.00491331 -3.48215e-19)
(1.00512 -0.0108309 2.12961e-17)
(1.15349 -0.345389 8.38979e-18)
(1.15264 -0.343366 -2.31069e-17)
(1.04242 0.295821 -1.53322e-18)
(1.04176 0.298329 6.02099e-19)
(1.14347 0.452889 2.86167e-17)
(1.14606 0.452929 -9.62488e-18)
(1.15111 -0.407429 -4.97862e-18)
(1.14996 -0.408959 2.93659e-17)
(1.03253 0.015393 2.38989e-18)
(1.00951 -0.0274775 -1.6316e-17)
(1.0094 -0.0268838 9.83545e-18)
(1.03248 0.0154509 -1.19775e-18)
(1.04991 0.0272051 1.43383e-18)
(1.00932 -0.0234557 -5.53571e-18)
(1.00968 -0.0229804 1.45881e-18)
(1.05023 0.0270835 -1.4257e-17)
(1.23664 -0.0923174 -6.39298e-19)
(0.8866 0.0701203 -1.77425e-17)
(1.23567 -0.094806 -5.61096e-18)
(0.884151 0.0655976 1.13901e-17)
(0.948282 0.059017 -1.45398e-17)
(0.948791 0.062512 2.47117e-17)
(1.20089 -0.0646988 -1.86249e-18)
(1.20014 -0.0649388 -5.86865e-19)
(1.002 -0.00449768 2.24209e-18)
(1.00205 -0.00465783 -1.68492e-18)
(1.01439 0.00725935 5.77722e-18)
(1.01403 0.0071321 1.38966e-18)
(1.02497 -0.00527216 6.96442e-19)
(0.991735 0.00459906 -1.19839e-18)
(0.990988 0.00517547 1.1522e-17)
(1.02465 -0.0052192 -2.98186e-18)
(1.18548 -0.560347 1.17599e-17)
(0.789606 0.484156 -1.89367e-17)
(0.793255 0.489051 -1.83295e-17)
(1.18437 -0.560025 9.57963e-18)
(1.16831 -0.0229636 3.78915e-18)
(0.884806 2.61831e-05 8.02893e-19)
(1.16745 -0.0232835 -4.52983e-19)
(0.889736 0.000866489 2.70941e-18)
(1.0411 0.0378085 1.20131e-17)
(1.03984 0.0381559 1.06075e-18)
(1.00253 -0.0420365 1.97602e-17)
(1.00179 -0.0413399 2.34482e-17)
(1.00333 0.00426854 -1.01934e-19)
(1.01032 -0.0170171 -1.21251e-18)
(1.00392 0.00481926 3.45646e-19)
(1.01015 -0.0165251 2.08169e-18)
(1.15143 -0.0861969 -2.29772e-18)
(0.982088 0.0680516 2.22041e-17)
(1.15156 -0.0859423 -1.12841e-18)
(0.982102 0.0694317 5.02998e-18)
(1.00092 0.00607137 2.17286e-17)
(1.05285 -0.00753873 4.26249e-18)
(1.00033 0.00635868 -2.30354e-17)
(1.05299 -0.00752503 -6.34225e-18)
(0.944507 0.116867 6.47489e-18)
(1.19007 -0.114989 2.13889e-18)
(0.947067 0.11783 -5.01305e-18)
(1.18841 -0.115336 2.90153e-18)
(0.950435 0.0752412 5.85477e-18)
(1.18427 -0.104852 1.39813e-18)
(1.18634 -0.105955 -5.91041e-18)
(0.952412 0.078588 5.09836e-17)
(1.01913 -0.0316521 2.09918e-17)
(1.079 0.030604 4.04438e-18)
(1.07888 0.0309431 -5.18928e-18)
(1.01877 -0.0306746 3.52175e-18)
(1.03863 -0.0658064 -1.16994e-18)
(1.00891 0.046844 -5.31647e-18)
(1.03964 -0.0651731 -4.08771e-18)
(1.00763 0.0483869 -2.37565e-18)
(1.29761 -0.271734 2.95159e-18)
(0.954447 0.35183 -1.47282e-18)
(0.953774 0.34981 3.19928e-17)
(1.29948 -0.272388 7.13455e-19)
(1.22584 -0.193535 -8.44826e-18)
(0.900021 0.244146 -1.99226e-17)
(0.902041 0.241443 7.25062e-18)
(1.22505 -0.193321 3.61832e-18)
(1.16183 0.0564758 -1.32419e-18)
(0.963295 -0.061226 -4.86934e-18)
(0.961332 -0.0625039 8.74428e-18)
(1.16208 0.0561902 9.91772e-19)
(0.796296 0.753123 2.03383e-17)
(1.3679 -0.653025 8.91105e-18)
(0.798641 0.757767 1.43753e-18)
(1.36853 -0.653251 -2.40527e-17)
(1.0217 -0.0414148 -1.1946e-17)
(1.02303 0.0343617 1.63451e-18)
(1.02291 -0.0413836 -1.4198e-17)
(1.02385 0.0352874 -1.94152e-17)
(1.27682 -0.102467 6.16576e-19)
(0.839257 0.148924 -3.55368e-17)
(0.841604 0.146199 -2.58232e-17)
(1.27911 -0.101698 1.13514e-18)
(1.24011 -0.144089 1.64678e-18)
(0.945251 0.162164 1.34927e-17)
(0.945579 0.160299 -3.1737e-18)
(1.24235 -0.145905 3.45801e-18)
(1.0819 -0.0180532 -3.81565e-19)
(1.08136 -0.0179478 -4.25913e-18)
(1.00015 0.00560765 -8.64276e-18)
(0.999119 0.00717675 1.02898e-17)
(0.954603 0.0389251 -2.41152e-18)
(1.18972 -0.0352635 4.36022e-18)
(0.958458 0.0405754 8.24864e-19)
(1.18847 -0.0363186 1.64705e-18)
(1.01025 0.0196183 -1.98326e-18)
(1.01096 0.0198439 6.06424e-19)
(1.00574 -0.0198054 4.74032e-18)
(1.00545 -0.0202348 -4.33597e-18)
(1.04587 0.0226053 7.49891e-18)
(1.01141 -0.0221678 -1.35197e-17)
(1.04553 0.0224763 -8.5969e-18)
(1.01125 -0.0214691 -2.85975e-18)
(1.03136 0.0219832 5.27013e-19)
(1.01351 -0.032671 -2.72942e-18)
(1.01409 -0.0320523 -6.15993e-19)
(1.0314 0.0221679 -2.91826e-18)
(1.08146 -0.0192343 -3.15646e-18)
(1.08082 -0.0199509 -2.46809e-18)
(1.00824 0.0215455 -6.14141e-18)
(1.00548 0.0208901 -9.44052e-19)
(1.03483 -0.17879 -1.04687e-19)
(1.03633 -0.178796 -6.09554e-19)
(1.14921 0.147866 1.82666e-18)
(1.14809 0.148647 -1.39513e-17)
(1.02835 -0.15629 -5.52861e-18)
(1.10229 0.111665 -1.95229e-17)
(1.02779 -0.155557 -2.35606e-18)
(1.1028 0.111735 8.18141e-18)
(1.10458 -0.0242218 -1.44252e-19)
(0.983402 0.007234 9.6041e-18)
(1.10421 -0.0237134 -3.14174e-18)
(0.980736 0.00797585 1.25045e-18)
(1.00312 -0.161196 -1.72006e-18)
(1.00187 -0.161035 6.9183e-18)
(1.12765 0.102527 -1.49747e-17)
(1.12799 0.103139 1.82529e-18)
(1.14538 -0.0410351 3.8318e-18)
(0.958389 0.0151201 -7.48072e-19)
(0.961052 0.0149466 -1.23509e-17)
(1.14545 -0.0414679 -4.02659e-18)
(0.944964 -0.161227 -3.19478e-17)
(1.13301 0.11944 4.53445e-18)
(0.943725 -0.160234 -1.57441e-17)
(1.13308 0.118483 -2.29817e-17)
(1.00693 0.00166933 -1.09446e-17)
(1.05056 0.00377829 -1.1216e-17)
(1.00691 0.00128641 3.60122e-17)
(1.05115 0.00397683 -8.58786e-18)
(1.0967 -0.0322323 -5.04593e-18)
(0.99839 0.0372195 -1.60678e-17)
(1.00106 0.0357212 -9.6577e-18)
(1.09657 -0.031876 -2.71993e-18)
(0.9828 -0.0127749 8.29833e-18)
(1.05845 0.016315 1.42298e-18)
(1.05845 0.0167046 -2.26748e-18)
(0.982574 -0.0125531 5.07713e-18)
(0.980292 -0.0288339 -4.18488e-18)
(1.07796 0.0162429 -1.0006e-17)
(1.07805 0.0158359 -2.74624e-18)
(0.979925 -0.0285617 2.15703e-18)
(1.07129 0.0184593 -2.15721e-19)
(0.983078 -0.032557 -1.97378e-17)
(1.07146 0.0190983 -5.86581e-18)
(0.98276 -0.0325408 4.3925e-18)
)
;

boundaryField
{
    insideCircle
    {
        type            fixedValue;
        value           uniform (0 0 0);
    }
    outsideCircle
    {
        type            fixedValue;
        value           uniform (1 0 0);
    }
    topAndBottom
    {
        type            empty;
    }
}


// ************************************************************************* //
