/*--------------------------------*- C++ -*----------------------------------*\
| =========                 |                                                 |
| \\      /  F ield         | foam-extend: Open Source CFD                    |
|  \\    /   O peration     | Version:  3.0                                   |
|   \\  /    A nd           | Web:         http://www.extend-project.de       |
|    \\/     M anipulation  |                                                 |
\*---------------------------------------------------------------------------*/
FoamFile
{
    version     2.0;
    format      ascii;
    class       volSymmTensorField;
    location    "36";
    object      sigma;
}
// * * * * * * * * * * * * * * * * * * * * * * * * * * * * * * * * * * * * * //

dimensions      [0 0 0 0 0 0 0];

internalField   nonuniform List<symmTensor> 
7680
(
(-0.18037 -0.00249511 -1.09563e-20 0.180345 1.56669e-20 2.49219e-05)
(-0.179663 -0.00298831 4.01913e-20 0.179593 1.36824e-19 7.04101e-05)
(-0.176962 -0.00333364 2.96153e-21 0.176849 -4.93973e-20 0.000113014)
(-0.172816 -0.0035643 -4.02217e-21 0.172663 6.74862e-20 0.000153118)
(-0.167841 -0.00371464 1.23887e-20 0.16765 1.73885e-23 0.00019103)
(-0.162244 -0.00380329 -5.81458e-21 0.162017 1.95236e-20 0.000226987)
(-0.156367 -0.00384806 2.21082e-20 0.156106 -3.89471e-20 0.000261176)
(-0.150278 -0.0038592 8.9876e-21 0.149984 -2.62385e-20 0.000293739)
(-0.144172 -0.00384648 7.86283e-21 0.143848 -6.61159e-20 0.000324783)
(-0.138062 -0.00381562 1.42027e-20 0.137707 -1.71944e-20 0.000354381)
(-0.132061 -0.0037723 -3.05514e-20 0.131678 -8.69361e-20 0.000382581)
(-0.126157 -0.00371967 1.80321e-20 0.125748 2.88531e-20 0.000409401)
(-0.120421 -0.00366119 4.7495e-21 0.119986 -7.53785e-20 0.000434844)
(-0.114831 -0.00359856 -2.79847e-20 0.114372 2.83803e-20 0.000458884)
(-0.10943 -0.00353397 -2.51247e-20 0.108948 1.22898e-20 0.000481483)
(-0.104196 -0.00346827 6.41557e-21 0.103694 7.62501e-20 0.000502576)
(-0.0991567 -0.00340291 -8.37521e-21 0.0986346 -6.78988e-20 0.000522089)
(-0.0942921 -0.00333823 -7.66574e-21 0.0937522 1.60454e-19 0.000539921)
(-0.0896174 -0.0032752 2.52013e-20 0.0890614 -8.13328e-20 0.000555962)
(-0.0851183 -0.0032138 -1.07057e-20 0.0845482 1.45943e-19 0.000570075)
(-0.0808022 -0.00315478 -2.82273e-20 0.0802201 -3.7882e-20 0.000582116)
(-0.0766597 -0.00309781 -2.93342e-20 0.0760678 1.24118e-19 0.000591908)
(-0.072693 -0.00304361 -3.95156e-20 0.0720937 -1.43117e-20 0.000599269)
(-0.0688978 -0.00299155 -1.85554e-20 0.0682938 1.66592e-19 0.000603985)
(-0.0652727 -0.00294255 -9.51651e-21 0.0646668 -2.98711e-20 0.00060583)
(-0.0618182 -0.00289581 -5.46269e-20 0.0612137 1.35368e-19 0.000604545)
(-0.0585307 -0.0028527 2.7119e-21 0.0579308 6.69031e-20 0.000599862)
(-0.0554155 -0.00281263 -4.78289e-21 0.054824 1.11124e-19 0.000591472)
(-0.0524676 -0.00277763 1.1854e-20 0.0518886 5.65571e-20 0.000579054)
(-0.0496969 -0.00274858 -3.89347e-20 0.0491346 3.68182e-20 0.000562245)
(-0.0470979 -0.00272812 -1.31673e-20 0.0465573 1.81769e-20 0.000540662)
(-0.0446845 -0.00272151 -2.36289e-20 0.0441706 -1.2909e-20 0.000513874)
(-0.0424503 -0.00273102 1.19202e-20 0.0419688 2.9153e-21 0.000481431)
(-0.0404113 -0.0027732 -3.95306e-20 0.0399685 -2.12324e-20 0.00044282)
(-0.0385573 -0.00284459 -1.03012e-21 0.0381598 3.48413e-21 0.000397511)
(-0.0368969 -0.00298754 -6.07617e-20 0.036552 5.59457e-21 0.000344899)
(-0.0354211 -0.00318056 2.30227e-22 0.0351367 -9.75676e-20 0.000284381)
(-0.0340487 -0.00347151 -2.76069e-21 0.0338334 1.96667e-20 0.000215265)
(-0.032974 -0.00389925 -2.16304e-20 0.0328371 -6.02632e-20 0.000136924)
(-0.0314138 -0.00424937 6.37448e-22 0.0313652 -7.29556e-20 4.86524e-05)
(-0.180289 -0.00793821 2.17547e-20 0.180264 -1.02143e-20 2.48895e-05)
(-0.179469 -0.00924082 -2.93598e-20 0.179398 5.45863e-20 7.02923e-05)
(-0.176685 -0.0101149 -2.87107e-20 0.176572 -1.80033e-20 0.000112814)
(-0.172481 -0.010663 3.74005e-20 0.172328 -2.18333e-20 0.000152839)
(-0.167466 -0.0109844 -9.47604e-21 0.167275 -4.53099e-20 0.000190673)
(-0.161841 -0.0111328 -9.16144e-21 0.161614 5.53953e-20 0.000226553)
(-0.155946 -0.0111594 -2.68734e-20 0.155685 4.28967e-20 0.000260667)
(-0.149846 -0.0110935 -1.90169e-20 0.149553 2.78322e-20 0.000293153)
(-0.143736 -0.0109629 -4.25595e-21 0.143412 1.29228e-19 0.000324121)
(-0.137625 -0.0107838 9.93762e-21 0.137272 1.13683e-19 0.00035364)
(-0.131627 -0.0105721 4.4199e-20 0.131246 -1.85724e-20 0.00038176)
(-0.12573 -0.0103366 4.50604e-21 0.125321 6.71386e-20 0.0004085)
(-0.12 -0.0100869 1.68578e-20 0.119566 -6.47949e-20 0.00043386)
(-0.114419 -0.00982782 4.61649e-20 0.113961 5.79956e-20 0.000457816)
(-0.109028 -0.00956506 2.78819e-20 0.108548 -1.32245e-19 0.000480328)
(-0.103805 -0.00930145 -6.34773e-20 0.103304 -1.91429e-20 0.000501333)
(-0.0987768 -0.00904034 6.37563e-20 0.098256 1.33393e-20 0.000520757)
(-0.0939235 -0.00878346 -1.64036e-20 0.093385 -5.40934e-20 0.0005385)
(-0.0892602 -0.00853265 -1.45467e-20 0.0887058 9.91408e-20 0.000554451)
(-0.0847724 -0.00828904 8.88293e-21 0.0842039 -4.58631e-20 0.000568476)
(-0.0804674 -0.00805356 -5.75017e-20 0.079887 1.92426e-20 0.00058043)
(-0.0763355 -0.00782695 2.33991e-20 0.0757454 -7.83066e-20 0.000590139)
(-0.072379 -0.00760965 1.85188e-21 0.0717816 5.13399e-20 0.000597421)
(-0.0685932 -0.00740202 -5.17478e-21 0.0679911 -1.25633e-19 0.000602064)
(-0.0649765 -0.00720445 -8.01186e-20 0.0643727 6.2354e-21 0.000603844)
(-0.0615296 -0.00701695 6.3453e-20 0.060927 -7.0158e-20 0.000602507)
(-0.0582482 -0.00684023 -3.47639e-20 0.0576505 1.58708e-20 0.000597784)
(-0.0551379 -0.00667414 -1.06543e-20 0.0545485 -3.37609e-20 0.000589373)
(-0.0521935 -0.00652007 -6.84466e-20 0.0516165 -4.26711e-20 0.000576956)
(-0.0494244 -0.00637856 -4.37826e-20 0.0488643 2.68823e-20 0.000560173)
(-0.0468266 -0.00625185 -4.3438e-20 0.046288 -5.81592e-21 0.00053865)
(-0.0444124 -0.00614354 -3.67386e-20 0.0439005 6.51336e-21 0.000511959)
(-0.042181 -0.00605636 2.16479e-20 0.0417013 6.40156e-21 0.000479655)
(-0.0401442 -0.00600283 2.07141e-20 0.039703 -5.55735e-20 0.000441228)
(-0.0383101 -0.00598432 -4.55613e-22 0.037914 4.11302e-20 0.000396152)
(-0.0366718 -0.00602915 -1.13096e-19 0.036328 -5.33645e-22 0.000343814)
(-0.035277 -0.0061583 -5.66294e-20 0.0349934 1.1391e-20 0.000283605)
(-0.0339748 -0.0063052 3.56464e-20 0.03376 3.03972e-20 0.000214802)
(-0.0330727 -0.00681923 -1.23393e-19 0.0329359 -2.37371e-20 0.00013675)
(-0.0317246 -0.00703899 3.12352e-20 0.0316759 4.05581e-20 4.86684e-05)
(-0.180073 -0.0133853 3.24966e-20 0.180048 -1.60705e-20 2.48044e-05)
(-0.179032 -0.0154784 4.49039e-20 0.178962 7.44788e-20 7.00824e-05)
(-0.176089 -0.0168681 -1.28509e-20 0.175976 -1.73566e-19 0.000112486)
(-0.171772 -0.0177238 -2.64766e-20 0.17162 1.54571e-19 0.000152398)
(-0.166677 -0.0182091 7.36797e-20 0.166487 -1.0037e-19 0.000190122)
(-0.160999 -0.0184118 5.66346e-20 0.160773 -1.36759e-20 0.000225894)
(-0.15507 -0.0184165 1.95677e-20 0.15481 -8.93928e-20 0.0002599)
(-0.14895 -0.018271 6.75466e-20 0.148658 4.93058e-21 0.000292279)
(-0.142832 -0.0180208 7.90053e-20 0.142508 1.24463e-21 0.000323138)
(-0.136721 -0.0176924 -8.11493e-20 0.136368 -1.67672e-20 0.000352549)
(-0.130728 -0.0173117 -5.12277e-20 0.130348 -1.37646e-19 0.000380559)
(-0.124841 -0.0168933 -2.04202e-20 0.124434 5.72297e-20 0.000407187)
(-0.119126 -0.0164524 3.9865e-21 0.118694 -4.09353e-20 0.000432433)
(-0.113562 -0.0159972 -8.1727e-20 0.113106 3.57168e-20 0.000456274)
(-0.10819 -0.0155368 -9.23583e-20 0.107711 9.11693e-20 0.000478669)
(-0.102987 -0.0150759 1.14087e-19 0.102488 7.54998e-20 0.000499556)
(-0.0979797 -0.0146198 -2.96483e-20 0.0974609 7.56903e-20 0.00051886)
(-0.093148 -0.0141716 5.24597e-20 0.0926115 1.34477e-19 0.000536483)
(-0.0885065 -0.013734 6.30247e-20 0.0879542 -1.30263e-19 0.000552315)
(-0.0840404 -0.0133092 -9.2411e-20 0.0834741 1.09784e-19 0.000566222)
(-0.0797567 -0.0128985 -4.71594e-20 0.0791787 -2.96585e-20 0.000578059)
(-0.0756459 -0.0125035 -1.67158e-20 0.0750583 1.17395e-19 0.000587655)
(-0.0717096 -0.0121246 -6.96211e-20 0.0711148 -1.50554e-20 0.000594829)
(-0.0679434 -0.0117632 -6.96114e-20 0.067344 6.03582e-20 0.000599371)
(-0.0643451 -0.0114192 3.66238e-20 0.063744 1.67299e-19 0.000601059)
(-0.0609156 -0.0110934 -4.82575e-20 0.060316 1.04787e-19 0.000599642)
(-0.0576501 -0.0107863 4.9286e-20 0.0570553 1.56259e-19 0.000594853)
(-0.0545546 -0.010498 -5.65942e-20 0.0539682 4.99172e-20 0.000586396)
(-0.0516229 -0.01023 7.34026e-20 0.0510489 1.18488e-19 0.000573955)
(-0.0488656 -0.00998174 7.48306e-21 0.0483085 8.95693e-21 0.000557179)
(-0.0462775 -0.00975674 -2.86301e-20 0.0457418 4.20562e-20 0.000535696)
(-0.0438726 -0.00955435 -1.0593e-20 0.0433635 8.89621e-20 0.000509087)
(-0.0416496 -0.00938129 -7.23616e-20 0.0411727 1.43534e-19 0.000476912)
(-0.0396217 -0.00923718 1.18836e-20 0.0391831 -2.65622e-19 0.000438671)
(-0.0378019 -0.0091379 4.87853e-20 0.037408 1.82853e-19 0.000393839)
(-0.0361757 -0.00907064 -8.30303e-20 0.0358339 -1.06008e-19 0.000341809)
(-0.0348376 -0.00913045 1.97222e-20 0.0345556 8.2362e-21 0.00028197)
(-0.0335374 -0.00910729 -5.18906e-20 0.0333238 8.91837e-20 0.000213587)
(-0.0329014 -0.00962075 -1.39988e-20 0.0327654 -3.84567e-20 0.000135995)
(-0.031587 -0.00985739 -3.16851e-20 0.0315386 1.36335e-19 4.83756e-05)
(-0.179721 -0.018835 7.16284e-20 0.179697 3.50113e-20 2.47284e-05)
(-0.178354 -0.0216901 -8.70492e-20 0.178285 3.62268e-21 6.98376e-05)
(-0.175176 -0.0235734 -9.91113e-21 0.175064 2.48772e-19 0.000112081)
(-0.170693 -0.0247209 1.22778e-19 0.170541 -2.59172e-19 0.000151839)
(-0.165482 -0.0253585 -1.20531e-19 0.165293 4.75197e-20 0.000189415)
(-0.159726 -0.0256074 1.99789e-21 0.159501 6.85676e-20 0.000225043)
(-0.153746 -0.0255844 -1.83087e-20 0.153487 6.09632e-20 0.000258908)
(-0.147598 -0.0253553 4.6777e-20 0.147307 -2.15985e-20 0.000291149)
(-0.141467 -0.0249829 1.62871e-20 0.141145 -1.09199e-19 0.000321871)
(-0.135356 -0.0245038 -6.74257e-20 0.135004 -5.30426e-20 0.000351146)
(-0.129372 -0.0239535 8.44843e-20 0.128993 4.67727e-20 0.000379021)
(-0.123501 -0.0233522 7.32453e-20 0.123096 1.07014e-20 0.000405513)
(-0.117807 -0.0227206 2.44087e-20 0.117376 -1.56751e-19 0.000430625)
(-0.112268 -0.0220702 1.4193e-19 0.111813 1.12792e-19 0.00045433)
(-0.106923 -0.0214132 6.09439e-20 0.106446 2.32742e-21 0.00047659)
(-0.10175 -0.0207564 -1.11454e-19 0.101253 3.04819e-19 0.000497342)
(-0.0967732 -0.0201067 1.64097e-19 0.0962567 -1.81779e-19 0.000516513)
(-0.0919729 -0.0194686 -2.14615e-19 0.0914389 2.02476e-19 0.000534003)
(-0.0873632 -0.0188457 -1.57609e-20 0.0868135 -1.16914e-19 0.000549705)
(-0.0829288 -0.0182413 9.57859e-20 0.0823653 1.16672e-19 0.000563484)
(-0.0786767 -0.0176567 -4.63876e-20 0.0781015 -1.16656e-19 0.000575198)
(-0.0745968 -0.0170949 4.14888e-20 0.0740121 -5.55427e-21 0.000584677)
(-0.0706906 -0.0165557 -5.01487e-20 0.0700988 3.26922e-20 0.00059174)
(-0.0669536 -0.0160419 1.43888e-19 0.0663574 1.51756e-19 0.00059618)
(-0.0633833 -0.0155526 -6.54248e-21 0.0627855 -9.51705e-20 0.000597776)
(-0.0599807 -0.0150899 6.08281e-20 0.0593844 7.9838e-20 0.000596281)
(-0.0567403 -0.0146532 -6.29241e-20 0.0561489 2.77804e-20 0.000591431)
(-0.0536688 -0.0142438 -5.13696e-20 0.0530859 1.01633e-19 0.000582933)
(-0.0507588 -0.0138621 -8.7516e-20 0.0501883 -1.1973e-19 0.000570476)
(-0.0480225 -0.013508 -1.23867e-19 0.0474688 1.03677e-19 0.000553714)
(-0.0454523 -0.0131842 5.44759e-20 0.04492 -2.23854e-21 0.00053228)
(-0.0430657 -0.0128888 1.09221e-19 0.0425599 4.52275e-20 0.000505764)
(-0.040857 -0.0126299 -3.50693e-19 0.0403832 1.30896e-19 0.000473734)
(-0.038847 -0.0123993 1.7461e-20 0.0384113 -1.85234e-20 0.000435695)
(-0.0370386 -0.0122276 1.96059e-19 0.0366474 1.2093e-19 0.000391135)
(-0.0354413 -0.0120505 -3.09714e-19 0.0351019 3.91611e-20 0.000339454)
(-0.0341021 -0.0120865 1.60334e-19 0.033822 9.04006e-20 0.000280046)
(-0.0329085 -0.0117513 -4.46068e-21 0.0326963 8.61499e-20 0.00021218)
(-0.0322164 -0.0123505 -6.11326e-20 0.0320812 -8.55216e-20 0.000135174)
(-0.0311349 -0.0121116 -2.80127e-20 0.0310867 -1.52031e-19 4.81665e-05)
(-0.179232 -0.0242878 5.1877e-20 0.179208 -1.015e-19 2.45882e-05)
(-0.177438 -0.0278635 2.02866e-19 0.177368 -2.03042e-19 6.94738e-05)
(-0.17395 -0.0302109 -1.07507e-19 0.173839 -2.79761e-19 0.000111507)
(-0.16925 -0.0316284 -1.37948e-19 0.169099 -6.22953e-21 0.000151066)
(-0.163887 -0.0324023 2.70439e-19 0.163699 4.45078e-20 0.000188451)
(-0.158029 -0.032686 8.75384e-20 0.157805 -1.58655e-19 0.000223894)
(-0.151984 -0.0326271 -1.92173e-20 0.151727 -1.45766e-19 0.000257579)
(-0.145799 -0.032309 -5.61892e-20 0.145509 8.46994e-20 0.000289643)
(-0.139652 -0.031811 5.70355e-20 0.139331 5.86512e-20 0.000320192)
(-0.13354 -0.0311791 -4.51183e-21 0.133191 1.11229e-19 0.000349296)
(-0.127569 -0.0304583 8.50332e-21 0.127192 -1.82142e-19 0.000377001)
(-0.121719 -0.0296739 -1.8508e-19 0.121315 1.22176e-19 0.000403326)
(-0.116052 -0.0288523 8.15819e-20 0.115624 -1.13758e-19 0.00042827)
(-0.110546 -0.0280077 2.28747e-20 0.110094 1.85761e-19 0.000451809)
(-0.105237 -0.0271556 1.10332e-19 0.104763 -2.55736e-21 0.000473904)
(-0.100103 -0.0263046 -2.77458e-20 0.0996085 1.76536e-19 0.000494494)
(-0.0951667 -0.0254631 -6.94454e-20 0.0946532 -2.63353e-19 0.000513503)
(-0.0904077 -0.0246372 1.36374e-19 0.0898769 9.99347e-20 0.000530835)
(-0.0858398 -0.0238309 -6.25799e-20 0.0852934 5.12976e-20 0.000546382)
(-0.0814471 -0.023049 -6.30932e-20 0.0808871 -3.67116e-20 0.000560011)
(-0.0772364 -0.0222927 -1.90195e-19 0.0766648 2.02257e-19 0.000571578)
(-0.0731973 -0.0215662 1.08155e-19 0.0726164 1.80373e-19 0.000580918)
(-0.069331 -0.0208689 6.84605e-20 0.0687432 8.99599e-20 0.000587849)
(-0.065633 -0.0202048 -1.38907e-19 0.0650408 -1.62397e-19 0.000592168)
(-0.0621002 -0.0195724 -4.92961e-20 0.0615065 2.59285e-19 0.000593654)
(-0.058734 -0.0189751 1.13836e-19 0.0581419 -3.11142e-20 0.000592063)
(-0.0555279 -0.0184114 1.0787e-19 0.0549407 1.25916e-19 0.000587135)
(-0.0524897 -0.0178838 -1.74671e-19 0.0519111 6.53847e-20 0.00057858)
(-0.0496099 -0.0173916 5.96337e-20 0.0490438 2.73498e-19 0.00056609)
(-0.0469034 -0.0169355 1.2142e-19 0.0463541 2.11559e-19 0.000549327)
(-0.0443584 -0.0165172 -1.19383e-19 0.0438305 2.38739e-19 0.000527928)
(-0.0419984 -0.0161337 2.24286e-19 0.0414969 -4.63082e-20 0.000501492)
(-0.0398094 -0.0157925 -9.80066e-20 0.0393398 1.4967e-19 0.000469592)
(-0.0378261 -0.0154795 -8.61692e-20 0.0373943 1.24537e-19 0.00043175)
(-0.0360296 -0.0152282 1.67569e-19 0.0356421 2.60325e-19 0.000387458)
(-0.0344748 -0.0149543 -8.1601e-20 0.0341387 -6.75972e-20 0.000336139)
(-0.0331007 -0.0148962 6.08547e-20 0.0328236 8.75913e-21 0.00027719)
(-0.0320437 -0.0144508 -2.0694e-19 0.0318338 4.87232e-20 0.000209916)
(-0.0310487 -0.0148869 -3.27593e-19 0.0309151 -2.79817e-20 0.000133629)
(-0.0301716 -0.0147506 8.62248e-20 0.030124 8.8856e-20 4.75593e-05)
(-0.178604 -0.0297424 2.81769e-20 0.178579 3.47422e-20 2.4461e-05)
(-0.176284 -0.0339882 -2.03737e-19 0.176215 2.8432e-19 6.90813e-05)
(-0.172419 -0.0367616 1.71667e-19 0.172308 -8.65871e-20 0.000110864)
(-0.167453 -0.0384216 1.98163e-19 0.167303 3.26243e-19 0.000150184)
(-0.161904 -0.039312 -2.06647e-19 0.161717 -3.58828e-20 0.000187341)
(-0.155921 -0.0396162 -7.06146e-20 0.155698 -9.1394e-20 0.000222565)
(-0.149797 -0.0395116 1.30963e-19 0.149541 9.73826e-20 0.000256038)
(-0.143567 -0.0390977 1.9524e-19 0.143279 -9.14824e-20 0.000287896)
(-0.1374 -0.0384698 4.68214e-20 0.137082 -1.13036e-19 0.000318244)
(-0.131289 -0.0376828 -2.50321e-19 0.130942 1.32992e-19 0.000347151)
(-0.125333 -0.0367906 7.44554e-20 0.124958 2.11506e-19 0.000374664)
(-0.119509 -0.0358233 1.09541e-19 0.119108 9.65912e-20 0.000400798)
(-0.113877 -0.0348126 2.39986e-20 0.113452 3.75665e-22 0.000425556)
(-0.108411 -0.0337754 2.88659e-19 0.107962 -2.20259e-19 0.000448911)
(-0.103147 -0.0327302 6.81866e-20 0.102676 3.56721e-20 0.000470826)
(-0.0980606 -0.031687 -2.28998e-19 0.0975693 -1.14928e-19 0.000491239)
(-0.0931739 -0.0306563 7.68742e-21 0.0926639 2.03692e-19 0.000510076)
(-0.0884657 -0.029645 5.25e-20 0.0879385 1.54043e-19 0.000527241)
(-0.0839492 -0.028658 -1.10767e-19 0.0834066 7.56404e-20 0.000542625)
(-0.0796079 -0.027701 2.30119e-19 0.0790518 1.8552e-19 0.000556098)
(-0.0754483 -0.0267752 1.10082e-19 0.0748808 2.33538e-19 0.000567519)
(-0.0714595 -0.0258862 -8.50202e-20 0.0708827 1.53288e-19 0.000576719)
(-0.0676426 -0.0250327 -2.93307e-19 0.067059 -1.57107e-19 0.000583522)
(-0.0639928 -0.0242201 2.86087e-19 0.0634051 2.20128e-19 0.000587724)
(-0.0605069 -0.0234458 1.03479e-19 0.0599178 9.04211e-20 0.000589108)
(-0.0571865 -0.0227151 -1.21144e-19 0.056599 2.80431e-19 0.000587432)
(-0.0540241 -0.0220246 1.18715e-19 0.0534417 -1.0696e-19 0.000582438)
(-0.0510288 -0.0213791 1.19868e-19 0.050455 1.26746e-19 0.00057384)
(-0.0481892 -0.0207751 5.44753e-20 0.0476279 -8.21237e-20 0.000561336)
(-0.0455228 -0.0202164 -6.37349e-20 0.0449782 -9.36969e-20 0.000544591)
(-0.0430137 -0.0197 -1.1462e-19 0.0424905 -5.18825e-19 0.000523248)
(-0.040691 -0.0192272 -1.33405e-20 0.0401941 2.28274e-20 0.000496916)
(-0.0385309 -0.0187976 -3.23245e-20 0.0380657 -2.84479e-19 0.000465176)
(-0.0365803 -0.0184039 1.2288e-19 0.0361527 5.96605e-20 0.000427563)
(-0.0347943 -0.0180646 1.01983e-19 0.0344107 -2.67576e-19 0.000383582)
(-0.0332633 -0.0177106 -5.56805e-19 0.0329306 -1.41143e-19 0.00033268)
(-0.0318356 -0.0175511 3.41714e-19 0.0315613 -1.47505e-19 0.000274266)
(-0.0308251 -0.0170167 2.3192e-20 0.0306174 -3.60362e-20 0.000207685)
(-0.0296129 -0.0173701 -1.93812e-20 0.0294807 -4.60956e-19 0.00013224)
(-0.0287949 -0.0171621 -1.99361e-19 0.0287478 1.14942e-19 4.71505e-05)
(-0.177833 -0.0351982 2.07518e-19 0.177809 -6.76134e-20 2.42668e-05)
(-0.174897 -0.0400521 1.11437e-19 0.174829 8.46328e-20 6.85675e-05)
(-0.170589 -0.0432065 -1.75509e-19 0.170479 1.33006e-20 0.000110051)
(-0.165311 -0.0450764 5.91126e-21 0.165162 -2.59802e-19 0.000149088)
(-0.159545 -0.0460592 3.70703e-20 0.159359 1.51313e-19 0.000185975)
(-0.153416 -0.0463668 9.50507e-21 0.153195 4.62427e-19 0.000220938)
(-0.147199 -0.0462045 -6.14669e-20 0.146945 2.38674e-20 0.00025416)
(-0.140917 -0.0456867 -2.1076e-19 0.140632 1.58783e-19 0.000285775)
(-0.134729 -0.0449238 2.72255e-19 0.134413 -1.34903e-20 0.000315886)
(-0.128619 -0.0439787 2.26796e-19 0.128275 1.14503e-19 0.000344562)
(-0.122681 -0.0429139 -6.23711e-20 0.12231 2.37913e-22 0.000371848)
(-0.116889 -0.0417638 -3.44103e-19 0.116491 1.85382e-19 0.000397761)
(-0.111298 -0.0405651 -1.88158e-19 0.110876 9.76373e-21 0.000422301)
(-0.10588 -0.0393371 -2.48714e-20 0.105434 3.33441e-19 0.000445444)
(-0.100669 -0.0381009 3.17803e-19 0.100202 -1.59336e-19 0.00046715)
(-0.0956389 -0.0368685 1.17932e-19 0.0951515 1.79359e-20 0.00048736)
(-0.0908111 -0.0356514 9.93905e-20 0.0903051 2.23241e-21 0.000505999)
(-0.0861628 -0.0344577 7.1417e-20 0.0856398 9.13532e-21 0.000522973)
(-0.081707 -0.033293 -1.4641e-20 0.0811688 -1.36106e-19 0.000538172)
(-0.0774262 -0.032164 9.11647e-20 0.0768747 -1.82652e-19 0.00055147)
(-0.0733267 -0.0310717 -1.00204e-19 0.072764 -1.37781e-20 0.000562723)
(-0.069397 -0.030023 -6.63983e-20 0.0688252 -2.9542e-19 0.000571768)
(-0.0656383 -0.0290158 1.54169e-20 0.0650599 1.82945e-19 0.000578426)
(-0.0620452 -0.0280572 4.59706e-20 0.0614627 -1.15448e-19 0.000582498)
(-0.0586144 -0.027143 1.64462e-19 0.0580306 -1.20438e-19 0.000583769)
(-0.0553473 -0.0262806 -2.2886e-20 0.0547653 -6.01032e-20 0.000581998)
(-0.052236 -0.0254645 -8.67548e-20 0.0516591 -2.15521e-20 0.000576931)
(-0.0492898 -0.0247021 -2.54514e-20 0.0487216 -3.01926e-19 0.000568286)
(-0.046496 -0.0239864 -2.01329e-19 0.0459403 5.83689e-19 0.000555764)
(-0.0438733 -0.0233248 -2.37472e-19 0.0433342 -4.2822e-20 0.000539037)
(-0.0414025 -0.0227087 -1.16888e-19 0.0408847 3.15962e-19 0.000517753)
(-0.0391153 -0.022145 4.25306e-19 0.0386237 1.43393e-19 0.000491532)
(-0.0369813 -0.0216234 -4.59475e-20 0.0365214 -2.12116e-19 0.00045996)
(-0.0350532 -0.021148 -1.10395e-19 0.0346306 2.38521e-19 0.000422594)
(-0.0332724 -0.0207183 1.24696e-19 0.0328934 -1.83466e-19 0.000378945)
(-0.0317453 -0.0202992 -3.04974e-20 0.0314169 -3.00925e-20 0.000328493)
(-0.0302794 -0.0200383 3.01364e-20 0.0300087 7.10442e-21 0.000270658)
(-0.029292 -0.0195315 -5.04688e-19 0.0290872 -1.0555e-19 0.000204833)
(-0.0279024 -0.0197337 -1.9321e-19 0.027772 -1.22538e-19 0.00013032)
(-0.0273752 -0.0197551 2.12069e-19 0.0273288 5.26274e-19 4.6419e-05)
(-0.176918 -0.0406536 1.00749e-19 0.176893 1.1082e-19 2.40896e-05)
(-0.173281 -0.0460454 -2.17588e-20 0.173213 -1.03046e-19 6.80306e-05)
(-0.168469 -0.0495284 -1.45065e-20 0.16836 7.99656e-20 0.000109175)
(-0.162838 -0.05157 1.32103e-19 0.16269 6.77521e-19 0.000147891)
(-0.156825 -0.052618 2.16089e-19 0.15664 3.72697e-20 0.000184472)
(-0.150531 -0.0529094 -7.48936e-21 0.150312 -4.49304e-19 0.000219142)
(-0.144211 -0.0526757 2.81229e-21 0.143959 -8.55512e-20 0.000252083)
(-0.137871 -0.0520447 1.60509e-19 0.137587 -1.59764e-19 0.000283426)
(-0.131659 -0.051141 -6.63553e-20 0.131346 -4.23792e-20 0.000313275)
(-0.125551 -0.0500347 -1.19591e-19 0.125209 -1.56057e-19 0.000341695)
(-0.119635 -0.0487961 2.8208e-19 0.119267 -1.2686e-19 0.000368733)
(-0.113879 -0.0474636 2.41919e-19 0.113485 -2.65259e-19 0.000394404)
(-0.108336 -0.0460783 6.29755e-20 0.107917 8.56511e-20 0.000418709)
(-0.102973 -0.0446616 7.71846e-20 0.102531 -6.92636e-20 0.000441624)
(-0.0978234 -0.0432375 -1.38118e-19 0.0973603 -3.64546e-19 0.000463109)
(-0.092858 -0.0418188 -1.07835e-19 0.0923749 3.44837e-20 0.000483105)
(-0.0880977 -0.0404188 1.18054e-19 0.0875961 -2.85788e-19 0.000501539)
(-0.0835181 -0.0390463 -1.87254e-20 0.0829998 2.79984e-22 0.000518315)
(-0.0791317 -0.0377074 -1.87061e-19 0.0785984 -4.31644e-19 0.000533328)
(-0.0749201 -0.0364099 3.57639e-19 0.0743736 2.59255e-20 0.000546449)
(-0.0708895 -0.0351545 9.74602e-20 0.0703319 -6.41263e-20 0.000557538)
(-0.0670274 -0.0339492 6.01904e-20 0.0664609 2.32593e-20 0.000566433)
(-0.0633352 -0.0327911 -1.93686e-19 0.0627622 1.70908e-19 0.000572958)
(-0.0598068 -0.0316888 4.0017e-21 0.0592299 5.09552e-20 0.000576913)
(-0.0564391 -0.0306368 1.26545e-19 0.055861 1.43054e-19 0.000578088)
(-0.0532328 -0.0296445 1.61684e-19 0.0526565 -3.04332e-19 0.000576243)
(-0.0501801 -0.0287039 -2.43308e-19 0.049609 2.39992e-19 0.000571129)
(-0.0472899 -0.0278257 8.69141e-19 0.0467274 -5.28917e-19 0.000562466)
(-0.0445486 -0.0269989 3.02233e-19 0.0439986 4.75153e-19 0.000549961)
(-0.041975 -0.0262359 -2.27968e-19 0.0414417 -5.44945e-19 0.00053329)
(-0.0395476 -0.0255212 -2.50036e-19 0.0390355 4.7573e-19 0.000512111)
(-0.0372988 -0.024871 -5.49708e-19 0.0368128 -5.37821e-20 0.00048605)
(-0.035193 -0.0242626 5.74036e-20 0.0347383 1.98174e-19 0.000454705)
(-0.033285 -0.0237178 1.23369e-19 0.0328674 2.57223e-19 0.000417646)
(-0.0315064 -0.0232133 -3.35277e-19 0.031132 1.57086e-19 0.000374401)
(-0.0299706 -0.022756 -3.56519e-19 0.0296462 1.33581e-20 0.000324474)
(-0.0284696 -0.0224228 3.0208e-19 0.0282023 2.83532e-19 0.0002673)
(-0.0274587 -0.0219786 -1.45415e-19 0.0272564 2.73309e-19 0.000202303)
(-0.0259858 -0.0220696 5.51972e-19 0.025857 -1.80266e-19 0.000128768)
(-0.0255801 -0.0222443 -4.41722e-19 0.0255341 1.20571e-19 4.59676e-05)
(-0.175855 -0.0461071 1.2184e-19 0.175831 -7.45955e-20 2.38425e-05)
(-0.171441 -0.0519564 1.23099e-19 0.171374 -5.018e-20 6.73703e-05)
(-0.16607 -0.0557096 2.37899e-19 0.165962 -5.54703e-20 0.000108128)
(-0.160046 -0.0578806 1.22453e-19 0.1599 -6.64953e-19 0.000146479)
(-0.153761 -0.0589625 -4.41071e-19 0.153578 -4.71378e-19 0.000182711)
(-0.147286 -0.0592157 -1.75154e-20 0.147069 2.01711e-19 0.00021705)
(-0.140852 -0.0588951 3.65309e-20 0.140602 2.42762e-19 0.00024967)
(-0.134448 -0.0581408 -1.52747e-19 0.134168 5.21635e-20 0.000280706)
(-0.128212 -0.0570898 2.31576e-19 0.127902 3.2919e-19 0.000310256)
(-0.122108 -0.0558186 2.55284e-19 0.12177 -4.24808e-19 0.000338387)
(-0.116218 -0.0544049 -3.19061e-19 0.115853 3.10781e-19 0.000365144)
(-0.110504 -0.0528902 -6.27081e-20 0.110113 -2.3981e-19 0.000390543)
(-0.105014 -0.0513198 -1.80626e-20 0.1046 8.57312e-20 0.000414584)
(-0.0997138 -0.049717 -2.52916e-19 0.0992765 -3.21271e-20 0.000437242)
(-0.0946329 -0.048108 3.03724e-19 0.0941744 2.40417e-19 0.00045848)
(-0.0897403 -0.0465069 1.86611e-19 0.0892621 -1.52154e-19 0.000478237)
(-0.0850557 -0.0449277 -9.71335e-20 0.0845592 4.13157e-19 0.000496441)
(-0.080553 -0.0433806 6.8493e-20 0.08004 -1.95963e-19 0.000512999)
(-0.0762444 -0.0418717 -2.30815e-19 0.0757166 2.31467e-19 0.000527805)
(-0.07211 -0.0404096 2.84141e-19 0.0715692 2.10847e-20 0.000540733)
(-0.0681561 -0.0389949 -1.26649e-20 0.0676045 -1.98481e-19 0.000551643)
(-0.0643692 -0.0376366 1.45499e-19 0.0638088 -4.68779e-20 0.000560375)
(-0.0607509 -0.036331 1.57561e-19 0.0601841 -1.40447e-19 0.000566755)
(-0.0572939 -0.0350881 -5.89418e-20 0.0567234 -3.01114e-20 0.000570587)
(-0.0539958 -0.0339008 -3.09935e-19 0.0534241 1.93761e-19 0.000571661)
(-0.0508559 -0.0327808 2.46988e-19 0.0502862 -5.2345e-19 0.000569743)
(-0.0478671 -0.0317173 -5.51838e-19 0.0473025 1.49559e-19 0.000564584)
(-0.0450367 -0.0307245 -9.82884e-20 0.0444807 1.57359e-19 0.000555912)
(-0.0423515 -0.029787 2.20562e-19 0.0418081 4.42979e-20 0.000543436)
(-0.0398284 -0.028923 -7.76152e-20 0.0393015 -2.79396e-19 0.00052684)
(-0.0374461 -0.0281098 5.80162e-19 0.0369403 1.7428e-19 0.000505787)
(-0.0352338 -0.0273736 2.00092e-19 0.0347539 -2.64729e-19 0.000479916)
(-0.0331569 -0.0266797 -5.99326e-20 0.032708 5.61464e-19 0.000448831)
(-0.0312645 -0.0260696 2.78994e-19 0.0308524 -7.11544e-19 0.00041212)
(-0.0294928 -0.0254971 -1.6022e-19 0.0291234 5.12894e-19 0.000369321)
(-0.027945 -0.0250165 3.06362e-20 0.027625 -1.80099e-19 0.000319962)
(-0.026436 -0.0246281 2.46338e-19 0.0261725 4.70343e-19 0.000263488)
(-0.0253902 -0.0242903 -9.1635e-19 0.0251908 -3.40574e-19 0.000199349)
(-0.023929 -0.024268 -3.09374e-19 0.0238021 1.57543e-19 0.000126827)
(-0.0236552 -0.0246778 4.06921e-19 0.02361 3.33548e-19 4.52295e-05)
(-0.174641 -0.0515567 -8.04808e-20 0.174617 6.3818e-19 2.36163e-05)
(-0.169381 -0.0577763 -1.50639e-19 0.169314 2.77663e-19 6.66925e-05)
(-0.163403 -0.0617347 -3.47315e-19 0.163296 7.31372e-20 0.000107025)
(-0.156954 -0.0639882 -3.24224e-21 0.156809 4.82281e-19 0.000144974)
(-0.150374 -0.0650703 5.4236e-19 0.150193 6.31008e-19 0.000180825)
(-0.143703 -0.0652611 1.82651e-19 0.143489 2.25677e-19 0.000214799)
(-0.137147 -0.064837 -4.23602e-20 0.1369 -1.24036e-19 0.000247071)
(-0.130676 -0.0639479 2.44768e-19 0.130398 -3.11174e-19 0.000277771)
(-0.124414 -0.0627427 -3.81425e-19 0.124107 -2.94986e-19 0.000306999)
(-0.118316 -0.0613029 -1.65505e-19 0.117982 2.0535e-19 0.000334818)
(-0.112456 -0.0597126 3.38308e-19 0.112095 4.58712e-19 0.000361275)
(-0.106789 -0.0580163 -1.7689e-19 0.106402 3.94521e-19 0.000386384)
(-0.101359 -0.0562628 2.04404e-19 0.100949 2.6742e-19 0.000410145)
(-0.0961281 -0.0544768 4.33517e-20 0.0956955 2.39406e-19 0.000432534)
(-0.0911233 -0.0526866 -4.32712e-19 0.0906698 5.33159e-20 0.000453513)
(-0.0863112 -0.050907 1.48207e-19 0.0858381 -1.23149e-19 0.000473023)
(-0.08171 -0.0491534 5.97188e-20 0.081219 1.01207e-20 0.000490993)
(-0.0772919 -0.0474361 -8.51445e-20 0.0767846 -3.09684e-19 0.00050733)
(-0.0730688 -0.0457618 -9.31056e-20 0.0725469 -2.0427e-19 0.00052193)
(-0.0690191 -0.0441398 -1.76348e-19 0.0684844 3.37876e-19 0.000534668)
(-0.0651495 -0.0425703 2.61273e-20 0.0646041 3.01523e-20 0.000545408)
(-0.0614447 -0.0410633 -3.07215e-20 0.0608907 3.15724e-19 0.000553988)
(-0.0579072 -0.0396141 -7.40275e-20 0.0573469 -8.55034e-20 0.00056024)
(-0.054528 -0.0382343 4.53672e-19 0.053964 9.4117e-20 0.000563969)
(-0.0513056 -0.0369151 -4.49458e-19 0.0507406 2.35535e-19 0.000564968)
(-0.0482376 -0.0356704 7.00522e-20 0.0476746 -1.14391e-19 0.000563006)
(-0.0453179 -0.0344871 4.25057e-19 0.04476 5.69532e-19 0.000557839)
(-0.0425513 -0.0333826 4.59333e-19 0.0420021 1.58386e-19 0.000549199)
(-0.0399262 -0.0323377 -1.41772e-19 0.0393894 4.0326e-19 0.000536801)
(-0.0374557 -0.0313765 -4.87933e-19 0.0369354 4.4449e-19 0.000520335)
(-0.0351208 -0.0304697 -2.14129e-19 0.0346213 8.47642e-20 0.000499471)
(-0.0329449 -0.0296539 4.12073e-20 0.032471 -2.56483e-20 0.000473856)
(-0.0308973 -0.0288838 -3.00419e-19 0.0304542 7.38727e-21 0.000443105)
(-0.0290185 -0.0282188 1.33925e-19 0.0286117 -2.05604e-19 0.000406817)
(-0.027255 -0.0275937 3.59035e-19 0.0268905 2.87756e-19 0.000364543)
(-0.0256933 -0.027101 -3.79708e-19 0.0253774 -3.35631e-19 0.000315823)
(-0.0241911 -0.0266755 6.08963e-19 0.023931 4.70856e-20 0.000260113)
(-0.0230979 -0.0264338 -1.65192e-19 0.022901 -1.21175e-19 0.000196865)
(-0.0217233 -0.0263079 8.87499e-19 0.0215979 4.94723e-19 0.000125347)
(-0.0214697 -0.0268815 -5.13498e-19 0.0214249 -3.13565e-19 4.48023e-05)
(-0.173273 -0.0569997 6.55165e-20 0.17325 -4.07347e-19 2.33179e-05)
(-0.167108 -0.063494 -6.91544e-21 0.167042 -5.04852e-19 6.58895e-05)
(-0.160481 -0.0675884 2.13074e-19 0.160375 2.03766e-19 0.00010575)
(-0.153578 -0.0698739 1.1455e-19 0.153435 -1.00353e-20 0.000143254)
(-0.146684 -0.0709194 -7.21305e-19 0.146505 -9.0838e-20 0.000178682)
(-0.139806 -0.0710217 -1.58093e-20 0.139594 -7.86752e-19 0.000212253)
(-0.133121 -0.0704758 -2.55656e-19 0.132876 -2.53624e-20 0.000244139)
(-0.126581 -0.0694399 -1.22169e-19 0.126306 -2.34248e-19 0.000274468)
(-0.120294 -0.0680728 5.24634e-19 0.11999 5.94751e-19 0.000303338)
(-0.114204 -0.0664603 5.45385e-19 0.113874 1.09179e-20 0.000330814)
(-0.108378 -0.0646922 -6.4403e-20 0.108021 -2.85479e-20 0.000356939)
(-0.102763 -0.0628147 6.08258e-20 0.102381 -7.31388e-19 0.000381727)
(-0.0973996 -0.0608802 -2.1335e-19 0.0969944 1.33219e-19 0.00040518)
(-0.0922443 -0.0589141 -3.30135e-20 0.091817 -6.28948e-19 0.000427273)
(-0.0873227 -0.0569468 9.41333e-20 0.0868747 -8.94978e-20 0.000447968)
(-0.0825981 -0.0549933 3.99925e-21 0.0821309 -9.64171e-20 0.000467208)
(-0.0780877 -0.05307 -1.31094e-19 0.0776027 1.51768e-19 0.000484922)
(-0.0737615 -0.0511877 -1.13758e-19 0.0732605 -1.41984e-19 0.000501018)