/*--------------------------------*- C++ -*----------------------------------*\
| =========                 |                                                 |
| \\      /  F ield         | foam-extend: Open Source CFD                    |
|  \\    /   O peration     | Version:  3.0                                   |
|   \\  /    A nd           | Web:         http://www.extend-project.de       |
|    \\/     M anipulation  |                                                 |
\*---------------------------------------------------------------------------*/
FoamFile
{
    version     2.0;
    format      ascii;
    class       volVectorField;
    location    "8";
    object      u;
}
// * * * * * * * * * * * * * * * * * * * * * * * * * * * * * * * * * * * * * //

dimensions      [0 0 0 0 0 0 0];

internalField   nonuniform List<vector> 
7680
(
(0.0722876 -0.0311311 1.8645e-19)
(0.190055 -0.0274331 2.11235e-19)
(0.289871 -0.0242545 9.67024e-20)
(0.374659 -0.0215157 1.66675e-19)
(0.447584 -0.0191554 7.08644e-20)
(0.510323 -0.01711 2.00759e-19)
(0.564989 -0.0153335 1.16665e-19)
(0.612524 -0.0137804 2.01788e-19)
(0.654409 -0.0124189 3.28782e-19)
(0.691151 -0.0112178 1.38551e-19)
(0.72384 -0.0101556 8.60259e-20)
(0.752719 -0.00921095 9.68749e-20)
(0.778629 -0.00836897 5.49562e-20)
(0.80165 -0.00761529 -1.12399e-19)
(0.822458 -0.00693909 2.16174e-19)
(0.841025 -0.00633072 3.17869e-19)
(0.857917 -0.00578201 2.88379e-19)
(0.873037 -0.00528672 1.36583e-19)
(0.886872 -0.00483835 1.78985e-19)
(0.899276 -0.00443321 -2.53581e-19)
(0.910684 -0.00406584 7.09531e-20)
(0.920915 -0.0037346 1.20166e-19)
(0.930364 -0.0034346 2.21666e-19)
(0.938826 -0.00316588 1.43992e-19)
(0.94667 -0.00292383 1.71272e-19)
(0.953669 -0.00270993 4.00193e-19)
(0.960172 -0.00251955 5.5862e-19)
(0.96594 -0.00235541 1.83042e-19)
(0.971303 -0.00221265 2.79401e-20)
(0.976011 -0.00209486 1.65498e-19)
(0.980381 -0.00199661 3.19137e-19)
(0.984152 -0.00192165 2.73895e-19)
(0.98763 -0.00186299 6.05527e-20)
(0.990544 -0.00182232 -4.54041e-19)
(0.993183 -0.00178766 -1.24589e-19)
(0.995271 -0.00175108 6.75611e-20)
(0.997076 -0.00168306 5.60891e-19)
(0.998322 -0.00154113 1.6567e-19)
(0.999273 -0.00123739 7.21207e-20)
(0.999754 -0.000615522 1.17598e-19)
(0.0763951 -0.093992 1.43108e-19)
(0.193678 -0.0829344 -1.00428e-19)
(0.293081 -0.0734763 1.22113e-19)
(0.377515 -0.0653551 2.39564e-19)
(0.450137 -0.0583678 2.63886e-20)
(0.512613 -0.0523187 9.44829e-21)
(0.567052 -0.0470643 1.26516e-20)
(0.614389 -0.0424692 1.93692e-19)
(0.6561 -0.038437 5.61463e-20)
(0.692689 -0.0348762 3.15813e-20)
(0.725242 -0.0317221 1.13488e-19)
(0.754001 -0.0289126 1.8484e-19)
(0.779804 -0.026403 2.39278e-19)
(0.802729 -0.0241505 1.52713e-19)
(0.82345 -0.0221232 4.11072e-19)
(0.84194 -0.0202913 5.57529e-19)
(0.858761 -0.0186309 4.93009e-19)
(0.873816 -0.0171216 -6.65739e-20)
(0.887593 -0.0157448 -1.81107e-19)
(0.899943 -0.0144869 -3.2032e-19)
(0.911301 -0.0133325 2.22417e-19)
(0.921485 -0.0122732 2.80089e-19)
(0.930892 -0.0112958 1.96451e-19)
(0.939314 -0.0103958 2.80043e-20)
(0.947119 -0.00956121 9.47528e-19)
(0.954083 -0.00879063 4.73671e-19)
(0.960551 -0.00807263 2.2791e-19)
(0.966286 -0.00740812 -1.62066e-20)
(0.971617 -0.00678574 1.47924e-19)
(0.976293 -0.00620765 2.66654e-19)
(0.980632 -0.00566204 4.13716e-19)
(0.984372 -0.00515065 8.66663e-19)
(0.98782 -0.00466007 7.3761e-19)
(0.990703 -0.00418803 -5.51151e-19)
(0.993313 -0.00371615 -2.27059e-19)
(0.995372 -0.00322941 -2.9133e-19)
(0.99715 -0.00269665 1.00461e-18)
(0.998369 -0.00207757 2.37501e-19)
(0.9993 -0.0013382 2.40375e-19)
(0.99976 -0.000460689 7.8987e-19)
(0.0846036 -0.156447 2.91165e-19)
(0.200922 -0.13808 -1.63054e-19)
(0.299503 -0.122383 4.29238e-19)
(0.383233 -0.108914 3.77268e-20)
(0.455249 -0.0973299 4.28483e-19)
(0.517201 -0.0873027 6.21331e-20)
(0.571185 -0.078593 8.39105e-20)
(0.618125 -0.0709753 6.00452e-20)
(0.659487 -0.0642897 -7.89228e-19)
(0.695769 -0.0583844 -3.93457e-19)
(0.728049 -0.0531521 4.1653e-19)
(0.756566 -0.0484896 3.02328e-19)
(0.782152 -0.0443232 8.03388e-21)
(0.804883 -0.0405815 2.46395e-19)
(0.825428 -0.0372117 7.64529e-19)
(0.843759 -0.034164 1.06835e-18)
(0.860436 -0.0313989 -4.52745e-19)
(0.87536 -0.028882 5.41579e-19)
(0.889015 -0.0265825 -5.90984e-19)
(0.901255 -0.024477 8.64371e-20)
(0.91251 -0.0225403 1.77512e-19)
(0.922599 -0.0207572 6.37922e-19)
(0.931916 -0.0191063 3.31244e-19)
(0.940255 -0.0175785 1.28951e-18)
(0.947981 -0.0161545 3.69865e-19)
(0.954869 -0.0148301 6.56919e-19)
(0.961266 -0.0135871 1.1673e-19)
(0.966931 -0.0124246 6.5644e-19)
(0.972195 -0.0113247 3.77564e-19)
(0.976805 -0.0102884 4.58396e-19)
(0.98108 -0.00929749 3.77992e-19)
(0.984757 -0.00835204 1.63589e-19)
(0.988143 -0.00743218 9.3873e-19)
(0.990965 -0.00653252 1.22197e-18)
(0.993516 -0.00562818 1.97246e-21)
(0.995517 -0.00469871 7.00683e-20)
(0.997243 -0.00371049 7.6235e-19)
(0.998414 -0.00262733 -1.3243e-19)
(0.999313 -0.00146306 -9.3782e-20)
(0.999752 -0.000330923 -2.7069e-19)
(0.0968807 -0.218232 3.09022e-19)
(0.211759 -0.192632 -2.55e-19)
(0.309111 -0.170764 2.57956e-19)
(0.391787 -0.152005 3.6076e-19)
(0.462897 -0.135873 5.91533e-19)
(0.524066 -0.121911 -2.51924e-20)
(0.57737 -0.109784 1.71919e-19)
(0.623715 -0.0991764 2.81843e-19)
(0.664556 -0.089866 -1.84361e-19)
(0.700377 -0.0816414 4.6661e-19)
(0.73225 -0.0743532 6.94873e-19)
(0.760403 -0.0678578 5.83662e-19)
(0.785663 -0.0620523 5.40665e-19)
(0.808101 -0.0568373 1.93364e-19)
(0.828383 -0.0521392 -7.85494e-19)
(0.846475 -0.0478886 -2.3323e-19)
(0.862935 -0.0440305 -9.97743e-19)
(0.877661 -0.0405166 -5.57182e-19)
(0.891134 -0.037304 8.89055e-19)
(0.903206 -0.0343596 -2.1291e-19)
(0.914306 -0.0316485 9.923e-19)
(0.924251 -0.029149 6.68954e-19)
(0.933433 -0.0268311 6.39184e-19)
(0.941645 -0.0246817 -5.19765e-20)
(0.949251 -0.0226739 9.54505e-20)
(0.956026 -0.0208008 -5.34087e-19)
(0.962314 -0.0190374 -1.00672e-18)
(0.967875 -0.0173814 -6.94199e-20)
(0.973038 -0.0158082 4.76484e-19)
(0.97755 -0.0143178 1.16747e-18)
(0.981729 -0.0128856 7.56892e-19)
(0.985312 -0.0115107 -1.64072e-18)
(0.988605 -0.0101665 -3.30504e-19)
(0.991337 -0.00884607 3.19571e-18)
(0.993801 -0.00751756 -9.73786e-19)
(0.995717 -0.00615765 -3.74983e-19)
(0.997368 -0.00472885 4.38962e-19)
(0.99847 -0.0032017 -1.50791e-18)
(0.999323 -0.00162836 -2.60148e-19)
(0.999737 -0.000240995 1.52169e-19)
(0.113172 -0.279079 7.35737e-19)
(0.22614 -0.246357 6.31801e-19)
(0.321862 -0.218413 -6.54475e-20)
(0.403141 -0.194444 1.68581e-18)
(0.47305 -0.173834 5.79272e-19)
(0.53318 -0.155997 1.10155e-19)
(0.585581 -0.140503 2.92939e-19)
(0.631138 -0.126952 2.4971e-19)
(0.671286 -0.115056 -1.1044e-19)
(0.706495 -0.104548 5.04236e-19)
(0.737825 -0.0952348 7.04915e-19)
(0.765494 -0.0869341 9.47299e-19)
(0.790323 -0.0795142 1.35785e-18)
(0.812372 -0.0728481 -4.59407e-19)
(0.832303 -0.0668418 -1.25775e-18)
(0.850078 -0.0614064 -1.82702e-18)
(0.866248 -0.0564716 7.01836e-19)
(0.88071 -0.0519754 -3.90186e-19)
(0.893941 -0.0478632 -4.64743e-20)
(0.905789 -0.0440923 -9.62002e-20)
(0.916682 -0.0406181 9.95169e-19)
(0.926435 -0.0374124 7.53031e-19)
(0.935438 -0.0344371 -5.45807e-19)
(0.943481 -0.0316747 2.66021e-19)
(0.950928 -0.0290911 7.32395e-19)
(0.957551 -0.0266768 4.60415e-19)
(0.963695 -0.0243999 -1.59357e-18)
(0.969117 -0.0222568 -6.42906e-19)
(0.974146 -0.0202164 5.40333e-19)
(0.978529 -0.0182781 -1.37361e-18)
(0.982582 -0.0164107 -1.25458e-18)
(0.986041 -0.0146131 -1.01596e-18)
(0.989215 -0.0128521 -2.47504e-18)
(0.991828 -0.0111204 5.9853e-19)
(0.994181 -0.00937908 -2.40706e-18)
(0.995988 -0.00760473 -1.92408e-18)
(0.997542 -0.00575432 -1.79033e-18)
(0.998554 -0.00380772 -2.99845e-18)
(0.999343 -0.00184423 -1.45118e-19)
(0.999721 -0.000199319 1.73599e-18)
(0.133408 -0.338731 9.64645e-19)
(0.244005 -0.299026 9.4839e-19)
(0.337703 -0.265124 1.43491e-18)
(0.417246 -0.236049 4.05171e-19)
(0.485663 -0.211049 4.06367e-19)
(0.544503 -0.189413 1.56293e-18)
(0.595783 -0.17062 1.0512e-18)
(0.640359 -0.154182 3.66561e-19)
(0.679647 -0.139753 -5.03515e-19)
(0.714096 -0.127005 -2.69368e-19)
(0.744752 -0.115707 7.48885e-19)
(0.77182 -0.105636 3.15652e-19)
(0.796111 -0.0966338 1.58319e-18)
(0.817677 -0.0885451 4.32978e-19)
(0.837172 -0.0812561 -2.10653e-18)
(0.854551 -0.0746588 -1.64539e-18)
(0.870362 -0.0686683 5.10213e-19)
(0.884494 -0.0632088 -1.28395e-18)
(0.897423 -0.0582143 -8.01306e-19)
(0.908994 -0.0536326 -9.86729e-19)
(0.91963 -0.0494099 -2.31222e-18)
(0.929143 -0.0455113 -2.5903e-18)
(0.937922 -0.0418907 9.29329e-19)
(0.945756 -0.0385266 8.58985e-19)
(0.953005 -0.0353776 -2.4544e-18)
(0.959441 -0.0324318 -1.32297e-18)
(0.965405 -0.0296506 -1.03006e-18)
(0.970656 -0.0270291 -2.11997e-18)
(0.97552 -0.0245297 -8.82649e-19)
(0.979743 -0.0221518 -1.51604e-18)
(0.983642 -0.0198573 8.14718e-19)
(0.986951 -0.0176461 1.01779e-18)
(0.989979 -0.0154778 -1.1258e-18)
(0.992451 -0.0133468 1.24024e-19)
(0.994669 -0.0112065 -4.05111e-18)
(0.996345 -0.00903625 5.28476e-19)
(0.997781 -0.00678566 1.5195e-18)
(0.998682 -0.004446 -2.02967e-18)
(0.999388 -0.00211253 -7.3834e-20)
(0.999712 -0.000206798 1.83132e-18)
(0.157502 -0.396929 1.22176e-18)
(0.265276 -0.350414 -3.70349e-19)
(0.356564 -0.310699 8.73468e-19)
(0.434042 -0.276642 8.57582e-19)
(0.500684 -0.247359 -1.59701e-19)
(0.557987 -0.222017 -3.51535e-19)
(0.607933 -0.200005 -6.71889e-20)
(0.651341 -0.180751 6.16434e-19)
(0.689604 -0.163849 6.10974e-19)
(0.723147 -0.148917 -1.49506e-18)
(0.753 -0.135682 -1.55638e-18)
(0.779353 -0.123885 -1.18801e-18)
(0.803003 -0.113338 1.31328e-18)
(0.823993 -0.103861 1.36118e-18)
(0.842968 -0.0953201 -8.73598e-19)
(0.859875 -0.0875891 -9.08333e-19)
(0.875258 -0.0805682 -1.38295e-18)
(0.888998 -0.0741686 -1.84863e-18)
(0.901568 -0.0683129 -1.41359e-18)
(0.912807 -0.0629398 -1.27427e-18)
(0.923136 -0.057986 -2.61399e-18)
(0.932365 -0.0534108 -1.05926e-18)
(0.940878 -0.0491601 9.82038e-19)
(0.948462 -0.0452082 3.4886e-19)
(0.955475 -0.0415066 -1.03669e-18)
(0.961688 -0.0380415 -3.04668e-18)
(0.967441 -0.0347672 3.5399e-19)
(0.972489 -0.0316782 -2.24352e-18)
(0.977158 -0.0287302 -1.03751e-18)
(0.981194 -0.0259229 -8.19748e-19)
(0.984912 -0.0232117 5.49899e-18)
(0.988046 -0.020598 1.69292e-18)
(0.990905 -0.0180342 1.12267e-18)
(0.993212 -0.0155178 1.18164e-18)
(0.995274 -0.0129944 1.94587e-18)
(0.9968 -0.010448 1.42513e-18)
(0.998097 -0.00781973 1.34386e-18)
(0.998868 -0.0051131 1.28032e-18)
(0.999467 -0.0024295 4.80524e-18)
(0.999717 -0.000259223 8.9213e-19)
(0.185351 -0.453427 1.43086e-18)
(0.289862 -0.400299 9.25285e-20)
(0.378366 -0.354942 6.86553e-19)
(0.453456 -0.316048 -3.48126e-19)
(0.518046 -0.282608 -1.03105e-18)
(0.573574 -0.253669 -4.72734e-19)
(0.621977 -0.228531 6.68476e-19)
(0.664036 -0.206543 1.99886e-19)
(0.701114 -0.187242 7.51205e-19)
(0.733611 -0.170189 -7.21659e-19)
(0.762536 -0.155074 8.30911e-19)
(0.78806 -0.1416 -9.97333e-19)
(0.81097 -0.129554 4.08009e-19)
(0.831293 -0.118729 -2.23112e-19)
(0.849667 -0.108973 1.05285e-18)
(0.86603 -0.100142 -1.18913e-20)
(0.880916 -0.09212 7.15774e-19)
(0.894204 -0.0848075 -1.27089e-18)
(0.906358 -0.0781152 2.17929e-18)
(0.917214 -0.0719733 1.48734e-18)
(0.927188 -0.0663094 -1.58984e-18)
(0.936088 -0.0610767 -6.0845e-19)
(0.944293 -0.0562134 -1.08155e-18)
(0.951589 -0.0516902 8.97179e-19)
(0.958331 -0.0474515 8.4812e-19)
(0.964288 -0.0434814 -1.7437e-18)
(0.969797 -0.0397276 2.9383e-18)
(0.974613 -0.0361841 2.6751e-18)
(0.979059 -0.0328 -6.22957e-18)
(0.982881 -0.0295759 -3.34207e-18)
(0.986393 -0.0264603 -1.52484e-18)
(0.989328 -0.0234571 4.8033e-19)
(0.991996 -0.0205117 3.43376e-18)
(0.99412 -0.0176254 -3.47056e-18)
(0.996005 -0.0147359 2.20126e-19)
(0.997363 -0.0118339 2.91295e-18)
(0.998501 -0.00885022 2.34379e-18)
(0.999122 -0.00580109 8.06373e-19)
(0.999589 -0.002786 2.02923e-18)
(0.999737 -0.000348221 -1.25144e-18)
(0.216835 -0.507982 1.49632e-18)
(0.317658 -0.448468 5.50777e-19)
(0.403015 -0.397664 4.62157e-19)
(0.475407 -0.3541 -6.6976e-19)
(0.537677 -0.316646 6.26435e-19)
(0.591197 -0.284233 1.12992e-18)
(0.637856 -0.256077 6.04044e-20)
(0.67839 -0.23145 3.65737e-19)
(0.714129 -0.209831 8.54346e-19)
(0.745441 -0.19073 5.68651e-19)
(0.773317 -0.1738 9.10565e-19)
(0.797905 -0.158707 1.49153e-18)
(0.819977 -0.145213 6.58623e-19)
(0.839547 -0.133087 1.2499e-18)
(0.857242 -0.122157 2.56589e-18)
(0.872988 -0.112262 -1.98667e-19)
(0.887313 -0.103274 5.19517e-19)
(0.900088 -0.0950798 -6.27197e-19)
(0.911772 -0.0875794 2.68175e-18)
(0.922196 -0.0806947 2.40086e-18)
(0.931769 -0.0743445 4.49028e-19)
(0.940297 -0.0684764 8.16555e-19)
(0.948155 -0.0630211 -1.29297e-18)
(0.955126 -0.0579455 -1.26619e-18)
(0.961562 -0.0531874 9.48269e-19)
(0.967231 -0.048729 1.28457e-18)
(0.972465 -0.0445115 2.00004e-18)
(0.977021 -0.0405287 4.49179e-18)
(0.981218 -0.0367231 -1.24465e-18)
(0.984802 -0.0330967 2.87648e-18)
(0.988085 -0.0295912 -2.52865e-19)
(0.9908 -0.0262134 -1.98289e-18)
(0.993256 -0.0229016 -7.38057e-19)
(0.995176 -0.0196624 -2.26821e-18)
(0.996867 -0.016425 -1.28358e-18)
(0.998038 -0.0131875 -4.42427e-19)
(0.998997 -0.0098701 -4.18926e-18)
(0.999447 -0.00650065 -2.34575e-18)
(0.999756 -0.00317124 7.57861e-18)
(0.999775 -0.000464417 -9.10323e-19)
(0.251819 -0.56036 -1.19114e-19)
(0.348545 -0.494716 -6.94218e-19)
(0.430405 -0.438681 1.04441e-18)
(0.499799 -0.390633 1.20095e-18)
(0.559492 -0.349325 5.64036e-19)
(0.610781 -0.313577 -1.61957e-18)
(0.655503 -0.282525 -1.11788e-19)
(0.694341 -0.255364 4.66956e-19)
(0.728592 -0.23152 1.39491e-18)
(0.758589 -0.210452 1.67953e-18)
(0.785298 -0.191779 -1.08121e-18)
(0.808846 -0.175132 -1.16268e-18)
(0.829987 -0.160248 1.39237e-19)
(0.84872 -0.146872 -1.7134e-18)
(0.865658 -0.134815 8.36959e-19)
(0.88072 -0.123899 1.68433e-18)
(0.894422 -0.113983 -4.10326e-19)
(0.906628 -0.104941 9.76058e-19)
(0.917789 -0.0966646 2.02165e-18)
(0.927732 -0.0890662 1.1431e-18)
(0.936861 -0.0820567 1.07702e-18)
(0.944976 -0.075578 2.69227e-19)
(0.952449 -0.0695536 8.588e-19)
(0.95906 -0.0639471 -1.62232e-18)
(0.965157 -0.0586897 -1.74304e-18)
(0.970507 -0.0537619 4.62753e-18)
(0.975438 -0.0490987 2.56974e-19)
(0.979707 -0.0446938 -2.39101e-18)
(0.98363 -0.0404835 -7.01119e-18)
(0.986952 -0.0364711 -2.03474e-18)
(0.989983 -0.0325919 -5.2508e-19)
(0.992458 -0.0288562 9.25393e-19)
(0.994683 -0.0251951 -2.49745e-18)
(0.996382 -0.0216206 4.80778e-18)
(0.997859 -0.0180541 -3.55953e-18)
(0.998825 -0.014501 1.92234e-18)
(0.999586 -0.0108706 5.61061e-20)
(0.999843 -0.0072008 1.48613e-18)
(0.999968 -0.00357297 1.24288e-18)
(0.99983 -0.000598035 -3.18672e-18)
(0.290154 -0.610337 -1.0959e-18)
(0.382391 -0.538844 -6.37047e-19)
(0.460419 -0.477818 9.04977e-20)
(0.526528 -0.425493 -2.54316e-18)
(0.583397 -0.380507 -1.91937e-18)
(0.632242 -0.341577 1.01715e-18)
(0.674841 -0.307761 1.01912e-18)
(0.711822 -0.278182 3.4342e-18)
(0.744441 -0.252215 2.40407e-18)
(0.772997 -0.229271 -1.4825e-18)
(0.798428 -0.208935 -2.52658e-18)
(0.820835 -0.190804 -7.58928e-19)
(0.840956 -0.174594 -6.23952e-19)
(0.858771 -0.160025 6.59573e-19)
(0.874882 -0.146893 2.2172e-18)
(0.889193 -0.135002 1.84238e-18)
(0.902213 -0.1242 5.21758e-19)
(0.913795 -0.11435 3.11739e-18)
(0.924384 -0.105332 3.43764e-18)
(0.9338 -0.0970524 -2.59574e-19)
(0.942442 -0.0894133 -1.63773e-18)
(0.950105 -0.0823515 -1.34064e-18)
(0.957157 -0.0757836 1.61765e-18)
(0.963375 -0.0696701 -4.08612e-20)
(0.969102 -0.0639357 -2.48319e-18)
(0.974103 -0.0585597 1.33811e-18)
(0.978705 -0.0534709 -1.84169e-18)
(0.982661 -0.0486632 1.67127e-18)
(0.986286 -0.0440666 -7.01502e-18)
(0.989325 -0.0396865 -5.91958e-18)
(0.992084 -0.0354517 -1.68449e-18)
(0.994299 -0.031376 -8.13575e-20)
(0.996273 -0.0273838 1.17964e-18)
(0.997733 -0.0234928 3.18689e-18)
(0.99898 -0.0196163 -3.99184e-18)
(0.999723 -0.0157672 3.5281e-18)
(1.00027 -0.0118434 4.18363e-19)
(1.00031 -0.00789155 -1.46747e-18)
(1.00022 -0.00398044 2.14632e-18)
(0.9999 -0.000741006 -1.77064e-18)
(0.331676 -0.657699 3.53678e-18)
(0.41905 -0.580663 2.25756e-18)
(0.492929 -0.514908 1.10938e-18)
(0.55548 -0.458528 3.12569e-19)
(0.60929 -0.410058 -1.49458e-18)
(0.655488 -0.368112 8.53113e-19)
(0.695787 -0.331676 1.2568e-18)
(0.730757 -0.299806 3.21509e-19)
(0.76161 -0.271827 -8.12538e-19)
(0.788604 -0.247106 1.88939e-18)
(0.81265 -0.225193 2.64317e-19)
(0.833823 -0.205657 3.39656e-19)
(0.852838 -0.188189 -2.29954e-18)
(0.86966 -0.17249 -1.17997e-18)
(0.884874 -0.158338 9.67263e-19)
(0.898372 -0.145524 -1.14976e-18)
(0.910652 -0.133882 -1.23602e-18)
(0.921558 -0.123265 -1.07062e-18)
(0.931528 -0.113545 3.89167e-19)
(0.940374 -0.104619 1.18283e-18)
(0.948489 -0.0963826 -1.82888e-18)
(0.955664 -0.0887679 -1.45768e-18)
(0.96226 -0.0816844 2.47938e-18)
(0.968053 -0.07509 2.73752e-18)
(0.973381 -0.0689032 -7.18828e-19)
(0.978007 -0.0631022 5.2067e-18)
(0.982253 -0.0576098 -1.46707e-18)
(0.985873 -0.0524203 4.57059e-19)
(0.989177 -0.047458 -6.10857e-19)
(0.991911 -0.04273 1.91415e-18)
(0.994378 -0.0381591 -1.99389e-18)
(0.996315 -0.0337628 -1.2058e-18)
(0.998022 -0.029459 5.13973e-18)
(0.999225 -0.0252708 5.39324e-18)
(1.00022 -0.0211039 -4.44745e-18)
(1.00073 -0.0169778 -2.80645e-19)
(1.00103 -0.0127798 1.06965e-18)
(1.00084 -0.00856296 -2.6051e-18)
(1.00052 -0.0043835 -7.26034e-18)
(0.999985 -0.000886372 -1.63219e-18)
(0.376206 -0.702244 3.39947e-18)
(0.458366 -0.619994 2.36743e-18)
(0.527794 -0.549791 1.14242e-18)
(0.58653 -0.489599 6.54256e-19)
(0.637061 -0.437851 2.83408e-19)
(0.68042 -0.393069 -1.46451e-18)
(0.718253 -0.35417 2.16709e-18)
(0.751065 -0.320144 1.23551e-18)
(0.780023 -0.290273 -2.3181e-20)
(0.805343 -0.26388 1.642e-18)
(0.827904 -0.240484 3.09151e-19)
(0.847752 -0.219626 -3.01934e-18)
(0.865583 -0.200975 -5.36429e-19)
(0.881338 -0.184213 -2.03033e-18)
(0.895591 -0.169102 -1.63157e-18)
(0.908217 -0.155419 -1.64456e-18)
(0.919704 -0.142987 7.69263e-19)
(0.929886 -0.131649 1.74575e-18)
(0.939192 -0.121267 2.05394e-18)
(0.947427 -0.111734 -2.40811e-18)
(0.954978 -0.102935 -9.67001e-19)
(0.961629 -0.0948002 -1.06959e-18)
(0.967738 -0.0872315 -1.8627e-18)
(0.973076 -0.0801845 1.16901e-18)
(0.977977 -0.073572 1.27105e-18)
(0.982202 -0.067371 5.1807e-18)
(0.986068 -0.0614989 -7.018e-20)
(0.98933 -0.0559505 2.37766e-18)
(0.992293 -0.0506445 2.08691e-18)
(0.994703 -0.04559 -1.29908e-18)
(0.996858 -0.0407041 1.01518e-18)
(0.998499 -0.0360077 -8.19635e-19)
(0.99992 -0.0314126 -7.56753e-19)
(1.00085 -0.0269471 5.39808e-18)
(1.00158 -0.0225097 7.63927e-18)
(1.00183 -0.0181258 -1.22701e-18)
(1.00187 -0.0136722 4.20814e-19)
(1.00143 -0.00920713 -2.78042e-18)
(1.00085 -0.00477457 4.49415e-18)
(1.00008 -0.00102939 -2.81417e-19)
(0.423554 -0.74378 -2.08409e-19)
(0.50017 -0.656669 1.64506e-18)
(0.564867 -0.582318 1.01975e-18)
(0.619547 -0.518571 1.00628e-18)
(0.666589 -0.463767 3.51672e-18)
(0.706931 -0.416341 7.38343e-19)
(0.742142 -0.375144 1.20787e-18)
(0.772659 -0.339109 5.40033e-19)
(0.799603 -0.307473 -2.4464e-18)
(0.823142 -0.279521 -9.13358e-19)
(0.844125 -0.254743 -3.85338e-19)
(0.862564 -0.232652 -1.53e-19)
(0.879135 -0.212898 -5.90834e-19)
(0.893757 -0.195144 -3.92295e-19)
(0.906987 -0.179139 -4.40129e-19)
(0.918687 -0.164645 3.8353e-18)
(0.929331 -0.151476 -2.44986e-19)
(0.938744 -0.139465 5.54295e-18)
(0.947344 -0.128467 4.11925e-18)
(0.95493 -0.118366 1.79034e-18)
(0.96188 -0.109043 7.06041e-19)
(0.967977 -0.100423 -3.75589e-19)
(0.973568 -0.0924013 -1.7467e-18)
(0.978424 -0.084932 2.23786e-18)
(0.982871 -0.0779221 1.91087e-19)
(0.986671 -0.0713481 -2.16128e-18)
(0.990135 -0.065122 3.4792e-18)
(0.993018 -0.0592392 -1.11361e-18)
(0.995619 -0.0536131 3.27856e-19)
(0.997686 -0.0482547 -1.89481e-18)
(0.999513 -0.043076 -6.69419e-19)
(1.00084 -0.038101 -3.11798e-18)
(1.00196 -0.033236 4.36264e-18)
(1.0026 -0.0285138 3.62549e-18)
(1.00305 -0.0238261 1.93665e-18)
(1.00302 -0.0192034 6.25788e-18)
(1.00279 -0.014513 -3.24352e-18)
(1.00207 -0.00981654 5.71588e-19)
(1.00121 -0.00514689 -5.46484e-18)
(1.00019 -0.00116625 -6.73491e-18)
(0.473518 -0.782131 3.60552e-19)
(0.544284 -0.690531 1.60332e-18)
(0.603988 -0.61235 7.63541e-19)
(0.654387 -0.545321 1.51751e-18)
(0.69775 -0.487695 2.23873e-18)
(0.734907 -0.437828 1.90023e-18)
(0.767351 -0.39451 7.89014e-19)
(0.795448 -0.356619 -9.53938e-19)
(0.820266 -0.323355 -3.36179e-18)
(0.841926 -0.293962 5.87443e-19)
(0.861242 -0.267908 -1.02236e-18)
(0.878196 -0.244678 -8.12115e-19)
(0.893437 -0.223907 -5.13942e-18)
(0.906864 -0.205237 -2.7097e-18)
(0.919015 -0.188405 -2.33953e-18)
(0.929736 -0.173163 -4.32609e-19)
(0.939491 -0.159313 -2.01472e-19)
(0.948092 -0.146681 -7.46221e-19)
(0.955948 -0.135113 -7.6684e-20)
(0.96285 -0.124488 -2.46347e-18)
(0.969168 -0.114681 2.61936e-18)
(0.974679 -0.105612 6.81971e-19)
(0.979725 -0.0971723 1.72711e-18)
(0.984072 -0.0893129 6.99712e-19)
(0.988043 -0.0819361 -8.28187e-20)
(0.991396 -0.0750176 -9.0788e-19)
(0.994437 -0.0684647 6.60275e-19)
(0.99692 -0.0622733 -1.61195e-18)
(0.999141 -0.0563521 2.80972e-18)
(1.00085 -0.0507139 2.73787e-18)
(1.00233 -0.0452657 1.4094e-18)
(1.00333 -0.0400346 -1.14798e-20)
(1.00413 -0.0349217 1.67954e-18)
(1.00446 -0.0299639 -3.9729e-18)
(1.00461 -0.0250467 -2.1722e-20)
(1.00429 -0.0202046 -1.85961e-18)
(1.00377 -0.0152963 -5.63053e-18)
(1.00276 -0.0103858 -2.40702e-18)
(1.0016 -0.0054961 -5.75578e-18)
(1.0003 -0.00129485 -1.58648e-18)
(0.525882 -0.817131 3.27499e-18)
(0.590518 -0.721434 2.15063e-18)
(0.64499 -0.639759 6.74097e-20)
(0.690903 -0.569733 2.11364e-18)
(0.730409 -0.509533 1.44293e-18)
(0.764228 -0.457437 3.61044e-18)
(0.793772 -0.412184 2.59696e-18)
(0.819332 -0.3726 1.50043e-18)
(0.841923 -0.337848 -4.36829e-21)
(0.861614 -0.307142 9.87233e-19)
(0.879184 -0.279922 -7.28769e-19)
(0.89458 -0.255654 1.01627e-18)
(0.908428 -0.233953 1.1288e-18)
(0.920601 -0.214447 -5.03092e-19)
(0.931622 -0.196862 -1.94783e-18)
(0.941319 -0.180936 -4.10897e-18)
(0.950142 -0.166465 -3.76137e-18)
(0.957892 -0.153265 -3.76418e-19)
(0.964969 -0.141177 -6.22965e-18)
(0.971154 -0.130074 -1.13755e-18)
(0.976809 -0.119825 2.48406e-18)
(0.981707 -0.110346 -3.23093e-19)
(0.986183 -0.101524 -6.90296e-19)
(0.989999 -0.0933086 -8.89746e-19)
(0.99347 -0.0855968 -5.27503e-19)
(0.996355 -0.0783639 -2.55191e-18)
(0.998955 -0.0715129 1.50547e-18)
(1.00102 -0.0650401 -9.44125e-19)
(1.00285 -0.0588499 1.87793e-18)
(1.00418 -0.052957 1.8675e-18)
(1.0053 -0.0472636 5.22734e-18)
(1.00595 -0.0417997 4.40012e-19)
(1.00642 -0.0364617 -5.48585e-19)
(1.00643 -0.0312899 -6.6019e-18)
(1.00627 -0.0261643 4.71089e-18)
(1.00564 -0.0211228 -8.07874e-18)
(1.00481 -0.016016 -1.45495e-18)
(1.00348 -0.0109098 1.34864e-18)
(1.00201 -0.00581814 -9.59222e-19)
(1.00042 -0.00141336 2.68312e-18)
(0.580424 -0.848632 2.97021e-18)
(0.638674 -0.749248 3.05859e-18)
(0.687696 -0.664427 -9.65058e-19)
(0.728938 -0.591705 2.73393e-18)
(0.764427 -0.529187 1.53555e-18)
(0.794769 -0.475086 1.30645e-18)
(0.821293 -0.42809 1.08907e-18)
(0.844211 -0.386982 6.26595e-19)
(0.864481 -0.350893 -1.38783e-18)
(0.882121 -0.319004 2.82475e-18)
(0.897872 -0.290736 1.49739e-18)
(0.911646 -0.265532 7.09553e-20)
(0.924043 -0.242994 -2.65216e-18)
(0.934911 -0.222736 -5.97703e-18)
(0.944754 -0.204472 -1.3305e-18)
(0.953385 -0.187932 1.29873e-18)
(0.961238 -0.172901 1.2706e-18)
(0.968102 -0.159191 -1.35948e-18)
(0.974367 -0.146634 -2.47066e-18)
(0.979806 -0.1351 6.33253e-19)
(0.984773 -0.124453 2.64517e-20)
(0.989033 -0.114605 -3.19787e-18)
(0.992914 -0.105439 -3.67401e-18)
(0.996177 -0.0969027 -3.66045e-18)
(0.99913 -0.0888895 8.08671e-19)
(1.00153 -0.0813736 -2.89539e-18)
(1.00367 -0.0742544 1.4833e-19)
(1.0053 -0.0675286 3.0094e-18)
(1.00671 -0.0610968 4.7116e-18)
(1.00765 -0.054975 -1.62016e-18)
(1.0084 -0.0490617 3.59648e-18)
(1.00869 -0.0433891 -1.64086e-18)
(1.00881 -0.0378494 3.75993e-18)
(1.0085 -0.0324858 3.87063e-18)
(1.008 -0.0271736 4.72669e-18)
(1.00706 -0.021953 -5.56809e-18)
(1.0059 -0.016668 4.81744e-18)
(1.00425 -0.011385 -7.01406e-18)
(1.00244 -0.00611085 -5.16964e-18)
(1.00055 -0.00152117 2.22393e-18)
(0.63691 -0.876498 3.56938e-18)
(0.688546 -0.773852 7.2333e-19)
(0.731925 -0.686248 1.27737e-19)
(0.768328 -0.611141 4.12611e-18)
(0.799657 -0.546573 1.43909e-18)
(0.8264 -0.490697 -9.44923e-19)
(0.849795 -0.442161 -2.03523e-18)
(0.869976 -0.399705 5.06479e-19)
(0.887843 -0.362432 1.48542e-18)
(0.90336 -0.329497 3.61836e-19)
(0.917227 -0.300301 2.36786e-18)
(0.929322 -0.27427 1.44609e-20)
(0.940215 -0.250992 1.02702e-18)
(0.949732 -0.230068 1.36296e-18)
(0.958357 -0.211204 3.8862e-18)
(0.965882 -0.194119 1.25339e-18)
(0.972731 -0.178593 1.00537e-18)
(0.978678 -0.164431 1.88735e-19)
(0.984103 -0.15146 1.34242e-18)
(0.988769 -0.139544 -2.56987e-18)
(0.993023 -0.128544 -2.68547e-19)
(0.996623 -0.11837 -9.79409e-19)
(0.999891 -0.1089 -2.14881e-19)
(1.00258 -0.10008 -4.22039e-18)
(1.005 -0.0917999 1.36816e-18)
(1.00689 -0.0840338 -2.53466e-18)
(1.00856 -0.0766773 -2.13424e-18)
(1.00974 -0.069728 6.38091e-19)
(1.01073 -0.0630827 1.28726e-18)
(1.01126 -0.0567589 -4.91278e-19)
(1.01162 -0.0506516 -2.84199e-18)
(1.01155 -0.0447951 1.26637e-18)
(1.0113 -0.0390778 -3.06754e-18)
(1.01064 -0.0335454 -1.50695e-18)
(1.00981 -0.0280687 4.67093e-18)
(1.00853 -0.0226902 7.07815e-18)
(1.00703 -0.0172477 7.25659e-18)
(1.00504 -0.011808 1.89757e-18)
(1.00289 -0.00637183 -4.00083e-18)
(1.00068 -0.00161742 -1.39973e-19)
(0.695097 -0.90061 3.26267e-18)
(0.739922 -0.795141 1.35751e-18)
(0.777487 -0.705129 1.60998e-18)
(0.808906 -0.627958 1.74959e-18)
(0.83595 -0.561616 -2.07677e-18)
(0.858983 -0.504206 -1.96921e-18)
(0.879157 -0.454336 1.57056e-19)
(0.896519 -0.410714 1.00617e-18)
(0.911911 -0.372416 2.43515e-19)
(0.925239 -0.338576 1.77324e-18)
(0.937167 -0.308578 2.30094e-18)
(0.947531 -0.281831 -1.7372e-18)
(0.956876 -0.257912 1.64571e-18)
(0.965001 -0.236413 4.85217e-19)
(0.97237 -0.217028 -1.65969e-18)
(0.978757 -0.199472 1.56869e-21)
(0.984572 -0.183518 1.45795e-18)
(0.989575 -0.168964 5.31897e-19)
(0.994135 -0.155634 1.97548e-18)
(0.998006 -0.143389 -3.63298e-18)
(1.00153 -0.132084 1.49567e-18)
(1.00445 -0.121627 -4.23401e-20)
(1.00708 -0.111893 -2.48764e-19)
(1.00918 -0.102827 1.29811e-18)
(1.01105 -0.0943163 2.90106e-18)
(1.01243 -0.0863337 1.59754e-18)
(1.0136 -0.0787721 3.15802e-19)
(1.01433 -0.0716295 3.98934e-19)
(1.01487 -0.0647998 1.13086e-18)
(1.01499 -0.0583017 2.0491e-18)
(1.01495 -0.0520271 -1.12213e-18)
(1.01449 -0.046012 -3.26701e-18)
(1.01388 -0.0401416 -1.1261e-18)
(1.01286 -0.0344637 3.61342e-18)
(1.01167 -0.0288454 -8.38615e-18)
(1.01005 -0.0233307 -9.21478e-18)
(1.0082 -0.0177522 5.00807e-18)
(1.00586 -0.012177 -2.90226e-18)
(1.00335 -0.00660023 -9.2301e-19)
(1.00082 -0.00170218 3.02794e-19)
(0.754738 -0.920866 2.72272e-18)
(0.79258 -0.813024 2.40268e-18)
(0.824187 -0.720989 6.20203e-19)
(0.850497 -0.642085 1.56748e-18)
(0.873149 -0.574252 1.54961e-18)
(0.892381 -0.515553 -5.03602e-19)
(0.909252 -0.464563 -6.46876e-19)
(0.923725 -0.419961 5.61864e-19)
(0.936579 -0.380803 1.45398e-18)
(0.947665 -0.346202 2.1546e-18)
(0.957605 -0.31553 1.48745e-18)
(0.966195 -0.288182 2.99552e-18)
(0.973954 -0.263725 1.59545e-18)
(0.980652 -0.241741 -3.11417e-18)
(0.986734 -0.22192 -2.92206e-18)
(0.991956 -0.203968 -1.45407e-18)
(0.99671 -0.187654 -3.63332e-18)
(1.00075 -0.172771 -6.38886e-19)
(1.00442 -0.15914 1.1857e-18)
(1.00748 -0.146617 1.52037e-18)
(1.01024 -0.135055 1.08406e-18)
(1.01247 -0.124361 6.16676e-20)
(1.01446 -0.114405 -2.00587e-18)
(1.01596 -0.105133 -7.04366e-19)
(1.01726 -0.0964279 -8.55615e-20)
(1.01811 -0.0882633 -1.37672e-18)
(1.01878 -0.0805295 1.73917e-18)
(1.01903 -0.0732246 -6.60899e-19)
(1.01913 -0.0662403 1.02125e-18)
(1.01882 -0.0595961 -6.92669e-18)
(1.01836 -0.0531814 -8.61265e-19)
(1.01752 -0.0470336 2.41745e-18)
(1.01652 -0.0410353 -4.00123e-18)
(1.01514 -0.0352358 -3.55784e-18)
(1.01359 -0.0294992 -4.71937e-18)
(1.01161 -0.0238705 6.45656e-20)
(1.0094 -0.0181783 -2.59695e-18)
(1.0067 -0.0124894 -3.45086e-18)
(1.00383 -0.00679458 2.35709e-18)
(1.00096 -0.00177501 3.28755e-18)
(0.815576 -0.937177 -1.27236e-19)
(0.846296 -0.827426 -1.05613e-18)
(0.871824 -0.733761 -2.97655e-19)
(0.892923 -0.65346 1.72904e-18)
(0.911095 -0.584428 -6.47065e-19)
(0.92645 -0.52469 2.73925e-19)
(0.939952 -0.472798 -2.17371e-18)
(0.951478 -0.427407 -1.5116e-18)
(0.961744 -0.387557 1.19817e-18)
(0.970543 -0.352344 3.53872e-18)
(0.978454 -0.321128 3.16957e-18)
(0.985235 -0.293296 -3.49639e-19)
(0.991376 -0.268406 -3.1841e-18)
(0.996619 -0.246032 -3.2102e-18)
(1.00139 -0.225859 -2.16919e-18)
(1.00542 -0.207589 2.71179e-18)
(1.00909 -0.190984 1.24784e-18)
(1.01214 -0.175836 -1.3414e-18)
(1.01491 -0.161961 1.67077e-18)
(1.01714 -0.149215 9.95114e-19)
(1.01914 -0.137446 1.67221e-18)
(1.02066 -0.12656 1.35152e-18)
(1.02198 -0.116426 -7.51599e-18)
(1.02287 -0.106988 -2.6181e-18)
(1.02359 -0.0981261 6.663e-18)
(1.0239 -0.089815 -1.17525e-18)
(1.02407 -0.0819425 1.44959e-18)
(1.02384 -0.0745071 2.08792e-18)
(1.02347 -0.0673985 -4.43786e-18)
(1.02273 -0.0606369 -1.84738e-18)
(1.02186 -0.0541098 9.62231e-19)
(1.02061 -0.0478557 4.86109e-18)
(1.01923 -0.041755 1.68724e-18)
(1.01747 -0.0358583 6.61006e-18)
(1.01554 -0.0300272 6.89888e-18)
(1.0132 -0.0243075 2.10188e-18)
(1.01063 -0.0185244 3.47967e-18)
(1.00756 -0.0127445 1.76611e-18)
(1.00431 -0.00695479 -5.22911e-18)
(1.0011 -0.00183627 2.09837e-18)
(0.877351 -0.949475 -2.81082e-19)
(0.900839 -0.838283 -9.47667e-19)
(0.920196 -0.74339 -2.96275e-20)
(0.936003 -0.662036 5.33867e-20)
(0.949625 -0.592099 -2.36078e-18)
(0.961043 -0.531578 -9.1827e-19)
(0.971125 -0.479006 -2.77688e-19)
(0.979658 -0.433021 -1.51146e-18)
(0.987297 -0.392648 -6.41233e-19)
(0.993773 -0.356973 1.71239e-20)
(0.999624 -0.325348 2.05576e-19)
(1.00457 -0.297151 -4.0434e-18)
(1.00907 -0.271934 -3.43798e-18)
(1.01283 -0.249266 2.3293e-18)
(1.01627 -0.228828 -9.60905e-19)
(1.01909 -0.210317 1.05667e-18)
(1.02167 -0.193493 5.712e-19)
(1.02372 -0.178146 7.93087e-19)
(1.02557 -0.164087 5.33842e-18)
(1.02695 -0.151172 8.68782e-20)
(1.02818 -0.139247 4.07706e-18)
(1.02897 -0.128216 3.75113e-18)
(1.02963 -0.117948 -4.96529e-18)
(1.02989 -0.108383 -3.40935e-18)
(1.03003 -0.0994035 1.11218e-18)
(1.02979 -0.0909818 -3.14044e-18)
(1.02944 -0.0830046 3.49053e-18)