/*--------------------------------*- C++ -*----------------------------------*\
| =========                 |                                                 |
| \\      /  F ield         | foam-extend: Open Source CFD                    |
|  \\    /   O peration     | Version:  3.0                                   |
|   \\  /    A nd           | Web:         http://www.extend-project.de       |
|    \\/     M anipulation  |                                                 |
\*---------------------------------------------------------------------------*/
FoamFile
{
    version     2.0;
    format      ascii;
    class       volVectorField;
    location    "6.4";
    object      u;
}
// * * * * * * * * * * * * * * * * * * * * * * * * * * * * * * * * * * * * * //

dimensions      [0 0 0 0 0 0 0];

internalField   nonuniform List<vector> 
400
(
(-0.95073 2.54399 2.19727e-315)
(-1.0585 1.77929 1.95063e-315)
(-2.40277 1.94739 1.71011e-315)
(-2.61584 1.2861 1.54862e-315)
(-3.4402 1.36311 1.32995e-315)
(-3.67929 0.969101 1.22881e-315)
(-4.14903 0.973914 1.03129e-315)
(-4.34115 0.717844 9.70706e-316)
(-4.55254 0.706345 7.94135e-316)
(-4.65937 0.487976 7.6098e-316)
(-4.64937 0.459921 6.0407e-316)
(-4.63346 0.22184 5.89413e-316)
(-4.40299 0.16391 4.51037e-316)
(-4.22373 -0.131656 4.47032e-316)
(-3.75029 -0.193782 3.2913e-316)
(-3.39985 -0.594673 3.26761e-316)
(-2.63441 -0.556762 2.36267e-316)
(-2.20655 -1.13492 2.25614e-316)
(-1.06349 -0.92967 1.71396e-316)
(-0.750359 -1.53976 1.40665e-316)
(-0.122734 0.788859 1.32911e-315)
(-0.726493 0.656829 1.24174e-315)
(-1.09493 0.664615 1.1311e-315)
(-1.45179 0.466621 1.06393e-315)
(-1.85977 0.424067 9.5395e-316)
(-2.06996 0.231618 9.00317e-316)
(-2.38052 0.140089 7.93585e-316)
(-2.50222 -0.0297025 7.49726e-316)
(-2.65655 -0.165822 6.48233e-316)
(-2.70032 -0.312125 6.12684e-316)
(-2.68577 -0.491853 5.18372e-316)
(-2.6431 -0.617968 4.90117e-316)
(-2.4706 -0.834678 4.04611e-316)
(-2.32443 -0.942047 3.81452e-316)
(-2.03037 -1.1674 3.0667e-316)
(-1.74967 -1.25182 2.83879e-316)
(-1.41952 -1.4193 2.22323e-316)
(-0.942194 -1.46685 1.92222e-316)
(-0.734208 -1.47502 1.44529e-316)
(-0.00124432 -1.43878 9.88138e-317)
(-0.348656 3.65169 1.00079e-315)
(-0.862252 3.13801 9.70323e-316)
(-1.38199 2.92831 9.03953e-316)
(-1.70296 2.36784 8.60117e-316)
(-2.09217 2.21359 7.79174e-316)
(-2.30424 1.69412 7.3432e-316)
(-2.56029 1.55621 6.49393e-316)
(-2.71976 1.07795 6.09143e-316)
(-2.83545 0.938915 5.26244e-316)
(-2.95691 0.478146 4.91839e-316)
(-2.92873 0.308967 4.13745e-316)
(-2.98719 -0.15249 3.84592e-316)
(-2.81863 -0.377366 3.12528e-316)
(-2.75234 -0.836314 2.87066e-316)
(-2.46611 -1.11234 2.22853e-316)
(-2.18248 -1.53883 1.99749e-316)
(-1.84249 -1.80972 1.48111e-316)
(-1.24659 -2.1589 1.31451e-316)
(-0.968154 -2.34592 1.02461e-316)
(-0.0645373 -2.58438 1.19073e-316)
(-0.0794256 2.62405 2.86988e-316)
(-0.426578 2.2439 4.08983e-316)
(-0.634264 1.96511 4.49875e-316)
(-0.799841 1.57136 4.93006e-316)
(-1.01547 1.36242 4.89533e-316)
(-1.08259 0.968369 4.92773e-316)
(-1.24627 0.793958 4.64874e-316)
(-1.28966 0.41243 4.49195e-316)
(-1.36841 0.217069 4.09415e-316)
(-1.42011 -0.146346 3.86152e-316)
(-1.40128 -0.420128 3.425e-316)
(-1.46186 -0.75929 3.17925e-316)
(-1.34526 -1.15938 2.75553e-316)
(-1.38304 -1.44779 2.5319e-316)
(-1.18788 -1.99092 2.15618e-316)
(-1.12066 -2.16344 1.97382e-316)
(-0.914933 -2.78545 1.6696e-316)
(-0.59824 -2.75074 1.53417e-316)
(-0.53682 -3.20506 1.30987e-316)
(0.123094 -2.94869 1.17739e-316)
(-0.379236 4.22191 2.41363e-316)
(-0.526681 3.79648 3.50308e-316)
(-1.06776 3.34273 3.87177e-316)
(-1.11832 2.81056 4.17108e-316)
(-1.47488 2.52089 4.13737e-316)
(-1.54241 1.94501 4.10517e-316)
(-1.74483 1.77257 3.86144e-316)
(-1.87888 1.19161 3.68994e-316)
(-1.94912 1.06019 3.34685e-316)
(-2.15648 0.479711 3.11488e-316)
(-2.1015 0.316149 2.72788e-316)
(-2.35521 -0.263864 2.46433e-316)
(-2.16678 -0.530069 2.05443e-316)
(-2.39669 -1.07889 1.75616e-316)
(-2.06277 -1.51218 1.32097e-316)
(-2.13595 -1.93174 9.53085e-317)
(-1.67464 -2.5576 4.66853e-317)
(-1.39538 -2.68181 -5.07971e-318)
(-0.913754 -3.33981 -6.5591e-317)
(-0.156233 -3.12155 -1.51037e-316)
(-0.450243 3.82898 -1.8157e-316)
(-0.150933 3.18301 6.6221e-318)
(-0.711293 2.77175 1.04961e-316)
(-0.443116 2.14221 1.89202e-316)
(-0.757705 1.94767 2.30033e-316)
(-0.596128 1.35222 2.60412e-316)
(-0.757685 1.25902 2.67199e-316)
(-0.716338 0.70261 2.69659e-316)
(-0.776777 0.600006 2.57956e-316)
(-0.861015 0.0695216 2.46897e-316)
(-0.834699 -0.144071 2.26642e-316)
(-1.0502 -0.662061 2.10431e-316)
(-0.914751 -1.09093 1.87998e-316)
(-1.25761 -1.57431 1.7194e-316)
(-0.954448 -2.31712 1.51619e-316)
(-1.38455 -2.65976 1.39439e-316)
(-0.835431 -3.73484 1.23919e-316)
(-1.23614 -3.72583 1.17211e-316)
(-0.392391 -4.79738 1.07196e-316)
(-0.560972 -4.31046 9.99168e-317)
(-0.651401 4.89006 -5.32119e-319)
(-0.148429 4.05136 1.10081e-316)
(-0.941907 3.63927 1.66382e-316)
(-0.603702 2.8114 2.07779e-316)
(-1.01611 2.65542 2.276e-316)
(-0.920336 1.8987 2.38041e-316)
(-1.09892 1.87517 2.36498e-316)
(-1.21989 1.17794 2.31461e-316)
(-1.2538 1.19874 2.17966e-316)
(-1.57149 0.520466 2.04332e-316)
(-1.4889 0.510725 1.83956e-316)
(-1.99295 -0.19354 1.64694e-316)
(-1.7601 -0.318274 1.39459e-316)
(-2.42228 -1.06154 1.14534e-316)
(-1.93791 -1.41104 8.38329e-317)
(-2.66537 -2.11735 4.95175e-317)
(-1.77085 -2.80675 9.67541e-318)
(-2.34919 -3.26892 -4.31953e-317)
(-0.898027 -4.22567 -1.00403e-316)
(-0.995168 -4.30697 -1.90312e-316)
(-0.593088 4.77216 -2.33565e-316)
(0.121494 3.54375 -8.47388e-317)
(-0.578431 3.31832 4.01211e-318)
(-0.0492739 2.25008 7.84782e-317)
(-0.380464 2.33052 1.21952e-316)
(-0.0923482 1.4646 1.53496e-316)
(-0.220698 1.61849 1.68085e-316)
(-0.13684 0.89344 1.75431e-316)
(-0.166798 1.01722 1.73368e-316)
(-0.275046 0.349458 1.68181e-316)
(-0.240472 0.353173 1.57881e-316)
(-0.568157 -0.342626 1.47545e-316)
(-0.42286 -0.583012 1.34894e-316)
(-1.03217 -1.3628 1.24828e-316)
(-0.622116 -2.01963 1.14597e-316)
(-1.59189 -2.84258 1.09914e-316)
(-0.627519 -4.07469 1.06589e-316)
(-1.97915 -4.71239 1.12154e-316)
(-0.0799853 -6.32392 1.19827e-316)
(-1.5243 -6.4535 1.36518e-316)
(-0.54147 5.37267 3.25124e-317)
(0.181869 3.99301 8.27965e-317)
(-0.463657 3.78976 1.15831e-316)
(-0.0491276 2.55664 1.3794e-316)
(-0.32921 2.67232 1.53009e-316)
(-0.231843 1.69515 1.60415e-316)
(-0.299935 1.90093 1.62536e-316)
(-0.457103 1.09928 1.60442e-316)
(-0.421063 1.33182 1.53995e-316)
(-0.822843 0.587121 1.45403e-316)
(-0.718677 0.811993 1.33385e-316)
(-1.4061 -0.0086359 1.20146e-316)
(-1.17672 0.158075 1.04166e-316)
(-2.21171 -0.868895 8.64868e-317)
(-1.66294 -0.85663 6.65881e-317)
(-3.06293 -2.15917 4.21723e-317)
(-1.812 -2.47912 1.67171e-317)
(-3.39888 -3.9408 -1.93952e-317)
(-0.911748 -4.83724 -5.38707e-317)
(-2.04277 -6.12007 -1.05634e-316)
(-0.284531 5.1594 -1.27621e-316)
(0.269866 3.47888 -4.32146e-317)
(-0.0435453 3.5649 1.39008e-317)
(0.367484 2.12026 6.28684e-317)
(0.27399 2.52221 9.28927e-317)
(0.502822 1.43846 1.14869e-316)
(0.524773 1.85142 1.2569e-316)
(0.596063 1.01933 1.30857e-316)
(0.645667 1.39407 1.29984e-316)
(0.556873 0.655464 1.26191e-316)
(0.598485 0.955372 1.19513e-316)
(0.296361 0.128313 1.12305e-316)
(0.381319 0.253249 1.04613e-316)
(-0.25548 -0.860318 9.90128e-317)
(0.0800854 -1.12414 9.53819e-317)
(-1.10222 -2.67803 9.81482e-317)
(-0.0504655 -3.68576 1.05619e-316)
(-2.03648 -5.60451 1.28036e-316)
(0.461095 -7.64264 1.57304e-316)
(-2.1862 -9.41153 2.19845e-316)
(0.0421804 5.37284 1.28431e-316)
(0.38827 3.7267 1.18107e-316)
(0.392253 3.67617 1.23263e-316)
(0.485965 2.2215 1.2409e-316)
(0.579247 2.5287 1.28236e-316)
(0.504444 1.43687 1.28764e-316)
(0.659022 1.80673 1.28299e-316)
(0.442049 0.978519 1.25319e-316)
(0.592679 1.37354 1.20373e-316)
(0.190372 0.638081 1.13774e-316)
(0.306848 1.07101 1.05495e-316)
(-0.387316 0.209573 9.61322e-317)
(-0.250954 0.690515 8.56732e-317)
(-1.40361 -0.579442 7.39485e-317)
(-1.01951 -0.0699937 6.18744e-317)
(-2.81009 -2.06666 4.69254e-317)
(-1.6192 -1.67177 3.32609e-317)
(-4.00552 -4.52587 1.46062e-317)
(-0.993565 -4.86492 1.0615e-319)
(-3.01721 -7.92393 -1.00866e-317)
(0.257974 4.78754 -1.67168e-317)
(0.265704 3.17094 2.41287e-317)
(0.692866 3.47537 5.40531e-317)
(0.746619 1.94839 8.19436e-317)
(1.08293 2.49816 9.68148e-317)
(1.14322 1.35975 1.07861e-316)
(1.41116 1.89966 1.11702e-316)
(1.44978 1.0729 1.12268e-316)
(1.62432 1.61564 1.09319e-316)
(1.61502 0.909709 1.04589e-316)
(1.66908 1.47714 9.8474e-317)
(1.55919 0.632118 9.22226e-317)
(1.51306 1.18253 8.64249e-317)
(1.18635 -0.160439 8.28339e-317)
(1.20018 0.179512 8.19445e-317)
(0.405258 -2.12026 8.82855e-317)
(0.961142 -2.53284 9.9917e-317)
(-0.791684 -6.12744 1.31107e-316)
(1.23208 -8.4089 1.68591e-316)
(-1.92109 -12.9198 2.55501e-316)
(0.884326 4.90324 1.54321e-316)
(0.459946 3.32282 1.28659e-316)
(1.33032 3.25421 1.23315e-316)
(0.904524 1.86942 1.17149e-316)
(1.4747 2.18836 1.15362e-316)
(1.17657 1.15168 1.12285e-316)
(1.60546 1.55354 1.09585e-316)
(1.35986 0.805434 1.05673e-316)
(1.6487 1.25336 1.00979e-316)
(1.35101 0.622834 9.53487e-317)
(1.47783 1.15187 8.89855e-317)
(0.985334 0.37713 8.20234e-317)
(0.961216 1.04705 7.47439e-317)
(0.0421397 -0.277795 6.67782e-317)
(0.0194232 0.615908 5.88752e-317)
(-1.67737 -1.85725 4.90004e-317)
(-1.11603 -0.706014 3.96128e-317)
(-3.86146 -4.84051 2.63936e-317)
(-1.17034 -4.11487 1.39731e-317)
(-3.92466 -8.76917 5.18119e-318)
(0.687145 3.73092 5.01133e-317)
(0.236772 2.81806 9.98103e-317)
(1.40035 3.10364 1.09371e-316)
(1.15007 1.82037 1.21714e-316)
(1.94596 2.25911 1.20779e-316)
(1.85593 1.23887 1.20024e-316)
(2.39201 1.7328 1.15294e-316)
(2.41155 1.02342 1.09764e-316)
(2.72975 1.60534 1.02891e-316)
(2.84085 1.03498 9.55061e-317)
(2.92913 1.7572 8.7874e-317)
(3.12523 1.03887 8.05977e-317)
(2.94237 1.93475 7.41987e-317)
(3.20353 0.593498 6.99826e-317)
(2.73636 1.57747 6.8245e-317)
(2.96404 -1.19669 7.33239e-317)
(2.4135 -0.701207 8.22594e-317)
(2.17309 -6.01957 1.09455e-316)
(2.16867 -8.14397 1.38979e-316)
(0.151417 -16.7419 2.07313e-316)
(1.70685 4.15104 4.17087e-317)
(0.400142 2.75512 7.5274e-317)
(1.96076 2.55726 8.34075e-317)
(1.09516 1.45089 8.7817e-317)
(2.03573 1.66011 8.92096e-317)
(1.60234 0.819042 8.85673e-317)
(2.25268 1.14849 8.75526e-317)
(2.03728 0.567425 8.54057e-317)
(2.44381 0.959437 8.27289e-317)
(2.31443 0.507235 7.93258e-317)
(2.45984 0.989109 7.55045e-317)
(2.29747 0.423638 7.12806e-317)
(2.12563 1.06311 6.68879e-317)
(1.7198 -0.047969 6.19223e-317)
(1.20204 0.879959 5.65215e-317)
(0.101709 -1.54983 4.85876e-317)
(-0.385634 -0.0845334 3.8815e-317)
(-2.97925 -4.70224 2.082e-317)
(-1.39408 -2.80941 -1.15224e-318)
(-5.2207 -7.46367 -4.22066e-317)
(0.804588 2.27067 2.5597e-316)
(0.441809 2.62918 2.79276e-316)
(2.14817 2.57678 2.37265e-316)
(1.86177 1.73889 2.09601e-316)
(3.07023 1.86256 1.81657e-316)
(2.90893 1.05759 1.60956e-316)
(3.68994 1.39216 1.43151e-316)
(3.70202 0.864191 1.27781e-316)
(4.16094 1.37905 1.13798e-316)
(4.39879 1.00328 1.00707e-316)
(4.56523 1.73992 8.84468e-317)
(5.10714 1.25876 7.71466e-317)
(4.88648 2.31626 6.71106e-317)
(5.86981 1.23642 5.93161e-317)
(4.98201 2.70915 5.39211e-317)
(6.65493 -0.0662502 5.46616e-317)
(4.59872 1.53261 5.85379e-317)
(7.21867 -5.21659 7.71505e-317)
(3.19867 -6.26343 9.63474e-317)
(5.46894 -20.9003 1.3574e-316)
(2.2436 3.21811 -1.88593e-316)
(0.169771 1.84737 -8.24934e-317)
(1.80833 1.60755 -3.68301e-317)
(0.808609 0.845624 -5.983e-318)
(1.74521 0.969799 1.31146e-317)
(1.34869 0.415661 2.54688e-317)
(2.01628 0.634209 3.47365e-317)
(1.87523 0.2727 4.12124e-317)
(2.29901 0.526732 4.62071e-317)
(2.29973 0.277309 4.98588e-317)
(2.45339 0.577756 5.266e-317)
(2.53962 0.279728 5.47092e-317)
(2.32014 0.656662 5.61366e-317)
(2.37695 -0.00354586 5.64847e-317)
(1.5852 0.503999 5.5345e-317)
(1.2155 -1.16589 5.01329e-317)
(-0.0874902 -0.317805 4.07246e-317)
(-2.2793 -3.75709 1.74621e-317)
(-1.56215 -1.79628 -1.21138e-317)
(-8.34501 -2.43052 -7.98173e-317)
(0.627881 0.808405 1.03312e-315)
(1.24882 2.85242 7.12907e-316)
(3.61646 2.11493 5.2913e-316)
(3.55078 1.72023 3.95415e-316)
(5.34598 1.46757 3.19253e-316)
(5.11041 0.845877 2.63623e-316)
(6.20174 1.01729 2.24479e-316)
(6.17259 0.654052 1.91964e-316)
(6.80866 1.07019 1.64293e-316)
(7.18329 0.875346 1.39082e-316)
(7.51892 1.53995 1.15962e-316)
(8.49145 1.30939 9.46448e-317)
(8.44477 2.35439 7.54739e-317)
(10.3288 1.66445 5.93022e-317)
(9.34511 3.35801 4.65839e-317)
(12.7819 0.970253 4.07213e-317)
(9.16646 3.67447 3.92921e-317)
(15.682 -4.16551 5.18709e-317)
(4.9504 -2.17146 6.56301e-317)
(16.5752 -26.0903 9.45909e-317)
(2.29909 1.96742 -7.60985e-316)
(-0.295209 0.124353 -5.02456e-316)
(0.0426248 0.264435 -3.50183e-316)
(-0.665163 -0.139419 -2.43074e-316)
(-0.648202 0.0669497 -1.79195e-316)
(-0.776175 -0.0735442 -1.33438e-316)
(-0.622531 0.0240448 -1.00026e-316)
(-0.657432 -0.0654929 -7.30738e-317)
(-0.516128 -0.0362062 -5.03492e-317)
(-0.582196 -0.100334 -3.04364e-317)
(-0.561299 -0.126611 -1.26167e-317)
(-0.719079 -0.188191 3.41107e-318)
(-0.907855 -0.304642 1.75605e-317)
(-1.2533 -0.403785 2.92272e-317)
(-1.73487 -0.738487 3.75423e-317)
(-2.57243 -0.883495 3.93814e-317)
(-2.99402 -1.74479 3.49487e-317)
(-5.96262 -1.22119 1.34042e-317)
(-2.34451 -2.2825 -1.33671e-317)
(-16.4876 9.01037 -7.622e-317)
(-0.0417321 -0.252242 2.60834e-315)
(3.06234 3.95131 1.4403e-315)
(7.64321 2.20888 1.0174e-315)
(7.69829 1.99115 7.22829e-316)
(11.1417 1.44267 5.8724e-316)
(10.5316 0.771804 4.88005e-316)
(12.4536 0.890946 4.21087e-316)
(12.2511 0.552232 3.63676e-316)
(13.3756 0.96925 3.13892e-316)
(14.0253 0.853321 2.67472e-316)
(14.8234 1.53717 2.24224e-316)
(16.7346 1.43977 1.8383e-316)
(17.2499 2.53332 1.47168e-316)
(21.0425 2.04878 1.15463e-316)
(20.4788 3.91446 8.97877e-317)
(27.2312 1.62735 7.37351e-317)
(22.0923 5.33301 6.41396e-317)
(34.3527 -4.29904 6.90107e-317)
(11.8988 3.77183 7.12034e-317)
(37.5731 -34.6333 8.22542e-317)
)
;

boundaryField
{
    cavity
    {
        type            myImplicitVelocity;
    }
    lid
    {
        type            fixedValue;
        value           uniform (1 0 0);
    }
    frontAndBack
    {
        type            empty;
    }
}


// ************************************************************************* //
