/*--------------------------------*- C++ -*----------------------------------*\
| =========                 |                                                 |
| \\      /  F ield         | foam-extend: Open Source CFD                    |
|  \\    /   O peration     | Version:  3.0                                   |
|   \\  /    A nd           | Web:         http://www.extend-project.de       |
|    \\/     M anipulation  |                                                 |
\*---------------------------------------------------------------------------*/
FoamFile
{
    version     2.0;
    format      ascii;
    class       volScalarField;
    location    "29";
    object      p;
}
// * * * * * * * * * * * * * * * * * * * * * * * * * * * * * * * * * * * * * //

dimensions      [0 0 0 0 0 0 0];

internalField   nonuniform List<scalar> 
168
(
-0.255155
-0.194986
-0.197808
-0.178727
-0.187949
-0.178809
-0.242367
-0.185209
-0.187891
-0.169763
-0.178522
-0.169836
-0.217401
-0.166129
-0.168535
-0.152274
-0.160128
-0.152332
-0.181568
-0.138743
-0.140754
-0.127165
-0.133727
-0.127213
-0.136592
-0.104375
-0.105886
-0.0956645
-0.100595
-0.0956892
-0.0848102
-0.064801
-0.0657437
-0.059388
-0.062454
-0.059406
-0.0287318
-0.0219517
-0.0222706
-0.0201173
-0.0211512
-0.0201093
0.0287454
0.021974
0.0222868
0.0201449
0.0211818
0.0201554
0.0848208
0.064817
0.0657526
0.0594063
0.062469
0.0594355
0.136611
0.104398
0.105906
0.0956863
0.100623
0.0957233
0.181579
0.138752
0.140757
0.127167
0.133718
0.127207
0.217422
0.166147
0.168551
0.15228
0.160137
0.152336
0.242377
0.185214
0.187893
0.169756
0.178508
0.169813
0.25517
0.194992
0.197813
0.178722
0.187936
0.178788
0.255166
0.194998
0.19782
0.178737
0.18796
0.178812
0.242376
0.185221
0.1879
0.169778
0.17853
0.169851
0.217418
0.166159
0.168562
0.152315
0.160174
0.152386
0.181578
0.138767
0.140776
0.127206
0.133769
0.127275
0.136612
0.104408
0.105915
0.0957134
0.100647
0.0957555
0.0848209
0.0648252
0.0657652
0.0594272
0.0624963
0.0594623
0.0287502
0.0219744
0.0222905
0.0201452
0.0211785
0.0201447
-0.0287366
-0.0219609
-0.0222773
-0.0201335
-0.0211728
-0.0201498
-0.0848058
-0.0648111
-0.0657494
-0.059415
-0.0624857
-0.0594591
-0.136605
-0.104398
-0.105908
-0.0957055
-0.100647
-0.095767
-0.181566
-0.138757
-0.140765
-0.1272
-0.133767
-0.127276
-0.217416
-0.166152
-0.168558
-0.152311
-0.160173
-0.152396
-0.242363
-0.185215
-0.187895
-0.169782
-0.178542
-0.169868
-0.255162
-0.194992
-0.197815
-0.178738
-0.187961
-0.178825
)
;

boundaryField
{
    out
    {
        type            implicitExtrapolation;
    }
    in
    {
        type            implicitExtrapolation;
    }
    frontAndBack
    {
        type            empty;
    }
}


// ************************************************************************* //
