/*--------------------------------*- C++ -*----------------------------------*\
| =========                 |                                                 |
| \\      /  F ield         | foam-extend: Open Source CFD                    |
|  \\    /   O peration     | Version:  3.0                                   |
|   \\  /    A nd           | Web:         http://www.extend-project.de       |
|    \\/     M anipulation  |                                                 |
\*---------------------------------------------------------------------------*/
FoamFile
{
    version     2.0;
    format      ascii;
    class       volSymmTensorField;
    location    "29";
    object      sigma;
}
// * * * * * * * * * * * * * * * * * * * * * * * * * * * * * * * * * * * * * //

dimensions      [0 0 0 0 0 0 0];

internalField   nonuniform List<symmTensor> 
168
(
(-0.142167 -0.0193227 -1.16636e-18 0.14217 -3.17131e-19 -3.23676e-06)
(-0.114885 -0.0208888 1.95049e-19 0.114893 2.16492e-18 -8.29741e-06)
(-0.0795216 -0.0175742 7.90247e-19 0.0795346 -1.7654e-19 -1.30229e-05)
(-0.0508976 -0.0139164 -1.07327e-18 0.0509119 4.14979e-18 -1.43213e-05)
(-0.0272349 -0.0106741 2.0038e-18 0.027249 1.09793e-18 -1.40238e-05)
(-0.0132127 -0.00879147 -4.70621e-19 0.0132194 -3.74347e-18 -6.71677e-06)
(-0.129701 -0.055074 7.79114e-19 0.129704 5.40971e-19 -3.03659e-06)
(-0.0962066 -0.0570848 1.49709e-18 0.0962143 -4.64562e-18 -7.67684e-06)
(-0.0614875 -0.0469774 1.77737e-18 0.0614996 -2.67321e-18 -1.20315e-05)
(-0.0349663 -0.0364848 3.99495e-18 0.0349794 -4.09639e-18 -1.30866e-05)
(-0.0133523 -0.0273438 -5.89965e-18 0.0133653 -1.18863e-18 -1.29576e-05)
(-0.00036089 -0.0221723 -1.51715e-19 0.000367069 4.90856e-18 -6.17912e-06)
(-0.107718 -0.0832832 3.62652e-19 0.107721 -6.75968e-18 -2.5499e-06)
(-0.0654122 -0.0788323 -5.65646e-18 0.0654187 6.18454e-19 -6.53143e-06)
(-0.0324336 -0.0614148 -3.65662e-19 0.0324439 -4.08228e-19 -1.03218e-05)
(-0.00971004 -0.0452037 -8.25149e-19 0.00972137 6.56632e-19 -1.13222e-05)
(0.00830257 -0.0313787 1.11787e-17 -0.00829133 6.92067e-18 -1.12431e-05)
(0.0194619 -0.0234449 1.69003e-18 -0.0194565 -7.19731e-18 -5.38643e-06)
(-0.0809744 -0.1017 2.15746e-18 0.0809764 3.29487e-18 -1.98383e-06)
(-0.0328786 -0.0830227 3.59601e-18 0.0328837 6.24721e-18 -5.14544e-06)
(-0.00342204 -0.0579695 2.67548e-19 0.0034302 -2.28369e-18 -8.16142e-06)
(0.0144485 -0.0375406 -2.12521e-19 -0.0144395 4.65807e-18 -9.0061e-06)
(0.0280644 -0.0206117 -5.30106e-18 -0.0280555 -1.2819e-17 -8.97981e-06)
(0.0369 -0.010593 6.14907e-20 -0.0368957 3.42134e-18 -4.29725e-06)
(-0.0541631 -0.111016 -4.73508e-18 0.0541645 1.21763e-18 -1.37957e-06)
(-0.00836766 -0.0733628 6.23632e-19 0.00837127 -4.87969e-18 -3.61049e-06)
(0.0152357 -0.0410756 -1.60336e-18 -0.0152299 1.75719e-18 -5.71652e-06)
(0.0278539 -0.0179452 2.83172e-18 -0.0278475 -1.8557e-18 -6.34904e-06)
(0.0370259 0.000609986 1.56488e-18 -0.0370195 4.83264e-18 -6.36516e-06)
(0.0433188 0.011979 -4.2825e-18 -0.0433157 2.07896e-18 -3.05383e-06)
(-0.0302546 -0.114135 1.63335e-18 0.0302553 1.10978e-18 -7.18312e-07)
(0.00295606 -0.058502 -1.05133e-18 -0.00295416 2.10695e-18 -1.909e-06)
(0.018327 -0.0204603 -9.30444e-19 -0.018324 -1.16297e-19 -3.02263e-06)
(0.0257462 0.00413945 -1.50924e-18 -0.0257429 -1.63955e-19 -3.37556e-06)
(0.0309057 0.0232909 -2.08358e-18 -0.0309023 -2.61907e-18 -3.42171e-06)
(0.0346279 0.0354568 2.3287e-18 -0.0346262 -2.6299e-19 -1.63007e-06)
(-0.00962055 -0.114538 -1.44348e-19 0.00962061 -8.05287e-19 -6.65975e-08)
(0.00253575 -0.047981 6.43247e-20 -0.00253556 -1.38458e-18 -1.91381e-07)
(0.00788025 -0.00673456 9.79145e-19 -0.00787996 2.28451e-19 -2.87524e-07)
(0.0103271 0.018474 -1.09892e-19 -0.0103268 -9.06246e-19 -3.43626e-07)
(0.0119699 0.0377441 3.212e-19 -0.0119695 2.50666e-18 -4.09244e-07)
(0.0132329 0.0502422 -8.63773e-19 -0.0132327 -1.287e-19 -1.87042e-07)
(0.00962836 -0.114533 -2.07148e-19 -0.00962894 1.04818e-18 5.79469e-07)
(-0.00252676 -0.0479809 2.08328e-19 0.00252525 1.14844e-18 1.50639e-06)
(-0.0078721 -0.0067337 -6.53209e-20 0.00786968 -1.09886e-18 2.42442e-06)
(-0.0103037 0.0184708 1.31882e-18 0.010301 -6.94372e-19 2.68106e-06)
(-0.0119482 0.0377363 -2.91771e-19 0.0119456 -2.29164e-18 2.62046e-06)
(-0.0131691 0.0502298 -4.69384e-19 0.0131678 -5.47441e-20 1.27938e-06)
(0.0302624 -0.114128 1.63846e-18 -0.0302635 -9.24369e-19 1.15339e-06)
(-0.00294507 -0.0584986 -2.02107e-18 0.00294202 -2.02091e-18 3.04842e-06)
(-0.0183189 -0.0204595 -1.23157e-18 0.018314 -2.0606e-19 4.90896e-06)
(-0.0257244 0.00414661 -1.86375e-18 0.025719 -2.41975e-18 5.45962e-06)
(-0.0308914 0.023286 -4.44827e-19 0.0308859 3.77665e-18 5.41714e-06)
(-0.0345911 0.0354679 2.99673e-18 0.0345885 1.62627e-21 2.6254e-06)
(0.0541609 -0.111011 -4.68011e-18 -0.0541626 -4.51994e-19 1.65932e-06)
(0.00837295 -0.0733664 4.38148e-19 -0.00837735 4.81646e-18 4.40393e-06)
(-0.0152274 -0.0410771 -9.25316e-19 0.0152203 -5.68678e-19 7.11226e-06)
(-0.0278363 -0.0179492 1.38079e-19 0.0278284 9.10142e-19 7.94129e-06)
(-0.0369955 0.00060709 4.82878e-18 0.0369876 -7.63125e-18 7.94557e-06)
(-0.043261 0.0119907 -4.60382e-18 0.0432572 -1.33501e-18 3.85596e-06)
(0.0809695 -0.101692 2.48626e-18 -0.0809716 -3.0901e-18 2.04083e-06)
(0.0328832 -0.0830186 6.19415e-18 -0.0328887 -3.53689e-18 5.46196e-06)
(0.00342654 -0.0579692 -2.77568e-18 -0.0034354 -2.13507e-19 8.85854e-06)
(-0.0144339 -0.0375366 3.60237e-18 0.014424 1.58141e-18 9.91745e-06)
(-0.0280421 -0.0206219 -1.24314e-17 0.0280321 5.66577e-18 9.96833e-06)
(-0.0368626 -0.0106133 3.15305e-18 0.0368577 2.69083e-19 4.82926e-06)
(0.107721 -0.0832844 2.01762e-18 -0.107723 6.30745e-18 2.30903e-06)
(0.0654203 -0.0788381 -6.23737e-18 -0.0654265 -3.56366e-19 6.21468e-06)
(0.0324506 -0.0614135 1.53749e-18 -0.0324607 3.36643e-18 1.01333e-05)
(0.00972756 -0.045212 -3.29624e-18 -0.00973894 -3.39789e-18 1.13878e-05)
(-0.0082754 -0.0313772 5.59953e-18 0.00826387 -1.2459e-18 1.15245e-05)
(-0.019435 -0.0234445 2.06958e-18 0.0194294 4.53579e-18 5.60529e-06)
(0.129697 -0.0550785 4.26896e-19 -0.1297 -8.62931e-19 2.42216e-06)
(0.0962104 -0.0570907 2.83478e-18 -0.096217 2.51795e-18 6.58359e-06)
(0.0614929 -0.0469817 1.57196e-18 -0.0615037 3.69342e-18 1.08063e-05)
(0.0349824 -0.0364911 -1.96038e-18 -0.0349946 3.83021e-18 1.21908e-05)
(0.0133718 -0.0273482 -7.65926e-19 -0.0133842 2.22146e-18 1.2401e-05)
(0.000412603 -0.0221814 -1.46656e-18 -0.000418636 -2.0642e-18 6.0336e-06)
(0.142171 -0.0193178 -5.67591e-19 -0.142173 -3.08253e-19 2.40089e-06)
(0.114891 -0.0208934 -6.85878e-19 -0.114898 -2.79506e-18 6.58918e-06)
(0.0795352 -0.0175623 9.77621e-19 -0.0795461 -1.30354e-18 1.09069e-05)
(0.0509134 -0.0139231 -1.03568e-18 -0.0509258 -2.24818e-18 1.23678e-05)
(0.0272592 -0.0106727 1.72677e-18 -0.0272719 7.71949e-19 1.26759e-05)
(0.0132537 -0.00881172 7.94989e-21 -0.0132599 -4.22634e-19 6.19702e-06)
(0.142183 0.0192708 -1.16488e-18 -0.142185 -3.16924e-19 2.22088e-06)
(0.114895 0.0208748 1.94679e-19 -0.114901 2.1648e-18 6.19534e-06)
(0.0795125 0.017629 7.87507e-19 -0.0795228 -1.77065e-19 1.03748e-05)
(0.0508865 0.0140272 -1.07335e-18 -0.0508984 4.1492e-18 1.18465e-05)
(0.0271847 0.0109038 1.99911e-18 -0.0271969 1.09639e-18 1.22536e-05)
(0.013109 0.00928122 -4.69687e-19 -0.013115 -3.74292e-18 6.01885e-06)
(0.129724 0.0550292 7.79054e-19 -0.129726 5.40742e-19 1.91464e-06)
(0.0962052 0.0570677 1.49687e-18 -0.0962107 -4.64626e-18 5.45201e-06)
(0.0614415 0.0470217 1.78169e-18 -0.0614508 -2.671e-18 9.27862e-06)
(0.0348801 0.036561 3.99423e-18 -0.0348908 -4.10102e-18 1.06898e-05)
(0.0131961 0.0275287 -5.89324e-18 -0.0132073 -1.1861e-18 1.11885e-05)
(3.32857e-05 0.0225557 -1.53806e-19 -3.88218e-05 4.90407e-18 5.53606e-06)
(0.107761 0.083251 3.63791e-19 -0.107762 -6.75944e-18 1.47591e-06)
(0.0654141 0.0788145 -5.65778e-18 -0.0654184 6.20025e-19 4.36684e-06)
(0.0323649 0.0614241 -3.69934e-19 -0.0323725 -4.08229e-19 7.63059e-06)
(0.00958777 0.0452315 -8.2736e-19 -0.00959669 6.62556e-19 8.91488e-06)
(-0.0085483 0.031451 1.11771e-17 0.00853881 6.91663e-18 9.49817e-06)
(-0.0199536 0.0236073 1.69536e-18 0.0199488 -7.20455e-18 4.73946e-06)
(0.0810275 0.10168 2.15606e-18 -0.0810285 3.29457e-18 9.47066e-07)
(0.032876 0.0829985 3.59659e-18 -0.032879 6.2462e-18 3.0211e-06)
(0.0033482 0.057944 2.69983e-19 -0.00335376 -2.28039e-18 5.55022e-06)
(-0.0145937 0.0374943 -2.11372e-19 0.0145871 4.65497e-18 6.64111e-06)
(-0.0283454 0.0205719 -5.30083e-18 0.0283381 -1.28138e-17 7.29742e-06)
(-0.0374647 0.0105083 5.17097e-20 0.037461 3.42875e-18 3.70282e-06)
(0.0542181 0.111021 -4.73522e-18 -0.0542184 1.21851e-18 3.3646e-07)
(0.00837104 0.0733377 6.24254e-19 -0.00837249 -4.88007e-18 1.4575e-06)
(-0.0152983 0.0410122 -1.60719e-18 0.0152952 1.75491e-18 3.10377e-06)
(-0.0279766 0.017836 2.83407e-18 0.0279726 -1.85491e-18 3.94326e-06)
(-0.0372729 -0.000786586 1.55871e-18 0.0372682 4.83026e-18 4.64183e-06)
(-0.0438055 -0.0123068 -4.27615e-18 0.0438031 2.0776e-18 2.42087e-06)
(0.0303003 0.114166 1.63334e-18 -0.0303 1.10918e-18 -3.06537e-07)
(-0.00295477 0.0584712 -1.05133e-18 0.00295499 2.107e-18 -2.17242e-07)
(-0.0183673 0.0203705 -9.281e-19 0.0183669 -1.13238e-19 4.5631e-07)
(-0.0258335 -0.00430971 -1.51029e-18 0.0258325 -1.65071e-19 1.00344e-06)
(-0.0310832 -0.0235791 -2.08217e-18 0.0310815 -2.61363e-18 1.73185e-06)
(-0.0349662 -0.036 2.32741e-18 0.0349652 -2.64757e-19 1.02465e-06)
(0.00964404 0.114585 -1.44132e-19 -0.00964308 -8.04518e-19 -9.64308e-07)
(-0.00252763 0.0479546 6.49905e-20 0.00252956 -1.3844e-18 -1.93728e-06)
(-0.00788742 0.0066333 9.80106e-19 0.00788971 2.24612e-19 -2.2873e-06)
(-0.0103461 -0.0186664 -1.083e-19 0.0103482 -9.05674e-19 -2.06116e-06)
(-0.0120251 -0.038083 3.18806e-19 0.0120264 2.50143e-18 -1.33821e-06)
(-0.0133354 -0.0508785 -8.60162e-19 0.0133359 -1.27101e-19 -4.67445e-07)
(-0.00963739 0.114583 -2.06841e-19 0.00963898 1.04712e-18 -1.58636e-06)
(0.00253683 0.0479493 2.08273e-19 -0.00253324 1.14817e-18 -3.58929e-06)
(0.00790156 0.00663101 -6.44521e-20 -0.00789661 -1.09627e-18 -4.94989e-06)
(0.0103507 -0.0186729 1.31949e-18 -0.0103457 -6.95585e-19 -5.05258e-06)
(0.0120375 -0.0380874 -2.90503e-19 -0.0120331 -2.28667e-18 -4.36045e-06)
(0.0133194 -0.0508843 -4.70494e-19 -0.0133175 -5.61304e-20 -1.93697e-06)
(-0.030296 0.114166 1.63821e-18 0.0302981 -9.23677e-19 -2.15441e-06)
(0.00295878 0.0584732 -2.02207e-18 -0.00295368 -2.02109e-18 -5.10426e-06)
(0.0183765 0.0203722 -1.2306e-18 -0.018369 -2.09546e-19 -7.41424e-06)
(0.0258371 -0.00431208 -1.86401e-18 -0.0258293 -2.41986e-18 -7.83585e-06)
(0.0310897 -0.0235778 -4.399e-19 -0.0310825 3.77268e-18 -7.20056e-06)
(0.034966 -0.0360024 2.99587e-18 -0.0349627 3.04641e-21 -3.32386e-06)
(-0.0542114 0.11102 -4.67994e-18 0.0542141 -4.52779e-19 -2.62685e-06)
(-0.00835739 0.0733383 4.37559e-19 0.00836378 4.8154e-18 -6.38976e-06)
(0.0153107 0.0410173 -9.29282e-19 -0.0153011 -5.66229e-19 -9.53123e-06)
(0.0279907 0.0178293 1.3524e-19 -0.0279804 9.06322e-19 -1.02481e-05)
(0.0372894 -0.000783329 4.82948e-18 -0.0372797 -7.62659e-18 -9.69346e-06)
(0.04381 -0.012332 -4.59995e-18 -0.0438054 -1.33375e-18 -4.54844e-06)
(-0.0810228 0.101679 2.48461e-18 0.0810258 -3.0892e-18 -2.99867e-06)
(-0.0328669 0.0829996 6.19407e-18 0.0328743 -3.5361e-18 -7.40736e-06)
(-0.00333839 0.057943 -2.77339e-18 0.00334961 -2.14971e-19 -1.12183e-05)
(0.014608 0.0374933 3.60212e-18 -0.0145958 1.58379e-18 -1.21961e-05)
(0.0283583 0.0205652 -1.24309e-17 -0.0283466 5.66367e-18 -1.17263e-05)
(0.0374705 0.0105073 3.1413e-18 -0.0374649 2.56228e-19 -5.55837e-06)
(-0.107754 0.0832469 2.01822e-18 0.107758 6.30735e-18 -3.24765e-06)
(-0.0654011 0.0788177 -6.23723e-18 0.0654092 -3.57371e-19 -8.11672e-06)
(-0.0323594 0.0614261 1.53311e-18 0.0323718 3.36831e-18 -1.2399e-05)
(-0.00956724 0.0452284 -3.29624e-18 0.00958083 -3.40085e-18 -1.35905e-05)
(0.00856048 0.0314591 5.59353e-18 -0.00854729 -1.24377e-18 -1.31903e-05)
(0.019982 0.023604 2.07541e-18 -0.0199757 4.53929e-18 -6.30146e-06)
(-0.129721 0.0550262 4.26197e-19 0.129725 -8.6223e-19 -3.40336e-06)
(-0.0961963 0.0570739 2.8355e-18 0.0962048 2.51847e-18 -8.54706e-06)
(-0.0614335 0.0470165 1.57551e-18 0.0614466 3.69439e-18 -1.30913e-05)
(-0.034865 0.0365686 -1.96086e-18 0.0348795 3.83109e-18 -1.44286e-05)
(-0.0131724 0.027525 -7.61582e-19 0.0131865 2.21948e-18 -1.40481e-05)
(-3.72516e-06 0.0225513 -1.46704e-18 1.04908e-05 -2.06337e-18 -6.76568e-06)
(-0.142174 0.0192705 -5.67042e-19 0.142177 -3.08144e-19 -3.47316e-06)
(-0.114881 0.0208816 -6.84879e-19 0.11489 -2.79496e-18 -8.68536e-06)
(-0.0795036 0.0176272 9.73982e-19 0.079517 -1.30167e-18 -1.33654e-05)
(-0.0508615 0.0140312 -1.0336e-18 0.0508762 -2.24847e-18 -1.46586e-05)
(-0.0271719 0.0109074 1.71952e-18 0.0271863 7.73132e-19 -1.43726e-05)
(-0.013082 0.00928567 1.12357e-20 0.0130889 -4.23229e-19 -6.8717e-06)
)
;

boundaryField
{
    out
    {
        type            mySigma;
    }
    in
    {
        type            mySigma;
    }
    frontAndBack
    {
        type            empty;
    }
}


// ************************************************************************* //
