/*--------------------------------*- C++ -*----------------------------------*\
| =========                 |                                                 |
| \\      /  F ield         | foam-extend: Open Source CFD                    |
|  \\    /   O peration     | Version:  3.0                                   |
|   \\  /    A nd           | Web:         http://www.extend-project.de       |
|    \\/     M anipulation  |                                                 |
\*---------------------------------------------------------------------------*/
FoamFile
{
    version     2.0;
    format      ascii;
    class       volSymmTensorField;
    location    "22";
    object      sigma;
}
// * * * * * * * * * * * * * * * * * * * * * * * * * * * * * * * * * * * * * //

dimensions      [0 0 0 0 0 0 0];

internalField   nonuniform List<symmTensor> 
168
(
(-0.142701 -0.019551 -1.05508e-18 0.142732 -2.31413e-19 -3.11754e-05)
(-0.113816 -0.0208726 1.84595e-19 0.113887 1.86935e-18 -7.04523e-05)
(-0.079125 -0.0177507 7.24038e-19 0.0792236 -1.45983e-19 -9.8684e-05)
(-0.0499988 -0.0142331 -9.88941e-19 0.050108 4.02435e-18 -0.000109209)
(-0.0265084 -0.0112352 1.75778e-18 0.0266064 9.04208e-19 -9.79927e-05)
(-0.0124852 -0.00993393 -3.96489e-19 0.0125322 -3.2417e-18 -4.70093e-05)
(-0.129908 -0.0556856 5.81879e-19 0.129937 4.31057e-19 -2.9005e-05)
(-0.0951388 -0.0568387 1.35041e-18 0.0952043 -4.42348e-18 -6.55313e-05)
(-0.0610397 -0.0470231 1.91884e-18 0.0611316 -2.62283e-18 -9.18495e-05)
(-0.0339463 -0.036552 3.80949e-18 0.0340478 -4.10415e-18 -0.000101526)
(-0.0124587 -0.0275931 -5.48389e-18 0.0125499 -8.06791e-19 -9.12826e-05)
(0.000821418 -0.0229732 -1.769e-19 -0.000777674 4.41538e-18 -4.37436e-05)
(-0.107415 -0.0839754 5.51022e-19 0.10744 -6.54941e-18 -2.52999e-05)
(-0.0643992 -0.0783465 -5.48383e-18 0.0644564 5.50845e-19 -5.72533e-05)
(-0.0319922 -0.0613225 -4.74886e-19 0.0320725 -5.89995e-19 -8.03274e-05)
(-0.00866093 -0.0449743 -6.7801e-19 0.00874986 8.16655e-19 -8.89293e-05)
(0.00921288 -0.0312936 1.08526e-17 -0.00913293 6.28974e-18 -7.99525e-05)
(0.0209199 -0.0237333 1.61586e-18 -0.0208816 -6.6322e-18 -3.83129e-05)
(-0.0802093 -0.102114 1.9832e-18 0.0802296 3.15816e-18 -2.03306e-05)
(-0.0319865 -0.0822989 3.47708e-18 0.0320326 6.14256e-18 -4.60887e-05)
(-0.00303632 -0.0577539 3.82395e-19 0.00310107 -1.91697e-18 -6.47452e-05)
(0.0154203 -0.0370043 -2.6359e-19 -0.0153485 4.31041e-18 -7.17972e-05)
(0.0288666 -0.0202346 -4.96766e-18 -0.028802 -1.19979e-17 -6.4602e-05)
(0.038401 -0.0102956 -9.70302e-21 -0.0383701 2.95098e-18 -3.09497e-05)
(-0.0532006 -0.1109 -4.52579e-18 0.053215 1.40443e-18 -1.43604e-05)
(-0.00766485 -0.0724271 7.0912e-19 0.0076975 -4.68624e-18 -3.26477e-05)
(0.0155299 -0.0407652 -1.63621e-18 -0.015484 1.44356e-18 -4.59447e-05)
(0.0286414 -0.0171326 2.87305e-18 -0.0285903 -1.61377e-18 -5.10781e-05)
(0.0376357 0.00120311 1.17997e-18 -0.0375896 4.17476e-18 -4.60271e-05)
(0.0446171 0.0128392 -3.97316e-18 -0.044595 2.14632e-18 -2.20527e-05)
(-0.0294661 -0.11346 1.50803e-18 0.0294738 8.60596e-19 -7.65334e-06)
(0.00340485 -0.0574069 -1.0719e-18 -0.00338734 1.89269e-18 -1.75099e-05)
(0.0185083 -0.020089 -9.69513e-19 -0.0184835 1.32014e-19 -2.47908e-05)
(0.02626 0.00516006 -1.52619e-18 -0.0262322 -3.95164e-19 -2.77159e-05)
(0.0312818 0.0240181 -1.90777e-18 -0.0312567 -2.0207e-18 -2.50856e-05)
(0.0355137 0.0367589 2.16295e-18 -0.0355017 -3.01224e-19 -1.20142e-05)
(-0.00932011 -0.113504 -9.70995e-20 0.00932067 -5.82226e-19 -5.54727e-07)
(0.0026865 -0.0467981 7.12513e-20 -0.00268504 -1.16797e-18 -1.46664e-06)
(0.00793927 -0.00633241 9.70795e-19 -0.00793691 -2.0531e-20 -2.36532e-06)
(0.0105071 0.0196079 -7.992e-20 -0.0105042 -7.20316e-19 -2.93659e-06)
(0.0121008 0.0385342 2.30752e-19 -0.0120979 1.95224e-18 -2.87389e-06)
(0.0135659 0.051785 -6.8229e-19 -0.0135645 -6.81376e-20 -1.37815e-06)
(0.0093198 -0.1135 -1.62753e-19 -0.00932641 8.08943e-19 6.61177e-06)
(-0.00268631 -0.0468005 2.14015e-19 0.00267158 9.49526e-19 1.47267e-05)
(-0.00793592 -0.0063336 -7.18559e-20 0.00791566 -8.8461e-19 2.02656e-05)
(-0.010477 0.0196044 1.30621e-18 0.010455 -8.33356e-19 2.20741e-05)
(-0.0120652 0.0385236 -3.2352e-19 0.0120456 -1.8011e-18 1.95402e-05)
(-0.0134567 0.0517765 -4.19772e-19 0.0134473 -7.43111e-20 9.34821e-06)
(0.0294645 -0.113454 1.53595e-18 -0.029478 -6.82426e-19 1.34677e-05)
(-0.00340355 -0.0574077 -2.09294e-18 0.00337332 -1.81241e-18 3.02277e-05)
(-0.0185061 -0.0200916 -1.15834e-18 0.0184642 -4.22157e-19 4.1931e-05)
(-0.0262326 0.0051692 -2.00981e-18 0.0261866 -2.22795e-18 4.60166e-05)
(-0.0312578 0.0240106 -8.43556e-20 0.0312168 3.23962e-18 4.09998e-05)
(-0.035434 0.0367879 2.63497e-18 0.0354144 -2.05459e-20 1.96152e-05)
(0.0531892 -0.110899 -4.51477e-18 -0.0532089 -6.38724e-19 1.96904e-05)
(0.00766407 -0.0724354 5.88447e-19 -0.00770836 4.64593e-18 4.42884e-05)
(-0.0155261 -0.0407711 -1.08001e-18 0.0154645 -3.57466e-19 6.15846e-05)
(-0.0286221 -0.0171361 2.91544e-19 0.0285544 7.83656e-19 6.77389e-05)
(-0.0375924 0.00120065 4.2808e-18 0.037532 -7.17944e-18 6.0466e-05)
(-0.0445304 0.0128605 -4.17763e-18 0.0445015 -1.25442e-18 2.89128e-05)
(0.0801965 -0.102112 2.38703e-18 -0.0802215 -2.94995e-18 2.49468e-05)
(0.0319866 -0.0823013 5.94576e-18 -0.0320428 -3.51135e-18 5.61752e-05)
(0.00303893 -0.0577606 -2.44913e-18 -0.00311713 -3.22402e-19 7.82028e-05)
(-0.0154038 -0.0369971 3.29679e-18 0.0153177 1.56705e-18 8.61014e-05)
(-0.0288318 -0.0202523 -1.17683e-17 0.0287549 5.45392e-18 7.6911e-05)
(-0.0383469 -0.0103084 2.61569e-18 0.0383101 6.35383e-20 3.6756e-05)
(0.107411 -0.0839843 2.07197e-18 -0.10744 6.1232e-18 2.89912e-05)
(0.0644045 -0.07836 -5.91323e-18 -0.0644698 -2.55119e-19 6.532e-05)
(0.0320114 -0.0613284 1.25427e-18 -0.0321024 3.35811e-18 9.10014e-05)
(0.00867733 -0.0449892 -2.96683e-18 -0.0087776 -3.28232e-18 0.000100266)
(-0.00917815 -0.0312963 5.11855e-18 0.00908852 -1.11137e-18 8.96296e-05)
(-0.0208857 -0.023734 2.21936e-18 0.0208429 4.50114e-18 4.28323e-05)
(0.129901 -0.0556978 3.55864e-19 -0.129933 -7.64871e-19 3.16013e-05)
(0.0951399 -0.0568531 2.57442e-18 -0.0952111 2.27512e-18 7.12346e-05)
(0.0610463 -0.0470354 1.7386e-18 -0.0611456 3.78221e-18 9.92889e-05)
(0.03396 -0.0365649 -2.10726e-18 -0.0340694 3.64428e-18 0.000109443)
(0.0124848 -0.0276052 -5.60466e-19 -0.0125826 2.19621e-18 9.78484e-05)
(-0.000751766 -0.0229919 -1.36084e-18 0.000705038 -1.94144e-18 4.67284e-05)
(0.142703 -0.0195515 -6.18136e-19 -0.142735 -3.88092e-19 3.26602e-05)
(0.113822 -0.0208849 -5.53842e-19 -0.113896 -2.46706e-18 7.36453e-05)
(0.0791429 -0.0177366 8.55409e-19 -0.0792456 -1.43446e-18 0.000102695)
(0.0500123 -0.0142509 -9.56577e-19 -0.0501255 -1.9638e-18 0.000113251)
(0.02654 -0.0112417 1.68134e-18 -0.0266413 7.00406e-19 0.000101293)
(0.0125403 -0.00998108 -5.39535e-20 -0.0125886 -5.35095e-19 4.83738e-05)
(0.142708 0.0195393 -1.05289e-18 -0.14274 -2.30846e-19 3.20968e-05)
(0.11387 0.0206723 1.84923e-19 -0.113942 1.86877e-18 7.24034e-05)
(0.0792193 0.0173562 7.21871e-19 -0.0793203 -1.44485e-19 0.000101004)
(0.0501781 0.0135239 -9.88506e-19 -0.0502896 4.02429e-18 0.000111445)
(0.0267629 0.0101191 1.7504e-18 -0.0268627 9.06084e-19 9.97216e-05)
(0.0129348 0.00800139 -3.95408e-19 -0.0129824 -3.24066e-18 4.76281e-05)
(0.129907 0.0556735 5.80735e-19 -0.129937 4.30496e-19 2.99506e-05)
(0.095257 0.0566734 1.34918e-18 -0.0953246 -4.42469e-18 6.75812e-05)
(0.061278 0.0467058 1.92391e-18 -0.0613723 -2.62179e-18 9.43119e-05)
(0.0343792 0.0359646 3.80893e-18 -0.0344834 -4.10604e-18 0.000104108)
(0.0131581 0.0266946 -5.47297e-18 -0.0132512 -7.99585e-19 9.31846e-05)
(0.000386817 0.0214052 -1.81121e-19 -0.000431327 4.40912e-18 4.45102e-05)
(0.107422 0.0839616 5.53085e-19 -0.107448 -6.54871e-18 2.63157e-05)
(0.0645707 0.0782458 -5.48351e-18 -0.0646301 5.51203e-19 5.93982e-05)
(0.032332 0.0611263 -4.79032e-19 -0.0324149 -5.93242e-19 8.2919e-05)
(0.0092889 0.0446323 -6.76342e-19 -0.00938047 8.1545e-19 9.15746e-05)
(-0.00823183 0.0307494 1.08443e-17 0.00814984 6.28716e-18 8.19862e-05)
(-0.019188 0.0227989 1.61491e-18 0.0191489 -6.62562e-18 3.91449e-05)
(0.0802235 0.102097 1.9816e-18 -0.0802449 3.15666e-18 2.13815e-05)
(0.0321701 0.0822764 3.47586e-18 -0.0322184 6.14218e-18 4.82725e-05)
(0.00342009 0.0577201 3.84587e-19 -0.0034875 -1.91232e-18 6.74092e-05)
(-0.0147354 0.0369469 -2.67309e-19 0.0146609 4.30926e-18 7.44763e-05)
(-0.0277839 0.0201688 -4.96183e-18 0.0277172 -1.19929e-17 6.66983e-05)
(-0.036507 0.0101687 2.14283e-21 0.0364752 2.93558e-18 3.18355e-05)
(0.0532223 0.11089 -4.52561e-18 -0.0532377 1.40616e-18 1.53878e-05)
(0.00783582 0.072481 7.10353e-19 -0.00787057 -4.68595e-18 3.47488e-05)
(-0.0151782 0.0408897 -1.63858e-18 0.0151297 1.43876e-18 4.85327e-05)
(-0.0280177 0.0173684 2.87798e-18 0.0279641 -1.61482e-18 5.36366e-05)
(-0.0366506 -0.000819219 1.17447e-18 0.0366026 4.16762e-18 4.80208e-05)
(-0.042888 -0.0121299 -3.97347e-18 0.0428651 2.15126e-18 2.28711e-05)
(0.0294868 0.113461 1.50742e-18 -0.0294955 8.59563e-19 8.64004e-06)
(-0.00329195 0.0575178 -1.07239e-18 0.00327244 1.89254e-18 1.95163e-05)
(-0.0182626 0.0203464 -9.70295e-19 0.0182353 1.36829e-19 2.72611e-05)
(-0.0258337 -0.00470027 -1.52845e-18 0.0258035 -3.95547e-19 3.01412e-05)
(-0.030604 -0.0232751 -1.90477e-18 0.030577 -2.01333e-18 2.69753e-05)
(-0.0343118 -0.0354156 2.15768e-18 0.034299 -3.02293e-19 1.27939e-05)
(0.00933363 0.113517 -9.693e-20 -0.0093351 -5.80769e-19 1.47756e-06)
(-0.0026408 0.0469499 7.18369e-20 0.00263746 -1.16645e-18 3.34187e-06)
(-0.00784364 0.00666986 9.70409e-19 0.00783898 -2.36571e-20 4.6586e-06)
(-0.010341 -0.0190127 -7.82243e-20 0.0103359 -7.19383e-19 5.16046e-06)
(-0.0118438 -0.037575 2.28682e-19 0.0118392 1.94385e-18 4.57433e-06)
(-0.0131087 -0.0500641 -6.78899e-19 0.0131066 -6.57956e-20 2.06167e-06)
(-0.00932184 0.113514 -1.62116e-19 0.00932757 8.0694e-19 -5.73865e-06)
(0.00265518 0.0469436 2.14018e-19 -0.00264223 9.48301e-19 -1.29565e-05)
(0.00786536 0.00666756 -7.1161e-20 -0.00784723 -8.81803e-19 -1.81273e-05)
(0.0103453 -0.0190209 1.30539e-18 -0.0103253 -8.33117e-19 -2.00326e-05)
(0.0118646 -0.0375776 -3.24333e-19 -0.0118466 -1.79394e-18 -1.80238e-05)
(0.0130666 -0.0500714 -4.20385e-19 -0.0130579 -7.63577e-20 -8.76306e-06)
(-0.0294788 0.113462 1.53521e-18 0.0294915 -6.81331e-19 -1.26382e-05)
(0.00329879 0.0575202 -2.09362e-18 -0.00327025 -1.81192e-18 -2.85438e-05)
(0.0182769 0.0203509 -1.15679e-18 -0.018237 -4.26441e-19 -3.99295e-05)
(0.025838 -0.00470689 -2.0141e-18 -0.0257939 -2.22854e-18 -4.4142e-05)
(0.030618 -0.023268 -8.04001e-20 -0.0305783 3.23247e-18 -3.96543e-05)
(0.0343015 -0.0354251 2.6297e-18 -0.0342824 -1.97182e-20 -1.91081e-05)
(-0.0532094 0.110891 -4.51422e-18 0.0532283 -6.40386e-19 -1.88795e-05)
(-0.00781589 0.072484 5.89973e-19 0.00785853 4.64528e-18 -4.26435e-05)
(0.0151959 0.0409001 -1.08137e-18 -0.0151362 -3.53539e-19 -5.96586e-05)
(0.0280384 0.0173598 2.97593e-19 -0.0279725 7.84074e-19 -6.59807e-05)
(0.0366733 -0.000809364 4.27459e-18 -0.0366141 -7.17591e-18 -5.92644e-05)
(0.0428861 -0.0121687 -4.18296e-18 -0.0428576 -1.25984e-18 -2.85012e-05)
(-0.0802139 0.102097 2.38536e-18 0.080238 -2.94764e-18 -2.41399e-05)
(-0.0321559 0.0822779 5.94358e-18 0.0322105 -3.51176e-18 -5.45282e-05)
(-0.00340714 0.0577224 -2.44573e-18 0.00348343 -3.24685e-19 -7.62892e-05)
(0.014759 0.0369458 3.29259e-18 -0.0146746 1.56401e-18 -8.44014e-05)
(0.0278023 0.020168 -1.17596e-17 -0.0277265 5.45285e-18 -7.57962e-05)
(0.0365151 0.0101781 2.62255e-18 -0.0364787 7.18457e-20 -3.64072e-05)
(-0.107412 0.0839615 2.07295e-18 0.10744 6.12262e-18 -2.81676e-05)
(-0.0645531 0.0782541 -5.91217e-18 0.0646168 -2.56539e-19 -6.36255e-05)
(-0.0323281 0.0611319 1.25026e-18 0.0324171 3.36193e-18 -8.90046e-05)
(-0.00925835 0.0446331 -2.9656e-18 0.00935688 -3.28499e-18 -9.85282e-05)
(0.00824821 0.0307674 5.11056e-18 -0.00815974 -1.10316e-18 -8.84659e-05)
(0.0192312 0.0228058 2.21876e-18 -0.0191887 4.49152e-18 -4.24925e-05)
(-0.129901 0.0556751 3.54148e-19 0.129932 -7.6413e-19 -3.07663e-05)
(-0.0952437 0.0566867 2.57388e-18 0.0953132 2.27536e-18 -6.94776e-05)
(-0.0612696 0.0467025 1.74091e-18 0.0613668 3.78075e-18 -9.71586e-05)
(-0.0343584 0.0359852 -2.10789e-18 0.034466 3.64488e-18 -0.000107595)
(-0.013124 0.0266983 -5.53019e-19 0.0132205 2.19326e-18 -9.6548e-05)
(-0.000350476 0.0214184 -1.36168e-18 0.00039685 -1.9391e-18 -4.63739e-05)
(-0.142698 0.0195431 -6.17055e-19 0.142729 -3.88237e-19 -3.18279e-05)
(-0.113853 0.0206879 -5.52066e-19 0.113925 -2.46742e-18 -7.17963e-05)
(-0.0792086 0.0173542 8.50495e-19 0.079309 -1.43404e-18 -0.000100441)
(-0.0501461 0.0135387 -9.55669e-19 0.0502573 -1.96496e-18 -0.00011117)
(-0.0267471 0.010131 1.67159e-18 0.0268469 7.03888e-19 -9.98233e-05)
(-0.0129025 0.00802654 -4.98898e-20 0.0129504 -5.39077e-19 -4.79041e-05)
)
;

boundaryField
{
    out
    {
        type            mySigma;
    }
    in
    {
        type            mySigma;
    }
    frontAndBack
    {
        type            empty;
    }
}


// ************************************************************************* //
