/*--------------------------------*- C++ -*----------------------------------*\
| =========                 |                                                 |
| \\      /  F ield         | foam-extend: Open Source CFD                    |
|  \\    /   O peration     | Version:  3.0                                   |
|   \\  /    A nd           | Web:         http://www.extend-project.de       |
|    \\/     M anipulation  |                                                 |
\*---------------------------------------------------------------------------*/
FoamFile
{
    version     2.0;
    format      ascii;
    class       volVectorField;
    location    "22";
    object      u;
}
// * * * * * * * * * * * * * * * * * * * * * * * * * * * * * * * * * * * * * //

dimensions      [0 0 0 0 0 0 0];

internalField   nonuniform List<vector> 
168
(
(0.82435 -0.134296 -6.1011e-17)
(0.403609 -0.0892477 1.56281e-16)
(1.26235 -0.0487229 -1.7969e-16)
(0.651322 -0.0303063 2.39719e-16)
(1.3704 -0.0122282 -1.80509e-16)
(0.693911 -0.00396386 1.71629e-16)
(0.940461 -0.375437 2.77466e-17)
(0.481166 -0.250105 -3.0075e-16)
(1.3039 -0.134689 1.13487e-16)
(0.677302 -0.083756 -4.05613e-16)
(1.37996 -0.0314396 1.40509e-16)
(0.6957 -0.00621158 5.38741e-18)
(1.14947 -0.542168 -3.97203e-16)
(0.620321 -0.360482 5.87653e-16)
(1.37821 -0.193894 -1.18518e-16)
(0.723715 -0.12029 5.67547e-16)
(1.3966 -0.0446072 -2.08701e-16)
(0.698424 -0.00762961 -1.6581e-16)
(1.41044 -0.601722 7.34926e-16)
(0.794336 -0.400297 -6.34833e-16)
(1.47148 -0.215005 1.07993e-16)
(0.781743 -0.13344 -4.17641e-16)
(1.41779 -0.0490826 -9.47275e-18)
(0.701692 -0.00797144 4.15016e-16)
(1.67115 -0.542246 -3.55799e-16)
(0.967606 -0.360303 3.65562e-16)
(1.56401 -0.193818 1.05689e-16)
(0.839351 -0.120011 1.73562e-16)
(1.43839 -0.0442936 9.89014e-17)
(0.704471 -0.00684478 -2.69225e-16)
(1.88039 -0.375369 1.30984e-16)
(1.10715 -0.249188 -2.22928e-16)
(1.63887 -0.134021 -6.27081e-17)
(0.886013 -0.0828596 -1.1501e-16)
(1.45527 -0.0304747 -1.8018e-17)
(0.707696 -0.00461787 9.817e-17)
(1.99654 -0.134278 -8.38635e-17)
(1.18417 -0.088817 1.64691e-16)
(1.67995 -0.0483084 3.01432e-17)
(0.911405 -0.0296416 8.69353e-17)
(1.46447 -0.0111296 3.72415e-17)
(0.707925 -0.00204584 -7.71481e-17)
(1.99646 0.133327 8.28299e-17)
(1.18423 0.0894538 -1.90469e-16)
(1.68 0.0474055 -1.12516e-17)
(0.911867 0.0301827 -1.2642e-16)
(1.46406 0.0103369 2.87497e-17)
(0.709809 0.00247531 3.27929e-18)
(1.88044 0.374793 -1.43068e-16)
(1.10706 0.249691 2.54804e-16)
(1.63862 0.133574 -2.88498e-17)
(0.885744 0.0828723 2.03719e-16)
(1.45515 0.0307003 -2.2821e-17)
(0.706573 0.00336888 -7.86786e-17)
(1.67118 0.541478 3.67661e-16)
(0.967823 0.360797 -4.61734e-16)
(1.56391 0.192704 2.60596e-17)
(0.840092 0.121046 -3.67275e-16)
(1.43763 0.0423982 6.90031e-17)
(0.706195 0.00901136 1.87719e-16)
(1.41001 0.6016 -7.21019e-16)
(0.79426 0.400349 6.15605e-16)
(1.47084 0.215099 -5.41955e-17)
(0.781624 0.132826 3.81983e-16)
(1.41711 0.0501445 2.82187e-17)
(0.701494 0.00612004 -4.29865e-16)
(1.14931 0.541936 3.54659e-16)
(0.620833 0.361 -3.40678e-16)
(1.37787 0.192817 -2.2455e-16)
(0.724637 0.12187 -1.02069e-16)
(1.39582 0.0421838 -2.35904e-16)
(0.699406 0.0101786 4.40358e-16)
(0.939827 0.375234 3.46176e-17)
(0.481333 0.249735 1.35268e-16)
(1.30331 0.134738 2.86555e-16)
(0.677301 0.0827675 -1.28527e-17)
(1.3796 0.0324152 1.40507e-16)
(0.695398 0.00469189 -1.78636e-16)
(0.823769 0.134278 1.26472e-17)
(0.403953 0.0898822 -3.26293e-17)
(1.2616 0.0478051 -1.02555e-16)
(0.652008 0.0320424 7.62071e-17)
(1.3692 0.0101596 -1.66184e-16)
(0.694857 0.00601688 2.37134e-16)
(0.824356 -0.133261 6.12707e-17)
(0.40356 -0.0884806 -1.55709e-16)
(1.26247 -0.0464516 1.79783e-16)
(0.650856 -0.0293359 -2.39656e-16)
(1.37096 -0.00815305 1.80815e-16)
(0.692387 -0.000604914 -1.72387e-16)
(0.940275 -0.374351 -2.80053e-17)
(0.480388 -0.24875 3.0021e-16)
(1.30325 -0.13302 -1.13704e-16)
(0.676469 -0.080952 4.05762e-16)
(1.37865 -0.0299442 -1.41106e-16)
(0.694404 0.000755465 -4.13078e-18)
(1.14988 -0.540768 3.97437e-16)
(0.619173 -0.359943 -5.87118e-16)
(1.3783 -0.191801 1.1864e-16)
(0.721906 -0.119307 -5.6773e-16)
(1.39654 -0.0412591 2.09195e-16)
(0.694826 -0.00492491 1.6467e-16)
(1.41057 -0.600524 -7.35254e-16)
(0.792656 -0.399646 6.344e-16)
(1.47088 -0.213115 -1.08199e-16)
(0.779575 -0.13189 4.18011e-16)
(1.41671 -0.0471847 8.78628e-18)
(0.696981 -0.00284681 -4.13729e-16)
(1.67121 -0.540974 3.56099e-16)
(0.96601 -0.360307 -3.65107e-16)
(1.56367 -0.192348 -1.05464e-16)
(0.83685 -0.119485 -1.73853e-16)
(1.43761 -0.0424099 -9.82331e-17)
(0.699335 -0.00476022 2.67973e-16)
(1.88028 -0.374375 -1.31247e-16)
(1.10511 -0.249168 2.2243e-16)
(1.63786 -0.132665 6.2541e-17)
(0.883162 -0.0825298 1.15142e-16)
(1.45395 -0.0289303 1.75207e-17)
(0.700709 -0.00277522 -9.71587e-17)
(1.99626 -0.13379 8.41481e-17)
(1.18261 -0.0890189 -1.64211e-16)
(1.6793 -0.0477606 -2.98899e-17)
(0.908831 -0.0295866 -8.70579e-17)
(1.46331 -0.0106692 -3.67051e-17)
(0.701929 -0.00127812 7.6182e-17)
(1.99616 0.133555 -8.30748e-17)
(1.1822 0.0890367 1.89929e-16)
(1.67891 0.0475546 1.10797e-17)
(0.90884 0.0294194 1.26397e-16)
(1.46283 0.010808 -2.90756e-17)
(0.702126 0.000653483 -2.56246e-18)
(1.88031 0.37423 1.43296e-16)
(1.1055 0.24946 -2.5429e-16)
(1.63797 0.13281 2.90113e-17)
(0.883402 0.0826216 -2.03822e-16)
(1.45385 0.0292938 2.32803e-17)
(0.700997 0.00263358 7.77973e-17)
(1.67109 0.540873 -3.67888e-16)
(0.965878 0.360101 4.61252e-16)
(1.56326 0.191945 -2.62337e-17)
(0.837202 0.119221 3.67462e-16)
(1.43694 0.0423243 -6.95543e-17)
(0.69963 0.00377688 -1.86786e-16)
(1.4105 0.600423 7.21294e-16)
(0.792871 0.399964 -6.15117e-16)
(1.47072 0.213071 5.44075e-17)
(0.779839 0.132405 -3.82186e-16)
(1.4164 0.0467583 -2.76645e-17)
(0.697273 0.0039849 4.28824e-16)
(1.14965 0.540785 -3.54932e-16)
(0.619161 0.35975 3.40236e-16)
(1.37784 0.191552 2.24254e-16)
(0.722328 0.118934 1.02376e-16)
(1.3957 0.0416745 2.3514e-16)
(0.695374 0.00320814 -4.38947e-16)
(0.94043 0.374199 -3.4347e-17)
(0.480478 0.249159 -1.34724e-16)
(1.30345 0.132377 -2.86369e-16)
(0.676461 0.0821476 1.28141e-17)
(1.37919 0.0283563 -1.40035e-16)
(0.693789 0.00126651 1.77677e-16)
(0.824352 0.133086 -1.29554e-17)
(0.403351 0.0881857 3.21561e-17)
(1.26223 0.0462941 1.02239e-16)
(0.651046 0.0285821 -7.59986e-17)
(1.37016 0.00899383 1.65532e-16)
(0.69327 -0.00121839 -2.3596e-16)
)
;

boundaryField
{
    out
    {
        type            fixedValue;
        value           uniform (1 0 0);
    }
    in
    {
        type            myVelocity;
    }
    frontAndBack
    {
        type            empty;
    }
}


// ************************************************************************* //
