/*--------------------------------*- C++ -*----------------------------------*\
| =========                 |                                                 |
| \\      /  F ield         | foam-extend: Open Source CFD                    |
|  \\    /   O peration     | Version:  3.0                                   |
|   \\  /    A nd           | Web:         http://www.extend-project.de       |
|    \\/     M anipulation  |                                                 |
\*---------------------------------------------------------------------------*/
FoamFile
{
    version     2.0;
    format      ascii;
    class       volScalarField;
    location    "41";
    object      p;
}
// * * * * * * * * * * * * * * * * * * * * * * * * * * * * * * * * * * * * * //

dimensions      [0 0 0 0 0 0 0];

internalField   nonuniform List<scalar> 
672
(
-0.2336253375
-0.1983098318
-0.1872688405
-0.1686999754
-0.166267014
-0.1555858252
-0.1567607642
-0.1502692373
-0.1520878638
-0.1474542961
-0.1472773479
-0.142245917
-0.2306860368
-0.1958128718
-0.184909075
-0.1665725047
-0.1641684975
-0.1536210842
-0.1547796476
-0.1483695064
-0.1501641756
-0.1455875323
-0.1454130362
-0.1404386371
-0.2248238591
-0.1908357698
-0.1802087663
-0.1623374492
-0.1599945969
-0.1497142635
-0.1508434667
-0.1445952029
-0.1463434183
-0.1418827865
-0.141709774
-0.1368641185
-0.2161574205
-0.1834776223
-0.1732585178
-0.1560751887
-0.1538211075
-0.1439369245
-0.1450212224
-0.1390140008
-0.1406940038
-0.1364043951
-0.1362383936
-0.1315742133
-0.2047498219
-0.1737937417
-0.164113601
-0.1478369101
-0.1457016924
-0.1363390525
-0.1373658915
-0.1316757615
-0.1332658275
-0.1292029196
-0.1290424355
-0.1246246185
-0.1907912573
-0.1619435655
-0.1529216841
-0.137753815
-0.1357627871
-0.1270384091
-0.1279939322
-0.1226921417
-0.1241725153
-0.1203862131
-0.1202356185
-0.1161145614
-0.1744092625
-0.1480376412
-0.1397898821
-0.1259245812
-0.1241042182
-0.1161295972
-0.1170027436
-0.1121570465
-0.1135094142
-0.1100486282
-0.1099089804
-0.1061400822
-0.1558588931
-0.1322898109
-0.1249176409
-0.1125260344
-0.1108980463
-0.1037713606
-0.1045503014
-0.100220348
-0.101426772
-0.09833407764
-0.09820601532
-0.09483433384
-0.1353229396
-0.1148582382
-0.1084565035
-0.09769803389
-0.0962838533
-0.09009741166
-0.09077302381
-0.08701513919
-0.08806166189
-0.0853768527
-0.08526434752
-0.08233252214
-0.1131112385
-0.09600250664
-0.0906497412
-0.08165561438
-0.08047239012
-0.0753005966
-0.07586414211
-0.07272292491
-0.07359549909
-0.07135129368
-0.07125319847
-0.06880078776
-0.08945012985
-0.07591849826
-0.07168381742
-0.06457140148
-0.0636342769
-0.0595459006
-0.05998998122
-0.05750805532
-0.05819601938
-0.0564217495
-0.05634170117
-0.05439412578
-0.06469111476
-0.05490046076
-0.05183543684
-0.04668930982
-0.04601007062
-0.04305189595
-0.04337170895
-0.04157608661
-0.04207118052
-0.04078756677
-0.04072484714
-0.03931520538
-0.03909052074
-0.03317035271
-0.03131506441
-0.02820470649
-0.02779160135
-0.02600534611
-0.0261957581
-0.02511307419
-0.02540857311
-0.02463302277
-0.02459063517
-0.02372680056
-0.01302596499
-0.01104410388
-0.01042038086
-0.009379540691
-0.009238116903
-0.008640869955
-0.008700659634
-0.00833952828
-0.008432157759
-0.00817267584
-0.008148541357
-0.007852472988
0.01323100326
0.01124304989
0.0106259405
0.00957916886
0.009447589672
0.008843504477
0.00891616974
0.008547003833
0.008658165591
0.008397336916
0.008398797743
0.008133657502
0.03929374765
0.0333676934
0.03151898575
0.02840324582
0.02799996973
0.02620762055
0.02641090935
0.02532101096
0.02563505628
0.02485865648
0.02484188578
0.02400863178
0.0648909002
0.05509471782
0.05203620215
0.04688571567
0.0462161765
0.04325340244
0.04358559752
0.04178467784
0.04229688819
0.0410138013
0.04097409545
0.03959202775
0.08964439569
0.07610782356
0.0718795279
0.06476427076
0.0638367047
0.05974580547
0.06020195168
0.05771713127
0.05842139124
0.05664919861
0.05659068853
0.05466844675
0.1132984938
0.09618545928
0.09083894743
0.08184374948
0.08066995705
0.07549811397
0.07607331242
0.07293212097
0.07381969474
0.07157936977
0.07150027498
0.069069355
0.1355007735
0.1150326483
0.1086369107
0.09787950984
0.0964743691
0.09029081989
0.090977127
0.08722281832
0.08828189849
0.08560330159
0.08550540857
0.08258987156
0.1560259259
0.1324542233
0.1250878161
0.1126993793
0.111080216
0.1039592655
0.1047485041
0.1004253228
0.1016432029
0.09855845966
0.09844280021
0.09508332168
0.1745627901
0.1481895823
0.1399471806
0.126087319
0.1242751846
0.1163093538
0.1171916142
0.1123563206
0.1137174641
0.1102668798
0.1101349985
0.1063727016
0.1909300176
0.1620815791
0.1530646254
0.1379041729
0.1359207866
0.127207866
0.1281714522
0.1228831885
0.1243700391
0.1205956839
0.1204488536
0.1163289395
0.2048709465
0.1739151543
0.1642393918
0.1479719682
0.1458436427
0.1364948228
0.1375286651
0.1318547016
0.1334494625
0.1293998504
0.1292404057
0.1248199548
0.2162598747
0.1835811053
0.173365702
0.1561930211
0.1539448407
0.1440762435
0.145165991
0.1391770343
0.1408588335
0.136583536
0.1364139489
0.1317414992
0.2249047663
0.1909186
0.1802946103
0.1624348934
0.1600969525
0.1498332672
0.150966658
0.1447377659
0.1464859948
0.1420398288
0.1418606983
0.137003676
0.2307448081
0.1958740812
0.1849724005
0.1666478297
0.1642475141
0.1537169876
0.1548783039
0.1484876257
0.1502803923
0.1457175469
0.1455343437
0.140544893
0.2336591779
0.1983467492
0.1873071979
0.168750057
0.1663196006
0.1556546679
0.1568308046
0.1503579918
0.1521725951
0.14755174
0.1473632152
0.1423142678
0.233658155
0.1983437118
0.1873023175
0.1687437881
0.1663115446
0.1556458422
0.1568203467
0.1503469687
0.1521607409
0.1475382657
0.1473506652
0.1422955137
0.2306949971
0.1958269097
0.1849252857
0.1666005078
0.1641992327
0.1536667565
0.1548266477
0.1484331676
0.150223759
0.1456589332
0.1454720013
0.1404857195
0.2248537975
0.1908661327
0.1802385979
0.1623757938
0.1600334434
0.1497661491
0.1508948811
0.1446620353
0.146406099
0.1419549914
0.1417730718
0.1369074399
0.2161609832
0.1834855852
0.1732684642
0.156094284
0.1538423833
0.1439696222
0.1450548828
0.1390603734
0.1407371839
0.1364567064
0.136281265
0.1316083696
0.2047734833
0.1738166106
0.1641357836
0.147863674
0.1457286127
0.1363735554
0.1374000473
0.13171909
0.133306646
0.1292493593
0.1290835755
0.1246534528
0.1907863658
0.1619421001
0.1529217744
0.1377589394
0.1357691953
0.1270506141
0.1280066612
0.122711081
0.12418995
0.1204080779
0.1202530389
0.1161280542
0.1744246068
0.1480506517
0.1398019314
0.1259360264
0.1241152809
0.1161409898
0.1170138093
0.1121689764
0.1135206339
0.1100602346
0.1099192981
0.1061475981
0.1558441757
0.1322774415
0.1249062474
0.1125149489
0.1108871454
0.1037597199
0.1045387302
0.1002073386
0.101414523
0.09832067959
0.09819460999
0.09482504473
0.1353295957
0.1148609895
0.1084579742
0.09769352673
0.09627834386
0.09008472479
0.09075994345
0.08699436389
0.08804194376
0.08535221332
0.08524251261
0.08231787351
0.1130872689
0.09597990375
0.09062751876
0.08162932427
0.08044514647
0.07526658703
0.07582957692
0.0726799538
0.07355507518
0.07130476598
0.07121429067
0.06876947636
0.08944946023
0.07591261973
0.07167638029
0.06455349612
0.06361485452
0.05951302842
0.05995676525
0.05745996792
0.0581508547
0.05636724041
0.05629420914
0.05436294265
0.06466030012
0.05487030472
0.05180520098
0.04665182256
0.04597072538
0.04300143974
0.04332007594
0.04151111127
0.04200972168
0.04071659658
0.04066509642
0.03926671627
0.03908533964
0.03315916767
0.03130214851
0.02817859075
0.02776365136
0.0259601557
0.02615027364
0.02504840367
0.0253480489
0.02456052918
0.02452789328
0.02368607693
0.0129920709
0.0110105564
0.01038654717
0.009337060068
0.009193370209
0.008583133021
0.008641491693
0.008264904955
0.008361600435
0.008091203299
0.008080157517
0.007797267503
-0.01323699457
-0.01125518428
-0.01063983915
-0.00960671484
-0.00947706258
-0.008890768947
-0.008963831437
-0.008614369035
-0.008721405588
-0.008472710029
-0.008464275742
-0.008176307757
-0.03932635217
-0.03339981259
-0.03155130369
-0.02844355796
-0.0280423926
-0.0262620838
-0.02646668856
-0.02539110408
-0.02570115365
-0.02493476642
-0.02490524419
-0.02405908137
-0.06489383666
-0.05510326344
-0.05204639309
-0.04690765796
-0.04623986153
-0.04329215352
-0.04362485241
-0.04184041378
-0.04234940068
-0.04107629971
-0.04102852738
-0.03962732465
-0.08967160551
-0.07613398716
-0.07190553501
-0.06479572642
-0.0638696227
-0.05978720828
-0.06024437102
-0.05776968907
-0.05847109553
-0.05670586365
-0.05663792814
-0.0547059136
-0.1132951077
-0.09618658622
-0.09084146351
-0.08185419376
-0.08068166254
-0.07551954715
-0.07609516448
-0.07296439394
-0.07384997663
-0.07161592977
-0.07153167604
-0.06908874777
-0.1355195461
-0.1150495002
-0.1086530525
-0.09789719173
-0.09649246742
-0.09031203387
-0.0909988425
-0.08724847474
-0.08830655235
-0.08563058731
-0.0855288464
-0.0826090594
-0.1560142018
-0.132445557
-0.1250802143
-0.1126947103
-0.1110761592
-0.103958051
-0.1047475713
-0.1004270952
-0.1016446967
-0.0985616955
-0.09844509368
-0.09508350357
-0.1745717443
-0.1481955824
-0.1399518413
-0.1260889946
-0.124276009
-0.1163071771
-0.1171891205
-0.1123508714
-0.1137126651
-0.1102600929
-0.1101301236
-0.1063696223
-0.1909096
-0.1620626565
-0.1530464816
-0.1378837113
-0.1359003324
-0.127183045
-0.1281469239
-0.1228532543
-0.1243420091
-0.1205645998
-0.1204219622
-0.1163108872
-0.2048706469
-0.1739108756
-0.1642332497
-0.1479584934
-0.1458281781
-0.1364705196
-0.1375032599
-0.1318197841
-0.1334165982
-0.1293605862
-0.129208147
-0.1247948677
-0.2162321428
-0.1835534673
-0.1733386854
-0.1561591447
-0.1539105409
-0.1440313625
-0.1451214537
-0.1391200748
-0.1408055508
-0.1365229327
-0.1363615867
-0.1317068806
-0.224897622
-0.1909066345
-0.1802805127
-0.1624100827
-0.1600694551
-0.1497923916
-0.1509243055
-0.1446807075
-0.1464323548
-0.1419761295
-0.1418082114
-0.1369625277
-0.2307125933
-0.195841016
-0.1849399157
-0.1666055817
-0.1642046154
-0.1536595177
-0.1548212003
-0.148413552
-0.1502109115
-0.1456378675
-0.1454649524
-0.1404983557
-0.2336489784
-0.1983312769
-0.1872894993
-0.1687200495
-0.1662866324
-0.1556061422
-0.1567807142
-0.1502906117
-0.152109365
-0.1474764633
-0.1473011174
-0.1422652081
)
;

boundaryField
{
    out
    {
        type            implicitExtrapolation;
    }
    in
    {
        type            implicitExtrapolation;
    }
    frontAndBack
    {
        type            empty;
    }
}


// ************************************************************************* //
