/*--------------------------------*- C++ -*----------------------------------*\
| =========                 |                                                 |
| \\      /  F ield         | foam-extend: Open Source CFD                    |
|  \\    /   O peration     | Version:  3.0                                   |
|   \\  /    A nd           | Web:         http://www.extend-project.de       |
|    \\/     M anipulation  |                                                 |
\*---------------------------------------------------------------------------*/
FoamFile
{
    version     2.0;
    format      ascii;
    class       volScalarField;
    location    "17";
    object      Theta;
}
// * * * * * * * * * * * * * * * * * * * * * * * * * * * * * * * * * * * * * //

dimensions      [0 2 -2 0 0 0 0];

internalField   nonuniform List<scalar> 
3012
(
-2.74284
1.81849
4.42124
-0.225119
20.6668
5.41964
-15.8008
-0.708985
-2.43655
3.88838
-2.59006
3.78864
1.00371
-0.707338
2.55554
0.88536
-14.1106
-19.3705
13.0077
19.5104
1.26006
-0.0610311
1.89453
0.787875
4.39676
-2.67883
5.32759
-2.20634
-1.58908
3.95248
-0.0851444
2.3439
0.418099
2.89209
-0.898712
1.52215
3.2451
7.66788
-5.9024
-1.94654
0.948584
3.09526
1.18213
-0.935324
0.82473
1.20692
-1.23055
3.24806
0.841888
1.86477
-0.0272174
0.956033
-4.00592
1.6167
1.45648
6.77901
-5.92133
-11.572
4.27836
10.0845
-11.1719
8.83781
17.4891
-2.04765
0.95663
-1.72355
4.13783
1.40937
2.16975
1.16666
0.865223
-0.14618
2.32095
1.53709
0.0595543
-0.383524
-0.644586
2.72302
1.86378
0.202418
0.905818
-1.43339
1.13966
3.48984
2.89881
0.933137
0.981269
-0.803759
-0.08115
3.47621
-1.21554
2.34916
2.94948
-1.8608
-0.40017
4.00506
-5.36121
3.68623
-2.8054
6.27672
3.92974
2.04886
0.373282
-1.56687
3.39463
-0.794536
2.95227
-1.04913
2.29464
0.730476
-0.354965
1.28919
-1.10169
3.30494
1.26178
0.964311
2.41767
0.0748861
2.28935
0.215858
-0.89829
-0.0123874
0.805698
2.74638
4.0952
-8.7603
7.27865
-5.49341
22.8794
-23.5405
4.50897
-4.77935
-0.835793
0.532706
7.1757
5.36218
-10.9663
11.7317
18.2479
-7.41484
8.97529
-2.12908
-5.04343
5.25471
6.8984
5.96453
-4.79681
-0.84016
6.14811
-18.4038
-5.95443
17.257
0.279347
-0.879441
1.86076
2.99815
2.19304
3.0815
-0.912991
-0.0217888
2.58349
-0.431744
2.04901
0.0436965
-4.61787
-3.1545
6.11757
4.54642
0.434778
3.04283
-1.06209
1.53072
9.88973
8.85846
-8.86976
-8.27163
-7.61679
10.531
10.2003
-5.22061
-6.66719
0.681808
7.35575
0.382069
3.40258
-1.52894
-1.04135
4.08683
-0.24867
2.7519
2.19229
-0.827471
2.25249
-0.161764
1.97378
0.106837
1.99729
3.11077
-1.07559
0.0821743
0.850136
-0.46301
0.851571
2.14446
1.16826
4.54008
-2.13916
1.36095
1.44933
1.32943
1.04361
0.218837
1.04792
1.56239
0.18384
1.10136
3.38935
1.48953
0.491596
-1.30504
0.481236
0.989545
0.832903
0.549661
0.178506
-0.266945
1.42606
2.00136
0.85932
1.3158
1.11182
0.305484
0.750061
0.463004
0.956511
0.727561
3.10248
2.51768
-0.492081
-1.15532
2.24936
-0.875987
3.09971
-0.000213756
-0.140438
3.13376
2.40651
-0.737699
1.74365
-1.76507
0.464017
4.04398
-1.83042
4.18049
3.7784
-1.32942
5.83629
1.07153
-2.15817
1.94307
0.925341
1.48781
0.428021
0.0890124
0.806209
0.453997
0.663589
1.14061
2.25038
-0.507187
-1.14383
2.96206
1.25131
4.12189
1.08064
-1.79938
1.48069
-1.25041
3.29894
0.496465
-4.72193
2.30452
0.563959
7.75973
0.862971
1.54047
0.194907
1.05726
13.3953
-13.7455
-14.7612
12.7635
-12.6079
17.5768
1.96596
2.50378
-0.242438
-1.91026
2.63694
4.30503
3.02951
-0.702086
-1.60326
4.14904
1.93237
-1.3115
3.49141
0.0666073
-1.2926
-1.1515
1.4024
1.32265
5.45931
-1.07734
-3.60927
2.50291
3.23385
3.43263
-0.970141
-0.785894
0.603607
1.49463
0.298531
1.29716
-0.033268
-0.866089
2.20537
3.10493
-4.04223
0.626601
2.32773
8.21684
2.47226
0.608724
1.40505
-0.490356
2.19991
-0.127462
1.92741
0.00320405
1.34632
0.494847
1.379
0.240467
-0.144231
3.45892
-1.15861
2.17871
1.01394
3.52526
1.32459
-1.17439
0.848038
2.03441
0.0411025
0.017844
0.698365
0.0115716
2.06398
1.31289
-0.55523
2.64906
2.6376
-0.440856
0.26866
3.19385
-1.02692
1.88885
-0.349722
2.98004
-1.70634
1.74203
-2.60311
3.32919
5.53188
-0.164659
2.38624
2.05949
-0.57271
-0.140236
-0.560591
0.13026
1.49126
2.07846
0.0772827
-1.43234
3.62568
2.00681
4.07764
-1.82273
-1.27713
4.92548
3.30177
-1.92856
-1.94467
3.20839
-0.912933
2.39747
-0.27539
3.04951
2.40112
-0.798131
-1.33004
2.83599
0.91976
-1.12139
1.30475
3.3073
-0.665807
-4.9384
9.30764
6.01873
1.59786
-2.69843
1.19877
5.68819
-7.85016
9.29937
-10.5415
6.63764
-0.766346
-0.428918
3.02229
2.70012
1.57539
-0.315215
0.656343
1.918
-0.29361
2.53372
0.776761
1.00574
-1.11916
0.0143094
2.25839
3.39836
-2.20424
1.42215
4.06458
0.252708
-2.64503
2.73793
4.73699
-0.534772
0.299576
-0.0312279
1.9231
-0.00644122
6.11158
0.72359
-3.70559
1.31328
1.41484
1.1481
1.1544
0.915846
-31.3533
5.11121
-7.91703
29.4669
5.2437
2.35841
0.260756
-2.37154
1.20752
1.11431
0.587721
0.542205
6.02838
8.5077
-5.28267
-1.56871
2.96056
5.10998
-2.21986
-0.483588
1.83487
0.0974942
0.192047
1.84297
-1.27952
-2.01421
4.65558
3.96812
0.974256
-1.57487
0.97725
3.69088
-18.4197
8.97739
-8.70856
20.2564
1.86505
2.18792
-0.438255
-0.161591
0.756243
-0.685302
1.1132
2.60406
-0.618167
2.77862
2.05221
-1.37275
0.14074
3.56857
-1.24625
1.93063
-17.908
-12.856
11.2441
17.0267
0.0556647
2.81497
2.31678
-0.608614
5.43288
0.184421
2.86817
-2.64309
-0.311631
2.47635
-0.314575
2.4911
-0.0235553
2.23392
-0.213948
1.99802
3.07888
0.618476
-1.18594
1.42716
20.541
-19.0121
-4.80718
6.16059
3.86457
3.05704
-1.46916
-0.763707
4.44152
0.602545
1.72631
-2.20453
0.270072
2.34737
-2.60285
5.28531
0.96459
-1.02545
3.05543
1.27409
2.74345
3.00423
-0.893437
-0.682293
0.506504
1.8392
-1.89369
4.30285
-0.0189937
2.27497
-1.22946
3.40249
0.241714
-1.27532
1.36055
2.93558
1.44277
-0.33501
0.0429221
2.28142
3.67035
2.46343
-0.2775
-1.53531
1.18608
-0.588848
0.489274
2.38804
-0.0621691
0.868599
1.1602
2.09267
-18.1516
27.0883
-29.1463
15.8605
0.711732
1.87621
-2.24064
4.90518
3.80144
2.10029
-1.60295
0.203331
-0.739999
5.41035
-2.31346
4.29937
-13.8132
18.1839
-10.7665
14.0266
0.212466
-12.4326
3.89952
16.8154
-2.14065
2.35138
3.99267
-0.564559
-0.237154
3.37066
2.29045
-1.12698
-3.70416
3.73489
-1.71401
5.80979
1.55944
-0.985322
0.370825
3.16039
0.454856
1.25533
0.752191
0.983172
-3.13095
2.18451
4.32981
-0.844355
1.53716
2.87363
-0.823778
0.832538
0.923982
0.934327
0.711432
0.972371
2.94033
0.0548285
1.66517
-1.26343
12.5851
2.45283
3.52056
-6.99763
-2.72306
3.37519
-0.341065
5.46241
-0.26788
-3.16919
3.50814
6.84174
-6.62969
7.34178
-4.78934
11.5978
4.2249
-10.5578
9.32936
-4.89849
8.174
-2.83952
8.19571
-1.81527
-2.81459
3.27623
5.56808
-4.95607
1.09471
0.941115
0.450563
0.721505
-0.0935015
4.54033
-1.92485
2.64845
-24.0884
-5.04915
23.6533
5.25823
-1.53805
3.64283
-0.351852
2.47644
5.30755
-2.56956
2.90378
-0.200908
0.897912
1.17847
0.609797
1.25358
3.77034
2.07331
-1.36004
0.364806
1.71239
0.674299
0.080156
0.44983
-15.7856
-21.4002
15.9278
21.313
1.97032
3.82739
-1.35703
0.297893
3.18667
-0.815555
-0.570692
3.02612
2.76527
0.624485
1.39541
-0.298544
3.29396
2.64325
-0.959138
-0.582625
1.81787
-0.93723
0.563241
3.36921
0.261786
2.27275
1.81762
-0.327975
-7.54661
9.13372
9.45001
-7.72744
0.707237
4.23997
1.06735
-2.75794
-3.10637
2.59284
5.62317
0.0714375
-1.99162
-3.5039
3.25907
4.77971
2.2554
-5.82603
8.55543
0.503986
-0.906301
-2.80374
4.5699
2.97408
0.340299
3.36452
7.25158
-3.95597
2.17591
-0.129716
2.31735
-0.293795
2.75127
1.99465
-0.152476
-0.829269
-2.1778
0.652618
6.11125
2.49363
2.09004
-0.45927
-0.593761
2.22067
-2.256
3.17121
5.42041
-0.364607
2.74265
0.232059
1.6475
-0.735749
4.7229
0.408689
2.16932
-2.24037
3.97476
1.23897
-2.17885
0.791227
-0.0600332
2.3701
-2.04098
4.38335
-0.47007
0.613005
2.67899
1.46383
1.48662
1.62096
2.69844
-0.454005
3.88668
-1.05409
-1.42115
3.40329
2.4004
-1.30406
2.82408
-0.794737
0.842439
4.38173
1.54033
-1.97301
-1.37884
3.38668
2.37977
-0.325584
3.19343
-1.23651
1.36014
0.470881
-1.03516
2.99499
3.1617
-0.748134
0.670669
1.63521
3.30988
-1.09041
-0.434602
0.196383
2.41272
2.14453
1.51303
0.689116
-10.2991
12.5469
-0.335037
3.07207
2.33383
-0.938336
-4.98153
6.12217
5.13786
-4.36907
3.8852
-7.75686
-2.65971
8.50858
2.76625
0.630703
-0.554782
1.33881
5.17903
-0.130419
0.733406
5.90207
3.24254
0.300691
1.41539
6.35174
-0.654544
9.45112
2.74275
-7.81782
-2.88515
3.36264
5.45293
-0.811623
0.820326
0.426172
0.941393
1.21399
1.15015
0.640068
1.07121
0.546402
-5.44123
0.841387
5.86315
-0.0540896
2.5755
1.8673
-0.627545
0.278821
1.855
-0.29623
-0.0560391
2.11806
-3.09669
1.63605
4.33219
8.70189
1.35184
-3.31545
1.52412
6.41451
-1.78651
3.12762
4.40421
-0.634551
-3.18317
6.09027
-0.397697
3.49262
3.18326
2.07939
0.0784272
-0.964718
-0.58376
2.9055
-0.666326
2.95707
1.65093
-3.7405
0.278528
5.77529
2.96879
-0.148757
-0.955858
1.98615
0.952473
-1.19536
3.45193
1.05592
4.43723
-2.16127
0.913282
1.36335
-1.50776
1.00729
0.320203
2.81346
2.7162
-0.631256
-0.532066
2.64382
1.57519
0.617148
3.4442
-1.17203
-0.0731191
-0.955411
2.68346
1.75919
0.432074
1.50552
2.15257
-0.180348
1.37275
-0.75474
0.919695
2.9204
-2.47826
3.88558
-1.68157
4.63633
3.02203
1.24898
0.470361
-1.13377
-1.05308
3.05387
2.67568
-0.61502
2.16082
-0.910854
-0.324616
2.71596
-0.562408
2.74199
0.0893002
1.88125
3.79027
-1.69614
-1.43233
3.97484
3.0625
-2.29259
-0.498726
4.89261
1.89025
-0.991124
0.214306
3.2121
3.16206
2.1947
0.032976
-0.997085
-0.74444
2.88607
1.25787
0.975477
3.49137
2.03252
0.00373091
-1.47809
8.98325
0.81301
-3.95939
3.21983
1.59372
-1.34933
-9.20871
9.34513
4.58056
0.665877
1.60434
-2.33754
1.14158
2.34367
0.658515
-0.512693
0.538714
-0.425775
2.3701
1.3219
1.5634
-1.12998
3.35581
0.591135
-4.20829
5.6551
4.088
-2.65424
2.81178
-3.95501
-9.56185
8.36741
1.20086
2.12696
0.581283
-0.33484
1.20024
-1.0318
1.12178
3.27076
0.204231
2.3944
1.81317
-0.303524
-0.871786
2.06157
3.1453
0.0897532
-0.26485
3.01039
2.17254
-1.18207
-0.292561
2.42044
-0.0834984
2.05663
11.5874
-5.39454
-5.23156
9.8001
-0.896355
0.287709
3.16272
1.95793
2.74505
-0.169287
-0.495629
2.37915
3.87671
-1.49956
3.30258
-1.10641
3.0034
-0.540213
2.858
-0.561172
2.71674
1.30347
-0.676472
0.702128
1.14072
3.19969
1.06195
-0.979577
4.29032
-1.79564
0.33835
2.27903
3.29025
-0.935585
2.55763
-0.286537
-0.175225
1.16243
0.714752
2.05184
1.09633
3.63576
1.23221
-1.32949
3.63125
-1.45893
0.599157
1.50997
2.90922
-0.622844
3.97907
-1.70434
-3.31169
-2.74047
4.43588
4.9011
-0.533325
3.53968
2.76325
-1.30275
-0.151692
2.19131
1.66033
0.290282
-0.261253
2.31249
0.871049
1.16788
-1.07284
3.89334
-1.77195
5.11392
0.365164
2.39491
1.53426
-0.420843
3.03014
-0.767761
2.53426
-0.243137
5.5151
3.44639
-3.16345
-0.992449
4.40618
3.17855
-2.07078
-0.881451
-1.86991
9.95176
-11.0678
0.318082
3.47415
1.61015
0.568322
-1.22999
0.405672
1.33637
0.890246
0.00239771
0.504201
-0.0030903
1.04103
1.65342
1.1984
-0.00911653
1.01978
0.222479
1.14007
-1.37647
1.09547
3.66692
-1.06136
0.463535
0.734264
2.30991
2.0417
-0.101934
-0.907043
1.24914
1.49736
0.46422
2.66071
-0.644275
-5.28692
3.62386
6.44159
-2.2141
3.75779
-3.70313
7.18195
-6.86104
2.08553
0.640056
1.14264
-0.216925
5.58957
-0.427406
3.68887
-2.92782
0.245696
1.70427
0.303125
1.39991
0.526004
2.81942
1.61624
-0.709575
0.734537
1.34414
0.475106
1.06425
2.87915
1.30247
0.825018
-0.830774
1.77238
0.574205
0.113684
1.06623
-0.415473
-2.17214
3.04536
4.91329
3.11981
-2.3862
3.94501
-1.50688
1.58844
0.713605
0.266014
1.14196
1.39283
5.22012
1.23274
-2.56149
1.99025
-0.609477
-0.0684566
2.59804
2.53748
-1.96153
0.204639
4.99667
-2.14482
-1.13838
4.3416
5.81558
-0.437469
2.39575
0.712889
1.40916
2.22006
0.0445187
1.9827
-0.0739113
4.41919
-0.528002
4.96877
-2.0837
3.39642
3.99366
-4.08393
-4.8539
4.71435
-2.26215
2.68539
-0.275039
2.00023
-0.686424
0.116881
2.66682
3.037
0.619942
1.64951
-0.83747
2.50289
0.590899
1.40882
-0.556436
2.25635
-0.10295
-0.187829
2.21141
-1.19953
2.15649
3.61323
0.212254
-12.5977
12.9916
10.2786
-10.912
3.3367
-0.820815
-1.47573
2.84409
2.4436
-2.10887
-0.835792
3.77221
0.127828
0.665316
1.73991
1.07935
-0.693266
1.74195
-1.61226
2.75527
4.03389
-1.21787
-1.70574
4.29504
0.141305
2.80018
-0.719369
1.89075
5.06299
0.26893
2.31467
-2.3974
0.0950493
1.69168
0.212552
1.57858
3.32688
-0.804306
-1.8894
2.27844
1.56165
-0.840768
2.76922
0.394573
-1.54066
3.83841
-0.209019
2.47313
0.0256212
1.67023
0.330369
1.23065
-1.1718
4.41145
-1.75489
3.92839
1.75297
0.546042
1.32088
0.194853
-0.110291
2.20562
2.4062
-0.455117
1.07416
2.0659
0.855502
-0.102579
-0.851115
1.26104
0.576024
2.86033
-0.766627
-1.21134
3.51494
3.04417
0.0720401
0.0578606
1.36789
1.44349
-0.0835719
0.92407
1.74713
0.682284
1.8021
-0.0491308
0.369255
0.98806
-1.86839
0.922763
0.197306
3.05515
2.2474
5.10078
-2.32311
0.524195
14.6063
-8.82588
10.6441
-5.93463
2.22512
1.23736
-0.275525
0.398352
4.86537
-14.0096
19.316
-0.0756623
-5.9186
-1.31491
9.23641
4.70158
2.8776
-2.55982
-0.253488
4.93443
1.34602
0.457095
-1.01641
2.86352
1.0935
0.919416
-0.543426
2.63993
0.312964
1.34734
2.54807
-0.728927
0.529893
0.384469
1.52346
1.25559
1.60072
0.860956
0.176442
0.941534
0.748354
1.16387
4.84617
-2.06649
1.66277
2.11517
-0.00492186
-0.372868
3.25384
-1.00123
-0.866227
3.3933
5.46608
16.6855
-11.2615
-0.404179
-1.90766
3.79225
3.94848
-2.16131
-17.9223
6.68829
16.7543
-9.26008
4.94645
2.80751
1.60844
7.15671
3.05028
-0.594804
2.72026
-0.760197
0.199092
-2.21061
2.76916
5.0098
1.95138
-1.31208
2.61031
-0.677668
1.67698
-0.801758
2.87977
0.545577
-1.07761
3.41767
0.378708
1.84857
0.318707
1.16649
0.484161
1.15441
-1.3362
4.25318
-1.74654
4.25807
0.215493
0.580643
1.22209
1.02467
-1.84912
4.0218
-1.43033
4.66467
1.85485
-0.518248
2.49844
0.334555
2.03951
-1.72829
4.12887
0.249956
3.22961
3.57762
-1.00063
-1.33339
-0.425823
0.653606
2.53672
1.38982
0.602795
1.04277
-1.04074
2.70649
5.05542
1.85725
-3.08791
0.300269
3.27968
1.34659
-1.16691
0.698896
2.49512
-2.16292
3.83603
-0.650961
5.58012
-4.14463
0.48466
1.02618
3.49757
0.582525
1.59151
-1.51529
1.43732
-0.103839
-2.19006
3.61795
0.192441
-0.205816
1.85289
2.30826
-15.9545
-3.68911
15.0168
3.57204
2.6665
-0.495629
2.17887
-0.0731831
1.35863
0.406168
1.99197
-0.190409
0.0773884
0.108312
1.75777
1.71509
0.886866
-0.437936
2.60979
1.17191
1.95715
0.335484
2.53247
-0.512653
0.596031
0.504732
1.50938
1.14881
-21.7434
13.2571
-10.847
21.9873
0.314351
0.39428
1.50896
1.16008
1.90023
-0.175308
-0.356656
2.22762
1.57318
-0.208742
2.24621
0.610017
0.259391
0.265981
1.31776
1.21704
0.309353
1.97187
1.86495
0.211509
-0.137367
1.5048
2.11245
0.398627
-0.745933
2.34771
3.06914
-0.139205
0.899856
0.155629
0.564452
1.34203
1.08195
0.863649
2.97189
-0.836721
-1.5206
-1.57188
6.2104
6.09048
-0.552129
-0.135821
2.30325
2.66489
1.14499
-2.12756
4.60474
0.978175
-1.20782
0.172049
1.99211
3.27117
0.204857
1.54276
0.476987
0.972867
-0.8829
3.08839
0.696168
1.6352
1.56233
0.0813363
0.7892
0.733621
-0.583609
3.07861
-1.14692
2.43795
2.00999
-0.102408
-0.993934
2.97883
-0.448306
3.45459
-1.066
2.71291
-2.14649
0.908993
1.56045
4.63356
-7.2953
-23.3056
7.52761
24.4419
0.190867
-0.408988
5.37313
4.74575
3.81655
-1.6176
-0.195262
2.14467
5.184
2.20773
0.657156
-2.63554
3.2296
3.63345
-0.952205
-1.4224
-1.13717
2.53658
2.61935
5.7776
2.95938
-3.32797
5.1312
-1.24518
-0.127208
2.77265
-2.10736
5.12467
-0.591482
-0.258915
2.68946
0.986701
1.9956
0.658116
1.35989
0.138882
-1.90234
1.46564
-0.235708
3.06477
-2.41834
1.80639
0.830967
5.46228
-0.67344
2.48904
0.893503
0.920567
3.38604
3.09439
-1.25225
-1.09257
-0.884606
3.10147
1.92256
0.337459
2.45047
-3.86041
-0.650715
5.54881
-1.53676
-0.64465
3.53407
2.85027
2.45813
-0.00814475
1.99502
-0.447344
2.23767
-0.573835
2.78914
-0.354896
-0.566026
1.73861
0.63782
2.86747
1.86171
-0.841419
0.203505
2.87033
3.74356
-1.61049
0.599328
1.48559
4.53447
-1.81289
-1.24973
4.73604
-0.223315
-0.276772
2.1756
2.35614
1.65339
-0.514168
2.65638
0.387145
-1.11974
1.81734
3.50913
0.461659
-0.996837
-2.01441
3.42198
4.5887
-0.987681
1.02756
3.21472
1.14297
2.59933
-1.06531
2.04327
-1.53347
-0.692235
-2.19938
3.93246
5.07495
1.8275
0.932584
-2.90121
5.69823
1.36746
-0.216664
2.39522
-0.151007
3.78477
-1.38609
3.53448
-1.91362
-0.230548
1.23802
2.24403
0.717498
4.15891
-2.04385
1.41533
0.561956
3.64715
-1.54087
1.85008
0.555795
-4.33591
-4.10152
6.29188
6.12633
4.37239
-2.12913
1.58368
0.607211
0.501962
-2.04035
3.605
1.2861
-2.61493
7.86805
-4.47747
5.6616
-0.637831
3.64716
-1.63547
2.32038
2.31388
5.12933
-2.31132
0.345313
-1.68669
4.02887
1.37429
0.772074
-10.6017
5.75918
-6.09748
11.4967
2.49675
0.985284
0.970114
-0.431446
-0.259379
1.66968
2.31495
0.381706
0.368456
0.139228
1.75487
1.38735
0.965482
0.921863
1.97937
-0.135812
3.35687
-1.8796
2.32375
-1.02749
-0.264924
2.34466
2.75397
-0.620557
-2.04136
4.05975
2.24785
0.137576
-0.927493
3.03115
1.9523
0.0262223
0.898512
2.02043
-0.242874
0.876024
-0.419917
1.76509
3.65319
-2.25678
3.00687
-0.752988
5.12777
1.8857
2.42846
-0.55827
2.72445
-0.362675
0.147895
3.03599
1.69911
-0.532366
1.35691
0.716556
0.750113
3.3984
-0.726608
1.87696
0.529308
2.98259
2.51348
0.803832
-0.576159
1.53737
-0.104905
2.06535
-0.0184717
2.33995
0.56017
-0.724711
1.53386
2.8207
3.45213
-1.56175
0.670304
1.04528
2.17468
-0.083314
0.576424
1.37969
-0.443939
-0.773052
2.92506
2.59972
2.01381
0.217684
0.132484
1.89267
4.20889
-2.53968
3.92153
-2.83745
2.27384
3.16018
-0.0321351
-1.07622
5.53638
-0.523035
3.91052
-1.17433
2.22544
-0.395057
-4.87033
6.34858
-2.29683
2.9514
-0.772648
4.67706
-0.624399
3.0823
2.62851
-1.12688
3.72335
1.21197
0.75021
-1.78292
1.28012
3.32432
-1.35915
0.598912
-6.05182
3.76217
-2.32327
7.64701
2.90164
-1.85524
4.77694
-0.449249
5.54841
1.06186
1.61906
-2.74553
-3.97707
1.95832
1.24078
7.17324
1.53591
-0.014823
5.11304
3.40024
0.207516
2.8023
1.45441
-1.12731
1.49433
-2.07069
3.8926
0.295442
-0.638425
1.05032
2.80203
1.08296
3.19499
-0.242817
2.53774
-0.912719
-1.29669
1.46526
3.57065
0.72697
0.406208
2.59101
-0.482835
1.81875
0.450314
1.98483
-0.0506121
1.85459
-4.76623
7.38409
6.56683
-5.19726
0.510948
2.0019
1.46694
-0.00262613
0.450077
0.247011
1.53571
1.75861
0.369082
1.71818
2.72981
-0.624695
-0.119141
2.10437
2.19779
-0.0143028
2.13984
1.99868
-0.209246
-0.309265
1.445
-0.713933
2.52643
0.360318
-0.353229
2.35203
2.35145
-0.365755
-3.14283
2.69272
0.21126
6.13328
5.38085
-1.20336
4.70402
-2.21264
3.9123
-0.695902
1.76529
-2.74279
1.57635
0.295747
-1.45734
3.50284
0.766735
0.251148
1.57067
0.908293
0.537618
1.52045
1.32304
0.402583
2.64832
1.73714
-0.0350223
-0.9141
-1.17355
5.59018
-2.5859
4.3531
-0.112316
2.19294
3.3417
-1.30351
-0.579068
1.21861
5.58326
-4.45137
1.6065
2.26
6.50176
-2.67465
-2.81216
2.47042
0.503617
5.95158
-0.627204
1.67661
3.93195
-2.80635
-14.2369
22.4994
12.1908
-24.5815
0.64946
1.97844
5.69481
5.1816
-0.981035
3.32307
3.42939
-1.13712
0.710317
4.76902
0.618786
-3.20859
-1.05669
3.13942
1.63924
0.327165
3.29603
-3.43317
5.08367
-1.82113
4.05856
-1.0248
-2.43441
2.32321
2.88767
-0.525825
2.33843
-1.16548
3.12573
1.35797
-1.0099
0.746834
2.60612
-0.57682
-0.976062
3.12742
1.7157
-5.21031
5.4926
-1.53791
1.3862
-0.380713
0.652855
2.29242
-0.165998
1.77905
-0.64183
2.07436
-0.798523
1.41532
0.120864
2.24364
-0.00254599
-0.262501
2.32375
2.49502
-0.0493161
1.9736
2.15791
0.0431197
1.70327
2.60634
-0.552304
0.277758
4.68202
-2.34225
1.10007
1.16814
-2.9916
-9.05808
9.89554
4.0525
0.0495413
-1.6994
4.06558
2.29353
0.404559
4.08206
1.99772
-1.91666
-3.88163
5.50921
-4.3058
5.0763
2.14886
1.18593
-0.406887
1.08285
2.23245
-0.149729
0.47968
1.62672
-1.32902
3.67582
-2.18216
2.76626
-1.70293
11.6897
5.31653
-7.5824
-16.4762
6.38974
-4.73861
17.719
-1.51606
-0.908079
2.64375
3.3843
4.76957
0.201724
2.34866
-1.73048
0.889691
-3.3321
6.43626
2.07533
7.43926
1.02808
0.220289
-6.44805
3.84798
-3.71486
-2.90744
4.67779
-0.932701
2.20022
3.05228
-0.187061
0.934607
0.716717
0.0814361
1.63682
0.0578192
2.41783
1.90039
-0.356892
4.44319
1.46321
0.509804
-2.55962
-0.581173
2.8078
-0.201976
2.5466
0.763652
-0.460557
1.38305
2.50117
2.45538
-1.434
3.50208
-0.473713
3.50111
-1.47299
3.97859
-1.11502
0.131871
2.10949
1.75017
-0.203902
-26.5392
7.53389
-9.64967
25.1287
2.31325
-0.280166
2.33396
-0.282849
0.435568
3.46465
-1.66402
1.43018
2.71613
-0.512882
1.3977
0.784238
6.79592
1.3899
-2.83757
2.65546
0.877064
-0.204116
2.18677
1.12673
2.02652
0.243815
0.0916967
1.58083
1.98241
-0.701978
2.63928
-0.0398404
2.64665
-0.726259
1.95141
-0.0570771
-9.90709
11.798
15.5814
-3.60641
-2.33359
4.22016
-0.768519
2.91171
5.25458
-2.26173
3.74969
-1.17441
5.3279
0.431693
-3.49232
1.89294
2.13758
-3.71887
-0.419304
5.54078
-6.95408
-22.3305
5.67758
19.9645
-2.27004
2.10122
4.39738
0.320897
-3.46714
-2.24119
4.81668
3.59013
-4.23001
0.394139
2.44368
8.07438
1.68199
0.234866
1.55543
0.317497
-4.03124
3.91486
-3.32697
4.31249
-1.22835
2.73807
2.68303
-1.05633
0.684204
0.17347
1.62221
0.964927
0.342171
-1.72735
4.20716
2.08876
-0.943251
3.76142
3.16364
-1.35022
-2.90212
3.20373
-0.879576
5.04339
2.72367
3.74797
-0.524131
-1.52749
3.09245
3.55744
-0.83934
-1.16307
-0.0828038
3.97444
-1.89925
1.99799
1.83044
-0.0383285
0.879211
1.09116
0.0648357
-1.38821
3.75885
2.14576
-2.72134
1.27257
1.14135
4.7552
-1.09697
-0.818214
3.39164
3.54406
7.86683
-0.239946
3.59653
-3.63394
2.12158
3.85697
-1.72142
0.22991
3.06421
1.60405
0.412897
-1.00322
1.15331
0.721631
3.2656
-1.31399
-0.679036
2.35372
2.96244
-0.188394
-0.644437
2.54627
2.87352
-0.265905
0.231086
21.8157
5.64456
-15.7504
3.16136
0.0703185
1.80038
-1.32002
2.3305
-2.86413
5.54829
-0.306363
0.687696
3.93796
1.34539
-1.65357
-0.80857
5.60068
-2.46116
3.69824
0.477755
1.40512
0.461093
1.4565
1.67826
0.133126
1.18664
0.618986
-1.66331
2.39144
-1.58512
2.58313
4.73453
-1.52785
4.52999
-1.27996
4.07188
-1.83585
-0.125465
2.38969
4.89229
1.28017
-3.71692
-0.366425
4.47475
-1.19394
-2.08813
3.4337
1.49663
5.99787
-0.279023
-4.00975
-1.81952
2.04628
3.89489
-0.0846539
6.75958
-4.65412
-1.96693
4.36127
0.108179
3.84106
-1.74501
1.80453
3.0296
-1.4412
-4.38829
5.84905
-2.63528
0.711241
5.75975
2.22184
9.12565
-14.29
-7.80867
16.1145
-0.450101
8.4227
5.13441
0.550536
2.5893
-0.277219
2.07126
-0.711999
2.75381
1.36416
-0.707599
0.594398
2.36859
4.38592
-3.29319
-1.29621
4.37818
4.59014
-1.36051
-0.955993
-0.0449786
3.79131
-2.14621
1.62066
2.09834
5.30785
0.695671
-2.5341
5.80339
0.204876
1.79209
-3.56356
-4.41992
2.86609
6.26457
-1.00366
3.90581
1.37262
0.686754
-1.97831
0.331922
2.59283
1.82519
-0.447634
-0.306151
2.00203
0.148166
2.47231
5.92076
1.44241
1.7422
-2.66917
12.8834
-21.2205
19.8251
-14.29
0.779584
-1.07838
3.36639
1.51261
1.76324
0.184703
2.30715
-0.120124
2.67503
1.41422
1.01519
-0.452967
-0.386405
2.53861
2.97781
-0.77776
1.68242
-1.2945
0.528652
3.46177
0.164735
1.70247
-1.18872
3.3106
-1.10082
0.926387
3.29842
1.27142
1.90515
0.548342
0.0164842
1.80821
1.9303
9.17511e-05
2.01249
0.0632311
2.46415
-0.0835531
-0.321747
2.21761
-1.40992
3.92949
3.53603
-1.65087
3.53732
2.0318
-0.707016
-2.42601
-20.3671
8.21274
-6.4395
21.8268
2.20565
-2.4511
4.57546
0.0191129
0.430192
1.53144
-1.44577
3.59552
0.637135
-1.33657
3.48678
1.59564
1.7983
0.476828
-1.90448
4.19106
-0.593749
1.15991
2.71312
0.613216
-0.944647
3.03358
1.39757
0.60498
3.74821
-1.59843
0.783068
1.51931
1.79286
-0.315242
3.79828
-2.45536
-1.21796
0.356534
2.02967
3.46657
-1.61891
2.90584
-0.604124
4.01171
2.74701
-0.625361
3.10065
-0.892963
2.77023
-0.0541694
-0.676818
2.08252
0.468363
2.14695
-2.62712
5.34267
8.05677
1.54559
-5.6121
1.44104
5.86153
-2.77921
4.6274
-3.82654
-2.12118
-1.01251
4.68955
3.69334
-1.5977
3.77674
2.92671
-0.703306
5.94272
12.0167
-7.87857
-2.26991
3.22654
6.85475
-0.693442
-3.39382
-3.36011
5.51369
4.6102
-4.58367
-0.0132098
-0.146767
2.05141
2.13415
-0.757361
2.73517
1.57356
0.405735
0.353793
1.7846
3.94728
-1.69523
-2.58163
1.12135
5.14501
1.48829
-2.73631
-0.185835
2.87537
5.4498
-2.5154
2.51497
4.43277
-0.702693
2.13925
4.06553
-0.0114589
-1.9248
4.50275
1.13851
1.2354
-2.17409
3.6835
-0.702881
1.36829
5.74786
-1.01164
0.870055
3.01586
1.11125
2.06621
2.37751
-0.353335
0.0758815
-0.727276
2.78347
1.29071
0.532839
3.88579
-2.16783
-2.60345
3.34693
-1.49035
-0.328162
2.03565
3.32816
2.36293
-0.359743
-0.548024
2.23103
0.400677
2.24858
-0.280796
1.65002
5.16002
0.955468
1.83839
-2.44057
2.13382
0.849986
-0.181429
1.06518
-0.336818
1.78068
2.3547
0.160547
-18.7626
-18.2016
15.1516
17.2836
1.07542
-0.385112
2.16541
0.693319
-1.6797
0.405393
1.77259
4.08098
-1.30831
2.96964
-0.738092
3.42982
-1.46368
3.03889
4.17675
-0.608949
4.55186
-2.69867
-2.62559
4.82802
5.90435
-0.735312
-2.49438
3.56269
5.84673
0.34174
2.56109
-2.42034
3.04174
-1.11948
3.48307
-0.703009
0.471315
1.44082
2.76585
-0.751641
1.51695
-0.436271
0.511772
2.51322
1.81472
2.44316
-0.272006
-0.364327
1.75057
0.257459
0.0391096
1.53328
2.07225
-4.11144
-0.230115
6.48938
0.159875
0.728131
1.04699
1.56922
1.47426
0.43118
-0.103212
0.943775
4.11382
-1.34441
-2.15787
4.9365
0.227645
1.33993
1.21856
0.0662243
5.70916
0.211132
2.54509
-2.89454
-27.1163
0.749124
24.3377
-3.14621
-0.166336
2.40718
2.12933
-0.433053
4.82517
3.28693
-2.31768
-0.427474
2.57138
-0.550756
0.138347
1.89035
3.01505
0.395812
1.48001
-1.0346
0.919974
3.28016
0.728877
-1.53358
4.56005
0.18152
-2.11457
2.2421
7.5173
1.56963
0.885462
-4.11694
3.87458
-1.41205
3.45903
-1.17725
3.04923
-3.91521
-0.833069
5.8648
2.50323
1.15526
-0.432098
1.01708
2.79863
0.136055
-1.17542
1.4681
1.06345
-1.92848
3.4894
0.635622
-2.5461
3.6168
3.52751
-1.96586
4.22363
-0.968463
3.3798
-1.67849
-1.96136
4.32273
1.80199
0.434514
4.33983
-2.09347
1.72103
0.54583
0.757213
2.17671
-0.537588
0.953346
4.70969
3.72792
-1.03074
-1.63597
-1.72758
0.502447
1.68666
4.01892
3.54527
-1.21491
-0.630257
2.8039
-0.603715
-3.40769
6.10379
2.75091
0.63317
1.28321
2.72937
-0.75584
-2.40793
5.30557
3.31175
-4.25986
0.354175
0.793335
1.42479
0.740761
-0.1227
1.33631
1.97288
0.515486
0.102855
2.27905
-2.26434
4.56793
0.805811
1.0761
-0.80938
2.72424
-6.62816
2.69634
8.8634
0.666484
6.9867
-4.31424
7.93409
-2.71811
2.74771
4.50727
-0.260087
-2.07636
6.14337
-0.333512
1.52957
-4.3833
8.71798
-4.8717
2.08677
1.3825
2.48449
2.8699
-1.78701
-0.854323
-1.63811
7.0988
3.33627
-5.39167
3.30229
-3.11319
-0.0814867
6.75604
-1.14105
-1.41335
3.51061
3.8342
3.9649
-1.54975
-1.1601
3.57731
3.28593
-1.94644
-1.23494
3.89449
1.27446
0.352
1.81135
-0.254587
1.97061
0.871411
0.799315
-0.247076
0.0930115
2.0669
-1.40883
3.74167
-0.799964
3.01425
-0.86228
3.0751
-3.81978
-2.72558
5.10996
4.1368
2.1246
0.0728987
-0.303857
1.64348
2.91267
0.483852
1.68159
-0.810725
2.1327
-0.312125
1.60781
0.253098
2.3017
-0.333991
2.61285
-0.673056
3.6175
-1.22322
3.11678
-1.62927
5.66679
-1.42232
4.80895
-2.87176
-5.01701
6.83877
-2.8911
3.87121
0.414709
1.89487
-2.6262
5.09642
)
;

boundaryField
{
    insideCircle
    {
        type            myTemperature;
        value           nonuniform List<scalar> 
24
(
4.94639
2.38367
1.18577
7.3622
-2.62196
-0.54696
6.93262
5.18055
0.365188
-0.732089
5.46567
4.76021
-1.19386
2.08513
3.21386
6.12755
3.10245
-0.00526542
5.67631
1.97222
1.53095
-0.101955
5.23204
3.50583
)
;
    }
    outsideCircle
    {
        type            myTemperature;
        value           nonuniform List<scalar> 
124
(
2.41762
0.309964
1.81133
-0.32902
0.724801
1.42866
2.27966
1.69728
1.34252
0.161713
0.441497
2.45073
-0.146373
1.9579
1.17814
1.19969
2.44183
1.02095
1.39505
-0.810702
-0.486881
0.688074
2.54839
1.51552
1.10037
-0.262112
2.63785
-0.637189
-0.113415
-0.220569
2.44624
1.79363
2.49738
0.783644
-0.422747
1.427
1.06266
-0.115384
2.38713
0.909163
-0.476138
1.0564
2.52493
1.09111
0.207935
-0.372435
1.9187
2.61176
0.874571
-0.688103
2.75516
1.22998
1.88681
0.12063
2.30846
-0.106773
0.498444
2.0435
2.00163
-0.274969
-1.50272
-1.24624
4.04217
0.528267
2.66187
0.553562
-0.249677
1.43355
-0.398646
2.20237
-0.0337449
2.5425
2.32334
-0.269011
0.585861
1.58629
1.90065
-0.0431461
0.058059
1.94144
-0.72186
0.852196
2.84983
1.31904
0.0299881
2.57947
-0.400974
2.10628
-0.081332
-0.168414
1.94505
2.32089
1.91276
2.59313
-0.297305
0.411542
2.43396
0.760101
-0.0228205
1.00073
2.08517
-0.115394
0.551021
1.4667
2.41961
-0.479031
1.31843
0.747988
0.166105
2.51417
1.92822
-0.329366
-0.250185
2.07932
-0.014547
2.46583
2.19943
0.15927
2.42731
-0.416525
2.61164
1.14343
0.578635
-0.59292
)
;
    }
    topAndBottom
    {
        type            empty;
    }
}


// ************************************************************************* //
