/*--------------------------------*- C++ -*----------------------------------*\
| =========                 |                                                 |
| \\      /  F ield         | foam-extend: Open Source CFD                    |
|  \\    /   O peration     | Version:  3.0                                   |
|   \\  /    A nd           | Web:         http://www.extend-project.de       |
|    \\/     M anipulation  |                                                 |
\*---------------------------------------------------------------------------*/
FoamFile
{
    version     2.0;
    format      ascii;
    class       volSymmTensorField;
    location    "67";
    object      sigma;
}
// * * * * * * * * * * * * * * * * * * * * * * * * * * * * * * * * * * * * * //

dimensions      [0 0 0 0 0 0 0];

internalField   nonuniform List<symmTensor> 
7680
(
(-0.181572 -0.00349931 -1.83502e-20 0.18176 -1.88066e-20 -0.000188059)
(-0.180804 -0.0040469 5.71693e-20 0.181331 1.16352e-19 -0.000527453)
(-0.178001 -0.00445662 -1.72182e-22 0.178842 -9.7974e-20 -0.000841432)
(-0.173744 -0.00475618 -8.71823e-22 0.174877 6.23494e-20 -0.0011329)
(-0.168657 -0.00498269 1.20045e-20 0.170062 -3.72035e-20 -0.00140435)
(-0.162929 -0.00515065 -8.38144e-21 0.164587 2.42205e-20 -0.0016576)
(-0.156942 -0.00528036 2.5452e-20 0.158836 -7.0338e-20 -0.00189442)
(-0.15072 -0.0053792 9.18879e-21 0.152835 -1.57714e-20 -0.00211589)
(-0.144508 -0.00545895 8.16145e-21 0.146831 -9.33949e-20 -0.00232336)
(-0.13827 -0.00552361 1.95033e-20 0.140787 -1.93317e-21 -0.00251749)
(-0.132166 -0.00558015 -3.76666e-20 0.134865 -1.13822e-19 -0.00269929)
(-0.126142 -0.005631 1.88223e-20 0.129012 5.58685e-20 -0.0028692)
(-0.120306 -0.00568044 1.62943e-21 0.123334 -9.9059e-20 -0.00302802)
(-0.114601 -0.00573015 -3.40758e-20 0.117777 6.64335e-20 -0.00317607)
(-0.1091 -0.00578291 -2.57075e-20 0.112414 -1.20794e-20 -0.00331391)
(-0.103756 -0.00584008 4.83982e-21 0.107197 1.24259e-19 -0.00344188)
(-0.0986138 -0.00590357 -1.17036e-20 0.102174 -1.04054e-19 -0.00356021)
(-0.0936369 -0.00597465 -1.6944e-21 0.0973061 2.16452e-19 -0.00366923)
(-0.0888546 -0.00605478 1.94776e-20 0.0926232 -1.19767e-19 -0.00376866)
(-0.084239 -0.00614527 -4.35174e-21 0.0880977 1.98318e-19 -0.00385872)
(-0.0798072 -0.00624735 -3.07708e-20 0.0837457 -6.69705e-20 -0.0039385)
(-0.0755419 -0.00636239 -3.24365e-20 0.0795496 1.66044e-19 -0.00400774)
(-0.07145 -0.00649157 -3.19565e-20 0.0755149 -2.49484e-20 -0.00406492)
(-0.0675252 -0.00663622 -2.83355e-20 0.0716342 2.01636e-19 -0.00410895)
(-0.0637659 -0.00679775 2.79737e-21 0.0679036 -2.29236e-20 -0.00413771)
(-0.0601766 -0.00697723 -6.60381e-20 0.0643257 1.61569e-19 -0.00414908)
(-0.0567483 -0.00717686 1.37509e-20 0.0608887 9.64543e-20 -0.00414043)
(-0.0534961 -0.00739658 -1.10999e-20 0.0576048 1.30278e-19 -0.00410863)
(-0.0504051 -0.00764101 2.01239e-20 0.0544556 9.78159e-20 -0.00405048)
(-0.0474987 -0.0079064 -4.89414e-20 0.0514608 4.56753e-20 -0.00396208)
(-0.04476 -0.00820337 -4.46494e-21 0.0485995 5.88077e-20 -0.00383948)
(-0.0422152 -0.00851999 -3.84303e-20 0.0458933 -9.00187e-21 -0.00367818)
(-0.0398534 -0.0088775 2.61235e-20 0.0433269 3.12487e-20 -0.00347346)
(-0.0376918 -0.00925377 -6.00165e-20 0.0409121 -9.94347e-21 -0.00322023)
(-0.0357379 -0.00967877 1.31764e-20 0.0386511 1.23155e-20 -0.0029132)
(-0.0339827 -0.0101283 -7.99704e-20 0.0365296 3.19392e-20 -0.00254682)
(-0.0324703 -0.0106317 7.61868e-21 0.0345856 -1.1631e-19 -0.00211537)
(-0.0311144 -0.0111873 -3.2862e-22 0.0327273 6.33959e-20 -0.00161291)
(-0.030105 -0.0116861 -3.19387e-20 0.0311384 -9.97565e-20 -0.00103347)
(-0.0290792 -0.012536 3.21336e-20 0.02945 -1.75639e-20 -0.000370785)
(-0.181431 -0.00893368 2.05282e-20 0.18162 2.5723e-20 -0.000188258)
(-0.180547 -0.0103044 -3.82912e-20 0.181075 7.8284e-20 -0.000528026)
(-0.177657 -0.0112551 -3.42778e-20 0.178499 2.97566e-20 -0.00084241)
(-0.173335 -0.0118779 4.72287e-20 0.17447 -1.36901e-20 -0.00113434)
(-0.168201 -0.012282 -1.57518e-20 0.169607 -1.00301e-20 -0.00140635)
(-0.162437 -0.0125113 2.51423e-21 0.164097 5.41651e-20 -0.00166025)
(-0.156422 -0.0126259 -3.49833e-20 0.15832 6.90027e-20 -0.00189782)
(-0.15018 -0.0126475 -1.31744e-20 0.1523 2.38166e-20 -0.00212016)
(-0.143953 -0.0126101 -6.54736e-21 0.146281 1.46652e-19 -0.00232858)
(-0.137703 -0.0125252 8.19688e-21 0.140227 1.18041e-19 -0.00252375)
(-0.13159 -0.0124126 5.47903e-20 0.134297 -1.68049e-20 -0.00270667)
(-0.125559 -0.0122787 6.21591e-21 0.128437 7.25844e-20 -0.00287775)
(-0.119716 -0.012135 2.68379e-20 0.122754 -7.84333e-20 -0.00303777)
(-0.114006 -0.0119858 5.21382e-20 0.117193 6.50029e-20 -0.00318703)
(-0.1085 -0.0118378 3.38523e-20 0.111826 -1.56464e-19 -0.00332606)
(-0.10315 -0.011694 -6.50867e-20 0.106605 -1.47963e-20 -0.00345518)
(-0.0980033 -0.0115584 7.19726e-20 0.101578 -2.44037e-21 -0.00357456)
(-0.0930209 -0.0114336 -1.9161e-20 0.0967054 -5.34922e-20 -0.00368452)
(-0.0882327 -0.0113217 -1.05271e-20 0.0920175 9.19645e-20 -0.00378474)
(-0.0836107 -0.0112255 1.21708e-20 0.0874861 -4.80845e-20 -0.00387539)
(-0.0791719 -0.0111458 -6.48849e-20 0.0831275 1.12892e-20 -0.00395554)
(-0.0748988 -0.0110857 4.11557e-20 0.0789237 -8.61569e-20 -0.00402489)
(-0.0707987 -0.0110451 -1.15602e-20 0.0748806 4.27012e-20 -0.00408189)
(-0.0668646 -0.0110275 1.7894e-20 0.07099 -1.43715e-19 -0.00412541)
(-0.0630955 -0.0110323 -9.81312e-20 0.0672488 -7.27257e-21 -0.00415334)
(-0.0594953 -0.011063 8.82987e-20 0.0636588 -9.17805e-20 -0.00416352)
(-0.0560555 -0.0111194 -4.41827e-20 0.0602089 -1.96646e-21 -0.00415336)
(-0.0527904 -0.0112041 2.37127e-21 0.0569101 -5.54942e-20 -0.00411972)
(-0.0496858 -0.0113192 -7.24875e-20 0.0537453 -6.86163e-20 -0.00405949)
(-0.0467642 -0.0114626 -4.04688e-20 0.0507329 1.23824e-20 -0.00396877)
(-0.0440093 -0.0116448 -4.05481e-20 0.0478531 -3.30589e-20 -0.00384379)
(-0.0414466 -0.0118509 -3.93904e-20 0.0451267 -7.73455e-22 -0.00368005)
(-0.0390653 -0.0121094 3.47462e-20 0.0425383 -1.85973e-20 -0.00347306)
(-0.0368841 -0.0123841 1.88599e-20 0.0401019 -6.13558e-20 -0.00321777)
(-0.0349081 -0.0127287 1.46635e-20 0.0378173 2.51011e-20 -0.00290913)
(-0.0331341 -0.0130814 -1.272e-19 0.0356758 -2.41474e-21 -0.00254164)
(-0.0316051 -0.0135353 -3.52632e-20 0.0337149 1.17198e-21 -0.00210983)
(-0.0302329 -0.0139828 1.33194e-20 0.0318407 2.55258e-20 -0.00160778)
(-0.0292114 -0.0144827 -9.33024e-20 0.0302411 -2.5298e-20 -0.00102972)
(-0.0282038 -0.0152887 -6.98723e-21 0.0285731 2.77793e-20 -0.000369286)
(-0.18116 -0.0143689 2.18376e-20 0.181348 -5.76622e-20 -0.000188244)
(-0.18005 -0.0165451 6.7752e-20 0.180578 4.4828e-20 -0.000528002)
(-0.176993 -0.0180233 -2.0205e-20 0.177836 -2.23602e-19 -0.000842433)
(-0.172552 -0.0189594 -3.03198e-20 0.173687 1.3731e-19 -0.00113449)
(-0.16733 -0.0195337 7.15215e-20 0.168737 -1.37739e-19 -0.00140673)
(-0.161505 -0.0198188 4.71643e-20 0.163166 -1.38754e-20 -0.00166096)
(-0.155447 -0.0199142 2.47343e-20 0.157346 -1.18878e-19 -0.00189898)
(-0.149175 -0.0198555 5.97346e-20 0.151297 1.61941e-20 -0.00212187)
(-0.142928 -0.0196988 8.82587e-20 0.145259 -2.20744e-20 -0.00233096)
(-0.136667 -0.019463 -8.89659e-20 0.139194 -3.67857e-21 -0.00252688)
(-0.130548 -0.0191801 -5.46494e-20 0.133258 -1.65274e-19 -0.00271064)
(-0.124515 -0.0188608 -3.3412e-20 0.127397 7.91092e-20 -0.00288261)
(-0.118672 -0.0185238 4.63593e-21 0.121716 -6.46666e-20 -0.00304356)
(-0.112965 -0.0181755 -9.85489e-20 0.116159 6.3851e-20 -0.00319378)
(-0.107463 -0.0178267 -9.2716e-20 0.110797 7.36115e-20 -0.00333375)
(-0.102118 -0.017482 1.15963e-19 0.105582 1.09458e-19 -0.00346378)
(-0.0969764 -0.0171474 -3.33328e-20 0.10056 5.7503e-20 -0.003584)
(-0.0919989 -0.0168269 6.21962e-20 0.0956936 1.69753e-19 -0.0036947)
(-0.0872155 -0.0165232 5.82598e-20 0.091011 -1.55771e-19 -0.00379554)
(-0.0825975 -0.0162404 -8.89722e-20 0.0864842 1.37499e-19 -0.00388663)
(-0.0781622 -0.0159791 -5.30299e-20 0.0821292 -4.25134e-20 -0.00396703)
(-0.0738917 -0.0157439 -2.17611e-20 0.0779281 1.35113e-19 -0.00403639)
(-0.0697932 -0.0155336 -7.1128e-20 0.0738863 -1.07277e-20 -0.00409314)
(-0.0658598 -0.0153537 -8.40607e-20 0.0699959 6.90593e-20 -0.0041361)
(-0.0620901 -0.0152018 4.3815e-20 0.0662533 1.98317e-19 -0.0041632)
(-0.0584883 -0.0150836 -6.37936e-20 0.0626605 1.09802e-19 -0.00417218)
(-0.0550452 -0.014997 5.72298e-20 0.0592058 2.05857e-19 -0.00416054)
(-0.051776 -0.0149463 -6.93219e-20 0.0559011 4.54725e-20 -0.0041251)
(-0.0486648 -0.0149326 8.48426e-20 0.0527277 1.76611e-19 -0.00406284)
(-0.045736 -0.0149539 -7.81386e-22 0.0497059 -3.96538e-21 -0.0039699)
(-0.0429702 -0.0150217 -1.65353e-20 0.0468128 9.84029e-20 -0.0038426)
(-0.0403969 -0.0151184 -2.04565e-20 0.0440734 8.28401e-20 -0.00367655)
(-0.0379989 -0.0152767 -6.14584e-20 0.0414663 1.95078e-19 -0.0034674)
(-0.0358023 -0.0154535 4.14759e-21 0.0390125 -2.81797e-19 -0.00321022)
(-0.033804 -0.0157111 6.61355e-20 0.0367041 2.15377e-19 -0.00290013)
(-0.0320053 -0.0159721 -9.45342e-20 0.0345371 -9.55005e-20 -0.00253182)
(-0.0304594 -0.0163606 2.62341e-20 0.0325594 1.16284e-20 -0.00209999)
(-0.0290375 -0.016719 -4.22767e-20 0.0306364 1.29771e-19 -0.00159893)
(-0.0280631 -0.0171768 -2.79751e-20 0.0290862 -6.31501e-20 -0.0010231)
(-0.0269995 -0.0179912 6.98864e-21 0.0273659 1.9914e-19 -0.00036645)
(-0.180756 -0.0198052 7.21334e-20 0.180944 8.05376e-20 -0.000188011)
(-0.179313 -0.0227572 -1.00243e-19 0.179841 3.96174e-20 -0.000527362)
(-0.176014 -0.0247411 -1.24084e-20 0.176855 3.02078e-19 -0.000841465)
(-0.1714 -0.0259746 1.38804e-19 0.172533 -2.37048e-19 -0.0011333)
(-0.166053 -0.0267073 -1.20609e-19 0.167458 8.55648e-20 -0.00140543)
(-0.160141 -0.0270398 1.91572e-20 0.161801 7.29537e-20 -0.00165967)
(-0.154023 -0.02711 -2.24503e-20 0.155921 8.69299e-20 -0.00189782)
(-0.147713 -0.0269666 5.8535e-20 0.149834 -2.90345e-20 -0.00212096)
(-0.141443 -0.0266879 1.3819e-20 0.143773 -9.79895e-20 -0.00233041)
(-0.13517 -0.0262992 -7.00077e-20 0.137697 -5.55123e-20 -0.00252679)
(-0.129048 -0.0258451 1.0012e-19 0.131759 5.51502e-20 -0.00271109)
(-0.123018 -0.02534 7.76978e-20 0.125902 1.61418e-20 -0.00288368)
(-0.117184 -0.0248095 3.93043e-20 0.120229 -1.63756e-19 -0.00304528)
(-0.111487 -0.0242624 1.51759e-19 0.114684 1.27274e-19 -0.00319617)
(-0.105999 -0.0237133 7.10082e-20 0.109335 -9.44849e-21 -0.0033368)
(-0.100668 -0.0231685 -1.16281e-19 0.104135 3.32303e-19 -0.00346747)
(-0.0955412 -0.0226357 1.75849e-19 0.0991295 -2.09574e-19 -0.00358826)
(-0.0905789 -0.0221202 -2.26256e-19 0.0942783 2.2918e-19 -0.00369945)
(-0.0858105 -0.0216254 -1.5603e-20 0.0896111 -1.43553e-19 -0.00380064)
(-0.0812068 -0.0211568 1.07884e-19 0.0850987 1.41319e-19 -0.00389195)
(-0.0767852 -0.0207145 -5.94034e-20 0.0807576 -1.43337e-19 -0.00397239)
(-0.0725271 -0.0203047 7.25901e-20 0.0765687 1.2049e-20 -0.00404158)
(-0.0684401 -0.0199251 -6.91048e-20 0.072538 1.39304e-20 -0.00409794)
(-0.0645165 -0.019583 1.89117e-19 0.0686567 1.66228e-19 -0.00414026)
(-0.0607554 -0.0192743 -2.47431e-20 0.0649219 -1.19957e-19 -0.00416645)
(-0.0571604 -0.0190072 1.02412e-19 0.0613346 8.10536e-20 -0.00417425)
(-0.0537225 -0.0187768 -7.84653e-20 0.0578837 7.07905e-21 -0.0041612)
(-0.0504565 -0.0185905 -3.17392e-20 0.0545806 1.00428e-19 -0.00412408)
(-0.047346 -0.0184464 -9.55821e-20 0.051406 -1.50453e-19 -0.00405998)
(-0.0444168 -0.0183451 -1.24849e-19 0.0483818 1.05304e-19 -0.00396503)
(-0.0416453 -0.0182967 6.93719e-20 0.045481 -2.90416e-20 -0.00383571)
(-0.0390681 -0.0182825 1.00068e-19 0.0427357 4.97732e-20 -0.00366763)
(-0.0366557 -0.0183408 -3.433e-19 0.0401123 1.07921e-19 -0.00345666)
(-0.0344524 -0.0184159 -8.39098e-21 0.0376503 -1.35454e-20 -0.00319791)
(-0.0324271 -0.0185965 2.45075e-19 0.0353139 9.88022e-20 -0.00288679)
(-0.0306234 -0.0187521 -3.55825e-19 0.0331415 4.86394e-20 -0.00251804)
(-0.0290286 -0.0191103 2.17082e-19 0.0311153 7.164e-20 -0.00208671)
(-0.0276249 -0.0193002 -5.45122e-20 0.0292122 8.97172e-20 -0.00158724)
(-0.0265792 -0.0197686 -3.46699e-21 0.0275937 -9.79632e-20 -0.00101449)
(-0.0255376 -0.0203994 -8.92653e-20 0.0259004 -1.79173e-19 -0.000362771)
(-0.180218 -0.0252423 4.11539e-20 0.180405 -1.5494e-19 -0.000187551)
(-0.17834 -0.0289298 2.32414e-19 0.178866 -2.52813e-19 -0.000526085)
(-0.174723 -0.031389 -1.19652e-19 0.175562 -3.317e-19 -0.000839479)
(-0.169884 -0.032898 -1.46089e-19 0.171015 -5.04761e-20 -0.00113073)
(-0.164376 -0.0337728 2.60469e-19 0.165778 1.14131e-20 -0.0014024)
(-0.158353 -0.0341409 7.27255e-20 0.16001 -1.78461e-19 -0.00165632)
(-0.15216 -0.0341773 -1.86293e-20 0.154054 -1.70625e-19 -0.00189428)
(-0.145803 -0.0339437 -7.47547e-20 0.14792 8.78571e-20 -0.00211737)
(-0.139506 -0.0335388 7.18384e-20 0.141833 4.54611e-20 -0.00232687)
(-0.133222 -0.0329948 -1.64064e-20 0.135746 1.15343e-19 -0.00252342)
(-0.1271 -0.0323682 1.26071e-20 0.129808 -2.05923e-19 -0.00270797)
(-0.121079 -0.0316768 -2.09457e-19 0.12396 1.26651e-19 -0.00288089)
(-0.11526 -0.0309531 9.10417e-20 0.118303 -1.3944e-19 -0.00304287)
(-0.109583 -0.0302079 2.87137e-21 0.112777 1.94176e-19 -0.00319417)
(-0.104117 -0.0294595 1.23095e-19 0.107452 -1.6621e-20 -0.00333523)
(-0.0988101 -0.0287157 -3.75092e-20 0.102276 1.86518e-19 -0.00346631)
(-0.0937086 -0.027986 -7.24173e-20 0.0972961 -2.80468e-19 -0.00358747)
(-0.0887716 -0.0272771 1.51353e-19 0.0924706 1.02549e-19 -0.00369897)
(-0.0840286 -0.0265927 -7.42143e-20 0.087829 5.38249e-20 -0.00380038)
(-0.0794495 -0.0259397 -5.3786e-20 0.0833413 -4.60565e-20 -0.00389179)
(-0.0750517 -0.0253177 -2.08377e-19 0.0790239 2.18361e-19 -0.00397219)
(-0.070816 -0.0247347 1.14139e-19 0.0748572 1.75892e-19 -0.00404118)
(-0.06675 -0.024187 5.94892e-20 0.0708472 1.10124e-19 -0.00409717)
(-0.0628457 -0.0236841 -1.53054e-19 0.0669846 -1.87059e-19 -0.00413889)
(-0.0591021 -0.0232197 -5.97301e-20 0.0632664 3.02489e-19 -0.0041643)
(-0.0555226 -0.0228046 1.06846e-19 0.0596937 -5.03967e-20 -0.00417108)
(-0.0520977 -0.0224315 1.11825e-19 0.0562545 1.75631e-19 -0.00415683)
(-0.0488429 -0.0221103 -1.93216e-19 0.0529612 4.84609e-20 -0.00411829)
(-0.0457396 -0.0218367 7.01447e-20 0.0497922 3.38695e-19 -0.00405264)
(-0.0428169 -0.0216138 1.18579e-19 0.0467729 1.99374e-19 -0.00395603)
(-0.0400449 -0.021449 -1.10838e-19 0.04387 3.06644e-19 -0.00382504)
(-0.0374699 -0.021327 2.26246e-19 0.0411253 -7.39745e-20 -0.00365534)
(-0.0350465 -0.0212809 -8.84515e-20 0.0384895 2.11186e-19 -0.00344294)
(-0.0328431 -0.0212623 -9.52121e-20 0.0360262 1.16332e-19 -0.00318307)
(-0.0307923 -0.021348 1.85146e-19 0.0336636 3.1491e-19 -0.00287131)
(-0.0289948 -0.0214233 -8.66346e-20 0.0314974 -6.57445e-20 -0.0025026)
(-0.027339 -0.0216935 5.9658e-20 0.0294112 2.31348e-20 -0.00207222)
(-0.0259795 -0.0218291 -1.91827e-19 0.0275544 9.07007e-20 -0.0015749)
(-0.0247827 -0.02219 -3.73324e-19 0.0257884 -5.35419e-20 -0.00100576)
(-0.0237565 -0.0228502 1.47444e-19 0.0241159 1.66292e-19 -0.000359378)
(-0.179545 -0.0306802 2.40674e-20 0.179732 8.87234e-20 -0.000186862)
(-0.177133 -0.0350514 -2.18991e-19 0.177657 3.40042e-19 -0.000524161)
(-0.173127 -0.037948 1.72368e-19 0.173964 -3.85899e-20 -0.000836454)
(-0.168014 -0.0397046 2.17719e-19 0.169141 3.80718e-19 -0.00112675)
(-0.16231 -0.0407013 -1.95264e-19 0.163708 4.65678e-21 -0.00139761)
(-0.156154 -0.0410906 -5.08415e-20 0.157805 -7.44986e-20 -0.00165088)
(-0.149872 -0.0410829 1.38297e-19 0.15176 1.25697e-19 -0.00188832)
(-0.14346 -0.0407518 2.13947e-19 0.145571 -9.22575e-20 -0.00211103)
(-0.137134 -0.0402162 4.30765e-20 0.139454 -1.01624e-19 -0.00232029)
(-0.130839 -0.0395142 -2.60699e-19 0.133356 1.44153e-19 -0.0025167)
(-0.124721 -0.0387137 8.83731e-20 0.127423 2.32764e-19 -0.00270121)
(-0.118715 -0.0378357 1.09083e-19 0.121589 1.19367e-19 -0.00287418)
(-0.112918 -0.0369192 3.82537e-20 0.115954 1.1e-20 -0.00303626)
(-0.107268 -0.0359769 3.0477e-19 0.110456 -1.99099e-19 -0.00318771)
(-0.101833 -0.0350308 7.83755e-20 0.105162 3.15265e-20 -0.00332893)
(-0.0965596 -0.0340897 -2.37523e-19 0.10002 -8.2179e-20 -0.00346017)
(-0.0914932 -0.0331652 1.11509e-20 0.0950747 1.87261e-19 -0.00358145)
(-0.0865914 -0.0322647 5.02048e-20 0.0902845 2.07834e-19 -0.00369304)
(-0.081884 -0.0313927 -1.15299e-19 0.0856784 4.56182e-20 -0.00379446)
(-0.0773392 -0.0305573 2.45941e-19 0.081225 2.42588e-19 -0.0038858)
(-0.0729753 -0.0297576 1.0549e-19 0.0769413 2.12565e-19 -0.003966)
(-0.0687715 -0.0290031 -5.94535e-20 0.0728061 2.03102e-19 -0.00403468)
(-0.0647363 -0.0282889 -3.22125e-19 0.0688265 -1.92189e-19 -0.00409019)
(-0.0608603 -0.0276265 3.47363e-19 0.0649916 2.54664e-19 -0.0041313)
(-0.0571433 -0.0270075 9.20682e-20 0.0612992 7.60568e-20 -0.00415592)
(-0.0535876 -0.0264455 -8.15249e-20 0.0577494 3.04901e-19 -0.00416177)
(-0.0501842 -0.0259298 1.11034e-19 0.0543307 -1.29672e-19 -0.00414643)
(-0.0469483 -0.0254748 1.52092e-19 0.051055 1.32749e-19 -0.0041067)
(-0.0438599 -0.0250707 5.13956e-20 0.0478997 -9.97021e-20 -0.00403976)
(-0.0409509 -0.0247272 -6.22308e-20 0.0448927 -1.01154e-19 -0.00394183)
(-0.0381853 -0.024444 -1.06809e-19 0.0419948 -5.67425e-19 -0.00380953)
(-0.0356191 -0.0242145 -3.18531e-20 0.0392577 1.99896e-20 -0.00363863)
(-0.0331902 -0.0240621 7.55962e-21 0.0366154 -3.26559e-19 -0.00342521)
(-0.0309907 -0.0239484 8.56727e-20 0.0341554 6.65035e-20 -0.00316465)
(-0.0289168 -0.0239401 1.71176e-19 0.0317694 -3.1406e-19 -0.00285265)
(-0.0271194 -0.0239314 -6.44753e-19 0.0296038 -1.45139e-19 -0.00248435)
(-0.0254058 -0.0241185 4.46352e-19 0.027461 -1.83747e-19 -0.00205523)
(-0.0240579 -0.0241805 -6.05705e-20 0.0256182 -5.19062e-20 -0.00156034)
(-0.0227659 -0.0244777 8.0303e-20 0.023761 -4.89469e-19 -0.000995112)
(-0.0216979 -0.025092 -2.95576e-19 0.0220527 8.0152e-20 -0.000354782)
(-0.178734 -0.0361185 2.02155e-19 0.17892 -1.26156e-19 -0.000185935)
(-0.175696 -0.0411116 1.39993e-19 0.176217 2.82499e-20 -0.000521572)
(-0.171235 -0.0443995 -1.90953e-19 0.172067 -3.14495e-20 -0.000832365)
(-0.165801 -0.0463707 1.68408e-21 0.166922 -3.29604e-19 -0.00112132)
(-0.159869 -0.0474645 6.42397e-21 0.16126 1.2078e-19 -0.00139102)
(-0.153559 -0.0478576 -8.74659e-21 0.155202 4.30257e-19 -0.00164329)
(-0.147174 -0.0477932 -7.17891e-20 0.149053 8.44407e-21 -0.00187988)
(-0.140701 -0.0473563 -2.35322e-19 0.142803 1.38429e-19 -0.0021019)
(-0.134342 -0.0466844 2.98269e-19 0.136653 -2.00851e-20 -0.00231059)
(-0.128039 -0.0458211 2.24211e-19 0.130545 9.43519e-20 -0.00250657)
(-0.121928 -0.0448451 -5.13979e-20 0.124619 -1.13093e-20 -0.00269076)
(-0.115942 -0.0437802 -3.69606e-19 0.118805 1.5664e-19 -0.00286348)
(-0.110174 -0.0426717 -1.82016e-19 0.113199 -6.33155e-21 -0.0030254)
(-0.10456 -0.0415338 -4.90578e-20 0.107736 3.0383e-19 -0.00317675)
(-0.0991646 -0.0403918 3.44042e-19 0.102482 -1.73966e-19 -0.00331789)
(-0.0939341 -0.0392558 1.10277e-19 0.0973831 -2.37164e-20 -0.00344908)
(-0.0889124 -0.0381389 1.07468e-19 0.0924827 1.07259e-20 -0.0035703)
(-0.0840556 -0.0370496 8.77759e-20 0.0877374 -3.30823e-20 -0.00368181)
(-0.0793934 -0.0359928 -3.0067e-20 0.0831765 -1.27451e-19 -0.00378311)
(-0.0748929 -0.0349777 1.20576e-19 0.0787671 -2.32218e-19 -0.00387428)
(-0.0705723 -0.0340029 -1.29875e-19 0.0745265 3.03925e-21 -0.00395424)
(-0.0664097 -0.0330795 -5.59632e-20 0.0704323 -3.43513e-19 -0.0040226)
(-0.0624143 -0.0322012 -1.80647e-20 0.066492 2.05202e-19 -0.00407772)
(-0.0585752 -0.0313815 5.18927e-20 0.0626936 -1.42544e-19 -0.00411833)
(-0.0548932 -0.0306099 1.5084e-19 0.0590356 -1.12873e-19 -0.00414238)
(-0.0513691 -0.0299027 -3.64715e-20 0.0555167 -7.3342e-20 -0.00414757)
(-0.0479946 -0.0292462 -9.77026e-20 0.0521261 -7.35134e-21 -0.0041315)
(-0.044784 -0.0286584 -3.4888e-20 0.048875 -3.25784e-19 -0.00409098)
(-0.041717 -0.0281249 -2.02197e-19 0.0457403 6.40089e-19 -0.00402326)
(-0.0388264 -0.0276617 -2.70928e-19 0.042751 -5.30907e-20 -0.00392456)
(-0.0360724 -0.0272592 -1.02702e-19 0.0398639 3.67456e-19 -0.00379158)
(-0.0335171 -0.0269243 4.28631e-19 0.0371373 1.3449e-19 -0.00362015)
(-0.0310866 -0.0266606 -2.26005e-20 0.034493 -1.79645e-19 -0.00340643)
(-0.0288907 -0.0264588 -1.27572e-19 0.0320366 2.32942e-19 -0.00314591)
(-0.0267974 -0.0263438 1.39398e-19 0.0296318 -1.52785e-19 -0.00283439)
(-0.0249984 -0.0262726 -2.38644e-20 0.0274656 -3.99688e-20 -0.00246719)
(-0.0232367 -0.0263501 1.01862e-20 0.0252767 2.53005e-20 -0.00203994)
(-0.0219007 -0.0264041 -4.78251e-19 0.0234486 -8.33456e-20 -0.00154792)
(-0.0205042 -0.0265805 -2.61015e-19 0.021491 -1.51912e-19 -0.000986762)
(-0.0194855 -0.0272516 3.10141e-19 0.0198373 6.19577e-19 -0.000351807)
(-0.177784 -0.0415565 9.1346e-20 0.177968 1.64905e-19 -0.00018477)
(-0.174032 -0.0470998 -2.96741e-20 0.174551 -4.81311e-20 -0.00051831)
(-0.169055 -0.0507261 -1.94632e-20 0.169882 1.2789e-19 -0.000827198)
(-0.163258 -0.0528735 1.51878e-19 0.164372 7.52611e-19 -0.00111444)
(-0.157068 -0.0540364 2.4803e-19 0.15845 8.29709e-20 -0.00138261)
(-0.150585 -0.0544132 1.49979e-20 0.152218 -4.18595e-19 -0.00163352)
(-0.144085 -0.0542781 1.66667e-20 0.145954 -5.76124e-20 -0.00186894)
(-0.137545 -0.0537256 1.76042e-19 0.139635 -1.41585e-19 -0.00208994)
(-0.131153 -0.0529113 -7.60336e-20 0.133451 -2.42928e-20 -0.00229776)
(-0.124842 -0.0518831 -1.33495e-19 0.127335 -1.39223e-19 -0.002493)
(-0.118743 -0.05073 2.93647e-19 0.121419 -1.1009e-19 -0.00267656)
(-0.112782 -0.0494782 2.34836e-19 0.115631 -2.33187e-19 -0.00284877)
(-0.10705 -0.0481786 7.3618e-20 0.11006 1.09533e-19 -0.00301025)
(-0.101479 -0.0468468 7.94954e-20 0.10464 -1.13658e-20 -0.00316124)
(-0.0961331 -0.0455115 -1.3705e-19 0.0994351 -3.77264e-19 -0.00330206)
(-0.0909543 -0.0441834 -1.09303e-19 0.0943873 1.05705e-19 -0.00343297)
(-0.0859867 -0.0428772 1.26145e-19 0.0895406 -3.23333e-19 -0.00355392)
(-0.0811843 -0.0416022 -2.99656e-20 0.0848495 7.77638e-20 -0.00366516)
(-0.076577 -0.0403639 -1.86606e-19 0.0803432 -4.94827e-19 -0.00376617)
(-0.0721299 -0.0391723 3.70808e-19 0.0759869 9.97892e-20 -0.00385703)
(-0.0678621 -0.0380257 1.09887e-19 0.0717988 -1.12515e-19 -0.00393664)
(-0.0637498 -0.0369363 8.21858e-20 0.0677545 8.4396e-20 -0.00400462)
(-0.0598033 -0.0358968 -1.98992e-19 0.0638625 1.4679e-19 -0.00405929)
(-0.0560097 -0.0349224 4.08248e-20 0.0601091 9.414e-20 -0.00409945)
(-0.0523711 -0.0340006 1.33961e-19 0.0564941 1.2642e-19 -0.00412297)
(-0.0488865 -0.0331506 2.10815e-19 0.0530141 -3.01831e-19 -0.00412764)
(-0.0455487 -0.0323549 -2.63547e-19 0.0496598 2.28773e-19 -0.00411103)
(-0.0423705 -0.0316367 9.46169e-19 0.0464405 -5.49106e-19 -0.00407003)
(-0.039332 -0.0309746 3.18074e-19 0.0433338 4.7646e-19 -0.00400183)
(-0.0364656 -0.0303942 -2.2939e-19 0.0403684 -5.68717e-19 -0.0039028)
(-0.0337295 -0.0298732 -2.53668e-19 0.0374991 4.73556e-19 -0.00376958)
(-0.0311893 -0.0294357 -5.9553e-19 0.0347875 -4.85727e-20 -0.00359817)
(-0.0287632 -0.029063 1.05984e-19 0.0321479 1.75885e-19 -0.00338467)
(-0.0265712 -0.0287749 7.88235e-20 0.029696 2.82674e-19 -0.00312476)
(-0.0244658 -0.0285601 -2.74621e-19 0.02728 1.30873e-19 -0.00281423)
(-0.0226565 -0.0284246 -4.56328e-19 0.0251051 2.25831e-20 -0.0024486)
(-0.0208633 -0.0284044 4.37693e-19 0.0228869 2.76799e-19 -0.00202355)
(-0.0195069 -0.028439 -2.72774e-19 0.0210415 2.72944e-19 -0.00153461)
(-0.0180592 -0.0285186 7.18913e-19 0.0190367 -1.85863e-19 -0.000977516)
(-0.0170052 -0.0291876 -5.81851e-19 0.0173532 8.48399e-20 -0.000348045)
(-0.17669 -0.0469931 1.17835e-19 0.176874 -1.29166e-19 -0.000183359)
(-0.172148 -0.0530059 1.48815e-19 0.172662 -1.05675e-19 -0.000514362)
(-0.166597 -0.0569108 2.3018e-19 0.167418 -9.76565e-20 -0.000820932)
(-0.160399 -0.0591912 1.22642e-19 0.161505 -7.50344e-19 -0.00110607)
(-0.153924 -0.0603915 -4.93158e-19 0.155297 -5.19113e-19 -0.00137234)
(-0.147252 -0.0607295 -3.34521e-20 0.148873 1.41834e-19 -0.00162155)
(-0.140628 -0.0605075 1.88487e-20 0.142483 2.29866e-19 -0.00185545)
(-0.134016 -0.0598289 -1.70168e-19 0.136091 2.89205e-21 -0.0020751)
(-0.127589 -0.0588651 2.599e-19 0.12987 3.29287e-19 -0.00228173)
(-0.121272 -0.0576681 2.61778e-19 0.123748 -4.85842e-19 -0.00247593)
(-0.115189 -0.0563362 -3.01518e-19 0.117847 3.07877e-19 -0.00265858)
(-0.109259 -0.0548973 -6.72169e-20 0.112089 -3.13985e-19 -0.00282999)
(-0.103571 -0.053408 5.20081e-21 0.106561 7.32436e-20 -0.00299077)
(-0.0980511 -0.0518845 -2.84418e-19 0.101192 -1.16589e-19 -0.00314114)
(-0.0927621 -0.0503587 3.33163e-19 0.0960435 2.47877e-19 -0.00328141)
(-0.0876439 -0.0488417 1.77834e-19 0.0910557 -2.44712e-19 -0.00341182)
(-0.0827394 -0.0473499 -9.46086e-20 0.0862717 4.48041e-19 -0.00353231)
(-0.0780005 -0.0458931 8.59311e-20 0.0816436 -2.84144e-19 -0.00364313)
(-0.0734571 -0.0444772 -2.67535e-19 0.0772009 2.63401e-19 -0.00374373)
(-0.0690725 -0.043113 3.33891e-19 0.0729067 -3.67732e-20 -0.0038342)
(-0.0648663 -0.0417983 -5.93215e-20 0.0687797 -1.93179e-19 -0.00391342)
(-0.0608128 -0.0405467 1.85053e-19 0.0647938 -8.18153e-20 -0.00398102)
(-0.0569234 -0.0393494 1.1043e-19 0.0609587 -1.53853e-19 -0.00403534)
(-0.0531831 -0.0382237 -5.19997e-20 0.0572583 -3.07943e-20 -0.00407516)
(-0.0495957 -0.0371547 -3.624e-19 0.053694 1.80827e-19 -0.00409839)
(-0.0461574 -0.0361645 2.44213e-19 0.0502602 -5.29431e-19 -0.00410282)
(-0.0428634 -0.035232 -5.82944e-19 0.0469495 1.31504e-19 -0.00408605)
(-0.0397232 -0.0343853 -1.25874e-19 0.0437682 2.01121e-19 -0.00404499)
(-0.0367197 -0.0335965 2.51024e-19 0.0406966 3.27363e-20 -0.00397688)
(-0.0338815 -0.0329003 -1.16821e-19 0.0377596 -2.62586e-19 -0.0038781)
(-0.0311699 -0.0322615 6.49199e-19 0.0349153 1.79851e-19 -0.00374535)
(-0.0286465 -0.0317232 1.6704e-19 0.0322211 -2.5663e-19 -0.00357465)
(-0.026232 -0.03124 -2.18382e-20 0.0295942 6.02103e-19 -0.00336218)
(-0.0240439 -0.0308704 2.64161e-19 0.0271475 -7.41997e-19 -0.00310364)
(-0.0219347 -0.0305505 -1.51866e-19 0.0247296 5.51807e-19 -0.00279489)
(-0.0201149 -0.0303629 4.18958e-20 0.0225464 -1.82783e-19 -0.00243153)
(-0.0183035 -0.0302334 2.17981e-19 0.0203128 4.97706e-19 -0.00200927)
(-0.0169232 -0.0302738 -8.89837e-19 0.0184469 -3.33214e-19 -0.00152375)
(-0.0154458 -0.0302323 -4.19803e-19 0.0164165 1.38963e-19 -0.000970703)
(-0.0143911 -0.0309261 5.43824e-19 0.0147369 4.01281e-19 -0.000345838)
(-0.175451 -0.052427 -9.77354e-20 0.175633 6.9154e-19 -0.000181705)
(-0.170047 -0.0588203 -1.5288e-19 0.170557 3.30994e-19 -0.000509725)
(-0.163875 -0.0629381 -3.65251e-19 0.164688 1.1527e-19 -0.000813562)
(-0.157241 -0.065304 1.54553e-20 0.158337 5.54156e-19 -0.00109621)
(-0.150459 -0.0665069 5.83882e-19 0.15182 6.95976e-19 -0.0013602)
(-0.143583 -0.0667816 2.09504e-19 0.14519 2.8396e-19 -0.00160735)
(-0.136826 -0.0664554 -2.49814e-20 0.138665 -8.73849e-20 -0.00183939)
(-0.130138 -0.0656389 2.55701e-19 0.132196 -2.82864e-19 -0.00205737)
(-0.123676 -0.0645182 -4.05817e-19 0.125939 -2.71974e-19 -0.0022625)
(-0.117357 -0.0631481 -1.89658e-19 0.119812 2.46019e-19 -0.00245535)
(-0.111293 -0.0616357 3.33443e-19 0.11393 5.07949e-19 -0.0026368)
(-0.105401 -0.0600099 -2.08071e-19 0.108209 4.63557e-19 -0.00280713)
(-0.0997625 -0.0583323 2.08527e-19 0.102729 3.07095e-19 -0.00296695)
(-0.0943019 -0.0566196 4.21782e-20 0.0974184 3.32304e-19 -0.00311646)
(-0.0890783 -0.0549067 -4.44348e-19 0.0923343 5.81287e-20 -0.00325595)
(-0.0840291 -0.0532046 1.5753e-19 0.0874147 -2.75677e-20 -0.00338565)
(-0.0791963 -0.0515315 7.19527e-20 0.0827018 -2.13018e-20 -0.00350549)
(-0.0745297 -0.0498972 -1.04457e-19 0.0781454 -2.21762e-19 -0.00361572)
(-0.070059 -0.0483082 -6.46155e-20 0.0737748 -2.62495e-19 -0.00371575)
(-0.0657454 -0.0467758 -2.04476e-19 0.0695511 4.40856e-19 -0.00380572)
(-0.0616094 -0.0452975 6.80235e-20 0.0654939 -1.36225e-20 -0.00388447)
(-0.0576229 -0.0438878 -4.098e-20 0.0615745 3.98088e-19 -0.00395167)
(-0.0537988 -0.0425369 -3.04588e-20 0.0578044 -1.23309e-19 -0.00400562)
(-0.0501195 -0.0412637 4.88163e-19 0.0541647 1.42068e-19 -0.00404517)
(-0.0465908 -0.0400511 -4.43127e-19 0.050659 2.25945e-19 -0.00406819)
(-0.0432059 -0.0389243 1.03518e-19 0.0472785 -9.68634e-20 -0.00407257)
(-0.0399627 -0.0378583 4.56777e-19 0.0440186 5.75832e-19 -0.00405583)
(-0.0368667 -0.0368863 5.15709e-19 0.0408817 1.81513e-19 -0.00401504)
(-0.0339044 -0.0359737 -1.50128e-19 0.0378518 3.9939e-19 -0.00394735)
(-0.0310993 -0.0351647 -4.98662e-19 0.0349486 4.78565e-19 -0.00384927)
(-0.0284179 -0.0344112 -2.20219e-19 0.0321354 5.30446e-20 -0.00371745)
(-0.0259143 -0.0337744 3.88554e-20 0.0294623 -1.29546e-20 -0.00354804)
(-0.0235173 -0.0331852 -2.85841e-19 0.0268544 -3.64508e-20 -0.00333714)
(-0.021333 -0.0327342 9.85361e-20 0.0244136 -2.02381e-19 -0.00308059)
(-0.0192284 -0.0323171 4.48678e-19 0.0220026 2.6714e-19 -0.00277419)
(-0.0173926 -0.0320712 -4.81815e-19 0.0198062 -3.39041e-19 -0.00241365)
(-0.0155815 -0.0318449 7.63135e-19 0.0175761 2.73237e-20 -0.0019946)
(-0.0141565 -0.0318705 -3.10298e-19 0.0156692 -1.31519e-19 -0.00151276)
(-0.0126928 -0.0317246 1.09077e-18 0.0136566 5.26804e-19 -0.000963781)
(-0.0115829 -0.0323981 -6.86785e-19 0.0119263 -3.40206e-19 -0.000343393)
(-0.174063 -0.0578562 6.07078e-20 0.174243 -4.60462e-19 -0.000179799)
(-0.167737 -0.0645337 1.09042e-20 0.168242 -5.52413e-19 -0.000504388)
(-0.160899 -0.0687931 2.10368e-19 0.161705 1.6826e-19 -0.000805071)
(-0.153802 -0.0711932 1.15629e-19 0.154887 -7.16395e-20 -0.00108482)
(-0.146694 -0.072361 -7.80721e-19 0.14804 -1.41068e-19 -0.00134617)
(-0.139601 -0.0725457 -2.99514e-20 0.141192 -8.72092e-19 -0.00159091)
(-0.132705 -0.0720965 -2.82599e-19 0.134526 -5.90674e-20 -0.00182074)
(-0.12594 -0.0711296 -1.30843e-19 0.127977 -2.97807e-19 -0.00203671)
(-0.119444 -0.0698439 5.69402e-19 0.121684 5.90603e-19 -0.00224002)
(-0.113125 -0.0682963 5.69192e-19 0.115556 -4.35198e-20 -0.00243122)
(-0.107086 -0.0666015 -1.84078e-20 0.109697 -5.10924e-20 -0.00261116)
(-0.101237 -0.064789 6.37498e-20 0.104018 -8.30851e-19 -0.00278015)
(-0.0956554 -0.062925 -1.80518e-19 0.0985941 1.21249e-19 -0.00293873)
(-0.0902611 -0.061026 -6.47046e-20 0.0933482 -7.53374e-19 -0.00308712)
(-0.0851107 -0.0591296 1.23646e-19 0.0883363 -9.24226e-20 -0.0032256)
(-0.0801386 -0.0572468 -2.44056e-20 0.083493 -2.04925e-19 -0.00335439)
(-0.0753859 -0.0553969 -1.32081e-19 0.0788593 1.77916e-19 -0.00347339)