/*--------------------------------*- C++ -*----------------------------------*\
| =========                 |                                                 |
| \\      /  F ield         | foam-extend: Open Source CFD                    |
|  \\    /   O peration     | Version:  3.0                                   |
|   \\  /    A nd           | Web:         http://www.extend-project.de       |
|    \\/     M anipulation  |                                                 |
\*---------------------------------------------------------------------------*/
FoamFile
{
    version     2.0;
    format      ascii;
    class       volVectorField;
    location    "67";
    object      u;
}
// * * * * * * * * * * * * * * * * * * * * * * * * * * * * * * * * * * * * * //

dimensions      [0 0 0 0 0 0 0];

internalField   nonuniform List<vector> 
7680
(
(0.139216 -0.0252925 4.72184e-17)
(0.137882 -0.0212359 6.26307e-17)
(0.354579 -0.0191512 -6.4237e-17)
(0.333143 -0.0149588 5.46973e-17)
(0.507411 -0.0140407 -4.37057e-17)
(0.477588 -0.0103837 3.53346e-17)
(0.619669 -0.00989275 -2.45597e-17)
(0.586588 -0.00677595 -9.9749e-19)
(0.704537 -0.00641408 -3.1703e-17)
(0.670248 -0.00379159 -6.03505e-18)
(0.770222 -0.00341972 -3.87141e-17)
(0.735432 -0.00122093 4.31175e-17)
(0.82201 -0.000785063 -5.53614e-17)
(0.786888 0.00106322 4.99543e-17)
(0.863444 0.00157728 -2.95571e-17)
(0.82796 0.00313793 6.26865e-17)
(0.896988 0.00372787 -5.01881e-17)
(0.861025 0.00505209 8.3664e-17)
(0.924394 0.00571121 -6.13067e-17)
(0.887786 0.00684206 7.73134e-17)
(0.946924 0.00756271 -7.08924e-17)
(0.909461 0.00854162 7.95009e-17)
(0.965492 0.00931447 -6.44811e-17)
(0.926932 0.0101863 8.44198e-17)
(0.980768 0.0109892 -6.03181e-17)
(0.940847 0.0118153 6.23201e-17)
(0.993241 0.0125769 -3.30349e-17)
(0.951717 0.0134915 4.3524e-17)
(1.00326 0.0140057 -2.91875e-17)
(0.959989 0.0153502 2.51335e-17)
(1.01105 0.0151299 -1.55332e-17)
(0.966145 0.0175743 1.58919e-17)
(1.01668 0.0158555 -4.92071e-18)
(0.970768 0.0201121 4.47375e-18)
(1.02018 0.0164967 1.99822e-17)
(0.97452 0.0224968 -1.25203e-17)
(1.02135 0.0174824 3.70394e-17)
(0.979028 0.0236322 -2.71325e-17)
(1.01724 0.0276122 3.71487e-17)
(0.989448 0.0061867 -2.10306e-17)
(0.143247 -0.0906606 -3.42248e-17)
(0.141409 -0.0777523 -7.04216e-17)
(0.358003 -0.0713308 8.84806e-17)
(0.336058 -0.0590103 -5.37698e-17)
(0.510406 -0.0561694 2.45275e-17)
(0.48013 -0.0454272 -3.12048e-18)
(0.622338 -0.0441523 2.83578e-17)
(0.588853 -0.0351761 3.43963e-17)
(0.706945 -0.0344982 5.37678e-17)
(0.672285 -0.0271531 5.27988e-17)
(0.772393 -0.0266161 2.76873e-17)
(0.73726 -0.0206514 -1.19492e-17)
(0.823955 -0.0200733 2.97733e-17)
(0.788518 -0.0152322 -2.27507e-17)
(0.86517 -0.0145518 -2.10899e-17)
(0.829396 -0.0106139 -5.87997e-17)
(0.898493 -0.00981154 5.3995e-17)
(0.862266 -0.00660537 -1.18998e-16)
(0.925669 -0.00567377 9.29122e-17)
(0.888824 -0.00307327 -1.13974e-16)
(0.947952 -0.0020064 7.85943e-17)
(0.910284 8.28631e-05 -9.64583e-17)
(0.966247 0.00129314 5.70304e-17)
(0.927519 0.00294839 -1.03852e-16)
(0.981211 0.00429991 4.03568e-17)
(0.941168 0.0056039 -5.53994e-17)
(0.993315 0.00703973 -1.13491e-17)
(0.951728 0.00816149 -2.39837e-17)
(1.00289 0.00944282 -2.49266e-17)
(0.959626 0.0108449 9.07226e-18)
(1.01013 0.0112828 -2.51535e-17)
(0.965276 0.0140371 1.55537e-17)
(1.0151 0.0122289 -1.86553e-17)
(0.96913 0.018059 9.93073e-19)
(1.01789 0.0122004 -2.2129e-17)
(0.971866 0.0232617 -5.302e-18)
(1.01853 0.0105495 1.80414e-18)
(0.975651 0.0313169 -3.30033e-18)
(1.01563 0.0116911 -1.43003e-17)
(0.982919 0.0218819 1.9373e-17)
(0.151565 -0.155669 1.06897e-17)
(0.148552 -0.133077 5.35796e-17)
(0.364433 -0.122466 -1.63893e-16)
(0.34144 -0.101776 1.1586e-16)
(0.515346 -0.0971383 -7.63113e-17)
(0.4842 -0.0794444 9.94346e-18)
(0.626133 -0.077491 -9.87552e-17)
(0.591957 -0.0628709 2.82234e-18)
(0.709846 -0.0619576 -1.21783e-16)
(0.674654 -0.0501281 -5.77395e-17)
(0.774587 -0.0494753 -5.92978e-17)
(0.739057 -0.0400036 2.05138e-17)
(0.825589 -0.0392832 -3.03739e-17)
(0.789864 -0.0317314 1.97425e-17)
(0.866362 -0.0308235 5.76972e-17)
(0.830382 -0.0248191 8.47361e-17)
(0.899336 -0.02368 -5.90838e-17)
(0.862964 -0.0189324 1.62791e-16)
(0.926241 -0.017543 -1.43682e-16)
(0.889289 -0.0138317 1.47034e-16)
(0.948316 -0.0121794 -1.01085e-16)
(0.910561 -0.00933287 1.53093e-16)
(0.966462 -0.00740817 -1.05733e-16)
(0.927645 -0.00528368 1.71631e-16)
(0.981332 -0.00309606 -6.39889e-17)
(0.941178 -0.00154865 1.24083e-16)
(0.993407 0.000817625 -1.92715e-17)
(0.951655 0.00202988 7.34724e-17)
(1.00303 0.00427705 1.31768e-17)
(0.959495 0.00570317 1.53193e-17)
(1.0104 0.00709356 9.15165e-18)
(0.965103 0.00977471 1.7035e-17)
(1.01558 0.00909345 1.36968e-17)
(0.968962 0.014166 3.55626e-18)
(1.01843 0.0103003 2.32186e-17)
(0.971892 0.0185013 -1.52299e-17)
(1.01782 0.00927801 3.15195e-17)
(0.977352 0.023144 -2.3368e-17)
(1.00816 0.0154036 3.75957e-17)
(0.991131 0.00209419 -2.21862e-17)
(0.164129 -0.219962 4.49847e-17)
(0.159357 -0.188587 -8.28571e-17)
(0.374578 -0.173701 3.37118e-16)
(0.349969 -0.144996 -2.36131e-16)
(0.52372 -0.13846 1.42448e-16)
(0.49116 -0.113813 1.37667e-17)
(0.633131 -0.111084 1.30671e-16)
(0.597761 -0.0907154 1.41122e-17)
(0.715753 -0.0894883 7.95769e-17)
(0.679569 -0.0730275 4.65298e-17)
(0.779613 -0.0722117 1.21634e-16)
(0.743259 -0.0590533 -5.87523e-17)
(0.829886 -0.0581938 3.61104e-17)
(0.793474 -0.0477199 -2.90812e-17)
(0.870039 -0.0466473 -6.80833e-17)
(0.833485 -0.038332 -4.56021e-17)
(0.902473 -0.0369809 2.03455e-17)
(0.865621 -0.0304174 -1.74312e-16)
(0.928894 -0.0287526 1.82329e-16)
(0.891547 -0.0236407 -1.81914e-16)
(0.950529 -0.021632 1.05646e-16)
(0.912455 -0.0177506 -1.63846e-16)
(0.968267 -0.015368 8.46736e-17)
(0.929204 -0.0125469 -1.14866e-16)
(0.982759 -0.00977441 -2.72263e-17)
(0.942423 -0.00785402 -6.46636e-17)
(0.99449 -0.00475111 -6.80765e-17)
(0.952595 -0.00346638 -4.74281e-18)
(1.00383 -0.000343732 -9.77833e-17)
(0.960104 0.00095824 4.52298e-17)
(1.01103 0.00318456 -5.69084e-17)
(0.965281 0.0059332 1.73703e-17)
(1.01626 0.00541735 -9.28228e-17)
(0.968463 0.0119693 1.21987e-16)
(1.0195 0.00589656 -1.13168e-16)
(0.970135 0.0206467 4.675e-17)
(1.02009 0.000836767 6.87816e-18)
(0.972716 0.0378099 -4.00895e-17)
(1.01337 -0.0059831 2.44489e-17)
(0.984274 0.0183661 -6.97021e-17)
(0.180846 -0.283337 -1.07483e-16)
(0.173705 -0.242584 -2.13871e-17)
(0.38767 -0.223625 -5.2037e-16)
(0.360957 -0.186784 3.33607e-16)
(0.534036 -0.178501 -1.88828e-16)
(0.499714 -0.14707 -6.19751e-17)
(0.64132 -0.143682 -2.07239e-16)
(0.604527 -0.117803 4.24118e-17)
(0.722287 -0.116346 -7.41375e-17)
(0.684984 -0.0955064 -1.53086e-17)
(0.784844 -0.094574 -1.46854e-16)
(0.747628 -0.0779879 4.37966e-17)
(0.834084 -0.076985 2.78808e-17)
(0.797016 -0.0638573 -8.09207e-18)
(0.873409 -0.0625578 1.13497e-16)
(0.836363 -0.052214 -5.3623e-17)
(0.905176 -0.0505297 6.73662e-17)
(0.867956 -0.0424462 5.08039e-17)
(0.931054 -0.0403309 -6.12977e-17)
(0.893431 -0.034116 8.11995e-17)
(0.952242 -0.0315341 -1.06163e-17)
(0.913957 -0.0268933 1.74052e-16)
(0.969607 -0.0238122 -9.00506e-17)
(0.930372 -0.0205159 9.84044e-17)
(0.983786 -0.0169241 4.81835e-17)
(0.943287 -0.0147629 9.45844e-17)
(0.995257 -0.0107338 2.33322e-17)
(0.953157 -0.00939794 3.63725e-17)
(1.00439 -0.00525798 1.24345e-16)
(0.960311 -0.00408447 -2.58946e-17)
(1.01151 -0.000686348 6.95533e-17)
(0.964976 0.00157695 1.2548e-17)
(1.01684 0.00278287 -2.67094e-19)
(0.967355 0.00764748 1.59825e-17)
(1.02071 0.00490761 4.30596e-17)
(0.967647 0.0148552 -4.26348e-17)
(1.02404 0.00172836 3.50989e-17)
(0.966358 0.026849 -4.06279e-17)
(1.02585 0.00324054 5.56914e-17)
(0.969952 -0.00594434 5.47277e-17)
(0.201692 -0.345452 1.96922e-16)
(0.191623 -0.296157 1.98362e-16)
(0.404364 -0.273055 5.8281e-16)
(0.374983 -0.228455 -2.20219e-16)
(0.547648 -0.21833 1.73349e-16)
(0.511014 -0.180194 1.10248e-16)
(0.652549 -0.176052 2.59673e-16)
(0.613825 -0.144633 -8.27357e-17)
(0.731638 -0.142868 4.02836e-17)
(0.692755 -0.117568 -5.11316e-18)
(0.792695 -0.116476 2.94242e-16)
(0.754193 -0.0963446 -1.49881e-16)
(0.840713 -0.095206 1.15172e-16)
(0.8026 -0.0792741 -1.57217e-16)
(0.879028 -0.0778136 -1.82859e-17)
(0.84113 -0.06526 -1.18282e-16)
(0.909941 -0.063366 1.56622e-16)
(0.872032 -0.0535566 -1.68434e-16)
(0.935088 -0.0511652 1.49266e-16)
(0.896917 -0.0436323 -9.94935e-17)
(0.955646 -0.0406882 2.37353e-17)
(0.916937 -0.0350904 -1.71816e-16)
(0.972473 -0.031536 3.15858e-17)
(0.932922 -0.0276207 1.91209e-17)
(0.986205 -0.0234085 -1.68774e-16)
(0.945477 -0.0209633 3.79903e-17)
(0.997342 -0.0161146 -1.36349e-16)
(0.955043 -0.0148424 3.03216e-17)
(1.00631 -0.0096213 -2.09219e-16)
(0.961923 -0.0088636 4.27956e-17)
(1.01353 -0.00411357 -2.06727e-16)
(0.966285 -0.00249799 1.05295e-16)
(1.01944 7.71588e-05 -1.76981e-16)
(0.968251 0.00465579 1.28112e-16)
(1.0245 0.00244557 -2.16796e-16)
(0.967629 0.0139874 9.19881e-17)
(1.02988 -0.00140387 -6.19159e-18)
(0.963237 0.030632 -7.1431e-17)
(1.0342 -0.00513158 8.14644e-18)
(0.965239 0.00553 -1.25578e-16)
(0.226533 -0.406104 -2.41205e-16)
(0.212924 -0.34789 -3.60729e-16)
(0.423889 -0.320898 -4.98825e-16)
(0.391377 -0.26853 2.99299e-17)
(0.563157 -0.256738 -1.73639e-16)
(0.523889 -0.212105 4.03989e-17)
(0.664982 -0.207334 -3.09211e-16)
(0.62412 -0.170635 1.68396e-16)
(0.74168 -0.16865 -1.86757e-17)
(0.701105 -0.139154 -7.50222e-17)
(0.800854 -0.137948 -2.66127e-16)
(0.761038 -0.114529 7.57885e-17)
(0.847376 -0.11325 -7.12346e-18)
(0.808252 -0.0947709 1.87233e-16)
(0.884488 -0.0930897 4.05566e-17)
(0.845819 -0.0785874 1.46019e-18)
(0.914422 -0.076371 -3.41042e-17)
(0.87593 -0.0651004 -8.91336e-18)
(0.938758 -0.0622752 -6.05145e-17)
(0.900152 -0.0536833 -1.01147e-17)
(0.958632 -0.0501873 -2.06607e-17)
(0.919603 -0.043869 7.45234e-17)
(0.974867 -0.0396393 3.01071e-17)
(0.935084 -0.0352966 -1.10425e-17)
(0.988072 -0.0302801 8.71685e-17)
(0.947172 -0.0276792 -4.29518e-17)
(0.998727 -0.0218819 1.29481e-16)
(0.95628 -0.0207442 -4.46553e-17)
(1.00726 -0.014373 2.48285e-16)
(0.962649 -0.0141585 -3.95212e-17)
(1.01413 -0.00785103 3.03734e-16)
(0.966334 -0.00757952 -7.59872e-17)
(1.01985 -0.00241611 1.15607e-16)
(0.967261 -0.00103019 -2.93681e-17)
(1.02506 0.00188524 1.58134e-16)
(0.964961 0.0060904 -9.14149e-17)
(1.03166 0.00163264 1.1257e-16)
(0.957125 0.0175613 -8.55768e-17)
(1.0408 0.00557856 2.04796e-16)
(0.951245 -0.014956 6.97139e-18)
(0.255306 -0.464973 3.95527e-16)
(0.237645 -0.398615 2.80987e-16)
(0.446845 -0.36769 5.65934e-16)
(0.410663 -0.307959 2.49961e-16)
(0.581773 -0.294413 1.27281e-16)
(0.539341 -0.243435 -2.35458e-16)
(0.68025 -0.237944 3.01466e-16)
(0.63676 -0.196006 -2.52147e-16)
(0.754319 -0.193727 8.30251e-17)
(0.711608 -0.160015 -2.08393e-17)
(0.811402 -0.158657 3.23395e-16)
(0.769863 -0.131891 -2.93183e-16)
(0.856236 -0.130481 1.61856e-16)
(0.815728 -0.10936 -3.6369e-16)
(0.891964 -0.107523 6.97664e-17)
(0.852186 -0.0909428 -1.06495e-16)
(0.920748 -0.0885221 1.30925e-16)
(0.881374 -0.0756351 -1.23787e-16)
(0.944117 -0.0725383 1.2517e-16)
(0.904821 -0.06272 2.12786e-17)
(0.963175 -0.058864 -3.57906e-17)
(0.923624 -0.051664 9.20344e-18)
(0.978727 -0.0469588 -8.35984e-17)
(0.938569 -0.0420595 1.08675e-16)
(0.991377 -0.0364083 -1.19658e-16)
(0.950222 -0.0335824 4.64636e-17)
(1.00161 -0.0269156 -1.62604e-16)
(0.958978 -0.0259377 1.44976e-16)
(1.0099 -0.0183244 -4.45517e-16)
(0.965039 -0.0187724 8.41647e-17)
(1.01673 -0.0106413 -3.29992e-16)
(0.968381 -0.0116989 1.1805e-16)
(1.02269 -0.00396366 -1.07842e-16)
(0.968844 -0.00456661 3.85726e-17)
(1.0284 0.00152838 -1.51147e-16)
(0.96587 0.00329629 9.70346e-17)
(1.03551 0.00285596 -2.0807e-17)
(0.956623 0.0144925 -6.47265e-17)
(1.04509 0.00862695 3.27724e-17)
(0.948622 -0.0149033 -3.16744e-16)
(0.287847 -0.52186 -4.49803e-16)
(0.265542 -0.447185 -3.54227e-16)
(0.472474 -0.412619 -5.69754e-16)
(0.432184 -0.345615 -6.68745e-16)
(0.602208 -0.33051 -2.29114e-16)
(0.556314 -0.273436 4.04604e-16)
(0.696711 -0.267357 -2.70661e-16)
(0.650403 -0.220463 3.09873e-16)
(0.76769 -0.217978 -8.29343e-18)
(0.722742 -0.180326 -1.26364e-16)
(0.822341 -0.178859 -1.43069e-16)
(0.779056 -0.149007 2.00813e-16)
(0.865239 -0.147464 -6.04081e-17)
(0.823379 -0.123951 2.17728e-16)
(0.899405 -0.121905 1.90902e-16)
(0.85859 -0.103496 -1.62742e-16)
(0.926909 -0.100772 1.9681e-16)
(0.88675 -0.0865166 -1.60295e-16)
(0.949212 -0.0830114 1.58453e-16)
(0.909335 -0.072209 -1.06857e-16)
(0.967361 -0.0678334 2.4247e-17)
(0.927398 -0.0599794 6.5216e-18)
(0.982118 -0.0546337 -2.96962e-17)
(0.941691 -0.0493799 -3.32375e-17)
(0.99405 -0.0429507 4.15278e-17)
(0.952758 -0.0400753 5.65481e-17)
(1.00362 -0.0324475 -4.65628e-17)
(0.960971 -0.0317898 2.83386e-16)
(1.01127 -0.0229086 5.1912e-17)
(0.966514 -0.024258 1.9339e-16)
(1.01751 -0.0142259 1.22641e-16)
(0.969323 -0.0172672 -7.05022e-17)
(1.02299 -0.00626791 1.3392e-16)
(0.969144 -0.0109354 -1.23521e-16)
(1.02841 0.00124744 1.58297e-16)
(0.965285 -0.00514996 -1.16188e-16)
(1.03551 0.00692142 1.34536e-16)
(0.954694 0.000987101 -2.06948e-16)
(1.04578 0.0212699 3.66976e-16)
(0.943221 -0.0316762 -6.02412e-17)
(0.324053 -0.57647 7.55392e-16)
(0.296638 -0.494201 4.47816e-16)
(0.501296 -0.455983 6.9083e-16)
(0.456397 -0.382143 9.90005e-16)
(0.625513 -0.365405 4.27491e-16)
(0.575657 -0.302453 -3.72825e-16)
(0.715763 -0.295701 1.63615e-16)
(0.666175 -0.243958 -3.45527e-16)
(0.783408 -0.241196 -1.20378e-16)
(0.735805 -0.199643 3.50492e-16)
(0.835414 -0.198034 9.56617e-17)
(0.790001 -0.165085 -7.62896e-17)
(0.876186 -0.16342 1.51203e-16)
(0.832629 -0.137465 -2.86006e-16)
(0.90862 -0.135272 -4.58066e-17)
(0.866456 -0.114946 8.35166e-17)
(0.934694 -0.112028 -1.73739e-16)
(0.893473 -0.0962835 6.10014e-17)
(0.955803 -0.0925199 -1.30847e-16)
(0.915106 -0.0805883 1.44712e-16)
(0.972949 -0.075869 -9.24288e-18)
(0.932375 -0.067205 7.99857e-17)
(0.986863 -0.0614034 -1.87728e-17)
(0.946011 -0.0556404 1.30851e-16)
(0.998091 -0.0486005 -2.34059e-16)
(0.956539 -0.0455243 2.65853e-16)
(1.00708 -0.0370522 -2.31379e-16)
(0.964316 -0.0365759 2.20179e-17)
(1.01425 -0.0264524 -3.63327e-16)
(0.96949 -0.028545 1.69322e-16)
(1.02009 -0.0165739 -3.22303e-16)
(0.971945 -0.0212491 2.73034e-16)
(1.02518 -0.00721375 -3.80948e-16)
(0.971356 -0.0147586 3.93978e-16)
(1.03009 0.00186779 -3.93103e-16)
(0.967093 -0.00908024 2.3789e-16)
(1.03603 0.0100123 -1.77291e-16)
(0.956729 -0.00518095 3.18986e-17)
(1.04376 0.028843 -3.28175e-17)
(0.945799 -0.0377044 -3.80521e-16)
(0.363734 -0.628615 -1.15508e-15)
(0.330661 -0.538763 -7.29868e-16)
(0.532592 -0.497217 -6.67845e-16)
(0.482683 -0.41672 -1.15638e-15)
(0.650522 -0.398558 -5.25359e-16)
(0.596435 -0.330016 1.61734e-16)
(0.735962 -0.322729 -1.89328e-16)
(0.682925 -0.266438 4.48153e-16)
(0.799869 -0.263489 1.77682e-16)
(0.749524 -0.218324 -3.91579e-16)
(0.848934 -0.216614 -2.12539e-16)
(0.801373 -0.180837 -1.77519e-16)
(0.887362 -0.179048 -6.3188e-17)
(0.842137 -0.150902 -1.20888e-19)
(0.917901 -0.148516 1.22501e-16)
(0.874456 -0.126518 -1.79803e-16)
(0.94242 -0.123321 2.79118e-16)
(0.900228 -0.10633 -1.68654e-16)
(0.962228 -0.102192 3.60835e-16)
(0.920818 -0.0893737 -3.90024e-16)
(0.978262 -0.0841767 1.24093e-16)
(0.937197 -0.0749393 -1.83231e-16)
(0.991203 -0.0685464 1.90729e-17)
(0.95006 -0.0625002 -3.02236e-17)
(1.00155 -0.0547332 -8.66826e-17)
(0.959911 -0.0516809 1.3317e-16)
(1.00972 -0.0422879 -1.88809e-16)
(0.967101 -0.0422206 3.75419e-16)
(1.01608 -0.0308288 -1.01195e-16)
(0.971793 -0.033939 7.84022e-18)
(1.02111 -0.019996 1.10533e-16)
(0.973896 -0.0267717 -3.28141e-17)
(1.02536 -0.00937263 8.43216e-17)
(0.973086 -0.0209031 -6.51941e-17)
(1.02941 0.00163595 1.25305e-16)
(0.968744 -0.0166526 -6.79677e-17)
(1.03418 0.0137975 2.21782e-16)
(0.959017 -0.0167754 -1.97803e-16)
(1.03949 0.0405855 3.63855e-16)
(0.948638 -0.05135 -6.28023e-18)
(0.406754 -0.678028 1.08246e-15)
(0.367594 -0.581272 7.59798e-16)
(0.566785 -0.536419 6.36314e-16)
(0.511406 -0.449735 1.05425e-15)
(0.678118 -0.430089 3.75179e-16)
(0.619341 -0.356237 3.37008e-16)
(0.758478 -0.348335 3.36434e-17)
(0.701566 -0.287667 -1.53021e-16)
(0.818408 -0.284464 -2.91484e-16)
(0.764933 -0.235777 4.60842e-16)
(0.864319 -0.233937 8.68562e-17)
(0.81426 -0.195364 5.22391e-16)
(0.900218 -0.193465 2.25328e-17)
(0.85301 -0.163114 2.07041e-16)
(0.928703 -0.160596 4.93337e-17)
(0.88369 -0.136866 2.60654e-16)
(0.95153 -0.133493 -3.10123e-16)
(0.908112 -0.115155 2.41783e-16)
(0.969927 -0.110782 -3.24204e-16)
(0.927578 -0.0969397 4.72464e-16)
(0.984773 -0.0914321 -1.69733e-16)
(0.943018 -0.0814535 1.73975e-16)
(0.996701 -0.0746513 -1.76147e-17)
(0.955094 -0.0681274 2.07374e-16)
(1.00618 -0.0598196 -2.10471e-16)
(0.964287 -0.0565565 1.68997e-16)
(1.01358 -0.0464253 -1.65905e-16)
(0.970934 -0.046479 -3.24355e-17)
(1.01922 -0.0340154 -1.79183e-16)
(0.975199 -0.0377511 1.64019e-16)
(1.02349 -0.0221252 -2.21682e-16)
(0.976992 -0.0303615 4.67533e-17)
(1.02681 -0.010257 -9.99529e-17)
(0.976003 -0.0245084 2.39695e-16)
(1.02961 0.00219177 -4.11036e-16)
(0.971774 -0.0206422 2.38872e-16)
(1.03226 0.0166801 -2.47147e-16)
(0.963637 -0.0231011 9.75115e-17)
(1.03318 0.0478609 -2.40742e-16)
(0.956507 -0.0581535 -2.48105e-16)
(0.452892 -0.724537 -5.84324e-16)
(0.407166 -0.621052 -5.42228e-16)
(0.603216 -0.573239 -6.50673e-16)
(0.542009 -0.480626 -7.6249e-16)
(0.707272 -0.459716 -5.95603e-16)
(0.643566 -0.380878 -5.26848e-16)
(0.782064 -0.372502 -8.9111e-17)
(0.721131 -0.307776 8.06258e-17)
(0.837668 -0.304409 -6.33404e-17)
(0.780992 -0.252498 -7.59942e-17)
(0.880175 -0.25057 -2.15577e-16)
(0.827606 -0.209476 -6.29506e-16)
(0.913363 -0.207466 -1.6642e-16)
(0.864203 -0.175165 -5.03315e-16)
(0.939655 -0.172474 -3.28764e-17)
(0.893139 -0.14726 -5.9225e-16)
(0.96068 -0.143638 4.60198e-16)
(0.916125 -0.1242 -5.82363e-16)
(0.977571 -0.119493 4.72712e-16)
(0.934391 -0.104875 -7.11177e-16)
(0.991132 -0.0989408 2.95905e-16)
(0.948812 -0.0884722 -2.69886e-16)
(1.00194 -0.0811432 3.2978e-17)
(0.960014 -0.0743949 -5.1015e-17)
(1.0104 -0.0654355 -3.54312e-17)
(0.968458 -0.0622278 2.81559e-16)
(1.01686 -0.0512703 -1.60323e-16)
(0.974479 -0.0517148 2.50023e-16)
(1.02157 -0.0381218 1.07613e-16)
(0.978273 -0.0427478 -5.44412e-17)
(1.02484 -0.0254069 2.16431e-16)
(0.97982 -0.0353766 -4.93408e-17)
(1.02703 -0.0124609 9.38437e-17)
(0.978875 -0.0298196 -1.81933e-16)
(1.02848 0.00153861 4.5658e-16)
(0.975084 -0.0266609 -4.10155e-16)
(1.02911 0.0189827 4.36548e-16)
(0.968803 -0.0315422 -3.4595e-16)
(1.02566 0.0558517 4.45448e-16)
(0.965083 -0.0676682 6.6084e-18)
(0.501987 -0.767905 4.76761e-16)
(0.449298 -0.658333 5.11239e-16)
(0.64219 -0.607616 5.70344e-16)
(0.574748 -0.509573 6.72151e-16)
(0.738688 -0.487354 7.42622e-16)
(0.669644 -0.403864 5.43199e-16)
(0.807665 -0.394945 1.57091e-16)
(0.742327 -0.326385 2.77459e-16)
(0.858718 -0.322793 8.41509e-17)
(0.79849 -0.267799 1.25448e-16)
(0.89762 -0.265755 2.19551e-16)
(0.842221 -0.222213 6.37086e-16)
(0.927918 -0.220106 4.49718e-16)
(0.876518 -0.185872 6.55148e-16)
(0.951865 -0.183067 4.98536e-17)
(0.903587 -0.156331 7.66911e-16)
(0.97096 -0.152558 -5.63031e-16)
(0.925033 -0.131933 8.03122e-16)
(0.98624 -0.127024 -3.71487e-16)
(0.942014 -0.111498 5.98615e-16)
(0.998436 -0.1053 -2.073e-16)
(0.955354 -0.0941625 2.156e-16)
(1.00807 -0.0864917 -1.29829e-16)
(0.96564 -0.0792909 7.73653e-17)
(1.01551 -0.0698943 1.79905e-17)
(0.973305 -0.0664453 -3.48861e-16)
(1.02102 -0.0549144 2.44231e-16)
(0.978676 -0.0553661 -3.63316e-16)
(1.02482 -0.0409825 4.75969e-17)
(0.981969 -0.045972 -2.42101e-16)
(1.02708 -0.0274507 4.09168e-17)
(0.983225 -0.0383564 -2.33997e-16)
(1.02802 -0.0136017 9.04954e-17)
(0.982284 -0.0327532 2.43142e-17)
(1.02784 0.00139848 -2.25518e-16)
(0.979001 -0.0298032 3.11184e-16)
(1.02599 0.0203244 -3.08959e-16)
(0.974988 -0.0359987 2.21426e-16)
(1.01743 0.0598512 -1.78981e-16)
(0.976236 -0.0722942 -2.42372e-16)
(0.553791 -0.80798 -9.44479e-16)
(0.493741 -0.692639 -3.07472e-16)
(0.683132 -0.639382 -7.35269e-16)
(0.609144 -0.536237 -5.19147e-16)
(0.771485 -0.512938 -7.58726e-16)
(0.6969 -0.425149 -4.73933e-16)
(0.834228 -0.415828 -4.37321e-16)
(0.764366 -0.34377 -1.87644e-16)
(0.880437 -0.34004 -6.95615e-16)
(0.816606 -0.282269 1.97754e-16)
(0.91553 -0.280151 -5.13779e-16)
(0.857302 -0.234438 -4.25503e-16)
(0.942794 -0.232236 -8.47831e-16)
(0.889193 -0.196327 -6.63573e-16)
(0.96429 -0.193374 -2.1014e-16)
(0.914315 -0.165367 -5.31015e-16)
(0.981373 -0.161378 5.14067e-16)
(0.934162 -0.139816 -8.16117e-16)
(0.994971 -0.134618 5.86448e-16)
(0.94981 -0.118438 -7.52634e-16)
(1.00574 -0.111873 4.36272e-16)
(0.962025 -0.100329 -3.79984e-16)
(1.01413 -0.0922054 2.77194e-16)
(0.971354 -0.0848288 -1.39086e-16)
(1.02045 -0.0748748 1.42458e-16)
(0.978201 -0.0714758 1.03284e-16)
(1.02494 -0.0592577 8.23375e-17)
(0.982898 -0.0600097 4.37015e-17)
(1.02773 -0.0447315 2.78323e-16)
(0.985685 -0.0503427 -3.02004e-17)
(1.02891 -0.0305733 2.76242e-16)
(0.986688 -0.0425775 -1.43079e-16)
(1.02857 -0.0159646 3.30077e-16)
(0.985849 -0.0369229 -2.67226e-16)
(1.02679 2.44455e-05 3.33935e-16)
(0.983167 -0.0340189 -3.37766e-16)
(1.02264 0.0205489 2.77539e-16)
(0.98127 -0.0408607 -2.96628e-16)
(1.00926 0.0628478 1.90774e-16)
(0.987368 -0.0772576 -1.03639e-16)
(0.608117 -0.844559 1.1271e-15)
(0.540349 -0.724059 3.37392e-16)
(0.726221 -0.668351 6.10482e-16)
(0.645337 -0.560631 7.17842e-16)
(0.806184 -0.53622 5.71606e-16)
(0.725705 -0.444518 7.14925e-16)
(0.862479 -0.434733 3.07604e-16)
(0.787758 -0.359451 4.04129e-16)
(0.903645 -0.355529 5.93613e-16)
(0.8359 -0.295163 -2.78758e-18)
(0.934745 -0.292948 3.17047e-16)
(0.873403 -0.245173 5.60984e-16)
(0.958808 -0.242892 8.12765e-16)
(0.902747 -0.205353 7.85215e-16)
(0.977707 -0.202307 2.57952e-16)
(0.9258 -0.173014 3.17606e-16)
(0.992651 -0.168904 -5.05846e-16)
(0.943939 -0.146332 6.89225e-16)
(1.00446 -0.140977 -5.27906e-16)
(0.95816 -0.124013 3.79109e-16)
(1.01371 -0.117243 -5.90231e-17)
(0.969166 -0.105109 6.63585e-17)
(1.02078 -0.0967267 5.55552e-17)
(0.97746 -0.0889235 -1.63408e-16)
(1.02595 -0.0786551 1.19261e-16)
(0.98342 -0.0749815 -4.20868e-16)
(1.02937 -0.0623763 2.26975e-16)
(0.987363 -0.0630072 -4.39285e-16)
(1.03112 -0.0472517 5.97275e-17)
(0.989562 -0.0529231 -2.94975e-16)
(1.03118 -0.0325418 8.44518e-17)
(0.990213 -0.0448408 -2.38196e-16)
(1.02953 -0.0174201 7.5203e-17)
(0.989391 -0.0389714 -3.66928e-16)
(1.0261 -0.000974117 2.18608e-16)
(0.987281 -0.0359221 -8.94124e-17)
(1.01965 0.019952 -7.3398e-17)
(0.987486 -0.0427431 2.72046e-16)
(1.00168 0.0626358 -1.95865e-16)
(0.999061 -0.0787983 2.6589e-16)
(0.664697 -0.877513 -1.18358e-15)
(0.588902 -0.752294 -5.77478e-17)
(0.770971 -0.69451 -9.78786e-16)
(0.682939 -0.582599 -4.46837e-16)
(0.84206 -0.55731 -9.54013e-16)
(0.755523 -0.462074 -3.6824e-16)
(0.89156 -0.451965 -3.78653e-16)
(0.811889 -0.373807 -9.71003e-17)
(0.927445 -0.369776 -9.20469e-16)
(0.855755 -0.307127 3.41268e-16)
(0.954392 -0.304853 -4.72878e-16)
(0.889952 -0.255297 -4.70872e-16)
(0.975151 -0.252939 -7.04574e-16)
(0.916678 -0.214029 -9.2482e-16)
(0.991383 -0.21086 -2.74671e-16)
(0.937616 -0.18053 -3.05241e-16)
(1.00414 -0.176241 4.70257e-16)
(0.954021 -0.152908 -5.91808e-16)
(1.01413 -0.147312 4.15574e-16)
(0.966802 -0.129824 -3.93148e-16)
(1.02183 -0.122749 2.9147e-16)
(0.976598 -0.110295 -3.30661e-16)
(1.02757 -0.101537 1.53474e-16)
(0.983863 -0.0936028 -1.19034e-16)
(1.03155 -0.0828772 2.84764e-16)
(0.988947 -0.0792452 -9.35159e-18)
(1.03389 -0.0660968 2.42144e-16)
(0.992154 -0.0669263 4.41527e-17)
(1.03459 -0.0505321 4.28877e-16)
(0.993777 -0.0565448 -2.0406e-16)
(1.03357 -0.0354113 5.27753e-16)
(0.994076 -0.0481757 -3.1328e-16)
(1.03065 -0.01988 5.06586e-16)
(0.993221 -0.0419801 -1.59362e-16)
(1.02568 -0.00301022 4.27972e-16)
(0.991531 -0.0384815 -6.07348e-16)
(1.0172 0.0182677 5.75818e-16)
(0.993293 -0.0444671 -6.06264e-16)
(0.995175 0.0610611 3.0903e-16)
(1.00985 -0.0799092 -2.92257e-16)
(0.723323 -0.906675 1.21509e-15)
(0.639182 -0.777325 4.00772e-16)
(0.817436 -0.717583 5.69864e-16)
(0.721964 -0.602031 8.43827e-16)
(0.879451 -0.575847 9.68232e-16)
(0.786563 -0.477503 4.34029e-16)
(0.921981 -0.467017 9.56385e-17)
(0.837081 -0.386299 2.22722e-16)
(0.95242 -0.382111 6.8564e-16)
(0.87652 -0.317402 -2.20021e-16)
(0.975055 -0.315051 4.11306e-16)
(0.907271 -0.263855 4.7702e-16)
(0.992357 -0.261438 6.12079e-16)
(0.931247 -0.221228 6.39294e-16)
(1.00578 -0.217991 4.70726e-16)
(0.949949 -0.186632 1.80395e-16)
(1.01623 -0.182258 -2.53053e-16)
(0.964505 -0.158108 2.8442e-16)
(1.02428 -0.152405 -8.84147e-17)
(0.975737 -0.134272 7.51683e-17)
(1.03033 -0.127058 3.78354e-17)
(0.984218 -0.114104 -9.22342e-17)
(1.03464 -0.105176 2.54849e-16)
(0.99035 -0.0968537 -4.47981e-16)
(1.03736 -0.0859354 2.02103e-16)
(0.994454 -0.0820063 -4.85438e-16)
(1.03854 -0.0686507 8.92989e-17)
(0.996821 -0.0692521 -3.84785e-16)
(1.03816 -0.0526604 -1.54173e-17)
(0.99775 -0.0584726 -2.4809e-16)
(1.03604 -0.0372162 -2.10796e-16)
(0.997574 -0.0497315 -4.06702e-18)
(1.03192 -0.0214947 -2.13905e-16)
(0.996583 -0.0431824 -2.08174e-16)
(1.02555 -0.00462417 -1.30326e-17)
(0.995215 -0.0392509 2.77783e-16)
(1.01538 0.0161411 -2.19229e-16)
(0.99824 -0.0441527 3.98764e-16)
(0.99016 0.0573944 -3.27665e-16)
(1.01975 -0.0790024 4.13772e-16)
(0.783706 -0.931944 -1.22761e-15)
(0.691013 -0.798997 -7.19955e-16)
(0.865223 -0.737678 -6.98187e-16)
(0.762125 -0.618919 -4.25765e-16)
(0.917786 -0.592075 -1.4043e-15)
(0.818428 -0.491021 -2.2698e-16)
(0.953074 -0.480297 -3.45228e-16)
(0.862885 -0.397373 -4.9503e-17)
(0.977884 -0.393108 -6.22977e-16)
(0.897767 -0.32665 1.63143e-16)
(0.996093 -0.324259 -1.72161e-16)
(0.924994 -0.2717 -6.94986e-16)
(1.00988 -0.269226 -3.02266e-16)
(0.946184 -0.227969 -5.55347e-16)
(1.02047 -0.224638 -2.06843e-16)
(0.962638 -0.192491 -2.80451e-16)
(1.02859 -0.187975 4.96655e-16)
(0.975358 -0.163257 -4.85525e-16)
(1.03472 -0.157356 4.63094e-16)
(0.985067 -0.138841 -5.62088e-16)
(1.03914 -0.13138 3.62538e-16)
(0.99227 -0.1182 -2.18914e-16)
(1.04205 -0.10897 1.05258e-16)
(0.997326 -0.100568 6.71944e-17)
(1.04354 -0.0892894 2.61781e-16)
(1.00051 -0.0854021 1.43805e-16)
(1.04361 -0.0716384 1.77686e-16)
(1.00208 -0.0723685 1.48355e-16)
(1.04218 -0.0553483 1.85472e-16)
(1.00236 -0.0613104 1.80581e-16)
(1.03902 -0.03968 2.9187e-16)
(1.00167 -0.0522331 -6.80033e-17)
(1.03378 -0.0238233 3.00788e-16)
(1.0004 -0.0452371 1.4796e-16)
(1.02613 -0.00693767 2.10871e-16)
(0.999036 -0.0406171 -5.22142e-16)
(1.01455 0.0133363 5.58748e-16)
(1.00256 -0.0438413 -5.26422e-16)
(0.986775 0.0529603 3.63899e-16)
(1.0282 -0.0779058 -4.46804e-16)
(0.845624 -0.95319 1.43805e-15)
(0.744102 -0.817215 1.19016e-15)
(0.914267 -0.754466 5.99787e-16)
(0.803314 -0.633062 4.53074e-16)
(0.95723 -0.605556 1.16255e-15)
(0.851174 -0.502252 1.90065e-16)
(0.985149 -0.491245 4.0453e-16)
(0.889448 -0.406469 1.89035e-16)
(1.0042 -0.402087 3.4566e-16)
(0.919652 -0.334137 -9.26113e-17)
(1.01786 -0.331689 8.40703e-17)
(0.943239 -0.277943 5.3223e-16)
(1.02799 -0.275428 3.66983e-16)
(0.961525 -0.233228 4.05035e-16)
(1.03561 -0.229856 3.8822e-17)
(0.975617 -0.196956 1.50522e-16)
(1.04129 -0.192393 -4.14546e-16)
(0.986378 -0.167068 2.30984e-16)
(1.04537 -0.161113 -8.75476e-17)
(0.994445 -0.142106 1.60284e-16)
(1.04804 -0.134575 1.76372e-17)
(1.00025 -0.120998 -7.30571e-17)
(1.04944 -0.111687 1.69757e-16)
(1.00409 -0.102951 -2.87195e-16)
(1.04958 -0.0915912 1.36182e-17)
(1.00622 -0.0874131 -4.38724e-16)
(1.04846 -0.073584 1.55513e-16)
(1.00688 -0.0740329 -4.28809e-16)
(1.04594 -0.0570154 1.19649e-16)
(1.00637 -0.062631 -4.47846e-16)
(1.04176 -0.0411795 -1.02098e-16)
(1.00507 -0.0531934 -9.89508e-17)
(1.03552 -0.0253218 -2.73256e-16)
(1.00341 -0.0458154 -2.15602e-16)
(1.02686 -0.0086797 -2.79149e-16)
(1.00196 -0.0406892 2.65175e-16)
(1.01439 0.0106135 -3.70283e-16)
(1.00562 -0.0424281 3.08583e-16)
(0.985181 0.0477538 -2.93014e-16)
(1.03496 -0.0760994 5.70627e-16)
(0.908774 -0.970342 -1.54724e-15)
(0.798318 -0.831948 -1.16255e-15)
(0.96427 -0.768149 -8.46355e-16)
(0.845341 -0.644575 -8.22733e-17)
(0.997361 -0.616637 -1.0427e-15)
(0.884535 -0.511494 8.90732e-17)
(1.01771 -0.500341 -6.30525e-16)
(0.916476 -0.414067 -1.45284e-16)
(1.03089 -0.409643 -1.53624e-16)
(0.941918 -0.340508 1.58381e-16)
(1.03992 -0.338039 -1.16471e-18)
(0.961823 -0.28337 -3.34829e-16)
(1.04637 -0.28082 -1.53578e-16)
(0.977197 -0.237915 -6.59348e-16)
(1.05104 -0.234477 1.74055e-16)
(0.988947 -0.201053 -1.78021e-16)
(1.0543 -0.196384 4.54345e-16)
(0.997801 -0.17069 -4.3264e-16)
(1.05638 -0.164586 2.65524e-16)
(1.00429 -0.14534 -3.09436e-16)
(1.05738 -0.137621 1.3488e-16)
(1.00877 -0.123919 -4.47926e-17)
(1.05733 -0.114375 -1.32453e-16)
(1.01151 -0.105621 2.81799e-17)
(1.05623 -0.0939841 3.31134e-16)
(1.01269 -0.0898761 4.84106e-17)
(1.05399 -0.0757393 1.17532e-16)
(1.01253 -0.0763086 1.78197e-16)
(1.05045 -0.0589908 8.43633e-17)
(1.01129 -0.0647041 1.91087e-16)
(1.04531 -0.0430603 1.52613e-16)
(1.00934 -0.0549914 2.30649e-16)
(1.03813 -0.0272182 1.62354e-16)
(1.00715 -0.0472302 3.35847e-16)
(1.0285 -0.0107429 3.20714e-16)
(1.00525 -0.0414754 -1.79229e-16)
(1.01525 0.00776342 3.4036e-16)
(1.0083 -0.0414971 -2.3235e-16)
(0.985023 0.0427716 1.70413e-16)
(1.04041 -0.0747402 -4.23494e-16)
(0.972919 -0.983311 1.50306e-15)
(0.853304 -0.843047 1.07099e-15)
(1.01505 -0.77837 6.96353e-16)
(0.887987 -0.653193 2.30176e-16)
(1.03818 -0.624839 5.70813e-16)
(0.918427 -0.518341 1.51584e-17)
(1.0509 -0.507004 5.42183e-16)
(0.943958 -0.419617 8.51866e-17)
(1.05811 -0.415116 1.78729e-17)
(0.964556 -0.345084 -1.48124e-16)
(1.06242 -0.342581 1.98271e-16)
(0.980691 -0.287196 1.3247e-17)
(1.06509 -0.284629 -3.14849e-17)
(0.99306 -0.24115 8.06917e-16)
(1.06669 -0.237703 -4.12526e-16)
(1.00236 -0.203814 2.29711e-16)
(1.06742 -0.199141 -1.89153e-16)
(1.00919 -0.173062 8.45814e-17)
(1.06737 -0.166957 1.70972e-16)
(1.01397 -0.147389 -8.04561e-17)
(1.06655 -0.139668 8.37827e-17)
(1.017 -0.125685 4.61679e-17)
(1.06493 -0.116147 1.15046e-16)
(1.01847 -0.107132 -2.46903e-16)
(1.06244 -0.0955142 1.41462e-16)
(1.01854 -0.0911469 -3.52578e-16)
(1.05897 -0.0770589 3.51502e-17)
(1.01741 -0.0773432 -1.76571e-17)
(1.05435 -0.0601482 -3.78233e-16)
(1.01531 -0.0654874 3.826e-17)