/*--------------------------------*- C++ -*----------------------------------*\
| =========                 |                                                 |
| \\      /  F ield         | foam-extend: Open Source CFD                    |
|  \\    /   O peration     | Version:  3.0                                   |
|   \\  /    A nd           | Web:         http://www.extend-project.de       |
|    \\/     M anipulation  |                                                 |
\*---------------------------------------------------------------------------*/
FoamFile
{
    version     2.0;
    format      ascii;
    class       volScalarField;
    location    "1";
    object      p;
}
// * * * * * * * * * * * * * * * * * * * * * * * * * * * * * * * * * * * * * //

dimensions      [0 0 0 0 0 0 0];

internalField   nonuniform List<scalar> 
2688
(
-0.2255323149
-0.2032699848
-0.190014674
-0.1752182422
-0.1671630081
-0.1574198474
-0.1529250594
-0.147058827
-0.1452550522
-0.1431343536
-0.1427321014
-0.1440242992
-0.1456304527
-0.1529542493
-0.15485761
-0.1681939496
-0.1749944936
-0.1991788017
-0.2101336131
-0.2345601983
-0.2617772999
-0.2794026914
-0.3190116076
-0.3179657125
-0.2248311679
-0.2026423881
-0.1894168476
-0.1746664474
-0.1666363285
-0.156921827
-0.1524444266
-0.1465954521
-0.1447988774
-0.1426842191
-0.1422843626
-0.1435724865
-0.1451744709
-0.1524749925
-0.1543724453
-0.1676648558
-0.174442999
-0.1985490713
-0.2094733536
-0.2338256189
-0.2609597876
-0.2785191441
-0.3179990364
-0.3169567831
-0.2234089179
-0.2013562508
-0.1882180911
-0.1735616449
-0.1655817909
-0.155930849
-0.1514802857
-0.1456694841
-0.1438834433
-0.141783368
-0.1413857766
-0.1426666835
-0.1442585142
-0.151513679
-0.1533985927
-0.1666074484
-0.1733416411
-0.1972948367
-0.2081473818
-0.2323436772
-0.2593091419
-0.2767588314
-0.3159977144
-0.3149607925
-0.2212914453
-0.1994489855
-0.1864333691
-0.1719161121
-0.164011686
-0.154451463
-0.1500449928
-0.1442885013
-0.1425203713
-0.1404396033
-0.1400462594
-0.1413147671
-0.1428920034
-0.150078237
-0.1519456145
-0.1650286697
-0.1717002925
-0.1954260236
-0.2061766371
-0.2301414161
-0.2568501278
-0.2741304917
-0.3129974158
-0.3119687155
-0.2184710129
-0.1969060127
-0.1840570412
-0.1697248568
-0.1619209069
-0.1524835031
-0.1481324773
-0.1424502599
-0.140703956
-0.1386503308
-0.138261421
-0.1395142831
-0.1410708776
-0.1481661803
-0.1500097031
-0.1629274386
-0.1695139135
-0.1929376623
-0.2035501462
-0.2272082508
-0.2535757701
-0.2706387165
-0.3090102391
-0.3079950381
-0.2149693805
-0.1937504361
-0.181106456
-0.1670036203
-0.1593246125
-0.1500380573
-0.1457579549
-0.1401664508
-0.1384492091
-0.1364284727
-0.1360463656
-0.1372789456
-0.1388110724
-0.1457923926
-0.1476066362
-0.1603168986
-0.1667994596
-0.1898484578
-0.2002904369
-0.2235673662
-0.2495102624
-0.2662985321
-0.3040562639
-0.3030566678
-0.2107849971
-0.1899786787
-0.1775812811
-0.1637527616
-0.1562231291
-0.1471180507
-0.1429208616
-0.1374389263
-0.1357545789
-0.1337737604
-0.1333986759
-0.1346079597
-0.1361097646
-0.142956054
-0.1447349543
-0.1571991602
-0.1635554055
-0.186156315
-0.1963949978
-0.2192180563
-0.2446545391
-0.2611159525
-0.2981365347
-0.2971562658
-0.2059430811
-0.1856145526
-0.1735015301
-0.1599902643
-0.1526335299
-0.1437374801
-0.1396376752
-0.1342817517
-0.1326371921
-0.1307022096
-0.1303363061
-0.1315176974
-0.1329852944
-0.1396736773
-0.1414118082
-0.1535889525
-0.1598002803
-0.1818825999
-0.1918856324
-0.2141837319
-0.2390358865
-0.255120154
-0.2912927752
-0.2903351077
-0.2004478527
-0.1806613181
-0.1688718983
-0.1557211291
-0.1485605947
-0.1399025161
-0.13591172
-0.130699284
-0.1290981664
-0.127215583
-0.1268592444
-0.1280101641
-0.1294384392
-0.1359494676
-0.137641126
-0.1494940467
-0.1555392782
-0.1770324334
-0.186769164
-0.2084713285
-0.2326589069
-0.2483116503
-0.2835170327
-0.2825842785
-0.1943262717
-0.1751436569
-0.1637141787
-0.150964778
-0.1440230328
-0.1356295053
-0.1317614069
-0.1267084585
-0.1251569946
-0.1233321976
-0.1229870926
-0.1241027902
-0.1254875751
-0.1317991039
-0.1334395057
-0.1449297617
-0.1507910364
-0.1716279075
-0.1810674123
-0.2021073864
-0.2255576206
-0.240734891
-0.2748671126
-0.2739633066
-0.1875893885
-0.1690714132
-0.1580385209
-0.1457312658
-0.1390299633
-0.1309279352
-0.127193502
-0.1223162765
-0.1208183001
-0.1190578198
-0.1187246073
-0.1198029108
-0.1211397715
-0.1272336994
-0.1288170808
-0.1399092359
-0.1455670788
-0.1656811752
-0.1747937533
-0.1951024645
-0.217738336
-0.2323863062
-0.265334431
-0.2644612291
-0.1802653256
-0.1624699745
-0.1518680003
-0.1400411907
-0.1336017459
-0.1258163087
-0.1222282015
-0.1175416567
-0.1161023737
-0.1144107597
-0.1140906696
-0.1151268896
-0.1164116482
-0.1222672535
-0.1237895165
-0.1344482389
-0.1398859079
-0.1592148456
-0.1679726972
-0.1874897799
-0.2092434415
-0.2233221119
-0.2549842778
-0.2541455328
-0.1723714801
-0.1553550873
-0.1452177055
-0.133909029
-0.1277512451
-0.1203072339
-0.116875833
-0.1123951568
-0.1110187053
-0.109402379
-0.1090961878
-0.1100883145
-0.1113169346
-0.1169172199
-0.1183725499
-0.1285645268
-0.1337638751
-0.1522455337
-0.1606194947
-0.1792794413
-0.2000796134
-0.2135390942
-0.2438153327
-0.2430127525
-0.1639374935
-0.1477533666
-0.1381123524
-0.1273570751
-0.1215007422
-0.1144212326
-0.1111578744
-0.10689658
-0.1055872725
-0.1040501538
-0.1037589117
-0.1047026587
-0.1058712925
-0.1111974945
-0.1125824757
-0.1222759593
-0.1272220934
-0.1448002051
-0.1527662833
-0.1705147748
-0.19029831
-0.2031008954
-0.2318947093
-0.2311314451
-0.1549857898
-0.1396851363
-0.1305709033
-0.1204031925
-0.1148662946
-0.1081739313
-0.1050884155
-0.1010605692
-0.09982255954
-0.09837057721
-0.09809502922
-0.09898841612
-0.1000932788
-0.1051294969
-0.1064383995
-0.1156023202
-0.1202779196
-0.1368949387
-0.1444253245
-0.161202418
-0.1799057651
-0.1920076539
-0.2192308775
-0.2185089903
-0.1455483034
-0.1311790679
-0.1226202777
-0.1130718628
-0.1078721013
-0.1015875217
-0.09868971759
-0.09490725517
-0.09374425803
-0.09238094458
-0.09212206782
-0.09296138406
-0.09399918647
-0.09872904676
-0.09995930027
-0.1085660163
-0.1129585349
-0.1285649642
-0.1356388807
-0.1513957739
-0.1689605536
-0.1803260284
-0.2058897669
-0.2052116002
-0.1356510847
-0.1222587333
-0.1142823353
-0.1053835535
-0.1005370693
-0.09468052691
-0.09197946528
-0.08845503302
-0.08737084956
-0.08610136061
-0.08585982968
-0.08664311152
-0.08761024722
-0.09201901629
-0.09316496331
-0.1011858622
-0.1052790029
-0.1198228529
-0.1264153102
-0.141099252
-0.1574707499
-0.1680627446
-0.1918905608
-0.1912584132
-0.1253289684
-0.112955432
-0.1055864756
-0.09736503618
-0.09288713046
-0.08747654775
-0.08498063557
-0.08172458983
-0.08072250141
-0.0795500482
-0.07932675631
-0.08005096207
-0.0809448996
-0.08501893597
-0.08607897385
-0.09349078374
-0.09727429176
-0.1107128637
-0.1168054834
-0.1303729507
-0.1454983091
-0.1552838506
-0.177296721
-0.1767122682
-0.1146104987
-0.1032949865
-0.09655675105
-0.08903886946
-0.08494366567
-0.07999661218
-0.07771383677
-0.07473709843
-0.07382035775
-0.0727492279
-0.07254475015
-0.0732079295
-0.07402514983
-0.07775100973
-0.07871960119
-0.08549676893
-0.08895606153
-0.1012442466
-0.1068160222
-0.1192225163
-0.1330562781
-0.1420049436
-0.1621380664
-0.1616036012
-0.1035336387
-0.09331149636
-0.08722503495
-0.08043400896
-0.07673425235
-0.07226576268
-0.07020311713
-0.06751444059
-0.06668589193
-0.06571894503
-0.06553411673
-0.06613400952
-0.0668729106
-0.07023987094
-0.07111632315
-0.07723991837
-0.08036667311
-0.09146845256
-0.09650302698
-0.1077106384
-0.1202066418
-0.1282893093
-0.1464753104
-0.1459920276
-0.09212855331
-0.08303228598
-0.0776169662
-0.07157458315
-0.06828212717
-0.06430679792
-0.06247098555
-0.06007936433
-0.05934165212
-0.05848227852
-0.05831747588
-0.05885211344
-0.05950920261
-0.06250536134
-0.06328449841
-0.0687328117
-0.0715148372
-0.0813930761
-0.08587400568
-0.09584703393
-0.1069691022
-0.114161717
-0.1303475525
-0.1299175306
-0.08043632891
-0.07249421561
-0.06776681702
-0.06249167456
-0.05961662882
-0.05614647821
-0.05454308896
-0.05245559861
-0.05181108321
-0.05106175461
-0.0509178577
-0.05138586965
-0.05196053339
-0.05457805687
-0.05525985312
-0.06001809522
-0.06244863036
-0.0710740001
-0.0749870372
-0.0836938533
-0.09340367716
-0.09968193453
-0.1138130906
-0.1134371602
-0.06848792396
-0.06172539053
-0.05770112089
-0.0532102871
-0.05076199746
-0.04780842202
-0.04644271069
-0.04466629802
-0.04411697336
-0.04348014794
-0.04335719044
-0.04375657223
-0.04424541224
-0.04647432975
-0.04705431341
-0.05110530856
-0.05317502535
-0.06051908251
-0.06385250915
-0.07126638737
-0.0795369422
-0.08488288627
-0.09691835808
-0.09659822978
-0.05632748464
-0.05076536525
-0.04745653546
-0.0437636942
-0.0417495753
-0.0393214559
-0.03819757889
-0.036737553
-0.03628528661
-0.03576302451
-0.03566204015
-0.03599233013
-0.03639559618
-0.03823073641
-0.03870921473
-0.04204209855
-0.04374558767
-0.0497859065
-0.05252796384
-0.05862432951
-0.06542612295
-0.06982100763
-0.07971996839
-0.07945616144
-0.04398590771
-0.0396422445
-0.03705968446
-0.03417694873
-0.03260365884
-0.03070903883
-0.02983069306
-0.02869187159
-0.02833793839
-0.02793172576
-0.02785230334
-0.02811152728
-0.02842613648
-0.02985990738
-0.03023343375
-0.03283606653
-0.03416715084
-0.03888437781
-0.04102799124
-0.04578904783
-0.05110407749
-0.05453585607
-0.06226973087
-0.0620634937
-0.03151031387
-0.02839821887
-0.02654963789
-0.02448561596
-0.02335782256
-0.02200233165
-0.02137220811
-0.02055806378
-0.02030386186
-0.02001531451
-0.01995865779
-0.02014713246
-0.02037391928
-0.02140350165
-0.02167243418
-0.02353777216
-0.02449240188
-0.02787139868
-0.02940780601
-0.03281678253
-0.03662511719
-0.03908115727
-0.04462336876
-0.04447493838
-0.01893067057
-0.01706059062
-0.01595227858
-0.01471396966
-0.01403552422
-0.0132237594
-0.01284391746
-0.01235708145
-0.0122030976
-0.01203271743
-0.01199798544
-0.01211394711
-0.01225044618
-0.01287102988
-0.01303318366
-0.01415443124
-0.01472969234
-0.01676032024
-0.01768684468
-0.01973472093
-0.02202731019
-0.02350139918
-0.02683624464
-0.02674637572
-0.00629693553
-0.005674078876
-0.005309063226
-0.004899888287
-0.004672673021
-0.004406926444
-0.004278578939
-0.004120630838
-0.004067804104
-0.004016688413
-0.004005135989
-0.00404943012
-0.004096752454
-0.004307619025
-0.004363271649
-0.004737253309
-0.004930639696
-0.00560550604
-0.005916887181
-0.006595310587
-0.007362274867
-0.007848259009
-0.008963714661
-0.008932379826
0.006362642952
0.005735546323
0.005355613332
0.004933851988
0.00470885971
0.004427484588
0.004303966631
0.004132602438
0.004084598011
0.004016880553
0.004006381436
0.004035057031
0.004078481186
0.004279080471
0.004330730504
0.00470536207
0.004893578356
0.005575503925
0.005877875557
0.006569331579
0.007328098527
0.007830583994
0.008936958667
0.008909484264
0.01899555763
0.01712127613
0.0159980757
0.01474719637
0.0140709144
0.01324350828
0.01286839424
0.01236808748
0.0122188109
0.01203180939
0.01199816304
0.01209870139
0.01223170045
0.01284249996
0.01300122823
0.01412362317
0.01469412953
0.01673208215
0.01764956328
0.01971044127
0.02199455672
0.02348503022
0.02681066908
0.02672467486
0.03157590061
0.02845945169
0.02659600078
0.02451941249
0.02339375887
0.02202271394
0.02139732934
0.02056983206
0.02032037503
0.0200153329
0.01995974412
0.02013275095
0.02035582086
0.02137539284
0.0216406255
0.02350677575
0.02445634968
0.02784251535
0.02936997081
0.03279228193
0.03659289012
0.03906583394
0.04459967828
0.04445533645
0.04404909522
0.03970119008
0.03710385134
0.03420859799
0.03263727895
0.03072707503
0.02985318365
0.02870087336
0.02835138392
0.0279286515
0.02785039369
0.02809468772
0.02840667205
0.02983175768
0.0302031876
0.03280802761
0.03413525827
0.03886044568
0.04099508765
0.04576942899
0.05107593696
0.05452427028
0.06224936496
0.0620472403
0.05639198932
0.05082533438
0.04750176118
0.04379641282
0.04178421599
0.039340691
0.03822127126
0.03674799271
0.03630021729
0.03576169209
0.03566185312
0.03597719741
0.03637746577
0.03820350791
0.03867931178
0.04201372132
0.04371275046
0.04976064313
0.05249384487
0.05860399181
0.06539859323
0.06981092042
0.07970267745
0.07944335779
0.06854862413
0.06178173203
0.05774288644
0.05323963267
0.05079301693
0.04782401333
0.04646234701
0.04467253524
0.04412732359
0.04347428689
0.04335264356
0.04373785086
0.04422521926
0.04644688637
0.04702649214
0.05108103824
0.05314813833
0.06050104295
0.06382580567
0.07125350923
0.07951566275
0.08487848578
0.09690594581
0.09659029149
0.08049880994
0.07255192388
0.067809999
0.06252245552
0.05964900223
0.05616369877
0.05456432549
0.05246379257
0.05182340686
0.05105826693
0.05091567173
0.05136963038
0.05194240096
0.05455217941
0.05523271734
0.05999349398
0.06242048371
0.07105395269
0.07495833404
0.08367934155
0.09338238139
0.09967850142
0.1138037333
0.1134327206
0.09218607573
0.083085265
0.07765568714
0.07160104542
0.06830990855
0.06431944991
0.0624871924
0.06008245175
0.05934853456
0.05847356411
0.05831032938
0.05883181394
0.05948866604
0.06247906169
0.06325951683
0.06871265977
0.07149337543
0.08138133914
0.08585421715
0.09584171985
0.1069555686
0.1141653471
0.1303439133
0.1299187144
0.1035931983
0.09336600635
0.08726535041
0.08046209214
0.07676352231
0.07228027414
0.07022110869
0.06751979475
0.06669499984
0.0657130265
0.06552974117
0.06611682992
0.06685513334
0.07021592468
0.07109260876
0.07721978049
0.08034398167
0.0914542522
0.09648049697
0.1077024783
0.1201918149
0.1282924031
0.1464734207
0.1459953752
0.1146642283
0.1033439313
0.09659190065
0.08906201195
0.08496777671
0.08000608355
0.07772637656
0.07473705184
0.07382385094
0.07273811651
0.07253557497
0.0731869165
0.07400508748
0.07772656212
0.07869787632
0.0854808291
0.08893990569
0.1012383448
0.106802916
0.1192244317
0.1330501612
0.1420161174
0.1621423195
0.1616129169
0.125384747
0.113005862
0.105623195
0.09738978183
0.09291263508
0.08748785775
0.0849948853
0.08172686386
0.08072822112
0.07954194054
0.07932051219
0.08003349869
0.08092814661
0.08499765463
0.0860593019
0.0934756202
0.09725747879
0.1107045808
0.1167892799
0.1303708908
0.1454893695
0.1552924271
0.1773005614
0.1767214789
0.1357004444
0.122303018
0.1143134588
0.1054030334
0.1005572432
0.09468677266
0.09198840887
0.08845221146
0.08737139895
0.0860886929
0.08584955124
0.08662260543
0.08759177305
0.09199738706
0.09314709726
0.1011743114
0.1052679841
0.1198220014
0.1264081523
0.1411073059
0.1574710205
0.1680803181
0.1919010584
0.1912740965
0.1455994487
0.131224554
0.1226527306
0.1130927239
0.1078933518
0.1015953262
0.0987000152
0.09490650648
0.09374676563
0.09237124735
0.09211462687
0.09294460054
0.09398431285
0.09871123504
0.09994426998
0.1085562334
0.1129479361
0.1285625175
0.135628993
0.1513992577
0.1689567052
0.180338869
0.2058973535
0.2052244998
0.1550302278
0.1397241572
0.1305975667
0.1204186878
0.1148823493
0.1081769968
0.1050940365
0.1010555448
0.09982086533
0.09835740522
0.09808474119
0.09896974836
0.1000775977
0.1051117562
0.1064251435
0.115595428
0.1202720009
0.1368983687
0.1444231872
0.1612150101
0.1799109297
0.1920301051
0.2192458428
0.2185291926
0.1639831503
0.1477930347
0.138139873
0.1273735277
0.1215173775
0.1144253776
0.111164262
0.106893086
0.1055869884
0.104039626
0.1037511137
0.1046876063
0.105859191
0.111183908
0.1125725884
0.1222716631
0.1272177715
0.1448032658
0.152762551
0.170523033
0.1902986493
0.2031167431
0.2319041848
0.2311460072
0.172410534
0.1553883166
0.1452394975
0.1339202049
0.1277630095
0.1203071648
0.1168784854
0.1123885644
0.1110156413
0.1093898569
0.1090870855
0.110072817
0.1113052413
0.1169044355
0.1183647537
0.1285625793
0.1337630906
0.1522525776
0.1606213996
0.1792946631
0.2000877075
0.2135643431
0.2438328532
0.243035515
0.180304736
0.1625030188
0.151889941
0.1400526853
0.1336134655
0.1258167443
0.1222309398
0.1175358913
0.1160999587
0.1144002406
0.1140834511
0.115114594
0.1164031587
0.1222585243
0.1237851797
0.1344491976
0.1398873648
0.1592224841
0.1679744456
0.1875017424
0.2092468676
0.2233396908
0.254994101
0.2541601223
0.1876228407
0.1690985551
0.1580551639
0.1457378353
0.1390372692
0.1309247417
0.1271935317
0.1223086809
0.1208148108
0.1190471166
0.1187179668
0.1197918958
0.1211332166
0.1272268543
0.1288155667
0.1399125385
0.1455715077
0.1656915171
0.174799114
0.1951189793
0.2177477161
0.2324123458
0.2653530159
0.264485006
0.1943590331
0.1751695983
0.1637300959
0.1509708202
0.1440295589
0.1356262109
0.1317608772
0.1267010336
0.1251533499
0.1233226191
0.1229814578
0.1240941611
0.1254833389
0.1317955555
0.1334408338
0.1449355493
0.1507973115
0.1716388346
0.1810734253
0.2021219668
0.2255631956
0.2407535383
0.2748768766
0.273977575
0.2004758726
0.1806824897
0.1688834271
0.1557229813
0.1485633411
0.1398961704
0.1359093745
0.1306910143
0.1290949515
0.1272075027
0.1268559962
0.1280044823
0.129437677
0.1359489908
0.1376460148
0.1495024956
0.1555487442
0.177046237
0.1867781299
0.2084890891
0.2326690115
0.2483372431
0.283535855
0.2826080804
0.2059693818
0.185633558
0.1735115071
0.1599906826
0.1526346965
0.1437304124
0.1396341722
0.134273147
0.1326331336
0.1306943331
0.1303329731
0.131513116
0.1329852983
0.1396748636
0.1414179859
0.1535987724
0.1598104082
0.1818962337
0.1918948651
0.214199988
0.2390425963
0.2551394591
0.2913026344
0.2903493118
0.2108080233
0.1899944687
0.1775881251
0.1637500681
0.1562213923
0.1471085607
0.1429162869
0.1374299888
0.1357517198
0.1337681496
0.1333985742
0.1346070541
0.1361139869
0.1429610084
0.1447449684
0.1572118335
0.1635693734
0.1861740398
0.1964079291
0.2192370068
0.2446641045
0.261138932
0.2981528686
0.29717699
0.2149898455
0.1937633713
0.1811112167
0.1669988728
0.1593206602
0.1500273936
0.1457517182
0.140156865
0.138445048
0.1364224502
0.1360453022
0.137277928
0.1388144996
0.1457972139
0.1476162365
0.1603299027
0.1668133519
0.1898657819
0.2003028041
0.2235840675
0.2495157115
0.2663167011
0.3040649657
0.3030696056
0.2184893734
0.196917398
0.1840597852
0.1697181268
0.1619150615
0.152471124
0.1481260172
0.1424406876
0.1407011943
0.1386463318
0.1382632049
0.1395163854
0.1410780391
0.1481746289
0.1500231184
0.1629436229
0.1695326003
0.192960247
0.2035675407
0.227227717
0.253582295
0.2706565726
0.3090203834
0.3080086685
0.221307046
0.1994568491
0.1864336837
0.1719072674
0.1640033435
0.1544379044
0.1500364723
0.1442780479
0.1425158175
0.1404347332
0.140046406
0.1413159177
0.1428974929
0.1500855163
0.1519575987
0.1650443055
0.1717181386
0.1954473578
0.2061916286
0.2301563309
0.2568509707
0.2741448417
0.3130035101
0.3119786265
0.223423328
0.2013642165
0.1882170054
0.1735520723
0.1655726835
0.1559163324
0.1514729219
0.1456599467
0.143880958
0.1417805267
0.1413885473
0.1426705989
0.1442673085
0.1515242315
0.1534140817
0.166625819
0.1733635065
0.1973196177
0.2081670414
0.2323608539
0.2593115509
0.2767705962
0.316001851
0.3149670201
0.2248415748
0.2026424203
0.1894119864
0.1746541336
0.166623821
0.1569064145
0.1524344485
0.1465847428
0.1447941002
0.1426805719
0.1422858215
0.1435761787
0.1451828379
0.1524857858
0.154387464
0.1676827202
0.1744631483
0.1985708548
0.2094873808
0.2338342339
0.2609562322
0.278525542
0.3180059602
0.3169644402
0.22554784
0.203278996
0.1900074854
0.175203656
0.1671482039
0.1574007844
0.1529148115
0.1470471695
0.1452509013
0.1431312028
0.142735194
0.1440299451
0.1456416326
0.1529676673
0.1548752216
0.1682121501
0.1750139743
0.1991974039
0.2101486713
0.2345719512
0.261779907
0.2794041988
0.3190095555
0.317964621
0.2255490019
0.2032800362
0.1900086695
0.1752049135
0.167149103
0.1574018284
0.1529154171
0.1470478566
0.1452511522
0.1431316332
0.1427353048
0.1440302201
0.1456417475
0.1529678129
0.1548752758
0.16821199
0.1750139033
0.199197048
0.2101486768
0.2345715896
0.2617799335
0.2794037753
0.319009468
0.3179644086
0.2248361813
0.2026376451
0.1894086887
0.1746520812
0.1666217699
0.1569057644
0.1524334961
0.1465848514
0.1447937382
0.1426813232
0.1422861686
0.1435773002
0.1451837109
0.1524867806
0.1543881729
0.1676826885
0.1744632797
0.1985700283
0.2094875512
0.2338332442
0.2609563632
0.2785243014
0.3180057122
0.316963814
0.2234204274
0.2013616736
0.1882162189
0.1735526652
0.1655725613
0.1559178885
0.1514732983
0.1456615346
0.1438811988
0.1417822233
0.1413891886
0.1426723239
0.1442684466
0.1515255382
0.1534149056
0.1666254696
0.1733634927
0.1973180787
0.2081672195
0.2323591431
0.2593117344
0.2767685142
0.3160014309
0.3149659738
0.221297291
0.1994482174
0.1864281324
0.1719042704
0.1639999882
0.1544374859
0.1500350216
0.1442788057
0.1425152261
0.1404365613
0.1400471383
0.1413183794
0.1428993199
0.1500876344
0.1519590679
0.1650440958
0.1717183477
0.195445376
0.2061919917
0.2301540159
0.2568512716
0.2741419628
0.3130029401
0.3119771795
0.2184826028
0.19691144
0.1840571611
0.1697181556
0.1619140175
0.1524732598
0.1481262437
0.142443237
0.1407015077
0.1386493592
0.1382644524
0.1395196158
0.1410802435
0.148177127
0.150024728
0.1629431074
0.1695326564
0.192957552
0.2035679009
0.2272246862
0.2535826465
0.2706528691
0.3090196495
0.3080068148
0.2149756585
0.1937508109
0.1811032939
0.1669947808
0.1593158434
0.1500270147
0.1457495936
0.1401580891
0.1384440904
0.1364252248
0.1360463394
0.1372816624
0.1388172401
0.1458004346
0.1476184606
0.1603295409
0.1668136658
0.1898626967
0.2003033885
0.2235804802
0.2495162063
0.2663122408
0.3040641031
0.3030673769
0.2107975873
0.1899852702
0.1775837799
0.1637495989
0.1562194932
0.1471112924
0.1429164034
0.1374335142
0.1357521654
0.1337725475
0.1334005037
0.1346118466
0.1361173124
0.1429647433
0.1447473938
0.1572112
0.1635695286
0.1861702438
0.1964084922
0.2192327108
0.2446646444
0.2611336721
0.2981518533
0.2971743745
0.2059507733
0.185617067
0.1735011403
0.1599853679
0.1526282795
0.1437298731
0.1396311905
0.1342746272
0.1326316542
0.1306978917
0.1303342164
0.1315180326
0.1329888959
0.1396791548
0.1414209496
0.1535982926
0.1598108582
0.1818921181
0.1918957075
0.2141952055
0.2390433187
0.2551335026
0.2913015222
0.2903463598
0.2004619805
0.1806702271
0.1688774593
0.1557220471
0.1485606241
0.1398994669
0.1359093836
0.1306954827
0.1290955598
0.1272132765
0.1268586746
0.1280108869
0.1294421898
0.1359540245
0.1376493032
0.1495018221
0.1555490446
0.1770414233
0.1867789253
0.2084836044
0.2326697663
0.2483305163
0.2835346016
0.2826047651
0.1943361139
0.1751492651
0.1637172813
0.1509642031
0.1440214504
0.1356253296
0.1317568704
0.126702548
0.1251511794
0.1233267624
0.1229827801
0.124100133
0.1254877115
0.1318008648
0.1334445037
0.144934988
0.1507979243
0.1716337785
0.1810745642
0.2021160854
0.2255641853
0.2407461945
0.2748755691
0.2739739739
0.1876057039
0.1690834062
0.1580476562
0.1457364408
0.1390337484
0.1309285312
0.1271934033
0.1223140129
0.1208155765
0.1190542258
0.1187214374
0.1197999422
0.1211389875
0.1272332624
0.1288197851
0.1399119372
0.1455720159
0.1656857995
0.1748001758
0.195112401
0.217748714
0.2324042603
0.265351574
0.2644810637
0.1802777313
0.1624790365
0.1518747634
0.1400447575
0.1336036485
0.1258153879
0.1222257844
0.11753723
0.1160969274
0.1144047362
0.1140846904
0.1151214463
0.116408189
0.122264768
0.1237894967
0.1344485873
0.1398881522
0.1592165883
0.1679759115
0.1874948716
0.2092481641
0.2233310867
0.2549926591
0.2541559577
0.1723903671
0.1553704629
0.1452305226
0.1339183336
0.127758683
0.1203113432
0.1168781631
0.1123946372
0.1110165205
0.109398205
0.1090913503
0.1100824944
0.1113123316
0.116912296
0.1183699876
0.1285621983
0.1337638876
0.1522461041
0.1606227629
0.1792871024
0.200088972
0.213555019
0.2438312727
0.2430310234
0.1639524036
0.1477657063
0.1381225158
0.1273643664
0.1215059304
0.1144234868
0.1111579089
0.1068940813
0.1055829531
0.1040442242
0.1037520761
0.1046951087
0.1058647172
0.1111909575
0.1125774605
0.1222710236
0.1272187202
0.1447966369
0.1527643544
0.1705152891
0.1903002818
0.2031070161
0.23190267
0.2311413696
0.1550072527
0.1397037893
0.1305871942
0.1204163106
0.1148772087
0.1081814374
0.1050934452
0.1010621985
0.0998217769
0.09836683538
0.09808974516
0.09898098358
0.1000860368
0.1051211291
0.1064314911
0.1155954479
0.1202731875
0.1368913283
0.1444248866
0.1612065955
0.1799124721
0.1920196674
0.2192441657
0.2185242255
0.1455654141
0.1311942863
0.1226334737
0.1130824952
0.1078804568
0.1015929337
0.09869251694
0.09490706603
0.09374164538
0.09237571251
0.09211510569
0.09295247237
0.09399012324
0.09871890397
0.09994956576
0.1085555592
0.1129489988
0.1285552616
0.1356311115
0.1513907586
0.1689586807
0.180328158
0.205895818
0.2052194753
0.1356748983
0.122280344
0.1143017656
0.1054001202
0.1005512829
0.09469133722
0.09198746523
0.08845925928
0.08737223187
0.0860989903
0.08585517417
0.08663524447
0.08760153039
0.09200828543
0.09315465527
0.1011749324
0.1052696847
0.1198146296
0.1264102242
0.1410981902
0.1574728342
0.1680688906
0.1918993064
0.1912687109
0.1253479693
0.1129731479
0.1056023995
0.09737873006
0.09289857195
0.08748509159
0.08498641033
0.08172699874
0.08072203787
0.07954609557
0.0793203261
0.08004143175
0.08093398468
0.08500569087
0.08606484698
0.09347486536
0.09725856936
0.110696796
0.1167916476
0.1303617546
0.1454916588
0.1552808635
0.1772990315
0.1767161328
0.1146363734
0.1033191863
0.09657898121
0.08905854463
0.08496100644
0.08001063745
0.07772500176
0.07474429422
0.07382447728
0.07274902057
0.07254163567
0.07320071633
0.07401604499
0.07773891959
0.07870671471
0.08548224654
0.08894226847
0.101230926
0.1068054065
0.1192148053
0.1330522184
0.1420038203
0.1621404756
0.1616071338
0.1035542848
0.09333139807
0.08724343257
0.08045051767
0.07674864593
0.07227734455
0.07021193699
0.06751963341
0.06668791047
0.06571680205
0.06552879086
0.066124536
0.06686072167
0.07022401714
0.0710981857
0.07721884256
0.08034497641
0.0914460159
0.09648299654
0.1076928222
0.1201943374
0.1282801035
0.1464718728
0.1459897286
0.09215620906
0.08305871968
0.07764166501
0.07159703092
0.06830236683
0.06432387874
0.06248532825
0.06008969678
0.05934882795
0.05848478964
0.05831660474
0.05884645075
0.05950060324
0.06249270432
0.06326964252
0.06871502647
0.07149656645
0.08137419474
0.08585719091
0.09583182453
0.1069578209
0.1141523011
0.1303419019
0.1299124985
0.08045839709
0.07251600187
0.06778739806
0.06251068403
0.05963370835
0.05616086934
0.05455482149
0.05246357291
0.05181571377
0.05106174125
0.0509140029
0.05137691023
0.05194749436
0.05455999114
0.05523807457
0.05999220426
0.06242122804
0.07104530145
0.0749607925
0.08366927609
0.09338498867
0.0996655654
0.11380207
0.1134267303
0.06851708644
0.06175370039
0.05772792352
0.05323511412
0.05078478442
0.04782824022
0.04645997372
0.04467962397
0.044127183
0.04348555368
0.04335889966
0.04375294779
0.04423782314
0.04646152132
0.04703780666
0.05108441857
0.05315231891
0.06049450052
0.06382935128
0.07124364391
0.07951804624
0.08486483121
0.09690362684
0.09658354947
0.05635071003
0.050788676
0.04747890736
0.04378476145
0.0417689014
0.03933823807
0.03821183723
0.03674802812
0.03629234518
0.03576510291
0.03565970203
0.03598401719
0.03638193456
0.03821074482
0.03868419115
0.04201185396
0.04371306939
0.04975154745
0.05249603385
0.05859360401
0.06540105586
0.0697974419
0.07970072616
0.07943692441
0.04401627634
0.03967203255
0.03708815389
0.03420366014
0.0326284877
0.03073107387
0.02985033676
0.02870770591
0.02835076053
0.02793972051
0.02785642257
0.02810985926
0.02841957864
0.02984699073
0.03021545506
0.03281235511
0.03414053875
0.03885478715
0.04099931128
0.04575993953
0.05107838541
0.05451020934
0.06224657667
0.06203987521
0.0315343563
0.02842260402
0.02657328801
0.02450815822
0.02337878337
0.02202088235
0.02138834917
0.02057045468
0.02031281022
0.02001904538
0.0199575357
0.02013929614
0.0203597446
0.02138190461
0.02164482192
0.02350409456
0.02445606317
0.02783286585
0.02937161949
0.03278161394
0.03659490325
0.03905193554
0.04459724898
0.0444483797
0.01896189697
0.01709139783
0.01598189539
0.01474196381
0.01406174917
0.01324730805
0.01286517657
0.01237464153
0.01221773212
0.01204252026
0.0120038169
0.01211360623
0.01224455983
0.01285788832
0.01301408072
0.01412868549
0.01470050499
0.01672748693
0.0176545742
0.01970170282
0.02199704403
0.02347090296
0.02680735496
0.0267167309
0.006321382332
0.005699005182
0.005333379464
0.00492320652
0.004694516542
0.004426448397
0.004295754231
0.00413409439
0.00407779955
0.004021306586
0.004004657126
0.004041725118
0.00408220475
0.004284965216
0.004334191012
0.004701723007
0.004892535462
0.005565142009
0.005878719159
0.006558383895
0.007329346422
0.007816482856
0.008933984723
0.008902097724
-0.006330954998
-0.005704236064
-0.005325434223
-0.004905260099
-0.00468198192
-0.004403249628
-0.004281995502
-0.004114299505
-0.004069223117
-0.004006389532
-0.003999919948
-0.004035041104
-0.004084213925
-0.004292488185
-0.004350267703
-0.004731771093
-0.004923334605
-0.005608987947
-0.005910981301
-0.006602894823
-0.007359635384
-0.007861873128
-0.008967300993
-0.008940503244
-0.01897116451
-0.01709639455
-0.01597376327
-0.0147238769
-0.01404902539
-0.01322392555
-0.01285115349
-0.01235455213
-0.01220879057
-0.01202723398
-0.01199870705
-0.0121066442
-0.01224635779
-0.0128653787
-0.01303024747
-0.01415892913
-0.01473153278
-0.01677149258
-0.01768695843
-0.01974592925
-0.02202700136
-0.02351531727
-0.02683953455
-0.02675376497
-0.03154417881
-0.02842819123
-0.02656587809
-0.02449095676
-0.02336701232
-0.02199867663
-0.02137559718
-0.02055184517
-0.02030542802
-0.02000537445
-0.01995385
-0.02013338832
-0.02036187245
-0.02138894136
-0.02165966476
-0.02353217997
-0.02448446162
-0.02787380952
-0.02940087977
-0.03282276603
-0.03662193936
-0.03909338254
-0.04462650726
-0.04448235421
-0.04402521963
-0.03967695026
-0.03708021894
-0.03418608002
-0.03261619574
-0.0307083786
-0.0298368653
-0.02868829592
-0.02834237248
-0.0279250243
-0.0278516931
-0.02810314458
-0.02842108299
-0.02985389011
-0.03023050756
-0.03284096141
-0.03416959676
-0.03889622823
-0.041028969
-0.04580039727
-0.05110457641
-0.05454906317
-0.06227280136
-0.06207017629
-0.05636067007
-0.05079468767
-0.04747231102
-0.04376884205
-0.04175836644
-0.03931773146
-0.03820069263
-0.03673133033
-0.03628676376
-0.03575332686
-0.03565754017
-0.03597925031
-0.0363841382