/*--------------------------------*- C++ -*----------------------------------*\
| =========                 |                                                 |
| \\      /  F ield         | foam-extend: Open Source CFD                    |
|  \\    /   O peration     | Version:  3.0                                   |
|   \\  /    A nd           | Web:         http://www.extend-project.de       |
|    \\/     M anipulation  |                                                 |
\*---------------------------------------------------------------------------*/
FoamFile
{
    version     2.0;
    format      ascii;
    class       volScalarField;
    location    "58";
    object      p;
}
// * * * * * * * * * * * * * * * * * * * * * * * * * * * * * * * * * * * * * //

dimensions      [0 0 0 0 0 0 0];

internalField   nonuniform List<scalar> 
2688
(
-0.2354689505
-0.2161921997
-0.2047132618
-0.1915588158
-0.1843827197
-0.1750860218
-0.1706559333
-0.1639638826
-0.1613463771
-0.1564882504
-0.1550700266
-0.1515226454
-0.1508674285
-0.1482382088
-0.148009384
-0.1459744137
-0.145884431
-0.1441541287
-0.1439257272
-0.1422229726
-0.1415594293
-0.1396006384
-0.1381632259
-0.1356333291
-0.2347076323
-0.215496926
-0.204058592
-0.190949276
-0.1837997104
-0.1745353429
-0.1701240003
-0.1634558773
-0.1608527426
-0.1560126145
-0.1546067196
-0.1510727766
-0.1504294292
-0.1478097646
-0.1475932001
-0.1455640918
-0.1454867984
-0.1437587048
-0.1435425462
-0.1418390047
-0.1411855738
-0.1392252416
-0.137793968
-0.1352636002
-0.233284931
-0.2141922948
-0.2028230489
-0.1897946588
-0.1826867034
-0.1734797557
-0.169091438
-0.1624646501
-0.1598712713
-0.155060751
-0.1536548254
-0.1501415038
-0.1494909086
-0.1468847868
-0.1466559546
-0.1446350333
-0.1445427932
-0.1428197376
-0.1425889965
-0.1408903389
-0.140226928
-0.1382747862
-0.1368436495
-0.1343271358
-0.2310533099
-0.2121465532
-0.2008895676
-0.1879881221
-0.1809524591
-0.1718354081
-0.167494883
-0.1609328937
-0.1583721647
-0.1536086076
-0.1522263042
-0.148746962
-0.1481151012
-0.1455334736
-0.1453212582
-0.143317859
-0.1432418327
-0.1415311291
-0.1413169334
-0.139627451
-0.1389807504
-0.1370381689
-0.1356234681
-0.1331209557
-0.228167312
-0.2094984094
-0.1983816767
-0.1856424434
-0.1786923669
-0.169689713
-0.1653989305
-0.1589188491
-0.1563832957
-0.1516784499
-0.1503043031
-0.1468665756
-0.1462314382
-0.1436786547
-0.1434561733
-0.1414723019
-0.1413827517
-0.1396856982
-0.1394583096
-0.1377809205
-0.1371259956
-0.1352001961
-0.1337899984
-0.1313193021
-0.2244921235
-0.2061273038
-0.1951933552
-0.1826616149
-0.1758283172
-0.1669721627
-0.1627570291
-0.1563820739
-0.1538959633
-0.1492669782
-0.1479256694
-0.1445429194
-0.1439304746
-0.1414182054
-0.1412128795
-0.1392601493
-0.1391858405
-0.1375144129
-0.1373032501
-0.1356488751
-0.1350131016
-0.1331109854
-0.1317255933
-0.1292855142
-0.2201793751
-0.2021692062
-0.1914449179
-0.1791547304
-0.1724502503
-0.1637642637
-0.1596255783
-0.1533724932
-0.1509276639
-0.1463864395
-0.1450629039
-0.1417433616
-0.1411339249
-0.1386673018
-0.1384571996
-0.1365381167
-0.1364568422
-0.1348119217
-0.134595912
-0.1329653793
-0.1323299552
-0.1304535886
-0.1290768268
-0.126681473
-0.2151065687
-0.197514831
-0.1870414668
-0.1750367222
-0.1684916686
-0.1600070429
-0.1559702214
-0.1498614797
-0.1474811514
-0.1430440443
-0.1417605111
-0.1385165693
-0.1379312686
-0.1355208513
-0.1353254017
-0.1334507648
-0.1333803243
-0.1317745109
-0.1315711566
-0.1299791336
-0.1293627695
-0.1275259051
-0.126175482
-0.1238223346
-0.2094218721
-0.1922970595
-0.1821002137
-0.1704134417
-0.1640391146
-0.1557785408
-0.1518443887
-0.1458963189
-0.143573488
-0.1392525819
-0.1379969397
-0.1348376788
-0.13426241
-0.1319149309
-0.1317212318
-0.1298959159
-0.129827148
-0.1282643995
-0.128070215
-0.1265217582
-0.1259303322
-0.1241416604
-0.122839715
-0.1205220304
-0.2030147411
-0.1864174564
-0.1765364046
-0.1652094451
-0.1590348528
-0.1510280308
-0.1472201004
-0.1414538799
-0.1392089604
-0.1350191648
-0.1338091045
-0.1307448446
-0.1301935533
-0.1279162073
-0.1277328914
-0.1259622596
-0.125897651
-0.1243824761
-0.1241944944
-0.1226937828
-0.1221201807
-0.1203837891
-0.1191192705
-0.1168498576
-0.196030413
-0.1800063648
-0.1704652862
-0.1595288089
-0.1535649031
-0.1458333901
-0.1421533033
-0.1365847601
-0.1344129928
-0.1303665294
-0.1291939767
-0.1262347164
-0.1256995117
-0.123500997
-0.1233237904
-0.1216159238
-0.1215570623
-0.120097438
-0.1199231153
-0.1184780354
-0.1179328185
-0.1162558745
-0.11503756
-0.1128297226
-0.1883689204
-0.1729748993
-0.1638104134
-0.1533036065
-0.1475769913
-0.1401484705
-0.1366170167
-0.1312655999
-0.1291837595
-0.1252937481
-0.1241714404
-0.1213251671
-0.1208133892
-0.1186973721
-0.1185264459
-0.1168813066
-0.1168203745
-0.1154132777
-0.115238126
-0.1138443893
-0.1133106473
-0.1116929252
-0.1105115933
-0.1083830802
-0.1801737051
-0.1654519312
-0.1566866239
-0.1466379451
-0.1411594042
-0.1340540995
-0.1306740883
-0.1255549586
-0.1235608449
-0.1198394166
-0.1187631696
-0.1160403916
-0.1155491471
-0.1135255062
-0.1133621625
-0.1117896025
-0.1117334344
-0.1103887997
-0.1102241167
-0.1088913974
-0.1083820478
-0.1068331603
-0.1057011778
-0.1036645802
-0.1713536173
-0.1573564912
-0.14902378
-0.1394692486
-0.1342624581
-0.1275056273
-0.1242946898
-0.1194253257
-0.1175320459
-0.1139905852
-0.112968947
-0.1103759585
-0.1099082037
-0.1079788592
-0.1078194312
-0.1063178031
-0.1062564839
-0.1049704503
-0.1048028924
-0.1035276956
-0.1030311211
-0.1015527596
-0.1004671171
-0.09853691253
-0.1620514287
-0.1488170214
-0.1409376502
-0.1319031399
-0.1269786702
-0.1205889492
-0.1175510506
-0.1129456921
-0.1111533436
-0.1078035147
-0.1068353731
-0.1043825108
-0.103938586
-0.1021133464
-0.1019616585
-0.1005405362
-0.1004817378
-0.0992634151
-0.09910284703
-0.09789337429
-0.09741937443
-0.09601869143
-0.09498829556
-0.09316982711
-0.1521832102
-0.1397589963
-0.1323627761
-0.1238807097
-0.1192590523
-0.1132589808
-0.1104085991
-0.1060826543
-0.1044011357
-0.1012528092
-0.1003437037
-0.09803635978
-0.09761703245
-0.09589781411
-0.09574977066
-0.0944089783
-0.09434518043
-0.09319428537
-0.09303322109
-0.09189135275
-0.09143657167
-0.09011920339
-0.08914679991
-0.08745017005
-0.1418917159
-0.1303110272
-0.1234165473
-0.1155098362
-0.1112011117
-0.10560744
-0.1029493667
-0.0989158497
-0.09734696019
-0.09441093623
-0.09356180673
-0.09140955327
-0.0910168894
-0.08941254337
-0.08927265477
-0.08802025941
-0.08795825541
-0.08688145496
-0.08672716001
-0.0856573792
-0.08522748453
-0.08399533341
-0.08308448574
-0.08150819818
-0.131099192
-0.1204040713
-0.1140372569
-0.1067343806
-0.1027558457
-0.09758819561
-0.09513400773
-0.09140621549
-0.08995728726
-0.08724206677
-0.08645651111
-0.08446416685
-0.08409810522
-0.08261092466
-0.08247584511
-0.08131320113
-0.08124792254
-0.08024773304
-0.080096392
-0.07910428398
-0.07869963783
-0.07756110202
-0.07671628543
-0.07526810859
-0.1199482727
-0.1101668112
-0.104343749
-0.09766429032
-0.09402525228
-0.08929817103
-0.08705298458
-0.08364239059
-0.08231619774
-0.07983138636
-0.07911143744
-0.07728750016
-0.07695080248
-0.07558856058
-0.07546284325
-0.07439696619
-0.07433491466
-0.07341714432
-0.07327630997
-0.07236572507
-0.07199357469
-0.07094946365
-0.07017595949
-0.0688502431
-0.1083670712
-0.09953540912
-0.09427795718
-0.08824617263
-0.08496073368
-0.08069078923
-0.07866364179
-0.07558140792
-0.07438334781
-0.07213610752
-0.07148421021
-0.06983284829
-0.06952524803
-0.06829002399
-0.06817087029
-0.06720274017
-0.06713920001
-0.06630484801
-0.06616914633
-0.06534224509
-0.06499802694
-0.0640525903
-0.06334795184
-0.06215248957
-0.09649716312
-0.08863774726
-0.08395913983
-0.07859094921
-0.07566718415
-0.07186640826
-0.07006218067
-0.06731793162
-0.06625103237
-0.06424948367
-0.06366793903
-0.06219636152
-0.06192054672
-0.0608190237
-0.06071056241
-0.05984652829
-0.05978780868
-0.05904284289
-0.05892103615
-0.05818294054
-0.05787769197
-0.05703357692
-0.05640904334
-0.05533658588
-0.08427298607
-0.07741562153
-0.07333353335
-0.0686487444
-0.0660977404
-0.06277955524
-0.06120511467
-0.0588078717
-0.05787613703
-0.05612613148
-0.05561682722
-0.05432855538
-0.05408454423
-0.05311854615
-0.05301880655
-0.05225955861
-0.05220152787
-0.05154622456
-0.05143216014
-0.05078413594
-0.05051042789
-0.04977281162
-0.04922233634
-0.04828822872
-0.07183332401
-0.06599451589
-0.06251901163
-0.05852959886
-0.05635778954
-0.05353142694
-0.05219089112
-0.05014814013
-0.0493542206
-0.04786210383
-0.04742693153
-0.04632758937
-0.04611732606
-0.0452920598
-0.04520400712
-0.04455445939
-0.04450202686
-0.04394073553
-0.04384196443
-0.04328690645
-0.04305570483
-0.04242452275
-0.04196255808
-0.04115654865
-0.05912007567
-0.054322912
-0.05146740592
-0.04818854462
-0.04640414615
-0.04407981782
-0.04297819436
-0.0412968202
-0.04064372985
-0.03941408209
-0.03905478541
-0.03814732433
-0.03797149804
-0.03728873384
-0.03721167038
-0.03667271115
-0.03662293894
-0.03615594668
-0.03606575673
-0.03560413017
-0.03540241461
-0.03488203791
-0.0344897931
-0.03384017085
-0.04626685091
-0.04252170311
-0.04029283348
-0.0377323398
-0.03633979752
-0.03452370345
-0.03366391505
-0.03234901918
-0.03183854902
-0.03087568757
-0.03059326743
-0.02988146787
-0.0297408315
-0.02920405168
-0.02913936662
-0.02871434531
-0.0286704363
-0.02830079078
-0.02822574275
-0.02785931972
-0.0277001048
-0.02728896526
-0.02699259038
-0.0264791552
-0.03322467265
-0.03054759041
-0.02895445532
-0.02712272389
-0.02612749874
-0.02482658966
-0.02421200207
-0.02326833123
-0.02290274922
-0.02220999676
-0.02200626271
-0.02149252847
-0.02138865599
-0.020999658
-0.02094841873
-0.02063870133
-0.02060036034
-0.02032896416
-0.02026502907
-0.01999334685
-0.01986073981
-0.01955461485
-0.0193073965
-0.0189609157
-0.02011911281
-0.01851425082
-0.0175598858
-0.0164604437
-0.01586473964
-0.01508202495
-0.01471406721
-0.0141441642
-0.01392409997
-0.01350356152
-0.01337834872
-0.01306442497
-0.01299659634
-0.01275696167
-0.01271854392
-0.01252592321
-0.0124938022
-0.01232332835
-0.01227469216
-0.01210247905
-0.01200972402
-0.01181540449
-0.01164805004
-0.01144178592
-0.006912352771
-0.006388468167
-0.006077612385
-0.005715958769
-0.005522555962
-0.005261683523
-0.005142198125
-0.004948658495
-0.004875721781
-0.004729440917
-0.004684622715
-0.004572298949
-0.004542894004
-0.00445430972
-0.00443164755
-0.004357850266
-0.004335798832
-0.004268501536
-0.004242053407
-0.004173617438
-0.004137795064
-0.004062893781
-0.004014881153
-0.003918125147
0.006281251579
0.005726198241
0.005394199855
0.005018869888
0.00481015452
0.004549439526
0.00442067088
0.004237948697
0.004164402457
0.004036626294
0.004002433488
0.003913574693
0.003906829229
0.003844960086
0.003855008607
0.003810580744
0.00382678193
0.003791358282
0.003802803735
0.003768471462
0.003765242638
0.003724788538
0.003700352204
0.003658951882
0.01948610934
0.01785083114
0.01687562693
0.01576278882
0.01515181876
0.01436920286
0.01399182553
0.01343241494
0.01321146852
0.01280890702
0.01269394211
0.01240282909
0.01235718016
0.01214357403
0.01213726138
0.01197340984
0.01197889787
0.01184011379
0.0118296691
0.01169333375
0.01163933837
0.01148714078
0.0113681252
0.01120489791
0.03260242411
0.02989502994
0.0282809669
0.026435714
0.02542510354
0.02412409347
0.02349999381
0.02256663083
0.02220013758
0.02152527119
0.02133192903
0.02084109649
0.02075996181
0.02039735645
0.02037955382
0.02009928305
0.02010107127
0.01986224538
0.01984068232
0.01960562714
0.019517997
0.01925371145
0.01906160445
0.01875136149
0.04563885074
0.04186562115
0.03961674201
0.03704356278
0.03563580357
0.03381943549
0.03294976492
0.03164420479
0.03113204177
0.03018548226
0.02991234442
0.02922148817
0.02910215929
0.02858975704
0.02855663541
0.02815931663
0.02815279326
0.02781430331
0.02777639092
0.02744466342
0.02731679986
0.02694369443
0.02666892449
0.02621711403
0.05851353773
0.05368843234
0.05081270211
0.04752085698
0.04572095733
0.04339590203
0.0422841372
0.04061165477
0.03995669141
0.03874305324
0.03839312795
0.03750662802
0.03735290165
0.03669500703
0.03665164063
0.03614141361
0.0361331872
0.03569861942
0.03565250288
0.03522615625
0.03506706951
0.03458330925
0.03423256309
0.03362762181
0.07121705613
0.06535393516
0.0618597638
0.05785874503
0.05567180924
0.052844444
0.05149328146
0.04945781584
0.04866084739
0.04718209145
0.04675451943
0.04567282885
0.04548232048
0.04467851346
0.04462123842
0.0439976458
0.04398334608
0.04345308897
0.04339450867
0.04287527994
0.04268146993
0.04208965271
0.04166049434
0.04090561393
0.08368881403
0.07680718366
0.07270602106
0.06800907056
0.06544241169
0.06212242705
0.06053680656
0.05814602097
0.05721069793
0.05547337565
0.0549713669
0.05370041659
0.05347663718
0.05253233064
0.05246543016
0.05173309449
0.05171766309
0.05109496494
0.05102866557
0.05041780124
0.05019236388
0.04949180149
0.04898393038
0.04807882606
0.09589908548
0.08802031084
0.08332485916
0.07794640818
0.07500770338
0.07120477765
0.06938897067
0.06664897906
0.065577135
0.06358457132
0.06300803263
0.06154904784
0.06129018521
0.06020530814
0.06012546879
0.05928400357
0.05926328129
0.05854852571
0.05847090843
0.05777065522
0.05751314223
0.05670912136
0.05613007597
0.05507912685
0.1078116563
0.09896041571
0.09368543572
0.08764247385
0.08434122995
0.08006789351
0.07802817367
0.0749488522
0.07374471255
0.07150519734
0.07085722304
0.06921746339
0.06892633831
0.06770722847
0.06761761822
0.06667217153
0.06664963255
0.06584627739
0.06576015164
0.06497180402
0.06468252778
0.06377466055
0.06312052909
0.06193078466
0.1193745352
0.1095795329
0.1037418818
0.09705365019
0.09340003061
0.08866918359
0.08641138976
0.08300100633
0.08166753877
0.07918580049
0.07846727512
0.07664882772
0.07632450725
0.07497154153
0.07486948423
0.0738197169
0.07379128091
0.07289917968
0.07279973512
0.07192401118
0.0715977267
0.07058862486
0.06985373088
0.0685395323
0.1305786517
0.1198693061
0.1134868565
0.106173826
0.1021794239
0.09700623771
0.09453788261
0.09080834258
0.0893502104
0.08663608243
0.08584977443
0.08386102414
0.08350538035
0.08202566116
0.08191307392
0.08076469778
0.08073289174
0.07975634975
0.07964711134
0.07868751095
0.07833040353
0.07722422344
0.07642164581
0.07498092263
0.1413481847
0.129760281
0.1228538361
0.1149398568
0.1106171691
0.1050176391
0.1023460569
0.0983077436
0.09672909005
0.09378877129
0.09293674627
0.09078084525
0.09039426118
0.08878902906
0.0886646738
0.0874182215
0.08738053508
0.08632055206
0.08619864269
0.08515771841
0.08476743437
0.08356943686
0.08269758978
0.08114187435
0.1517034146
0.1392706393
0.1318609723
0.1233697101
0.1187323295
0.112724062
0.1098579672
0.105524632
0.1038305147
0.1006751918
0.09975979103
0.09744604134
0.09702922921
0.09530610511
0.09517022853
0.09383155147
0.09378855741
0.09264915959
0.09251579036
0.09139606918
0.09097507647
0.08968697379
0.08875066656
0.08707952535
0.161543761
0.1483086189
0.1404201905
0.1313798262
0.1264423531
0.1200442565
0.1169923179
0.1123763876
0.1105720645
0.1072094577
0.106234019
0.1037668154
0.1033217778
0.1014831588
0.1013365192
0.09990741372
0.09985901244
0.0986427926
0.09849817016
0.09730422619
0.09685434791
0.09548327995
0.09448642687
0.09271020355
0.1709202244
0.1569201787
0.1485764472
0.1390135454
0.1337915095
0.1270234173
0.1237955791
0.1189124702
0.117003459
0.1134459242
0.1124124065
0.1098017954
0.1093280582
0.1073820184
0.1072231064
0.1057098307
0.1056546243
0.1043662913
0.1042096341
0.1029451477
0.102466622
0.101015869
0.09996085339
0.09808271007
0.1797074537
0.1649912582
0.1562199772
0.1461666911
0.1406764912
0.1335599841
0.1301659924
0.1250300605
0.1230225388
0.1192793314
0.1181922583
0.1154439786
0.1149452161
0.1128953334
0.1127269804
0.111132136
0.1110720941
0.1097142183
0.109547239
0.1082155486
0.1077108218
0.1061856187
0.1050766537
0.1031061938
0.1879873881
0.1725957868
0.1634228776
0.1529083692
0.1471674238
0.1397243515
0.1361754619
0.1308036019
0.1287037178
0.1247881544
0.1236492839
0.1207738662
0.1202485019
0.1181029924
0.1179218548
0.1162518174
0.1161834948
0.1147614153
0.1145818829
0.1131883645
0.112657576
0.1110639763
0.1099047037
0.1078481689
0.1956111379
0.1795985403
0.1700546196
0.1591145785
0.1531407241
0.1453950448
0.1417017406
0.136110082
0.1339246043
0.1298474705
0.1286622487
0.1256669359
0.1251202297
0.1228841839
0.1226953619
0.1209540211
0.1208819046
0.1193987531
0.1192103583
0.1177577565
0.1172042075
0.115546092
0.1143408706
0.1122069009
0.2026902921
0.1861002471
0.1762134608
0.164879343
0.1586918249
0.1506671856
0.1468421388
0.1410488642
0.1387848296
0.134560192
0.1333305215
0.1302260336
0.1296555737
0.1273368271
0.1271350368
0.1253278115
0.1252454951
0.1237050475
0.1235018273
0.1219933429
0.1214129628
0.1196941565
0.1184426777
0.116237919
0.2090552352
0.1919470824
0.1817504388
0.1700609638
0.1636786789
0.1554010758
0.1514551238
0.1454779368
0.1431422607
0.1387823712
0.1375141418
0.1343093379
0.1337216212
0.131327216
0.1311199493
0.1292531038
0.1291686589
0.1275767158
0.1273666851
0.1258074641
0.1252076122
0.1234330259
0.1221420556
0.1198733958
0.2148440954
0.1972637444
0.1867873409
0.1747759488
0.1682198499
0.1597144923
0.1556617938
0.1495199732
0.1471208843
0.1426404076
0.1413362108
0.1380419219
0.1374344152
0.1349718709
0.1347526133
0.1328309288
0.1327354521
0.1310950274
0.1308685755
0.129261283
0.1286336695
0.1268071056
0.1254728244
0.1231476917
0.2198711963
0.201882055
0.1911608087
0.1788686865
0.1721583943
0.1634529482
0.1593043403
0.1530169193
0.1505609717
0.1459734339
0.1446388653
0.1412653509
0.1406448682
0.1381229286
0.137900742
0.1359328054
0.1358378882
0.134158218
0.1339294004
0.1322838492
0.1316440627
0.1297745618
0.1284111764
0.1260347657
0.2242960374
0.2059459803
0.1950116073
0.182473856
0.1756317962
0.1667527657
0.1625238422
0.1561109832
0.1536078391
0.1489283794
0.1475673624
0.1441256322
0.1434906386
0.1409169376
0.1406856814
0.1386765508
0.1385727413
0.1368573166
0.1366147339
0.1349340453
0.1342705837
0.1323620446
0.1309617289
0.1285415184
0.2279235592
0.2092790639
0.1981679344
0.1854276094
0.1784739023
0.1694502555
0.1651516333
0.1586334437
0.1560888548
0.1513319855
0.149948921
0.1464500509
0.1458060496
0.1431896949
0.1429573287
0.1409152171
0.1408136362
0.1390706875
0.1388293692
0.1371225145
0.1364546511
0.1345160817
0.1330990794
0.1306368981
0.2309273408
0.212037905
0.2007829343
0.1878764491
0.1808345815
0.1716937964
0.1673422281
0.1607394866
0.1581645757
0.153345739
0.1519464174
0.1484016248
0.1477493809
0.1450985651
0.1448617621
0.1427931735
0.1426879306
0.1409235392
0.1406764969
0.1389499242
0.1382704636
0.1363085033
0.1348677155
0.1323719466
0.2331115764
0.2140456281
0.202684249
0.1896559158
0.1825464691
0.1733184809
0.1689244075
0.1622580995
0.1596576671
0.1547921747
0.1533791407
0.1497999273
0.1491420301
0.1464651945
0.1462275683
0.1441378543
0.1440335077
0.1422498057
0.1420025708
0.1402563179
0.1395739233
0.1375905775
0.1361439402
0.1336132965
0.2346546867
0.2154630544
0.2040288524
0.1909160116
0.1837628926
0.1744757642
0.170056495
0.1633476745
0.1607339335
0.1558372618
0.1544182622
0.1508158597
0.1501561678
0.1474619494
0.1472247563
0.1451218753
0.1450191888
0.1432250361
0.1429797475
0.1412236551
0.1405411849
0.1385446889
0.1370907816
0.1345366071
0.2353704012
0.2161222486
0.2046534214
0.1915010375
0.1843254901
0.1750098401
0.1705760604
0.1638464842
0.1612236599
0.1563119541
0.1548877594
0.1512743723
0.1506121726
0.1479091934
0.1476708148
0.1455593353
0.1454550035
0.1436505606
0.1434009734
0.1416318361
0.1409393878
0.138927297
0.1374536818
0.1348923946
0.2354312578
0.2161784885
0.2047086433
0.1915545512
0.184380005
0.1750640177
0.1706325982
0.1639031867
0.1612836648
0.1563721089
0.1549517574
0.1513383073
0.1506802007
0.1479769393
0.1477429369
0.1456308031
0.1455313879
0.1437252124
0.1434808345
0.1417075679
0.1410191747
0.1389994632
0.1375272489
0.1349527827
0.2346718227
0.2154830678
0.2040509763
0.1909402099
0.1837890246
0.1745037602
0.1700864646
0.1633796703
0.1607680917
0.1558737222
0.1544571992
0.1508569559
0.1501999624
0.1475063731
0.1472714936
0.1451653222
0.1450632066
0.143259312
0.1430106116
0.1412371114
0.1405437058
0.1385238391
0.1370477097
0.1344761991
0.233247326
0.2141753163
0.2028138472
0.1897842492
0.1826782448
0.1734514722
0.1690633495
0.1623994944
0.159806919
0.1549443138
0.1535404598
0.1499639024
0.1493159064
0.1466403724
0.1464128613
0.1443209624
0.1442261879
0.1424337817
0.1421931812
0.1404284864
0.1397435758
0.137729455
0.1362612264
0.1336896068
0.2310245624
0.2121361277
0.2008845289
0.1879806532
0.1809439652
0.1718069672
0.1674620449
0.1608641596
0.1582971619
0.1534840948
0.1520938207
0.1485550497
0.1479127175
0.1452661848
0.1450394586
0.1429697493
0.142873141
0.1410978767
0.14085489
0.1391044794
0.1384193752
0.1364192246
0.1349566535
0.1323999603
0.2281303865
0.2094788086
0.1983683739
0.1856275317
0.1786790812
0.1696586123
0.1653684549
0.1588557368
0.1563221047
0.1515721816
0.150201981
0.1467108525
0.1460810033
0.1434717822
0.1432541866
0.1412158386
0.1411284427
0.1393821027
0.1391512039
0.1374292806
0.13676087
0.1347880355
0.1333468648
0.1308112015
0.2244741301
0.2061232329
0.1951936466
0.1826594025
0.1758258665
0.166953227
0.1627355066
0.1563313969
0.1538414489
0.1491728291
0.1478265877
0.1443973189
0.1437784652
0.1412173071
0.1410033886
0.13900388
0.138917799
0.1372052375
0.1369777137
0.1352881833
0.1346293506
0.1326898572
0.1312688633
0.1287682051
0.220144823
0.2021480903
0.191428218
0.1791367735
0.1724328654
0.1637331695
0.1595942374
0.1533162556
0.1508724387
0.1462973346
0.1449769076
0.1416183341
0.1410137146
0.138508
0.1383030966
0.1363500884
0.1362728354
0.134603101
0.1343887597
0.1327422777
0.1321051453
0.1302105821
0.1288231386
0.1263685433
0.2151022575
0.1975194319
0.187049352
0.1750428178
0.1684984815
0.1600028512
0.1559653837
0.1498372107
0.1474553854
0.1429919551
0.1417061004
0.1384317167
0.1378433015
0.1354021975
0.1352032099
0.1333021612
0.1332286399
0.1316051241
0.1314004729
0.1298010002
0.1291865756
0.1273440418
0.1259965836
0.1235998189
0.2093911123
0.1922754154
0.1820807745
0.170393651
0.164018235
0.1557495519
0.1518131493
0.1458501374
0.1435256034
0.1391843946
0.1379285707
0.1347462285
0.1341723999
0.1318026139
0.1316112177
0.1297681557
0.1297014026
0.1281284838
0.1279350318
0.126384202
0.1257912299
0.124001944
0.1226942103
0.1203645235
0.2030259096
0.1864321198
0.1765532734
0.1652257914
0.1590530226
0.1510420296
0.1472354881
0.1414614354
0.139217156
0.1350161264
0.1338055027
0.130727438
0.1301742565
0.1278820402
0.1276960443
0.1259116629
0.1258449226
0.1243198861
0.1241319527
0.1226274077
0.1220560079
0.1203216289
0.119059256
0.1168039418
0.1960045609
0.1799850166
0.1704437494
0.1595081335
0.1535411641
0.1458080048
0.1421230434
0.1365507475
0.1343735107
0.1303214267
0.1291439161
0.1261775608
0.1256386516
0.1234322235
0.1232526426
0.1215368174
0.1214764417
0.1200097211
0.1198341547
0.118384583
0.1178380863
0.1161650398
0.1149500926
0.1127768757
0.1883958936
0.1729997688
0.1638364409
0.153330635
0.1476071048
0.1401818935
0.1366540845
0.1313073828
0.1292284852
0.1253432827
0.1242220025
0.1213788379
0.1208653128
0.1187486155
0.1185728035
0.1169212889
0.1168526092
0.115432908
0.1152483065
0.1138392155
0.1132967222
0.1116741167
0.1104930212
0.1084042623
0.1801535889
0.1654315384
0.1566636617
0.14661709
0.1411336107
0.1340333727
0.1306459934
0.125534796
0.1235315433
0.1198198619
0.1187339008
0.1160206573
0.1155205329
0.1135035959
0.1133332628
0.1117620428
0.1117013101
0.1103514828
0.1101851186
0.1088438972
0.1083367755
0.1067896529
0.1056692755
0.1036759462
0.1713950692
0.1573902907
0.1490577275
0.13950563
0.1343033219
0.1275571647
0.1243525186
0.1195005203
0.117613285
0.1140933996
0.113075712
0.1105046573
0.1100372355
0.1081252669
0.1079612694
0.1064674493
0.1063957119
0.1051048273
0.1049213859
0.1036317221
0.1031177707
0.1016313557
0.1005393153
0.09864063515
0.1620375902
0.1487980702
0.140913956
0.1318825186
0.126951749
0.1205733785
0.1175265122
0.1129404887
0.1111366116
0.1078123317
0.1068312959
0.1044065771
0.1039502969
0.1021509189
0.1019892119
0.1005868875
0.100521571
0.09931215111
0.09914933755
0.09794101423
0.0974699156
0.09607424071
0.09505477891
0.09326720496
0.1522361856
0.139799049
0.1324019623
0.1239232716
0.1193074959
0.1133244317
0.1104833349
0.1061863185
0.1045150365
0.1014048607
0.1005049801
0.09824067655
0.09782812885
0.09615132859
0.0960065624
0.0947020423
0.0946373047
0.09351246352
0.09334658093
0.09222010169
0.09175951303
0.09045295714
0.08948117935
0.08780130719
0.141884395
0.1302938193
0.1233927739
0.115489465
0.1111738783
0.1055965617
0.1029293393
0.09892501909
0.09734429985
0.09444873849
0.09358615486
0.09148191752
0.09107627538
0.08952223633
0.08937206707
0.08816694896
0.08809900788
0.08706251545
0.08690783104
0.08587008346
0.08544644046
0.08424079224
0.08334409349
0.08179217294
0.131159368
0.1204465517
0.1140777587
0.1067782903
0.1028067439
0.09766033356
0.09521832621
0.09152813707
0.09009416956
0.08743088874
0.08666154523
0.08473214013
0.08438299626
0.08296553469
0.0828484685
0.08175802267
0.08171298037
0.08078299929
0.08065555918
0.07972593895
0.07934917531
0.07825741665
0.07744110754
0.07600834505
0.119947401
0.110151479
0.1043204528
0.09764374414
0.09399816798
0.08929019796
0.08703724387
0.08366233563
0.08232631493
0.07989302195
0.0791619373
0.07740277697
0.07705560619
0.07576733218
0.07563423634
0.07464698862
0.07458305383
0.07374387795
0.07360918874
0.07277140138
0.07241579294
0.07143147369
0.07068570898
0.0693940374
0.108429261
0.09957583805
0.09431509297
0.08828551185
0.0850074839
0.08075991375
0.07874697235
0.0757060901
0.07452689046
0.07233885969
0.07170957159
0.07013337426
0.06985262239
0.06870596181
0.06861979762
0.06775049083
0.06772886718
0.06699833654
0.06691540339
0.06618693886
0.06590349567
0.06503430712
0.06438670913
0.0632184821
0.09650239701
0.08862432849
0.08393680003
0.07856952281
0.07564033448
0.07185840025
0.0700491443
0.06734189267
0.06626916473
0.06432274348
0.06373488881
0.06233531455
0.06205428413
0.06103919534
0.06092905267
0.06016272057
0.06010903232
0.05946844915
0.05936228937
0.05872662781
0.05845070202
0.0576931015
0.05711131359
0.05608965667
0.08433183639
0.07744956031
0.07336261536
0.06867751549
0.06613333916
0.06283507024
0.06127523178
0.05891683769
0.05800554614
0.05631259885
0.05582900259
0.05461486538
0.05440273999
0.05352617328
0.05346681719
0.05280946584
0.0528030527
0.05225628856
0.05220559639
0.05166070118
0.05145619627
0.05079810608
0.0503093074
0.04941020415
0.07184412202
0.06598308945
0.06249814801
0.05850672254
0.0563311923
0.05352023402
0.05217835152
0.05016800447
0.04937364928
0.04793080754
0.04749594587
0.04646188923
0.04625364127
0.04550787575
0.0454254771
0.04486714314
0.04482676598
0.04436436062
0.04428684452
0.04382952113
0.04362884375
0.04307883304
0.04265324785
0.04189839136
0.05917084004
0.05434673301
0.05148463868
0.04820194778
0.0464227202
0.04411264479
0.04302406393
0.04137310785
0.04073896557
0.03955475064
0.03921951982
0.03837104702
0.03822483971
0.03761240114
0.03757201748
0.03711155959
0.03710701712
0.03672177133
0.03668441544
0.03629868973
0.03615111159
0.03568599602
0.03533847172
0.03470635134
0.04628257388
0.04251253992
0.0402741719
0.03770812045
0.03631391427
0.03450739111
0.03365039121
0.03235852068
0.03185368756
0.03092617034
0.03065163258
0.02998583329
0.02985554991
0.02937283396
0.02932190866
0.0289559007
0.02893040311
0.02862156217
0.02856990147
0.02826114426
0.02812662636
0.02775904239
0.02747688811
0.02698370644
0.03326389671
0.0305591459
0.02895775046
0.02711834717
0.02612583221
0.02483163187
0.02422690108
0.02330149276
0.02295074849
0.02228572214
0.02210043089
0.02162141816
0.02153896655
0.02118827846
0.02116150712
0.02088977491
0.02087912591
0.02064246021
0.02060898793
0.02036757951
0.02026799839
0.019984818
0.01977295031
0.01940869776
0.02013909916
0.01850790563
0.01754446706
0.01643607158
0.0158408898
0.01506107071
0.0146999899
0.01414174749
0.01393330494
0.01353076119
0.01342098582
0.01312852644
0.01307948128
0.01286081973
0.01284431391
0.01266766734
0.01266000012
0.01249790082
0.01247485976
0.01230545036
0.01223928351
0.01204729969
0.01191046558
0.01168278071
0.006938306184
0.006387475406
0.006067068249
0.005694466842
0.005501033789
0.005239334041
0.005125738006
0.004937935156
0.0048745441
0.004737702159
0.004704220829
0.004601798586
0.004583938076
0.00450139247
0.004489212784
0.004412902346
0.004398970305
0.004318650496
0.004295954547
0.004208033081
0.004168723659
0.004077819166
0.004016604525
0.003930555288
-0.006257675481
-0.005728919193
-0.005405061137
-0.005041086595
-0.004829755044
-0.004571854604
-0.004432673622
-0.004248286777
-0.004158050535
-0.00402731278
-0.003971280407
-0.00388144551
-0.003848681003
-0.003792126601
-0.003773060086
-0.003745344116
-0.003731653051
-0.003727195652
-0.003713152785
-0.003719610805
-0.003702280054
-0.003695843423
-0.003668163087
-0.003616679131
-0.0194733601
-0.01786280181
-0.01689774492
-0.01579773213
-0.01518924043
-0.01441316277
-0.01403370681
-0.01347825842
-0.01325268292
-0.01285443378
-0.01273409393
-0.01245070046
-0.01240069787
-0.01220222823
-0.01219423522
-0.01205722862
-0.01206536743
-0.01196588701
-0.01196424412
-0.0118715457
-0.01183277452
-0.01170653856
-0.01159835126
-0.01139332367
-0.03257600837
-0.02989324068
-0.02828589668
-0.02645275581
-0.02543775322
-0.02414289202
-0.02350589276
-0.02257697316
-0.02219047659
-0.02152134051
-0.02130213692
-0.02082074421
-0.02070908519
-0.02036241729
-0.02031055341
-0.02005599258
-0.02002209495
-0.01981978943
-0.01976537866
-0.01957133149
-0.01946014624
-0.01922166774
-0.01901358118
-0.01867091378
-0.04563773461
-0.0418855539
-0.03964651962
-0.03708612072
-0.03568258586
-0.03387547597
-0.03300676769
-0.03171013207
-0.03119703075
-0.03026130344
-0.02998644241
-0.0293102891
-0.02918950702
-0.02869813757
-0.02866479684
-0.02829727816
-0.02829269058
-0.027991625
-0.02795847356
-0.02766233522
-0.02754025907
-0.02718016802
-0.02690012072
-0.02640144532
-0.0584852187
-0.05368143215
-0.05081059291
-0.04752970363