/*--------------------------------*- C++ -*----------------------------------*\
| =========                 |                                                 |
| \\      /  F ield         | foam-extend: Open Source CFD                    |
|  \\    /   O peration     | Version:  3.0                                   |
|   \\  /    A nd           | Web:         http://www.extend-project.de       |
|    \\/     M anipulation  |                                                 |
\*---------------------------------------------------------------------------*/
FoamFile
{
    version     2.0;
    format      ascii;
    class       volSymmTensorField;
    location    "80";
    object      sigma;
}
// * * * * * * * * * * * * * * * * * * * * * * * * * * * * * * * * * * * * * //

dimensions      [0 0 0 0 0 0 0];

internalField   nonuniform List<symmTensor> 
2688
(
(-0.1778815847 -0.004744189918 2.055824543e-19 0.1778554681 4.225490596e-19 2.61166284e-05)
(-0.1744731374 -0.005634047777 4.15428307e-21 0.1744023725 3.064269232e-19 7.076497148e-05)
(-0.1672735825 -0.00605081939 -8.843688446e-20 0.1671628718 7.744304724e-19 0.0001107107163)
(-0.1579957279 -0.006147059899 7.990030093e-20 0.1578489923 3.72858225e-19 0.0001467356251)
(-0.1481417357 -0.006088262297 -8.896244798e-21 0.1479623705 4.606439123e-19 0.0001793652556)
(-0.1378148887 -0.005904705656 1.425420498e-19 0.1376059479 2.493434204e-19 0.0002089408427)
(-0.1278935319 -0.005675992489 -1.141126171e-20 0.1276578712 3.253270694e-19 0.0002356606376)
(-0.1180415973 -0.005401808765 1.058676121e-19 0.1177819802 1.319341929e-19 0.0002596171729)
(-0.1088458869 -0.005121224991 -2.829986737e-20 0.1085650753 2.728347152e-19 0.000280811517)
(-0.09992263433 -0.004831065047 -6.112124325e-20 0.09962346548 -6.548689055e-20 0.0002991688471)
(-0.09165782499 -0.00454721887 1.064907942e-19 0.09134328222 4.905294326e-19 0.0003145427669)
(-0.08375698088 -0.004271736671 -7.792268262e-20 0.08343025458 7.100450203e-20 0.0003267263011)
(-0.07644007548 -0.004005670504 3.963428574e-19 0.07610463844 1.32177575e-19 0.0003354370386)
(-0.06954447195 -0.003757900869 -9.524991214e-20 0.0692041304 2.87049302e-20 0.0003403415488)
(-0.06314689905 -0.003519500102 1.337284395e-20 0.06280588718 6.858916108e-20 0.0003410118698)
(-0.05722176183 -0.003305548703 2.139125933e-20 0.05688478944 2.518583032e-20 0.0003369723876)
(-0.05172383737 -0.003100622036 -5.654474842e-20 0.05139621275 1.319165552e-19 0.0003276246211)
(-0.04675335281 -0.00292422344 2.397642527e-19 0.04644103435 7.266737816e-20 0.0003123184598)
(-0.04216754441 -0.002757853661 -2.366559212e-19 0.04187729369 -1.18750835e-19 0.0002902507194)
(-0.03817012783 -0.002622364881 1.821588265e-19 0.03790957676 1.551799262e-19 0.0002605510653)
(-0.0345540365 -0.002500705982 6.895558418e-20 0.03433186855 -1.907112557e-19 0.0002221679461)
(-0.03159018416 -0.002410131973 6.373204083e-20 0.03141623867 -3.967705137e-19 0.0001739454971)
(-0.02905743507 -0.002342459507 -2.420656617e-20 0.02894291531 1.170513189e-19 0.0001145197638)
(-0.02723632725 -0.002303671159 -1.003674688e-19 0.02719397624 -7.872591898e-19 4.235101328e-05)
(-0.177406264 -0.0143643814 3.660445251e-20 0.1773799255 -5.139344568e-19 2.633855988e-05)
(-0.1735716043 -0.01697682384 2.892277911e-19 0.1735002604 -3.317524942e-19 7.134391729e-05)
(-0.1661203138 -0.01819207905 9.430247943e-20 0.1660086642 -4.892047263e-19 0.0001116496557)
(-0.1567133923 -0.01846168163 -1.875768086e-19 0.1565654282 -8.597194262e-20 0.000147964092)
(-0.1467935638 -0.01827526635 1.287250706e-19 0.1466126953 -1.640465659e-19 0.0001808685008)
(-0.1364516397 -0.0177218728 -1.389446692e-19 0.1362409477 -3.298008897e-19 0.000210692035)
(-0.1265388308 -0.01703733202 2.306680079e-19 0.1263011962 1.23873436e-19 0.0002376346198)
(-0.1167160834 -0.01621996821 -8.152306729e-20 0.1164542916 -4.648704476e-19 0.0002617918459)
(-0.1075583675 -0.01538572536 -7.276227036e-20 0.1072752058 5.502566696e-20 0.0002831617338)
(-0.09867971842 -0.01452461368 2.397478195e-19 0.09837804643 -4.274564605e-19 0.0003016719887)
(-0.09046276272 -0.01368378266 7.48371406e-20 0.09014559151 -8.361828663e-20 0.0003171712057)
(-0.08260927087 -0.01286901411 -1.727449371e-20 0.08227981656 -2.975196502e-19 0.0003294543105)
(-0.07534098825 -0.01208319977 -2.100287341e-19 0.07500275548 1.646433882e-19 0.0003382327705)
(-0.06848962505 -0.01135270089 1.787932205e-19 0.06814645066 -8.93018208e-20 0.0003431743937)
(-0.06213691138 -0.01065043695 -7.689555013e-20 0.06179306722 2.475352352e-19 0.0003438441566)
(-0.05624999924 -0.01002147038 4.706816838e-20 0.05591023264 3.386764315e-19 0.0003397665997)
(-0.05079057545 -0.009419026363 3.086241895e-19 0.05046024074 -1.782201175e-19 0.0003303347046)
(-0.04585070015 -0.008901625442 -4.678133302e-19 0.04553580354 4.323606307e-19 0.0003148966122)
(-0.04129507145 -0.008412863828 3.416081579e-19 0.04100243248 3.781487022e-19 0.000292638969)
(-0.03731960631 -0.008015786795 -3.756363467e-20 0.03705691786 2.684273311e-20 0.0002626884448)
(-0.0337232822 -0.007657504463 -4.746639371e-19 0.03349930002 1.48302541e-19 0.0002239821787)
(-0.03077189847 -0.007391256041 1.676661448e-19 0.03059653992 4.892967842e-19 0.000175358547)
(-0.02824587433 -0.007187582563 -3.794942985e-19 0.02813043348 1.897526492e-19 0.0001154408501)
(-0.02642660989 -0.007068174281 3.069094838e-19 0.02638392439 9.938290995e-20 4.268549481e-05)
(-0.1764491626 -0.02395940601 2.259384819e-19 0.1764226854 4.002571677e-19 2.647715597e-05)
(-0.1717767253 -0.02817681983 -3.985394807e-20 0.1717050041 5.561726115e-19 7.172119735e-05)
(-0.1638309447 -0.03011800945 5.889597678e-20 0.163718715 2.380818468e-19 0.0001122297349)
(-0.1541709894 -0.03052044489 2.788014198e-19 0.1540222469 2.273972187e-19 0.0001487425394)
(-0.1441223966 -0.03018271293 -2.024695576e-19 0.1439405831 3.121315204e-19 0.0001818135625)
(-0.1337515803 -0.02924924329 3.198451768e-19 0.1335397861 2.011684229e-19 0.0002117942559)
(-0.1238561948 -0.02810530066 -1.025134317e-19 0.1236173222 2.624110862e-19 0.0002388725693)
(-0.1140914576 -0.02674679489 2.832799795e-20 0.1138283049 2.172309737e-19 0.0002631526906)
(-0.1050089154 -0.02536371634 -5.662571538e-20 0.104724286 5.223832052e-19 0.0002846293679)
(-0.09621841446 -0.02393840997 -2.226348393e-19 0.095915183 1.915671609e-19 0.0003032314551)
(-0.08809584174 -0.02254861804 1.709474002e-19 0.08777703461 4.92203786e-19 0.0003188071301)
(-0.08033572875 -0.0212026601 1.550382449e-19 0.08000457923 7.679991957e-20 0.000331149524)
(-0.07316316447 -0.01990586761 5.962008377e-19 0.07282319427 -6.597618789e-20 0.0003399701921)
(-0.06639889951 -0.01870048979 -9.644086329e-21 0.06605396589 -4.916396357e-20 0.0003449336248)
(-0.06013435553 -0.01754263468 4.906308021e-19 0.05978875113 -1.136732676e-19 0.0003456043988)
(-0.05432254284 -0.01650547535 -3.327059528e-19 0.05398104012 -5.373272201e-20 0.0003415027283)
(-0.04893872554 -0.01551256374 3.495337633e-20 0.04860670507 7.246456324e-20 0.0003320204761)
(-0.04405872075 -0.01465954296 9.808090127e-19 0.04374222006 -8.686182957e-20 0.0003165006853)
(-0.03956251538 -0.01385369356 -5.817839731e-19 0.03926838729 2.445249926e-20 0.0002941280822)
(-0.03562950887 -0.01319872626 2.062639758e-20 0.03536548552 -1.631239178e-20 0.0002640233523)
(-0.03207277976 -0.01260693979 5.942323413e-19 0.0318476592 -2.524609853e-20 0.000225120568)
(-0.0291447574 -0.01216672661 3.062765536e-19 0.0289685067 -4.216166002e-19 0.0001762506993)
(-0.02663359892 -0.01182747836 -4.682797887e-19 0.0265175671 2.847650666e-19 0.0001160318139)
(-0.02481683653 -0.01162656634 -2.737428652e-19 0.02477392846 -6.301295822e-19 4.290807543e-05)
(-0.1750088832 -0.03351158243 6.959328403e-20 0.1749823504 -3.201702861e-21 2.653284664e-05)
(-0.1691140235 -0.03914179977 1.809047211e-19 0.1690421484 -2.342925581e-19 7.18750725e-05)
(-0.1604478725 -0.0416904615 -4.737149461e-20 0.1603354128 -7.031078759e-19 0.0001124597177)
(-0.1504204875 -0.04215962817 -1.853387234e-19 0.1502714327 5.853539438e-20 0.0001490548579)
(-0.1401860489 -0.04163191262 1.64431689e-19 0.1400038607 -2.013318335e-19 0.000182188254)
(-0.1297752393 -0.0403017456 -2.173083459e-19 0.1295630082 3.285216449e-21 0.0002122310423)
(-0.1199074058 -0.03869259025 3.284821771e-19 0.1196680456 -4.385064243e-20 0.0002393602372)
(-0.110229399 -0.0367963601 4.535703952e-20 0.1099657124 2.422050506e-19 0.0002636865479)
(-0.1012585054 -0.03487234941 8.15100683e-20 0.1009733032 -4.312261605e-19 0.0002852022213)
(-0.09259847958 -0.03289395228 1.928412346e-19 0.0922946425 5.112016422e-20 0.0003038370776)
(-0.08461534296 -0.03096834598 -7.079993745e-20 0.08429590355 2.674182603e-19 0.0003194394061)
(-0.07699307651 -0.02910446845 -4.745325199e-19 0.07666127524 -4.35664773e-19 0.0003318012758)
(-0.06996163619 -0.0273110926 -4.849136582e-19 0.06962100121 5.89167061e-19 0.0003406349802)
(-0.06332582473 -0.02564365304 3.034816533e-19 0.06298022167 -5.811291627e-19 0.0003456030581)
(-0.05719110313 -0.02404384703 -2.627516319e-19 0.05684483246 1.112497444e-18 0.0003462706711)
(-0.05149010996 -0.02260950646 4.612658908e-19 0.05114795435 -2.403118146e-19 0.0003421556092)
(-0.04621740614 -0.02123789905 2.11850324e-20 0.04588475608 5.426814094e-19 0.0003326500604)
(-0.04142607016 -0.02005766568 -3.168635783e-19 0.04110897563 -4.5035978e-19 0.0003170945246)
(-0.03701677339 -0.01894382961 6.464748953e-19 0.03672209944 8.226815111e-20 0.0002946739438)
(-0.03314734384 -0.01803629257 -2.358825069e-19 0.03288283733 1.26748928e-19 0.0002645065063)
(-0.02964774542 -0.01721652987 -9.503623421e-19 0.02942221928 1.639216269e-19 0.0002255261362)
(-0.02675572818 -0.01660449002 7.257048375e-19 0.0265791672 1.515985055e-19 0.0001765609709)
(-0.02426514995 -0.01613035296 -3.716450256e-19 0.02414892061 3.881121144e-19 0.0001162293422)
(-0.02245348721 -0.01584709922 5.02903808e-19 0.02241051175 2.16782775e-19 4.297546687e-05)
(-0.1730834986 -0.0430024456 9.434918309e-20 0.1730569953 1.241971742e-19 2.650330649e-05)
(-0.1656209873 -0.04978461296 -3.974820648e-19 0.1655491856 -1.279678953e-19 7.180170352e-05)
(-0.1560332073 -0.05277989944 3.299279642e-19 0.1559208724 -3.287250031e-19 0.0001123349634)
(-0.1455380732 -0.05322617518 5.030311884e-19 0.1453891765 3.736899941e-19 0.000148896668)
(-0.1350691576 -0.05245610599 -1.009226698e-19 0.134887169 -3.468587535e-19 0.0001819886044)
(-0.1246113107 -0.05070682868 3.155127108e-19 0.1243993118 5.588702862e-19 0.0002119989464)
(-0.1147829042 -0.04862474638 2.009057863e-19 0.1145438102 -3.496217763e-19 0.0002390940419)
(-0.1052202925 -0.04619557799 -2.476174392e-19 0.1049569018 4.501737773e-19 0.0002633906533)
(-0.09639643848 -0.04374153227 -2.685457793e-19 0.09611156062 3.43496115e-19 0.0002848778606)
(-0.08790753916 -0.04122525204 5.128316691e-19 0.08760405142 -2.678078938e-19 0.0003034877493)
(-0.08010669091 -0.03878180238 4.75304453e-20 0.07978762298 -2.529092981e-19 0.0003190679225)
(-0.07266455851 -0.03641813821 5.131899866e-19 0.07233314704 -3.07752266e-20 0.0003314114741)
(-0.065817146 -0.03414776149 3.019248397e-19 0.06547691505 3.469700199e-19 0.0003402309477)
(-0.05934895707 -0.03203579191 4.175157862e-19 0.0590037676 -1.736656557e-19 0.0003451894697)
(-0.05338335714 -0.03001244696 9.341311679e-19 0.05303750431 2.409789155e-19 0.0003458528343)
(-0.04782686608 -0.0281961207 -8.108370367e-19 0.04748512678 -7.970763794e-19 0.0003417393038)
(-0.0426989558 -0.02646145307 1.832253978e-19 0.04236671369 -7.322282699e-19 0.0003322421025)
(-0.0380230807 -0.02496597898 1.473592457e-19 0.03770637822 3.299978176e-19 0.0003167024749)
(-0.03372740091 -0.02355587302 1.164409655e-20 0.03343309389 -2.451180486e-19 0.0002943070246)
(-0.02994039032 -0.0224039894 4.85446411e-19 0.02967621524 7.738261368e-20 0.0002641750853)
(-0.0265163572 -0.0213630626 5.836963346e-19 0.02629111456 -2.377149625e-19 0.0002252426371)
(-0.02367054197 -0.02058307063 2.941993829e-19 0.02349420293 5.381743304e-19 0.0001763390368)
(-0.0212086143 -0.01997500673 3.177522413e-19 0.0210925293 -9.439034918e-19 0.0001160849993)
(-0.01940378958 -0.01960798318 -9.453519241e-19 0.01936086445 9.104061442e-19 4.292512737e-05)
(-0.1706707543 -0.05241253129 -2.501150045e-19 0.1706443639 7.293799481e-19 2.639034931e-05)
(-0.161346239 -0.06002452996 -4.021917903e-19 0.1612747366 4.669782496e-19 7.150236887e-05)
(-0.1506672903 -0.06326812466 -7.41008628e-20 0.1505554328 5.720852973e-20 0.0001118575025)
(-0.1396221904 -0.06358107216 -2.101971226e-19 0.1394739207 2.754159456e-19 0.0001482696158)
(-0.1288811316 -0.0625042846 1.77455599e-19 0.1286999147 3.710250458e-19 0.0001812169424)
(-0.1183743441 -0.06030848628 -1.627991831e-19 0.118163244 -2.293078974e-19 0.0002111000437)
(-0.1085995669 -0.05774420944 3.246246498e-19 0.1083614906 8.922471511e-21 0.000238076305)
(-0.0991808366 -0.05478827041 6.163047429e-19 0.09891856976 6.077957559e-19 0.0002622668451)
(-0.09053806858 -0.0518178679 -3.341247066e-19 0.09025441046 -9.713199753e-19 0.0002836581176)
(-0.08225866781 -0.04878271655 -7.4761315e-19 0.08195648332 9.776881776e-19 0.0003021844979)
(-0.07468015939 -0.04584382137 4.960674992e-20 0.07436246618 3.247943844e-19 0.0003176932107)
(-0.06745751903 -0.04300296719 -1.478449644e-20 0.06712753976 -1.820766645e-19 0.0003299792705)
(-0.06083382885 -0.04027999617 -4.827474458e-19 0.0604950729 1.57532309e-19 0.0003387559469)
(-0.05456957847 -0.03774530247 5.045491681e-20 0.05422589002 -1.958393755e-19 0.0003436884423)
(-0.04880926876 -0.03532146304 -3.730762557e-19 0.04846492473 2.640292251e-19 0.0003443440323)
(-0.04342866761 -0.03314193288 -3.443963299e-19 0.04308842413 -5.489184461e-19 0.0003402434778)
(-0.03847631388 -0.03106401744 3.562502373e-19 0.03814553147 1.558618872e-18 0.0003307824059)
(-0.03394145448 -0.02926775254 3.698757097e-19 0.03362614901 -2.925936604e-19 0.0003153054711)
(-0.02978323329 -0.02757666048 1.320395172e-19 0.02949023033 6.947450239e-19 0.0002930029604)
(-0.02609782779 -0.02618967134 -4.470185203e-19 0.02583482902 3.753520691e-19 0.0002629987619)
(-0.02276481287 -0.02493696239 -2.761971214e-19 0.02254057919 2.992185337e-19 0.000224233678)
(-0.01997712736 -0.02399259335 -1.328421101e-19 0.019801584 1.50598393e-18 0.0001755433635)
(-0.01754982743 -0.02325207448 9.163677476e-19 0.01743427191 -6.290403121e-19 0.0001155555165)
(-0.01575439068 -0.02279904903 3.107420843e-21 0.01571166561 2.915961331e-18 4.272507289e-05)
(-0.1677683267 -0.06172102279 5.361734024e-19 0.1677421333 -1.282234281e-18 2.619338473e-05)
(-0.1563480734 -0.06978925147 -9.57937155e-19 0.1562770973 3.625293429e-20 7.097605125e-05)
(-0.1444463332 -0.07305121901 4.732415948e-19 0.1443353061 -9.09505217e-19 0.0001110271412)
(-0.1327906528 -0.07310309536 4.846961243e-19 0.1326434793 7.079722639e-19 0.0001471735065)
(-0.1217527994 -0.07164528726 1.868020061e-20 0.1215729259 -1.226052597e-18 0.0001798734932)
(-0.1112013378 -0.06897162524 -9.153030115e-20 0.110991803 4.747114818e-19 0.0002095347421)
(-0.1014970692 -0.06591483539 6.505643986e-19 0.1012607613 -1.787210688e-19 0.000236307819)
(-0.0922505513 -0.06243972223 -2.921236279e-19 0.09199023512 -1.086795307e-18 0.0002603161806)
(-0.08382122457 -0.05896925306 4.900830313e-19 0.08353967995 -6.211383945e-19 0.0002815446201)
(-0.07578705135 -0.05543768445 1.519944591e-18 0.07548712187 2.59974305e-19 0.0002999294793)
(-0.06846753118 -0.05202969364 -8.286501217e-19 0.06815221285 -9.883144546e-19 0.0003153183239)
(-0.06150033089 -0.04873821494 2.894146119e-19 0.06117282221 5.86378384e-19 0.0003275086754)
(-0.05513621753 -0.04559122327 3.568909458e-19 0.05480000212 1.980700111e-19 0.0003362154134)
(-0.04910882838 -0.04265944238 1.508457289e-19 0.04876772136 9.673848331e-19 0.0003411070282)
(-0.0435864015 -0.03986189785 1.012523764e-18 0.04324464796 -4.739678647e-19 0.0003417535454)
(-0.03840998601 -0.0373414171 -6.259179992e-19 0.03807230604 1.506266936e-18 0.0003376799676)
(-0.03366117448 -0.0349429052 6.398963728e-19 0.0333328884 -6.34476978e-19 0.0003282860763)
(-0.02929001327 -0.03286350941 -8.734019632e-19 0.02897709108 6.799672754e-19 0.0003129221915)
(-0.02529170074 -0.03090821334 1.275102874e-18 0.0250009161 -3.5598979e-19 0.0002907846407)
(-0.02172415581 -0.029298521 5.493176076e-20 0.02146315113 6.765406472e-19 0.0002610046817)
(-0.01849804469 -0.0278434649 2.190219638e-18 0.01827551371 -5.303161543e-19 0.0002225309741)
(-0.0157778145 -0.02674106571 -8.756202241e-19 0.01560360557 7.626949729e-19 0.0001742089231)
(-0.01339261895 -0.02586906551 2.014784086e-18 0.0132779421 6.259156067e-19 0.0001146768498)
(-0.01160928334 -0.02532895717 -1.396434188e-18 0.01156688209 -7.099007188e-19 4.240125003e-05)
(-0.1643740592 -0.07090570597 3.334988121e-19 0.1643481447 1.440086067e-18 2.59145539e-05)
(-0.1506933498 -0.07901590574 1.860478424e-19 0.1506231239 5.059349445e-20 7.022591561e-05)
(-0.1374801525 -0.08204172938 -4.887098491e-19 0.1373703042 1.137706181e-18 0.000109848331)
(-0.1251778152 -0.08169140206 2.239966667e-19 0.1250322014 -8.205051476e-19 0.0001456138236)
(-0.1138333088 -0.07977079424 2.205015313e-19 0.1136553441 -6.736415383e-20 0.0001779646287)
(-0.1032483993 -0.07658512059 5.887321257e-20 0.103041089 8.108044016e-19 0.0002073102643)
(-0.09363461139 -0.07302497717 -8.169968132e-19 0.09340081478 1.60720291e-19 0.0002337966093)
(-0.08458838242 -0.06903970552 3.627781095e-19 0.08433083516 3.675784981e-20 0.0002575472566)
(-0.07640298182 -0.06508778224 -8.252743526e-19 0.07612443523 1.38362764e-18 0.0002785465893)
(-0.06864665971 -0.06108523645 -7.668032339e-20 0.06834992755 -4.75425327e-19 0.0002967321611)
(-0.06161893955 -0.05723787013 3.521169767e-19 0.06130698654 9.387826094e-19 0.0003119530037)
(-0.05493912893 -0.05352570144 8.35845883e-19 0.05461511973 -2.157104009e-19 0.0003240091934)
(-0.04886605811 -0.04998686365 -1.432626753e-19 0.04853343957 4.116425642e-19 0.0003326185325)
(-0.04310451287 -0.04668679826 -2.841477693e-19 0.04276705942 -9.474582946e-19 0.0003374534481)
(-0.03784829734 -0.04354582388 2.897558196e-19 0.03751020894 1.464382137e-19 0.000338088403)
(-0.0329010508 -0.04070920338 3.214212751e-19 0.03256699695 -1.167450845e-18 0.0003340538506)
(-0.02837990504 -0.03801606632 -8.196437173e-20 0.02805514915 1.261803073e-19 0.0003247558917)
(-0.02419295574 -0.03567267303 8.605947316e-19 0.02388340346 -9.658602978e-19 0.00030955228)
(-0.0203735897 -0.03347327627 -5.516910046e-20 0.02008594156 -3.101928627e-19 0.0002876481345)
(-0.01693963661 -0.03165310491 -5.910290034e-19 0.01668145193 -6.318689867e-19 0.0002581846824)
(-0.01383358123 -0.03000846587 2.781043411e-19 0.01361345921 -4.177461907e-19 0.0002201220221)
(-0.01119107682 -0.02875257893 1.80766856e-18 0.01101875783 6.255807656e-19 0.0001723189872)
(-0.008854760563 -0.02775210173 2.941261433e-19 0.008741331298 -1.687861396e-18 0.0001134292644)
(-0.007086971953 -0.02712173384 4.527802461e-19 0.007045034025 1.416106659e-18 4.193792727e-05)
(-0.1604863664 -0.07994270443 -6.925212903e-20 0.1604608127 -8.146981937e-19 2.555366754e-05)
(-0.14445542 -0.08765242387 -1.293753541e-18 0.144386167 3.83513012e-19 6.925292863e-05)
(-0.1298889533 -0.09017061857 9.491261908e-19 0.1297806303 -2.15690764e-18 0.000108322974)
(-0.1169305151 -0.08926803473 -7.711588928e-19 0.1167869214 6.377729007e-19 0.0001435937364)
(-0.1052855393 -0.08679804573 8.847760647e-19 0.1051100452 -3.017372638e-19 0.0001754941136)
(-0.09468593811 -0.08306476216 7.74808091e-19 0.09448150677 -1.673191468e-19 0.0002044313379)
(-0.08518585369 -0.07899053852 1.462722325e-19 0.08495530576 -3.961454595e-19 0.0002305479217)
(-0.07636770138 -0.07450560381 3.022345513e-19 0.07611373531 -3.888634579e-19 0.0002539660638)
(-0.0684545582 -0.07009292911 6.772204139e-19 0.06817988775 -8.211953539e-19 0.0002746704522)
(-0.06100535632 -0.06564737128 4.408244306e-19 0.06071275672 5.548256992e-19 0.0002925996005)
(-0.05429798349 -0.06139311494 -8.412099765e-19 0.05399037879 -8.419340898e-19 0.0003076046923)
(-0.04793322649 -0.05729293683 1.824726653e-19 0.04761373762 1.163493026e-19 0.0003194888626)
(-0.04217787471 -0.05339723168 3.448726786e-19 0.04184990097 1.058536282e-19 0.0003279737413)
(-0.03670692691 -0.04976031159 -3.552361435e-19 0.03637419012 7.380400156e-19 0.0003327367907)
(-0.03174079935 -0.04630862678 1.789027853e-19 0.03140744116 6.297345447e-19 0.0003333581899)
(-0.02704394517 -0.04318316356 -6.106552212e-19 0.02671456964 1.122011401e-18 0.0003293755238)
(-0.02277105876 -0.04022303739 2.750804097e-19 0.02245085584 3.439186411e-19 0.0003202029233)
(-0.01878561288 -0.03763743809 -1.697622759e-18 0.01848040507 6.897498795e-19 0.0003052078106)
(-0.01516207348 -0.03521433915 1.684770688e-18 0.0148784672 1.034835048e-18 0.0002836062818)
(-0.01187473822 -0.03319927119 -3.453239216e-19 0.01162018573 4.026052864e-19 0.0002545524884)
(-0.008901171986 -0.03137631346 1.661303158e-18 0.008684150936 1.162418213e-18 0.0002170210501)
(-0.006344931723 -0.02997531734 -1.828515412e-18 0.006175043776 -9.714658331e-19 0.0001698879466)
(-0.0040641904 -0.02884720592 2.839527527e-18 0.003952364266 8.165589215e-19 0.0001118261344)
(-0.002315704867 -0.02812556048 -9.016390941e-19 0.002274361214 -1.644924439e-18 4.134365293e-05)
(-0.1561044869 -0.08880653018 2.017955416e-18 0.1560793739 1.30171054e-19 2.511305193e-05)
(-0.1377127887 -0.09565819844 -1.797424655e-20 0.137644727 -8.281961302e-19 6.806172079e-05)
(-0.1218005287 -0.09738863546 -2.229158927e-19 0.1216940714 -1.063394428e-19 0.0001064573358)
(-0.1082046588 -0.0957795598 5.131638786e-19 0.1080635373 1.272464911e-18 0.0001411215341)
(-0.09628229744 -0.09267170684 -6.48646565e-19 0.09610982577 -3.535078533e-19 0.0001724716662)
(-0.08569467785 -0.08835513945 3.41066859e-19 0.08549376854 5.521707884e-19 0.0002009093039)
(-0.07633497783 -0.08375685043 -7.06768668e-19 0.07610840335 -1.407965024e-19 0.0002265744766)
(-0.06777232621 -0.07878422478 -5.769992577e-19 0.06752273954 7.787681106e-19 0.000249586671)
(-0.06015753796 -0.07393324955 4.31797e-20 0.05988760639 6.872768944e-19 0.0002699315687)
(-0.05304109332 -0.06907462192 1.158617288e-19 0.05275354503 7.451715857e-19 0.0002875482888)
(-0.04667813192 -0.06444802069 3.542236356e-19 0.04637584088 2.818114887e-19 0.0003022910403)
(-0.04065143477 -0.05999452028 7.751424442e-19 0.04033746855 5.866096476e-19 0.0003139662258)
(-0.03523537256 -0.0557790071 7.978136164e-19 0.03491307204 1.720718386e-19 0.0003223005154)
(-0.0300751581 -0.05183842842 5.149485006e-19 0.02974818103 -9.658000023e-19 0.000326977072)
(-0.02541808206 -0.04811079159 1.053729964e-18 0.02509049859 -1.920564961e-19 0.0003275834737)
(-0.02098882599 -0.04472501695 4.031398201e-19 0.02066516043 -1.39262842e-18 0.0003236655632)
(-0.01698054545 -0.04152769701 8.728065242e-20 0.01666589769 -2.131594322e-19 0.0003146477544)
(-0.01321082247 -0.03872190125 1.082834697e-18 0.01291091377 -8.683462178e-19 0.0002999087029)
(-0.009796828328 -0.03609820287 -1.170206527e-18 0.009518150013 -2.316924553e-19 0.000278678315)
(-0.006667219053 -0.03390243294 -2.863252061e-19 0.006417093221 -5.659945933e-19 0.0002501258322)
(-0.003837107202 -0.03191600006 -3.206799585e-19 0.003623863098 -2.548068343e-19 0.0002132441036)
(-0.001374899491 -0.03037558888 2.499359203e-19 0.00120797016 8.810733535e-19 0.0001669293312)
(0.0008425277859 -0.02912399043 -2.061398755e-18 -0.0009524057018 -1.020284821e-18 0.0001098779159)
(0.002567681076 -0.0283086197 1.686843208e-18 -0.002608305135 3.147160436e-20 4.062405851e-05)
(-0.1512289672 -0.09746998207 -6.008582983e-19 0.1512043744 4.516301576e-19 2.459285431e-05)
(-0.1305467259 -0.1030046208 2.423594495e-19 0.1304800712 -1.018362403e-18 6.665463907e-05)
(-0.1133465441 -0.1036670516 -1.686765626e-19 0.1132422888 1.700149319e-18 0.000104255277)
(-0.0991604951 -0.1011979602 3.534502553e-19 0.09902229211 -9.108623746e-19 0.0001382029879)
(-0.08700099139 -0.09736485534 2.284357351e-20 0.08683208717 4.891935456e-19 0.00016890422)
(-0.07646000108 -0.09243071291 1.379792745e-18 0.07626324863 -6.373412503e-19 0.0001967524444)
(-0.06727074154 -0.0872998173 3.014761249e-19 0.06704885616 2.17164452e-19 0.0002218853782)
(-0.05899056606 -0.08185299032 1.035953716e-18 0.058746147 -7.787393647e-19 0.0002444190587)
(-0.05169778797 -0.07658764512 2.010421342e-19 0.05143344766 -3.546606592e-19 0.000264340315)
(-0.04493600094 -0.07134734573 7.579428183e-19 0.04465441194 -5.656719154e-19 0.0002815890008)
(-0.03893680345 -0.06638433776 -1.422575649e-18 0.03864078074 -6.794058434e-19 0.0002960227087)
(-0.03326645928 -0.06161353215 6.879290574e-20 0.03295900747 -1.056954552e-19 0.0003074518109)
(-0.0282059706 -0.05711651611 -3.979707982e-19 0.02789036193 -7.989266548e-19 0.0003156086715)
(-0.02337202634 -0.05290669116 -5.429587957e-19 0.02305184297 -2.242775246e-19 0.000320183372)
(-0.01903797493 -0.04893888827 -1.897470887e-19 0.01871720302 3.937176977e-19 0.0003207719174)
(-0.01488956303 -0.04532254794 -1.100906882e-19 0.01457263282 6.852581176e-19 0.0003169302108)
(-0.01115801431 -0.04191846411 3.739032164e-20 0.0108499199 8.72141555e-19 0.0003080944064)
(-0.007615190235 -0.03891598901 -2.810680177e-19 0.007321533394 -8.25843373e-19 0.0002936568409)
(-0.00442121231 -0.0361146137 2.167167916e-18 0.004148349187 2.472887376e-18 0.0002728631231)
(-0.001458602809 -0.0337546431 -4.534319031e-19 0.001213702056 -3.409257821e-19 0.0002449007526)
(0.001219428232 -0.03161795638 2.592173778e-18 -0.001428211712 1.888011671e-18 0.0002087834794)
(0.003579901306 -0.02994708361 -9.815525353e-19 -0.003743333244 -1.567027876e-18 0.0001634319374)
(0.005727668299 -0.02857329738 6.093726891e-19 -0.00583523852 3.64758969e-19 0.0001075702206)
(0.007422979068 -0.02766454334 -1.507977769e-18 -0.007462745616 -4.269546617e-19 3.976654824e-05)
(-0.1458619103 -0.1059042902 1.012029131e-18 0.1458379145 3.034697597e-19 2.399577894e-05)
(-0.1230397769 -0.1096753663 -5.711671453e-19 0.1229747392 5.328663401e-19 6.503763652e-05)
(-0.1046595031 -0.1089981053 8.788015099e-20 0.1045577778 -8.532939622e-20 0.0001017252777)
(-0.08995892901 -0.1055212157 1.38565042e-19 0.08982407972 4.009603223e-19 0.0001348492894)
(-0.07761954564 -0.1008795845 -8.651908079e-19 0.07745474036 -3.492932755e-19 0.0001648052782)
(-0.06716771428 -0.09529643631 5.134877364e-19 0.0669757377 -3.38880747e-19 0.0001919765723)
(-0.05818231443 -0.08962648946 -4.091131792e-19 0.05796581578 -4.350501053e-19 0.0002164986509)
(-0.05021107634 -0.08372048318 -4.1269911e-19 0.04997259297 -3.915573132e-19 0.0002384833686)
(-0.04326155791 -0.078065815 7.812612913e-19 0.04300363888 2.814440461e-20 0.0002579190319)
(-0.03687251319 -0.07247612646 1.069710138e-18 0.03659776704 3.59448564e-20 0.0002747461451)
(-0.03125175636 -0.06721327719 1.243136623e-18 0.03096292997 2.657212529e-19 0.0002888263859)
(-0.02595122187 -0.06216172826 1.496010951e-19 0.02565124745 3.758676197e-19 0.0002999744177)
(-0.0212572938 -0.05742192004 3.927476966e-19 0.02094936437 9.671547212e-19 0.0003079294258)
(-0.01676039079 -0.0529775757 7.239879258e-19 0.01644800172 2.148405149e-19 0.0003123890729)
(-0.01275824617 -0.0488057803 7.779101866e-19 0.01244528673 1.295836274e-18 0.0003129594369)
(-0.00889981225 -0.04498864569 3.410530718e-19 0.008590604756 -2.951024999e-19 0.0003092074942)
(-0.005452728875 -0.04140886496 -6.683041059e-19 0.005152145452 -1.26673999e-18 0.0003005834238)
(-0.002144855808 -0.03823270777 -4.203082744e-20 0.00185836119 7.86181146e-19 0.0002864946183)
(0.0008218424338 -0.03527790712 4.966944266e-19 -0.001088047777 -1.211540981e-18 0.0002662053427)
(0.003610257881 -0.03276876454 -7.683705587e-19 -0.003849181029 -1.016101895e-18 0.0002389231478)
(0.006128858036 -0.03049761304 -7.289272613e-19 -0.006332544403 -1.09662236e-18 0.0002036863663)
(0.008381314321 -0.02870265693 1.126792278e-18 -0.008540756742 -1.46140692e-18 0.0001594424214)
(0.01045163284 -0.02721165951 -1.670415627e-18 -0.01055657944 5.001455187e-20 0.0001049466011)
(0.0121121114 -0.0262066511 1.731696258e-18 -0.01215091168 -2.800243463e-19 3.880027486e-05)
(-0.1400074761 -0.1140791889 -1.499473058e-19 0.1399841536 5.929022354e-19 2.332251502e-05)
(-0.1152733887 -0.1156660276 5.357742467e-19 0.1152101743 -7.020540453e-19 6.321444052e-05)
(-0.09586897597 -0.1133943992 -6.75801445e-19 0.09577010252 1.423521273e-18 9.887345247e-05)
(-0.08075673322 -0.1087724339 8.296855232e-19 0.08062566424 -7.582935699e-19 0.000131068973)
(-0.06831095837 -0.1032460719 -5.668027083e-19 0.06815077319 1.622078623e-19 0.0001601851791)
(-0.05799824282 -0.09698673491 -3.432052377e-20 0.0578116491 8.3986065e-19 0.000186593717)
(-0.04925314273 -0.09077406523 6.547080541e-19 0.04904271525 3.37880868e-19 0.0002104274788)
(-0.04161666498 -0.08442543699 -5.65225091e-19 0.04138487123 8.584804787e-19 0.0002317937541)
(-0.03502911593 -0.07840732916 -7.897206968e-19 0.03477843369 1.429407924e-19 0.0002506822409)
(-0.02902712996 -0.07250088647 -4.615807111e-19 0.02876009559 8.926457127e-19 0.000267034368)
(-0.02379478832 -0.06697473283 -3.160885562e-19 0.02351407221 -9.88717e-19 0.0002807161051)
(-0.01887284668 -0.0616788906 5.602542971e-19 0.01858129951 8.646653036e-19 0.0002915471629)
(-0.01455121301 -0.05673461379 -1.242877543e-19 0.01425193895 -1.496110524e-18 0.0002992740564)
(-0.01039760322 -0.05209028517 -4.141191279e-19 0.01009399996 -4.198869846e-19 0.0003036032604)
(-0.006731244073 -0.04775013658 9.108809638e-19 0.006427092313 -8.221501372e-19 0.0003041517606)
(-0.003168092171 -0.0437619863 9.330274241e-20 0.002867592751 -1.762886862e-18 0.0003004994204)
(-8.851796127e-06 -0.04003688495 9.571432945e-19 -0.0002832598552 8.297351126e-19 0.0002921116513)
(0.003058843622 -0.03671056446 -1.853686055e-19 -0.003337257066 -1.66630722e-18 0.0002784134435)
(0.005794524435 -0.03362549493 9.606729754e-19 -0.006053213794 1.722643156e-18 0.000258689359)
(0.008403079526 -0.03098366844 1.176248573e-18 -0.008635249909 -1.155161967e-18 0.0002321703825)
(0.01075745383 -0.02859189066 -3.075103459e-20 -0.01095537558 1.741053829e-18 0.0001979217519)
(0.01289539845 -0.02668207464 -7.196854671e-20 -0.01305032077 -7.639612666e-19 0.0001549223184)