/*--------------------------------*- C++ -*----------------------------------*\
| =========                 |                                                 |
| \\      /  F ield         | foam-extend: Open Source CFD                    |
|  \\    /   O peration     | Version:  3.0                                   |
|   \\  /    A nd           | Web:         http://www.extend-project.de       |
|    \\/     M anipulation  |                                                 |
\*---------------------------------------------------------------------------*/
FoamFile
{
    version     2.0;
    format      ascii;
    class       volSymmTensorField;
    location    "18";
    object      sigma;
}
// * * * * * * * * * * * * * * * * * * * * * * * * * * * * * * * * * * * * * //

dimensions      [0 0 0 0 0 0 0];

internalField   nonuniform List<symmTensor> 
576
(
(1.94529 -0.0634386 2.86505e-18 -1.88103 3.22904e-18 4.4782e-36)
(2.0163 0.149414 7.92196e-18 -1.94651 -3.1297e-17 -1.56561e-34)
(2.30483 0.22152 1.34431e-19 -2.26118 -1.54271e-17 -1.80047e-35)
(2.10406 0.243563 -1.78895e-18 -2.03883 -4.67761e-18 1.53787e-35)
(1.89768 0.241259 8.68031e-18 -1.86928 -2.85764e-18 2.36678e-35)
(1.65021 0.224185 6.71914e-18 -1.57989 7.4848e-19 2.73211e-36)
(1.35779 0.203952 -1.02719e-17 -1.34299 -4.54851e-18 -1.02532e-35)
(1.14267 0.181965 -1.44833e-17 -1.0639 2.31817e-17 -1.78435e-34)
(0.833086 0.156221 -2.04742e-17 -0.823262 1.22302e-17 -1.18602e-34)
(0.649404 0.137041 -1.37357e-17 -0.573885 7.06102e-18 -1.83127e-35)
(0.363019 0.10995 1.01753e-18 -0.333702 -1.1656e-17 5.70923e-35)
(0.162389 0.0943423 -1.16942e-17 -0.114142 -1.14545e-17 -5.79749e-36)
(2.10374 -0.151926 -1.75871e-17 -2.04039 -1.10971e-17 -9.06567e-35)
(1.96212 0.44158 -4.34074e-17 -1.89341 2.36916e-17 3.81533e-34)
(2.19274 0.646174 -4.06474e-18 -2.14967 1.26891e-17 2.15952e-34)
(1.95884 0.704818 1.97246e-18 -1.89469 -1.41562e-17 -2.23104e-35)
(1.74587 0.695978 1.45954e-17 -1.71791 -1.50272e-17 -8.8225e-36)
(1.50202 0.645045 -1.09965e-17 -1.4329 1.19686e-17 0)
(1.21754 0.585256 -1.9441e-17 -1.20301 4.18308e-17 -4.24003e-34)
(1.01192 0.52091 4.25459e-17 -0.934524 8.03878e-18 1.86999e-34)
(0.715451 0.445681 2.6273e-17 -0.70582 1.75859e-17 4.10547e-34)
(0.539919 0.389502 1.50654e-17 -0.465748 7.65838e-19 -4.14156e-34)
(0.268386 0.310703 -3.00377e-17 -0.239622 8.44831e-19 -2.86606e-34)
(0.0730332 0.264518 -2.94726e-17 -0.0256651 2.83339e-17 4.10811e-34)
(2.38855 -0.129236 4.13855e-18 -2.32764 4.22044e-18 -7.54377e-35)
(1.85751 0.71511 1.83584e-17 -1.7913 1.19497e-17 -4.01039e-35)
(1.98123 1.0185 -2.40126e-17 -1.93983 -1.84175e-17 -2.64362e-34)
(1.6875 1.09218 -4.82616e-17 -1.62561 4.31079e-17 -4.42179e-34)
(1.46291 1.07113 -1.98784e-17 -1.43599 7.62782e-18 2.86833e-34)
(1.22639 0.986904 3.67453e-17 -1.15971 1.48884e-17 -1.59546e-34)
(0.957243 0.890237 8.41584e-17 -0.943208 -2.54559e-17 1.00313e-33)
(0.769564 0.78793 5.14321e-18 -0.694869 9.14177e-18 1.05899e-34)
(0.497913 0.668929 7.92169e-17 -0.488613 -9.06711e-18 1.41037e-33)
(0.337842 0.579573 3.04947e-17 -0.266218 2.65699e-18 9.7028e-34)
(0.094229 0.456055 -1.6113e-17 -0.0664538 2.98516e-17 -9.21819e-34)
(-0.0909394 0.381179 4.27119e-17 0.136685 3.73854e-17 1.09869e-33)
(2.74144 0.0581974 2.41562e-18 -2.68354 4.05394e-18 0)
(1.71011 0.959595 -8.36474e-19 -1.64731 -2.74437e-17 0)
(1.69481 1.31179 -3.664e-17 -1.65546 5.54944e-17 3.10625e-34)
(1.32541 1.36823 8.24152e-17 -1.26678 -4.35292e-17 5.16379e-34)
(1.08731 1.32677 -4.06764e-17 -1.06178 1.56072e-17 -4.13117e-34)
(0.861829 1.21019 4.83577e-17 -0.798654 -3.38739e-17 7.67066e-34)
(0.614212 1.08077 -3.93121e-17 -0.600941 7.54547e-18 -1.01961e-33)
(0.451031 0.947204 1.02778e-16 -0.380288 -5.51562e-17 2.62009e-34)
(0.213239 0.79309 4.23863e-17 -0.204453 -6.91354e-17 -2.14935e-33)
(0.0741985 0.676333 1.70761e-17 -0.00639196 -2.73371e-17 -7.64009e-34)
(-0.131671 0.518641 4.58552e-17 0.157951 5.0718e-18 -3.4642e-34)
(-0.302422 0.41787 1.01635e-16 0.345722 -1.0938e-16 -1.48415e-34)
(3.08521 0.436396 -9.84813e-18 -3.03172 1.95594e-19 0)
(1.52934 1.16796 -3.17832e-17 -1.4712 2.72562e-17 7.57572e-35)
(1.36473 1.50983 4.03123e-17 -1.3284 -1.91723e-17 -4.25397e-34)
(0.918899 1.51164 -4.40811e-17 -0.86456 1.78823e-17 -4.99959e-34)
(0.669326 1.44032 7.66111e-17 -0.645712 -5.54699e-17 -6.65709e-34)
(0.458633 1.29275 -8.56386e-17 -0.400109 -3.37655e-18 3.38267e-34)
(0.237421 1.13579 -1.57242e-17 -0.225129 -3.78066e-17 0)
(0.10266 0.979047 -1.23461e-16 -0.0371022 -2.04574e-17 1.57204e-33)
(-0.0956298 0.800265 -1.1511e-16 0.103758 2.30192e-17 2.69051e-33)
(-0.210243 0.663163 -7.2521e-17 0.273104 -9.05013e-18 6.50433e-35)
(-0.372889 0.483937 1.60522e-17 0.397238 -5.56634e-17 -1.55816e-33)
(-0.525957 0.360876 -1.29468e-16 0.56609 -1.95807e-18 1.48415e-34)
(3.33846 0.998926 3.61387e-18 -3.28997 1.1889e-17 0)
(1.32651 1.33663 2.78756e-17 -1.27388 -1.52026e-17 1.3402e-34)
(1.0259 1.60933 -1.49108e-17 -0.992984 -1.20518e-17 -6.80653e-35)
(0.51839 1.51997 -1.19817e-17 -0.469231 4.74959e-18 0)
(0.263644 1.40983 -5.88442e-17 -0.242292 2.4448e-17 2.43331e-34)
(0.0714332 1.23325 2.04603e-17 -0.0185067 -1.9194e-17 -2.00164e-34)
(-0.120199 1.0543 -1.23906e-16 0.131303 6.58709e-17 7.04764e-34)
(-0.225377 0.882913 1.51103e-16 0.284635 -9.11524e-18 -2.16069e-33)
(-0.382338 0.690328 1.81953e-17 0.389674 -2.39487e-17 -1.95154e-33)
(-0.471569 0.540244 -6.99795e-17 0.52838 5.23344e-17 1.43494e-33)
(-0.590165 0.352504 1.00844e-17 0.61216 2.11427e-17 0)
(-0.723278 0.211094 -1.66224e-17 0.759543 4.64206e-17 0)
(3.42561 1.70684 3.0533e-18 -3.38321 4.57574e-18 0)
(1.11201 1.46567 -1.55206e-17 -1.0659 4.86334e-17 -6.00869e-34)
(0.710636 1.61955 1.04926e-16 -0.681832 -3.8241e-17 2.01224e-33)
(0.170884 1.40966 -1.45396e-17 -0.127802 -2.38218e-17 0)
(-0.0789261 1.25398 4.17585e-17 0.097636 -1.7827e-17 -7.8942e-35)
(-0.249008 1.05089 -5.43122e-17 0.295394 1.9973e-17 6.49384e-35)
(-0.409434 0.85555 1.36071e-16 0.419162 -1.28965e-17 5.80684e-34)
(-0.486535 0.67739 1.12717e-16 0.538483 -3.52764e-17 2.43727e-34)
(-0.603905 0.48092 -1.71899e-16 0.610322 3.39535e-17 -1.52637e-33)
(-0.669078 0.324701 4.39212e-17 0.718885 1.61347e-17 -4.52039e-34)
(-0.747247 0.14009 -1.29568e-17 0.766519 -2.08316e-17 0)
(-0.859186 -0.0156818 -1.86772e-17 0.890974 3.66434e-17 0)
(3.29194 2.49432 4.4973e-18 -3.25614 5.47538e-18 0)
(0.895302 1.55853 5.98206e-17 -0.856437 -1.61789e-18 4.4196e-34)
(0.444933 1.5609 -4.16852e-17 -0.420676 -1.41851e-17 -1.71081e-33)
(-0.086983 1.21339 -6.39296e-17 0.123278 3.54408e-17 -9.72181e-36)
(-0.318951 1.00906 2.08169e-17 0.33469 -1.20639e-17 -8.09333e-36)
(-0.463519 0.782598 1.46121e-17 0.502575 -4.77661e-17 1.99914e-34)
(-0.592475 0.575843 2.21024e-17 0.600654 1.24542e-17 0)
(-0.645115 0.397258 -7.83231e-17 0.688853 -2.71106e-17 -4.72873e-34)
(-0.7275 0.20468 -1.61559e-16 0.732886 3.60025e-17 3.25011e-33)
(-0.771765 0.0478457 3.72785e-17 0.813702 2.20002e-17 5.61014e-34)
(-0.816589 -0.124836 -3.50191e-17 0.832802 9.87291e-18 6.6198e-34)
(-0.907003 -0.291258 9.07785e-17 0.933762 -7.22701e-18 -1.13007e-33)
(2.90992 3.27709 2.29597e-17 -2.8815 -1.46372e-18 6.74455e-35)
(0.682939 1.62072 -3.35573e-17 -0.652025 -7.06003e-18 -5.21992e-35)
(0.244386 1.46099 -6.57842e-17 -0.225084 4.24945e-17 -2.09073e-34)
(-0.234101 0.974591 1.57373e-16 0.262975 -4.72214e-17 9.34429e-34)
(-0.434092 0.723092 -1.52842e-16 0.44662 4.61408e-17 -3.94964e-34)
(-0.550079 0.47703 1.33883e-16 0.58115 -8.62976e-18 1.00014e-33)
(-0.648306 0.262997 7.14294e-17 0.654809 -9.4062e-17 -1.91658e-33)
(-0.681416 0.0882079 -1.98081e-16 0.71621 -9.45908e-18 2.45641e-33)
(-0.735223 -0.0956278 -3.06099e-17 0.739496 4.34539e-17 -1.2552e-33)
(-0.762859 -0.249388 -2.39479e-18 0.796216 3.3768e-19 -1.49135e-35)
(-0.783529 -0.405209 8.99416e-18 0.796416 4.44558e-17 -2.67272e-34)
(-0.852716 -0.579069 8.25614e-17 0.873993 -1.83675e-17 1.13007e-33)
(2.28655 3.96589 7.0233e-18 -2.26591 1.41017e-17 0)
(0.478602 1.65918 2.65953e-17 -0.456163 -8.07196e-18 5.72149e-35)
(0.112382 1.35061 5.64397e-17 -0.0984075 1.18129e-18 1.83612e-34)
(-0.268035 0.740851 -1.21015e-16 0.288983 2.84537e-17 -1.11498e-33)
(-0.422457 0.448507 1.20681e-16 0.43152 -1.2397e-17 6.03512e-34)
(-0.507279 0.187155 -4.1363e-17 0.529813 3.79814e-17 -3.59733e-34)
(-0.576023 -0.0310827 -8.72712e-17 0.580719 -8.37584e-18 -6.35452e-34)
(-0.594856 -0.200246 5.81923e-17 0.620095 -1.27971e-17 -6.02257e-34)
(-0.626963 -0.37375 6.33395e-17 0.63004 3.18033e-17 -8.50028e-34)
(-0.642528 -0.522807 5.58886e-17 0.666725 6.79968e-18 4.65412e-35)
(-0.648637 -0.661077 1.69035e-16 0.657968 -2.74093e-17 1.32907e-34)
(-0.697262 -0.839772 -8.4452e-17 0.712688 -2.67646e-18 1.33417e-36)
(1.46141 4.47801 7.15034e-18 -1.44891 -1.94925e-18 0)
(0.282839 1.68035 -4.47302e-17 -0.269233 1.53076e-17 -5.31354e-35)
(0.0402037 1.2583 -5.14936e-17 -0.0317357 -1.9903e-18 -1.14249e-34)
(-0.204722 0.556284 6.68727e-17 0.217413 -9.88064e-18 -4.51544e-35)
(-0.302328 0.233863 -6.33165e-17 0.307806 1.94099e-17 2.47326e-35)
(-0.354044 -0.0379649 1.48057e-17 0.36768 -1.77896e-17 0)
(-0.394628 -0.258336 -4.17304e-17 0.397454 2.94132e-17 -3.81093e-34)
(-0.403812 -0.422276 2.59801e-17 0.419079 2.8357e-17 2.01796e-34)
(-0.420293 -0.586903 -1.63271e-17 0.422135 8.24828e-18 -4.61683e-34)
(-0.427794 -0.731554 -1.77098e-18 0.442423 2.28333e-17 -8.16981e-34)
(-0.427675 -0.855544 -7.26221e-18 0.433301 -3.02807e-17 2.38578e-34)
(-0.456464 -1.03706 3.4284e-17 0.46578 -2.97603e-17 5.94413e-34)
(0.502612 4.75118 1.40703e-18 -0.498524 -1.23531e-17 0)
(0.0933372 1.68953 3.83066e-18 -0.0888435 -1.0736e-17 -5.65506e-35)
(0.00848677 1.20616 -8.92605e-18 -0.00573702 1.97217e-17 -3.89856e-35)
(-0.0760771 0.4548 -1.22842e-17 0.0802621 9.33849e-19 8.94214e-36)
(-0.109431 0.116432 4.13657e-17 0.111194 -1.24486e-17 -1.52875e-36)
(-0.126808 -0.160727 -1.19489e-17 0.13129 1.50009e-18 1.11578e-35)
(-0.14019 -0.381949 8.80077e-18 0.141079 3.15856e-18 -1.33388e-36)
(-0.142867 -0.542802 -1.87456e-17 0.147883 6.2628e-18 -2.00682e-34)
(-0.147855 -0.702355 2.58264e-17 0.148418 -2.53533e-18 -9.94665e-35)
(-0.150013 -0.844392 -1.29532e-17 0.154812 2.61883e-18 -1.89406e-34)
(-0.149303 -0.960418 -3.79913e-18 0.151119 3.76497e-19 -2.61907e-34)
(-0.158809 -1.14321 7.01473e-18 0.161848 -9.69061e-18 4.31952e-35)
(-0.50286 4.75113 2.61595e-18 0.498567 9.15017e-18 1.93869e-35)
(-0.0937523 1.68948 2.19943e-17 0.0891186 1.46733e-17 3.22745e-35)
(-0.00882599 1.20613 2.96762e-18 0.00587498 3.95598e-18 3.28581e-35)
(0.0756611 0.454757 -8.69176e-18 -0.0800138 5.11047e-20 -4.80252e-35)
(0.109135 0.116398 -1.09057e-17 -0.111085 -8.08629e-18 9.2361e-35)
(0.1265 -0.160757 1.03432e-17 -0.131226 2.63322e-18 1.67556e-35)
(0.139961 -0.381981 -7.66988e-18 -0.141003 -9.97542e-18 7.49132e-36)
(0.142668 -0.542822 -1.6682e-18 -0.147975 -2.20541e-17 1.38966e-34)
(0.147703 -0.70238 -9.69919e-18 -0.148415 -4.12369e-18 1.92317e-34)
(0.149918 -0.844403 -7.51911e-18 -0.155021 1.00245e-17 1.58726e-34)
(0.149226 -0.960432 -7.73931e-19 -0.151243 1.58098e-17 5.42736e-36)
(0.158798 -1.14322 -4.53587e-19 -0.162081 -2.49712e-18 -1.44871e-35)
(-1.46172 4.47817 1.36153e-17 1.44901 -3.21725e-18 -2.04602e-35)
(-0.283237 1.68027 -4.73331e-17 0.269492 -1.04861e-17 4.06262e-34)
(-0.0405272 1.25823 -4.66716e-17 0.0318642 3.93977e-18 4.98035e-35)
(0.204339 0.556162 -2.50229e-17 -0.217192 1.96867e-17 -2.5087e-34)
(0.302059 0.233766 2.55107e-17 -0.307721 2.41477e-18 9.15443e-35)
(0.353761 -0.0380579 9.36924e-18 -0.367638 -3.29543e-17 0)
(0.394427 -0.25843 -7.64432e-17 -0.3974 -2.75556e-17 1.15948e-34)
(0.403633 -0.422337 2.24307e-17 -0.419188 -6.24974e-18 -1.45223e-34)
(0.420163 -0.586977 6.66578e-17 -0.42215 -7.6044e-18 -6.49783e-34)
(0.427716 -0.731588 4.26125e-17 -0.442643 1.98934e-17 -8.38608e-35)
(0.427615 -0.855588 -2.46566e-17 -0.43344 -7.86755e-19 6.87518e-35)
(0.456472 -1.03709 -3.60107e-17 -0.466028 1.34267e-17 1.60282e-34)
(-2.28686 3.96594 -8.45056e-18 2.26605 -2.30949e-17 1.74988e-34)
(-0.478967 1.65901 7.71978e-17 0.456406 9.49349e-18 -7.17408e-34)
(-0.112688 1.35049 5.40202e-17 0.0985129 2.70407e-18 9.11804e-35)
(0.267698 0.74066 -3.69695e-17 -0.288797 -6.34793e-18 4.15855e-34)
(0.422226 0.448359 -1.10492e-16 -0.431472 7.05082e-18 1.369e-34)
(0.507035 0.187017 -2.10248e-17 -0.529806 -3.83109e-18 -2.92592e-34)
(0.57587 -0.03122 1.0494e-16 -0.580705 1.19287e-17 1.03425e-34)
(0.594713 -0.200331 -2.92343e-17 -0.620237 -7.72054e-18 1.70893e-34)
(0.626877 -0.373857 4.39607e-17 -0.630094 -8.00843e-19 1.59904e-33)
(0.642482 -0.522847 4.87687e-17 -0.666969 -1.37747e-17 9.82646e-34)
(0.648611 -0.661134 -5.87799e-18 -0.658137 -3.01265e-17 8.85679e-34)
(0.697298 -0.839795 8.38349e-17 -0.712957 2.65258e-17 -9.31423e-34)
(-2.91042 3.27726 2.26507e-18 2.88178 1.01192e-17 0)
(-0.683272 1.62054 -1.17167e-17 0.652231 -1.52554e-17 0)
(-0.244648 1.46086 -6.36005e-17 0.225162 -3.75677e-17 1.14395e-33)
(0.233851 0.974358 1.54989e-16 -0.262865 1.57034e-17 -1.32239e-34)
(0.433933 0.722914 6.344e-18 -0.446628 2.45583e-17 5.05619e-34)
(0.549908 0.476858 -3.86027e-17 -0.581202 5.43149e-17 4.97375e-34)
(0.648225 0.26283 -1.49897e-16 -0.654853 -2.59118e-17 -1.87166e-33)
(0.681325 0.0881077 3.45042e-17 -0.716393 3.36485e-17 1.20916e-33)
(0.735196 -0.0957582 -3.44739e-17 -0.739597 1.40788e-17 6.28598e-34)
(0.762853 -0.249429 9.53367e-18 -0.796487 -6.214e-17 4.60236e-34)
(0.783547 -0.405274 1.90415e-19 -0.796617 -2.29673e-17 2.26864e-34)
(0.852795 -0.579087 8.41136e-17 -0.874296 -3.43417e-17 1.45743e-33)
(-3.29237 2.49434 4.00898e-18 3.25646 -9.65891e-18 0)
(-0.895561 1.55828 -7.241e-18 0.856609 -3.00791e-17 5.56439e-34)
(-0.445148 1.56071 7.4091e-17 0.420717 5.90711e-17 -6.69672e-34)
(0.0868004 1.21313 -1.41957e-16 -0.123211 -2.29193e-17 -4.9352e-34)
(0.318844 1.00887 1.51802e-16 -0.334751 2.75985e-17 -5.58118e-34)
(0.463405 0.782421 -5.18731e-17 -0.502675 9.73379e-18 -1.14695e-34)
(0.592454 0.575679 3.54202e-17 -0.60075 3.4924e-17 0)
(0.64507 0.397175 -7.50229e-17 -0.689074 3.63755e-17 9.5254e-34)
(0.727534 0.204562 -1.73997e-16 -0.733039 -1.05515e-17 -3.3863e-33)
(0.771798 0.0478352 -1.13225e-16 -0.813998 -1.37084e-17 -3.02375e-33)
(0.816654 -0.12488 3.42839e-17 -0.833042 4.79449e-17 1.51721e-33)
(0.90712 -0.291238 -1.72395e-16 -0.934089 -5.31532e-17 -1.45743e-33)
(-3.42629 1.70685 7.43203e-18 3.38367 -1.3162e-17 0)
(-1.11227 1.46543 3.63262e-17 1.06605 1.05892e-17 -2.94596e-34)
(-0.710813 1.61939 3.57175e-17 0.681834 2.60562e-18 -7.16511e-34)
(-0.170979 1.40942 1.67508e-17 0.127777 2.99331e-17 0)
(0.0788939 1.25381 -7.11882e-17 -0.0977535 -2.52261e-17 1.56755e-34)
(0.248984 1.05074 9.214e-17 -0.295567 1.39722e-17 -1.28947e-34)
(0.409492 0.855403 -7.20557e-17 -0.419321 -5.19972e-17 2.16911e-33)
(0.486553 0.67733 1.86087e-16 -0.538745 5.67404e-17 -2.76426e-33)
(0.604009 0.48082 6.6567e-17 -0.610529 3.26083e-17 1.15866e-33)
(0.669156 0.324718 -3.8146e-17 -0.719202 5.17027e-18 -2.08007e-34)
(0.74736 0.140071 3.53312e-18 -0.766788 -8.66902e-18 0)
(0.859338 -0.0156214 3.18254e-17 -0.891317 5.61294e-17 0)
(-3.33899 0.998758 -4.30046e-18 3.29043 -1.36304e-18 0)
(-1.32665 1.33634 -3.8622e-17 1.27397 -3.19983e-17 4.13785e-35)
(-1.02599 1.60915 6.37286e-17 0.992972 1.93189e-17 7.01029e-34)
(-0.518429 1.51973 6.3069e-18 0.469185 -9.69503e-18 0)
(-0.263621 1.40969 6.77341e-17 0.242141 2.5846e-17 -3.10266e-34)
(-0.0714149 1.23313 -4.73454e-17 0.01832 -2.83072e-17 2.55225e-34)
(0.120295 1.0542 5.59246e-17 -0.131484 5.17693e-17 8.0435e-34)
(0.225421 0.882906 -2.49996e-17 -0.284904 2.03025e-17 4.98449e-33)
(0.382479 0.690286 -1.12734e-16 -0.3899 -8.38942e-17 -2.76752e-33)
(0.471661 0.540324 1.03474e-16 -0.528694 -3.56143e-18 2.25856e-33)
(0.59031 0.352544 -1.78132e-18 -0.612445 1.79798e-17 0)
(0.723447 0.211224 1.40843e-17 -0.759887 2.02949e-17 0)
(-3.08594 0.436115 7.29029e-18 3.03225 -1.09066e-18 0)
(-1.52952 1.16768 -7.42639e-18 1.47126 3.26741e-17 4.38999e-34)
(-1.36484 1.50969 -6.69212e-17 1.32834 -4.72345e-17 -6.29322e-34)
(-0.918893 1.51145 -6.88178e-18 0.864443 -7.55905e-18 9.24924e-34)
(-0.669268 1.44023 -1.14993e-17 0.64553 -2.72684e-17 5.25706e-34)
(-0.458567 1.2927 6.7046e-17 0.399865 5.59076e-17 -1.11535e-34)
(-0.237272 1.13574 -7.51394e-17 0.22491 1.98466e-17 0)
(-0.102578 0.979093 -5.87357e-17 0.03682 -7.64469e-18 -2.64223e-33)
(0.0958188 0.80028 -6.37527e-17 -0.104016 -9.24862e-18 -1.69458e-34)
(0.210362 0.663288 1.38156e-17 -0.273408 -8.26428e-18 -6.60179e-35)
(0.373061 0.484027 -8.22353e-19 -0.397526 1.95868e-18 1.00644e-33)
(0.526125 0.361057 7.76637e-17 -0.566404 3.55548e-17 1.14698e-33)
(-2.74192 0.0577522 -1.13913e-18 2.68402 1.09963e-17 7.71676e-35)
(-1.71014 0.95932 -1.01366e-17 1.64731 -1.26636e-17 -5.97239e-35)
(-1.69481 1.31165 -1.64988e-18 1.65546 -1.10898e-17 -7.68428e-34)
(-1.32537 1.36808 8.52678e-17 1.26665 3.22355e-17 -6.55889e-34)
(-1.08722 1.32674 -7.95167e-17 1.06163 -2.37713e-17 1.36298e-34)
(-0.861749 1.21019 8.41426e-17 0.798447 8.81078e-19 -6.72174e-34)
(-0.61407 1.0808 7.45207e-17 0.600749 7.14317e-17 2.74415e-34)
(-0.450954 0.94731 -4.43562e-17 0.380047 1.90647e-17 3.67485e-34)
(-0.213061 0.793175 4.98767e-17 0.204228 1.55602e-17 8.73975e-34)
(-0.0741113 0.676526 1.04286e-17 0.00613324 2.40836e-17 6.0721e-34)
(0.131831 0.518805 -8.65883e-19 -0.158206 2.38975e-17 4.80073e-34)
(0.302572 0.418132 -2.5874e-17 -0.346 -5.06543e-17 -1.14698e-33)
(-2.38911 -0.129852 -3.51938e-18 2.32799 -1.16941e-17 0)
(-1.85758 0.714827 9.19878e-18 1.79125 -7.70553e-18 3.05547e-34)
(-1.98131 1.0184 1.65084e-18 1.93978 9.60574e-18 5.91668e-36)
(-1.68746 1.09208 -6.02695e-17 1.62546 -5.58933e-17 4.73118e-35)
(-1.46283 1.07115 7.07305e-17 1.43583 1.9956e-17 -2.16152e-34)
(-1.22633 0.986979 -6.86406e-17 1.15951 -3.90088e-17 5.57786e-34)
(-0.95709 0.890322 2.66654e-17 0.943037 -4.10757e-17 7.01243e-34)
(-0.7695 0.788097 1.21767e-16 0.694658 2.09268e-17 -1.37724e-33)
(-0.497737 0.669088 6.51519e-17 0.488419 -2.18154e-17 -1.96572e-33)
(-0.337755 0.579809 6.97281e-17 0.266007 -7.38868e-18 -1.53622e-33)
(-0.0940753 0.456278 9.49824e-17 0.0662406 2.49465e-17 -1.56608e-33)
(0.091056 0.381467 -8.03731e-17 -0.13689 -4.60414e-19 -3.14821e-34)
(-2.10401 -0.152668 -2.32784e-17 2.04073 5.16145e-18 0)
(-1.96207 0.441385 -2.67514e-17 1.89338 -1.42196e-17 -4.07585e-34)
(-2.1927 0.646041 4.70045e-18 2.1497 -2.31919e-17 -4.0144e-35)
(-1.9588 0.704782 2.13791e-17 1.8946 3.12857e-17 5.58561e-35)
(-1.74579 0.696017 -3.98588e-17 1.71784 -2.56717e-17 -7.9028e-35)
(-1.50198 0.645162 1.50017e-17 1.43278 1.30825e-17 0)
(-1.21744 0.585378 -4.04529e-17 1.2029 -1.47103e-17 8.22008e-35)
(-1.01189 0.521107 6.49559e-18 0.934391 -4.14932e-17 -5.61835e-35)
(-0.715329 0.445881 -2.85672e-17 0.705685 -2.8046e-17 -1.62002e-35)
(-0.539898 0.389767 -1.86998e-17 0.465609 -4.30218e-17 2.10177e-34)
(-0.268292 0.310976 -2.90553e-18 0.239473 -3.13777e-17 7.77714e-34)
(-0.0729791 0.26487 2.96665e-17 0.0255232 4.70129e-17 -4.72166e-34)
(-1.94545 -0.0642386 -4.89211e-19 1.88108 6.97462e-18 0)
(-2.01629 0.149215 6.26675e-18 1.9464 2.95681e-17 1.41426e-34)
(-2.30489 0.221408 -4.16663e-19 2.26116 5.79024e-18 2.41124e-36)
(-2.10404 0.243546 1.17515e-17 2.03873 -1.37682e-17 5.33717e-37)
(-1.89767 0.241335 1.53505e-17 1.86925 1.74588e-17 1.99251e-35)
(-1.65022 0.224334 -7.81204e-18 1.57983 -2.85213e-18 1.1205e-35)
(-1.35774 0.204108 1.50278e-17 1.34295 4.19032e-18 -2.28904e-35)
(-1.14268 0.182193 -2.43094e-17 1.06385 -7.50448e-18 7.53022e-35)
(-0.833022 0.156459 -4.61088e-18 0.823218 2.20515e-18 2.34256e-36)
(-0.649406 0.137323 -3.36118e-17 0.573847 -4.45007e-18 1.54445e-35)
(-0.362959 0.110255 -1.99999e-17 0.333651 -4.37754e-18 8.02647e-35)
(-0.162368 0.0946893 2.6058e-18 0.114103 -1.61114e-17 -2.98602e-35)
(-1.94535 0.0634526 2.86446e-18 1.88099 3.23035e-18 -4.47777e-36)
(-2.01628 -0.149437 7.92164e-18 1.9464 -3.12979e-17 1.56579e-34)
(-2.30489 -0.22149 1.35713e-19 2.26117 -1.54278e-17 1.80021e-35)
(-2.10406 -0.243594 -1.78869e-18 2.03876 -4.67857e-18 -1.53777e-35)
(-1.89768 -0.241234 8.67988e-18 1.86928 -2.8583e-18 -2.36695e-35)
(-1.65024 -0.224211 6.71855e-18 1.57987 7.48272e-19 -2.73209e-36)
(-1.35777 -0.203945 -1.02719e-17 1.34299 -4.54932e-18 1.02509e-35)
(-1.1427 -0.181972 -1.44833e-17 1.0639 2.31817e-17 1.78434e-34)
(-0.833056 -0.15622 -2.04743e-17 0.823258 1.22308e-17 1.18602e-34)
(-0.649426 -0.137046 -1.37353e-17 0.57389 7.06107e-18 1.83119e-35)
(-0.362993 -0.109951 1.01742e-18 0.333696 -1.16557e-17 -5.70917e-35)
(-0.162399 -0.0943415 -1.1694e-17 0.114149 -1.14546e-17 5.79649e-36)
(-2.10371 0.151941 -1.75875e-17 2.04047 -1.10967e-17 9.06559e-35)
(-1.96206 -0.441616 -4.34097e-17 1.89338 2.36902e-17 -3.81577e-34)
(-2.19268 -0.64613 -4.06568e-18 2.14973 1.26905e-17 -2.15952e-34)
(-1.95884 -0.704851 1.97316e-18 1.89467 -1.41555e-17 2.2291e-35)
(-1.74584 -0.695936 1.4596e-17 1.71793 -1.50265e-17 8.84e-36)
(-1.50204 -0.645064 -1.09974e-17 1.43289 1.1969e-17 0)
(-1.21751 -0.585237 -1.94409e-17 1.203 4.18319e-17 4.24001e-34)
(-1.01195 -0.52091 4.25468e-17 0.934517 8.03928e-18 -1.86996e-34)
(-0.715426 -0.445668 2.62727e-17 0.705802 1.7587e-17 -4.10552e-34)
(-0.539955 -0.389508 1.50649e-17 0.465735 7.65667e-19 4.1416e-34)
(-0.268389 -0.310697 -3.00377e-17 0.239604 8.45389e-19 2.8661e-34)
(-0.073066 -0.264543 -2.94727e-17 0.0256583 2.83343e-17 -4.10809e-34)
(-2.38864 0.129235 4.13899e-18 2.32759 4.2196e-18 7.54434e-35)
(-1.85754 -0.715074 1.83585e-17 1.79124 1.19511e-17 4.01258e-35)
(-1.98128 -1.0185 -2.40113e-17 1.93982 -1.84186e-17 2.64363e-34)
(-1.68751 -1.09218 -4.82609e-17 1.62555 4.31071e-17 4.42134e-34)
(-1.4629 -1.07111 -1.98787e-17 1.43597 7.62736e-18 -2.86801e-34)
(-1.22643 -0.986927 3.67459e-17 1.15967 1.48872e-17 1.59506e-34)
(-0.957197 -0.890223 8.41586e-17 0.943193 -2.54562e-17 -1.00314e-33)
(-0.769595 -0.787942 5.14369e-18 0.694853 9.14237e-18 -1.05895e-34)
(-0.497883 -0.668923 7.92173e-17 0.488598 -9.06782e-18 -1.41039e-33)
(-0.337841 -0.579585 3.04935e-17 0.266207 2.6565e-18 -9.70272e-34)
(-0.0942232 -0.456046 -1.6112e-17 0.0664432 2.98515e-17 9.21831e-34)
(0.0909222 -0.38118 4.27112e-17 -0.136677 3.73853e-17 -1.09871e-33)
(-2.74133 -0.0582226 2.41565e-18 2.68353 4.05262e-18 0)
(-1.71006 -0.959585 -8.38978e-19 1.64728 -2.74431e-17 0)
(-1.69475 -1.31177 -3.66402e-17 1.6555 5.54934e-17 -3.10691e-34)
(-1.32541 -1.36824 8.24153e-17 1.26674 -4.35273e-17 -5.16318e-34)
(-1.08729 -1.32674 -4.06767e-17 1.06181 1.56068e-17 4.13151e-34)
(-0.86185 -1.21019 4.83573e-17 0.798642 -3.38734e-17 -7.67078e-34)
(-0.614193 -1.08076 -3.93096e-17 0.60094 7.5459e-18 1.01959e-33)
(-0.451061 -0.947211 1.02778e-16 0.380292 -5.51564e-17 -2.61988e-34)
(-0.213235 -0.793074 4.2387e-17 0.204448 -6.91382e-17 2.14943e-33)
(-0.0742144 -0.676348 1.70768e-17 0.00639118 -2.73375e-17 7.64026e-34)
(0.131652 -0.518635 4.58558e-17 -0.157952 5.07104e-18 3.46446e-34)
(0.302406 -0.417899 1.01635e-16 -0.345725 -1.0938e-16 1.48418e-34)
(-3.08528 -0.436422 -9.84689e-18 3.03171 1.95545e-19 0)
(-1.5294 -1.16796 -3.17861e-17 1.47121 2.72571e-17 -7.57666e-35)
(-1.36475 -1.50983 4.03128e-17 1.32838 -1.91726e-17 4.25419e-34)
(-0.918905 -1.51165 -4.40812e-17 0.864521 1.7884e-17 4.99919e-34)
(-0.669322 -1.44029 7.66119e-17 0.645712 -5.54709e-17 6.65703e-34)
(-0.458651 -1.29278 -8.56401e-17 0.400067 -3.37527e-18 -3.38255e-34)
(-0.237388 -1.13576 -1.57242e-17 0.225113 -3.78069e-17 0)
(-0.102676 -0.979055 -1.23462e-16 0.037092 -2.04584e-17 -1.57203e-33)
(0.0956416 -0.800249 -1.15112e-16 -0.10378 2.30191e-17 -2.69061e-33)
(0.210258 -0.663163 -7.25202e-17 -0.273109 -9.04918e-18 -6.51367e-35)
(0.372874 -0.483926 1.60523e-17 -0.397243 -5.56631e-17 1.55821e-33)
(0.525946 -0.360886 -1.29467e-16 -0.566088 -1.95741e-18 -1.48418e-34)
(-3.33832 -0.998905 3.61471e-18 3.28991 1.18893e-17 0)
(-1.32648 -1.33663 2.78741e-17 1.27387 -1.52034e-17 -1.34014e-34)
(-1.02587 -1.60929 -1.49117e-17 0.992999 -1.20534e-17 6.8124e-35)
(-0.518389 -1.51998 -1.19813e-17 0.469223 4.74896e-18 0)
(-0.263639 -1.40979 -5.88433e-17 0.24231 2.4448e-17 -2.4335e-34)
(-0.071457 -1.23326 2.04601e-17 0.0185015 -1.91948e-17 2.0018e-34)
(0.120207 -1.05428 -1.23905e-16 -0.131294 6.58713e-17 -7.04794e-34)
(0.225352 -0.882927 1.51103e-16 -0.284629 -9.11479e-18 2.1607e-33)
(0.382324 -0.690321 1.81947e-17 -0.389674 -2.39468e-17 1.95157e-33)
(0.471571 -0.540252 -6.99802e-17 -0.528375 5.23347e-17 -1.43495e-33)
(0.590137 -0.352509 1.00836e-17 -0.612158 2.1143e-17 0)
(0.723273 -0.211115 -1.66225e-17 -0.75955 4.64208e-17 0)
(-3.42566 -1.70686 3.05404e-18 3.38321 4.57606e-18 0)
(-1.11204 -1.46571 -1.55217e-17 1.06591 4.86333e-17 6.00872e-34)
(-0.710644 -1.61953 1.04926e-16 0.681839 -3.82425e-17 -2.01221e-33)
(-0.170868 -1.40969 -1.45404e-17 0.127759 -2.38211e-17 0)
(0.0789311 -1.25396 4.17583e-17 -0.0976172 -1.78266e-17 7.89467e-35)
(0.249004 -1.05091 -5.43129e-17 -0.295427 1.99733e-17 -6.49422e-35)
(0.409453 -0.855524 1.3607e-16 -0.419163 -1.28962e-17 -5.80661e-34)
(0.486531 -0.677399 1.12717e-16 -0.538489 -3.52767e-17 -2.43706e-34)
(0.603897 -0.480909 -1.71897e-16 -0.610335 3.39531e-17 1.52642e-33)
(0.669095 -0.324692 4.39221e-17 -0.71888 1.61343e-17 4.52008e-34)
(0.747222 -0.140092 -1.29569e-17 -0.766519 -2.08319e-17 0)
(0.859186 0.0156746 -1.86776e-17 -0.890978 3.66435e-17 0)
(-3.29183 -2.49425 4.49852e-18 3.25609 5.47595e-18 0)
(-0.895271 -1.55853 5.98195e-17 0.856414 -1.61834e-18 -4.41966e-34)
(-0.444938 -1.56085 -4.16835e-17 0.420695 -1.41857e-17 1.71083e-33)
(0.0869888 -1.2134 -6.39293e-17 -0.123298 3.54407e-17 9.74102e-36)
(0.318944 -1.00903 2.08177e-17 -0.334663 -1.20641e-17 8.11557e-36)
(0.4635 -0.782613 1.4612e-17 -0.502593 -4.7766e-17 -1.99918e-34)
(0.592475 -0.575825 2.21011e-17 -0.600639 1.24536e-17 0)
(0.645107 -0.397273 -7.83234e-17 -0.688853 -2.71115e-17 4.72844e-34)
(0.72748 -0.204685 -1.61559e-16 -0.732893 3.60017e-17 -3.25017e-33)
(0.771775 -0.0478457 3.72793e-17 -0.813687 2.20008e-17 -5.61024e-34)
(0.816565 0.124819 -3.50186e-17 -0.832806 9.87394e-18 -6.61978e-34)
(0.907002 0.291247 9.07783e-17 -0.933765 -7.2271e-18 1.13009e-33)
(-2.90995 -3.27712 2.29597e-17 2.88152 -1.46356e-18 -6.74471e-35)
(-0.682914 -1.62076 -3.35563e-17 0.651989 -7.06161e-18 5.22005e-35)
(-0.244389 -1.46098 -6.57862e-17 0.225113 4.24959e-17 2.09021e-34)
(0.234125 -0.974607 1.57374e-16 -0.263021 -4.72208e-17 -9.34433e-34)
(0.434103 -0.723073 -1.52843e-16 -0.446592 4.61412e-17 3.9493e-34)
(0.550081 -0.477045 1.33884e-16 -0.58118 -8.62927e-18 -1.00013e-33)
(0.648312 -0.262981 7.14295e-17 -0.654796 -9.40619e-17 1.91657e-33)
(0.681424 -0.0882143 -1.98081e-16 -0.716214 -9.45878e-18 -2.45639e-33)
(0.735207 0.0956249 -3.06116e-17 -0.739506 4.34549e-17 1.25526e-33)
(0.762872 0.249397 -2.39578e-18 -0.796197 3.38434e-19 1.4945e-35)
(0.783512 0.405196 8.99283e-18 -0.796422 4.44568e-17 2.67314e-34)
(0.852719 0.579068 8.25617e-17 -0.873995 -1.83684e-17 -1.13009e-33)
(-2.28651 -3.9658 7.02319e-18 2.26589 1.41016e-17 0)
(-0.478577 -1.65917 2.65961e-17 0.456126 -8.07119e-18 -5.7207e-35)
(-0.112405 -1.35058 5.64393e-17 0.0984388 1.18075e-18 -1.83609e-34)
(0.268037 -0.740856 -1.21014e-16 -0.289015 2.84535e-17 1.11497e-33)
(0.422451 -0.448488 1.20681e-16 -0.431487 -1.23962e-17 -6.03532e-34)
(0.507275 -0.187169 -4.13631e-17 -0.529841 3.79806e-17 3.5975e-34)
(0.576017 0.0310907 -8.72695e-17 -0.580702 -8.37541e-18 6.35469e-34)
(0.594866 0.200238 5.81921e-17 -0.6201 -1.27957e-17 6.02244e-34)
(0.626948 0.373739 6.33396e-17 -0.630054 3.18037e-17 8.49999e-34)
(0.64254 0.522809 5.58886e-17 -0.666704 6.80058e-18 -4.65576e-35)
(0.648626 0.661059 1.69034e-16 -0.657981 -2.74104e-17 -1.33023e-34)
(0.69726 0.839765 -8.44524e-17 -0.712684 -2.67768e-18 -1.28674e-36)
(-1.4614 -4.47804 7.15045e-18 1.44893 -1.94962e-18 0)
(-0.282792 -1.68036 -4.47301e-17 0.269183 1.53059e-17 5.3129e-35)
(-0.0402004 -1.25828 -5.14927e-17 0.0317684 -1.98982e-18 1.14243e-34)
(0.204744 -0.556293 6.68724e-17 -0.217457 -9.88025e-18 4.5159e-35)
(0.302337 -0.233851 -6.3316e-17 -0.307775 1.94093e-17 -2.47388e-35)
(0.354057 0.0379557 1.48063e-17 -0.367713 -1.77897e-17 0)
(0.394624 0.258339 -4.17306e-17 -0.397438 2.9413e-17 3.81079e-34)
(0.403829 0.422274 2.59809e-17 -0.419081 2.83571e-17 -2.01794e-34)
(0.420282 0.586893 -1.63263e-17 -0.422149 8.24819e-18 4.61682e-34)
(0.427804 0.731558 -1.77026e-18 -0.442398 2.2833e-17 8.16979e-34)
(0.427669 0.855533 -7.26074e-18 -0.433314 -3.02807e-17 -2.38553e-34)
(0.456464 1.03706 3.42836e-17 -0.465776 -2.97604e-17 -5.94417e-34)
(-0.502635 -4.75109 1.40684e-18 0.498537 -1.23532e-17 0)
(-0.0933249 -1.68951 3.83043e-18 0.088809 -1.07358e-17 5.65518e-35)
(-0.00851041 -1.20613 -8.9268e-18 0.005771 1.97216e-17 3.89844e-35)
(0.0760811 -0.454798 -1.22839e-17 -0.080298 9.34048e-19 -8.94101e-36)
(0.109426 -0.11642 4.13652e-17 -0.111162 -1.24485e-17 1.53134e-36)
(0.12682 0.160726 -1.19489e-17 -0.131321 1.49985e-18 -1.11579e-35)
(0.140182 0.381949 8.80056e-18 -0.141067 3.15867e-18 1.33479e-36)
(0.142885 0.542805 -1.87455e-17 -0.147886 6.26308e-18 2.00679e-34)
(0.147848 0.702346 2.58266e-17 -0.148436 -2.5354e-18 9.94675e-35)
(0.150023 0.844391 -1.2953e-17 -0.154791 2.61866e-18 1.89405e-34)
(0.149302 0.960408 -3.79909e-18 -0.151134 3.76683e-19 2.61905e-34)
(0.158808 1.1432 7.01504e-18 -0.161842 -9.6906e-18 -4.3195e-35)
(0.50289 -4.75114 2.61577e-18 -0.498551 9.15002e-18 -1.93867e-35)
(0.0937975 -1.68947 2.19949e-17 -0.0891555 1.46732e-17 -3.22694e-35)
(0.00884118 -1.20612 2.96835e-18 -0.00584868 3.956e-18 -3.28573e-35)
(-0.0756341 -0.454758 -8.6916e-18 0.0799732 5.11641e-20 4.8024e-35)
(-0.109126 -0.116395 -1.09052e-17 0.111112 -8.08626e-18 -9.2359e-35)
(-0.126476 0.160761 1.03432e-17 0.131197 2.63316e-18 -1.67549e-35)
(-0.139964 0.381973 -7.6694e-18 0.141011 -9.97536e-18 -7.49277e-36)
(-0.142649 0.542826 -1.66843e-18 0.147976 -2.2054e-17 -1.38964e-34)
(-0.147708 0.702372 -9.69953e-18 0.1484 -4.12394e-18 -1.92314e-34)
(-0.14991 0.844399 -7.51949e-18 0.155041 1.00246e-17 -1.58725e-34)
(-0.149227 0.960429 -7.73943e-19 0.151232 1.58098e-17 -5.4272e-36)
(-0.158799 1.14322 -4.53445e-19 0.162087 -2.49698e-18 1.44865e-35)
(1.46166 -4.47812 1.36156e-17 -1.44898 -3.21771e-18 2.04622e-35)