/*--------------------------------*- C++ -*----------------------------------*\
| =========                 |                                                 |
| \\      /  F ield         | foam-extend: Open Source CFD                    |
|  \\    /   O peration     | Version:  3.0                                   |
|   \\  /    A nd           | Web:         http://www.extend-project.de       |
|    \\/     M anipulation  |                                                 |
\*---------------------------------------------------------------------------*/
FoamFile
{
    version     2.0;
    format      ascii;
    class       volVectorField;
    location    "18";
    object      u;
}
// * * * * * * * * * * * * * * * * * * * * * * * * * * * * * * * * * * * * * //

dimensions      [0 0 0 0 0 0 0];

internalField   nonuniform List<vector> 
576
(
(0.0501531 -0.027539 3.44744e-20)
(0.139375 -0.0351225 3.47712e-19)
(0.251726 -0.0484732 -5.40169e-19)
(0.385109 -0.0513033 -7.24885e-19)
(0.491808 -0.0541608 -1.23468e-19)
(0.614764 -0.052475 4.47317e-19)
(0.704777 -0.0504232 3.47747e-19)
(0.801522 -0.0451064 3.49665e-19)
(0.870514 -0.0390798 -7.75946e-20)
(0.932374 -0.0303931 -5.60413e-21)
(0.97517 -0.0200167 5.63417e-19)
(0.997017 -0.00773952 -1.05165e-19)
(0.0644241 -0.0807826 3.51526e-19)
(0.157575 -0.10307 -4.26828e-18)
(0.276852 -0.142216 -2.72865e-18)
(0.411702 -0.150555 -8.49281e-19)
(0.519887 -0.15893 1.4489e-18)
(0.641969 -0.154 -2.61349e-19)
(0.73092 -0.147977 -4.0731e-19)
(0.824911 -0.132386 7.79992e-18)
(0.890776 -0.114691 6.21925e-18)
(0.948137 -0.0892111 1.18905e-18)
(0.985546 -0.058744 -4.21963e-18)
(1.00103 -0.0227196 -4.52279e-18)
(0.0919776 -0.128526 -5.23501e-19)
(0.192737 -0.163991 2.20286e-18)
(0.325362 -0.226273 -7.80857e-19)
(0.463061 -0.239549 -5.9524e-18)
(0.574104 -0.252875 -2.8371e-18)
(0.694506 -0.245041 3.9992e-18)
(0.781406 -0.235453 8.12511e-18)
(0.870078 -0.210655 2.07331e-18)
(0.929907 -0.182495 1.01365e-17)
(0.978578 -0.141959 4.06686e-18)
(1.00559 -0.0934744 9.34448e-19)
(1.00879 -0.0361588 1.12021e-17)
(0.130961 -0.167508 -4.25757e-19)
(0.242478 -0.213738 1.04547e-18)
(0.393995 -0.294903 -2.95398e-18)
(0.535724 -0.312212 6.00961e-18)
(0.650807 -0.329575 -7.18861e-18)
(0.768836 -0.319366 -6.99794e-19)
(0.852824 -0.306869 -9.20948e-19)
(0.933976 -0.274552 1.0787e-17)
(0.985262 -0.237846 8.09207e-18)
(1.02164 -0.185018 1.09232e-17)
(1.03394 -0.121824 7.1991e-18)
(1.01975 -0.0471233 2.477e-17)
(0.178691 -0.195072 -2.04813e-19)
(0.303387 -0.248911 -1.29018e-18)
(0.478031 -0.343435 4.3069e-19)
(0.624695 -0.363599 -7.89797e-19)
(0.744731 -0.383819 4.04589e-18)
(0.85985 -0.371936 -9.92487e-18)
(0.940281 -0.35738 -5.98913e-18)
(1.01222 -0.319746 -1.88169e-17)
(1.05305 -0.276999 -1.76494e-17)
(1.07437 -0.215476 -7.89062e-18)
(1.06866 -0.141879 -5.1124e-18)
(1.03319 -0.0548832 -2.80594e-17)
(0.231945 -0.209346 2.35872e-19)
(0.37134 -0.267125 1.71157e-18)
(0.571786 -0.368563 -9.71228e-20)
(0.723958 -0.390199 -3.92012e-18)
(0.849511 -0.4119 -9.03578e-19)
(0.961387 -0.399144 -2.16349e-18)
(1.03784 -0.383523 -7.59453e-18)
(1.09951 -0.343137 1.69508e-18)
(1.12867 -0.297262 -7.61242e-18)
(1.13319 -0.231238 -1.43365e-17)
(1.10739 -0.152258 2.22974e-18)
(1.04817 -0.0588966 -7.26976e-18)
(0.287061 -0.209347 5.68826e-19)
(0.441674 -0.267128 4.90918e-19)
(0.668827 -0.368568 7.67646e-18)
(0.8267 -0.390209 1.5444e-18)
(0.95797 -0.411909 5.22681e-19)
(1.06649 -0.399156 -1.60465e-18)
(1.13883 -0.383535 9.49808e-19)
(1.18987 -0.343147 4.56598e-18)
(1.20695 -0.297272 -2.16551e-18)
(1.19409 -0.231246 3.37613e-18)
(1.14749 -0.152262 -1.08258e-18)
(1.06368 -0.0588994 -4.77634e-18)
(0.340316 -0.195086 3.24063e-19)
(0.50963 -0.248929 1.0625e-18)
(0.762588 -0.343459 4.85848e-18)
(0.925965 -0.363619 -4.92766e-18)
(1.06275 -0.383844 8.15605e-18)
(1.16803 -0.371957 -5.88889e-18)
(1.2364 -0.3574 -4.05693e-18)
(1.27716 -0.319764 6.67647e-19)
(1.28257 -0.277015 -1.28047e-17)
(1.25292 -0.215487 5.75509e-18)
(1.18622 -0.141887 3.29508e-19)
(1.07866 -0.0548854 1.19723e-17)
(0.388049 -0.167525 4.79548e-19)
(0.570542 -0.213761 8.92219e-19)
(0.846631 -0.294936 -3.1731e-18)
(1.01495 -0.312251 5.29118e-18)
(1.15669 -0.329617 -5.25662e-18)
(1.25906 -0.31941 7.95221e-18)
(1.32386 -0.30691 -2.41909e-18)
(1.35542 -0.27459 -1.57105e-17)
(1.35036 -0.237881 -1.45342e-17)
(1.30565 -0.185044 -5.19123e-18)
(1.22095 -0.121843 -1.24234e-17)
(1.0921 -0.0471312 1.22018e-17)
(0.427039 -0.128551 8.28681e-19)
(0.620295 -0.164025 2.10013e-18)
(0.915273 -0.226316 4.38388e-20)
(1.08762 -0.239597 3.84516e-18)
(1.2334 -0.252923 3.56656e-19)
(1.33339 -0.24509 5.20356e-18)
(1.39529 -0.235498 7.91359e-18)
(1.41933 -0.210696 -2.93954e-18)
(1.40572 -0.182531 3.49137e-18)
(1.34872 -0.141985 5.93867e-18)
(1.2493 -0.0934929 5.28658e-18)
(1.10307 -0.0361637 -5.80133e-18)
(0.454596 -0.0808125 2.3188e-19)
(0.655463 -0.10311 -2.31532e-19)
(0.963797 -0.142268 1.82256e-18)
(1.13899 -0.150616 -2.98851e-18)
(1.28763 -0.158992 2.36027e-18)
(1.38595 -0.154066 -1.59627e-19)
(1.44579 -0.148036 -9.88376e-19)
(1.46451 -0.132443 7.20452e-18)
(1.44487 -0.114741 6.29789e-18)
(1.37917 -0.0892494 9.02922e-18)
(1.26935 -0.0587709 1.38789e-17)
(1.11082 -0.0227305 -2.0273e-18)
(0.468874 -0.0275684 -4.00655e-20)
(0.673681 -0.0351651 -2.14316e-18)
(0.98893 -0.0485237 -1.46266e-18)
(1.1656 -0.0513643 2.41118e-18)
(1.31572 -0.05422 -1.77618e-18)
(1.41317 -0.0525377 5.44719e-19)
(1.47194 -0.0504808 -1.53988e-18)
(1.48791 -0.0451592 1.59411e-18)
(1.46514 -0.0391269 2.0099e-19)
(1.39494 -0.0304277 1.21713e-18)
(1.27973 -0.0200424 1.38187e-18)
(1.11484 -0.00774701 2.33591e-18)
(0.468871 0.0275561 -2.98294e-20)
(0.673682 0.0351767 1.6921e-18)
(0.98893 0.0485288 1.8288e-18)
(1.16561 0.0513881 2.07233e-18)
(1.31572 0.0542473 1.90275e-18)
(1.41317 0.0525722 2.49982e-20)
(1.47195 0.0505159 2.50871e-18)
(1.48791 0.0452035 -3.34038e-18)
(1.46514 0.0391546 -3.42989e-18)
(1.39494 0.030469 -4.4779e-18)
(1.27974 0.0200524 7.22852e-20)
(1.11484 0.00776554 1.21952e-18)
(0.454612 0.0808029 4.15208e-19)
(0.655486 0.103125 -1.34132e-18)
(0.963821 0.142277 -2.81217e-19)
(1.13902 0.150644 1.49916e-18)
(1.28766 0.159023 3.69704e-18)
(1.38598 0.154105 7.47433e-19)
(1.44582 0.148075 -5.08884e-18)
(1.46453 0.132491 -2.99486e-18)
(1.44489 0.114772 -6.53085e-18)
(1.37918 0.0892933 -5.29019e-18)
(1.26936 0.0587826 7.84513e-19)
(1.11083 0.0227505 -4.44584e-18)
(0.427049 0.128543 1.20771e-19)
(0.620317 0.164046 -3.87237e-18)
(0.915297 0.22633 -5.29241e-19)
(1.08765 0.239634 -5.73188e-18)
(1.23343 0.252962 1.31137e-18)
(1.33343 0.245137 -6.84334e-19)
(1.39532 0.235545 2.97949e-18)
(1.41935 0.21075 9.13126e-19)
(1.40575 0.182569 3.35285e-18)
(1.34874 0.142034 2.37043e-18)
(1.24932 0.0935071 -8.89098e-20)
(1.10307 0.0361857 -1.02578e-17)
(0.388075 0.167524 -9.47048e-19)
(0.570584 0.21379 2.29008e-18)
(0.846676 0.294962 -3.26522e-18)
(1.015 0.312298 -9.10904e-19)
(1.15674 0.329667 -7.51853e-18)
(1.25911 0.319468 5.79243e-18)
(1.32391 0.306967 1.00871e-17)
(1.35546 0.274652 6.75392e-18)
(1.3504 0.237927 1.73961e-17)
(1.30568 0.185099 1.26266e-17)
(1.22097 0.121861 -3.97562e-18)
(1.0921 0.0471565 5.23759e-18)
(0.340336 0.195089 -6.57084e-19)
(0.509668 0.248966 -1.37977e-18)
(0.762627 0.343493 -6.07307e-18)
(0.92602 0.363682 6.23905e-18)
(1.0628 0.383907 -1.19662e-18)
(1.16809 0.37203 3.18206e-18)
(1.23645 0.357472 2.8313e-18)
(1.27721 0.31984 5.70626e-18)
(1.28261 0.277073 1.14616e-17)
(1.25294 0.215551 9.57194e-18)
(1.18625 0.141911 3.88354e-18)
(1.07867 0.0549142 2.57893e-17)
(0.287091 0.209359 -6.9746e-19)
(0.441725 0.267179 -2.0992e-18)
(0.668883 0.368618 -1.65289e-18)
(0.826771 0.390285 -3.27039e-18)
(0.958032 0.411988 1.74283e-18)
(1.06656 0.399243 -4.01333e-18)
(1.13889 0.38362 -4.23884e-18)
(1.18993 0.343235 -1.61477e-17)
(1.207 0.29734 3.58089e-18)
(1.19412 0.231317 -6.28502e-18)
(1.14752 0.152292 9.11821e-20)
(1.06368 0.0589309 -8.8862e-18)
(0.231966 0.209362 -2.9964e-19)
(0.371383 0.267185 6.17585e-19)
(0.571829 0.368624 -1.26902e-18)
(0.724017 0.390293 -1.95782e-19)
(0.849563 0.411996 -4.08567e-18)
(0.961448 0.399251 4.66678e-19)
(1.03789 0.383627 -7.25569e-18)
(1.09956 0.343242 1.56995e-17)
(1.12871 0.297346 1.73087e-17)
(1.13322 0.231322 -8.71344e-18)
(1.10742 0.152295 5.43124e-18)
(1.04817 0.0589322 -4.91399e-18)
(0.178718 0.195097 -2.36732e-19)
(0.303437 0.248986 -1.08138e-18)
(0.478081 0.34351 7.24909e-18)
(0.624764 0.363708 -2.60936e-18)
(0.744788 0.383929 3.69127e-18)
(0.859917 0.372055 -5.84754e-18)
(0.940336 0.357495 5.0911e-18)
(1.01228 0.319861 1.30527e-17)
(1.0531 0.277091 -8.37764e-19)
(1.0744 0.215565 -6.53615e-18)
(1.06869 0.14192 -5.4766e-18)
(1.03319 0.0549185 -2.13067e-17)
(0.130977 0.167537 -6.70738e-19)
(0.242516 0.213821 2.40315e-18)
(0.394026 0.294989 -9.54964e-19)
(0.535773 0.312339 -4.23631e-18)
(0.650848 0.329701 1.2352e-18)
(0.768884 0.319507 -8.30412e-18)
(0.852866 0.307002 1.60448e-19)
(0.934015 0.274685 2.48938e-18)
(0.985301 0.237955 -1.32828e-17)
(1.02166 0.18512 -7.68973e-18)
(1.03397 0.121876 -1.25891e-17)
(1.01975 0.0471631 -3.2648e-18)
(0.0919953 0.128559 1.3537e-19)
(0.192772 0.164086 -1.95584e-19)
(0.325395 0.226366 -9.78158e-19)
(0.463109 0.239688 4.38661e-18)
(0.574143 0.253007 -6.161e-18)
(0.694554 0.245189 4.70814e-18)
(0.781444 0.235591 -2.22295e-18)
(0.870113 0.210794 -1.54507e-17)
(0.929943 0.182606 -1.21712e-17)
(0.978592 0.142062 -1.58612e-17)
(1.00562 0.0935269 -1.44186e-17)
(1.00878 0.0361945 1.9273e-17)
(0.06443 0.0808208 7.70779e-19)
(0.157596 0.103172 3.58351e-18)
(0.276863 0.142317 1.6383e-18)
(0.411725 0.150706 -2.05568e-18)
(0.519902 0.159074 3.48714e-18)
(0.641991 0.154165 -1.16757e-18)
(0.730939 0.148128 7.81681e-19)
(0.824925 0.13254 -1.93096e-18)
(0.890797 0.114814 1.09865e-18)
(0.948139 0.0893254 -1.29079e-18)
(0.985566 0.0588054 -1.97038e-18)
(1.00102 0.0227604 -8.37302e-18)
(0.0501594 0.0275744 6.90617e-20)
(0.139384 0.035229 1.7663e-19)
(0.251737 0.0485723 2.26872e-19)
(0.385122 0.0514564 -1.87789e-19)
(0.491821 0.0543036 -1.80324e-18)
(0.614778 0.0526386 5.76781e-19)
(0.704791 0.050573 -1.14188e-18)
(0.80153 0.0452576 -4.9374e-19)
(0.87053 0.0392015 -2.20132e-18)
(0.932373 0.030504 1.35563e-18)
(0.975186 0.0200777 -1.28666e-18)
(0.997006 0.00777611 -1.2543e-18)
(0.0501562 -0.0275511 -3.45918e-20)
(0.139377 -0.0351124 -3.47539e-19)
(0.251731 -0.0484815 5.40113e-19)
(0.385114 -0.0512963 7.24892e-19)
(0.491814 -0.0541653 1.23414e-19)
(0.614769 -0.0524718 -4.47257e-19)
(0.704784 -0.0504249 -3.47678e-19)
(0.801522 -0.0451059 -3.49645e-19)
(0.870524 -0.0390803 7.76863e-20)
(0.932368 -0.0303937 5.61912e-21)
(0.975182 -0.020017 -5.63368e-19)
(0.997005 -0.0077371 1.0517e-19)
(0.0644206 -0.0807991 -3.51709e-19)
(0.157577 -0.103059 4.26847e-18)
(0.276844 -0.14223 2.72881e-18)
(0.411699 -0.15055 8.49629e-19)
(0.51988 -0.15894 -1.44893e-18)
(0.641965 -0.154003 2.61492e-19)
(0.730917 -0.147983 4.0749e-19)
(0.824903 -0.132392 -7.79988e-18)
(0.890779 -0.114696 -6.21941e-18)
(0.948125 -0.0892175 -1.18904e-18)
(0.985556 -0.0587463 4.2196e-18)
(1.00102 -0.022722 4.52283e-18)
(0.0919805 -0.128541 5.23317e-19)
(0.192742 -0.16398 -2.20274e-18)
(0.325366 -0.226284 7.80716e-19)
(0.463068 -0.239541 5.95231e-18)
(0.574108 -0.25288 2.83695e-18)
(0.694512 -0.245036 -3.99928e-18)
(0.78141 -0.235453 -8.12529e-18)
(0.870078 -0.210653 -2.07335e-18)
(0.929915 -0.182493 -1.01369e-17)
(0.97857 -0.141959 -4.06684e-18)
(1.0056 -0.0934709 -9.34581e-19)
(1.00877 -0.0361575 -1.12023e-17)
(0.130958 -0.167523 4.2569e-19)
(0.242476 -0.213723 -1.04537e-18)
(0.393989 -0.294916 2.95421e-18)
(0.535719 -0.312204 -6.00928e-18)
(0.650802 -0.329585 7.18875e-18)
(0.76883 -0.319366 7.00144e-19)
(0.852821 -0.306875 9.21198e-19)
(0.933969 -0.274555 -1.07871e-17)
(0.985265 -0.23785 -8.09205e-18)
(1.02163 -0.185023 -1.09232e-17)
(1.03395 -0.121824 -7.19916e-18)
(1.01974 -0.047128 -2.47701e-17)
(0.178696 -0.195088 2.04759e-19)
(0.303391 -0.248899 1.29007e-18)
(0.478037 -0.343448 -4.30428e-19)
(0.624701 -0.363588 7.89711e-19)
(0.744734 -0.383826 -4.04592e-18)
(0.859854 -0.371929 9.92474e-18)
(0.940284 -0.35738 5.98926e-18)
(1.01222 -0.319743 1.88168e-17)
(1.05306 -0.276996 1.76502e-17)
(1.07436 -0.215476 7.89088e-18)
(1.06867 -0.141875 5.11271e-18)
(1.03318 -0.0548858 2.80595e-17)
(0.231942 -0.209359 -2.35864e-19)
(0.371334 -0.267111 -1.71174e-18)
(0.571781 -0.368573 9.7366e-20)
(0.72395 -0.390191 3.92013e-18)
(0.849505 -0.411907 9.03844e-19)
(0.96138 -0.399142 2.16343e-18)
(1.03784 -0.383527 7.59483e-18)
(1.0995 -0.343138 -1.69516e-18)
(1.12867 -0.297263 7.61212e-18)
(1.13319 -0.231242 1.43363e-17)
(1.1074 -0.152255 -2.22972e-18)
(1.04816 -0.0589022 7.26973e-18)
(0.287068 -0.209362 -5.68849e-19)
(0.441676 -0.267118 -4.91027e-19)
(0.668835 -0.36858 -7.67638e-18)
(0.826703 -0.3902 -1.54437e-18)
(0.957974 -0.411914 -5.22626e-19)
(1.06649 -0.399151 1.60465e-18)
(1.13884 -0.383534 -9.4979e-19)
(1.18987 -0.343146 -4.56585e-18)
(1.20695 -0.297269 2.16541e-18)
(1.19408 -0.231248 -3.37636e-18)
(1.14749 -0.152258 1.08257e-18)
(1.06367 -0.0589038 4.77632e-18)
(0.340315 -0.195098 -3.24021e-19)
(0.509622 -0.248918 -1.06273e-18)
(0.762583 -0.343466 -4.85827e-18)
(0.925956 -0.363614 4.9275e-18)
(1.06275 -0.383848 -8.15597e-18)
(1.16802 -0.371955 5.88872e-18)
(1.23639 -0.357401 4.057e-18)
(1.27715 -0.319765 -6.67548e-19)
(1.28257 -0.277013 1.28053e-17)
(1.25291 -0.215491 -5.75492e-18)
(1.18622 -0.141884 -3.29314e-19)
(1.07866 -0.05489 -1.19724e-17)
(0.388057 -0.167538 -4.795e-19)
(0.570543 -0.213753 -8.92294e-19)
(0.846637 -0.294945 3.17328e-18)
(1.01495 -0.312245 -5.2912e-18)
(1.15669 -0.32962 5.25673e-18)
(1.25905 -0.319408 -7.95213e-18)
(1.32386 -0.306909 2.41899e-18)
(1.35542 -0.274591 1.57105e-17)
(1.35036 -0.237878 1.45341e-17)
(1.30565 -0.185046 5.19125e-18)
(1.22095 -0.12184 1.24232e-17)
(1.09209 -0.0471349 -1.22019e-17)
(0.427039 -0.128561 -8.28686e-19)
(0.620286 -0.164018 -2.10012e-18)
(0.915268 -0.226322 -4.39166e-20)
(1.08761 -0.239594 -3.84504e-18)
(1.23339 -0.252926 -3.56832e-19)
(1.33338 -0.24509 -5.20365e-18)
(1.39528 -0.235497 -7.91351e-18)
(1.41932 -0.210699 2.93931e-18)
(1.40572 -0.182528 -3.49174e-18)
(1.34871 -0.141988 -5.93891e-18)
(1.2493 -0.0934904 -5.28728e-18)
(1.10307 -0.0361663 5.80153e-18)
(0.454605 -0.0808222 -2.31852e-19)
(0.655464 -0.103104 2.31577e-19)
(0.963801 -0.142274 -1.8224e-18)
(1.139 -0.150612 2.98848e-18)
(1.28763 -0.158993 -2.36012e-18)
(1.38595 -0.154066 1.59665e-19)
(1.44579 -0.148034 9.88532e-19)
(1.46451 -0.132446 -7.20447e-18)
(1.44487 -0.114737 -6.2979e-18)
(1.37917 -0.0892525 -9.0292e-18)
(1.26935 -0.0587691 -1.38789e-17)
(1.11082 -0.0227325 2.02716e-18)
(0.468875 -0.0275756 4.00758e-20)
(0.673675 -0.0351609 2.14317e-18)
(0.988925 -0.048529 1.4627e-18)
(1.1656 -0.0513627 -2.41112e-18)
(1.31571 -0.0542225 1.77615e-18)
(1.41316 -0.0525392 -5.44669e-19)
(1.47194 -0.0504794 1.53991e-18)
(1.4879 -0.0451633 -1.59408e-18)
(1.46513 -0.0391235 -2.01001e-19)
(1.39493 -0.0304308 -1.21708e-18)
(1.27973 -0.0200409 -1.38183e-18)
(1.11484 -0.00774818 -2.33593e-18)
(0.46888 0.0275506 2.98353e-20)
(0.673683 0.0351809 -1.69209e-18)
(0.988933 0.0485251 -1.82874e-18)
(1.16561 0.0513905 -2.0723e-18)
(1.31572 0.0542466 -1.90268e-18)
(1.41317 0.0525716 -2.49822e-20)
(1.47195 0.0505189 -2.50864e-18)
(1.48791 0.0452004 3.34039e-18)
(1.46514 0.0391587 3.42995e-18)
(1.39494 0.0304667 4.47794e-18)
(1.27974 0.0200541 -7.22577e-20)
(1.11484 0.00776463 -1.21949e-18)
(0.454615 0.0807991 -4.15226e-19)
(0.655482 0.103127 1.34143e-18)
(0.963818 0.142273 2.81351e-19)
(1.13902 0.150644 -1.49906e-18)
(1.28765 0.159021 -3.69697e-18)
(1.38597 0.154102 -7.47366e-19)
(1.44581 0.148077 5.08901e-18)
(1.46453 0.132487 2.99481e-18)
(1.44488 0.114774 6.53068e-18)
(1.37918 0.0892903 5.29008e-18)
(1.26936 0.0587836 -7.8451e-19)
(1.11083 0.0227492 4.4459e-18)
(0.427055 0.128542 -1.2075e-19)
(0.620317 0.164048 3.8723e-18)
(0.915297 0.226328 5.29223e-19)
(1.08765 0.239636 5.73191e-18)
(1.23343 0.252962 -1.31122e-18)
(1.33343 0.245137 6.84276e-19)
(1.39532 0.235549 -2.97966e-18)
(1.41936 0.210749 -9.13042e-19)
(1.40575 0.182573 -3.35297e-18)
(1.34874 0.142033 -2.37049e-18)
(1.24932 0.0935095 8.90331e-20)
(1.10307 0.0361847 1.02575e-17)
(0.38808 0.167526 9.47034e-19)
(0.570584 0.213791 -2.29007e-18)
(0.846676 0.294961 3.26538e-18)
(1.015 0.312298 9.10874e-19)
(1.15673 0.329667 7.51873e-18)
(1.25911 0.319465 -5.79238e-18)
(1.32391 0.306968 -1.00868e-17)
(1.35546 0.274649 -6.75407e-18)
(1.3504 0.237929 -1.73961e-17)
(1.30568 0.185095 -1.26267e-17)
(1.22096 0.121862 3.97566e-18)
(1.0921 0.0471542 -5.23797e-18)
(0.340336 0.195092 6.57037e-19)
(0.509667 0.248966 1.37984e-18)
(0.762624 0.343492 6.07288e-18)
(0.926019 0.363684 -6.23888e-18)
(1.0628 0.383908 1.19632e-18)
(1.16809 0.372032 -3.1817e-18)
(1.23644 0.357476 -2.8312e-18)
(1.27721 0.319841 -5.70579e-18)
(1.28261 0.277078 -1.14608e-17)
(1.25295 0.215551 -9.57118e-18)
(1.18624 0.141915 -3.88362e-18)
(1.07867 0.054913 -2.57881e-17)
(0.287097 0.209367 6.97438e-19)
(0.441728 0.267179 2.09908e-18)
(0.668886 0.368622 1.65292e-18)
(0.826774 0.390284 3.27035e-18)
(0.958033 0.411991 -1.74266e-18)
(1.06656 0.399241 4.01318e-18)
(1.13889 0.383621 4.23916e-18)
(1.18993 0.343232 1.61475e-17)
(1.20699 0.297341 -3.5809e-18)
(1.19412 0.231314 6.28519e-18)
(1.14751 0.152293 -9.11055e-20)
(1.06369 0.0589279 8.88618e-18)
(0.231962 0.209368 2.9955e-19)
(0.371382 0.267181 -6.17522e-19)
(0.571824 0.368624 1.2687e-18)
(0.724014 0.390294 1.95906e-19)
(0.84956 0.411996 4.08545e-18)
(0.961446 0.399255 -4.66477e-19)
(1.03789 0.383631 7.25554e-18)
(1.09956 0.343245 -1.56993e-17)
(1.12871 0.297351 -1.73079e-17)
(1.13323 0.231324 8.71304e-18)
(1.10742 0.1523 -5.43099e-18)
(1.04818 0.0589315 4.91394e-18)
(0.178723 0.195111 2.36737e-19)
(0.303441 0.248985 1.08122e-18)
(0.478085 0.343519 -7.24899e-18)
(0.62477 0.363707 2.60931e-18)
(0.744791 0.383935 -3.69132e-18)
(0.859924 0.372054 5.84745e-18)
(0.940336 0.357498 -5.09089e-18)
(1.01228 0.31986 -1.30527e-17)
(1.05309 0.277094 8.38661e-19)
(1.07441 0.215564 6.53608e-18)
(1.06869 0.141924 5.47707e-18)
(1.03319 0.0549166 2.13063e-17)
(0.13097 0.167545 6.70693e-19)
(0.242515 0.213812 -2.40307e-18)
(0.394022 0.294991 9.55164e-19)
(0.535767 0.312335 4.23628e-18)
(0.650845 0.329704 -1.23497e-18)
(0.76888 0.319508 8.30408e-18)
(0.852861 0.307006 -1.60567e-19)
(0.934016 0.274688 -2.48905e-18)
(0.985293 0.237961 1.3283e-17)
(1.02166 0.185123 7.68967e-18)
(1.03396 0.121881 1.25892e-17)
(1.01976 0.0471626 3.26463e-18)
(0.0919975 0.128577 -1.35385e-19)
(0.192775 0.164084 1.95626e-19)
(0.325399 0.226377 9.78008e-19)
(0.463116 0.239689 -4.38641e-18)
(0.574146 0.253016 6.16078e-18)
(0.694562 0.245191 -4.70811e-18)
(0.781444 0.235597 2.22278e-18)
(0.870123 0.210796 1.54507e-17)
(0.929939 0.18261 1.21709e-17)
(0.978604 0.142063 1.58609e-17)
(1.00561 0.0935305 1.44182e-17)
(1.00879 0.0361935 -1.92731e-17)
(0.0644246 0.0808302 -7.70927e-19)
(0.157595 0.103161 -3.5833e-18)
(0.276859 0.142323 -1.63822e-18)
(0.411721 0.150698 2.05572e-18)
(0.519898 0.159079 -3.48705e-18)
(0.641986 0.154162 1.16764e-18)
(0.730932 0.148131 -7.81421e-19)
(0.824924 0.13254 1.93102e-18)
(0.890787 0.114818 -1.09857e-18)
(0.948144 0.0893259 1.29083e-18)
(0.985554 0.0588081 1.97043e-18)
(1.00103 0.0227584 8.37282e-18)
(0.0501614 0.0275918 -6.91209e-20)
(0.139383 0.0352231 -1.76578e-19)
(0.251743 0.0485858 -2.26821e-19)
(0.385126 0.0514572 1.87943e-19)
(0.491826 0.0543127 1.80314e-18)
(0.614784 0.052643 -5.76688e-19)
(0.704792 0.0505797 1.14184e-18)
(0.801539 0.0452625 4.93789e-19)
(0.870526 0.0392077 2.20133e-18)
(0.932384 0.0305084 -1.35562e-18)
(0.975175 0.0200821 1.28674e-18)
(0.997017 0.00777722 1.25423e-18)
)
;

boundaryField
{
    out
    {
        type            fixedValue;
        value           uniform (1 0 0);
    }
    in
    {
        type            fixedValue;
        value           uniform (0 0 0);
    }
    frontAndBack
    {
        type            empty;
    }
}


// ************************************************************************* //
