/*--------------------------------*- C++ -*----------------------------------*\
| =========                 |                                                 |
| \\      /  F ield         | foam-extend: Open Source CFD                    |
|  \\    /   O peration     | Version:  3.0                                   |
|   \\  /    A nd           | Web:         http://www.extend-project.de       |
|    \\/     M anipulation  |                                                 |
\*---------------------------------------------------------------------------*/
FoamFile
{
    version     2.0;
    format      ascii;
    class       volSymmTensorField;
    location    "1.3";
    object      sigma;
}
// * * * * * * * * * * * * * * * * * * * * * * * * * * * * * * * * * * * * * //

dimensions      [0 0 0 0 0 0 0];

internalField   nonuniform List<symmTensor> 
300
(
(-1.09517e+12 2.1771e+12 -0.000958859 9.4475e+11 0.000628168 0.000361082)
(2.54547e+12 -3.1363e+11 0.00169176 -2.11453e+12 0.00529774 -0.00209286)
(-1.39112e+12 6.98276e+11 0.014992 7.58434e+11 0.0177192 -0.0128938)
(-1.34572e+12 2.86877e+11 0.0326442 -3.93576e+10 0.0296096 -0.0259199)
(3.94842e+11 -7.06793e+09 0.0334394 -1.48725e+12 0.0205091 -0.022227)
(-3.64683e+10 4.29725e+10 -0.0134901 9.45699e+10 -0.0353916 0.024452)
(5.82399e+11 4.44915e+09 -0.124945 -1.05161e+11 -0.148167 0.125588)
(1.12896e+11 4.40681e+10 -0.26215 3.77807e+10 -0.277754 0.241088)
(2.25161e+11 1.3954e+09 -0.288087 -2.65147e+10 -0.300246 0.244767)
(7.60458e+10 3.25844e+10 0.0349148 2.86495e+09 -0.00372344 -0.0739119)
(5.3816e+11 -5.62136e+11 -0.00142982 -2.10236e+11 -3.38438e-05 0.000823798)
(1.62532e+11 -7.88492e+11 -0.000243217 -3.64906e+11 0.00371772 -0.000561685)
(-5.40285e+11 5.78537e+11 0.0146342 8.12946e+10 0.0191696 -0.0134747)
(-8.83805e+11 7.5906e+11 0.0429578 2.91411e+11 0.0427895 -0.0374123)
(4.42885e+11 -1.82076e+11 0.060985 -2.7653e+11 0.0492619 -0.0500027)
(3.13477e+09 4.16354e+11 0.00417358 5.80478e+10 -0.0215546 0.0103204)
(2.30674e+11 3.04576e+10 -0.222677 -8.07005e+10 -0.25321 0.23581)
(6.01412e+10 1.77166e+11 -0.654815 1.53751e+10 -0.668974 0.66109)
(7.74452e+10 2.52627e+10 -1.01406 -2.06782e+10 -1.00039 1.00997)
(1.95855e+10 4.9101e+10 -0.183768 -4.984e+09 -0.212541 0.176145)
(1.87505e+11 -2.56351e+11 -0.00181593 -1.48654e+09 -0.000644591 0.00115776)
(5.39547e+11 -3.51333e+11 -0.00240825 -5.08112e+11 0.00141236 0.00128833)
(2.53041e+11 4.14399e+11 0.0118654 -3.82985e+11 0.0171088 -0.0111494)
(-2.17491e+11 6.4489e+11 0.0486639 -1.97952e+11 0.0502531 -0.0434021)
(2.70083e+10 5.57872e+10 0.0984091 1.84114e+11 0.0881458 -0.0880511)
(-3.90936e+09 1.06775e+11 0.106633 2.16423e+10 0.0795103 -0.0959142)
(1.05803e+11 5.83355e+10 -0.0420149 8.63792e+10 -0.076841 0.043494)
(4.13889e+10 3.36864e+10 -0.461849 1.51806e+10 -0.474515 0.447774)
(5.44345e+10 2.96855e+10 -0.968454 2.64915e+10 -0.931664 0.945)
(2.68058e+10 4.57325e+09 -0.182932 6.01935e+09 -0.209257 0.171833)
(1.04866e+11 5.50635e+10 -0.0020605 5.65185e+10 -0.00107463 0.00136349)
(3.11576e+10 2.3468e+11 -0.00441723 -4.97557e+09 -0.000685258 0.00296783)
(1.89022e+09 3.8611e+11 0.006334 -5.44617e+10 0.0123933 -0.00623218)
(-1.61491e+11 3.49006e+11 0.0398946 -1.93459e+10 0.0438147 -0.0349841)
(6.45847e+10 6.948e+10 0.0929107 -3.39053e+10 0.0858655 -0.081556)
(-6.45119e+10 1.50176e+11 0.119049 7.69264e+10 0.0937678 -0.105382)
(3.38361e+10 4.11645e+10 0.00316321 1.05722e+10 -0.0327806 0.00159729)
(-1.2605e+10 6.7714e+10 -0.392754 3.87633e+10 -0.404835 0.37825)
(1.45949e+10 1.88576e+10 -0.929434 5.28873e+09 -0.878598 0.899793)
(-3.47568e+09 1.98437e+10 -0.171978 8.63076e+09 -0.194809 0.157817)
(9.03106e+09 -3.62117e+10 -0.00210944 1.83131e+11 -0.00132066 0.00140504)
(7.90771e+10 1.21836e+11 -0.00553775 4.11017e+10 -0.00199303 0.00380139)
(7.27819e+10 2.33179e+11 0.00234161 -9.7433e+09 0.00884736 -0.00295413)
(-2.78729e+10 2.76161e+11 0.0317132 -5.12784e+10 0.0371642 -0.0275854)
(1.08777e+10 5.64345e+10 0.0822132 7.57263e+10 0.077078 -0.0704909)
(-9.3884e+09 5.97735e+10 0.112309 2.06152e+10 0.0869564 -0.0955372)
(2.0902e+10 2.86947e+10 0.00875892 5.12385e+10 -0.0312215 0.00196485)
(7.41703e+09 1.86315e+10 -0.375119 1.58195e+10 -0.391411 0.365816)
(1.29314e+10 1.35247e+10 -0.918341 1.99259e+10 -0.860905 0.887325)
(8.58694e+09 3.58363e+09 -0.168807 5.46432e+09 -0.188323 0.153199)
(-6.87572e+09 1.90988e+10 -0.00202338 9.05734e+10 -0.00143564 0.00133975)
(-7.80732e+10 1.44111e+11 -0.00593392 1.37066e+11 -0.00263889 0.00397792)
(-6.00936e+10 1.77837e+11 0.000193381 9.01725e+10 0.00689575 -0.00152651)
(-7.82498e+10 1.62473e+11 0.0267259 3.80473e+10 0.0331967 -0.0236714)
(-5.34032e+08 6.22284e+10 0.0750427 1.76203e+10 0.0711093 -0.0636539)
(-4.92129e+10 5.68211e+10 0.106494 5.2601e+10 0.0803193 -0.0874215)
(-1.76019e+09 2.3335e+10 0.0089418 1.79761e+10 -0.0359435 0.00771555)
(-1.87598e+10 2.27833e+10 -0.369381 2.77205e+10 -0.391523 0.366597)
(-2.52495e+08 8.92811e+09 -0.916662 8.01877e+09 -0.855759 0.885641)
(-5.31495e+09 6.46722e+09 -0.168602 7.41098e+09 -0.184739 0.152388)
(-1.06088e+10 -4.06458e+10 -0.00187546 1.17017e+11 -0.00148032 0.00123418)
(-8.86355e+09 5.57209e+10 -0.00594529 1.08394e+11 -0.0029148 0.00383557)
(-1.12308e+09 8.82826e+10 -0.000831716 7.76192e+10 0.00597114 -0.00118052)
(-2.07008e+10 1.12198e+11 0.023986 2.84548e+10 0.0313194 -0.0221466)
(8.68592e+09 3.25188e+10 0.0711127 4.11245e+10 0.0683548 -0.0605441)
(-6.6694e+09 2.97619e+10 0.103843 2.06928e+10 0.0772508 -0.0832302)
(6.30018e+09 1.33648e+10 0.0105036 2.60781e+10 -0.0384267 0.011503)
(8.02035e+08 9.22746e+09 -0.36488 1.15271e+10 -0.392347 0.368639)
(3.54847e+09 5.62745e+09 -0.916953 1.11881e+10 -0.853537 0.886156)
(2.94257e+09 2.14423e+09 -0.168858 3.61012e+09 -0.181149 0.152466)
(-2.14237e+10 -6.05161e+09 -0.00171766 6.26182e+10 -0.00150004 0.00113185)
(-7.33837e+10 4.20349e+10 -0.00581526 1.17684e+11 -0.00305584 0.00361681)
(-6.27832e+10 5.6417e+10 -0.00136941 9.46912e+10 0.00547095 -0.00124863)
(-5.79812e+10 5.87723e+10 0.0222976 5.56187e+10 0.0304246 -0.0217076)
(-1.61905e+10 2.84014e+10 0.0687872 2.8167e+10 0.0673713 -0.0593399)
(-3.01757e+10 1.7744e+10 0.102924 3.30495e+10 0.0767018 -0.0813851)
(-7.62559e+09 9.52901e+09 0.0132302 1.46444e+10 -0.0382171 0.0134164)
(-1.22483e+10 5.87903e+09 -0.360137 1.579e+10 -0.391511 0.370003)
(-2.84991e+09 3.16793e+09 -0.917459 6.04834e+09 -0.851754 0.886793)
(-3.41953e+09 1.40427e+09 -0.168917 4.23389e+09 -0.176777 0.15263)
(-3.26186e+09 -3.56703e+10 -0.00157294 6.0402e+10 -0.00151791 0.00105152)
(-1.26242e+10 5.70395e+09 -0.00566864 7.7437e+10 -0.00319734 0.00344407)
(-9.39652e+09 2.0203e+10 -0.00177327 6.38616e+10 0.00500791 -0.00135192)
(-1.59155e+10 3.73996e+10 0.0209372 3.81248e+10 0.0297181 -0.0215466)
(3.66612e+09 1.374e+10 0.0669249 2.67584e+10 0.0669295 -0.0587624)
(-3.73741e+09 1.19205e+10 0.102359 1.63765e+10 0.077266 -0.0804087)
(2.4055e+09 5.65458e+09 0.0159322 1.41871e+10 -0.0363759 0.0145685)
(-6.63926e+07 3.91423e+09 -0.355743 7.57632e+09 -0.389334 0.371033)
(1.19855e+09 2.24684e+09 -0.918164 6.09368e+09 -0.850264 0.887458)
(1.06272e+09 1.08522e+09 -0.168743 2.25747e+09 -0.171663 0.152794)
(-1.36152e+10 -1.29976e+10 -0.0014463 3.33127e+10 -0.00154067 0.000995804)
(-4.33019e+10 -2.69311e+09 -0.00554821 6.99738e+10 -0.00339655 0.00336125)
(-4.06208e+10 4.8699e+09 -0.00219566 6.13142e+10 0.00438371 -0.001314)
(-3.65586e+10 1.10432e+10 0.0195664 4.12695e+10 0.0287619 -0.0212568)
(-1.49382e+10 6.59888e+09 0.0649468 2.22997e+10 0.0662967 -0.0581298)
(-1.66359e+10 1.79106e+09 0.101348 1.88992e+10 0.0779899 -0.0794407)
(-6.30052e+09 1.74605e+09 0.0177156 9.56382e+09 -0.0338541 0.0157585)
(-6.56122e+09 -4.59017e+07 -0.352461 8.09306e+09 -0.386538 0.372287)
(-2.30663e+09 3.65684e+08 -0.919446 3.63083e+09 -0.849516 0.888505)
(-1.74959e+09 -1.88945e+08 -0.168523 2.00996e+09 -0.166147 0.153094)
(4.23537e+09 -2.48737e+10 -0.00133356 2.62617e+10 -0.00156432 0.000959355)
(-2.78364e+09 -1.01302e+10 -0.00545826 4.12966e+10 -0.00366644 0.00337335)
(-2.98112e+09 -2.38142e+09 -0.00269874 3.64068e+10 0.00350896 -0.00105381)
(-7.94346e+09 8.15164e+09 0.018036 2.63797e+10 0.0273402 -0.0206362)
(1.52693e+09 3.79606e+09 0.0626091 1.66867e+10 0.0651038 -0.0571234)
(-1.61562e+09 3.5361e+09 0.099558 1.08612e+10 0.0783851 -0.0781252)
(1.04334e+09 1.89457e+09 0.0182247 8.04255e+09 -0.0311265 0.017223)
(-2.63986e+07 1.33238e+09 -0.350548 4.69372e+09 -0.383468 0.373812)
(4.85015e+08 7.83832e+08 -0.921427 3.37225e+09 -0.849847 0.890027)
(3.98206e+08 4.74016e+08 -0.168667 1.38195e+09 -0.160912 0.153789)
(-5.54036e+09 -1.11928e+10 -0.00122787 1.4745e+10 -0.00157949 0.000933455)
(-1.96313e+10 -1.40516e+10 -0.00538806 3.42257e+10 -0.00399351 0.00346748)
(-2.00748e+10 -1.05452e+10 -0.00332528 3.15914e+10 0.00234082 -0.000519366)
(-1.84951e+10 -5.35275e+09 0.0162424 2.27018e+10 0.0253354 -0.0195519)
(-9.00015e+09 -2.56264e+09 0.0598505 1.30706e+10 0.0632198 -0.055639)
(-7.98992e+09 -3.29283e+09 0.097131 9.45494e+09 0.0784438 -0.0766094)
(-3.64259e+09 -1.37541e+09 0.0180324 5.18127e+09 -0.0278079 0.0182449)
(-3.02353e+09 -1.60761e+09 -0.348707 3.70935e+09 -0.379058 0.374095)
(-1.28158e+09 -6.24383e+08 -0.922483 1.81822e+09 -0.850114 0.890383)
(-7.5468e+08 -4.99266e+08 -0.169827 7.99215e+08 -0.157275 0.155172)
(7.00184e+09 -1.4573e+10 -0.00112078 9.25805e+09 -0.00157271 0.000907613)
(3.516e+09 -1.03193e+10 -0.00531757 1.83783e+10 -0.00434645 0.00361687)
(1.94357e+09 -6.21338e+09 -0.00412685 1.73091e+10 0.000847424 0.000338123)
(-2.12498e+09 -7.70463e+08 0.0140355 1.44072e+10 0.022635 -0.0178531)
(1.20925e+09 -8.03972e+07 0.0567042 9.41337e+09 0.0606777 -0.0537088)
(-3.20032e+08 3.43953e+08 0.0948907 6.38288e+09 0.0788229 -0.0757447)
(5.90929e+08 2.82505e+08 0.019497 4.51947e+09 -0.0218838 0.0163166)
(8.4206e+07 2.42705e+08 -0.342068 2.77538e+09 -0.368818 0.368017)
(2.36077e+08 1.67878e+08 -0.915299 1.88688e+09 -0.843634 0.882379)
(1.54104e+08 1.64349e+08 -0.170907 8.33913e+08 -0.155618 0.156046)
(-1.13273e+09 -7.28981e+09 -0.00100303 5.31989e+09 -0.00152791 0.000869602)
(-6.36127e+09 -1.26238e+10 -0.00520987 1.39157e+10 -0.00467009 0.00377388)
(-7.32116e+09 -1.13503e+10 -0.00515211 1.32539e+10 -0.00099199 0.00155513)
(-7.14902e+09 -7.88638e+09 0.0111366 9.76639e+09 0.0190333 -0.0152884)
(-3.83004e+09 -4.5404e+09 0.053099 5.91523e+09 0.0575022 -0.0513091)
(-3.0293e+09 -3.75274e+09 0.0945074 3.857e+09 0.0810368 -0.0772238)
(-1.51876e+09 -1.95608e+09 0.0279766 2.23453e+09 -0.00868254 0.00605859)
(-1.09606e+09 -1.56709e+09 -0.319843 1.40311e+09 -0.342619 0.344563)
(-5.10516e+08 -7.40923e+08 -0.880583 7.20141e+08 -0.81068 0.846874)
(-2.51703e+08 -4.1471e+08 -0.151943 2.28084e+08 -0.135956 0.139893)
(6.49496e+09 -7.27885e+09 -0.000864941 2.17812e+09 -0.00142681 0.000805742)
(5.21714e+09 -6.47358e+09 -0.00500087 6.93211e+09 -0.00487447 0.00385914)
(3.5063e+09 -4.55188e+09 -0.00638771 7.23541e+09 -0.00314099 0.00310179)
(6.19555e+08 -2.18264e+09 0.00708379 6.86043e+09 0.0141312 -0.0114388)
(1.23194e+09 -9.75866e+08 0.0482519 4.83357e+09 0.0531246 -0.0477563)
(3.09336e+08 -5.21818e+08 0.0977215 3.42394e+09 0.0869113 -0.0827736)
(4.57169e+08 -2.48811e+08 0.0528498 2.43617e+09 0.0200368 -0.0213646)
(1.57708e+08 -1.3325e+08 -0.264674 1.55858e+09 -0.285475 0.28702)
(1.52232e+08 -6.16982e+07 -0.795408 1.03955e+09 -0.726224 0.759177)
(6.87565e+07 2.27023e+07 -0.0217657 4.89505e+08 0.0126316 0.0181891)
(5.19927e+08 -4.02032e+09 -0.000698562 1.31553e+09 -0.00125366 0.000703415)
(-4.6832e+08 -8.25771e+09 -0.00459592 4.22216e+09 -0.00482909 0.00375972)
(-1.11912e+09 -7.96778e+09 -0.00763706 4.01737e+09 -0.00538239 0.00476727)
(-1.51305e+09 -5.9151e+09 0.00139991 2.91167e+09 0.00741877 -0.00585449)
(-8.09063e+08 -3.65205e+09 0.0395805 1.80407e+09 0.045156 -0.0406234)
(-5.9624e+08 -2.71002e+09 0.102302 1.01124e+09 0.0950068 -0.0902922)
(-2.96546e+08 -1.52589e+09 0.105739 6.13783e+08 0.0755601 -0.0760357)
(-1.82678e+08 -1.07989e+09 -0.144196 3.12321e+08 -0.172556 0.169871)
(-8.52323e+07 -5.47346e+08 -0.710856 1.59543e+08 -0.661152 0.681659)
(-3.28561e+07 -2.58494e+08 -0.315166 -3.76379e+06 -0.288245 0.312826)
(4.74717e+09 -3.01107e+09 -0.000503832 -1.14484e+08 -0.00100445 0.00055749)
(4.45882e+09 -3.07108e+09 -0.00389863 2.18786e+09 -0.00438987 0.00335789)
(3.13338e+09 -2.37146e+09 -0.00838095 2.75606e+09 -0.00714104 0.00602456)
(1.34787e+09 -1.56191e+09 -0.00557531 3.00059e+09 -0.000933718 0.00116718)
(1.0893e+09 -8.15567e+08 0.0227384 2.31792e+09 0.0288872 -0.0257242)
(4.91385e+08 -5.40021e+08 0.0918076 1.71687e+09 0.089977 -0.0845293)
(3.84733e+08 -3.12182e+08 0.174852 1.2474e+09 0.151181 -0.148358)
(1.81757e+08 -1.99878e+08 0.156522 8.26819e+08 0.11349 -0.118875)
(1.22112e+08 -1.1454e+08 -0.0890648 5.50484e+08 -0.104307 0.0989976)
(4.27547e+07 -2.93952e+07 -0.0469255 2.7432e+08 -0.0452165 0.0504784)
(8.16604e+08 -1.94654e+09 -0.000296526 -5.50179e+07 -0.000700389 0.000379656)
(1.42309e+09 -4.49566e+09 -0.0028888 3.74819e+08 -0.00349095 0.00261015)
(1.133e+09 -4.51462e+09 -0.00785468 2.16316e+08 -0.00749575 0.0061)
(6.18981e+08 -3.4153e+09 -0.01112 5.17485e+07 -0.00824214 0.00710297)
(4.52906e+08 -2.19835e+09 -0.00132375 -1.77202e+07 0.00404048 -0.00357455)
(3.28531e+08 -1.54531e+09 0.0348926 -1.48931e+08 0.0382525 -0.0354959)
(2.12812e+08 -9.07271e+08 0.0920018 -8.72332e+07 0.084806 -0.0815674)
(1.54469e+08 -6.01033e+08 0.116793 -1.09339e+08 0.0961646 -0.0966006)
(8.51967e+07 -3.14486e+08 0.0322296 -6.66675e+07 0.0178439 -0.021591)
(3.97968e+07 -1.30878e+08 0.00939115 -7.2449e+07 0.00613091 -0.00545005)
(2.98103e+09 -8.9769e+08 -0.000110507 -4.99964e+08 -0.000393813 0.000202826)
(3.00831e+09 -1.06093e+09 -0.00171944 5.97905e+08 -0.00228189 0.00164573)
(2.16136e+09 -9.46711e+08 -0.00575441 1.03606e+09 -0.00593214 0.00463563)
(1.18345e+09 -8.00844e+08 -0.010736 1.2772e+09 -0.00940127 0.00771477)
(8.10684e+08 -4.7604e+08 -0.0107857 1.07987e+09 -0.00735823 0.00612159)
(4.43208e+08 -3.57485e+08 0.00253376 8.27812e+08 0.0063778 -0.00626393)
(3.01049e+08 -2.29355e+08 0.0299382 6.12462e+08 0.0299084 -0.028655)
(1.65053e+08 -1.59114e+08 0.0497245 4.16267e+08 0.043023 -0.0426337)
(1.00591e+08 -9.8098e+07 0.0260752 2.77763e+08 0.0194215 -0.0210195)
(3.43186e+07 -3.83055e+07 0.00929306 1.45313e+08 0.00703299 -0.00722379)
(6.43877e+08 -8.30474e+08 1.85523e-05 -3.53953e+08 -0.000146342 6.71569e-05)
(1.56755e+09 -2.07809e+09 -0.000680321 -7.38436e+08 -0.00112475 0.000739585)
(1.4891e+09 -2.13135e+09 -0.00318128 -8.94112e+08 -0.00359545 0.00257417)
(1.04804e+09 -1.60814e+09 -0.00709943 -7.60996e+08 -0.00677503 0.00513924)
(7.22083e+08 -1.05704e+09 -0.00968508 -5.56197e+08 -0.00801861 0.00621977)
(5.05222e+08 -7.12767e+08 -0.00625921 -4.45738e+08 -0.00368157 0.00243978)
(3.15594e+08 -4.27359e+08 0.00492628 -2.78218e+08 0.00652739 -0.00689681)
(2.10084e+08 -2.69395e+08 0.0156606 -2.03401e+08 0.0145171 -0.0147956)
(1.14735e+08 -1.41986e+08 0.0110515 -1.17927e+08 0.00896219 -0.0100082)
(4.72236e+07 -5.10531e+07 0.00407577 -7.23085e+07 0.00314442 -0.00351813)
(1.66147e+09 -3.67942e+07 8.32763e-05 -3.25958e+08 1.77583e-05 -9.86472e-06)
(1.73423e+09 -1.56355e+08 9.51543e-05 2.15256e+08 -0.000230015 4.4759e-05)
(1.27017e+09 -2.59164e+08 -0.000933364 4.57389e+08 -0.00145556 0.00066576)
(7.95829e+08 -3.29469e+08 -0.00299401 5.74278e+08 -0.0033048 0.00184897)
(5.26546e+08 -2.30761e+08 -0.0049575 5.13463e+08 -0.00457951 0.0027295)
(3.21303e+08 -1.9671e+08 -0.00450192 3.96714e+08 -0.00337379 0.0016857)
(2.12745e+08 -1.37427e+08 -0.000317459 2.9439e+08 0.000892223 -0.00195203)
(1.28179e+08 -1.01605e+08 0.00466639 2.01536e+08 0.0050678 -0.00574797)
(7.73521e+07 -6.59054e+07 0.00449503 1.3409e+08 0.00431053 -0.00528555)
(2.85883e+07 -3.09508e+07 0.00157515 7.26111e+07 0.00141462 -0.00198023)
(4.02911e+08 -3.00566e+08 0.000100961 -3.06626e+08 0.000114114 -3.43224e-05)
(1.15858e+09 -7.74074e+08 0.000651389 -7.90138e+08 0.000411317 -0.000442786)
(1.16162e+09 -7.93243e+08 0.000867329 -9.16575e+08 0.000238278 -0.000924408)
(8.48036e+08 -5.84413e+08 0.000583733 -7.44123e+08 -0.000208164 -0.00119162)
(5.8668e+08 -3.81064e+08 4.68521e-05 -5.40043e+08 -0.00050443 -0.00124828)
(3.9988e+08 -2.4302e+08 0.000181121 -3.94029e+08 0.000165824 -0.00157738)
(2.51103e+08 -1.4489e+08 0.00165861 -2.5041e+08 0.00214117 -0.00243133)
(1.60885e+08 -8.53365e+07 0.00358621 -1.69257e+08 0.00428093 -0.00330717)
(8.79732e+07 -4.33634e+07 0.00371938 -9.79267e+07 0.00445803 -0.00353189)
(3.30127e+07 -1.06152e+07 0.00136297 -5.09915e+07 0.00182274 -0.00255817)
(8.31171e+08 2.12792e+08 9.56916e-05 -1.0454e+08 0.000175164 -2.0729e-05)
(8.79935e+08 1.31702e+08 0.00110498 1.76915e+08 0.000918096 -0.000793545)
(6.62972e+08 -1.07157e+07 0.00247353 2.71025e+08 0.00168214 -0.0023747)
(4.63123e+08 -1.1133e+08 0.00379121 2.93609e+08 0.00251654 -0.00407419)
(3.10395e+08 -1.01522e+08 0.00458314 2.59116e+08 0.00329425 -0.00487462)
(2.06461e+08 -9.87934e+07 0.00481087 1.94347e+08 0.00405182 -0.00409956)
(1.38286e+08 -7.42591e+07 0.00458294 1.41484e+08 0.00467995 -0.00134159)
(8.95222e+07 -5.75464e+07 0.00402659 9.52642e+07 0.00499986 0.00295848)
(5.49468e+07 -3.87754e+07 0.00352887 6.24607e+07 0.00513884 0.00488089)
(2.25057e+07 -2.0566e+07 0.0024676 3.41923e+07 0.00381322 -0.00323575)
(2.21043e+08 -7.51101e+07 8.55638e-05 -1.93131e+08 0.000231006 2.01515e-05)
(7.08314e+08 -1.70642e+08 0.00155942 -5.45189e+08 0.00141831 -0.00106382)
(7.25376e+08 -1.63368e+08 0.00422451 -6.30766e+08 0.0032077 -0.00394181)
(5.29243e+08 -1.07628e+08 0.00720086 -5.01907e+08 0.00534037 -0.00735241)
(3.66664e+08 -5.97131e+07 0.00886243 -3.65616e+08 0.00688383 -0.00834645)
(2.43272e+08 -2.86858e+07 0.00793235 -2.56209e+08 0.00687931 -0.00381946)
(1.53151e+08 -1.33529e+07 0.00386342 -1.6444e+08 0.00434956 0.00796481)
(9.49487e+07 -3.57396e+06 -0.00231433 -1.06984e+08 -0.000600825 0.0259116)
(5.15058e+07 714731 -0.0056309 -6.18605e+07 -0.003571 0.0401886)
(1.71388e+07 5.05452e+06 0.00251359 -2.94587e+07 0.00420641 0.0128975)
(3.73506e+08 2.22003e+08 7.81346e-05 3.12565e+07 0.000300578 8.55179e-05)
(3.99287e+08 1.60926e+08 0.00206438 1.84046e+08 0.00199916 -0.00125636)
(3.18056e+08 4.42289e+07 0.00639943 1.93509e+08 0.00512555 -0.00579535)
(2.4869e+08 -3.05232e+07 0.0114872 1.70841e+08 0.0088651 -0.0117815)
(1.7347e+08 -4.42311e+07 0.0133602 1.3943e+08 0.0105611 -0.0127393)
(1.24557e+08 -4.79191e+07 0.00783672 9.8377e+07 0.00699578 0.000742007)
(8.53581e+07 -3.81221e+07 -0.00702356 6.87335e+07 -0.00459361 0.0344238)
(5.8458e+07 -3.01579e+07 -0.0287221 4.44243e+07 -0.0247772 0.0826497)
(3.66969e+07 -2.08517e+07 -0.0450214 2.82353e+07 -0.0441104 0.127326)
(1.65495e+07 -1.20405e+07 -0.0168094 1.50924e+07 -0.020045 0.134453)
(1.11718e+08 1.14696e+07 7.14569e-05 -9.78147e+07 0.00038976 0.000177874)
(3.77128e+08 6.23258e+07 0.00260323 -2.90739e+08 0.00268919 -0.00131696)
(3.86376e+08 7.61145e+07 0.00913532 -3.43194e+08 0.00765227 -0.00788721)
(2.76284e+08 6.74861e+07 0.0173784 -2.69638e+08 0.0137869 -0.0181044)
(1.89349e+08 5.68851e+07 0.0191505 -1.97769e+08 0.015055 -0.0208387)
(1.2125e+08 4.43116e+07 0.0029282 -1.3517e+08 0.00244265 0.00721102)
(7.57121e+07 3.10811e+07 -0.0378238 -8.73089e+07 -0.0308692 0.0880612)
(4.49763e+07 2.20303e+07 -0.0945179 -5.53352e+07 -0.0829202 0.198791)
(2.36903e+07 1.40013e+07 -0.142269 -3.19301e+07 -0.139881 0.203929)
(6.16434e+06 8.23083e+06 -0.143386 -1.42566e+07 -0.164161 -0.160554)
(1.50819e+08 1.71873e+08 5.91825e-05 8.47392e+07 0.000493206 0.000297077)
(1.70026e+08 1.23853e+08 0.0031015 1.7106e+08 0.00345634 -0.00116962)
(1.51657e+08 4.54988e+07 0.0123283 1.43868e+08 0.0108255 -0.00983528)
(1.34669e+08 -727827 0.0254973 1.0785e+08 0.0208355 -0.026308)
(9.91968e+07 -1.7059e+07 0.0288688 7.89317e+07 0.0224865 -0.0371325)
(7.55243e+07 -2.10406e+07 -0.00440701 5.16059e+07 -0.00619042 0.000315588)
(5.26859e+07 -1.79474e+07 -0.0983404 3.39685e+07 -0.0861399 0.159807)
(3.73174e+07 -1.43008e+07 -0.225974 2.06472e+07 -0.19739 0.487305)
(2.37506e+07 -1.01855e+07 -0.23757 1.24256e+07 -0.213663 0.786119)
(1.14844e+07 -6.30229e+06 0.150125 6.18859e+06 0.126289 0.101091)
(5.74366e+07 4.11037e+07 3.97227e-05 -3.8032e+07 0.000599648 0.000429856)
(1.82626e+08 1.29404e+08 0.00346731 -1.04354e+08 0.00422679 -0.000800065)
(1.8177e+08 1.40556e+08 0.015533 -1.3367e+08 0.0143839 -0.0110109)
(1.2679e+08 1.11263e+08 0.0355965 -1.03618e+08 0.0301909 -0.0342148)
(8.42885e+07 8.27123e+07 0.0463898 -7.78078e+07 0.0367205 -0.0614479)
(5.14114e+07 5.72582e+07 0.000362002 -5.22989e+07 -0.00739535 -0.0495068)
(3.11837e+07 3.76409e+07 -0.178174 -3.43147e+07 -0.170543 0.0951447)
(1.71511e+07 2.40921e+07 -0.528115 -2.13206e+07 -0.492973 0.469953)
(8.209e+06 1.4119e+07 -0.834454 -1.236e+07 -0.784971 0.911508)
(487143 6.64997e+06 -0.116377 -5.11352e+06 -0.129609 0.157037)
(5.40884e+07 1.32355e+08 2.79672e-05 8.74213e+07 0.000701324 0.000545025)
(9.2669e+07 1.02971e+08 0.00367815 1.34459e+08 0.00494459 -0.000353318)
(9.26814e+07 6.07018e+07 0.0180799 1.08921e+08 0.0177864 -0.0111968)
(9.58955e+07 3.28738e+07 0.0452429 7.09109e+07 0.04019 -0.0380688)
(7.38911e+07 1.25857e+07 0.0702283 4.77315e+07 0.0581814 -0.0747498)
(5.80368e+07 4.4287e+06 0.0421197 2.8396e+07 0.0257387 -0.0784339)
(4.03105e+07 -51873.7 -0.134252 1.76714e+07 -0.144423 0.0527567)
(2.83562e+07 -1.53507e+06 -0.540847 9.84994e+06 -0.530501 0.439815)
(1.75705e+07 -2.3171e+06 -0.984487 5.39754e+06 -0.952264 0.940185)
(8.39978e+06 -2.97414e+06 -0.182957 2.15615e+06 -0.202076 0.170855)
(4.20427e+07 4.56334e+07 5.59905e-05 -2.34211e+07 0.000736082 0.000607441)
(1.29358e+08 2.05694e+08 0.00384666 -2.14039e+07 0.00533407 -0.000103535)
(1.17662e+08 2.42675e+08 0.019687 -1.79028e+07 0.019998 -0.0114266)
(9.73072e+07 1.89889e+08 0.0506187 -1.17507e+07 0.046599 -0.0406238)
(6.77693e+07 1.40792e+08 0.0810196 -7.31495e+06 0.0701897 -0.0814827)
(4.72266e+07 9.40254e+07 0.0542605 -4.03229e+06 0.0381173 -0.0862638)
(3.05319e+07 6.13483e+07 -0.136878 -2.09057e+06 -0.15123 0.0594304)
(1.92687e+07 3.75066e+07 -0.585674 -988623 -0.590193 0.489433)
(1.05199e+07 2.0655e+07 -1.08497 -353943 -1.07836 1.04564)
(3.15404e+06 8.15552e+06 -0.243715 -109269 -0.263947 0.256388)
)
;

boundaryField
{
    frontAndBack
    {
        type            empty;
    }
    symm
    {
        type            symmetryPlane;
    }
    in
    {
        type            mySigma;
    }
    out
    {
        type            mySigma;
    }
}


// ************************************************************************* //
