/*--------------------------------*- C++ -*----------------------------------*\
| =========                 |                                                 |
| \\      /  F ield         | foam-extend: Open Source CFD                    |
|  \\    /   O peration     | Version:  3.0                                   |
|   \\  /    A nd           | Web:         http://www.extend-project.de       |
|    \\/     M anipulation  |                                                 |
\*---------------------------------------------------------------------------*/
FoamFile
{
    version     2.0;
    format      ascii;
    class       volVectorField;
    location    "30";
    object      u;
}
// * * * * * * * * * * * * * * * * * * * * * * * * * * * * * * * * * * * * * //

dimensions      [0 0 0 0 0 0 0];

internalField   nonuniform List<vector> 
480
(
(0.282497 -0.102594 3.5941e-19)
(0.543662 -0.0690966 1.76913e-18)
(0.723098 -0.048489 -3.59536e-18)
(0.817262 -0.0345239 3.98418e-18)
(0.897388 -0.0249919 2.55703e-18)
(0.932712 -0.018156 -2.12037e-18)
(0.973966 -0.0126519 -1.29156e-17)
(0.981983 -0.00865565 9.94535e-18)
(1.00446 -0.00450529 -8.10549e-18)
(0.995457 -0.00141805 -8.43091e-18)
(0.335504 -0.300297 1.95033e-18)
(0.579316 -0.202008 2.58196e-18)
(0.748058 -0.14147 -1.9017e-17)
(0.83497 -0.100398 -1.63743e-17)
(0.910134 -0.0723161 1.39719e-17)
(0.941893 -0.0521329 3.95299e-18)
(0.980267 -0.0358503 6.46418e-18)
(0.986188 -0.0239857 -2.04195e-17)
(1.00649 -0.0116821 2.78265e-17)
(0.995758 -0.00197007 4.84242e-18)
(0.437877 -0.477546 -2.11382e-18)
(0.648154 -0.321169 2.86525e-18)
(0.796237 -0.224828 1.22223e-17)
(0.869125 -0.159451 1.13969e-17)
(0.934698 -0.114737 2.30001e-17)
(0.959557 -0.0825857 -7.04525e-18)
(0.992364 -0.0566368 3.13587e-18)
(0.99422 -0.0377168 1.01289e-18)
(1.01031 -0.0181015 2.86683e-17)
(0.996195 -0.00244378 -5.22107e-17)
(0.582636 -0.622265 1.15403e-18)
(0.745491 -0.418456 3.448e-17)
(0.86435 -0.292883 1.23522e-17)
(0.917405 -0.207659 -6.3826e-18)
(0.969407 -0.149363 -8.03478e-18)
(0.984507 -0.107437 -1.53258e-18)
(1.00943 -0.0735955 -3.55948e-19)
(1.00554 -0.0489114 -8.9618e-18)
(1.01567 -0.0233256 -4.0865e-17)
(0.99675 -0.00280356 6.50436e-17)
(0.759923 -0.724588 -8.25721e-18)
(0.864693 -0.487241 6.72365e-18)
(0.947761 -0.340994 1.18925e-17)
(0.97652 -0.241735 1.30476e-17)
(1.0119 -0.173832 -1.72696e-17)
(1.01504 -0.124994 -3.51966e-18)
(1.03031 -0.085567 -1.23783e-17)
(1.01938 -0.0568059 -1.5376e-17)
(1.02221 -0.0269949 4.77114e-17)
(0.997389 -0.00302313 -6.84592e-17)
(0.957653 -0.777543 1.11714e-17)
(0.99764 -0.522833 -1.75033e-17)
(1.04078 -0.365883 -2.00495e-17)
(1.04245 -0.259355 -2.05251e-17)
(1.05929 -0.186477 -4.02893e-18)
(1.04909 -0.134056 -5.60154e-18)
(1.05359 -0.0917356 5.53176e-17)
(1.0348 -0.0608583 -2.73054e-17)
(1.02948 -0.0288587 3.34865e-17)
(0.998075 -0.00308217 -1.01886e-17)
(1.16236 -0.777518 1.12599e-17)
(1.13527 -0.522807 -1.18961e-17)
(1.13709 -0.365851 -2.2182e-17)
(1.11069 -0.259318 -2.90446e-17)
(1.10834 -0.186432 -1.84512e-19)
(1.08433 -0.134004 1.33292e-17)
(1.07768 -0.0916755 1.21644e-17)
(1.05075 -0.0607914 6.02777e-19)
(1.03699 -0.0287843 2.95494e-17)
(0.998766 -0.00297442 -2.92425e-18)
(1.36008 -0.724518 -5.09309e-18)
(1.26821 -0.487162 -8.91262e-19)
(1.2301 -0.3409 5.35211e-18)
(1.17661 -0.241622 7.8967e-18)
(1.15571 -0.1737 1.25569e-17)
(1.11837 -0.124838 3.32908e-18)
(1.10094 -0.0853908 -6.57836e-18)
(1.06615 -0.0566041 6.77216e-18)
(1.04425 -0.0267759 -2.8391e-17)
(0.999421 -0.00270001 4.80039e-17)
(1.53735 -0.622148 1.82513e-18)
(1.3874 -0.418327 9.30242e-18)
(1.3135 -0.292727 1.4125e-17)
(1.23571 -0.207473 6.38885e-18)
(1.19818 -0.149142 -1.01947e-17)
(1.14888 -0.107182 6.89935e-19)
(1.1218 -0.073303 -4.05774e-19)
(1.07995 -0.0485807 3.47066e-18)
(1.05075 -0.0229632 -3.10227e-18)
(0.999997 -0.002275 1.07255e-17)
(1.68209 -0.477388 1.62501e-18)
(1.48472 -0.32099 2.50139e-19)
(1.38159 -0.224614 1.10411e-17)
(1.28396 -0.159192 8.16962e-18)
(1.23286 -0.114434 5.76309e-18)
(1.17379 -0.0822316 -5.79086e-18)
(1.13882 -0.0562354 1.03206e-18)
(1.09122 -0.0372609 -2.12341e-18)
(1.05605 -0.0176049 -1.26413e-17)
(1.00046 -0.00171961 2.67523e-18)
(1.78443 -0.300098 9.64512e-19)
(1.55353 -0.201784 -7.33858e-19)
(1.42973 -0.141198 3.14036e-18)
(1.31808 -0.100072 3.11916e-19)
(1.25738 -0.071932 5.71178e-20)
(1.1914 -0.051688 2.41689e-18)
(1.15086 -0.0353436 2.86709e-18)
(1.09918 -0.0234149 1.59518e-18)
(1.0598 -0.0110578 -5.70497e-18)
(1.00078 -0.00106853 3.0218e-18)
(1.83741 -0.102363 6.0849e-19)
(1.58915 -0.068829 -8.18987e-19)
(1.45466 -0.0481648 2.33267e-18)
(1.33574 -0.0341331 1.1524e-18)
(1.27008 -0.0245346 -6.58903e-19)
(1.20052 -0.0176252 1.37872e-18)
(1.15709 -0.0120509 1.57685e-18)
(1.10331 -0.0079785 1.13556e-18)
(1.06173 -0.00376695 -4.01253e-18)
(1.00095 -0.000356103 5.62748e-19)
(1.83741 0.10235 2.31174e-19)
(1.58915 0.068814 -1.14561e-18)
(1.45466 0.0481519 2.51513e-18)
(1.33575 0.034129 1.79063e-18)
(1.27008 0.0245361 -1.68317e-18)
(1.20053 0.0176358 1.33246e-19)
(1.15709 0.0120636 7.50806e-19)
(1.10331 0.00799769 6.99924e-19)
(1.06173 0.00377993 -4.0256e-18)
(1.00094 0.000372914 6.14032e-19)
(1.78442 0.300084 -2.30473e-20)
(1.55353 0.20177 -2.01293e-18)
(1.42974 0.141186 2.81154e-18)
(1.31809 0.100069 3.46892e-18)
(1.25739 0.0719348 -4.17699e-18)
(1.19141 0.0516991 -8.55806e-19)
(1.15087 0.0353566 -2.125e-18)
(1.09918 0.023433 4.2914e-18)
(1.05979 0.0110698 -8.23949e-18)
(1.00076 0.00107971 1.95646e-18)
(1.68207 0.477372 1.17092e-18)
(1.48471 0.320977 -3.41169e-18)
(1.38159 0.224605 -6.64492e-18)
(1.28397 0.159192 -3.25545e-18)
(1.23288 0.114439 -5.5649e-18)
(1.1738 0.0822439 3.02298e-18)
(1.13883 0.056249 -8.95456e-19)
(1.09122 0.0372771 -5.62016e-19)
(1.05605 0.017615 -5.24924e-18)
(1.00042 0.00172044 1.6703e-17)
(1.53733 0.622129 7.89324e-19)
(1.3874 0.418315 -1.5306e-17)
(1.31351 0.292721 -5.68325e-18)
(1.23572 0.207476 5.08468e-18)
(1.1982 0.149151 8.27265e-18)
(1.14889 0.107195 7.37919e-19)
(1.12181 0.0733171 -1.24629e-18)
(1.07995 0.0485942 4.79997e-18)
(1.05074 0.0229708 1.81305e-17)
(0.999948 0.00226243 -2.82914e-17)
(1.36005 0.724496 6.18193e-18)
(1.26821 0.487151 2.27674e-18)
(1.23011 0.340899 -4.13795e-18)
(1.17662 0.241629 -5.70259e-18)
(1.15573 0.173712 1.14664e-17)
(1.11838 0.124853 1.58244e-19)
(1.10096 0.0854055 -4.92653e-19)
(1.06615 0.0566146 8.32352e-18)
(1.04425 0.0267808 -3.74822e-17)
(0.999369 0.0026732 4.82246e-17)
(1.16233 0.777494 -1.1481e-17)
(1.13527 0.522798 1.77285e-17)
(1.13709 0.365852 1.93642e-17)
(1.11071 0.259328 2.01577e-17)
(1.10836 0.186446 -1.22319e-18)
(1.08435 0.13402 -5.6318e-20)
(1.0777 0.0916902 -5.07808e-17)
(1.05075 0.0607988 1.96476e-17)
(1.037 0.0287864 -2.43496e-17)
(0.998718 0.0029349 -2.57925e-18)
(0.957629 0.777517 -1.43832e-17)
(0.997633 0.522825 8.63017e-18)
(1.04079 0.365887 1.62503e-17)
(1.04246 0.259367 2.27615e-17)
(1.0593 0.186493 -6.31347e-18)
(1.04911 0.134071 -1.6323e-17)
(1.05361 0.0917496 -3.01808e-18)
(1.0348 0.0608627 -2.74211e-18)
(1.02948 0.0288584 -1.97364e-17)
(0.998036 0.00303364 -7.79014e-18)
(0.759902 0.724561 4.53061e-18)
(0.864684 0.487234 -5.38113e-18)
(0.947762 0.340999 -2.06413e-17)
(0.97653 0.241748 -2.49921e-17)
(1.01192 0.173848 -1.73173e-17)
(1.01506 0.125008 5.14301e-19)
(1.03033 0.0855796 1.51955e-17)
(1.01939 0.0568079 -6.60576e-18)
(1.02221 0.0269929 5.02067e-17)
(0.997362 0.00297095 -6.97229e-17)
(0.582617 0.62224 -6.34777e-18)
(0.745481 0.41845 -1.8752e-17)
(0.864347 0.292887 -3.0751e-17)
(0.917411 0.20767 -1.52222e-17)
(0.969418 0.149377 2.55724e-17)
(0.984523 0.107449 3.86209e-18)
(1.00945 0.0736057 -5.69841e-19)
(1.00556 0.0489114 -2.348e-18)
(1.01568 0.0233225 5.22444e-18)
(0.996738 0.00275397 -8.89868e-18)
(0.43786 0.477524 -2.1263e-18)
(0.648142 0.321162 7.06012e-18)
(0.796231 0.224831 -2.02133e-17)
(0.869127 0.159459 -1.50251e-17)
(0.934706 0.114747 -1.41493e-17)
(0.959572 0.0825942 1.51602e-17)
(0.992379 0.0566439 -6.71647e-18)
(0.994238 0.0377154 5.43578e-18)
(1.01032 0.0180981 3.61104e-17)
(0.996197 0.00240302 -6.83773e-18)
(0.33549 0.300278 -4.75689e-21)
(0.579303 0.202001 8.33846e-18)
(0.748049 0.14147 3.76599e-18)
(0.83497 0.100401 1.22281e-17)
(0.910139 0.0723211 7.77924e-18)
(0.941907 0.0521369 -1.39736e-17)
(0.980283 0.0358533 -1.09574e-17)
(0.986208 0.0239835 -9.26277e-18)
(1.0065 0.0116791 9.36374e-18)
(0.995769 0.00194344 -1.27556e-17)
(0.282485 0.102581 -9.54697e-19)
(0.543649 0.0690889 2.98763e-18)
(0.723088 0.0484846 -3.66554e-19)
(0.817261 0.0345216 -4.71174e-18)
(0.897393 0.0249905 -3.10383e-20)
(0.932725 0.0181548 1.05036e-20)
(0.973982 0.0126508 6.50578e-18)
(0.982005 0.00865328 -2.54954e-18)
(1.00447 0.00450314 1.1936e-17)
(0.995475 0.001409 4.57648e-18)
(0.282451 -0.102094 -3.60585e-19)
(0.543612 -0.0685174 -1.76955e-18)
(0.723041 -0.047787 3.59686e-18)
(0.817207 -0.0336895 -3.98329e-18)
(0.897328 -0.0240183 -2.5589e-18)
(0.932653 -0.0170361 2.12043e-18)
(0.973897 -0.0113814 1.2917e-17)
(0.981912 -0.00723032 -9.94486e-18)
(1.00437 -0.00293954 8.10119e-18)
(0.995329 0.000836129 8.43132e-18)
(0.335395 -0.299799 -1.95209e-18)
(0.579189 -0.20144 -2.58344e-18)
(0.747913 -0.140784 1.90194e-17)
(0.834806 -0.0995835 1.63768e-17)
(0.90995 -0.0713653 -1.39765e-17)
(0.941687 -0.0510376 -3.95299e-18)
(0.980035 -0.0346054 -6.46746e-18)
(0.985929 -0.0225851 2.04258e-17)
(1.0062 -0.0101419 -2.78392e-17)
(0.99533 0.000263254 -4.84066e-18)
(0.437701 -0.477061 2.11224e-18)
(0.647958 -0.32062 -2.86632e-18)
(0.796004 -0.224169 -1.22241e-17)
(0.868859 -0.15867 -1.13977e-17)
(0.934391 -0.113825 -2.30013e-17)
(0.959212 -0.0815326 7.04781e-18)
(0.991969 -0.0554397 -3.13678e-18)
(0.993781 -0.0363649 -1.01349e-18)
(1.00982 -0.0166145 -2.86652e-17)
(0.995474 -0.000271666 5.22156e-17)
(0.582401 -0.6218 -1.15467e-18)
(0.745225 -0.417936 -3.44829e-17)
(0.864037 -0.29226 -1.23509e-17)
(0.91704 -0.206923 6.38648e-18)
(0.968987 -0.148503 8.03743e-18)
(0.984026 -0.106445 1.53308e-18)
(1.00889 -0.0724645 3.53816e-19)
(1.00492 -0.0476328 8.96142e-18)
(1.01498 -0.0219166 4.08681e-17)
(0.995742 -0.000735436 -6.50692e-17)
(0.759627 -0.724155 8.25771e-18)
(0.864365 -0.486757 -6.72128e-18)
(0.94737 -0.340418 -1.18902e-17)
(0.976066 -0.241055 -1.30469e-17)
(1.01137 -0.173039 1.72672e-17)
(1.01444 -0.124076 3.51773e-18)
(1.02962 -0.0845228 1.23675e-17)
(1.0186 -0.0556218 1.53721e-17)
(1.02134 -0.0256904 -4.773e-17)
(0.996113 -0.00109823 6.84649e-17)
(0.957306 -0.777147 -1.11718e-17)
(0.997252 -0.522395 1.7507e-17)
(1.04033 -0.365361 2.00514e-17)
(1.04191 -0.258742 2.05272e-17)
(1.05866 -0.185761 4.02454e-18)
(1.04837 -0.133229 5.59924e-18)
(1.05277 -0.090793 -5.53355e-17)
(1.03386 -0.0597913 2.73072e-17)
(1.02845 -0.0276795 -3.34878e-17)
(0.996551 -0.00134076 1.01862e-17)
(1.16196 -0.777171 -1.12603e-17)
(1.13483 -0.52242 1.18964e-17)
(1.13656 -0.365393 2.21797e-17)
(1.11008 -0.258779 2.90386e-17)
(1.10762 -0.185806 1.7977e-19)
(1.08351 -0.133281 -1.33276e-17)
(1.07674 -0.090853 -1.21594e-17)
(1.04968 -0.0598582 -6.00378e-19)
(1.03582 -0.0277539 -2.95338e-17)
(0.997025 -0.00144869 2.92502e-18)
(1.35964 -0.724221 5.09307e-18)
(1.26773 -0.486834 8.88518e-19)
(1.22953 -0.34051 -5.35701e-18)
(1.17593 -0.241167 -7.9027e-18)
(1.15492 -0.173171 -1.25603e-17)
(1.11745 -0.124232 -3.32444e-18)
(1.0999 -0.0846989 6.58325e-18)
(1.06496 -0.0558235 -6.7674e-18)
(1.04294 -0.0259094 2.84062e-17)
(0.997495 -0.00142189 -4.80062e-17)
(1.53688 -0.621912 -1.82497e-18)
(1.38688 -0.418062 -9.30547e-18)
(1.31287 -0.292414 -1.41251e-17)
(1.23497 -0.207108 -6.38806e-18)
(1.19732 -0.148723 1.01925e-17)
(1.14788 -0.1067 -6.8687e-19)
(1.12067 -0.0727568 4.06059e-19)
(1.07867 -0.0479635 -3.46662e-18)
(1.04934 -0.0222789 3.10654e-18)
(0.997927 -0.00126478 -1.07242e-17)
(1.6816 -0.477212 -1.6252e-18)
(1.48417 -0.320794 -2.504e-19)
(1.38093 -0.224381 -1.10386e-17)
(1.28318 -0.158927 -8.1672e-18)
(1.23195 -0.114127 -5.7643e-18)
(1.17274 -0.0818863 5.79e-18)
(1.13763 -0.0558407 -1.03424e-18)
(1.08987 -0.0368206 2.12235e-18)
(1.05456 -0.0171109 1.26398e-17)
(0.998286 -0.000996805 -2.67882e-18)
(1.78394 -0.299989 -9.65347e-19)
(1.55296 -0.201659 7.32677e-19)
(1.42905 -0.141053 -3.13743e-18)
(1.31727 -0.0999079 -3.103e-19)
(1.25643 -0.0717484 -5.85957e-20)
(1.19031 -0.051482 -2.41609e-18)
(1.14962 -0.0351115 -2.86529e-18)
(1.09778 -0.0231555 -1.59372e-18)
(1.05826 -0.010766 5.69758e-18)
(0.998547 -0.000639377 -3.02267e-18)
(1.83691 -0.102317 -6.09875e-19)
(1.58857 -0.0687795 8.18304e-19)
(1.45396 -0.0481077 -2.33187e-18)
(1.33491 -0.0340783 -1.15217e-18)
(1.26911 -0.0244743 6.57706e-19)
(1.1994 -0.0175662 -1.37749e-18)
(1.15582 -0.0119818 -1.57581e-18)
(1.10188 -0.00790721 -1.13438e-18)
(1.06017 -0.00367767 4.00812e-18)
(0.998687 -0.00022687 -5.6473e-19)
(1.83691 0.102327 -2.33034e-19)
(1.58857 0.0687896 1.14478e-18)
(1.45396 0.0481144 -2.51461e-18)
(1.33491 0.0340758 -1.78967e-18)
(1.2691 0.0244662 1.68146e-18)
(1.1994 0.0175494 -1.33931e-19)
(1.15582 0.0119637 -7.53833e-19)
(1.10188 0.00788368 -6.96804e-19)
(1.06017 0.00366187 4.01815e-18)
(0.998696 0.000208804 -6.19656e-19)
(1.78394 0.3 2.06042e-20)
(1.55296 0.201668 2.01108e-18)
(1.42904 0.141058 -2.81192e-18)
(1.31726 0.0999038 -3.4697e-18)
(1.25642 0.0717388 4.17493e-18)
(1.1903 0.0514645 8.56803e-19)
(1.14961 0.035093 2.12375e-18)
(1.09778 0.023133 -4.29325e-18)
(1.05826 0.0107512 8.23791e-18)
(0.998574 0.000627076 -1.95346e-18)
(1.68161 0.477225 -1.17329e-18)
(1.48416 0.320801 3.41035e-18)
(1.38092 0.224383 6.64399e-18)
(1.28316 0.15892 3.25594e-18)
(1.23194 0.114115 5.56736e-18)
(1.17272 0.0818676 -3.02239e-18)
(1.13761 0.0558217 8.95224e-19)
(1.08987 0.0368 5.60526e-19)
(1.05456 0.017098 5.26269e-18)
(0.998328 0.000995111 -1.67175e-17)
(1.5369 0.621926 -7.90384e-19)
(1.38688 0.418066 1.53049e-17)
(1.31286 0.292412 5.68499e-18)
(1.23495 0.207097 -5.08233e-18)
(1.19731 0.148707 -8.27208e-18)
(1.14787 0.10668 -7.3847e-19)
(1.12065 0.072737 1.24368e-18)
(1.07867 0.0479456 -4.80316e-18)
(1.04934 0.0222685 -1.81381e-17)
(0.997978 0.00127681 2.82859e-17)
(1.35966 0.724236 -6.18207e-18)
(1.26772 0.486836 -2.2745e-18)
(1.22951 0.340503 4.14003e-18)
(1.17591 0.241152 5.70346e-18)
(1.1549 0.173152 -1.14716e-17)
(1.11743 0.12421 -1.61513e-19)
(1.09988 0.0846786 4.8029e-19)
(1.06496 0.0558087 -8.33056e-18)
(1.04294 0.0259018 3.74776e-17)
(0.997548 0.00144853 -4.82347e-17)
(1.16198 0.777186 1.14803e-17)
(1.13483 0.522418 -1.77256e-17)
(1.13655 0.365382 -1.93635e-17)
(1.11006 0.25876 -2.01568e-17)
(1.1076 0.185784 1.21791e-18)
(1.08349 0.133258 5.32504e-20)
(1.07672 0.0908326 5.0768e-17)
(1.04967 0.0598465 -1.96484e-17)
(1.03581 0.027749 2.43551e-17)
(0.997074 0.00148841 2.57391e-18)
(0.957321 0.777161 1.43822e-17)
(0.997253 0.522391 -8.63002e-18)
(1.04032 0.365346 -1.62527e-17)
(1.04189 0.25872 -2.27673e-17)
(1.05864 0.185737 6.30812e-18)
(1.04835 0.133207 1.63235e-17)
(1.05275 0.0907732 3.02301e-18)
(1.03385 0.0597826 2.74206e-18)
(1.02844 0.027677 1.97517e-17)
(0.996591 0.00138977 7.78531e-18)
(0.759641 0.724167 -4.53087e-18)
(0.864368 0.486751 5.37824e-18)
(0.947366 0.340402 2.06355e-17)
(0.976054 0.241032 2.49843e-17)
(1.01136 0.173015 1.73125e-17)
(1.01442 0.124055 -5.09994e-19)
(1.02961 0.0845043 -1.51894e-17)
(1.01858 0.0556155 6.60769e-18)
(1.02133 0.0256897 -5.01839e-17)
(0.99614 0.00115108 6.97043e-17)
(0.582414 0.621809 6.34755e-18)
(0.745231 0.417929 1.8748e-17)
(0.864038 0.292243 3.07487e-17)
(0.917032 0.206902 1.52212e-17)
(0.968974 0.14848 -2.55707e-17)
(0.984008 0.106425 -3.858e-18)
(1.00887 0.0724482 5.69778e-19)
(1.00491 0.0476284 2.35016e-18)
(1.01498 0.0219168 -5.21907e-18)
(0.995755 0.000785782 8.89369e-18)
(0.437713 0.477066 2.12618e-18)
(0.647966 0.320611 -7.05963e-18)
(0.796008 0.224154 2.02138e-17)
(0.868855 0.158652 1.50253e-17)
(0.934382 0.113806 1.41463e-17)
(0.959196 0.0815168 -1.5157e-17)
(0.991952 0.0554263 6.71322e-18)
(0.993762 0.0363615 -5.43591e-18)
(1.00981 0.0166149 -3.60986e-17)
(0.995473 0.000313206 6.83215e-18)
(0.335406 0.299798 4.27825e-21)
(0.5792 0.201431 -8.33851e-18)
(0.747921 0.140771 -3.76232e-18)
(0.834805 0.09957 -1.22246e-17)
(0.909943 0.0713514 -7.77895e-18)
(0.941672 0.0510261 1.39714e-17)
(0.980019 0.0345956 1.09557e-17)
(0.985909 0.0225823 9.25977e-18)
(1.00618 0.0101418 -9.36724e-18)
(0.995318 -0.000235815 1.27507e-17)
(0.282463 0.102087 9.53823e-19)
(0.543624 0.0685089 -2.98754e-18)
(0.72305 0.0477784 3.6778e-19)
(0.817207 0.0336815 4.71158e-18)
(0.897323 0.0240106 3.02534e-20)
(0.932639 0.0170296 -8.97596e-21)
(0.973882 0.0113756 -6.50246e-18)
(0.981891 0.00722761 2.54975e-18)
(1.00436 0.00293845 -1.19352e-17)
(0.995311 -0.000826141 -4.57412e-18)
)
;

boundaryField
{
    out
    {
        type            fixedValue;
        value           uniform (1 0 0);
    }
    in
    {
        type            myVelocity;
    }
    frontAndBack
    {
        type            empty;
    }
}


// ************************************************************************* //
