/*--------------------------------*- C++ -*----------------------------------*\
| =========                 |                                                 |
| \\      /  F ield         | OpenFOAM: The Open Source CFD Toolbox           |
|  \\    /   O peration     | Version:  2.2.0                                 |
|   \\  /    A nd           | Web:      www.OpenFOAM.org                      |
|    \\/     M anipulation  |                                                 |
\*---------------------------------------------------------------------------*/
FoamFile
{
    version     2.0;
    format      ascii;
    class       volVectorField;
    location    "2.8";
    object      s;
}
// * * * * * * * * * * * * * * * * * * * * * * * * * * * * * * * * * * * * * //

dimensions      [0 1 -1 0 0 0 0];

internalField   nonuniform List<vector> 
1600
(
(1.77366 0.0696893 0)
(1.50645 0.059189 0)
(1.3076 0.0513758 0)
(1.15508 0.0453833 0)
(1.03424 0.0406354 0)
(0.936173 0.0367823 0)
(0.855002 0.0335931 0)
(0.786714 0.03091 0)
(0.728468 0.0286216 0)
(0.678203 0.0266466 0)
(0.634384 0.024925 0)
(0.595846 0.0234109 0)
(0.561691 0.0220689 0)
(0.53121 0.0208713 0)
(0.503843 0.0197961 0)
(0.479136 0.0188253 0)
(0.456718 0.0179445 0)
(0.436306 0.0171425 0)
(0.417536 0.016405 0)
(0.400588 0.0157391 0)
(1.76272 0.208636 0)
(1.49716 0.177202 0)
(1.29954 0.153811 0)
(1.14796 0.13587 0)
(1.02787 0.121656 0)
(0.930401 0.11012 0)
(0.849731 0.100572 0)
(0.781863 0.0925396 0)
(0.723977 0.0856883 0)
(0.674021 0.0797757 0)
(0.630473 0.0746214 0)
(0.592173 0.0700883 0)
(0.558228 0.0660706 0)
(0.527935 0.0624852 0)
(0.500736 0.0592661 0)
(0.476182 0.0563598 0)
(0.453902 0.0537229 0)
(0.433616 0.0513219 0)
(0.414962 0.049114 0)
(0.398119 0.0471204 0)
(1.74092 0.346295 0)
(1.47864 0.294122 0)
(1.28346 0.255297 0)
(1.13376 0.225519 0)
(1.01515 0.201926 0)
(0.918893 0.182779 0)
(0.839221 0.166931 0)
(0.772192 0.153599 0)
(0.715022 0.142227 0)
(0.665685 0.132413 0)
(0.622674 0.123858 0)
(0.584848 0.116334 0)
(0.551323 0.109665 0)
(0.521405 0.103714 0)
(0.494543 0.0983707 0)
(0.470292 0.0935469 0)
(0.448288 0.0891701 0)
(0.428253 0.0851848 0)
(0.409829 0.0815201 0)
(0.393194 0.0782112 0)
(1.70838 0.481818 0)
(1.45101 0.409228 0)
(1.25948 0.35521 0)
(1.11257 0.313778 0)
(0.99618 0.280952 0)
(0.901719 0.254311 0)
(0.823536 0.232261 0)
(0.757761 0.213711 0)
(0.701659 0.197888 0)
(0.653243 0.184234 0)
(0.611037 0.17233 0)
(0.573918 0.161862 0)
(0.541019 0.152583 0)
(0.51166 0.144303 0)
(0.4853 0.136869 0)
(0.461502 0.130157 0)
(0.43991 0.124067 0)
(0.420249 0.118523 0)
(0.40217 0.113424 0)
(0.385846 0.10882 0)
(1.66531 0.61437 0)
(1.41443 0.521812 0)
(1.22772 0.452932 0)
(1.08452 0.400102 0)
(0.971065 0.358245 0)
(0.878987 0.324275 0)
(0.802775 0.296159 0)
(0.738657 0.272505 0)
(0.68397 0.25233 0)
(0.636775 0.234919 0)
(0.595633 0.21974 0)
(0.559449 0.206392 0)
(0.52738 0.194561 0)
(0.498761 0.184003 0)
(0.473066 0.174523 0)
(0.449868 0.165965 0)
(0.42882 0.1582 0)
(0.409655 0.15113 0)
(0.392031 0.144628 0)
(0.376119 0.138757 0)
(1.61197 0.743134 0)
(1.36913 0.631177 0)
(1.1884 0.547862 0)
(1.04979 0.483959 0)
(0.939964 0.43333 0)
(0.850835 0.39224 0)
(0.777064 0.358231 0)
(0.715 0.329619 0)
(0.662064 0.305215 0)
(0.61638 0.284155 0)
(0.576556 0.265796 0)
(0.541531 0.249649 0)
(0.510489 0.235339 0)
(0.482787 0.222568 0)
(0.457914 0.211101 0)
(0.43546 0.20075 0)
(0.415086 0.191357 0)
(0.396534 0.182805 0)
(0.379475 0.17494 0)
(0.364072 0.16784 0)
(1.5487 0.867316 0)
(1.31538 0.736651 0)
(1.14175 0.639414 0)
(1.00858 0.564833 0)
(0.903068 0.505743 0)
(0.817437 0.457787 0)
(0.746562 0.418095 0)
(0.686934 0.384702 0)
(0.636076 0.356219 0)
(0.592186 0.33164 0)
(0.553924 0.310213 0)
(0.520275 0.291368 0)
(0.490451 0.274666 0)
(0.463836 0.259761 0)
(0.43994 0.246378 0)
(0.418367 0.234297 0)
(0.398793 0.223335 0)
(0.380969 0.213353 0)
(0.36458 0.204174 0)
(0.349782 0.195887 0)
(1.47588 0.986151 0)
(1.25353 0.837584 0)
(1.08807 0.727024 0)
(0.961155 0.642224 0)
(0.860604 0.575037 0)
(0.778999 0.520511 0)
(0.711457 0.47538 0)
(0.654633 0.437412 0)
(0.606166 0.405027 0)
(0.56434 0.37708 0)
(0.527878 0.352717 0)
(0.495811 0.33129 0)
(0.467389 0.312299 0)
(0.442026 0.295352 0)
(0.419253 0.280136 0)
(0.398694 0.266399 0)
(0.380041 0.253935 0)
(0.363055 0.242586 0)
(0.347437 0.23215 0)
(0.333334 0.222727 0)
(1.39395 1.09891 0)
(1.18395 0.933352 0)
(1.02767 0.810151 0)
(0.907804 0.715655 0)
(0.812834 0.640787 0)
(0.735759 0.580026 0)
(0.671966 0.529735 0)
(0.618296 0.487425 0)
(0.57252 0.451338 0)
(0.533015 0.420195 0)
(0.498577 0.393046 0)
(0.468289 0.369169 0)
(0.441446 0.348008 0)
(0.41749 0.329123 0)
(0.395982 0.312167 0)
(0.376564 0.296859 0)
(0.358946 0.28297 0)
(0.342903 0.270323 0)
(0.328151 0.258694 0)
(0.314832 0.248193 0)
(1.30344 1.20489 0)
(1.10707 1.02337 0)
(0.960939 0.888283 0)
(0.848856 0.784675 0)
(0.760053 0.702586 0)
(0.687983 0.635965 0)
(0.628332 0.580824 0)
(0.578147 0.534434 0)
(0.535343 0.494866 0)
(0.498404 0.46072 0)
(0.466202 0.430952 0)
(0.437881 0.404773 0)
(0.412781 0.38157 0)
(0.390381 0.360864 0)
(0.370269 0.342273 0)
(0.352112 0.325489 0)
(0.335638 0.31026 0)
(0.320637 0.296394 0)
(0.306843 0.283643 0)
(0.294388 0.27213 0)
(1.20489 1.30344 0)
(1.02337 1.10707 0)
(0.888283 0.960939 0)
(0.784675 0.848856 0)
(0.702586 0.760053 0)
(0.635965 0.687983 0)
(0.580824 0.628332 0)
(0.534434 0.578147 0)
(0.494866 0.535343 0)
(0.46072 0.498404 0)
(0.430953 0.466202 0)
(0.404773 0.437881 0)
(0.38157 0.41278 0)
(0.360864 0.39038 0)
(0.342273 0.370268 0)
(0.325489 0.352112 0)
(0.31026 0.335637 0)
(0.296394 0.320637 0)
(0.283643 0.306843 0)
(0.27213 0.294388 0)
(1.09891 1.39395 0)
(0.933352 1.18395 0)
(0.810151 1.02767 0)
(0.715656 0.907804 0)
(0.640787 0.812834 0)
(0.580026 0.735759 0)
(0.529735 0.671966 0)
(0.487426 0.618296 0)
(0.451338 0.57252 0)
(0.420195 0.533015 0)
(0.393046 0.498577 0)
(0.36917 0.468289 0)
(0.348008 0.441445 0)
(0.329123 0.41749 0)
(0.312167 0.395981 0)
(0.296859 0.376564 0)
(0.28297 0.358945 0)
(0.270323 0.342903 0)
(0.258694 0.328151 0)
(0.248193 0.314832 0)
(0.986151 1.47588 0)
(0.837584 1.25353 0)
(0.727024 1.08807 0)
(0.642224 0.961156 0)
(0.575038 0.860604 0)
(0.520511 0.778999 0)
(0.475381 0.711457 0)
(0.437412 0.654633 0)
(0.405028 0.606166 0)
(0.37708 0.56434 0)
(0.352717 0.527878 0)
(0.33129 0.49581 0)
(0.3123 0.467389 0)
(0.295352 0.442026 0)
(0.280136 0.419253 0)
(0.266399 0.398694 0)
(0.253935 0.380041 0)
(0.242586 0.363055 0)
(0.23215 0.347437 0)
(0.222727 0.333334 0)
(0.867316 1.5487 0)
(0.736652 1.31538 0)
(0.639414 1.14175 0)
(0.564833 1.00858 0)
(0.505743 0.903068 0)
(0.457787 0.817437 0)
(0.418095 0.746562 0)
(0.384702 0.686934 0)
(0.35622 0.636076 0)
(0.33164 0.592186 0)
(0.310213 0.553924 0)
(0.291368 0.520275 0)
(0.274666 0.490451 0)
(0.259761 0.463836 0)
(0.246378 0.43994 0)
(0.234297 0.418367 0)
(0.223335 0.398792 0)
(0.213353 0.380969 0)
(0.204175 0.36458 0)
(0.195887 0.349782 0)
(0.743134 1.61197 0)
(0.631177 1.36913 0)
(0.547862 1.1884 0)
(0.48396 1.04979 0)
(0.43333 0.939964 0)
(0.39224 0.850835 0)
(0.358231 0.777064 0)
(0.32962 0.715 0)
(0.305216 0.662064 0)
(0.284155 0.61638 0)
(0.265796 0.576556 0)
(0.24965 0.541531 0)
(0.235339 0.510489 0)
(0.222568 0.482787 0)
(0.211102 0.457914 0)
(0.20075 0.43546 0)
(0.191357 0.415086 0)
(0.182805 0.396534 0)
(0.174941 0.379475 0)
(0.16784 0.364072 0)
(0.61437 1.66531 0)
(0.521812 1.41443 0)
(0.452932 1.22772 0)
(0.400102 1.08452 0)
(0.358245 0.971065 0)
(0.324276 0.878987 0)
(0.296159 0.802775 0)
(0.272505 0.738657 0)
(0.25233 0.68397 0)
(0.234919 0.636775 0)
(0.219741 0.595633 0)
(0.206392 0.559449 0)
(0.194561 0.52738 0)
(0.184003 0.498761 0)
(0.174523 0.473066 0)
(0.165965 0.449868 0)
(0.1582 0.42882 0)
(0.15113 0.409655 0)
(0.144628 0.392031 0)
(0.138758 0.376119 0)
(0.481818 1.70838 0)
(0.409229 1.45101 0)
(0.35521 1.25948 0)
(0.313778 1.11257 0)
(0.280952 0.99618 0)
(0.254311 0.901719 0)
(0.232262 0.823536 0)
(0.213711 0.757761 0)
(0.197888 0.701659 0)
(0.184234 0.653243 0)
(0.17233 0.611037 0)
(0.161862 0.573918 0)
(0.152583 0.541019 0)
(0.144303 0.51166 0)
(0.136869 0.4853 0)
(0.130157 0.461503 0)
(0.124068 0.43991 0)
(0.118523 0.420249 0)
(0.113424 0.40217 0)
(0.10882 0.385846 0)
(0.346295 1.74092 0)
(0.294122 1.47864 0)
(0.255298 1.28346 0)
(0.22552 1.13376 0)
(0.201927 1.01515 0)
(0.182779 0.918893 0)
(0.166932 0.839221 0)
(0.153599 0.772193 0)
(0.142227 0.715022 0)
(0.132413 0.665684 0)
(0.123858 0.622674 0)
(0.116334 0.584848 0)
(0.109665 0.551323 0)
(0.103714 0.521405 0)
(0.0983708 0.494543 0)
(0.093547 0.470292 0)
(0.0891702 0.448288 0)
(0.0851849 0.428253 0)
(0.0815202 0.409829 0)
(0.0782113 0.393194 0)
(0.208636 1.76272 0)
(0.177202 1.49716 0)
(0.153811 1.29954 0)
(0.13587 1.14796 0)
(0.121656 1.02787 0)
(0.11012 0.930401 0)
(0.100572 0.849731 0)
(0.0925398 0.781863 0)
(0.0856884 0.723977 0)
(0.0797758 0.674021 0)
(0.0746215 0.630473 0)
(0.0700884 0.592173 0)
(0.0660707 0.558228 0)
(0.0624854 0.527935 0)
(0.0592662 0.500736 0)
(0.0563599 0.476182 0)
(0.053723 0.453903 0)
(0.051322 0.433616 0)
(0.049114 0.414962 0)
(0.0471205 0.398119 0)
(0.0696894 1.77366 0)
(0.0591891 1.50645 0)
(0.051376 1.3076 0)
(0.0453834 1.15508 0)
(0.0406356 1.03424 0)
(0.0367824 0.936173 0)
(0.0335932 0.855002 0)
(0.0309102 0.786714 0)
(0.0286217 0.728468 0)
(0.0266468 0.678203 0)
(0.0249251 0.634384 0)
(0.023411 0.595846 0)
(0.022069 0.561691 0)
(0.0208714 0.53121 0)
(0.0197962 0.503843 0)
(0.0188254 0.479136 0)
(0.0179446 0.456718 0)
(0.0171426 0.436306 0)
(0.0164051 0.417536 0)
(0.0157392 0.400589 0)
(-0.0696894 1.77366 0)
(-0.0591891 1.50645 0)
(-0.0513759 1.3076 0)
(-0.0453833 1.15508 0)
(-0.0406355 1.03424 0)
(-0.0367823 0.936173 0)
(-0.0335931 0.855002 0)
(-0.03091 0.786714 0)
(-0.0286215 0.728468 0)
(-0.0266466 0.678203 0)
(-0.0249249 0.634384 0)
(-0.0234108 0.595846 0)
(-0.0220688 0.561691 0)
(-0.0208712 0.53121 0)
(-0.0197959 0.503843 0)
(-0.0188252 0.479136 0)
(-0.0179444 0.456718 0)
(-0.0171424 0.436306 0)
(-0.016405 0.417536 0)
(-0.0157391 0.400589 0)
(-0.208636 1.76272 0)
(-0.177202 1.49716 0)
(-0.153811 1.29954 0)
(-0.13587 1.14796 0)
(-0.121656 1.02787 0)
(-0.11012 0.930401 0)
(-0.100572 0.849731 0)
(-0.0925396 0.781863 0)
(-0.0856883 0.723977 0)
(-0.0797757 0.674021 0)
(-0.0746213 0.630473 0)
(-0.0700882 0.592173 0)
(-0.0660705 0.558228 0)
(-0.0624852 0.527935 0)
(-0.059266 0.500736 0)
(-0.0563597 0.476182 0)
(-0.0537228 0.453903 0)
(-0.0513218 0.433616 0)
(-0.0491139 0.414962 0)
(-0.0471204 0.398119 0)
(-0.346295 1.74092 0)
(-0.294122 1.47864 0)
(-0.255298 1.28346 0)
(-0.22552 1.13376 0)
(-0.201927 1.01515 0)
(-0.182779 0.918893 0)
(-0.166931 0.839221 0)
(-0.153599 0.772193 0)
(-0.142227 0.715022 0)
(-0.132413 0.665685 0)
(-0.123858 0.622674 0)
(-0.116334 0.584848 0)
(-0.109665 0.551323 0)
(-0.103714 0.521405 0)
(-0.0983706 0.494543 0)
(-0.0935468 0.470292 0)
(-0.08917 0.448288 0)
(-0.0851847 0.428253 0)
(-0.0815201 0.409829 0)
(-0.0782112 0.393194 0)
(-0.481818 1.70838 0)
(-0.409229 1.45101 0)
(-0.35521 1.25948 0)
(-0.313778 1.11257 0)
(-0.280952 0.99618 0)
(-0.254311 0.901719 0)
(-0.232261 0.823536 0)
(-0.213711 0.757761 0)
(-0.197888 0.701659 0)
(-0.184234 0.653243 0)
(-0.17233 0.611037 0)
(-0.161862 0.573918 0)
(-0.152583 0.541019 0)
(-0.144303 0.51166 0)
(-0.136869 0.4853 0)
(-0.130157 0.461503 0)
(-0.124067 0.43991 0)
(-0.118522 0.420249 0)
(-0.113424 0.40217 0)
(-0.10882 0.385846 0)
(-0.61437 1.66531 0)
(-0.521812 1.41443 0)
(-0.452933 1.22772 0)
(-0.400102 1.08452 0)
(-0.358245 0.971066 0)
(-0.324276 0.878987 0)
(-0.296159 0.802775 0)
(-0.272505 0.738657 0)
(-0.25233 0.68397 0)
(-0.234919 0.636775 0)
(-0.21974 0.595633 0)
(-0.206392 0.559449 0)
(-0.194561 0.52738 0)
(-0.184003 0.498761 0)
(-0.174523 0.473066 0)
(-0.165965 0.449868 0)
(-0.1582 0.42882 0)
(-0.151129 0.409654 0)
(-0.144628 0.392031 0)
(-0.138757 0.376119 0)
(-0.743134 1.61197 0)
(-0.631178 1.36913 0)
(-0.547862 1.1884 0)
(-0.48396 1.04979 0)
(-0.43333 0.939965 0)
(-0.39224 0.850835 0)
(-0.358231 0.777064 0)
(-0.32962 0.715 0)
(-0.305216 0.662064 0)
(-0.284155 0.61638 0)
(-0.265796 0.576556 0)
(-0.249649 0.541531 0)
(-0.235339 0.510489 0)
(-0.222568 0.482787 0)
(-0.211101 0.457914 0)
(-0.20075 0.43546 0)
(-0.191357 0.415086 0)
(-0.182805 0.396534 0)
(-0.17494 0.379475 0)
(-0.16784 0.364072 0)
(-0.867317 1.5487 0)
(-0.736652 1.31538 0)
(-0.639414 1.14175 0)
(-0.564833 1.00858 0)
(-0.505743 0.903068 0)
(-0.457787 0.817437 0)
(-0.418095 0.746562 0)
(-0.384702 0.686934 0)
(-0.35622 0.636076 0)
(-0.33164 0.592186 0)
(-0.310213 0.553924 0)
(-0.291368 0.520275 0)
(-0.274666 0.490451 0)
(-0.259761 0.463836 0)
(-0.246378 0.43994 0)
(-0.234296 0.418367 0)
(-0.223334 0.398792 0)
(-0.213353 0.380969 0)
(-0.204174 0.36458 0)
(-0.195887 0.349782 0)
(-0.986152 1.47588 0)
(-0.837584 1.25353 0)
(-0.727024 1.08807 0)
(-0.642224 0.961156 0)
(-0.575038 0.860604 0)
(-0.520511 0.779 0)
(-0.475381 0.711457 0)
(-0.437412 0.654633 0)
(-0.405027 0.606166 0)
(-0.37708 0.56434 0)
(-0.352717 0.527878 0)
(-0.33129 0.495811 0)
(-0.312299 0.467389 0)
(-0.295352 0.442026 0)
(-0.280136 0.419253 0)
(-0.266399 0.398694 0)
(-0.253935 0.380041 0)
(-0.242586 0.363055 0)
(-0.23215 0.347436 0)
(-0.222727 0.333334 0)
(-1.09891 1.39395 0)
(-0.933353 1.18395 0)
(-0.810151 1.02767 0)
(-0.715656 0.907805 0)
(-0.640787 0.812834 0)
(-0.580026 0.735759 0)
(-0.529735 0.671966 0)
(-0.487426 0.618296 0)
(-0.451338 0.57252 0)
(-0.420195 0.533015 0)
(-0.393046 0.498577 0)
(-0.36917 0.468289 0)
(-0.348008 0.441446 0)
(-0.329123 0.41749 0)
(-0.312167 0.395982 0)
(-0.296859 0.376564 0)
(-0.28297 0.358945 0)
(-0.270323 0.342903 0)
(-0.258694 0.328151 0)
(-0.248193 0.314832 0)
(-1.20489 1.30344 0)
(-1.02337 1.10707 0)
(-0.888284 0.96094 0)
(-0.784675 0.848857 0)
(-0.702586 0.760053 0)
(-0.635965 0.687983 0)
(-0.580824 0.628332 0)
(-0.534434 0.578147 0)
(-0.494866 0.535343 0)
(-0.46072 0.498404 0)
(-0.430952 0.466202 0)
(-0.404773 0.437881 0)
(-0.38157 0.41278 0)
(-0.360864 0.390381 0)
(-0.342273 0.370269 0)
(-0.325489 0.352112 0)
(-0.31026 0.335637 0)
(-0.296393 0.320637 0)
(-0.283643 0.306843 0)
(-0.27213 0.294388 0)
(-1.30344 1.20489 0)
(-1.10707 1.02337 0)
(-0.96094 0.888284 0)
(-0.848857 0.784675 0)
(-0.760053 0.702586 0)
(-0.687983 0.635965 0)
(-0.628332 0.580824 0)
(-0.578147 0.534434 0)
(-0.535343 0.494866 0)
(-0.498404 0.46072 0)
(-0.466202 0.430953 0)
(-0.437881 0.404773 0)
(-0.41278 0.38157 0)
(-0.390381 0.360864 0)
(-0.370269 0.342273 0)
(-0.352112 0.325489 0)
(-0.335637 0.31026 0)
(-0.320637 0.296394 0)
(-0.306843 0.283643 0)
(-0.294388 0.27213 0)
(-1.39395 1.09891 0)
(-1.18395 0.933353 0)
(-1.02767 0.810151 0)
(-0.907805 0.715656 0)
(-0.812835 0.640787 0)
(-0.73576 0.580026 0)
(-0.671966 0.529735 0)
(-0.618296 0.487426 0)
(-0.57252 0.451338 0)
(-0.533015 0.420195 0)
(-0.498577 0.393046 0)
(-0.468289 0.36917 0)
(-0.441446 0.348008 0)
(-0.41749 0.329123 0)
(-0.395982 0.312167 0)
(-0.376564 0.296859 0)
(-0.358945 0.28297 0)
(-0.342903 0.270323 0)
(-0.328151 0.258694 0)
(-0.314832 0.248193 0)
(-1.47588 0.986152 0)
(-1.25353 0.837584 0)
(-1.08807 0.727024 0)
(-0.961156 0.642224 0)
(-0.860605 0.575038 0)
(-0.779 0.520511 0)
(-0.711457 0.475381 0)
(-0.654633 0.437412 0)
(-0.606166 0.405027 0)
(-0.56434 0.37708 0)
(-0.527878 0.352717 0)
(-0.495811 0.33129 0)
(-0.467389 0.312299 0)
(-0.442026 0.295352 0)
(-0.419253 0.280136 0)
(-0.398694 0.266399 0)
(-0.380041 0.253935 0)
(-0.363055 0.242586 0)
(-0.347437 0.23215 0)
(-0.333334 0.222727 0)
(-1.5487 0.867317 0)
(-1.31538 0.736652 0)
(-1.14175 0.639414 0)
(-1.00858 0.564833 0)
(-0.903069 0.505743 0)
(-0.817437 0.457787 0)
(-0.746562 0.418095 0)
(-0.686934 0.384702 0)
(-0.636076 0.35622 0)
(-0.592186 0.33164 0)
(-0.553924 0.310213 0)
(-0.520275 0.291368 0)
(-0.490451 0.274666 0)
(-0.463836 0.259761 0)
(-0.43994 0.246378 0)
(-0.418367 0.234297 0)
(-0.398793 0.223335 0)
(-0.380969 0.213353 0)
(-0.36458 0.204174 0)
(-0.349782 0.195887 0)
(-1.61197 0.743134 0)
(-1.36913 0.631178 0)
(-1.1884 0.547862 0)
(-1.04979 0.48396 0)
(-0.939965 0.43333 0)
(-0.850835 0.39224 0)
(-0.777064 0.358231 0)
(-0.715 0.32962 0)
(-0.662064 0.305216 0)
(-0.616381 0.284155 0)
(-0.576556 0.265796 0)
(-0.541531 0.249649 0)
(-0.510489 0.235339 0)
(-0.482787 0.222568 0)
(-0.457914 0.211101 0)
(-0.43546 0.20075 0)
(-0.415086 0.191357 0)
(-0.396534 0.182805 0)
(-0.379475 0.174941 0)
(-0.364073 0.16784 0)
(-1.66531 0.61437 0)
(-1.41443 0.521812 0)
(-1.22772 0.452932 0)
(-1.08452 0.400102 0)
(-0.971066 0.358245 0)
(-0.878987 0.324276 0)
(-0.802775 0.296159 0)
(-0.738658 0.272505 0)
(-0.68397 0.25233 0)
(-0.636775 0.234919 0)
(-0.595633 0.219741 0)
(-0.559449 0.206392 0)
(-0.52738 0.194561 0)
(-0.498761 0.184003 0)
(-0.473066 0.174523 0)
(-0.449868 0.165965 0)
(-0.42882 0.1582 0)
(-0.409655 0.15113 0)
(-0.392031 0.144628 0)
(-0.376119 0.138758 0)
(-1.70838 0.481818 0)
(-1.45101 0.409229 0)
(-1.25948 0.35521 0)
(-1.11257 0.313778 0)
(-0.99618 0.280952 0)
(-0.90172 0.254311 0)
(-0.823537 0.232261 0)
(-0.757761 0.213711 0)
(-0.701659 0.197888 0)
(-0.653244 0.184234 0)
(-0.611037 0.17233 0)
(-0.573918 0.161862 0)
(-0.541019 0.152583 0)
(-0.511661 0.144303 0)
(-0.4853 0.136869 0)
(-0.461503 0.130157 0)
(-0.43991 0.124068 0)
(-0.420249 0.118523 0)
(-0.40217 0.113424 0)
(-0.385846 0.10882 0)
(-1.74092 0.346295 0)
(-1.47864 0.294122 0)
(-1.28346 0.255298 0)
(-1.13376 0.22552 0)
(-1.01515 0.201927 0)
(-0.918893 0.182779 0)
(-0.839221 0.166931 0)
(-0.772193 0.153599 0)
(-0.715022 0.142227 0)
(-0.665685 0.132413 0)
(-0.622675 0.123858 0)
(-0.584848 0.116334 0)
(-0.551323 0.109665 0)
(-0.521405 0.103714 0)
(-0.494543 0.0983707 0)
(-0.470292 0.0935469 0)
(-0.448289 0.0891701 0)
(-0.428253 0.0851848 0)
(-0.40983 0.0815201 0)
(-0.393195 0.0782113 0)
(-1.76272 0.208636 0)
(-1.49716 0.177202 0)
(-1.29954 0.153811 0)
(-1.14796 0.13587 0)
(-1.02787 0.121656 0)
(-0.930401 0.11012 0)
(-0.849731 0.100572 0)
(-0.781864 0.0925396 0)
(-0.723977 0.0856883 0)
(-0.674022 0.0797757 0)
(-0.630473 0.0746213 0)
(-0.592173 0.0700883 0)
(-0.558228 0.0660706 0)
(-0.527935 0.0624852 0)
(-0.500737 0.059266 0)
(-0.476182 0.0563598 0)
(-0.453903 0.0537229 0)
(-0.433616 0.0513219 0)
(-0.414962 0.049114 0)
(-0.398119 0.0471205 0)
(-1.77366 0.0696894 0)
(-1.50645 0.059189 0)
(-1.3076 0.0513758 0)
(-1.15508 0.0453833 0)
(-1.03424 0.0406355 0)
(-0.936173 0.0367823 0)
(-0.855003 0.0335931 0)
(-0.786714 0.03091 0)
(-0.728468 0.0286215 0)
(-0.678203 0.0266466 0)
(-0.634384 0.0249249 0)
(-0.595847 0.0234108 0)
(-0.561691 0.0220688 0)
(-0.53121 0.0208713 0)
(-0.503843 0.019796 0)
(-0.479136 0.0188253 0)
(-0.456719 0.0179445 0)
(-0.436306 0.0171425 0)
(-0.417536 0.016405 0)
(-0.400589 0.0157392 0)
(-1.77366 -0.0696895 0)
(-1.50645 -0.0591892 0)
(-1.3076 -0.0513761 0)
(-1.15508 -0.0453835 0)
(-1.03424 -0.0406357 0)
(-0.936173 -0.0367825 0)
(-0.855003 -0.0335933 0)
(-0.786714 -0.0309102 0)
(-0.728468 -0.0286217 0)
(-0.678203 -0.0266468 0)
(-0.634384 -0.0249251 0)
(-0.595847 -0.023411 0)
(-0.561691 -0.022069 0)
(-0.53121 -0.0208714 0)
(-0.503843 -0.0197961 0)
(-0.479136 -0.0188254 0)
(-0.456719 -0.0179446 0)
(-0.436307 -0.0171426 0)
(-0.417536 -0.0164051 0)
(-0.400589 -0.0157392 0)
(-1.76272 -0.208636 0)
(-1.49716 -0.177202 0)
(-1.29954 -0.153811 0)
(-1.14796 -0.13587 0)
(-1.02787 -0.121656 0)
(-0.930401 -0.11012 0)
(-0.849731 -0.100573 0)
(-0.781864 -0.0925398 0)
(-0.723977 -0.0856885 0)
(-0.674022 -0.0797758 0)
(-0.630473 -0.0746215 0)
(-0.592173 -0.0700884 0)
(-0.558228 -0.0660707 0)
(-0.527935 -0.0624853 0)
(-0.500737 -0.0592662 0)
(-0.476182 -0.0563599 0)
(-0.453903 -0.053723 0)
(-0.433617 -0.0513219 0)
(-0.414962 -0.049114 0)
(-0.398119 -0.0471205 0)
(-1.74092 -0.346295 0)
(-1.47864 -0.294123 0)
(-1.28346 -0.255298 0)
(-1.13376 -0.22552 0)
(-1.01515 -0.201927 0)
(-0.918893 -0.182779 0)
(-0.839221 -0.166932 0)
(-0.772193 -0.153599 0)
(-0.715022 -0.142227 0)
(-0.665685 -0.132413 0)
(-0.622675 -0.123858 0)
(-0.584849 -0.116334 0)
(-0.551323 -0.109665 0)
(-0.521405 -0.103714 0)
(-0.494543 -0.0983708 0)
(-0.470292 -0.093547 0)
(-0.448289 -0.0891702 0)
(-0.428253 -0.0851849 0)
(-0.40983 -0.0815202 0)
(-0.393195 -0.0782113 0)
(-1.70838 -0.481818 0)
(-1.45101 -0.409229 0)
(-1.25948 -0.35521 0)
(-1.11257 -0.313779 0)
(-0.99618 -0.280952 0)
(-0.90172 -0.254312 0)
(-0.823537 -0.232262 0)
(-0.757761 -0.213711 0)
(-0.701659 -0.197888 0)
(-0.653244 -0.184234 0)
(-0.611037 -0.17233 0)
(-0.573918 -0.161862 0)
(-0.541019 -0.152583 0)
(-0.511661 -0.144303 0)
(-0.4853 -0.136869 0)
(-0.461503 -0.130157 0)
(-0.439911 -0.124068 0)
(-0.42025 -0.118523 0)
(-0.40217 -0.113424 0)
(-0.385846 -0.10882 0)
(-1.66531 -0.614371 0)
(-1.41443 -0.521812 0)
(-1.22772 -0.452933 0)
(-1.08452 -0.400103 0)
(-0.971066 -0.358246 0)
(-0.878987 -0.324276 0)
(-0.802775 -0.29616 0)
(-0.738658 -0.272505 0)
(-0.68397 -0.25233 0)
(-0.636775 -0.234919 0)
(-0.595633 -0.219741 0)
(-0.55945 -0.206392 0)
(-0.52738 -0.194561 0)
(-0.498762 -0.184003 0)
(-0.473066 -0.174523 0)
(-0.449868 -0.165965 0)
(-0.42882 -0.1582 0)
(-0.409655 -0.15113 0)
(-0.392031 -0.144628 0)
(-0.376119 -0.138758 0)
(-1.61198 -0.743135 0)
(-1.36913 -0.631178 0)
(-1.1884 -0.547863 0)
(-1.04979 -0.48396 0)
(-0.939965 -0.43333 0)
(-0.850835 -0.392241 0)
(-0.777064 -0.358232 0)
(-0.715 -0.32962 0)
(-0.662064 -0.305216 0)
(-0.616381 -0.284156 0)
(-0.576556 -0.265796 0)
(-0.541532 -0.24965 0)
(-0.510489 -0.235339 0)
(-0.482787 -0.222568 0)
(-0.457915 -0.211102 0)
(-0.43546 -0.20075 0)
(-0.415086 -0.191357 0)
(-0.396535 -0.182805 0)
(-0.379476 -0.174941 0)
(-0.364073 -0.16784 0)
(-1.5487 -0.867317 0)
(-1.31538 -0.736652 0)
(-1.14176 -0.639415 0)
(-1.00858 -0.564834 0)
(-0.903069 -0.505743 0)
(-0.817437 -0.457787 0)
(-0.746562 -0.418095 0)
(-0.686934 -0.384702 0)
(-0.636076 -0.35622 0)
(-0.592186 -0.33164 0)
(-0.553925 -0.310213 0)
(-0.520275 -0.291368 0)
(-0.490451 -0.274666 0)
(-0.463837 -0.259761 0)
(-0.43994 -0.246378 0)
(-0.418367 -0.234297 0)
(-0.398793 -0.223335 0)
(-0.380969 -0.213353 0)
(-0.36458 -0.204175 0)
(-0.349782 -0.195887 0)
(-1.47588 -0.986152 0)
(-1.25353 -0.837585 0)
(-1.08807 -0.727024 0)
(-0.961156 -0.642225 0)
(-0.860605 -0.575038 0)
(-0.779 -0.520511 0)
(-0.711457 -0.475381 0)
(-0.654634 -0.437412 0)
(-0.606167 -0.405028 0)
(-0.56434 -0.37708 0)
(-0.527878 -0.352717 0)
(-0.495811 -0.33129 0)
(-0.467389 -0.3123 0)
(-0.442026 -0.295352 0)
(-0.419253 -0.280136 0)
(-0.398694 -0.266399 0)
(-0.380041 -0.253935 0)
(-0.363056 -0.242586 0)
(-0.347437 -0.23215 0)
(-0.333335 -0.222727 0)
(-1.39396 -1.09891 0)
(-1.18395 -0.933353 0)
(-1.02767 -0.810152 0)
(-0.907805 -0.715656 0)
(-0.812835 -0.640788 0)
(-0.73576 -0.580026 0)
(-0.671966 -0.529736 0)
(-0.618297 -0.487426 0)
(-0.57252 -0.451338 0)
(-0.533015 -0.420196 0)
(-0.498577 -0.393047 0)
(-0.46829 -0.36917 0)
(-0.441446 -0.348008 0)
(-0.41749 -0.329123 0)
(-0.395982 -0.312167 0)
(-0.376564 -0.296859 0)
(-0.358946 -0.28297 0)
(-0.342903 -0.270323 0)
(-0.328152 -0.258694 0)
(-0.314832 -0.248194 0)
(-1.30344 -1.20489 0)
(-1.10707 -1.02337 0)
(-0.96094 -0.888284 0)
(-0.848857 -0.784676 0)
(-0.760054 -0.702586 0)
(-0.687983 -0.635965 0)
(-0.628332 -0.580824 0)
(-0.578148 -0.534434 0)
(-0.535343 -0.494867 0)
(-0.498404 -0.46072 0)
(-0.466202 -0.430953 0)
(-0.437881 -0.404773 0)
(-0.412781 -0.381571 0)
(-0.390381 -0.360864 0)
(-0.370269 -0.342273 0)
(-0.352112 -0.325489 0)
(-0.335638 -0.31026 0)
(-0.320637 -0.296394 0)
(-0.306843 -0.283643 0)
(-0.294388 -0.27213 0)
(-1.20489 -1.30344 0)
(-1.02337 -1.10707 0)
(-0.888284 -0.96094 0)
(-0.784675 -0.848857 0)
(-0.702586 -0.760054 0)
(-0.635965 -0.687983 0)
(-0.580824 -0.628332 0)
(-0.534434 -0.578148 0)
(-0.494866 -0.535344 0)
(-0.46072 -0.498404 0)
(-0.430953 -0.466202 0)
(-0.404773 -0.437881 0)
(-0.38157 -0.412781 0)
(-0.360864 -0.390381 0)
(-0.342273 -0.370269 0)
(-0.325489 -0.352112 0)
(-0.31026 -0.335638 0)
(-0.296394 -0.320637 0)
(-0.283643 -0.306843 0)
(-0.27213 -0.294388 0)
(-1.09891 -1.39396 0)
(-0.933353 -1.18395 0)
(-0.810152 -1.02767 0)
(-0.715656 -0.907805 0)
(-0.640788 -0.812835 0)
(-0.580026 -0.73576 0)
(-0.529736 -0.671966 0)
(-0.487426 -0.618297 0)
(-0.451338 -0.57252 0)
(-0.420195 -0.533015 0)
(-0.393046 -0.498577 0)
(-0.36917 -0.46829 0)
(-0.348008 -0.441446 0)
(-0.329123 -0.417491 0)
(-0.312167 -0.395982 0)
(-0.296859 -0.376564 0)
(-0.28297 -0.358946 0)
(-0.270323 -0.342903 0)
(-0.258694 -0.328152 0)
(-0.248194 -0.314832 0)
(-0.986152 -1.47588 0)
(-0.837585 -1.25353 0)
(-0.727024 -1.08807 0)
(-0.642225 -0.961156 0)
(-0.575038 -0.860605 0)
(-0.520511 -0.779 0)
(-0.475381 -0.711458 0)
(-0.437412 -0.654634 0)
(-0.405028 -0.606167 0)
(-0.37708 -0.564341 0)
(-0.352717 -0.527878 0)
(-0.33129 -0.495811 0)
(-0.3123 -0.467389 0)
(-0.295352 -0.442026 0)
(-0.280136 -0.419254 0)
(-0.266399 -0.398695 0)
(-0.253935 -0.380041 0)
(-0.242586 -0.363056 0)
(-0.23215 -0.347437 0)
(-0.222727 -0.333335 0)
(-0.867317 -1.5487 0)
(-0.736652 -1.31538 0)
(-0.639415 -1.14176 0)
(-0.564834 -1.00858 0)
(-0.505743 -0.903069 0)
(-0.457787 -0.817438 0)
(-0.418095 -0.746562 0)
(-0.384702 -0.686935 0)
(-0.35622 -0.636076 0)
(-0.33164 -0.592186 0)
(-0.310213 -0.553925 0)
(-0.291368 -0.520275 0)
(-0.274666 -0.490451 0)
(-0.259761 -0.463837 0)
(-0.246378 -0.43994 0)
(-0.234297 -0.418367 0)
(-0.223335 -0.398793 0)
(-0.213353 -0.38097 0)
(-0.204175 -0.36458 0)
(-0.195887 -0.349782 0)
(-0.743135 -1.61198 0)
(-0.631178 -1.36913 0)
(-0.547863 -1.1884 0)
(-0.48396 -1.04979 0)
(-0.43333 -0.939965 0)
(-0.392241 -0.850835 0)
(-0.358232 -0.777064 0)
(-0.32962 -0.715001 0)
(-0.305216 -0.662064 0)
(-0.284155 -0.616381 0)
(-0.265796 -0.576556 0)
(-0.24965 -0.541532 0)
(-0.235339 -0.51049 0)
(-0.222568 -0.482788 0)
(-0.211102 -0.457915 0)
(-0.20075 -0.43546 0)
(-0.191357 -0.415086 0)
(-0.182805 -0.396535 0)
(-0.174941 -0.379476 0)
(-0.16784 -0.364073 0)
(-0.614371 -1.66531 0)
(-0.521812 -1.41443 0)
(-0.452933 -1.22773 0)
(-0.400103 -1.08452 0)
(-0.358246 -0.971066 0)
(-0.324276 -0.878987 0)
(-0.29616 -0.802775 0)
(-0.272505 -0.738658 0)
(-0.25233 -0.68397 0)
(-0.234919 -0.636776 0)
(-0.219741 -0.595633 0)
(-0.206392 -0.55945 0)
(-0.194561 -0.52738 0)
(-0.184003 -0.498762 0)
(-0.174523 -0.473066 0)
(-0.165965 -0.449868 0)
(-0.1582 -0.42882 0)
(-0.15113 -0.409655 0)
(-0.144628 -0.392032 0)
(-0.138758 -0.376119 0)
(-0.481819 -1.70838 0)
(-0.409229 -1.45101 0)
(-0.35521 -1.25948 0)
(-0.313778 -1.11257 0)
(-0.280952 -0.996181 0)
(-0.254311 -0.90172 0)
(-0.232262 -0.823537 0)
(-0.213711 -0.757762 0)
(-0.197888 -0.701659 0)
(-0.184234 -0.653244 0)
(-0.17233 -0.611038 0)
(-0.161862 -0.573919 0)
(-0.152583 -0.54102 0)
(-0.144303 -0.511661 0)
(-0.136869 -0.485301 0)
(-0.130157 -0.461503 0)
(-0.124068 -0.439911 0)
(-0.118523 -0.42025 0)
(-0.113424 -0.40217 0)
(-0.10882 -0.385847 0)
(-0.346295 -1.74092 0)
(-0.294123 -1.47864 0)
(-0.255298 -1.28346 0)
(-0.22552 -1.13376 0)
(-0.201927 -1.01515 0)
(-0.182779 -0.918894 0)
(-0.166932 -0.839222 0)
(-0.153599 -0.772193 0)
(-0.142227 -0.715023 0)
(-0.132413 -0.665685 0)
(-0.123858 -0.622675 0)
(-0.116334 -0.584849 0)
(-0.109665 -0.551324 0)
(-0.103714 -0.521406 0)
(-0.0983708 -0.494543 0)
(-0.093547 -0.470293 0)
(-0.0891702 -0.448289 0)
(-0.0851849 -0.428253 0)
(-0.0815202 -0.40983 0)
(-0.0782113 -0.393195 0)
(-0.208636 -1.76273 0)
(-0.177202 -1.49716 0)
(-0.153811 -1.29954 0)
(-0.13587 -1.14796 0)
(-0.121656 -1.02787 0)
(-0.11012 -0.930402 0)
(-0.100572 -0.849732 0)
(-0.0925397 -0.781864 0)
(-0.0856883 -0.723977 0)
(-0.0797757 -0.674022 0)
(-0.0746214 -0.630473 0)
(-0.0700883 -0.592174 0)
(-0.0660706 -0.558228 0)
(-0.0624853 -0.527936 0)
(-0.0592661 -0.500737 0)
(-0.0563599 -0.476182 0)
(-0.053723 -0.453903 0)
(-0.0513219 -0.433617 0)
(-0.049114 -0.414963 0)
(-0.0471205 -0.398119 0)
(-0.0696895 -1.77366 0)
(-0.0591892 -1.50645 0)
(-0.051376 -1.3076 0)
(-0.0453834 -1.15508 0)
(-0.0406355 -1.03424 0)
(-0.0367823 -0.936174 0)
(-0.0335931 -0.855003 0)
(-0.03091 -0.786714 0)
(-0.0286215 -0.728469 0)
(-0.0266466 -0.678203 0)
(-0.0249249 -0.634385 0)
(-0.0234108 -0.595847 0)
(-0.0220688 -0.561691 0)
(-0.0208713 -0.531211 0)
(-0.019796 -0.503843 0)
(-0.0188253 -0.479136 0)
(-0.0179445 -0.456719 0)
(-0.0171425 -0.436307 0)
(-0.016405 -0.417537 0)
(-0.0157392 -0.400589 0)
(1.77366 -0.0696895 0)
(1.76272 -0.208636 0)
(1.74092 -0.346295 0)
(1.70838 -0.481818 0)
(1.66531 -0.61437 0)
(1.61197 -0.743134 0)
(1.5487 -0.867316 0)
(1.47588 -0.986151 0)
(1.39395 -1.09891 0)
(1.30344 -1.20489 0)
(1.20489 -1.30344 0)
(1.09891 -1.39395 0)
(0.986152 -1.47588 0)
(0.867317 -1.5487 0)
(0.743134 -1.61197 0)
(0.61437 -1.66531 0)
(0.481818 -1.70838 0)
(0.346295 -1.74092 0)
(0.208636 -1.76273 0)
(0.0696894 -1.77366 0)
(1.50645 -0.0591892 0)
(1.49716 -0.177202 0)
(1.47864 -0.294122 0)
(1.45101 -0.409229 0)
(1.41443 -0.521812 0)
(1.36913 -0.631178 0)
(1.31538 -0.736652 0)
(1.25353 -0.837584 0)
(1.18395 -0.933353 0)
(1.10707 -1.02337 0)
(1.02337 -1.10707 0)
(0.933353 -1.18395 0)
(0.837584 -1.25353 0)
(0.736652 -1.31538 0)
(0.631178 -1.36913 0)
(0.521812 -1.41443 0)
(0.409229 -1.45101 0)
(0.294122 -1.47864 0)
(0.177202 -1.49716 0)
(0.0591891 -1.50645 0)
(1.3076 -0.051376 0)
(1.29954 -0.153811 0)
(1.28346 -0.255298 0)
(1.25948 -0.35521 0)
(1.22772 -0.452932 0)
(1.1884 -0.547862 0)
(1.14175 -0.639414 0)
(1.08807 -0.727024 0)
(1.02767 -0.810151 0)
(0.96094 -0.888284 0)
(0.888284 -0.96094 0)
(0.810151 -1.02767 0)
(0.727024 -1.08807 0)
(0.639414 -1.14175 0)
(0.547862 -1.1884 0)
(0.452933 -1.22772 0)
(0.35521 -1.25948 0)
(0.255298 -1.28346 0)
(0.153811 -1.29954 0)
(0.051376 -1.3076 0)
(1.15508 -0.0453835 0)
(1.14796 -0.13587 0)
(1.13376 -0.22552 0)
(1.11257 -0.313778 0)
(1.08452 -0.400102 0)
(1.04979 -0.48396 0)
(1.00858 -0.564833 0)
(0.961156 -0.642224 0)
(0.907805 -0.715656 0)
(0.848857 -0.784675 0)
(0.784675 -0.848857 0)
(0.715656 -0.907805 0)
(0.642224 -0.961156 0)
(0.564833 -1.00858 0)
(0.48396 -1.04979 0)
(0.400103 -1.08452 0)
(0.313778 -1.11257 0)
(0.22552 -1.13376 0)
(0.13587 -1.14796 0)
(0.0453834 -1.15508 0)
(1.03424 -0.0406356 0)
(1.02787 -0.121656 0)
(1.01515 -0.201927 0)
(0.99618 -0.280952 0)
(0.971066 -0.358245 0)
(0.939964 -0.43333 0)
(0.903068 -0.505743 0)
(0.860604 -0.575038 0)