/*--------------------------------*- C++ -*----------------------------------*\
| =========                 |                                                 |
| \\      /  F ield         | foam-extend: Open Source CFD                    |
|  \\    /   O peration     | Version:  3.0                                   |
|   \\  /    A nd           | Web:         http://www.extend-project.de       |
|    \\/     M anipulation  |                                                 |
\*---------------------------------------------------------------------------*/
FoamFile
{
    version     2.0;
    format      ascii;
    class       volScalarField;
    location    "24";
    object      p;
}
// * * * * * * * * * * * * * * * * * * * * * * * * * * * * * * * * * * * * * //

dimensions      [0 0 0 0 0 0 0];

internalField   nonuniform List<scalar> 
480
(
-0.243295
-0.200905
-0.19111
-0.171771
-0.171078
-0.161808
-0.163812
-0.158775
-0.159272
-0.153742
-0.239081
-0.19743
-0.187808
-0.168806
-0.168129
-0.159022
-0.160994
-0.156046
-0.156537
-0.151102
-0.230883
-0.190658
-0.181363
-0.163011
-0.162355
-0.153559
-0.155461
-0.150682
-0.151155
-0.145906
-0.218629
-0.180543
-0.171746
-0.154372
-0.153755
-0.145428
-0.147233
-0.14271
-0.14316
-0.13819
-0.202741
-0.167422
-0.159262
-0.143149
-0.142575
-0.134852
-0.136525
-0.13233
-0.132747
-0.128137
-0.183277
-0.151355
-0.143982
-0.129421
-0.128906
-0.121929
-0.123445
-0.119655
-0.120035
-0.115868
-0.160784
-0.132779
-0.12631
-0.113535
-0.113082
-0.106961
-0.10829
-0.104965
-0.105298
-0.101641
-0.135434
-0.11185
-0.106406
-0.09565
-0.095273
-0.0901206
-0.0912451
-0.0884468
-0.0887305
-0.0856501
-0.107873
-0.0890883
-0.0847511
-0.0761838
-0.075883
-0.0717793
-0.072675
-0.0704462
-0.0706724
-0.0682178
-0.0783584
-0.0647205
-0.0615749
-0.0553569
-0.0551434
-0.0521668
-0.0528224
-0.0512065
-0.0513745
-0.0495909
-0.0476092
-0.0393251
-0.0374142
-0.0336376
-0.0335087
-0.0317015
-0.0321013
-0.0311204
-0.0312238
-0.0301387
-0.0159385
-0.013175
-0.0125419
-0.0112849
-0.0112486
-0.01065
-0.010791
-0.010467
-0.0105072
-0.0101425
0.0158996
0.0131208
0.0124763
0.0112063
0.0111559
0.0105445
0.0106692
0.0103363
0.0103637
0.0100047
0.0475725
0.0392742
0.0373527
0.0335638
0.0334216
0.0316025
0.031987
0.0309977
0.0310892
0.0300094
0.078326
0.0646759
0.0615211
0.0552925
0.0550674
0.0520804
0.0527227
0.0510994
0.051257
0.0494779
0.107846
0.0890527
0.0847083
0.0761327
0.0758228
0.0717108
0.0725959
0.0703613
0.0705792
0.0681279
0.135415
0.111826
0.106377
0.0956153
0.0952321
0.0900741
0.0911914
0.0883891
0.0886671
0.0855886
0.160774
0.132767
0.126296
0.113519
0.113063
0.106939
0.108265
0.104938
0.105268
0.101612
0.183276
0.151356
0.143985
0.129424
0.12891
0.121933
0.12345
0.11966
0.12004
0.115871
0.202748
0.167435
0.159279
0.143171
0.1426
0.134882
0.136559
0.132366
0.132786
0.128174
0.218645
0.180569
0.171778
0.154412
0.153801
0.145481
0.147294
0.142774
0.14323
0.138256
0.230906
0.190694
0.181408
0.163065
0.162418
0.15363
0.155544
0.15077
0.151251
0.145997
0.23911
0.197474
0.187862
0.168872
0.168205
0.159108
0.161093
0.156152
0.156653
0.151213
0.243328
0.200955
0.191171
0.171843
0.171163
0.161903
0.163921
0.158892
0.1594
0.153863
0.243276
0.200916
0.191137
0.171816
0.171139
0.161885
0.163905
0.158878
0.159388
0.153853
0.239167
0.197518
0.187901
0.168905
0.168236
0.159135
0.161118
0.156175
0.156674
0.151233
0.230859
0.19066
0.18138
0.163045
0.162402
0.153619
0.155536
0.150765
0.151249
0.145997
0.218707
0.180619
0.171824
0.154451
0.153838
0.145514
0.147327
0.142806
0.143261
0.138286
0.202706
0.167406
0.159257
0.143156
0.14259
0.134877
0.136558
0.132369
0.132792
0.128181
0.183342
0.151409
0.144034
0.129468
0.128952
0.121972
0.123489
0.119698
0.120078
0.115908
0.160735
0.132741
0.126277
0.113508
0.113057
0.106939
0.108269
0.104946
0.10528
0.101625
0.135484
0.111883
0.10643
0.0956623
0.0952781
0.0901175
0.091235
0.0884315
0.0887097
0.0856298
0.10781
0.0890293
0.0846916
0.0761244
0.0758195
0.0717135
0.0726031
0.0703727
0.0705943
0.0681447
0.0783968
0.0647342
0.0615754
0.055341
0.055115
0.0521254
0.0527679
0.0511435
0.0513014
0.049521
0.0475372
0.0392517
0.0373368
0.0335561
0.033419
0.0316058
0.0319947
0.0310096
0.0311048
0.0300268
0.0159708
0.0131793
0.0125306
0.0112548
0.0112031
0.010589
0.0107139
0.0103797
0.0104074
0.0100472
-0.015974
-0.013198
-0.0125585
-0.0112935
-0.0112524
-0.010648
-0.0107849
-0.0104568
-0.0104934
-0.0101268
-0.0475388
-0.0392677
-0.0373613
-0.0335907
-0.0334633
-0.031659
-0.0320591
-0.0310795
-0.031183
-0.030099
-0.0783953
-0.064745
-0.0615934
-0.0553676
-0.0551496
-0.0521676
-0.0528195
-0.0511997
-0.0513645
-0.0495789
-0.107804
-0.089033
-0.0847005
-0.0761396
-0.0758408
-0.0717402
-0.0726366
-0.0704095
-0.070636
-0.0681824
-0.135473
-0.111877
-0.106427
-0.0956637
-0.0952827
-0.0901252
-0.0912464
-0.0884446
-0.0887254
-0.0856429
-0.160719
-0.132726
-0.126263
-0.113494
-0.113044
-0.106926
-0.108257
-0.104933
-0.105267
-0.101611
-0.18332
-0.151385
-0.144007
-0.129439
-0.12892
-0.121938
-0.123451
-0.119658
-0.120035
-0.115866
-0.202678
-0.167372
-0.159218
-0.143112
-0.14254
-0.134822
-0.136496
-0.132303
-0.132721
-0.128113
-0.218675
-0.180577
-0.171774
-0.154394
-0.153772
-0.145441
-0.147244
-0.142718
-0.143166
-0.138194
-0.230824
-0.190612
-0.181323
-0.162978
-0.162325
-0.153532
-0.155437
-0.15066
-0.151134
-0.145887
-0.239131
-0.197467
-0.18784
-0.168832
-0.168151
-0.159039
-0.161009
-0.156059
-0.156547
-0.151111
-0.24324
-0.200864
-0.191074
-0.171742
-0.171052
-0.161786
-0.163792
-0.158758
-0.159256
-0.153727
)
;

boundaryField
{
    out
    {
        type            implicitExtrapolation;
    }
    in
    {
        type            implicitExtrapolation;
    }
    frontAndBack
    {
        type            empty;
    }
}


// ************************************************************************* //
