/*--------------------------------*- C++ -*----------------------------------*\
| =========                 |                                                 |
| \\      /  F ield         | foam-extend: Open Source CFD                    |
|  \\    /   O peration     | Version:  3.0                                   |
|   \\  /    A nd           | Web:         http://www.extend-project.de       |
|    \\/     M anipulation  |                                                 |
\*---------------------------------------------------------------------------*/
FoamFile
{
    version     2.0;
    format      ascii;
    class       volSymmTensorField;
    location    "24";
    object      sigma;
}
// * * * * * * * * * * * * * * * * * * * * * * * * * * * * * * * * * * * * * //

dimensions      [0 0 0 0 0 0 0];

internalField   nonuniform List<symmTensor> 
480
(
(-0.164008 -0.0121806 2.36728e-20 0.164007 -3.76939e-21 3.11709e-07)
(-0.146676 -0.0137988 1.06112e-19 0.146676 -3.38893e-20 7.52939e-07)
(-0.12422 -0.013197 1.04921e-19 0.124218 1.74973e-19 1.17371e-06)
(-0.102116 -0.0118874 -7.17761e-20 0.102115 1.21243e-19 1.62601e-06)
(-0.0820459 -0.0104313 1.18785e-19 0.0820438 -2.04819e-19 2.1176e-06)
(-0.0644149 -0.00906199 4.03309e-19 0.0644123 -8.78961e-20 2.60935e-06)
(-0.0492915 -0.00786911 3.90743e-19 0.0492885 -1.8611e-19 3.02004e-06)
(-0.0368312 -0.00692896 4.78135e-20 0.0368281 -4.49234e-20 3.17076e-06)
(-0.0271455 -0.00626785 4.87993e-19 0.0271427 -7.30943e-19 2.79649e-06)
(-0.0207987 -0.00597936 5.41678e-20 0.0207973 -1.84733e-19 1.41674e-06)
(-0.159734 -0.0360824 1.37278e-21 0.159734 -1.3147e-20 4.13267e-07)
(-0.139934 -0.0402932 1.58749e-19 0.139933 -1.14655e-19 1.00331e-06)
(-0.117003 -0.0382673 3.48656e-19 0.117002 -1.86367e-19 1.54442e-06)
(-0.0951616 -0.0342729 -2.57854e-20 0.0951595 -1.63529e-19 2.08691e-06)
(-0.075606 -0.0298878 -2.13522e-19 0.0756033 -1.98329e-19 2.63484e-06)
(-0.0585276 -0.0257622 2.2242e-19 0.0585245 -1.82838e-20 3.14569e-06)
(-0.0439095 -0.0221417 3.36099e-19 0.043906 -2.27966e-19 3.5305e-06)
(-0.0318394 -0.0192361 7.76558e-20 0.0318358 -1.81956e-19 3.60574e-06)
(-0.0224093 -0.0171156 -5.34034e-19 0.0224062 -5.17871e-19 3.10223e-06)
(-0.0161376 -0.015998 1.48355e-19 0.0161361 2.92165e-19 1.5335e-06)
(-0.15148 -0.0585333 -5.21225e-20 0.151479 -4.58682e-20 5.12967e-07)
(-0.127213 -0.0637015 -4.16559e-21 0.127212 -2.46362e-19 1.24503e-06)
(-0.103479 -0.0598026 1.99158e-20 0.103477 -2.14514e-19 1.89022e-06)
(-0.0821815 -0.0531289 -1.456e-19 0.082179 -2.19948e-20 2.50077e-06)
(-0.0636291 -0.0459905 -1.89496e-19 0.063626 3.55355e-19 3.08179e-06)
(-0.0476192 -0.0393257 3.68135e-19 0.0476156 1.38785e-19 3.58885e-06)
(-0.0339786 -0.0334846 9.29142e-20 0.0339746 -3.72744e-20 3.93346e-06)
(-0.0226712 -0.02877 -1.7713e-19 0.0226673 -1.30389e-19 3.93118e-06)
(-0.0137541 -0.0252855 -1.3751e-19 0.0137507 6.15177e-19 3.31592e-06)
(-0.00766599 -0.023351 6.46967e-19 0.00766439 -4.77912e-19 1.6071e-06)
(-0.139799 -0.0787347 -1.61322e-19 0.139799 -1.25169e-20 5.99388e-07)
(-0.10992 -0.0824333 -4.18838e-19 0.109919 2.30353e-19 1.45314e-06)
(-0.0853072 -0.0760053 2.48221e-20 0.085305 3.31159e-19 2.18525e-06)
(-0.0648587 -0.0666735 2.34111e-19 0.0648559 2.92529e-19 2.84683e-06)
(-0.0477304 -0.0570556 8.37903e-20 0.047727 4.12425e-19 3.44424e-06)
(-0.0332131 -0.0481863 1.38376e-19 0.0332092 -1.06084e-19 3.93288e-06)
(-0.0209327 -0.0404432 2.62528e-19 0.0209285 -8.52499e-20 4.22652e-06)
(-0.0106938 -0.0341622 3.6253e-19 0.0106897 -1.2284e-20 4.14565e-06)
(-0.00250767 -0.0294642 1.93267e-19 0.00250424 -6.27265e-19 3.43549e-06)
(0.00328944 -0.0267396 -8.80305e-19 -0.00329108 9.30727e-20 1.63521e-06)
(-0.125434 -0.0961168 3.16068e-20 0.125433 -1.5677e-20 6.72375e-07)
(-0.0899063 -0.0955244 -3.3571e-19 0.0899047 5.58698e-19 1.62783e-06)
(-0.0646679 -0.0858251 -2.56455e-19 0.0646655 5.99272e-19 2.42878e-06)
(-0.0453976 -0.0738856 -2.36148e-20 0.0453945 4.10304e-19 3.12464e-06)
(-0.0300239 -0.0621322 4.14963e-19 0.0300202 -1.28774e-19 3.72231e-06)
(-0.0173017 -0.0514713 3.44464e-20 0.0172975 -5.46856e-19 4.17837e-06)
(-0.00664566 -0.0422174 4.86971e-19 0.00664125 -8.99103e-19 4.41202e-06)
(0.0023081 -0.0346695 -2.6589e-19 -0.00231236 -7.60124e-19 4.25419e-06)
(0.00959774 -0.0289469 -1.76727e-19 -0.00960121 -7.15971e-19 3.46722e-06)
(0.0149998 -0.0254733 5.22516e-19 -0.0150014 3.27718e-19 1.62218e-06)
(-0.109216 -0.110382 6.88131e-20 0.109215 1.68054e-19 7.31825e-07)
(-0.0691972 -0.102751 3.48157e-19 0.0691955 3.83818e-19 1.76923e-06)
(-0.0439356 -0.0890944 3.2009e-19 0.043933 3.08242e-19 2.62262e-06)
(-0.0261961 -0.0746425 1.99577e-19 0.0261928 -6.21699e-20 3.33775e-06)
(-0.0128059 -0.0611345 -6.31512e-20 0.012802 -7.50533e-19 3.92234e-06)
(-0.00204632 -0.0491258 -5.558e-19 0.00204198 -1.10503e-18 4.33507e-06)
(0.00685212 -0.0387788 -1.13854e-18 -0.00685662 -5.49954e-19 4.50254e-06)
(0.014403 -0.030286 9.4048e-20 -0.0144072 -4.794e-19 4.27058e-06)
(0.0206896 -0.023746 -1.11958e-18 -0.020693 -2.78709e-19 3.42413e-06)
(0.0255979 -0.019579 5.10501e-19 -0.0255995 -3.87471e-19 1.57455e-06)
(-0.0919634 -0.121512 -3.82361e-20 0.0919626 2.33259e-19 7.78429e-07)
(-0.0497017 -0.104634 5.93458e-19 0.0496998 5.02914e-20 1.87995e-06)
(-0.0253326 -0.0865315 8.21591e-19 0.0253298 -2.80217e-19 2.77077e-06)
(-0.00949037 -0.0697221 6.41567e-19 0.00948688 -7.59741e-19 3.49259e-06)
(0.00178763 -0.0548433 -4.02287e-19 -0.00179168 -9.05515e-19 4.05316e-06)
(0.0105468 -0.0419144 -1.02164e-18 -0.0105512 -5.59695e-19 4.41428e-06)
(0.0176801 -0.0308716 -1.25145e-18 -0.0176846 2.2881e-19 4.51118e-06)
(0.0238053 -0.0217432 -6.95427e-19 -0.0238095 -3.6771e-19 4.20787e-06)
(0.0290401 -0.014591 -1.6012e-18 -0.0290434 3.25776e-19 3.31626e-06)
(0.0333633 -0.00979978 2.42363e-19 -0.0333648 -1.20633e-19 1.49654e-06)
(-0.0743856 -0.129729 9.51646e-20 0.0743848 -1.44343e-20 8.13286e-07)
(-0.0329429 -0.102332 2.70382e-19 0.0329409 -2.06465e-19 1.96203e-06)
(-0.0106066 -0.0796102 1.93024e-19 0.0106038 -3.96115e-19 2.87705e-06)
(0.00297379 -0.0606695 -1.15105e-19 -0.00297739 -4.96693e-19 3.59494e-06)
(0.0120978 -0.0447766 -6.63122e-19 -0.0121019 -2.38456e-19 4.12345e-06)
(0.0189267 -0.0312975 -6.57022e-19 -0.0189311 4.88982e-20 4.42765e-06)
(0.0243907 -0.0198955 -5.31247e-19 -0.0243951 1.57803e-19 4.45237e-06)
(0.0291465 -0.0103979 -5.75657e-19 -0.0291506 1.76888e-19 4.08184e-06)
(0.0333298 -0.00281905 -3.38414e-19 -0.0333329 -7.25815e-20 3.15816e-06)
(0.0369861 0.00251446 -1.10873e-18 -0.0369875 1.42494e-19 1.39585e-06)
(-0.0570069 -0.135435 -3.14687e-20 0.0570061 -6.47883e-20 8.36797e-07)
(-0.0198513 -0.0974377 -2.58854e-19 0.0198493 -1.50743e-19 2.01753e-06)
(-0.000782995 -0.0703169 -4.82866e-19 0.00078005 -1.02905e-19 2.94506e-06)
(0.0101932 -0.0495476 -4.11255e-19 -0.0101968 4.66164e-20 3.65077e-06)
(0.0171856 -0.0329491 -2.9228e-20 -0.0171897 3.23399e-20 4.14161e-06)
(0.0222275 -0.0192031 -4.04932e-19 -0.0222319 3.28045e-20 4.3863e-06)
(0.0261863 -0.00768964 -3.41977e-19 -0.0261907 6.70848e-20 4.33938e-06)
(0.0296821 0.00197486 -3.23661e-19 -0.029686 1.94498e-19 3.90646e-06)
(0.0328491 0.00982749 -5.67249e-20 -0.0328521 -8.12685e-20 2.96162e-06)
(0.0357686 0.0156099 -5.72046e-19 -0.0357699 3.18498e-19 1.27762e-06)
(-0.0401241 -0.139117 -5.08351e-20 0.0401232 -4.70872e-20 8.50194e-07)
(-0.0106505 -0.0917189 -1.4018e-19 0.0106484 -1.62151e-19 2.04923e-06)
(0.00397053 -0.0608326 -6.88076e-19 -0.00397351 -2.86403e-20 2.97977e-06)
(0.0120446 -0.0386123 -6.31533e-19 -0.0120483 1.46872e-19 3.66742e-06)
(0.0169645 -0.021557 -4.33542e-19 -0.0169686 2.00935e-19 4.11811e-06)
(0.0203934 -0.00772843 -6.07319e-20 -0.0203977 1.38013e-19 4.30379e-06)
(0.0230371 0.00374988 -3.47476e-19 -0.0230413 1.42741e-19 4.18854e-06)
(0.025404 0.0134527 -1.34992e-20 -0.0254077 3.34451e-19 3.69924e-06)
(0.0276078 0.0214646 5.55182e-19 -0.0276106 3.24652e-20 2.74248e-06)
(0.0297338 0.0275927 -1.09687e-19 -0.0297349 -1.44216e-20 1.15017e-06)
(-0.0238012 -0.141252 -5.85875e-20 0.0238004 -3.08909e-20 8.54202e-07)
(-0.00485346 -0.0868276 -1.02999e-19 0.0048514 -1.0766e-19 2.05978e-06)
(0.00434663 -0.0531874 -3.67358e-19 -0.00434961 -1.21139e-20 2.98579e-06)
(0.00928704 -0.0299588 -2.7179e-19 -0.00929069 1.18653e-19 3.65192e-06)
(0.0122016 -0.0126376 -2.79802e-19 -0.0122056 1.22871e-19 4.06225e-06)
(0.0141794 0.00118395 -4.48418e-19 -0.0141836 9.97811e-20 4.19169e-06)
(0.0156814 0.0125761 -4.15179e-19 -0.0156854 1.85294e-19 4.01295e-06)
(0.017041 0.0222585 -1.13764e-19 -0.0170445 2.99009e-19 3.4734e-06)
(0.0183347 0.0303524 4.06628e-19 -0.0183372 5.39796e-20 2.51152e-06)
(0.0196255 0.0367154 -3.74832e-20 -0.0196265 -1.90655e-20 1.01806e-06)
(-0.00790335 -0.142219 -7.93536e-20 0.0079025 -1.60678e-20 8.50273e-07)
(-0.00136933 -0.0840371 -1.45461e-19 0.00136728 -7.3834e-20 2.05248e-06)
(0.0017687 -0.0489419 -2.90172e-19 -0.00177167 -1.24538e-20 2.96847e-06)
(0.00342823 -0.0251957 -3.84526e-19 -0.00343184 1.1247e-19 3.61168e-06)
(0.0043885 -0.00775365 -3.75786e-19 -0.00439249 1.06067e-19 3.98387e-06)
(0.00502856 0.00604472 -3.52595e-19 -0.00503263 8.7262e-20 4.06202e-06)
(0.00550903 0.017374 -1.68247e-19 -0.00551285 1.64558e-19 3.82653e-06)
(0.00594624 0.0270318 -1.12903e-19 -0.00594948 2.6134e-19 3.24348e-06)
(0.00636825 0.0351593 2.8725e-19 -0.00637054 9.7335e-20 2.28173e-06)
(0.00679844 0.0416411 1.56355e-19 -0.00679933 -2.34535e-20 8.882e-07)
(0.00783846 -0.142223 -7.68422e-20 -0.0078393 -4.907e-21 8.39004e-07)
(0.00129708 -0.0840388 -2.11816e-19 -0.0012991 -6.22685e-20 2.02928e-06)
(-0.00185103 -0.0489422 -1.79679e-19 0.0018481 -2.34696e-20 2.93103e-06)
(-0.00352324 -0.025195 -3.22426e-19 0.00351968 1.08785e-19 3.55131e-06)
(-0.00449858 -0.0077521 -4.28958e-19 0.00449469 1.03711e-19 3.88877e-06)
(-0.00515581 0.00604695 -3.0894e-19 0.00515189 6.31749e-20 3.92178e-06)
(-0.00565422 0.0173769 -2.79434e-20 0.00565058 1.14549e-19 3.63695e-06)
(-0.00610925 0.0270354 -1.63858e-19 0.00610623 2.15315e-19 3.01712e-06)
(-0.00654537 0.035164 6.47326e-20 0.00654331 8.34142e-20 2.05924e-06)
(-0.00698437 0.0416459 1.71445e-19 0.0069836 -2.59776e-20 7.6303e-07)
(0.0237399 -0.141262 -9.12221e-20 -0.0237407 9.59116e-21 8.21421e-07)
(0.00478278 -0.0868322 -2.51987e-19 -0.00478477 -5.4427e-20 1.99217e-06)
(-0.00442869 -0.0531883 -2.99005e-20 0.00442581 -4.27777e-20 2.87633e-06)
(-0.00938277 -0.0299569 -5.26638e-20 0.00937929 1.04383e-19 3.47446e-06)
(-0.0123132 -0.0126334 -5.32708e-19 0.0123094 9.62219e-20 3.78157e-06)
(-0.0143088 0.00119006 -3.34474e-19 0.014305 4.85942e-20 3.77648e-06)
(-0.0158294 0.0125842 -2.49583e-19 0.015826 3.88232e-20 3.45071e-06)
(-0.0172075 0.0222684 1.88925e-19 0.0172047 1.68138e-19 2.80135e-06)
(-0.0185164 0.0303654 -4.13166e-19 0.0185145 7.207e-20 1.85072e-06)
(-0.019816 0.0367285 7.61743e-20 0.0198153 -1.45536e-20 6.46531e-07)
(0.0400688 -0.13913 -3.846e-20 -0.0400696 4.34969e-20 7.97373e-07)
(0.0105825 -0.0917253 -2.82531e-19 -0.0105845 -1.66508e-20 1.94102e-06)
(-0.00405213 -0.0608339 -3.92232e-19 0.00404932 -9.32232e-20 2.80407e-06)
(-0.0121416 -0.0386098 -2.88471e-19 0.0121382 1.05686e-20 3.38064e-06)
(-0.0170787 -0.0215512 -3.96369e-19 0.0170751 6.5106e-20 3.66153e-06)
(-0.0205266 -0.00772002 -1.10299e-19 0.0205229 5.58059e-20 3.62532e-06)
(-0.0231901 0.00376106 -1.84104e-19 0.0231869 5.29342e-20 3.267e-06)
(-0.0255766 0.0134664 -5.89765e-20 0.025574 6.76353e-20 2.59559e-06)
(-0.0277974 0.0214826 -1.79444e-19 0.0277958 -6.27171e-20 1.65576e-06)
(-0.0299322 0.027611 3.53672e-19 0.0299317 1.23645e-20 5.38313e-07)
(0.0569587 -0.135449 -4.5387e-20 -0.0569594 5.36164e-20 7.67145e-07)
(0.0197866 -0.0974444 -4.50214e-19 -0.0197884 -5.38258e-20 1.87572e-06)
(0.000701986 -0.0703184 -1.38269e-19 -0.000704699 -1.12329e-19 2.71358e-06)
(-0.0102915 -0.0495451 1.12944e-19 0.0102882 -2.27347e-20 3.26848e-06)
(-0.0173028 -0.0329433 1.47947e-19 0.0172993 2.05826e-19 3.52673e-06)
(-0.022365 -0.0191946 -2.87386e-19 0.0223616 1.64453e-19 3.466e-06)
(-0.0263451 -0.00767821 -2.97515e-19 0.026342 -9.49882e-20 3.08366e-06)
(-0.0298616 0.00198894 4.78344e-21 0.0298592 -1.19758e-19 2.39831e-06)
(-0.0330479 0.009846 1.86705e-20 0.0330465 1.89298e-20 1.47398e-06)
(-0.0359763 0.0156289 -6.91603e-19 0.0359758 7.96499e-20 4.39087e-07)
(0.0743434 -0.12974 4.78254e-20 -0.0743442 -3.42193e-20 7.29794e-07)
(0.032881 -0.102337 2.21239e-19 -0.0328828 9.61622e-20 1.79407e-06)
(0.0105262 -0.0796116 1.63522e-19 -0.0105288 1.11883e-19 2.60116e-06)
(-0.00307323 -0.0606678 3.92961e-20 0.0030701 9.45368e-20 3.1327e-06)
(-0.0122176 -0.0447723 4.31685e-20 0.0122142 1.7032e-19 3.37031e-06)
(-0.0190679 -0.031291 -5.68982e-19 0.0190646 2.21569e-19 3.29052e-06)
(-0.0245545 -0.0198866 -8.01782e-19 0.0245516 -3.14797e-19 2.89208e-06)
(-0.0293322 -0.0103869 -4.4826e-19 0.02933 1.90758e-19 2.20134e-06)
(-0.0335367 -0.00280449 -1.43973e-18 0.0335354 -6.15368e-19 1.29889e-06)
(-0.0372021 0.00252971 9.09519e-19 0.0372017 2.12824e-20 3.45813e-07)
(0.0919248 -0.121517 -1.07967e-19 -0.0919255 -2.98627e-19 6.85068e-07)
(0.0496416 -0.104637 4.9173e-19 -0.0496433 -1.34791e-19 1.69446e-06)
(0.0252527 -0.0865327 5.38281e-19 -0.0252552 5.53853e-20 2.4636e-06)
(0.00939041 -0.0697218 3.68856e-19 -0.00939338 3.63323e-19 2.96829e-06)
(-0.00190885 -0.0548415 -4.97723e-19 0.00190566 3.28015e-19 3.18563e-06)
(-0.0106902 -0.0419115 -8.71012e-19 0.0106871 5.08844e-19 3.09089e-06)
(-0.0178468 -0.0308673 -1.50412e-18 0.0178442 -7.37623e-21 2.68377e-06)
(-0.0239947 -0.0217377 -1.85193e-19 0.0239927 -7.68054e-20 1.99683e-06)
(-0.0292521 -0.0145837 -1.18238e-18 0.0292509 2.5968e-19 1.12487e-06)
(-0.0335844 -0.00979166 -4.24191e-19 0.0335842 -6.46193e-19 2.5676e-07)
(0.109177 -0.110381 -3.39421e-20 -0.109178 -1.95087e-19 6.31613e-07)
(0.0691375 -0.102751 2.36687e-20 -0.069139 -4.27025e-19 1.57361e-06)
(0.043856 -0.0890953 -6.18369e-20 -0.0438583 -5.03124e-19 2.29547e-06)
(0.0260964 -0.0746436 -1.30078e-19 -0.0260992 -1.84965e-19 2.76752e-06)
(0.0126849 -0.0611356 -5.72719e-19 -0.0126878 2.86369e-19 2.96262e-06)
(0.00190294 -0.049127 -4.67274e-19 -0.00190579 4.42466e-19 2.85521e-06)
(-0.00701902 -0.0387799 1.55185e-19 0.00701657 7.69452e-19 2.44571e-06)
(-0.0145928 -0.030287 -3.86252e-19 0.014591 4.46095e-19 1.77221e-06)
(-0.0209022 -0.0237473 -4.27987e-19 0.0209012 1.05632e-18 9.41747e-07)
(-0.0258199 -0.0195793 -5.05231e-19 0.0258197 -6.38515e-19 1.67173e-07)
(0.125392 -0.0961097 -1.3375e-20 -0.125393 2.52329e-20 5.69139e-07)
(0.0898454 -0.0955221 -5.14834e-19 -0.0898468 -3.09696e-19 1.42973e-06)
(0.0645885 -0.0858255 -8.32076e-19 -0.0645906 -6.378e-19 2.09316e-06)
(0.045299 -0.0738878 -5.77395e-19 -0.0453015 -5.38608e-19 2.52467e-06)
(0.0299046 -0.0621358 7.69436e-20 -0.0299073 1.5956e-19 2.69357e-06)
(0.0171605 -0.0514759 4.80375e-19 -0.0171631 3.4553e-19 2.57399e-06)
(0.00648145 -0.0422231 5.76712e-19 -0.00648361 4.53495e-19 2.16758e-06)
(-0.00249487 -0.0346761 4.03548e-19 0.00249335 3.58353e-19 1.51761e-06)
(-0.00980651 -0.0289557 4.58373e-19 0.00980577 1.19735e-18 7.42102e-07)
(-0.0152184 -0.0254811 -9.76206e-19 0.0152183 1.0547e-19 7.44647e-08)
(0.139751 -0.0787246 -1.47946e-19 -0.139752 3.64014e-20 4.96439e-07)
(0.109857 -0.0824295 -5.33649e-19 -0.109858 9.94795e-20 1.25999e-06)
(0.0852278 -0.0760054 -5.91403e-19 -0.0852296 -1.38695e-19 1.8519e-06)
(0.0647617 -0.0666763 1.51762e-19 -0.0647639 -2.2918e-19 2.23281e-06)
(0.047614 -0.0570606 7.66883e-19 -0.0476163 -6.91499e-21 2.36921e-06)
(0.0330758 -0.0481929 3.36068e-19 -0.033078 2.66778e-19 2.23605e-06)
(0.0207732 -0.0404516 2.80958e-19 -0.0207751 2.27462e-22 1.83686e-06)
(0.0105126 -0.0341721 6.50441e-19 -0.0105138 2.31447e-19 1.22064e-06)
(0.002306 -0.0294774 3.53227e-19 -0.00230651 4.62212e-19 5.15645e-07)
(-0.00350129 -0.0267519 2.73392e-19 0.00350132 6.95333e-19 -2.63659e-08)
(0.151425 -0.0585237 -2.53125e-20 -0.151426 1.15682e-19 4.13749e-07)
(0.127147 -0.0636977 -1.57587e-19 -0.127148 4.50281e-19 1.06389e-06)
(0.103399 -0.0598025 -3.05152e-19 -0.103401 4.92791e-19 1.57005e-06)
(0.0820863 -0.0531314 1.15994e-19 -0.0820881 2.55656e-19 1.88882e-06)
(0.0635159 -0.0459952 2.59756e-19 -0.0635178 -2.25857e-19 1.98492e-06)
(0.0474862 -0.0393319 4.5433e-19 -0.047488 -2.4026e-19 1.83529e-06)
(0.0338246 -0.0334927 2.42396e-19 -0.0338261 -2.10806e-19 1.44659e-06)
(0.0224965 -0.0287797 1.09281e-18 -0.0224974 -3.0388e-19 8.74475e-07)
(0.0135608 -0.0252988 9.15189e-19 -0.013561 9.07996e-20 2.5722e-07)
(0.00746214 -0.0233636 -7.54088e-20 -0.00746201 2.13822e-19 -1.36951e-07)
(0.159674 -0.0360768 2.17305e-20 -0.159675 8.23888e-20 3.20547e-07)
(0.139866 -0.040291 1.57711e-20 -0.139867 2.4077e-19 8.40451e-07)
(0.116924 -0.0382672 7.4982e-20 -0.116925 4.83263e-19 1.24582e-06)
(0.0950678 -0.0342744 2.80582e-19 -0.0950693 2.86706e-19 1.48971e-06)
(0.0754955 -0.0298906 1.08712e-19 -0.0754971 1.11593e-19 1.53624e-06)
(0.0583984 -0.025766 -1.39095e-19 -0.0583997 -1.25522e-19 1.36585e-06)
(0.0437604 -0.0221468 2.18973e-19 -0.0437614 1.98613e-20 9.89727e-07)
(0.0316704 -0.0192424 6.38123e-19 -0.0316708 -3.40711e-19 4.71643e-07)
(0.0222233 -0.0171245 5.41253e-19 -0.0222233 -3.88372e-19 -3.9882e-08)
(0.0159408 -0.0160065 7.37464e-20 -0.0159405 9.04685e-20 -2.60948e-07)
(0.163945 -0.0121815 2.96616e-20 -0.163945 3.00655e-20 2.18053e-07)
(0.146607 -0.0137992 5.60071e-20 -0.146608 4.62471e-20 5.91715e-07)
(0.12414 -0.0131971 2.42097e-20 -0.124141 2.29887e-19 8.81591e-07)
(0.102023 -0.0118874 3.10282e-20 -0.102024 9.59608e-21 1.03781e-06)
(0.0819371 -0.0104312 1.59355e-19 -0.0819382 -9.46887e-20 1.02516e-06)
(0.0642878 -0.00906191 2.77406e-19 -0.0642886 1.29502e-19 8.2915e-07)
(0.0491451 -0.00786925 3.92732e-19 -0.0491456 2.20266e-19 4.67153e-07)
(0.0366654 -0.00692943 4.3351e-19 -0.0366655 -1.24545e-19 1.26665e-08)
(0.0269637 -0.00626931 6.07928e-19 -0.0269633 -2.70103e-19 -3.75093e-07)
(0.0206059 -0.00598074 7.41198e-20 -0.0206055 1.60097e-19 -3.97499e-07)
(0.16394 0.0122135 2.3719e-20 -0.16394 -3.79089e-21 1.06795e-07)
(0.14661 0.0137703 1.0624e-19 -0.146611 -3.39596e-20 3.19557e-07)
(0.124151 0.0131115 1.04977e-19 -0.124151 1.74974e-19 4.80091e-07)
(0.102043 0.0117391 -7.18523e-20 -0.102043 1.21088e-19 5.36274e-07)
(0.0819662 0.0102089 1.18842e-19 -0.0819666 -2.05236e-19 4.54823e-07)
(0.0643286 0.00874971 4.03528e-19 -0.0643289 -8.81613e-20 2.27967e-07)
(0.0492004 0.00744661 3.90763e-19 -0.0492003 -1.86113e-19 -1.19177e-07)
(0.0367386 0.00637067 4.76179e-20 -0.0367381 -4.51151e-20 -5.01566e-07)
(0.0270586 0.00554417 4.88215e-19 -0.0270579 -7.31414e-19 -7.48784e-07)
(0.0207338 0.00500498 5.41113e-20 -0.0207332 -1.84452e-19 -5.4771e-07)
(0.159661 0.0361063 1.40661e-21 -0.159661 -1.31852e-20 -1.0799e-08)
(0.139876 0.0402638 1.58885e-19 -0.139876 -1.14761e-19 2.91558e-08)
(0.116956 0.0381872 3.48721e-19 -0.116956 -1.86343e-19 4.87605e-08)
(0.0951244 0.034136 -2.59803e-20 -0.0951244 -1.63542e-19 -5.71234e-09)
(0.0755807 0.0296833 -2.13577e-19 -0.0755805 -1.98845e-19 -1.64267e-07)
(0.0585181 0.0254749 2.2249e-19 -0.0585177 -1.86208e-20 -4.26546e-07)
(0.0439226 0.0217528 3.36219e-19 -0.0439219 -2.28383e-19 -7.58076e-07)
(0.0318849 0.0187215 7.70755e-20 -0.0318838 -1.81714e-19 -1.0608e-06)
(0.0225017 0.0164487 -5.34216e-19 -0.0225006 -5.1909e-19 -1.15275e-06)
(0.0163156 0.0150971 1.48569e-19 -0.0163149 2.92219e-19 -7.0739e-07)
(0.151404 0.0585484 -5.21166e-20 -0.151404 -4.588e-20 -1.33073e-07)
(0.127163 0.0636737 -4.07659e-21 -0.127163 -2.46502e-19 -2.7455e-07)
(0.10345 0.0597332 2.00306e-20 -0.10345 -2.1478e-19 -4.04749e-07)
(0.0821763 0.053012 -1.45646e-19 -0.0821757 -2.22439e-20 -5.78218e-07)
(0.0636513 0.0458166 -1.89489e-19 -0.0636505 3.55064e-19 -8.20592e-07)
(0.0476767 0.0390815 3.68022e-19 -0.0476756 1.38753e-19 -1.12201e-06)
(0.0340827 0.0331539 9.27313e-20 -0.0340812 -3.75523e-20 -1.43749e-06)
(0.0228377 0.028332 -1.77414e-19 -0.022836 -1.30827e-19 -1.6547e-06)
(0.0140035 0.024718 -1.37327e-19 -0.0140019 6.14628e-19 -1.58012e-06)
(0.0080582 0.0225824 6.46345e-19 -0.00805733 -4.76671e-19 -8.74677e-07)
(0.139724 0.0787425 -1.6133e-19 -0.139723 -1.25336e-20 -2.56486e-07)
(0.109878 0.0824101 -4.18665e-19 -0.109878 2.30092e-19 -5.83447e-07)
(0.0852949 0.0759513 2.49741e-20 -0.085294 3.31053e-19 -8.6827e-07)
(0.0648792 0.0665838 2.34037e-19 -0.064878 2.92612e-19 -1.16559e-06)
(0.0477906 0.0569227 8.34887e-20 -0.0477891 4.12579e-19 -1.49557e-06)
(0.0333241 0.0479999 1.38092e-19 -0.0333222 -1.06352e-19 -1.83797e-06)
(0.0211094 0.0401908 2.62404e-19 -0.0211073 -8.56195e-20 -2.13635e-06)
(0.010957 0.0338278 3.62253e-19 -0.0109548 -1.2378e-20 -2.26361e-06)
(0.00288269 0.0290311 1.92094e-19 -0.00288067 -6.26921e-19 -2.0153e-06)
(-0.00272489 0.026152 -8.79163e-19 0.00272594 9.13401e-20 -1.04214e-06)
(0.12536 0.0961194 3.15884e-20 -0.12536 -1.56332e-20 -3.785e-07)
(0.0898705 0.0955083 -3.35686e-19 -0.0898696 5.58721e-19 -8.90178e-07)
(0.0646669 0.0857901 -2.56386e-19 -0.0646656 5.99181e-19 -1.33021e-06)
(0.045436 0.0738283 -2.36062e-20 -0.0454342 4.10126e-19 -1.75247e-06)
(0.0301105 0.0620479 4.14608e-19 -0.0301083 -1.28654e-19 -2.17089e-06)
(0.0174497 0.0513533 3.4072e-20 -0.0174472 -5.47129e-19 -2.55422e-06)
(0.00687291 0.0420579 4.86864e-19 -0.00687008 -8.99471e-19 -2.83435e-06)
(-0.00197752 0.0344584 -2.66394e-19 0.00198039 -7.60463e-19 -2.86944e-06)
(-0.00913537 0.0286739 -1.75173e-19 0.00913781 -7.18281e-19 -2.44545e-06)
(-0.0143149 0.025103 5.22231e-19 0.0143161 3.28676e-19 -1.2055e-06)
(0.109143 0.110381 6.89104e-20 -0.109143 1.67983e-19 -4.94873e-07)
(0.0691649 0.102744 3.48096e-19 -0.0691637 3.83938e-19 -1.18475e-06)
(0.0439406 0.0890807 3.19949e-19 -0.0439388 3.08368e-19 -1.77535e-06)
(0.0262438 0.0746209 1.99302e-19 -0.0262414 -6.20176e-20 -2.31895e-06)
(0.012906 0.0611033 -6.3292e-20 -0.0129032 -7.50572e-19 -2.82262e-06)
(0.00221344 0.0490828 -5.56045e-19 -0.0022102 -1.10517e-18 -3.24411e-06)
(-0.00659896 0.0387211 -1.13753e-18 0.00660247 -5.51054e-19 -3.50377e-06)
(-0.0140378 0.0302103 9.38576e-20 0.0140413 -4.78831e-19 -3.44625e-06)
(-0.0201825 0.0236488 -1.11907e-18 0.0201854 -2.79354e-19 -2.85001e-06)
(-0.0248511 0.0194482 5.10753e-19 0.0248525 -3.87655e-19 -1.35514e-06)
(0.091891 0.121508 -3.81287e-20 -0.0918904 2.3317e-19 -6.02719e-07)
(0.0496695 0.104637 5.93466e-19 -0.0496681 5.02581e-20 -1.45878e-06)
(0.0253378 0.0865398 8.21468e-19 -0.0253356 -2.80178e-19 -2.19035e-06)
(0.00953822 0.0697373 6.41354e-19 -0.00953538 -7.59508e-19 -2.8472e-06)
(-0.00168735 0.0548668 -4.02019e-19 0.00169078 -9.05387e-19 -3.42934e-06)
(-0.0103795 0.0419485 -1.02106e-18 0.0103834 -5.59677e-19 -3.88382e-06)
(-0.0174268 0.0309187 -1.25109e-18 0.0174309 2.29093e-19 -4.12051e-06)
(-0.02344 0.0218068 -6.95032e-19 0.023444 -3.67289e-19 -3.97236e-06)
(-0.028533 0.0146748 -1.60051e-18 0.0285362 3.2548e-19 -3.21347e-06)
(-0.0326167 0.00991608 2.4206e-19 0.0326182 -1.21043e-19 -1.48575e-06)
(0.0743125 0.129722 9.51659e-20 -0.0743118 -1.44402e-20 -6.97729e-07)
(0.0329077 0.102343 2.70495e-19 -0.032906 -2.06569e-19 -1.70207e-06)
(0.0106062 0.0796398 1.93232e-19 -0.0106037 -3.96255e-19 -2.55957e-06)
(-0.00293486 0.0607202 -1.14736e-19 0.00293818 -4.96815e-19 -3.31668e-06)
(-0.0120107 0.0448532 -6.62443e-19 0.0120146 -2.3852e-19 -3.96621e-06)
(-0.0187781 0.0314063 -6.56425e-19 0.0187825 4.90337e-20 -4.44559e-06)
(-0.0241629 0.0200443 -5.30947e-19 0.0241676 1.58226e-19 -4.65562e-06)
(-0.0288155 0.0105967 -5.75161e-19 0.02882 1.77116e-19 -4.42065e-06)
(-0.0328674 0.00307826 -3.39612e-19 0.0328709 -7.12047e-20 -3.51429e-06)
(-0.0363015 -0.00215886 -1.10823e-18 0.0363031 1.41616e-19 -1.58728e-06)
(0.0569327 0.135423 -3.13912e-20 -0.0569319 -6.48238e-20 -7.77361e-07)
(0.0198104 0.0974565 -2.58586e-19 -0.0198085 -1.50835e-19 -1.90702e-06)
(0.0007716 0.0703655 -4.8245e-19 -0.000768729 -1.03061e-19 -2.87083e-06)
(-0.0101718 0.0496308 -4.10904e-19 0.0101756 4.63742e-20 -3.711e-06)
(-0.0171244 0.0330741 -2.92358e-20 0.0171289 3.23929e-20 -4.41354e-06)
(-0.0221156 0.0193802 -4.0445e-19 0.0221205 3.28852e-20 -4.90753e-06)
(-0.0260087 0.00793105 -3.41466e-19 0.0260138 6.7183e-20 -5.08705e-06)
(-0.0294181 -0.00165315 -3.23145e-19 0.0294229 1.94409e-19 -4.77146e-06)
(-0.0324739 -0.00940865 -5.62045e-20 0.0324777 -8.11932e-20 -3.73867e-06)
(-0.0352044 -0.0150375 -5.71388e-19 0.0352061 3.1804e-19 -1.65528e-06)
(0.0400497 0.139098 -5.07536e-20 -0.0400489 -4.71038e-20 -8.3796e-07)
(0.010602 0.0917425 -1.40028e-19 -0.0105999 -1.62111e-19 -2.06509e-06)
(-0.00399751 0.0608967 -6.87578e-19 0.00400062 -2.87441e-20 -3.11105e-06)
(-0.0120486 0.0387226 -6.31011e-19 0.0120526 1.46574e-19 -4.01301e-06)
(-0.0169409 0.0217229 -4.33148e-19 0.0169456 2.00614e-19 -4.75061e-06)
(-0.0203344 0.00796302 -6.07592e-20 0.0203397 1.37985e-19 -5.24655e-06)
(-0.0229316 -0.00343054 -3.47131e-19 0.022937 1.42576e-19 -5.39075e-06)
(-0.0252364 -0.0130279 -1.37602e-20 0.0252414 3.33964e-19 -5.0023e-06)
(-0.0273578 -0.0209119 5.53788e-19 0.0273617 3.28495e-20 -3.86869e-06)
(-0.0293417 -0.0268399 -1.09877e-19 0.0293434 -1.3924e-20 -1.68125e-06)
(0.0237291 0.141226 -5.85113e-20 -0.0237282 -3.08971e-20 -8.78001e-07)
(0.00479664 0.0868531 -1.02878e-19 -0.00479447 -1.07614e-19 -2.17125e-06)
(-0.00439264 0.0532624 -3.67052e-19 0.00439591 -1.21649e-20 -3.27204e-06)
(-0.00932271 0.0300892 -2.71568e-19 0.00932692 1.18457e-19 -4.21164e-06)
(-0.0122251 0.012834 -2.79592e-19 0.0122301 1.22752e-19 -4.96424e-06)
(-0.0141869 -0.000906482 -4.47931e-19 0.0141924 9.97077e-20 -5.44818e-06)
(-0.0156663 -0.0121988 -4.1464e-19 0.0156719 1.84975e-19 -5.55254e-06)
(-0.0169937 -0.0217575 -1.13775e-19 0.0169988 2.98248e-19 -5.10102e-06)
(-0.0182411 -0.0297008 4.05747e-19 0.018245 5.38945e-20 -3.89654e-06)
(-0.0194471 -0.0358308 -3.72673e-20 0.0194488 -1.88396e-20 -1.66344e-06)
(0.00783701 0.142184 -7.92808e-20 -0.00783611 -1.60609e-20 -8.95101e-07)
(0.00130456 0.0840619 -1.4535e-19 -0.00130234 -7.37981e-20 -2.22024e-06)
(-0.0018359 0.0490223 -2.89909e-19 0.00183924 -1.24857e-20 -3.34582e-06)
(-0.00350007 0.0253375 -3.84223e-19 0.00350436 1.12313e-19 -4.29658e-06)
(-0.00446619 0.00796785 -3.75539e-19 0.00447123 1.05899e-19 -5.04207e-06)
(-0.00511243 -0.00574235 -3.52202e-19 0.00511793 8.70228e-20 -5.49888e-06)
(-0.00559755 -0.0169632 -1.67945e-19 0.00560311 1.64195e-19 -5.55846e-06)
(-0.00603642 -0.0264871 -1.12881e-19 0.00604148 2.60664e-19 -5.05473e-06)
(-0.00645308 -0.0344511 2.86405e-19 0.00645689 9.69511e-20 -3.81186e-06)
(-0.00686229 -0.0406831 1.56034e-19 0.00686389 -2.30878e-20 -1.59666e-06)
(-0.00789516 0.14218 -7.67913e-20 0.00789605 -4.89058e-21 -8.89241e-07)
(-0.00136858 0.0840606 -2.11708e-19 0.00137079 -6.22472e-20 -2.21089e-06)
(0.00176201 0.0490223 -1.79522e-19 -0.00175868 -2.3497e-20 -3.33023e-06)
(0.00341302 0.0253385 -3.22144e-19 -0.00340875 1.08687e-19 -4.26486e-06)
(0.00436308 0.00796958 -4.28742e-19 -0.0043581 1.0352e-19 -4.98084e-06)
(0.00499057 -0.0057401 -3.08776e-19 -0.00498518 6.28273e-20 -5.39551e-06)
(0.00545544 -0.0169605 -2.81972e-20 -0.00545003 1.14239e-19 -5.40632e-06)
(0.0058732 -0.0264839 -1.63684e-19 -0.00586833 2.14956e-19 -4.86262e-06)
(0.0062712 -0.0344471 6.36792e-20 -0.00626759 8.2861e-20 -3.61582e-06)
(0.00666531 -0.0406794 1.70673e-19 -0.00666383 -2.56598e-20 -1.48307e-06)
(-0.0237836 0.141216 -9.11937e-20 0.0237845 9.60828e-21 -8.59682e-07)
(-0.00485931 0.0868497 -2.5193e-19 0.00486145 -5.44289e-20 -2.14216e-06)
(0.00431866 0.0532626 -3.00267e-20 -0.00431544 -4.28644e-20 -3.22393e-06)
(0.00923457 0.0300919 -5.27895e-20 -0.00923046 1.0432e-19 -4.115e-06)
(0.0121201 0.0128387 -5.32381e-19 -0.0121154 9.61935e-20 -4.77905e-06)
(0.0140626 -0.000900363 -3.34189e-19 -0.0140575 4.83607e-20 -5.13684e-06)
(0.0155212 -0.0121913 -2.49555e-19 -0.0155161 3.84454e-20 -5.09516e-06)
(0.016827 -0.0217488 1.88277e-19 -0.0168225 1.68104e-19 -4.52418e-06)
(0.0180549 -0.0296898 -4.13114e-19 -0.0180515 7.23093e-20 -3.30775e-06)
(0.0192461 -0.0358206 7.64929e-20 -0.0192448 -1.46718e-20 -1.32172e-06)
(-0.0400979 0.139086 -3.84893e-20 0.0400987 4.35116e-20 -8.08097e-07)
(-0.0106623 0.0917379 -2.82535e-19 0.0106643 -1.66271e-20 -2.01726e-06)
(0.00392334 0.0608972 -3.92135e-19 -0.00392031 -9.32104e-20 -3.03156e-06)
(0.0119586 0.0387265 -2.88291e-19 -0.0119547 1.05817e-20 -3.85318e-06)
(0.0168326 0.0217294 -3.9575e-19 -0.0168282 6.50902e-20 -4.44458e-06)
(0.0202059 0.00797134 -1.10133e-19 -0.0202012 5.54925e-20 -4.73246e-06)
(0.0227812 -0.0034203 -1.83932e-19 -0.0227766 5.28173e-20 -4.63619e-06)
(0.0250637 -0.0130161 -5.90023e-20 -0.0250597 6.79603e-20 -4.0513e-06)
(0.0271641 -0.0208971 -1.78036e-19 -0.0271612 -6.27289e-20 -2.89882e-06)
(0.0291338 -0.0268263 3.51781e-19 -0.0291327 1.17191e-20 -1.11913e-06)
(-0.0569737 0.135411 -4.54087e-20 0.0569744 5.3644e-20 -7.35452e-07)
(-0.0198681 0.0974523 -4.49983e-19 0.01987 -5.36974e-20 -1.83952e-06)
(-0.000846066 0.0703663 -1.38091e-19 0.000848824 -1.12329e-19 -2.75861e-06)
(0.0100795 0.0496348 1.12973e-19 -0.010076 -2.29528e-20 -3.48695e-06)
(0.0170123 0.0330806 1.48073e-19 -0.0170083 2.05552e-19 -3.98695e-06)
(0.021982 0.0193884 -2.87242e-19 -0.0219779 1.64172e-19 -4.1936e-06)
(0.0258522 0.00794108 -2.97279e-19 -0.0258481 -9.51439e-20 -4.04154e-06)
(0.0292385 -0.00164173 4.66327e-21 -0.029235 -1.20004e-19 -3.45576e-06)
(0.0322716 -0.00939426 1.75013e-20 -0.0322692 1.86386e-20 -2.398e-06)
(0.0349887 -0.0150245 -6.90276e-19 -0.0349878 8.05672e-20 -8.785e-07)
(-0.0743473 0.129714 4.77777e-20 0.0743479 -3.42164e-20 -6.44956e-07)
(-0.0329634 0.102341 2.2129e-19 0.032965 9.61918e-20 -1.61615e-06)
(-0.0106811 0.0796408 1.63689e-19 0.0106835 1.11872e-19 -2.41599e-06)
(0.00284029 0.0607234 3.9488e-20 -0.00283726 9.43441e-20 -3.03091e-06)
(0.011895 0.044858 4.28341e-20 -0.0118916 1.69758e-19 -3.42429e-06)
(0.01864 0.0314122 -5.69169e-19 -0.0186365 2.21207e-19 -3.54147e-06)
(0.024001 0.0200512 -8.02108e-19 -0.0239977 -3.15003e-19 -3.33463e-06)
(0.0286297 0.0106044 -4.48964e-19 -0.028627 1.90949e-19 -2.76109e-06)
(0.0326576 0.00308794 -1.43819e-18 -0.0326558 -6.14373e-19 -1.82563e-06)
(0.0360791 -0.00215049 9.09416e-19 -0.0360785 2.15773e-20 -6.10375e-07)
(-0.0919223 0.121507 -1.07931e-19 0.0919229 -2.98583e-19 -5.39064e-07)