/*--------------------------------*- C++ -*----------------------------------*\
| =========                 |                                                 |
| \\      /  F ield         | foam-extend: Open Source CFD                    |
|  \\    /   O peration     | Version:  3.0                                   |
|   \\  /    A nd           | Web:         http://www.extend-project.de       |
|    \\/     M anipulation  |                                                 |
\*---------------------------------------------------------------------------*/
FoamFile
{
    version     2.0;
    format      ascii;
    class       volVectorField;
    location    "24";
    object      u;
}
// * * * * * * * * * * * * * * * * * * * * * * * * * * * * * * * * * * * * * //

dimensions      [0 0 0 0 0 0 0];

internalField   nonuniform List<vector> 
480
(
(0.282511 -0.102731 3.47786e-19)
(0.543659 -0.0692397 1.75735e-18)
(0.723082 -0.0486564 -3.60317e-18)
(0.817226 -0.0347191 3.97274e-18)
(0.897343 -0.0252163 2.54783e-18)
(0.932653 -0.0184112 -2.12826e-18)
(0.973912 -0.0129366 -1.29146e-17)
(0.981926 -0.00897087 9.9304e-18)
(1.00443 -0.00483546 -8.11002e-18)
(0.995448 -0.00199204 -8.43725e-18)
(0.335533 -0.300426 1.93827e-18)
(0.579328 -0.202137 2.57018e-18)
(0.74806 -0.141619 -1.90151e-17)
(0.834956 -0.100573 -1.63706e-17)
(0.910114 -0.0725202 1.3956e-17)
(0.941866 -0.0523711 3.9417e-18)
(0.980249 -0.0361201 6.44971e-18)
(0.986173 -0.0242947 -2.04107e-17)
(1.0065 -0.0120086 2.77985e-17)
(0.995832 -0.00257418 4.82695e-18)
(0.437918 -0.477667 -2.1228e-18)
(0.648176 -0.321283 2.85613e-18)
(0.79625 -0.224958 1.22055e-17)
(0.869127 -0.159606 1.13817e-17)
(0.9347 -0.114919 2.298e-17)
(0.959558 -0.0828038 -7.04721e-18)
(0.99238 -0.0568874 3.12724e-18)
(0.994249 -0.0380131 1.00503e-18)
(1.01037 -0.0184175 2.86421e-17)
(0.996363 -0.00306117 -5.21889e-17)
(0.582686 -0.622374 1.14375e-18)
(0.745518 -0.418555 3.44529e-17)
(0.86437 -0.292995 1.23386e-17)
(0.91742 -0.207794 -6.38472e-18)
(0.969427 -0.149523 -8.03469e-18)
(0.984534 -0.107634 -1.53988e-18)
(1.00948 -0.0738239 -3.64105e-19)
(1.00561 -0.0491889 -8.96852e-18)
(1.01577 -0.0236243 -4.0845e-17)
(0.997015 -0.00341377 6.4982e-17)
(0.759978 -0.724684 -8.26266e-18)
(0.864722 -0.487326 6.71426e-18)
(0.947784 -0.34109 1.188e-17)
(0.976544 -0.241852 1.30311e-17)
(1.01194 -0.173972 -1.72672e-17)
(1.01509 -0.125167 -3.52693e-18)
(1.03039 -0.0857706 -1.23818e-17)
(1.01949 -0.0570584 -1.53771e-17)
(1.02235 -0.0272695 4.76665e-17)
(0.997748 -0.0036041 -6.84304e-17)
(0.957708 -0.777625 1.11559e-17)
(0.997668 -0.522906 -1.75026e-17)
(1.04081 -0.365966 -2.00475e-17)
(1.04248 -0.259455 -2.05222e-17)
(1.05933 -0.186597 -4.03656e-18)
(1.04916 -0.134205 -5.60317e-18)
(1.05369 -0.0919126 5.52815e-17)
(1.03494 -0.0610802 -2.73025e-17)
(1.02966 -0.029103 3.34663e-17)
(0.998522 -0.0036122 -1.01977e-17)
(1.16241 -0.777586 1.12458e-17)
(1.1353 -0.52287 -1.19018e-17)
(1.13711 -0.365924 -2.21847e-17)
(1.11073 -0.259404 -2.90429e-17)
(1.1084 -0.186534 -1.92115e-19)
(1.08442 -0.134129 1.33179e-17)
(1.07781 -0.0918244 1.21621e-17)
(1.05093 -0.0609779 5.99282e-19)
(1.03721 -0.0289928 2.95439e-17)
(0.999285 -0.00343439 -2.92832e-18)
(1.36012 -0.724572 -5.09834e-18)
(1.26823 -0.487217 -9.00401e-19)
(1.23013 -0.340965 5.3393e-18)
(1.17666 -0.241695 7.88327e-18)
(1.15578 -0.173785 1.25468e-17)
(1.11848 -0.124938 3.32482e-18)
(1.10109 -0.0855103 -6.57856e-18)
(1.06636 -0.0567516 6.76697e-18)
(1.04449 -0.0269445 -2.83862e-17)
(0.999995 -0.00307502 4.79948e-17)
(1.53738 -0.622191 1.81834e-18)
(1.38742 -0.418376 9.29327e-18)
(1.31353 -0.292784 1.41153e-17)
(1.23576 -0.207534 6.38213e-18)
(1.19827 -0.14921 -1.0197e-17)
(1.14901 -0.107257 6.8559e-19)
(1.12197 -0.0733917 -4.0984e-19)
(1.08018 -0.0486865 3.46926e-18)
(1.05101 -0.0230887 -3.10698e-18)
(1.0006 -0.00255583 1.0726e-17)
(1.68211 -0.477423 1.61975e-18)
(1.48473 -0.321034 2.46872e-19)
(1.38162 -0.224664 1.10372e-17)
(1.28403 -0.159241 8.16656e-18)
(1.23296 -0.114484 5.75709e-18)
(1.17394 -0.0822802 -5.79625e-18)
(1.13901 -0.0562923 1.02768e-18)
(1.09147 -0.0373239 -2.12825e-18)
(1.05633 -0.017686 -1.26538e-17)
(1.00108 -0.00190307 2.67146e-18)
(1.78443 -0.300127 9.60418e-19)
(1.55354 -0.201823 -7.3713e-19)
(1.42978 -0.14124 3.13839e-18)
(1.31816 -0.100106 3.09589e-19)
(1.2575 -0.0719623 5.39329e-20)
(1.19156 -0.0517091 2.41512e-18)
(1.15106 -0.0353674 2.86745e-18)
(1.09944 -0.0234352 1.5952e-18)
(1.06009 -0.0110943 -5.71262e-18)
(1.00139 -0.00115753 3.02038e-18)
(1.83739 -0.102389 6.05578e-19)
(1.58916 -0.0688627 -8.21644e-19)
(1.45471 -0.0481972 2.33086e-18)
(1.33583 -0.0341507 1.15089e-18)
(1.27021 -0.0245431 -6.61184e-19)
(1.2007 -0.0176175 1.37721e-18)
(1.15731 -0.0120409 1.57456e-18)
(1.10357 -0.00795737 1.13459e-18)
(1.06203 -0.00375997 -4.01974e-18)
(1.00153 -0.00035848 5.56382e-19)
(1.83738 0.102323 2.29519e-19)
(1.58916 0.0687863 -1.14681e-18)
(1.45472 0.0481324 2.51375e-18)
(1.33585 0.0341306 1.79085e-18)
(1.27022 0.0245521 -1.68419e-18)
(1.20071 0.0176734 1.31842e-19)
(1.15732 0.012108 7.45417e-19)
(1.10357 0.008058 7.02795e-19)
(1.06202 0.00382821 -4.03204e-18)
(1.00148 0.000445634 6.06049e-19)
(1.78438 0.300054 -2.31443e-20)
(1.55354 0.20175 -2.01301e-18)
(1.4298 0.141182 2.80691e-18)
(1.3182 0.100093 3.46433e-18)
(1.25754 0.0719778 -4.17386e-18)
(1.1916 0.0517676 -8.53811e-19)
(1.15109 0.0354354 -2.123e-18)
(1.09944 0.0235296 4.28288e-18)
(1.06007 0.0111564 -8.22955e-18)
(1.00125 0.00121444 1.96027e-18)
(1.68202 0.477339 1.17121e-18)
(1.48472 0.320965 -3.41155e-18)
(1.38166 0.22462 -6.64129e-18)
(1.28409 0.15924 -3.25131e-18)
(1.23303 0.114511 -5.55573e-18)
(1.17399 0.0823431 3.0222e-18)
(1.13905 0.0563616 -8.93552e-19)
(1.09146 0.0374066 -5.61675e-19)
(1.05631 0.0177365 -5.23224e-18)
(1.00086 0.00190424 1.668e-17)
(1.53728 0.622092 7.91994e-19)
(1.38741 0.418315 -1.52929e-17)
(1.31357 0.292756 -5.67722e-18)
(1.23583 0.207549 5.08451e-18)
(1.19835 0.149252 8.27331e-18)
(1.14908 0.107324 7.39724e-19)
(1.12202 0.0734621 -1.24505e-18)
(1.08018 0.0487532 4.79993e-18)
(1.05099 0.0231236 1.81106e-17)
(1.00033 0.00248447 -2.82596e-17)
(1.36 0.724459 6.18284e-18)
(1.26821 0.487163 2.28297e-18)
(1.23017 0.340955 -4.12816e-18)
(1.17673 0.241727 -5.69103e-18)
(1.15587 0.173841 1.14627e-17)
(1.11856 0.12501 1.59401e-19)
(1.10116 0.0855804 -4.99523e-19)
(1.06636 0.0567995 8.31937e-18)
(1.04447 0.0269615 -3.74627e-17)
(0.999709 0.00292581 4.82024e-17)
(1.16228 0.777459 -1.14695e-17)
(1.13527 0.522823 1.77272e-17)
(1.13714 0.365929 1.93629e-17)
(1.1108 0.25945 2.01557e-17)
(1.10849 0.186602 -1.2206e-18)
(1.08451 0.134202 -6.01646e-20)
(1.07788 0.0918918 -5.07589e-17)
(1.05095 0.0610064 1.96423e-17)
(1.0372 0.0289918 -2.4333e-17)
(0.999017 0.0032144 -2.5756e-18)
(0.957585 0.777489 -1.43697e-17)
(0.997631 0.522864 8.63273e-18)
(1.04083 0.365983 1.62474e-17)
(1.04254 0.25951 2.27536e-17)
(1.05941 0.186671 -6.31005e-18)
(1.04925 0.134275 -1.63134e-17)
(1.05377 0.0919738 -3.01015e-18)
(1.03498 0.0610901 -2.73855e-18)
(1.02966 0.0290855 -1.97186e-17)
(0.9983 0.00334006 -7.78783e-18)
(0.759864 0.724546 4.53429e-18)
(0.864674 0.487287 -5.37428e-18)
(0.947785 0.341111 -2.06321e-17)
(0.976588 0.241907 -2.4981e-17)
(1.012 0.174043 -1.73048e-17)
(1.01517 0.125229 5.22156e-19)
(1.03047 0.0858215 1.52006e-17)
(1.01954 0.0570521 -6.59476e-18)
(1.02237 0.0272388 5.02108e-17)
(0.997593 0.00330737 -6.97084e-17)
(0.582585 0.622242 -6.33749e-18)
(0.745462 0.418517 -1.87375e-17)
(0.864351 0.293012 -3.07369e-17)
(0.917446 0.20784 -1.52121e-17)
(0.969478 0.149583 2.55715e-17)
(0.98461 0.107681 3.87139e-18)
(1.00955 0.0738603 -5.63025e-19)
(1.00568 0.0491696 -2.34228e-18)
(1.0158 0.0235846 5.23443e-18)
(0.996936 0.00312499 -8.89326e-18)
(0.437831 0.477549 -2.11581e-18)
(0.648112 0.321243 7.06479e-18)
(0.796215 0.224964 -2.02002e-17)
(0.869137 0.159635 -1.50137e-17)
(0.934737 0.114958 -1.41352e-17)
(0.959629 0.0828317 1.51642e-17)
(0.992454 0.0569057 -6.70757e-18)
(0.994333 0.0379848 5.44413e-18)
(1.01042 0.0183735 3.61228e-17)
(0.996356 0.00281316 -6.82859e-18)
(0.335459 0.300329 6.82559e-21)
(0.579261 0.202095 8.34585e-18)
(0.748012 0.141608 3.77338e-18)
(0.834954 0.100578 1.22325e-17)
(0.910141 0.0725315 7.78478e-18)
(0.941934 0.0523747 -1.39638e-17)
(0.980324 0.036117 -1.09501e-17)
(0.986271 0.0242607 -9.25764e-18)
(1.00656 0.0119645 9.37166e-18)
(0.995884 0.00239529 -1.27461e-17)
(0.282448 0.10266 -9.41904e-19)
(0.543593 0.0691932 2.99791e-18)
(0.72303 0.0486241 -3.56004e-19)
(0.81722 0.0346946 -4.70043e-18)
(0.897366 0.025195 -2.23686e-20)
(0.932721 0.0183881 1.9451e-20)
(0.973989 0.0129113 6.51575e-18)
(0.982033 0.00893468 -2.54089e-18)
(1.0045 0.00479492 1.19463e-17)
(0.995534 0.00190168 4.59193e-18)
(0.282402 -0.101987 -3.47999e-19)
(0.543541 -0.0684037 -1.7574e-18)
(0.722964 -0.047649 3.60693e-18)
(0.817143 -0.0335238 -3.9715e-18)
(0.897274 -0.0238237 -2.55088e-18)
(0.932618 -0.0168116 2.1294e-18)
(0.973871 -0.0111286 1.29244e-17)
(0.981904 -0.00694902 -9.93445e-18)
(1.00436 -0.00264581 8.1074e-18)
(0.995322 0.00136424 8.44771e-18)
(0.335327 -0.299667 -1.93915e-18)
(0.579102 -0.201319 -2.57169e-18)
(0.747819 -0.140649 1.90225e-17)
(0.834721 -0.0994274 1.63796e-17)
(0.909872 -0.0711834 -1.39667e-17)
(0.941623 -0.0508254 -3.94388e-18)
(0.979976 -0.0343643 -6.45856e-18)
(0.985883 -0.0223087 2.04333e-17)
(1.00615 -0.00985127 -2.78378e-17)
(0.995246 0.000816486 -4.82529e-18)
(0.437609 -0.476908 2.12235e-18)
(0.647853 -0.320493 -2.85757e-18)
(0.795894 -0.224039 -1.22103e-17)
(0.868756 -0.158524 -1.13851e-17)
(0.934291 -0.113657 -2.29872e-17)
(0.95912 -0.0813354 7.05439e-18)
(0.991878 -0.0552138 -3.12987e-18)
(0.993694 -0.0360988 -1.00471e-18)
(1.00972 -0.0163325 -2.86561e-17)
(0.995306 0.000291889 5.22304e-17)
(0.582281 -0.621632 -1.14374e-18)
(0.745102 -0.417806 -3.44594e-17)
(0.863912 -0.292135 -1.23378e-17)
(0.916919 -0.206789 6.39244e-18)
(0.968866 -0.14835 8.04368e-18)
(0.983907 -0.106265 1.54211e-18)
(1.00876 -0.0722567 3.61283e-19)
(1.0048 -0.0473827 8.97223e-18)
(1.01485 -0.0216491 4.0864e-17)
(0.995485 -0.000179814 -6.50536e-17)
(0.759477 -0.723979 8.2643e-18)
(0.864224 -0.486627 -6.71041e-18)
(0.94723 -0.340299 -1.1876e-17)
(0.975928 -0.240932 -1.303e-17)
(1.01123 -0.172902 1.72693e-17)
(1.01429 -0.123915 3.5248e-18)
(1.02947 -0.0843357 1.2366e-17)
(1.01843 -0.0553931 1.53752e-17)
(1.02117 -0.0254435 -4.77242e-17)
(0.995769 -0.0005705 6.8469e-17)
(0.957125 -0.776972 -1.11561e-17)
(0.997092 -0.522267 1.75082e-17)
(1.04017 -0.365248 2.00522e-17)
(1.04175 -0.25863 2.05271e-17)
(1.0585 -0.185639 4.03088e-18)
(1.0482 -0.133088 5.5983e-18)
(1.05259 -0.0906287 -5.53139e-17)
(1.03366 -0.0595897 2.73066e-17)
(1.02824 -0.027459 -3.34792e-17)
(0.996128 -0.000860671 1.01998e-17)
(1.16175 -0.777005 -1.12457e-17)
(1.13465 -0.522298 1.19009e-17)
(1.13639 -0.365287 2.21794e-17)
(1.10991 -0.258679 2.90328e-17)
(1.10744 -0.185699 1.85685e-19)
(1.08331 -0.133161 -1.33147e-17)
(1.07653 -0.0907138 -1.21511e-17)
(1.04944 -0.0596884 -5.90783e-19)
(1.03557 -0.027565 -2.95154e-17)
(0.996536 -0.00103367 2.94113e-18)
(1.35941 -0.724071 5.09803e-18)
(1.26753 -0.486722 8.96014e-19)
(1.22934 -0.340413 -5.34584e-18)
(1.17574 -0.24108 -7.88921e-18)
(1.15472 -0.173081 -1.25473e-17)
(1.11723 -0.124135 -3.31694e-18)
(1.09966 -0.0845867 6.58479e-18)
(1.0647 -0.0556896 -6.75283e-18)
(1.04267 -0.0257563 2.83928e-17)
(0.996957 -0.00108536 -4.79621e-17)
(1.53663 -0.621785 -1.81798e-18)
(1.38667 -0.417963 -9.29517e-18)
(1.31267 -0.292329 -1.41122e-17)
(1.23476 -0.207035 -6.37856e-18)
(1.1971 -0.14865 1.0187e-17)
(1.14764 -0.106628 -6.82676e-19)
(1.12041 -0.0726739 4.11235e-19)
(1.07838 -0.0478684 -3.45893e-18)
(1.04904 -0.0221651 3.10984e-18)
(0.99736 -0.00101484 -1.07096e-17)
(1.68134 -0.477113 -1.62033e-18)
(1.48394 -0.320713 -2.48422e-19)
(1.38071 -0.22431 -1.10299e-17)
(1.28295 -0.158872 -8.15874e-18)
(1.23171 -0.114075 -5.75508e-18)
(1.17247 -0.0818416 5.78629e-18)
(1.13734 -0.0557894 -1.02855e-18)
(1.08956 -0.0367661 2.12475e-18)
(1.05425 -0.0170383 1.26252e-17)
(0.99771 -0.000835848 -2.67188e-18)
(1.78367 -0.29992 -9.62173e-19)
(1.55272 -0.201599 7.33693e-19)
(1.42881 -0.141002 -3.13582e-18)
(1.31702 -0.0998732 -3.10863e-19)
(1.25617 -0.0717208 -5.86564e-20)
(1.19003 -0.0514667 -2.40881e-18)
(1.14932 -0.0350937 -2.85797e-18)
(1.09746 -0.0231422 -1.58582e-18)
(1.05793 -0.0107355 5.69341e-18)
(0.99798 -0.000564184 -3.01429e-18)
(1.83664 -0.10228 -6.08293e-19)
(1.58832 -0.0687449 8.19109e-19)
(1.4537 -0.0480799 -2.33046e-18)
(1.33465 -0.0340686 -1.14976e-18)
(1.26882 -0.0244744 6.58775e-19)
(1.19911 -0.0175827 -1.37584e-18)
(1.15551 -0.0119995 -1.57647e-18)
(1.10155 -0.00793483 -1.13129e-18)
(1.05984 -0.00368901 4.00266e-18)
(0.998146 -0.000229799 -5.67308e-19)
(1.83665 0.102333 -2.33166e-19)
(1.58832 0.0687967 1.14466e-18)
(1.45369 0.0481146 -2.51496e-18)
(1.33463 0.0340568 -1.78919e-18)
(1.26881 0.0244346 1.68195e-18)
(1.19909 0.0174989 -1.34505e-19)
(1.15549 0.0119091 -7.58192e-19)
(1.10155 0.00781663 -6.93342e-19)
(1.05984 0.00360979 4.01332e-18)
(0.998192 0.000138458 -6.26422e-19)
(1.7837 0.299977 1.88827e-20)
(1.55271 0.201646 2.00968e-18)
(1.42877 0.141027 -2.81377e-18)
(1.31697 0.0998526 -3.47217e-18)
(1.25612 0.0716729 4.1764e-18)
(1.18998 0.0513788 8.56749e-19)
(1.14928 0.0350007 2.1245e-18)
(1.09745 0.0230285 -4.30193e-18)
(1.05793 0.0106603 8.24714e-18)
(0.998113 0.000500989 -1.9522e-18)
(1.68139 0.477174 -1.17558e-18)
(1.48392 0.32075 3.40886e-18)
(1.38065 0.224319 6.64123e-18)
(1.28288 0.158835 3.25434e-18)
(1.23163 0.114013 5.56736e-18)
(1.17241 0.0817462 -3.02505e-18)
(1.13728 0.0556918 8.9442e-19)
(1.08954 0.0366607 5.57507e-19)
(1.05425 0.0169706 5.27167e-18)
(0.997911 0.00082426 -1.67378e-17)
(1.5367 0.621852 -7.94031e-19)
(1.38665 0.417986 1.52957e-17)
(1.3126 0.292315 5.68024e-18)
(1.23467 0.206978 -5.08454e-18)
(1.197 0.148569 -8.27489e-18)
(1.14756 0.106524 -7.42803e-19)
(1.12033 0.0725707 1.23985e-18)
(1.07836 0.0477742 -4.81059e-18)
(1.04904 0.0221072 -1.81462e-17)
(0.997602 0.00106963 2.82902e-17)
(1.35949 0.724142 -6.18437e-18)
(1.26752 0.486729 -2.27971e-18)
(1.22927 0.340375 4.13145e-18)
(1.17564 0.241 5.6932e-18)
(1.1546 0.172979 -1.14746e-17)
(1.11713 0.124022 -1.68266e-19)
(1.09957 0.0844784 4.75828e-19)
(1.06466 0.0556081 -8.33722e-18)
(1.04266 0.0257092 3.74762e-17)
(0.997209 0.00121005 -4.82439e-17)
(1.16183 0.777076 1.14676e-17)
(1.13465 0.522289 -1.77256e-17)
(1.13633 0.365226 -1.93644e-17)
(1.10981 0.258579 -2.01575e-17)
(1.10733 0.18558 1.2104e-18)
(1.0832 0.13304 5.14795e-20)
(1.07643 0.090602 5.07523e-17)
(1.0494 0.0596196 -1.96515e-17)
(1.03555 0.0275279 2.43546e-17)
(0.996767 0.00121963 2.56251e-18)
(0.957201 0.77704 1.43671e-17)
(0.997094 0.522243 -8.63437e-18)
(1.04012 0.365168 -1.62528e-17)
(1.04167 0.258516 -2.2763e-17)
(1.05839 0.185509 6.30049e-18)
(1.04809 0.132965 1.6311e-17)
(1.05248 0.0905169 3.02078e-18)
(1.0336 0.0595323 2.73453e-18)
(1.0282 0.0274299 1.97449e-17)
(0.996312 0.00108828 7.77201e-18)
(0.759547 0.724036 -4.53583e-18)
(0.864238 0.486591 5.36915e-18)
(0.947202 0.340208 2.0621e-17)
(0.97586 0.240812 2.49656e-17)
(1.01114 0.172769 1.72971e-17)
(1.01419 0.123794 -5.15963e-19)
(1.02937 0.0842278 -1.51884e-17)
(1.01835 0.0553448 6.59426e-18)
(1.02112 0.0254194 -5.01647e-17)
(0.995887 0.000811823 6.96573e-17)
(0.582344 0.621672 6.33593e-18)
(0.745131 0.417762 1.87308e-17)
(0.863907 0.292041 3.0729e-17)
(0.916873 0.206672 1.52069e-17)
(0.968795 0.148224 -2.55614e-17)
(0.983811 0.106153 -3.86324e-18)
(1.00867 0.0721575 5.62652e-19)
(1.0047 0.0473406 2.34297e-18)
(1.01479 0.0216263 -5.22587e-18)
(0.995532 0.000402898 8.87735e-18)
(0.437666 0.476925 2.11563e-18)
(0.647895 0.320443 -7.06254e-18)
(0.795912 0.223952 2.01978e-17)
(0.86873 0.158421 1.50105e-17)
(0.934238 0.113547 1.4128e-17)
(0.959033 0.0812396 -1.51534e-17)
(0.991786 0.0551279 6.70123e-18)
(0.993591 0.0360601 -5.44288e-18)
(1.00966 0.0163077 -3.60833e-17)
(0.995287 -0.000118366 6.81801e-18)
(0.335381 0.299656 -6.78569e-21)
(0.579156 0.201267 -8.34353e-18)
(0.747856 0.140576 -3.76705e-18)
(0.834713 0.0993457 -1.2224e-17)
(0.909835 0.0710984 -7.78048e-18)
(0.941545 0.0507505 1.39547e-17)
(0.97989 0.0342958 1.09417e-17)
(0.985773 0.0222713 9.24409e-18)
(1.00607 0.00982202 -9.37091e-18)
(0.995178 -0.000718431 1.27313e-17)
(0.282458 0.101946 9.41749e-19)
(0.543603 0.0683537 -2.99652e-18)
(0.723012 0.0475948 3.58525e-19)
(0.817145 0.0334695 4.69956e-18)
(0.897248 0.0237695 2.20503e-20)
(0.932547 0.0167616 -1.65714e-20)
(0.973791 0.0110804 -6.50602e-18)
(0.981793 0.00691175 2.53921e-18)
(1.00428 0.00261068 -1.19365e-17)
(0.99523 -0.00135764 -4.58063e-18)
)
;

boundaryField
{
    out
    {
        type            fixedValue;
        value           uniform (1 0 0);
    }
    in
    {
        type            myVelocity;
    }
    frontAndBack
    {
        type            empty;
    }
}


// ************************************************************************* //
