/*--------------------------------*- C++ -*----------------------------------*\
| =========                 |                                                 |
| \\      /  F ield         | foam-extend: Open Source CFD                    |
|  \\    /   O peration     | Version:  3.0                                   |
|   \\  /    A nd           | Web:         http://www.extend-project.de       |
|    \\/     M anipulation  |                                                 |
\*---------------------------------------------------------------------------*/
FoamFile
{
    version     2.0;
    format      ascii;
    class       volVectorField;
    location    "80";
    object      s;
}
// * * * * * * * * * * * * * * * * * * * * * * * * * * * * * * * * * * * * * //

dimensions      [0 1 -1 0 0 0 0];

internalField   nonuniform List<vector> 
320
(
(1.22962 0.0945681 0)
(0.947093 0.0742793 0)
(0.767128 0.0603808 0)
(0.645758 0.051337 0)
(0.55684 0.0446805 0)
(0.490007 0.0398848 0)
(0.437674 0.036191 0)
(0.395577 0.0331708 0)
(1.20033 0.29174 0)
(0.923935 0.221901 0)
(0.748784 0.180226 0)
(0.630411 0.151222 0)
(0.543836 0.130527 0)
(0.479172 0.114506 0)
(0.4282 0.102367 0)
(0.389556 0.0920265 0)
(1.13698 0.47492 0)
(0.875541 0.363148 0)
(0.710484 0.294501 0)
(0.598184 0.247162 0)
(0.515929 0.212673 0)
(0.454281 0.186452 0)
(0.405104 0.165553 0)
(0.366549 0.149102 0)
(1.04774 0.643331 0)
(0.807016 0.494437 0)
(0.655068 0.401235 0)
(0.55149 0.337061 0)
(0.475457 0.29033 0)
(0.418296 0.25486 0)
(0.37251 0.226796 0)
(0.336171 0.204493 0)
(0.933784 0.79762 0)
(0.718993 0.613612 0)
(0.583578 0.497791 0)
(0.49122 0.418434 0)
(0.423465 0.360414 0)
(0.372504 0.316704 0)
(0.331777 0.281977 0)
(0.299527 0.254602 0)
(0.797306 0.932694 0)
(0.61384 0.717659 0)
(0.498115 0.582225 0)
(0.419204 0.489555 0)
(0.361286 0.421823 0)
(0.317735 0.370769 0)
(0.282991 0.330257 0)
(0.255472 0.298176 0)
(0.641448 1.04519 0)
(0.493747 0.804173 0)
(0.400619 0.652296 0)
(0.337097 0.548573 0)
(0.29052 0.472695 0)
(0.255484 0.415609 0)
(0.227572 0.370255 0)
(0.205465 0.334365 0)
(0.469953 1.13208 0)
(0.361749 0.870988 0)
(0.293464 0.706454 0)
(0.246902 0.594147 0)
(0.212747 0.512003 0)
(0.187071 0.450189 0)
(0.166629 0.401103 0)
(0.150438 0.36221 0)
(0.28699 1.19122 0)
(0.220936 0.916438 0)
(0.179236 0.743258 0)
(0.150781 0.625121 0)
(0.129914 0.538696 0)
(0.114218 0.473693 0)
(0.101729 0.422059 0)
(0.0918351 0.381152 0)
(0.0970516 1.22109 0)
(0.0747972 0.939398 0)
(0.0606868 0.761852 0)
(0.0510509 0.640756 0)
(0.0439577 0.552172 0)
(0.0386288 0.485541 0)
(0.0343813 0.432624 0)
(0.0310202 0.390687 0)
(-0.095207 1.22094 0)
(-0.0731236 0.93927 0)
(-0.0592755 0.761728 0)
(-0.0498585 0.640652 0)
(-0.0429969 0.55208 0)
(-0.0378384 0.485464 0)
(-0.0337479 0.432558 0)
(-0.0305032 0.390628 0)
(-0.285056 1.19076 0)
(-0.219185 0.916059 0)
(-0.177734 0.742895 0)
(-0.149492 0.62481 0)
(-0.128856 0.538424 0)
(-0.113336 0.473453 0)
(-0.101015 0.421856 0)
(-0.0912458 0.38096 0)
(-0.467832 1.13129 0)
(-0.359807 0.870317 0)
(-0.291773 0.705798 0)
(-0.245408 0.593609 0)
(-0.211506 0.511536 0)
(-0.186012 0.449808 0)
(-0.165768 0.400788 0)
(-0.14972 0.361933 0)
(-0.639042 1.04399 0)
(-0.491534 0.80317 0)
(-0.398603 0.651346 0)
(-0.335257 0.547812 0)
(-0.288931 0.47207 0)
(-0.254091 0.415103 0)
(-0.226425 0.369864 0)
(-0.204494 0.334006 0)
(-0.794478 0.931017 0)
(-0.611128 0.716265 0)
(-0.495593 0.580872 0)
(-0.416831 0.488542 0)
(-0.359224 0.420995 0)
(-0.3159 0.370191 0)
(-0.281496 0.329846 0)
(-0.254224 0.297867 0)
(-0.930319 0.795139 0)
(-0.71565 0.61174 0)
(-0.580362 0.496109 0)
(-0.488127 0.417253 0)
(-0.420662 0.359563 0)
(-0.369923 0.316171 0)
(-0.32963 0.281713 0)
(-0.29769 0.2544 0)
(-1.04323 0.639704 0)
(-0.802529 0.492164 0)
(-0.650824 0.399139 0)
(-0.547392 0.335698 0)
(-0.471732 0.289284 0)
(-0.414829 0.254373 0)
(-0.369641 0.22665 0)
(-0.333821 0.204674 0)
(-1.13043 0.468537 0)
(-0.86963 0.360482 0)
(-0.705247 0.292349 0)
(-0.593166 0.245882 0)
(-0.511179 0.211886 0)
(-0.449515 0.186315 0)
(-0.400546 0.166008 0)
(-0.361729 0.149912 0)
(-1.18978 0.285849 0)
(-0.915302 0.219933 0)
(-0.742291 0.178367 0)
(-0.624325 0.150017 0)
(-0.53803 0.129274 0)
(-0.473126 0.113672 0)
(-0.421584 0.101281 0)
(-0.380727 0.0914596 0)
(-1.21982 0.0961357 0)
(-0.938424 0.0739767 0)
(-0.761046 0.0599975 0)
(-0.640101 0.0504603 0)
(-0.551625 0.0434811 0)
(-0.485081 0.0382308 0)
(-0.432235 0.0340614 0)
(-0.390345 0.0307565 0)
(-1.21982 -0.0959355 0)
(-0.938427 -0.0737954 0)
(-0.761051 -0.059845 0)
(-0.640106 -0.0503357 0)
(-0.55163 -0.0433804 0)
(-0.485085 -0.0381498 0)
(-0.432239 -0.0339959 0)
(-0.390348 -0.0307031 0)
(-1.18977 -0.285639 0)
(-0.915312 -0.219746 0)
(-0.742305 -0.178211 0)
(-0.62434 -0.14989 0)
(-0.538043 -0.129172 0)
(-0.473138 -0.11359 0)
(-0.421594 -0.101215 0)
(-0.380735 -0.0914058 0)
(-1.13042 -0.468307 0)
(-0.869647 -0.360283 0)
(-0.705271 -0.292186 0)
(-0.593191 -0.245751 0)
(-0.511201 -0.211781 0)
(-0.449534 -0.186231 0)
(-0.400562 -0.165941 0)
(-0.361742 -0.149857 0)
(-1.04323 -0.639444 0)
(-0.802557 -0.491947 0)
(-0.65086 -0.398964 0)
(-0.547426 -0.335558 0)
(-0.471763 -0.289173 0)
(-0.414855 -0.254285 0)
(-0.369662 -0.226578 0)
(-0.333838 -0.204616 0)
(-0.930329 -0.794841 0)
(-0.715692 -0.611498 0)
(-0.58041 -0.495917 0)
(-0.488172 -0.417102 0)
(-0.420701 -0.359443 0)
(-0.369954 -0.316075 0)
(-0.329655 -0.281636 0)
(-0.29771 -0.254337 0)
(-0.794508 -0.930671 0)
(-0.61119 -0.715993 0)
(-0.495657 -0.580658 0)
(-0.416888 -0.488373 0)
(-0.359272 -0.42086 0)
(-0.315938 -0.370082 0)
(-0.281526 -0.329757 0)
(-0.254247 -0.297793 0)
(-0.639103 -1.04359 0)
(-0.49162 -0.802859 0)
(-0.398685 -0.6511 0)
(-0.335328 -0.547618 0)
(-0.288988 -0.471914 0)
(-0.254136 -0.414976 0)
(-0.226459 -0.369759 0)
(-0.20452 -0.333918 0)
(-0.467935 -1.13083 0)
(-0.359924 -0.869958 0)
(-0.291881 -0.705511 0)
(-0.245498 -0.593378 0)
(-0.211579 -0.511347 0)
(-0.186069 -0.449651 0)
(-0.165812 -0.400656 0)
(-0.149753 -0.361821 0)
(-0.285213 -1.19022 0)
(-0.219342 -0.915637 0)
(-0.17787 -0.742552 0)
(-0.149609 -0.624529 0)
(-0.128949 -0.538192 0)
(-0.113412 -0.473259 0)
(-0.101074 -0.421692 0)
(-0.0912928 -0.380819 0)
(-0.0954281 -1.22032 0)
(-0.0733283 -0.938775 0)
(-0.0594601 -0.761313 0)
(-0.0500184 -0.640306 0)
(-0.0431327 -0.551789 0)
(-0.0379508 -0.485216 0)
(-0.0338396 -0.432347 0)
(-0.0305771 -0.390443 0)
(0.0967499 -1.22038 0)
(0.0745226 -0.938798 0)
(0.0604456 -0.761332 0)
(0.0508275 -0.640322 0)
(0.0437692 -0.551804 0)
(0.0384626 -0.485234 0)
(0.0342442 -0.432364 0)
(0.0309051 -0.390463 0)
(0.2866 -1.19038 0)
(0.220586 -0.915715 0)
(0.178892 -0.74262 0)
(0.150455 -0.624579 0)
(0.129614 -0.538244 0)
(0.113952 -0.473309 0)
(0.101501 -0.421741 0)
(0.0916417 -0.380871 0)
(0.46945 -1.1311 0)
(0.361259 -0.870087 0)
(0.292992 -0.705627 0)
(0.246423 -0.593468 0)
(0.212317 -0.511433 0)
(0.186676 -0.449741 0)
(0.166295 -0.400737 0)
(0.150156 -0.361914 0)
(0.640812 -1.04396 0)
(0.493122 -0.803054 0)
(0.399932 -0.651298 0)
(0.336391 -0.547751 0)
(0.289834 -0.472052 0)
(0.254847 -0.415092 0)
(0.227026 -0.36987 0)
(0.204996 -0.334032 0)
(0.796477 -0.931166 0)
(0.612901 -0.716265 0)
(0.497137 -0.580925 0)
(0.418166 -0.488557 0)
(0.360318 -0.421016 0)
(0.316833 -0.370223 0)
(0.282238 -0.329867 0)
(0.254865 -0.297926 0)
(0.932639 -0.795477 0)
(0.717771 -0.61187 0)
(0.582225 -0.49633 0)
(0.489786 -0.417319 0)
(0.422023 -0.359651 0)
(0.371092 -0.316186 0)
(0.330552 -0.28173 0)
(0.298467 -0.254422 0)
(1.04601 -0.64038 0)
(0.805066 -0.492459 0)
(0.653178 -0.399442 0)
(0.549515 -0.335785 0)
(0.473519 -0.289287 0)
(0.416394 -0.254298 0)
(0.370847 -0.226515 0)
(0.334879 -0.204587 0)
(1.13389 -0.469689 0)
(0.872955 -0.360899 0)
(0.708325 -0.292847 0)
(0.595969 -0.245897 0)
(0.513563 -0.211856 0)
(0.451562 -0.185999 0)
(0.402107 -0.16569 0)
(0.362955 -0.149535 0)
(1.19449 -0.287954 0)
(0.919588 -0.220524 0)
(0.746271 -0.178756 0)
(0.627989 -0.149851 0)
(0.541207 -0.128832 0)
(0.475955 -0.112896 0)
(0.423734 -0.100319 0)
(0.382562 -0.0904115 0)
(1.22689 -0.100392 0)
(0.944478 -0.0742592 0)
(0.766302 -0.0603341 0)
(0.644825 -0.0499352 0)
(0.555897 -0.0427961 0)
(0.488923 -0.0368485 0)
(0.435624 -0.0326495 0)
(0.393253 -0.0282919 0)
)
;

boundaryField
{
    up
    {
        type            myHeatFlux;
        alpha           uniform 1;
        Theta_wall      uniform 1;
        value           nonuniform List<vector> 
40
(
(0.379223 0.0316978 0)
(0.375182 0.0887015 0)
(0.350056 0.142516 0)
(0.320993 0.195318 0)
(0.286127 0.243259 0)
(0.244089 0.284929 0)
(0.196322 0.319523 0)
(0.14375 0.346146 0)
(0.0877502 0.364252 0)
(0.0296343 0.373368 0)
(-0.0291607 0.373314 0)
(-0.08721 0.364075 0)
(-0.143091 0.345891 0)
(-0.195437 0.319201 0)
(-0.242963 0.284664 0)
(-0.284501 0.243123 0)
(-0.319031 0.195602 0)
(-0.345702 0.143266 0)
(-0.363857 0.087405 0)
(-0.37305 0.0293923 0)
(-0.373052 -0.0293434 0)
(-0.363865 -0.0873558 0)
(-0.345714 -0.143216 0)
(-0.319047 -0.195549 0)
(-0.28452 -0.243066 0)
(-0.242984 -0.284596 0)
(-0.195461 -0.31912 0)
(-0.143121 -0.345786 0)
(-0.0872524 -0.363942 0)
(-0.0292281 -0.37314 0)
(0.0295285 -0.373159 0)
(0.0875724 -0.363992 0)
(0.14349 -0.345872 0)
(0.195898 -0.319226 0)
(0.243544 -0.284711 0)
(0.285205 -0.243136 0)
(0.319951 -0.195492 0)
(0.346723 -0.142879 0)
(0.365114 -0.0863421 0)
(0.375748 -0.0271357 0)
)
;
    }
    hole
    {
        type            myHeatFlux;
        alpha           uniform 1;
        Theta_wall      uniform 4;
        value           nonuniform List<vector> 
40
(
(1.5142 0.117162 -2.62334e-18)
(1.47547 0.357476 0)
(1.38925 0.579055 2.07984e-17)
(1.27917 0.785041 0)
(1.14156 0.975066 -2.0746e-17)
(0.975112 1.14095 2.07401e-17)
(0.784609 1.27894 -0)
(0.574818 1.38547 -0)
(0.35093 1.45793 -0)
(0.118485 1.49451 2.58962e-18)
(-0.116802 1.49432 -2.58907e-18)
(-0.349137 1.45737 -0)
(-0.572811 1.38457 2.07056e-17)
(-0.782324 1.2777 -0)
(-0.972528 1.13942 -2.07007e-17)
(-1.13875 0.973106 2.06989e-17)
(-1.27691 0.782867 -0)
(-1.38361 0.57338 -0)
(-1.45622 0.349798 -0)
(-1.49298 0.117622 2.58687e-18)
(-1.49297 -0.117439 -2.58683e-18)
(-1.45619 -0.349601 -0)
(-1.38356 -0.573154 2.06946e-17)
(-1.27686 -0.782598 0)
(-1.1387 -0.972782 -2.06955e-17)
(-0.972493 -1.13903 2.06963e-17)
(-0.782319 -1.27724 0)
(-0.572853 -1.38402 0)
(-0.349245 -1.45674 0)
(-0.116991 -1.4936 2.58785e-18)
(0.118197 -1.49369 -2.58818e-18)
(0.350538 -1.45701 0)
(0.57431 -1.38445 2.07121e-17)
(0.78401 -1.27779 0)
(0.974451 -1.13967 -2.07207e-17)
(1.14094 -0.973479 2.07253e-17)
(1.2793 -0.783394 0)
(1.38611 -0.57416 -0)
(1.45782 -0.351068 -0)
(1.50056 -0.121587 2.60045e-18)
)
;
    }
    frontAndBack
    {
        type            empty;
    }
}


// ************************************************************************* //
