/*--------------------------------*- C++ -*----------------------------------*\
| =========                 |                                                 |
| \\      /  F ield         | foam-extend: Open Source CFD                    |
|  \\    /   O peration     | Version:  3.0                                   |
|   \\  /    A nd           | Web:         http://www.extend-project.de       |
|    \\/     M anipulation  |                                                 |
\*---------------------------------------------------------------------------*/
FoamFile
{
    version     2.0;
    format      ascii;
    class       volScalarField;
    location    "80";
    object      Theta;
}
// * * * * * * * * * * * * * * * * * * * * * * * * * * * * * * * * * * * * * //

dimensions      [0 2 -2 0 0 0 0];

internalField   nonuniform List<scalar> 
320
(
2.48128
2.03091
1.97402
1.75726
1.70494
1.55313
1.51663
1.38053
2.45384
2.06934
1.95712
1.76501
1.68093
1.55529
1.47398
1.38643
2.33579
2.04981
1.95556
1.76487
1.69658
1.5667
1.50066
1.41776
2.35044
2.06271
1.94631
1.76761
1.68365
1.56506
1.48893
1.41314
2.34599
2.05425
1.94676
1.76754
1.68907
1.56793
1.49393
1.41452
2.34812
2.05826
1.94209
1.76818
1.68369
1.56722
1.49072
1.41328
2.34713
2.05524
1.94259
1.76808
1.68529
1.5679
1.49168
1.41345
2.348
2.05649
1.94057
1.76813
1.68319
1.56754
1.49058
1.41296
2.34788
2.05556
1.94085
1.76808
1.68359
1.56766
1.4907
1.4129
2.3483
2.05597
1.94007
1.76802
1.68279
1.56747
1.49028
1.41268
2.34842
2.05576
1.94021
1.76801
1.68287
1.56747
1.49025
1.41261
2.34866
2.05592
1.93995
1.76797
1.68258
1.56737
1.49008
1.4125
2.34881
2.05593
1.94003
1.76798
1.68259
1.56736
1.49004
1.41245
2.34897
2.05602
1.93996
1.76797
1.68249
1.56731
1.48997
1.4124
2.34909
2.05607
1.94002
1.76799
1.6825
1.56731
1.48995
1.41238
2.3492
2.05614
1.94002
1.768
1.68247
1.5673
1.48993
1.41235
2.34929
2.05619
1.94005
1.76802
1.68248
1.5673
1.48992
1.41234
2.34935
2.05623
1.94007
1.76803
1.68248
1.5673
1.48991
1.41234
2.34941
2.05627
1.9401
1.76805
1.68249
1.5673
1.48991
1.41233
2.34944
2.05629
1.94011
1.76806
1.68249
1.5673
1.48991
1.41233
2.34946
2.0563
1.94012
1.76806
1.6825
1.5673
1.48991
1.41233
2.34947
2.05631
1.94012
1.76806
1.6825
1.5673
1.48991
1.41233
2.34946
2.0563
1.94012
1.76806
1.6825
1.5673
1.48991
1.41233
2.34944
2.05629
1.94011
1.76805
1.68249
1.5673
1.48991
1.41233
2.3494
2.05626
1.9401
1.76804
1.6825
1.5673
1.48992
1.41233
2.34935
2.05622
1.94008
1.76802
1.68249
1.56729
1.48992
1.41234
2.34928
2.05617
1.94008
1.768
1.6825
1.56729
1.48993
1.41235
2.3492
2.05612
1.94003
1.76798
1.68249
1.56729
1.48994
1.41236
2.34907
2.05601
1.94008
1.76794
1.68256
1.56729
1.48998
1.41239
2.34897
2.056
1.93999
1.76793
1.68253
1.56729
1.49
1.41241
2.34876
2.05576
1.94021
1.76784
1.68276
1.5673
1.49012
1.41248
2.34867
2.05589
1.93999
1.76789
1.68265
1.56733
1.49012
1.41252
2.34827
2.05532
1.94071
1.76763
1.68331
1.5673
1.49045
1.41267
2.34835
2.05593
1.94013
1.76789
1.68291
1.56738
1.49035
1.41271
2.34752
2.05446
1.94217
1.76712
1.6847
1.56721
1.49121
1.41306
2.34817
2.05643
1.94065
1.76793
1.68336
1.5674
1.49067
1.41298
2.3463
2.05251
1.94595
1.76582
1.6879
1.56669
1.49298
1.41382
2.34851
2.058
1.94216
1.76792
1.68393
1.56707
1.4908
1.41321
2.34533
2.04742
1.95495
1.76276
1.69463
1.56442
1.49784
1.41552
2.33861
2.06115
1.94594
1.76732
1.68403
1.56533
1.4897
1.41343
)
;

boundaryField
{
    up
    {
        type            myTemperature;
        value           nonuniform List<scalar> 
40
(
1.38054
1.34316
1.37795
1.37575
1.37556
1.37518
1.37502
1.37481
1.37467
1.37454
1.37445
1.37437
1.37432
1.37428
1.37425
1.37423
1.37422
1.37421
1.37421
1.37421
1.3742
1.3742
1.3742
1.37421
1.37421
1.37421
1.37422
1.37424
1.37426
1.37428
1.37433
1.37438
1.37446
1.37454
1.37467
1.37478
1.37495
1.37501
1.37518
1.37672
)
;
    }
    hole
    {
        type            myTemperature;
        value           nonuniform List<scalar> 
40
(
2.48128
2.6477
2.49491
2.49914
2.4987
2.49913
2.49956
2.50002
2.50043
2.5008
2.50112
2.50139
2.50162
2.50182
2.50198
2.50211
2.50221
2.50229
2.50235
2.50239
2.50242
2.50243
2.50242
2.5024
2.50235
2.50229
2.50221
2.50211
2.50198
2.50183
2.50164
2.50141
2.50115
2.50086
2.50053
2.5002
2.49989
2.49968
2.50051
2.49453
)
;
    }
    frontAndBack
    {
        type            empty;
    }
}


// ************************************************************************* //
