/*--------------------------------*- C++ -*----------------------------------*\
| =========                 |                                                 |
| \\      /  F ield         | foam-extend: Open Source CFD                    |
|  \\    /   O peration     | Version:  3.0                                   |
|   \\  /    A nd           | Web:         http://www.extend-project.de       |
|    \\/     M anipulation  |                                                 |
\*---------------------------------------------------------------------------*/
FoamFile
{
    version     2.0;
    format      ascii;
    class       volScalarField;
    location    "10";
    object      Theta;
}
// * * * * * * * * * * * * * * * * * * * * * * * * * * * * * * * * * * * * * //

dimensions      [0 2 -2 0 0 0 0];

internalField   nonuniform List<scalar> 
3012
(
1.30349
1.30998
1.30361
1.30239
1.50362
1.49859
1.51463
1.50544
1.21721
1.21681
1.21809
1.21592
1.1115
1.11113
1.10846
1.1074
1.17846
1.18109
1.16877
1.1646
1.14349
1.14263
1.14319
1.14343
1.42722
1.42946
1.4246
1.42662
1.17496
1.17532
1.17328
1.17542
1.12514
1.12221
1.1232
1.12364
1.1911
1.20407
1.19883
1.19448
1.18067
1.1813
1.1813
1.17917
1.23632
1.2376
1.23769
1.23807
1.13727
1.1369
1.1359
1.13567
1.39387
1.39372
1.39139
1.39154
1.05048
1.04714
1.04806
1.04795
1.71915
1.69309
1.71267
1.71184
1.17522
1.17158
1.1792
1.17823
1.14505
1.14455
1.14493
1.14359
1.14403
1.14434
1.14319
1.1442
1.12342
1.12118
1.1237
1.12309
1.16409
1.16527
1.16098
1.16232
1.123
1.12265
1.12433
1.12223
1.16832
1.17026
1.16826
1.16814
1.14989
1.15065
1.14736
1.14934
1.13887
1.13885
1.14134
1.14161
1.17604
1.17556
1.17587
1.17443
1.1741
1.17369
1.17488
1.175
1.13659
1.13491
1.13351
1.13371
1.19967
1.20176
1.20068
1.20145
1.1114
1.11073
1.1112
1.11109
1.11071
1.11123
1.11098
1.11137
1.29746
1.29872
1.29558
1.29924
1.33339
1.34361
1.33436
1.33601
1.37424
1.37429
1.37753
1.37176
1.55264
1.5537
1.5502
1.55946
1.42872
1.42233
1.42536
1.43201
1.07009
1.06443
1.06271
1.06899
1.18954
1.17519
1.18238
1.18786
1.14977
1.14978
1.15012
1.1503
1.16761
1.16699
1.16701
1.16855
1.15767
1.15701
1.15759
1.15691
0.847371
0.864091
0.850478
0.861686
1.13351
1.13163
1.13285
1.13278
1.53497
1.53413
1.53375
1.53086
1.35695
1.36268
1.35752
1.35887
1.09979
1.11978
1.09987
1.11055
1.20791
1.20696
1.20843
1.20882
1.12564
1.12456
1.12607
1.12531
1.10057
1.09953
1.09997
1.10035
1.18047
1.1801
1.17993
1.1791
1.10541
1.10397
1.10613
1.10786
1.22693
1.22334
1.2277
1.22666
1.0682
1.06834
1.068
1.06817
1.07713
1.0767
1.07726
1.07693
1.16018
1.15892
1.15931
1.15946
1.07753
1.07725
1.07696
1.07734
1.10223
1.10459
1.1051
1.10458
1.15933
1.15878
1.15963
1.15953
1.15798
1.1585
1.15919
1.15975
1.1664
1.16651
1.1655
1.16637
1.14184
1.14086
1.14208
1.14144
1.15115
1.15165
1.15064
1.15018
1.24331
1.24205
1.24368
1.24408
1.23501
1.23499
1.23415
1.23365
1.29209
1.29188
1.2899
1.29037
1.14766
1.14859
1.14838
1.14855
1.14887
1.1486
1.14846
1.14842
1.15976
1.16081
1.1579
1.1603
1.20284
1.20251
1.20452
1.20105
1.1258
1.12442
1.12344
1.1224
0.986554
0.99271
0.9859
0.993235
1.08373
1.08398
1.08375
1.08455
1.24175
1.24219
1.23851
1.24466
1.09398
1.09463
1.10203
1.10235
1.2141
1.21851
1.21626
1.21765
1.14147
1.14242
1.13948
1.14414
1.14906
1.14774
1.14756
1.1503
0.78304
0.787692
0.782866
0.789194
1.08531
1.08373
1.08304
1.08507
1.14757
1.14749
1.14752
1.14658
1.10168
1.10177
1.10084
1.10155
1.14301
1.14203
1.14206
1.14316
1.35574
1.35692
1.35621
1.35741
1.11456
1.11419
1.11331
1.113
1.11553
1.11451
1.11348
1.11404
1.10117
1.10082
1.10064
1.10156
1.18023
1.18195
1.18071
1.18149
1.18097
1.18191
1.1806
1.18027
1.08248
1.08314
1.08275
1.08284
1.07714
1.07729
1.07929
1.07763
1.17342
1.175
1.17472
1.17384
1.17428
1.17543
1.17328
1.17355
1.1892
1.18917
1.18749
1.18891
1.15069
1.15159
1.15239
1.15022
1.22545
1.22531
1.22408
1.22546
1.21852
1.21892
1.22029
1.22082
1.1542
1.15521
1.15494
1.15547
1.26323
1.25995
1.26018
1.26407
1.21559
1.21151
1.21293
1.21584
1.14715
1.14799
1.14794
1.14791
1.18835
1.18921
1.18889
1.19058
1.13199
1.12885
1.13131
1.13166
1.17797
1.17377
1.17756
1.17421
1.15006
1.14795
1.1495
1.15068
0.999532
1.00611
1.0053
1.00505
1.15067
1.15034
1.15113
1.15054
1.10792
1.10771
1.10734
1.10763
1.10619
1.10671
1.10622
1.10668
1.15085
1.15102
1.15064
1.15112
1.11566
1.1174
1.11824
1.11761
1.21469
1.21189
1.21644
1.21754
1.11315
1.11249
1.11297
1.11283
1.3407
1.32732
1.33675
1.3376
1.11292
1.11322
1.11269
1.11335
0.0835991
0.0862124
0.0846002
0.08632
1.25776
1.25667
1.2577
1.25675
1.04906
1.04821
1.04858
1.04825
1.16632
1.16997
1.16786
1.16872
1.31146
1.32163
1.31672
1.31891
1.14205
1.14165
1.1424
1.14224
1.25561
1.25694
1.25652
1.25751
1.19295
1.19058
1.19395
1.19583
1.51225
1.55715
1.54356
1.5545
1.07899
1.07901
1.07881
1.07832
1.08018
1.07905
1.0786
1.08029
1.18545
1.18884
1.1886
1.18729
1.1876
1.19199
1.18732
1.18855
1.17555
1.16407
1.17163
1.18548
1.13631
1.13511
1.13645
1.13585
1.19366
1.19374
1.19501
1.19234
1.13468
1.1348
1.13391
1.13445
1.13536
1.13619
1.13528
1.13585
1.13576
1.13253
1.12924
1.13318
1.37661
1.38583
1.38405
1.38376
1.14056
1.13918
1.14015
1.13852
1.21904
1.21574
1.21872
1.21798
1.24768
1.25178
1.24743
1.25031
1.17009
1.17106
1.17055
1.17157
1.23093
1.23052
1.22965
1.23159
1.14142
1.14074
1.14093
1.14147
1.23181
1.23118
1.23102
1.23185
1.16712
1.16503
1.16799
1.16835
1.14016
1.13998
1.13947
1.14035
1.22835
1.22864
1.22923
1.2272
1.11007
1.10792
1.11064
1.11117
1.13956
1.14036
1.13992
1.1404
0.246003
0.244203
0.247906
0.248211
1.17606
1.17783
1.17468
1.17724
1.11508
1.11523
1.11424
1.11545
1.31813
1.31659
1.31785
1.31803
1.67074
1.66838
1.67034
1.67067
1.47172
1.46784
1.47539
1.47255
1.27205
1.27276
1.27271
1.27167
1.19082
1.19138
1.18956
1.18827
1.01611
1.01336
1.01614
1.01698
1.15104
1.14927
1.14921
1.14967
1.10152
1.09996
1.10039
1.10084
1.0871
1.08811
1.08915
1.08774
1.16421
1.16487
1.16353
1.16387
1.1018
1.10163
1.10232
1.10224
1.14076
1.13867
1.14026
1.14113
1.13344
1.13587
1.12879
1.1385
1.32663
1.327
1.32661
1.32682
1.29711
1.3135
1.29738
1.30781
1.38011
1.38003
1.37531
1.37715
1.14344
1.14096
1.14267
1.14081
1.34859
1.34979
1.34866
1.34401
1.12522
1.1277
1.12963
1.12714
1.1066
1.10698
1.10786
1.10916
1.1116
1.113
1.11154
1.11173
-0.173031
-0.185402
-0.178296
-0.17444
1.17854
1.17894
1.17802
1.17898
1.26076
1.26071
1.25505
1.2534
1.12956
1.13007
1.12913
1.13017
1.11595
1.11544
1.11514
1.11583
1.12996
1.12993
1.12978
1.12928
-0.0113906
-0.00283217
-0.00350155
-0.00307082
1.16733
1.1676
1.16658
1.16603
1.11515
1.1154
1.11451
1.11573
1.10698
1.10653
1.10707
1.10661
1.17111
1.17127
1.17096
1.17039
1.17062
1.17026
1.17113
1.17126
1.13853
1.13857
1.13852
1.13827
1.30589
1.32592
1.31432
1.32514
1.11065
1.11228
1.11471
1.10744
1.4904
1.48159
1.491
1.49409
1.15251
1.1506
1.15024
1.15051
1.45239
1.46082
1.45678
1.46488
1.19729
1.20573
1.20339
1.20391
1.40915
1.41004
1.41133
1.40888
1.18625
1.18524
1.18722
1.18515
1.05493
1.0538
1.05425
1.05343
1.32581
1.32826
1.32852
1.32758
1.07996
1.08052
1.08147
1.08041
1.23594
1.23653
1.23557
1.2398
1.18697
1.18582
1.18625
1.18657
1.19046
1.18395
1.18759
1.18171
1.1732
1.17022
1.17506
1.17134
1.30365
1.30315
1.30193
1.30194
1.11235
1.1121
1.11275
1.11268
1.11435
1.11405
1.11453
1.11409
1.29104
1.29042
1.29063
1.29065
1.12203
1.12113
1.12003
1.12266
1.18356
1.18512
1.18454
1.18535
1.18339
1.18587
1.18445
1.18457
1.1905
1.19215
1.19003
1.19095
1.11756
1.11715
1.11678
1.11875
1.16564
1.1645
1.16564
1.16447
1.12742
1.12705
1.1276
1.12778
1.28274
1.28858
1.28199
1.28877
1.16416
1.16513
1.16533
1.16517
0.991922
0.991994
0.997552
0.985577
1.2545
1.25625
1.25408
1.25645
1.12785
1.1277
1.12705
1.1273
1.7473
1.75209
1.75524
1.75553
1.67563
1.67284
1.67506
1.67441
1.1064
1.11401
1.11178
1.1037
1.34062
1.34314
1.34216
1.33943
1.08469
1.08423
1.08436
1.08528
1.08633
1.08615
1.08557
1.08562
0.899442
0.906863
0.90434
0.900658
1.17706
1.17811
1.17601
1.17686
1.17465
1.17391
1.17462
1.17491
1.60031
1.5969
1.59576
1.59698
1.23718
1.23693
1.23581
1.23834
1.1167
1.11757
1.11888
1.11752
1.24129
1.24008
1.23911
1.24066
1.14605
1.14666
1.14599
1.14494
1.14834
1.14929
1.14905
1.14912
1.18623
1.17558
1.1742
1.17452
1.17149
1.1712
1.17088
1.17074
1.16552
1.16378
1.16513
1.16364
1.17179
1.16517
1.1707
1.16793
1.14116
1.14155
1.14268
1.14412
1.13958
1.13955
1.13984
1.13961
1.17852
1.17965
1.18151
1.17823
1.09027
1.09004
1.09036
1.09048
1.10719
1.10814
1.10854
1.10752
1.17084
1.17138
1.1713
1.1713
1.35194
1.35384
1.35018
1.35232
1.09517
1.09347
1.09435
1.09305
1.17216
1.17344
1.17267
1.17356
1.12228
1.12135
1.12263
1.12274
1.10597
1.10502
1.10551
1.10651
1.28834
1.28751
1.2875
1.28797
1.31758
1.31624
1.31791
1.3166
1.14002
1.13912
1.14053
1.14034
1.16259
1.16704
1.1627
1.16693
1.10705
1.10702
1.10722
1.10682
1.16582
1.16386
1.16847
1.16892
1.41772
1.41682
1.4132
1.41374
1.19774
1.18918
1.20391
1.18738
1.15608
1.15925
1.15609
1.15619
1.11308
1.11353
1.11142
1.11277
1.14695
1.14598
1.14661
1.1466
1.17067
1.16837
1.16895
1.17069
0.942618
0.951967
0.95912
0.941573
1.0959
1.10028
1.10305
1.103
1.0765
1.07473
1.07319
1.07623
1.14522
1.14484
1.14573
1.14559
1.14602
1.14618
1.14691
1.14694
1.14508
1.14533
1.14551
1.14493
1.14924
1.15023
1.15077
1.15002
1.15
1.15271
1.15172
1.15081
1.31571
1.31049
1.31155
1.31153
1.13651
1.13619
1.13697
1.13749
1.15413
1.1546
1.15385
1.15494
1.20106
1.19965
1.20282
1.1999
1.17003
1.16933
1.16894
1.16847
1.15226
1.15158
1.15134
1.15239
1.14077
1.14156
1.14155
1.14102
1.20304
1.20236
1.20063
1.20221
1.18821
1.18723
1.18789
1.18784
1.15667
1.15755
1.15723
1.15751
1.11532
1.11548
1.11565
1.11507
1.18553
1.17735
1.17912
1.18489
1.1533
1.1528
1.15241
1.15239
1.11497
1.11382
1.11618
1.11517
1.12263
1.12414
1.12377
1.12169
1.14646
1.14727
1.14737
1.14602
1.1472
1.14806
1.14807
1.14724
1.33019
1.32814
1.32685
1.32808
1.16699
1.16765
1.16715
1.1659
1.16237
1.16122
1.16186
1.16214
1.22113
1.22858
1.21981
1.21622
1.18749
1.18796
1.18709
1.18586
0.928638
0.935155
0.931778
0.929538
1.16513
1.1689
1.16588
1.16684
1.10037
1.09926
1.09882
1.09812
1.17954
1.18068
1.17985
1.18087
1.0972
1.09668
1.09709
1.09678
1.12239
1.12268
1.12292
1.12494
1.09507
1.09689
1.09551
1.09771
1.10316
1.10074
1.10139
1.10206
1.07658
1.07207
1.07411
1.07652
1.27987
1.28301
1.28255
1.28258
1.06115
1.05266
1.0548
1.06182
1.11101
1.10665
1.10885
1.10747
1.35053
1.34922
1.35112
1.35149
1.12294
1.12348
1.12328
1.12368
1.10005
1.10048
1.10066
1.10024
1.09437
1.09312
1.09428
1.09493
1.11662
1.116
1.11613
1.116
1.12003
1.11961
1.11948
1.11959
1.20559
1.20669
1.20595
1.20666
1.21164
1.21146
1.21367
1.21183
1.12394
1.12375
1.12284
1.12306
1.20327
1.2034
1.20342
1.20267
1.14473
1.14408
1.14488
1.14513
1.19696
1.19278
1.19732
1.19763
1.3107
1.31816
1.31287
1.31037
1.04071
1.0412
1.04114
1.0408
1.04184
1.04151
1.04202
1.04168
1.15433
1.15329
1.15602
1.15117
1.04036
1.04489
1.03779
1.03725
1.22816
1.22748
1.22802
1.22781
1.14255
1.14195
1.14261
1.14313
1.09024
1.08889
1.08968
1.09
1.08345
1.08261
1.08323
1.08314
1.14457
1.14338
1.14429
1.14477
1.17687
1.17758
1.17796
1.1781
1.24813
1.24335
1.23533
1.24896
1.06552
1.06178
1.06183
1.06561
1.1641
1.16419
1.1636
1.16447
1.12706
1.12764
1.12728
1.1261
1.18533
1.1869
1.18849
1.18823
1.16337
1.16205
1.16252
1.1628
1.16847
1.16874
1.16857
1.16798
1.17005
1.16944
1.1688
1.16676
1.12675
1.12684
1.12705
1.12788
1.13665
1.13713
1.13489
1.13738
1.12009
1.12196
1.11999
1.11986
1.12409
1.12542
1.12767
1.12524
1.08833
1.08908
1.08883
1.09072
1.16942
1.17066
1.16809
1.17095
1.12778
1.1273
1.12742
1.12733
1.16979
1.16938
1.17079
1.16894
1.10928
1.10987
1.10816
1.10803
1.12222
1.12287
1.1241
1.12321
1.13071
1.12816
1.12533
1.12941
1.00242
1.00253
1.0023
1.00232
1.09199
1.09025
1.09126
1.08792
1.0008
1.00115
1.00102
1.001
1.18927
1.18583
1.18905
1.18944
1.17068
1.17311
1.17113
1.17192
1.38505
1.38108
1.38419
1.38425
1.11124
1.10864
1.10942
1.10867
1.26438
1.27551
1.2718
1.27003
1.36252
1.3742
1.37544
1.3755
1.17861
1.1784
1.17657
1.1785
1.13125
1.12962
1.12985
1.13181
1.16354
1.16239
1.16323
1.16417
1.13879
1.14298
1.14128
1.14208
1.11502
1.11543
1.11501
1.11579
1.1157
1.11572
1.11507
1.11536
1.28384
1.28453
1.28384
1.2832
1.1267
1.12677
1.12515
1.12644
1.18732
1.18661
1.18736
1.18768
1.36879
1.37796
1.37307
1.37944
1.20159
1.20744
1.207
1.20663
1.13588
1.14742
1.14634
1.14531
1.81932
1.81902
1.81907
1.81848
1.16795
1.16745
1.16837
1.16795
1.21718
1.21641
1.21714
1.21741
1.12625
1.12491
1.12737
1.12649
1.13671
1.1359
1.13468
1.13507
1.16762
1.16834
1.1682
1.16797
1.0079
1.00759
1.00782
1.00778
1.21582
1.21648
1.21677
1.21733
1.0081
1.00784
1.00762
1.00782
1.29955
1.29687
1.30003
1.29671
1.11804
1.11736
1.11747
1.11742
1.18931
1.18853
1.18998
1.18976
1.19093
1.19052
1.18968
1.19146
1.11827
1.11822
1.11877
1.11873
1.1436
1.14404
1.14593
1.14387
1.16788
1.1676
1.16848
1.16678
1.16492
1.16329
1.15934
1.16103
1.13591
1.13462
1.13635
1.13553
1.09982
1.10184
1.10358
1.09603
1.14396
1.14077
1.14331
1.14282
1.22613
1.22765
1.22532
1.22732
1.12495
1.12439
1.12483
1.12511
1.16969
1.17034
1.17222
1.17373
1.14161
1.14056
1.14119
1.14149
1.13296
1.13264
1.13342
1.13289
1.13297
1.13357
1.13365
1.13323
1.12358
1.12299
1.12368
1.12317
1.12377
1.12308
1.12365
1.12339
1.09799
1.09791
1.09706
1.09741
0.253911
0.243598
0.250646
0.253029
1.09965
1.09958
1.10007
1.09996
1.11311
1.1118
1.11326
1.11255
1.11309
1.11216
1.11358
1.11337
1.08221
1.08231
1.08148
1.08221
1.03592
1.03603
1.03637
1.03612
1.03655
1.03683
1.03708
1.03664
1.13949
1.13917
1.1409
1.13978
1.08164
1.08029
1.08231
1.08114
1.11234
1.11302
1.11279
1.11122
1.84117
1.84172
1.84109
1.84004
1.15016
1.14921
1.14992
1.1498
1.16054
1.15822
1.1607
1.16009
1.15281
1.1538
1.15256
1.15359
1.07208
1.07326
1.07194
1.07154
1.15023
1.15112
1.15087
1.15007
1.0669
1.06736
1.06707
1.06732
1.18896
1.18776
1.18519
1.1872
1.13929
1.13942
1.13834
1.13967
1.18753
1.18896
1.18466
1.18744
1.21325
1.21286
1.21402
1.21398
0.315516
0.350461
0.349437
0.324325
1.89394
1.88879
1.89425
1.89074
1.12761
1.12336
1.12686
1.12417
1.21422
1.21674
1.21671
1.21678
1.18401
1.18258
1.18207
1.18288
1.87206
1.87011
1.87075
1.87156
1.19921
1.20117
1.19892
1.19997
1.22513
1.23141
1.22407
1.22595
1.1225
1.12294
1.1231
1.12326
1.12328
1.12311
1.12289
1.12259
1.14844
1.15241
1.15134
1.15117
1.19125
1.19256
1.19213
1.19358
1.15142
1.1498
1.15119
1.15262
1.21826
1.21654
1.21615
1.21679
1.14407
1.14475
1.14423
1.14249
1.23267
1.23701
1.2357
1.23645
1.17049
1.16686
1.17034
1.17075
1.11338
1.11466
1.11221
1.11147
1.13176
1.13138
1.13142
1.13092
1.13158
1.13186
1.1318
1.13192
1.17106
1.17173
1.17112
1.17362
1.15546
1.15727
1.15705
1.15502
1.26183
1.26231
1.26237
1.26181
1.1285
1.12725
1.12838
1.1286
1.1283
1.12767
1.12906
1.12891
1.17683
1.17789
1.17775
1.17692
1.19856
1.19726
1.1989
1.19931
1.18451
1.18514
1.18545
1.1855
1.15868
1.15957
1.16096
1.15789
1.1947
1.19581
1.19674
1.19606
1.2409
1.23817
1.23564
1.23722
1.13778
1.13737
1.1375
1.13693
1.18986
1.18927
1.18695
1.18723
1.13719
1.13746
1.13805
1.13788
1.18022
1.18191
1.18397
1.1781
1.18286
1.18882
1.18385
1.18569
1.24356
1.24095
1.24278
1.24378
1.16966
1.17316
1.16948
1.17254
1.1707
1.1695
1.17282
1.17302
1.44012
1.43497
1.43132
1.43349
1.15516
1.15325
1.15486
1.15309
1.23683
1.23574
1.23462
1.23612
1.14651
1.14734
1.14667
1.14721
1.2184
1.2323
1.22123
1.21904
1.12627
1.12479
1.12537
1.12465
1.12479
1.12525
1.12544
1.12438
1.11898
1.12133
1.11996
1.12154
1.12112
1.11908
1.12028
1.11929
1.10325
1.1015
1.10244
1.1018
1.16375
1.1635
1.16526
1.16303
1.14922
1.1509
1.14882
1.14787
1.16329
1.16556
1.16398
1.16469
1.09387
1.09427
1.09352
1.09432
1.1701
1.1698
1.17202
1.17274
1.63074
1.63202
1.63165
1.63166
1.15474
1.15444
1.15465
1.154
1.12237
1.12256
1.12218
1.1218
1.12552
1.12591
1.12605
1.12624
1.15439
1.15468
1.155
1.15511
1.12628
1.12614
1.12559
1.12586
1.12171
1.12218
1.12214
1.12245
1.11172
1.11283
1.1129
1.11131
1.09533
1.09466
1.09804
1.09533
1.09092
1.09033
1.09078
1.09064
1.15782
1.15747
1.15846
1.15821
1.09102
1.09073
1.09038
1.09079
1.18633
1.18706
1.19168
1.19124
1.15969
1.15984
1.15971
1.15792
1.17804
1.17958
1.17516
1.17042
1.1484
1.14508
1.14629
1.14722
1.31069
1.30609
1.31263
1.30743
1.13844
1.13927
1.13896
1.13947
1.1246
1.12564
1.12588
1.12582
1.15854
1.15868
1.15837
1.15738
1.26627
1.27199
1.27154
1.26617
1.18218
1.18054
1.1808
1.18103
1.26032
1.26051
1.26014
1.26195
1.34745
1.35139
1.34623
1.35536
1.63067
1.63125
1.63049
1.62971
1.10966
1.10459
1.1065
1.10278
1.16917
1.16994
1.16489
1.16488
1.10924
1.10986
1.10992
1.10937
1.15669
1.15667
1.15764
1.15718
1.15703
1.15732
1.1575
1.1577
1.10953
1.11002
1.10977
1.11018
1.11643
1.11681
1.11593
1.11639
1.26304
1.26073
1.26592
1.26383
1.12275
1.12284
1.12256
1.12216
1.11453
1.11396
1.11444
1.11466
1.16833
1.16728
1.16835
1.16695
1.11698
1.11745
1.11775
1.1173
1.10641
1.10672
1.10551
1.10475
1.10752
1.10515
1.10816
1.10796
1.16488
1.16571
1.16618
1.16588
1.26495
1.25975
1.26473
1.26233
1.2476
1.24548
1.24666
1.24716
1.19749
1.19509
1.19541
1.19687
1.14031
1.14114
1.13763
1.14204
1.10866
1.10833
1.10882
1.10856
1.10834
1.10906
1.10905
1.10871
1.15929
1.1593
1.15912
1.15971
1.27023
1.26892
1.27209
1.27192
1.15758
1.15709
1.15774
1.15623
1.1421
1.14173
1.13904
1.14324
1.26645
1.26625
1.26206
1.26171
1.24001
1.24031
1.24063
1.2401
1.197
1.19539
1.19563
1.19522
-0.10307
-0.102108
-0.102887
-0.106891
1.64509
1.64072
1.6464
1.64398
1.19994
1.19873
1.19937
1.1986
1.16948
1.17019
1.16784
1.16697
1.15022
1.15148
1.15095
1.14934
1.18136
1.17365
1.18226
1.17693
1.10199
1.10145
1.10922
1.1021
1.08
1.07979
1.08088
1.08034
1.15113
1.15015
1.15006
1.15013
1.14351
1.14498
1.14346
1.14448
1.08348
1.09005
1.08276
1.07841
1.12842
1.12791
1.12771
1.12751
1.14083
1.14007
1.14068
1.14118
1.14201
1.14291
1.14357
1.14317
1.10504
1.10466
1.1051
1.10534
1.1296
1.13012
1.13043
1.13052
1.1052
1.10561
1.10495
1.10546
1.20857
1.20285
1.20799
1.20549
1.39929
1.39239
1.39389
1.39289
1.18762
1.18591
1.18551
1.1838
1.18383
1.18651
1.18361
1.18335
1.27535
1.27563
1.27163
1.27462
1.08733
1.08697
1.08682
1.08728
1.08893
1.08912
1.08847
1.08893
1.21468
1.21232
1.21538
1.21386
1.36264
1.3494
1.35825
1.35061
1.47827
1.48408
1.48711
1.48173
1.14269
1.14304
1.14371
1.14146
1.18953
1.18954
1.18562
1.18629
1.31361
1.31066
1.31552
1.31395
1.23178
1.21942
1.2311
1.22394
1.19748
1.19714
1.19504
1.19645
1.15935
1.15961
1.15951
1.15918
1.09547
1.09503
1.09491
1.09547
1.11608
1.11663
1.11726
1.11682
1.23937
1.23904
1.24025
1.23753
1.15869
1.15951
1.15941
1.15942
1.11947
1.11895
1.11943
1.11979
1.17273
1.17172
1.17397
1.1733
1.18787
1.18714
1.18678
1.18843
1.09755
1.09656
1.09839
1.09726
-0.0578071
-0.0411226
-0.0514945
-0.0391993
1.12102
1.12008
1.12085
1.12106
1.10226
1.10205
1.09884
1.10235
1.10204
1.10153
1.10199
1.10146
1.28899
1.2835
1.27964
1.2821
1.11984
1.11896
1.11993
1.11911
1.11977
1.11928
1.11956
1.11994
1.11268
1.11264
1.11336
1.1116
1.11342
1.11294
1.11541
1.11406
1.60334
1.59749
1.59945
1.60263
1.20723
1.20931
1.20557
1.20895
1.30574
1.29831
1.30557
1.30454
1.16847
1.16771
1.16813
1.16962
1.21481
1.21092
1.2123
1.21649
1.14509
1.14731
1.14341
1.14395
1.23245
1.23789
1.2361
1.23196
1.19219
1.198
1.1952
1.19509
1.33679
1.32782
1.34365
1.34046
1.11732
1.11543
1.11622
1.11681
1.20479
1.19927
1.19947
1.20826
1.16006
1.16111
1.16053
1.15951
1.09568
1.09638
1.09659
1.09674
1.17396
1.17368
1.17405
1.1736
1.17345
1.17391
1.1737
1.174
1.22229
1.22206
1.22009
1.22185
1.20002
1.1996
1.20004
1.20059
1.16929
1.16941
1.16939
1.16831
1.1707
1.17037
1.17332
1.17416
1.08575
1.08541
1.08589
1.08534
1.19152
1.19107
1.19157
1.19157
1.17955
1.18011
1.17991
1.17985
1.19324
1.19106
1.19288
1.19242
1.39616
1.39796
1.39744
1.39717
1.14857
1.14864
1.14863
1.14767
1.13139
1.12961
1.13148
1.13001
1.13042
1.1285
1.12943
1.12742
1.16103
1.16112
1.16204
1.16182
1.15801
1.15877
1.15912
1.15886
1.52507
1.5218
1.52971
1.53043
1.08683
1.08597
1.08677
1.08588
1.14571
1.14275
1.14479
1.14008
1.14523
1.14703
1.14621
1.14483
1.25803
1.25995
1.25552
1.25732
1.09519
1.09495
1.0941
1.09432
1.09469
1.09404
1.09449
1.09456
1.16457
1.16454
1.16277
1.16453
1.21265
1.21358
1.2144
1.21007
1.19589
1.1929
1.19267
1.19382
1.14516
1.14415
1.14479
1.14401
1.13005
1.12381
1.12533
1.12661
1.17659
1.17888
1.17649
1.17462
1.15172
1.15408
1.15461
1.15445
1.35459
1.35455
1.35244
1.35465
1.19105
1.19026
1.19024
1.19124
1.17303
1.16946
1.17064
1.17092
1.24743
1.25378
1.24986
1.24719
1.5161
1.48594
1.49544
1.50802
1.54137
1.54273
1.53822
1.53788
1.1441
1.14223
1.14363
1.14308
1.12587
1.12585
1.12543
1.12593
1.15466
1.15311
1.15102
1.15002
1.23051
1.23084
1.2297
1.22848
1.18118
1.18415
1.18137
1.18294
1.21055
1.21092
1.21092
1.20774
1.21925
1.21821
1.21902
1.21728
1.25497
1.26313
1.25745
1.25378
1.31396
1.31664
1.31471
1.31466
1.12686
1.12709
1.12674
1.12632
1.12478
1.12524
1.12526
1.12553
1.21348
1.21287
1.21041
1.21068
1.17403
1.16985
1.1751
1.17089
1.15099
1.15021
1.15169
1.15135
1.12577
1.12506
1.12564
1.12539
1.12576
1.12525
1.12563
1.12503
1.14576
1.1465
1.14565
1.14571
1.14663
1.14604
1.14714
1.1468
1.17541
1.17625
1.17618
1.17527
1.17489
1.17544
1.1763
1.17706
1.10745
1.1074
1.10674
1.10702
1.10566
1.10521
1.1059
1.1056
1.12482
1.12403
1.12394
1.12452
1.16241
1.16168
1.16426
1.16295
1.16535
1.16158
1.16471
1.16255
1.65141
1.65988
1.65657
1.66307
1.18532
1.1874
1.1851
1.18721
1.16553
1.16725
1.1662
1.16693
1.16749
1.16621
1.16923
1.16694
1.21887
1.21756
1.21429
1.21842
1.1343
1.13444
1.13513
1.13509
1.12571
1.12615
1.12539
1.1256
1.1843
1.18897
1.18803
1.18431
1.15754
1.15476
1.15482
1.15523
1.1637
1.16493
1.16393
1.16503
1.18234
1.18293
1.18335
1.18325
1.16447
1.16255
1.16426
1.16368
1.13104
1.13
1.13116
1.13135
1.19806
1.19764
1.1983
1.19845
1.3101
1.30937
1.30579
1.31092
1.23705
1.23475
1.24055
1.23419
1.19972
1.19787
1.19877
1.19895
1.21434
1.21707
1.21579
1.21446
1.3668
1.37086
1.36663
1.36568
1.26193
1.25946
1.26573
1.25431
1.20589
1.19336
1.1974
1.19792
1.13109
1.13155
1.13203
1.13034
1.16306
1.16304
1.16229
1.16373
1.11933
1.11656
1.11533
1.11438
1.21464
1.2163
1.2166
1.21498
1.23365
1.2278
1.23377
1.23416
1.19268
1.19199
1.19205
1.19265
1.20139
1.20249
1.20036
1.20175
1.16392
1.16328
1.16283
1.16397
1.53879
1.54123
1.53688
1.54174
1.11381
1.11464
1.11493
1.11393
1.12867
1.12706
1.12846
1.12816
1.13044
1.13106
1.13074
1.13146
1.15922
1.15799
1.1614
1.16049
1.16032
1.16299
1.16124
1.16225
1.16345
1.1628
1.1655
1.1633
1.11857
1.11902
1.11823
1.11875
1.2098
1.21059
1.2103
1.20924
1.11996
1.11921
1.11941
1.1196
1.12024
1.12058
1.12029
1.11968
0.653652
0.65691
0.656172
0.655535
1.09318
1.09263
1.09349
1.09306
1.17246
1.17385
1.17333
1.17301
1.16742
1.16804
1.16611
1.16765
1.14881
1.14997
1.15046
1.14995
1.25366
1.24936
1.25387
1.25424
1.28924
1.29161
1.28985
1.28961
1.24097
1.24155
1.23889
1.23841
1.16395
1.16384
1.16417
1.16354
1.13565
1.13565
1.13625
1.1342
1.13853
1.13822
1.13858
1.13879
1.13843
1.13856
1.13808
1.1376
1.11539
1.1148
1.11574
1.11568
1.0907
1.09059
1.09285
1.09383
1.10105
1.10179
1.10243
1.10206
1.10249
1.09933
1.10151
1.10231
1.17534
1.17404
1.17266
1.17507
1.10283
1.10316
1.10286
1.10047
1.17594
1.17525
1.176
1.17359
0.684085
0.683477
0.684835
0.684807
1.1535
1.15361
1.15367
1.15284
1.17047
1.17031
1.17003
1.17131
1.15359
1.15286
1.1535
1.15488
1.15105
1.15088
1.15043
1.14979
1.08591
1.08488
1.08524
1.08665
1.17647
1.17739
1.17561
1.17529
1.22838
1.22683
1.22624
1.22342
1.176
1.17723
1.17661
1.17512
1.20847
1.20861
1.20597
1.20741
1.12565
1.12513
1.12467
1.12548
1.14374
1.14212
1.14198
1.14305
1.18004
1.18065
1.17971
1.17966
1.12833
1.1309
1.14087
1.13574
1.20189
1.20163
1.20141
1.20035
1.19047
1.18728
1.19133
1.18772
1.18632
1.18612
1.18658
1.18615
1.10221
1.10149
1.10109
1.1007
1.2198
1.21695
1.21771
1.21545
1.17515
1.17587
1.17492
1.17557
1.1761
1.1765
1.17523
1.17522
1.10627
1.10502
1.10144
1.10753
1.12601
1.12675
1.12768
1.12287
1.17747
1.1777
1.17767
1.17316
1.07739
1.07663
1.07739
1.07768
1.12454
1.1259
1.1263
1.12553
1.20856
1.2132
1.21412
1.20927
1.12184
1.12071
1.12165
1.12107
1.32076
1.32057
1.32298
1.33062
1.36819
1.36205
1.36517
1.36272
1.17001
1.17166
1.16871
1.16997
1.18728
1.1897
1.18488
1.18291
1.37809
1.37643
1.37774
1.37976
1.0917
1.093
1.0902
1.0917
1.28751
1.28462
1.29051
1.27388
1.24911
1.24193
1.24868
1.24328
1.20367
1.20079
1.20442
1.20467
1.17325
1.16938
1.16992
1.17057
1.19638
1.19508
1.19228
1.19656
1.15983
1.15473
1.15572
1.15479
1.15865
1.15563
1.15762
1.15696
1.16766
1.16778
1.16594
1.16945
1.16738
1.16848
1.16837
1.16813
1.187
1.19194
1.18949
1.18487
1.11055
1.11039
1.10905
1.10995
1.12467
1.12482
1.12414
1.12222
1.11123
1.10869
1.10919
1.10946
1.12463
1.12251
1.12336
1.12365
1.16401
1.16244
1.1624
1.16012
1.32143
1.32063
1.32201
1.32334
1.10666
1.11553
1.10635
1.1004
1.22043
1.21681
1.21319
1.22124
)
;

boundaryField
{
    insideCircle
    {
        type            myTemperature;
        value           nonuniform List<scalar> 
24
(
3.31374
3.31277
3.31261
3.31217
3.31035
3.31016
3.30906
3.30914
3.32247
3.32439
3.32228
3.32376
3.32268
3.32365
3.32217
3.32241
3.33264
3.33323
3.33251
3.33364
3.33872
3.34129
3.33843
3.33968
)
;
    }
    outsideCircle
    {
        type            myTemperature;
        value           nonuniform List<scalar> 
124
(
1.13277
1.13204
1.13255
1.13246
1.13204
1.13261
1.13234
1.13275
1.13496
1.13451
1.13432
1.13486
1.13424
1.1348
1.13429
1.1348
1.13795
1.13742
1.13799
1.13747
1.13697
1.13686
1.13741
1.13746
1.1372
1.13661
1.13714
1.13663
1.1321
1.13175
1.13228
1.13247
1.13244
1.13234
1.13177
1.13201
1.1366
1.13614
1.13658
1.13599
1.13593
1.13596
1.13647
1.1365
1.13191
1.13139
1.13182
1.13213
1.13405
1.13348
1.13412
1.13365
1.13417
1.13348
1.13402
1.13377
1.13366
1.13385
1.13349
1.1331
1.13282
1.1332
1.13333
1.13354
1.13352
1.1334
1.13282
1.13309
1.13325
1.13371
1.13374
1.134
1.13682
1.13608
1.13666
1.13642
1.13686
1.13656
1.13611
1.13661
1.13604
1.13662
1.13667
1.13618
1.13608
1.13662
1.13633
1.13675
1.1357
1.13522
1.13571
1.13598
1.13552
1.13589
1.13514
1.13572
1.13824
1.13773
1.13763
1.13821
1.13823
1.13787
1.13768
1.13834
1.13844
1.13799
1.13849
1.1379
1.13367
1.13388
1.13354
1.13313
1.13333
1.13379
1.13385
1.13409
1.13444
1.13373
1.13426
1.13405
1.1344
1.13395
1.13432
1.13374
)
;
    }
    topAndBottom
    {
        type            empty;
    }
}


// ************************************************************************* //
