/*--------------------------------*- C++ -*----------------------------------*\
| =========                 |                                                 |
| \\      /  F ield         | foam-extend: Open Source CFD                    |
|  \\    /   O peration     | Version:  3.0                                   |
|   \\  /    A nd           | Web:         http://www.extend-project.de       |
|    \\/     M anipulation  |                                                 |
\*---------------------------------------------------------------------------*/
FoamFile
{
    version     2.0;
    format      ascii;
    class       volSymmTensorField;
    location    "13";
    object      sigma;
}
// * * * * * * * * * * * * * * * * * * * * * * * * * * * * * * * * * * * * * //

dimensions      [0 0 0 0 0 0 0];

internalField   nonuniform List<symmTensor> 
400
(
(0.0142014 -0.000538502 0 -0.0153385 0 0.00113708)
(0.0206551 -0.00090939 0 -0.0159476 0 -0.00470747)
(0.0239418 -0.00182406 0 -0.015435 0 -0.0085068)
(0.0247308 -0.00266367 0 -0.0142234 0 -0.0105074)
(0.023657 -0.00383833 0 -0.0126316 0 -0.0110254)
(0.0210213 -0.00454833 0 -0.0106786 0 -0.0103427)
(0.017301 -0.0054462 0 -0.00855842 0 -0.00874256)
(0.0127447 -0.00583982 0 -0.00628096 0 -0.00646373)
(0.00764069 -0.00639901 0 -0.00391403 0 -0.00372666)
(0.00224116 -0.00642688 0 -0.0015095 0 -0.000731656)
(-0.00330165 -0.00664769 0 0.00095948 0 0.00234217)
(-0.00866318 -0.00627007 0 0.00336044 0 0.00530275)
(-0.013813 -0.00616681 0 0.00582922 0 0.00798382)
(-0.0182406 -0.00532244 0 0.00807831 0 0.0101623)
(-0.0220783 -0.00494429 0 0.0104166 0 0.0116617)
(-0.0244159 -0.00352185 0 0.0122313 0 0.0121845)
(-0.0257479 -0.00311743 0 0.0141986 0 0.0115493)
(-0.0242328 -0.00102011 0 0.0148923 0 0.00934044)
(-0.0213906 -0.00175411 0 0.0158915 0 0.00549911)
(-0.0138185 0.000272901 0 0.014256 0 -0.000437479)
(0.0150231 0.00112084 0 -0.0225606 0 0.00753752)
(0.0204448 0.000139801 0 -0.0220593 0 0.00161452)
(0.0235641 -0.00110992 0 -0.0210746 0 -0.00248946)
(0.0243525 -0.00227108 0 -0.0193413 0 -0.00501114)
(0.0233774 -0.00361261 0 -0.0171751 0 -0.0062023)
(0.0208577 -0.00466677 0 -0.0145511 0 -0.00630662)
(0.0172368 -0.00574515 0 -0.011677 0 -0.0055598)
(0.0127482 -0.0064429 0 -0.00857055 0 -0.00417764)
(0.00770999 -0.00708532 0 -0.00534973 0 -0.00236026)
(0.00234011 -0.00727681 0 -0.00204646 0 -0.000293655)
(-0.00314322 -0.0074023 0 0.00129649 0 0.00184673)
(-0.00849121 -0.00701608 0 0.00460505 0 0.00388616)
(-0.013548 -0.00663053 0 0.00789568 0 0.00565236)
(-0.0179604 -0.00566675 0 0.0110029 0 0.00695757)
(-0.0216096 -0.00488434 0 0.0139974 0 0.00761227)
(-0.0239678 -0.00341589 0 0.016572 0 0.00739576)
(-0.024933 -0.00253342 0 0.0188365 0 0.00609654)
(-0.0239274 -0.000751165 0 0.0204673 0 0.00346014)
(-0.0206541 -0.000383313 0 0.0213603 0 -0.000706244)
(-0.0153796 0.00134458 0 0.0220537 0 -0.00667414)
(0.0144146 0.00115852 0 -0.0262964 0 0.0118818)
(0.0198154 0.000468321 0 -0.0259291 0 0.00611364)
(0.0227165 -0.000501737 0 -0.0246313 0 0.00191485)
(0.0234143 -0.00162736 0 -0.0225158 0 -0.000898514)
(0.0224043 -0.00296489 0 -0.0198725 0 -0.00253182)
(0.0199759 -0.00419791 0 -0.0167846 0 -0.00319129)
(0.0165085 -0.00539656 0 -0.0134306 0 -0.00307791)
(0.0122281 -0.00629829 0 -0.00984619 0 -0.00238192)
(0.00743774 -0.00700987 0 -0.0061548 0 -0.00128294)
(0.00231727 -0.00730424 0 -0.00236634 0 4.90706e-05)
(-0.00288523 -0.00736008 0 0.00143451 0 0.00145072)
(-0.00799489 -0.00694186 0 0.00523394 0 0.00276095)
(-0.0127792 -0.00634659 0 0.0089613 0 0.00381791)
(-0.0170251 -0.00527657 0 0.0125717 0 0.00445339)
(-0.0204704 -0.00423245 0 0.0159777 0 0.00449269)
(-0.0228441 -0.00276039 0 0.0190949 0 0.00374921)
(-0.0237995 -0.00171449 0 0.0217676 0 0.00203188)
(-0.0230797 -0.000331529 0 0.0239396 0 -0.000859903)
(-0.0200806 0.00025621 0 0.0251947 0 -0.00511407)
(-0.0147512 0.000975102 0 0.0256721 0 -0.0109209)
(0.0137576 0.00269734 0 -0.0283276 0 0.0145699)
(0.0185774 0.00178726 0 -0.0276361 0 0.00905867)
(0.0210867 0.000612623 0 -0.0260076 0 0.0049209)
(0.0216251 -0.000697088 0 -0.0236213 0 0.00199628)
(0.0206442 -0.00216214 0 -0.0207559 0 0.000111723)
(0.0183856 -0.00355347 0 -0.0174775 0 -0.000908086)
(0.0151971 -0.00486927 0 -0.0139613 0 -0.00123574)
(0.0112636 -0.00590308 0 -0.0102259 0 -0.00103768)
(0.00687891 -0.00668125 0 -0.00640549 0 -0.000473417)
(0.00218293 -0.00703457 0 -0.00248697 0 0.000304039)
(-0.00256806 -0.0070592 0 0.00142191 0 0.00114614)
(-0.00725306 -0.00661055 0 0.00534672 0 0.00190634)
(-0.0116118 -0.00588711 0 0.00917455 0 0.00243723)
(-0.0155205 -0.00474212 0 0.0129326 0 0.00258787)
(-0.0186566 -0.00351327 0 0.0164544 0 0.0022022)
(-0.020917 -0.00200192 0 0.0197992 0 0.00111775)
(-0.0218184 -0.000707315 0 0.0226509 0 -0.000832534)
(-0.0214169 0.000675049 0 0.0252362 0 -0.00381937)
(-0.0187939 0.00167771 0 0.0268052 0 -0.0080113)
(-0.014169 0.0024723 0 0.0277473 0 -0.0135783)
(0.0125413 0.00311116 0 -0.0283309 0 0.0157895)
(0.0169945 0.00246352 0 -0.0276572 0 0.0106627)
(0.0192147 0.00138721 0 -0.0259343 0 0.00671956)
(0.0196217 5.41653e-05 0 -0.0234538 0 0.00383213)
(0.0186385 -0.00148671 0 -0.0204939 0 0.00185534)
(0.0165373 -0.00299952 0 -0.0171772 0 0.000639878)
(0.013632 -0.00443593 0 -0.0136692 0 3.72131e-05)
(0.0100934 -0.00559295 0 -0.00999577 0 -9.75949e-05)
(0.00618186 -0.00645062 0 -0.00627696 0 9.50968e-05)
(0.00200266 -0.00685761 0 -0.00248204 0 0.000479378)
(-0.00220892 -0.00686856 0 0.00128644 0 0.00092248)
(-0.00638084 -0.006381 0 0.00508771 0 0.00129313)
(-0.0102628 -0.00555196 0 0.00880337 0 0.00145946)
(-0.0137925 -0.0043093 0 0.0125052 0 0.00128729)
(-0.0166518 -0.00292793 0 0.016013 0 0.000638771)
(-0.0187892 -0.00133291 0 0.0194173 0 -0.000628149)
(-0.019735 0.000116185 0 0.0223938 0 -0.00265884)
(-0.0194791 0.00148962 0 0.0250796 0 -0.00560043)
(-0.0172242 0.00260063 0 0.0268213 0 -0.00959705)
(-0.0128672 0.00315392 0 0.0276506 0 -0.0147834)
(0.0111689 0.00432507 0 -0.0269653 0 0.0157964)
(0.015044 0.00358196 0 -0.0261679 0 0.0111239)
(0.0168797 0.00234247 0 -0.0243584 0 0.00747877)
(0.0171193 0.00079234 0 -0.0218699 0 0.00475064)
(0.016162 -0.000960226 0 -0.0189772 0 0.00281525)
(0.0142618 -0.00269947 0 -0.0158061 0 0.00154427)
(0.0117125 -0.0043259 0 -0.0125221 0 0.000809653)
(0.00864929 -0.0056516 0 -0.00913498 0 0.000485685)
(0.00530569 -0.00661877 0 -0.00575572 0 0.000450034)
(0.00174425 -0.00709286 0 -0.0023278 0 0.000583549)
(-0.00182594 -0.00709713 0 0.00105647 0 0.000769473)
(-0.00538177 -0.00656134 0 0.00448966 0 0.000892102)
(-0.00869396 -0.00560822 0 0.00785861 0 0.000835355)
(-0.0117559 -0.00422318 0 0.0112746 0 0.000481329)
(-0.0142615 -0.00262711 0 0.0145521 0 -0.000290608)
(-0.0162132 -0.000838454 0 0.0178176 0 -0.0016044)
(-0.0171432 0.000872892 0 0.0207298 0 -0.00358655)
(-0.0170606 0.00243235 0 0.0234253 0 -0.00636475)
(-0.0152076 0.00369741 0 0.025271 0 -0.0100634)
(-0.0114193 0.00426906 0 0.0262155 0 -0.0147962)
(0.0096671 0.00457051 0 -0.0244247 0 0.0147576)
(0.0128981 0.00402063 0 -0.0234957 0 0.0105977)
(0.0143506 0.00277546 0 -0.0216882 0 0.00733763)
(0.0144158 0.00105101 0 -0.0192887 0 0.00487294)
(0.0134885 -0.000935216 0 -0.016582 0 0.00309349)
(0.0118012 -0.00292967 0 -0.0136887 0 0.00188759)
(0.00962913 -0.0047946 0 -0.0107738 0 0.00114464)
(0.00707816 -0.00632203 0 -0.00783445 0 0.000756294)
(0.00434622 -0.00743226 0 -0.00496335 0 0.000617126)
(0.00145677 -0.0079863 0 -0.00208113 0 0.000624354)
(-0.00142175 -0.00799202 0 0.000744613 0 0.000677136)
(-0.0043093 -0.00739157 0 0.00363385 0 0.000675452)
(-0.00701706 -0.00629449 0 0.00649815 0 0.000518916)
(-0.00957622 -0.00471711 0 0.00947066 0 0.000105557)
(-0.0117212 -0.00286581 0 0.0123902 0 -0.000669027)
(-0.0134636 -0.000813947 0 0.0153759 0 -0.00191229)
(-0.014389 0.00118188 0 0.0181233 0 -0.00373431)
(-0.0144452 0.00295439 0 0.0206921 0 -0.00624686)
(-0.0130036 0.00431972 0 0.0225635 0 -0.00955997)
(-0.00981588 0.00480414 0 0.0235927 0 -0.0137768)
(0.00788039 0.00553981 0 -0.0206579 0 0.0127775)
(0.0104049 0.00470907 0 -0.019607 0 0.00920211)
(0.0114319 0.00313314 0 -0.0178418 0 0.0064099)
(0.0113079 0.00103593 0 -0.01561 0 0.00430219)
(0.0104308 -0.00133324 0 -0.0132103 0 0.00277956)
(0.00899418 -0.0037108 0 -0.0107381 0 0.00174397)
(0.00725712 -0.00590721 0 -0.00835722 0 0.0011001)
(0.0052839 -0.00771052 0 -0.00603944 0 0.000755536)
(0.00323751 -0.00900726 0 -0.00385855 0 0.000621048)
(0.00109723 -0.00966426 0 -0.0017071 0 0.000609868)
(-0.00100956 -0.0096682 0 0.0003725 0 0.000637064)
(-0.00314905 -0.0089781 0 0.00253072 0 0.000618331)
(-0.00517052 -0.0076887 0 0.00470151 0 0.000469011)
(-0.00715234 -0.00584729 0 0.00704955 0 0.000102791)
(-0.00885745 -0.00365212 0 0.00942651 0 -0.000569059)
(-0.010339 -0.00122576 0 0.0119777 0 -0.00163866)
(-0.0112027 0.00116354 0 0.014404 0 -0.00320139)
(-0.0114196 0.00329241 0 0.0167753 0 -0.00535569)
(-0.0104067 0.0049115 0 0.0186069 0 -0.00820024)
(-0.00793303 0.00558025 0 0.0197611 0 -0.011828)
(0.00611965 0.00544868 0 -0.0160949 0 0.00997523)
(0.00780666 0.00460039 0 -0.0148437 0 0.00703701)
(0.00833152 0.00280295 0 -0.0131218 0 0.00479032)
(0.00797952 0.000315553 0 -0.011106 0 0.0031265)
(0.00714939 -0.00249927 0 -0.00910125 0 0.00195186)
(0.00598193 -0.00531615 0 -0.00716159 0 0.00117966)
(0.00471534 -0.00790881 0 -0.00544382 0 0.000728486)
(0.00336419 -0.0100299 0 -0.0038854 0 0.000521212)
(0.0020537 -0.01155 0 -0.00253813 0 0.000484426)
(0.0007154 -0.0123246 0 -0.0012628 0 0.000547395)
(-0.000568205 -0.0123307 0 -7.29998e-05 0 0.000641205)
(-0.00190828 -0.0115349 0 0.00121075 0 0.000697533)
(-0.00320084 -0.0100229 0 0.00255325 0 0.000647592)
(-0.00456387 -0.00786873 0 0.00414301 0 0.000420855)
(-0.00580747 -0.00526742 0 0.00586343 0 -5.59563e-05)
(-0.00700957 -0.0023913 0 0.00786963 0 -0.000860056)
(-0.0078288 0.000471219 0 0.00990201 0 -0.00207321)
(-0.00823473 0.00302908 0 0.0120172 0 -0.00378252)
(-0.00772436 0.00493883 0 0.0138045 0 -0.00608009)
(-0.0060725 0.00574116 0 0.0151367 0 -0.00906416)
(0.00392581 0.00622799 0 -0.0102939 0 0.00636814)
(0.0047795 0.00473678 0 -0.00895104 0 0.00417154)
(0.00481513 0.00229239 0 -0.00737396 0 0.00255883)
(0.00424842 -0.000832546 0 -0.005673 0 0.00142458)
(0.00350125 -0.00426914 0 -0.00418359 0 0.000682338)
(0.00265078 -0.00766416 0 -0.0029073 0 0.000256517)
(0.00191226 -0.0107479 0 -0.00199183 0 7.9573e-05)
(0.00124777 -0.0132586 0 -0.00133744 0 8.96695e-05)
(0.000736912 -0.0150401 0 -0.000966425 0 0.000229513)
(0.000268675 -0.0159503 0 -0.000713408 0 0.000444733)
(-0.000124906 -0.0159504 0 -0.000557997 0 0.000682903)
(-0.000593717 -0.0150199 0 -0.000298396 0 0.000892114)
(-0.00108189 -0.013235 0 6.19149e-05 0 0.00101997)
(-0.00175083 -0.0106934 0 0.000738689 0 0.00101214)
(-0.00245104 -0.00759477 0 0.00163982 0 0.000811218)
(-0.00331456 -0.00415001 0 0.00295947 0 0.000355095)
(-0.00402503 -0.000684313 0 0.00444928 0 -0.00042425)
(-0.00461459 0.00247682 0 0.00621721 0 -0.00160261)
(-0.00458698 0.00493306 0 0.00785096 0 -0.00326399)
(-0.00378224 0.00626602 0 0.0092811 0 -0.00549886)
(0.00185681 0.00569206 0 -0.00392851 0 0.0020717)
(0.00169573 0.00387973 0 -0.00238156 0 0.000685826)
(0.00111158 0.00091032 0 -0.000904192 0 -0.000207391)
(0.00027964 -0.00287787 0 0.000449238 0 -0.000728877)
(-0.000388814 -0.00700747 0 0.00134927 0 -0.000960455)
(-0.000892723 -0.0110289 0 0.00185889 0 -0.000966166)
(-0.00105447 -0.0146568 0 0.00185337 0 -0.000798893)
(-0.000980821 -0.0175812 0 0.00148503 0 -0.000504208)
(-0.000636062 -0.0196475 0 0.000758558 0 -0.000122495)
(-0.000184242 -0.0207006 0 -0.000124817 0 0.000309059)
(0.000363583 -0.0206994 0 -0.00111879 0 0.000755209)
(0.000813345 -0.0196314 0 -0.00199459 0 0.00118125)
(0.00117578 -0.0175588 0 -0.00272766 0 0.00155189)
(0.00124327 -0.0146084 0 -0.00307315 0 0.00182989)
(0.00111436 -0.0109617 0 -0.00308898 0 0.00197462)
(0.000604251 -0.0068892 0 -0.00254443 0 0.00194018)
(-2.53613e-05 -0.00271884 0 -0.00164783 0 0.00167319)
(-0.000855609 0.00113585 0 -0.000254063 0 0.00110967)
(-0.00143803 0.00418256 0 0.00126704 0 0.000170993)
(-0.00163596 0.00595375 0 0.00288106 0 -0.0012451)
(-0.000836586 0.00631532 0 0.0037681 0 -0.00293152)
(-0.00194557 0.00337676 0 0.00530499 0 -0.00335942)
(-0.00305355 -0.000658198 0 0.00648492 0 -0.00343138)
(-0.0040833 -0.00542502 0 0.00733999 0 -0.00325669)
(-0.00459584 -0.0104448 0 0.0075014 0 -0.00290556)
(-0.00468073 -0.0152321 0 0.00710802 0 -0.00242728)
(-0.00420565 -0.0194788 0 0.00606337 0 -0.00185772)
(-0.00333571 -0.0228657 0 0.00456014 0 -0.00122443)
(-0.00209752 -0.0252328 0 0.00264694 0 -0.000549423)
(-0.000683629 -0.0264333 0 0.000535226 0 0.000148403)
(0.000835571 -0.0264199 0 -0.00168758 0 0.000852012)
(0.00224981 -0.0251919 0 -0.0037946 0 0.00154479)
(0.00351096 -0.0227971 0 -0.00572061 0 0.00220965)
(0.00438486 -0.0193781 0 -0.00721243 0 0.00282757)
(0.00490952 -0.0151062 0 -0.00828581 0 0.00337629)
(0.00484065 -0.0102815 0 -0.00866854 0 0.00382788)
(0.00439557 -0.0052572 0 -0.00854166 0 0.00414609)
(0.00339309 -0.000478797 0 -0.00767499 0 0.0042819)
(0.00230063 0.00351451 0 -0.00646978 0 0.00416915)
(0.00114574 0.00629039 0 -0.00486757 0 0.00372184)
(-0.00324806 0.00518048 0 0.011717 0 -0.00846897)
(-0.00557494 0.00155175 0 0.0134355 0 -0.00786053)
(-0.00738958 -0.0033693 0 0.0144103 0 -0.00702076)
(-0.00866278 -0.00908233 0 0.0147359 0 -0.00607308)
(-0.00900025 -0.0150206 0 0.0140768 0 -0.00507652)
(-0.00861384 -0.0205538 0 0.012676 0 -0.0040622)
(-0.00743952 -0.0254149 0 0.0104852 0 -0.00304573)
(-0.00572802 -0.0292304 0 0.00776206 0 -0.00203404)
(-0.00355452 -0.0318837 0 0.00458346 0 -0.00102894)
(-0.00115734 -0.0332177 0 0.00118693 0 -2.959e-05)
(0.00135947 -0.0331998 0 -0.00232569 0 0.000966224)
(0.00375611 -0.0318353 0 -0.00571717 0 0.00196106)
(0.00594809 -0.0291486 0 -0.00890515 0 0.00295706)
(0.00765924 -0.0253056 0 -0.0116142 0 0.00395499)
(0.00887377 -0.02042 0 -0.0138265 0 0.00495277)
(0.0092665 -0.014858 0 -0.0152097 0 0.0059432)
(0.00898743 -0.00891147 0 -0.0158977 0 0.00691031)
(0.00773563 -0.00316542 0 -0.0155591 0 0.00782352)
(0.00594331 0.00177886 0 -0.0145713 0 0.00862799)
(0.00357998 0.00535257 0 -0.0128051 0 0.0092251)
(-0.00657521 0.00571326 0 0.021136 0 -0.0145608)
(-0.00991644 0.000311029 0 0.0226429 0 -0.0127264)
(-0.0121727 -0.00620255 0 0.0230419 0 -0.0108692)
(-0.013501 -0.0132657 0 0.022579 0 -0.00907804)
(-0.0135184 -0.0203156 0 0.0209046 0 -0.00738613)
(-0.0125556 -0.0267022 0 0.0183545 0 -0.00579892)
(-0.0106409 -0.032192 0 0.0149477 0 -0.00430684)
(-0.00806617 -0.0364326 0 0.0109591 0 -0.00289298)
(-0.00498908 -0.039345 0 0.00652582 0 -0.00153674)
(-0.00163693 -0.0407963 0 0.00185314 0 -0.000216208)
(0.00182006 -0.0407631 0 -0.00291117 0 0.00109112)
(0.00517347 -0.0392606 0 -0.00758125 0 0.00240778)
(0.00826863 -0.0362863 0 -0.0120249 0 0.00375627)
(0.010851 -0.0320047 0 -0.0160094 0 0.00515846)
(0.0128122 -0.0264758 0 -0.019447 0 0.00663479)
(0.0137996 -0.0200726 0 -0.0220015 0 0.008202)
(0.0138609 -0.0130494 0 -0.0237304 0 0.00986944)
(0.0125743 -0.00602328 0 -0.0242066 0 0.0116323)
(0.0103598 0.000381819 0 -0.0238221 0 0.0134623)
(0.00698465 0.00560629 0 -0.0222851 0 0.0153004)
(-0.00927855 0.00365587 0 0.0301764 0 -0.0208979)
(-0.0141028 -0.00286381 0 0.0318852 0 -0.0177825)
(-0.0170251 -0.010665 0 0.0318607 0 -0.0148355)
(-0.0184287 -0.0188365 0 0.0305801 0 -0.0121514)
(-0.0180506 -0.0268695 0 0.0277852 0 -0.00973464)
(-0.0164382 -0.0339123 0 0.023996 0 -0.00755782)
(-0.0137222 -0.0398938 0 0.019303 0 -0.00558072)
(-0.0102796 -0.0444156 0 0.0140387 0 -0.00375905)
(-0.00630752 -0.0475039 0 0.00835539 0 -0.00204787)
(-0.00204906 -0.049021 0 0.00245212 0 -0.000403064)
(0.00231212 -0.0489819 0 -0.00353082 0 0.0012187)
(0.0065733 -0.0473987 0 -0.00943373 0 0.00286043)
(0.0105607 -0.0442426 0 -0.0151261 0 0.00456546)
(0.014009 -0.0396787 0 -0.020387 0 0.00637805)
(0.0167582 -0.0336648 0 -0.0251013 0 0.00834309)
(0.0183722 -0.0266186 0 -0.0288772 0 0.010505)
(0.0188009 -0.0186147 0 -0.0317047 0 0.0129037)
(0.0173893 -0.0104655 0 -0.0329566 0 0.0155673)
(0.0144944 -0.00271432 0 -0.0329894 0 0.018495)
(0.00961551 0.0037117 0 -0.0312349 0 0.0216194)
(-0.0134757 0.00423455 0 0.040973 0 -0.0274973)
(-0.0190728 -0.00507203 0 0.0419418 0 -0.022869)
(-0.0220722 -0.015156 0 0.0408252 0 -0.018753)
(-0.0231023 -0.0249457 0 0.0382529 0 -0.0151505)
(-0.0221479 -0.0340967 0 0.0341553 0 -0.0120075)
(-0.0197852 -0.0418174 0 0.0290356 0 -0.00925042)
(-0.0163286 -0.0482025 0 0.0231306 0 -0.00680198)
(-0.0121002 -0.0529296 0 0.0166875 0 -0.00458732)
(-0.00740188 -0.056117 0 0.00993772 0 -0.00253583)
(-0.00239257 -0.0576663 0 0.0029735 0 -0.000580934)
(0.00267169 -0.057617 0 -0.00401302 0 0.00134133)
(0.00768298 -0.0559858 0 -0.010977 0 0.00329403)
(0.0123869 -0.0527086 0 -0.0177282 0 0.00534127)
(0.0166214 -0.0479257 0 -0.0241713 0 0.00754992)
(0.0200969 -0.0414856 0 -0.0300878 0 0.0099909)
(0.0224701 -0.0337671 0 -0.0352095 0 0.0127394)
(0.0234731 -0.0246511 0 -0.039346 0 0.0158729)
(0.0224535 -0.0149565 0 -0.041919 0 0.0194655)
(0.0195093 -0.00501987 0 -0.0430846 0 0.0235754)
(0.0138785 0.00408509 0 -0.0421118 0 0.0282332)
(-0.0163411 0.000288017 0 0.0501011 0 -0.03376)
(-0.0236483 -0.0103873 0 0.0513206 0 -0.0276723)
(-0.0268987 -0.0219138 0 0.0492972 0 -0.0223985)
(-0.0275631 -0.0324772 0 0.04547 0 -0.0179069)
(-0.0258965 -0.0421963 0 0.0399741 0 -0.0140776)
(-0.0227514 -0.050094 0 0.0335341 0 -0.0107827)
(-0.0185414 -0.0565465 0 0.0264447 0 -0.00790329)
(-0.0136121 -0.0612235 0 0.0189447 0 -0.00533261)
(-0.00827387 -0.0643594 0 0.0112485 0 -0.00297461)
(-0.00265238 -0.0658601 0 0.00339365 0 -0.000741266)
(0.00300485 -0.065806 0 -0.00445543 0 0.00145059)
(0.00863434 -0.0641982 0 -0.012317 0 0.00368266)
(0.0139805 -0.0609699 0 -0.0200189 0 0.00603838)
(0.0189289 -0.0562226 0 -0.0275353 0 0.00860639)
(0.0231495 -0.0497309 0 -0.0346329 0 0.0114834)
(0.0263035 -0.0418333 0 -0.0410807 0 0.0147772)
(0.0279752 -0.0321696 0 -0.0465824 0 0.0186072)
(0.027263 -0.0216707 0 -0.0503651 0 0.023102)
(0.023997 -0.0102749 0 -0.0523799 0 0.0283829)
(0.0165817 0.000280544 0 -0.0510857 0 0.034504)
(-0.0216462 0.000662336 0 0.0613221 0 -0.0396758)
(-0.0280654 -0.0144895 0 0.0599808 0 -0.0319154)
(-0.0307873 -0.029004 0 0.0563134 0 -0.0255261)
(-0.0303731 -0.040964 0 0.0506092 0 -0.0202362)
(-0.0281196 -0.051296 0 0.0439316 0 -0.015812)
(-0.0243038 -0.0593213 0 0.0363638 0 -0.0120599)
(-0.0196865 -0.0656919 0 0.0285052 0 -0.00881868)
(-0.0143355 -0.0702262 0 0.0202869 0 -0.0059514)
(-0.00870023 -0.0732297 0 0.0120395 0 -0.00333926)
(-0.00275766 -0.0746578 0 0.00363329 0 -0.000875627)
(0.00316284 -0.0746027 0 -0.0047019 0 0.00153906)
(0.00911032 -0.0730644 0 -0.0131126 0 0.00400228)
(0.0147466 -0.0699643 0 -0.0213606 0 0.00661402)
(0.0201049 -0.0653536 0 -0.0295868 0 0.00948189)
(0.024715 -0.0589308 0 -0.0374411 0 0.0127261)
(0.0285168 -0.050903 0 -0.045002 0 0.0164852)
(0.0307609 -0.0406049 0 -0.0516835 0 0.0209227)
(0.0311091 -0.0287595 0 -0.0573427 0 0.0262336)
(0.0284389 -0.0143727 0 -0.0610923 0 0.0326534)
(0.0218849 0.000562756 0 -0.0623596 0 0.0404747)
(-0.0251026 -0.0070789 0 0.0691584 0 -0.0440558)
(-0.0320558 -0.0226891 0 0.067118 0 -0.0350621)
(-0.0341398 -0.0367823 0 0.061975 0 -0.0278352)
(-0.0327967 -0.0483213 0 0.0547454 0 -0.0219487)
(-0.0298225 -0.058077 0 0.0469061 0 -0.0170836)
(-0.0254457 -0.0656503 0 0.038441 0 -0.0129953)
(-0.0204445 -0.071595 0 0.0299337 0 -0.00948919)
(-0.0148132 -0.0758469 0 0.0212187 0 -0.00640551)
(-0.00896202 -0.0786457 0 0.0125702 0 -0.00360818)
(-0.00283847 -0.0799877 0 0.00381527 0 -0.000976797)
(0.00325741 -0.0799484 0 -0.00485761 0 0.0016002)
(0.00939261 -0.0785151 0 -0.0136244 0 0.00423181)
(0.01525 -0.0756517 0 -0.0222802 0 0.00703023)
(0.0209112 -0.0713352 0 -0.0310285 0 0.0101172)
(0.0259061 -0.0653692 0 -0.039537 0 0.0136309)
(0.0303107 -0.0577888 0 -0.048045 0 0.0177342)
(0.033227 -0.0480793 0 -0.0558527 0 0.0226258)
(0.034541 -0.0366096 0 -0.0630958 0 0.0285548)
(0.0323078 -0.0225883 0 -0.0681521 0 0.0358443)
(0.0252537 -0.00705454 0 -0.0701897 0 0.044936)
(-0.0259259 -0.00996764 0 0.0721695 0 -0.0462436)
(-0.0310744 -0.03127 0 0.0678031 0 -0.0367287)
(-0.033389 -0.0468304 0 0.0624812 0 -0.0290922)
(-0.0317256 -0.0590402 0 0.0546201 0 -0.0228945)
(-0.0291813 -0.0682523 0 0.0469744 0 -0.0177931)
(-0.0248871 -0.0755535 0 0.038409 0 -0.013522)
(-0.0201673 -0.0809617 0 0.0300376 0 -0.00987033)
(-0.014629 -0.0849532 0 0.0212955 0 -0.00666645)
(-0.00891975 -0.0874819 0 0.0126851 0 -0.00376539)
(-0.00284682 -0.0887277 0 0.0038863 0 -0.00103948)
(0.00316566 -0.0886837 0 -0.00479482 0 0.00162916)
(0.0092567 -0.0873308 0 -0.0136124 0 0.00435569)
(0.0149998 -0.0847313 0 -0.0222586 0 0.00725878)
(0.0205803 -0.0806567 0 -0.0310482 0 0.0104679)
(0.0253421 -0.0752326 0 -0.0394728 0 0.0141307)
(0.0296644 -0.0678947 0 -0.048088 0 0.0184236)
(0.0322094 -0.0587628 0 -0.0557728 0 0.0235634)
(0.0338259 -0.046565 0 -0.063652 0 0.029826)
(0.0314529 -0.031174 0 -0.0690209 0 0.0375681)
(0.0262181 -0.00994968 0 -0.073472 0 0.0472539)
)
;

boundaryField
{
    cavity
    {
        type            mySigma;
    }
    lid
    {
        type            zeroGradient;
    }
    frontAndBack
    {
        type            empty;
    }
}


// ************************************************************************* //
