/*--------------------------------*- C++ -*----------------------------------*\
| =========                 |                                                 |
| \\      /  F ield         | foam-extend: Open Source CFD                    |
|  \\    /   O peration     | Version:  3.0                                   |
|   \\  /    A nd           | Web:         http://www.extend-project.de       |
|    \\/     M anipulation  |                                                 |
\*---------------------------------------------------------------------------*/
FoamFile
{
    version     2.0;
    format      ascii;
    class       volScalarField;
    location    "3";
    object      p;
}
// * * * * * * * * * * * * * * * * * * * * * * * * * * * * * * * * * * * * * //

dimensions      [0 0 0 0 0 0 0];

internalField   nonuniform List<scalar> 
224
(
-0.217771
-0.159313
-0.150592
-0.128106
-0.125824
-0.117309
-0.110761
-0.209596
-0.153357
-0.144968
-0.123337
-0.121136
-0.112932
-0.10659
-0.193268
-0.141403
-0.133653
-0.113694
-0.111655
-0.104099
-0.0982181
-0.169524
-0.124009
-0.117186
-0.0996385
-0.0978121
-0.0911126
-0.085927
-0.139235
-0.101812
-0.0961691
-0.0816934
-0.0801423
-0.0745404
-0.0702631
-0.103584
-0.0756994
-0.0714556
-0.0606155
-0.0594099
-0.0551641
-0.0519639
-0.0640081
-0.0467306
-0.0440559
-0.0372694
-0.0364581
-0.0337073
-0.0317028
-0.0219533
-0.0159761
-0.0149902
-0.0125461
-0.0121785
-0.0110644
-0.0103395
0.0208345
0.0152806
0.0145268
0.0125149
0.0124123
0.0118272
0.0112529
0.0628482
0.0459369
0.0434458
0.0370143
0.036414
0.0340982
0.0322528
0.102334
0.0747187
0.0705766
0.0599504
0.0588638
0.0548746
0.0518454
0.13793
0.100641
0.0949886
0.0805556
0.0790053
0.0734746
0.0693778
0.168162
0.122646
0.115706
0.0980198
0.0960686
0.0892036
0.0841943
0.191986
0.139985
0.13202
0.11177
0.109495
0.10158
0.0958366
0.208435
0.151969
0.143309
0.1213
0.11881
0.110186
0.10392
0.216921
0.158169
0.14915
0.126249
0.123647
0.114664
0.108112
0.217121
0.158362
0.149361
0.126477
0.123892
0.114927
0.108337
0.208992
0.152501
0.143867
0.121899
0.119438
0.110866
0.104496
0.19289
0.140847
0.132933
0.112739
0.110518
0.10268
0.0967784
0.169355
0.123773
0.116885
0.0992465
0.0973507
0.0905481
0.085357
0.139352
0.101974
0.0963767
0.0819654
0.0804684
0.0749539
0.0706828
0.103944
0.0762166
0.0721264
0.0614967
0.0604572
0.0564419
0.0532627
0.0645579
0.047522
0.0450775
0.0386173
0.0380575
0.0356774
0.033709
0.0226252
0.0169404
0.0162384
0.0141926
0.0141344
0.0134745
0.0127856
-0.020169
-0.0143189
-0.0132818
-0.0108627
-0.0104466
-0.00938715
-0.00878215
-0.0622631
-0.0450965
-0.0423561
-0.0355718
-0.0346975
-0.031972
-0.0301061
-0.101942
-0.0741542
-0.0698456
-0.0589799
-0.0577079
-0.0534391
-0.050394
-0.137782
-0.100427
-0.0947077
-0.0801843
-0.0785608
-0.0729273
-0.0688206
-0.168271
-0.122812
-0.115923
-0.0983103
-0.0964135
-0.089635
-0.0846247
-0.192367
-0.140526
-0.132715
-0.112689
-0.110581
-0.102927
-0.0971932
-0.208976
-0.152763
-0.144339
-0.122667
-0.120434
-0.112194
-0.105955
-0.217612
-0.159152
-0.150415
-0.12791
-0.125612
-0.117081
-0.110563
)
;

boundaryField
{
    out
    {
        type            implicitExtrapolation;
    }
    in
    {
        type            implicitExtrapolation;
    }
    frontAndBack
    {
        type            empty;
    }
}


// ************************************************************************* //
