/*--------------------------------*- C++ -*----------------------------------*\
| =========                 |                                                 |
| \\      /  F ield         | foam-extend: Open Source CFD                    |
|  \\    /   O peration     | Version:  3.0                                   |
|   \\  /    A nd           | Web:         http://www.extend-project.de       |
|    \\/     M anipulation  |                                                 |
\*---------------------------------------------------------------------------*/
FoamFile
{
    version     2.0;
    format      ascii;
    class       volSymmTensorField;
    location    "3";
    object      sigma;
}
// * * * * * * * * * * * * * * * * * * * * * * * * * * * * * * * * * * * * * //

dimensions      [0 0 0 0 0 0 0];

internalField   nonuniform List<symmTensor> 
224
(
(-0.148773 -0.0179362 -8.6304e-20 0.147508 6.99983e-20 0.00126491)
(-0.123903 -0.0191786 -1.55367e-19 0.121054 1.7511e-19 0.00284938)
(-0.0959416 -0.0171426 -1.13468e-20 0.091976 1.3665e-19 0.00396566)
(-0.0707052 -0.0145666 1.09026e-19 0.0661165 -4.69451e-19 0.00458871)
(-0.0491979 -0.0121903 1.59583e-19 0.0445361 -1.81347e-19 0.00466179)
(-0.0323938 -0.0105982 -1.58405e-20 0.0285363 -3.8434e-19 0.0038575)
(-0.0202785 -0.00995207 -8.40173e-21 0.0184009 8.43251e-21 0.00187758)
(-0.138096 -0.0518386 -4.8532e-20 0.136859 1.43191e-19 0.00123656)
(-0.108971 -0.0534658 -3.63726e-20 0.106185 2.48754e-19 0.00278627)
(-0.0811407 -0.046853 -2.32166e-19 0.077263 1.5952e-20 0.00387764)
(-0.0570718 -0.0390945 -1.19653e-18 0.0525858 -8.4532e-20 0.00448601)
(-0.0368066 -0.0320782 2.60946e-19 0.0322517 -2.06218e-19 0.00455487)
(-0.0205965 -0.0273213 4.15225e-19 0.0168303 -1.16089e-18 0.00376625)
(-0.00830488 -0.0251162 4.05201e-20 0.00647491 -4.43501e-19 0.00182998)
(-0.11878 -0.0797458 4.39851e-21 0.117619 3.88678e-20 0.00116063)
(-0.083129 -0.0775282 6.89239e-20 0.0805131 1.20743e-19 0.00261585)
(-0.0559089 -0.0658682 9.47281e-20 0.0522684 -9.57309e-20 0.00364054)
(-0.0340857 -0.0534263 -5.12402e-19 0.0298745 1.47878e-19 0.00421115)
(-0.0161418 -0.0424283 -7.3016e-19 0.0118684 -7.55329e-19 0.00427341)
(-0.00115584 -0.0347176 -3.09128e-18 -0.00237503 -7.62749e-19 0.00353087)
(0.0111925 -0.030639 -5.43823e-19 -0.0129051 4.31882e-19 0.00171264)
(-0.0943397 -0.0994203 2.99757e-20 0.0932996 -1.76309e-20 0.00104003)
(-0.0530406 -0.0881027 3.15096e-20 0.0506958 -6.39469e-21 0.00234483)
(-0.0273967 -0.0709286 -9.8942e-20 0.0241333 -1.82369e-19 0.00326344)
(-0.00868642 -0.0545513 -6.11795e-19 0.00491198 -6.07153e-20 0.00377443)
(0.00620059 -0.0404882 -1.115e-18 -0.0100285 -1.47778e-19 0.0038279)
(0.0194065 -0.0301067 -1.90339e-18 -0.0225669 1.4849e-18 0.00316037)
(0.031537 -0.0236455 1.05599e-18 -0.0330669 3.40927e-19 0.00152991)
(-0.0686768 -0.110662 1.83312e-20 0.0677973 -6.05778e-21 0.000879553)
(-0.0258841 -0.0859708 -8.56796e-21 0.0239001 -9.79429e-22 0.00198401)
(-0.00325705 -0.0631354 -2.21482e-19 0.000495409 -3.43741e-20 0.00276164)
(0.0117354 -0.0436881 -6.72481e-19 -0.0149294 1.50018e-19 0.00319401)
(0.0232292 -0.0275416 -9.98833e-19 -0.0264665 7.74794e-19 0.00323729)
(0.0341614 -0.0148991 1.68445e-18 -0.0368322 1.02944e-18 0.00267078)
(0.045179 -0.00573337 5.41164e-19 -0.0464688 -6.21944e-19 0.00128984)
(-0.0449287 -0.115145 -5.29136e-20 0.0442432 6.0074e-20 0.000685496)
(-0.00703328 -0.0755466 1.18707e-20 0.00548577 3.25851e-20 0.00154751)
(0.0108904 -0.0475072 -1.7868e-19 -0.0130452 5.41386e-20 0.0021548)
(0.0218233 -0.0258661 -1.77182e-19 -0.0243159 1.04428e-19 0.00249257)
(0.0299242 -0.0084984 -1.00023e-18 -0.0324488 7.7829e-19 0.00252459)
(0.0381781 0.00588418 2.21017e-18 -0.040259 -5.36916e-20 0.00208095)
(0.0472288 0.0175897 -1.77392e-18 -0.0482303 -8.67413e-20 0.00100146)
(-0.0246407 -0.115652 3.79941e-20 0.0241756 1.55867e-20 0.000465097)
(0.00158764 -0.0632537 1.78318e-19 -0.00263938 -5.93964e-20 0.00105174)
(0.0132172 -0.0312056 -5.50568e-19 -0.0146828 -6.96506e-21 0.00146564)
(0.0199527 -0.00819275 -1.36305e-18 -0.0216489 2.68552e-19 0.00169624)
(0.0248693 0.00977467 -1.00805e-18 -0.0265854 8.16035e-19 0.00171618)
(0.030156 0.0253502 9.96666e-19 -0.0315688 2.72017e-19 0.00141278)
(0.0363114 0.0391434 7.03076e-19 -0.0369869 -3.01026e-20 0.000675505)
(-0.00747597 -0.114977 -2.01337e-20 0.00724885 4.97918e-21 0.000227125)
(0.00199248 -0.0552336 -2.33696e-19 -0.0025086 -1.65005e-20 0.000516118)
(0.00619706 -0.0210106 -3.35515e-19 -0.00691815 8.3236e-20 0.000721091)
(0.00870091 0.00264583 -4.81183e-19 -0.00953688 2.91995e-19 0.000835973)
(0.0106413 0.0208337 -5.15902e-19 -0.0114845 6.04767e-19 0.000843242)
(0.012785 0.0369991 4.3489e-19 -0.0134765 3.57765e-19 0.000691435)
(0.0153266 0.0520137 2.28562e-19 -0.0156506 -5.44073e-20 0.000324009)
(0.00840233 -0.114876 -2.91235e-20 -0.00838256 9.19708e-22 -1.97686e-05)
(-0.000730442 -0.0552102 -2.39372e-19 0.000770058 -4.89902e-21 -3.96163e-05)
(-0.00434157 -0.0210083 -1.0973e-19 0.0043932 2.15354e-19 -5.16272e-05)
(-0.00606201 0.00263817 -4.10156e-19 0.00611928 3.0441e-19 -5.72687e-05)
(-0.00701721 0.0208273 -2.32279e-19 0.00708076 3.8952e-19 -6.35461e-05)
(-0.00808112 0.0369729 -1.78819e-19 0.00813983 2.30806e-19 -5.87105e-05)
(-0.00949104 0.0520512 1.12788e-19 0.00953292 -1.52333e-20 -4.18807e-05)
(0.025427 -0.115406 -9.22745e-21 -0.0251614 -6.45257e-21 -0.000265613)
(-0.000339273 -0.0631876 4.02242e-20 0.000932664 8.05147e-21 -0.000593391)
(-0.0113313 -0.0311821 3.18651e-19 0.012153 3.20776e-19 -0.000821693)
(-0.0172676 -0.00818723 -1.2626e-18 0.0182151 2.65554e-19 -0.000947423)
(-0.0212189 0.00978436 -3.09044e-19 0.0221857 3.05356e-19 -0.000966743)
(-0.0254378 0.0253156 -3.99203e-19 0.026243 8.46973e-20 -0.000805183)
(-0.0306102 0.0392655 2.37407e-19 0.0310151 -5.35505e-20 -0.000404887)
(0.0455117 -0.114891 6.68702e-20 -0.0450102 1.05586e-20 -0.000501529)
(0.00826036 -0.0754497 7.85335e-20 -0.00713557 -4.6162e-20 -0.00112479)
(-0.00896926 -0.0474214 4.04133e-19 0.0105301 7.51957e-20 -0.00156088)
(-0.0190936 -0.0257723 2.31949e-19 0.020896 2.31175e-19 -0.00180239)
(-0.0262719 -0.00838878 2.8769e-19 0.0281067 6.28491e-19 -0.0018348)
(-0.0334915 0.00595554 -2.13792e-18 0.0350154 5.27089e-19 -0.00152381)
(-0.0417606 0.0177977 -4.70155e-19 0.0425156 -7.7465e-20 -0.000755012)
(0.0691005 -0.110542 -3.09616e-20 -0.0683827 -7.13868e-20 -0.000717844)
(0.0270905 -0.0858524 -3.31606e-20 -0.0254781 -9.9367e-20 -0.00161242)
(0.00518709 -0.0629416 -1.55757e-20 -0.00294794 -1.3708e-19 -0.00223915)
(-0.00901112 -0.0434286 -2.69107e-21 0.0115978 -1.28322e-19 -0.00258668)
(-0.0196379 -0.0272511 2.3553e-19 0.0222683 -3.34684e-19 -0.00263036)
(-0.0296077 -0.0146332 1.08703e-18 0.031789 5.89606e-19 -0.00218134)
(-0.0400188 -0.00546315 1.25581e-18 0.0410929 4.13292e-19 -0.00107409)
(0.0947316 -0.0995074 -4.56363e-20 -0.0938248 -1.06908e-19 -0.000906802)
(0.0542324 -0.0879689 -6.47697e-20 -0.0521941 -1.17524e-19 -0.00203829)
(0.0292806 -0.0706129 -1.19142e-19 -0.0264491 -2.3962e-19 -0.00283151)
(0.0113019 -0.0541096 -3.92401e-20 -0.00803028 -3.1837e-19 -0.0032716)
(-0.00280548 -0.0399992 3.72785e-19 0.00613036 -1.19635e-18 -0.00332488)
(-0.0151708 -0.0296095 3.37518e-18 0.0179262 4.73563e-20 -0.00275537)
(-0.026726 -0.0232031 -6.38641e-19 0.0280786 -3.70036e-19 -0.00135256)
(0.119274 -0.0800106 -2.45935e-20 -0.118214 -9.66185e-20 -0.00106059)
(0.0843019 -0.0773724 -8.00056e-20 -0.0819166 -9.40642e-20 -0.00238524)
(0.0576706 -0.0654421 -2.77159e-19 -0.0543566 -3.65666e-19 -0.00331401)
(0.0364648 -0.0528321 -1.20258e-19 -0.0326356 -6.21622e-19 -0.00382918)
(0.0191861 -0.0417779 5.97452e-20 -0.0152966 -1.02149e-18 -0.0038895)
(0.00488494 -0.0340507 1.90916e-18 -0.00166368 -6.68595e-19 -0.00322126)
(-0.00702367 -0.0300927 -1.59316e-18 0.00860141 1.974e-19 -0.00157774)
(0.138771 -0.0521698 -1.98888e-20 -0.137597 -2.2014e-20 -0.00117387)
(0.110117 -0.0532698 -1.44435e-19 -0.107476 -6.32052e-20 -0.00264075)
(0.0827331 -0.0463386 -7.44827e-19 -0.0790639 -3.64843e-20 -0.00366919)
(0.0591455 -0.0383929 -9.46544e-19 -0.0549064 -2.9567e-19 -0.00423913)
(0.039419 -0.0313204 2.84523e-19 -0.0351156 -4.90148e-19 -0.00430345)
(0.0237505 -0.0265893 1.28525e-18 -0.0201891 -9.95438e-19 -0.0035614)
(0.0119139 -0.0245604 9.50246e-19 -0.010173 6.67241e-19 -0.0017409)
(0.149618 -0.0182108 -8.62066e-20 -0.148376 -1.46323e-20 -0.00124191)
(0.125008 -0.0189384 -2.25039e-19 -0.122213 -6.86331e-20 -0.00279467)
(0.0973619 -0.0165933 -1.07982e-19 -0.0934787 2.24631e-19 -0.00388318)
(0.0724922 -0.0138431 1.14191e-19 -0.0680064 2.51975e-19 -0.00448578)
(0.0514073 -0.0114155 2.04491e-19 -0.0468559 -2.67298e-21 -0.00455142)
(0.0350052 -0.00988202 4.69086e-19 -0.0312413 -6.69335e-19 -0.00376388)
(0.0232532 -0.00931437 7.19157e-20 -0.0214165 -3.12042e-19 -0.00183667)
(0.149669 0.0180048 -8.61234e-20 -0.148406 7.01831e-20 -0.00126266)
(0.124987 0.0191887 -1.55535e-19 -0.122145 1.75271e-19 -0.00284202)
(0.0972971 0.0171053 -1.14685e-20 -0.093348 1.37027e-19 -0.00394912)
(0.0723888 0.0144689 1.07692e-19 -0.0678274 -4.64968e-19 -0.00456136)
(0.051255 0.0120125 1.58016e-19 -0.0466294 -1.79995e-19 -0.0046256)
(0.0347981 0.0102957 -1.68358e-20 -0.0309759 -3.79938e-19 -0.00382222)
(0.0229483 0.00951626 -7.86446e-21 -0.0210866 9.73532e-21 -0.00186165)
(0.138912 0.0520051 -4.83975e-20 -0.137676 1.43144e-19 -0.00123512)
(0.110054 0.0535026 -3.62357e-20 -0.107273 2.48576e-19 -0.00278094)
(0.0825413 0.0468103 -2.28869e-19 -0.0786765 1.74231e-20 -0.00386478)
(0.0588363 0.0389769 -1.194e-18 -0.0543724 -8.23059e-20 -0.00446391)
(0.0389689 0.0318838 2.58e-19 -0.034444 -2.03345e-19 -0.0045249)
(0.0231422 0.0270101 4.1127e-19 -0.0194058 -1.14866e-18 -0.00373645)
(0.0111091 0.0247247 4.22307e-20 -0.00929268 -4.38351e-19 -0.00181642)
(0.119472 0.0799198 4.49888e-21 -0.118311 3.88153e-20 -0.00116066)
(0.0842006 0.0775751 6.88935e-20 -0.0815862 1.20978e-19 -0.00261433)
(0.0573666 0.0658457 9.62467e-20 -0.0537324 -9.3716e-20 -0.00363424)
(0.0359641 0.0533478 -5.0826e-19 -0.0317659 1.48656e-19 -0.00419828)
(0.0184597 0.0422992 -7.19721e-19 -0.0142053 -7.45321e-19 -0.00425448)
(0.00389389 0.0345028 -3.08482e-18 -0.000382579 -7.47023e-19 -0.00351131)
(-0.00822691 0.0303518 -5.51006e-19 0.00993038 4.31934e-19 -0.00170348)
(0.0949393 0.0995051 3.01412e-20 -0.0938973 -1.74692e-20 -0.001042)
(0.0541008 0.0881352 3.18746e-20 -0.0517524 -5.61037e-21 -0.00234842)
(0.0288921 0.0709356 -9.7393e-20 -0.0256259 -1.79696e-19 -0.00326618)
(0.0106436 0.0545439 -6.08114e-19 -0.00686897 -5.72836e-20 -0.00377463)
(-0.0037718 0.0404806 -1.10666e-18 0.00759669 -1.40328e-19 -0.00382489)
(-0.0165162 0.0300991 -1.89836e-18 0.0196719 1.48558e-18 -0.00315569)
(-0.0283204 0.0236518 1.06125e-18 0.0298478 3.36263e-19 -0.00152738)
(0.0692701 0.110619 1.86456e-20 -0.0683865 -5.88612e-21 -0.00088361)
(0.0269397 0.0859832 -7.76127e-21 -0.0249466 -3.91127e-22 -0.00199311)
(0.00474751 0.0631859 -2.19109e-19 -0.00197334 -3.28232e-20 -0.00277417)
(-0.00978178 0.0437804 -6.6821e-19 0.0129901 1.52213e-19 -0.00320828)
(-0.0207978 0.0276916 -9.87835e-19 0.0240491 7.81285e-19 -0.00325129)
(-0.0312527 0.0151428 1.68927e-18 0.0339345 1.03398e-18 -0.00268179)
(-0.0420201 0.00610079 5.44328e-19 0.0433142 -6.26184e-19 -0.00129405)
(0.0456068 0.115012 -5.25236e-20 -0.0449153 6.01752e-20 -0.000691478)
(0.00809891 0.0755527 1.28901e-20 -0.00653719 3.25256e-20 -0.00156172)
(-0.00943213 0.0476051 -1.75366e-19 0.0116085 5.39353e-20 -0.00217641)
(-0.0199334 0.0260566 -1.70995e-19 0.0224534 1.03685e-19 -0.00251995)
(-0.0275765 0.00879013 -9.89325e-19 0.030131 7.85738e-19 -0.00255453)
(-0.0353665 -0.00544637 2.21524e-18 0.0374734 -5.19041e-20 -0.00210691)
(-0.0441492 -0.0170485 -1.78289e-18 0.0451616 -8.13317e-20 -0.00101238)
(0.0254401 0.115521 3.85485e-20 -0.0249675 1.55463e-20 -0.000472551)
(-0.000507647 0.0632719 1.79382e-19 0.0015775 -6.05149e-20 -0.00106986)
(-0.0118028 0.0313273 -5.49726e-19 0.013297 -9.71299e-21 -0.00149423)
(-0.0181474 0.00842399 -1.36053e-18 0.0198811 2.67073e-19 -0.00173364)
(-0.0226257 -0.00942275 -1.00341e-18 0.0243838 8.25527e-19 -0.00175813)
(-0.0274775 -0.0248243 1.007e-18 0.028927 2.83291e-19 -0.0014495)
(-0.033329 -0.0385114 6.99221e-19 0.0340199 -3.05165e-20 -0.000690915)
(0.00835835 0.114941 -1.96384e-20 -0.008123 4.76275e-21 -0.00023535)
(-0.000910212 0.0552812 -2.32615e-19 0.00144651 -1.67793e-20 -0.000536303)
(-0.00482688 0.0211305 -3.36114e-19 0.00558026 8.35553e-20 -0.000753383)
(-0.00697567 -0.00243718 -4.82986e-19 0.00785431 2.93372e-19 -0.000878645)
(-0.00849722 -0.0205149 -5.1694e-19 0.00938868 6.09753e-19 -0.000891467)
(-0.0102342 -0.0365241 4.41797e-19 0.0109679 3.63159e-19 -0.000733759)
(-0.0124401 -0.0513987 2.33507e-19 0.0127818 -5.57077e-20 -0.000341768)
(-0.00752705 0.114972 -2.88906e-20 0.00751551 6.85996e-22 1.15381e-05)
(0.00179555 0.0552895 -2.39069e-19 -0.0018149 -4.86989e-21 1.93509e-05)
(0.0056852 0.0211068 -1.0891e-19 -0.00570425 2.15314e-19 1.90496e-05)
(0.00775029 -0.00249244 -4.05021e-19 -0.00776427 3.05543e-19 1.39794e-05)
(0.00911369 -0.0206 -2.30169e-19 -0.00912796 3.9069e-19 1.4271e-05)
(0.0105667 -0.0366402 -1.73885e-19 -0.0105815 2.32089e-19 1.48826e-05)
(0.0122878 -0.0515562 1.13963e-19 -0.0123107 -1.49967e-20 2.28206e-05)
(-0.02465 0.115594 -9.18671e-21 0.0243918 -6.66063e-21 0.000258197)
(0.00136762 0.0632832 4.03235e-20 -0.00194285 7.70279e-21 0.000575234)
(0.0126658 0.0312515 3.20734e-19 -0.0134587 3.17188e-19 0.000792849)
(0.0189629 0.00826305 -1.26014e-18 -0.0198725 2.62129e-19 0.00090963)
(0.0233236 -0.00966166 -3.04927e-19 -0.024248 3.07727e-19 0.000924407)
(0.0279364 -0.0251417 -3.85159e-19 -0.0287048 8.94838e-20 0.000768372)
(0.0333589 -0.0389312 2.42381e-19 -0.0337485 -5.42008e-20 0.000389575)
(-0.0448703 0.115079 6.694e-20 0.0443747 1.03896e-20 0.000495551)
(-0.00727365 0.0755367 7.90781e-20 0.00616328 -4.63201e-20 0.00111037)
(0.0103069 0.0474703 4.06773e-19 -0.0118454 7.34325e-20 0.00153853)
(0.0208205 0.0258082 2.33484e-19 -0.0225942 2.26339e-19 0.00177368)
(0.0284157 0.0084426 2.99395e-19 -0.0302187 6.16636e-19 0.00180308)
(0.0360484 -0.00589179 -2.12333e-18 -0.0375445 5.18225e-19 0.00149605)
(0.0445041 -0.0176233 -4.71247e-19 -0.0452471 -6.96396e-20 0.000742967)
(-0.0685558 0.110636 -3.06926e-20 0.067842 -7.16314e-20 0.000713766)
(-0.0261323 0.0859059 -3.21181e-20 0.0245293 -9.99444e-20 0.00160299)
(-0.00384569 0.0629796 -1.25131e-20 0.00162001 -1.39003e-19 0.00222569)
(0.0107615 0.0434585 1.0858e-21 -0.0133324 -1.32643e-19 0.00257086)
(0.0218091 0.0272811 2.43505e-19 -0.0244235 -3.44259e-19 0.00261444)
(0.0322033 0.0146549 1.08726e-18 -0.0343719 5.84591e-19 0.00216861)
(0.0427568 0.00551384 1.25119e-18 -0.043826 4.08171e-19 0.00106918)
(-0.0941907 0.0994662 -4.53868e-20 0.093286 -1.07313e-19 0.00090477)
(-0.0532774 0.0879793 -6.40047e-20 0.0512432 -1.18572e-19 0.00203425)
(-0.0279452 0.0706474 -1.17368e-19 0.0251176 -2.42476e-19 0.00282762)
(-0.00956269 0.0541533 -3.68099e-20 0.00629314 -3.23499e-19 0.00326954)
(0.00495919 0.0400313 3.8005e-19 -0.00828484 -1.20955e-18 0.00332566)
(0.0177429 0.0296237 3.38321e-18 -0.020501 4.36096e-20 0.00275815)
(0.0294416 0.0231484 -6.43799e-19 -0.0307962 -3.72429e-19 0.00135459)
(-0.11864 0.0798696 -2.44426e-20 0.117579 -9.70963e-20 0.00106045)
(-0.0833215 0.0773487 -7.99772e-20 0.0809354 -9.53055e-20 0.00238616)
(-0.0563463 0.0654698 -2.77342e-19 0.0530273 -3.69512e-19 0.00331894)
(-0.0347654 0.0528785 -1.2107e-19 0.0309257 -6.28644e-19 0.0038397)
(-0.0170896 0.0418001 6.75795e-20 0.0131843 -1.0344e-18 0.00390527)
(-0.00239805 0.0340394 1.91175e-18 -0.000839341 -6.7369e-19 0.00323739)
(0.00969324 0.0299339 -1.59011e-18 -0.0112784 2.05511e-19 0.00158514)
(-0.137999 0.0520201 -1.98939e-20 0.136824 -2.26082e-20 0.00117521)
(-0.109095 0.0532352 -1.45541e-19 0.10645 -6.43571e-20 0.00264562)
(-0.0814181 0.0463496 -7.47819e-19 0.0777369 -3.76684e-20 0.00368121)
(-0.0574923 0.0384119 -9.48463e-19 0.0532323 -2.98984e-19 0.00426)
(-0.0373874 0.0312991 2.94526e-19 0.0330554 -4.95892e-19 0.00433203)
(-0.0213555 0.0265055 1.29692e-18 0.0177656 -1.00663e-18 0.00358993)
(-0.00927194 0.0242952 9.50213e-19 0.00751765 6.73407e-19 0.00175428)
(-0.148739 0.0181486 -8.63928e-20 0.147494 -1.5126e-20 0.0012441)
(-0.123947 0.0189197 -2.2529e-19 0.121145 -6.97199e-20 0.00280168)
(-0.0960375 0.0165811 -1.07667e-19 0.0921386 2.25345e-19 0.00389892)
(-0.0708488 0.0138076 1.15626e-19 0.066337 2.54024e-19 0.00451189)
(-0.049396 0.0113172 2.09942e-19 0.0448098 -1.61508e-21 0.00458613)
(-0.0326514 0.00968171 4.74418e-19 0.0288538 -6.7634e-19 0.00379767)
(-0.0206293 0.00896162 7.00629e-20 0.0187775 -3.16789e-19 0.00185176)
)
;

boundaryField
{
    out
    {
        type            mySigma;
    }
    in
    {
        type            mySigma;
    }
    frontAndBack
    {
        type            empty;
    }
}


// ************************************************************************* //
