/*--------------------------------*- C++ -*----------------------------------*\
| =========                 |                                                 |
| \\      /  F ield         | foam-extend: Open Source CFD                    |
|  \\    /   O peration     | Version:  3.0                                   |
|   \\  /    A nd           | Web:         http://www.extend-project.de       |
|    \\/     M anipulation  |                                                 |
\*---------------------------------------------------------------------------*/
FoamFile
{
    version     2.0;
    format      ascii;
    class       volVectorField;
    location    "3";
    object      u;
}
// * * * * * * * * * * * * * * * * * * * * * * * * * * * * * * * * * * * * * //

dimensions      [0 0 0 0 0 0 0];

internalField   nonuniform List<vector> 
224
(
(0.368997 -0.13294 2.68996e-18)
(0.633501 -0.0815553 6.5119e-18)
(0.81611 -0.0515373 -2.90833e-18)
(0.882521 -0.0334236 -4.98305e-18)
(0.962453 -0.0192351 -5.28309e-18)
(0.965693 -0.0117679 2.02509e-18)
(1.01434 -0.0022086 -1.05399e-18)
(0.469127 -0.373357 1.55446e-18)
(0.694629 -0.228128 2.31324e-19)
(0.854585 -0.143489 -9.63696e-18)
(0.907514 -0.0927943 3.03515e-17)
(0.976877 -0.05288 -5.4169e-18)
(0.974578 -0.0319962 -1.32909e-17)
(1.01524 -0.0028366 -1.37422e-17)
(0.653691 -0.557261 -4.83113e-18)
(0.807186 -0.340291 -3.098e-18)
(0.925159 -0.213955 -1.33506e-17)
(0.952934 -0.138403 -3.09857e-18)
(1.00236 -0.0788203 -1.58807e-17)
(0.989548 -0.0475049 5.00416e-17)
(1.01554 -0.00346205 1.03265e-17)
(0.89459 -0.65648 -2.48859e-18)
(0.954036 -0.400657 -1.80992e-18)
(1.01722 -0.251693 -4.19242e-18)
(1.01233 -0.162585 5.47428e-19)
(1.03605 -0.0923346 -9.85509e-19)
(1.01002 -0.0555596 2.3456e-17)
(1.0177 -0.00445482 -2.78834e-17)
(1.15525 -0.656086 -6.55176e-19)
(1.11293 -0.400399 -8.44041e-19)
(1.11692 -0.251653 -1.73925e-18)
(1.07677 -0.162676 4.91651e-19)
(1.07263 -0.0924749 8.4323e-18)
(1.03199 -0.055413 -2.75882e-17)
(1.01825 -0.00325666 -2.29581e-18)
(1.39584 -0.555959 1.79569e-18)
(1.25934 -0.339315 -5.69525e-19)
(1.20847 -0.213466 -2.29845e-18)
(1.13555 -0.138243 -7.28443e-18)
(1.10564 -0.0790962 8.87075e-18)
(1.0518 -0.0477812 -2.83822e-17)
(1.01937 -0.00381335 2.88624e-17)
(1.57988 -0.371426 -2.03084e-19)
(1.37123 -0.22685 -2.62311e-18)
(1.27844 -0.143067 3.10947e-18)
(1.18048 -0.0929432 7.22347e-18)
(1.13102 -0.0537032 6.9052e-18)
(1.06696 -0.0325393 -1.25835e-17)
(1.02097 -0.00366422 -1.20384e-18)
(1.67921 -0.130543 6.28352e-20)
(1.43136 -0.0801419 -3.55429e-19)
(1.31583 -0.0512544 3.48762e-18)
(1.20432 -0.0339033 3.49538e-18)
(1.14454 -0.020563 4.9595e-18)
(1.07509 -0.0127405 -5.11999e-18)
(1.02314 -0.00285469 -2.0001e-18)
(1.67883 0.13001 7.79378e-19)
(1.43075 0.0784606 6.18006e-19)
(1.31519 0.0480756 4.09116e-18)
(1.20363 0.0300636 -1.84021e-18)
(1.14419 0.0156744 2.49057e-18)
(1.07486 0.00905188 -3.52799e-18)
(1.02507 -0.000843333 2.7054e-19)
(1.57873 0.370541 1.67717e-18)
(1.36946 0.224766 2.19503e-18)
(1.27654 0.13968 6.07264e-18)
(1.17848 0.0890527 -9.50501e-18)
(1.12996 0.0492835 3.04743e-18)
(1.0663 0.0293438 -5.40512e-18)
(1.0259 0.00204798 2.88691e-18)
(1.39421 0.554454 3.43826e-18)
(1.25689 0.336552 2.33634e-18)
(1.2058 0.209722 6.16396e-18)
(1.13266 0.134194 4.56865e-18)
(1.10384 0.0752238 7.04718e-18)
(1.05051 0.0450519 -2.91974e-17)
(1.02511 0.00509161 -2.25188e-18)
(1.15337 0.653743 2.88131e-19)
(1.11021 0.396841 9.21537e-20)
(1.11378 0.24752 -1.05545e-18)
(1.07323 0.158599 -1.87091e-18)
(1.06988 0.0894226 -5.97204e-18)
(1.02994 0.0536949 5.44502e-18)
(1.02269 0.00736838 2.70547e-17)
(0.892847 0.653271 -1.91606e-18)
(0.951691 0.396464 -4.48143e-19)
(1.0144 0.247355 -2.00359e-18)
(1.0091 0.158572 -1.23449e-18)
(1.03311 0.0896642 -1.63576e-17)
(1.00762 0.0538678 5.47991e-17)
(1.01908 0.00802426 -9.94195e-18)
(0.652355 0.553153 -4.5614e-18)
(0.80549 0.335583 6.87105e-19)
(0.922874 0.20935 -1.62676e-18)
(0.950168 0.134234 7.4558e-18)
(0.999401 0.0759461 -1.97702e-17)
(0.987206 0.0455571 4.28255e-17)
(1.01535 0.00661052 -5.40973e-17)
(0.468459 0.368525 3.06588e-19)
(0.693773 0.223337 5.54687e-18)
(0.852992 0.139158 -1.0871e-17)
(0.905223 0.08914 -2.40583e-17)
(0.973749 0.0502718 -1.31619e-17)
(0.971712 0.0300491 1.35576e-17)
(1.01262 0.00347272 2.19261e-17)
(0.369198 0.127582 -2.24368e-18)
(0.633556 0.0769456 -5.67285e-18)
(0.815481 0.0476738 -4.65443e-19)
(0.881284 0.0304094 5.52034e-18)
(0.96042 0.0168461 -6.67413e-19)
(0.963875 0.00976983 7.82985e-18)
(1.01198 -0.000732472 -9.15473e-19)
(0.369694 -0.133141 -2.68547e-18)
(0.633998 -0.081552 -6.48853e-18)
(0.815977 -0.0515119 2.87499e-18)
(0.881873 -0.0334303 4.92541e-18)
(0.961219 -0.0195267 5.23009e-18)
(0.964695 -0.0122348 -2.00014e-18)
(1.01321 -0.00380661 1.03803e-18)
(0.469863 -0.373829 -1.55211e-18)
(0.694977 -0.227856 -2.32406e-19)
(0.854292 -0.143007 9.56164e-18)
(0.906704 -0.0922695 -3.01165e-17)
(0.975652 -0.0528968 5.37375e-18)
(0.973614 -0.0324307 1.31487e-17)
(1.01506 -0.00586415 1.36305e-17)
(0.654505 -0.557924 4.82419e-18)
(0.807334 -0.339858 3.08486e-18)
(0.924759 -0.213134 1.32692e-17)
(0.952232 -0.137436 3.04777e-18)
(1.00176 -0.0784804 1.56905e-17)
(0.989545 -0.0478263 -4.959e-17)
(1.0172 -0.00692381 -1.01056e-17)
(0.895445 -0.657306 2.48429e-18)
(0.953897 -0.400359 1.80355e-18)
(1.01655 -0.251008 4.1675e-18)
(1.01139 -0.161805 -5.49248e-19)
(1.03541 -0.0922056 9.14253e-19)
(1.00991 -0.0559932 -2.33372e-17)
(1.01936 -0.00713959 2.7623e-17)
(1.15604 -0.656904 6.51781e-19)
(1.11249 -0.400237 8.43116e-19)
(1.11591 -0.251006 1.72911e-18)
(1.07544 -0.161836 -4.84765e-19)
(1.0718 -0.0921686 -8.53889e-18)
(1.03186 -0.0558394 2.77783e-17)
(1.02151 -0.00665913 2.35503e-18)
(1.39653 -0.556748 -1.80151e-18)
(1.25887 -0.339392 5.75461e-19)
(1.20758 -0.212956 2.29487e-18)
(1.13448 -0.137326 7.34992e-18)
(1.10524 -0.0781925 -9.06822e-18)
(1.05196 -0.0472598 2.87982e-17)
(1.02334 -0.00539888 -2.93874e-17)
(1.58036 -0.372145 2.00588e-19)
(1.37086 -0.227152 2.65083e-18)
(1.27779 -0.14273 -3.16843e-18)
(1.17975 -0.0921118 -7.42112e-18)
(1.13091 -0.0524972 -7.12268e-18)
(1.06734 -0.0316568 1.26542e-17)
(1.02469 -0.00353841 1.50887e-18)
(1.67946 -0.131196 -7.46207e-20)
(1.4313 -0.0805245 3.28458e-19)
(1.31568 -0.0509106 -3.48425e-18)
(1.20415 -0.0329474 -3.44581e-18)
(1.14467 -0.0188796 -5.00988e-18)
(1.0755 -0.0113079 5.18805e-18)
(1.02521 -0.00127358 2.02443e-18)
(1.67883 0.129378 -7.93773e-19)
(1.43106 0.0781062 -6.5095e-19)
(1.31562 0.0484717 -4.0677e-18)
(1.20414 0.031093 1.88661e-18)
(1.14463 0.0175012 -2.44283e-18)
(1.07534 0.0106453 3.47629e-18)
(1.02489 0.00104923 -2.57293e-19)
(1.5785 0.369921 -1.68926e-18)
(1.37008 0.224644 -2.20399e-18)
(1.27745 0.140327 -6.0108e-18)
(1.17953 0.0903141 9.25254e-18)
(1.13056 0.0511333 -3.0092e-18)
(1.06671 0.0308965 5.52014e-18)
(1.02366 0.00308095 -2.76615e-18)
(1.39381 0.553822 -3.44094e-18)
(1.25771 0.336733 -2.33272e-18)
(1.20708 0.210643 -6.0918e-18)
(1.1342 0.135664 -4.52934e-18)
(1.10478 0.0768949 -6.86603e-18)
(1.05107 0.0463565 2.86376e-17)
(1.02177 0.00452374 2.04985e-18)
(1.15282 0.653102 -2.94039e-19)
(1.11096 0.397328 -9.60291e-20)
(1.11512 0.248687 1.07032e-18)
(1.07491 0.160213 1.86304e-18)
(1.07103 0.0908012 6.04916e-18)
(1.03064 0.0546399 -5.58221e-18)
(1.0194 0.00510037 -2.67444e-17)
(0.892255 0.652691 1.90907e-18)
(0.952249 0.397185 4.38295e-19)
(1.01566 0.248672 2.00271e-18)
(1.01082 0.160237 1.2165e-18)
(1.03462 0.0907918 1.64658e-17)
(1.00869 0.0545417 -5.50906e-17)
(1.01698 0.00472317 9.89737e-18)
(0.651723 0.552647 4.5572e-18)
(0.805692 0.33631 -7.04162e-19)
(0.923809 0.210538 1.61847e-18)
(0.951628 0.135652 -7.53708e-18)
(1.00106 0.0767517 1.99835e-17)
(0.988499 0.0460078 -4.33116e-17)
(1.01494 0.00338768 5.46891e-17)
(0.467824 0.368221 -3.14112e-19)
(0.693638 0.223954 -5.58573e-18)
(0.853603 0.140103 1.09229e-17)
(0.906442 0.0902335 2.42564e-17)
(0.975557 0.0509214 1.33851e-17)
(0.973262 0.0304159 -1.36644e-17)
(1.01375 0.00140345 -2.22459e-17)
(0.368557 0.127489 2.24555e-18)
(0.633176 0.0772338 5.69037e-18)
(0.815805 0.0480822 4.53211e-19)
(0.882185 0.030853 -5.57945e-18)
(0.962015 0.0171719 7.13508e-19)
(0.965234 0.0101129 -7.92014e-18)
(1.01359 -0.000564986 8.86772e-19)
)
;

boundaryField
{
    out
    {
        type            fixedValue;
        value           uniform (1 0 0);
    }
    in
    {
        type            myVelocity;
    }
    frontAndBack
    {
        type            empty;
    }
}


// ************************************************************************* //
