/*--------------------------------*- C++ -*----------------------------------*\
| =========                 |                                                 |
| \\      /  F ield         | foam-extend: Open Source CFD                    |
|  \\    /   O peration     | Version:  3.0                                   |
|   \\  /    A nd           | Web:         http://www.extend-project.de       |
|    \\/     M anipulation  |                                                 |
\*---------------------------------------------------------------------------*/
FoamFile
{
    version     2.0;
    format      ascii;
    class       volSymmTensorField;
    location    "47";
    object      sigma;
}
// * * * * * * * * * * * * * * * * * * * * * * * * * * * * * * * * * * * * * //

dimensions      [0 0 0 0 0 0 0];

internalField   nonuniform List<symmTensor> 
2688
(
(-0.1770930071 -0.004518898398 1.667072297e-19 0.1769814693 3.63415154e-19 0.000111537781)
(-0.1735352929 -0.005427045991 3.857178035e-20 0.1732331592 2.246159452e-19 0.0003021337377)
(-0.1663709777 -0.005857691147 -9.392897441e-20 0.1658982908 7.273854954e-19 0.0004726869584)
(-0.1570735027 -0.005966374014 7.893852954e-20 0.1564469296 2.970432001e-19 0.0006265730467)
(-0.1472480716 -0.005913429318 1.497014465e-20 0.1464819147 4.234593059e-19 0.000766156893)
(-0.1369572933 -0.005739270978 1.165453828e-19 0.1360644383 1.97799998e-19 0.0008928549546)
(-0.1270454632 -0.00551329069 2.238344521e-20 0.1260378642 2.860480086e-19 0.001007599034)
(-0.117247695 -0.0052463866 8.289718043e-20 0.1161369916 1.148102209e-19 0.001110703474)
(-0.1080482474 -0.004968217004 -1.327531443e-20 0.1068460034 2.258789885e-19 0.001202243971)
(-0.09917542926 -0.004683822552 -5.78862821e-20 0.09789364689 -5.885474497e-20 0.001281782371)
(-0.09090149321 -0.004403488764 8.668557126e-20 0.08955271865 4.516687967e-19 0.001348774563)
(-0.08303548624 -0.004132997806 -5.028319678e-20 0.08163332347 7.760084567e-20 0.001402162768)
(-0.07570892728 -0.003872142912 3.543323314e-19 0.07426805405 1.211554548e-19 0.001440873228)
(-0.06882764928 -0.003629458248 -6.79397076e-20 0.06736441498 2.66745393e-20 0.001463234297)
(-0.06242146686 -0.003398281136 -1.369253903e-20 0.06095383204 8.719953784e-20 0.001467634826)
(-0.0564897734 -0.003190546659 1.997034514e-20 0.05503808586 2.114144899e-20 0.001451687539)
(-0.0509837625 -0.002995316842 -5.038460317e-20 0.04957062967 1.717999662e-19 0.001413132837)
(-0.04598809995 -0.002827552908 2.078423659e-19 0.04463942188 8.156570167e-20 0.001348678075)
(-0.04139313364 -0.002673908109 -2.079820879e-19 0.04013792118 -7.143505362e-20 0.001255212462)
(-0.03735516838 -0.002550979455 1.461549565e-19 0.03622685011 1.986487812e-19 0.001128318271)
(-0.03372635789 -0.002444540233 8.930739272e-20 0.03276260745 -1.665657902e-19 0.0009637504421)
(-0.03071033664 -0.00237162842 4.927476949e-20 0.02995457986 -2.84162483e-19 0.0007557567846)
(-0.02815854473 -0.002322571282 -2.417971164e-20 0.02765999529 6.928592158e-20 0.0004985494417)
(-0.02627914866 -0.002308907011 -8.796194916e-20 0.02609435253 -5.767929668e-19 0.0001847961338)
(-0.1766237453 -0.0141387321 4.184867857e-20 0.1765113903 -4.651279879e-19 0.000112354979)
(-0.1726409105 -0.01673602886 2.767693598e-19 0.1723365454 -2.610347823e-19 0.000304365039)
(-0.1652263276 -0.01794505568 7.680260504e-20 0.1647501372 -4.527616387e-19 0.0004761903952)
(-0.15579895 -0.01821823803 -1.683118913e-19 0.1551677264 -2.033123378e-20 0.0006312236495)
(-0.1459088511 -0.01802557018 9.267854493e-20 0.1451369785 -1.412197846e-19 0.0007718725402)
(-0.1356015011 -0.01748286541 -1.046348673e-19 0.1347019383 -2.800047613e-19 0.0008995628362)
(-0.1256988463 -0.01679365606 1.954613118e-19 0.1246836201 1.365471038e-19 0.001015226289)
(-0.1159287752 -0.01598816905 -5.820133912e-20 0.1148095914 -4.339574371e-19 0.001119183782)
(-0.1067672006 -0.01515332853 -8.371289842e-20 0.1055556905 5.897514128e-20 0.001211510145)
(-0.09793768881 -0.01430293647 2.370509941e-19 0.09664592869 -4.011990109e-19 0.001291760121)
(-0.08971067741 -0.01346693088 9.393565054e-20 0.0883512919 -1.039618147e-19 0.00135938551)
(-0.08189084772 -0.01266180926 -4.014837621e-20 0.0804775357 -2.582897114e-19 0.001413312011)
(-0.0746112379 -0.01188657667 -1.703040337e-19 0.07315877641 1.097950423e-19 0.001452461493)
(-0.0677729457 -0.0111660695 1.575402879e-19 0.06629781018 -3.943955964e-20 0.001475135515)
(-0.0614093018 -0.01048018042 -4.879346561e-20 0.05992958225 1.696496341e-19 0.001479719549)
(-0.05551424801 -0.009863715821 5.541939055e-20 0.05405046091 3.746577691e-19 0.00146378709)
(-0.05004388513 -0.009283890118 3.040480353e-19 0.04861881231 -2.552028097e-19 0.001425072825)
(-0.04507665729 -0.008784258597 -4.264524938e-19 0.04371643159 4.267117319e-19 0.001360225693)
(-0.04050858765 -0.00832537268 3.20880446e-19 0.03924246879 3.240908917e-19 0.001266118861)
(-0.0364893893 -0.007954617676 9.089995633e-22 0.0353511319 -4.407683319e-20 0.0011382574)
(-0.03287652802 -0.007633728985 -4.761814776e-19 0.03190415913 1.561607364e-19 0.0009723688965)
(-0.02986778611 -0.007405513622 1.724936822e-19 0.02910517584 3.214052926e-19 0.000762610269)
(-0.02731772982 -0.007248584652 -3.512576179e-19 0.02681458724 2.952473569e-19 0.0005031425764)
(-0.02543121816 -0.007184030673 2.73220359e-19 0.02524467998 -1.745634312e-19 0.0001865381779)
(-0.1756648366 -0.02373156439 2.015751891e-19 0.1755519792 3.671576972e-19 0.0001128573789)
(-0.1708503949 -0.02790118274 -4.539342909e-21 0.1705446604 4.916967341e-19 0.0003057344606)
(-0.1629467064 -0.0298166059 4.589846398e-20 0.1624683522 2.25491318e-19 0.0004783542064)
(-0.1532665513 -0.03021385815 2.809924651e-19 0.152632434 1.585808951e-19 0.0006341173097)
(-0.1432510846 -0.02985814444 -1.927429472e-19 0.1424756615 3.067637837e-19 0.0007754230919)
(-0.1329128386 -0.02893641098 2.931020584e-19 0.132009116 1.518603585e-19 0.0009037225942)
(-0.12302938 -0.02778060826 -8.26794003e-20 0.1220094315 2.512348439e-19 0.001019948574)
(-0.1133148229 -0.0264382515 -2.436054785e-21 0.112190392 1.978697953e-19 0.001124430912)
(-0.1042284581 -0.02505154846 -4.194432433e-20 0.1030112135 5.006036588e-19 0.00121724458)
(-0.09548476188 -0.02364161592 -2.425210872e-19 0.09418681746 1.871368354e-19 0.001297944419)
(-0.0873504684 -0.02225772773 1.638401006e-19 0.08598448948 4.781381287e-19 0.001365978918)
(-0.07962184499 -0.02092579577 1.538370599e-19 0.07820157422 6.234468427e-20 0.001420270767)
(-0.07243477181 -0.01964453639 5.553309635e-19 0.07097504007 -5.15590608e-20 0.001459731748)
(-0.06568124866 -0.01845374916 5.194061276e-21 0.06419859261 -8.437092106e-20 0.001482656055)
(-0.05940127692 -0.01732085383 4.32561506e-19 0.05791386817 -6.890051024e-20 0.001487408748)
(-0.05357841841 -0.01630204387 -3.169198867e-19 0.05210686737 -1.029595766e-19 0.001471551041)
(-0.04817796069 -0.01534395281 -2.103469223e-20 0.04674517558 1.392362936e-19 0.001432785103)
(-0.04326663844 -0.01451711688 9.832322034e-19 0.04189889549 -1.273704294e-19 0.001367742953)
(-0.03875108232 -0.01375735229 -6.409012955e-19 0.03747782943 9.723003989e-20 0.001273252888)
(-0.03476858283 -0.01314139504 4.652294974e-20 0.03362378523 -2.16089275e-20 0.001144797599)
(-0.03118727529 -0.01260818959 5.008621807e-19 0.03020922652 2.287705674e-20 0.000978048769)
(-0.02819270354 -0.01222521262 3.727700006e-19 0.02742557117 -3.553070843e-19 0.0007671323672)
(-0.02564827646 -0.01196056277 -5.859232222e-19 0.02514212735 2.656364507e-19 0.000506149108)
(-0.02374725008 -0.01184383012 -1.60678041e-19 0.02355960818 -4.679990012e-19 0.0001876419001)
(-0.1742154062 -0.03327813225 5.84013259e-20 0.1741024009 5.738730619e-22 0.0001130052854)
(-0.1681896333 -0.03882939956 1.740160983e-19 0.1678834754 -1.835011961e-19 0.0003061579544)
(-0.1595747072 -0.04133424537 -5.577744174e-20 0.159095672 -7.126483986e-19 0.0004790351674)
(-0.1495283616 -0.04178956502 -1.727703927e-19 0.1488933151 1.146729943e-19 0.0006350464749)
(-0.1393325881 -0.04123306084 1.521993087e-19 0.1385560087 -2.18222717e-19 0.0007765793551)
(-0.1289517866 -0.03991529362 -1.936366544e-19 0.1280466857 4.167707755e-20 0.0009051009171)
(-0.1190987339 -0.03828754846 3.209199862e-19 0.1180771897 -6.028788622e-20 0.001021544161)
(-0.1094674114 -0.03641125414 5.85490721e-20 0.1083411705 2.600246194e-19 0.001126240941)
(-0.1004928698 -0.03448062859 8.509658283e-20 0.0992735977 -4.512322649e-19 0.00121927214)
(-0.09187630724 -0.03252181337 1.942761469e-19 0.0905761206 7.655511062e-20 0.001300186644)
(-0.08387907409 -0.03060284266 -5.430498742e-20 0.08251063255 2.209511671e-19 0.001368441541)
(-0.07628512762 -0.02875696703 -4.830309268e-19 0.07486218133 -3.760409772e-19 0.00142294629)
(-0.06923453983 -0.02698340426 -4.483046133e-19 0.06777191597 5.071582119e-19 0.00146262386)
(-0.06260597312 -0.02533473778 2.879933845e-19 0.06112022927 -4.900502685e-19 0.001485743851)
(-0.05644922114 -0.02376752779 -2.233154439e-19 0.05495853618 1.002039718e-18 0.001490684965)
(-0.05073267766 -0.02235686536 4.637296744e-19 0.04925770915 -1.469405246e-19 0.001474968513)
(-0.04543498203 -0.02103106822 4.762228953e-20 0.04399866884 4.383034383e-19 0.001436313189)
(-0.0406061171 -0.01988466585 -2.939169838e-19 0.03923482273 -3.953415915e-19 0.001371294366)
(-0.03616749196 -0.01883166886 6.680297878e-19 0.03489073267 2.076472919e-20 0.001276759294)
(-0.03223996112 -0.01797448717 -2.263014097e-19 0.03109184134 8.865600996e-20 0.001148119783)
(-0.02870433786 -0.01723304736 -8.906434234e-19 0.02772327436 1.838064377e-19 0.000981063503)
(-0.02573364481 -0.01669488718 6.755685777e-19 0.02496400787 -1.214086247e-20 0.0007696369368)
(-0.0231960928 -0.01632205844 -2.740019814e-19 0.02268815761 5.242173232e-19 0.0005079351851)
(-0.02128205912 -0.01614907973 4.002366734e-19 0.02109366664 -7.912544448e-20 0.0001883924765)
(-0.1722745108 -0.04275830428 8.369819109e-20 0.1721616797 1.374357143e-19 0.0001128310995)
(-0.1646966443 -0.04943271837 -3.660556374e-19 0.1643909707 -1.612486327e-19 0.0003056735906)
(-0.1551726692 -0.05236825622 3.010025955e-19 0.1546943901 -2.891019741e-19 0.0004782790999)
(-0.1446607305 -0.05279240034 5.102983977e-19 0.1440266673 3.211131383e-19 0.0006340632027)
(-0.1342379727 -0.05198397708 -1.200229103e-19 0.133462577 -3.074869894e-19 0.0007753957258)
(-0.1238071036 -0.05024734303 2.938763495e-19 0.1229033502 5.219237024e-19 0.0009037533649)
(-0.1139973293 -0.04814057162 1.950430538e-19 0.1129772648 -3.207821414e-19 0.001020064506)
(-0.1044770335 -0.04573450911 -2.810406502e-19 0.10335237 4.343377069e-19 0.001124663514)
(-0.09564986999 -0.04327092155 -2.547348993e-19 0.09443223843 3.621940802e-19 0.001217631558)
(-0.0872002069 -0.04077785332 4.712595402e-19 0.08590168785 -2.83047801e-19 0.001298519053)
(-0.07938229308 -0.0383413242 5.579071079e-20 0.07801551049 -2.211475642e-19 0.001366782592)
(-0.07196446571 -0.03599910175 4.91284783e-19 0.07054313186 -7.782555608e-20 0.001421333848)
(-0.06509199984 -0.0337519521 2.680876753e-19 0.06363090809 3.961785134e-19 0.001461091753)
(-0.0586266431 -0.03166232837 4.314454536e-19 0.05714231487 -2.56888438e-19 0.00148432823)
(-0.05263050468 -0.02967801782 8.421469643e-19 0.05114109324 3.128592514e-19 0.001489411441)
(-0.04705281781 -0.0278898152 -7.574074401e-19 0.04557895292 -8.959552033e-19 0.001473864886)
(-0.04188896798 -0.02621043152 4.801008111e-20 0.04045357942 -6.403034282e-19 0.001435388566)
(-0.03716781114 -0.02475498158 2.242550467e-19 0.03579725015 2.336837448e-19 0.001370560984)
(-0.03282946389 -0.02341849598 -1.69634478e-19 0.03155326059 -1.684544354e-19 0.001276203305)
(-0.02897348545 -0.0223259098 6.031401265e-19 0.02782575328 3.19472728e-20 0.001147732174)
(-0.0254980937 -0.0213805848 3.491237224e-19 0.02451728964 -2.016771642e-19 0.0009808040557)
(-0.02255760726 -0.02068762843 4.67640195e-19 0.02178813705 5.724405658e-19 0.0007694702108)
(-0.02003254881 -0.02020514123 5.257324634e-20 0.01952474291 -9.714300896e-19 0.0005078058973)
(-0.01809805639 -0.01997099413 -7.282716739e-19 0.01790976665 1.033441606e-18 0.0001882897471)
(-0.169840997 -0.05215126598 -2.75608196e-19 0.1697287087 6.825377887e-19 0.0001122882983)
(-0.1604207616 -0.05962987559 -3.957927401e-19 0.1601165372 4.904566078e-19 0.0003042244373)
(-0.1498211935 -0.06280048735 -6.709004702e-20 0.1493451688 -3.153324285e-21 0.0004760246425)
(-0.1387623092 -0.06308351319 -2.06682726e-19 0.1381312075 3.115077079e-19 0.0006311017516)
(-0.1280765623 -0.06196042441 1.985735733e-19 0.1273047605 3.174250057e-19 0.0007718017217)
(-0.1175933104 -0.05977700467 -1.530752739e-19 0.1166937058 -2.083788474e-19 0.0008996046149)
(-0.1078418483 -0.05718275441 3.492162078e-19 0.1068264156 -3.170059145e-20 0.001015432653)
(-0.09846027746 -0.05425231886 6.187895598e-19 0.09734065806 6.112934497e-19 0.001119619394)
(-0.08981464011 -0.05126951578 -3.190316053e-19 0.08860239014 -1.011808357e-18 0.001212249964)
(-0.08156944179 -0.04826044904 -7.409450596e-19 0.08027656995 1.000463416e-18 0.001292871844)
(-0.07397034732 -0.04532815394 5.47860744e-20 0.0726093951 2.508619593e-19 0.001360952217)
(-0.06676720744 -0.04251145483 -2.117312438e-20 0.06535181182 -1.060839744e-19 0.001415395617)
(-0.06011143468 -0.03981394309 -4.610191051e-19 0.05865629578 5.301762925e-20 0.001455138894)
(-0.05384468525 -0.03730437888 3.143015813e-20 0.05236624681 -7.31852082e-20 0.001478438447)
(-0.04804367893 -0.03492432756 -3.294827353e-19 0.0465599901 1.406632242e-19 0.001483688829)
(-0.04263494748 -0.03277639053 -3.606689167e-19 0.04116656198 -4.105449456e-19 0.001468385494)
(-0.03763351143 -0.03076106191 4.136257528e-19 0.03620324647 1.440985197e-18 0.001430264951)
(-0.03304375773 -0.02900966049 3.507709685e-19 0.03167789411 -1.989363586e-19 0.001365863622)
(-0.02882672223 -0.0274023474 2.106005671e-19 0.02755467232 6.433987501e-19 0.001272049915)
(-0.02505933229 -0.02608130316 -4.849540442e-19 0.02391514529 3.576092052e-19 0.001144186999)
(-0.02165594163 -0.02493862299 -1.564779767e-19 0.02067795829 3.565470395e-19 0.0009779833364)
(-0.0187572306 -0.02408975907 -2.251286404e-19 0.01798979941 1.32583445e-18 0.0007674311964)
(-0.01624374338 -0.02349477703 1.068683352e-18 0.01573710398 -4.36796022e-19 0.0005066393983)
(-0.01429645718 -0.02319290572 -1.317692151e-19 0.01410846743 2.580007879e-18 0.0001879897511)
(-0.1669140087 -0.06143507942 5.370303801e-19 0.1668025902 -1.22747644e-18 0.0001114185504)
(-0.1554211278 -0.0693479485 -9.362704208e-19 0.1551192676 3.010712753e-20 0.0003018601429)
(-0.1436167845 -0.07252702756 4.287366679e-19 0.1431444568 -8.421067724e-19 0.0004723276235)
(-0.1319510845 -0.07254183626 4.97808708e-19 0.131324863 6.823783975e-19 0.00062622144)
(-0.1209790607 -0.07103171238 -3.452439271e-20 0.120213202 -1.164632909e-18 0.0007658587029)
(-0.1104473731 -0.06836960654 -1.033653147e-19 0.1095546562 4.559499584e-19 0.0008927168474)
(-0.100771795 -0.06527853588 6.186836055e-19 0.09976408737 -1.297206658e-19 0.001007707607)
(-0.0915566391 -0.06183045536 -3.249154794e-19 0.0904454746 -1.09145196e-18 0.001111164497)
(-0.08312499673 -0.05834483871 4.987471845e-19 0.08192182602 -5.606477085e-19 0.001203170716)
(-0.07511932944 -0.05484138401 1.465603992e-18 0.07383605132 2.250200947e-19 0.001283278122)
(-0.06777528654 -0.05143901994 -8.004132106e-19 0.06642433206 -9.090592676e-19 0.001350954484)
(-0.06082215265 -0.04817361097 2.602998272e-19 0.05941703942 5.072975931e-19 0.001405113235)
(-0.05441802727 -0.04505304434 3.336846409e-19 0.0529733354 2.805820312e-19 0.001444691871)
(-0.04838214237 -0.04214829281 1.775567346e-19 0.0469141823 8.510344595e-19 0.001467960073)
(-0.04280745923 -0.03939757688 8.964128336e-19 0.04133414832 -3.916502975e-19 0.001473310913)
(-0.037595145 -0.03691098895 -5.265519674e-19 0.0361368868 1.377967652e-18 0.001458258203)
(-0.03278205674 -0.03458029693 4.285460485e-19 0.03136152269 -5.774471462e-19 0.00142053405)
(-0.02834517008 -0.03254881453 -7.039290927e-19 0.0269884697 5.883528725e-19 0.001356700376)
(-0.02426890756 -0.03068483275 9.698558418e-19 0.02300528775 -3.476535153e-19 0.001263619805)
(-0.0206043797 -0.02914467442 2.863751807e-19 0.01946768973 6.568327326e-19 0.00113668997)
(-0.01728505716 -0.02781040409 1.805743835e-18 0.01631344136 -5.873937992e-19 0.0009716157944)
(-0.01443331152 -0.02680776747 -5.816449024e-19 0.01367087552 8.302956023e-19 0.0007624359942)
(-0.01193857049 -0.02609651849 1.612741798e-18 0.0114352903 4.963299386e-19 0.0005032801829)
(-0.00997508582 -0.02572354432 -1.09324019e-18 0.009788436332 -5.563887671e-19 0.0001866494882)
(-0.1634929443 -0.07058664552 2.913170356e-19 0.163382761 1.364495828e-18 0.0001101833035)
(-0.1497654586 -0.07852388071 2.055823907e-19 0.1494669227 5.602590605e-20 0.0002985358979)
(-0.1366695607 -0.08146055621 -4.705993496e-19 0.1362024198 1.063675229e-18 0.0004671408269)
(-0.1243615886 -0.08106677811 2.232544032e-19 0.1237422157 -8.033779505e-19 0.000619372854)
(-0.113094425 -0.0790899877 2.674255959e-19 0.1123369092 -1.175063087e-19 0.0007575158016)
(-0.1025252857 -0.07591444116 5.892977767e-20 0.1016422479 8.071926729e-19 0.0008830377895)
(-0.0929460561 -0.07231678229 -7.653660255e-19 0.09194921642 1.187200721e-19 0.0009968396786)
(-0.08392488865 -0.06835908331 3.585247902e-19 0.08282563782 3.324892734e-20 0.001099250821)
(-0.07573779716 -0.06438934677 -8.087023254e-19 0.07454744 1.321515413e-18 0.001190357158)
(-0.06800377209 -0.06041594313 -7.564894046e-20 0.06673406248 -4.456098535e-19 0.001269709604)
(-0.06094729981 -0.05657241154 3.345296083e-19 0.05961051116 8.476395157e-19 0.001336788656)
(-0.05427566252 -0.05288724015 8.264397139e-19 0.0528851558 -1.363037979e-19 0.001390506721)
(-0.04815406819 -0.04937419985 -1.475018988e-19 0.04672424311 3.013453718e-19 0.001429825084)
(-0.04237758673 -0.04610199461 -3.071027609e-19 0.04092457825 -8.207081908e-19 0.001453008484)
(-0.03705673914 -0.04300863149 3.277415728e-19 0.03559825214 3.912374975e-20 0.001458486991)
(-0.03206528972 -0.04020700156 2.794442883e-19 0.03062152745 -1.029755501e-18 0.001443762268)
(-0.02746353026 -0.03758408509 7.917171728e-21 0.02605691089 5.268167496e-20 0.001406619368)
(-0.02319923408 -0.0352903681 7.958984239e-19 0.02185563429 -8.717478549e-19 0.001343599783)
(-0.01928061866 -0.03318652297 8.141168263e-20 0.01802898239 -3.080398387e-19 0.001251636277)
(-0.01573399932 -0.03143785705 -6.85316295e-19 0.01460789882 -6.350500936e-19 0.001126100496)
(-0.01250604758 -0.02992070337 4.631159386e-19 0.01154326754 -3.188995882e-19 0.0009627800417)
(-0.009714958201 -0.02876388248 1.637520642e-18 0.008959268008 4.903040581e-19 0.0007556901927)
(-0.007234476134 -0.02793230294 5.146685759e-19 0.006735443934 -1.484575831e-18 0.0004990322007)
(-0.005263424292 -0.02746736708 2.629276383e-19 0.005078188696 1.18099847e-18 0.0001852355956)
(-0.1595780047 -0.0795815306 -5.205958642e-20 0.1594693805 -7.549180385e-19 0.0001086242291)
(-0.1435281688 -0.08710530682 -1.286849188e-18 0.1432338641 3.995817088e-19 0.0002943047426)
(-0.1291000185 -0.08953216582 9.052764899e-19 0.1286394936 -2.099878291e-18 0.0004605248993)
(-0.1161408152 -0.08858061961 -7.55338394e-19 0.1155301926 6.424464304e-19 0.0006106225983)
(-0.104585288 -0.08605292966 8.167243622e-19 0.1038384443 -2.666996665e-19 0.0007468436973)
(-0.09399732215 -0.08232772341 7.648370593e-19 0.09312668096 -1.65953216e-19 0.0008706411958)
(-0.0845379603 -0.07821392954 1.0471897e-19 0.08355505931 -3.529349947e-19 0.0009829009982)
(-0.07573822761 -0.07375607639 2.710070781e-19 0.07465427892 -4.017209297e-19 0.001083948693)
(-0.0678240677 -0.0693230398 6.868756574e-19 0.06665020035 -7.465067876e-19 0.00117386735)
(-0.06039057975 -0.06490660687 3.906941222e-19 0.05913836603 5.007805111e-19 0.001252213722)
(-0.05365004298 -0.06065354785 -7.958492815e-19 0.05233157181 -7.395858818e-19 0.001318471171)
(-0.04728721598 -0.05658023808 1.503946217e-19 0.0459156494 3.359398789e-20 0.001371566588)
(-0.04147443959 -0.05270803197 3.401168348e-19 0.040063972 1.964412397e-19 0.001410467586)
(-0.03598179202 -0.04909855308 -3.183434636e-19 0.03454832966 6.444016491e-19 0.001433462365)
(-0.03093809179 -0.04569290211 7.31312003e-20 0.02949910231 6.677082872e-19 0.001438989482)
(-0.02618842433 -0.04260188009 -4.862468021e-19 0.02476383933 1.056470487e-18 0.001424584996)
(-0.02181790689 -0.03971140461 4.447960743e-20 0.02042986198 3.045436585e-19 0.001388044909)
(-0.01774318281 -0.03717522602 -1.477550564e-18 0.01641722363 6.906910828e-19 0.001325959181)
(-0.01399839922 -0.0348479929 1.333607583e-18 0.01276312302 8.966769797e-19 0.001235276199)
(-0.01058210235 -0.03290531652 -5.330674627e-20 0.009470668993 4.80464098e-19 0.001111433361)
(-0.007456562572 -0.03120855976 1.230416032e-18 0.006506318192 9.455416198e-19 0.0009502443802)
(-0.004732084697 -0.02991143193 -1.474690133e-18 0.003986269649 -8.212950131e-19 0.0007458150478)
(-0.002264113282 -0.02894134042 2.385784334e-18 0.001771702271 5.818689136e-19 0.0004924110119)
(-0.0002801376269 -0.02838811497 -5.786465467e-19 9.748188608e-05 -1.477666294e-18 0.0001826557409)
(-0.1551701973 -0.08839400495 1.956110845e-18 0.1550634905 6.477289591e-20 0.0001067067997)
(-0.1367886601 -0.09505178377 1.541052362e-20 0.1364995306 -8.280050727e-19 0.0002891295046)
(-0.1210362442 -0.09669287441 -2.152845924e-19 0.1205838015 -1.460230834e-19 0.0004524426872)
(-0.1074448062 -0.09503024855 5.191056694e-19 0.106844872 1.258593969e-18 0.000599934149)
(-0.09562418382 -0.09186560973 -6.005533285e-19 0.094890377 -3.706696039e-19 0.000733806821)
(-0.08504402713 -0.08755441976 3.354915376e-19 0.08418853462 5.431269766e-19 0.0008554925092)
(-0.07573129726 -0.08291571292 -6.60865007e-19 0.07476543574 -1.578505209e-19 0.0009658615257)
(-0.06718025691 -0.07796857482 -5.819268271e-19 0.06611502502 7.772233351e-19 0.001065231882)
(-0.05956514925 -0.07309477355 4.16780231e-20 0.05841146104 6.358314081e-19 0.001153688214)
(-0.05245765191 -0.06826411165 1.149607837e-19 0.05122686355 7.706664906e-19 0.001230788367)
(-0.04605709219 -0.0636351258 3.136363554e-19 0.04476106201 2.005082935e-19 0.001296030176)
(-0.0400259411 -0.05920720023 7.71989072e-19 0.03867759479 6.407491596e-19 0.001348346302)
(-0.03454351689 -0.05501103305 7.651704784e-19 0.03315678422 8.930430315e-20 0.00138673267)
(-0.02935476808 -0.0510961446 4.919567299e-19 0.02794528319 -8.888773076e-19 0.00140948489)
(-0.02460719809 -0.04741028026 1.070811015e-18 0.02319211171 -2.399972865e-19 0.001415086379)
(-0.02011648456 -0.04405674785 3.517013304e-19 0.01871540395 -1.324070614e-18 0.00140108061)
(-0.0159937401 -0.04092496871 1.778723608e-19 0.01462841152 -2.044464673e-19 0.001365328585)
(-0.01212254475 -0.03816626325 9.89624447e-19 0.01081811701 -8.338697464e-19 0.001304427739)
(-0.008565872355 -0.03563410406 -1.006095839e-18 0.007350459007 -1.63415259e-19 0.001215413348)
(-0.005289043436 -0.03350919009 -4.30904729e-19 0.004195309774 -5.782182119e-19 0.001093733662)
(-0.002279172883 -0.03164157624 -9.540813056e-20 0.001343863152 -1.438392717e-19 0.0009353097317)
(0.0003794347819 -0.03020731526 2.944438571e-20 -0.001113705293 8.29213111e-19 0.0007342705111)
(0.002822375591 -0.02910081205 -1.762480983e-18 -0.003307364682 -8.963404566e-19 0.0004849890918)
(0.004828897138 -0.02845005809 1.39805418e-18 -0.005008964747 -2.711423349e-21 0.000180067609)
(-0.1502720005 -0.09699692004 -5.674622036e-19 0.1501675289 4.859008567e-19 0.0001044715831)
(-0.1296293394 -0.1023347907 2.309185849e-19 0.1293462738 -9.875042915e-19 0.0002830656152)
(-0.112610158 -0.1029141911 -1.819850896e-19 0.1121671977 1.697360331e-18 0.0004429603426)
(-0.09843390571 -0.1003879619 3.533409497e-19 0.09784652271 -8.798954513e-19 0.0005873830015)
(-0.08638816998 -0.09650146728 -2.0678289e-20 0.08566968204 4.808389931e-19 0.000718487943)
(-0.07585054268 -0.09156938664 1.368177077e-18 0.07501286194 -6.290051421e-19 0.000837680741)
(-0.06671436267 -0.08639846684 2.704326576e-19 0.06576855086 2.351743828e-19 0.0009458118075)
(-0.05843898337 -0.08097445322 1.011122789e-18 0.05739579124 -8.030032892e-19 0.001043192127)
(-0.0511465667 -0.07568392825 2.195015984e-19 0.05001666417 -2.84006635e-19 0.00112990253)
(-0.04438690539 -0.07046930522 7.167339807e-19 0.04318139696 -6.232910576e-19 0.001205508432)
(-0.03834575132 -0.06549939484 -1.362792696e-18 0.03707623839 -5.782256037e-19 0.001269512937)
(-0.03266451266 -0.06075166937 4.078715138e-20 0.03134364357 -1.692172244e-19 0.001320869087)
(-0.02752887743 -0.05626796841 -3.761634797e-19 0.02617029265 -7.263043383e-19 0.001358584785)
(-0.02265956078 -0.05208055126 -5.200338321e-19 0.02127857106 -2.487016629e-19 0.001380989723)
(-0.01822235175 -0.04814753912 -2.611273093e-19 0.01683576634 3.667329829e-19 0.001386585412)
(-0.01400390936 -0.04455900347 -1.437030168e-20 0.01263094275 7.286547423e-19 0.001372966608)
(-0.01014152151 -0.04121293189 -1.444146863e-19 0.008803501508 7.196688134e-19 0.001338020001)
(-0.006485001899 -0.03825191214 -1.08530427e-19 0.005206585911 -6.883493563e-19 0.001278415988)
(-0.003127826812 -0.03553406859 1.873650093e-18 0.00193660083 2.199799561e-18 0.001191225982)
(1.375005374e-06 -0.03323881041 -2.094861504e-19 -0.001073371983 -1.525872188e-19 0.001071996978)
(0.002884402438 -0.0312114465 2.23178879e-18 -0.003801107437 1.568108782e-18 0.0009167049988)
(0.00547381196 -0.02964219223 -6.757603762e-19 -0.006193425035 -1.364813875e-18 0.0007196130743)
(0.007880826877 -0.02840257889 2.485433288e-19 -0.008356024951 9.224972764e-20 0.000475198074)
(0.009902825393 -0.02765189857 -1.206936066e-18 -0.01007913338 -3.111962504e-19 0.0001763079849)
(-0.1448872325 -0.1053619555 9.475280692e-19 0.1447853437 2.619706587e-19 0.0001018887312)
(-0.12213357 -0.1089385209 -5.320211302e-19 0.1218574849 5.218849681e-19 0.0002760850629)
(-0.1039544942 -0.1081887555 6.250257202e-20 0.1035224406 -8.979500191e-20 0.0004320535474)
(-0.08926909581 -0.1046521273 1.553725277e-19 0.08869614713 3.848956436e-19 0.0005729486828)
(-0.07705483809 -0.09996293398 -8.488927959e-19 0.07635396783 -3.320751075e-19 0.000700870253)
(-0.06660245154 -0.0943779159 5.077158655e-19 0.06578525919 -3.343331404e-19 0.0008171923555)
(-0.05767589724 -0.08866954411 -3.920722902e-19 0.05675315295 -4.288451574e-19 0.0009227442946)
(-0.0497028305 -0.08278259051 -4.251004126e-19 0.04868500359 -3.697322305e-19 0.001017826905)
(-0.04275432478 -0.07710048029 7.604937543e-19 0.04165180386 -3.084694856e-21 0.001102520916)
(-0.03636073624 -0.07153303378 1.060844946e-18 0.0351843406 6.565267482e-20 0.001176395637)
(-0.03069389603 -0.06625782548 1.181510375e-18 0.02945492636 2.113556739e-19 0.001238969677)
(-0.02537616881 -0.06122565775 1.588483846e-19 0.02408695917 3.930262321e-19 0.001289209645)
(-0.02059873191 -0.0564912642 3.444207899e-19 0.01927257704 9.309153288e-19 0.001326154869)
(-0.0160598033 -0.05206458348 7.178219348e-19 0.01471164701 2.029918488e-19 0.001348156295)
(-0.01194238663 -0.0479178786 7.733509696e-19 0.01058862104 1.319528027e-18 0.001353765595)
(-0.008005624239 -0.04412214151 3.058384392e-19 0.0066650173 -3.374662708e-19 0.001340606939)
(-0.004411972679 -0.04058938202 -5.987414537e-19 0.003105332401 -1.159629161e-18 0.001306640279)
(-0.0009786075779 -0.03744634197 -1.228702021e-19 -0.0002699679847 7.242348201e-19 0.001248575563)
(0.002170987325 -0.03456329575 6.184536096e-19 -0.003334570433 -1.077604787e-18 0.001163583108)
(0.005144705197 -0.03210876557 -9.155984731e-19 -0.006191968443 -1.036145056e-18 0.001047263246)
(0.007892012891 -0.02993531281 -5.253201987e-19 -0.008787731029 -9.887631874e-19 0.0008957181385)
(0.01040536966 -0.02823018076 8.626387139e-19 -0.01110865654 -1.401184628e-18 0.0007032868857)
(0.01276536391 -0.02686371823 -1.377456597e-18 -0.01322995067 6.307386135e-20 0.0004645867512)
(0.01479649206 -0.02600098297 1.368290126e-18 -0.01496900408 -1.318810292e-19 0.0001725120264)
(-0.1390219564 -0.1134595133 -1.144867947e-19 0.1389229577 5.946490958e-19 9.899873525e-05)
(-0.1143838823 -0.1148590307 5.170881329e-19 0.1141156352 -6.704810864e-19 0.0002682470697)
(-0.09519900963 -0.1125294976 -6.518518158e-19 0.09477921366 1.385163895e-18 0.0004197959696)
(-0.08010716392 -0.1078462061 8.097236484e-19 0.07955044634 -7.233965475e-19 0.0005567175892)
(-0.06779676897 -0.1022804327 -5.670780734e-19 0.06711571803 1.29475696e-19 0.0006810509397)
(-0.05747985863 -0.09601475231 -4.296318694e-20 0.05668572444 8.291720396e-19 0.000794134191)
(-0.04879881219 -0.08976642007 6.485038577e-19 0.04790204078 3.374108269e-19 0.0008967714095)
(-0.04115421933 -0.08343208311 -5.681951354e-19 0.04016496541 8.091036854e-19 0.0009892539166)
(-0.0345682654 -0.07738438436 -7.614081955e-19 0.03349660771 1.94425219e-19 0.001071657693)
(-0.02855534146 -0.07149569169 -4.815083444e-19 0.02741177952 8.252443803e-19 0.001143561946)
(-0.02327312515 -0.06595086579 -2.653851893e-19 0.02206863211 -9.112290533e-19 0.001204493034)
(-0.01832793095 -0.06066958554 5.282991189e-19 0.01707448656 8.271148106e-19 0.001253444387)
(-0.01391507308 -0.05572109759 -9.737058292e-20 0.01262560021 -1.4622539e-18 0.001289472874)
(-0.00971309633 -0.05108828403 -4.185195288e-19 0.008402121734 -3.771764012e-19 0.001310974597)
(-0.005920252597 -0.04676104505 8.732835854e-19 0.004603724243 -9.016899346e-19 0.001316528354)
(-0.00227103723 -0.04278587148 1.284930368e-19 0.0009672104705 -1.614937406e-18 0.001303826759)
(0.001049320127 -0.03909375101 8.518730794e-19 -0.002320189126 6.17013955e-19 0.001270868999)
(0.00425319399 -0.03578920885 -1.063185187e-19 -0.005467656818 -1.448479572e-18 0.001214462828)
(0.007189926127 -0.03276094873 8.112065944e-19 -0.008321759782 1.421768485e-18 0.001131833655)
(0.0100000954 -0.0301589843 1.283365311e-18 -0.01101880895 -9.300225056e-19 0.001018713547)
(0.01260514783 -0.02785147206 -2.034593474e-19 -0.01347643323 1.438545179e-18 0.0008712853976)
(0.01503066676 -0.02601129162 9.690299826e-20 -0.01571472984 -6.030139614e-19 0.0006840630812)
(0.01733390218 -0.02452112567 1.94591309e-19 -0.01778570229 1.629995186e-18 0.0004518001169)