/*--------------------------------*- C++ -*----------------------------------*\
| =========                 |                                                 |
| \\      /  F ield         | foam-extend: Open Source CFD                    |
|  \\    /   O peration     | Version:  3.0                                   |
|   \\  /    A nd           | Web:         http://www.extend-project.de       |
|    \\/     M anipulation  |                                                 |
\*---------------------------------------------------------------------------*/
FoamFile
{
    version     2.0;
    format      ascii;
    class       volVectorField;
    location    "47";
    object      u;
}
// * * * * * * * * * * * * * * * * * * * * * * * * * * * * * * * * * * * * * //

dimensions      [0 0 0 0 0 0 0];

internalField   nonuniform List<vector> 
2688
(
(0.2376278541 -0.05572894928 6.727667719e-17)
(0.1992910557 -0.04441259027 -7.108810455e-17)
(0.528397959 -0.03984829814 1.532047578e-16)
(0.4539457077 -0.03072119993 -4.200996816e-17)
(0.6994613371 -0.0295920044 7.702350175e-17)
(0.6177469336 -0.02261154738 -1.285380529e-17)
(0.8080462141 -0.022592169 1.784648625e-19)
(0.726979324 -0.01754754284 5.288177236e-17)
(0.8812577131 -0.01764878163 -5.741365923e-17)
(0.8016526775 -0.01421091781 6.720622404e-17)
(0.9328824458 -0.01406886846 -1.84190284e-17)
(0.8534971491 -0.01190367473 3.617755094e-17)
(0.9704523252 -0.01140577929 2.953640891e-17)
(0.8896398338 -0.01024004702 -8.519064348e-17)
(0.9983580529 -0.009361986687 9.403237423e-17)
(0.9145275564 -0.008986150933 -9.822076587e-17)
(1.019269709 -0.007746163767 9.457350916e-17)
(0.9310314881 -0.007972090765 -6.180536134e-17)
(1.034799548 -0.006441258183 1.414414692e-17)
(0.9411215277 -0.007065976389 1.906614065e-17)
(1.045814815 -0.005344424157 -2.556751508e-17)
(0.9462796678 -0.006178209614 5.183334422e-18)
(1.052590128 -0.004540091694 -2.694036733e-17)
(0.9477654339 -0.005208075481 1.187202592e-18)
(0.2495698202 -0.159814742 -2.114348305e-16)
(0.2086398689 -0.126343217 -6.60576163e-18)
(0.5367990204 -0.112885203 -3.517036394e-16)
(0.4602602658 -0.08571592451 3.554134674e-17)
(0.7055626405 -0.08239950123 -1.656002944e-16)
(0.6222545525 -0.06149972174 -2.579345961e-17)
(0.8125618338 -0.06141936425 -1.295214865e-17)
(0.7303390391 -0.04622945166 -1.271419409e-16)
(0.8846373436 -0.04644791204 6.118435609e-17)
(0.8042376461 -0.03601402161 -1.007308713e-16)
(0.9354236263 -0.03545771539 -1.949160476e-17)
(0.8555297318 -0.0287946783 -8.520228133e-17)
(0.9723530265 -0.02713663745 1.286537022e-17)
(0.8912591195 -0.0234360013 2.741967849e-17)
(0.9997506544 -0.02060963794 -4.636606673e-17)
(0.9158248969 -0.01925235882 8.239893744e-17)
(1.020245768 -0.01531649971 -8.143128184e-17)
(0.9320673151 -0.01575597997 2.066236894e-17)
(1.035431177 -0.01093582599 7.800640993e-17)
(0.9419292057 -0.01254372245 -1.089795061e-16)
(1.046172995 -0.007285435392 9.487463032e-17)
(0.9468625805 -0.009257113211 -8.693262448e-18)
(1.052762955 -0.004469494941 3.837332802e-17)
(0.9480998327 -0.005563373315 3.642523338e-17)
(0.2730524834 -0.2619165915 3.894570686e-16)
(0.2271493917 -0.2066761303 1.062632725e-16)
(0.553287804 -0.1845068605 4.404537963e-16)
(0.4727070278 -0.1396195533 -1.653383728e-17)
(0.7175041161 -0.1341525608 1.97392433e-16)
(0.63107932 -0.0995950708 1.050206818e-16)
(0.8213707482 -0.09945908685 -2.045437101e-17)
(0.7368777038 -0.07430991472 2.147063672e-16)
(0.8912097449 -0.07466116148 -5.987435094e-17)
(0.8092481613 -0.05735087282 1.897392842e-16)
(0.9403545679 -0.05641231983 4.030738345e-17)
(0.8594603128 -0.04532118394 1.096229181e-16)
(0.9760408945 -0.04255343949 -1.785980911e-17)
(0.8943879448 -0.03635214009 -5.951084249e-17)
(1.002462611 -0.03164794147 7.133433423e-17)
(0.9183295599 -0.02931917327 -1.887901468e-16)
(1.022161749 -0.022773656 2.164541303e-16)
(0.9340573922 -0.02342883828 -1.639189972e-16)
(1.036672323 -0.01539342673 -1.833426427e-17)
(0.9434646693 -0.01802567387 6.050572996e-17)
(1.046814722 -0.009214693577 -5.66734674e-17)
(0.9479762088 -0.01249714761 -5.128039369e-17)
(1.052847308 -0.00432213282 -6.508131001e-17)
(0.9488366335 -0.006275565058 2.599609456e-17)
(0.3078364353 -0.3607448019 -4.240846978e-16)
(0.2545130439 -0.2844628544 -2.508548173e-16)
(0.5777209452 -0.2538446785 -5.630904614e-16)
(0.4911043118 -0.1918300014 3.945153529e-17)
(0.7351966718 -0.1842803009 -3.090355361e-16)
(0.6441221488 -0.1365097853 -4.969563162e-17)
(0.8344092261 -0.1363133744 -7.560579275e-17)
(0.7465297976 -0.1015334329 -1.575124244e-16)
(0.9009126932 -0.1019963414 -8.995848968e-17)
(0.8166158578 -0.07804476556 -1.36642417e-16)
(0.9475928762 -0.07671282417 -1.131210595e-16)
(0.865197419 -0.06135208361 -1.161603836e-16)
(0.9813961328 -0.05748270091 8.75006429e-17)
(0.8988998869 -0.04887430923 -4.022387585e-18)
(1.006322975 -0.04232286204 4.539880873e-17)
(0.9218727542 -0.03905512273 1.032281632e-16)
(1.024791322 -0.02996353445 -1.202358933e-16)
(0.9367833883 -0.03079235379 9.830420813e-17)
(1.038270506 -0.0196801414 3.258808459e-17)
(0.9454355263 -0.02316068008 -9.127952345e-17)
(1.047569542 -0.01112650135 1.034505423e-16)
(0.949176388 -0.01526784264 8.807495508e-17)
(1.052988096 -0.004445626902 -3.417640073e-17)
(0.9491601886 -0.006351802207 1.439639655e-16)
(0.3534675019 -0.4550587912 4.586356163e-16)
(0.2904267631 -0.3586772771 2.162302901e-16)
(0.6097458758 -0.3200103378 6.741412821e-16)
(0.5152311931 -0.2416221329 -7.369182597e-17)
(0.758362468 -0.2320896352 2.957967059e-16)
(0.6612033703 -0.1716922937 1.198902397e-16)
(0.8514663279 -0.1714477462 2.432195636e-17)
(0.7591551092 -0.1274582895 1.736409973e-16)
(0.9136002647 -0.1280448098 1.602428214e-16)
(0.8262498468 -0.09773242417 1.555490744e-16)
(0.957062527 -0.09604722487 -1.888171114e-17)
(0.8727066463 -0.0765864647 2.131918163e-16)
(0.988420276 -0.07169242708 -1.915554512e-16)
(0.9048223822 -0.06076113903 1.30875547e-16)
(1.011421223 -0.0524794197 -2.045854959e-16)
(0.926550629 -0.04829426413 -1.0034876e-16)
(1.028317609 -0.03680534273 6.670030792e-17)
(0.9404256751 -0.03780633403 -8.342272519e-17)
(1.040471541 -0.02374778115 -2.516391301e-18)
(0.9481493786 -0.02815252841 4.015675936e-17)
(1.048611052 -0.01287676819 -1.382766618e-16)
(0.9509986324 -0.01821268057 2.869577375e-17)
(1.05294101 -0.004297542339 -2.085462432e-16)
(0.9501790837 -0.007105756297 1.19768201e-16)
(0.4093623464 -0.5436758575 -3.567869556e-16)
(0.334417861 -0.4284142407 -1.822423261e-16)
(0.6489912827 -0.3821750692 -5.129813026e-16)
(0.5447884975 -0.2884252374 7.735624879e-18)
(0.7867648631 -0.2770260237 -1.856435185e-16)
(0.6821359694 -0.204779879 -2.276091881e-16)
(0.8723823706 -0.2044814762 5.638609312e-17)
(0.7746270176 -0.1518565653 -2.347782058e-16)
(0.9291509541 -0.1525436193 -3.163263446e-16)
(0.8380445298 -0.1162772997 7.460086291e-17)
(0.9686498348 -0.1142389199 -5.256699489e-17)
(0.8818774296 -0.09095190348 -8.349323628e-17)
(0.9969824683 -0.08506872754 2.874257899e-17)
(0.9120213832 -0.07198123067 6.614319411e-17)
(1.017588163 -0.06204315482 3.432864422e-17)
(0.9321865159 -0.05701304007 1.893500202e-16)
(1.032522329 -0.04325043482 8.065649201e-17)
(0.9447313403 -0.04438164514 -7.14537017e-18)
(1.043040656 -0.02760731907 8.136255137e-17)
(0.9512067681 -0.03266950114 -6.073147097e-17)
(1.049846135 -0.0146727775 2.078989119e-16)
(0.9527428595 -0.02043628376 -1.064854529e-17)
(1.053256179 -0.004691885055 2.142505011e-16)
(0.9503761683 -0.006921832913 -8.565307103e-17)
(0.4748362274 -0.6254743159 -6.754200311e-17)
(0.3859504465 -0.4927890829 5.883902529e-17)
(0.6949378687 -0.4395668946 5.324668553e-16)
(0.5793922631 -0.3316105538 -1.038817248e-16)
(0.8199888008 -0.3184937325 6.644715002e-17)
(0.7066187133 -0.2352875872 2.65930037e-16)
(0.8968285578 -0.234949741 1.499102886e-17)
(0.7927041656 -0.1743283085 -4.212405683e-17)
(0.9473128967 -0.1751233151 4.610413664e-16)
(0.8518151119 -0.1333317147 -2.450152219e-16)
(0.9821778322 -0.1309864484 -8.079019914e-17)
(0.8925823381 -0.1041350237 2.724832997e-16)
(1.006983215 -0.09736184954 -2.169904927e-16)
(0.9204291121 -0.08225073145 1.99603049e-16)
(1.024806857 -0.07080979648 -3.159133043e-16)
(0.9387804523 -0.06497523978 9.906302204e-17)
(1.037469798 -0.04912864339 -2.97898124e-16)
(0.9497955006 -0.05040725388 1.220181299e-16)
(1.046083042 -0.03107009571 -1.394227185e-16)
(0.9548672958 -0.03694764427 1.168013157e-17)
(1.051245188 -0.0161480279 -1.741978335e-16)
(0.9550367011 -0.02301292324 -1.793314442e-16)
(1.053095336 -0.004402283192 9.316077692e-17)
(0.9512802601 -0.007862490086 -4.64360075e-16)
(0.5490482776 -0.6994349174 6.054803469e-16)
(0.444356015 -0.5509792261 -3.455687609e-16)
(0.7470325528 -0.4914387464 4.627065515e-17)
(0.618626419 -0.3706572194 -3.174167535e-16)
(0.8576824343 -0.3559831911 2.191625538e-16)
(0.7343954669 -0.2628859853 -3.798981977e-16)
(0.9245799938 -0.2625029776 1.573589175e-16)
(0.8132267911 -0.1946742121 -8.407517939e-18)
(0.9679398455 -0.1955520228 -1.140056292e-16)
(0.8674545181 -0.1487927994 1.450753218e-16)
(0.9975439696 -0.1461497606 1.621437871e-16)
(0.9047394349 -0.1161085781 -2.339039612e-16)
(1.018338566 -0.1085030893 9.219236061e-17)
(0.9299721101 -0.09159892919 -1.820635224e-16)
(1.03299682 -0.07876132885 3.20206788e-16)
(0.9462543269 -0.07223181309 -2.881924199e-16)
(1.043085853 -0.05446038003 4.12792671e-16)
(0.9555080249 -0.05585533568 -3.180392487e-16)
(1.049580261 -0.03422226316 2.980561315e-16)
(0.9588928484 -0.04059553681 -2.550727561e-16)
(1.053053085 -0.01761687749 5.079451203e-16)
(0.9571804345 -0.02453997492 -2.184604418e-16)
(1.053624666 -0.004788985371 1.834455386e-16)
(0.9517435369 -0.007794087609 5.683995795e-17)
(0.6310812081 -0.7646174371 -9.274050335e-16)
(0.5089284837 -0.6022856741 3.760788261e-16)
(0.8045987178 -0.5371811202 -3.939753179e-16)
(0.661975685 -0.4050718799 3.978448833e-16)
(0.8992999961 -0.3890319054 -4.897318833e-17)
(0.7650537865 -0.2871920271 4.555698008e-17)
(0.9551896797 -0.286780135 -1.54077001e-16)
(0.8358496263 -0.2125698998 -2.121917966e-17)
(0.9906645574 -0.2135350421 -1.403446239e-16)
(0.8846708326 -0.1623644875 -2.819069112e-17)
(1.014450275 -0.1594768376 -3.511657402e-16)
(0.9181031192 -0.1265891538 4.610241029e-16)
(1.030812499 -0.118271895 -3.525680136e-16)
(0.9404455838 -0.09975550156 4.46596641e-16)
(1.041974529 -0.0857095073 -3.881616272e-16)
(0.9544418782 -0.07855652514 4.705704331e-16)
(1.049222313 -0.05908743721 -4.436584467e-16)
(0.961757088 -0.06065590344 4.419104517e-16)
(1.053395579 -0.03687101558 -1.731118542e-16)
(0.9633104927 -0.04403769152 6.961307583e-17)
(1.055123035 -0.01850499088 -1.316431269e-16)
(0.95951421 -0.02673548834 -2.179594337e-16)
(1.05473526 -0.003856442373 3.865617381e-16)
(0.9516187584 -0.009020087896 -8.154842392e-16)
(0.7198901987 -0.8202122695 9.783521608e-16)
(0.5788178378 -0.6460096904 -9.819559869e-16)
(0.8669309584 -0.5761556539 1.135913228e-15)
(0.7089187889 -0.4344010382 -7.643606674e-16)
(0.9443969158 -0.4171903921 4.136861595e-16)
(0.7982836533 -0.3079129817 -1.678390216e-16)
(0.9883884142 -0.3074659493 2.724714434e-16)
(0.8603974982 -0.2278378281 1.391031503e-16)
(1.015337655 -0.2288624919 3.22955593e-16)
(0.9033753667 -0.1739600777 2.571100905e-17)
(1.032828057 -0.170843323 2.919541418e-16)
(0.9326416247 -0.1355636346 -2.498940445e-16)
(1.044389858 -0.1266101796 1.256405279e-16)
(0.9518584407 -0.1067594033 -4.168778529e-16)
(1.05176042 -0.09163914896 2.458809906e-16)
(0.9633870021 -0.08399981119 -6.310131801e-16)
(1.055920621 -0.0630215855 4.756300921e-16)
(0.9686232787 -0.06478046306 -6.712289658e-16)
(1.057547379 -0.03909831918 3.621653477e-16)
(0.9682531248 -0.04696682737 -3.441538484e-16)
(1.057218992 -0.01919986604 4.453486796e-16)
(0.9623974817 -0.02855100656 -2.028522624e-16)
(1.055333063 -0.003214754063 1.824728227e-16)
(0.9520048479 -0.009027978463 2.626376246e-16)
(0.8143715185 -0.8655107105 -4.989318373e-16)
(0.6531952212 -0.6816758344 6.08375079e-16)
(0.9332346722 -0.6079567902 -4.53447547e-16)
(0.7588435832 -0.4583218319 9.834281046e-17)
(0.9923248502 -0.4401655093 -9.03294616e-18)
(0.8335832462 -0.3248019651 -2.302791118e-16)
(1.023629161 -0.3243381539 -1.751321091e-16)
(0.8864338328 -0.2402643097 -4.159560255e-16)
(1.041487053 -0.2413519222 -3.101271864e-16)
(0.9231760882 -0.183373347 -2.208312773e-16)
(1.052265326 -0.1800877448 -3.098778355e-16)
(0.9479972237 -0.142821096 3.894511161e-16)
(1.058709703 -0.1333726114 -3.59188925e-16)
(0.9638816969 -0.1123982058 6.681948449e-16)
(1.062036277 -0.09643355695 -2.903388052e-16)
(0.9727860378 -0.08837233573 7.957738512e-16)
(1.062891464 -0.06619802905 -4.69654786e-16)
(0.9758235391 -0.06811993596 7.266912305e-16)
(1.061755903 -0.04089023016 -2.80564912e-16)
(0.9734471725 -0.0494372854 1.58650306e-16)
(1.059090156 -0.01969451824 -6.999093812e-17)
(0.9655321012 -0.03025985421 -3.90322522e-16)
(1.055368954 -0.002560901134 3.406014692e-16)
(0.95247074 -0.009373692933 -6.55860477e-16)
(0.9133244726 -0.8999513477 3.745195291e-16)
(0.7310609449 -0.7087390694 -4.846143251e-16)
(1.002677899 -0.6320763351 4.674890662e-16)
(0.811139368 -0.4764592386 -2.240055113e-16)
(1.042563608 -0.4575762895 1.926795898e-16)
(0.870599208 -0.337601475 2.277189046e-16)
(1.060611468 -0.3371131725 1.304053644e-16)
(0.9137769132 -0.2496823134 5.541675509e-16)
(1.068970808 -0.2508021517 3.053812118e-16)
(0.9440095721 -0.1905142914 2.597382704e-16)
(1.072734183 -0.187080044 1.188122415e-16)
(0.9641890964 -0.1483374922 -1.864847759e-16)
(1.073823946 -0.1384866953 2.32268164e-16)
(0.9765891729 -0.1166951321 -4.986988607e-16)
(1.072905623 -0.1000569556 1.858187789e-16)
(0.9827409424 -0.09170809915 -7.90643355e-16)
(1.070267055 -0.06859362142 2.791051484e-16)
(0.9834641426 -0.0706536049 -4.866150794e-16)
(1.066172547 -0.04224572233 1.280127932e-16)
(0.9789913456 -0.05126002309 -3.22966777e-16)
(1.060930622 -0.02012650353 3.586502623e-16)
(0.9690392442 -0.03139016889 -1.288858812e-16)
(1.055014897 -0.002243981804 2.230682208e-16)
(0.9534316558 -0.009234029955 1.043363727e-16)
(1.015519289 -0.9230943899 -8.0182839e-17)
(0.811518402 -0.7269774186 2.213861563e-17)
(1.074399745 -0.6483429866 4.404472912e-17)
(0.8651418306 -0.4886886885 -2.23229741e-16)
(1.094403813 -0.469328193 -1.30894548e-17)
(0.9087751874 -0.346229453 -9.713735194e-17)
(1.098720724 -0.3457379404 -1.881561349e-16)
(0.9419255637 -0.2560202603 -4.410997973e-16)
(1.097237338 -0.2571763852 -1.793881712e-16)
(0.9654049159 -0.1953006871 -1.042435902e-16)
(1.093730199 -0.1917832345 -2.115899708e-16)
(0.98076692 -0.1520078909 3.481517835e-16)
(1.089272286 -0.1419078363 -5.884277076e-16)
(0.9895527096 -0.1195214153 7.982649155e-16)
(1.083962261 -0.1024607983 -5.22254134e-16)
(0.9928576273 -0.09386768568 8.236333831e-16)
(1.077718419 -0.07016816847 -3.029330954e-16)
(0.9912007853 -0.07226157211 4.142960045e-16)
(1.070579694 -0.04313465872 3.970157557e-17)
(0.9845771217 -0.05238265645 3.777265788e-17)
(1.062696529 -0.02044329899 -1.576848016e-17)
(0.9725304852 -0.03200440455 -1.126690155e-16)
(1.054489876 -0.002162706741 1.051861009e-16)
(0.9544839342 -0.009013815308 -3.794299531e-16)
(1.119654513 -0.9346530697 3.032971255e-17)
(0.8934514638 -0.7360208718 8.839503213e-18)
(1.147469452 -0.6563951041 -1.016583114e-16)
(0.9201639075 -0.494721667 9.703892582e-17)
(1.147263039 -0.4751136158 6.697159349e-17)
(0.947718286 -0.35046088 -1.017227913e-16)
(1.137630969 -0.3499551639 2.186609685e-16)
(0.9706915014 -0.2591092336 1.425903639e-16)
(1.126154129 -0.2602669111 1.552751428e-16)
(0.9873232009 -0.1976196497 -8.124908281e-17)
(1.115267295 -0.1940397674 2.900535003e-16)
(0.9978024961 -0.1537770774 -3.295997868e-16)
(1.105175181 -0.1435283127 4.256341251e-16)
(1.002919889 -0.1208771342 -5.132597527e-16)
(1.09539386 -0.1035823951 3.967399661e-16)
(1.003319351 -0.09489475807 -4.976320885e-16)
(1.085459258 -0.07089263259 1.345587579e-16)
(0.9992067338 -0.07300806096 -1.358107834e-16)
(1.075181822 -0.04355038339 -1.497296917e-16)
(0.9903284036 -0.05285466708 8.744226483e-17)
(1.064589443 -0.02066876862 9.770937138e-18)
(0.9760618507 -0.03210229486 1.011067076e-17)
(1.054032819 -0.002355917535 7.847976739e-17)
(0.9557647276 -0.008707964052 7.478951467e-18)
(1.224440737 -0.9344801138 1.909317583e-17)
(0.9759606476 -0.7359172932 -6.102497687e-17)
(1.221019144 -0.6563121403 -5.395880729e-17)
(0.9755430946 -0.4946474979 1.791671763e-16)
(1.200422878 -0.4750545876 -7.228267168e-17)
(0.9868634505 -0.3503972422 2.366315445e-16)
(1.176704613 -0.3499030872 -2.025430822e-16)
(0.9995479352 -0.2590444419 1.789790543e-16)
(1.155126905 -0.2602111083 -6.595902795e-17)
(1.009246304 -0.1975441687 1.040386271e-16)
(1.136775341 -0.1939716543 -3.369703802e-16)
(1.014774121 -0.1536814309 2.501074705e-16)
(1.120984519 -0.1434406921 -2.296181582e-16)
(1.016168148 -0.1207515766 2.486132664e-16)
(1.106691856 -0.1034711942 -3.714412598e-16)
(1.013620564 -0.09473050349 3.31304665e-16)
(1.093059743 -0.07076020318 -1.691171913e-16)
(1.007021583 -0.0728010156 5.181637227e-17)
(1.079684781 -0.04341439805 4.267358052e-17)
(0.9958465016 -0.0525934712 -1.2088532e-16)
(1.066522351 -0.02061761487 -1.962506198e-17)
(0.9792371696 -0.03171276614 4.807176124e-17)
(1.053858398 -0.002494055066 -2.154202139e-16)
(0.9567297808 -0.008481742891 2.649438453e-16)
(1.328536644 -0.9225762904 -1.354872207e-16)
(1.057847149 -0.7264863376 2.35119131e-16)
(1.294047616 -0.6478909609 -1.752345088e-16)
(1.030527085 -0.4882713384 -1.689719221e-16)
(1.25324772 -0.4689210914 3.550901989e-17)
(1.025776101 -0.345844546 -3.481830341e-16)
(1.215587885 -0.3453454784 1.84397367e-16)
(1.02829043 -0.2556431984 -4.358913902e-16)
(1.184024555 -0.2567780931 -1.305737765e-17)
(1.03114863 -0.1949154089 -2.914072317e-16)
(1.158302799 -0.1913650324 4.153820501e-16)
(1.031801863 -0.1516018088 -2.739736072e-16)
(1.136890456 -0.1414623228 2.786887194e-16)
(1.029534193 -0.119083265 -2.124136083e-16)
(1.118144707 -0.1019903493 3.076356463e-16)
(1.024080411 -0.0933867413 -4.140232764e-17)
(1.100849758 -0.06968861062 7.131500603e-17)
(1.01500656 -0.07173193822 1.641830211e-16)
(1.084387354 -0.04269120752 -1.210663578e-16)
(1.001503783 -0.05176506644 2.640477228e-16)
(1.068672976 -0.02024775901 -1.059224093e-16)
(0.9824503084 -0.0310719724 7.593335178e-17)
(1.053937618 -0.002446601612 4.422828411e-17)
(0.9578299413 -0.008488385147 -2.108199607e-16)
(1.430662247 -0.8990953809 8.477923744e-17)
(1.138277486 -0.7080452516 -1.835039931e-16)
(1.365743876 -0.6314617318 1.197400134e-16)
(1.084513895 -0.4758965987 1.524462702e-16)
(1.305069695 -0.4570539254 -5.483408288e-18)
(1.063936365 -0.337092846 3.347118329e-16)
(1.253675645 -0.336620755 -4.628157367e-17)
(1.056417726 -0.2491816296 4.3931579e-16)
(1.212260531 -0.2502995734 7.66435364e-17)
(1.052511432 -0.1899886179 3.621461039e-16)
(1.179254353 -0.1865372193 -2.126289701e-16)
(1.048328341 -0.1477582404 9.801950374e-17)
(1.152277608 -0.1378805204 -1.347705395e-16)
(1.04241588 -0.1160367291 9.964844741e-17)
(1.129127388 -0.09937287604 -3.278914607e-16)
(1.034065789 -0.09095301087 -5.492280796e-17)
(1.108233811 -0.06782722604 -7.371473481e-17)
(1.022532219 -0.06980928987 -2.550954466e-16)
(1.088793479 -0.04141999161 1.42375996e-16)
(1.006718278 -0.05032754522 -2.236986439e-16)
(1.070732224 -0.01946045254 4.248311629e-17)
(0.9851728541 -0.03019131972 1.118441624e-16)
(1.054292804 -0.001974409126 -2.491196866e-16)
(0.9582766632 -0.008769852757 5.170295239e-16)
(1.529498789 -0.8643253791 -2.01940607e-16)
(1.216005479 -0.6806128172 4.102232639e-16)
(1.435064502 -0.6069888373 -3.359698678e-16)
(1.136696454 -0.4574304994 4.3842931e-17)
(1.355205383 -0.4393078408 -3.300719857e-17)
(1.100860565 -0.3239826081 -3.683106452e-16)
(1.290575415 -0.323514042 1.214062612e-16)
(1.083688087 -0.2394568718 -4.87957023e-16)
(1.239682688 -0.2405092749 5.660246246e-17)
(1.073292507 -0.1825368446 -4.895340213e-16)
(1.199686176 -0.1791866222 2.949404377e-16)
(1.064491462 -0.1419233641 -2.453101802e-16)
(1.167385752 -0.1323806568 2.449549053e-16)
(1.055120247 -0.1114169142 -2.702639351e-16)
(1.140028931 -0.09532248891 5.039091985e-16)
(1.044037771 -0.08730630295 -4.480683904e-17)
(1.115684798 -0.06493516599 1.93953969e-16)
(1.030188261 -0.06701613604 1.287378836e-16)
(1.093337809 -0.03944412918 -6.338168264e-17)
(1.01219508 -0.04837619465 1.580876302e-16)
(1.072864513 -0.01816670238 -1.813668312e-16)
(0.9883099868 -0.02923030673 7.024812068e-17)
(1.054481674 -0.001009618002 -1.596559445e-16)
(0.9592602436 -0.009296218131 -7.286345948e-17)
(1.623844771 -0.8187126486 2.644811652e-16)
(1.290330593 -0.644756873 -3.558836967e-16)
(1.501319035 -0.5750346316 4.39590469e-16)
(1.186591687 -0.4333728256 -1.84542549e-16)
(1.40309952 -0.4162247577 7.980966795e-17)
(1.136132074 -0.3069790616 1.428635335e-16)
(1.32577789 -0.3065525223 -7.376529614e-19)
(1.109688361 -0.2269218611 3.435548792e-16)
(1.265778771 -0.2279346176 -1.308758955e-16)
(1.093040469 -0.1730099765 4.298800619e-16)
(1.219044988 -0.1698495672 -1.399723186e-16)
(1.079766726 -0.1345383336 -2.840891681e-18)
(1.181591055 -0.1255032345 2.551276563e-17)
(1.067022433 -0.1056321951 9.139126955e-17)
(1.15014379 -0.09036184747 -3.178895592e-16)
(1.053261527 -0.08277933043 3.168593192e-17)
(1.122443903 -0.06147989849 -1.271788775e-16)
(1.037146706 -0.0635582361 -1.95183634e-16)
(1.097310132 -0.03713496609 9.863524192e-17)
(1.017043823 -0.04596481556 -1.041238056e-16)
(1.074617735 -0.0166168245 1.196795456e-16)
(0.9908873396 -0.02814570864 7.17494189e-17)
(1.054689037 0.0002978570571 1.656468637e-17)
(0.9592766118 -0.01001984621 1.234174907e-16)
(1.712465787 -0.7628194677 -3.818896959e-16)
(1.359997085 -0.6006996206 3.4668054e-16)
(1.563451056 -0.5357381678 -4.257721091e-16)
(1.23334995 -0.4037442689 2.885152554e-16)
(1.448025637 -0.3877577185 -1.719431832e-16)
(1.169208466 -0.2859702572 -1.517974258e-17)
(1.358835109 -0.2855557746 5.839776563e-17)
(1.134108371 -0.2113621283 -3.320973701e-16)
(1.29033786 -0.2122791106 1.740036195e-16)
(1.111643678 -0.1611077588 -3.028228302e-16)
(1.237338851 -0.1581228562 9.344123977e-17)
(1.094237876 -0.125235842 -5.834127347e-17)
(1.195118917 -0.1167542941 8.159914104e-17)
(1.078417057 -0.09828204193 -1.707293359e-16)
(1.159910316 -0.08394164713 2.239062694e-16)
(1.062262758 -0.07699559767 -2.248723633e-17)
(1.129116444 -0.05692105334 7.62450378e-17)
(1.044180558 -0.05915588126 1.260148529e-16)
(1.1013201 -0.03405120469 -1.207597424e-16)
(1.02233166 -0.04294881702 1.158058252e-16)
(1.076189548 -0.01456983555 -2.026566567e-16)
(0.9944710607 -0.0268039638 6.038529843e-17)
(1.053983818 0.001869618996 -1.501109917e-16)
(0.9607565644 -0.01046164886 -1.152972189e-17)
(1.794302647 -0.6973605319 2.597123021e-16)
(1.424495923 -0.5492232541 -2.192142552e-16)
(1.620947506 -0.4898569314 1.884358914e-16)
(1.27665849 -0.3692045686 -1.688421333e-16)
(1.489597868 -0.3546099963 1.264033255e-16)
(1.199831222 -0.2615606203 -8.368148834e-17)
(1.389397137 -0.2612010092 -1.449675667e-17)
(1.156690209 -0.1933748542 2.258318753e-16)
(1.312999479 -0.1942329444 -2.059567274e-16)
(1.128804992 -0.1474526938 2.247191547e-16)
(1.254152864 -0.1447442039 -2.317657073e-17)
(1.107523271 -0.1146789013 -6.410933769e-17)
(1.207450493 -0.106940236 5.861741581e-17)
(1.088782287 -0.09005697921 4.647947327e-17)
(1.168660238 -0.07693436481 -3.976033547e-17)
(1.070317738 -0.07061609811 -5.43572549e-17)
(1.134884823 -0.05216217544 6.388283823e-17)
(1.050297562 -0.05433669752 -1.002031457e-16)
(1.104554659 -0.03106140955 9.939489527e-17)
(1.026683722 -0.03962013501 -7.675205574e-17)
(1.077268805 -0.01278615443 1.629630324e-16)
(0.9970388397 -0.02528149224 3.126494896e-17)
(1.053484352 0.003139792435 1.056434278e-16)
(0.9604426381 -0.01088441981 7.577906403e-17)
(1.868264297 -0.6231465966 -1.221976699e-16)
(1.482603255 -0.4907524143 2.455629543e-16)
(1.67277164 -0.4377097699 -1.379840249e-16)
(1.315642899 -0.3299026781 1.49223224e-16)
(1.527056633 -0.3168540882 -1.135688296e-16)
(1.227394525 -0.2337119073 1.246680148e-16)
(1.416946445 -0.2333741791 3.743960192e-18)
(1.177024324 -0.172767624 -1.043049444e-16)
(1.333450685 -0.1735077228 2.096639738e-16)
(1.144278501 -0.1317057809 -1.893947435e-16)
(1.269368615 -0.1292447286 9.815972327e-17)
(1.119545564 -0.1023834364 -1.124783198e-17)
(1.218683246 -0.09540488897 -5.980505719e-17)
(1.098249706 -0.08034466 -1.333703188e-17)
(1.176748751 -0.06851057524 -3.350230918e-17)
(1.077841523 -0.06295626653 6.354210309e-17)
(1.140370009 -0.04626043717 -1.165712955e-16)
(1.056321455 -0.04844695818 7.84830787e-17)
(1.1077114 -0.02723860209 -8.507333155e-17)
(1.0315873 -0.03543633001 4.032717785e-17)
(1.077953413 -0.01060391731 -1.118694566e-16)
(1.001233908 -0.02296701212 -3.851566821e-17)
(1.051369491 0.0040797281 -6.273727764e-17)
(0.9630687226 -0.01003141048 -8.875649758e-17)
(1.933489186 -0.5411220542 -2.007768595e-17)
(1.534046091 -0.4262322723 -1.764193912e-16)
(1.718630988 -0.3801964255 -3.142028e-17)
(1.350197506 -0.2866053645 -4.003409526e-17)
(1.560227052 -0.2752946207 -1.523976977e-17)
(1.251838131 -0.2031091064 -7.457910169e-17)
(1.441342007 -0.2028342605 1.592702412e-17)
(1.195063056 -0.1502144249 1.200293786e-17)
(1.351552086 -0.1508772661 -1.494098628e-16)
(1.158005315 -0.1145860062 7.675173108e-17)
(1.282812689 -0.112473939 -3.27333598e-17)
(1.130194892 -0.08915625758 -2.826399503e-17)
(1.228552013 -0.08312758089 1.079613069e-16)
(1.106584139 -0.07005628984 -4.446533422e-17)
(1.183739862 -0.05981337024 6.998496642e-17)
(1.084342218 -0.05499656167 -3.679014198e-17)
(1.144926465 -0.04051740934 6.220439756e-17)
(1.06126058 -0.04243517741 -2.161299031e-17)
(1.110161405 -0.02396986116 1.787681493e-17)
(1.035054889 -0.03119804616 2.855077576e-17)
(1.078558562 -0.009297121656 -3.466346831e-18)
(1.003207945 -0.02056869327 1.328062787e-16)
(1.050767093 0.004016991496 -4.759959577e-17)
(0.9618522739 -0.009451920586 1.634792503e-16)
(1.989083124 -0.4523084178 5.979199806e-17)
(1.577677877 -0.3562820038 2.177804255e-16)
(1.757546743 -0.31781639 1.981621199e-17)
(1.379451008 -0.2396051559 8.023288792e-17)
(1.588338557 -0.2301491062 1.83066378e-17)
(1.272503613 -0.1698243998 7.671715738e-17)
(1.461999414 -0.1695830968 -9.578098717e-18)
(1.2102863 -0.1256055341 -1.461592572e-17)
(1.366863846 -0.1261391482 1.357307162e-16)
(1.169560544 -0.09580373383 -7.681729581e-17)
(1.294173848 -0.09400790973 9.575608833e-17)
(1.139136607 -0.07451221912 -4.551966246e-17)
(1.236901287 -0.0694308388 -1.725723836e-17)
(1.113587983 -0.05849946161 -1.646872985e-17)
(1.189707668 -0.04988204551 -3.350784959e-17)
(1.089890899 -0.04585645834 3.241343994e-17)
(1.14890823 -0.03368666664 -4.262302718e-17)
(1.065771938 -0.0352988959 1.538690481e-17)
(1.112290627 -0.01980819217 -2.239162677e-17)
(1.039043365 -0.02585048887 -5.507352497e-18)
(1.078482203 -0.007583921976 -1.828786931e-17)
(1.00744105 -0.01684218765 -6.918468908e-17)
(1.047634922 0.003120330287 2.090408432e-17)
(0.9659850356 -0.006503455124 -7.571170521e-17)
(2.034425655 -0.3578297546 -6.65484401e-17)
(1.613487926 -0.28194846 -1.648585273e-16)
(1.78947118 -0.2515487488 -6.09069686e-17)
(1.403520178 -0.1897131071 -4.847346091e-17)
(1.611444318 -0.1822513058 -1.996388726e-17)
(1.28954198 -0.1345500105 -7.827481896e-17)
(1.479004901 -0.1343725688 9.587998527e-18)
(1.222875912 -0.09959666964 -2.003979059e-17)
(1.379497765 -0.100031948 -5.477795432e-17)
(1.179162685 -0.07604462951 4.745507993e-18)
(1.303578695 -0.07464198451 -3.973982603e-17)
(1.146613914 -0.05922599157 -3.082412442e-19)
(1.243831339 -0.05523723048 4.062432801e-17)
(1.11946783 -0.04658562602 -3.069298562e-17)
(1.194647085 -0.03983083309 5.904593876e-17)
(1.094482884 -0.03660759568 -3.539967273e-17)
(1.152173428 -0.02711578881 1.569569031e-17)
(1.069177217 -0.02825547108 1.222856581e-17)
(1.114166439 -0.01628107776 -2.962388066e-18)
(1.041085408 -0.0206977134 3.388142801e-17)
(1.079366287 -0.006759198345 -2.112907929e-17)
(1.007577538 -0.0132593739 7.800902934e-17)
(1.048824532 0.001687740774 -4.830708767e-17)
(0.9629374593 -0.004988026792 7.260575157e-17)
(2.068865002 -0.2588693189 8.273478865e-17)
(1.640455411 -0.2040279652 1.250396705e-16)
(1.813527565 -0.182066029 4.602621766e-17)
(1.42157694 -0.1373747254 5.977646403e-17)
(1.628801768 -0.1319847944 2.08909378e-17)
(1.302276868 -0.09750486567 5.2803798e-17)
(1.491740025 -0.09737339378 1.825855033e-17)
(1.232230709 -0.07223246265 -1.426042944e-18)
(1.388910482 -0.07253787985 6.184368079e-17)
(1.186227137 -0.05519148117 -3.126569124e-17)
(1.310526204 -0.05416444331 6.453395984e-17)
(1.15203 -0.04300771225 -2.782392493e-17)
(1.248890795 -0.04011379892 2.320272444e-18)
(1.123641663 -0.0338322965 1.934572458e-18)
(1.198209749 -0.02896134673 -1.55135088e-17)
(1.097708863 -0.02656263369 7.367785319e-18)
(1.154481654 -0.01979201933 -1.119453108e-17)
(1.071765204 -0.02043626299 -5.944335099e-18)
(1.115279669 -0.01209631078 -3.128354741e-18)
(1.043565255 -0.01481021302 -1.666314775e-17)
(1.07899381 -0.005721800566 -3.033160294e-19)
(1.011062589 -0.008881299443 -4.065255625e-17)
(1.045356087 -0.001000254089 2.64887234e-17)
(0.9679475913 -0.001434445127 -5.632037229e-17)
(2.092051628 -0.1566726844 -7.268937223e-17)
(1.658838282 -0.123603963 -7.543972054e-17)
(1.829915947 -0.1103619055 -7.026046139e-17)
(1.433951983 -0.08338290013 -3.52418167e-17)
(1.640680504 -0.08014175981 -2.668335844e-17)
(1.311049751 -0.05931708153 -4.281592847e-17)
(1.500494715 -0.05924352061 -4.652779296e-18)
(1.238728391 -0.04405477487 -2.658934042e-17)
(1.395429867 -0.04423814901 -1.429862822e-17)
(1.191203459 -0.0337544033 -1.17908761e-17)
(1.315400193 -0.03312893045 -1.465161157e-17)
(1.155928787 -0.02637857211 -6.717779505e-18)
(1.252510139 -0.02462833296 1.589797753e-17)
(1.126722549 -0.02080637853 -1.603646825e-17)
(1.200831354 -0.01788641096 2.344857782e-17)
(1.1000818 -0.01635578964 -9.025916306e-18)
(1.156303015 -0.01237948926 6.733247871e-18)
(1.073320135 -0.01252453756 4.72796333e-18)
(1.116582082 -0.00786976437 3.14772824e-18)
(1.043691514 -0.008816605699 1.031459337e-17)