/*--------------------------------*- C++ -*----------------------------------*\
| =========                 |                                                 |
| \\      /  F ield         | foam-extend: Open Source CFD                    |
|  \\    /   O peration     | Version:  3.0                                   |
|   \\  /    A nd           | Web:         http://www.extend-project.de       |
|    \\/     M anipulation  |                                                 |
\*---------------------------------------------------------------------------*/
FoamFile
{
    version     2.0;
    format      ascii;
    class       volScalarField;
    location    "5";
    object      p;
}
// * * * * * * * * * * * * * * * * * * * * * * * * * * * * * * * * * * * * * //

dimensions      [0 0 0 0 0 0 0];

internalField   nonuniform List<scalar> 
576
(
-4.15244
-4.30648
-4.2651
-2.18401
-3.88443
-2.30148
-2.94711
-2.5187
-2.61692
-2.54692
-2.59516
-2.59352
-4.07237
-4.2334
-4.19179
-2.14347
-3.81827
-2.26343
-2.89677
-2.47619
-2.57262
-2.50446
-2.55197
-2.54998
-3.93293
-4.08986
-4.04989
-2.06892
-3.68648
-2.18572
-2.79734
-2.39207
-2.48517
-2.41919
-2.46467
-2.46238
-3.72206
-3.86829
-3.83259
-1.95656
-3.49046
-2.0705
-2.64938
-2.26603
-2.35431
-2.29204
-2.33524
-2.3331
-3.45025
-3.58531
-3.55427
-1.81373
-3.23571
-1.92028
-2.45679
-2.1019
-2.18378
-2.12607
-2.166
-2.16399
-3.11866
-3.23915
-3.21293
-1.63897
-2.92483
-1.73674
-2.22177
-1.9014
-1.97557
-1.92353
-1.95964
-1.95784
-2.73407
-2.83848
-2.81703
-1.43687
-2.56412
-1.52352
-1.94876
-1.66838
-1.73358
-1.68807
-1.71977
-1.7182
-2.3029
-2.38957
-2.37283
-1.21034
-2.15967
-1.28426
-1.64242
-1.40676
-1.46187
-1.42369
-1.45047
-1.4492
-1.83221
-1.9
-1.88813
-0.963254
-1.7185
-1.02314
-1.30809
-1.12112
-1.1652
-1.13501
-1.15644
-1.15549
-1.32989
-1.37786
-1.37111
-0.699659
-1.24805
-0.744588
-0.951493
-0.81639
-0.848673
-0.827
-0.842711
-0.842134
-0.80443
-0.831941
-0.830555
-0.423975
-0.756294
-0.453322
-0.578694
-0.497767
-0.517707
-0.504928
-0.514661
-0.514474
-0.264875
-0.271562
-0.275694
-0.140888
-0.251589
-0.154287
-0.196033
-0.170678
-0.177945
-0.174289
-0.177877
-0.178088
0.279462
0.293657
0.283975
0.144742
0.257454
0.147417
0.189969
0.159304
0.164824
0.159288
0.161905
0.161302
0.819174
0.853987
0.838852
0.427998
0.762128
0.446632
0.572723
0.486552
0.504755
0.490118
0.498894
0.497914
1.34495
1.39979
1.37942
0.703998
1.25379
0.73823
0.945687
0.805476
0.836044
0.812554
0.82734
0.826008
1.84774
1.92168
1.8964
0.967992
1.72401
1.01721
1.30248
1.11062
1.15303
1.12109
1.14163
1.13998
2.3189
2.4107
2.38093
1.21544
2.16474
1.2788
1.63699
1.39677
1.45029
1.41044
1.4364
1.43445
2.75037
2.85848
2.82472
1.4421
2.56843
1.51851
1.94349
1.65902
1.72274
1.67567
1.70659
1.70439
3.13474
3.25733
3.22016
1.64408
2.92817
1.73224
2.21674
1.89289
1.96571
1.91223
1.94759
1.94517
3.46545
3.60044
3.56048
1.81792
3.23781
1.91633
2.45205
2.09436
2.17506
2.11608
2.15527
2.15268
3.73683
3.88194
3.83987
1.96065
3.49203
2.06762
2.64541
2.26001
2.34719
2.28372
2.32607
2.32335
3.94425
4.09699
4.05355
2.06982
3.6865
2.18353
2.79351
2.38698
2.47915
2.41228
2.45707
2.45428
4.08416
4.24194
4.19785
2.14357
3.81789
2.26208
2.89381
2.47312
2.5687
2.49958
2.54604
2.54321
4.15417
4.31429
4.27032
2.18064
3.88396
2.30193
2.94459
2.51693
2.6143
2.5441
2.59144
2.58862
4.15308
4.31282
4.26972
2.1804
3.88356
2.30238
2.94499
2.51769
2.61517
2.5451
2.5925
2.58974
4.0809
4.23754
4.19605
2.14284
3.81671
2.26344
2.89501
2.47536
2.5713
2.50255
2.5492
2.54656
3.93888
4.08975
4.05058
2.06862
3.68456
2.18578
2.79549
2.39069
2.48343
2.41719
2.46229
2.4598
3.72946
3.87198
3.8358
1.95901
3.48937
2.07072
2.64814
2.26512
2.35308
2.29047
2.33326
2.33096
3.4562
3.58796
3.55539
1.81588
3.23448
1.92024
2.45549
2.10079
2.18247
2.12456
2.16431
2.16224
3.12381
3.24254
3.21415
1.64169
2.92425
1.73691
2.22084
1.90053
1.97452
1.92231
1.95833
1.95653
2.73797
2.84166
2.81792
1.43942
2.564
1.52387
1.94819
1.66776
1.7328
1.68718
1.71885
1.71735
2.3053
2.39218
2.3735
1.21255
2.1599
1.28477
1.64223
1.40646
1.46143
1.42318
1.44996
1.44878
1.83322
1.9018
1.8885
0.964955
1.71887
1.02371
1.30818
1.12111
1.16507
1.13483
1.15627
1.15543
1.3298
1.37891
1.37121
0.700889
1.24846
0.74515
0.951768
0.81659
0.848783
0.827074
0.842795
0.842304
0.803694
0.832493
0.830504
0.424878
0.756735
0.453873
0.579103
0.498126
0.517988
0.505173
0.514903
0.514771
0.2639
0.271897
0.275636
0.141655
0.252121
0.154865
0.196571
0.171176
0.178357
0.174644
0.178209
0.178437
-0.280332
-0.293266
-0.283899
-0.143923
-0.256727
-0.146748
-0.189272
-0.158648
-0.164282
-0.158842
-0.161513
-0.160926
-0.819686
-0.853308
-0.838531
-0.426966
-0.761084
-0.445799
-0.571811
-0.485681
-0.504043
-0.489553
-0.498426
-0.497484
-1.34494
-1.39863
-1.37879
-0.702634
-1.25231
-0.737169
-0.944498
-0.804311
-0.83509
-0.811802
-0.826735
-0.825436
-1.84711
-1.91987
-1.89547
-0.96624
-1.722
-1.01588
-1.30097
-1.10909
-1.15175
-1.12006
-1.14079
-1.13913
-2.31762
-2.4081
-2.37976
-1.21332
-2.16215
-1.27721
-1.63518
-1.39486
-1.44865
-1.40906
-1.43522
-1.43318
-2.74844
-2.85494
-2.82349
-1.43976
-2.56536
-1.51678
-1.94149
-1.65684
-1.72084
-1.674
-1.70509
-1.70268
-3.13216
-3.25274
-3.21895
-1.64167
-2.92475
-1.73057
-2.21476
-1.89068
-1.96383
-1.91055
-1.94603
-1.94331
-3.46237
-3.5947
-3.5599
-1.81611
-3.23465
-1.91533
-2.45064
-2.09266
-2.17373
-2.11497
-2.1543
-2.15146
-3.73265
-3.87503
-3.83924
-1.95922
-3.48883
-2.06737
-2.64476
-2.25903
-2.34674
-2.28362
-2.32629
-2.32371
-3.94006
-4.0896
-4.05416
-2.07009
-3.68405
-2.18451
-2.79451
-2.38724
-2.4799
-2.41321
-2.4581
-2.45574
-4.07642
-4.23348
-4.19834
-2.14545
-3.81522
-2.26194
-2.89441
-2.47303
-2.56958
-2.50076
-2.54734
-2.54466
-4.14418
-4.30624
-4.26888
-2.1839
-3.88235
-2.30185
-2.94672
-2.51745
-2.61584
-2.54578
-2.59295
-2.59009
)
;

boundaryField
{
    out
    {
        type            implicitExtrapolation;
    }
    in
    {
        type            implicitExtrapolation;
    }
    frontAndBack
    {
        type            empty;
    }
}


// ************************************************************************* //
