/*--------------------------------*- C++ -*----------------------------------*\
| =========                 |                                                 |
| \\      /  F ield         | foam-extend: Open Source CFD                    |
|  \\    /   O peration     | Version:  3.0                                   |
|   \\  /    A nd           | Web:         http://www.extend-project.de       |
|    \\/     M anipulation  |                                                 |
\*---------------------------------------------------------------------------*/
FoamFile
{
    version     2.0;
    format      ascii;
    class       volVectorField;
    location    "5";
    object      u;
}
// * * * * * * * * * * * * * * * * * * * * * * * * * * * * * * * * * * * * * //

dimensions      [0 0 0 0 0 0 0];

internalField   nonuniform List<vector> 
576
(
(0.0634211 -0.023489 -4.4984e-20)
(0.186375 -0.0164635 -1.97342e-19)
(0.259748 -0.0337139 -5.35194e-19)
(0.330215 -0.03505 -2.07418e-19)
(0.500365 -0.0332811 5.30427e-19)
(0.54199 -0.0353583 3.93527e-19)
(0.667473 -0.0313785 5.9564e-19)
(0.734657 -0.02918 1.03765e-18)
(0.816773 -0.0245798 5.37019e-19)
(0.880879 -0.0193574 3.63005e-19)
(0.937268 -0.012763 4.47641e-19)
(0.984985 -0.00470583 -3.4255e-19)
(0.0755368 -0.0683487 6.0378e-20)
(0.195139 -0.0490938 -2.06831e-18)
(0.277607 -0.10007 -1.95729e-18)
(0.34904 -0.105127 -4.48704e-19)
(0.518519 -0.101089 9.89299e-19)
(0.561364 -0.107944 9.85241e-20)
(0.68484 -0.0968518 8.95788e-19)
(0.750927 -0.0904604 5.64783e-18)
(0.830584 -0.0765649 4.35361e-18)
(0.89184 -0.0604638 -4.94688e-19)
(0.944547 -0.0399553 -3.80985e-18)
(0.987678 -0.0147593 -3.2505e-18)
(0.0989105 -0.108523 -4.83543e-20)
(0.212119 -0.0779568 5.90132e-19)
(0.312083 -0.159304 -7.62411e-19)
(0.38536 -0.167873 -3.41246e-18)
(0.553639 -0.161875 -1.59413e-18)
(0.598946 -0.173098 4.08521e-18)
(0.718664 -0.15558 5.41012e-18)
(0.782563 -0.145392 3.43176e-18)
(0.857377 -0.123129 7.75057e-18)
(0.912998 -0.0972656 2.66327e-18)
(0.958513 -0.0642939 2.83594e-18)
(0.992838 -0.0237742 7.03531e-18)
(0.131768 -0.141446 -1.92017e-19)
(0.235931 -0.101675 3.10686e-19)
(0.360687 -0.207775 -1.75819e-18)
(0.436678 -0.219143 1.77713e-18)
(0.603271 -0.211508 -4.82376e-18)
(0.652087 -0.22631 -1.9856e-18)
(0.766531 -0.203625 7.69537e-19)
(0.827344 -0.190359 6.3256e-18)
(0.895326 -0.161253 5.96347e-18)
(0.942973 -0.127365 7.67276e-18)
(0.978304 -0.0841616 8.2937e-18)
(1.00016 -0.0311093 1.54854e-17)
(0.172049 -0.164722 -1.89102e-19)
(0.265016 -0.118346 -3.90486e-19)
(0.420104 -0.24192 -3.51398e-19)
(0.499488 -0.255324 8.80283e-19)
(0.664045 -0.246586 1.84583e-18)
(0.717207 -0.263932 -6.20253e-18)
(0.82522 -0.237615 -4.84936e-18)
(0.88223 -0.222171 -1.17745e-17)
(0.941826 -0.188233 -1.08454e-17)
(0.979682 -0.148669 -1.91558e-18)
(1.00255 -0.0982305 -6.0306e-18)
(1.00912 -0.036312 -1.52466e-17)
(0.21698 -0.176792 2.78218e-19)
(0.297446 -0.126991 1.29747e-18)
(0.48635 -0.259579 7.88558e-19)
(0.569574 -0.274046 -2.3541e-18)
(0.731853 -0.264755 -2.07321e-19)
(0.789866 -0.283415 -2.30197e-18)
(0.890726 -0.255255 -4.28038e-18)
(0.943497 -0.238692 -1.35041e-18)
(0.993739 -0.202253 -7.74053e-18)
(1.02067 -0.159739 -1.04706e-17)
(1.02961 -0.105538 -3.07826e-19)
(1.01913 -0.0390156 -6.3308e-18)
(0.263511 -0.176795 2.61753e-19)
(0.331034 -0.126942 1.19069e-18)
(0.554909 -0.259469 5.26712e-18)
(0.642135 -0.273971 9.04656e-19)
(0.802059 -0.26474 1.12236e-19)
(0.865091 -0.283408 -1.24866e-18)
(0.958561 -0.255311 3.2277e-19)
(1.00694 -0.238759 1.90395e-18)
(1.0475 -0.202327 2.82304e-19)
(1.06311 -0.159799 2.12316e-18)
(1.05764 -0.105576 -2.43293e-19)
(1.02949 -0.0390335 -3.66646e-18)
(0.308469 -0.164734 1.57117e-19)
(0.363501 -0.118211 9.31867e-19)
(0.621124 -0.241625 3.28131e-18)
(0.712226 -0.255125 -1.52415e-18)
(0.869877 -0.246558 4.74095e-18)
(0.937745 -0.263932 -3.21689e-18)
(1.02409 -0.237802 -3.13421e-18)
(1.06822 -0.222392 -9.65748e-19)
(1.09943 -0.188469 -7.13387e-18)
(1.1041 -0.148857 3.02356e-18)
(1.08471 -0.0983483 2.93486e-18)
(1.0395 -0.036364 6.88869e-18)
(0.348784 -0.141433 3.10234e-19)
(0.39263 -0.101382 5.89249e-19)
(0.680481 -0.207264 -1.77852e-18)
(0.775061 -0.218799 2.11456e-18)
(0.930681 -0.211462 -2.33681e-18)
(1.00287 -0.226334 4.82979e-18)
(1.08283 -0.203943 -1.88863e-18)
(1.12315 -0.190728 -1.11261e-17)
(1.14597 -0.161643 -1.00302e-17)
(1.14084 -0.127673 -4.69183e-18)
(1.10898 -0.0843546 -7.56207e-18)
(1.04847 -0.0311921 7.81986e-18)
(0.3817 -0.108483 5.89288e-19)
(0.416428 -0.0775917 1.13576e-18)
(0.728936 -0.158726 -8.37705e-22)
(0.826362 -0.167472 2.68129e-18)
(0.980337 -0.161847 1.2649e-19)
(1.05605 -0.173187 3.74254e-18)
(1.1308 -0.156054 5.19322e-18)
(1.16801 -0.145941 -2.12674e-18)
(1.18399 -0.123691 1.72763e-18)
(1.17085 -0.0977029 4.41297e-18)
(1.1288 -0.064557 2.11724e-18)
(1.0558 -0.023873 -3.51729e-18)
(0.404965 -0.0681302 9.38805e-20)
(0.433263 -0.0484528 1.57072e-20)
(0.763188 -0.0993083 1.0286e-18)
(0.862634 -0.104631 -1.53025e-18)
(1.01547 -0.101085 1.56331e-18)
(1.09367 -0.108105 1.24099e-19)
(1.16475 -0.0973962 2.90846e-20)
(1.19976 -0.0910822 5.31525e-18)
(1.21088 -0.077203 5.56699e-18)
(1.19208 -0.0609931 7.96995e-18)
(1.14282 -0.0403072 1.12129e-17)
(1.06099 -0.0149068 -8.48291e-19)
(0.416987 -0.0231275 -1.00609e-19)
(0.441978 -0.0159458 -1.26125e-18)
(0.780896 -0.0330507 -6.8055e-19)
(0.881407 -0.0345475 1.30242e-18)
(1.03368 -0.0333044 -7.20387e-19)
(1.11317 -0.0355103 9.48289e-20)
(1.18238 -0.031954 -6.65052e-19)
(1.21623 -0.0298812 1.32418e-18)
(1.22484 -0.0253402 6.21413e-19)
(1.2031 -0.0200407 1.1422e-18)
(1.1501 -0.0132552 1.47071e-18)
(1.06368 -0.00490402 2.05667e-18)
(0.416945 0.0234544 -4.68761e-20)
(0.441973 0.0177145 1.07324e-18)
(0.78085 0.0355371 1.15355e-18)
(0.881398 0.0380093 1.73532e-18)
(1.03373 0.0368868 1.20154e-18)
(1.11322 0.0396624 2.5029e-19)
(1.18247 0.0358247 1.10823e-18)
(1.21632 0.0335027 -2.44732e-18)
(1.22492 0.0283722 -3.32297e-18)
(1.20315 0.0223705 -3.69909e-18)
(1.15013 0.0147596 -5.76336e-19)
(1.0637 0.00545523 1.28067e-18)
(0.404839 0.0684374 3.32115e-19)
(0.433244 0.050231 -1.0701e-18)
(0.763045 0.101782 4.41242e-21)
(0.862604 0.108098 7.86066e-19)
(1.01562 0.10471 2.82637e-18)
(1.09382 0.112297 4.07999e-19)
(1.16503 0.101329 -3.29639e-18)
(1.20001 0.0947579 -2.58857e-18)
(1.2111 0.0802811 -4.80887e-18)
(1.19224 0.063356 -3.7028e-18)
(1.14293 0.0418321 3.51821e-19)
(1.06103 0.0154664 -3.31481e-18)
(0.381498 0.108753 -4.90025e-20)
(0.416385 0.0793832 -2.09493e-18)
(0.728693 0.161168 -5.20154e-19)
(0.826301 0.170942 -3.61077e-18)
(0.98056 0.165544 3.45268e-19)
(1.05627 0.177446 -1.46347e-19)
(1.13123 0.160097 2.17609e-18)
(1.1684 0.149714 1.42598e-18)
(1.18433 0.126853 2.9252e-18)
(1.1711 0.100126 3.06282e-18)
(1.12896 0.0661199 -1.00771e-18)
(1.05587 0.0244482 -7.59855e-18)
(0.348513 0.141652 -5.60761e-19)
(0.392545 0.10318 1.1931e-18)
(0.680133 0.209644 -1.85559e-18)
(0.774963 0.222255 -3.92909e-19)
(0.930946 0.21524 -4.0576e-18)
(1.00315 0.230666 4.18674e-18)
(1.08337 0.208124 7.00094e-18)
(1.12365 0.194625 6.34146e-18)
(1.14641 0.164914 1.34222e-17)
(1.14117 0.130177 1.0467e-17)
(1.10919 0.0859688 -1.96915e-18)
(1.04857 0.031789 5.4527e-18)
(0.308135 0.164891 -3.99395e-19)
(0.363352 0.119996 -1.3968e-18)
(0.620673 0.243903 -3.71748e-18)
(0.712085 0.258536 2.59741e-18)
(0.870154 0.250407 -5.0454e-19)
(0.93805 0.26833 1.91296e-18)
(1.02471 0.242133 2.05905e-18)
(1.0688 0.22643 3.34624e-18)
(1.09994 0.19187 7.21973e-18)
(1.10448 0.151459 5.06946e-18)
(1.08496 0.100026 5.53926e-18)
(1.03961 0.0369886 1.60536e-17)
(0.263117 0.176887 -5.54186e-19)
(0.330796 0.128683 -1.59894e-18)
(0.554368 0.261607 -2.1842e-18)
(0.641955 0.277309 -1.64386e-18)
(0.802328 0.268644 3.40573e-19)
(0.86542 0.287864 -1.82444e-18)
(0.959244 0.259805 -4.52806e-18)
(1.00759 0.242957 -8.70788e-18)
(1.04807 0.205882 3.13267e-18)
(1.06353 0.162521 -3.5898e-18)
(1.05792 0.107334 -1.03133e-18)
(1.02961 0.0396926 -5.66817e-18)
(0.216528 0.176823 -1.4607e-19)
(0.297099 0.128647 -3.93596e-19)
(0.485737 0.261546 -8.74451e-19)
(0.569352 0.277292 -6.36415e-19)
(0.732089 0.268707 -2.22038e-18)
(0.790206 0.287937 -1.06345e-18)
(0.891432 0.259931 -4.4038e-18)
(0.944181 0.24308 1.14577e-17)
(0.994348 0.205994 9.71164e-18)
(1.02111 0.162608 -6.56854e-18)
(1.0299 0.107392 1.14482e-18)
(1.01925 0.0397166 -4.23464e-18)
(0.171544 0.164702 -3.63945e-19)
(0.264557 0.119889 -1.68143e-19)
(0.419457 0.243723 3.67447e-18)
(0.499225 0.258483 -2.22897e-18)
(0.664224 0.250588 8.38e-19)
(0.717534 0.26854 -3.8154e-18)
(0.825895 0.242503 3.37414e-18)
(0.882901 0.226787 9.6554e-18)
(0.942423 0.192196 -2.73394e-18)
(0.980117 0.151714 -6.30327e-18)
(1.00283 0.100198 -8.77759e-18)
(1.00924 0.0370587 -1.36877e-17)
(0.131229 0.141352 -1.52163e-19)
(0.235391 0.103007 1.38436e-18)
(0.360048 0.209354 -2.00163e-19)
(0.436354 0.222165 -7.26725e-19)
(0.60336 0.215521 9.63309e-20)
(0.652357 0.230995 -5.27488e-18)
(0.767101 0.208705 1.195e-18)
(0.827925 0.195188 -1.76874e-19)
(0.895836 0.165428 -1.12903e-17)
(0.943337 0.13058 -8.48457e-18)
(0.978535 0.0862405 -1.10433e-17)
(1.00026 0.0319 -2.02015e-18)
(0.098332 0.108363 2.45044e-19)
(0.211588 0.0791511 1.96798e-19)
(0.311558 0.160778 -5.4122e-19)
(0.385024 0.170811 1.12759e-18)
(0.553644 0.165896 -3.34076e-18)
(0.599117 0.17786 2.34155e-18)
(0.719057 0.160842 -2.63798e-18)
(0.782998 0.150437 -1.07067e-17)
(0.857764 0.127515 -8.68335e-18)
(0.91328 0.100646 -1.18766e-17)
(0.958682 0.066471 -4.50035e-18)
(0.992916 0.024592 1.20592e-17)
(0.0750944 0.0679847 7.18644e-19)
(0.19477 0.0499469 1.61821e-18)
(0.277292 0.101307 9.42989e-19)
(0.348734 0.107922 -9.8543e-19)
(0.518465 0.105094 1.21227e-18)
(0.561442 0.112754 -4.4068e-19)
(0.685036 0.102174 -7.90398e-19)
(0.751184 0.0955821 -2.41282e-18)
(0.8308 0.0810386 -5.26354e-19)
(0.891992 0.0639529 -2.01483e-18)
(0.944622 0.0422367 -2.94423e-18)
(0.987716 0.0156327 -4.84759e-18)
(0.0630995 0.0229678 1.7458e-19)
(0.186084 0.0173852 3.36505e-19)
(0.259586 0.0349944 2.68106e-19)
(0.329956 0.0377826 -6.08591e-19)
(0.500221 0.0372584 -8.99587e-19)
(0.5419 0.0401169 -4.90969e-20)
(0.667357 0.0367002 -7.0159e-19)
(0.73465 0.0343623 -5.75093e-19)
(0.816782 0.0291674 -1.0972e-18)
(0.880926 0.0230002 6.43474e-19)
(0.937312 0.015189 -1.36557e-18)
(0.985011 0.00563261 -1.67975e-18)
(0.0631649 -0.0236193 4.36797e-20)
(0.186121 -0.0163144 1.97468e-19)
(0.259645 -0.0336408 5.3251e-19)
(0.329971 -0.0348256 2.03195e-19)
(0.500154 -0.0329866 -5.34208e-19)
(0.541822 -0.0351029 -3.94769e-19)
(0.667224 -0.0311179 -5.94471e-19)
(0.734522 -0.0290505 -1.03506e-18)
(0.816666 -0.0245641 -5.3361e-19)
(0.880835 -0.0194211 -3.59607e-19)
(0.937251 -0.0128288 -4.44713e-19)
(0.984986 -0.00472672 3.43826e-19)
(0.0752857 -0.0686013 -6.19525e-20)
(0.19488 -0.0488548 2.06951e-18)
(0.277465 -0.0999206 1.95608e-18)
(0.348776 -0.104955 4.47965e-19)
(0.518267 -0.100854 -9.88776e-19)
(0.561212 -0.107779 -9.69356e-20)
(0.684647 -0.0966585 -8.95287e-19)
(0.750808 -0.0903349 -5.64684e-18)
(0.830458 -0.0764942 -4.34907e-18)
(0.891725 -0.0604201 5.01936e-19)
(0.944442 -0.0399075 3.81473e-18)
(0.987643 -0.0147394 3.25147e-18)
(0.0986357 -0.108913 4.61407e-20)
(0.211761 -0.0780178 -5.93122e-19)
(0.311831 -0.159328 7.58292e-19)
(0.385088 -0.167825 3.40898e-18)
(0.553327 -0.161719 1.59021e-18)
(0.598748 -0.172958 -4.08819e-18)
(0.718435 -0.155455 -5.40999e-18)
(0.782398 -0.145315 -3.42948e-18)
(0.857218 -0.123084 -7.74648e-18)
(0.912852 -0.0972031 -2.6575e-18)
(0.958396 -0.064202 -2.83167e-18)
(0.9928 -0.0237231 -7.03425e-18)
(0.131623 -0.141806 1.9049e-19)
(0.235613 -0.101816 -3.13052e-19)
(0.360399 -0.207813 1.75312e-18)
(0.436432 -0.219151 -1.78203e-18)
(0.60294 -0.211433 4.82194e-18)
(0.651871 -0.226199 1.98604e-18)
(0.766285 -0.203502 -7.70204e-19)
(0.827137 -0.190244 -6.32662e-18)
(0.895121 -0.16116 -5.96317e-18)
(0.942777 -0.127264 -7.67316e-18)
(0.97816 -0.084057 -8.29298e-18)
(1.00011 -0.0310658 -1.54855e-17)
(0.171999 -0.165039 1.87879e-19)
(0.26481 -0.118626 3.88058e-19)
(0.419858 -0.242073 3.47978e-19)
(0.499306 -0.255437 -8.82956e-19)
(0.663725 -0.24661 -1.84712e-18)
(0.716958 -0.263873 6.20301e-18)
(0.824935 -0.237524 4.84923e-18)
(0.881975 -0.222061 1.1775e-17)
(0.941583 -0.188128 1.08438e-17)
(0.97946 -0.148555 1.9106e-18)
(1.00239 -0.0981199 6.02655e-18)
(1.00906 -0.0362673 1.52456e-17)
(0.217012 -0.177028 -2.79418e-19)
(0.29736 -0.127303 -1.30014e-18)
(0.486154 -0.259772 -7.90659e-19)
(0.569424 -0.274209 2.35233e-18)
(0.731537 -0.264852 2.05402e-19)
(0.789572 -0.283416 2.30087e-18)
(0.890386 -0.255206 4.27799e-18)
(0.943174 -0.2386 1.34945e-18)
(0.993436 -0.20215 7.7416e-18)
(1.0204 -0.159625 1.04698e-17)
(1.02943 -0.105433 3.05157e-19)
(1.01906 -0.0389733 6.32979e-18)
(0.263592 -0.176956 -2.62424e-19)
(0.331044 -0.127257 -1.19276e-18)
(0.554766 -0.259706 -5.26934e-18)
(0.642005 -0.27419 -9.06589e-19)
(0.801752 -0.264918 -1.13601e-19)
(0.864762 -0.283496 1.24702e-18)
(0.958176 -0.255343 -3.24239e-19)
(1.00656 -0.238734 -1.90451e-18)
(1.04715 -0.202274 -2.84626e-19)
(1.06281 -0.159723 -2.12495e-18)
(1.05743 -0.105499 2.42569e-19)
(1.02942 -0.0389998 3.66638e-18)
(0.308565 -0.164829 -1.57451e-19)
(0.363562 -0.118491 -9.32799e-19)
(0.621017 -0.241879 -3.2821e-18)
(0.7121 -0.255382 1.52298e-18)
(0.869584 -0.246805 -4.74248e-18)
(0.937402 -0.264111 3.21556e-18)
(1.02368 -0.237929 3.13363e-18)
(1.06782 -0.222457 9.64353e-19)
(1.09905 -0.188491 7.13214e-18)
(1.10379 -0.148842 -3.02527e-18)
(1.0845 -0.0983134 -2.93513e-18)
(1.03943 -0.0363453 -6.88833e-18)
(0.348864 -0.141473 -3.10367e-19)
(0.392699 -0.101603 -5.89736e-19)
(0.680389 -0.20751 1.77796e-18)
(0.774931 -0.21907 -2.11547e-18)
(0.930408 -0.211751 2.33569e-18)
(1.00254 -0.226582 -4.83111e-18)
(1.08244 -0.204151 1.88814e-18)
(1.12277 -0.19088 1.11263e-17)
(1.14562 -0.161744 1.00309e-17)
(1.14055 -0.127725 4.69232e-18)
(1.10879 -0.0843678 7.56317e-18)
(1.04841 -0.031191 -7.81956e-18)
(0.381741 -0.108481 -5.89262e-19)
(0.416466 -0.0777472 -1.13564e-18)
(0.728837 -0.158942 1.21947e-21)
(0.826215 -0.16773 -2.68157e-18)
(0.980079 -0.162145 -1.26544e-19)
(1.05574 -0.173471 -3.74342e-18)
(1.13045 -0.156315 -5.19391e-18)
(1.16766 -0.146157 2.1274e-18)
(1.18367 -0.123857 -1.72713e-18)
(1.17059 -0.0978135 -4.41238e-18)
(1.12863 -0.0646134 -2.11605e-18)
(1.05575 -0.0238886 3.51707e-18)
(0.404956 -0.068102 -9.39467e-20)
(0.433244 -0.0485512 -1.57239e-20)
(0.763057 -0.0994874 -1.02842e-18)
(0.862456 -0.104864 1.53057e-18)
(1.01521 -0.101372 -1.56361e-18)
(1.09337 -0.108399 -1.24083e-19)
(1.16444 -0.0976821 -2.91292e-20)
(1.19945 -0.091337 -5.31557e-18)
(1.21061 -0.0774139 -5.5676e-18)
(1.19187 -0.0611469 -7.97059e-18)
(1.14268 -0.0403973 -1.12135e-17)
(1.06095 -0.0149362 8.48641e-19)
(0.416926 -0.0230904 1.00663e-19)
(0.441889 -0.0160076 1.26137e-18)
(0.780719 -0.0332009 6.80863e-19)
(0.881187 -0.0347583 -1.30193e-18)
(1.03341 -0.0335751 7.20631e-19)
(1.11288 -0.0358023 -9.46495e-20)
(1.18208 -0.032249 6.6538e-19)
(1.21595 -0.0301575 -1.32423e-18)
(1.22461 -0.0255801 -6.21334e-19)
(1.20292 -0.0202251 -1.14237e-18)
(1.14999 -0.0133708 -1.4709e-18)
(1.06365 -0.0049446 -2.05664e-18)
(0.416836 0.0234851 4.69372e-20)
(0.441813 0.0176627 -1.07294e-18)
(0.780622 0.0353981 -1.15312e-18)
(0.881132 0.0378062 -1.73467e-18)
(1.03344 0.0366238 -1.20106e-18)
(1.11293 0.0393715 -2.49887e-19)
(1.18219 0.0355243 -1.10788e-18)
(1.21606 0.0332121 2.4476e-18)
(1.22471 0.0281113 3.32289e-18)
(1.203 0.0221626 3.69897e-18)
(1.15004 0.0146235 5.76213e-19)
(1.06367 0.00540464 -1.28079e-18)
(0.404693 0.0684487 -3.32036e-19)
(0.433024 0.0501618 1.06956e-18)
(0.762776 0.101633 -4.56512e-21)
(0.8623 0.107883 -7.85772e-19)
(1.01531 0.104439 -2.82538e-18)
(1.09352 0.111999 -4.07226e-19)
(1.16475 0.10102 3.29693e-18)
(1.19976 0.0944541 2.5889e-18)
(1.21091 0.0800022 4.8088e-18)
(1.19211 0.063128 3.70251e-18)
(1.14285 0.0416781 -3.52443e-19)
(1.06102 0.0154057 3.31438e-18)
(0.381325 0.108735 4.88551e-20)
(0.416125 0.0792716 2.09422e-18)
(0.728402 0.16099 5.19639e-19)
(0.825978 0.170694 3.60969e-18)
(0.980241 0.165249 -3.45105e-19)
(1.05599 0.177131 1.47328e-19)
(1.13097 0.159774 -2.17476e-18)
(1.16818 0.149396 -1.42533e-18)
(1.18416 0.126558 -2.92497e-18)
(1.17098 0.0998817 -3.06287e-18)
(1.12889 0.065951 1.00668e-18)
(1.05586 0.0243773 7.59959e-18)
(0.348328 0.141599 5.60457e-19)
(0.39227 0.103005 -1.19341e-18)
(0.679848 0.209425 1.85439e-18)
(0.774649 0.221958 3.91396e-19)
(0.930644 0.214908 4.05621e-18)
(1.00289 0.230331 -4.18627e-18)
(1.08314 0.207784 -6.9995e-18)
(1.12346 0.194297 -6.33957e-18)
(1.14627 0.164611 -1.34198e-17)
(1.14107 0.129923 -1.04651e-17)
(1.10913 0.0857919 1.96934e-18)
(1.04855 0.0317095 -5.45102e-18)
(0.307951 0.164799 3.98974e-19)
(0.363091 0.119742 1.39568e-18)
(0.620427 0.243639 3.71492e-18)
(0.711816 0.258181 -2.59765e-18)
(0.869901 0.250033 5.02587e-19)
(0.937854 0.267973 -1.91365e-18)
(1.02453 0.241779 -2.05915e-18)
(1.06866 0.226098 -3.3461e-18)
(1.09985 0.191571 -7.21689e-18)
(1.10442 0.151212 -5.06691e-18)
(1.08492 0.0998554 -5.5376e-18)
(1.03959 0.0369069 -1.60546e-17)
(0.262947 0.176755 5.53636e-19)
(0.330581 0.12834 1.59749e-18)
(0.55419 0.261304 2.18183e-18)
(0.641768 0.276896 1.64206e-18)
(0.802155 0.268231 -3.41637e-19)
(0.865309 0.287494 1.82244e-18)
(0.959142 0.25944 4.52617e-18)
(1.00752 0.242633 8.70406e-18)
(1.04806 0.205606 -3.13204e-18)
(1.06354 0.162304 3.59075e-18)
(1.05792 0.107192 1.03286e-18)
(1.0296 0.0396233 5.66871e-18)
(0.216387 0.17665 1.45538e-19)
(0.296959 0.128213 3.93071e-19)
(0.485649 0.261226 8.73286e-19)
(0.569283 0.276835 6.34643e-19)
(0.732024 0.26827 2.21778e-18)
(0.7902 0.287569 1.06181e-18)
(0.891428 0.259568 4.40116e-18)
(0.944205 0.242779 -1.14563e-17)
(0.994421 0.205762 -9.70592e-18)
(1.0212 0.16245 6.5685e-18)
(1.02997 0.107312 -1.14424e-18)
(1.01927 0.0396834 4.23458e-18)
(0.171445 0.164489 3.63195e-19)
(0.26452 0.119375 1.67561e-19)
(0.419462 0.243403 -3.67254e-18)
(0.499284 0.258001 2.22718e-18)
(0.664267 0.250144 -8.38628e-19)
(0.71762 0.268192 3.81231e-18)
(0.825981 0.24215 -3.37429e-18)
(0.883 0.226523 -9.65085e-18)
(0.942567 0.192024 2.73658e-18)
(0.980275 0.151637 6.30325e-18)
(1.00295 0.100199 8.7772e-18)
(1.00929 0.0370843 1.3685e-17)
(0.131201 0.141109 1.51454e-19)
(0.235466 0.102445 -1.38407e-18)
(0.360126 0.209089 2.00008e-19)
(0.436539 0.221722 7.24332e-19)
(0.603498 0.215122 -9.607e-20)
(0.652504 0.230699 5.27461e-18)
(0.767242 0.208388 -1.19413e-18)
(0.82805 0.194978 1.75796e-19)
(0.895996 0.165321 1.12856e-17)
(0.9435 0.13058 8.48138e-18)
(0.978668 0.0863071 1.10407e-17)
(1.00033 0.031967 2.01923e-18)
(0.0983836 0.108086 -2.45209e-19)
(0.21177 0.0785794 -1.97141e-19)
(0.311679 0.160551 5.40336e-19)
(0.385278 0.170418 -1.12641e-18)
(0.553811 0.165539 3.3386e-18)
(0.599248 0.177594 -2.33945e-18)
(0.719183 0.16053 2.63899e-18)
(0.783073 0.150243 1.07035e-17)
(0.857866 0.127428 8.6812e-18)
(0.913369 0.10067 1.18757e-17)
(0.958759 0.0665483 4.5e-18)
(0.992946 0.0246416 -1.20575e-17)
(0.0752779 0.0677634 -7.179e-19)
(0.194966 0.0494582 -1.61692e-18)
(0.277385 0.101147 -9.43603e-19)
(0.349038 0.107596 9.84103e-19)
(0.518656 0.104797 -1.21038e-18)
(0.561589 0.112525 4.42597e-19)
(0.685197 0.101895 7.92366e-19)
(0.751259 0.0954034 2.41644e-18)
(0.830889 0.08096 5.3061e-19)
(0.892044 0.0639783 2.01852e-18)
(0.944658 0.0423098 2.94772e-18)
(0.987711 0.0156774 4.84779e-18)
(0.0632659 0.0228742 -1.75179e-19)
(0.186181 0.0169486 -3.38771e-19)
(0.259557 0.0348825 -2.72159e-19)
(0.330273 0.0375508 6.06692e-19)
(0.500373 0.0370788 8.98184e-19)
(0.542009 0.039937 4.89888e-20)
(0.667539 0.0364277 7.01037e-19)
(0.734709 0.0341774 5.75651e-19)
(0.816866 0.0290605 1.09728e-18)
(0.880979 0.0229942 -6.43202e-19)
(0.937382 0.0152626 1.36552e-18)
(0.98504 0.00570964 1.68002e-18)
)
;

boundaryField
{
    out
    {
        type            fixedValue;
        value           uniform (1 0 0);
    }
    in
    {
        type            fixedValue;
        value           uniform (0 0 0);
    }
    frontAndBack
    {
        type            empty;
    }
}


// ************************************************************************* //
