/*--------------------------------*- C++ -*----------------------------------*\
| =========                 |                                                 |
| \\      /  F ield         | foam-extend: Open Source CFD                    |
|  \\    /   O peration     | Version:  3.0                                   |
|   \\  /    A nd           | Web:         http://www.extend-project.de       |
|    \\/     M anipulation  |                                                 |
\*---------------------------------------------------------------------------*/
FoamFile
{
    version     2.0;
    format      ascii;
    class       volSymmTensorField;
    location    "40";
    object      sigma;
}
// * * * * * * * * * * * * * * * * * * * * * * * * * * * * * * * * * * * * * //

dimensions      [0 0 0 0 0 0 0];

internalField   nonuniform List<symmTensor> 
672
(
(-0.1682402621 -0.01014458719 -9.55189447e-20 0.1681976411 -5.47458352e-20 4.262100193e-05)
(-0.1552677222 -0.01174623233 -4.720840265e-19 0.1551609285 1.143238615e-19 0.0001067937689)
(-0.1371143312 -0.01170566101 -1.676768534e-19 0.1369546867 7.017946267e-19 0.0001596444735)
(-0.117486879 -0.01081586094 -2.404583256e-19 0.1172841184 2.84630418e-19 0.0002027605828)
(-0.1000015582 -0.009817679024 -8.545881513e-19 0.09976514946 1.550868116e-18 0.0002364087163)
(-0.08329561016 -0.008722932001 -4.863768534e-19 0.08303577442 -6.854696063e-19 0.000259835737)
(-0.06901603226 -0.007705309912 -5.133796502e-19 0.06874439295 2.1897583e-18 0.0002716393084)
(-0.05621304612 -0.006824251847 -2.257916569e-19 0.05594340188 -1.497704266e-18 0.0002696442467)
(-0.04522123413 -0.00600717532 -8.869252438e-19 0.04497004711 8.516547253e-19 0.0002511870195)
(-0.03638302863 -0.005427858094 -5.668452454e-21 0.03617024763 -1.447647704e-18 0.0002127810024)
(-0.0290620726 -0.004939052498 -2.639723572e-20 0.02891157199 2.127752706e-18 0.0001505006019)
(-0.02458592702 -0.004696712154 1.215542067e-19 0.02452640757 -2.987622352e-18 5.951945407e-05)
(-0.1655207948 -0.03018745159 -4.076985244e-20 0.1654795277 2.447143554e-19 4.126709734e-05)
(-0.1506603632 -0.0346425838 -4.76664265e-19 0.1505570018 -4.674856761e-19 0.0001033614227)
(-0.1318721259 -0.0343865932 -9.618448641e-20 0.131717577 1.849252841e-19 0.0001545488701)
(-0.1122990338 -0.03170928767 9.462917712e-19 0.1121027536 -1.268207791e-18 0.0001962802452)
(-0.09504381003 -0.02873701013 -9.391078787e-19 0.09481497858 -1.959330277e-20 0.0002288314446)
(-0.07868039422 -0.02550454945 8.095066736e-19 0.07842889389 -1.286570697e-18 0.0002515003313)
(-0.06476495381 -0.02250138771 -1.259272646e-18 0.06450206061 -6.308822665e-19 0.000262893197)
(-0.05226331889 -0.01991129549 -1.780922315e-18 0.05200237618 -2.005859093e-18 0.0002609427061)
(-0.04157758023 -0.01750182723 -1.032482233e-18 0.04133454072 6.224596422e-19 0.0002430395094)
(-0.03292774588 -0.01580252459 3.013632365e-19 0.03272189577 -3.59525723e-19 0.0002058501084)
(-0.02575717352 -0.01435156356 -1.692775122e-18 0.02561161741 2.346582984e-20 0.0001455561084)
(-0.02134362181 -0.01363968705 4.504654974e-19 0.02128607373 -3.242283846e-19 5.754807598e-05)
(-0.1601836116 -0.04955520458 -4.355841056e-19 0.1601442254 2.66860319e-19 3.938618866e-05)
(-0.1418027176 -0.05580293037 -5.705611402e-19 0.1417040705 2.139226733e-19 9.864709858e-05)
(-0.1218484656 -0.05490995306 -1.17131366e-18 0.1217009772 1.509514382e-18 0.0001474883582)
(-0.102404013 -0.05038452518 -8.708521197e-20 0.1022166988 -6.778946867e-19 0.0001873141974)
(-0.08560479261 -0.04547959033 -1.184830935e-18 0.08538641971 1.70764638e-18 0.0002183729019)
(-0.06990172542 -0.04021383713 -7.118856443e-19 0.06966173385 -1.202306084e-18 0.0002399915692)
(-0.05669407317 -0.03535419885 -1.562293638e-18 0.05644322783 1.199129364e-18 0.000250845341)
(-0.04476150032 -0.03115305266 4.600246886e-19 0.04451254835 -7.898484118e-19 0.000248951963)
(-0.03468221812 -0.02726894949 4.264272518e-20 0.03445038148 1.444354407e-18 0.0002318366441)
(-0.02637196705 -0.02450053438 7.125781245e-20 0.02617564943 -2.488550857e-18 0.0001963176238)
(-0.0195240101 -0.02214503055 -8.997373023e-19 0.01938523102 1.310165131e-18 0.0001387790753)
(-0.01519863164 -0.02095917327 6.651247097e-19 0.01514378628 -2.499430906e-18 5.484535405e-05)
(-0.1524244177 -0.0678431064 5.926626139e-19 0.1523874114 -1.276396093e-18 3.700628296e-05)
(-0.1293658708 -0.07425232297 2.642113666e-19 0.129273178 3.874503362e-19 9.269278345e-05)
(-0.1079119685 -0.07208143332 -2.989723893e-19 0.1077733936 -2.32005845e-19 0.0001385748485)
(-0.08871036597 -0.06561847902 4.32420481e-19 0.08853436916 9.815159891e-19 0.000175996807)
(-0.07258412386 -0.05885083798 -5.257331116e-19 0.07237895356 -9.625830854e-19 0.0002051702959)
(-0.05782976027 -0.05171696118 -2.601857581e-19 0.05760429244 3.88346557e-19 0.0002254678295)
(-0.04561731275 -0.04520180527 -1.334246271e-18 0.04538166796 3.603083837e-19 0.0002356447913)
(-0.03450349347 -0.03954606486 -2.873294357e-18 0.03426965878 5.75679222e-19 0.0002338346951)
(-0.02526247408 -0.03436279639 -1.476665617e-18 0.025044751 -1.515309162e-18 0.0002177230745)
(-0.01745682787 -0.03061564672 -1.508590541e-18 0.01727250388 2.709812115e-18 0.0001843239907)
(-0.01104535306 -0.02742736243 -1.197712785e-18 0.01091508858 -1.511628797e-18 0.000130264476)
(-0.006872782562 -0.02578710172 3.2353735e-19 0.006821322131 1.619587211e-18 5.146043125e-05)
(-0.1425134525 -0.08471307607 1.423144129e-19 0.1424792937 5.251581511e-19 3.415881226e-05)
(-0.1142707561 -0.08928262511 8.505214498e-19 0.1141851837 1.070223496e-19 8.557238464e-05)
(-0.09125262578 -0.08505003698 -7.399197347e-19 0.09112470749 5.776270113e-19 0.0001279182894)
(-0.07245905581 -0.07655014318 -7.191630119e-20 0.07229658966 -4.093304136e-19 0.000162466154)
(-0.05721445895 -0.06801256896 -1.313000063e-18 0.0570250744 -1.983041061e-19 0.0001893845481)
(-0.04364019722 -0.05922181173 3.212959936e-19 0.04343209065 5.402032209e-19 0.0002081065736)
(-0.03265476669 -0.05130649077 4.231786937e-19 0.03243729228 2.093797163e-19 0.0002174744052)
(-0.02254029798 -0.04439260836 -1.40555565e-18 0.02232452568 1.044916082e-18 0.0002157722946)
(-0.01433473085 -0.03814048522 1.073242795e-18 0.01413386811 1.29581992e-18 0.0002008627464)
(-0.007139821962 -0.0335209685 1.124117205e-18 0.006969815835 -1.995221904e-19 0.0001700061273)
(-0.001289604304 -0.02961353648 -3.208666649e-18 0.001169501265 9.653968006e-19 0.0001201030386)
(0.002695097753 -0.02752334619 4.521610278e-19 -0.002742519338 1.558904318e-19 4.74215842e-05)
(-0.1307766924 -0.09990650105 -1.009952457e-18 0.13074581 1.008246125e-18 3.088230397e-05)
(-0.09758755815 -0.1005000005 2.77248286e-19 0.09751018092 6.6887604e-19 7.737722674e-05)
(-0.07324382185 -0.09338497469 -7.821514549e-19 0.07312816547 1.044668475e-18 0.000115656372)
(-0.05508412821 -0.08275908121 -4.844792185e-19 0.05493723372 1.391453521e-18 0.0001468944935)
(-0.04091143049 -0.07256997446 -8.987535907e-20 0.04074021116 -2.143201366e-19 0.0001712193326)
(-0.02869829528 -0.06236464866 -1.203552292e-18 0.02851016556 1.03447184e-18 0.0001881297156)
(-0.01908359417 -0.05333725718 7.54747588e-19 0.0188870235 -2.457998042e-19 0.0001965706709)
(-0.01011210839 -0.04538893981 -1.683108737e-18 0.00991711043 3.205558695e-19 0.0001949979574)
(-0.003044240748 -0.03831950559 -3.242866155e-18 0.002862761123 -1.570662929e-18 0.0001814796245)
(0.003431282426 -0.03295576188 8.272840156e-19 -0.003584836504 1.8475111e-18 0.0001535540782)
(0.00865462341 -0.02843956339 1.744734419e-18 -0.00876306052 -8.131993938e-19 0.0001084371099)
(0.01239200919 -0.02592378575 -6.394656811e-19 -0.01243480057 4.807538207e-19 4.279137842e-05)
(-0.1175636438 -0.1132561864 4.856281487e-19 0.1175364264 -5.864970651e-19 2.721738688e-05)
(-0.08042007425 -0.1078671403 4.797161122e-20 0.08035186661 7.034188097e-19 6.820764643e-05)
(-0.05530154575 -0.09711630711 1.904118566e-18 0.0551996046 -1.179284785e-18 0.0001019411487)
(-0.03805683643 -0.0843094153 -1.632094769e-18 0.03792736181 -2.003808543e-20 0.0001294746166)
(-0.02513509819 -0.0726058935 3.023037786e-19 0.02498419877 -2.486134909e-18 0.000150899424)
(-0.01439537181 -0.06124028858 -9.283459824e-19 0.01422958764 1.424395605e-18 0.0001657841735)
(-0.006228023609 -0.05139531004 1.742657676e-18 0.006054833558 -1.866114367e-18 0.0001731900503)
(0.001537647939 -0.04264286662 -3.925258224e-19 -0.00170941399 1.129246599e-18 0.0001717660509)
(0.007413782953 -0.0350154889 1.741515115e-18 -0.007573590006 4.779381826e-19 0.000159807053)
(0.01312526409 -0.0290380644 -1.839492246e-18 -0.01326042889 1.168831188e-18 0.0001351648009)
(0.01766340163 -0.02404228998 -5.899414205e-19 -0.01775880194 -3.128998828e-18 9.540030642e-05)
(0.02111571513 -0.02111844193 -1.030563784e-18 -0.02115333321 3.05822311e-18 3.761808418e-05)
(-0.1032271618 -0.1246828668 1.459756751e-19 0.1032039494 3.003971015e-19 2.321240728e-05)
(-0.06380047489 -0.1116810121 -4.658082816e-19 0.06374229318 5.297607972e-19 5.818171023e-05)
(-0.03872805907 -0.09671498099 -7.731682349e-19 0.03864111067 6.630407658e-19 8.694839595e-05)
(-0.02272921238 -0.08172764776 9.005222476e-19 0.02261878291 -1.018480581e-19 0.0001104294745)
(-0.01121262457 -0.06866587914 -2.809601505e-18 0.01108393908 1.883185674e-18 0.0001286854852)
(-0.002007984369 -0.05638885814 -5.414447001e-19 0.001866628426 -1.121331164e-19 0.0001413559431)
(0.004723619077 -0.04600568294 -2.60966039e-18 -0.004871252997 1.25384387e-18 0.0001476339196)
(0.01125612215 -0.03666755822 6.335924175e-19 -0.01140249726 8.215653148e-19 0.0001463751118)
(0.0159776627 -0.02872377361 -2.038472505e-18 -0.01611379004 -7.118933641e-19 0.0001361273371)
(0.02087934064 -0.02226056532 6.508852799e-19 -0.02099441827 1.564149176e-18 0.0001150776306)
(0.02472234647 -0.01690510078 6.834823198e-19 -0.02480351434 1.433139673e-18 8.116787917e-05)
(0.02783498216 -0.01360660111 -9.797454086e-19 -0.02786695732 6.529566339e-19 3.197516468e-05)
(-0.08809008933 -0.1341879402 2.669751748e-19 0.08807117318 2.116386179e-19 1.891615303e-05)
(-0.04857201854 -0.1125311938 7.240632042e-19 0.04852459463 7.904630236e-19 4.742390152e-05)
(-0.02457778293 -0.09303144083 8.812937765e-19 0.02450691893 -9.088920261e-19 7.086399707e-05)
(-0.01018486682 -0.07593792989 -5.265395278e-19 0.01009487026 9.477893835e-20 8.999655461e-05)
(-0.0002131139089 -0.06168890289 1.247246565e-18 0.0001082601287 -3.539209895e-19 0.0001048537802)
(0.007451843259 -0.04873022486 -2.017125686e-18 -0.007566993212 5.530706764e-19 0.0001151499527)
(0.01281056629 -0.03804962112 9.233865119e-19 -0.01293078586 5.640568551e-19 0.0001202195695)
(0.01814906386 -0.02832131207 -1.869776951e-18 -0.01826820545 1.281670987e-19 0.0001191415865)
(0.02178952174 -0.02026292984 2.212385865e-18 -0.02190025383 2.123505672e-18 0.0001107320908)
(0.02588914763 -0.01343383752 -2.023465145e-18 -0.02598268838 1.076339827e-18 9.35407451e-05)
(0.02903753833 -0.007824689789 2.47179481e-18 -0.02910344904 -2.020922047e-18 6.591070488e-05)
(0.03176953576 -0.004185831416 -1.776382069e-18 -0.03179546326 1.365768121e-18 2.592750085e-05)
(-0.0724336535 -0.1418369962 -2.339528895e-19 0.0724192692 5.092930609e-19 1.438430285e-05)
(-0.0353210854 -0.1112215497 -5.212342357e-19 0.03528501322 -4.417739077e-19 3.607218127e-05)
(-0.01354722997 -0.08718999055 4.493158662e-20 0.01349333711 -4.867378275e-20 5.389286543e-05)
(-0.001130488522 -0.06815029605 -1.022847661e-18 0.001062052582 1.419571088e-18 6.843593999e-05)
(0.00718286759 -0.05289630506 9.294853827e-19 -0.007262575503 3.863524332e-19 7.970791307e-05)
(0.0133348772 -0.03945320288 -6.484752109e-19 -0.0134223765 1.367034174e-18 8.749929858e-05)
(0.01743934418 -0.02866404495 -2.459676559e-19 -0.01753064104 -8.680693974e-19 9.129686245e-05)
(0.02163872429 -0.01870143429 1.617408164e-20 -0.02172913588 1.874873258e-18 9.041159242e-05)
(0.02433002499 -0.0106843527 4.450903362e-19 -0.02441397152 1.790128628e-20 8.394653354e-05)
(0.02762847991 -0.003587201005 1.779718054e-18 -0.0276993076 -1.118447484e-18 7.082768912e-05)
(0.0301173346 0.002176336128 -1.159126546e-18 -0.03016716032 3.757222126e-19 4.982572351e-05)
(0.03242216816 0.006121202255 1.207350069e-18 -0.03244172213 -5.402955057e-19 1.95539688e-05)
(-0.05647555379 -0.1477366594 -4.893065086e-19 0.05646588188 3.826811822e-19 9.671903746e-06)
(-0.02431343083 -0.1086615478 -9.550906259e-21 0.02428916348 3.855328064e-19 2.426735491e-05)
(-0.005909943713 -0.08045064473 -8.481098405e-19 0.005873698173 7.845773538e-19 3.624554026e-05)
(0.00417884896 -0.05971413706 -2.164989126e-20 -0.004224865267 -2.85227014e-19 4.601630713e-05)
(0.01073799439 -0.04364826272 -5.282365936e-19 -0.01079155536 4.547481331e-19 5.356097133e-05)
(0.01543331734 -0.02988109228 5.399488748e-19 -0.01549206696 -9.057769184e-20 5.874961965e-05)
(0.01841682105 -0.01911044515 2.051895238e-19 -0.01847804757 4.141529258e-19 6.122652044e-05)
(0.02156731896 -0.009029316262 -4.234097187e-19 -0.02162786462 -5.245427917e-20 6.054565392e-05)
(0.02344343922 -0.001143893365 9.420064089e-19 -0.02349954459 6.400075808e-20 5.610537331e-05)
(0.02597812089 0.006134659636 -8.743824084e-19 -0.0260253465 -2.187924972e-19 4.722561301e-05)
(0.02783598403 0.01199131933 7.651669014e-19 -0.02786909911 1.352080044e-19 3.311508007e-05)
(0.02968451861 0.0161798663 -1.264644909e-18 -0.02969745469 9.754415596e-20 1.2936079e-05)
(-0.040372077 -0.1520134028 7.776276374e-20 0.04036723719 -1.158053791e-20 4.839803836e-06)
(-0.01548731378 -0.1057670113 -3.104047931e-19 0.01547515364 -6.355939544e-19 1.216013893e-05)
(-0.001494411343 -0.07406588831 1.296377893e-19 0.001476264975 -4.276812419e-20 1.814636769e-05)
(0.005957270565 -0.05196805533 -3.859315501e-19 -0.005980292607 2.110967519e-19 2.302204233e-05)
(0.01069104601 -0.03528825067 -5.599901e-20 -0.01071779077 8.338353239e-19 2.674475993e-05)
(0.01398785663 -0.02131847917 -2.578696054e-19 -0.01401712125 2.515132536e-19 2.926462842e-05)
(0.01599289975 -0.01063092049 -2.491169021e-19 -0.01602328932 2.430330118e-19 3.038956477e-05)
(0.01817020875 -0.0005035923912 3.475105e-19 -0.01820012865 1.138395759e-18 2.991989961e-05)
(0.01938245187 0.007213255356 1.977704634e-19 -0.01941001158 -3.133139587e-19 2.755970604e-05)
(0.02116662709 0.01461388749 -2.9065759e-19 -0.02118965492 -5.246472645e-19 2.30278326e-05)
(0.02245102873 0.02050519788 -7.670058295e-19 -0.02246701409 1.974638829e-19 1.5985365e-05)
(0.02379208017 0.02490045945 3.870754859e-19 -0.02379823201 -1.560438933e-19 6.151839807e-06)
(-0.02421556985 -0.1547856879 2.084618171e-19 0.02421562308 5.01359764e-20 -5.32295696e-08)
(-0.00847551564 -0.1033341349 -7.049598025e-20 0.008475615175 4.201550487e-20 -9.953586818e-08)
(0.0002772250359 -0.06912643854 -7.24824837e-19 -0.0002770450516 3.8648365e-19 -1.799842918e-07)
(0.004851174773 -0.04607515564 -3.361975363e-19 -0.004850914407 5.072782614e-20 -2.603657933e-07)
(0.007707803026 -0.02898604042 -5.264426195e-19 -0.007707396529 4.607295146e-19 -4.06496538e-07)
(0.009663762103 -0.01490070742 1.773106387e-19 -0.009663175427 -5.155101354e-20 -5.866762011e-07)
(0.01080406829 -0.004306826986 -5.999802925e-19 -0.01080324021 5.980634866e-19 -8.280742413e-07)
(0.01208748785 0.005831901717 3.32895611e-19 -0.01208640832 -2.317535899e-19 -1.079530411e-06)
(0.01274337024 0.01340038216 -2.350676532e-19 -0.01274204028 5.867937739e-20 -1.329956951e-06)
(0.01381800522 0.02087412678 -3.021676096e-19 -0.01381655023 -3.911322461e-19 -1.45498522e-06)
(0.01454802354 0.0267791407 -7.489501811e-19 -0.01454668279 2.010021225e-19 -1.340751935e-06)
(0.01538303079 0.03130696661 -2.539353115e-20 -0.01538232566 -2.596231756e-19 -7.051337371e-07)
(-0.008049419478 -0.1561468589 5.596248054e-20 0.008054363393 2.126658418e-20 -4.943915007e-06)
(-0.002657869934 -0.1019592905 -1.099050555e-19 0.00267022521 -2.946614946e-19 -1.235527589e-05)
(0.0003209384644 -0.06644143286 -1.949913523e-19 -0.0003024379423 1.306608809e-19 -1.850052215e-05)
(0.001863379337 -0.0428984405 -1.916171932e-19 -0.001839843606 2.578396576e-20 -2.353573087e-05)
(0.002813859518 -0.02560513527 -1.441872369e-19 -0.002786310892 5.234716864e-19 -2.75486267e-05)
(0.003462454952 -0.01146657602 -2.562948064e-19 -0.003432027746 2.160198803e-19 -3.042720517e-05)
(0.003822189921 -0.0009332409077 -1.05976406e-19 -0.003790157769 4.228725403e-19 -3.203215257e-05)
(0.004248587905 0.009207498256 -2.00473835e-19 -0.004216524007 4.125242165e-19 -3.206389802e-05)
(0.004442091098 0.01668667176 -4.319243827e-19 -0.004411888711 7.709556513e-20 -3.02023867e-05)
(0.004803598031 0.02419859189 -2.893716164e-19 -0.004777676217 -2.075013022e-19 -2.592181421e-05)
(0.005029536398 0.03009976078 -5.945999892e-19 -0.005010882685 2.063603715e-19 -1.865371327e-05)
(0.005310263227 0.03470237982 7.858700446e-20 -0.005302705297 -1.980169338e-19 -7.557930413e-06)
(0.008116647684 -0.1561467282 1.471912064e-19 -0.008106874868 1.211497044e-19 -9.772816526e-06)
(0.002739556763 -0.1019561945 -1.371299551e-20 -0.002715101238 5.060340358e-20 -2.445552495e-05)
(-0.0002394208786 -0.06643890148 -4.28653709e-19 0.0002760088006 2.270525148e-19 -3.658792197e-05)
(-0.001781444029 -0.04289396769 -2.456693514e-20 0.001827958281 1.662337744e-20 -4.651425215e-05)
(-0.002746567093 -0.02560390523 -1.518080468e-19 0.002800910493 3.798395484e-19 -5.434339992e-05)
(-0.003389953362 -0.01146094281 -7.410888721e-20 0.003449836996 5.881316991e-20 -5.988363418e-05)
(-0.003785486042 -0.0009343185697 -1.427498294e-20 0.003848317878 3.49988659e-19 -6.28318362e-05)
(-0.004192397665 0.009214363633 -3.401519018e-19 0.00425503996 -3.974742754e-20 -6.26422948e-05)
(-0.00444487385 0.0166841784 -3.878794436e-19 0.004503565755 4.627280425e-20 -5.869190431e-05)
(-0.004774025664 0.02420560561 -6.778113593e-19 0.004824083575 -2.521145516e-19 -5.005791144e-05)
(-0.005065726906 0.03009923285 -1.663742992e-19 0.005101454261 1.722411768e-19 -3.57273549e-05)
(-0.005315882529 0.03470891686 -5.881391172e-19 0.005330193831 -2.649780272e-19 -1.431130224e-05)
(0.02428390917 -0.1547848333 5.285595147e-20 -0.02426943195 7.381630492e-20 -1.447722723e-05)
(0.008555564916 -0.1033248738 -5.701315841e-20 -0.008519319248 -1.047543614e-19 -3.624566823e-05)
(-0.0001970109677 -0.06911869354 -2.309526206e-19 0.0002512228452 1.204786229e-19 -5.421187759e-05)
(-0.004772513324 -0.04606210075 -1.871759132e-19 0.004841417545 -2.340432086e-19 -6.890422043e-05)
(-0.007641186381 -0.02898157594 -1.989111042e-19 0.007721637264 4.507427834e-19 -8.045088256e-05)
(-0.009596049628 -0.0148845695 -2.842906929e-19 0.009684633177 6.657243058e-21 -8.858354844e-05)
(-0.01076657089 -0.004307984697 -2.939422216e-19 0.01085940908 4.682585718e-19 -9.283819344e-05)
(-0.01203757308 0.005851180777 -6.114569713e-19 0.01213000423 5.367792843e-19 -9.243115293e-05)
(-0.01274464616 0.01339629772 -6.84849698e-19 0.01283108876 1.942711706e-19 -8.644259463e-05)
(-0.0137943805 0.02089341815 -7.23779894e-20 0.01386794658 -7.794557325e-20 -7.356608369e-05)
(-0.01458408066 0.02677960545 -6.722125046e-19 0.01463643513 4.268225823e-19 -5.235446628e-05)
(-0.01538992072 0.031323135 1.06069276e-19 0.015410809 -2.850297128e-19 -2.088828555e-05)
(0.04044239377 -0.1520109484 1.968827099e-19 -0.04042339355 1.7356106e-19 -1.900022285e-05)
(0.01556441871 -0.1057522929 6.623673211e-20 -0.01551683842 6.558674676e-20 -4.758028609e-05)
(0.001572182157 -0.07405332415 1.006015565e-19 -0.001501028006 3.545634468e-19 -7.115415093e-05)
(-0.00588429899 -0.05194784991 -2.49961161e-19 0.005974726443 -2.504309013e-20 -9.042745307e-05)
(-0.0106256514 -0.03528061545 3.665515216e-19 0.0107311978 4.182667565e-19 -0.0001055463988)
(-0.01392781308 -0.0212937788 -3.413989999e-19 0.01404398188 4.894238955e-20 -0.0001161688039)
(-0.01595384178 -0.0106316608 1.801638942e-19 0.01607551802 3.173802709e-19 -0.0001216762426)
(-0.01812944648 -0.0004741649005 -6.343739861e-19 0.01825050244 -2.335439034e-19 -0.000121055954)
(-0.01938054771 0.007207967801 4.381829272e-20 0.01949365191 -1.723663141e-19 -0.0001131041958)
(-0.02115204294 0.01464305962 -1.2479775e-18 0.02124818901 -1.319950526e-19 -9.614606599e-05)
(-0.02248622785 0.02050605994 1.218518064e-19 0.0225545481 4.721892835e-19 -6.832025108e-05)
(-0.02380913035 0.02492250038 -1.191474721e-18 0.02383633023 -5.051096479e-19 -2.719988117e-05)
(0.05654806497 -0.1477311219 -6.073607046e-19 -0.0565247823 -2.303309272e-19 -2.328267392e-05)
(0.02438626481 -0.1086421663 2.085483497e-19 -0.02432795077 -1.770924463e-19 -5.831404071e-05)
(0.005984036216 -0.08043366786 -1.181217691e-19 -0.005896837835 1.058307872e-19 -8.719838052e-05)
(-0.004113844509 -0.05968898852 4.944651402e-19 0.004224654454 -1.758048217e-19 -0.0001108099451)
(-0.01067474937 -0.04363724612 -5.621471626e-19 0.01080406009 -1.915324461e-20 -0.000129310727)
(-0.01538416615 -0.02985155168 1.554377268e-19 0.01552645571 -6.886602335e-20 -0.000142289557)
(-0.01837608168 -0.01910947395 1.318942965e-19 0.01852506242 1.603420944e-19 -0.0001489807402)
(-0.0215400329 -0.008995110093 1.678969096e-19 0.02168818894 1.110307578e-18 -0.0001481560382)
(-0.02343733033 -0.001149045874 -1.358844609e-18 0.02357567236 4.15812419e-19 -0.0001383420303)
(-0.02597639275 0.006168516379 1.345561635e-18 0.02609391001 5.603916546e-19 -0.0001175172634)
(-0.02786979597 0.01199222486 -1.334517432e-18 0.02795322428 1.566909876e-19 -8.342831661e-05)
(-0.02970905828 0.01620807465 8.683111343e-19 0.02974222997 5.601243987e-20 -3.317169007e-05)
(0.07250800732 -0.1418268696 6.968712218e-21 -0.0724807341 -2.707289154e-19 -2.727322197e-05)
(0.03538895275 -0.1111986007 1.983766974e-20 -0.03532063757 -5.852226984e-19 -6.831517878e-05)
(0.01361658913 -0.08716922134 -1.751278398e-20 -0.01351444242 -6.198854896e-20 -0.0001021467129)
(0.001186542642 -0.06812256377 -2.353767652e-19 -0.00105674313 9.728384501e-20 -0.0001297995118)
(-0.007123209643 -0.05288148244 -4.339101423e-19 0.007274659253 2.497457003e-19 -0.0001514496095)
(-0.01329750605 -0.03942221906 2.043373727e-19 0.01346412757 -5.209310029e-19 -0.000166621518)
(-0.01739895732 -0.02865863717 2.365539242e-19 0.01757336964 -7.231471127e-19 -0.0001744123149)
(-0.02162539986 -0.018666891 4.503510018e-19 0.02179879304 5.408145998e-19 -0.0001733931794)
(-0.02432218274 -0.01068478204 2.58105625e-19 0.02448402279 -9.732781035e-19 -0.0001618400524)
(-0.02763955107 -0.003553709649 -4.421262835e-19 0.02777696112 -7.492177493e-19 -0.0001374100465)
(-0.03015063034 0.002179753956 9.347308871e-19 0.03024811665 1.833670074e-18 -9.748630801e-05)
(-0.03245307356 0.00614759718 -6.334954728e-19 0.03249179868 -4.343333463e-19 -3.872511855e-05)
(0.08816509197 -0.134171768 5.450011126e-19 -0.08813417284 4.764163993e-19 -3.091913156e-05)
(0.04863434215 -0.112505706 2.049327473e-19 -0.04855688744 -1.469409649e-19 -7.745471379e-05)
(0.02464154465 -0.09300763907 1.034780859e-18 -0.02452573735 4.436722334e-19 -0.0001158072966)
(0.01023187911 -0.07590986109 8.473736737e-19 -0.0100847259 1.293502033e-19 -0.0001471532138)
(0.0002682059881 -0.06167052082 -1.798164817e-20 -9.652599568e-05 -4.193125925e-19 -0.0001716799924)
(-0.007425449736 -0.04870068344 2.716951814e-19 0.007614303946 1.904228174e-19 -0.0001888542095)
(-0.01277124908 -0.03803914897 -1.072959529e-19 0.01296889576 -9.374884828e-19 -0.0001976466812)
(-0.01814775005 -0.02828965297 6.167574516e-19 0.01834419645 4.93154107e-19 -0.0001964463945)
(-0.02177948666 -0.02025803573 -1.526345973e-18 0.02196278677 1.686607556e-18 -0.0001833001165)
(-0.02591082604 -0.01340394371 1.385985154e-18 0.02606639908 -5.289636036e-19 -0.0001555730359)
(-0.02906886537 -0.00781920621 -5.494567828e-19 0.02917918323 -1.616884621e-18 -0.0001103178639)
(-0.03180857416 -0.004165955242 5.71988847e-19 0.03185236637 9.142493564e-19 -4.379220509e-05)
(0.1033012212 -0.1246597131 -6.489891477e-19 -0.1032670438 -7.656248078e-19 -3.417736084e-05)
(0.06385723929 -0.1116540688 4.683023217e-19 -0.0637716179 -2.421185244e-19 -8.562139196e-05)
(0.03878571045 -0.09668914041 -1.212519725e-18 -0.03865769755 -2.219671387e-18 -0.0001280128922)
(0.02276780241 -0.08170156344 7.872510619e-20 -0.02260514452 1.341856038e-18 -0.0001626578904)
(0.01126200101 -0.06864443081 -2.349484924e-18 -0.01107224769 -1.248648208e-18 -0.0001897533124)
(0.002024618653 -0.05636446352 7.457177073e-19 -0.001815904523 5.797693446e-19 -0.0002087141298)
(-0.004687645021 -0.04598925071 -2.084557021e-18 0.004906043065 -2.493125524e-18 -0.0002183980441)
(-0.01126500102 -0.0366441666 7.874131314e-19 0.01148203291 -5.938080817e-20 -0.0002170318845)
(-0.0159681589 -0.02871150445 8.009094605e-19 0.01617061667 -2.189616752e-18 -0.0002024577717)
(-0.02090907057 -0.02223906827 5.101827937e-19 0.02108085294 1.705719182e-18 -0.00017178237)
(-0.02475243628 -0.01689593356 -2.123462945e-18 0.02487420057 4.325424881e-19 -0.0001217642911)
(-0.02787573649 -0.01358907189 1.817672725e-18 0.02792404627 7.988287213e-19 -4.830977608e-05)
(0.1176345681 -0.1132257371 1.716331834e-19 -0.117597564 -7.751062784e-19 -3.70040612e-05)
(0.08047131402 -0.1078395481 4.213750575e-20 -0.08037860518 4.640347989e-19 -9.270883849e-05)
(0.05535244988 -0.09708930475 8.329848995e-19 -0.05521384438 5.084405959e-19 -0.0001386054946)
(0.03808826096 -0.08428644373 -8.869911698e-20 -0.03791214749 -1.594695623e-18 -0.0001761134773)
(0.02517697542 -0.07258201594 2.214736543e-18 -0.02497153908 2.042889172e-18 -0.0002054363415)
(0.01440486025 -0.06122157472 -4.52122252e-19 -0.01417891523 -4.322113364e-19 -0.0002259450145)
(0.006256778214 -0.05137298085 7.171296882e-19 -0.006020379946 1.857080513e-18 -0.000236398268)
(-0.001552376211 -0.04262709933 9.454810561e-19 0.001787259276 -1.723264613e-18 -0.0002348830646)
(-0.007409886413 -0.03499527513 -6.973024021e-19 0.007628950649 1.422895607e-18 -0.0002190642353)
(-0.01315774586 -0.02902407017 1.72200395e-18 0.01334357177 -4.301059297e-19 -0.0001858259045)
(-0.01769421759 -0.02402846249 1.726238235e-18 0.01782589189 -1.065940473e-18 -0.000131674294)
(-0.02115241535 -0.02110864924 6.903521162e-19 0.02120463149 1.716736206e-18 -5.221614433e-05)
(0.1308425152 -0.09986913272 2.827130578e-19 -0.1308031484 -6.430972457e-19 -3.936681299e-05)
(0.09763373704 -0.1004723265 8.481251602e-19 -0.09753510498 -1.267332906e-18 -9.863206551e-05)
(0.0732882837 -0.09335767408 -1.314211338e-18 -0.0731408266 -1.853068525e-18 -0.000147457109)
(0.05511009451 -0.08273987151 -3.005834466e-19 -0.05492273768 -1.663727299e-19 -0.0001873568356)
(0.04094596197 -0.07254451779 -1.622696888e-19 -0.04072742286 -2.447238459e-18 -0.0002185391108)
(0.0287033822 -0.06235203756 4.552149891e-19 -0.02846304372 2.276906664e-18 -0.0002403384774)
(0.01910507186 -0.05330962166 4.866024377e-19 -0.01885364142 -2.005927277e-18 -0.0002514304391)
(0.01009507644 -0.04538086147 -5.533488171e-19 -0.009845290278 1.853061136e-18 -0.0002497861638)
(0.003043314803 -0.03829124934 3.015677756e-18 -0.002810392486 -2.90103589e-18 -0.0002329223166)
(-0.003463351477 -0.03294853022 9.421660194e-19 0.003660891515 3.058608081e-18 -0.0001975400384)
(-0.008684916397 -0.02841970807 -2.236996487e-18 0.008824852542 -2.870235582e-18 -0.0001399361452)
(-0.01242486486 -0.02591844439 1.070848724e-18 0.01248033684 1.92898329e-18 -5.547197999e-05)
(0.1425721605 -0.08467007856 4.874895037e-19 -0.1425309278 -1.400136289e-19 -4.123271146e-05)
(0.1143122481 -0.08925528124 -1.50003026e-18 -0.1142089357 5.236520466e-19 -0.0001033124501)
(0.09129046557 -0.08502347162 -4.618459315e-19 -0.09113601433 -8.674459509e-19 -0.0001544512407)
(0.07248119301 -0.0765346995 1.476896124e-18 -0.07228495253 8.050236178e-19 -0.00019624048)
(0.05724031837 -0.06798719216 3.545540266e-19 -0.0570114289 -2.949284807e-18 -0.0002288894697)
(0.04364356248 -0.05921476913 1.999581558e-18 -0.04339185772 2.963146198e-19 -0.0002517047527)
(0.03266522388 -0.05127602257 -1.833344221e-18 -0.03240192867 -6.253434815e-19 -0.0002632952098)
(0.02252490036 -0.04439104067 2.826299504e-18 -0.02226335898 -8.893648633e-19 -0.0002615413771)
(0.0143233021 -0.0381067064 -5.060600407e-19 -0.01407945865 -5.490239976e-19 -0.000243843449)
(0.007112410451 -0.03351784592 -2.182883023e-18 -0.006905649974 -2.517646431e-18 -0.0002067604765)
(0.001256553438 -0.02958757786 1.133140785e-19 -0.001110125677 1.190258286e-18 -0.0001464277606)
(-0.002720386881 -0.02751288237 -7.963792828e-19 0.002778408379 -2.164685145e-18 -5.802149769e-05)
(0.1524747422 -0.06779603082 8.257910021e-19 -0.1524321605 1.206556439e-18 -4.25817042e-05)
(0.1294030862 -0.07422526858 5.412885635e-19 -0.1292963906 -3.086809188e-19 -0.0001066956763)
(0.1079438246 -0.07205592899 1.293124008e-18 -0.1077843188 9.138864347e-19 -0.0001595057317)
(0.08872978761 -0.06560556317 -1.514909098e-18 -0.08852712794 -9.27882568e-19 -0.0002026596744)
(0.0726016967 -0.05882628737 -8.715302899e-21 -0.07236533088 3.078774659e-19 -0.0002363658161)
(0.05783247021 -0.05171229101 -7.875287225e-19 -0.05757255889 -1.678859059e-18 -0.0002599113222)
(0.04561644781 -0.04517022954 2.636226719e-19 -0.04534459202 -1.2112168e-18 -0.0002718557948)
(0.03449021963 -0.03954539976 -5.87117863e-19 -0.03422020351 6.360249143e-19 -0.0002700161232)
(0.02523971889 -0.03432531267 -7.359648856e-19 -0.02498801081 -1.045945957e-18 -0.0002517080874)
(0.01743416262 -0.03061084152 -7.77479572e-19 -0.01722076999 5.47990925e-19 -0.000213392631)
(0.01100836389 -0.02739485347 1.801018221e-19 -0.01085727338 -2.060481953e-18 -0.0001510905082)
(0.006858449352 -0.02577327736 1.690452879e-19 -0.006798597808 1.9814244e-18 -5.985154409e-05)
(0.1602248761 -0.04950632971 -2.986654421e-19 -0.1601814827 -9.701358421e-20 -4.339335947e-05)
(0.141835984 -0.05577605234 -2.085395967e-18 -0.1417272494 8.804099921e-20 -0.0001087346505)
(0.1218749718 -0.05488625559 -1.002165027e-18 -0.1217124206 -1.116133045e-18 -0.0001625512339)
(0.1024216061 -0.05037289371 -7.150295349e-19 -0.1022150794 -8.624605447e-19 -0.0002065266676)
(0.08561489013 -0.04545726434 1.259281485e-18 -0.08537402469 -5.226960973e-19 -0.000240865446)
(0.06990481485 -0.04020948328 -8.680852136e-19 -0.06963997071 -8.526638756e-19 -0.0002648441462)