/*--------------------------------*- C++ -*----------------------------------*\
| =========                 |                                                 |
| \\      /  F ield         | foam-extend: Open Source CFD                    |
|  \\    /   O peration     | Version:  3.0                                   |
|   \\  /    A nd           | Web:         http://www.extend-project.de       |
|    \\/     M anipulation  |                                                 |
\*---------------------------------------------------------------------------*/
FoamFile
{
    version     2.0;
    format      ascii;
    class       volVectorField;
    location    "0.1";
    object      u;
}
// * * * * * * * * * * * * * * * * * * * * * * * * * * * * * * * * * * * * * //

dimensions      [0 0 0 0 0 0 0];

internalField   nonuniform List<vector> 
300
(
(2.56062 -0.473351 -0.000215463)
(0.982175 1.62218 -0.000569056)
(0.631629 -0.770518 -0.00156694)
(1.59833 0.216315 -0.00381947)
(0.913039 0.349911 -0.00841641)
(1.22484 -0.0166172 -0.0170541)
(0.903783 -0.152419 -0.0321797)
(1.03025 -0.145662 -0.0570547)
(0.951268 -0.237497 -0.0960281)
(0.992998 -0.275585 -0.141466)
(1.081 -0.291748 -0.000176537)
(0.951819 0.0589575 -0.000483809)
(0.962904 -0.0433578 -0.00137479)
(1.06144 -0.156902 -0.00350977)
(1.02307 0.196108 -0.00823602)
(0.982851 -0.0569991 -0.018094)
(1.007 0.0455852 -0.0377437)
(0.985439 -0.0588009 -0.0754862)
(1.00929 -0.0708701 -0.149974)
(1.02959 -0.126103 -0.131577)
(0.78085 0.2567 -0.000168958)
(0.615204 -0.0623038 -0.000479594)
(0.950695 0.0279705 -0.00137533)
(0.89375 0.0279123 -0.00355033)
(0.958009 -0.0614518 -0.00843725)
(1.01594 0.010837 -0.0187667)
(0.977598 -0.0479897 -0.0395344)
(1.0134 -0.044213 -0.0794565)
(0.997496 -0.10511 -0.158235)
(1.06684 -0.179806 -0.110904)
(1.02976 -0.238241 -0.000164921)
(0.99438 -0.0582961 -0.000477606)
(1.00865 -0.0584126 -0.00137805)
(1.03253 -0.0519694 -0.00357799)
(0.995159 0.0492921 -0.008549)
(0.999004 -0.0254047 -0.0191004)
(0.998754 0.0069667 -0.0403574)
(1.00498 -0.0410036 -0.0811756)
(1.02079 -0.0639907 -0.162082)
(1.07475 -0.129336 -0.0865123)
(0.725386 0.0915282 -0.000160695)
(0.816125 -0.0529955 -0.000472079)
(0.945104 -0.000750827 -0.0013711)
(0.941621 -0.00697188 -0.00357652)
(0.982699 -0.0187015 -0.00857367)
(0.997856 0.00412197 -0.0191993)
(0.995504 -0.0159781 -0.0406249)
(1.01484 -0.0182198 -0.0817545)
(1.02028 -0.052607 -0.163899)
(1.08602 -0.0962876 -0.0606288)
(1.00821 -0.206103 -0.000154856)
(0.984766 -0.0686676 -0.000461286)
(1.01267 -0.0371072 -0.00135053)
(1.01173 -0.019725 -0.00353969)
(0.997581 0.0135365 -0.00850858)
(1.00344 -0.00419704 -0.0190837)
(1.00047 0.007687 -0.0404196)
(1.0127 -0.00731922 -0.0813746)
(1.02055 -0.0211031 -0.163862)
(1.07452 -0.0518487 -0.0339545)
(0.827743 -0.0499036 -0.000146702)
(0.86951 -0.0739056 -0.000444206)
(0.956601 -0.0185787 -0.00131391)
(0.965083 -0.0148539 -0.00346377)
(0.989589 -0.0048381 -0.00835112)
(0.995569 0.00666727 -0.0187589)
(0.997768 0.00590902 -0.0397652)
(1.00972 0.0114082 -0.0800861)
(1.0114 -4.71458e-05 -0.162009)
(1.05725 -0.00941842 -0.0068741)
(1.0277 -0.182157 -0.000135833)
(0.98248 -0.0749643 -0.000419934)
(1.01096 -0.0283361 -0.00125911)
(1.00256 -0.0111212 -0.00334586)
(0.99926 0.00654931 -0.00809999)
(1.00089 0.00816735 -0.0182294)
(0.997006 0.0183464 -0.0386775)
(1.00371 0.0242259 -0.0779204)
(0.998319 0.0243994 -0.158377)
(1.02654 0.0280067 0.0202907)
(0.929542 -0.107398 -0.000122079)
(0.916747 -0.084881 -0.000387596)
(0.973519 -0.0271175 -0.00118378)
(0.978702 -0.0161856 -0.0031826)
(0.992522 0.000214527 -0.00775409)
(0.993737 0.011245 -0.0175026)
(0.992027 0.020613 -0.0371786)
(0.993662 0.0365163 -0.0749184)
(0.980139 0.0413596 -0.153023)
(0.989261 0.0580468 0.0472303)
(1.06325 -0.145877 -0.000105555)
(0.99265 -0.07386 -0.000346457)
(1.01151 -0.0241409 -0.00108495)
(0.999914 -0.00926325 -0.00296842)
(0.999317 0.0054141 -0.0073096)
(0.996366 0.0137298 -0.0165876)
(0.989196 0.0262536 -0.0353055)
(0.983907 0.0442871 -0.0711534)
(0.960559 0.0544769 -0.146048)
(0.946777 0.077295 0.0736279)
(1.01523 -0.10709 -8.67795e-05)
(0.959446 -0.0808572 -0.000296262)
(0.990014 -0.0282353 -0.000959151)
(0.988324 -0.0155491 -0.0026935)
(0.994683 0.00117313 -0.00675372)
(0.991376 0.0122313 -0.015489)
(0.98405 0.0256953 -0.0331177)
(0.971962 0.0472572 -0.0667721)
(0.939791 0.0600162 -0.13767)
(0.903011 0.0851316 0.0991094)
(1.09455 -0.0925415 -6.67781e-05)
(1.00811 -0.0615316 -0.000237928)
(1.01415 -0.0197413 -0.000803625)
(1.00086 -0.00887865 -0.00234251)
(0.999886 0.00352464 -0.00605296)
(0.993624 0.0121093 -0.01418)
(0.983563 0.0247668 -0.0306832)
(0.964745 0.045516 -0.0620701)
(0.925064 0.0586301 -0.128448)
(0.863901 0.0808628 0.122999)
(1.0764 -0.0699 -4.70972e-05)
(0.992952 -0.0628254 -0.000174502)
(1.00314 -0.0237164 -0.000619816)
(0.995837 -0.014101 -0.00189841)
(0.997714 -0.00110898 -0.00513918)
(0.991664 0.00610197 -0.0125345)
(0.981833 0.0177157 -0.0279597)
(0.957547 0.0345198 -0.0575185)
(0.911761 0.0485625 -0.119907)
(0.827546 0.0636192 0.143012)
(1.10677 -0.0262004 -2.95734e-05)
(1.02033 -0.0388993 -0.000111889)
(1.01654 -0.013371 -0.000419443)
(1.00315 -0.00804575 -0.00135994)
(1.00205 -0.000108026 -0.00391895)
(0.996079 0.00326221 -0.0102168)
(0.989042 0.0110862 -0.024356)
(0.965005 0.0209371 -0.053137)
(0.925704 0.0313566 -0.115502)
(0.817758 0.0343655 0.148251)
(1.10968 -0.0132436 -1.57661e-05)
(1.01351 -0.0347501 -5.81337e-05)
(1.01127 -0.0151814 -0.000230134)
(1.00123 -0.0112575 -0.000780407)
(1.00153 -0.00465833 -0.0023793)
(0.997088 -0.0063223 -0.00671101)
(0.992491 -0.0044716 -0.0178234)
(0.970078 -0.016856 -0.0448698)
(0.930343 -0.0137919 -0.116908)
(0.792671 -0.0671318 0.069509)
(1.09015 0.0435655 -6.16763e-06)
(1.02311 -0.00977557 -1.98816e-05)
(1.01618 -0.00485123 -9.01587e-05)
(1.00412 -0.00493239 -0.000304334)
(1.00265 -0.00235597 -0.00087023)
(0.999732 -0.00566223 -0.00222402)
(0.997437 -0.00514429 -0.00520365)
(0.993141 -0.0207673 -0.0112893)
(0.984533 -0.0184518 -0.0224213)
(0.999362 -0.08265 -0.060795)
(1.11706 0.0481419 2.8623e-07)
(1.01951 -0.00194563 3.30348e-06)
(1.01373 -0.00391429 -1.83769e-05)
(1.00317 -0.00426133 -9.36614e-05)
(1.00243 -0.00183745 -0.000286462)
(1.00046 -0.00206548 -0.000711599)
(0.999264 -0.00103858 -0.00155213)
(0.997957 -0.00323173 -0.00304704)
(0.993639 -0.00149202 -0.00532532)
(0.985771 -0.00956913 -0.0111045)
(1.03977 0.103399 5.64712e-06)
(1.01336 0.0201198 2.04703e-05)
(1.01232 0.00457854 2.48011e-05)
(1.00318 0.00143824 7.93232e-06)
(1.00274 0.000242673 -5.38015e-05)
(1.00093 -0.0004929 -0.000193652)
(1.00043 -0.000720724 -0.000454443)
(0.999852 -0.00173907 -0.000880533)
(0.998752 -0.0024111 -0.0014797)
(1.00047 -0.00334426 -0.00237245)
(1.10647 0.102876 1.14232e-05)
(1.01207 0.0293251 3.75948e-05)
(1.01169 0.00677905 6.32391e-05)
(1.00247 0.0020358 8.22774e-05)
(1.00271 0.000414231 7.79422e-05)
(1.00106 -3.04298e-05 3.26243e-05)
(1.00077 -7.28276e-05 -6.61133e-05)
(1.00011 -0.000318708 -0.000221752)
(0.999228 -0.000436986 -0.000429459)
(0.998331 -0.000585283 -0.000519146)
(0.95485 0.136837 1.86709e-05)
(0.990661 0.0436054 5.82058e-05)
(1.0045 0.0117472 0.000110032)
(1.00011 0.00663997 0.000170237)
(1.00226 0.00206756 0.000217944)
(1.00113 0.00122309 0.000226412)
(1.00126 0.000510217 0.000176768)
(1.00064 0.00015942 7.11301e-05)
(1.00022 -9.60997e-05 -6.72651e-05)
(1.00001 -0.000117872 -0.000111174)
(1.09133 0.145936 2.82075e-05)
(0.994508 0.0549508 8.46987e-05)
(1.00658 0.0156976 0.000173893)
(1.00003 0.00704626 0.000298802)
(1.00286 0.00245001 0.000434896)
(1.0018 0.00154195 0.000532802)
(1.0022 0.00109572 0.000535614)
(1.00137 0.000735045 0.000413698)
(1.00088 0.000643844 0.000197508)
(0.999959 0.000124569 1.88506e-05)
(0.838562 0.124145 4.06564e-05)
(0.957123 0.0536734 0.000118892)
(0.993191 0.0141996 0.000261742)
(0.995475 0.0101943 0.000491645)
(1.0021 0.00359787 0.000795702)
(1.00235 0.00281246 0.00110319)
(1.00357 0.0020492 0.00128211)
(1.00275 0.00138867 0.00118652)
(1.00186 0.00140749 0.000763785)
(1.00022 0.000201969 0.000193665)
(1.08918 0.182235 5.63563e-05)
(0.971654 0.0740695 0.000162009)
(1.00055 0.0231037 0.000378867)
(0.997165 0.0103394 0.00077017)
(1.00399 0.0044677 0.00137404)
(1.00454 0.00339835 0.00214118)
(1.00656 0.00388111 0.00285797)
(1.00587 0.00326173 0.00311999)
(1.0048 0.00445368 0.00247244)
(1.00102 0.00119392 0.000866498)
(0.698899 0.0399681 7.52019e-05)
(0.917254 0.0423489 0.000214248)
(0.979212 0.00833792 0.000527491)
(0.98989 0.0111445 0.00114818)
(1.00297 0.00492147 0.00223596)
(1.00673 0.00521651 0.00389068)
(1.01116 0.00622389 0.00596057)
(1.01239 0.00477367 0.00774236)
(1.00969 0.00721162 0.00772487)
(1.00256 -0.000414647 0.00404541)
(1.11753 0.231656 9.65258e-05)
(0.947618 0.0916419 0.00027412)
(0.995611 0.0324106 0.00070415)
(0.995055 0.0121243 0.00162127)
(1.0068 0.00673385 0.00340013)
(1.01143 0.00589499 0.00652732)
(1.01799 0.010526 0.0114012)
(1.02328 0.0113666 0.0177092)
(1.02264 0.0220176 0.0229058)
(1.01179 0.00666794 0.0198842)
(0.552284 -0.150191 0.000119169)
(0.879069 -0.000933945 0.000338131)
(0.963813 -0.0126645 0.000897226)
(0.982973 0.00793079 0.0021542)
(1.00357 0.00520174 0.00477716)
(1.0144 0.00954222 0.00990891)
(1.02791 0.0160105 0.0193415)
(1.04733 0.0150287 0.0355361)
(1.05094 0.0276792 0.0607259)
(1.05981 -0.0197183 0.1052)
(1.18445 0.334394 0.000141821)
(0.920297 0.122034 0.000401749)
(0.991151 0.0539676 0.00108891)
(0.993207 0.014177 0.00267991)
(1.00918 0.00895816 0.00612964)
(1.019 0.0061776 0.0132658)
(1.03098 0.0141994 0.0275457)
(1.05837 0.0254147 0.0555623)
(1.06521 0.0598483 0.105754)
(1.12319 0.113944 0.36004)
(0.43288 -0.493106 0.000163417)
(0.858941 -0.0925107 0.000461851)
(0.95135 -0.0637612 0.00126716)
(0.972524 -0.00317198 0.00314623)
(0.996146 0.000242133 0.00722046)
(1.00528 0.0163793 0.0155685)
(1.02008 0.0306733 0.0319502)
(1.03622 0.0556922 0.0630647)
(1.04929 0.101834 0.120423)
(1.05861 0.168875 0.236131)
(1.27031 0.552761 0.000183093)
(0.875092 0.191509 0.00051815)
(0.97884 0.113372 0.00143966)
(0.989246 0.0237295 0.00361082)
(1.00831 0.0185513 0.00833768)
(1.0177 0.00310726 0.0179863)
(1.02941 0.00718303 0.0366757)
(1.04714 0.0199381 0.0713471)
(1.04911 0.0492742 0.134511)
(1.04633 0.132242 0.205198)
(0.431617 -1.04959 0.000199858)
(0.617331 -0.230511 0.000547984)
(0.877884 -0.169094 0.00150532)
(0.898235 -0.025226 0.00377367)
(0.969727 -0.0219698 0.00871442)
(0.967121 0.013573 0.018764)
(0.984315 0.0314652 0.0380461)
(0.973217 0.0701555 0.0731513)
(0.980823 0.137972 0.136203)
(0.943272 0.25519 0.161073)
)
;

boundaryField
{
    frontAndBack
    {
        type            empty;
    }
    symm
    {
        type            symmetryPlane;
    }
    in
    {
        type            myVelocity;
    }
    out
    {
        type            fixedValue;
        value           uniform (1 0 0);
    }
}


// ************************************************************************* //
