/*--------------------------------*- C++ -*----------------------------------*\
| =========                 |                                                 |
| \\      /  F ield         | foam-extend: Open Source CFD                    |
|  \\    /   O peration     | Version:  3.0                                   |
|   \\  /    A nd           | Web:         http://www.extend-project.de       |
|    \\/     M anipulation  |                                                 |
\*---------------------------------------------------------------------------*/
FoamFile
{
    version     2.0;
    format      ascii;
    class       volVectorField;
    location    "11";
    object      u;
}
// * * * * * * * * * * * * * * * * * * * * * * * * * * * * * * * * * * * * * //

dimensions      [0 0 0 0 0 0 0];

internalField   nonuniform List<vector> 
2688
(
(0.1224850903 -0.05162867883 1.107769679e-18)
(0.2927950098 -0.04221381444 -3.870719265e-18)
(0.4290148312 -0.03499292845 -1.27053146e-18)
(0.5307578118 -0.02924011019 2.053389733e-18)
(0.6161622018 -0.02470301535 -7.629695713e-19)
(0.680701267 -0.02098249594 -2.603980128e-19)
(0.7373750288 -0.01796892351 -1.49900173e-18)
(0.7801492053 -0.01543518276 -3.798762528e-18)
(0.8194424262 -0.01332787125 -2.941615375e-18)
(0.8486573566 -0.01152278322 -1.341505544e-18)
(0.8768331561 -0.009978835289 -1.03226164e-18)
(0.8971305973 -0.008637266116 -9.470968928e-19)
(0.9178454032 -0.007452350383 -5.747945583e-19)
(0.9319800342 -0.006412986686 -5.493982093e-18)
(0.9474662035 -0.005459463849 1.597567345e-18)
(0.9571319789 -0.004619348668 3.061432942e-18)
(0.968800408 -0.003813370836 1.702712874e-18)
(0.9750624132 -0.003104511326 8.133743108e-19)
(0.9838251748 -0.002389646187 3.625423122e-18)
(0.9873557564 -0.001765494825 2.287436461e-18)
(0.9938092102 -0.001099545391 -3.917795481e-19)
(0.9950324388 -0.0005230465249 -1.521626987e-18)
(0.9995692527 0.0001154209969 -2.929019631e-19)
(0.9987646665 0.0007887067329 -2.105822625e-18)
(0.1340467843 -0.1542306765 3.445136784e-18)
(0.3022487674 -0.1260987229 -1.552004146e-19)
(0.4368543332 -0.1045347828 -9.461788646e-18)
(0.5373061418 -0.08734362542 -2.036146139e-18)
(0.6216948108 -0.07378989066 -2.707954819e-18)
(0.6853999926 -0.06267535543 5.999512005e-19)
(0.7413981799 -0.05366970859 -2.028265238e-18)
(0.7836047112 -0.04610280867 -1.10437146e-18)
(0.8224259325 -0.03980685551 4.065248069e-18)
(0.8512368053 -0.03441583402 4.67343429e-18)
(0.879066952 -0.02980237334 -2.062610625e-18)
(0.8990641946 -0.02579513159 -3.840179189e-18)
(0.9195137247 -0.02225415711 4.766407507e-20)
(0.9334157885 -0.01914950406 -2.527402489e-18)
(0.948688483 -0.01630044541 -2.521647818e-18)
(0.9581663021 -0.01379189721 -9.349595108e-20)
(0.9696541841 -0.01138466564 -4.139812978e-18)
(0.9757572508 -0.009267528908 -4.3429497e-18)
(0.9843594194 -0.00713006329 6.318044972e-18)
(0.9877501143 -0.00526357264 -1.215376071e-17)
(0.9940551187 -0.00327442819 6.034122422e-18)
(0.9951493024 -0.001553338642 6.459411406e-19)
(0.9995426006 0.0003563153778 4.992797325e-18)
(0.9985871298 0.00236823973 5.090164479e-18)
(0.1570204192 -0.2548948467 6.691075716e-18)
(0.3210353935 -0.2084016304 -1.873263642e-18)
(0.4524258898 -0.1727594255 -4.834691614e-18)
(0.5503153997 -0.1443480581 -1.060721601e-18)
(0.6326858579 -0.1219491499 -2.745301997e-18)
(0.6947349894 -0.1035793722 4.621220852e-18)
(0.7493914189 -0.0886960173 -5.098850859e-18)
(0.7904708159 -0.07619120013 5.873188492e-18)
(0.828354123 -0.0657863624 -5.638222453e-18)
(0.8563622113 -0.05687720352 8.063773166e-18)
(0.8835052404 -0.049252374 5.269251882e-18)
(0.9029058648 -0.04262967708 3.152059261e-18)
(0.9228280873 -0.03677700582 4.15898048e-18)
(0.9362679602 -0.03164575052 -6.350784566e-18)
(0.951116342 -0.02693654321 4.136749203e-18)
(0.9602205542 -0.02279057471 -1.0100972e-17)
(0.9713495731 -0.01881203299 1.996058422e-17)
(0.9771370348 -0.01531343332 -1.670190766e-17)
(0.9854205435 -0.01178102939 -1.300388142e-17)
(0.9885335126 -0.008696201703 1.218658634e-17)
(0.9945425233 -0.005407962175 3.001759957e-18)
(0.9953801513 -0.002563146539 -1.937100875e-17)
(0.9994887497 0.0005927556872 -7.954962966e-18)
(0.9982338999 0.003918132188 1.130344307e-17)
(0.1911224892 -0.3523513155 -1.199858484e-19)
(0.3489164819 -0.2880810241 -5.876175316e-18)
(0.4755376078 -0.2388113159 -6.202270491e-18)
(0.5696267394 -0.1995368696 3.460784013e-19)
(0.649000298 -0.1685739589 -7.695261445e-18)
(0.7085920033 -0.1431802885 4.10537353e-18)
(0.761256918 -0.122605555 -6.593289281e-18)
(0.800663298 -0.1053202195 -1.403827986e-18)
(0.8371544108 -0.09093714274 -3.122477851e-18)
(0.8639706543 -0.07862217929 -5.629821063e-18)
(0.8900935839 -0.06808198893 -1.548571283e-17)
(0.9086083646 -0.05892746353 -5.585226067e-18)
(0.9277477025 -0.05083697514 1.134230537e-17)
(0.9405013475 -0.04374397677 1.510021699e-18)
(0.9547198571 -0.03723406737 2.160346416e-18)
(0.9632695994 -0.03150292145 -8.471001577e-18)
(0.9738663275 -0.02600303634 -1.231931834e-17)
(0.979185708 -0.0211668275 5.33780446e-18)
(0.9869964268 -0.01628388563 -3.353413453e-18)
(0.989696711 -0.01201983198 -1.868272811e-17)
(0.9952657668 -0.00747429644 9.935624545e-18)
(0.9957229514 -0.00354139169 1.827567452e-17)
(0.9994091933 0.0008213115697 -1.902380672e-17)
(0.997709329 0.00541813 2.231236247e-17)
(0.2359222057 -0.4453787632 -3.723783075e-19)
(0.3855452137 -0.3641397677 6.32595838e-18)
(0.5059012965 -0.3018601064 1.135547497e-17)
(0.5949965665 -0.2522169562 7.751217179e-19)
(0.6704335204 -0.213079589 -9.464745577e-19)
(0.7267962491 -0.1809811068 1.016983712e-18)
(0.7768450344 -0.1549741297 -5.475858389e-18)
(0.8140536546 -0.133125425 -5.866626864e-18)
(0.8487159701 -0.1149451782 -9.142008623e-19)
(0.8739664896 -0.09937906551 1.400542884e-17)
(0.8987492356 -0.08605604079 -8.079204025e-19)
(0.9161001242 -0.07448457016 6.043362051e-18)
(0.9342107593 -0.06425785569 -4.844233875e-18)
(0.9460626194 -0.05529206371 9.364573137e-18)
(0.9594533501 -0.0470631333 -2.701563828e-17)
(0.9672744161 -0.03981866727 -8.559292876e-18)
(0.977171698 -0.03286651424 2.06877476e-17)
(0.9818762161 -0.02675345126 1.699488326e-18)
(0.9890659735 -0.02058149391 1.083969683e-17)
(0.9912243461 -0.01519174251 9.237425045e-18)
(0.9962152829 -0.0094461182 -1.609301279e-18)
(0.9961726135 -0.004474559672 5.516275207e-18)
(0.9993041329 0.001040073599 -3.032019295e-17)
(0.9970199675 0.00685059806 3.331916776e-17)
(0.290855727 -0.5328037157 -1.768731227e-17)
(0.4304575903 -0.4356174767 1.890482384e-20)
(0.5431320407 -0.3611124424 2.520790557e-18)
(0.626104507 -0.3017246341 -4.614490145e-19)
(0.696714022 -0.2549050109 -1.135661317e-17)
(0.7491177308 -0.2165055837 1.284852563e-18)
(0.7959585261 -0.1853931996 2.380386918e-18)
(0.8304724867 -0.1592560912 -2.723248232e-17)
(0.8628923984 -0.1375072579 -1.700363276e-17)
(0.8862231958 -0.1188860073 2.704176542e-18)
(0.9093627061 -0.102947827 -1.476386113e-18)
(0.9252865772 -0.08910520467 2.775669718e-18)
(0.9421359297 -0.07687106653 -3.458244768e-19)
(0.952882152 -0.06614545146 1.516321898e-17)
(0.9652579919 -0.05630111311 -9.203853135e-18)
(0.9721856628 -0.04763451233 3.532575522e-17)
(0.9812254471 -0.0393175041 1.428218406e-17)
(0.9851760362 -0.03200442385 1.641230454e-19)
(0.9916044659 -0.02462103513 -9.442370828e-18)
(0.9930981075 -0.01817334939 1.257898744e-18)
(0.9973802284 -0.01129986378 4.479652121e-18)
(0.9967243677 -0.00535225171 2.141226719e-17)
(0.9991756676 0.001245112004 1.6359479e-17)
(0.99617472 0.008196233652 -2.811764293e-17)
(0.3552327455 -0.6135297747 -8.364486151e-18)
(0.4830920725 -0.5016184541 -7.424140003e-18)
(0.5867641908 -0.4158240669 1.502517606e-17)
(0.6625608753 -0.3474384779 -1.223222302e-17)
(0.7275133433 -0.2935251683 -9.422182065e-18)
(0.7752771366 -0.249307581 1.071251679e-17)
(0.8183585991 -0.2134811199 6.237262174e-19)
(0.8497145013 -0.1833841057 -6.711352289e-18)
(0.8795065317 -0.15834019 3.509588696e-17)
(0.9005873953 -0.1368977865 -2.252545351e-17)
(0.9218010713 -0.1185448345 -6.161449229e-18)
(0.9360523795 -0.1026049961 1.150917213e-17)
(0.9514234445 -0.08851723691 -3.238276906e-18)
(0.9608737342 -0.07616659053 -6.966775051e-20)
(0.9720600338 -0.06483063501 -1.676529707e-17)
(0.9779405798 -0.05485084531 -1.52375117e-17)
(0.9859753638 -0.04527359869 -2.261899615e-17)
(0.989042429 -0.0368524259 -4.475410046e-18)
(0.994578672 -0.02835050247 -5.311857188e-18)
(0.9952933765 -0.02092597542 -9.250126135e-18)
(0.9987448765 -0.01301116759 -2.563906372e-17)
(0.9973705504 -0.006162336768 -2.831783002e-17)
(0.9990246767 0.00143472261 -1.951537348e-17)
(0.9951839994 0.009439082587 -4.180845031e-17)
(0.428242945 -0.6865392887 -1.565145642e-18)
(0.5427840587 -0.561310194 -9.336477026e-18)
(0.6362466592 -0.4653060935 -7.44198922e-18)
(0.7039053816 -0.3887826601 3.866358791e-18)
(0.7624421026 -0.3284538884 6.816167633e-18)
(0.8049440196 -0.278974336 -1.600209799e-17)
(0.8437619875 -0.2388843981 -2.566324272e-18)
(0.8715365844 -0.2052060966 7.153322965e-18)
(0.8983483954 -0.1771820736 1.550582969e-18)
(0.9168778407 -0.1531882814 8.417887924e-18)
(0.9359075201 -0.1326514022 9.338608014e-18)
(0.9482621501 -0.1148148804 -7.552825412e-18)
(0.9619567663 -0.09905068203 -1.568848613e-17)
(0.9699374389 -0.08523035492 3.417443013e-18)
(0.9797747322 -0.07254531487 2.058741217e-17)
(0.9844677531 -0.06137782923 -5.606777559e-18)
(0.9913628082 -0.05066069412 2.145822077e-17)
(0.9934278056 -0.04123724702 3.134160637e-18)
(0.9979522568 -0.03172351721 2.470119686e-18)
(0.9977834054 -0.02341546033 3.679917004e-18)
(1.000292921 -0.01455881693 5.186918289e-17)
(0.9981035866 -0.006894958606 -2.232142785e-17)
(0.9988535942 0.001606322472 -1.017117812e-17)
(0.9940603655 0.0105631894 -2.371468772e-17)
(0.5089689767 -0.7509161237 -2.208703268e-17)
(0.608785179 -0.6139440718 -1.744362391e-17)
(0.6909591032 -0.5089370698 2.990345942e-18)
(0.7496197546 -0.4252380525 1.696886975e-17)
(0.8010627673 -0.3592522234 1.242961145e-17)
(0.8377465273 -0.3051328856 -1.442856058e-17)
(0.8718504422 -0.2612835565 -8.669294303e-18)
(0.8956650307 -0.2244474071 1.370705428e-17)
(0.9191816312 -0.1937956582 -3.84185323e-18)
(0.9348898176 -0.1675521555 -4.022997612e-18)
(0.9515046363 -0.1450896194 -8.114365034e-18)
(0.9617619944 -0.125580709 2.120140317e-17)
(0.973602937 -0.1083383684 -1.550803834e-17)
(0.9799585817 -0.09322219201 -1.454959337e-18)
(0.9883042555 -0.07934769407 -9.151639317e-18)
(0.9916842127 -0.06713301962 -5.768863433e-18)
(0.9973190676 -0.05541090011 -1.32777251e-17)
(0.9982761479 -0.04510370452 2.05180562e-17)
(1.0016819 -0.03469783083 1.883589375e-17)
(1.000536267 -0.02561062677 -3.698743229e-18)
(1.002004294 -0.01592358917 -1.139571231e-17)
(0.9989139917 -0.007541057703 7.719332826e-18)
(0.9986642961 0.001757476754 3.284427939e-17)
(0.9928180292 0.01155429937 -4.984142409e-17)
(0.5963948749 -0.8058490601 1.180581604e-17)
(0.6802634181 -0.6588565585 -2.436480481e-17)
(0.7502118057 -0.5461675798 4.372245781e-17)
(0.7991276008 -0.4563455998 -1.537773468e-17)
(0.8428882318 -0.385532771 1.081700042e-17)
(0.8732711386 -0.3274542915 -1.27831276e-17)
(0.902269794 -0.2803971175 -6.129919957e-18)
(0.9217959236 -0.2408663578 2.209442691e-18)
(0.9417438692 -0.2079723544 8.848964885e-18)
(0.9543968181 -0.1798091245 -1.555438823e-17)
(0.9683963761 -0.15570336 7.391298033e-18)
(0.9763825027 -0.134767331 3.406020492e-18)
(0.9862159268 -0.1162635938 -1.851621611e-17)
(0.9908117167 -0.1000415987 -1.100571689e-17)
(0.9975419661 -0.08515203797 -4.801488868e-18)
(0.9994998637 -0.07204376318 -2.284893476e-17)
(1.003769914 -0.05946402603 9.320850875e-18)
(1.003527036 -0.04840273114 -3.424500265e-17)
(1.005721225 -0.03723550366 -4.010159234e-18)
(1.003517613 -0.02748341884 -2.246687998e-19)
(1.003857757 -0.01708775529 2.268792241e-17)
(0.9997915752 -0.008092044707 -2.955093234e-17)
(0.9984592336 0.001886820642 3.022815495e-17)
(0.9914723788 0.01240030529 2.416046803e-17)
(0.6894219538 -0.8506485932 1.190704362e-17)
(0.7563216534 -0.6954842042 9.680833785e-18)
(0.813261096 -0.5765300963 1.530932576e-17)
(0.8518077384 -0.4817146307 -1.461920729e-17)
(0.887393761 -0.4069650886 1.001828443e-17)
(0.9110720129 -0.3456578296 -7.10681709e-18)
(0.934638295 -0.2959844946 -1.346360016e-17)
(0.9496010618 -0.2542562582 -1.08818554e-17)
(0.9657517149 -0.2195336434 -1.251130971e-17)
(0.9751535769 -0.1898048894 -2.927727463e-17)
(0.9863703436 -0.1643590837 -1.33859112e-17)
(0.9919396682 -0.1422592657 1.264928273e-17)
(0.9996369783 -0.1227269046 -2.133426e-19)
(1.00236013 -0.1056031351 2.698041436e-17)
(1.00737146 -0.08988584951 2.488422122e-17)
(1.007816177 -0.07604885421 1.915955266e-17)
(1.010633965 -0.06276980247 -5.260151371e-18)
(1.009114271 -0.05109352123 5.490624333e-17)
(1.010019235 -0.03930544158 -1.596089606e-17)
(1.006689925 -0.02901102117 -5.681068415e-18)
(1.005829911 -0.01803747438 -1.858047576e-17)
(1.000725445 -0.008541611611 -7.108720638e-17)
(0.9982410449 0.001992066289 1.831319163e-17)
(0.9900406562 0.01309010395 -9.775767875e-18)
(0.7868796907 -0.8847502087 9.597889657e-18)
(0.8360018907 -0.7233652317 -3.064565404e-18)
(0.8793128514 -0.599642149 7.623678122e-18)
(0.9069964559 -0.5010256447 -1.57027369e-17)
(0.9340186258 -0.4232795952 4.999470707e-18)
(0.9506729815 -0.3595145364 2.050813052e-17)
(0.9685481823 -0.3078498049 -5.502013231e-18)
(0.9787303466 -0.2644487755 3.012047873e-17)
(0.9909028332 -0.2283341971 2.820691295e-17)
(0.9968988384 -0.1974136784 1.795242435e-17)
(1.005200237 -0.1709477639 -1.003709983e-17)
(1.008237699 -0.1479619884 1.301587263e-18)
(1.013697133 -0.1276465494 -7.841065091e-18)
(1.014458496 -0.1098362868 1.253780896e-20)
(1.017669046 -0.09348885321 -3.178617458e-17)
(1.01652854 -0.07909713457 -5.951135872e-17)
(1.01782493 -0.06528572429 -1.202222983e-17)
(1.014967586 -0.05314135432 -3.195295486e-18)
(1.014521947 -0.0408806712 -2.748413517e-17)
(1.010013236 -0.03017345786 -3.124660777e-17)
(1.007895949 -0.01876001809 3.616836623e-17)
(1.001703648 -0.008883510944 -1.670574178e-18)
(0.9980123684 0.002072514678 3.989181785e-17)
(0.9885405255 0.01361544574 9.988847271e-19)
(0.8875431458 -0.9077260425 7.393131544e-18)
(0.9183034864 -0.7421500475 -9.924999134e-18)
(0.9475375767 -0.6152137273 1.258040469e-18)
(0.9640008818 -0.5140362737 -1.973394541e-17)
(0.9821774504 -0.4342712532 6.854683222e-19)
(0.9915768272 -0.3688502926 9.321460648e-18)
(1.00357373 -0.315843805 -1.012650602e-17)
(1.008817989 -0.2713158168 -1.644398099e-17)
(1.016881492 -0.2342634227 2.391956471e-18)
(1.019359576 -0.2025400285 -1.910962038e-19)
(1.024649759 -0.175386867 6.443981885e-18)
(1.025072046 -0.1518042325 -3.756212479e-18)
(1.028220011 -0.1309612588 -3.470241773e-17)
(1.026955008 -0.1126885004 3.495778604e-17)
(1.028305525 -0.09591656707 -1.258856401e-17)
(1.025527605 -0.08115110466 3.385294104e-17)
(1.025252515 -0.0669810849 8.282817014e-18)
(1.021013508 -0.05452131125 2.839483251e-17)
(1.019172791 -0.0419422648 3.185041656e-17)
(1.0134459 -0.0309568267 1.292764482e-18)
(1.010029941 -0.01924704391 4.316753325e-18)
(1.002714097 -0.009113978318 6.476440833e-18)
(0.9977761888 0.002126595558 -1.374601056e-19)
(0.9869911784 0.01396936909 -2.930254779e-17)
(0.9901457519 -0.919286257 1.093994741e-18)
(1.002190157 -0.7516014754 -5.636530686e-18)
(1.017076227 -0.6230483619 -1.961427774e-17)
(1.022103031 -0.5205824177 8.82260212e-18)
(1.031263657 -0.43980165 9.694091028e-19)
(1.033268298 -0.3735474916 -1.799477924e-18)
(1.039273651 -0.3198659165 3.256597918e-18)
(1.039484901 -0.2747708684 9.471509864e-18)
(1.043360218 -0.237246622 -4.950602642e-19)
(1.042252636 -0.2051192211 -1.314271884e-17)
(1.044473556 -0.1776202449 -3.349935789e-18)
(1.042230332 -0.1537372592 -8.996186506e-18)
(1.043022299 -0.1326288036 1.181440729e-17)
(1.039691964 -0.1141233002 -1.273908091e-17)
(1.039146654 -0.09713771844 9.004355389e-18)
(1.034699849 -0.08218418651 -1.454841179e-17)
(1.032823067 -0.06783370647 -5.830161542e-18)
(1.027175815 -0.05521525915 -2.851230375e-18)
(1.0239132 -0.04247603196 -3.088559325e-17)
(1.016944621 -0.03135061072 1.197833415e-17)
(1.012205019 -0.01949174406 8.949103103e-19)
(1.003743909 -0.009229645391 2.06281385e-18)
(0.9975353916 0.00215412388 2.101881569e-18)
(0.9854117987 0.01414771648 2.61157769e-19)
(1.093397904 -0.9192863299 -2.429097178e-18)
(1.086608224 -0.7516015565 -2.288287686e-18)
(1.087055383 -0.6230481851 -2.258983494e-17)
(1.080573356 -0.5205822517 1.151864322e-17)
(1.080660931 -0.4398014723 1.386260974e-18)
(1.075224035 -0.3735473005 4.110243552e-18)
(1.075199913 -0.3198656454 -3.032815422e-18)
(1.070346295 -0.2747706488 7.988069303e-18)
(1.070006954 -0.2372464129 -4.22054297e-18)
(1.065290991 -0.2051190412 -1.491875315e-17)
(1.064423246 -0.1776200891 -1.68816047e-17)
(1.059497591 -0.1537371129 5.322501587e-18)
(1.057918634 -0.1326286861 1.58595247e-17)
(1.05250981 -0.114123172 -2.008662316e-17)
(1.050056627 -0.09713761961 -1.553693957e-17)
(1.043930288 -0.08218406279 1.382975929e-17)
(1.040441623 -0.0678336505 -2.29902543e-18)
(1.033377166 -0.05521516716 -8.655600963e-19)
(1.028683609 -0.04247600911 -6.510494909e-18)
(1.020465479 -0.03135043115 -1.577730609e-17)
(1.014393823 -0.01949163773 -5.682643287e-18)
(1.004780251 -0.009229439516 -2.971232707e-18)
(0.997293044 0.002154344305 -2.646436858e-17)
(0.9838224912 0.01414803878 2.438239301e-17)
(1.196000449 -0.9077254205 -6.007414179e-18)
(1.170494861 -0.7421494197 6.246582706e-18)
(1.15659393 -0.6152125437 -1.535050065e-17)
(1.138675413 -0.5140352959 -6.145281226e-18)
(1.129747042 -0.4342704799 -1.321104745e-18)
(1.116915393 -0.3688495053 -4.463246059e-18)
(1.110899704 -0.3158429357 2.738807432e-18)
(1.101013076 -0.2713150652 -1.924996083e-17)
(1.096485559 -0.2342627626 -1.993652034e-17)
(1.088183943 -0.2025394102 3.815775102e-19)
(1.084246951 -0.1753862831 2.397256144e-17)
(1.0766558 -0.1518036228 1.002828841e-18)
(1.072720859 -0.1309606209 3.667281414e-18)
(1.065246712 -0.1126877748 -2.806459645e-18)
(1.060897708 -0.09591578014 1.121824647e-18)
(1.053102491 -0.08115022181 1.894219223e-17)
(1.048012146 -0.06698027469 4.607411443e-18)
(1.039539453 -0.05452045218 1.653854135e-17)
(1.033424008 -0.04194153623 7.567471237e-18)
(1.023964172 -0.03095578421 2.850495146e-17)
(1.016568881 -0.01924619105 4.152801719e-18)
(1.005810035 -0.009113037094 1.516241416e-17)
(0.9970521987 0.002127604153 -6.000751547e-18)
(0.9822430445 0.01397047834 -1.523205544e-17)
(1.296663843 -0.8847497369 -4.341099517e-18)
(1.252796354 -0.7233647438 8.103463947e-18)
(1.224818489 -0.5996405869 -6.262931211e-18)
(1.195679704 -0.5010243074 3.254003749e-18)
(1.177905781 -0.4232784254 -5.402048729e-19)
(1.15781917 -0.3595133188 1.597305842e-18)
(1.145925159 -0.307848349 9.528308677e-18)
(1.131100654 -0.2644475422 1.153141056e-17)
(1.122464137 -0.228333092 1.620752786e-17)
(1.110644608 -0.197412685 1.820648867e-17)
(1.103696378 -0.1709468702 5.333956181e-18)
(1.093490045 -0.1479611001 -1.026986872e-17)
(1.08724362 -0.1276457057 1.784090279e-19)
(1.077743091 -0.1098353469 -7.684813135e-18)
(1.071534052 -0.09348792426 -1.844271387e-17)
(1.062101406 -0.07909607015 -1.792233958e-17)
(1.055439613 -0.06528487014 -8.353338435e-18)
(1.045585244 -0.05314037531 -3.041439403e-17)
(1.038074761 -0.04087994764 7.157993343e-18)
(1.027396673 -0.03017210588 -2.561283037e-17)
(1.01870275 -0.01875899802 -2.084881806e-18)
(1.006820317 -0.008882205068 2.71684688e-18)
(0.9968158518 0.002073915569 -2.086313508e-17)
(0.9806934825 0.01361715238 4.591771776e-17)
(1.394121344 -0.8506474376 -1.416190322e-18)
(1.332476489 -0.6954830264 1.418665355e-17)
(1.290869963 -0.5765275952 2.779605172e-18)
(1.250868187 -0.4817125593 -2.231754688e-19)
(1.224530427 -0.4069634127 -3.486999789e-18)
(1.197419874 -0.3456561186 -1.467521863e-17)
(1.179834735 -0.295982561 5.60487366e-18)
(1.160229616 -0.2542546272 -9.001983536e-18)
(1.147614953 -0.2195322342 -1.013935267e-17)
(1.132389585 -0.1898036114 -1.048139932e-17)
(1.122526026 -0.1643579215 5.215164173e-18)
(1.109787863 -0.1422580734 -1.134738356e-17)
(1.101303593 -0.1227257018 2.051619563e-18)
(1.089841297 -0.1056017572 -9.607872528e-18)
(1.081831492 -0.08988438997 4.026669935e-17)
(1.07081364 -0.07604717541 1.88285197e-17)
(1.062630475 -0.06276831223 1.603418202e-17)
(1.051438479 -0.05109184814 -1.288034698e-18)
(1.042577407 -0.03930403632 4.463168864e-18)
(1.030719853 -0.02900880504 -4.557330029e-18)
(1.020768673 -0.01803569108 -1.556734328e-17)
(1.007798383 -0.008539544029 -6.319651451e-18)
(0.9965869842 0.001994278614 -4.032422404e-17)
(0.9791931154 0.01309261935 1.198391706e-20)
(1.487148276 -0.8058480994 -2.695632072e-18)
(1.408534469 -0.6588555335 1.250002098e-18)
(1.35391886 -0.5461646752 1.381610198e-17)
(1.303548004 -0.4563431392 -4.492439683e-18)
(1.269035734 -0.3855306258 -7.375342084e-18)
(1.235220578 -0.3274520529 -3.806143036e-18)
(1.212203029 -0.2803945081 6.387809239e-18)
(1.188034624 -0.2408641462 -3.619337386e-18)
(1.171622662 -0.2079704323 -7.622322148e-18)
(1.15314625 -0.1798074189 1.954688971e-17)
(1.140499883 -0.1557018737 -6.086092756e-18)
(1.125344926 -0.1347658714 -1.38650975e-17)
(1.114724526 -0.1162622329 1.995350261e-17)
(1.101389573 -0.1000400838 8.30040222e-19)
(1.091660848 -0.08515054218 -1.956328453e-17)
(1.079129787 -0.07204202217 7.418020864e-18)
(1.069494417 -0.05946259708 -1.570117637e-17)
(1.057025561 -0.04840101328 -2.675494202e-17)
(1.046875318 -0.03723413871 2.693230537e-19)
(1.033891901 -0.0274809507 1.557519492e-18)
(1.022740639 -0.01708586944 1.195366938e-17)
(1.008731979 -0.008089690175 2.167328791e-17)
(0.9963685233 0.001889341434 3.00469853e-18)
(0.9777610324 0.01240332928 -1.497570271e-17)
(1.574573836 -0.7509144373 -1.007606444e-17)
(1.48001262 -0.6139423344 2.127222002e-18)
(1.413171185 -0.5089333155 -3.306017658e-18)
(1.353055561 -0.4252349663 6.479164582e-18)
(1.310861 -0.3592496921 -5.386823426e-18)
(1.270744933 -0.3051302936 1.844227418e-18)
(1.242622079 -0.2612806294 5.433208281e-18)
(1.214165182 -0.2244449948 -6.904771876e-18)
(1.194184585 -0.1937936589 -5.253699569e-19)
(1.172652928 -0.1675504298 4.39915869e-18)
(1.157391333 -0.1450881581 -6.609578154e-18)
(1.139965159 -0.1255792627 9.026644531e-19)
(1.127337264 -0.108336987 3.017929914e-18)
(1.112242462 -0.09322058855 -1.034421959e-17)
(1.100898316 -0.07934601558 3.204553792e-18)
(1.086945197 -0.06713097777 4.40119893e-18)
(1.075945042 -0.05540907416 9.936233457e-18)
(1.062276228 -0.04510143196 5.911573705e-18)
(1.050914407 -0.03469584619 -9.035735077e-18)
(1.0368729 -0.02560736357 -2.091030091e-18)
(1.024593794 -0.01592100043 -1.113305585e-17)
(1.009609241 -0.007537976268 5.139161876e-18)
(0.996163067 0.001760787274 -7.303206759e-18)
(0.9764149399 0.0115581209 2.784730842e-18)
(1.655299534 -0.686537864 1.321638688e-18)
(1.54601321 -0.5613086682 1.471429109e-18)
(1.467882866 -0.4653019424 -3.980260978e-18)
(1.3987693 -0.3887792313 -4.281422306e-19)
(1.349481172 -0.3284508904 -1.708575425e-20)
(1.303547057 -0.2789711721 -4.718093552e-18)
(1.270710111 -0.2388807626 2.511664468e-18)
(1.23829334 -0.2052030233 6.832152444e-18)
(1.215017563 -0.1771795015 -7.089928148e-18)
(1.190664753 -0.1531860464 6.539843431e-18)
(1.172988325 -0.1326495523 3.776559806e-18)
(1.153464935 -0.114813098 -1.070846769e-17)
(1.138983377 -0.0990490914 1.718298957e-18)
(1.122263546 -0.08522856919 9.277819049e-18)
(1.109427785 -0.07254355437 7.21537583e-19)
(1.094161557 -0.06137565027 -1.02637516e-18)
(1.08190125 -0.0506587908 1.029541589e-17)
(1.067124422 -0.04123474132 1.500550109e-18)
(1.054643931 -0.03172139659 3.272639178e-19)
(1.039625405 -0.02341190998 -2.910809034e-18)
(1.026304936 -0.01455613723 2.154055202e-17)
(1.010419295 -0.00689162296 1.642405365e-17)
(0.9959733988 0.001609897613 2.497116706e-17)
(0.9751721008 0.01056745274 -3.491050926e-18)
(1.728309264 -0.6135274696 3.926119452e-19)
(1.605705172 -0.5016161329 2.557357034e-18)
(1.5173649 -0.4158191478 -2.560445894e-18)
(1.440113434 -0.3474345155 -1.393429306e-18)
(1.384409789 -0.293521854 -3.645184793e-18)
(1.33321375 -0.2493041325 5.359417958e-18)
(1.296113325 -0.213477211 2.688829131e-18)
(1.260115225 -0.1833809216 4.736950696e-18)
(1.233859268 -0.1583376543 6.024574709e-18)
(1.20695501 -0.1368957142 -1.899306189e-18)
(1.187094593 -0.1185432431 5.992571565e-18)
(1.165674489 -0.1026035219 1.224818506e-18)
(1.149516454 -0.08851597455 -8.509766297e-18)
(1.131326941 -0.07616510109 -5.231038706e-19)
(1.117142117 -0.0648290861 -5.765454207e-18)
(1.10068829 -0.05484871874 1.262424232e-18)
(1.087288235 -0.04527158027 -1.62401269e-17)
(1.071509288 -0.03684959331 -1.286329445e-18)
(1.058016996 -0.02834804684 -1.534109073e-18)
(1.042114809 -0.02092203857 -2.190760262e-18)
(1.027852471 -0.01300817452 -7.060062695e-18)
(1.011151837 -0.006158576756 -6.936706881e-18)
(0.9958017324 0.001438815085 -6.675475243e-18)
(0.9740478565 0.009443896448 -2.472596536e-18)
(1.792685797 -0.5328017852 -1.249480083e-18)
(1.658338819 -0.4356155805 7.371214569e-19)
(1.56099588 -0.361107197 -3.833492149e-18)
(1.476568805 -0.3017205241 2.30543318e-18)
(1.415208236 -0.2549014358 -2.87123328e-18)
(1.359372447 -0.2165017059 1.740521488e-18)
(1.318512638 -0.1853887785 2.534277316e-18)
(1.279356645 -0.1592523639 -4.144216691e-18)
(1.25047287 -0.1375042787 -5.668500703e-18)
(1.221318814 -0.1188834676 -8.11003837e-19)
(1.199532631 -0.1029458423 2.168644312e-18)
(1.176440049 -0.08910329487 9.854122065e-19)
(1.158803765 -0.07686942463 6.769143177e-18)
(1.139318331 -0.06614352327 -2.196525527e-18)
(1.12394398 -0.05629914425 3.64106813e-18)
(1.106442981 -0.04763183246 4.748947442e-18)
(1.092037994 -0.03931493974 1.173319777e-18)
(1.075375435 -0.03200093986 -1.201172087e-19)
(1.060991045 -0.02461819045 -3.671321753e-18)
(1.044309678 -0.01816906379 3.246696664e-20)
(1.0292169 -0.01129669325 -3.24239526e-18)
(1.011797648 -0.005348123259 1.591633811e-17)
(0.9956502817 0.001249553919 2.045147657e-18)
(0.9730565076 0.0082015358 7.898876201e-18)
(1.847618701 -0.4453756978 2.828108102e-18)
(1.703251395 -0.3641369257 3.607066448e-18)
(1.598226397 -0.3018542262 6.735819588e-19)
(1.507676357 -0.2522124402 1.629806641e-18)
(1.441488744 -0.2130757593 3.079603251e-18)
(1.381693867 -0.1809769847 4.675653454e-19)
(1.33762619 -0.1549693618 -2.159861035e-18)
(1.295775608 -0.1331215249 -7.105561873e-19)
(1.264649545 -0.1149421259 2.962601674e-18)
(1.233575777 -0.09937661296 6.357118815e-19)
(1.210146359 -0.08605424209 4.337156001e-18)
(1.185626678 -0.07448293959 -1.348520869e-18)
(1.166729008 -0.06425656062 -5.923615979e-19)
(1.146137764 -0.05529050962 -4.184894634e-18)
(1.12974837 -0.04706152023 1.171560713e-18)
(1.111353795 -0.03981625297 3.771117661e-18)
(1.096091267 -0.03286413796 2.767031135e-19)
(1.078674689 -0.02675008175 5.840362639e-19)
(1.06352903 -0.02057891292 2.373922301e-18)
(1.046182743 -0.01518774783 2.273513054e-18)
(1.030381312 -0.009443250494 -1.370248921e-18)
(1.012348828 -0.004470503794 -4.145677457e-18)
(0.9955211091 0.001044514068 2.371318743e-18)
(0.9722105792 0.006855953378 2.62759996e-18)
(1.892417941 -0.3523488595 2.656221686e-18)
(1.739878825 -0.2880790594 -1.199901666e-18)
(1.628588836 -0.2388052064 -5.085122549e-19)
(1.533045338 -0.1995325083 1.070683342e-18)
(1.462921108 -0.1685703385 2.057424981e-18)
(1.399897441 -0.1431761306 -1.941169018e-18)
(1.353213603 -0.1226008619 1.7219294e-19)
(1.309165465 -0.1053163171 -1.126275826e-19)
(1.27621072 -0.09093423456 8.659866148e-19)
(1.243571326 -0.0786197464 -1.582586374e-18)
(1.218801783 -0.06808020145 -1.250375965e-18)
(1.193118223 -0.05892564949 9.022183248e-19)
(1.173191848 -0.05083540874 3.151400324e-19)
(1.151698764 -0.04374194869 -9.211320208e-19)
(1.134481576 -0.03723188086 3.852332258e-18)
(1.115358265 -0.03149975349 -2.845861562e-18)
(1.099396414 -0.02599989474 -3.254966969e-18)
(1.081364926 -0.02116265922 2.036669584e-18)
(1.065598469 -0.01628074294 2.945080637e-19)
(1.047709915 -0.01201535181 4.189905407e-19)
(1.031330601 -0.007471026494 -1.710522599e-18)
(1.012798015 -0.003536636928 3.483244817e-18)
(0.9954154765 0.0008263265975 -3.48690441e-18)
(0.971520447 0.005424162099 -3.149141202e-18)
(1.92651948 -0.2548909843 2.785365903e-18)
(1.76775992 -0.2083985094 -2.975052681e-20)
(1.651700946 -0.1727532308 -2.645171736e-19)
(1.552356436 -0.1443435794 7.394060662e-19)
(1.47923568 -0.1219453179 1.19956305e-18)
(1.413754279 -0.103575065 2.922733339e-19)
(1.365079037 -0.08869091557 8.71096851e-19)
(1.319358162 -0.0761870278 -4.54600218e-19)
(1.285011454 -0.06578311289 5.734852295e-19)
(1.251180341 -0.0568744986 -5.518806966e-19)
(1.225390712 -0.04925029491 2.104593111e-18)
(1.198821229 -0.04262760661 2.240445538e-19)
(1.178111807 -0.03677521691 1.537862311e-19)
(1.15593224 -0.03164355544 1.807689536e-18)
(1.138084927 -0.0269342555 1.492375033e-18)
(1.118406878 -0.02278736611 -3.930484728e-19)
(1.101912694 -0.01880889949 -8.101289278e-19)
(1.083413102 -0.01530931768 -3.20220475e-19)
(1.067174084 -0.01177800946 8.957279316e-19)
(1.048872693 -0.008692022142 -8.24992439e-19)
(1.032053478 -0.005404980293 -1.498529588e-18)
(1.013140169 -0.002558403389 -1.236340501e-18)
(0.9953352487 0.0005976561386 1.068531737e-18)
(0.9709952291 0.003924059891 -2.58464786e-18)
(1.949495025 -0.1542277453 1.592068892e-18)
(1.786544491 -0.1260971971 4.262397569e-19)
(1.667272352 -0.1045287026 -6.440656713e-19)
(1.565366931 -0.08733931709 1.81348585e-19)
(1.490227268 -0.07378659975 8.872514374e-19)
(1.423089946 -0.06267129322 3.955416855e-19)
(1.373072958 -0.05366545456 6.582340025e-19)
(1.326225061 -0.04609945182 -1.009560883e-19)
(1.290940512 -0.03980457219 1.057155541e-18)
(1.256306456 -0.03441385856 3.895058072e-20)
(1.229829547 -0.02980091881 5.721370437e-19)
(1.202663151 -0.0257933756 6.70604281e-19)
(1.181426156 -0.02225247405 3.20439912e-19)
(1.158784053 -0.01914713094 3.473569888e-19)
(1.1405122 -0.01629785125 1.054895723e-18)
(1.120460388 -0.0137883201 -7.744692324e-20)
(1.103607567 -0.0113813051 -9.416443402e-19)
(1.084792598 -0.009263355379 -5.129102577e-19)
(1.068235221 -0.007127109495 2.829954691e-19)
(1.049655665 -0.005259328725 -1.359285665e-18)