/*--------------------------------*- C++ -*----------------------------------*\
| =========                 |                                                 |
| \\      /  F ield         | foam-extend: Open Source CFD                    |
|  \\    /   O peration     | Version:  3.0                                   |
|   \\  /    A nd           | Web:         http://www.extend-project.de       |
|    \\/     M anipulation  |                                                 |
\*---------------------------------------------------------------------------*/
FoamFile
{
    version     2.0;
    format      ascii;
    class       volVectorField;
    location    "17";
    object      u;
}
// * * * * * * * * * * * * * * * * * * * * * * * * * * * * * * * * * * * * * //

dimensions      [0 0 0 0 0 0 0];

internalField   nonuniform List<vector> 
120
(
(0.499823 -0.156844 -8.32164e-20)
(0.758512 -0.0861911 5.95157e-18)
(0.953097 -0.0444165 -1.40643e-17)
(0.95927 -0.024367 7.44348e-18)
(1.04731 0.00446888 3.51636e-17)
(0.656921 -0.429037 2.40556e-18)
(0.844844 -0.235753 -3.33706e-17)
(0.997587 -0.121442 -9.96883e-18)
(0.983612 -0.0664878 -3.16817e-17)
(1.04281 0.0123045 -2.80492e-17)
(0.92906 -0.586228 4.0403e-18)
(0.994404 -0.322113 6.55982e-18)
(1.07463 -0.165918 1.85986e-17)
(1.02577 -0.0908015 1.12527e-17)
(1.035 0.0168158 8.85025e-17)
(1.24335 -0.586283 1.89567e-18)
(1.16711 -0.322136 -7.05988e-19)
(1.16361 -0.165913 2.74708e-17)
(1.07445 -0.0907957 -1.43137e-18)
(1.02601 0.0168153 -6.26207e-18)
(1.51555 -0.429203 -2.1821e-18)
(1.3167 -0.235799 3.37334e-18)
(1.24067 -0.121433 -3.17611e-18)
(1.11663 -0.0664467 6.00778e-18)
(1.01824 0.0123068 -2.96815e-17)
(1.67276 -0.157051 -9.06637e-19)
(1.40309 -0.0862443 5.02451e-18)
(1.28519 -0.0443707 -2.7799e-18)
(1.14101 -0.0242817 2.24043e-18)
(1.01379 0.00452762 -1.33495e-17)
(1.67283 0.157229 -1.08744e-18)
(1.40314 0.0864813 4.32122e-18)
(1.28523 0.0446194 4.1888e-19)
(1.14106 0.0244362 1.53901e-18)
(1.01384 -0.00444132 -1.14107e-17)
(1.51576 0.429456 -2.98872e-18)
(1.31684 0.236088 9.59022e-18)
(1.24079 0.121724 -1.44828e-18)
(1.11677 0.0666502 8.42933e-18)
(1.01839 -0.0121682 3.46923e-18)
(1.24363 0.586667 -2.96852e-18)
(1.1673 0.322514 -1.31442e-17)
(1.16376 0.166276 -2.0697e-17)
(1.07464 0.0910833 -1.48497e-17)
(1.02621 -0.0165865 -5.64796e-17)
(0.929338 0.586763 2.07375e-18)
(0.994594 0.322593 1.57676e-18)
(1.07479 0.166363 -2.67405e-17)
(1.02596 0.0911858 5.89008e-18)
(1.0352 -0.0164825 4.14544e-17)
(0.657125 0.429703 7.81863e-18)
(0.844983 0.236321 -4.55893e-18)
(0.997703 0.121957 2.46631e-17)
(0.983748 0.0669547 -8.12407e-18)
(1.04295 -0.011879 6.56344e-17)
(0.499898 0.157586 -2.4856e-19)
(0.758563 0.0868075 -1.15911e-17)
(0.953143 0.044971 1.84175e-17)
(0.959324 0.0248809 -2.83169e-18)
(1.04737 -0.0039855 3.27061e-18)
(0.499806 -0.156681 8.12872e-20)
(0.758467 -0.0858787 -5.95602e-18)
(0.953054 -0.0439696 1.40583e-17)
(0.959197 -0.0237531 -7.45097e-18)
(1.04725 0.00508721 -3.51725e-17)
(0.656846 -0.428888 -2.40591e-18)
(0.844733 -0.235467 3.33535e-17)
(0.997433 -0.121033 9.97111e-18)
(0.983405 -0.0659161 3.1674e-17)
(1.04259 0.0129068 2.80425e-17)
(0.928957 -0.586094 -4.0435e-18)
(0.994222 -0.32188 -6.5684e-18)
(1.0744 -0.165568 -1.85918e-17)
(1.02543 -0.0903194 -1.12524e-17)
(1.03463 0.0173723 -8.85052e-17)
(1.2432 -0.58619 -1.90018e-18)
(1.16689 -0.321959 6.93688e-19)
(1.1633 -0.165656 -2.74652e-17)
(1.07402 -0.0904228 1.42674e-18)
(1.02548 0.017263 6.2374e-18)
(1.5154 -0.429134 2.17883e-18)
(1.31645 -0.235698 -3.38479e-18)
(1.24032 -0.121268 3.16913e-18)
(1.11612 -0.0662232 -6.01348e-18)
(1.01759 0.0126052 2.9665e-17)
(1.67259 -0.157036 9.05429e-19)
(1.40283 -0.0862045 -5.02734e-18)
(1.28481 -0.0443248 2.77276e-18)
(1.14046 -0.0242025 -2.24598e-18)
(1.01307 0.00461954 1.33487e-17)
(1.67266 0.157217 1.08734e-18)
(1.40287 0.0864399 -4.32452e-18)
(1.28485 0.0445638 -4.24847e-19)
(1.14051 0.0243457 -1.54497e-18)
(1.01313 -0.00454858 1.14204e-17)
(1.5156 0.42939 2.99085e-18)
(1.31658 0.235983 -9.61066e-18)
(1.24043 0.121548 1.44845e-18)
(1.11625 0.0664156 -8.4481e-18)
(1.01775 -0.0124711 -3.47933e-18)
(1.24348 0.586575 2.96827e-18)
(1.16707 0.32233 1.31403e-17)
(1.16344 0.166008 2.07125e-17)
(1.07419 0.0907002 1.48577e-17)
(1.02569 -0.0170236 5.65321e-17)
(0.929237 0.58663 -2.07678e-18)
(0.994406 0.322353 -1.58852e-18)
(1.07454 0.166004 2.67538e-17)
(1.0256 0.0906952 -5.89598e-18)
(1.03484 -0.0170182 -4.1494e-17)
(0.657052 0.429555 -7.82214e-18)
(0.844868 0.236028 4.54824e-18)
(0.997539 0.121542 -2.46736e-17)
(0.98353 0.0663774 8.12098e-18)
(1.04273 -0.0124611 -6.56737e-17)
(0.499883 0.157421 2.46402e-19)
(0.758516 0.0864922 1.15886e-17)
(0.95309 0.0445212 -1.8426e-17)
(0.959238 0.0242646 2.82778e-18)
(1.04729 -0.00459541 -3.27722e-18)
)
;

boundaryField
{
    out
    {
        type            fixedValue;
        value           uniform (1 0 0);
    }
    in
    {
        type            myVelocity;
    }
    frontAndBack
    {
        type            empty;
    }
}


// ************************************************************************* //
