/*--------------------------------*- C++ -*----------------------------------*\
| =========                 |                                                 |
| \\      /  F ield         | foam-extend: Open Source CFD                    |
|  \\    /   O peration     | Version:  3.0                                   |
|   \\  /    A nd           | Web:         http://www.extend-project.de       |
|    \\/     M anipulation  |                                                 |
\*---------------------------------------------------------------------------*/
FoamFile
{
    version     2.0;
    format      ascii;
    class       volVectorField;
    location    "10";
    object      s;
}
// * * * * * * * * * * * * * * * * * * * * * * * * * * * * * * * * * * * * * //

dimensions      [0 1 -1 0 0 0 0];

internalField   nonuniform List<vector> 
728
(
(-0.0719713 -0.111376 -3.2495e-19)
(0.0717576 0.111517 2.41235e-19)
(-0.111671 0.0719611 -8.99748e-21)
(0.111235 -0.0718182 -1.12718e-19)
(-0.0104515 -0.383332 -1.02171e-19)
(0.0103851 0.383422 4.4294e-19)
(0.382019 -0.0122985 1.57388e-18)
(-0.383169 0.00933146 -6.89022e-20)
(0.115055 -0.165161 9.94e-19)
(-0.165615 -0.114958 8.76779e-19)
(-0.115465 0.16561 3.30369e-19)
(0.165424 0.115265 9.31598e-19)
(0.11236 -0.152796 8.20501e-19)
(0.152993 0.112642 4.97628e-19)
(-0.112792 0.153195 5.1073e-19)
(-0.153089 -0.112253 7.1567e-20)
(0.0164727 0.167109 6.05554e-19)
(-0.167027 0.0165571 -2.10135e-19)
(0.166684 -0.0165408 1.44934e-19)
(-0.0166587 -0.166925 2.58072e-19)
(-0.0603966 0.224575 6.76741e-19)
(-0.224232 -0.0603261 3.52749e-19)
(0.224104 0.0602934 9.54369e-19)
(0.0597969 -0.22451 2.79694e-19)
(-0.0134678 -0.483771 3.75514e-20)
(-0.484105 0.0130993 3.15611e-20)
(0.482775 -0.0157387 1.75319e-18)
(0.0134706 0.483766 9.35577e-19)
(0.00764214 0.176626 -5.12191e-19)
(-0.176655 0.00765175 -7.78246e-20)
(0.176254 -0.00770318 -7.30872e-19)
(-0.00775209 -0.176602 -4.63313e-19)
(-0.0504228 0.245534 5.79554e-19)
(-0.245162 -0.0507859 2.41763e-19)
(0.244852 0.0504458 9.49805e-19)
(0.0500377 -0.245472 3.45972e-19)
(-0.142362 -0.0444272 4.86676e-19)
(-0.0444151 0.142387 6.71157e-19)
(0.142081 0.0444427 3.30562e-19)
(0.0444142 -0.142168 4.51592e-19)
(0.0595717 -0.182369 1.26364e-19)
(-0.182546 -0.0598893 3.90949e-19)
(-0.0600837 0.182587 -6.68444e-20)
(0.182251 0.0599107 2.95283e-20)
(0.0582562 -0.164621 1.1618e-18)
(0.164537 0.0582827 3.98299e-21)
(-0.0584394 0.164855 6.4995e-20)
(-0.164819 -0.0582554 -4.39701e-19)
(0.141498 0.201034 -9.23508e-21)
(0.200152 -0.141359 5.18826e-19)
(-0.201308 0.141517 -6.55102e-19)
(-0.141898 -0.200632 5.77362e-19)
(-0.504333 0.100654 -2.69232e-18)
(-0.100963 -0.504121 -2.0278e-18)
(0.502494 -0.102497 -9.50329e-19)
(0.100808 0.50405 -1.62468e-18)
(0.0718585 0.13718 5.59346e-19)
(-0.13722 0.0722255 3.58793e-19)
(0.136879 -0.0718112 -4.26953e-19)
(-0.0719071 -0.136813 -1.69049e-19)
(0.0289232 -0.175944 2.78649e-19)
(0.175852 0.0291054 -1.57669e-19)
(-0.176129 -0.0290656 -1.05588e-19)
(-0.0292192 0.176199 1.34825e-19)
(-0.119115 0.089696 -4.64431e-19)
(-0.0898413 -0.11873 1.14986e-19)
(0.118567 -0.0894993 -2.37152e-19)
(0.0894823 0.118944 -6.90289e-21)
(-0.0469869 0.355201 8.72938e-19)
(0.0467606 -0.355129 1.18386e-18)
(-0.355367 -0.0477251 8.06466e-19)
(0.35504 0.0467421 2.6414e-18)
(-0.13704 -0.0491177 2.51768e-19)
(-0.0492414 0.137108 4.20129e-19)
(0.0492073 -0.136843 4.66582e-19)
(0.136774 0.0491337 -3.23482e-20)
(0.0154673 -0.180218 -6.48589e-22)
(-0.180433 -0.0156216 -1.47041e-19)
(-0.0156448 0.180399 7.89089e-20)
(0.180029 0.0155505 -2.2752e-19)
(-0.2152 -0.204362 3.02075e-19)
(0.214881 0.204694 7.39105e-19)
(0.203914 -0.214454 1.21661e-18)
(-0.20511 0.215055 -9.11716e-19)
(0.0455839 0.123664 -7.81598e-20)
(-0.123755 0.0457328 7.22328e-20)
(-0.0457386 -0.12353 -1.80395e-19)
(0.123394 -0.0455725 -2.29022e-19)
(-0.185271 -0.584641 -5.12848e-18)
(-0.584927 0.185139 -5.29625e-18)
(0.184928 0.58462 -4.96833e-18)
(0.58342 -0.185426 -5.09208e-18)
(-0.194478 -0.225285 8.52186e-19)
(0.194206 0.22559 1.03265e-18)
(0.224863 -0.19397 2.8377e-19)
(-0.226027 0.194954 -3.24159e-19)
(-0.13192 0.173399 -1.09216e-19)
(-0.173329 -0.131252 7.52392e-19)
(0.131323 -0.172921 6.65375e-19)
(0.173151 0.131587 1.09884e-18)
(0.0683053 0.119384 4.67141e-19)
(-0.0685043 -0.119226 -9.72943e-19)
(-0.119452 0.0685966 -1.26134e-19)
(0.119127 -0.068361 -2.97235e-19)
(-0.0880778 -0.12728 2.34975e-19)
(0.127234 -0.0877721 -4.72088e-19)
(-0.127839 0.0879507 3.27959e-21)
(0.0877368 0.127683 6.72652e-19)
(0.0404158 0.130256 -3.50543e-19)
(-0.130385 0.0405625 -4.25782e-19)
(-0.0405744 -0.130125 -5.16459e-19)
(0.129964 -0.0404153 -5.39575e-19)
(0.00149809 -0.150995 1.125e-19)
(-0.151134 -0.00153815 8.53267e-21)
(-0.0015457 0.151145 1.68006e-19)
(0.150789 0.00158714 -1.62971e-19)
(0.080221 0.111497 3.88587e-19)
(-0.0804508 -0.111382 -1.28254e-19)
(-0.111661 0.080433 1.17293e-19)
(0.111229 -0.0802705 -1.24136e-19)
(0.0744119 0.127926 2.95757e-19)
(-0.128001 0.0747499 5.89277e-19)
(0.127626 -0.0744412 -6.64071e-19)
(-0.0745386 -0.127573 1.642e-19)
(0.117566 -0.139201 3.22107e-19)
(0.139562 0.11768 1.82781e-20)
(-0.117815 0.139797 7.37851e-19)
(-0.13962 -0.117513 2.07004e-19)
(0.122313 0.103787 2.71928e-19)
(-0.122474 -0.103839 -2.64421e-20)
(0.103772 -0.1222 4.29457e-19)
(-0.103928 0.122637 7.49411e-20)
(0.0614886 0.136082 3.35392e-19)
(-0.136208 0.0618281 -6.72524e-20)
(0.135802 -0.061469 -4.01099e-19)
(-0.0616627 -0.135851 -1.58023e-19)
(0.116692 0.108165 2.35062e-19)
(0.108031 -0.11643 3.76801e-19)
(-0.116769 -0.10813 1.24206e-19)
(-0.108248 0.116952 1.55397e-20)
(-0.0629512 0.275465 7.73332e-19)
(-0.27576 -0.0635798 5.06125e-19)
(0.27499 0.0633858 1.32849e-18)
(0.0625421 -0.27534 4.55402e-19)
(-0.0835778 -0.157527 -5.32424e-19)
(-0.157839 0.0834062 -1.38945e-19)
(0.0832531 0.157719 4.82998e-19)
(0.157301 -0.08319 -1.05062e-19)
(0.0424715 -0.150108 1.18926e-18)
(-0.150316 -0.0424665 -4.8263e-19)
(0.150032 0.0424837 -4.64145e-19)
(-0.0424328 0.150331 4.11999e-19)
(-0.0942006 0.100115 -2.66581e-20)
(0.0936973 -0.099995 1.16107e-19)
(-0.100238 -0.093702 -2.01188e-20)
(0.100019 0.0938725 8.60276e-20)
(0.00967543 -0.156414 -3.22137e-20)
(0.156258 0.00975688 -3.36249e-19)
(-0.00970575 0.156599 2.72829e-19)
(-0.156535 -0.00971948 -9.96188e-20)
(0.334399 -0.13423 -7.79014e-19)
(0.134197 0.336915 -2.7859e-19)
(-0.336834 0.134432 -1.13957e-18)
(-0.134928 -0.336157 2.55989e-19)
(0.084025 0.321128 -1.78628e-19)
(0.318867 -0.0842661 -7.2675e-19)
(-0.32108 0.0842527 -6.47172e-19)
(-0.0846817 -0.320595 6.20727e-19)
(-0.164691 0.0716439 -2.16252e-20)
(0.071586 0.16469 1.28474e-19)
(0.164208 -0.0714224 -1.22155e-18)
(-0.0718438 -0.164489 -7.17141e-19)
(0.131721 0.105168 1.641e-19)
(-0.13185 -0.105175 3.13609e-20)
(0.10514 -0.131542 3.23808e-19)
(-0.105356 0.131997 1.85675e-19)
(0.0956725 -0.0920258 3.67348e-20)
(-0.0960512 0.0922717 -2.47729e-20)
(0.0920567 0.0958626 4.8817e-20)
(-0.0922741 -0.0956835 -3.29795e-22)
(-0.200806 0.117179 -1.4293e-19)
(0.199727 -0.11706 2.8044e-19)
(-0.117576 -0.200101 3.36732e-19)
(0.117133 0.200541 2.09805e-20)
(0.151984 0.384333 -5.43922e-19)
(0.3822 -0.152174 -1.0359e-18)
(-0.384446 0.152125 -1.69741e-18)
(-0.152324 -0.384432 -2.96927e-19)
(-0.0739101 0.19256 1.02714e-18)
(-0.19253 -0.0737271 1.3376e-18)
(0.0732727 -0.192293 3.6884e-19)
(0.192232 0.0737749 1.33591e-18)
(-0.0913605 0.187396 7.33795e-19)
(0.187084 0.0912127 1.3156e-18)
(-0.187505 -0.091142 1.01124e-18)
(0.0910878 -0.187139 6.71474e-19)
(-0.00896466 0.131406 3.75215e-19)
(0.131069 0.00902009 -8.81974e-20)
(-0.13137 -0.00897593 -2.3976e-19)
(0.00894278 -0.131237 -2.56844e-19)
(0.0315186 -0.131291 5.38676e-19)
(0.13115 0.0315714 5.99438e-19)
(-0.131435 -0.031554 7.47502e-19)
(-0.0316218 0.131538 6.10022e-19)
(-0.0942659 -0.136029 4.20176e-19)
(0.135975 -0.0939274 2.28119e-20)
(0.0940012 0.136497 -1.72982e-19)
(-0.136627 0.0942222 1.30956e-19)
(0.0707392 -0.116062 -5.31938e-19)
(0.115991 0.0707976 -7.33363e-19)
(-0.11621 -0.0707696 -5.02013e-19)
(-0.0710224 0.116291 -5.81655e-19)
(0.158189 0.0461536 -2.38187e-19)
(-0.158474 -0.0461305 -4.03451e-19)
(-0.0462704 0.158505 2.39717e-19)
(0.0461512 -0.158246 1.03757e-18)
(0.0466761 0.33161 -7.94504e-20)
(0.329975 -0.0474208 -1.22096e-18)
(-0.331542 0.0461551 -4.76015e-19)
(-0.046838 -0.331423 5.60071e-19)
(0.0336278 -0.137395 1.06994e-18)
(0.137251 0.0336781 5.08396e-19)
(-0.137543 -0.0336613 7.47842e-19)
(-0.0336232 0.137662 6.72202e-19)
(0.0100919 -0.200578 1.03038e-20)
(-0.0102555 0.200781 -7.0736e-21)
(-0.200823 -0.0102537 -7.84446e-20)
(0.200394 0.010159 -6.44891e-20)
(-0.113696 0.0959404 -2.28023e-19)
(0.0957724 0.113504 8.56361e-20)
(-0.0960601 -0.113198 1.23301e-19)
(0.11314 -0.095697 1.63156e-22)
(-0.00061678 -0.142972 -1.69694e-19)
(-0.143115 0.000588246 -2.26957e-19)
(0.000568279 0.143116 3.54883e-19)
(0.142786 -0.000524968 -1.22815e-19)
(-0.168075 0.101794 3.79496e-19)
(-0.102174 -0.167591 -6.91429e-19)
(0.10174 0.167978 1.44622e-19)
(0.167442 -0.101525 -1.56125e-19)
(-0.0355908 0.301903 5.8044e-19)
(0.0353217 -0.301674 5.38484e-19)
(-0.302301 -0.0365232 5.48526e-19)
(0.301511 0.0354857 1.65124e-18)
(-0.283193 0.402461 9.10946e-19)
(0.402118 0.28381 1.39154e-18)
(0.283128 -0.402224 9.14984e-19)
(-0.402515 -0.283287 1.20695e-18)
(0.155369 0.0687051 2.94379e-19)
(0.068625 -0.155401 9.2063e-19)
(-0.155619 -0.0686672 1.18881e-19)
(-0.0688654 0.155657 5.29689e-20)
(-0.203514 0.444954 2.08193e-18)
(-0.444756 -0.203458 2.25917e-18)
(0.203316 -0.444784 2.26848e-18)
(0.444784 0.203663 2.69833e-18)
(0.0408846 0.138317 -3.42848e-19)
(0.138012 -0.0409058 -7.01554e-19)
(-0.0410625 -0.138192 -6.70046e-19)
(-0.138469 0.0410208 -6.4683e-19)
(0.218897 0.0753018 1.33054e-18)
(-0.0753727 0.21932 9.80819e-19)
(-0.219175 -0.0752391 3.05153e-19)
(0.0746748 -0.219137 2.89191e-19)
(0.138619 -0.106099 -4.35017e-20)
(0.10596 0.139368 7.337e-20)
(-0.106517 -0.138856 1.06002e-18)
(-0.139514 0.106191 -3.13303e-20)
(0.0976634 -0.285131 4.74443e-19)
(-0.097935 0.285142 5.45365e-19)
(0.284742 0.0983648 1.41116e-18)
(-0.285484 -0.0980167 5.6874e-19)
(-0.134821 0.0126438 -7.32645e-20)
(-0.0126644 -0.134676 -7.01832e-20)
(0.0125398 0.134814 4.33558e-20)
(0.134493 -0.0125568 3.93197e-19)
(-0.106467 -0.0973053 -2.10663e-20)
(-0.0977717 0.106367 -3.41568e-20)
(0.0972829 -0.106218 2.46195e-19)
(0.106234 0.0974579 1.70901e-19)
(-0.0432938 0.189406 1.00668e-19)
(-0.189364 -0.0431308 1.47484e-19)
(0.0426536 -0.18904 1.16996e-19)
(0.189048 0.0431386 7.92681e-20)
(0.0114412 0.157633 6.23969e-19)
(-0.157621 0.0115453 -3.51716e-19)
(0.157209 -0.011489 6.00989e-20)
(-0.0115959 -0.157445 -1.03233e-19)
(-0.157885 0.113292 -3.59251e-19)
(-0.113695 -0.157259 3.93671e-20)
(0.113155 0.157777 1.05339e-19)
(0.156928 -0.11331 -1.01389e-19)
(0.0747358 -0.109133 -1.22047e-19)
(-0.109284 -0.0747869 -1.6533e-19)
(0.109076 0.0748154 -2.01662e-19)
(-0.0750178 0.10932 -1.84324e-19)
(0.129787 -0.0187704 -1.32175e-20)
(0.0187513 0.1301 -1.06041e-19)
(-0.130117 0.0188666 -1.11442e-19)
(-0.0188877 -0.129962 -1.70293e-19)
(0.0736736 -0.121961 4.37193e-19)
(0.121891 0.0737327 3.80817e-20)
(-0.122116 -0.0736977 5.68139e-19)
(-0.0740322 0.122262 2.71903e-19)
(-0.00883155 0.281417 -4.08012e-19)
(0.00845709 -0.281294 1.35861e-18)
(-0.281533 -0.0094637 -5.45989e-19)
(0.280731 0.00821038 1.5635e-19)
(0.0321867 -0.164511 6.26386e-19)
(-0.164654 -0.0321931 -2.36176e-19)
(0.164389 0.0322265 -2.48686e-19)
(-0.0323297 0.164709 2.19688e-19)
(0.123184 -0.363608 1.92179e-18)
(-0.123409 0.363777 8.40966e-19)
(-0.364505 -0.12405 9.45325e-19)
(0.364182 0.12462 1.98388e-18)
(0.0940823 -0.173393 8.36747e-19)
(-0.094339 0.173656 7.5883e-19)
(0.1734 0.0941108 1.3415e-18)
(-0.173719 -0.0940606 8.28047e-19)
(0.275978 0.205215 9.91008e-19)
(0.204459 -0.275514 1.167e-18)
(-0.205321 0.276192 -5.31383e-19)
(-0.27618 -0.204744 5.28011e-19)
(0.168037 -0.283547 8.07228e-19)
(-0.168379 0.283843 -1.99887e-19)
(0.284046 0.168702 1.04358e-18)
(-0.28426 -0.168312 6.31353e-19)
(-0.0494253 0.122088 9.44729e-20)
(-0.122063 -0.0493016 -1.56741e-20)
(0.0493768 -0.121866 1.31024e-19)
(0.121812 0.0493141 -9.02796e-20)
(-0.0825407 -0.145283 -2.90966e-19)
(0.0823806 0.145569 1.10016e-18)
(-0.145672 0.0825986 5.99547e-19)
(0.145171 -0.0823451 -1.8718e-19)
(0.135643 -0.319518 5.45618e-19)
(-0.135872 0.319708 4.68062e-19)
(0.319851 0.136917 1.53135e-18)
(-0.320478 -0.136341 6.12892e-19)
(-0.00453709 -0.204031 -1.0127e-19)
(-0.20416 0.00449689 -1.26612e-19)
(0.203696 -0.00447004 -2.08028e-19)
(0.00440811 0.204103 -1.95879e-19)
(0.147036 0.179988 -3.57236e-19)
(0.179266 -0.146788 7.55201e-19)
(-0.146993 -0.179369 8.82237e-19)
(-0.180154 0.147117 -1.06555e-18)
(-0.148049 0.163486 4.16025e-19)
(-0.162911 -0.147362 1.57467e-18)
(0.147296 -0.163042 6.90739e-19)
(0.163433 0.14785 8.91124e-20)
(-0.0137983 -0.189164 -3.2993e-19)
(0.0136328 0.189165 -4.87965e-19)
(-0.189223 0.0137217 -1.43552e-19)
(0.188772 -0.0136783 -5.57405e-19)
(0.0828771 -0.135771 1.9791e-19)
(0.135723 0.0829664 -2.67593e-19)
(-0.0832131 0.136061 -1.80309e-19)
(-0.13595 -0.0829108 2.9621e-19)
(-0.0722689 -0.183416 1.69011e-19)
(-0.183674 0.0717934 -3.2707e-19)
(0.0719987 0.183666 -6.84033e-19)
(0.183104 -0.0717859 -1.60839e-19)
(-0.0550349 -0.125228 -9.78087e-20)
(-0.125541 0.0551884 -5.44014e-19)
(0.125151 -0.0548521 -2.58227e-19)
(0.0548741 0.125427 1.17661e-19)
(-0.199125 -0.17451 6.78293e-19)
(-0.17509 0.198889 -6.45714e-19)
(0.198956 0.174731 6.84616e-19)
(0.174191 -0.198468 5.36045e-19)
(0.159723 0.221837 4.13149e-19)
(0.220909 -0.159492 1.31393e-19)
(-0.222083 0.160007 -6.62123e-19)
(-0.159938 -0.221577 7.7571e-19)
(0.0917072 -0.139606 7.83762e-20)
(0.139578 0.0918533 1.26375e-19)
(-0.0920338 0.13985 -3.16969e-19)
(-0.139797 -0.091746 -8.94521e-20)
(-0.145232 0.0577966 -5.65385e-20)
(0.0576069 0.145037 9.03303e-19)
(0.144716 -0.0575874 9.57388e-20)
(-0.0577831 -0.144884 3.36839e-19)
(-0.0023142 0.136049 3.39848e-20)
(-0.136046 -0.00231003 6.03817e-20)
(0.135733 0.0023669 -1.09832e-19)
(0.00228039 -0.135908 7.42814e-20)
(-0.0124502 -0.141856 -3.12107e-20)
(-0.141998 0.0124335 -9.25186e-20)
(0.0123246 0.14199 2.03526e-19)
(0.14166 -0.0123403 -5.32637e-20)
(0.0471906 0.14399 -2.68301e-20)
(0.143657 -0.047213 -6.39642e-19)
(-0.0473826 -0.143845 -5.45779e-19)
(-0.144165 0.0473304 -1.11456e-18)
(0.143716 -0.246205 5.59447e-19)
(-0.24656 -0.144335 7.75316e-19)
(-0.144021 0.246492 -6.08227e-19)
(0.246349 0.144666 4.53122e-19)
(0.420708 0.441778 -2.09966e-19)
(-0.441605 0.42122 -1.80806e-19)
(0.441421 -0.420769 -1.04287e-19)
(-0.421194 -0.441468 -2.91821e-19)
(-0.144957 0.577175 4.42875e-18)
(-0.577101 -0.144955 5.03772e-18)
(0.144738 -0.57708 5.453e-18)
(0.576879 0.144831 4.75571e-18)
(0.115346 0.128239 2.98626e-19)
(-0.115601 -0.127855 6.03853e-19)
(-0.128388 0.115584 2.18455e-20)
(0.127578 -0.115126 5.8957e-19)
(-0.00734789 0.171232 1.12353e-19)
(0.00727896 -0.171135 -2.60833e-19)
(-0.171254 -0.00734709 -2.39885e-19)
(0.170864 0.00728353 -3.97268e-19)
(0.110876 -0.250802 4.07293e-19)
(-0.250726 -0.111198 5.81012e-19)
(0.250442 0.111408 1.47506e-18)
(-0.111092 0.250873 4.79024e-19)
(-0.0270006 -0.147837 3.88974e-19)
(0.147637 -0.0268581 4.99484e-19)
(0.0268482 0.14799 6.80802e-19)
(-0.148012 0.0269616 3.22526e-19)
(-0.0183171 -0.148692 1.04293e-19)
(-0.148861 0.0182931 -1.54122e-20)
(0.0181763 0.148854 2.72555e-19)
(0.148481 -0.0181895 1.88266e-19)
(-0.0163589 0.150992 4.20483e-19)
(0.0163601 -0.150824 -4.04075e-20)
(-0.15096 -0.0163932 -7.79553e-20)
(0.150689 0.0164268 -4.57699e-19)
(-0.0591488 -0.118133 8.73022e-20)
(0.118 -0.0589777 -1.27234e-19)
(-0.1183 0.0593234 -1.8915e-19)
(0.0590054 0.118253 1.39142e-19)
(-0.0164313 0.13514 -1.07765e-18)
(-0.135057 -0.0164454 2.95294e-19)
(0.134753 0.0164789 -1.87909e-19)
(0.016408 -0.134921 2.25765e-19)
(-0.0898145 -0.103664 2.50326e-20)
(0.103603 -0.0895743 3.9782e-21)
(0.0895991 0.103826 8.26186e-20)
(-0.104001 0.0897984 -7.09186e-20)
(0.1607 -0.131047 -9.90908e-20)
(-0.131048 -0.161028 6.02982e-19)
(-0.161839 0.130956 -1.09434e-19)
(0.130929 0.161784 3.61755e-20)
(0.212583 0.0219503 2.09106e-19)
(-0.0220372 0.212982 1.26827e-19)
(0.0216623 -0.212661 1.3725e-19)
(-0.212766 -0.0220023 1.14332e-20)
(-0.0825037 -0.104559 -2.79627e-20)
(0.104441 -0.0823526 -2.55298e-20)
(0.0823872 0.104658 1.07535e-19)
(-0.104811 0.0826051 1.49041e-20)
(-0.0583249 -0.189315 -2.5324e-19)
(0.0581817 0.18959 -4.53472e-19)
(0.188948 -0.0579838 1.43179e-19)
(-0.189469 0.0582275 -3.45478e-19)
(0.157359 -0.0613525 -7.15912e-19)
(0.0614937 0.157834 3.94419e-19)
(-0.157815 0.0615889 3.48294e-19)
(-0.0616606 -0.157628 -3.01622e-19)
(-0.00807758 0.246294 -4.13855e-20)
(-0.246411 -0.00816161 -1.90783e-19)
(0.00777381 -0.246018 3.52035e-19)
(0.245841 0.00785597 2.32337e-19)
(0.176511 -0.0482341 1.22795e-20)
(-0.177018 0.0487429 -3.20735e-19)
(-0.0485714 -0.176867 -1.67214e-19)
(0.0485514 0.177236 -1.19917e-19)
(-0.130537 0.134292 1.30995e-19)
(-0.134271 -0.13014 4.65683e-19)
(0.129883 -0.133767 2.9615e-20)
(0.134037 0.130414 6.72404e-19)
(-0.057309 0.122873 -7.42926e-20)
(0.12255 0.0571456 -1.32403e-19)
(-0.122791 -0.0571273 3.46057e-20)
(0.0572154 -0.122605 7.23112e-20)
(0.144708 -0.141702 6.93007e-19)
(0.141777 0.145712 3.43612e-19)
(-0.141722 -0.14507 2.00324e-18)
(-0.145777 0.141907 -4.4935e-19)
(0.0230746 -0.129243 3.40075e-19)
(-0.129377 -0.023117 3.9614e-19)
(-0.0231718 0.129407 -4.49549e-19)
(0.129087 0.0231415 2.63156e-19)
(0.178701 -0.0365626 -4.28621e-20)
(-0.179164 0.0369806 -2.58558e-19)
(-0.0367883 -0.17899 6.93345e-20)
(0.0367252 0.179296 -3.24581e-20)
(-0.234632 -0.022429 -1.70069e-20)
(-0.0221873 0.234783 1.6975e-19)
(0.0218981 -0.234488 2.731e-19)
(0.234279 0.022165 4.02309e-19)
(0.184567 -0.102003 -1.89531e-19)
(0.102141 0.185142 -1.26682e-20)
(-0.102716 -0.184643 -2.71496e-19)
(-0.185376 0.102282 2.59238e-19)
(0.0373025 -0.125955 7.63953e-19)
(0.125832 0.037349 9.68889e-19)
(-0.037429 0.126143 7.84056e-19)
(-0.126104 -0.0373365 1.03656e-18)
(-0.250681 0.302933 -5.96495e-19)
(0.302161 0.250561 7.52619e-19)
(0.249842 -0.302035 1.60844e-18)
(-0.302478 -0.250086 1.60857e-19)
(0.169985 -0.171332 6.79399e-19)
(-0.171156 -0.170267 1.01083e-18)
(-0.170887 0.171784 4.96934e-19)
(0.171741 0.170498 4.18595e-19)
(0.290533 -0.0248726 -9.91972e-20)
(0.0243786 0.291547 -4.15777e-19)
(-0.291603 0.024159 -6.35295e-19)
(-0.0248802 -0.291505 1.00742e-18)
(0.131001 -0.00443523 -1.19275e-19)
(-0.131313 0.00450293 -1.05579e-21)
(0.00441615 0.131329 1.53238e-20)
(-0.0045276 -0.131176 2.38393e-21)
(0.144662 0.0664475 -1.17665e-18)
(0.0664261 -0.144673 6.78531e-19)
(-0.144908 -0.0664112 2.97934e-19)
(-0.066608 0.144944 -1.58721e-19)
(-0.209708 0.0522196 -4.28574e-19)
(-0.0523904 -0.209626 -9.29796e-20)
(0.209175 -0.0520513 -1.77848e-19)
(0.0520932 0.209756 -5.18727e-19)
(-0.0319453 -0.12768 -8.44902e-19)
(-0.127859 0.031932 -9.44572e-19)
(0.0317997 0.127809 -7.88823e-19)
(0.127518 -0.0318052 -8.29223e-19)
(0.104262 0.114265 1.56262e-19)
(0.11386 -0.104099 1.92129e-19)
(-0.104501 -0.113872 1.82287e-19)
(-0.114462 0.104385 -1.23526e-19)
(0.107247 0.104358 1.79245e-19)
(-0.104504 0.107421 -5.06463e-20)
(-0.107479 -0.104185 7.19329e-20)
(0.104139 -0.107182 2.5485e-19)
(-0.160583 -0.084632 5.30704e-19)
(-0.0848958 0.16065 2.99621e-19)
(0.160379 0.0847094 9.62492e-19)
(0.0846176 -0.160415 9.41143e-19)
(0.150636 0.0935531 5.28707e-19)
(-0.0937223 0.150878 4.80262e-19)
(0.0934147 -0.150657 1.07444e-18)
(-0.150828 -0.0934284 6.86229e-19)
(0.036631 0.256673 1.06178e-19)
(-0.0371365 -0.256731 1.24683e-19)
(-0.256637 0.0367807 5.42391e-21)
(0.255901 -0.0367013 7.25017e-20)
(-0.0161949 -0.236246 -3.58914e-19)
(-0.236172 0.0159474 -1.22898e-19)
(0.0157686 0.23636 -3.65829e-20)
(0.235826 -0.0160666 7.19728e-20)
(-0.127276 -0.0447441 -8.80419e-20)
(0.0448125 -0.127119 4.34731e-19)
(-0.0448516 0.127344 4.32718e-19)
(0.127012 0.0447568 -2.16112e-19)
(-0.206335 -0.265115 6.78516e-19)
(0.206093 0.265462 7.08998e-19)
(0.264543 -0.20553 2.27669e-19)
(-0.265669 0.206829 -9.31229e-19)
(0.2909 -0.245684 -5.56601e-20)
(-0.292108 0.246693 -1.06475e-18)
(0.246281 0.29177 2.30461e-19)
(-0.24658 -0.291378 6.87943e-19)
(-0.0607061 0.129286 -9.07881e-20)
(0.128937 0.0605033 1.17314e-19)
(-0.129181 -0.060479 4.52981e-19)
(0.060618 -0.129007 4.22104e-19)
(0.0571407 -0.138596 5.31314e-19)
(0.138554 0.057 -2.96893e-19)
(-0.138808 -0.0569758 2.66656e-19)
(-0.0571708 0.138883 -3.57019e-19)
(0.0594057 0.249637 -5.66937e-20)
(0.248951 -0.0591671 1.51231e-19)
(-0.0599779 -0.24971 -1.27553e-19)
(-0.249553 0.059395 -3.87969e-19)
(-0.223779 0.0644774 -6.23758e-19)
(0.223338 -0.0647132 -4.94235e-19)
(0.0647132 0.223854 -1.69111e-19)
(-0.0652478 -0.223817 -3.81375e-20)
(-0.116639 -0.0617229 -1.46416e-21)
(0.116411 0.0617421 -9.08294e-20)
(-0.0618844 0.11668 1.27418e-19)
(0.0617047 -0.116501 -1.18001e-23)
(-0.0264386 -0.132883 -5.75587e-19)
(0.132706 -0.0263065 -4.88341e-19)
(-0.133055 0.0264107 -3.42918e-19)
(0.0262899 0.133012 -4.5744e-19)
(0.237013 0.359181 -7.80094e-19)
(0.358331 -0.236369 -3.38491e-19)
(-0.358934 0.237345 -1.53028e-18)
(-0.237374 -0.358907 -3.54744e-19)
(-0.0200994 -0.220438 -1.43452e-20)
(-0.220373 0.0199057 -1.77109e-19)
(0.0197956 0.220579 -1.46548e-19)
(0.22009 -0.0198778 -5.13856e-20)
(0.0828501 -0.124107 -3.68109e-20)
(-0.0832929 0.124413 3.94079e-20)
(0.124047 0.0829244 -3.65981e-19)
(-0.124277 -0.0828872 6.23939e-19)
(0.0851027 -0.101872 4.40151e-20)
(-0.102061 -0.0851721 -3.23775e-20)
(-0.0855203 0.101988 -2.19863e-20)
(0.101872 0.0852264 2.06525e-20)
(-0.0851895 -0.193054 3.81398e-21)
(-0.193671 0.0846149 1.16023e-19)
(0.0847007 0.193372 -2.43675e-19)
(0.192897 -0.0845968 -3.28821e-19)
(0.139944 -0.0301142 -6.22629e-19)
(0.0300881 0.14025 -4.48175e-19)
(-0.140302 0.030206 -7.77952e-19)
(-0.0302554 -0.140131 -6.85989e-19)
(-0.22269 0.10343 -3.80907e-19)
(0.103438 0.22242 -1.11782e-19)
(0.221663 -0.103408 9.92721e-20)
(-0.104094 -0.222003 2.76794e-19)
(-0.2144 0.0843244 -3.12442e-19)
(-0.0850319 -0.213733 8.86986e-20)
(0.0844126 0.21409 8.70295e-20)
(0.213601 -0.0843606 -7.66002e-19)
(0.137461 0.0736122 -6.45179e-19)
(0.0735642 -0.137516 5.05408e-19)
(-0.0738301 0.137812 -2.13647e-19)
(-0.137697 -0.0735675 4.47258e-19)
(0.113447 0.118426 2.36878e-19)
(0.118058 -0.113035 4.10759e-19)
(-0.113511 -0.118161 3.49031e-19)
(-0.118575 0.11365 -2.46285e-20)
(0.163124 0.284406 -5.53463e-20)
(-0.284199 0.163733 -1.02472e-18)
(0.283093 -0.162466 -5.03447e-19)
(-0.163476 -0.283367 4.96131e-19)
(0.140374 0.253749 2.57057e-19)
(-0.25365 0.140508 -1.00914e-18)
(0.252482 -0.140071 -1.13171e-19)
(-0.140651 -0.252952 5.42677e-19)
(-0.0415093 0.206139 2.69544e-19)
(-0.205971 -0.0414141 1.65585e-19)
(0.205757 0.0413572 3.69888e-19)
(0.0408024 -0.205788 1.66723e-19)
(-0.448498 0.289786 -1.67023e-18)
(0.289398 0.448564 -1.52252e-18)
(0.44792 -0.289357 -1.34202e-18)
(-0.289814 -0.448357 -1.68603e-18)
(-0.119373 -0.0901998 -2.99529e-19)
(-0.0905 0.119469 2.03209e-20)
(0.119133 0.0902405 4.70661e-19)
(0.0901441 -0.119195 6.76653e-19)
(-0.0860843 -0.270366 2.8144e-19)
(-0.270881 0.0853815 -1.0782e-18)
(0.269679 -0.0848227 1.17482e-19)
(0.0851772 0.270879 -1.51084e-19)
(-0.109965 -0.248364 3.64296e-19)
(-0.248889 0.109146 -5.91683e-19)
(0.247797 -0.10918 3.03552e-20)
(0.10926 0.248998 -2.34486e-19)
(0.0341326 0.157101 3.19782e-19)
(-0.034164 -0.156843 -1.75172e-19)
(0.156613 -0.0339918 2.11081e-20)
(-0.157054 0.0342029 -1.46978e-19)
(-0.208562 0.0367707 -2.97752e-19)
(-0.0368166 -0.208437 5.34583e-19)
(0.208002 -0.0364791 -7.61495e-20)
(0.0364787 0.208605 -2.48598e-19)
(0.0825106 -0.108342 9.25662e-20)
(-0.0829697 0.108491 -8.33005e-20)
(0.108313 0.0826154 1.18652e-20)
(-0.108516 -0.0825711 -1.31661e-19)
(-0.0682785 0.128747 1.21085e-19)
(0.128397 0.0680629 1.09641e-20)
(0.0680439 -0.128475 6.99219e-19)
(-0.128633 -0.0680313 3.49034e-19)
(-0.0894141 0.112412 -2.63243e-20)
(-0.112399 -0.0890401 -1.69928e-19)
(0.112189 0.0890939 2.40635e-19)
(0.0889716 -0.112216 3.69532e-19)
(0.0435484 0.155404 5.56109e-19)
(-0.0436062 -0.155179 -2.07302e-19)
(-0.155398 0.043614 -5.0352e-19)
(0.154953 -0.0434092 -1.94159e-19)
(-0.215992 -0.149656 7.35236e-19)
(0.215957 0.149951 7.97817e-19)
(0.149139 -0.215827 4.456e-19)
(-0.149703 0.216183 -7.63106e-19)
(0.198237 0.129985 1.04325e-18)
(-0.129979 0.198737 -6.02579e-19)
(-0.198512 -0.12984 7.86539e-19)
(0.129512 -0.198391 2.32522e-19)
(0.0299271 0.167805 4.07752e-19)
(0.167266 -0.0298254 -2.28492e-19)
(-0.029988 -0.167525 3.48568e-20)
(-0.167659 0.0300075 -2.0585e-19)
(0.204865 0.110499 1.21005e-18)
(-0.205285 -0.110295 8.71595e-19)
(-0.110193 0.205201 -1.8288e-19)
(0.109873 -0.204966 3.62695e-19)
(-0.0307529 -0.190951 3.75668e-19)
(-0.191134 0.0308201 -2.39567e-19)
(0.190673 -0.0305145 7.09459e-20)
(0.0305167 0.19118 2.9191e-20)
(0.228549 0.0997709 1.75274e-18)
(0.0990942 -0.228782 2.18026e-19)
(-0.228794 -0.0995735 4.31843e-19)
(-0.0993998 0.228895 -9.47684e-20)
(0.141463 0.019034 -4.68612e-20)
(-0.0189574 0.141861 -6.37166e-19)
(-0.141771 -0.0190052 7.55284e-19)
(0.0189682 -0.141631 6.07528e-19)
(-0.0509803 -0.164149 -3.55585e-19)
(0.163836 -0.050665 -3.59683e-20)
(-0.164332 0.0509442 -4.09388e-19)
(0.050941 0.16446 1.3614e-19)
(-0.142131 -0.0278169 2.95477e-19)
(-0.0277409 0.142227 -2.97925e-20)
(0.02778 -0.141984 7.1956e-19)
(0.14183 0.0278356 -1.6873e-19)
(-0.156796 -0.0255778 -2.34862e-19)
(0.0255589 -0.156653 6.8711e-19)
(-0.0256451 0.156854 3.04545e-19)
(0.156529 0.0255928 -3.44963e-19)
(-0.0310462 0.149856 2.06409e-19)
(-0.149848 -0.0311135 -3.97312e-19)
(0.0310869 -0.149693 8.42817e-19)
(0.149549 0.0311236 -3.09521e-19)
)
;

boundaryField
{
    insideCircle
    {
        type            myHeatFlux;
        alpha           uniform 1;
        Theta_wall      uniform 4;
        value           nonuniform List<vector> 
12
(
(-0.19216 -0.612783 -6.71961e-18)
(-0.613117 0.192046 -6.72268e-18)
(0.191801 0.612669 -6.71748e-18)
(0.611038 -0.192161 -6.70196e-18)
(0.452406 0.472884 0)
(-0.472765 0.452954 0)
(0.472564 -0.452493 0)
(-0.452908 -0.472612 0)
(-0.157517 0.622956 6.72861e-18)
(-0.622635 -0.157448 6.72518e-18)
(0.157302 -0.622852 6.72698e-18)
(0.622992 0.157481 6.72888e-18)
)
;
    }
    outsideCircle
    {
        type            myHeatFlux;
        alpha           uniform 1;
        Theta_wall      uniform 1;
        value           nonuniform List<vector> 
60
(
(-0.0689712 -0.106737 0)
(0.0688095 0.106942 0)
(-0.107118 0.0690239 0)
(0.106623 -0.0688373 0)
(0.0434822 0.118016 0)
(-0.117952 0.0435684 0)
(-0.0436245 -0.117869 0)
(0.117763 -0.0434742 0)
(0.09181 -0.0882811 0)
(-0.0921966 0.0885392 0)
(0.0883003 0.0919829 0)
(-0.0885253 -0.0918244 0)
(-0.00856102 0.125124 0)
(0.12475 0.00861171 0)
(-0.125044 -0.00856939 0)
(0.00853736 -0.124915 0)
(0.0721557 -0.105333 0)
(-0.105477 -0.0722043 0)
(0.105271 0.0722289 0)
(-0.072352 0.105398 0)
(0.124885 -0.0180493 0)
(0.0180317 0.125195 0)
(-0.125211 0.0181435 0)
(-0.0181623 -0.125051 0)
(-0.0479786 0.118508 0)
(-0.118564 -0.0478904 0)
(0.0479443 -0.118325 0)
(0.118315 0.0479005 0)
(-0.0571837 -0.114211 0)
(0.113969 -0.0569608 0)
(-0.114281 0.0573067 0)
(0.0569932 0.114225 0)
(-0.0807659 -0.102342 0)
(0.102269 -0.0806528 0)
(0.0806704 0.10246 0)
(-0.102618 0.08089 0)
(0.0224565 -0.125757 0)
(-0.125892 -0.0224984 0)
(-0.0225298 0.12579 0)
(0.125607 0.0225219 0)
(0.0362904 -0.122527 1.32319e-18)
(0.122421 0.0363393 1.32226e-18)
(-0.036418 0.122728 1.32554e-18)
(-0.12269 -0.0363283 1.32492e-18)
(0.128105 -0.00434074 0)
(-0.128412 0.00440694 0)
(0.0043231 0.128445 0)
(-0.00443092 -0.128276 0)
(-0.0312533 -0.124897 -1.3334e-18)
(-0.125076 0.0312417 -1.33516e-18)
(0.0311122 0.125026 -1.33432e-18)
(0.12474 -0.0311169 -1.33146e-18)
(-0.113624 -0.0601305 0)
(0.113398 0.0601472 0)
(-0.0602703 0.113631 0)
(0.0601219 -0.113507 0)
(0.0834603 -0.0999142 0)
(-0.100112 -0.0835384 0)
(-0.0838676 0.100026 0)
(0.0999102 0.0835785 0)
)
;
    }
    topAndBottom
    {
        type            empty;
    }
}


// ************************************************************************* //
