/*--------------------------------*- C++ -*----------------------------------*\
| =========                 |                                                 |
| \\      /  F ield         | OpenFOAM: The Open Source CFD Toolbox           |
|  \\    /   O peration     | Version:  2.2.0                                 |
|   \\  /    A nd           | Web:      www.OpenFOAM.org                      |
|    \\/     M anipulation  |                                                 |
\*---------------------------------------------------------------------------*/
FoamFile
{
    version     2.0;
    format      ascii;
    class       volScalarField;
    location    "40";
    object      Theta;
}
// * * * * * * * * * * * * * * * * * * * * * * * * * * * * * * * * * * * * * //

dimensions      [0 2 -2 0 0 0 0];

internalField   nonuniform List<scalar> 
80
(
2.26936
1.76454
1.63152
1.45049
2.26936
1.76455
1.63152
1.45049
2.26936
1.76455
1.63152
1.45049
2.26936
1.76455
1.63152
1.45049
2.26936
1.76454
1.63152
1.45049
2.26936
1.76454
1.63152
1.45049
2.26936
1.76455
1.63152
1.45049
2.26936
1.76455
1.63152
1.45049
2.26936
1.76455
1.63152
1.45049
2.26936
1.76454
1.63152
1.45049
2.26936
1.76454
1.63152
1.45049
2.26936
1.76455
1.63152
1.45049
2.26936
1.76455
1.63152
1.45049
2.26936
1.76455
1.63152
1.45049
2.26936
1.76454
1.63152
1.45049
2.26936
1.76455
1.63152
1.45049
2.26936
1.76455
1.63152
1.45049
2.26936
1.76455
1.63152
1.45049
2.26936
1.76455
1.63152
1.45049
2.26936
1.76455
1.63152
1.45049
)
;

boundaryField
{
    up
    {
        type            myTemperature;
        value           nonuniform List<scalar> 
20
(
1.3627
1.3627
1.3627
1.3627
1.3627
1.3627
1.3627
1.3627
1.3627
1.3627
1.3627
1.3627
1.3627
1.3627
1.3627
1.3627
1.3627
1.3627
1.3627
1.3627
)
;
    }
    hole
    {
        type            myTemperature;
        value           nonuniform List<scalar> 
20
(
2.5492
2.5492
2.5492
2.5492
2.5492
2.5492
2.5492
2.5492
2.5492
2.5492
2.5492
2.5492
2.5492
2.5492
2.5492
2.5492
2.5492
2.5492
2.5492
2.5492
)
;
    }
    frontAndBack
    {
        type            empty;
    }
}


// ************************************************************************* //
