/*--------------------------------*- C++ -*----------------------------------*\
| =========                 |                                                 |
| \\      /  F ield         | foam-extend: Open Source CFD                    |
|  \\    /   O peration     | Version:  3.0                                   |
|   \\  /    A nd           | Web:         http://www.extend-project.de       |
|    \\/     M anipulation  |                                                 |
\*---------------------------------------------------------------------------*/
FoamFile
{
    version     2.0;
    format      ascii;
    class       volVectorField;
    location    "9";
    object      u;
}
// * * * * * * * * * * * * * * * * * * * * * * * * * * * * * * * * * * * * * //

dimensions      [0 0 0 0 0 0 0];

internalField   nonuniform List<vector> 
400
(
(-1.56103 5.10283 -3.94849e-16)
(0.9788 1.30707 3.31796e-16)
(-0.058077 0.473122 -2.97114e-16)
(1.26384 0.338603 7.93442e-17)
(0.404 0.0900163 -7.65235e-17)
(1.36432 0.147512 8.81596e-17)
(0.571924 0.0253226 -7.61234e-17)
(1.36449 0.0758943 -1.99946e-17)
(0.638421 -0.00600511 5.13817e-17)
(1.33309 0.0364074 -1.55045e-16)
(-4.42296 -1.53492 4.11127e-16)
(-2.20688 -0.899512 6.52677e-16)
(-0.126168 -0.402082 -5.92159e-16)
(-0.2913 -0.39023 8.91963e-16)
(0.579062 -0.182407 -3.93836e-16)
(0.218062 -0.241165 -2.38e-17)
(0.909338 -0.0713056 3.731e-16)
(0.512637 -0.149335 -5.47909e-16)
(1.16313 0.0192439 4.39197e-16)
(0.719685 -0.0799002 -3.12244e-17)
(1.24548 -6.10265 -6.79014e-16)
(1.70313 -1.39238 4.92909e-16)
(0.382242 -1.1288 -1.73268e-16)
(1.4611 -0.319011 -9.65731e-18)
(0.573144 -0.493034 -1.60848e-16)
(1.43691 -0.0584699 1.93211e-15)
(0.665837 -0.304441 -2.52265e-15)
(1.38621 0.0417745 1.03108e-15)
(0.687453 -0.194866 1.48943e-15)
(1.32519 0.0976952 -2.76063e-15)
(-0.788321 -0.486203 -7.84776e-16)
(-0.534534 -1.34144 -1.19264e-16)
(0.377883 -0.458902 8.97594e-16)
(0.0881295 -0.823966 -8.10125e-16)
(0.719701 -0.26789 7.351e-16)
(0.388725 -0.527691 -9.01776e-16)
(0.965659 -0.0926518 3.47586e-16)
(0.611359 -0.315392 -3.30266e-16)
(1.15595 0.0712516 1.09284e-17)
(0.751793 -0.14842 7.48278e-16)
(2.57502 -4.05176 7.67772e-16)
(2.4137 -1.54117 1.0376e-15)
(1.12878 -1.46952 -8.11465e-16)
(1.80367 -0.532763 8.97539e-16)
(0.976331 -0.815648 9.34056e-16)
(1.57607 -0.141422 -1.67416e-15)
(0.897194 -0.524641 8.59908e-16)
(1.40999 0.0413657 -2.83088e-15)
(0.809478 -0.32729 2.75317e-15)
(1.28753 0.150115 -2.19933e-15)
(0.280774 0.193339 1.38506e-15)
(0.322635 -1.31835 5.56141e-16)
(0.847961 -0.29356 -6.17684e-16)
(0.543732 -0.983257 5.12738e-16)
(0.953863 -0.242618 -3.93729e-16)
(0.675596 -0.670796 2.48704e-16)
(1.08832 -0.0474174 2.71216e-16)
(0.793804 -0.397222 -2.85859e-16)
(1.1573 0.133296 3.1258e-16)
(0.820211 -0.209107 1.10538e-16)
(3.55742 -2.59001 -1.72817e-15)
(2.83887 -0.928788 -2.08337e-16)
(1.83969 -1.24312 1.34638e-15)
(2.07712 -0.29804 -9.17552e-16)
(1.40529 -0.789192 -1.34067e-16)
(1.67497 -0.0242953 -6.15162e-16)
(1.15064 -0.554177 3.64679e-16)
(1.41291 0.101115 -2.09381e-15)
(0.957772 -0.378347 -3.28567e-16)
(1.2408 0.190506 1.72398e-15)
(0.603229 0.458326 8.7263e-16)
(0.771081 -1.09364 3.67013e-16)
(1.0982 -0.0813202 -9.13614e-17)
(0.913248 -0.90822 -4.39693e-16)
(1.14205 -0.0899305 7.83853e-16)
(0.959552 -0.629143 2.63339e-16)
(1.17218 0.0784035 -3.00959e-16)
(0.965561 -0.380857 2.86395e-16)
(1.12554 0.207252 1.91293e-16)
(0.90371 -0.242145 -2.85646e-16)
(4.06432 -1.36777 -1.73024e-15)
(2.92297 -0.108566 7.86591e-16)
(2.25428 -0.775681 -9.75489e-16)
(2.0889 0.123922 1.49427e-15)
(1.65953 -0.565253 -6.73292e-16)
(1.63991 0.186093 -2.42122e-16)
(1.33346 -0.460335 1.06797e-15)
(1.37221 0.201118 -2.24051e-15)
(1.09784 -0.363007 1.58606e-15)
(1.19091 0.232199 -6.86717e-16)
(0.659984 0.525681 4.8772e-16)
(1.0353 -0.833984 2.1292e-16)
(1.17331 0.127237 -1.56912e-16)
(1.16463 -0.703695 -8.66302e-17)
(1.19784 0.112574 -5.90406e-17)
(1.14775 -0.492039 5.12921e-17)
(1.15187 0.20383 -1.57491e-17)
(1.07631 -0.330801 1.38306e-16)
(1.04577 0.249912 -4.86827e-17)
(0.979838 -0.249723 -1.9295e-17)
(4.06209 -0.220238 2.60617e-16)
(2.64958 0.649592 6.85629e-16)
(2.34717 -0.276845 -5.32678e-16)
(1.872 0.493817 2.16896e-16)
(1.74895 -0.30898 -1.73867e-16)
(1.49598 0.376062 1.97957e-16)
(1.44158 -0.317946 -1.84021e-16)
(1.28081 0.306075 -9.72843e-17)
(1.20943 -0.300476 1.09717e-16)
(1.12188 0.275275 -3.65202e-16)
(0.578735 0.565239 -1.24363e-15)
(1.17938 -0.562735 1.23764e-16)
(1.09813 0.312423 -8.11706e-17)
(1.28456 -0.467925 3.72347e-16)
(1.11605 0.267812 -1.7398e-16)
(1.23588 -0.352931 9.23297e-17)
(1.05515 0.262786 -1.40553e-16)
(1.14469 -0.283308 7.25776e-16)
(0.950682 0.238083 -3.91555e-16)
(1.04493 -0.238091 2.64908e-16)
(3.55837 0.728885 1.05022e-15)
(2.08891 1.17516 9.99655e-16)
(2.20904 0.139394 -2.98304e-17)
(1.5392 0.725023 -3.85632e-16)
(1.73665 -0.0751823 6.63785e-17)
(1.29401 0.500957 3.0416e-15)
(1.48536 -0.162737 -3.91057e-15)
(1.14582 0.379101 1.12314e-15)
(1.28198 -0.212949 2.72484e-15)
(1.02785 0.299954 -4.73216e-15)
(0.375397 0.560787 -2.80331e-15)
(1.20182 -0.330263 -2.14189e-16)
(0.904201 0.400196 -2.01298e-16)
(1.29874 -0.285469 6.99823e-16)
(0.956488 0.313114 -1.08832e-15)
(1.2625 -0.249898 3.23815e-16)
(0.937505 0.246964 -9.83048e-17)
(1.19101 -0.234682 1.53129e-15)
(0.872253 0.18641 -4.16452e-16)
(1.09962 -0.209753 3.26164e-16)
(2.72004 1.27634 2.1875e-15)
(1.37697 1.37394 1.51399e-15)
(1.92308 0.417021 -9.88975e-16)
(1.15755 0.803563 1.15552e-15)
(1.64098 0.113589 1.36945e-15)
(1.06067 0.539404 -2.70248e-15)
(1.46663 -0.0257826 1.43837e-15)
(0.986263 0.389617 -5.03377e-15)
(1.31512 -0.123985 4.67935e-15)
(0.91969 0.286374 -3.85854e-15)
(0.122578 0.428575 2.28844e-15)
(1.1541 -0.196019 -1.01355e-16)
(0.686373 0.338351 -1.25194e-16)
(1.27467 -0.185796 -2.23316e-16)
(0.801844 0.246853 2.21542e-16)
(1.2662 -0.179689 5.30105e-16)
(0.837683 0.179335 1.47675e-16)
(1.21989 -0.177766 1.57161e-15)
(0.820157 0.119697 -1.77396e-15)
(1.14419 -0.166504 2.34389e-15)
(1.81116 1.31134 -3.72696e-15)
(0.67204 1.20962 -1.10778e-16)
(1.56621 0.501136 1.62351e-15)
(0.775672 0.704885 -8.15105e-16)
(1.48137 0.210221 -4.77185e-16)
(0.826668 0.464634 -1.2289e-15)
(1.40312 0.0580543 3.37439e-16)
(0.833631 0.320269 -2.94288e-15)
(1.31957 -0.0517392 -6.9015e-16)
(0.818126 0.22466 2.3327e-15)
(-0.0595282 0.158418 2.69868e-15)
(1.11908 -0.151435 8.3926e-17)
(0.544814 0.160953 6.06204e-17)
(1.26898 -0.135601 -1.06533e-15)
(0.708531 0.115649 1.17875e-15)
(1.26928 -0.122649 -9.88596e-17)
(0.773009 0.0861477 1.18608e-15)
(1.23305 -0.113962 -2.71387e-16)
(0.790617 0.0526006 -3.61737e-16)
(1.17751 -0.109512 1.34907e-15)
(1.11667 0.866034 -3.23039e-15)
(0.150881 0.709222 9.45955e-16)
(1.25736 0.363268 -1.17527e-15)
(0.480352 0.416341 1.90133e-15)
(1.32418 0.180462 -8.28687e-16)
(0.649847 0.269684 -4.72036e-16)
(1.33571 0.0743885 1.38942e-15)
(0.727165 0.177263 -3.07125e-15)
(1.31195 -0.00102943 2.25934e-15)
(0.747771 0.119405 -1.15462e-15)
(-0.0918652 -0.172172 1.02505e-15)
(1.13677 -0.132898 -2.44898e-17)
(0.51612 -0.0500429 -1.48392e-16)
(1.29081 -0.0835986 -2.01161e-16)
(0.687638 -0.0264386 -1.05809e-16)
(1.27689 -0.0607932 5.59345e-17)
(0.748875 -0.0135361 6.22817e-17)
(1.23597 -0.0470049 1.89422e-16)
(0.779804 -0.0112726 -7.80996e-17)
(1.19594 -0.0409545 1.65134e-16)
(0.87059 0.132374 4.17046e-16)
(-0.0231031 0.0021202 8.19935e-16)
(1.13334 0.0670207 -7.18488e-16)
(0.37695 -0.00299577 3.20422e-16)
(1.25495 0.0543651 -2.71926e-16)
(0.592498 -0.00406479 2.2192e-16)
(1.30537 0.0438858 -2.11023e-16)
(0.697912 -0.00734986 -2.00804e-16)
(1.30439 0.0356743 1.62353e-16)
(0.728038 -0.0100522 -4.09866e-16)
(0.0270697 -0.467828 -1.69581e-15)
(1.19059 -0.0855345 -2.01892e-16)
(0.578363 -0.233448 1.88413e-16)
(1.31626 -0.00495619 3.33202e-17)
(0.722609 -0.148388 -2.62418e-17)
(1.28403 0.0142877 1.10228e-16)
(0.765436 -0.10605 -4.24209e-16)
(1.2342 0.0236239 1.44912e-15)
(0.787764 -0.0709318 -9.12923e-16)
(1.19522 0.0341365 5.4673e-16)
(1.15884 -0.575231 1.27265e-15)
(0.217778 -0.686683 1.06871e-15)
(1.26079 -0.228645 -7.3135e-18)
(0.516603 -0.418704 -5.16986e-16)
(1.31626 -0.0766839 1.20545e-16)
(0.681093 -0.274861 3.44651e-15)
(1.32843 0.010764 -4.40633e-15)
(0.754879 -0.18735 1.17165e-15)
(1.30001 0.0698625 3.15822e-15)
(0.765171 -0.136216 -5.40691e-15)
(0.251242 -0.665268 -3.12465e-15)
(1.24654 0.00899582 -2.69981e-16)
(0.699763 -0.367826 -4.58404e-16)
(1.32396 0.0940029 1.07778e-15)
(0.796245 -0.242666 -1.5739e-15)
(1.2826 0.10183 6.63412e-16)
(0.817642 -0.18072 -2.37403e-16)
(1.22645 0.101277 2.03702e-15)
(0.81404 -0.123861 -5.45801e-16)
(1.17309 0.108295 1.32238e-16)
(1.86082 -0.942293 2.96046e-15)
(0.789295 -1.1262 1.76135e-15)
(1.57718 -0.352897 -9.65979e-16)
(0.849491 -0.686529 1.21274e-15)
(1.47293 -0.113508 1.4129e-15)
(0.886282 -0.457889 -2.71015e-15)
(1.38841 0.0196756 1.47735e-15)
(0.882143 -0.318235 -5.22663e-15)
(1.29493 0.111641 4.89081e-15)
(0.850182 -0.232494 -4.16321e-15)
(0.518228 -0.732993 2.0959e-15)
(1.27885 0.153273 -1.42727e-16)
(0.863273 -0.441453 -1.60157e-16)
(1.31067 0.201957 -1.47857e-16)
(0.901622 -0.306277 1.77376e-16)
(1.26529 0.195708 5.45073e-16)
(0.895627 -0.231582 1.1791e-16)
(1.20367 0.1842 1.55663e-15)
(0.855506 -0.169084 -1.68441e-15)
(1.13063 0.173242 2.10696e-15)
(2.70029 -0.794415 -3.3013e-15)
(1.4927 -1.18923 -1.70876e-16)
(1.92382 -0.226164 1.58766e-15)
(1.24986 -0.732367 -8.4982e-16)
(1.63114 -0.0108205 -3.75828e-16)
(1.13599 -0.505606 -1.11358e-15)
(1.4434 0.0941174 3.05728e-16)
(1.04405 -0.370648 -2.77301e-15)
(1.27931 0.167692 -6.00786e-16)
(0.961719 -0.281068 2.1104e-15)
(0.749824 -0.667701 2.14144e-15)
(1.25586 0.352023 1.5113e-16)
(1.04458 -0.428429 5.77442e-17)
(1.27509 0.324671 -9.16596e-16)
(1.03094 -0.324426 1.07963e-15)
(1.22608 0.289584 3.26466e-17)
(0.988793 -0.256819 7.08155e-16)
(1.15681 0.260932 -6.52949e-17)
(0.910607 -0.208318 -1.84924e-16)
(1.07202 0.221756 8.47012e-16)
(3.37468 -0.154237 -2.62309e-15)
(2.11933 -0.890429 8.65208e-16)
(2.14669 0.104419 -1.04126e-15)
(1.59473 -0.580849 1.68323e-15)
(1.69929 0.197252 -7.56028e-16)
(1.35454 -0.42687 -3.77574e-16)
(1.44658 0.222719 1.22727e-15)
(1.19754 -0.340313 -2.63561e-15)
(1.23865 0.236393 1.87986e-15)
(1.07328 -0.27858 -8.10194e-16)
(0.860857 -0.521381 8.23194e-16)
(1.12597 0.589297 1.9409e-16)
(1.18355 -0.312987 -1.7006e-16)
(1.19259 0.475075 -1.10854e-16)
(1.15489 -0.275377 -7.23011e-17)
(1.15626 0.380281 4.12369e-17)
(1.08628 -0.252667 7.59882e-17)
(1.08507 0.315828 1.05571e-16)
(0.98176 -0.239293 -3.00066e-17)
(1.00266 0.248642 1.42659e-16)
(3.66136 0.802752 -1.05093e-19)
(2.5286 -0.333538 6.5944e-16)
(2.17461 0.523886 -5.33671e-16)
(1.82797 -0.307767 2.38349e-16)
(1.64539 0.431191 -1.82273e-16)
(1.50272 -0.269068 1.34135e-16)
(1.37393 0.364509 -1.05993e-16)
(1.31017 -0.248268 -1.2751e-16)
(1.16179 0.303447 1.0962e-16)
(1.16347 -0.236474 -2.08668e-16)
(0.815387 -0.41457 -8.66436e-16)
(0.853969 0.798478 2.08036e-16)
(1.20717 -0.137553 -1.48629e-16)
(1.01992 0.637922 4.15056e-16)
(1.21871 -0.157523 -1.59967e-16)
(1.04023 0.46395 -2.58324e-19)
(1.16911 -0.210766 2.96406e-17)
(0.995222 0.340332 3.31912e-16)
(1.06774 -0.249015 -1.73958e-16)
(0.927908 0.250109 2.80468e-16)
(3.45614 1.82433 4.58703e-16)
(2.64736 0.35584 8.12752e-16)
(2.00245 0.932456 -9.35405e-17)
(1.94464 0.031739 -2.41851e-16)
(1.49403 0.631814 -4.37977e-17)
(1.58155 -0.0766163 2.52502e-15)
(1.23592 0.476117 -3.23768e-15)
(1.37126 -0.128157 1.13766e-15)
(1.05011 0.346719 2.03885e-15)
(1.22306 -0.174924 -3.63316e-15)
(0.673996 -0.461785 -1.85427e-15)
(0.477011 0.898434 -1.72689e-16)
(1.0964 0.004729 3.98273e-16)
(0.739707 0.753675 -1.33312e-16)
(1.17139 -0.0117868 -3.27529e-17)
(0.859325 0.524525 -4.27337e-16)
(1.20331 -0.129172 1.50978e-16)
(0.889947 0.337963 3.40122e-16)
(1.15139 -0.220018 -1.65773e-16)
(0.853391 0.224068 5.16995e-16)
(2.78772 2.67384 1.36486e-15)
(2.4512 1.04466 1.1415e-15)
(1.62192 1.25195 -9.0693e-16)
(1.9198 0.401566 9.64938e-16)
(1.26055 0.775953 1.00862e-15)
(1.59393 0.123515 -1.77629e-15)
(1.05601 0.531816 9.194e-16)
(1.38775 -0.0133437 -3.18315e-15)
(0.91753 0.346169 3.08739e-15)
(1.25642 -0.115284 -2.59582e-15)
(0.504507 -0.639089 1.04182e-15)
(0.067557 0.874139 5.14074e-16)
(0.892765 0.0552135 -6.48771e-16)
(0.393037 0.750273 5.50166e-16)
(1.00713 0.0899371 -4.24108e-16)
(0.611457 0.519295 2.67378e-16)
(1.15275 -0.0349807 2.24983e-16)
(0.758089 0.307971 -2.38283e-16)
(1.19997 -0.152446 3.39154e-16)
(0.783969 0.170682 -8.45816e-17)
(1.76254 3.30417 -1.24793e-15)
(1.99146 1.59111 -1.31823e-16)
(1.03105 1.37095 1.30259e-15)
(1.71127 0.695473 -9.77413e-16)
(0.927755 0.802821 -3.09863e-17)
(1.52603 0.28172 -5.04884e-16)
(0.848358 0.503712 3.25629e-16)
(1.37658 0.0679425 -1.93079e-15)
(0.785326 0.289153 -2.35396e-16)
(1.28105 -0.0684924 1.48868e-15)
(0.14946 -0.772262 6.45884e-17)
(-0.397937 0.727275 4.63326e-16)
(0.599324 0.0240396 -1.09862e-16)
(0.048341 0.573613 -2.78369e-16)
(0.783642 0.0838374 6.7644e-16)
(0.350108 0.382773 4.04908e-16)
(1.02747 0.0103117 -8.51178e-16)
(0.603603 0.218687 5.24712e-16)
(1.19616 -0.079508 3.80411e-16)
(0.727579 0.0905921 -8.32286e-16)
(0.342627 3.96438 -7.73389e-16)
(1.41021 1.81806 5.79217e-16)
(0.351846 1.15718 -8.1771e-16)
(1.40079 0.714548 1.1686e-15)
(0.563545 0.582791 -5.93724e-16)
(1.40832 0.30255 -1.54471e-16)
(0.651172 0.337911 8.62516e-16)
(1.36067 0.097511 -1.73367e-15)
(0.68028 0.170374 1.14588e-15)
(1.31119 -0.0222766 -3.1657e-16)
(-0.938236 -0.801295 7.57884e-17)
(-1.06287 0.264293 3.74783e-16)
(0.187915 -0.112957 -2.43713e-16)
(-0.227039 0.174717 -2.92587e-18)
(0.607633 -0.0377173 -3.63002e-17)
(0.194231 0.0951011 2.24887e-17)
(0.920162 -0.0244799 -8.63475e-18)
(0.498423 0.0454085 3.95938e-17)
(1.17262 -0.0301028 1.77741e-18)
(0.704074 -0.00330061 -4.53069e-17)
)
;

boundaryField
{
    up
    {
        type            fixedValue;
        value           uniform (1 0 0);
    }
    hole
    {
        type            myImplicitVelocity;
    }
    frontAndBack
    {
        type            empty;
    }
}


// ************************************************************************* //
