/*--------------------------------*- C++ -*----------------------------------*\
| =========                 |                                                 |
| \\      /  F ield         | foam-extend: Open Source CFD                    |
|  \\    /   O peration     | Version:  3.0                                   |
|   \\  /    A nd           | Web:         http://www.extend-project.de       |
|    \\/     M anipulation  |                                                 |
\*---------------------------------------------------------------------------*/
FoamFile
{
    version     2.0;
    format      ascii;
    class       volScalarField;
    location    "7";
    object      p;
}
// * * * * * * * * * * * * * * * * * * * * * * * * * * * * * * * * * * * * * //

dimensions      [0 0 0 0 0 0 0];

internalField   nonuniform List<scalar> 
480
(
-0.233517
-0.190183
-0.17921
-0.158892
-0.156904
-0.146782
-0.147613
-0.142225
-0.142153
-0.137458
-0.22977
-0.187226
-0.176495
-0.156567
-0.154663
-0.144753
-0.14562
-0.140347
-0.14031
-0.135668
-0.222285
-0.181265
-0.170961
-0.151779
-0.150014
-0.140505
-0.141422
-0.136367
-0.136387
-0.131864
-0.21094
-0.172207
-0.162544
-0.144476
-0.142917
-0.134006
-0.134999
-0.130274
-0.130383
-0.126046
-0.196152
-0.160366
-0.151512
-0.134874
-0.133558
-0.125407
-0.126473
-0.122166
-0.122375
-0.118287
-0.177922
-0.145742
-0.137875
-0.122976
-0.121949
-0.114718
-0.11586
-0.112059
-0.11238
-0.108608
-0.156774
-0.128727
-0.121972
-0.109062
-0.108336
-0.102145
-0.103341
-0.100107
-0.100533
-0.097141
-0.132825
-0.109417
-0.1039
-0.093208
-0.0928013
-0.0877604
-0.0889921
-0.0863833
-0.0869037
-0.0839549
-0.106684
-0.0882736
-0.0840676
-0.0757526
-0.0756532
-0.0718306
-0.0730594
-0.0711087
-0.0717053
-0.0692516
-0.0785679
-0.0654741
-0.0626467
-0.056846
-0.0570439
-0.0544963
-0.0556848
-0.0544189
-0.0550679
-0.0531599
-0.0491525
-0.0415412
-0.0401077
-0.0368836
-0.0373444
-0.0360848
-0.0371817
-0.036602
-0.0372695
-0.0359456
-0.0187266
-0.0167161
-0.0166864
-0.0160778
-0.0167706
-0.0168015
-0.0177593
-0.0178619
-0.0185145
-0.0178109
0.0119956
0.00843608
0.00710023
0.00512682
0.00425232
0.00296849
0.00220629
0.00144826
0.000852733
0.000913587
0.0426861
0.0336345
0.0309741
0.0264721
0.0254581
0.0229661
0.0224463
0.0210627
0.020562
0.0199627
0.072622
0.0582956
0.0543936
0.0474828
0.0463844
0.0427635
0.0425361
0.0405759
0.0402109
0.0389514
0.101474
0.082129
0.077066
0.0678794
0.0667377
0.0620681
0.062165
0.0596751
0.0594739
0.0575615
0.128545
0.104562
0.0984539
0.0871817
0.0860449
0.0804339
0.0808843
0.0779257
0.0779159
0.0753758
0.153545
0.12533
0.118283
0.105121
0.104018
0.097569
0.0983784
0.0950071
0.0951968
0.0920601
0.175839
0.143904
0.136056
0.121246
0.120209
0.113045
0.114214
0.110497
0.110899
0.107215
0.195211
0.160078
0.15155
0.135333
0.134372
0.126608
0.12811
0.124105
0.124706
0.120532
0.211126
0.173404
0.164342
0.146996
0.146122
0.137888
0.139689
0.135463
0.136247
0.131662
0.223476
0.183765
0.174299
0.15609
0.155294
0.146704
0.14875
0.144357
0.14529
0.140378
0.231854
0.190822
0.1811
0.162327
0.161602
0.152789
0.155017
0.150521
0.151565
0.146426
0.236283
0.194573
0.184727
0.165669
0.16499
0.156068
0.158402
0.153855
0.154965
0.149696
0.236503
0.194809
0.184987
0.165949
0.165299
0.156397
0.15876
0.154223
0.155349
0.150058
0.232688
0.191659
0.18199
0.163253
0.162603
0.153833
0.156141
0.151665
0.152753
0.147545
0.224727
0.185048
0.175679
0.157544
0.156876
0.148367
0.150544
0.146189
0.147194
0.142176
0.212947
0.175239
0.166296
0.149033
0.148326
0.140188
0.142161
0.137978
0.138856
0.134129
0.197381
0.162285
0.153911
0.137807
0.137053
0.129413
0.131123
0.127173
0.127885
0.123546
0.178497
0.146573
0.138889
0.124193
0.123384
0.11635
0.117747
0.114084
0.114602
0.110732
0.156452
0.128261
0.121403
0.108373
0.107523
0.101218
0.102273
0.09896
0.0992732
0.0959423
0.131831
0.107838
0.101917
0.0907656
0.089887
0.0844145
0.0851106
0.0822019
0.0823044
0.0795638
0.104889
0.0855396
0.0806763
0.0716193
0.0707447
0.0662168
0.0665603
0.0641183
0.0640257
0.0619186
0.0762931
0.0619219
0.0582077
0.0514075
0.0505675
0.0470732
0.0470776
0.045152
0.044876
0.0434266
0.0463579
0.0372659
0.0347966
0.0304075
0.0296497
0.0272815
0.0269839
0.0256301
0.0252071
0.0244304
0.0157979
0.012157
0.010993
0.0091087
0.00847363
0.00729433
0.00673387
0.00599119
0.00545451
0.00534427
-0.0150499
-0.0131133
-0.0129137
-0.0122154
-0.0126761
-0.0126066
-0.0133748
-0.0134664
-0.0140708
-0.013529
-0.045466
-0.0379651
-0.0363846
-0.0330948
-0.0333432
-0.0320017
-0.0329278
-0.0323493
-0.0329835
-0.0318211
-0.0751262
-0.0621279
-0.0591568
-0.0532881
-0.0532817
-0.0506535
-0.0516792
-0.0504145
-0.0510316
-0.0492825
-0.103343
-0.0850571
-0.0807314
-0.0723702
-0.0720863
-0.0681987
-0.0692776
-0.0673348
-0.0679026
-0.0656113
-0.129837
-0.106529
-0.100895
-0.0901511
-0.0895678
-0.0844597
-0.0855461
-0.0829404
-0.0834282
-0.0806372
-0.153984
-0.126058
-0.11921
-0.106267
-0.105386
-0.0991422
-0.100206
-0.0969791
-0.09737
-0.0941321
-0.175581
-0.143486
-0.135527
-0.120588
-0.119415
-0.112129
-0.113146
-0.109345
-0.109631
-0.105999
-0.194087
-0.158398
-0.149477
-0.132817
-0.131384
-0.123193
-0.124154
-0.119853
-0.120029
-0.116066
-0.209398
-0.17072
-0.160991
-0.142892
-0.141229
-0.132278
-0.13318
-0.128455
-0.128534
-0.124299
-0.221073
-0.180114
-0.169772
-0.150578
-0.148744
-0.139214
-0.140071
-0.135023
-0.135025
-0.13058
-0.229128
-0.1866
-0.175831
-0.155882
-0.153926
-0.143998
-0.144822
-0.13955
-0.139498
-0.134904
-0.233222
-0.189916
-0.178949
-0.158633
-0.156631
-0.146508
-0.147327
-0.141943
-0.14187
-0.137191
)
;

boundaryField
{
    out
    {
        type            implicitExtrapolation;
    }
    in
    {
        type            implicitExtrapolation;
    }
    frontAndBack
    {
        type            empty;
    }
}


// ************************************************************************* //
