/*--------------------------------*- C++ -*----------------------------------*\
| =========                 |                                                 |
| \\      /  F ield         | foam-extend: Open Source CFD                    |
|  \\    /   O peration     | Version:  3.0                                   |
|   \\  /    A nd           | Web:         http://www.extend-project.de       |
|    \\/     M anipulation  |                                                 |
\*---------------------------------------------------------------------------*/
FoamFile
{
    version     2.0;
    format      ascii;
    class       volSymmTensorField;
    location    "7";
    object      sigma;
}
// * * * * * * * * * * * * * * * * * * * * * * * * * * * * * * * * * * * * * //

dimensions      [0 0 0 0 0 0 0];

internalField   nonuniform List<symmTensor> 
480
(
(-0.166158 -0.0126023 2.1727e-20 0.165467 -3.24993e-21 0.000690612)
(-0.149746 -0.0141194 9.74143e-20 0.148062 -3.0042e-20 0.0016842)
(-0.128511 -0.0135455 1.00331e-19 0.126028 1.61301e-19 0.0024826)
(-0.107737 -0.0123324 -6.52567e-20 0.104631 1.07703e-19 0.00310644)
(-0.0890105 -0.011014 1.06847e-19 0.0854615 -1.8563e-19 0.00354902)
(-0.0726807 -0.00981872 3.65644e-19 0.0689092 -7.97514e-20 0.00377154)
(-0.0587098 -0.00882627 3.68478e-19 0.0549868 -1.67844e-19 0.00372293)
(-0.0471669 -0.00812425 3.78418e-20 0.0438483 -5.20596e-20 0.00331855)
(-0.0379427 -0.00771474 4.36771e-19 0.0354783 -6.44512e-19 0.0024644)
(-0.031475 -0.00777537 5.82738e-20 0.0304523 -1.56193e-19 0.00102269)
(-0.161628 -0.0367326 1.30898e-21 0.160948 -1.21759e-20 0.000680171)
(-0.142912 -0.0405232 1.45264e-19 0.141253 -1.06566e-19 0.0016591)
(-0.121268 -0.0383924 3.2953e-19 0.118822 -1.72693e-19 0.00244597)
(-0.100772 -0.0344445 -9.05312e-21 0.0977113 -1.51311e-19 0.00306087)
(-0.082549 -0.0301819 -2.00219e-19 0.0790521 -1.82476e-19 0.00349689)
(-0.0667386 -0.0262395 2.01765e-19 0.0630229 -2.20768e-20 0.00371576)
(-0.0532292 -0.0228302 2.9622e-19 0.0495621 -2.07942e-19 0.00366713)
(-0.0420148 -0.020186 1.01171e-19 0.0387468 -1.63626e-19 0.00326797)
(-0.0329921 -0.0183113 -5.09492e-19 0.0305661 -4.56661e-19 0.00242604)
(-0.0264668 -0.0176531 1.14622e-19 0.0254606 2.58034e-19 0.00100627)
(-0.152959 -0.0592462 -4.76307e-20 0.1523 -4.28076e-20 0.000658541)
(-0.130079 -0.0637994 -5.61217e-21 0.128473 -2.28793e-19 0.0016064)
(-0.107764 -0.059726 1.29964e-20 0.105395 -1.96838e-19 0.00236814)
(-0.0878601 -0.0530813 -1.35614e-19 0.0848969 -2.10522e-20 0.00296323)
(-0.0706474 -0.0460671 -1.83584e-19 0.0672625 3.14484e-19 0.00338496)
(-0.0558808 -0.0395985 3.49488e-19 0.0522845 1.18856e-19 0.00359633)
(-0.0433134 -0.0339785 9.48955e-20 0.0397647 -3.64679e-20 0.00354867)
(-0.0328034 -0.029538 -1.46101e-19 0.0296417 -1.05341e-19 0.00316175)
(-0.0242554 -0.0262901 -1.55381e-19 0.021909 5.41306e-19 0.00234648)
(-0.0177551 -0.0248629 6.26616e-19 0.0167823 -4.19185e-19 0.000972796)
(-0.140805 -0.0792825 -1.50147e-19 0.14018 -1.16574e-20 0.000625508)
(-0.112682 -0.0823494 -4.0356e-19 0.111156 2.18805e-19 0.00152586)
(-0.0896453 -0.0757681 1.65865e-20 0.0873959 3.05925e-19 0.00224939)
(-0.0706488 -0.0664958 2.23006e-19 0.0678343 2.65036e-19 0.0028145)
(-0.0548715 -0.0570303 1.00056e-19 0.0516567 3.68239e-19 0.00321482)
(-0.0415736 -0.0483794 1.48604e-19 0.0381584 -9.99207e-20 0.00341516)
(-0.0303328 -0.0408705 2.58002e-19 0.0269634 -7.77881e-20 0.00336938)
(-0.0208357 -0.0348666 3.49101e-19 0.0178344 -8.08461e-21 0.00300136)
(-0.0129904 -0.0303989 2.36212e-19 0.0107636 -5.49917e-19 0.00222674)
(-0.00662274 -0.0281658 -8.89792e-19 0.00570006 8.41e-20 0.000922679)
(-0.126027 -0.0962651 3.49836e-20 0.125445 -1.86943e-20 0.000581618)
(-0.0925996 -0.0952169 -3.12607e-19 0.0911807 5.20399e-19 0.00141887)
(-0.0690742 -0.0854818 -2.38379e-19 0.0669825 5.56705e-19 0.00209172)
(-0.0512974 -0.0736821 -2.31993e-20 0.0486802 3.7635e-19 0.0026172)
(-0.0372734 -0.0621361 4.07434e-19 0.034284 -1.2285e-19 0.00298934)
(-0.025739 -0.0517246 5.29951e-20 0.0225637 -5.06349e-19 0.00317533)
(-0.0160846 -0.0427202 4.60089e-19 0.0129523 -8.20063e-19 0.00313231)
(-0.00781771 -0.0354416 -2.10293e-19 0.00502817 -6.81077e-19 0.00278954)
(-0.000840362 -0.0299407 -2.34418e-19 -0.0012285 -6.53053e-19 0.00206886)
(0.00527429 -0.0268807 5.45697e-19 -0.00613107 2.78714e-19 0.000856774)
(-0.109563 -0.109947 6.33828e-20 0.109036 1.58855e-19 0.000527656)
(-0.0718817 -0.102201 3.41996e-19 0.0705944 3.54655e-19 0.00128731)
(-0.0484046 -0.0887047 3.19664e-19 0.0465067 2.82103e-19 0.00189792)
(-0.032159 -0.0745105 2.12521e-19 0.0297843 -6.55184e-20 0.00237477)
(-0.0200898 -0.0612827 -4.93588e-20 0.0173774 -7.0006e-19 0.00271241)
(-0.0104722 -0.0495568 -5.02505e-19 0.00759124 -1.02159e-18 0.00288095)
(-0.00252841 -0.0394712 -1.10479e-18 -0.000313118 -5.19605e-19 0.00284152)
(0.00438945 -0.0312256 1.00621e-19 -0.00691943 -4.49384e-19 0.00252997)
(0.0103954 -0.0248901 -1.06302e-18 -0.0122711 -2.91669e-19 0.00187564)
(0.0161223 -0.0209917 4.41391e-19 -0.0168986 -3.6636e-19 0.000776282)
(-0.0923049 -0.120404 -3.85721e-20 0.0918403 2.22285e-19 0.000464571)
(-0.0524466 -0.103855 5.73573e-19 0.051313 4.37207e-20 0.00113353)
(-0.0298383 -0.086152 7.92906e-19 0.0281669 -2.69994e-19 0.00167141)
(-0.0154339 -0.0697336 6.25552e-19 0.0133425 -7.18791e-19 0.00209148)
(-0.00541331 -0.0552098 -3.75018e-19 0.00302441 -8.52829e-19 0.0023889)
(0.00226642 -0.0425901 -9.69461e-19 -0.0048036 -5.31855e-19 0.00253718)
(0.00850034 -0.031809 -1.16971e-18 -0.0110024 1.87254e-19 0.00250207)
(0.0140395 -0.0228857 -6.52646e-19 -0.0162666 -3.56565e-19 0.00222711)
(0.0190259 -0.0158986 -1.50676e-18 -0.0206763 2.7486e-19 0.00165035)
(0.0242135 -0.0111691 2.12756e-19 -0.024896 -1.32731e-19 0.000682509)
(-0.0749794 -0.127979 9.78587e-20 0.0745859 -1.73284e-20 0.000393479)
(-0.0358095 -0.101373 2.66682e-19 0.0348493 -1.99574e-19 0.000960219)
(-0.0151056 -0.0792867 1.89176e-19 0.0136895 -3.78568e-19 0.00141613)
(-0.00284922 -0.0608577 -1.0944e-19 0.00107699 -4.72598e-19 0.00177223)
(0.00511377 -0.0453789 -6.29364e-19 -0.00713815 -2.31575e-19 0.00202438)
(0.0109376 -0.0322182 -6.16089e-19 -0.0130875 3.48383e-20 0.00214988)
(0.0155593 -0.0210578 -4.8728e-19 -0.0176791 1.38267e-19 0.00211975)
(0.0197607 -0.0117 -5.4269e-19 -0.0216468 1.55218e-19 0.0018861)
(0.0237173 -0.00421494 -2.85929e-19 -0.0251141 -7.4916e-20 0.00139684)
(0.0281936 0.00130074 -1.09846e-18 -0.0287707 1.24906e-19 0.000577073)
(-0.0580729 -0.133181 -2.46731e-20 0.0577573 -6.4431e-20 0.000315614)
(-0.0228764 -0.096376 -2.40461e-19 0.022106 -1.47019e-19 0.000770394)
(-0.00522057 -0.0700775 -4.52643e-19 0.00408406 -1.01945e-19 0.00113651)
(0.0045914 -0.0499031 -3.77936e-19 -0.00601397 4.14796e-20 0.00142257)
(0.010541 -0.0337459 -6.96069e-22 -0.0121661 2.78435e-20 0.00162514)
(0.0146541 -0.0203023 -3.6943e-19 -0.0163799 2.58077e-20 0.00172574)
(0.0178189 -0.00898519 -3.13461e-19 -0.0195199 5.86021e-20 0.00170107)
(0.0207659 0.000625861 -3.02394e-19 -0.0222787 1.84443e-19 0.00151275)
(0.023703 0.00848682 -6.42069e-20 -0.0248223 -7.13866e-20 0.00111933)
(0.0273041 0.0146977 -5.48302e-19 -0.0277658 3.02834e-19 0.000461714)
(-0.0417983 -0.13658 -4.20117e-20 0.041566 -4.70473e-20 0.000232311)
(-0.0138356 -0.0906415 -1.18965e-19 0.0132683 -1.60783e-19 0.000567314)
(-0.000347605 -0.060684 -6.46725e-19 -0.000489759 -3.12754e-20 0.000837364)
(0.0067456 -0.039088 -5.87377e-19 -0.00779406 1.41642e-19 0.00104846)
(0.0107451 -0.0224621 -3.93253e-19 -0.0119431 1.94274e-19 0.00119798)
(0.0133111 -0.00889335 -2.71593e-20 -0.0145831 1.29603e-19 0.00127193)
(0.0151875 0.00245704 -3.10304e-19 -0.0164406 1.35361e-19 0.00125312)
(0.0169751 0.0122074 1.14248e-20 -0.0180884 3.35274e-19 0.0011133)
(0.0189023 0.0203588 5.50213e-19 -0.0197248 3.78718e-20 0.000822479)
(0.0214822 0.0271371 -1.03349e-19 -0.0218205 -2.35777e-20 0.000338347)
(-0.026111 -0.138681 -4.86879e-20 0.025966 -3.06001e-20 0.000145013)
(-0.00816345 -0.0858145 -8.14832e-20 0.00780896 -1.06517e-19 0.000354498)
(0.000199952 -0.0531145 -3.33384e-19 -0.000723806 -1.31629e-20 0.000523854)
(0.0043386 -0.0304824 -2.33884e-19 -0.00499499 1.15733e-19 0.000656392)
(0.00643992 -0.0135417 -2.39033e-19 -0.0071902 1.16639e-19 0.000750284)
(0.00759711 8.29326e-05 -4.05964e-19 -0.00839339 9.0412e-20 0.000796276)
(0.00832584 0.0114301 -3.79944e-19 -0.00910942 1.80522e-19 0.000783577)
(0.00903179 0.0212634 -8.42939e-20 -0.00972639 3.0369e-19 0.0006946)
(0.00994326 0.0296411 4.14159e-19 -0.0104546 5.98002e-20 0.000511331)
(0.0113796 0.0368225 -3.92897e-20 -0.0115887 -2.28488e-20 0.000209081)
(-0.0107698 -0.139839 -6.84836e-20 0.0107146 -1.54052e-20 5.5211e-05)
(-0.0047406 -0.0831423 -1.21736e-19 0.00460501 -7.14011e-20 0.000135598)
(-0.0021692 -0.0489108 -2.58854e-19 0.00196783 -1.21765e-20 0.000201367)
(-0.00116193 -0.0256867 -3.43692e-19 0.000908854 1.10189e-19 0.000253081)
(-0.000939467 -0.00855091 -3.30429e-19 0.000649753 1.05745e-19 0.000289714)
(-0.00111001 0.00512129 -3.15101e-19 0.000803106 8.97506e-20 0.000306905)
(-0.00144783 0.016488 -1.45263e-19 0.0011474 1.66055e-19 0.000300431)
(-0.00178383 0.0263848 -8.60672e-20 0.00152011 2.6626e-19 0.000263722)
(-0.00191655 0.0349314 3.01142e-19 0.00172545 1.08582e-19 0.000191095)
(-0.00170612 0.0423253 1.50559e-19 0.00163008 -3.22834e-20 7.60321e-05)
(0.00457308 -0.140189 -6.53856e-20 -0.00453755 -3.86657e-21 -3.55366e-05)
(-0.0020603 -0.083279 -1.8538e-19 0.00214589 -5.67065e-20 -8.55916e-05)
(-0.00556486 -0.048907 -1.5186e-19 0.00568936 -1.99668e-20 -0.000124506)
(-0.00778654 -0.0255819 -2.87292e-19 0.00794101 1.05829e-19 -0.000154471)
(-0.00946455 -0.00836475 -3.78306e-19 0.00964029 1.0696e-19 -0.000175737)
(-0.0109564 0.00537031 -2.66162e-19 0.0111441 7.51837e-20 -0.000187683)
(-0.0123556 0.0168021 6.43601e-21 0.0125435 1.18106e-19 -0.00018791)
(-0.0137408 0.0267555 -1.40442e-19 0.0139126 2.11138e-19 -0.000171812)
(-0.0149658 0.0354009 1.10762e-19 0.0150984 9.88799e-20 -0.000132606)
(-0.0160124 0.042795 1.83481e-19 0.0160708 -3.47897e-20 -5.84345e-05)
(0.0202674 -0.139636 -7.89656e-20 -0.0201417 1.07914e-20 -0.000125677)
(0.00150555 -0.0861848 -2.21763e-19 -0.00120028 -4.47547e-20 -0.000305271)
(-0.007929 -0.0530999 5.16752e-21 0.00837716 -3.12439e-20 -0.00044816)
(-0.0133812 -0.0301908 -1.3667e-20 0.0139404 9.99699e-20 -0.000559255)
(-0.0170178 -0.0130272 -4.80151e-19 0.0176558 9.53058e-20 -0.000638053)
(-0.0198993 0.000769458 -2.97145e-19 0.0205782 6.03686e-20 -0.000678965)
(-0.0224299 0.0122945 -2.09249e-19 0.0231029 5.65028e-20 -0.000673011)
(-0.0249153 0.022282 2.1492e-19 0.0255198 1.52467e-19 -0.000604454)
(-0.0272872 0.0309306 -3.60281e-19 0.0277414 6.13899e-20 -0.000454137)
(-0.0295638 0.0381172 6.37007e-20 0.0297558 -5.16109e-21 -0.000191984)
(0.0365653 -0.137878 -2.63561e-20 -0.0363516 4.32633e-20 -0.000213647)
(0.00742358 -0.0911369 -2.46394e-19 -0.00690394 -9.2139e-21 -0.000519645)
(-0.00737525 -0.0606499 -3.48014e-19 0.00813926 -7.92063e-20 -0.000764004)
(-0.0159543 -0.0386726 -2.51259e-19 0.0169086 1.54639e-20 -0.000954269)
(-0.0216282 -0.02174 -3.73762e-19 0.0227175 7.19149e-20 -0.00108923)
(-0.0260268 -0.00793449 -8.77742e-20 0.0271852 7.12551e-20 -0.00115841)
(-0.0298185 0.00366097 -1.54216e-19 0.0309649 5.70602e-20 -0.00114642)
(-0.033486 0.0136242 -2.63097e-20 0.0345126 5.39551e-20 -0.00102663)
(-0.037048 0.0221483 -1.97726e-19 0.0378158 -4.99962e-20 -0.000767825)
(-0.0404684 0.0289321 3.76836e-19 0.0407906 1.47933e-20 -0.000322236)
(0.0535424 -0.134466 -3.46098e-20 -0.0532444 5.11067e-20 -0.000297946)
(0.0167437 -0.0968484 -4.24888e-19 -0.0160187 -4.94119e-20 -0.000725044)
(-0.00250138 -0.0700124 -1.19516e-19 0.003568 -9.2735e-20 -0.00106663)
(-0.0139999 -0.04945 1.27878e-19 0.0153327 -3.08945e-21 -0.00133274)
(-0.0217864 -0.0329803 1.50874e-19 0.023308 2.05718e-19 -0.00152152)
(-0.0278592 -0.0192954 -2.53643e-19 0.029477 1.68771e-19 -0.00161779)
(-0.033072 -0.00772887 -2.65227e-19 0.034672 -8.06551e-20 -0.00159999)
(-0.0380156 0.00209928 2.45151e-20 0.0394466 -1.02197e-19 -0.00143105)
(-0.042789 0.0103409 6.88983e-20 0.0438572 -4.64996e-21 -0.00106823)
(-0.0472273 0.0165678 -6.76541e-19 0.0476742 8.61521e-20 -0.000446918)
(0.0710515 -0.128893 5.37469e-20 -0.0706743 -3.00095e-20 -0.000377123)
(0.0299097 -0.101676 2.13698e-19 -0.0289918 9.12954e-20 -0.000917949)
(0.00737263 -0.0791802 1.59739e-19 -0.00602179 1.11931e-19 -0.00135085)
(-0.00674698 -0.0604541 4.21492e-20 0.00843519 1.08675e-19 -0.0016882)
(-0.0166909 -0.044735 6.76721e-20 0.0186185 1.87148e-19 -0.00192753)
(-0.0245878 -0.0313883 -5.13395e-19 0.026637 2.25344e-19 -0.00204922)
(-0.0313773 -0.0200366 -7.14277e-19 0.0334032 -2.73465e-19 -0.00202594)
(-0.0376807 -0.0105108 -3.74149e-19 0.0394915 1.6909e-19 -0.0018108)
(-0.0436516 -0.00273304 -1.34626e-18 0.0450018 -5.45476e-19 -0.00135025)
(-0.0489581 0.00281861 8.904e-19 0.049522 1.08142e-20 -0.000563933)
(0.0887136 -0.120689 -1.03175e-19 -0.0882638 -2.80481e-19 -0.000449833)
(0.0466645 -0.103882 4.77604e-19 -0.0455694 -1.18206e-19 -0.00109509)
(0.022077 -0.0859988 5.27623e-19 -0.0204652 6.46026e-20 -0.00161184)
(0.00570196 -0.0694455 3.7585e-19 -0.00368735 3.58678e-19 -0.0020146)
(-0.00638939 -0.0548108 -4.35879e-19 0.00868974 3.35449e-19 -0.00230036)
(-0.0162154 -0.0421041 -7.77173e-19 0.0186607 4.94365e-19 -0.00244536)
(-0.0246949 -0.0312352 -1.42711e-18 0.0271119 1.44686e-20 -0.00241702)
(-0.0324058 -0.0222317 -1.44369e-19 0.0345652 -5.36416e-20 -0.0021594)
(-0.0395183 -0.0151071 -1.14009e-18 0.0411273 2.55928e-19 -0.00160907)
(-0.045543 -0.0103137 -3.95979e-19 0.0462143 -5.85246e-19 -0.000671284)
(0.105946 -0.109508 -3.41992e-20 -0.105432 -1.82077e-19 -0.000514838)
(0.0660633 -0.101916 3.17785e-20 -0.0648098 -3.90249e-19 -0.00125345)
(0.0405963 -0.0885063 -3.67107e-20 -0.0387511 -4.5413e-19 -0.00184519)
(0.0223682 -0.0743652 -7.84548e-20 -0.0200617 -1.49141e-19 -0.00230643)
(0.00821429 -0.0611757 -5.01069e-19 -0.00558061 2.92191e-19 -0.00263368)
(-0.00356564 -0.0494757 -4.15602e-19 0.00636515 4.40089e-19 -0.00279951)
(-0.0137737 -0.0394215 1.46186e-19 0.0165403 7.38784e-19 -0.00276659)
(-0.0228828 -0.0311991 -3.50665e-19 0.0253537 4.42762e-19 -0.00247093)
(-0.0310364 -0.0249147 -4.38801e-19 0.0328767 1.00903e-18 -0.00184029)
(-0.0376234 -0.0209356 -5.00865e-19 0.0383905 -5.90614e-19 -0.000767133)
(0.122023 -0.0952036 -9.77007e-21 -0.121452 2.9493e-20 -0.000571044)
(0.0865926 -0.0946662 -4.83389e-19 -0.0852022 -2.80941e-19 -0.00139039)
(0.0612026 -0.0852482 -7.79542e-19 -0.0591556 -5.87615e-19 -0.00204698)
(0.0415281 -0.0736632 -5.27039e-19 -0.0389693 -4.89579e-19 -0.00255878)
(0.0254821 -0.0622833 9.29332e-20 -0.0225602 1.67553e-19 -0.00292189)
(0.0118277 -0.0519936 4.75519e-19 -0.00872205 3.45226e-19 -0.00310567)
(-4.96759e-05 -0.0431215 5.7151e-19 0.00311838 4.42175e-19 -0.0030687)
(-0.0104769 -0.0359536 3.92151e-19 0.013217 3.55131e-19 -0.00274004)
(-0.0195307 -0.0306672 4.49427e-19 0.0215706 1.13579e-18 -0.00203991)
(-0.0265228 -0.027515 -9.89173e-19 0.0273726 1.13682e-19 -0.000849812)
(0.13615 -0.077867 -1.3924e-19 -0.135532 3.99292e-20 -0.000617505)
(0.106376 -0.0816493 -5.06214e-19 -0.104873 1.03764e-19 -0.00150361)
(0.0817001 -0.0755155 -5.60852e-19 -0.0794863 -1.20592e-19 -0.00221383)
(0.0609606 -0.0665481 1.52105e-19 -0.0581932 -2.04457e-19 -0.00276743)
(0.0432794 -0.0573193 7.57899e-19 -0.0401192 6.62304e-21 -0.00316017)
(0.027945 -0.0488418 3.42328e-19 -0.0245863 2.60794e-19 -0.00335869)
(0.014566 -0.0415196 2.85283e-19 -0.0112477 1.10658e-20 -0.00331824)
(0.00297687 -0.0356707 6.37245e-19 -1.472e-05 2.28911e-19 -0.00296215)
(-0.00680795 -0.0315066 3.51098e-19 0.00901242 4.60428e-19 -0.00220447)
(-0.0140788 -0.0291597 2.44909e-19 0.0149966 6.69443e-19 -0.000917859)
(0.147557 -0.0578429 -2.29543e-20 -0.146904 1.16033e-19 -0.000653447)
(0.123437 -0.0631056 -1.4545e-19 -0.121846 4.38336e-19 -0.00159123)
(0.099743 -0.059473 -2.88054e-19 -0.0974001 4.7666e-19 -0.00234299)
(0.0782757 -0.0531258 1.17049e-19 -0.0753468 2.48961e-19 -0.00292894)
(0.059296 -0.0463409 2.54953e-19 -0.0559514 -2.0643e-19 -0.00334457)
(0.0425895 -0.0400372 4.51128e-19 -0.0390351 -2.23955e-19 -0.00355439)
(0.0279822 -0.0345958 2.46006e-19 -0.0244712 -1.99935e-19 -0.00351106)
(0.0154571 -0.0302988 1.06718e-18 -0.0123236 -2.93253e-19 -0.00313353)
(0.0051279 -0.0273438 8.98502e-19 -0.00279673 8.28701e-20 -0.00233117)
(-0.00231966 -0.0257633 -8.3847e-20 0.00328976 2.06025e-19 -0.000970101)
(0.155581 -0.0357076 2.12827e-20 -0.154903 8.37845e-20 -0.000678273)
(0.135979 -0.0399901 1.88544e-20 -0.134327 2.39349e-19 -0.00165181)
(0.113179 -0.0381562 7.7152e-20 -0.110746 4.68901e-19 -0.00243232)
(0.0912693 -0.0344013 2.78301e-19 -0.0882287 2.79223e-19 -0.00304066)
(0.0713925 -0.0302837 1.15806e-19 -0.0679204 1.07587e-19 -0.00347205)
(0.0537195 -0.0264395 -1.2905e-19 -0.05003 -1.14084e-19 -0.00368954)
(0.0382485 -0.0231387 2.10226e-19 -0.0346046 2.10625e-20 -0.00364395)
(0.0250745 -0.0205722 6.18666e-19 -0.0218232 -3.30594e-19 -0.00325132)
(0.0143945 -0.0188779 5.27937e-19 -0.0119766 -3.77921e-19 -0.00241793)
(0.00684837 -0.0180361 5.94153e-20 -0.00584271 9.33533e-20 -0.00100566)
(0.159738 -0.0122233 2.876e-20 -0.159047 3.1935e-20 -0.000691578)
(0.142636 -0.0138589 5.61878e-20 -0.140952 5.11053e-20 -0.00168437)
(0.120365 -0.0133373 2.815e-20 -0.117884 2.25547e-19 -0.00248039)
(0.098254 -0.0121424 3.49208e-20 -0.0951532 1.44938e-20 -0.00310078)
(0.0779264 -0.0108291 1.59336e-19 -0.0743858 -8.77685e-20 -0.00354059)
(0.0597632 -0.00962449 2.72707e-19 -0.0560012 1.25416e-19 -0.00376199)
(0.0438585 -0.00862714 3.84552e-19 -0.0401436 2.10084e-19 -0.00371487)
(0.0303673 -0.00790126 4.22528e-19 -0.0270536 -1.2343e-19 -0.00331375)
(0.0195361 -0.00749071 5.92793e-19 -0.0170727 -2.68609e-19 -0.00246347)
(0.0119684 -0.00736253 6.09994e-20 -0.0109444 1.56332e-19 -0.00102406)
(0.159772 0.0117291 2.33462e-20 -0.159079 -2.65743e-21 -0.000693145)
(0.142674 0.0133328 1.02913e-19 -0.140986 -2.98391e-20 -0.00168837)
(0.120412 0.0127189 1.04482e-19 -0.117925 1.66738e-19 -0.00248643)
(0.0983136 0.0113712 -6.46539e-20 -0.0952053 1.11695e-19 -0.00310835)
(0.0780037 0.00983887 1.18201e-19 -0.0744546 -1.98152e-19 -0.00354907)
(0.0598632 0.008348 3.92536e-19 -0.0560926 -8.83244e-20 -0.00377057)
(0.0439883 0.00699371 3.83329e-19 -0.0402656 -1.86606e-19 -0.00372265)
(0.0305338 0.00585015 4.43296e-20 -0.027214 -5.55554e-20 -0.0033198)
(0.0197491 0.00498097 4.73583e-19 -0.017282 -7.25435e-19 -0.00246705)
(0.0122312 0.00441039 4.21794e-20 -0.0112062 -1.84774e-19 -0.00102498)
(0.155683 0.0352288 2.23441e-21 -0.155 -1.30182e-20 -0.00068296)
(0.136091 0.0394897 1.52162e-19 -0.134427 -1.09789e-19 -0.00166379)
(0.113314 0.0375741 3.36953e-19 -0.110864 -1.80186e-19 -0.00245037)
(0.091441 0.0336787 -1.63273e-20 -0.0883777 -1.61107e-19 -0.0030633)
(0.071615 0.0293574 -2.03212e-19 -0.0681175 -1.92133e-19 -0.00349744)
(0.0540077 0.0252451 2.15197e-19 -0.0502924 -2.62406e-20 -0.00371526)
(0.0386227 0.0216099 3.19566e-19 -0.0349554 -2.29834e-19 -0.00366729)
(0.0255547 0.0186511 7.32046e-20 -0.0222852 -1.90126e-19 -0.00326952)
(0.0150075 0.0165299 -5.33682e-19 -0.0125787 -5.11112e-19 -0.00242876)
(0.00760741 0.0152715 1.33656e-19 -0.00659891 2.76958e-19 -0.0010085)
(0.147726 0.0573974 -4.81283e-20 -0.147065 -4.4804e-20 -0.000661195)
(0.123615 0.0626556 -2.7378e-21 -0.122004 -2.35716e-19 -0.00161104)
(0.0999529 0.0589602 1.70458e-20 -0.09758 -2.04813e-19 -0.00237283)
(0.0785391 0.0524951 -1.40236e-19 -0.0755727 -2.43515e-20 -0.00296638)
(0.059637 0.0455352 -1.84953e-19 -0.0562504 3.31981e-19 -0.00338656)
(0.0430323 0.0389977 3.57655e-19 -0.0394354 1.23325e-19 -0.00359693)
(0.028558 0.0332644 8.95591e-20 -0.0250084 -4.37311e-20 -0.00354963)
(0.0161968 0.0286235 -1.78099e-19 -0.0130332 -1.30297e-19 -0.00316358)
(0.00606888 0.0253009 -1.49084e-19 -0.00371984 5.88153e-19 -0.00234904)
(-0.0011492 0.0233564 6.34323e-19 0.00212395 -4.61399e-19 -0.000974746)
(0.136382 0.0774767 -1.52352e-19 -0.135754 -1.29607e-20 -0.000628222)
(0.106605 0.0812724 -4.02883e-19 -0.105074 2.19703e-19 -0.001531)
(0.0819611 0.0750988 2.24125e-20 -0.0797059 3.10875e-19 -0.00225512)
(0.0612839 0.0660431 2.28477e-19 -0.0584646 2.70053e-19 -0.00281925)
(0.0436971 0.0566778 9.69063e-20 -0.0404788 3.80596e-19 -0.00321831)
(0.0284892 0.0480138 1.4608e-19 -0.0250716 -1.07266e-19 -0.00341762)
(0.0152756 0.0404593 2.57115e-19 -0.0119039 -8.57535e-20 -0.00337172)
(0.00389196 0.0343356 3.47107e-19 -0.000888079 -2.13849e-20 -0.00300388)
(-0.0056448 0.0298869 1.93636e-19 0.00787411 -6.00129e-19 -0.00222931)
(-0.0126163 0.02725 -8.80195e-19 0.0135407 7.30305e-20 -0.000924355)
(0.122308 0.0948925 3.3249e-20 -0.121723 -1.81944e-20 -0.000584592)
(0.0868526 0.0943813 -3.14603e-19 -0.0854276 5.25732e-19 -0.00142503)
(0.0614855 0.0849463 -2.36918e-19 -0.0593863 5.62161e-19 -0.0020992)
(0.0418725 0.0733061 -1.62192e-20 -0.0392481 3.78275e-19 -0.00262433)
(0.0259261 0.0618348 4.15791e-19 -0.0229306 -1.35201e-19 -0.00299548)
(0.0124096 0.0514155 4.87147e-20 -0.00922934 -5.29423e-19 -0.0031803)
(0.000713027 0.0423823 4.60624e-19 0.00242348 -8.54561e-19 -0.0031365)
(-0.00948686 0.0350223 -2.48252e-19 0.0122799 -7.32415e-19 -0.00279303)
(-0.0182748 0.0295472 -2.19318e-19 0.0203463 -6.7753e-19 -0.00207155)
(-0.0249224 0.0262055 5.19595e-19 0.0257805 3.22599e-19 -0.000858142)
(0.106263 0.109299 6.47256e-20 -0.105732 1.58437e-19 -0.000531038)
(0.0663284 0.101736 3.44173e-19 -0.0650335 3.56216e-19 -0.00129488)
(0.0408683 0.0883281 3.25034e-19 -0.0389606 2.79071e-19 -0.00190767)
(0.0226918 0.0741644 2.20627e-19 -0.0203069 -7.78682e-20 -0.00238489)
(0.00863061 0.06093 -4.59514e-20 -0.00590882 -7.22511e-19 -0.0027218)
(-0.00301492 0.0491617 -5.17711e-19 0.00590388 -1.0521e-18 -0.00288896)
(-0.0130462 0.0390235 -1.12965e-18 0.0158942 -5.22826e-19 -0.00284798)
(-0.0219294 0.0307028 7.79131e-20 0.0244641 -4.64806e-19 -0.0025347)
(-0.029824 0.0243358 -1.10428e-18 0.0317025 -2.52638e-19 -0.00187856)
(-0.0360362 0.0202898 4.46639e-19 0.0368135 -3.62805e-19 -0.000777319)
(0.0890307 0.120597 -3.67328e-20 -0.0885622 2.21418e-19 -0.000468458)
(0.0469047 0.103811 5.76457e-19 -0.045762 4.35311e-20 -0.00114272)
(0.0223041 0.0859433 7.96461e-19 -0.0206204 -2.74429e-19 -0.00168371)
(0.00596235 0.0693969 6.31307e-19 -0.00385746 -7.33397e-19 -0.0021049)
(-0.00605536 0.0547624 -3.73702e-19 0.00845718 -8.71208e-19 -0.00240182)
(-0.0157666 0.0420488 -9.80224e-19 0.0183151 -5.48099e-19 -0.00254846)
(-0.0240925 0.0311737 -1.18432e-18 0.0266035 1.89775e-19 -0.002511)
(-0.031601 0.0221695 -6.62218e-19 0.0338343 -3.55884e-19 -0.00223324)
(-0.0384877 0.0150714 -1.51603e-18 0.0401414 3.03454e-19 -0.00165363)
(-0.0441512 0.0103557 1.71559e-19 0.0448345 -1.20421e-19 -0.00068329)
(0.0713311 0.128921 9.92021e-20 -0.0709332 -1.6687e-20 -0.000397898)
(0.0300938 0.10171 2.69463e-19 -0.0291227 -1.97483e-19 -0.000971095)
(0.00752287 0.079237 1.86346e-19 -0.00609182 -3.77606e-19 -0.00143105)
(-0.00658752 0.0605432 -1.1633e-19 0.00837653 -4.84397e-19 -0.00178901)
(-0.016487 0.0448657 -6.2602e-19 0.0185279 -2.59062e-19 -0.00204086)
(-0.0243037 0.0315709 -6.11351e-19 0.0264681 8.62615e-21 -0.00216447)
(-0.0309812 0.0202868 -4.79393e-19 0.0331124 1.24938e-19 -0.00213116)
(-0.03713 0.0108535 -5.37241e-19 0.0390237 1.31715e-19 -0.00189369)
(-0.0429298 0.00320214 -2.39436e-19 0.0443303 -6.10592e-20 -0.00140052)
(-0.0479252 -0.00212526 -1.10474e-18 0.0485028 1.0476e-19 -0.000577638)
(0.0537457 0.134602 -2.13711e-20 -0.0534252 -6.46864e-20 -0.000320546)
(0.0168425 0.0969723 -2.32845e-19 -0.0160596 -1.46294e-19 -0.000782871)
(-0.00245561 0.0701619 -4.52284e-19 0.00360953 -1.05709e-19 -0.00115392)
(-0.0139731 0.0496521 -3.85102e-19 0.0154156 1.59555e-20 -0.0014425)
(-0.0217525 0.0332591 5.51755e-22 0.0233975 -6.12912e-21 -0.00164496)
(-0.0277924 0.0196774 -3.55376e-19 0.0295358 7.57357e-21 -0.00174341)
(-0.0329508 0.00824429 -3.08356e-19 0.0346656 4.52693e-20 -0.00171483)
(-0.0378086 -0.00140698 -2.79197e-19 0.0393303 1.43401e-19 -0.00152172)
(-0.0424864 -0.00943093 7.66881e-22 0.0436099 -9.09385e-20 -0.00112347)
(-0.0467065 -0.0153032 -5.02648e-19 0.0471686 2.65563e-19 -0.000462129)
(0.0366596 0.138095 -3.76361e-20 -0.0364219 -4.906e-20 -0.000237701)
(0.00741368 0.0913256 -1.06269e-19 -0.00683247 -1.6194e-19 -0.000581207)
(-0.0074552 0.0608656 -6.33335e-19 0.00831216 -3.75271e-20 -0.000856953)
(-0.0160842 0.0389566 -5.80906e-19 0.0171554 1.20928e-19 -0.00107116)
(-0.0217955 0.022129 -4.06236e-19 0.0230162 1.6785e-19 -0.00122071)
(-0.0262197 0.00846877 -3.87661e-20 0.027512 1.11764e-19 -0.00129228)
(-0.0300281 -0.00293927 -3.23856e-19 0.031297 1.14776e-19 -0.0012689)
(-0.0336954 -0.0126573 -7.76321e-21 0.0348189 2.57358e-19 -0.00112347)
(-0.0372518 -0.0208912 5.7474e-19 0.0380788 8.39413e-21 -0.000826996)
(-0.0405778 -0.0272208 -7.88056e-20 0.0409164 -5.56992e-21 -0.000338617)
(0.020232 0.139896 -4.5296e-20 -0.0200812 -3.34245e-20 -0.000150768)
(0.00137251 0.0864062 -7.32232e-20 -0.001003 -1.10455e-19 -0.000369506)
(-0.00814749 0.0533497 -3.18707e-19 0.00869265 -2.24005e-20 -0.000545162)
(-0.0136824 0.0305199 -2.23948e-19 0.0143637 1.00481e-19 -0.000681258)
(-0.0174051 0.0134818 -2.36022e-19 0.0181804 1.09779e-19 -0.000775289)
(-0.020378 -0.00013947 -4.15309e-19 0.0211967 9.06057e-20 -0.00081873)
(-0.0230065 -0.0114378 -3.77076e-19 0.0238075 1.587e-19 -0.000800956)
(-0.0255914 -0.0211315 -1.06588e-19 0.0262972 2.4323e-19 -0.000705733)
(-0.0280621 -0.0294353 3.9133e-19 0.0285782 3.09255e-20 -0.000516161)
(-0.0303909 -0.0360996 -2.14692e-20 0.0306001 -2.48622e-20 -0.000209249)
(0.00440325 0.140447 -6.64923e-20 -0.00434203 -1.77201e-20 -6.1218e-05)
(-0.00232003 0.0834974 -1.18724e-19 0.00247138 -7.55323e-20 -0.00015135)
(-0.00592561 0.0491552 -2.51295e-19 0.00614943 -1.68686e-20 -0.000223817)
(-0.00826431 0.0259151 -3.44493e-19 0.00854369 1.02768e-19 -0.000279378)
(-0.0100799 0.00883401 -3.3657e-19 0.0103961 9.34451e-20 -0.000316214)
(-0.0117332 -0.00470973 -3.06491e-19 0.012064 6.86055e-20 -0.000330742)
(-0.0133178 -0.0158928 -1.22895e-19 0.0136367 1.4217e-19 -0.000318885)
(-0.0149113 -0.0255259 -8.77311e-20 0.0151869 2.23852e-19 -0.000275538)
(-0.0163541 -0.0337933 2.82854e-19 0.0165503 6.77594e-20 -0.000196197)
(-0.0176182 -0.0406423 1.73881e-19 0.0176943 -1.33422e-20 -7.61684e-05)
(-0.0110624 0.140053 -6.48942e-20 0.011033 -5.36471e-21 2.942e-05)
(-0.00511918 0.0833218 -1.8552e-19 0.00504964 -6.19849e-20 6.95424e-05)
(-0.00266624 0.0491207 -1.46089e-19 0.00256464 -2.35903e-20 0.000101602)
(-0.00181132 0.0259808 -2.8403e-19 0.0016837 1.05747e-19 0.000127617)
(-0.00177874 0.00898059 -3.91758e-19 0.00163008 9.57173e-20 0.000148654)
(-0.00218183 -0.0045004 -2.73524e-19 0.00201854 4.83534e-20 0.000163288)
(-0.00279471 -0.0156165 -5.7442e-21 0.00262575 1.03652e-19 0.000168955)
(-0.0034515 -0.0251922 -1.42851e-19 0.00329193 2.04476e-19 0.000159571)
(-0.00393007 -0.0333528 3.63627e-20 0.0038029 6.1638e-20 0.000127176)
(-0.00410661 -0.0402186 1.61127e-19 0.00404845 -1.76483e-20 5.81618e-05)
(-0.0265012 0.138818 -7.99754e-20 0.0263816 9.93647e-21 0.000119598)
(-0.00864277 0.085923 -2.25384e-19 0.00835338 -5.15978e-20 0.000289394)
(-0.000417993 0.0532506 -9.90236e-23 -7.53941e-06 -3.8122e-20 0.000425532)
(0.00353294 0.0306936 -2.0859e-20 -0.00406571 1.07753e-19 0.000532772)
(0.00539354 0.0138755 -4.92814e-19 -0.00600491 9.73652e-20 0.000611374)
(0.00625039 0.000424993 -3.01892e-19 -0.00690532 4.64077e-20 0.000654925)
(0.00661741 -0.0106903 -2.2985e-19 -0.00727166 3.32135e-20 0.000654249)
(0.00689408 -0.0202272 1.98032e-19 -0.00748628 1.82091e-19 0.000592192)
(0.00732918 -0.0282398 -4.2511e-19 -0.00777766 8.33894e-20 0.000448481)
(0.00822023 -0.0349561 8.17556e-20 -0.00841173 -2.2894e-20 0.000191505)
(-0.0422522 0.136615 -2.83234e-20 0.0420445 4.38361e-20 0.000207764)
(-0.0143897 0.0906539 -2.53853e-19 0.0138853 -1.23031e-20 0.000504423)
(-0.00106255 0.0607149 -3.57345e-19 0.000320152 -8.40053e-20 0.000742399)
(0.00580933 0.0391752 -2.55685e-19 -0.00673844 1.92576e-20 0.000929111)
(0.00952209 0.0226454 -3.59567e-19 -0.0105861 7.15552e-20 0.00106397)
(0.011728 0.00921613 -8.03068e-20 -0.0128637 6.35574e-20 0.00113569)
(0.0131657 -0.00194325 -1.5927e-19 -0.0142943 6.28976e-20 0.00112861)
(0.0144281 -0.0114486 -4.92831e-20 -0.015443 8.66583e-20 0.00101485)
(0.0157556 -0.0192874 -1.59627e-19 -0.0165178 -5.84037e-20 0.00076217)
(0.0176559 -0.025694 3.55952e-19 -0.0179774 1.61151e-20 0.000321544)
(-0.0585544 0.133106 -3.6094e-20 0.058262 5.32103e-20 0.000292397)
(-0.0234745 0.0962759 -4.27063e-19 0.0227635 -5.17704e-20 0.000710912)
(-0.0060016 0.0699781 -1.15596e-19 0.00495488 -9.96075e-20 0.00104672)
(0.00355979 0.0498303 1.3544e-19 -0.00486957 -8.12976e-21 0.00130978)
(0.00918448 0.0337285 1.67455e-19 -0.0106831 2.10102e-19 0.00149862)
(0.0128899 0.0203728 -2.5829e-19 -0.0144872 1.71732e-19 0.00159728)
(0.0155542 0.0091852 -2.70686e-19 -0.0171381 -7.95874e-20 0.0015839)
(0.0179014 -0.00025422 1.67658e-20 -0.0193217 -9.77346e-20 0.00142033)
(0.0201393 -0.00788503 3.65224e-20 -0.0212022 4.71191e-20 0.00106295)
(0.022971 -0.0138456 -7.06746e-19 -0.0234171 6.96345e-20 0.000446126)
(-0.0754547 0.127797 5.46781e-20 0.0750827 -2.80757e-20 0.00037203)
(-0.0364192 0.101154 2.18887e-19 0.035514 9.2877e-20 0.000905274)
(-0.0159171 0.0790404 1.65118e-19 0.0145839 1.09647e-19 0.00133321)
(-0.00393321 0.0605979 4.45832e-20 0.00226505 1.01002e-19 0.00166815)
(0.0036782 0.0451216 6.12472e-20 -0.00558598 1.81456e-19 0.00190778)
(0.00906249 0.0319832 -5.34745e-19 -0.0110942 2.29265e-19 0.0020317)
(0.0131435 0.0208725 -7.48441e-19 -0.0151558 -2.75556e-19 0.00201222)
(0.0166986 0.0115935 -4.26802e-19 -0.0185002 2.05977e-19 0.0018016)
(0.0198898 0.00423054 -1.40268e-18 -0.0212355 -5.80764e-19 0.00134561)
(0.0235451 -0.00116014 9.34514e-19 -0.0241082 3.86025e-20 0.000563106)
(-0.0927467 0.120127 -1.04061e-19 0.0923014 -2.82362e-19 0.000445271)
(-0.0530368 0.103518 4.813e-19 0.0519527 -1.19024e-19 0.0010841)
(-0.0306417 0.0857518 5.28345e-19 0.0290448 6.14647e-20 0.00159685)
(-0.0165206 0.0692711 3.68537e-19 0.0145226 3.53819e-19 0.00199795)