/*--------------------------------*- C++ -*----------------------------------*\
| =========                 |                                                 |
| \\      /  F ield         | foam-extend: Open Source CFD                    |
|  \\    /   O peration     | Version:  3.0                                   |
|   \\  /    A nd           | Web:         http://www.extend-project.de       |
|    \\/     M anipulation  |                                                 |
\*---------------------------------------------------------------------------*/
FoamFile
{
    version     2.0;
    format      ascii;
    class       volVectorField;
    location    "5.5";
    object      u;
}
// * * * * * * * * * * * * * * * * * * * * * * * * * * * * * * * * * * * * * //

dimensions      [0 0 0 0 0 0 0];

internalField   nonuniform List<vector> 
400
(
(-0.514158 1.37648 1.64584e-315)
(-0.692952 0.987619 1.46523e-315)
(-1.40556 1.08266 1.27644e-315)
(-1.63481 0.776526 1.1632e-315)
(-2.08054 0.787417 9.85368e-316)
(-2.291 0.608341 9.20202e-316)
(-2.55772 0.576719 7.56085e-316)
(-2.70874 0.445073 7.22211e-316)
(-2.83544 0.40711 5.73378e-316)
(-2.91191 0.279801 5.6007e-316)
(-2.90901 0.233717 4.25763e-316)
(-2.89294 0.0943749 4.26122e-316)
(-2.75887 0.0315351 3.05146e-316)
(-2.62558 -0.125954 3.12991e-316)
(-2.35369 -0.192542 2.06894e-316)
(-2.09382 -0.384448 2.1395e-316)
(-1.66653 -0.390452 1.2936e-316)
(-1.33452 -0.669078 1.24003e-316)
(-0.701584 -0.546337 6.96951e-317)
(-0.430728 -0.876777 3.38251e-317)
(-0.0602996 0.609452 8.99154e-316)
(-0.467981 0.495408 8.68441e-316)
(-0.695566 0.485438 7.99475e-316)
(-0.951002 0.355272 7.66987e-316)
(-1.20214 0.307094 6.88576e-316)
(-1.36112 0.194058 6.58038e-316)
(-1.54949 0.11998 5.76391e-316)
(-1.64385 0.0242723 5.48843e-316)
(-1.73671 -0.0676584 4.68118e-316)
(-1.77263 -0.150616 4.44552e-316)
(-1.76319 -0.263393 3.67618e-316)
(-1.73606 -0.337435 3.48442e-316)
(-1.62946 -0.473929 2.77075e-316)
(-1.52861 -0.541369 2.61016e-316)
(-1.34346 -0.68897 1.96763e-316)
(-1.15064 -0.751266 1.79338e-316)
(-0.934786 -0.866835 1.2387e-316)
(-0.615732 -0.924264 9.54002e-317)
(-0.470978 -0.94103 4.75928e-317)
(0.00745164 -0.973423 -9.13114e-318)
(-0.143246 2.07799 6.95267e-316)
(-0.549092 1.88483 6.96949e-316)
(-0.824494 1.74677 6.55274e-316)
(-1.08702 1.49706 6.30756e-316)
(-1.3303 1.35644 5.70066e-316)
(-1.49775 1.09494 5.40081e-316)
(-1.67183 0.959708 4.72969e-316)
(-1.78724 0.693931 4.44748e-316)
(-1.87141 0.561054 3.77805e-316)
(-1.94906 0.289827 3.53035e-316)
(-1.93494 0.141458 2.8889e-316)
(-1.96267 -0.132599 2.67286e-316)
(-1.85087 -0.313838 2.06717e-316)
(-1.7927 -0.576152 1.86865e-316)
(-1.59981 -0.788478 1.30951e-316)
(-1.39835 -1.01009 1.10899e-316)
(-1.17477 -1.21367 6.33357e-317)
(-0.765899 -1.3615 4.4458e-317)
(-0.610789 -1.48341 1.36465e-317)
(0.00505839 -1.54005 1.66525e-317)
(-0.068516 1.64098 1.35909e-316)
(-0.322027 1.52346 2.5821e-316)
(-0.497029 1.30229 3.04041e-316)
(-0.616462 1.12769 3.48354e-316)
(-0.787523 0.935081 3.51368e-316)
(-0.833702 0.721222 3.57647e-316)
(-0.958266 0.564883 3.37275e-316)
(-0.985269 0.337477 3.2565e-316)
(-1.04497 0.184611 2.93921e-316)
(-1.0764 -0.0428196 2.74993e-316)
(-1.06562 -0.233681 2.39333e-316)
(-1.10261 -0.45178 2.18915e-316)
(-1.02071 -0.718158 1.84023e-316)
(-1.04205 -0.905549 1.65649e-316)
(-0.897848 -1.26562 1.35077e-316)
(-0.849097 -1.37359 1.21517e-316)
(-0.682352 -1.79272 9.8797e-317)
(-0.468462 -1.7489 9.36751e-317)
(-0.382133 -2.06496 8.30199e-317)
(0.0600345 -1.84854 9.23766e-317)
(-0.257432 2.5412 1.99469e-316)
(-0.376564 2.41417 2.77439e-316)
(-0.761115 2.09345 3.02211e-316)
(-0.79816 1.84932 3.19917e-316)
(-1.06549 1.60632 3.1392e-316)
(-1.09902 1.29086 3.07961e-316)
(-1.26066 1.12681 2.86201e-316)
(-1.32984 0.782019 2.70484e-316)
(-1.39625 0.65192 2.41385e-316)
(-1.5099 0.29461 2.21272e-316)
(-1.48435 0.149191 1.88764e-316)
(-1.62856 -0.211081 1.66054e-316)
(-1.50497 -0.420409 1.31365e-316)
(-1.63859 -0.756078 1.05433e-316)
(-1.40828 -1.07304 6.79875e-317)
(-1.45002 -1.31224 3.56197e-317)
(-1.12462 -1.75074 -6.75558e-318)
(-0.949778 -1.77222 -5.19133e-317)
(-0.601146 -2.20856 -1.03996e-316)
(-0.122157 -1.9616 -1.73627e-316)
(-0.372728 2.46904 -1.22721e-316)
(-0.178999 2.19545 1.56654e-317)
(-0.641578 1.86458 8.85677e-317)
(-0.445536 1.54262 1.4985e-316)
(-0.71174 1.34014 1.78524e-316)
(-0.58122 0.99095 1.98573e-316)
(-0.722918 0.875969 2.0075e-316)
(-0.675353 0.525783 1.99253e-316)
(-0.73345 0.426608 1.87126e-316)
(-0.774915 0.0800561 1.75313e-316)
(-0.763053 -0.0741604 1.56721e-316)
(-0.89671 -0.419755 1.41176e-316)
(-0.801829 -0.70178 1.2121e-316)
(-1.02242 -1.02806 1.06356e-316)
(-0.805726 -1.50803 8.87824e-317)
(-1.08168 -1.73884 7.84969e-317)
(-0.690441 -2.43838 6.64378e-317)
(-0.936058 -2.42058 6.43064e-317)
(-0.335223 -3.12879 6.02225e-317)
(-0.405509 -2.76521 6.56998e-317)
(-0.544759 3.17457 9.31401e-317)
(-0.154953 2.70733 1.45546e-316)
(-0.810554 2.38417 1.71305e-316)
(-0.5208 1.90463 1.86803e-316)
(-0.871307 1.74161 1.92031e-316)
(-0.747483 1.27904 1.9141e-316)
(-0.914561 1.21589 1.84087e-316)
(-0.941331 0.774816 1.74918e-316)
(-0.995184 0.751561 1.60294e-316)
(-1.15856 0.315322 1.45861e-316)
(-1.12303 0.277775 1.26712e-316)
(-1.41644 -0.177036 1.08353e-316)
(-1.27094 -0.289155 8.54802e-317)
(-1.67955 -0.766445 6.24421e-317)
(-1.35584 -1.02977 3.45554e-317)
(-1.82765 -1.47365 2.84688e-318)
(-1.21444 -1.96617 -3.40676e-317)
(-1.62175 -2.23029 -8.33561e-317)
(-0.602927 -2.89059 -1.37309e-316)
(-0.727193 -2.87475 -2.20465e-316)
(-0.554664 3.28108 -1.11167e-316)
(0.0218024 2.5115 -1.69023e-317)
(-0.627785 2.29369 3.96004e-317)
(-0.189768 1.62155 8.68102e-317)
(-0.508527 1.60707 1.12488e-316)
(-0.257444 1.04758 1.29837e-316)
(-0.395064 1.10333 1.35261e-316)
(-0.300553 0.623701 1.35511e-316)
(-0.346842 0.679996 1.29259e-316)
(-0.395659 0.231141 1.20805e-316)
(-0.38251 0.226053 1.08905e-316)
(-0.588826 -0.246327 9.7041e-317)
(-0.489395 -0.394587 8.37244e-317)
(-0.890417 -0.927325 7.24174e-317)
(-0.603176 -1.33118 6.12163e-317)
(-1.24596 -1.89727 5.4531e-317)
(-0.574959 -2.66547 4.88133e-317)
(-1.46679 -3.11486 5.08325e-317)
(-0.142362 -4.14219 5.33517e-317)
(-1.08028 -4.27225 6.24748e-317)
(-0.553877 3.73577 1.36377e-316)
(0.0917895 2.7635 1.40229e-316)
(-0.56277 2.59396 1.45336e-316)
(-0.147435 1.75327 1.44505e-316)
(-0.454747 1.79771 1.44289e-316)
(-0.288031 1.13935 1.40183e-316)
(-0.400539 1.24951 1.34498e-316)
(-0.427376 0.711971 1.26711e-316)
(-0.444331 0.845331 1.16685e-316)
(-0.646986 0.348105 1.05514e-316)
(-0.604837 0.478836 9.22359e-317)
(-1.00439 -0.0662206 7.81122e-317)
(-0.869374 0.0244013 6.19914e-317)
(-1.50726 -0.654056 4.42215e-317)
(-1.14843 -0.672088 2.4218e-317)
(-2.04901 -1.52964 -7.29651e-319)
(-1.20124 -1.77765 -2.78991e-317)
(-2.27998 -2.743 -6.79943e-317)
(-0.562519 -3.37616 -1.0905e-316)
(-1.42729 -4.24079 -1.76948e-316)
(-0.368316 3.76147 -3.21677e-317)
(0.17343 2.52428 1.87528e-317)
(-0.264483 2.54042 5.2098e-317)
(0.136008 1.51118 8.09783e-317)
(-0.0481053 1.74964 9.60147e-317)
(0.182004 0.991141 1.05754e-316)
(0.134774 1.24375 1.0772e-316)
(0.227939 0.667701 1.05873e-316)
(0.22981 0.903374 1.001e-316)
(0.194967 0.395459 9.24259e-317)
(0.209365 0.592747 8.30233e-317)
(0.0164112 0.0257887 7.33812e-317)
(0.0738019 0.125141 6.36359e-317)
(-0.354813 -0.638383 5.54983e-317)
(-0.11527 -0.764664 4.89917e-317)
(-0.916529 -1.8361 4.72814e-317)
(-0.178553 -2.406 4.90828e-317)
(-1.5168 -3.75242 6.17669e-317)
(0.223101 -4.97829 7.90004e-317)
(-1.53374 -6.27069 1.1592e-316)
(-0.16631 3.91774 1.91396e-316)
(0.2719 2.64391 1.59998e-316)
(0.0357598 2.61884 1.47999e-316)
(0.259877 1.52733 1.34461e-316)
(0.194094 1.74519 1.27278e-316)
(0.255004 0.953252 1.18859e-316)
(0.288596 1.20226 1.11459e-316)
(0.225249 0.618472 1.03107e-316)
(0.282053 0.87963 9.41231e-317)
(0.0825524 0.372526 8.44213e-317)
(0.127494 0.656845 7.39138e-317)
(-0.267494 0.0719807 6.28375e-317)
(-0.203219 0.385044 5.11066e-317)
(-0.89789 -0.46961 3.83173e-317)
(-0.661378 -0.144182 2.50328e-317)
(-1.78095 -1.48559 8.3632e-318)
(-0.994815 -1.24867 -7.96915e-318)
(-2.54978 -3.18168 -3.29165e-317)
(-0.542004 -3.45494 -5.50921e-317)
(-1.97609 -5.58296 -8.80075e-317)
(0.0744381 3.67305 2.75897e-317)
(0.197037 2.34178 5.8801e-317)
(0.319716 2.54727 7.66632e-317)
(0.45059 1.36188 9.34117e-317)
(0.577884 1.74628 9.86181e-317)
(0.680453 0.89864 1.0108e-316)
(0.806224 1.26296 9.82325e-317)
(0.869081 0.668212 9.32409e-317)
(0.955266 1.02707 8.60877e-317)
(0.966882 0.532696 7.79656e-317)
(0.986182 0.908367 6.92254e-317)
(0.913623 0.32586 6.06603e-317)
(0.879102 0.701673 5.27857e-317)
(0.644571 -0.218945 4.67734e-317)
(0.667364 0.0531588 4.32757e-317)
(0.103736 -1.52348 4.55746e-317)
(0.510757 -1.66945 5.29301e-317)
(-0.692817 -4.13719 7.61833e-317)
(0.719781 -5.42688 1.06127e-316)
(-1.35462 -8.48373 1.76125e-316)
(0.483153 3.67606 1.90967e-316)
(0.350789 2.41419 1.59952e-316)
(0.781611 2.39542 1.44262e-316)
(0.611101 1.29376 1.28555e-316)
(0.909122 1.5467 1.18236e-316)
(0.792774 0.754107 1.07906e-316)
(1.03021 1.04512 9.91268e-317)
(0.931076 0.496307 9.02188e-317)
(1.0863 0.808111 8.14527e-317)
(0.947097 0.360782 7.25206e-317)
(0.996145 0.722838 6.35371e-317)
(0.734562 0.18591 5.45054e-317)
(0.681708 0.63979 4.56147e-317)
(0.158873 -0.265597 3.64565e-317)
(0.102984 0.333079 2.77112e-317)
(-0.899066 -1.3459 1.71632e-317)
(-0.583068 -0.595104 7.67704e-318)
(-2.25185 -3.406 -6.70047e-318)
(-0.60313 -3.00665 -1.85722e-317)
(-2.35964 -6.26754 -2.9607e-317)
(0.475319 3.01124 5.52046e-317)
(0.158006 2.10131 1.04669e-316)
(0.915112 2.32525 1.11428e-316)
(0.768609 1.24878 1.1921e-316)
(1.26451 1.58478 1.13932e-316)
(1.2318 0.789455 1.0838e-316)
(1.55886 1.13787 9.97233e-317)
(1.59158 0.61339 9.06596e-317)
(1.77733 1.00298 8.10205e-317)
(1.85871 0.59875 7.13853e-317)
(1.89518 1.07179 6.19945e-317)
(2.01705 0.576085 5.32319e-317)
(1.88125 1.16333 4.55899e-317)
(2.02399 0.248428 3.99717e-317)
(1.71638 0.916182 3.70098e-317)
(1.80579 -0.961127 4.01413e-317)
(1.47227 -0.535258 4.80261e-317)
(1.2273 -4.08159 7.36716e-317)
(1.30106 -5.21859 1.04168e-316)
(-0.0460924 -10.715 1.79764e-316)
(1.20412 3.16631 1.11978e-316)
(0.333846 2.0618 1.25125e-316)
(1.38445 1.929 1.18681e-316)
(0.829519 1.02309 1.09907e-316)
(1.45641 1.19749 1.01566e-316)
(1.20295 0.532174 9.27152e-317)
(1.62486 0.77987 8.50008e-317)
(1.51939 0.340589 7.72526e-317)
(1.76573 0.623117 6.98681e-317)
(1.72236 0.293212 6.25282e-317)
(1.78425 0.634275 5.54332e-317)
(1.73388 0.232075 4.8556e-317)
(1.57369 0.680901 4.20988e-317)
(1.39748 -0.0939404 3.57776e-317)
(0.986375 0.550797 2.98561e-317)
(0.426914 -1.12033 2.25345e-317)
(-0.0251601 -0.137381 1.49364e-317)
(-1.43497 -3.29903 1.54001e-318)
(-0.731646 -2.16288 -1.32812e-317)
(-2.88196 -5.5647 -3.68483e-317)
(0.598526 1.93429 2.04679e-316)
(0.274026 1.96516 2.36874e-316)
(1.51766 1.94686 2.04723e-316)
(1.29744 1.17798 1.82151e-316)
(2.12495 1.29386 1.56392e-316)
(2.01474 0.65159 1.35872e-316)
(2.52107 0.892054 1.17555e-316)
(2.53152 0.498836 1.01415e-316)
(2.80868 0.841024 8.68067e-317)
(2.96308 0.57486 7.33142e-317)
(3.04003 1.04806 6.09021e-317)
(3.38125 0.718695 4.95831e-317)
(3.20263 1.38938 3.96935e-317)
(3.80888 0.663392 3.19414e-317)
(3.20337 1.60126 2.68013e-317)
(4.21428 -0.234152 2.75231e-317)
(2.88598 0.819887 3.23779e-317)
(4.43265 -3.52468 5.34439e-317)
(1.95255 -4.02297 7.72548e-317)
(3.22607 -12.9803 1.33813e-316)
(1.81736 2.51611 -2.85678e-317)
(0.194533 1.43831 1.78413e-317)
(1.47426 1.24273 3.45727e-317)
(0.741667 0.620572 4.18859e-317)
(1.44915 0.720185 4.64112e-317)
(1.17884 0.271034 4.72737e-317)
(1.65251 0.440441 4.76646e-317)
(1.57164 0.158861 4.67648e-317)
(1.848 0.352037 4.54815e-317)
(1.87606 0.16275 4.37366e-317)
(1.95267 0.390795 4.18924e-317)
(2.05942 0.167361 4.00237e-317)
(1.86976 0.456907 3.83003e-317)
(1.99966 -0.0266512 3.64376e-317)
(1.3925 0.370076 3.42583e-317)
(1.33862 -0.827325 2.97365e-317)
(0.283773 -0.193503 2.25682e-317)
(-0.733435 -2.66033 4.9142e-318)
(-0.840808 -1.43403 -1.83087e-317)
(-4.48221 -2.51978 -7.12373e-317)
(0.396964 0.701347 8.23515e-316)
(0.895592 2.14463 5.84938e-316)
(2.62874 1.55711 4.3705e-316)
(2.5714 1.15497 3.29159e-316)
(3.81015 0.981069 2.6283e-316)
(3.63442 0.49743 2.13405e-316)
(4.33483 0.617199 1.76947e-316)
(4.30361 0.356729 1.46516e-316)
(4.67592 0.625093 1.205e-316)
(4.90993 0.492648 9.70608e-317)
(5.07277 0.906369 7.57684e-317)
(5.68704 0.755263 5.62905e-317)
(5.59151 1.39442 3.88896e-317)
(6.77456 0.94977 2.42215e-317)
(6.06683 1.97711 1.29713e-317)
(8.20299 0.462303 8.2093e-318)
(5.82518 2.09966 8.80208e-318)
(9.81343 -2.73926 2.51331e-317)
(3.07755 -1.50005 4.4702e-317)
(10.0583 -15.7366 8.71305e-317)
(2.15871 1.64418 -4.76543e-316)
(-0.0934368 0.147629 -3.32429e-316)
(0.371946 0.260034 -2.29144e-316)
(-0.197397 -0.0576233 -1.59276e-316)
(-0.0829835 0.0983919 -1.14239e-316)
(-0.188206 -0.0326955 -8.26566e-317)
(-0.0247787 0.0506963 -5.91076e-317)
(-0.0476866 -0.0327304 -4.0489e-317)
(0.0753308 0.0107409 -2.49047e-317)
(0.0508938 -0.04731 -1.14035e-317)
(0.0759996 -0.0298614 6.96573e-319)
(0.0182515 -0.0910007 1.17078e-317)
(-0.11115 -0.113188 2.16936e-317)
(-0.247323 -0.225938 3.02911e-317)
(-0.607479 -0.351607 3.66924e-317)
(-0.975512 -0.572739 3.83625e-317)
(-1.41343 -0.973297 3.43573e-317)
(-2.93107 -0.994838 1.44863e-317)
(-1.22225 -1.53878 -1.27349e-317)
(-9.26307 4.53412 -8.02542e-317)
(-0.250278 -0.406025 2.16332e-315)
(2.40387 3.023 1.23369e-315)
(5.72112 1.53412 8.74257e-316)
(5.7566 1.33203 6.25106e-316)
(8.12178 0.918782 4.98916e-316)
(7.65646 0.428394 4.05406e-316)
(8.86001 0.502516 3.38666e-316)
(8.68883 0.277038 2.81753e-316)
(9.32066 0.536797 2.32342e-316)
(9.72531 0.46715 1.87065e-316)
(10.1285 0.881404 1.45345e-316)
(11.3571 0.826997 1.06736e-316)
(11.5576 1.47839 7.1842e-317)
(13.9916 1.18782 4.15895e-317)
(13.4522 2.28694 1.74634e-317)
(17.7587 0.894149 2.98332e-318)
(14.1976 3.06634 -2.77906e-318)
(21.9207 -2.70417 9.86864e-318)
(7.38752 2.08233 2.3998e-317)
(23.2195 -20.4489 5.32275e-317)
)
;

boundaryField
{
    cavity
    {
        type            myImplicitVelocity;
    }
    lid
    {
        type            fixedValue;
        value           uniform (1 0 0);
    }
    frontAndBack
    {
        type            empty;
    }
}


// ************************************************************************* //
