/*--------------------------------*- C++ -*----------------------------------*\
| =========                 |                                                 |
| \\      /  F ield         | foam-extend: Open Source CFD                    |
|  \\    /   O peration     | Version:  3.0                                   |
|   \\  /    A nd           | Web:         http://www.extend-project.de       |
|    \\/     M anipulation  |                                                 |
\*---------------------------------------------------------------------------*/
FoamFile
{
    version     2.0;
    format      ascii;
    class       volVectorField;
    location    "43";
    object      u;
}
// * * * * * * * * * * * * * * * * * * * * * * * * * * * * * * * * * * * * * //

dimensions      [0 0 0 0 0 0 0];

internalField   nonuniform List<vector> 
7680
(
(0.121243 -0.027934 4.41833e-17)
(0.154395 -0.0224804 5.10034e-17)
(0.335301 -0.0201413 -4.55049e-17)
(0.348267 -0.015786 4.07006e-17)
(0.488519 -0.014437 -2.46171e-17)
(0.490916 -0.0108945 2.31271e-17)
(0.60202 -0.00996241 -1.15912e-17)
(0.598066 -0.00712818 -8.41645e-18)
(0.688347 -0.00635619 -2.06615e-17)
(0.680071 -0.00408102 -1.33031e-17)
(0.755337 -0.00338563 -2.36275e-17)
(0.743888 -0.00152797 2.94516e-17)
(0.808145 -0.00087716 -3.88372e-17)
(0.794256 0.00067075 3.2941e-17)
(0.850306 0.00129768 -1.59859e-17)
(0.834459 0.00261162 4.52072e-17)
(0.884317 0.00323026 -3.69807e-17)
(0.866817 0.00436386 6.2675e-17)
(0.911979 0.00498302 -4.31877e-17)
(0.893003 0.00597711 5.08636e-17)
(0.93461 0.00659819 -4.83369e-17)
(0.914246 0.00748763 5.13273e-17)
(0.953185 0.0081062 -4.29828e-17)
(0.931463 0.00892355 6.04379e-17)
(0.968437 0.00953178 -4.43493e-17)
(0.945348 0.0103059 4.48405e-17)
(0.980927 0.0108952 -2.26585e-17)
(0.956432 0.0116423 3.14283e-17)
(0.991092 0.0122068 -2.2956e-17)
(0.965125 0.0129115 1.67617e-17)
(0.999291 0.0134487 -1.32607e-17)
(0.971747 0.014054 1.12295e-17)
(1.00577 0.0144972 -8.31906e-18)
(0.976664 0.0151194 5.04103e-18)
(1.01031 0.0148181 9.5356e-18)
(0.980987 0.0169144 -6.55271e-18)
(1.01107 0.013263 2.1586e-17)
(0.98812 0.0223413 -1.93807e-17)
(1.00498 0.00361286 2.35525e-17)
(0.999979 0.0588309 -1.89641e-17)
(0.125382 -0.093094 -4.9152e-17)
(0.157857 -0.0782449 -7.21629e-17)
(0.338664 -0.0719896 5.41431e-17)
(0.351063 -0.0594823 -4.88172e-17)
(0.491332 -0.0559688 -1.00869e-18)
(0.493259 -0.0458547 1.6179e-18)
(0.604405 -0.0435088 1.51848e-17)
(0.60007 -0.0355734 3.4521e-17)
(0.6904 -0.0337344 4.68959e-17)
(0.681811 -0.0275184 5.18266e-17)
(0.757128 -0.025948 1.90666e-17)
(0.745413 -0.0210132 -5.36118e-18)
(0.809717 -0.0196167 2.14192e-17)
(0.795596 -0.0156326 -1.10894e-17)
(0.851683 -0.0143533 -2.68253e-17)
(0.835629 -0.0110926 -4.5014e-17)
(0.885511 -0.00988428 4.65598e-17)
(0.867823 -0.0071921 -1.00874e-16)
(0.91299 -0.00601688 8.05187e-17)
(0.893842 -0.00378341 -9.21067e-17)
(0.935429 -0.00261376 6.47389e-17)
(0.914909 -0.000756857 -7.6106e-17)
(0.953798 0.000424118 4.86547e-17)
(0.931934 0.00196697 -9.08763e-17)
(0.968816 0.0031679 4.17771e-17)
(0.945599 0.00444057 -5.14766e-17)
(0.981021 0.00566963 -1.22223e-18)
(0.956419 0.0066909 -2.70365e-17)
(0.990816 0.00797415 -9.48924e-18)
(0.964782 0.00873009 2.22261e-18)
(0.9985 0.0101289 -7.70278e-18)
(0.97102 0.0106358 7.31018e-18)
(1.00426 0.0120701 -8.11215e-19)
(0.975645 0.0130165 -7.11067e-18)
(1.00791 0.0127308 -5.02722e-18)
(0.98004 0.018514 -1.13823e-17)
(1.00842 0.00794931 1.53626e-17)
(0.986572 0.0325051 -3.44879e-18)
(1.00587 -0.0113803 -9.96773e-18)
(0.992771 0.0720488 3.07794e-17)
(0.133745 -0.157899 4.7348e-17)
(0.164909 -0.132712 6.36611e-17)
(0.345037 -0.122642 -1.02717e-16)
(0.35637 -0.101889 1.07301e-16)
(0.496194 -0.0963273 -2.64287e-17)
(0.49729 -0.0798 -7.00164e-18)
(0.608117 -0.0761618 -6.37112e-17)
(0.603152 -0.0632973 -1.24283e-17)
(0.693222 -0.0604843 -9.67476e-17)
(0.684159 -0.0504898 -6.97489e-17)
(0.759251 -0.0481084 -3.65576e-17)
(0.747181 -0.0402595 2.88222e-18)
(0.811289 -0.0381514 -1.28128e-17)
(0.7969 -0.0319058 -7.19616e-19)
(0.852818 -0.02997 6.90293e-17)
(0.836562 -0.0249527 6.3352e-17)
(0.8863 -0.0231058 -4.59471e-17)
(0.868459 -0.019058 1.36545e-16)
(0.91351 -0.017234 -1.2364e-16)
(0.894243 -0.0139687 1.14971e-16)
(0.935747 -0.0121212 -7.71867e-17)
(0.915126 -0.00949342 1.19222e-16)
(0.95397 -0.00759349 -8.50414e-17)
(0.932011 -0.0054832 1.4171e-16)
(0.968897 -0.00351543 -5.16636e-17)
(0.945575 -0.00182141 1.01196e-16)
(0.981064 0.000221891 -1.59454e-17)
(0.956329 0.00157535 5.80207e-17)
(0.990876 0.00369736 9.25149e-18)
(0.964663 0.00474704 6.48492e-18)
(0.998631 0.00690401 1.04979e-19)
(0.970905 0.0077309 1.41449e-17)
(1.00446 0.00945616 5.59316e-19)
(0.975567 0.0110022 5.80427e-18)
(1.00785 0.00967201 6.55851e-18)
(0.980262 0.0165533 -1.00166e-17)
(1.00652 0.00496936 1.47136e-17)
(0.988273 0.0263599 -2.05165e-17)
(0.999755 -0.00609314 2.78854e-17)
(0.995031 0.060508 -3.02363e-17)
(0.146354 -0.221954 -1.24514e-17)
(0.175584 -0.187469 -1.11664e-16)
(0.355101 -0.173536 2.61882e-16)
(0.364803 -0.144769 -2.43286e-16)
(0.504356 -0.137073 8.76642e-17)
(0.504136 -0.114098 2.12952e-17)
(0.614815 -0.109066 9.57164e-17)
(0.608811 -0.0911969 2.3297e-17)
(0.698785 -0.0873316 5.6711e-17)
(0.6889 -0.0734725 5.35669e-17)
(0.763921 -0.0702282 9.97092e-17)
(0.751189 -0.059366 -4.27088e-17)
(0.815239 -0.0565224 1.77162e-17)
(0.800308 -0.0478976 -6.75898e-18)
(0.856172 -0.0453172 -8.16409e-17)
(0.839465 -0.0384069 -2.1136e-17)
(0.889146 -0.0359748 5.21949e-18)
(0.870927 -0.0304216 -1.46269e-16)
(0.915914 -0.028042 1.6289e-16)
(0.89633 -0.0235924 -1.52474e-16)
(0.937756 -0.0211915 8.83253e-17)
(0.916871 -0.0176563 -1.39168e-16)
(0.955623 -0.0151824 7.86727e-17)
(0.933442 -0.0124153 -1.00702e-16)
(0.970223 -0.00983359 -1.71814e-17)
(0.946713 -0.00772359 -6.29448e-17)
(0.982092 -0.00500536 -4.32312e-17)
(0.95719 -0.00347988 -1.34955e-17)
(0.991634 -0.000583012 -6.3711e-17)
(0.965255 0.000400192 2.97999e-17)
(0.999147 0.00350083 -1.99623e-17)
(0.971201 0.0041699 8.75061e-20)
(1.00479 0.00691209 -5.94644e-17)
(0.975367 0.00921719 1.08662e-16)
(1.00831 0.00717821 -8.77615e-17)
(0.978746 0.0202675 4.19116e-17)
(1.00833 -0.00189073 2.00413e-17)
(0.983732 0.0409466 -3.00858e-17)
(1.00478 -0.0223094 1.79994e-17)
(0.987306 0.070612 -3.83096e-17)
(0.1631 -0.285108 -2.45864e-17)
(0.189731 -0.240604 2.16092e-17)
(0.368084 -0.222971 -4.1886e-16)
(0.375658 -0.186169 3.4447e-16)
(0.514507 -0.176486 -1.10697e-16)
(0.512619 -0.147254 -7.84815e-17)
(0.622814 -0.140966 -1.52119e-16)
(0.615534 -0.118289 2.06289e-17)
(0.705127 -0.113477 -3.63141e-17)
(0.694273 -0.0959318 -3.02441e-17)
(0.768971 -0.0918986 -1.15895e-16)
(0.755499 -0.0781919 2.54727e-17)
(0.819268 -0.0746547 4.83653e-17)
(0.80377 -0.0638194 -2.65932e-17)
(0.859387 -0.0605986 1.22171e-16)
(0.842243 -0.0519681 -6.92476e-17)
(0.891705 -0.0489134 7.35751e-17)
(0.873146 -0.04203 3.2603e-17)
(0.917936 -0.0390176 -4.97087e-17)
(0.898085 -0.0335537 5.78379e-17)
(0.939337 -0.0304902 4.27727e-18)
(0.918235 -0.0261972 1.47572e-16)
(0.956838 -0.0230166 -7.86613e-17)
(0.934468 -0.0196956 7.33577e-17)
(0.971129 -0.0163537 5.03026e-17)
(0.947436 -0.0138432 7.46262e-17)
(0.982729 -0.0103071 1.4689e-17)
(0.95762 -0.00848797 2.37754e-17)
(0.992025 -0.00472913 1.0642e-16)
(0.965375 -0.0035251 -3.00111e-17)
(0.999322 0.000402289 4.51716e-17)
(0.970961 0.00123888 1.67632e-17)
(1.00492 0.00449847 -2.88947e-17)
(0.974575 0.00694472 2.59159e-17)
(1.00929 0.00480083 1.33126e-17)
(0.976458 0.0172004 -3.21613e-17)
(1.01285 -0.00249516 9.66711e-18)
(0.977368 0.0317414 -3.85083e-17)
(1.01605 -0.0120902 4.54591e-17)
(0.974501 0.0551377 3.74038e-17)
(0.183961 -0.346965 8.98719e-17)
(0.207417 -0.293433 1.29422e-16)
(0.384642 -0.272057 4.69472e-16)
(0.38955 -0.227514 -2.56841e-16)
(0.527844 -0.215762 9.3065e-17)
(0.523818 -0.180314 1.11028e-16)
(0.633683 -0.172677 2.06992e-16)
(0.624728 -0.145177 -6.99908e-17)
(0.714084 -0.139346 5.1264e-18)
(0.701919 -0.118078 3.37431e-18)
(0.776428 -0.113209 2.61089e-16)
(0.761917 -0.0966037 -1.32875e-16)
(0.825526 -0.0923548 8.68235e-17)
(0.809189 -0.0792358 -1.34621e-16)
(0.864663 -0.0753895 -3.60581e-17)
(0.846835 -0.0649484 -9.70918e-17)
(0.896162 -0.0613219 1.432e-16)
(0.877045 -0.0530064 -1.48135e-16)
(0.9217 -0.0494454 1.36275e-16)
(0.901395 -0.0428646 -8.03464e-17)
(0.942509 -0.0392475 1.56062e-17)
(0.921041 -0.0341117 -1.5786e-16)
(0.959504 -0.0303472 3.70876e-17)
(0.936844 -0.0264341 2.30712e-17)
(0.973377 -0.0224523 -1.44142e-16)
(0.94945 -0.0195936 2.99784e-17)
(0.984657 -0.0153277 -9.36375e-17)
(0.959349 -0.0134148 1.11417e-17)
(0.993765 -0.00877441 -1.54681e-16)
(0.966901 -0.0077562 1.50015e-17)
(1.00106 -0.00267197 -1.48784e-16)
(0.972308 -0.00231557 7.54167e-17)
(1.00693 0.00256466 -1.24165e-16)
(0.975405 0.00438219 1.04232e-16)
(1.01212 0.00411393 -1.77799e-16)
(0.975331 0.0169719 8.36925e-17)
(1.01763 -0.00389229 1.18607e-17)
(0.972217 0.0372461 -5.37336e-17)
(1.02264 -0.0204133 -7.33957e-18)
(0.967847 0.063744 -7.09418e-17)
(0.208805 -0.407386 -1.05532e-16)
(0.228412 -0.34431 -2.72488e-16)
(0.404015 -0.319412 -3.59717e-16)
(0.405768 -0.267186 7.73568e-17)
(0.543112 -0.253542 -7.01931e-17)
(0.536608 -0.212103 3.5998e-17)
(0.645833 -0.203269 -2.37438e-16)
(0.634977 -0.171163 1.47308e-16)
(0.723835 -0.16443 2.95873e-17)
(0.710221 -0.139632 -8.4751e-17)
(0.784312 -0.13401 -2.26612e-16)
(0.768689 -0.114679 6.70407e-17)
(0.831934 -0.109766 1.8162e-17)
(0.814739 -0.0945277 1.81651e-16)
(0.869888 -0.0900684 4.50572e-17)
(0.851393 -0.0779779 5.25357e-18)
(0.900422 -0.0737561 -4.22579e-17)
(0.880785 -0.0641661 -1.92583e-18)
(0.925161 -0.0600006 -6.85724e-17)
(0.904449 -0.0524519 -7.92831e-18)
(0.945296 -0.0482005 -2.43711e-17)
(0.923508 -0.0423514 6.83705e-17)
(0.961712 -0.0379066 2.6234e-17)
(0.938792 -0.0334937 -2.38857e-17)
(0.975071 -0.0287719 7.80407e-17)
(0.950921 -0.0255969 -5.72635e-17)
(0.985873 -0.0205179 1.11259e-16)
(0.960353 -0.0184602 -5.47119e-17)
(0.994505 -0.012918 2.20116e-16)
(0.967414 -0.0119544 -3.91679e-17)
(1.00131 -0.00585279 2.66367e-16)
(0.972286 -0.00587465 -6.43704e-17)
(1.00675 0.000253472 7.07825e-17)
(0.97476 0.000921258 -8.49021e-18)
(1.01211 0.0029152 1.11477e-16)
(0.973485 0.0120513 -7.07612e-17)
(1.02005 -0.00177885 7.29927e-17)
(0.966565 0.0273934 -7.97657e-17)
(1.03176 -0.00958203 1.91198e-16)
(0.95294 0.0484336 -2.00338e-17)
(0.237558 -0.465988 2.34647e-16)
(0.252806 -0.394322 1.61672e-16)
(0.426788 -0.365864 4.18538e-16)
(0.424883 -0.306302 1.68032e-16)
(0.561399 -0.290691 2.58438e-17)
(0.55197 -0.243372 -2.56758e-16)
(0.660686 -0.233255 2.3653e-16)
(0.647549 -0.19659 -2.48877e-16)
(0.736034 -0.188889 4.01905e-17)
(0.720643 -0.160573 -2.46278e-17)
(0.794431 -0.154158 2.82519e-16)
(0.777408 -0.13209 -2.92691e-16)
(0.840395 -0.126502 1.27314e-16)
(0.82208 -0.109112 -3.6019e-16)
(0.877 -0.104057 5.36113e-17)
(0.857604 -0.0902639 -1.0954e-16)
(0.906418 -0.0854939 1.3138e-16)
(0.886056 -0.0745624 -1.32425e-16)
(0.930222 -0.0698655 1.32095e-16)
(0.908931 -0.0612772 1.1713e-17)
(0.949567 -0.056483 -2.48229e-17)
(0.927323 -0.0498574 1.18882e-18)
(0.965318 -0.044831 -6.32775e-17)
(0.942046 -0.0398828 9.88451e-17)
(0.978129 -0.0345094 -8.38323e-17)
(0.953712 -0.0310337 3.18085e-17)
(0.988509 -0.0251889 -1.10937e-16)
(0.962782 -0.0230774 1.22407e-16)
(0.996865 -0.0165793 -3.8142e-16)
(0.969585 -0.0158508 5.15297e-17)
(1.00357 -0.00846094 -2.59049e-16)
(0.974268 -0.00912619 7.9489e-17)
(1.00911 -0.001054 -3.8406e-17)
(0.976423 -0.00189156 3.71065e-18)
(1.01483 0.00360536 -9.63179e-17)
(0.97403 0.00894711 8.20692e-17)
(1.02373 0.00161608 5.90959e-18)
(0.964208 0.0241049 -4.33258e-17)
(1.03705 -0.00682112 1.34798e-17)
(0.947153 0.0502096 -2.4497e-16)
(0.270074 -0.522639 -2.60535e-16)
(0.28029 -0.442059 -2.15629e-16)
(0.452213 -0.410315 -3.96947e-16)
(0.446184 -0.343555 -5.74021e-16)
(0.581516 -0.32618 -1.03187e-16)
(0.568844 -0.27324 4.26986e-16)
(0.676771 -0.262005 -1.8507e-16)
(0.661144 -0.221018 3.03174e-16)
(0.749021 -0.212473 4.96743e-17)
(0.731725 -0.180844 -1.18764e-16)
(0.805005 -0.173723 -9.56533e-17)
(0.786517 -0.149098 2.17706e-16)
(0.84906 -0.142887 -3.06744e-17)
(0.82961 -0.123508 2.43949e-16)
(0.88413 -0.117879 1.87537e-16)
(0.863849 -0.10254 -1.20629e-16)
(0.91229 -0.0972127 1.65446e-16)
(0.891239 -0.085089 -1.09575e-16)
(0.935045 -0.0798273 1.19295e-16)
(0.913221 -0.0703398 -6.4052e-17)
(0.953498 -0.064952 -7.34711e-18)
(0.930846 -0.0576766 2.95182e-17)
(0.968473 -0.0520103 -5.12492e-17)
(0.944896 -0.0466329 -3.10062e-17)
(0.98059 -0.040556 2.35238e-17)
(0.955953 -0.0368605 4.49307e-17)
(0.990324 -0.0302259 -6.83812e-17)
(0.964452 -0.0281205 2.71478e-16)
(0.998051 -0.0207048 1.95582e-17)
(0.97071 -0.0202773 1.94047e-16)
(1.00411 -0.01174 7.61229e-17)
(0.974878 -0.0131989 -5.31408e-17)
(1.009 -0.00339267 7.4567e-17)
(0.976596 -0.00622466 -9.12977e-17)
(1.01411 0.00310017 9.20906e-17)
(0.973774 0.0026541 -8.13123e-17)
(1.02297 0.00578161 7.66114e-17)
(0.962327 0.0134589 -1.9339e-16)
(1.03879 0.00439166 3.44946e-16)
(0.938642 0.0376477 -9.04731e-17)
(0.306224 -0.576983 5.44062e-16)
(0.310969 -0.488406 2.79826e-16)
(0.48081 -0.453351 5.13121e-16)
(0.470192 -0.379785 8.57604e-16)
(0.604439 -0.360579 3.06339e-16)
(0.588104 -0.302193 -4.29859e-16)
(0.695356 -0.289766 8.855e-17)
(0.676877 -0.24456 -3.6662e-16)
(0.764254 -0.235116 -1.7147e-16)
(0.744744 -0.200232 3.2064e-16)
(0.817614 -0.192376 4.74199e-17)
(0.797389 -0.16522 -1.11089e-16)
(0.859582 -0.158382 1.12864e-16)
(0.838752 -0.137015 -3.23271e-16)
(0.892959 -0.130831 -5.35043e-17)
(0.871575 -0.113921 3.51622e-17)
(0.919723 -0.108081 -1.49579e-16)
(0.897791 -0.0947228 4.81229e-18)
(0.94131 -0.0889601 -9.39125e-17)
(0.918789 -0.0785185 9.45927e-17)
(0.958777 -0.072615 2.58457e-17)
(0.935585 -0.0646301 4.66058e-17)
(0.972914 -0.0584066 1.34423e-17)
(0.948931 -0.0525426 1.14081e-16)
(0.984321 -0.0458362 -1.98552e-16)
(0.959394 -0.0418691 2.58223e-16)
(0.993461 -0.034489 -1.86979e-16)
(0.967397 -0.0323373 1.20538e-17)
(1.0007 -0.0239903 -3.05838e-16)
(0.973244 -0.0237851 1.48057e-16)
(1.00634 -0.0140059 -2.53593e-16)
(0.977068 -0.0160986 2.40303e-16)
(1.01081 -0.00441333 -3.0901e-16)
(0.978503 -0.0089236 3.59022e-16)
(1.01528 0.00419423 -3.29712e-16)
(0.97552 -0.00139117 2.16522e-16)
(1.023 0.0109701 -1.40265e-16)
(0.963707 0.00635918 4.94247e-17)
(1.03811 0.0129038 -4.71185e-17)
(0.937132 0.0334893 -3.05468e-16)
(0.345854 -0.628896 -9.18814e-16)
(0.344474 -0.532181 -5.49089e-16)
(0.511852 -0.494129 -4.63631e-16)
(0.496209 -0.413972 -1.01662e-15)
(0.629056 -0.393158 -3.75175e-16)
(0.608769 -0.32962 2.19012e-16)
(0.715096 -0.316172 -8.80333e-17)
(0.693578 -0.267003 4.66106e-16)
(0.780244 -0.256788 2.5097e-16)
(0.758409 -0.218866 -3.58289e-16)
(0.830686 -0.210365 -1.50882e-16)
(0.808668 -0.180863 -1.22923e-16)
(0.870343 -0.173457 -2.66211e-17)
(0.84812 -0.150267 7.28238e-17)
(0.901858 -0.143558 1.09473e-16)
(0.879387 -0.125233 -8.48556e-17)
(0.927094 -0.118884 2.18929e-16)
(0.904318 -0.104438 -6.20522e-17)
(0.947403 -0.0981601 2.83988e-16)
(0.924235 -0.0869033 -2.97928e-16)
(0.963779 -0.0804585 6.02214e-17)
(0.940105 -0.0718945 -1.27164e-16)
(0.976965 -0.065086 -2.31232e-17)
(0.952644 -0.058858 -1.33598e-17)
(0.987522 -0.0515038 -1.12755e-16)
(0.962392 -0.047385 1.22373e-16)
(0.995878 -0.039267 -2.12319e-16)
(0.969755 -0.0371999 3.59216e-16)
(1.00237 -0.0279725 -1.35523e-16)
(0.975035 -0.0281567 5.12516e-18)
(1.00727 -0.0172332 5.74457e-17)
(0.978393 -0.0201982 -1.1169e-17)
(1.01093 -0.00672038 1.14125e-17)
(0.979579 -0.0132497 -2.0651e-17)
(1.01429 0.00383983 4.01248e-17)
(0.976913 -0.00746563 -1.54748e-17)
(1.02009 0.0154364 1.44379e-16)
(0.965832 -0.00344885 -1.67187e-16)
(1.03386 0.0234819 3.24249e-16)
(0.936435 0.0236853 -2.36455e-17)
(0.388782 -0.678053 8.27432e-16)
(0.380907 -0.574077 5.55296e-16)
(0.545781 -0.533022 4.2868e-16)
(0.524695 -0.446708 8.81158e-16)
(0.656223 -0.42423 2.30236e-16)
(0.631598 -0.355774 2.42544e-16)
(0.737095 -0.341245 -5.73724e-17)
(0.712206 -0.288266 -2.03577e-16)
(0.798253 -0.277237 -3.59762e-16)
(0.773805 -0.236378 4.02914e-16)
(0.845574 -0.227211 2.27938e-17)
(0.821513 -0.195427 4.47331e-16)
(0.88275 -0.187452 -2.36713e-17)
(0.85891 -0.162469 1.20444e-16)
(0.912256 -0.155258 4.93852e-17)
(0.888498 -0.135516 1.6039e-16)
(0.935837 -0.128702 -2.61237e-16)
(0.912037 -0.113142 1.35387e-16)
(0.954759 -0.106408 -2.57369e-16)
(0.930788 -0.0942908 3.84305e-16)
(0.969958 -0.0873759 -1.14004e-16)
(0.945668 -0.07817 1.23583e-16)
(0.982132 -0.0708545 1.8277e-17)
(0.95736 -0.0641811 1.95781e-16)
(0.991807 -0.0562582 -1.86763e-16)
(0.966374 -0.0518799 1.83522e-16)
(0.999379 -0.0430982 -1.42071e-16)
(0.973095 -0.0409623 -1.29614e-17)
(1.00514 -0.0309263 -1.43967e-16)
(0.977808 -0.0312649 1.71729e-16)
(1.00932 -0.0192995 -1.71561e-16)
(0.980669 -0.0227589 3.44175e-17)
(1.01214 -0.00775152 -3.78235e-17)
(0.981546 -0.0156555 2.13929e-16)
(1.01414 0.00457115 -3.48784e-16)
(0.979331 -0.0111718 2.1448e-16)
(1.01726 0.0199157 -2.01587e-16)
(0.970039 -0.010393 1.0232e-16)
(1.02782 0.0320207 -2.41865e-16)
(0.940253 0.0179004 -1.901e-16)
(0.434846 -0.724338 -3.05953e-16)
(0.419863 -0.613134 -3.32597e-16)
(0.581906 -0.569419 -4.1481e-16)
(0.554983 -0.477235 -5.93032e-16)
(0.684916 -0.453334 -4.15546e-16)
(0.655696 -0.38028 -4.39409e-16)
(0.760145 -0.364847 3.54553e-17)
(0.731721 -0.308332 1.21989e-16)
(0.816966 -0.296619 3.6627e-17)
(0.78981 -0.253049 -2.27299e-17)
(0.860909 -0.24331 -1.30471e-16)
(0.834758 -0.209434 -5.41402e-16)
(0.895411 -0.200954 -1.16127e-16)
(0.869945 -0.174347 -3.85795e-16)
(0.922761 -0.166669 -4.98381e-17)
(0.897734 -0.145667 -4.48096e-16)
(0.94457 -0.138402 3.76553e-16)
(0.919787 -0.121876 -4.26334e-16)
(0.962009 -0.114686 3.6338e-16)
(0.937289 -0.101848 -5.77494e-16)
(0.975943 -0.0944541 2.0298e-16)
(0.951105 -0.0847404 -1.86616e-16)
(0.987014 -0.0769083 -2.8426e-17)
(0.961874 -0.0699218 -2.25682e-17)
(0.995705 -0.061427 -7.27164e-17)
(0.970079 -0.0569268 2.7231e-16)
(1.00237 -0.0474932 -1.90758e-16)
(0.976092 -0.0454412 2.31583e-16)
(1.00728 -0.0346276 6.56806e-17)
(0.980196 -0.0352995 -5.70186e-17)
(1.01062 -0.0223335 1.53304e-16)
(0.982578 -0.0264866 -2.21891e-17)
(1.01251 -0.0099752 7.24398e-18)
(0.983256 -0.0193726 -1.27222e-16)
(1.01311 0.00394176 3.57087e-16)
(0.981736 -0.0158883 -3.41726e-16)
(1.01334 0.0229845 3.39324e-16)
(0.97475 -0.0174995 -2.89653e-16)
(1.02012 0.0396018 3.79285e-16)
(0.945361 0.0112412 2.51805e-17)
(0.483817 -0.767465 1.82662e-16)
(0.461419 -0.64987 2.83822e-16)
(0.620583 -0.603515 3.32166e-16)
(0.587455 -0.505926 4.78547e-16)
(0.715859 -0.480559 5.66571e-16)
(0.681702 -0.403198 4.24025e-16)
(0.785182 -0.386813 4.13428e-17)
(0.752925 -0.326964 2.07187e-16)
(0.837446 -0.314533 -1.23992e-17)
(0.807323 -0.268394 5.23019e-17)
(0.877827 -0.258068 1.2987e-16)
(0.849359 -0.222194 5.34712e-16)
(0.909497 -0.213216 3.87585e-16)
(0.882202 -0.185039 5.32316e-16)
(0.934555 -0.176921 4.83279e-17)
(0.908076 -0.154679 6.30039e-16)
(0.954474 -0.147006 -5.03165e-16)
(0.928541 -0.129502 6.65406e-16)
(0.970328 -0.121914 -2.90659e-16)
(0.94471 -0.108317 4.92332e-16)
(0.98291 -0.100516 -1.45581e-16)
(0.957388 -0.0902301 1.65595e-16)
(0.992808 -0.0819635 -1.00825e-16)
(0.967175 -0.0745686 8.42668e-17)
(1.00046 -0.0655966 2.38501e-17)
(0.974517 -0.0608364 -3.04768e-16)
(1.00618 -0.0508646 2.44764e-16)
(0.979761 -0.0486969 -3.09295e-16)
(1.01018 -0.0372582 5.79845e-17)
(0.983174 -0.0379723 -2.01488e-16)
(1.01258 -0.0242483 6.85522e-17)
(0.984954 -0.0286655 -2.18352e-16)
(1.0134 -0.0111248 1.35142e-16)
(0.985286 -0.0213143 1.55645e-17)
(1.01241 0.0039433 -1.71162e-16)
(0.984419 -0.0184773 2.88832e-16)
(1.00948 0.025318 -2.57344e-16)
(0.980229 -0.0219759 2.06261e-16)
(1.01178 0.0446857 -1.5223e-16)
(0.952696 0.00714146 -2.29357e-16)
(0.535522 -0.807331 -6.31286e-16)
(0.505162 -0.683534 -8.05132e-17)
(0.661172 -0.634901 -4.70048e-16)
(0.621497 -0.532263 -3.4147e-16)
(0.748135 -0.50568 -5.45854e-16)
(0.708818 -0.424358 -3.72742e-16)
(0.811142 -0.407201 -2.8456e-16)
(0.774913 -0.344303 -1.34879e-16)
(0.858552 -0.331289 -5.65177e-16)
(0.825385 -0.282813 2.58117e-16)
(0.895151 -0.271999 -4.02414e-16)
(0.864334 -0.234322 -3.19426e-16)
(0.923829 -0.224912 -7.81717e-16)
(0.894705 -0.195336 -5.19518e-16)
(0.946474 -0.18682 -2.23936e-16)
(0.918568 -0.163493 -3.60371e-16)
(0.964411 -0.155434 4.22292e-16)
(0.937372 -0.1371 -6.3666e-16)
(0.978606 -0.129123 4.63386e-16)
(0.952147 -0.114907 -6.01531e-16)
(0.989774 -0.106698 3.2963e-16)
(0.963641 -0.0959753 -2.87621e-16)
(0.998442 -0.087271 2.0457e-16)
(0.972403 -0.079603 -1.07623e-16)
(1.005 -0.0701507 9.49347e-17)
(0.978852 -0.0652716 9.53257e-17)
(1.00972 -0.0547608 3.98144e-17)
(0.983316 -0.0526283 2.73524e-17)
(1.01277 -0.0405641 2.22571e-16)
(0.986057 -0.0414802 -2.83156e-17)
(1.01425 -0.0269916 1.98758e-16)
(0.987297 -0.0318129 -1.11677e-16)
(1.01407 -0.0132416 2.32875e-16)
(0.987356 -0.0241929 -2.0544e-16)
(1.01163 0.00280792 2.20724e-16)
(0.987116 -0.0214311 -2.52399e-16)
(1.00576 0.0260863 1.5905e-16)
(0.98558 -0.0255133 -2.06822e-16)
(1.00355 0.0477287 8.57372e-17)
(0.960314 0.00402332 -3.09921e-17)
(0.589696 -0.843691 8.02566e-16)
(0.551123 -0.714488 9.72221e-17)
(0.703933 -0.663624 3.46513e-16)
(0.657395 -0.556428 5.2749e-16)
(0.782324 -0.528602 3.63683e-16)
(0.737553 -0.443657 5.9331e-16)
(0.838792 -0.425692 1.63308e-16)
(0.798333 -0.359991 3.31273e-16)
(0.881157 -0.34637 4.69148e-16)
(0.844719 -0.295733 -7.49068e-17)
(0.913814 -0.284424 2.05282e-16)
(0.880444 -0.245068 4.50722e-16)
(0.939359 -0.235237 7.36807e-16)
(0.908223 -0.20434 6.49456e-16)
(0.959467 -0.195454 2.48978e-16)
(0.929967 -0.171082 1.72985e-16)
(0.975312 -0.162682 -4.5108e-16)
(0.947013 -0.143522 5.52418e-16)
(0.98775 -0.135214 -4.53574e-16)
(0.960309 -0.120351 2.82839e-16)
(0.997415 -0.111809 -9.31074e-18)
(0.970537 -0.10059 3.54606e-17)
(1.00477 -0.0915379 6.85373e-17)
(0.9782 -0.0834997 -1.31024e-16)
(1.01016 -0.0736784 1.07759e-16)
(0.983678 -0.0685366 -3.49048e-16)
(1.01381 -0.0576305 2.11258e-16)
(0.98727 -0.0553289 -3.5909e-16)
(1.01584 -0.0428392 5.61257e-17)
(0.989228 -0.0436734 -2.31097e-16)
(1.01628 -0.0287233 9.97073e-17)
(0.989791 -0.0335568 -2.02386e-16)
(1.01497 -0.0144744 1.0917e-16)
(0.989418 -0.0255745 -3.66118e-16)
(1.01106 0.00205817 2.73482e-16)
(0.989619 -0.0226474 -1.21228e-16)
(1.00249 0.0259202 -5.52362e-18)
(0.990641 -0.0268318 2.23284e-16)
(0.995973 0.048297 -1.28171e-16)
(0.96824 0.0027623 2.18691e-16)
(0.646156 -0.876456 -8.45264e-16)
(0.598907 -0.742179 1.78651e-16)
(0.748291 -0.689455 -6.95724e-16)
(0.694608 -0.578117 -2.80069e-16)
(0.817627 -0.549305 -7.1672e-16)
(0.76722 -0.461103 -2.73632e-16)
(0.867212 -0.442512 -2.04255e-16)
(0.822413 -0.374304 -4.64913e-17)
(0.904286 -0.36021 -7.73179e-16)
(0.86452 -0.307651 3.98238e-16)
(0.932823 -0.295945 -3.52273e-16)
(0.896884 -0.255106 -3.61481e-16)
(0.955107 -0.244925 -6.35668e-16)
(0.92197 -0.212878 -7.73719e-16)
(0.972587 -0.203668 -2.86782e-16)
(0.941524 -0.178405 -1.34005e-16)
(0.986273 -0.169691 3.82903e-16)
(0.956764 -0.149848 -4.18875e-16)
(0.996908 -0.141224 2.99767e-16)
(0.968547 -0.125851 -2.53159e-16)
(1.00504 -0.116978 1.90971e-16)
(0.977489 -0.105397 -2.49296e-16)
(1.01106 -0.0959915 8.38118e-17)
(0.984043 -0.0877188 -9.55981e-17)
(1.01527 -0.0775155 2.34284e-16)
(0.988553 -0.072252 -2.0734e-17)
(1.01784 -0.0609291 1.91386e-16)
(0.991296 -0.0586062 2.80587e-17)
(1.01887 -0.0456567 3.63205e-16)
(0.992515 -0.0465578 -2.02579e-16)
(1.01833 -0.0310962 4.43282e-16)
(0.992456 -0.0360599 -2.83875e-16)
(1.01602 -0.0164278 4.05713e-16)
(0.991655 -0.0276257 -9.59953e-17)
(1.01086 0.000456863 3.10518e-16)
(0.992044 -0.0239847 -5.13289e-16)
(1.00004 0.0244625 4.45621e-16)
(0.994952 -0.0271133 -4.87503e-16)
(0.989707 0.0469881 1.69005e-16)
(0.975226 0.00266011 -1.59988e-16)
(0.704605 -0.905427 8.7395e-16)
(0.648482 -0.766829 1.58005e-16)
(0.7944 -0.712322 2.96606e-16)
(0.733314 -0.597352 6.74793e-16)
(0.854475 -0.567541 7.42448e-16)
(0.798192 -0.476461 3.33078e-16)
(0.897001 -0.45722 -6.64458e-17)
(0.847647 -0.386786 1.6269e-16)
(0.928631 -0.372205 5.5041e-16)
(0.885346 -0.317931 -2.81064e-16)
(0.952915 -0.305829 2.9787e-16)
(0.914233 -0.263657 3.73634e-16)
(0.97182 -0.253141 5.39671e-16)
(0.936521 -0.220044 5.08455e-16)
(0.986563 -0.210541 4.60421e-16)
(0.953789 -0.184445 4.83689e-17)
(0.997992 -0.175465 -2.09936e-16)
(0.967132 -0.15496 1.69936e-16)
(1.00673 -0.146082 -3.35212e-17)
(0.977316 -0.130185 6.1569e-18)
(1.01323 -0.12106 6.75489e-17)
(0.984889 -0.109065 -9.69173e-17)
(1.01784 -0.0994053 2.5101e-16)
(0.990249 -0.090809 -3.9462e-16)
(1.02079 -0.0803472 1.79479e-16)
(0.993701 -0.0748285 -3.99329e-16)
(1.02221 -0.0632475 6.84395e-17)
(0.995496 -0.0607178 -2.95629e-16)
(1.02214 -0.0475215 -2.07194e-17)
(0.995865 -0.0482443 -1.77222e-16)
(1.02054 -0.0325694 -1.9712e-16)
(0.995063 -0.037349 3.78355e-17)
(1.01717 -0.0176217 -1.8113e-16)
(0.993695 -0.0284684 -2.0764e-16)
(1.01086 -0.000797851 4.63052e-17)
(0.994008 -0.0240377 2.32814e-16)
(0.998333 0.0223563 -1.30525e-16)
(0.998313 -0.0258895 3.09011e-16)
(0.98497 0.0439544 -2.14024e-16)
(0.981198 0.00357115 2.94374e-16)
(0.76485 -0.930532 -8.87825e-16)
(0.69949 -0.788068 -4.8804e-16)
(0.841766 -0.732152 -4.22668e-16)
(0.773062 -0.614017 -2.83991e-16)
(0.892199 -0.583465 -1.16698e-15)
(0.8299 -0.489888 -1.55121e-16)
(0.92739 -0.47018 -1.69329e-16)
(0.873402 -0.397824 -1.06623e-17)
(0.953382 -0.382889 -4.83824e-16)
(0.906542 -0.327141 2.13616e-16)
(0.973275 -0.314742 -6.91648e-17)
(0.931845 -0.271434 -5.9058e-16)
(0.988705 -0.260654 -2.53668e-16)
(0.951267 -0.226677 -4.11014e-16)
(1.00065 -0.216928 -2.29272e-16)
(0.966204 -0.19015 -1.24804e-16)
(1.00978 -0.180932 4.16571e-16)
(0.977625 -0.159904 -3.39116e-16)
(1.0166 -0.150784 3.65246e-16)
(0.986201 -0.134496 -4.50713e-16)
(1.02148 -0.125119 2.81828e-16)
(0.992409 -0.112844 -1.61574e-16)
(1.02468 -0.102916 4.98689e-17)
(0.996595 -0.0941324 7.50252e-17)
(1.02639 -0.0833841 2.19638e-16)
(0.999022 -0.0777535 1.24578e-16)
(1.02669 -0.0658694 1.30916e-16)
(0.999913 -0.0632855 1.27655e-16)
(1.02559 -0.0497741 1.23919e-16)
(0.999483 -0.050477 1.75106e-16)
(1.02301 -0.0344944 2.16842e-16)
(0.99798 -0.0392308 -5.05274e-17)
(1.01868 -0.0193046 2.12896e-16)
(0.995997 -0.0298368 2.00718e-16)
(1.01142 -0.00258572 1.03231e-16)
(0.995868 -0.0242596 -4.29323e-16)
(0.997702 0.0195314 4.2624e-16)
(1.00063 -0.0241373 -3.85878e-16)
(0.982052 0.0399632 2.00098e-16)
(0.985466 0.00498033 -2.66712e-16)
(0.826573 -0.951618 1.11536e-15)
(0.751825 -0.805998 9.64911e-16)
(0.890433 -0.748778 3.48537e-16)
(0.81391 -0.628 3.20417e-16)
(0.931075 -0.596711 9.46616e-16)
(0.862578 -0.501049 1.25234e-16)
(0.95881 -0.48086 2.45459e-16)
(0.900021 -0.406894 1.53245e-16)
(0.979054 -0.391599 2.21417e-16)
(0.928507 -0.33461 -1.36625e-16)
(0.994458 -0.321921 -8.5485e-18)
(0.95014 -0.277647 4.44965e-16)
(1.00632 -0.266625 3.16875e-16)
(0.966609 -0.231886 2.91193e-16)
(1.01538 -0.221929 4.10014e-17)
(0.979133 -0.194544 4.16555e-17)
(1.02213 -0.185139 -3.77689e-16)
(0.988551 -0.163625 1.45963e-16)
(1.02694 -0.154331 -4.9465e-17)
(0.995438 -0.137652 1.18283e-16)
(1.03011 -0.128108 3.1456e-17)
(1.0002 -0.115516 -6.04566e-17)
(1.03182 -0.105425 1.56961e-16)
(1.00312 -0.0963784 -2.28838e-16)
(1.0322 -0.0854744 -9.80296e-18)
(1.00443 -0.079617 -3.59117e-16)
(1.0313 -0.0675913 1.40695e-16)
(1.00432 -0.0647961 -3.51907e-16)
(1.02909 -0.0511729 1.2208e-16)
(1.00299 -0.051657 -3.88571e-16)
(1.02546 -0.0356249 -8.46765e-17)
(1.00069 -0.0400874 -6.421e-17)
(1.02016 -0.0203011 -2.39698e-16)
(0.997988 -0.0302558 -2.2273e-16)
(1.01212 -0.0039374 -2.15399e-16)
(0.99718 -0.0236578 2.00813e-16)
(0.997832 0.0166257 -2.6167e-16)
(1.00182 -0.02177 1.74964e-16)
(0.980864 0.0354379 -1.33005e-16)
(0.988145 0.00639482 3.80965e-16)
(0.889569 -0.968633 -1.25188e-15)
(0.805185 -0.820416 -9.59231e-16)
(0.939995 -0.762262 -6.17195e-16)
(0.855511 -0.63935 2.20873e-17)
(0.970572 -0.607579 -8.39032e-16)
(0.895782 -0.510226 1.27564e-16)
(0.990644 -0.489736 -4.78651e-16)
(0.927004 -0.414465 -1.25189e-16)
(1.005 -0.398943 -4.3572e-17)
(0.950726 -0.340955 1.97375e-16)
(1.01581 -0.328074 6.56736e-17)
(0.968617 -0.283029 -2.45341e-16)
(1.02404 -0.271834 -1.3759e-16)
(0.98209 -0.236499 -5.33475e-16)
(1.03018 -0.22638 1.35986e-16)
(0.99218 -0.198534 -4.9433e-17)
(1.03453 -0.188969 3.82185e-16)
(0.999593 -0.167102 -3.20915e-16)
(1.03735 -0.157644 1.90193e-16)
(1.00481 -0.140702 -2.3239e-16)
(1.03883 -0.130984 7.79502e-17)
(1.00815 -0.118203 -1.24176e-17)
(1.03908 -0.107927 -1.66898e-16)
(1.00985 -0.0987524 2.14468e-17)
(1.03819 -0.0876506 3.05045e-16)
(1.0101 -0.081712 2.41255e-17)
(1.03615 -0.0694791 8.29354e-17)
(1.00905 -0.0666354 1.56944e-16)
(1.03291 -0.0528029 3.70264e-17)
(1.00688 -0.0532506 1.81014e-16)
(1.02831 -0.0370327 9.83717e-17)
(1.00383 -0.0414132 2.36768e-16)
(1.02212 -0.0215851 9.9929e-17)
(1.00035 -0.0311401 3.75553e-16)
(1.01342 -0.005515 2.34989e-16)
(0.998518 -0.0234166 -8.60774e-17)
(0.998893 0.0136751 2.09179e-16)
(1.00215 -0.0196088 -6.74974e-17)
(0.981262 0.031133 -1.99543e-17)
(0.989065 0.00743183 -1.91188e-16)
(0.953506 -0.981474 1.2505e-15)
(0.859382 -0.831327 8.92636e-16)
(0.990385 -0.77237 5.06637e-16)
(0.897801 -0.647849 1.48195e-16)
(1.01081 -0.615616 3.96509e-16)
(0.929606 -0.517004 -3.50604e-18)
(1.02316 -0.496211 4.07067e-16)
(0.954553 -0.419971 8.35522e-17)
(1.03156 -0.404224 -8.27166e-17)
(0.973456 -0.345489 -1.66428e-16)
(1.03773 -0.332428 1.34388e-16)
(0.987548 -0.286803 -4.40691e-17)
(1.04227 -0.275462 -5.37183e-17)
(0.997965 -0.239666 7.22689e-16)
(1.04541 -0.229425 -3.97294e-16)
(1.00556 -0.20121 1.49731e-16)
(1.0473 -0.191541 -1.55805e-16)
(1.0109 -0.169375 2.66335e-17)
(1.04805 -0.159825 1.99519e-16)
(1.01436 -0.142636 -1.06002e-16)
(1.04775 -0.132835 9.32358e-17)
(1.0162 -0.119845 5.86947e-17)
(1.04647 -0.109495 1.0701e-16)
(1.0166 -0.100135 -2.04399e-16)
(1.04422 -0.0889698 1.29907e-16)
(1.01569 -0.0828565 -3.02078e-16)
(1.04096 -0.0705763 3.61381e-17)
(1.01361 -0.0675532 2.52312e-17)
(1.03661 -0.0537006 -3.63582e-16)
(1.01052 -0.0539487 6.93936e-17)