/*--------------------------------*- C++ -*----------------------------------*\
| =========                 |                                                 |
| \\      /  F ield         | foam-extend: Open Source CFD                    |
|  \\    /   O peration     | Version:  3.0                                   |
|   \\  /    A nd           | Web:         http://www.extend-project.de       |
|    \\/     M anipulation  |                                                 |
\*---------------------------------------------------------------------------*/
FoamFile
{
    version     2.0;
    format      ascii;
    class       volScalarField;
    location    "6";
    object      p;
}
// * * * * * * * * * * * * * * * * * * * * * * * * * * * * * * * * * * * * * //

dimensions      [0 0 0 0 0 0 0];

internalField   nonuniform List<scalar> 
672
(
-0.2317384792
-0.1965828426
-0.185137681
-0.167751419
-0.1635314459
-0.1557616026
-0.1538349574
-0.1517491545
-0.15004386
-0.150006572
-0.1479550424
-0.145235514
-0.229099384
-0.1944184607
-0.1831332994
-0.1660071452
-0.1618567707
-0.1542271032
-0.1523288876
-0.1503103112
-0.1486165089
-0.1486052622
-0.1465658129
-0.1438654395
-0.2238315257
-0.189989748
-0.1790277142
-0.1623434125
-0.1583718801
-0.1509605468
-0.1492067487
-0.1472626807
-0.1457069369
-0.1456986118
-0.1437606494
-0.1411240475
-0.215585209
-0.1830761677
-0.1725845973
-0.1566000665
-0.152840289
-0.1457893739
-0.1441604333
-0.1423705594
-0.1409225945
-0.1409685031
-0.1391390931
-0.1365510334
-0.2048021445
-0.1739826292
-0.1641042803
-0.1490008988
-0.1455450396
-0.1389348614
-0.1375245375
-0.1359032102
-0.1346602848
-0.1347457259
-0.1330653339
-0.1306071909
-0.1913789475
-0.1626706822
-0.1535337388
-0.1395260535
-0.1364032527
-0.1303424931
-0.1291370164
-0.1277366017
-0.126686629
-0.1268570608
-0.1253973603
-0.1230587549
-0.1755735092
-0.1493240468
-0.1410513341
-0.1283120863
-0.1255840536
-0.1201485918
-0.1191994377
-0.1180336817
-0.1172254139
-0.1174574698
-0.1162239695
-0.1140473207
-0.157629714
-0.1341601986
-0.1268515179
-0.1155378717
-0.1132328018
-0.1084885305
-0.1077897976
-0.1068624345
-0.1062593819
-0.1065150411
-0.1054231474
-0.1034488635
-0.1375520091
-0.1171889577
-0.1109414632
-0.1012090229
-0.09934939428
-0.09536366676
-0.09491631454
-0.09425125643
-0.09387419609
-0.09418260541
-0.09333503663
-0.09155519679
-0.1159552175
-0.09890088864
-0.09378072785
-0.08572275262
-0.08434145497
-0.08114286586
-0.08097679544
-0.08056280005
-0.0804429311
-0.08078232746
-0.08017833644
-0.07864876747
-0.09258269446
-0.079125136
-0.07519940617
-0.0689449627
-0.06802179106
-0.06566120821
-0.06571221801
-0.06556217273
-0.06562284255
-0.06600365297
-0.06559853948
-0.06433911645
-0.06837520841
-0.05859183657
-0.05589013486
-0.05146672716
-0.05103619598
-0.04950470664
-0.04983303671
-0.04991765259
-0.05025358153
-0.05065615808
-0.05056185401
-0.04956930459
-0.04286843111
-0.03698735704
-0.03554523988
-0.03304704939
-0.0330545206
-0.03238419274
-0.03287618911
-0.03319739105
-0.03366004595
-0.03407741383
-0.03416023555
-0.03347266148
-0.017223838
-0.01520319234
-0.01501306669
-0.01440521305
-0.0148773666
-0.01502190277
-0.01574008622
-0.01623801343
-0.01691221615
-0.01728397754
-0.01759606133
-0.01722139238
0.009129907732
0.007145036764
0.006078298872
0.004743510056
0.003878580145
0.002902661365
0.002082555951
0.001397306016
0.0006489755449
0.0002926937322
-0.0001955400953
-0.0001392009428
0.03495716864
0.02911218642
0.02683041383
0.02363986672
0.02236964243
0.02063503769
0.01966217149
0.0188633742
0.01797800863
0.0177055891
0.01703033969
0.01671896073
0.06081056618
0.0510651461
0.04759260967
0.04254296041
0.04094087989
0.03844930633
0.03743511874
0.03651240864
0.03560685344
0.03538833097
0.03456217757
0.03392635022
0.08554143695
0.07212208535
0.06752875868
0.06074376549
0.05881368013
0.05564786409
0.05455875904
0.05358060695
0.05261710622
0.05252208444
0.05158229607
0.05060175536
0.1095603417
0.09254780033
0.08688524618
0.07841637132
0.07622083269
0.07240478164
0.07132178249
0.07028296263
0.06934508303
0.06934036736
0.06831625182
0.06700241475
0.1319514906
0.1116292944
0.104988471
0.09498087513
0.09254095868
0.0881515763
0.08705846837
0.08599368185
0.085034659
0.08512002037
0.08393213605
0.08231601496
0.1528897057
0.1294660039
0.1219229332
0.110485133
0.1078437396
0.1029320219
0.1018708061
0.1007970314
0.09987941205
0.1000688024
0.09882241581
0.09689141733
0.17179643
0.1455901549
0.1372502034
0.1245363379
0.1217344074
0.1163657616
0.1153570811
0.1142893095
0.1134287663
0.1137223321
0.1124217932
0.1102131162
0.1885663454
0.1599068083
0.1508662877
0.1370382821
0.1340920673
0.1283412457
0.1273700511
0.1263346743
0.1255104173
0.1259194663
0.124545796
0.1221033475
0.2030046199
0.172228942
0.1626018009
0.1478132841
0.1447811201
0.1386951719
0.1378168505
0.1368009965
0.1360925426
0.1366057894
0.1352831409
0.1326091606
0.2147387579
0.1822787848
0.1721769535
0.1566345216
0.1535057599
0.1471778264
0.1463203011
0.1453525769
0.1446587576
0.1452728707
0.1438992075
0.1410499018
0.2239417535
0.1901409187
0.1796822887
0.1635339526
0.1603784768
0.1538346378
0.1530707851
0.1520975851
0.1514966771
0.1521324238
0.1507407166
0.147759472
0.2300418087
0.1954048117
0.1847121024
0.1681969693
0.1649857344
0.1583362331
0.1575624599
0.1566319716
0.1560123805
0.1567156474
0.1553002767
0.1522106547
0.2335066764
0.1983769508
0.1875691727
0.1708295881
0.1676398153
0.1608980472
0.1602026654
0.1592457067
0.1587075181
0.1593953963
0.1580048269
0.1548973203
0.2336754726
0.198592512
0.187797719
0.1710894641
0.1678840996
0.1611704899
0.1604345096
0.1595066954
0.1589168991
0.1596335875
0.158222675
0.1551089314
0.231196915
0.1965013741
0.1858380175
0.1693001504
0.1661581508
0.1594816345
0.1587977675
0.1578240093
0.1572901704
0.157942624
0.1565676929
0.1534975943
0.2254511795
0.1916755123
0.181270846
0.1651576677
0.1620447316
0.1555270571
0.1547808547
0.1538189757
0.1532082844
0.1538420778
0.1524373597
0.1494649288
0.2171383868
0.1846179014
0.1745884203
0.1590385159
0.156029632
0.1496849518
0.1489638464
0.1479527658
0.1473808127
0.1479345367
0.14662281
0.1437690754
0.2058028529
0.1750228713
0.1654886407
0.1507367914
0.1478098148
0.141751013
0.1409624594
0.1399506391
0.1392996335
0.1397970685
0.1384854134
0.1358167782
0.1920768304
0.1633623701
0.1544361545
0.1406216598
0.1378418734
0.1320939186
0.1313027316
0.1302431869
0.129585725
0.1299653859
0.1287114474
0.1262637787
0.1757610497
0.1495165207
0.1413050389
0.1286280542
0.1259932372
0.1206545509
0.1198112109
0.1187473395
0.118029886
0.1183169252
0.1171227223
0.1149092087
0.15733221
0.1338634494
0.1264732603
0.115072398
0.1126361615
0.107747748
0.1068916964
0.1058008809
0.1050454236
0.1051852446
0.1040055636
0.1020748253
0.1368923424
0.1164982399
0.1100165479
0.1000457723
0.09782755926
0.09346947283
0.09260103521
0.09152553278
0.0907482781
0.09078146236
0.08968401529
0.08805710028
0.1147203573
0.09767375768
0.09219722254
0.08378898591
0.08183152547
0.07806229158
0.07720685238
0.07616657324
0.07539768447
0.07534342499
0.07439268694
0.07306516851
0.09120866291
0.07768968389
0.07328017758
0.06653414809
0.06487190119
0.06174498893
0.06093489679
0.0599489867
0.05921412042
0.05906055297
0.05822107249
0.05724617591
0.06644713424
0.05667686727
0.05341564
0.04844781886
0.04711157075
0.04469335644
0.0439342041
0.04304194883
0.04233886955
0.04210965237
0.04140802233
0.04074043933
0.04105410857
0.03509260169
0.03301193132
0.02986507456
0.02889622648
0.02721302166
0.02656345693
0.02577329075
0.02516841742
0.02485588551
0.02432688687
0.02400436416
0.01498395424
0.0129791685
0.01213824483
0.01089924843
0.01031755181
0.009433847842
0.008885467213
0.008249481231
0.0077127607
0.007351148316
0.00696742652
0.00697812063
-0.01102304284
-0.009122363147
-0.008723226032
-0.008066243539
-0.008222620704
-0.00830573689
-0.008682372886
-0.009161096044
-0.009536777597
-0.00994610191
-0.01010418291
-0.009760438511
-0.03706605832
-0.03120545978
-0.02953598102
-0.02693843011
-0.02665863211
-0.02588958949
-0.02610532835
-0.02637108692
-0.026620398
-0.02703920975
-0.02701603139
-0.02635641733
-0.06240519125
-0.05273142158
-0.0498235658
-0.04534641992
-0.04460750038
-0.04300959824
-0.04300688251
-0.04306675428
-0.04311514941
-0.04354891167
-0.04329340813
-0.04232327782
-0.08710286722
-0.07367128617
-0.06953023662
-0.063183533
-0.06198261753
-0.05952874293
-0.05930937101
-0.05911108378
-0.05896649418
-0.05936696085
-0.05887864834
-0.05765029521
-0.1105380485
-0.09357091775
-0.08825848602
-0.08014361403
-0.07848138018
-0.07521550949
-0.07475358242
-0.07431438529
-0.07395109682
-0.0743313407
-0.07362727421
-0.07211865052
-0.1326576817
-0.1123294644
-0.1058917641
-0.0960833952
-0.09396864042
-0.08990248083
-0.08919446137
-0.08848303828
-0.08788499007
-0.08819476884
-0.0872142848
-0.08547869379
-0.1530542641
-0.1296414754
-0.1221649795
-0.1107936088
-0.1082514854
-0.1034405906
-0.1024930277
-0.1015279573
-0.1007104175
-0.1009685192
-0.0997624535
-0.09780997235
-0.1715088768
-0.1453042652
-0.1368780993
-0.1240870665
-0.121143047
-0.1156503675
-0.1144709057
-0.1132726202
-0.1122561519
-0.1124826252
-0.1111151808
-0.108960321
-0.1878828154
-0.1591981099
-0.1499276883
-0.1358657593
-0.1325659313
-0.1264469279
-0.1250616958
-0.1236248893
-0.1224181968
-0.1225768393
-0.1210054934
-0.1186966625
-0.2017810417
-0.1710143044
-0.1610276873
-0.1459006022
-0.14228421
-0.1356492068
-0.1340674529
-0.1324501014
-0.1310663156
-0.1311920114
-0.1294626406
-0.1270005218
-0.2133405865
-0.1808243105
-0.1702421387
-0.1542109216
-0.1503456798
-0.1432508063
-0.1415280972
-0.1397163561
-0.1382061913
-0.1382603075
-0.1364069008
-0.1338265978
-0.2220250974
-0.188238212
-0.1772169628
-0.1605342782
-0.156465002
-0.1490551245
-0.1471913077
-0.1452685478
-0.1436162127
-0.1436439739
-0.1416493876
-0.1389906761
-0.2282032561
-0.193489434
-0.1821632603
-0.1650003279
-0.160817284
-0.1531554039
-0.1512417778
-0.1492014799
-0.1475119603
-0.1474897778
-0.1454554162
-0.1427436426
-0.2312786072
-0.196163142
-0.1846997304
-0.167335638
-0.1630806595
-0.1553288481
-0.1533523859
-0.1512907055
-0.1495324662
-0.1495220327
-0.1474425957
-0.1447121899
)
;

boundaryField
{
    out
    {
        type            implicitExtrapolation;
    }
    in
    {
        type            implicitExtrapolation;
    }
    frontAndBack
    {
        type            empty;
    }
}


// ************************************************************************* //
