/*--------------------------------*- C++ -*----------------------------------*\
| =========                 |                                                 |
| \\      /  F ield         | foam-extend: Open Source CFD                    |
|  \\    /   O peration     | Version:  3.0                                   |
|   \\  /    A nd           | Web:         http://www.extend-project.de       |
|    \\/     M anipulation  |                                                 |
\*---------------------------------------------------------------------------*/
FoamFile
{
    version     2.0;
    format      ascii;
    class       volSymmTensorField;
    location    "6";
    object      sigma;
}
// * * * * * * * * * * * * * * * * * * * * * * * * * * * * * * * * * * * * * //

dimensions      [0 0 0 0 0 0 0];

internalField   nonuniform List<symmTensor> 
672
(
(-0.1652790013 -0.01103887508 -1.36500435e-19 0.1634569017 -1.401347899e-19 0.001822099589)
(-0.1519585952 -0.01212583775 -5.172228705e-19 0.1473880425 -1.800134892e-20 0.00457055272)
(-0.1350534358 -0.01181202794 -1.130847498e-19 0.1281919156 -6.572459398e-20 0.006861520265)
(-0.1170050716 -0.0109389539 -3.021685913e-20 0.1082448144 2.40238497e-19 0.008760257184)
(-0.1005466929 -0.009939843106 -6.126052238e-19 0.09024969548 2.868177002e-19 0.01029699745)
(-0.08539627193 -0.008984950544 -3.047049604e-19 0.07398639144 -1.238191886e-19 0.01140988049)
(-0.07201062536 -0.008143292062 -4.52901664e-19 0.05994738429 5.91887484e-19 0.01206324107)
(-0.0601610583 -0.007493166356 -3.970918617e-19 0.0480569635 -4.703961344e-19 0.0121040948)
(-0.04980148995 -0.007032507918 -7.770826268e-19 0.03836554287 -3.42077317e-19 0.01143594709)
(-0.04098823814 -0.006823101524 -2.563291875e-19 0.03116759183 9.007050809e-21 0.009820646307)
(-0.03372419263 -0.006942328513 1.010851893e-20 0.02665779627 4.024389205e-19 0.007066396352)
(-0.02786341325 -0.007342722309 -6.65027187e-20 0.0250080313 -6.779591908e-19 0.002855381945)
(-0.1621947611 -0.03131430874 -1.493662916e-19 0.1604265665 3.505681426e-19 0.001768194604)
(-0.1471902317 -0.03472510536 -4.656637062e-19 0.1427556692 -1.308459913e-19 0.00443456256)
(-0.1298022811 -0.03385992742 -1.190017602e-19 0.1231447926 4.103924287e-19 0.006657488528)
(-0.1117718709 -0.03125485229 4.471430204e-19 0.1032734402 -7.121365794e-19 0.00849843074)
(-0.09554711761 -0.02820649704 -6.595960937e-19 0.08555909509 2.516783741e-19 0.009988022511)
(-0.08068087815 -0.02520326242 3.035460436e-19 0.06961526206 -7.035052263e-19 0.01106561609)
(-0.06759279887 -0.02244988169 -7.194776723e-19 0.05589488801 -4.841363437e-19 0.01169791086)
(-0.055986656 -0.02014211722 -1.483377587e-18 0.0442506076 -1.352494407e-18 0.0117360484)
(-0.04583555472 -0.01827829674 -4.069878858e-19 0.03474728852 3.547011322e-19 0.0110882662)
(-0.03715007446 -0.01696566674 1.391888269e-19 0.02762689431 -1.584843736e-19 0.009523180149)
(-0.02992174476 -0.01645172106 -8.492537659e-19 0.02306543916 -7.245980751e-20 0.006856305607)
(-0.02407032595 -0.01645904164 -4.025308676e-20 0.02129467004 -2.862974729e-19 0.002775655907)
(-0.1562717319 -0.05076648658 -2.628540601e-19 0.1545846575 3.094315912e-21 0.001687074391)
(-0.1381042107 -0.0555513291 -5.680976446e-19 0.1338736439 2.095266063e-19 0.004230566818)
(-0.1198341038 -0.05380931453 -6.940941787e-19 0.1134852588 8.034619347e-19 0.006348844987)
(-0.1018829262 -0.04941522514 -6.832297613e-20 0.09378221456 -3.132440038e-19 0.008100711592)
(-0.08614477002 -0.04438006291 -5.925387837e-19 0.07662958168 6.678432172e-19 0.009515188334)
(-0.07186865109 -0.03942499095 -8.80650862e-19 0.06133419882 -6.555805374e-19 0.01053445227)
(-0.05939296979 -0.03486778973 -1.181835349e-18 0.04826514168 1.878162016e-19 0.01112782811)
(-0.04830461748 -0.03098412128 -3.128390579e-19 0.03715115362 -1.760910015e-19 0.01115346385)
(-0.03858578821 -0.02777850988 1.015996218e-19 0.02805898924 2.960009803e-19 0.01052679897)
(-0.03020681721 -0.02538170662 -5.309224986e-19 0.02117826739 -9.986380614e-19 0.009028549818)
(-0.02307002081 -0.02418806083 -3.596719873e-19 0.01658155864 -2.225785604e-19 0.006488462169)
(-0.01720824506 -0.0237282637 -4.061318798e-20 0.01459072211 -5.995645592e-19 0.002617522943)
(-0.1477759794 -0.06889243834 5.624690332e-19 0.1461945798 -9.986742336e-19 0.001581399585)
(-0.1253806409 -0.07358363599 1.376880675e-19 0.1214166342 2.65623417e-19 0.003964006687)
(-0.1059798825 -0.07046881612 -2.251974441e-19 0.1000343098 1.258355656e-20 0.005945572644)
(-0.08820239928 -0.06419533624 1.651020967e-20 0.08062128183 5.199479908e-19 0.007581117447)
(-0.07318325831 -0.05727395412 -3.036304845e-19 0.06428500885 -5.071262298e-19 0.00889824946)
(-0.05976428408 -0.05052304326 -3.20540801e-19 0.04992150513 9.083793907e-20 0.009842778951)
(-0.04817255288 -0.04434202074 -7.960095049e-19 0.03778434965 7.056609781e-19 0.01038820324)
(-0.03784524608 -0.03903577557 -2.209980912e-18 0.02744337616 2.86695376e-19 0.01040186993)
(-0.0287653581 -0.03461323785 -6.835640517e-19 0.01895630857 -5.439051401e-19 0.009809049531)
(-0.02090333208 -0.03121963208 -1.349835519e-18 0.01249762904 1.461819493e-18 0.008405703033)
(-0.01391407278 -0.02931194053 -7.910290385e-19 0.007875690126 -2.029973581e-19 0.006038382655)
(-0.008309322053 -0.02843223484 4.845101516e-20 0.005871905526 5.080100954e-19 0.002437416527)
(-0.1370570098 -0.08533224412 1.634752818e-19 0.135605249 4.759354283e-19 0.001451760815)
(-0.1099792377 -0.08811650014 6.903945336e-19 0.1063415069 1.638323999e-19 0.003637730764)
(-0.08941911036 -0.08302278573 -4.93908183e-19 0.08396729515 6.207183689e-19 0.005451815211)
(-0.07196533309 -0.07477770072 -8.873989075e-20 0.06502108461 -1.329247884e-19 0.006944248488)
(-0.05787997789 -0.06611116256 -8.600805544e-19 0.04973936791 -7.444030308e-20 0.00814060998)
(-0.045545935 -0.05777388262 2.163751004e-20 0.03655470739 4.048442046e-19 0.008991227613)
(-0.03506021408 -0.05020148402 2.043911124e-19 0.02558599621 3.19002672e-19 0.009474217872)
(-0.0256917858 -0.04366879093 -1.576857052e-18 0.01622330899 7.71718938e-19 0.009468476807)
(-0.01741991234 -0.03816580841 5.190933279e-19 0.00850888738 7.82819612e-19 0.00891102496)
(-0.01018823226 -0.03388467339 8.451041773e-19 0.002570776262 1.399333928e-19 0.007617455995)
(-0.003487098843 -0.03119885188 -2.109369763e-18 -0.001969635426 6.19120759e-19 0.005456734269)
(0.001963058664 -0.02973834403 -9.992092093e-20 -0.004155473018 2.415711083e-19 0.002192414354)
(-0.1245715559 -0.09978195512 -6.499305873e-19 0.1232696383 8.223597673e-19 0.001301917613)
(-0.09301465455 -0.09872656029 3.122774504e-19 0.08975471297 3.997965679e-19 0.003259941576)
(-0.07150318916 -0.09101540403 -2.734839409e-19 0.06662283294 6.950701378e-19 0.004880356225)
(-0.05458353264 -0.08070612013 -6.633195694e-19 0.04837592173 7.138026039e-19 0.006207610907)
(-0.0416189989 -0.07045076382 1.898985381e-19 0.03435359195 -4.248612823e-19 0.007265406953)
(-0.03054213706 -0.06075711199 -7.936718461e-19 0.02253295962 6.039991821e-19 0.008009177436)
(-0.02132135666 -0.05205200938 1.166300435e-18 0.01289863094 -1.325859086e-19 0.008422725725)
(-0.01305367607 -0.04452907224 -1.227701011e-18 0.004655421539 -9.804195482e-20 0.008398254536)
(-0.005727624989 -0.0381265194 -2.069694859e-18 -0.002158702783 -5.383879666e-19 0.007886327772)
(0.0007245394403 -0.03315779452 5.156275582e-19 -0.007449274889 7.819200962e-19 0.006724735449)
(0.007118392608 -0.02957986825 1.548873131e-18 -0.01192506155 -2.636349341e-20 0.004806668946)
(0.01211657039 -0.02763963513 -5.43931788e-19 -0.01404386564 -1.436837659e-19 0.001927295251)
(-0.1107371453 -0.112117204 2.391655818e-19 0.1096033565 -2.649050434e-19 0.001133788808)
(-0.07561968574 -0.1053994991 -3.200944031e-20 0.07278315745 5.483679448e-19 0.002836528284)
(-0.0536151915 -0.09449196699 1.202582366e-18 0.04937500692 -3.85134569e-19 0.004240184581)
(-0.03748984518 -0.08206548339 -9.940925906e-19 0.03210720667 -1.77850382e-19 0.005382638506)
(-0.02579387275 -0.07040501578 -4.210870628e-19 0.01950856916 -1.225743116e-18 0.00628530359)
(-0.01607963305 -0.05960159828 -3.923626836e-19 0.009170282686 6.339672679e-19 0.006909350362)
(-0.008209782747 -0.05003442697 6.296816904e-19 0.0009652807093 -8.937692759e-19 0.007244502038)
(-0.001112908687 -0.04173790138 3.662841805e-19 -0.00608507294 3.716738965e-19 0.007197981627)
(0.005121719295 -0.03463280052 3.59408956e-19 -0.01185670914 7.288210479e-19 0.006734989848)
(0.01087022306 -0.02908457281 -6.038544148e-19 -0.01658872366 3.353195366e-19 0.005718500593)
(0.01661163338 -0.02474806648 -9.218150049e-19 -0.02068073112 -1.38899375e-18 0.004069097737)
(0.02151703046 -0.02240996046 -1.04420328e-19 -0.02313816517 1.216939189e-18 0.001621134702)
(-0.09605003455 -0.1222995824 3.919656459e-19 0.09509897136 4.559303262e-20 0.000951063196)
(-0.05888678558 -0.1084428541 -1.339637931e-19 0.05651044838 4.711418527e-19 0.002376337202)
(-0.03706415048 -0.09389797427 -7.604804598e-20 0.03351919975 1.645258075e-19 0.003544950728)
(-0.0220505236 -0.07935241546 6.758590924e-19 0.0175629335 -3.95564568e-19 0.004487590104)
(-0.01174658591 -0.06647834201 -1.795317267e-18 0.006523303287 1.082104989e-18 0.005223282627)
(-0.00344996494 -0.05480625088 -6.165121284e-19 -0.002269412377 -1.437139416e-19 0.005719377317)
(0.003062287766 -0.04464088995 -1.408365828e-18 -0.009034170378 9.767110847e-19 0.005971882612)
(0.008970929058 -0.03577780972 2.924348147e-19 -0.01487513461 4.288272467e-19 0.005904205555)
(0.01412821176 -0.02820112148 -8.463696337e-19 -0.01962512639 -7.44833212e-20 0.005496914627)
(0.01902612693 -0.02211191539 1.120942326e-19 -0.02366595549 9.682649638e-19 0.004639828555)
(0.02408663685 -0.01729555604 7.909605434e-19 -0.02736860375 1.204145176e-18 0.003281966899)
(0.02840020364 -0.01446344789 -6.65036691e-19 -0.02969756561 3.397679635e-19 0.001297361969)
(-0.08085820341 -0.1304142332 1.499304929e-19 0.0801011838 3.39106699e-19 0.0007570196096)
(-0.04367262586 -0.1084773739 5.493175024e-19 0.04178477456 4.806411421e-19 0.001887851297)
(-0.02287592487 -0.09006431324 4.329203723e-19 0.02006822311 -5.308156011e-19 0.002807701759)
(-0.00931498795 -0.07346805096 -5.414970741e-20 0.005775350405 9.349072949e-20 0.003539637545)
(-0.0004858113706 -0.05957339927 4.460050003e-19 -0.003614295049 2.039204121e-19 0.00410010642)
(0.006393387947 -0.04725579184 -1.19320819e-18 -0.01085638614 3.796073611e-19 0.00446299819)
(0.01160069007 -0.03672429288 -2.087651787e-19 -0.01623125753 6.074554352e-19 0.00463056746)
(0.01634416317 -0.02750384655 -5.834784436e-19 -0.02088748529 1.881468098e-19 0.004543322121)
(0.02043876807 -0.01963939062 6.719337813e-19 -0.0246359571 1.761534798e-18 0.00419718903)
(0.02446638092 -0.01319281537 -1.265007028e-19 -0.02797650191 6.198224083e-19 0.003510120988)
(0.0286606519 -0.007873099412 7.207034485e-19 -0.03112033601 -9.14510584e-19 0.002459684105)
(0.03240934612 -0.004741805824 6.450914707e-20 -0.03336996115 1.286605759e-19 0.0009606150307)
(-0.06553473816 -0.1366451208 -2.023845051e-19 0.06497992422 3.546377076e-19 0.0005548139375)
(-0.03060556508 -0.1063595591 -5.987130378e-20 0.02922611519 -2.251311291e-19 0.001379449891)
(-0.01176760167 -0.0841086114 4.26880207e-20 0.009726358669 -1.161392785e-19 0.002041243005)
(-1.623582271e-05 -0.0656194036 -5.31340877e-19 -0.002539198843 9.27785953e-19 0.002555434665)
(0.007276945292 -0.05090201481 8.832277442e-19 -0.01021248562 2.765575454e-19 0.002935540332)
(0.01277650515 -0.03813943158 -1.334965291e-19 -0.01593874298 7.773643449e-19 0.003162237832)
(0.01677621035 -0.02743377759 -1.738455454e-20 -0.02001987729 -4.529166833e-19 0.003243666938)
(0.02043000522 -0.01802337781 3.250977693e-20 -0.02356792458 1.128740868e-18 0.003137919363)
(0.02352724478 -0.01001055019 9.190924459e-19 -0.02638316101 3.975750038e-19 0.002855916229)
(0.02666883917 -0.003309318946 1.217722326e-18 -0.02901321119 -1.055271566e-18 0.002344372022)
(0.02995182653 0.002410157979 -4.35033202e-19 -0.03156145498 -1.184048851e-19 0.001609628451)
(0.03295572889 0.005940634303 5.168248703e-19 -0.03356552782 -1.954603561e-19 0.0006097989237)
(-0.05026879655 -0.1411906858 -4.168477763e-19 0.04992010889 2.85637856e-19 0.0003486876626)
(-0.01995104476 -0.1030305013 -7.332832927e-20 0.01908987102 1.348415122e-19 0.0008611737397)
(-0.0040159447 -0.07725285995 -5.99086912e-19 0.002754853887 5.310680678e-19 0.001261090813)
(0.005583806962 -0.05711110637 5.175167307e-20 -0.007139581045 -9.056513112e-21 0.001555774082)
(0.01130022236 -0.04175590378 -3.518626123e-19 -0.01305609642 3.538551057e-19 0.001755874052)
(0.01547433056 -0.02870888435 6.748945124e-19 -0.01732323645 1.780347285e-19 0.001848905887)
(0.01837546354 -0.01796863412 7.6993933e-20 -0.0202240742 1.121630932e-19 0.001848610657)
(0.02102285824 -0.008498335768 1.694281806e-19 -0.02275358864 3.168714959e-19 0.001730730392)
(0.02318169088 -0.0004618316349 4.531172103e-19 -0.02470177988 -2.407220339e-19 0.001520089005)
(0.02547880561 0.006395619035 7.164225852e-20 -0.02667053556 -2.814539289e-19 0.001191729948)
(0.02774304389 0.01237589991 -8.404295011e-20 -0.02852094398 1.270895832e-19 0.0007779000861)
(0.03000220135 0.0162121367 -1.193855281e-19 -0.03027651356 -8.220437582e-20 0.0002743122063)
(-0.0352143631 -0.1443203961 4.489564749e-20 0.03507339633 -8.628263507e-20 0.0001409667718)
(-0.01164612381 -0.09947582237 -5.871651173e-20 0.01130605948 -3.261517776e-19 0.0003400643324)
(0.0005322532389 -0.07075855351 -6.61532507e-20 -0.001010075793 -5.824931052e-20 0.0004778225545)
(0.007677694939 -0.04929293828 -1.414749722e-20 -0.008231528479 1.283399875e-19 0.0005538335404)
(0.01179294283 -0.03347949778 -1.962612281e-19 -0.0123682854 5.936583416e-19 0.0005753425673)
(0.0147066995 -0.02026813596 2.223913224e-19 -0.01524342954 6.187110227e-20 0.0005367300387)
(0.01662868008 -0.00957420261 -2.516514348e-19 -0.0170850121 2.899453838e-19 0.0004563320229)
(0.01837184009 -0.0001128948215 5.623257166e-19 -0.01869919628 6.724015834e-19 0.0003273561925)
(0.01968095492 0.007875086061 2.804500353e-19 -0.01986808557 -2.425466898e-19 0.000187130657)
(0.02118925781 0.01482925175 -2.675753611e-19 -0.02122797043 -5.00450553e-19 3.871262165e-05)
(0.02239743657 0.02099034716 -5.382215988e-19 -0.02233708602 -2.526294921e-20 -6.035054703e-05)
(0.02385449679 0.02503577326 1.673251716e-19 -0.02378275834 -7.392195107e-21 -7.173844709e-05)
(-0.02038828226 -0.1462229558 2.399680923e-19 0.02045195298 -7.308002824e-20 -6.367072711e-05)
(-0.005309375953 -0.09651771118 -1.463673585e-20 0.005482838013 -8.565882943e-20 -0.0001734620598)
(0.002421805693 -0.06568470664 -3.509432485e-19 -0.002129370906 1.223880088e-19 -0.0002924347871)
(0.006872383679 -0.04328990947 -2.400569651e-19 -0.006443856881 1.975582476e-19 -0.0004285267981)
(0.009370914959 -0.02718140264 -1.690504465e-19 -0.008793338771 3.349212122e-19 -0.0005775761879)
(0.01107929392 -0.01388786433 1.507243953e-19 -0.01034073185 1.7815073e-19 -0.0007385620707)
(0.0121235187 -0.0032735489 -2.645636939e-19 -0.01123454355 3.802090658e-19 -0.0008889751545)
(0.01303955919 0.006148832285 3.941274481e-19 -0.0120207529 1.161471413e-19 -0.001018806296)
(0.01358964172 0.01401676875 -4.932706007e-20 -0.01250957156 -1.57662155e-19 -0.001080070168)
(0.01434212255 0.02109147591 -1.183692771e-19 -0.01329836105 -2.305362224e-19 -0.001043761504)
(0.01457999638 0.02718253114 -6.410736412e-19 -0.01374770977 -1.296333517e-20 -0.0008322866083)
(0.01533123905 0.03150984555 8.23119951e-20 -0.01495419381 -5.925941357e-20 -0.0003770452411)
(-0.005741033292 -0.1470899136 1.060793397e-19 0.006004861485 -4.244267295e-20 -0.0002638281927)
(-0.0002719991605 -0.09480701171 8.277314078e-21 0.0009462193307 -6.632973446e-20 -0.0006742201701)
(0.002565968309 -0.06286035141 -2.051500614e-19 -0.001523823037 5.086831757e-20 -0.001042145272)
(0.004167910731 -0.03998891801 7.321646307e-21 -0.00278528959 1.314063953e-19 -0.001382621141)
(0.005045332841 -0.02374547901 -5.580704707e-20 -0.003350130402 2.926729251e-19 -0.001695202439)
(0.005587300287 -0.01042757865 3.173288217e-20 -0.003614885651 2.121328108e-19 -0.001972414636)
(0.005829041783 0.0001189996846 1.321651821e-20 -0.003639988283 2.835322143e-19 -0.002189053501)
(0.005967229362 0.009505510377 -5.166183281e-21 -0.003648147966 2.052385877e-19 -0.002319081396)
(0.005851525542 0.01727100695 -2.03852342e-19 -0.003545459989 -4.438704401e-20 -0.002306065552)
(0.005805124312 0.02440239445 -2.845202602e-19 -0.0037090374 -1.645920632e-19 -0.002096086912)
(0.005246568605 0.030345969 -3.777794646e-19 -0.003653835924 -5.957655705e-21 -0.001592732681)
(0.005127636026 0.03471242978 -1.022907758e-19 -0.004437742637 -4.767237554e-20 -0.0006898933893)
(0.00882156099 -0.1469998913 1.209997319e-19 -0.008366574033 5.849720683e-21 -0.0004549869576)
(0.004264566159 -0.09467267107 3.742724214e-20 -0.003111936882 3.221286378e-20 -0.001152629277)
(0.002038595762 -0.06270745419 -1.997464145e-19 -0.0002821034992 6.07184642e-20 -0.001756492263)
(0.0007281675521 -0.0398351834 7.92357334e-20 0.001560066622 9.643243347e-20 -0.002288234174)
(-2.470378115e-05 -0.02360459579 1.64237729e-20 0.002775327836 2.648283182e-19 -0.002750624055)
(-0.0006400166685 -0.01029945357 5.874253791e-21 0.0037701833 2.033224211e-19 -0.003130166632)
(-0.001171438138 0.0002184621907 1.183818126e-19 0.004570879747 2.782652754e-19 -0.003399441609)
(-0.001781028958 0.009588265819 -1.668350688e-19 0.005298618765 1.822148117e-19 -0.003517589807)
(-0.002504199983 0.01727885764 -2.942564935e-19 0.005926144366 1.019182156e-21 -0.003421944382)
(-0.003302770498 0.02443836197 -3.743984343e-19 0.006339659334 -9.002501733e-20 -0.003036888836)
(-0.004610704034 0.03015458466 -2.298598866e-19 0.006864442334 3.753709139e-20 -0.0022537383)
(-0.005421286551 0.03450691178 -2.533950068e-19 0.006366506901 -7.387756525e-20 -0.0009452203503)
(0.02343347297 -0.1459551257 1.739359304e-19 -0.02279689504 2.932506546e-20 -0.0006365779319)
(0.009215556888 -0.09612462799 -1.203361507e-21 -0.007610089878 5.188591373e-20 -0.00160546701)
(0.002064343524 -0.06524055498 -6.246061629e-20 0.0003667630661 5.88112508e-20 -0.00243110659)
(-0.002111522932 -0.04284589193 -9.815696843e-20 0.00525267657 -3.206244093e-20 -0.003141153638)
(-0.004488780282 -0.02677760637 1.16642695e-19 0.008230964014 2.912252017e-19 -0.003742183732)
(-0.00627005159 -0.01352596087 -1.367443169e-19 0.01048508404 5.977209718e-20 -0.004215032452)
(-0.007583573137 -0.003000601007 5.984115065e-20 0.01211527348 2.974460927e-19 -0.00453170034)
(-0.008950807886 0.006366572587 -5.197994837e-19 0.01358850165 3.500609333e-19 -0.004637693765)
(-0.0102662363 0.01401328506 -2.706813388e-19 0.01473289276 -3.228785586e-21 -0.004466656458)
(-0.01185667131 0.02114924947 -3.088351817e-19 0.01577950963 -5.64185434e-20 -0.003922838325)
(-0.01377279522 0.0266112679 -1.884618701e-19 0.01665969059 2.227459929e-19 -0.002886895368)
(-0.01550478745 0.03082126872 -3.511840702e-19 0.01670758129 -1.384621442e-19 -0.001202793843)
(0.03819227759 -0.1438842041 1.349612875e-19 -0.03738747224 8.491473979e-20 -0.0008048053515)
(0.01538686676 -0.09885160813 1.1830847e-19 -0.01336183815 1.091388124e-19 -0.002025028608)
(0.00372624227 -0.07006077938 2.347555124e-19 -0.000672098564 2.321023612e-19 -0.003054143706)
(-0.003179874882 -0.04859855477 -7.028461269e-20 0.007105100747 2.403153644e-20 -0.003925225866)
(-0.007187010893 -0.03284849682 3.971165667e-19 0.01183510335 2.699397636e-19 -0.004648092452)
(-0.01018376381 -0.01970555931 -1.810591684e-19 0.01538224662 2.023057355e-19 -0.005198482807)
(-0.01234878226 -0.009152437563 2.133013172e-19 0.01789710018 3.022923524e-19 -0.005548317922)
(-0.0145255548 0.0002155152478 -4.045349855e-19 0.02015655682 4.816824282e-20 -0.005631002024)
(-0.01645039086 0.007858072304 -1.065045139e-19 0.02182912237 -5.783382219e-20 -0.00537873152)
(-0.0188112233 0.01491745499 -6.403416034e-19 0.02349043646 1.168941782e-19 -0.004679213161)
(-0.02127433806 0.02014568816 -2.470490497e-19 0.02468330258 1.817320066e-19 -0.003408964516)
(-0.02359687642 0.02419484879 -4.991569652e-19 0.02499612528 -1.661767251e-19 -0.001399248858)
(0.05315237925 -0.1405973012 -4.613129051e-19 -0.05219272281 -2.648862326e-19 -0.000959656434)
(0.02346394132 -0.1022153304 1.231973656e-19 -0.02105418079 -1.363772129e-19 -0.00240976053)
(0.007962715696 -0.07635588867 3.968788351e-20 -0.004338849642 5.218634746e-20 -0.003623866054)
(-0.001445709155 -0.0562219727 2.398607186e-19 0.006085443632 -1.400554025e-20 -0.004639734476)
(-0.007073253638 -0.04094197672 -1.312051948e-19 0.0125440841 4.983464117e-20 -0.005470830465)
(-0.01134548598 -0.02797887201 1.379905327e-20 0.01743372469 -1.3576048e-19 -0.006088238706)
(-0.01446292858 -0.01740164848 6.101707836e-19 0.02092815289 1.055590415e-19 -0.00646522431)
(-0.01753196848 -0.008061165402 -1.023112989e-19 0.02405642245 7.700137308e-19 -0.006524453971)
(-0.02012917296 -0.0004059357119 -4.701518122e-19 0.0263281247 1.933115257e-19 -0.006198951738)
(-0.02333018274 0.006479982217 3.768195888e-19 0.0286920058 3.969320158e-19 -0.005361823062)
(-0.0261644318 0.01153487587 -2.411090348e-19 0.03005164982 3.374951976e-19 -0.003887218019)
(-0.02921687464 0.01532358425 -2.042567261e-19 0.03080574254 -1.345767121e-19 -0.001588867901)
(0.06830461449 -0.1359086128 9.822461563e-20 -0.06720612486 -1.652575584e-19 -0.001098489635)
(0.03384858139 -0.1054029483 6.66024185e-20 -0.03109405474 -4.46352433e-19 -0.002754526645)
(0.01534766918 -0.08308065723 4.518042558e-19 -0.01121516315 1.651061894e-19 -0.004132506031)
(0.003731791944 -0.06460803979 -7.002503962e-20 0.001542444108 2.099350011e-21 -0.005274236052)
(-0.003497721338 -0.04997002745 8.841389765e-20 0.009694034856 3.298282504e-19 -0.006196313518)
(-0.009111720918 -0.03729700029 1.175623854e-19 0.01597752462 -4.290265779e-19 -0.006865803698)
(-0.01330670336 -0.02674891015 6.125211712e-19 0.0205644962 -3.250293557e-19 -0.007257792833)
(-0.01734992308 -0.01748359832 4.033118284e-19 0.02463577848 5.11098527e-19 -0.007285855404)
(-0.02074857676 -0.009809243158 1.222080948e-19 0.02763436758 -4.470783e-19 -0.006885790827)
(-0.02468694379 -0.003195054005 6.184655054e-20 0.03060633666 -5.775726229e-19 -0.005919392869)
(-0.02803666263 0.001715344399 6.137656721e-19 0.03230029732 1.199274286e-18 -0.004263634687)
(-0.03140894381 0.005001398651 -2.654747964e-19 0.03313530588 -3.486271618e-20 -0.001726362068)
(0.08349945358 -0.1295461781 3.59032509e-19 -0.08227797001 2.986765752e-19 -0.001221483566)
(0.04662395799 -0.1074292234 1.602619815e-19 -0.04356509642 -2.944034631e-19 -0.003058861568)
(0.02606364907 -0.08897302863 6.701462221e-19 -0.02148367677 1.213501479e-19 -0.004579972307)
(0.01257650471 -0.07240430707 5.413814332e-19 -0.006746558297 3.015452799e-19 -0.005829946414)
(0.00377703608 -0.05858303878 -1.937608203e-19 0.003051588194 -4.244153745e-19 -0.006828624274)
(-0.00323943269 -0.04634531709 1.597510117e-19 0.01077896465 8.195285168e-20 -0.007539531959)
(-0.008631206916 -0.03594147341 1.074243892e-19 0.01657173495 -1.037472147e-18 -0.007940528032)
(-0.01373202428 -0.02684302489 2.352925175e-19 0.02166949143 4.252386915e-19 -0.007937467145)
(-0.01800769946 -0.01925170115 -5.053327286e-19 0.02547826934 1.142119558e-18 -0.007470569874)
(-0.02272789784 -0.01289635176 2.694556413e-19 0.02912030675 -4.730878861e-19 -0.006392408907)
(-0.02659170637 -0.008304224821 3.275664307e-19 0.03117622565 -9.095470819e-19 -0.004584519285)
(-0.03043786315 -0.005367915965 -3.676825152e-19 0.03228540637 2.710279549e-19 -0.001847543219)
(0.09855398949 -0.1213094533 -3.755840576e-19 -0.09722661213 -4.416555407e-19 -0.001327377359)
(0.06154680065 -0.1073468952 3.345533721e-19 -0.05822636062 -9.981688847e-20 -0.003320440036)
(0.03986717897 -0.09280201246 -2.745086493e-19 -0.03490423324 -1.159656895e-18 -0.004962945733)
(0.02486795098 -0.07829525108 9.380888788e-20 -0.01856524083 6.570746391e-19 -0.006302710153)
(0.01455842387 -0.06547841039 -1.022701131e-18 -0.007196006386 -1.484083807e-19 -0.00736241748)
(0.006102320796 -0.05386156833 2.716983211e-19 0.002000328528 -1.129148705e-19 -0.008102649324)
(-0.000587733838 -0.04377149008 -1.072366638e-18 0.009092111333 -1.063673453e-18 -0.008504377495)
(-0.006831301972 -0.03498588928 5.039357347e-19 0.01529855789 -8.694334593e-19 -0.00846725592)
(-0.01207531042 -0.02758142857 9.021129242e-19 0.02001246813 -7.02139114e-19 -0.007937157714)
(-0.01759560373 -0.02161099946 3.762570211e-19 0.02435565256 6.630061008e-19 -0.006760048826)
(-0.02200623905 -0.01722975651 -1.07674766e-18 0.02683126644 8.247971161e-19 -0.004825027398)
(-0.02619993267 -0.01477430484 8.316737405e-19 0.02813186626 1.309278155e-19 -0.001931933589)
(0.1130953567 -0.1110107534 -9.497547308e-20 -0.1116791798 -7.493110925e-19 -0.001416176847)
(0.07800385159 -0.1042914723 3.459010605e-19 -0.07446466601 2.045766846e-20 -0.003539185583)
(0.05606377274 -0.09343898959 2.33815308e-19 -0.05078194415 1.416559369e-20 -0.005281828589)
(0.03989876688 -0.08106717703 -1.474556857e-19 -0.03320479796 -1.191582948e-18 -0.006693968918)
(0.02816002143 -0.06944772341 1.403597566e-18 -0.02035911738 1.319824907e-18 -0.007800904055)
(0.01826359901 -0.05867358429 -3.205999557e-19 -0.009702833738 9.030596979e-20 -0.008560765272)
(0.010215233 -0.04912032112 6.250117251e-19 -0.00125724377 8.662286884e-19 -0.008957989228)
(0.002794624467 -0.04083898134 4.867805281e-19 0.006092672771 -8.847293959e-19 -0.008887297238)
(-0.003464464921 -0.03376716992 1.012995446e-19 0.01176553299 5.707739479e-19 -0.008301068072)
(-0.009773642769 -0.02828921409 1.02993141e-18 0.01681426374 -2.649853137e-21 -0.007040620969)
(-0.0147161645 -0.02413575101 1.549815943e-18 0.01972030152 -7.090067651e-19 -0.005004137019)
(-0.01920234202 -0.02209510138 2.85775672e-19 0.02119498892 1.038920971e-18 -0.001992646906)
(0.1267762532 -0.0985615111 2.665418093e-19 -0.1252882591 -4.799749518e-19 -0.001487994149)
(0.09514755025 -0.09762713355 4.566341515e-19 -0.09143218024 -8.877074761e-19 -0.003715370007)
(0.07363910401 -0.09003133054 -9.207103614e-19 -0.06810172013 -1.005349167e-18 -0.005537383881)
(0.05662799929 -0.07979372675 -8.106035097e-21 -0.04962264688 -5.528329183e-19 -0.007005352409)
(0.04357451409 -0.06956341519 4.626481334e-19 -0.03542757788 -1.258633893e-18 -0.008146936203)
(0.03228146538 -0.05987458058 5.869545855e-19 -0.02336316818 1.223797836e-18 -0.008918297199)
(0.02286089174 -0.05111839383 4.906439009e-19 -0.01355341959 -3.547362361e-19 -0.009307472142)
(0.01426114747 -0.0435613509 4.224741102e-20 -0.005055672294 2.720954454e-19 -0.009205475175)
(0.006942105785 -0.03700409748 2.378084873e-18 0.001629381916 -9.187279574e-19 -0.008571487701)
(-8.765229481e-05 -0.0321306282 9.422684281e-19 0.007331596764 1.055254063e-18 -0.00724394447)
(-0.005648282374 -0.02825440858 -1.442199389e-18 0.01077886878 -8.719559785e-19 -0.005130586409)
(-0.01031239534 -0.02654478072 3.171875192e-19 0.01234687337 1.376293703e-19 -0.002034478029)
(0.1390960365 -0.08399857435 3.285482316e-19 -0.1375536483 1.245349077e-19 -0.001542388173)
(0.1118897694 -0.08703153904 -7.001747167e-19 -0.1080411038 -1.839786689e-21 -0.003848665592)
(0.09129110058 -0.08210951045 -4.730796365e-19 -0.08556163821 -5.234999922e-19 -0.005729462367)
(0.07370075898 -0.07394993262 1.119481403e-18 -0.0664637179 3.946201122e-19 -0.007237041071)
(0.0594737478 -0.06529190608 1.852605883e-19 -0.05107288777 -2.282808259e-18 -0.008400860032)
(0.04688316362 -0.0569338162 1.376352084e-18 -0.03770755469 1.21010161e-19 -0.009175608934)
(0.03614579909 -0.04925126908 -1.135566859e-18 -0.02659314893 -5.880959848e-19 -0.009552650155)
(0.02643761411 -0.04264712109 1.713709702e-18 -0.01701721034 -3.197284685e-19 -0.009420403766)
(0.01808242792 -0.03681197347 1.345433517e-19 -0.009337595272 -9.365986684e-19 -0.008744832653)
(0.0104367449 -0.03268059331 -1.795325161e-18 -0.003073571462 -1.436883892e-18 -0.007363173438)
(0.004241490299 -0.02905859471 -4.447626542e-19 0.0009523294279 2.336424603e-19 -0.005193819727)
(-0.0005679273332 -0.02775407584 -1.116634512e-19 0.002614874892 -8.952513575e-19 -0.002046947559)
(0.1496343478 -0.06744654422 4.962537058e-19 -0.1480537284 1.01821619e-18 -0.001580619366)
(0.1270956612 -0.07250734217 9.89910163e-20 -0.1231543059 -3.285326215e-20 -0.003941355337)
(0.1076348113 -0.06961186801 6.855418796e-19 -0.1017728603 5.9588756e-19 -0.005861951018)
(0.08968072161 -0.06343542288 -8.195335894e-19 -0.08228563399 -6.754343512e-19 -0.007395087617)
(0.07446264531 -0.05651133153 -1.450435815e-19 -0.06589070981 -5.574856297e-20 -0.008571935507)
(0.06073650989 -0.04971527777 -4.028397564e-20 -0.0513904363 -1.467250064e-18 -0.009346073584)
(0.04881465339 -0.04338180315 -2.278663982e-19 -0.03910247822 -1.057999159e-18 -0.009712175169)
(0.03811583418 -0.03794281104 3.634716664e-19 -0.02855885475 1.043354125e-19 -0.009556979425)
(0.02879124085 -0.0330930812 -1.147776732e-18 -0.01993851161 -4.679213512e-19 -0.008852729237)
(0.0206844698 -0.02969697359 -6.60088053e-19 -0.01324825399 -3.084655926e-19 -0.00743621581)
(0.01386112658 -0.02664060752 8.345834689e-20 -0.008626618669 -9.261504042e-19 -0.005234507915)
(0.009221521623 -0.02550626913 1.259861256e-19 -0.007161923166 5.824542389e-19 -0.002059598458)
(0.1579287064 -0.04921488809 -3.470874173e-19 -0.1563270238 1.593933136e-19 -0.001601682535)
(0.1396430255 -0.0544681359 -1.165229407e-18 -0.1356505899 5.315585285e-20 -0.003992435615)
(0.1213056776 -0.05297837759 -8.557227162e-19 -0.1153722242 -4.611687078e-19 -0.005933453392)
(0.1031408572 -0.04868516441 -5.344190551e-19 -0.09566340018 -6.873456843e-19 -0.007477456996)
(0.08714163502 -0.04363801373 7.835875959e-19 -0.07848515464 5.466403502e-20 -0.008656480383)
(0.07249483589 -0.03861001297 -8.159772194e-19 -0.06307135982 -6.606569097e-19 -0.009423476076)
(0.05959866429 -0.03386741468 -2.540857127e-20 -0.04982308455 -2.479115608e-19 -0.009775579738)
(0.04807572083 -0.02978026735 1.550257362e-18 -0.03847691965 -1.006354404e-18 -0.009598801188)