/*--------------------------------*- C++ -*----------------------------------*\
| =========                 |                                                 |
| \\      /  F ield         | foam-extend: Open Source CFD                    |
|  \\    /   O peration     | Version:  3.0                                   |
|   \\  /    A nd           | Web:         http://www.extend-project.de       |
|    \\/     M anipulation  |                                                 |
\*---------------------------------------------------------------------------*/
FoamFile
{
    version     2.0;
    format      ascii;
    class       volVectorField;
    location    "6";
    object      u;
}
// * * * * * * * * * * * * * * * * * * * * * * * * * * * * * * * * * * * * * //

dimensions      [0 0 0 0 0 0 0];

internalField   nonuniform List<vector> 
672
(
(0.317539743 -0.0824168401 7.479575212e-18)
(0.4387352795 -0.04869242946 -5.084137901e-18)
(0.6879356699 -0.03956941569 3.078979167e-17)
(0.7197649435 -0.0248134684 -2.244079057e-17)
(0.8556975786 -0.01972496639 2.652966515e-17)
(0.8512574909 -0.01312828269 8.736893658e-18)
(0.9429517775 -0.009452692402 4.242479188e-17)
(0.9192932335 -0.006521403322 -1.85901804e-17)
(0.9922079375 -0.003231557173 8.690136605e-18)
(0.9558119195 -0.001272401673 2.358211666e-17)
(1.018381152 9.516286255e-05 -9.104025458e-18)
(0.9780965911 0.005488367545 -2.589024472e-18)
(0.3581523999 -0.2633860361 3.528134498e-17)
(0.4627077801 -0.1602404004 -2.474711301e-17)
(0.7073706224 -0.1302836981 6.521351456e-17)
(0.7317447315 -0.08474954925 -8.607332736e-17)
(0.8649106685 -0.0678042067 -5.673539919e-18)
(0.8569435878 -0.04665031936 -1.582526005e-17)
(0.9465094246 -0.03433239364 -1.174754471e-16)
(0.9211986633 -0.02396577969 3.074470007e-17)
(0.9921806993 -0.0134782945 1.497916646e-17)
(0.9552362449 -0.005725289905 -9.538573624e-18)
(1.016408271 -0.001756234685 -3.50355691e-17)
(0.9748907394 0.01434884828 6.856668382e-17)
(0.4376444249 -0.4303549054 -8.313118904e-17)
(0.5119082771 -0.2621327416 4.882953618e-17)
(0.7482841295 -0.2130301794 -1.061819069e-17)
(0.7593725121 -0.13894082 1.099578578e-16)
(0.8879005721 -0.1110217039 -1.777442726e-17)
(0.8737180339 -0.07644287257 8.208062491e-17)
(0.9598818855 -0.05623810709 6.253581748e-17)
(0.9313488825 -0.03916380423 9.194424259e-17)
(0.99919108 -0.02235212216 -6.473939899e-17)
(0.9597013073 -0.009671637737 3.380029441e-17)
(1.018234754 -0.002690852052 -2.474307425e-17)
(0.97385659 0.02012238668 1.162442518e-17)
(0.5529518588 -0.5763533608 -3.764238924e-17)
(0.5822824833 -0.3528647249 -4.712961131e-17)
(0.8056371823 -0.2868896889 -6.315125904e-17)
(0.7966640424 -0.1881693701 -5.888399951e-18)
(0.9176704978 -0.150724743 -1.377012674e-16)
(0.8938674487 -0.1045481276 5.173279127e-17)
(0.9744646753 -0.07737921304 -1.654392503e-16)
(0.9408487526 -0.05425418344 7.000776905e-17)
(1.004141582 -0.03165043221 -3.802288128e-17)
(0.960333238 -0.01347648208 1.146262066e-16)
(1.018868958 -0.005261617138 -5.594265028e-17)
(0.963054277 0.02859115154 1.390331119e-16)
(0.6973196025 -0.6919928236 2.156408181e-16)
(0.6706565857 -0.422971202 5.789512431e-18)
(0.8786024739 -0.3435430162 8.714818108e-17)
(0.8451024062 -0.2248902342 1.51038211e-17)
(0.9573825294 -0.179622274 8.631080758e-17)
(0.9221027208 -0.1240546686 8.112941581e-17)
(0.996470627 -0.09121733505 -1.563728423e-18)
(0.95694545 -0.06361141255 2.901149239e-17)
(1.015123541 -0.03639454464 6.124862225e-17)
(0.9666717941 -0.01661220079 -1.652194958e-16)
(1.020780591 -0.002817473189 5.115092264e-17)
(0.9631735215 0.02698653293 -2.516559453e-17)
(0.8648311782 -0.7740534483 -1.127990028e-16)
(0.7738020476 -0.474716567 3.999741177e-17)
(0.9630838868 -0.385713037 -1.452557743e-16)
(0.9008385339 -0.2533790948 1.023036093e-16)
(1.002520599 -0.2027265078 -2.030717551e-16)
(0.953610386 -0.1408693374 7.374898901e-17)
(1.020276488 -0.1038320771 -1.353271899e-16)
(0.9734547548 -0.07311663087 -2.214726675e-17)
(1.025904931 -0.04126311659 -2.942247613e-17)
(0.969052809 -0.01898141672 2.246579095e-16)
(1.029069521 -0.002996204239 -2.14143888e-16)
(0.9449034459 0.03373146088 1.580536422e-16)
(1.045396911 -0.8155177192 -2.826726667e-17)
(0.8838763836 -0.4994097366 4.22258121e-17)
(1.053559642 -0.4053502808 -3.076724447e-17)
(0.9603703791 -0.2658289024 -9.838102129e-17)
(1.050758542 -0.2121599292 1.686984148e-16)
(0.9873625029 -0.1471197287 -2.60788106e-17)
(1.045698759 -0.107833095 8.331974533e-17)
(0.9922085771 -0.07670590464 -1.379072487e-17)
(1.036485373 -0.04152074106 2.653917506e-17)
(0.9788623614 -0.02522135937 -1.508389262e-16)
(1.026454234 0.004611621056 1.29702195e-16)
(0.9432257045 0.02508744825 -1.917657892e-17)
(1.232193345 -0.8172010655 3.758104675e-17)
(0.9994865358 -0.5016129374 -3.479269107e-17)
(1.148697759 -0.4069260332 9.78374785e-17)
(1.023648812 -0.2672891799 -3.587219959e-17)
(1.102415811 -0.2132585615 1.488368116e-17)
(1.024119837 -0.1482691381 -2.222935294e-17)
(1.073638622 -0.1085565886 6.547540239e-17)
(1.012726488 -0.07743007977 -2.168309688e-17)
(1.047943613 -0.0419780384 -4.624970487e-18)
(0.9857508513 -0.0240625408 1.4056819e-16)
(1.026178929 4.049331357e-05 -1.123891349e-16)
(0.9333153593 0.03351076672 5.160292979e-17)
(1.413302172 -0.7762639049 2.979774274e-17)
(1.109690385 -0.4761348724 -2.239185666e-17)
(1.239130679 -0.3858694227 -1.598634488e-16)
(1.082896592 -0.2532795288 1.035976125e-16)
(1.15016833 -0.201767156 -1.540496716e-16)
(1.057253777 -0.1402929218 9.889779861e-17)
(1.098198723 -0.1025624234 -9.615539225e-17)
(1.030276057 -0.0735894367 5.591642452e-17)
(1.057529682 -0.03987410579 5.3280701e-18)
(0.9930449311 -0.02501183265 -1.180372021e-16)
(1.023579367 0.002702110781 7.65438471e-17)
(0.932504456 0.02115356695 -8.068041072e-17)
(1.582489507 -0.697048196 3.570306804e-17)
(1.214790216 -0.4281232248 -7.66805124e-18)
(1.325972848 -0.3461124485 1.815692745e-16)
(1.140879334 -0.227043972 -3.58414679e-17)
(1.197709145 -0.1801642943 1.00689088e-16)
(1.09130079 -0.1251011521 -1.149475365e-16)
(1.124273945 -0.09061291099 6.823299242e-17)
(1.049549705 -0.06494128337 -1.500302351e-17)
(1.069042257 -0.03390734652 -2.34953635e-17)
(1.000417809 -0.02158329388 -1.652854168e-17)
(1.02434033 0.004415514896 3.210929121e-17)
(0.9257254611 0.01972729311 -1.334502783e-17)
(1.728432207 -0.58170518 4.126685889e-18)
(1.303595392 -0.3573921836 -1.295704977e-17)
(1.398956837 -0.2883592737 -6.598297425e-17)
(1.188689303 -0.1891353303 -5.279161619e-17)
(1.236307373 -0.1496529423 1.04562301e-17)
(1.118281047 -0.1039698239 -1.462566242e-17)
(1.144393797 -0.07483089041 -1.233312485e-17)
(1.064335185 -0.05401431245 -7.619891502e-18)
(1.077270203 -0.02732089354 7.215608529e-18)
(1.007634516 -0.01943372424 1.302972705e-17)
(1.02165981 0.006688634536 -5.356174286e-18)
(0.9288573153 0.01036979925 -7.61173783e-18)
(1.846488074 -0.4371873225 -5.246309357e-17)
(1.377226922 -0.2686129952 -4.135871641e-18)
(1.460155081 -0.2149774065 4.172346937e-17)
(1.229744314 -0.1403364842 2.478034298e-17)
(1.270189496 -0.1096038961 2.865739195e-17)
(1.142875739 -0.07557093877 -3.331424077e-17)
(1.163305027 -0.05280088507 6.086106698e-17)
(1.0788144 -0.03813429905 -3.814728623e-17)
(1.085575899 -0.01653347274 -2.148911126e-18)
(1.014199892 -0.01407221797 -1.786255499e-17)
(1.022329788 0.01127777445 3.547082249e-17)
(0.9239506641 0.0031390509 -3.269608862e-17)
(1.928511338 -0.2700679456 9.908942508e-18)
(1.427260515 -0.1663465476 -3.9347433e-18)
(1.501555011 -0.1317021772 -5.324948976e-18)
(1.25692278 -0.08585243032 -1.40423552e-17)
(1.292227704 -0.06603926549 -3.156343392e-18)
(1.158531741 -0.04546668782 -6.029475709e-18)
(1.174870384 -0.03067027744 -1.993438414e-18)
(1.088266304 -0.02262066245 -1.322641597e-17)
(1.08953929 -0.007827165318 9.424059445e-18)
(1.022756423 -0.009935238094 -8.481418984e-18)
(1.01577815 0.01214552453 9.91029991e-18)
(0.9304450364 -0.005107063296 -9.211285195e-18)
(1.971981801 -0.08891389706 -9.779331774e-18)
(1.454617507 -0.05446707697 -1.317520108e-18)
(1.52476049 -0.03920677565 4.315411523e-18)
(1.272693713 -0.02407763001 3.389496738e-18)
(1.305541594 -0.01532874358 6.584704707e-18)
(1.168646137 -0.009095254456 -4.912048868e-18)
(1.182774831 -0.002670440205 9.184936096e-18)
(1.095074496 -0.001646426238 -7.377779977e-18)
(1.092798721 0.004665343054 4.661919921e-20)
(1.027669649 -0.0004284482401 -4.778162143e-18)
(1.013964493 0.01088866895 6.781604362e-18)
(0.9311099601 -0.006609481059 -8.356400748e-18)
(1.973919147 0.09713923533 4.272536867e-18)
(1.456089524 0.05947980622 -4.64457583e-19)
(1.526613551 0.05345551037 -2.525809672e-18)
(1.27411311 0.03646702441 -2.627451918e-18)
(1.307039044 0.03280687189 -4.477866147e-20)
(1.170144295 0.02407141739 -6.357688778e-18)
(1.18399547 0.02113161354 -1.131950927e-18)
(1.096865466 0.01519419943 -6.859905783e-18)
(1.09296921 0.0126254522 9.312944518e-19)
(1.031795717 0.005281743661 -5.976880935e-18)
(1.009614774 0.00822961339 5.516015048e-18)
(0.938273222 -0.01411401898 -8.371317803e-18)
(1.934146652 0.2789140875 -4.9218131e-18)
(1.43154195 0.1720134026 7.783525002e-18)
(1.507008488 0.1464915487 -6.946336105e-18)
(1.261184031 0.09874312157 1.640443234e-17)
(1.296811859 0.08394086908 1.025993768e-17)
(1.163249547 0.06109281133 -4.14719339e-18)
(1.17885835 0.0497051676 3.043520631e-17)
(1.093900857 0.03730260373 -1.466274567e-17)
(1.090489514 0.025908708 -2.114945523e-19)
(1.033572138 0.01711440107 -4.370442113e-18)
(1.006345398 0.00714584896 1.021337465e-17)
(0.9449353622 -0.01112547181 -2.397714112e-17)
(1.855607515 0.4472645331 2.260867584e-17)
(1.384100949 0.2755114007 -1.359093964e-17)
(1.46897225 0.2306617675 1.941534293e-18)
(1.236641393 0.1538852239 -3.546973079e-17)
(1.277701572 0.1277462336 8.03033998e-18)
(1.150620211 0.09147975402 -3.139303109e-17)
(1.170031428 0.0713339 -1.333790687e-17)
(1.088461121 0.05300862898 -2.961478119e-17)
(1.087538129 0.0326379991 1.917084357e-17)
(1.033430111 0.02356425239 -1.013623338e-17)
(1.006842488 0.003147343369 6.273736296e-18)
(0.9469239609 -0.01684801324 -1.072506783e-17)
(1.740489415 0.5934746173 3.624503442e-17)
(1.312501402 0.3660055969 1.979249867e-17)
(1.410503133 0.3053555299 3.753850985e-17)
(1.19764375 0.2038068092 -1.776802445e-18)
(1.246105859 0.168508293 6.393400281e-17)
(1.128169419 0.1209443402 -2.449769315e-17)
(1.153130338 0.09360523945 7.380208365e-17)
(1.076358056 0.07051505534 -2.017354971e-17)
(1.080547429 0.04150425211 1.479378346e-17)
(1.031479343 0.0347926358 -4.509142495e-17)
(1.00436196 -0.004363988243 2.635295929e-17)
(0.9577541244 -0.008424127105 -5.715147605e-17)
(1.596970842 0.7109003104 -1.122794684e-16)
(1.225280506 0.4388572353 -1.738995114e-18)
(1.339814359 0.3646838556 -4.771680399e-17)
(1.1516128 0.2430422555 4.090488056e-18)
(1.209698999 0.1998846068 -6.029557436e-17)
(1.103181914 0.14320377 -3.582887354e-17)
(1.135249811 0.1098040806 -4.872834469e-18)
(1.0631751 0.08269492896 -3.135993515e-18)
(1.074697014 0.04748434794 -3.343773688e-17)
(1.023515351 0.03987055452 9.343989527e-17)
(1.010815213 -0.006194068709 -2.680955676e-17)
(0.955909554 -0.009408255897 2.188727777e-17)
(1.429404031 0.7924075412 7.739917812e-17)
(1.121031814 0.4890848853 -2.562626318e-17)
(1.254440299 0.4059407893 8.969005153e-17)
(1.094750233 0.2704788308 -6.807190144e-17)
(1.163647173 0.2220443935 1.316954186e-16)
(1.070427359 0.1591073576 -4.056119513e-17)
(1.110738671 0.1216875235 8.231925549e-17)
(1.045268167 0.09202528541 2.028076511e-17)
(1.064504109 0.05290849707 2.570034404e-17)
(1.018400595 0.04620741482 -1.567356988e-16)
(1.007621352 -0.006730445191 1.473412483e-16)
(0.9688141515 -0.005285507358 -1.057972983e-16)
(1.249267775 0.8356753191 3.184914492e-17)
(1.011025336 0.5168874998 -2.939347358e-17)
(1.164778808 0.4285685973 3.471721581e-17)
(1.035970391 0.2859074764 8.236865465e-17)
(1.116689614 0.2345262895 -1.401008308e-16)
(1.037674797 0.1685011247 2.919007026e-17)
(1.086739729 0.1287394888 -7.71591144e-17)
(1.027685102 0.09806963278 1.017520573e-17)
(1.055115853 0.0560059363 -2.101959983e-17)
(1.010280208 0.05031185422 1.477211906e-16)
(1.011558456 -0.007270137604 -1.250018993e-16)
(0.9648177825 -0.004795886256 4.044964942e-17)
(1.062586771 0.8361971833 -5.66319489e-17)
(0.895022678 0.51679924 4.194009811e-17)
(1.069788122 0.4281633323 -1.429502888e-16)
(0.972864985 0.2855452588 4.436116956e-17)
(1.065734498 0.2339260069 -3.006166666e-17)
(1.00148777 0.1681756792 4.253128562e-17)
(1.059921559 0.1282529288 -8.043371788e-17)
(1.007843405 0.09843449261 2.555668292e-17)
(1.044670412 0.05563792224 1.123357189e-17)
(1.002386799 0.05335045272 -1.396196256e-16)
(1.013916729 -0.009548186406 1.18519214e-16)
(0.9700024221 0.003054221408 -3.231331551e-17)
(0.881498137 0.796661879 -4.749289742e-17)
(0.7839096858 0.4938937894 3.311115564e-17)
(0.9788399155 0.4092785248 2.271147512e-16)
(0.9129088539 0.2737448711 -1.392157977e-16)
(1.017589635 0.2245062475 2.139528651e-16)
(0.9675955825 0.162124857 -1.225089179e-16)
(1.035113522 0.1237835361 1.353060243e-16)
(0.9893147222 0.09578539571 -6.754994241e-17)
(1.035549975 0.05379833149 -4.047980849e-18)
(0.9928683922 0.05297664043 1.7648526e-16)
(1.019497075 -0.008230242857 -1.200417993e-16)
(0.9666784907 0.0001764716587 1.222557346e-16)
(0.7127843033 0.7160596727 -5.932537712e-17)
(0.6792904535 0.44353538 6.764270026e-18)
(0.8933163756 0.3673132957 -3.278182855e-16)
(0.8562484918 0.2456881565 5.963315582e-17)
(0.9720103817 0.2012730232 -2.017821849e-16)
(0.9351878812 0.1454820413 2.178992404e-16)
(1.011402504 0.1109635687 -1.449626604e-16)
(0.9712452224 0.08663465226 4.698060679e-17)
(1.027500287 0.04816685713 3.537745429e-17)
(0.9839429141 0.05179346494 1.342442384e-17)
(1.026405394 -0.01200576956 -5.93472658e-17)
(0.9664405479 0.01242302161 9.167277704e-18)
(0.5667017207 0.601409898 -3.998335211e-17)
(0.5891135396 0.374256241 1.909050545e-17)
(0.8190808372 0.3103587919 1.520604118e-16)
(0.8068376878 0.2087721364 1.35335789e-16)
(0.9319083399 0.1716788347 -3.643155449e-17)
(0.9063869101 0.1251000627 2.57170942e-17)
(0.9898936511 0.0962316081 1.63433985e-17)
(0.9543018296 0.07543910621 2.894173996e-17)
(1.019123311 0.04373176407 -3.847876258e-17)
(0.9726301347 0.04339564556 -4.558769071e-17)
(1.032586123 -0.003690821113 1.400192043e-17)
(0.9608985672 0.008761424411 9.118448889e-18)
(0.4493833459 0.4557028247 1.739072427e-16)
(0.5166677503 0.2838171331 3.462889977e-18)
(0.7601678225 0.2353811775 -9.552193075e-17)
(0.7681076982 0.1588489258 -1.062625906e-16)
(0.9010702033 0.1307225151 -7.337432829e-17)
(0.8847722996 0.09569111881 8.171777219e-17)
(0.9742912763 0.07401011861 -2.032176987e-16)
(0.9427135636 0.05862682025 1.190388873e-16)
(1.013293673 0.0352604491 -1.067430956e-17)
(0.96780648 0.03651478887 6.212337697e-17)
(1.031924455 -0.001009989351 -1.276792333e-16)
(0.9660614198 0.01576965059 1.140149936e-16)
(0.3674105673 0.288525109 -6.29061671e-17)
(0.4655004433 0.1816613772 -1.032700779e-18)
(0.7175275078 0.1512598627 2.923937266e-17)
(0.73909607 0.1037357527 4.501219661e-17)
(0.8768800173 0.08627239802 5.07629036e-17)
(0.8666697685 0.06461582098 -1.225235929e-17)
(0.9598380331 0.05126992947 4.491069038e-17)
(0.9308510929 0.04177947201 1.950392993e-17)
(1.00556654 0.02747578727 -6.270927651e-17)
(0.9597127782 0.02763775018 2.182198344e-17)
(1.032493191 0.006408887423 -2.343399299e-17)
(0.959024328 0.01304232811 1.200706542e-17)
(0.3246488891 0.1066426139 2.158628043e-17)
(0.4394000744 0.06935455675 9.008447942e-18)
(0.6967744361 0.0584677865 -4.506687541e-17)
(0.7258162632 0.04229721465 1.883561067e-17)
(0.8667734868 0.03625208053 -4.297845252e-17)
(0.8600319387 0.02904374598 1.367857756e-17)
(0.9556159797 0.02469610247 -1.529984522e-18)
(0.9280874174 0.02174049698 -2.44162972e-17)
(1.005103961 0.01738282275 1.811371398e-17)
(0.9589967243 0.01771606596 -1.794441507e-18)
(1.033735994 0.0117257161 -9.647642642e-18)
(0.9620208717 0.01438260186 9.836684559e-18)
(0.3232098301 -0.08000606478 -7.158852888e-18)
(0.4377521573 -0.04553031788 5.16549347e-18)
(0.6946230771 -0.03637689496 -3.086833889e-17)
(0.7234301408 -0.02038401606 2.293676466e-17)
(0.8639153618 -0.0147153043 -2.629980337e-17)
(0.8569612755 -0.007181464818 -8.193293239e-18)
(0.9521203709 -0.002359927623 -4.027116314e-17)
(0.9245246072 0.001258909066 1.852860042e-17)
(1.001337308 0.006991962219 -8.555811381e-18)
(0.9553781388 0.00752500093 -2.253741078e-17)
(1.031159784 0.01632042489 8.48207085e-18)
(0.9571544498 0.01622834711 3.058934888e-18)
(0.363299157 -0.2620036369 -3.478085011e-17)
(0.4627772761 -0.1573227181 2.390106816e-17)
(0.7157212144 -0.1284985185 -6.48820865e-17)
(0.7377166792 -0.08107323514 8.472413974e-17)
(0.875875144 -0.06384590929 4.625008795e-18)
(0.8657606936 -0.04181588315 1.613936338e-17)
(0.9589016111 -0.0280024164 1.134832445e-16)
(0.9298248784 -0.01801355742 -2.984689582e-17)
(1.003802793 -0.002533832501 -1.631475717e-17)
(0.9584150352 -0.003151968073 1.08029137e-17)
(1.027327144 0.02298421651 3.215938224e-17)
(0.9591910453 0.0135024891 -6.303680208e-17)
(0.4428386516 -0.4311413687 8.346211227e-17)
(0.5113168318 -0.2620458282 -4.769246268e-17)
(0.7548524653 -0.215162084 1.037838896e-17)
(0.7628216682 -0.1387386728 -1.074539465e-16)
(0.8953901699 -0.1110332738 1.799677741e-17)
(0.8788523871 -0.075630742 -7.904268756e-17)
(0.9676710537 -0.05361831906 -6.157472156e-17)
(0.9358449245 -0.03720496303 -8.943550785e-17)
(1.005372161 -0.01320231412 6.197802798e-17)
(0.9600147463 -0.01107377147 -3.1592268e-17)
(1.022815735 0.02404977109 2.207555629e-17)
(0.9567517569 0.01729423409 -1.025683027e-17)
(0.557593131 -0.5772436104 3.735163857e-17)
(0.5820942196 -0.3512545988 4.671551372e-17)
(0.8132070879 -0.2885424288 6.209629733e-17)
(0.8014664261 -0.1869090765 5.764946028e-18)
(0.926713882 -0.1499409333 1.343717834e-16)
(0.9010605403 -0.1029479671 -5.016015201e-17)
(0.9841251611 -0.07386423627 1.599515232e-16)
(0.9481058489 -0.05243285993 -6.749735312e-17)
(1.011673558 -0.02082587055 3.462971273e-17)
(0.9657088404 -0.01982919318 -1.087158925e-16)
(1.020136577 0.02963618927 4.984330876e-17)
(0.9554486532 0.01309853944 -1.28973761e-16)
(0.7024414366 -0.6953130481 -2.149438722e-16)
(0.6713636591 -0.4248418707 -4.979246327e-18)
(0.8859290098 -0.34962482 -8.612619229e-17)
(0.8490960397 -0.227881605 -1.36855084e-17)
(0.964634258 -0.1837296844 -8.530929161e-17)
(0.9274652471 -0.1274244419 -7.913776479e-17)
(1.002987616 -0.09266638689 3.256333763e-18)
(0.9619259255 -0.06688483598 -2.843194871e-17)
(1.017515667 -0.0288447081 -6.019905737e-17)
(0.97141865 -0.02699176937 1.619109329e-16)
(1.014829834 0.03033194742 -4.895973304e-17)
(0.9519526045 0.01771998896 2.314508291e-17)
(0.8688797879 -0.7767010913 1.119523681e-16)
(0.7735465518 -0.4739832746 -3.986405311e-17)
(0.9696635491 -0.3900169563 1.43412245e-16)
(0.9042438593 -0.2542695049 -1.009679427e-16)
(1.008980756 -0.205041928 1.995693685e-16)
(0.9587192098 -0.1422792533 -7.250981867e-17)
(1.025896855 -0.1037774487 1.32029778e-16)
(0.9792211964 -0.07524842008 2.414624031e-17)
(1.025747138 -0.03330267506 2.630907773e-17)
(0.9805131904 -0.03203489996 -2.186828384e-16)
(1.008642935 0.03188422345 2.08822612e-16)
(0.9542741702 0.01603775851 -1.512039527e-16)
(1.050314512 -0.8202729536 2.895830905e-17)
(0.8858428607 -0.5016741038 -4.189757555e-17)
(1.061422236 -0.4132625813 3.247296619e-17)
(0.9647978781 -0.2702893864 9.81407736e-17)
(1.057531915 -0.2187025799 -1.665199758e-16)
(0.9928261077 -0.1525872713 2.588854323e-17)
(1.050551806 -0.1123668985 -8.166433302e-17)
(0.9973799541 -0.08205393337 1.381624001e-17)
(1.033649339 -0.03834705819 -2.595582902e-17)
(0.9877953206 -0.03497949554 1.499591095e-16)
(1.003719257 0.02813505175 -1.296186875e-16)
(0.9455986789 0.02118316251 1.99482172e-17)
(1.235301142 -0.8209818859 -3.791521794e-17)
(0.998983998 -0.5012611221 3.495442127e-17)
(1.153699732 -0.4130335824 -1.004423184e-16)
(1.025272107 -0.2699939224 3.723926665e-17)
(1.105796533 -0.2185776658 -1.848490455e-17)
(1.026435446 -0.152305381 2.467069251e-17)
(1.074831163 -0.1125836528 -6.831439007e-17)
(1.015399662 -0.08199592353 2.267435121e-17)
(1.0414979 -0.03999665633 4.559327328e-18)
(0.9978312147 -0.03551480559 -1.402373907e-16)
(0.9929210757 0.02402848609 1.115523783e-16)
(0.9523089134 0.01991070645 -5.119197906e-17)
(1.417247975 -0.7814636863 -2.941220252e-17)
(1.111906217 -0.4774567477 2.249245063e-17)
(1.246080236 -0.3936759982 1.627160621e-16)
(1.086596543 -0.2576022606 -1.040069226e-16)
(1.155310674 -0.2089822262 1.568537895e-16)
(1.061478637 -0.145780406 -1.010342667e-16)
(1.100864431 -0.1084288501 9.859578641e-17)
(1.034040656 -0.07840939214 -5.589452157e-17)
(1.051881022 -0.04016266559 -7.386510933e-18)
(1.002022639 -0.03055646206 1.204903139e-16)
(0.9940390431 0.01555139618 -8.05464387e-17)
(0.9428639629 0.02620722942 8.65489962e-17)
(1.584081546 -0.7014939192 -3.586588661e-17)
(1.213626959 -0.4278480179 8.07880652e-18)
(1.328655209 -0.3533176364 -1.852491116e-16)
(1.140500278 -0.2312016453 3.691661499e-17)
(1.198071358 -0.1880805786 -1.052971381e-16)
(1.090855802 -0.1312842652 1.189640364e-16)
(1.122067563 -0.09832153388 -7.329962455e-17)
(1.049056814 -0.07120316146 1.804068522e-17)
(1.059765528 -0.03730118132 2.224836372e-17)
(1.008434773 -0.02912011401 1.827590682e-17)
(0.9910721008 0.01548709828 -3.536836249e-17)
(0.9429288265 0.01760530869 1.586060905e-17)
(1.730340724 -0.5868433757 -4.578728826e-18)
(1.304519054 -0.3573314877 1.348530668e-17)
(1.402895918 -0.2952414142 6.773698985e-17)
(1.189968622 -0.1928154407 5.549163522e-17)
(1.238109693 -0.156973303 -9.681224605e-18)
(1.119351445 -0.1091361884 1.474966964e-17)
(1.14354693 -0.08178766482 1.354595675e-17)
(1.064868945 -0.05856953747 7.358753274e-18)
(1.068954173 -0.03074773413 -9.523816215e-18)
(1.013730531 -0.02215944832 -1.327536496e-17)
(0.9926583398 0.01057988505 6.047985994e-18)
(0.9342152316 0.0226103734 8.014524021e-18)
(1.845982272 -0.4421303854 5.260769409e-17)
(1.374892109 -0.2684461274 3.991655676e-18)
(1.459678239 -0.2229486198 -4.410344709e-17)
(1.227031966 -0.1457050426 -2.545792413e-17)
(1.267392353 -0.1196606531 -3.228958465e-17)
(1.139405405 -0.08352701999 3.755566393e-17)
(1.158022518 -0.0638168859 -6.668513531e-17)
(1.075013575 -0.0459468361 4.249484885e-17)
(1.074279443 -0.025953057 -1.28342569e-18)
(1.017116325 -0.0181104625 2.383093292e-17)
(0.9920416799 0.005004158469 -4.234192154e-17)
(0.9310767106 0.01645647977 4.116752877e-17)
(1.927456626 -0.2752565651 -1.07239701e-17)
(1.425515771 -0.1654947895 4.148136045e-18)
(1.500667667 -0.138062727 6.279762665e-18)
(1.254370739 -0.08936091293 1.583520866e-17)
(1.289353186 -0.07380215766 4.040620708e-18)
(1.154863906 -0.05087521428 5.980223788e-18)
(1.169625886 -0.03928368339 2.776021974e-18)
(1.083247246 -0.02755551624 1.410611151e-17)
(1.079307697 -0.01618999957 -1.258987398e-17)
(1.019253955 -0.009540813685 9.755014189e-18)
(0.993806916 0.001048535841 -1.071085549e-17)
(0.9252594018 0.01537517802 1.012371652e-17)
(1.969046525 -0.09444893972 9.838571566e-18)
(1.450787264 -0.05480427711 1.632266072e-18)
(1.520581233 -0.04805624789 -5.531537443e-18)
(1.267421234 -0.03068183518 -3.358503324e-18)
(1.299495717 -0.02718569765 -8.042626657e-18)
(1.161718138 -0.01879841552 5.847552124e-18)
(1.174663323 -0.01634952423 -9.588395457e-18)
(1.086499838 -0.01125532784 7.260443192e-18)
(1.0817336 -0.008981579316 9.886756293e-19)
(1.019159085 -0.003658573642 5.60298595e-18)
(0.9962728333 -0.004321551734 -7.374884571e-18)
(0.9218479112 0.01034134724 9.043350843e-18)
(1.969535567 0.0913538248 -4.580089426e-18)
(1.451068925 0.05979946421 4.036612204e-19)
(1.520094022 0.04639986153 2.617689752e-18)
(1.267140838 0.03205773741 2.165599572e-18)
(1.298964267 0.02392143424 -1.682886875e-19)
(1.161123523 0.0174589895 5.852840557e-18)
(1.174229077 0.01098562406 -1.006629872e-18)
(1.085689203 0.008840667153 6.943944471e-18)
(1.082101337 0.00210263344 -1.091874296e-18)
(1.017175634 0.004537789192 4.938219938e-18)
(0.9996734387 -0.0065743731 -4.899646492e-18)
(0.9187127211 0.005564843312 7.918261884e-18)
(1.928870203 0.2725763092 4.438880068e-18)
(1.426336382 0.1706217278 -6.921087385e-18)
(1.499247186 0.1364950792 6.629726505e-18)
(1.253607312 0.09084938385 -1.504383209e-17)
(1.287876762 0.07072814111 -9.218809098e-18)
(1.153295048 0.04964685508 3.861407434e-18)
(1.16855519 0.03425241713 -2.648037648e-17)
(1.081205021 0.02519813423 1.380043324e-17)
(1.080660158 0.0100519005 1.553735429e-18)
(1.014015654 0.009788353707 3.198844509e-18)
(1.003755154 -0.009749962841 -7.367452452e-18)
(0.9167755046 -0.001295592 1.864355072e-17)
(1.848292069 0.4402895351 -2.292885948e-17)
(1.376315178 0.2738359772 1.248034072e-17)
(1.457438398 0.2215117822 -1.683068046e-18)
(1.225821812 0.1473158926 3.300883898e-17)
(1.264975317 0.1167997198 -8.230811169e-18)
(1.136828651 0.08229659211 2.839922404e-17)
(1.156159571 0.05913002724 1.239894928e-17)
(1.07164023 0.04337206223 2.710401929e-17)
(1.076177843 0.02076845943 -1.640066637e-17)
(1.008759036 0.01685112011 7.80542651e-18)
(1.007581406 -0.01016005599 -3.579709746e-18)
(0.9175242234 -0.006018915121 9.148622594e-18)
(1.733401218 0.5862262891 -3.594210122e-17)
(1.306490973 0.3631484941 -1.936509564e-17)
(1.399921678 0.2941382829 -3.647536076e-17)
(1.188367671 0.1947955812 1.928890686e-18)
(1.234815865 0.1546892849 -6.064174826e-17)
(1.11592871 0.1082720661 2.297924186e-17)
(1.14095216 0.07802824661 -6.835868597e-17)
(1.060472158 0.05624059275 1.780273616e-17)
(1.071266327 0.02742766636 -1.147558527e-17)
(1.003193777 0.01952010335 3.953268332e-17)
(1.012467774 -0.01064599228 -2.059011078e-17)
(0.9178663284 -0.0161604972 4.78223673e-17)
(1.58777901 0.7025085505 1.11600297e-16)
(1.216258336 0.4342942217 9.50345006e-19)
(1.325228917 0.3526865503 4.67321301e-17)
(1.138711778 0.2335958645 -5.474689664e-18)
(1.194122341 0.1863897825 5.933057618e-17)
(1.086846846 0.1306524016 3.385551704e-17)
(1.118851513 0.09536049013 3.266744457e-18)
(1.043921159 0.06875376903 2.517418513e-18)
(1.062208777 0.0356949133 3.249640451e-17)
(0.9963612363 0.02424266913 -9.032191489e-17)
(1.013708157 -0.009714985186 2.486280791e-17)
(0.9247930479 -0.01730787198 -2.005920113e-17)
(1.421328899 0.7844336029 -7.654293402e-17)
(1.115049975 0.4846978486 2.551339312e-17)
(1.242215145 0.3937894585 -8.784801849e-17)
(1.084553177 0.2606949116 6.676336428e-17)
(1.150600433 0.2082663563 -1.282252788e-16)
(1.056836875 0.1458278151 3.934724577e-17)
(1.096785682 0.106845846 -7.908252794e-17)
(1.028217072 0.07647272382 -2.219243121e-17)
(1.053861212 0.04105314913 -2.267726959e-17)
(0.989559641 0.02432677133 1.510218524e-16)
(1.016962606 -0.003828042301 -1.42078635e-16)
(0.9265226457 -0.02959664172 9.917957333e-17)
(1.239560115 0.826246746 -3.25144265e-17)
(1.002716194 0.509613216 2.907943101e-17)
(1.149716803 0.414246078 -3.638873007e-17)
(1.023235794 0.2740228889 -8.211716206e-17)
(1.100645722 0.2190785421 1.379787158e-16)
(1.021560085 0.153202025 -2.898239554e-17)
(1.070097535 0.1125150435 7.556402569e-17)
(1.00931119 0.08061152454 -1.016179472e-17)
(1.04255794 0.04349610806 2.043085814e-17)
(0.9855047626 0.02744364344 -1.466740353e-16)
(1.014305838 -0.005009512771 1.2474657e-16)
(0.9381075993 -0.02926293574 -4.103149144e-17)
(1.054383842 0.8280519207 5.698580786e-17)
(0.889922948 0.5112438845 -4.209154193e-17)
(1.057238665 0.4158069133 1.455444405e-16)
(0.9626305212 0.2754356327 -4.570722428e-17)
(1.05178957 0.2206051048 3.362448664e-17)
(0.9876479498 0.1546153366 -4.491978236e-17)
(1.04494462 0.1140050647 8.324447086e-17)
(0.9912685487 0.08180869935 -2.65991926e-17)
(1.033153463 0.04441813979 -1.105566446e-17)
(0.977663382 0.02713470109 1.390839245e-16)
(1.020155634 -0.003861131136 -1.174838719e-16)
(0.9375757056 -0.03303739073 3.169153912e-17)
(0.8724754213 0.7871894538 4.712195357e-17)
(0.7778861989 0.4851315174 -3.319463648e-17)
(0.9654327537 0.3944180898 -2.299386309e-16)
(0.9020502535 0.2609295404 1.396257858e-16)
(1.002815993 0.208782276 -2.166883023e-16)
(0.9534319499 0.1458781116 1.246542e-16)
(1.019504572 0.1073918851 -1.376549197e-16)
(0.9732114575 0.07658592276 6.767147596e-17)
(1.023549296 0.04153382234 5.996062169e-18)
(0.9723105829 0.02508361279 -1.784098647e-16)
(1.020526439 -0.00418709841 1.234263606e-16)
(0.9502002633 -0.02997149818 -1.271878586e-16)
(0.705104158 0.7085681318 5.95039328e-17)
(0.6756756515 0.4375839068 -7.161918898e-18)
(0.8814873423 0.3560052456 3.314977781e-16)
(0.8467259011 0.2361068865 -6.068432834e-17)
(0.9579567777 0.1893013825 2.063445728e-16)
(0.9220080694 0.1326964063 -2.218813279e-16)
(0.9958043953 0.09817707901 1.499616116e-16)
(0.9560765389 0.0700809857 -4.999792018e-17)
(1.013685295 0.03890057032 -3.41631081e-17)
(0.9656376563 0.02239272298 -1.527920343e-17)
(1.021328194 -0.001403105648 6.263058424e-17)
(0.9543604427 -0.02959273041 -1.173530138e-17)
(0.5590121354 0.5932456449 4.045865985e-17)
(0.5860742507 0.3658227972 -1.959500676e-17)
(0.8084411979 0.2974097977 -1.537901371e-16)
(0.7987913021 0.197052065 -1.3800347e-16)
(0.9194446185 0.1577777908 3.567826459e-17)
(0.8953497385 0.1102955251 -2.583344391e-17)
(0.9760420824 0.08152027851 -1.752441883e-17)
(0.9422450508 0.05782941912 -2.86312752e-17)
(1.006047528 0.03240896185 4.075032039e-17)
(0.9617931537 0.01805562099 4.597240757e-17)
(1.021309929 -0.0009142854903 -1.487476277e-17)
(0.9628898337 -0.02282963889 -9.324431094e-18)
(0.4425390431 0.4497247514 -1.740394046e-16)
(0.5146635985 0.2783668034 -3.305406891e-18)
(0.7495170098 0.2264694689 9.790614063e-17)
(0.7596683833 0.1507431521 1.069579609e-16)
(0.8874648649 0.1209813242 7.699250521e-17)
(0.8727565365 0.08503286981 -8.592133479e-17)
(0.9586950517 0.06322869334 2.089907685e-16)
(0.9297914433 0.04493466219 -1.233609192e-16)
(0.9980563062 0.02597321082 1.403317269e-17)
(0.9575856712 0.01339095778 -6.805434515e-17)
(1.019080805 0.002159610764 1.344028434e-16)
(0.9687407422 -0.02006235483 -1.222656754e-16)
(0.3609978871 0.2829200276 6.373590786e-17)
(0.465118941 0.175328798 8.376220794e-19)
(0.709533282 0.1425404405 -3.01743192e-17)