/*--------------------------------*- C++ -*----------------------------------*\
| =========                 |                                                 |
| \\      /  F ield         | foam-extend: Open Source CFD                    |
|  \\    /   O peration     | Version:  3.0                                   |
|   \\  /    A nd           | Web:         http://www.extend-project.de       |
|    \\/     M anipulation  |                                                 |
\*---------------------------------------------------------------------------*/
FoamFile
{
    version     2.0;
    format      ascii;
    class       volScalarField;
    location    "11";
    object      p;
}
// * * * * * * * * * * * * * * * * * * * * * * * * * * * * * * * * * * * * * //

dimensions      [0 0 0 0 0 0 0];

internalField   nonuniform List<scalar> 
7680
(
-0.228939
-0.216739
-0.207618
-0.198041
-0.190978
-0.183339
-0.177806
-0.171643
-0.167277
-0.162263
-0.158804
-0.154701
-0.151958
-0.148587
-0.146414
-0.143636
-0.141917
-0.139622
-0.138265
-0.136362
-0.135289
-0.133701
-0.132845
-0.131504
-0.130805
-0.129651
-0.129053
-0.128027
-0.127476
-0.126523
-0.125964
-0.125027
-0.124404
-0.123423
-0.122675
-0.121586
-0.120646
-0.119375
-0.118168
-0.116631
-0.228726
-0.21654
-0.207427
-0.19786
-0.190804
-0.183173
-0.177646
-0.171489
-0.167127
-0.162119
-0.158664
-0.154566
-0.151826
-0.148459
-0.146288
-0.143514
-0.141798
-0.139506
-0.138151
-0.136251
-0.13518
-0.133594
-0.13274
-0.131401
-0.130703
-0.129551
-0.128954
-0.12793
-0.127379
-0.126428
-0.12587
-0.124934
-0.124311
-0.123331
-0.122584
-0.121495
-0.120556
-0.119285
-0.118079
-0.116542
-0.228225
-0.216067
-0.206976
-0.197431
-0.190391
-0.182779
-0.177265
-0.171123
-0.166772
-0.161776
-0.15833
-0.154242
-0.151509
-0.148151
-0.145986
-0.143219
-0.141508
-0.139222
-0.137871
-0.135976
-0.134908
-0.133327
-0.132476
-0.131141
-0.130446
-0.129297
-0.128702
-0.127681
-0.127132
-0.126183
-0.125626
-0.124693
-0.124071
-0.123093
-0.122347
-0.121261
-0.120323
-0.119056
-0.117851
-0.11632
-0.227522
-0.215402
-0.20634
-0.196826
-0.189809
-0.18222
-0.176724
-0.170601
-0.166265
-0.161284
-0.15785
-0.153775
-0.151051
-0.147704
-0.145547
-0.142789
-0.141083
-0.138805
-0.137459
-0.13557
-0.134507
-0.132931
-0.132083
-0.130752
-0.13006
-0.128915
-0.128322
-0.127304
-0.126757
-0.125811
-0.125256
-0.124325
-0.123705
-0.12273
-0.121986
-0.120903
-0.119968
-0.118705
-0.117505
-0.115981
-0.226532
-0.214467
-0.205445
-0.195974
-0.188989
-0.181435
-0.175963
-0.169869
-0.165552
-0.160595
-0.157176
-0.15312
-0.150409
-0.147078
-0.144931
-0.142186
-0.140489
-0.138221
-0.136882
-0.135002
-0.133944
-0.132376
-0.131532
-0.130208
-0.129519
-0.128379
-0.127789
-0.126777
-0.126232
-0.12529
-0.124737
-0.123811
-0.123193
-0.122222
-0.121481
-0.120402
-0.119471
-0.118215
-0.117022
-0.115509
-0.225342
-0.213341
-0.204368
-0.194947
-0.187999
-0.180486
-0.175044
-0.168982
-0.164689
-0.159758
-0.156357
-0.152323
-0.149627
-0.146314
-0.144178
-0.141448
-0.139761
-0.137506
-0.136174
-0.134305
-0.133252
-0.131693
-0.130854
-0.129537
-0.128852
-0.127718
-0.127131
-0.126123
-0.125581
-0.124644
-0.124094
-0.123171
-0.122556
-0.121591
-0.120852
-0.11978
-0.118854
-0.117606
-0.11642
-0.114921
-0.223868
-0.211947
-0.203034
-0.193676
-0.186775
-0.179312
-0.173907
-0.167886
-0.163621
-0.158724
-0.155347
-0.15134
-0.148663
-0.145371
-0.143251
-0.14054
-0.138864
-0.136625
-0.135302
-0.133446
-0.132401
-0.130852
-0.130019
-0.128711
-0.12803
-0.126904
-0.126321
-0.12532
-0.124782
-0.123851
-0.123303
-0.122387
-0.121775
-0.120816
-0.120082
-0.119017
-0.118098
-0.116861
-0.115684
-0.1142
-0.222197
-0.210366
-0.20152
-0.192233
-0.185384
-0.177977
-0.172612
-0.166637
-0.162405
-0.157544
-0.154193
-0.150217
-0.14756
-0.144294
-0.142189
-0.139499
-0.137836
-0.135613
-0.134301
-0.132459
-0.131422
-0.129885
-0.129058
-0.12776
-0.127084
-0.125966
-0.125387
-0.124393
-0.123858
-0.122934
-0.12239
-0.12148
-0.120872
-0.11992
-0.119191
-0.118135
-0.117223
-0.115997
-0.114832
-0.113366
-0.220245
-0.208519
-0.199752
-0.190548
-0.18376
-0.176419
-0.171103
-0.165181
-0.160988
-0.156171
-0.15285
-0.148909
-0.146277
-0.14304
-0.140955
-0.138289
-0.136641
-0.134439
-0.133139
-0.131313
-0.130285
-0.128762
-0.127943
-0.126656
-0.125987
-0.124879
-0.124305
-0.123319
-0.122789
-0.121872
-0.121332
-0.12043
-0.119828
-0.118884
-0.118161
-0.117116
-0.116212
-0.115
-0.113848
-0.1124
-0.218099
-0.206489
-0.197808
-0.188694
-0.181973
-0.174704
-0.16944
-0.163576
-0.159424
-0.154654
-0.151366
-0.147464
-0.144858
-0.141653
-0.139588
-0.136949
-0.135317
-0.133136
-0.131849
-0.130041
-0.129024
-0.127515
-0.126704
-0.12543
-0.124766
-0.123669
-0.1231
-0.122124
-0.121598
-0.12069
-0.120155
-0.119261
-0.118664
-0.117729
-0.117013
-0.115979
-0.115085
-0.113888
-0.11275
-0.111322
-0.215677
-0.204197
-0.195614
-0.186602
-0.179957
-0.17277
-0.167566
-0.161768
-0.157663
-0.152947
-0.149696
-0.145838
-0.143261
-0.140093
-0.138052
-0.135442
-0.133829
-0.131673
-0.130401
-0.128613
-0.127607
-0.126116
-0.125313
-0.124054
-0.123398
-0.122312
-0.121749
-0.120784
-0.120263
-0.119366
-0.118836
-0.117952
-0.117361
-0.116438
-0.11573
-0.114708
-0.113825
-0.112644
-0.111521
-0.110114
-0.213067
-0.201727
-0.193248
-0.184346
-0.177781
-0.170682
-0.165541
-0.159814
-0.155758
-0.1511
-0.147889
-0.144078
-0.141533
-0.138403
-0.136387
-0.133808
-0.132215
-0.130086
-0.128828
-0.127063
-0.126069
-0.124595
-0.123802
-0.122558
-0.121909
-0.120837
-0.12028
-0.119326
-0.118811
-0.117924
-0.1174
-0.116527
-0.115943
-0.115031
-0.114332
-0.113324
-0.112452
-0.111288
-0.110182
-0.108797
-0.210186
-0.199
-0.190637
-0.181856
-0.175382
-0.168379
-0.163309
-0.15766
-0.15366
-0.149066
-0.145899
-0.14214
-0.13963
-0.136543
-0.134555
-0.132012
-0.130441
-0.12834
-0.1271
-0.125359
-0.124379
-0.122925
-0.122143
-0.120916
-0.120276
-0.119218
-0.118669
-0.117728
-0.117219
-0.116344
-0.115827
-0.114966
-0.114389
-0.11349
-0.112801
-0.111808
-0.11095
-0.109804
-0.108715
-0.107353
-0.207122
-0.1961
-0.187859
-0.179207
-0.172827
-0.165927
-0.160931
-0.155365
-0.151424
-0.146897
-0.143776
-0.140073
-0.137599
-0.134557
-0.132598
-0.130092
-0.128544
-0.126474
-0.125253
-0.123536
-0.122571
-0.121138
-0.120367
-0.119157
-0.118526
-0.117483
-0.116942
-0.116014
-0.115513
-0.11465
-0.11414
-0.113292
-0.112724
-0.111838
-0.11116
-0.110183
-0.109338
-0.108211
-0.107141
-0.105802
-0.203794
-0.19295
-0.184842
-0.17633
-0.170054
-0.163266
-0.158351
-0.152875
-0.148998
-0.144544
-0.141475
-0.137831
-0.135398
-0.132406
-0.130479
-0.128014
-0.126491
-0.124455
-0.123253
-0.121565
-0.120614
-0.119205
-0.118447
-0.117256
-0.116635
-0.11561
-0.115076
-0.114164
-0.11367
-0.112822
-0.11232
-0.111486
-0.110927
-0.110056
-0.109389
-0.108429
-0.107599
-0.106493
-0.105442
-0.104129
-0.200289
-0.189632
-0.181665
-0.1733
-0.167131
-0.16046
-0.15563
-0.150249
-0.146439
-0.142062
-0.139045
-0.135465
-0.133074
-0.130133
-0.128239
-0.125817
-0.12432
-0.122319
-0.121138
-0.119478
-0.118544
-0.117159
-0.116413
-0.115243
-0.114633
-0.113624
-0.1131
-0.112203
-0.111718
-0.110884
-0.11039
-0.109571
-0.109022
-0.108167
-0.107512
-0.10657
-0.105755
-0.10467
-0.103639
-0.102351
-0.196528
-0.186072
-0.178255
-0.170048
-0.163997
-0.157452
-0.152713
-0.147434
-0.143696
-0.139402
-0.136443
-0.13293
-0.130584
-0.127699
-0.125842
-0.123465
-0.121997
-0.120034
-0.118875
-0.117247
-0.116331
-0.114972
-0.11424
-0.113092
-0.112493
-0.111504
-0.11099
-0.11011
-0.109633
-0.108815
-0.108331
-0.107528
-0.106989
-0.106151
-0.105509
-0.104586
-0.103788
-0.102726
-0.101716
-0.100454
-0.192598
-0.182352
-0.174692
-0.166649
-0.160719
-0.154305
-0.149661
-0.144488
-0.140825
-0.136617
-0.133717
-0.130275
-0.127977
-0.12515
-0.123329
-0.121
-0.119561
-0.117637
-0.116502
-0.114906
-0.114008
-0.112676
-0.111959
-0.110834
-0.110247
-0.109277
-0.108773
-0.10791
-0.107444
-0.106642
-0.106168
-0.10538
-0.104853
-0.104032
-0.103404
-0.1025
-0.10172
-0.10068
-0.0996919
-0.0984577
-0.18842
-0.178397
-0.170904
-0.163036
-0.157236
-0.150962
-0.14642
-0.14136
-0.137777
-0.133661
-0.130825
-0.127458
-0.125209
-0.122444
-0.120664
-0.118386
-0.116979
-0.115097
-0.113986
-0.112426
-0.111547
-0.110244
-0.109543
-0.108443
-0.107868
-0.10692
-0.106426
-0.105583
-0.105127
-0.104343
-0.103879
-0.103109
-0.102594
-0.101792
-0.101178
-0.100295
-0.0995329
-0.0985171
-0.097552
-0.0963464
-0.184081
-0.174289
-0.166969
-0.159284
-0.153617
-0.147488
-0.143051
-0.138107
-0.134607
-0.130586
-0.127815
-0.124526
-0.12233
-0.119628
-0.117889
-0.115663
-0.114289
-0.11245
-0.111365
-0.10984
-0.108982
-0.107709
-0.107024
-0.105949
-0.105387
-0.104461
-0.103979
-0.103155
-0.102709
-0.101943
-0.10149
-0.100739
-0.100236
-0.0994531
-0.0988539
-0.0979925
-0.0972486
-0.0962576
-0.0953161
-0.0941397
-0.179504
-0.169957
-0.162819
-0.155326
-0.149801
-0.143825
-0.139499
-0.134679
-0.131266
-0.127346
-0.124645
-0.121438
-0.119297
-0.116663
-0.114967
-0.112798
-0.111458
-0.109665
-0.108607
-0.107121
-0.106284
-0.105044
-0.104375
-0.103327
-0.10278
-0.101877
-0.101407
-0.100604
-0.100169
-0.0994231
-0.098982
-0.0982498
-0.0977598
-0.0969974
-0.096414
-0.0955751
-0.0948508
-0.0938856
-0.0929688
-0.0918229
-0.174776
-0.16548
-0.158532
-0.151235
-0.145856
-0.140038
-0.135826
-0.131133
-0.127811
-0.123995
-0.121364
-0.118242
-0.116158
-0.113593
-0.111942
-0.10983
-0.108525
-0.10678
-0.10575
-0.104303
-0.103488
-0.10228
-0.101629
-0.100609
-0.100076
-0.0991966
-0.0987392
-0.0979574
-0.0975344
-0.0968081
-0.0963789
-0.0956664
-0.0951898
-0.0944481
-0.0938808
-0.0930648
-0.0923605
-0.0914218
-0.0905303
-0.0894158
-0.169819
-0.160788
-0.154037
-0.146949
-0.141723
-0.136071
-0.131979
-0.12742
-0.124193
-0.120485
-0.11793
-0.114897
-0.112872
-0.110381
-0.108777
-0.106725
-0.105458
-0.103763
-0.102762
-0.101356
-0.100565
-0.0993918
-0.0987599
-0.0977686
-0.0972513
-0.0963972
-0.0959531
-0.0951938
-0.0947832
-0.094078
-0.0936616
-0.0929699
-0.0925074
-0.0917876
-0.0912371
-0.0904453
-0.0897619
-0.0888508
-0.0879856
-0.0869037
-0.164722
-0.155962
-0.149414
-0.142539
-0.13747
-0.131988
-0.128019
-0.123597
-0.120467
-0.116871
-0.114393
-0.111451
-0.109487
-0.107071
-0.105515
-0.103525
-0.102296
-0.100652
-0.0996811
-0.0983177
-0.0975502
-0.096412
-0.0957991
-0.0948376
-0.0943359
-0.0935075
-0.0930768
-0.0923406
-0.0919425
-0.0912588
-0.0908551
-0.0901847
-0.0897366
-0.089039
-0.0885057
-0.0877383
-0.0870763
-0.0861935
-0.0853551
-0.0843066
-0.159407
-0.150931
-0.144595
-0.137942
-0.133038
-0.127733
-0.123893
-0.119614
-0.116586
-0.113107
-0.110709
-0.107863
-0.105963
-0.103625
-0.10212
-0.100195
-0.0990056
-0.097415
-0.0964763
-0.0951572
-0.0944149
-0.0933138
-0.0927211
-0.0917911
-0.0913059
-0.0905047
-0.0900883
-0.0893763
-0.0889915
-0.0883305
-0.0879404
-0.0872922
-0.0868592
-0.0861849
-0.0856696
-0.0849278
-0.084288
-0.0834345
-0.0826241
-0.0816101
-0.153962
-0.145776
-0.139656
-0.133231
-0.128495
-0.123372
-0.119663
-0.115531
-0.112606
-0.109246
-0.10693
-0.104181
-0.102346
-0.100089
-0.0986356
-0.0967761
-0.0956275
-0.0940913
-0.0931848
-0.0919109
-0.091194
-0.0901307
-0.0895582
-0.0886601
-0.0881917
-0.087418
-0.087016
-0.0863286
-0.0859571
-0.085319
-0.0849426
-0.0843171
-0.0838993
-0.0832486
-0.0827515
-0.0820357
-0.0814185
-0.0805949
-0.0798129
-0.0788343
-0.148312
-0.140426
-0.134532
-0.128344
-0.123782
-0.118848
-0.115276
-0.111296
-0.108479
-0.105243
-0.103013
-0.100366
-0.0985988
-0.0964247
-0.0950254
-0.0932346
-0.0921287
-0.0906494
-0.0897766
-0.08855
-0.0878599
-0.086836
-0.086285
-0.0854203
-0.0849695
-0.0842247
-0.083838
-0.0831763
-0.082819
-0.0822049
-0.0818429
-0.081241
-0.0808392
-0.0802131
-0.079735
-0.0790462
-0.0784524
-0.0776597
-0.0769073
-0.0759652
-0.142543
-0.134965
-0.1293
-0.123353
-0.118969
-0.114226
-0.110794
-0.106969
-0.104262
-0.101152
-0.0990092
-0.0964652
-0.0947669
-0.0926777
-0.091333
-0.089612
-0.0885493
-0.0871277
-0.086289
-0.0851103
-0.0844471
-0.0834633
-0.0829339
-0.082103
-0.0816699
-0.0809543
-0.0805828
-0.0799472
-0.0796041
-0.0790143
-0.0786667
-0.0780886
-0.077703
-0.0771017
-0.0766428
-0.0759815
-0.0754114
-0.0746502
-0.0739276
-0.0730229
-0.136581
-0.12932
-0.123894
-0.118196
-0.113996
-0.109453
-0.106164
-0.102501
-0.0999076
-0.0969282
-0.0948756
-0.0924387
-0.0908121
-0.0888109
-0.087523
-0.0858746
-0.0848569
-0.0834954
-0.0826923
-0.0815633
-0.0809285
-0.0799863
-0.0794795
-0.0786839
-0.0782695
-0.0775843
-0.0772289
-0.0766204
-0.0762923
-0.0757277
-0.0753953
-0.0748421
-0.0744732
-0.0738978
-0.0734587
-0.0728257
-0.0722802
-0.0715516
-0.0708599
-0.0699936
-0.130513
-0.123575
-0.11839
-0.112946
-0.108933
-0.104592
-0.10145
-0.0979491
-0.0954716
-0.0926249
-0.0906638
-0.0883354
-0.0867814
-0.0848693
-0.0836389
-0.082064
-0.0810917
-0.0797909
-0.0790236
-0.0779451
-0.0773386
-0.0764385
-0.0759545
-0.0751945
-0.0747987
-0.0741443
-0.073805
-0.0732238
-0.0729106
-0.0723715
-0.0720543
-0.0715261
-0.0711741
-0.0706247
-0.0702057
-0.0696014
-0.0690808
-0.0683851
-0.0677248
-0.0668975
-0.124265
-0.11766
-0.112724
-0.107541
-0.103721
-0.0995887
-0.0965982
-0.0932657
-0.0909077
-0.0881979
-0.0863315
-0.0841153
-0.0826363
-0.0808165
-0.0796456
-0.0781467
-0.0772216
-0.0759837
-0.0752538
-0.0742275
-0.0736506
-0.0727941
-0.0723339
-0.0716109
-0.0712346
-0.0706121
-0.0702896
-0.0697369
-0.0694392
-0.0689266
-0.0686252
-0.0681229
-0.0677884
-0.0672661
-0.0668678
-0.0662931
-0.065798
-0.0651363
-0.0645083
-0.0637212
-0.117924
-0.111657
-0.106973
-0.102055
-0.0984299
-0.094509
-0.0916714
-0.0885093
-0.0862719
-0.0837008
-0.08193
-0.0798272
-0.078424
-0.0766974
-0.0755865
-0.0741645
-0.0732868
-0.0721124
-0.07142
-0.0704463
-0.0698992
-0.0690867
-0.0686502
-0.0679644
-0.0676076
-0.0670172
-0.0667115
-0.0661874
-0.0659053
-0.0654192
-0.0651336
-0.0646575
-0.0643406
-0.0638454
-0.0634679
-0.0629231
-0.0624539
-0.0618265
-0.0612311
-0.0604848
-0.111417
-0.105496
-0.101072
-0.0964258
-0.0930019
-0.0892982
-0.086618
-0.0836313
-0.0815183
-0.0790899
-0.0774175
-0.0754316
-0.0741066
-0.0724759
-0.0714271
-0.0700842
-0.0692557
-0.0681467
-0.0674932
-0.0665739
-0.0660576
-0.0652907
-0.0648789
-0.0642315
-0.0638951
-0.0633379
-0.0630497
-0.0625551
-0.0622893
-0.0618307
-0.0615615
-0.0611123
-0.0608136
-0.0603464
-0.0599905
-0.0594764
-0.0590338
-0.0584416
-0.0578798
-0.0571752
-0.104831
-0.0992601
-0.0950976
-0.0907268
-0.0875058
-0.0840215
-0.0815002
-0.0786905
-0.0767028
-0.0744184
-0.0728453
-0.0709772
-0.0697309
-0.0681971
-0.0672107
-0.0659476
-0.0651684
-0.0641253
-0.0635108
-0.0626462
-0.0621608
-0.0614395
-0.0610524
-0.0604437
-0.0601275
-0.0596037
-0.0593329
-0.058868
-0.0586183
-0.0581873
-0.0579345
-0.0575124
-0.0572318
-0.0567928
-0.0564585
-0.0559754
-0.0555595
-0.0550029
-0.0544749
-0.0538126
-0.0980917
-0.0928804
-0.0889864
-0.0848976
-0.0818846
-0.0786252
-0.076267
-0.0736389
-0.0717798
-0.0696432
-0.0681721
-0.0664249
-0.0652596
-0.0638252
-0.062903
-0.0617219
-0.0609935
-0.0600183
-0.059444
-0.0586358
-0.0581822
-0.0575081
-0.0571466
-0.0565777
-0.0562825
-0.0557931
-0.0555404
-0.0551061
-0.0548732
-0.0544706
-0.0542347
-0.0538404
-0.0535786
-0.0531685
-0.0528564
-0.0524051
-0.0520166
-0.0514965
-0.0510031
-0.0503841
-0.0912879
-0.0864385
-0.0828152
-0.0790105
-0.0762071
-0.0731743
-0.0709802
-0.0685349
-0.0668054
-0.0648174
-0.0634489
-0.0618235
-0.0607395
-0.0594051
-0.0585473
-0.0574486
-0.0567713
-0.0558641
-0.0553301
-0.0545784
-0.0541568
-0.0535298
-0.0531938
-0.0526649
-0.0523907
-0.0519356
-0.051701
-0.0512973
-0.051081
-0.0507068
-0.0504879
-0.0501215
-0.0498784
-0.0494973
-0.0492074
-0.048788
-0.0484271
-0.0479438
-0.0474853
-0.0469099
-0.0843465
-0.079867
-0.0765203
-0.073006
-0.0704168
-0.0676158
-0.0655896
-0.0633312
-0.0617342
-0.0598985
-0.058635
-0.0571341
-0.0561335
-0.0549015
-0.0541099
-0.0530956
-0.0524706
-0.0516334
-0.0511408
-0.0504471
-0.0500583
-0.0494799
-0.0491702
-0.0486823
-0.0484297
-0.0480101
-0.047794
-0.0474218
-0.0472228
-0.0468778
-0.0466763
-0.0463385
-0.0461147
-0.0457634
-0.0454963
-0.0451095
-0.0447769
-0.044331
-0.0439081
-0.0433772
-0.0773545
-0.073247
-0.0701784
-0.0669561
-0.0645823
-0.0620141
-0.0601566
-0.0580862
-0.0566222
-0.0549393
-0.0537812
-0.0524054
-0.0514884
-0.0503592
-0.0496338
-0.0487042
-0.0481316
-0.0473644
-0.0469132
-0.0462776
-0.0459216
-0.0453917
-0.0451082
-0.0446614
-0.0444302
-0.044046
-0.0438484
-0.0435076
-0.0433257
-0.0430099
-0.0428257
-0.0425166
-0.0423119
-0.0419904
-0.0417461
-0.0413921
-0.0410878
-0.0406796
-0.0402925
-0.0398064
-0.0702402
-0.0665117
-0.0637266
-0.060802
-0.0586477
-0.056317
-0.0546316
-0.0527528
-0.0514246
-0.0498977
-0.0488473
-0.0475991
-0.0467675
-0.0457432
-0.0450856
-0.0442426
-0.0437237
-0.043028
-0.0426193
-0.0420431
-0.0417208
-0.0412406
-0.0409842
-0.0405793
-0.0403703
-0.0400223
-0.0398438
-0.0395353
-0.0393709
-0.0390851
-0.0389187
-0.0386389
-0.0384539
-0.0381628
-0.0379419
-0.0376213
-0.0373458
-0.0369761
-0.0366255
-0.0361849
-0.0630901
-0.059742
-0.0572414
-0.0546154
-0.0526813
-0.0505888
-0.0490758
-0.0473892
-0.0461971
-0.0448265
-0.0438838
-0.0427636
-0.0420175
-0.0410983
-0.0405084
-0.039752
-0.0392867
-0.0386625
-0.0382962
-0.0377794
-0.0374907
-0.03706
-0.0368304
-0.0364675
-0.0362805
-0.0359686
-0.035809
-0.0355326
-0.0353857
-0.0351297
-0.034981
-0.0347304
-0.034565
-0.0343044
-0.0341068
-0.0338196
-0.033573
-0.0332418
-0.0329278
-0.032533
-0.0558333
-0.0528719
-0.0506604
-0.048338
-0.0466279
-0.0447776
-0.0434401
-0.0419489
-0.0408954
-0.0396838
-0.0388509
-0.0378609
-0.037202
-0.0363898
-0.035869
-0.0352009
-0.0347903
-0.0342392
-0.0339162
-0.03346
-0.0332056
-0.0328256
-0.0326236
-0.0323035
-0.0321391
-0.0318642
-0.031724
-0.0314804
-0.0313515
-0.031126
-0.0309954
-0.0307747
-0.0306293
-0.0303997
-0.0302258
-0.0299728
-0.0297555
-0.0294635
-0.0291866
-0.0288383
-0.0485559
-0.0459816
-0.0440597
-0.0420412
-0.0405553
-0.0389474
-0.0377854
-0.0364898
-0.0355748
-0.0345223
-0.0337992
-0.0329393
-0.0323674
-0.0316622
-0.0312104
-0.0306304
-0.0302743
-0.0297961
-0.0295162
-0.0291205
-0.0289002
-0.0285707
-0.0283959
-0.0281185
-0.0279765
-0.0277383
-0.0276173
-0.0274065
-0.0272953
-0.0271001
-0.0269875
-0.0267965
-0.0266711
-0.0264724
-0.0263222
-0.0261032
-0.0259153
-0.0256624
-0.0254228
-0.0251211
-0.0411875
-0.0390059
-0.0373776
-0.0356674
-0.0344089
-0.0330469
-0.0320631
-0.030966
-0.0301916
-0.0293007
-0.028689
-0.0279614
-0.0274779
-0.0268813
-0.0264997
-0.0260093
-0.0257089
-0.0253048
-0.0250688
-0.0247346
-0.0245492
-0.0242712
-0.0241243
-0.0238904
-0.0237713
-0.0235707
-0.0234694
-0.0232919
-0.0231988
-0.0230346
-0.0229404
-0.0227797
-0.0226746
-0.0225074
-0.0223813
-0.0221968
-0.0220388
-0.0218256
-0.0216237
-0.0213691
-0.033814
-0.0320248
-0.0306897
-0.0292876
-0.0282562
-0.0271398
-0.0263339
-0.0254349
-0.0248009
-0.0240712
-0.0235706
-0.0229749
-0.0225796
-0.0220914
-0.0217797
-0.0213786
-0.0211334
-0.0208031
-0.0206109
-0.0203379
-0.0201871
-0.0199603
-0.019841
-0.0196503
-0.0195539
-0.0193905
-0.0193086
-0.0191642
-0.0190891
-0.0189556
-0.0188796
-0.018749
-0.0186641
-0.0185282
-0.018426
-0.018276
-0.0181477
-0.0179742
-0.01781
-0.0176027
-0.0263657
-0.0249733
-0.0239352
-0.0228446
-0.0220431
-0.0211753
-0.0205495
-0.0198512
-0.0193593
-0.0187928
-0.018405
-0.0179429
-0.017637
-0.0172587
-0.0170179
-0.0167074
-0.0165184
-0.016263
-0.0161152
-0.0159045
-0.0157889
-0.015614
-0.015523
-0.0153763
-0.015303
-0.0151775
-0.0151156
-0.0150048
-0.0149481
-0.0148459
-0.0147884
-0.0146884
-0.014624
-0.0145199
-0.0144421
-0.014327
-0.0142288
-0.0140954
-0.0139693
-0.0138096
-0.0189277
-0.0179312
-0.017189
-0.0164091
-0.0158367
-0.0152167
-0.0147704
-0.014272
-0.0139217
-0.0135178
-0.0132421
-0.0129131
-0.0126961
-0.0124271
-0.0122568
-0.0120364
-0.0119032
-0.0117223
-0.0116185
-0.0114696
-0.0113889
-0.0112656
-0.0112025
-0.0110993
-0.0110489
-0.0109609
-0.0109186
-0.0108412
-0.0108026
-0.0107313
-0.0106922
-0.0106226
-0.0105785
-0.0105059
-0.0104523
-0.0103719
-0.0103038
-0.0102104
-0.0101223
-0.0100102
-0.0114312
-0.0108343
-0.0103907
-0.00992455
-0.0095835
-0.00921374
-0.00894871
-0.00865219
-0.00844501
-0.00820544
-0.00804314
-0.00784864
-0.00772165
-0.00756326
-0.00746428
-0.00733509
-0.00725839
-0.00715288
-0.00709385
-0.00700751
-0.00696229
-0.00689133
-0.0068566
-0.00679771
-0.00677054
-0.00672073
-0.00669839
-0.0066549
-0.00663478
-0.00659494
-0.00657447
-0.00653562
-0.00651217
-0.00647157
-0.00644239
-0.00639716
-0.00635931
-0.00630634
-0.00625657
-0.00619245
-0.00396083
-0.00376146
-0.00361517
-0.00346106
-0.00335014
-0.00322926
-0.00314447
-0.00304875
-0.00298376
-0.00290754
-0.00285786
-0.00279702
-0.00275934
-0.00271078
-0.00268257
-0.00264389
-0.00262318
-0.00259248
-0.00257768
-0.00255341
-0.00254321
-0.00252408
-0.00251735
-0.00250225
-0.002498
-0.00248592
-0.00248325
-0.00247328
-0.00247133
-0.00246259
-0.00246051
-0.00245213
-0.00244907
-0.00244017
-0.00243524
-0.0024249
-0.00241715
-0.00240436
-0.00239276
-0.00237644
0.00355178
0.00335074
0.00319761
0.00303737
0.00291642
0.00278653
0.00268965
0.002583
0.00250458
0.00241613
0.00235215
0.0022782
0.00222567
0.00216344
0.0021201
0.00206742
0.00203146
0.00198661
0.00195658
0.00191812
0.00189278
0.00185949
0.00183776
0.00180855
0.00178946
0.00176333
0.00174596
0.00172198
0.00170543
0.00168268
0.00166606
0.00164361
0.001626
0.00160287
0.00158329
0.00155845
0.00153584
0.00150817
0.00148137
0.00144963
0.0110226
0.0104239
0.00997345
0.00950108
0.00914998
0.00877117
0.00849404
0.00818657
0.00796594
0.00771412
0.00753751
0.00732988
0.00718803
0.00701597
0.00690184
0.00675865
0.0066667
0.00654704
0.00647277
0.00637224
0.00631188
0.00622676
0.00617703
0.00610404
0.00606202
0.00599817
0.00596112
0.00590364
0.00586893
0.00581508
0.00578009
0.00572716
0.00568918
0.00563435
0.00559054
0.00553082
0.00547812
0.00541027
0.00534531
0.00526577
0.0185192
0.0175209
0.0167717
0.0159856
0.0154031
0.0147741
0.0143156
0.0138062
0.0134425
0.0130263
0.0127363
0.0123942
0.0121623
0.0118797
0.0116941
0.0114598
0.0113113
0.0111162
0.0109972
0.0108341
0.0107383
0.0106009
0.0105227
0.0104055
0.0103402
0.0102383
0.0101812
0.0100899
0.0100367
0.00995144
0.00989779
0.00981411
0.0097555
0.00966873
0.00960047
0.00950565
0.00942266
0.00931445
0.00921117
0.00908369
0.0259583
0.0245639
0.0235187
0.0224218
0.0216101
0.0207332
0.0200952
0.0193858
0.0188805
0.0183017
0.0178995
0.0174242
0.0171034
0.0167114
0.0164554
0.0161309
0.0159266
0.0156571
0.015494
0.0152691
0.0151384
0.0149494
0.0148434
0.0146826
0.0145944
0.0144549
0.0143783
0.0142536
0.0141823
0.0140661
0.0139942
0.0138802
0.0138013
0.0136829
0.0135906
0.013461
0.0133481
0.0131999
0.0130586
0.0128835
0.033407
0.0316155
0.0302734
0.0288647
0.0278231
0.0266975
0.0258794
0.0249693
0.0243218
0.0235797
0.0230648
0.0224559
0.0220456
0.0215438
0.0212168
0.0208017
0.0205413
0.0201968
0.0199893
0.0197022
0.0195363
0.0192953
0.0191611
0.0189563
0.0188451
0.0186677
0.0185712
0.0184128
0.0183232
0.0181758
0.0180853
0.0179408
0.0178414
0.0176913
0.0175747
0.0174103
0.0172672
0.0170789
0.0168996
0.0166769
0.0407824
0.0385983
0.0369625
0.0352457
0.0339768
0.0326055
0.0316094
0.0305011
0.0297131
0.0288097
0.0281836
0.0274427
0.0269442
0.0263339
0.0259371
0.0254326
0.0251169
0.0246986
0.0244474
0.024099
0.0238985
0.0236063
0.0234445
0.0231965
0.0230627
0.022848
0.0227321
0.0225407
0.0224332
0.0222551
0.0221465
0.0219718
0.0218524
0.021671
0.0215304
0.0213316
0.0211589
0.0209309
0.020714
0.0204441
0.0481513
0.0455743
0.0436448
0.0416195
0.0401231
0.0385058
0.0373315
0.0360246
0.0350959
0.034031
0.0332934
0.0324202
0.0318333
0.0311143
0.0306473
0.0300532
0.0296819
0.0291895
0.0288943
0.0284844
0.028249
0.0279054
0.0277157
0.0274243
0.0272675
0.0270154
0.0268798
0.0266551
0.0265295
0.0263205
0.0261936
0.0259887
0.025849
0.0256362
0.0254716
0.0252383
0.0250358
0.0247682
0.0245136
0.0241966
0.0554314
0.0524667
0.0502474
0.0479179
0.0461972
0.0443372
0.0429872
0.0414846
0.0404174
0.0391932
0.0383458
0.0373424
0.0366684
0.0358424
0.0353063
0.0346241
0.0341982
0.0336328
0.0332946
0.0328242
0.0325547
0.0321606
0.0319436
0.0316095
0.0314303
0.0311415
0.0309868
0.0307294
0.0305861
0.0303468
0.030202
0.0299675
0.0298079
0.0295643
0.0293761
0.0291088
0.028877
0.0285703
0.0282785
0.027915
0.062689
0.0593373
0.0568287
0.0541954
0.0522506
0.0501483
0.0486227
0.0469246
0.0457187
0.0443354
0.0433782
0.0422445
0.0414834
0.0405503
0.0399451
0.0391746
0.038694
0.0380556
0.037674
0.037143
0.0368392
0.0363945
0.0361499
0.035773
0.0355714
0.0352457
0.0350716
0.0347814
0.0346203
0.0343506
0.0341877
0.0339234
0.0337439
0.0334694
0.0332575
0.0329563
0.0326952
0.0323494
0.0320205
0.0316106
0.0698425
0.0661099
0.0633165
0.0603842
0.058219
0.0558782
0.05418
0.0522895
0.0509475
0.0494077
0.0483426
0.0470809
0.0462342
0.0451959
0.044523
0.0436657
0.0431315
0.0424215
0.0419976
0.0414071
0.0410698
0.0405754
0.0403041
0.0398853
0.0396617
0.0392998
0.0391069
0.0387847
0.0386061
0.0383067
0.0381262
0.0378328
0.0376338
0.0373289
0.0370939
0.0367593
0.0364694
0.0360851
0.0357198
0.0352641
0.0769578
0.0728458
0.0697686
0.0665385
0.0641536
0.0615752
0.0597049
0.0576226
0.0561447
0.0544489
0.0532762
0.0518868
0.0509546
0.0498113
0.0490706
0.0481268
0.0475389
0.0467573
0.0462909
0.045641
0.04527
0.044726
0.0444277
0.0439669
0.0437212
0.0433232
0.0431113
0.0427569
0.0425609
0.0422316
0.0420335
0.0417108
0.0414923
0.0411571
0.0408989
0.0405309
0.0402123
0.0397898
0.0393881
0.038887
0.0839541
0.0794694
0.0761137
0.0725911
0.0699906
0.067179
0.0651398
0.0628695
0.0612584
0.0594095
0.0581313
0.0566166
0.0556008
0.0543546
0.0535476
0.052519
0.0518786
0.051027
0.0505192
0.0498112
0.0494073
0.0488148
0.0484903
0.0479885
0.0477213
0.047288
0.0470577
0.046672
0.0464589
0.0461006
0.0458852
0.045534
0.0452964
0.0449316
0.0446507
0.0442501
0.0439034
0.0434433
0.0430058
0.04246
0.0908967
0.0860418
0.0824093
0.078596
0.075781
0.0727376
0.0705304
0.068073
0.0663293
0.0643282
0.0629449
0.0613056
0.0602064
0.0588578
0.0579846
0.0568715
0.0561788
0.0552573
0.054708
0.053942
0.0535053
0.0528643
0.0525135
0.0519708
0.051682
0.0512134
0.0509646
0.0505475
0.0503173
0.0499299
0.0496973
0.0493176
0.0490609
0.0486665
0.048363
0.0479299
0.0475551
0.0470577
0.0465848
0.0459946
0.0977056
0.092488
0.0885844
0.0844865
0.0814617
0.0781913
0.0758198
0.0731792
0.0713059
0.0691558
0.0676698
0.0659087
0.064728
0.0632793
0.0623416
0.061146
0.0604022
0.0594125
0.0588229
0.0580003
0.0575317
0.0568434
0.0564671
0.0558845
0.0555749
0.0550719
0.0548051
0.0543575
0.0541108
0.053695
0.0534457
0.0530383
0.052763
0.0523397
0.0520142
0.0515494
0.0511472
0.0506132
0.0501055
0.0494719
0.104446
0.0988689
0.0946964
0.0903163
0.0870833
0.0835878
0.0810531
0.0782309
0.0762288
0.073931
0.0723429
0.0704608
0.0691991
0.0676509
0.066649
0.0653714
0.0645767
0.0635192
0.0628893
0.0620105
0.06151
0.0607746
0.0603728
0.0597504
0.0594198
0.0588825
0.0585978
0.0581197
0.0578564
0.0574124
0.0571462
0.0567112
0.0564174
0.0559654
0.0556179
0.0551216
0.0546922
0.0541219
0.0535799
0.0529031
0.111038
0.10511
0.100675
0.0960193
0.0925832
0.0888679
0.0861741
0.0831746
0.081047
0.0786049
0.0769174
0.0749173
0.0735768
0.0719317
0.0708672
0.0695097
0.0686656
0.0675421
0.0668732
0.0659395
0.0654081
0.064627
0.0642005
0.0635394
0.0631886
0.0626181
0.062316
0.0618084
0.061529
0.0610576
0.0607753
0.0603134
0.0600016
0.0595217
0.0591528
0.0586257
0.0581698
0.0575641
0.0569885
0.0562696
0.117548
0.111272
0.106578
0.101649
0.098012
0.0940792
0.0912279
0.0880529
0.085801
0.0832161
0.0814301
0.0793131
0.0778944
0.0761532
0.0750267
0.07359
0.0726968
0.0715077
0.0707999
0.0698119
0.0692496
0.0684231
0.0679719
0.0672724
0.0669014
0.0662977
0.0659782
0.0654412
0.0651458
0.0646471
0.0643486
0.06386
0.0635303
0.0630227
0.0626326
0.062075
0.0615929
0.0609522
0.0603433
0.0595829
0.123895
0.117281
0.112334
0.10714
0.103307
0.0991631
0.0961586
0.0928129
0.0904401
0.0877164
0.0858346
0.0836039
0.0821093
0.0802748
0.0790881
0.0775745
0.0766337
0.0753811
0.0746357
0.0735949
0.0730029
0.0721323
0.0716573
0.0709206
0.0705301
0.0698944
0.0695582
0.0689927
0.068682
0.0681569
0.0678427
0.0673283
0.0669813
0.0664468
0.0660361
0.065449
0.0649412
0.0642665
0.0636253
0.0628243
0.130146
0.123198
0.118002
0.112546
0.10852
0.104167
0.101011
0.0974971
0.0950048
0.092144
0.0901676
0.0878247
0.086255
0.0843281
0.0830819
0.0814922
0.0805042
0.0791887
0.0784059
0.0773129
0.0766913
0.0757771
0.0752784
0.0745048
0.0740949
0.0734273
0.0730745
0.0724807
0.0721545
0.0716032
0.0712735
0.0707334
0.0703693
0.0698081
0.069377
0.0687607
0.0682277
0.0675194
0.0668463
0.0660054
0.136221
0.12895
0.123511
0.117802
0.113589
0.109033
0.105731
0.102053
0.099445
0.0964512
0.0943832
0.0919315
0.0902891
0.088273
0.0869692
0.0853058
0.0842723
0.0828959
0.0820772
0.0809337
0.0802836
0.0793272
0.0788058
0.0779966
0.077568
0.0768698
0.0765009
0.0758799
0.075539
0.0749624
0.0746178
0.0740529
0.0736723
0.0730853
0.0726346
0.0719899
0.0714326
0.0706916
0.0699875
0.0691079
0.142186
0.134597
0.12892
0.122961
0.118563
0.113808
0.110361
0.106523
0.103801
0.100676
0.098518
0.0959592
0.0942452
0.0921409
0.0907803
0.0890443
0.0879657
0.0865292
0.0856749
0.0844815
0.0838032
0.0828051
0.0822611
0.0814166
0.0809695
0.0802409
0.0798561
0.0792082
0.0788525
0.078251
0.0778915
0.0773021
0.076905
0.0762927
0.0758225
0.07515
0.0745685
0.0737955
0.073061
0.0721433
0.147963
0.140066
0.134159
0.127958
0.123383
0.118435
0.114849
0.110855
0.108023
0.104772
0.102527
0.0998644
0.0980813
0.0958921
0.0944766
0.0926707
0.0915487
0.0900544
0.0891659
0.0879245
0.0872191
0.086181
0.0856152
0.084737
0.0842721
0.0835144
0.0831144
0.0824405
0.0820709
0.0814453
0.0810716
0.0804587
0.0800459
0.0794091
0.0789202
0.0782207
0.0776161
0.0768121
0.0760481
0.0750935
0.153617
0.145418
0.139286
0.132848
0.128098
0.122961
0.119238
0.115092
0.112152
0.108777
0.106446
0.103682
0.101831
0.0995581
0.0980888
0.0962139
0.0950493
0.0934981
0.0925757
0.0912871
0.0905549
0.0894773
0.0888901
0.0879784
0.0874959
0.0867094
0.0862943
0.0855949
0.0852112
0.0845619
0.0841742
0.0835381
0.0831097
0.0824488
0.0819415
0.0812156
0.0805881
0.0797538
0.0789609