/*--------------------------------*- C++ -*----------------------------------*\
| =========                 |                                                 |
| \\      /  F ield         | foam-extend: Open Source CFD                    |
|  \\    /   O peration     | Version:  3.0                                   |
|   \\  /    A nd           | Web:         http://www.extend-project.de       |
|    \\/     M anipulation  |                                                 |
\*---------------------------------------------------------------------------*/
FoamFile
{
    version     2.0;
    format      ascii;
    class       volSymmTensorField;
    location    "11";
    object      sigma;
}
// * * * * * * * * * * * * * * * * * * * * * * * * * * * * * * * * * * * * * //

dimensions      [0 0 0 0 0 0 0];

internalField   nonuniform List<symmTensor> 
7680
(
(-0.179533 -0.00280426 3.81955e-22 0.179495 -1.13026e-21 3.82822e-05)
(-0.178893 -0.00315952 6.30876e-22 0.178785 -2.32903e-21 0.000108023)
(-0.176219 -0.00337976 1.63017e-22 0.176046 -5.60579e-21 0.000173183)
(-0.17219 -0.00350245 -3.58392e-22 0.171956 -6.27155e-21 0.000234322)
(-0.167276 -0.00355426 -5.12005e-22 0.166984 -5.86277e-21 0.000291887)
(-0.161803 -0.00355442 -1.22087e-21 0.161457 -3.83602e-21 0.000346221)
(-0.156 -0.0035169 -9.88749e-22 0.155602 -2.55163e-21 0.000397597)
(-0.150027 -0.00345198 -1.38549e-21 0.149581 -1.5011e-21 0.000446218)
(-0.143998 -0.00336724 -1.45156e-21 0.143505 7.79264e-22 0.000492241)
(-0.137992 -0.00326834 -6.87176e-22 0.137456 -5.8147e-22 0.000535772)
(-0.132064 -0.00315949 -8.73565e-22 0.131487 -2.61247e-21 0.000576881)
(-0.126253 -0.00304387 -8.3802e-22 0.125637 -3.2815e-21 0.000615602)
(-0.120584 -0.00292387 -1.51729e-21 0.119932 -3.07456e-21 0.000651941)
(-0.115073 -0.00280129 -3.40626e-21 0.114388 -2.04368e-23 0.000685873)
(-0.109733 -0.00267751 -7.2238e-21 0.109015 2.02997e-21 0.00071735)
(-0.104567 -0.00255355 -7.94477e-21 0.10382 3.76066e-21 0.000746296)
(-0.0995786 -0.0024302 -8.28479e-21 0.098806 6.95314e-21 0.000772613)
(-0.0947685 -0.00230806 -9.3548e-21 0.0939723 9.71633e-21 0.000796181)
(-0.0901353 -0.00218757 -1.26327e-20 0.0893185 1.12025e-20 0.000816856)
(-0.085677 -0.00206908 -1.51021e-20 0.0848425 1.20226e-20 0.000834471)
(-0.0813908 -0.00195286 -2.15881e-20 0.080542 1.12246e-20 0.000848838)
(-0.0772739 -0.00183913 -2.28258e-20 0.0764142 1.20483e-20 0.000859747)
(-0.0733233 -0.00172807 -2.34286e-20 0.0724563 1.41353e-20 0.00086696)
(-0.0695361 -0.00161983 -2.28287e-20 0.0686659 1.62276e-20 0.00087022)
(-0.0659099 -0.00151455 -2.26402e-20 0.0650406 1.70699e-20 0.000869242)
(-0.0624424 -0.0014124 -2.24879e-20 0.0615787 2.09296e-20 0.000863717)
(-0.059132 -0.00131352 -2.06734e-20 0.0582787 2.36207e-20 0.000853309)
(-0.0559775 -0.0012181 -1.6474e-20 0.0551399 2.27136e-20 0.000837654)
(-0.0529783 -0.00112633 -1.69358e-20 0.0521619 1.91554e-20 0.000816359)
(-0.0501344 -0.00103844 -1.91276e-20 0.0493454 1.54318e-20 0.000789002)
(-0.0474466 -0.000954711 -1.87692e-20 0.0466914 1.25178e-20 0.00075513)
(-0.0449164 -0.000875445 -1.3597e-20 0.0442022 9.8253e-21 0.000714254)
(-0.0425463 -0.00080099 -5.87391e-21 0.0418805 6.73938e-21 0.000665856)
(-0.0403396 -0.000731744 -2.50054e-21 0.0397303 7.72734e-21 0.000609379)
(-0.0383007 -0.000668125 -1.06236e-20 0.0377564 8.09646e-21 0.000544234)
(-0.036435 -0.000610578 -1.58125e-20 0.0359652 6.94126e-21 0.000469787)
(-0.0347495 -0.000559537 -1.59707e-20 0.0343641 2.71971e-21 0.000385374)
(-0.0332525 -0.000515439 -6.39641e-21 0.0329622 3.02453e-21 0.000290279)
(-0.0319539 -0.000478829 -3.88652e-21 0.0317701 6.88224e-22 0.000183759)
(-0.0308646 -0.000450848 -1.14846e-21 0.0307995 -1.37259e-21 6.5011e-05)
(-0.179382 -0.00826913 1.06213e-21 0.179344 -1.66702e-21 3.82198e-05)
(-0.178637 -0.0094248 1.51515e-21 0.178529 -2.92136e-21 0.000107846)
(-0.175888 -0.010164 7.44369e-22 0.175716 -5.96001e-21 0.0001729)
(-0.171807 -0.0106026 1.0707e-21 0.171573 -6.12586e-21 0.000233939)
(-0.166856 -0.0108226 1.96171e-21 0.166565 -6.25545e-21 0.000291409)
(-0.161359 -0.0108834 1.76577e-21 0.161013 -3.76837e-21 0.000345654)
(-0.15554 -0.010828 1.46591e-21 0.155143 -2.51957e-21 0.000396945)
(-0.149559 -0.0106879 1.28108e-21 0.149113 -4.93603e-22 0.000445486)
(-0.143526 -0.0104866 1.02668e-21 0.143035 2.7758e-21 0.000491433)
(-0.137521 -0.0102414 -8.38003e-22 0.136986 7.47082e-22 0.000534891)
(-0.131596 -0.00996555 -1.45023e-21 0.13102 -2.14983e-21 0.000575931)
(-0.125791 -0.00966878 -7.24225e-22 0.125176 -2.16186e-21 0.000614588)
(-0.120129 -0.00935859 -7.0463e-22 0.119478 -4.28514e-22 0.000650867)
(-0.114627 -0.00904064 -2.14301e-21 0.113942 2.76679e-21 0.000684743)
(-0.109295 -0.00871923 -5.73331e-21 0.108579 6.77202e-21 0.000716167)
(-0.104139 -0.00839766 -6.35585e-21 0.103394 9.40372e-21 0.000745064)
(-0.0991608 -0.00807841 -6.2857e-21 0.0983895 1.39793e-20 0.000771337)
(-0.0943609 -0.00776342 -5.46355e-21 0.093566 1.27358e-20 0.000794866)
(-0.0897379 -0.00745414 -9.04229e-21 0.0889224 1.41403e-20 0.000815506)
(-0.0852896 -0.00715172 -1.45025e-20 0.0844565 1.2589e-20 0.000833092)
(-0.0810134 -0.00685702 -2.17862e-20 0.0801659 1.28727e-20 0.000847436)
(-0.0769061 -0.00657075 -2.15122e-20 0.0760478 1.37361e-20 0.000858326)
(-0.0729649 -0.00629347 -2.01707e-20 0.0720994 1.66179e-20 0.000865527)
(-0.0691868 -0.00602564 -1.96003e-20 0.068318 1.78177e-20 0.000868782)
(-0.0655693 -0.00576766 -2.334e-20 0.0647015 2.37658e-20 0.000867806)
(-0.0621102 -0.00551992 -1.59716e-20 0.0612479 2.82352e-20 0.000862291)
(-0.0588078 -0.00528276 -1.44859e-20 0.0579559 3.13401e-20 0.000851901)
(-0.0556608 -0.00505658 -1.50415e-20 0.0548245 2.6943e-20 0.000836273)
(-0.0526687 -0.00484176 -1.84919e-20 0.0518537 2.31483e-20 0.000815015)
(-0.0498315 -0.00463874 -1.99348e-20 0.0490438 2.03872e-20 0.000787705)
(-0.04715 -0.00444799 -2.04539e-20 0.0463961 1.94413e-20 0.000753889)
(-0.0446257 -0.00427003 -2.06082e-20 0.0439127 1.81884e-20 0.000713083)
(-0.0422611 -0.00410547 -1.12322e-20 0.0415963 1.05114e-20 0.000664766)
(-0.0400594 -0.00395492 1.83258e-21 0.039451 3.89733e-21 0.000608384)
(-0.0380249 -0.00381908 -6.11284e-21 0.0374816 9.76802e-21 0.000543347)
(-0.0361633 -0.00369863 -1.2856e-20 0.0356943 1.1178e-20 0.000469024)
(-0.0344814 -0.00359429 -1.97797e-20 0.0340967 1.07235e-20 0.00038475)
(-0.0329874 -0.0035068 -6.72843e-21 0.0326976 1.14174e-20 0.000289811)
(-0.0316912 -0.00343725 -7.38805e-21 0.0315077 6.99049e-21 0.000183464)
(-0.0306033 -0.00338825 -5.31469e-21 0.0305384 3.02559e-21 6.49071e-05)
(-0.179092 -0.0137319 1.68681e-21 0.179054 -2.26582e-21 3.8119e-05)
(-0.178136 -0.0156711 2.39919e-21 0.178029 -4.22847e-21 0.000107562)
(-0.175237 -0.016917 1.26582e-21 0.175064 -5.68243e-21 0.000172445)
(-0.171048 -0.0176624 2.84014e-21 0.170815 -6.66285e-21 0.000233323)
(-0.166023 -0.0180442 3.00228e-21 0.165733 -5.85763e-21 0.000290641)
(-0.160476 -0.018161 4.10478e-21 0.160131 -3.8446e-21 0.000344742)
(-0.154626 -0.0180845 3.62814e-21 0.15423 -2.87954e-21 0.000395897)
(-0.148626 -0.0178671 4.96184e-21 0.148182 -8.07911e-22 0.000444308)
(-0.142586 -0.0175479 5.89306e-21 0.142096 1.02746e-21 0.000490131)
(-0.136581 -0.0171558 -1.13968e-22 0.136048 -4.24472e-22 0.000533472)
(-0.130663 -0.0167127 -3.24655e-21 0.130089 -1.10099e-21 0.000574401)
(-0.124868 -0.016235 2.48946e-22 0.124255 -6.64983e-22 0.000612953)
(-0.11922 -0.0157351 3.35506e-21 0.118571 1.03707e-21 0.000649133)
(-0.113734 -0.0152224 1.25251e-21 0.113052 7.46151e-21 0.000682916)
(-0.10842 -0.0147042 -4.05233e-21 0.107706 1.61234e-20 0.000714254)
(-0.103283 -0.0141859 -5.07052e-21 0.10254 1.9016e-20 0.000743072)
(-0.0983246 -0.0136718 7.77679e-22 0.0975554 1.88891e-20 0.000769273)
(-0.0935446 -0.013165 -9.37956e-21 0.0927519 1.68003e-20 0.000792737)
(-0.0889417 -0.012668 -5.48452e-21 0.0881283 1.29249e-20 0.00081332)
(-0.0845133 -0.0121828 -1.62935e-20 0.0836824 1.48883e-20 0.000830857)
(-0.0802566 -0.0117107 -1.97711e-20 0.0794115 1.52344e-20 0.00084516)
(-0.0761686 -0.011253 -2.1472e-20 0.0753125 1.84701e-20 0.00085602)
(-0.072246 -0.0108106 -1.84226e-20 0.0713828 2.15661e-20 0.000863201)
(-0.0684859 -0.0103842 -2.14479e-20 0.0676195 2.67915e-20 0.000866446)
(-0.0648857 -0.00997449 -1.0678e-20 0.0640203 3.3801e-20 0.000865473)
(-0.0614432 -0.00958212 -1.14162e-20 0.0605833 3.8957e-20 0.000859973)
(-0.0581566 -0.0092076 -1.13611e-20 0.057307 4.1234e-20 0.000849611)
(-0.0550246 -0.00885152 -2.01742e-20 0.0541906 3.57531e-20 0.000834026)
(-0.0520466 -0.00851445 -1.89573e-20 0.0512338 3.03263e-20 0.000812825)
(-0.0492227 -0.00819701 -1.85365e-20 0.0484371 2.71531e-20 0.00078559)
(-0.0465536 -0.00789989 -1.48521e-20 0.0458017 2.78545e-20 0.000751867)
(-0.0440407 -0.00762383 -1.61323e-20 0.0433296 3.25651e-20 0.000711172)
(-0.0416866 -0.00736964 -2.32561e-20 0.0410236 2.37152e-20 0.000662988)
(-0.0394944 -0.00713819 -1.21974e-20 0.0388876 7.48301e-21 0.000606759)
(-0.0374684 -0.00693041 7.07275e-22 0.0369265 1.89265e-20 0.000541899)
(-0.0356143 -0.00674725 -8.86716e-21 0.0351465 1.86762e-20 0.000467776)
(-0.0339386 -0.00658968 -1.17202e-20 0.0335549 2.02726e-20 0.000383728)
(-0.0324495 -0.00645874 -2.07885e-21 0.0321605 2.09189e-20 0.000289043)
(-0.0311566 -0.00635602 -4.94596e-21 0.0309737 1.02991e-20 0.000182979)
(-0.03007 -0.00628551 -8.41091e-22 0.0300053 3.31339e-21 6.47357e-05)
(-0.178663 -0.019192 2.33504e-21 0.178625 -3.05917e-21 3.79771e-05)
(-0.177392 -0.0218865 3.92979e-21 0.177285 -5.99292e-21 0.000107162)
(-0.174267 -0.0236185 2.43908e-21 0.174095 -5.31958e-21 0.000171804)
(-0.169919 -0.0246557 3.66393e-21 0.169686 -6.91062e-21 0.000232456)
(-0.164783 -0.0251885 4.69168e-21 0.164493 -3.67137e-21 0.000289562)
(-0.159161 -0.0253536 6.10979e-21 0.158817 -3.77382e-21 0.000343461)
(-0.153263 -0.0252506 4.99484e-21 0.152869 -2.93174e-21 0.000394424)
(-0.147237 -0.0249523 5.89273e-21 0.146794 -8.4217e-22 0.000442654)
(-0.141186 -0.024513 4.81112e-21 0.140697 7.86193e-23 0.000488304)
(-0.135181 -0.0239729 -2.59713e-21 0.134649 1.38282e-21 0.000531482)
(-0.129272 -0.0233622 -3.66186e-21 0.1287 2.82775e-21 0.000572257)
(-0.123492 -0.0227038 -6.20373e-22 0.122882 2.44442e-21 0.000610663)
(-0.117865 -0.0220149 4.81109e-21 0.117218 2.04323e-21 0.000646706)
(-0.112403 -0.0213086 1.03532e-20 0.111723 1.12541e-20 0.000680361)
(-0.107115 -0.0205949 1.13774e-20 0.106404 2.03931e-20 0.00071158)
(-0.102006 -0.0198814 2.77411e-21 0.101266 2.33639e-20 0.000740288)
(-0.0970768 -0.019174 4.40443e-21 0.0963105 1.40376e-20 0.000766389)
(-0.0923265 -0.0184772 -4.7438e-21 0.0915367 1.75134e-20 0.000789763)
(-0.0877533 -0.0177943 -1.44819e-20 0.086943 1.63232e-20 0.000810267)
(-0.0833546 -0.017128 -1.11422e-20 0.0825268 1.96403e-20 0.000827738)
(-0.0791271 -0.0164803 -2.23226e-20 0.0782851 2.24469e-20 0.000841986)
(-0.0750675 -0.0158529 -1.71588e-20 0.0742147 2.67321e-20 0.000852805)
(-0.0711727 -0.015247 -1.35009e-20 0.0703127 2.93324e-20 0.000859958)
(-0.0674395 -0.0146638 -4.71875e-21 0.0665763 3.27512e-20 0.000863192)
(-0.0638651 -0.014104 -7.18787e-22 0.0630029 3.63513e-20 0.000862222)
(-0.0604473 -0.0135685 6.5303e-21 0.0595906 4.1115e-20 0.000856743)
(-0.0571842 -0.0130581 1.76211e-21 0.0563378 4.51452e-20 0.000846421)
(-0.0540746 -0.0125735 -1.5473e-20 0.0532437 4.37493e-20 0.000830896)
(-0.0511176 -0.0121154 -2.09129e-20 0.0503079 3.86137e-20 0.000809778)
(-0.0483134 -0.0116847 -2.15575e-20 0.0475308 4.01044e-20 0.000782647)
(-0.0456626 -0.0112822 -8.03059e-21 0.0449136 3.5186e-20 0.000749053)
(-0.0431667 -0.0109089 5.38565e-21 0.0424582 3.10275e-20 0.000708513)
(-0.040828 -0.0105658 -2.19265e-20 0.0401675 3.27255e-20 0.000660512)
(-0.0386498 -0.0102541 -2.82477e-20 0.0380453 2.65449e-20 0.000604496)
(-0.0366363 -0.00997476 1.8074e-20 0.0360964 3.03586e-20 0.000539881)
(-0.0347928 -0.00972911 -9.68996e-22 0.0343268 2.29445e-20 0.000466036)
(-0.033126 -0.00951832 -3.29464e-21 0.0327437 2.14615e-20 0.000382303)
(-0.0316438 -0.00934371 6.55143e-21 0.0313558 1.69373e-20 0.000287972)
(-0.0303552 -0.00920734 -1.33241e-20 0.0301729 3.5809e-22 0.000182302)
(-0.0292699 -0.00911437 -5.65879e-21 0.0292054 -6.18891e-21 6.44961e-05)
(-0.178093 -0.0246486 2.5195e-21 0.178056 -2.90518e-21 3.77947e-05)
(-0.176407 -0.0280593 4.5739e-21 0.1763 -4.73473e-21 0.000106648)
(-0.172984 -0.0302487 4.57341e-21 0.172813 -6.19592e-21 0.00017098)
(-0.168425 -0.0315569 2.55764e-21 0.168194 -1.2128e-21 0.000231341)
(-0.163143 -0.0322255 6.41793e-21 0.162855 -1.55465e-22 0.000288172)
(-0.157422 -0.0324282 6.60846e-21 0.157081 -3.61768e-21 0.000341812)
(-0.151462 -0.0322912 6.34499e-21 0.15107 -2.38693e-21 0.000392529)
(-0.145401 -0.0319072 8.16764e-21 0.14496 1.55857e-22 0.000440526)
(-0.139334 -0.0313447 6.92121e-21 0.138848 2.6382e-21 0.000485956)
(-0.13333 -0.0306549 -1.1828e-21 0.132801 7.96471e-21 0.000528924)
(-0.127433 -0.0298762 -3.64371e-21 0.126863 9.15915e-21 0.000569502)
(-0.121674 -0.0290374 -3.93758e-21 0.121066 9.38401e-21 0.000607721)
(-0.116073 -0.0281604 3.23303e-21 0.11543 6.04505e-21 0.000643588)
(-0.110643 -0.0272619 2.12366e-20 0.109966 9.0494e-21 0.00067708)
(-0.105391 -0.0263545 2.08688e-20 0.104683 1.46909e-20 0.000708146)
(-0.100319 -0.025448 1.10853e-20 0.099582 1.42772e-20 0.000736715)
(-0.0954278 -0.0245496 -5.86604e-21 0.0946651 9.66085e-21 0.000762688)
(-0.0907166 -0.023665 8.66585e-22 0.0899307 1.60581e-20 0.000785948)
(-0.0861828 -0.0227986 -4.7966e-21 0.0853765 1.98226e-20 0.000806353)
(-0.0818232 -0.0219537 -7.22639e-21 0.0809995 2.36435e-20 0.000823738)
(-0.0776343 -0.0211329 -1.78135e-20 0.0767964 3.55148e-20 0.000837917)
(-0.0736125 -0.0203382 -1.45362e-20 0.0727638 3.6751e-20 0.000848683)
(-0.0697543 -0.0195713 -3.33673e-21 0.0688985 2.68873e-20 0.000855802)
(-0.0660566 -0.0188335 -3.02277e-21 0.0651976 2.81977e-20 0.000859021)
(-0.0625164 -0.0181258 7.56692e-22 0.0616584 4.03403e-20 0.000858057)
(-0.0591313 -0.0174493 8.62661e-21 0.0582787 4.02499e-20 0.000852606)
(-0.0558994 -0.016805 1.7962e-20 0.055057 3.64219e-20 0.000842336)
(-0.0528192 -0.0161937 -4.23622e-21 0.0519923 4.25225e-20 0.000826888)
(-0.0498901 -0.0156163 -1.3488e-20 0.0490842 4.27573e-20 0.000805874)
(-0.0471119 -0.0150739 8.74753e-22 0.046333 3.76884e-20 0.000778876)
(-0.0444853 -0.0145674 7.81099e-22 0.0437399 1.7029e-20 0.000745448)
(-0.0420117 -0.0140981 6.89728e-21 0.0413066 6.32224e-21 0.000705107)
(-0.0396934 -0.0136671 9.60324e-21 0.0390361 1.40462e-20 0.00065734)
(-0.0375336 -0.0132758 -4.74546e-21 0.036932 2.25394e-20 0.000601597)
(-0.0355362 -0.0129254 2.74389e-20 0.0349989 1.54749e-20 0.000537295)
(-0.0337067 -0.0126176 1.14391e-20 0.0332429 -6.66888e-21 0.000463807)
(-0.0320513 -0.0123535 1.38931e-20 0.0316708 -1.36066e-20 0.000380477)
(-0.0305777 -0.012135 8.88308e-21 0.0302911 -1.58148e-20 0.000286598)
(-0.0292946 -0.0119643 -2.81887e-20 0.0291132 -2.0422e-20 0.000181433)
(-0.0282108 -0.0118475 -1.72231e-20 0.0281466 -1.0376e-20 6.41886e-05)
(-0.177382 -0.0301009 3.10549e-21 0.177345 -1.74134e-21 3.75719e-05)
(-0.175184 -0.0341781 4.46526e-21 0.175078 -2.04661e-22 0.00010602)
(-0.171395 -0.0367885 4.84667e-21 0.171225 -1.56133e-21 0.000169972)
(-0.166577 -0.0383411 7.76696e-21 0.166347 2.71704e-21 0.000229978)
(-0.161114 -0.0391264 5.65369e-21 0.160828 3.56731e-21 0.000286474)
(-0.155273 -0.0393529 1.2663e-21 0.154933 3.15823e-21 0.000339797)
(-0.149236 -0.0391725 5.10598e-21 0.148846 2.19519e-21 0.000390215)
(-0.143131 -0.0386964 1.03309e-20 0.142693 1.38864e-21 0.000437927)
(-0.137046 -0.0380068 1.33404e-20 0.136563 2.37561e-21 0.000483088)
(-0.131043 -0.0371653 5.4789e-21 0.130517 1.21346e-20 0.000525802)
(-0.125161 -0.0362178 -3.0702e-21 0.124595 1.64509e-20 0.000566138)
(-0.119428 -0.035199 -3.39874e-21 0.118824 1.64946e-20 0.00060413)
(-0.113861 -0.0341352 -2.17227e-21 0.113221 1.11328e-20 0.000639784)
(-0.10847 -0.0330464 1.85434e-20 0.107797 5.6294e-21 0.000673076)
(-0.10326 -0.0319476 3.01733e-20 0.102557 2.52692e-21 0.000703958)
(-0.0982344 -0.0308506 1.33807e-20 0.097502 1.00981e-21 0.000732356)
(-0.0933911 -0.029764 -6.5111e-22 0.0926329 8.6914e-21 0.000758175)
(-0.0887284 -0.0286947 1.16247e-20 0.0879471 9.89611e-21 0.000781297)
(-0.0842433 -0.0276479 6.72816e-21 0.0834418 9.80248e-21 0.000801579)
(-0.0799321 -0.0266276 1.19752e-20 0.0791133 1.5788e-20 0.000818862)
(-0.0757909 -0.0256367 1.50657e-20 0.074958 2.7795e-20 0.000832957)
(-0.0718159 -0.0246779 2.86921e-21 0.0709722 2.35601e-20 0.00084366)
(-0.0680031 -0.0237529 -1.80139e-20 0.0671524 1.76809e-20 0.000850738)
(-0.0643493 -0.0228634 5.55171e-21 0.0634954 2.39561e-20 0.000853938)
(-0.0608514 -0.0220106 3.52693e-20 0.0599984 2.92288e-20 0.000852981)
(-0.0575068 -0.0211958 1.93349e-20 0.0566592 3.00183e-20 0.000847565)
(-0.0543133 -0.02042 2.114e-20 0.053476 1.63517e-20 0.000837358)
(-0.0512697 -0.0196843 2.12451e-20 0.0504477 2.76197e-20 0.000822004)
(-0.0483749 -0.0189898 -2.41715e-21 0.0475738 3.43973e-20 0.000801117)
(-0.045629 -0.0183376 -1.25858e-20 0.0448547 1.77546e-20 0.000774283)
(-0.0430323 -0.0177289 -2.86942e-20 0.0422913 -9.68967e-21 0.000741055)
(-0.0405863 -0.017165 -9.23092e-21 0.0398854 -8.3681e-21 0.000700956)
(-0.0382932 -0.0166473 1.17613e-20 0.0376397 -1.19215e-20 0.000653474)
(-0.0361559 -0.0161774 5.9291e-21 0.0355578 -4.44212e-21 0.000598063)
(-0.0341784 -0.0157567 2.62348e-20 0.0336443 -2.80155e-20 0.000534142)
(-0.0323659 -0.0153869 -2.97352e-20 0.0319048 -4.059e-20 0.000461089)
(-0.0307244 -0.0150697 -1.84392e-20 0.0303461 -4.12058e-20 0.00037825)
(-0.0292613 -0.0148069 4.94036e-21 0.0289764 -4.78429e-20 0.000284921)
(-0.0279848 -0.014601 -2.36749e-20 0.0278044 -4.42268e-20 0.000180372)
(-0.0269029 -0.014459 -1.53106e-20 0.0268391 -7.46943e-21 6.38134e-05)
(-0.176528 -0.0355477 4.44917e-21 0.176491 -1.46715e-22 3.7309e-05)
(-0.173727 -0.0402315 7.75937e-21 0.173621 -4.38808e-22 0.000105278)
(-0.169507 -0.0432192 6.41927e-21 0.169338 1.88787e-21 0.000168783)
(-0.164384 -0.0449844 8.86376e-21 0.164156 6.04418e-21 0.000228369)
(-0.15871 -0.0458632 9.11768e-21 0.158426 5.14179e-21 0.000284469)
(-0.152726 -0.0460972 6.44633e-21 0.152389 4.56759e-21 0.000337419)
(-0.1466 -0.0458619 6.64361e-21 0.146212 2.48706e-21 0.000387483)
(-0.140444 -0.045286 8.07065e-21 0.140009 2.7891e-21 0.00043486)
(-0.134339 -0.0444647 1.38545e-20 0.133859 3.15913e-21 0.000479704)
(-0.128337 -0.0434689 1.93791e-20 0.127815 8.54845e-21 0.000522117)
(-0.122473 -0.0423519 1.19877e-20 0.121911 1.12694e-20 0.000562169)
(-0.116771 -0.0411537 2.48085e-21 0.116171 1.43686e-20 0.000599894)
(-0.111244 -0.0399046 -7.9974e-21 0.110608 1.49545e-20 0.000635297)
(-0.1059 -0.0386276 5.73655e-21 0.105231 8.81316e-21 0.000668354)
(-0.100742 -0.0373402 2.28651e-20 0.100043 -7.63473e-21 0.000699018)
(-0.0957703 -0.0360558 1.58639e-20 0.095043 -8.09084e-21 0.000727216)
(-0.0909835 -0.0347845 1.60452e-20 0.0902307 -4.66878e-21 0.000752854)
(-0.0863784 -0.0335341 1.54703e-20 0.0856026 -7.22591e-21 0.000775812)
(-0.0819511 -0.0323106 1.46781e-20 0.0811551 -1.52151e-20 0.000795953)
(-0.0776973 -0.0311185 2.34168e-20 0.0768842 -8.65695e-21 0.000813114)
(-0.0736127 -0.0299614 2.54156e-20 0.0727856 8.79741e-22 0.000827111)
(-0.069693 -0.028842 -1.0674e-21 0.0688553 2.73776e-21 0.000837739)
(-0.0659342 -0.0277625 -1.42311e-20 0.0650894 1.60192e-20 0.000844769)
(-0.0623324 -0.0267248 8.29882e-21 0.0614845 1.43898e-20 0.000847948)
(-0.0588846 -0.0257302 3.10962e-20 0.0580376 3.03073e-21 0.000847)
(-0.055588 -0.0247802 3.36798e-20 0.0547463 1.97985e-22 0.000841624)
(-0.0524402 -0.023876 1.3658e-20 0.0516087 -8.99006e-21 0.000831491)
(-0.0494399 -0.0230188 4.21741e-20 0.0486236 8.61295e-22 0.000816248)
(-0.0465859 -0.0222096 5.11398e-21 0.0457904 3.33028e-20 0.000795512)
(-0.0438781 -0.02145 -3.38773e-20 0.0431092 2.06902e-20 0.000768869)
(-0.0413169 -0.0207411 -8.0309e-20 0.040581 1.93228e-20 0.000735878)
(-0.0389036 -0.0200845 -2.35395e-20 0.0382075 1.21134e-20 0.000696063)
(-0.0366401 -0.0194816 -1.27523e-20 0.0359912 -5.60505e-21 0.000648918)
(-0.0345295 -0.0189342 -2.1734e-20 0.0339356 5.77805e-21 0.000593897)
(-0.0325755 -0.018444 -3.7094e-20 0.0320451 -2.22381e-20 0.000530425)
(-0.030783 -0.0180129 -3.88781e-20 0.0303251 -2.52984e-20 0.000457883)
(-0.0291578 -0.0176426 -3.85817e-20 0.0287822 -2.17191e-20 0.000375623)
(-0.0277071 -0.0173351 -4.64843e-20 0.0274241 -3.20872e-20 0.000282944)
(-0.0264384 -0.0170933 -5.5179e-20 0.0262593 -2.35328e-20 0.000179121)
(-0.025359 -0.0169245 2.71849e-21 0.0252956 6.45905e-21 6.33706e-05)
(-0.175528 -0.0409878 4.69037e-21 0.175491 1.67473e-21 3.70061e-05)
(-0.17204 -0.0462088 9.537e-21 0.171936 -8.07111e-22 0.000104423)
(-0.16733 -0.049523 9.84545e-21 0.167162 2.52955e-21 0.000167413)
(-0.16186 -0.0514638 1.33067e-20 0.161634 4.67573e-21 0.000226515)
(-0.155946 -0.0524095 1.20002e-20 0.155663 2.75551e-23 0.00028216)
(-0.149801 -0.0526319 6.98191e-21 0.149466 -2.22869e-22 0.000334679)
(-0.143573 -0.0523285 4.31564e-21 0.143188 2.65536e-21 0.000384336)
(-0.137361 -0.051644 9.94768e-21 0.136929 2.89569e-21 0.000431329)
(-0.131232 -0.0506855 1.37801e-20 0.130757 4.92176e-21 0.000475807)
(-0.125233 -0.0495327 1.92021e-20 0.124715 4.52351e-21 0.000517874)
(-0.119391 -0.0482452 6.13271e-21 0.118833 1.05105e-20 0.0005576)
(-0.113724 -0.0468681 8.28827e-21 0.113129 1.04981e-20 0.000595017)
(-0.108244 -0.0454354 -3.99836e-21 0.107613 1.63416e-20 0.000630131)
(-0.102953 -0.0439729 2.49895e-21 0.102291 8.90649e-21 0.000662919)
(-0.0978549 -0.0425001 2.17237e-21 0.0971616 -7.18551e-21 0.000693333)
(-0.0929464 -0.041032 8.2221e-21 0.0922251 -8.68207e-21 0.000721301)
(-0.0882248 -0.0395799 2.09131e-21 0.0874781 -1.11804e-20 0.00074673)
(-0.083686 -0.0381526 6.28687e-21 0.0829165 -1.905e-20 0.000769502)
(-0.0793252 -0.0367566 -1.2919e-20 0.0785357 -2.42433e-20 0.000789478)
(-0.0751375 -0.0353971 1.23979e-20 0.074331 -1.58056e-20 0.0008065)
(-0.0711181 -0.034078 3.05923e-20 0.0702977 -1.1416e-20 0.000820384)
(-0.0672621 -0.0328024 9.77791e-21 0.0664311 -3.85118e-21 0.000830927)
(-0.0635652 -0.0315726 4.87879e-21 0.0627273 9.98231e-21 0.000837901)
(-0.0600234 -0.0303907 -7.81337e-21 0.0591823 9.95697e-21 0.000841057)
(-0.0566332 -0.0292582 6.16838e-21 0.0557931 -4.94365e-21 0.000840119)
(-0.0533917 -0.0281767 2.01753e-20 0.0525569 -2.15353e-20 0.00083479)
(-0.0502966 -0.0271475 -1.00648e-20 0.0494718 -9.72579e-21 0.000824742)
(-0.047346 -0.0261719 3.50626e-20 0.0465364 2.06022e-21 0.000809627)
(-0.0445389 -0.0252512 7.92092e-20 0.0437499 2.17056e-20 0.000789062)
(-0.0418751 -0.0243868 3.47102e-21 0.0411124 8.30186e-21 0.00076264)
(-0.0393546 -0.0235801 -2.93684e-20 0.0386247 3.03106e-20 0.000729921)
(-0.0369788 -0.0228328 -4.10094e-20 0.0362884 2.60805e-20 0.000690433)
(-0.0347495 -0.0221465 -3.45225e-20 0.0341058 2.29824e-20 0.000643673)
(-0.0326695 -0.021523 1.73423e-20 0.0320804 1.86996e-20 0.000589101)
(-0.0307424 -0.0209643 -4.86961e-20 0.0302162 1.15401e-20 0.000526146)
(-0.0289728 -0.0204724 -6.606e-20 0.0285186 1.38828e-20 0.000454192)
(-0.0273663 -0.0200491 -5.30859e-20 0.0269937 2.78568e-20 0.000372597)
(-0.0259296 -0.0196968 -4.73572e-20 0.025649 1.43816e-20 0.000280666)
(-0.02467 -0.0194183 -3.22003e-20 0.0244924 -2.73979e-22 0.000177679)
(-0.0235941 -0.0192212 1.05741e-20 0.0235312 9.47848e-21 6.28605e-05)
(-0.174381 -0.0464194 3.772e-21 0.174345 4.21173e-21 3.66638e-05)
(-0.17013 -0.0520995 9.66421e-21 0.170026 9.64916e-22 0.000103457)
(-0.164874 -0.0556831 1.25598e-20 0.164708 8.86302e-22 0.000165864)
(-0.15902 -0.0577578 1.49966e-20 0.158795 -3.56948e-23 0.000224419)
(-0.152839 -0.0587402 7.2827e-21 0.152559 1.03128e-21 0.000279549)
(-0.146516 -0.0589296 3.46452e-21 0.146185 4.12443e-21 0.000331582)
(-0.140176 -0.0585433 7.29837e-21 0.139795 2.35595e-21 0.000380779)
(-0.133902 -0.0577403 9.27424e-21 0.133475 2.21971e-21 0.000427335)
(-0.12775 -0.0566385 1.32691e-20 0.127278 7.12962e-21 0.000471401)
(-0.121754 -0.0553254 1.65791e-20 0.121241 1.04492e-20 0.000513078)
(-0.115937 -0.0538665 6.48507e-21 0.115385 2.25248e-20 0.000552435)
(-0.110312 -0.0523112 -3.63767e-21 0.109722 2.23376e-20 0.000589505)
(-0.104884 -0.0506969 -6.02685e-21 0.104259 2.19787e-20 0.000624293)
(-0.0996548 -0.0490517 -1.53713e-20 0.098998 1.72451e-20 0.000656776)
(-0.0946233 -0.0473971 -1.60173e-20 0.0939364 6.73491e-21 0.000686908)
(-0.0897858 -0.0457495 5.55782e-21 0.0890712 -3.64836e-21 0.000714617)
(-0.0851376 -0.0441211 -4.93203e-21 0.0843978 -4.27069e-21 0.000739809)
(-0.0806734 -0.0425216 -4.95477e-21 0.0799111 -1.80703e-20 0.00076237)
(-0.0763875 -0.040958 -2.31513e-20 0.0756054 -9.25074e-21 0.000782162)
(-0.0722742 -0.039436 -7.1918e-22 0.0714752 2.05647e-21 0.000799027)
(-0.068328 -0.0379598 1.60264e-20 0.0675153 -1.62711e-21 0.000812784)
(-0.0645437 -0.0365327 7.3786e-21 0.0637205 1.90126e-21 0.000823231)
(-0.0609165 -0.0351573 1.86902e-20 0.0600864 3.27108e-23 0.000830142)
(-0.0574421 -0.0338358 4.0542e-21 0.0566089 6.40175e-21 0.000833271)
(-0.0541168 -0.0325698 -1.68002e-20 0.0532844 1.22318e-21 0.000832345)
(-0.0509374 -0.0313609 -5.60486e-21 0.0501103 -1.75049e-20 0.000827068)
(-0.0479013 -0.0302106 -1.66082e-21 0.0470842 1.63106e-20 0.000817117)
(-0.0450067 -0.0291203 1.01541e-20 0.0442046 3.94448e-20 0.000802145)
(-0.0422524 -0.0280914 3.90497e-20 0.0414707 3.02649e-20 0.000781775)
(-0.0396379 -0.0271253 -2.8714e-20 0.0388823 1.53546e-20 0.000755601)
(-0.0371633 -0.0262235 -7.45631e-21 0.0364401 1.47206e-20 0.000723188)
(-0.0348297 -0.0253879 -3.17034e-21 0.0341456 8.56121e-21 0.000684069)
(-0.0326387 -0.0246201 -1.04955e-20 0.032001 1.25628e-20 0.000637745)
(-0.0305931 -0.0239222 1.4779e-20 0.0300094 -1.91113e-20 0.000583679)
(-0.0286961 -0.0232962 -1.37573e-20 0.0281748 1.34313e-20 0.000521307)
(-0.0269522 -0.0227442 -1.44921e-20 0.0265022 1.91475e-20 0.000450018)
(-0.0253667 -0.0222684 6.77429e-21 0.0249975 2.47269e-20 0.000369175)
(-0.0239458 -0.021871 -5.04694e-20 0.0236677 8.8981e-21 0.000278089)
(-0.0226966 -0.0215552 -9.42536e-20 0.0225206 2.15614e-20 0.000176049)
(-0.021625 -0.0213284 1.5245e-20 0.0215628 1.97468e-20 6.22836e-05)
(-0.173084 -0.0518407 5.3958e-21 0.173048 -2.3654e-22 3.62821e-05)
(-0.168001 -0.0578936 1.17033e-20 0.167899 -4.42306e-21 0.00010238)
(-0.162152 -0.0616836 1.15487e-20 0.161988 1.23098e-21 0.000164138)
(-0.155879 -0.0638463 1.16948e-20 0.155657 6.00363e-21 0.000222083)
(-0.14941 -0.0648323 9.06236e-21 0.149133 6.09451e-21 0.000276639)
(-0.142894 -0.0649651 1.26041e-20 0.142566 -2.55676e-21 0.00032813)
(-0.136434 -0.0644794 6.3891e-21 0.136057 -1.54698e-21 0.000376814)
(-0.130094 -0.0635471 9.80776e-21 0.129671 1.43878e-21 0.000422885)
(-0.123917 -0.0622952 1.26502e-20 0.12345 1.34518e-20 0.000466491)
(-0.117927 -0.0608183 1.68994e-20 0.117419 2.48562e-20 0.000507734)
(-0.112139 -0.0591869 2.33005e-20 0.111592 2.90591e-20 0.00054668)
(-0.10656 -0.0574543 1.00565e-20 0.105976 2.7248e-20 0.000583363)
(-0.101191 -0.0556605 -4.45698e-21 0.100573 2.80788e-20 0.000617788)
(-0.0960298 -0.053836 -3.65474e-21 0.0953799 1.87621e-20 0.000649932)
(-0.0910727 -0.0520036 -2.05137e-20 0.090393 1.27149e-20 0.00067975)
(-0.086314 -0.050181 -1.52422e-20 0.0856068 6.82407e-21 0.00070717)
(-0.0817471 -0.0483813 -6.56773e-21 0.081015 1.69875e-21 0.0007321)
(-0.0773655 -0.0466148 -2.00915e-20 0.0766111 -9.03594e-21 0.000754426)
(-0.0731625 -0.044889 -1.63953e-20 0.0723885 6.15445e-21 0.000774013)
(-0.0691314 -0.04321 2.46829e-21 0.0683407 2.21984e-20 0.000790703)
(-0.0652662 -0.0415821 3.03808e-21 0.0644619 2.17979e-20 0.000804318)
(-0.0615611 -0.0400088 1.69244e-21 0.0607464 1.40432e-20 0.000814658)
(-0.0580108 -0.038493 2.45665e-21 0.0571893 -2.48069e-21 0.000821499)
(-0.0546109 -0.0370368 1.73609e-20 0.0537863 -2.92878e-21 0.000824598)
(-0.0513572 -0.0356421 -6.2434e-21 0.0505335 6.0304e-22 0.000823684)
(-0.0482463 -0.0343105 -3.20699e-20 0.0474278 3.74624e-21 0.000818466)
(-0.0452755 -0.0330435 3.92199e-20 0.0444669 3.37896e-20 0.000808622)
(-0.0424428 -0.0318425 8.15016e-20 0.041649 3.95981e-20 0.00079381)
(-0.0397468 -0.030709 8.50974e-20 0.0389731 3.05297e-20 0.000773656)
(-0.0371868 -0.0296446 -7.46784e-21 0.036439 2.05586e-20 0.000747758)
(-0.0347628 -0.0286508 -2.8306e-20 0.0340471 -7.90234e-22 0.000715686)
(-0.0324757 -0.0277295 -3.17352e-20 0.0317987 -1.62405e-20 0.000676977)
(-0.0303271 -0.0268826 -7.80412e-21 0.029696 -3.08316e-20 0.000631137)
(-0.0283193 -0.026112 -3.68534e-20 0.0277417 -2.85772e-20 0.000577636)
(-0.0264556 -0.0254201 2.86497e-20 0.0259397 5.50851e-21 0.000515913)
(-0.0247401 -0.024809 -3.05909e-20 0.0242947 -2.1474e-21 0.000445364)
(-0.0231776 -0.0242811 -7.32435e-21 0.0228123 9.16494e-21 0.000365359)
(-0.0217744 -0.0238387 -3.5579e-20 0.0214992 3.03852e-20 0.000275216)
(-0.0205369 -0.0234851 -1.75152e-20 0.0203627 5.61968e-20 0.00017423)
(-0.0194708 -0.0232276 2.04748e-20 0.0194092 1.86354e-20 6.16401e-05)
(-0.171635 -0.0572492 9.5986e-21 0.171599 -1.13605e-20 3.58617e-05)
(-0.165661 -0.0635815 1.57263e-20 0.16556 -1.16164e-20 0.000101194)
(-0.159177 -0.0675097 1.83513e-20 0.159015 -2.19342e-21 0.000162235)
(-0.152457 -0.0697107 2.52945e-20 0.152238 -5.21013e-21 0.000219509)
(-0.145679 -0.0706644 1.39973e-20 0.145406 -3.76194e-21 0.000273433)
(-0.13896 -0.0707151 1.29251e-21 0.138635 -2.60296e-21 0.000324326)
(-0.132372 -0.0701123 2.51859e-21 0.132 1.40621e-21 0.000372446)
(-0.125964 -0.069039 -1.52907e-21 0.125546 1.71733e-20 0.000417983)
(-0.119762 -0.0676299 1.27778e-20 0.1193 2.88643e-20 0.000461083)
(-0.11378 -0.0659854 3.7872e-20 0.113278 2.14976e-20 0.000501846)
(-0.108025 -0.0641804 3.56975e-20 0.107485 1.85412e-20 0.000540341)
(-0.102497 -0.0622713 1.37092e-20 0.101921 2.3415e-20 0.000576598)
(-0.0971934 -0.0603005 -5.63046e-22 0.0965827 2.92855e-20 0.000610623)
(-0.0921072 -0.0583001 -2.13194e-20 0.0914648 2.3114e-20 0.000642394)
(-0.0872317 -0.0562944 -3.25009e-20 0.0865598 2.37695e-20 0.000671866)
(-0.082559 -0.0543018 -2.51734e-20 0.08186 2.53941e-20 0.000698968)
(-0.0780809 -0.0523363 -2.21408e-20 0.0773573 1.37706e-20 0.000723609)
(-0.0737894 -0.0504085 -4.0921e-20 0.0730438 1.46249e-20 0.000745677)