/*--------------------------------*- C++ -*----------------------------------*\
| =========                 |                                                 |
| \\      /  F ield         | foam-extend: Open Source CFD                    |
|  \\    /   O peration     | Version:  3.0                                   |
|   \\  /    A nd           | Web:         http://www.extend-project.de       |
|    \\/     M anipulation  |                                                 |
\*---------------------------------------------------------------------------*/
FoamFile
{
    version     2.0;
    format      ascii;
    class       volSymmTensorField;
    location    "7";
    object      sigma;
}
// * * * * * * * * * * * * * * * * * * * * * * * * * * * * * * * * * * * * * //

dimensions      [0 0 0 0 0 0 0];

internalField   nonuniform List<symmTensor> 
672
(
(-0.1727225294 -0.01042353608 -1.446520108e-19 0.1737530313 -1.572477696e-19 -0.001030501949)
(-0.1579387665 -0.01193174298 -5.594448991e-19 0.1605216123 -1.246788679e-20 -0.002582845841)
(-0.1392804688 -0.01175923958 -1.213728268e-19 0.1431683099 -4.525133615e-20 -0.003887841059)
(-0.1193577595 -0.01086533056 -3.466194181e-20 0.1243342992 2.759958621e-19 -0.004976539764)
(-0.1012422591 -0.009766873782 -6.626468271e-19 0.1071362363 3.568009703e-19 -0.005893977239)
(-0.08460566872 -0.008642069324 -3.359730963e-19 0.09117265318 -1.429771984e-19 -0.006566984458)
(-0.06997310725 -0.007560365902 -5.039043754e-19 0.07700679469 6.853685352e-19 -0.007033687442)
(-0.05723477735 -0.006590561785 -4.42203429e-19 0.06435177542 -5.582864486e-19 -0.007116998072)
(-0.04626702274 -0.005700738671 -8.679236157e-19 0.05312192434 -3.885626539e-19 -0.006854901606)
(-0.03740582118 -0.004930392109 -2.648013407e-19 0.04336372117 -3.829481995e-20 -0.005957899994)
(-0.03052671576 -0.004302421613 1.783587822e-20 0.03492996427 4.680668437e-19 -0.004403248503)
(-0.02585775969 -0.003646997014 -5.63388929e-20 0.02768526135 -8.086078392e-19 -0.001827501666)
(-0.1697131753 -0.03142482367 -1.525712783e-19 0.1707272286 3.705927808e-19 -0.001014053289)
(-0.1530821107 -0.03561215199 -4.982994797e-19 0.1556237343 -1.492858006e-19 -0.002541623615)
(-0.1339047859 -0.03500471918 -1.249188096e-19 0.1377298536 4.477436037e-19 -0.003825067686)
(-0.114037655 -0.03233928646 5.07796775e-19 0.1189327339 -7.872120936e-19 -0.00489507881)
(-0.09622461968 -0.02910390815 -7.1983047e-19 0.1020205691 2.78880701e-19 -0.005795949441)
(-0.07996329914 -0.02579512534 3.498681867e-19 0.08641869538 -7.905628974e-19 -0.006455396241)
(-0.06574190288 -0.0226228556 -8.23090332e-19 0.07265400242 -5.339932774e-19 -0.00691209954)
(-0.05337907037 -0.01977283311 -1.657121022e-18 0.06037048214 -1.528012273e-18 -0.006991411771)
(-0.0427817511 -0.01717899394 -4.586654637e-19 0.04951479027 3.996491638e-19 -0.006733039167)
(-0.03424081134 -0.01493226816 1.66524746e-19 0.04009228647 -1.914712456e-19 -0.005851475128)
(-0.02763011267 -0.0131469913 -9.653601287e-19 0.03195727894 -7.884150306e-20 -0.004327166268)
(-0.02330562908 -0.01143153661 1.201508995e-20 0.02510501811 -3.287962637e-19 -0.001799389026)
(-0.163837896 -0.05159646664 -2.882427131e-19 0.1648193488 1.775715561e-20 -0.0009814528736)
(-0.1437738176 -0.05742249195 -6.065503807e-19 0.1462336327 2.287182053e-19 -0.002459815096)
(-0.1236521074 -0.0560142549 -7.681170465e-19 0.1273524338 9.007106779e-19 -0.003700326397)
(-0.1039268662 -0.05151774778 -6.719062916e-20 0.1086592992 -3.411856173e-19 -0.004732432941)
(-0.08671283503 -0.04622151405 -6.652156175e-19 0.09231164636 7.638844274e-19 -0.00559881133)
(-0.07118969977 -0.0408529857 -9.595209832e-19 0.07741970271 -7.275321516e-19 -0.006230002945)
(-0.05776475594 -0.03574051998 -1.319674952e-18 0.06442829936 2.326555384e-19 -0.006663543418)
(-0.04613165615 -0.03115060067 -3.207857831e-19 0.05286344361 -1.927983094e-19 -0.006731787454)
(-0.03622926582 -0.02699489391 1.100822469e-19 0.04270312296 3.569023514e-19 -0.006473857145)
(-0.02829716417 -0.02340013029 -5.520505565e-19 0.03391390152 -1.128230213e-18 -0.005616737344)
(-0.02216494988 -0.02055683 -3.968050132e-19 0.02630907084 -2.093062859e-19 -0.004144120959)
(-0.01831329067 -0.0179081731 1.47433101e-20 0.02002942776 -7.09013391e-19 -0.001716137094)
(-0.1553591182 -0.07047383152 6.023552234e-19 0.1562936371 -1.071743518e-18 -0.0009345189115)
(-0.1307437157 -0.07631979924 1.549701122e-19 0.1330846053 2.9610432e-19 -0.002340889582)
(-0.1094194462 -0.0735610044 -2.431067716e-19 0.1129385035 1.347111303e-20 -0.003519057331)
(-0.08995366216 -0.0671423732 3.298844549e-20 0.09445023706 5.939984424e-19 -0.004496574895)
(-0.07360520831 -0.05991003032 -3.341046875e-19 0.0789197851 -5.730519993e-19 -0.00531457679)
(-0.05912807196 -0.05267897943 -3.420307915e-19 0.06503497799 1.042819144e-19 -0.005906906027)
(-0.04681772883 -0.04586661882 -9.008034573e-19 0.05312881879 7.541867761e-19 -0.006311089962)
(-0.0362060654 -0.0397666978 -2.474506897e-18 0.04257386794 3.342085742e-19 -0.006367802544)
(-0.02725823717 -0.03427642719 -7.846166908e-19 0.03337615499 -6.156898026e-19 -0.006117917818)
(-0.02019790796 -0.02955029955 -1.480977061e-18 0.02550037822 1.679379978e-18 -0.005302470264)
(-0.0146603976 -0.02578438565 -8.846451956e-19 0.01857159677 -2.449841437e-19 -0.003911199162)
(-0.01160801398 -0.02245993399 1.286511392e-19 0.01322897572 6.108622023e-19 -0.001620961731)
(-0.144637611 -0.08765923382 1.734164766e-19 0.1455105222 5.144048235e-19 -0.0008729112227)
(-0.1149878842 -0.09155843734 7.457065459e-19 0.1171735168 1.757462327e-19 -0.002185632612)
(-0.09243955143 -0.08677399973 -5.374483647e-19 0.095722105 6.703101244e-19 -0.003282553571)
(-0.07340619696 -0.0783347279 -9.646328054e-20 0.07759520923 -1.57850709e-19 -0.004189012268)
(-0.05816311714 -0.06932780108 -9.61474064e-19 0.06310660761 -9.663328754e-20 -0.004943490471)
(-0.04498528626 -0.06048613204 4.466784038e-20 0.05046993385 4.291721969e-19 -0.00548464759)
(-0.03403711408 -0.05227097835 2.334595007e-19 0.03988576198 3.193233481e-19 -0.005848647901)
(-0.02466529832 -0.04494546727 -1.731488444e-18 0.03055358676 8.572086709e-19 -0.005888288444)
(-0.01686580686 -0.03838217832 5.902405519e-19 0.02251020295 8.981733209e-19 -0.005644396088)
(-0.01079880321 -0.03279556259 9.224561822e-19 0.01567787727 1.343116599e-19 -0.004879074064)
(-0.006016938784 -0.0282951171 -2.388497444e-18 0.009605074032 6.998957713e-19 -0.003588135248)
(-0.003659004653 -0.02446788359 -9.410326297e-20 0.005138943965 2.778240366e-19 -0.001479939312)
(-0.1320804659 -0.1028962813 -7.005815948e-19 0.1328795456 8.785052628e-19 -0.0007990796622)
(-0.0976622999 -0.1027300296 3.398799546e-19 0.09966135094 4.414255209e-19 -0.001999051033)
(-0.07412620026 -0.09521249763 -3.070433279e-19 0.07712480485 7.486445768e-19 -0.002998604586)
(-0.05575453235 -0.08465799629 -7.060848396e-19 0.05957487469 7.907271817e-19 -0.003820342345)
(-0.04181349978 -0.07406129354 1.925760005e-19 0.04631349007 -4.709274291e-19 -0.004499990288)
(-0.03010995575 -0.0638889381 -8.876403665e-19 0.03509150766 6.573840774e-19 -0.004981551914)
(-0.02067614039 -0.0546024086 1.277703877e-18 0.02597653511 -1.651075927e-19 -0.005300394724)
(-0.01266951153 -0.04637799635 -1.363474572e-18 0.01799229258 -1.154907004e-19 -0.005322781045)
(-0.006123547473 -0.03904147731 -2.325936379e-18 0.01121436578 -6.339215677e-19 -0.005090818312)
(-0.001161845227 -0.03292911789 5.951012811e-19 0.00555129307 9.217652099e-19 -0.004389447843)
(0.002899247378 -0.02779000803 1.698591849e-18 0.0003230075336 -7.039160667e-20 -0.003222254912)
(0.004382515961 -0.02375730111 -5.673455111e-19 -0.003055472934 -1.491220257e-19 -0.001327043026)
(-0.1181471812 -0.1160256263 2.707192262e-19 0.1188608981 -2.946265988e-19 -0.0007137169612)
(-0.07994889446 -0.1098168755 -1.900090084e-20 0.08173286561 5.88399859e-19 -0.00178397115)
(-0.05593370198 -0.09891885746 1.335067961e-18 0.05860536083 -4.613527593e-19 -0.002671658846)
(-0.03850740911 -0.08618915532 -1.089812598e-18 0.04190380227 -2.056112321e-19 -0.003396393154)
(-0.02602364383 -0.07420482175 -4.247967337e-19 0.03001400555 -1.389360087e-18 -0.00399036172)
(-0.01589355661 -0.06298725116 -4.546593708e-19 0.02029753867 7.090882953e-19 -0.004403982059)
(-0.008039470535 -0.05295979508 7.32833857e-19 0.01271036463 -1.011428651e-18 -0.004670894091)
(-0.001425791493 -0.04413192103 4.033158352e-19 0.006099217498 4.20141229e-19 -0.004673426005)
(0.00378450075 -0.03632846851 4.569038563e-19 0.0006692597347 8.045450586e-19 -0.004453760485)
(0.007801499743 -0.02993910321 -7.27014852e-19 -0.003977241914 3.846037891e-19 -0.003824257829)
(0.01097743607 -0.02445703338 -1.028689892e-18 -0.00818130397 -1.594439243e-18 -0.0027961321)
(0.01206082044 -0.02055067979 -1.446776503e-19 -0.01091565622 1.408711647e-18 -0.001145164229)
(-0.1032439156 -0.1270250052 4.03278784e-19 0.103863166 6.083471719e-20 -0.0006192504519)
(-0.06295328029 -0.1131614354 -1.487381406e-19 0.06449911612 4.889088618e-19 -0.001545835827)
(-0.03920105779 -0.0983866902 -1.018048745e-19 0.04151112886 1.847762465e-19 -0.002310071078)
(-0.02305413258 -0.08347511859 7.554905607e-19 0.02598240897 -4.314581172e-19 -0.002928276392)
(-0.01214037552 -0.07031050068 -1.963486226e-18 0.01556918192 1.19881495e-18 -0.003428806402)
(-0.003609285345 -0.05831981048 -6.681176395e-19 0.007378283585 -1.705555505e-19 -0.00376899824)
(0.002709826402 -0.04786217947 -1.575932092e-18 0.001270787739 1.083861213e-18 -0.003980614141)
(0.007981890407 -0.03869488625 3.386467208e-19 -0.004018573531 4.712937211e-19 -0.003963316876)
(0.01196817069 -0.030734315 -9.512733503e-19 -0.008208870928 -1.157656224e-19 -0.003759299764)
(0.01502626961 -0.02420987017 1.615391435e-19 -0.01181592196 1.078163527e-18 -0.003210347651)
(0.01744174161 -0.01874217673 8.659598928e-19 -0.0151061594 1.324182815e-18 -0.002335582207)
(0.01791395796 -0.01507706237 -7.837367262e-19 -0.01696347809 3.767088139e-19 -0.0009504798763)
(-0.08777372856 -0.1359679878 1.547953262e-19 0.08829098629 3.564376442e-19 -0.0005172577233)
(-0.04756425644 -0.1134179122 5.910391767e-19 0.04885336526 5.177132413e-19 -0.001289108826)
(-0.0250020491 -0.09449842641 4.795759598e-19 0.02692294029 -5.874888996e-19 -0.001920891194)
(-0.01049826685 -0.07746975947 -7.01679048e-20 0.01292372697 9.498565254e-20 -0.002425460115)
(-0.001230145493 -0.06332683948 5.168662905e-19 0.004057134071 1.793505804e-19 -0.002826988577)
(0.005732929072 -0.05080483775 -1.303563769e-18 -0.002642698336 4.104063625e-19 -0.003090230736)
(0.01062578155 -0.04017652802 -1.99324939e-19 -0.007381086873 6.437755982e-19 -0.003244694679)
(0.01466302702 -0.03091119422 -6.69255297e-19 -0.0114545308 1.810523376e-19 -0.003208496225)
(0.01755702875 -0.0230178067 7.867564945e-19 -0.01453365012 1.931059067e-18 -0.003023378631)
(0.01981279976 -0.01658360016 -2.104497203e-19 -0.01725066504 6.352224375e-19 -0.002562134718)
(0.02151233849 -0.0111753001 8.355337457e-19 -0.0196608526 -1.054096105e-18 -0.001851485882)
(0.02171035671 -0.007956554255 -1.048639531e-20 -0.02096299852 1.572916475e-19 -0.000747358187)
(-0.07201806618 -0.1429991057 -2.118796809e-19 0.07242785905 3.742240803e-19 -0.0004097928697)
(-0.03439388974 -0.1114723539 -9.07420599e-20 0.03541280446 -2.604203346e-19 -0.001018914728)
(-0.01404400183 -0.08842300207 5.17567435e-20 0.0155558836 -1.292426096e-19 -0.00151188177)
(-0.001557523242 -0.06943077453 -5.96010268e-19 0.003455539831 1.007512201e-18 -0.001898016589)
(0.006020758513 -0.05450399362 9.692065974e-19 -0.00382392947 2.938604238e-19 -0.002196829042)
(0.01149391071 -0.04164995899 -1.65259395e-19 -0.009112951014 8.448825659e-19 -0.002380959701)
(0.01512345223 -0.03104177296 -4.679600412e-21 -0.01264666193 -5.288338394e-19 -0.002476790302)
(0.01808680672 -0.021843914 3.203893714e-20 -0.01566474101 1.232456686e-18 -0.002422065709)
(0.02007408078 -0.01416122125 9.829535169e-19 -0.01781745578 3.752792452e-19 -0.002256624993)
(0.02165857309 -0.007917795723 1.35603106e-18 -0.01977216166 -1.19983777e-18 -0.001886411426)
(0.02279427359 -0.002696805902 -4.850331302e-19 -0.02144979675 -8.909067585e-20 -0.001344476843)
(0.02278726058 0.0001396158354 5.978432908e-19 -0.02225529604 -2.293315537e-19 -0.0005319645371)
(-0.05620969466 -0.1483256535 -4.432097873e-19 0.05650878355 3.065367489e-19 -0.0002990888818)
(-0.02370146351 -0.1083144478 -8.038181976e-20 0.02444220785 1.526219955e-19 -0.0007407443443)
(-0.006596259974 -0.08145971584 -6.669266822e-19 0.007687980641 5.835020374e-19 -0.001091720667)
(0.003511879134 -0.06074710787 4.614309149e-20 -0.002154155955 -2.692049191e-20 -0.001357723179)
(0.009373648933 -0.04521623454 -4.088175604e-19 -0.007819966524 3.843470793e-19 -0.001553682408)
(0.01345009113 -0.03217857113 7.243253231e-19 -0.01179005309 1.685937011e-19 -0.001660038042)
(0.01599054004 -0.0217094931 7.056137846e-20 -0.01429033291 1.202615532e-19 -0.001700207133)
(0.0180515555 -0.01267697041 1.692439823e-19 -0.01642039358 3.064641961e-19 -0.001631161914)
(0.01931326486 -0.005286705961 4.889276087e-19 -0.01782219604 -2.697340757e-19 -0.001491068825)
(0.02042098539 0.0007325627448 4.965066564e-20 -0.01920335447 -2.878895762e-19 -0.001217630924)
(0.02109398922 0.00571440536 -8.314637841e-20 -0.02024424138 1.607797113e-19 -0.0008497478396)
(0.02115114611 0.008211021818 -1.500051444e-19 -0.02082344937 -8.025473766e-20 -0.0003276967349)
(-0.04045547178 -0.1521365019 5.223267295e-20 0.04064210093 -9.222836115e-20 -0.0001866291504)
(-0.01539435215 -0.1049372135 -7.193565642e-20 0.01585320131 -3.582710249e-19 -0.0004588491585)
(-0.002468795993 -0.07490094459 -6.936511102e-20 0.003135506396 -6.184272087e-20 -0.0006667104035)
(0.004942601861 -0.05279957254 -3.487441667e-20 -0.004130147072 1.416406396e-19 -0.000812454789)
(0.009076465027 -0.03682772094 -2.139691634e-19 -0.008170650543 6.477002528e-19 -0.0009058144837)
(0.01185489156 -0.02369875749 2.116890019e-19 -0.01091946004 6.17262226e-20 -0.0009354315216)
(0.01347933561 -0.01340778823 -2.813019366e-19 -0.01255903432 3.051812847e-19 -0.0009203012858)
(0.01480777331 -0.004556137969 5.892070392e-19 -0.01397015054 7.220976762e-19 -0.0008376227741)
(0.01552468239 0.002541344945 2.900597839e-19 -0.01480338391 -2.61390255e-19 -0.0007212984831)
(0.01631107226 0.008362376031 -3.068088311e-19 -0.01576820791 -5.305316249e-19 -0.0005428643533)
(0.01662805013 0.01314003846 -6.022772686e-19 -0.01628348676 9.103827785e-21 -0.0003445633702)
(0.01683317467 0.01536669486 1.62935293e-19 -0.01672040646 -3.221158311e-21 -0.000112768209)
(-0.02479545294 -0.1546281984 2.478365934e-19 0.02487043234 -6.969406976e-20 -7.497940134e-05)
(-0.009048726889 -0.1021957439 -2.90422482e-20 0.00922774303 -7.963086673e-20 -0.000179016141)
(-0.001053295538 -0.06986567851 -4.052614896e-19 0.001299279475 1.49015641e-19 -0.0002459839366)
(0.003409509805 -0.04678309551 -2.746144831e-19 -0.003134844811 2.073106181e-19 -0.000274664994)
(0.005811158749 -0.03052107801 -2.115206436e-19 -0.005541117824 3.563235756e-19 -0.0002700409247)
(0.007372400528 -0.01735153179 1.531470649e-19 -0.007144029476 1.853430617e-19 -0.0002283710516)
(0.00822320302 -0.007219953056 -3.188411195e-19 -0.008058362088 4.033564864e-19 -0.0001648409323)
(0.008944623429 0.001494815245 4.058987705e-19 -0.008869427824 1.048221998e-19 -7.519560436e-05)
(0.009271872 0.008330223002 -8.916356532e-20 -0.009281979972 -1.530331626e-19 1.010797142e-05)
(0.009840981741 0.01410506591 -1.355588595e-19 -0.0099305224 -2.220000902e-19 8.954065914e-05)
(0.009953799205 0.01863801977 -7.250433513e-19 -0.01007191865 1.462055703e-20 0.0001181194402)
(0.01049606048 0.02087699994 9.448436234e-20 -0.010570959 -6.654701913e-20 7.489852671e-05)
(-0.009198079131 -0.1559165488 1.042448777e-19 0.009163072986 -4.110236576e-20 3.500614533e-05)
(-0.003973925029 -0.1007258622 -4.07456581e-21 0.003878221531 -7.125130854e-20 9.5703498e-05)
(-0.001395746846 -0.06718398074 -2.307029272e-19 0.001229629757 5.85268988e-20 0.0001661170889)
(-4.520977538e-05 -0.04358685246 -1.333281522e-21 -0.0002053915129 1.35412123e-19 0.0002506012883)
(0.0006206133 -0.02717640352 -7.738291625e-20 -0.0009701985089 3.198189256e-19 0.0003495852088)
(0.001012826769 -0.01398442706 1.41114776e-20 -0.001471733768 2.229605498e-19 0.0004589069993)
(0.001180450809 -0.003936873965 -6.4961403e-21 -0.001749420335 3.045809811e-19 0.0005689695261)
(0.001359854816 0.004725080644 -3.591595598e-20 -0.0020246334 2.37862801e-19 0.0006647785845)
(0.001412690334 0.01142670039 -2.590386306e-19 -0.002135277305 -3.092183432e-20 0.0007225869712)
(0.001743447408 0.01723080523 -3.300153453e-19 -0.00245254544 -1.631485853e-19 0.0007090980325)
(0.001819815387 0.02161831959 -4.189408096e-19 -0.002399654965 1.040902156e-20 0.000579839578)
(0.002584465708 0.02389227695 -1.123052714e-19 -0.002855412997 -5.342771253e-20 0.0002709472883)
(0.006413511032 -0.1560684814 1.268580443e-19 -0.006554320922 1.347318979e-20 0.0001408098906)
(0.0006834311434 -0.1008529037 2.942504989e-20 -0.001043420793 4.149661643e-20 0.0003599896497)
(-0.002331800609 -0.06728676506 -2.318905519e-19 0.001770576166 7.14791721e-20 0.0005612244422)
(-0.004155776881 -0.04367240217 7.17767082e-20 0.003403858361 9.900312083e-20 0.0007519185199)
(-0.005230187782 -0.02724974995 3.74222136e-21 0.004292968299 2.871619372e-19 0.0009372194826)
(-0.005993822372 -0.01403809399 -7.846154358e-21 0.004887845765 2.175956779e-19 0.001105976606)
(-0.006477210265 -0.00397663508 1.068657448e-19 0.005223939949 3.047171744e-19 0.001253270315)
(-0.006816401313 0.004730019855 -2.13952281e-19 0.005469039815 2.061674067e-19 0.001347361498)
(-0.006995484227 0.01143577574 -3.518328606e-19 0.005625485973 1.707853186e-20 0.001369998253)
(-0.006892138557 0.01738343131 -4.283010352e-19 0.005630633231 -8.887731729e-20 0.001261505326)
(-0.006873162723 0.02173136654 -2.562509436e-19 0.00589458781 4.565298255e-20 0.0009785749124)
(-0.005839695045 0.02422642252 -2.878388325e-19 0.005410364568 -8.157574148e-20 0.000429330477)
(0.02211200065 -0.1550630343 1.769110971e-19 -0.02235413111 3.519388663e-20 0.0002421304629)
(0.005840653702 -0.1025630115 -1.285426009e-20 -0.006452706175 5.894122125e-20 0.0006120524736)
(-0.002610614972 -0.07016713545 -8.002343657e-20 0.001673591677 6.447732482e-20 0.000937023295)
(-0.007559502788 -0.04703870332 -1.226753554e-19 0.006332422276 -4.777973852e-20 0.001227080513)
(-0.01037736101 -0.03074588601 1.089399609e-19 0.008884700326 3.171126247e-19 0.001492660688)
(-0.01232273363 -0.01752557525 -1.715161889e-19 0.01060722321 6.305643073e-20 0.001715510417)
(-0.01349542342 -0.007360665945 2.418349056e-20 0.01159829764 3.389915615e-19 0.001897125775)
(-0.01440589553 0.001474648334 -6.087965132e-19 0.01241716129 4.127705376e-19 0.00198873424)
(-0.01485839659 0.008316627557 -3.204067261e-19 0.01287755195 1.316108218e-20 0.001980844647)
(-0.01510295047 0.01447688868 -3.515488257e-19 0.01331671752 -6.707476703e-20 0.001786232952)
(-0.01509963947 0.018909683 -2.233660075e-19 0.01373353425 2.529640113e-19 0.001366105224)
(-0.01412635444 0.02170944322 -3.838886478e-19 0.01353384586 -1.62402925e-19 0.0005925085726)
(0.03795896998 -0.152800808 1.47706465e-19 -0.03829582894 9.835005959e-20 0.0003368589678)
(0.0123393485 -0.1055069476 1.255097157e-19 -0.01318703025 1.230897179e-19 0.0008476817488)
(-0.001076558799 -0.0753790063 2.581227866e-19 -0.0002103798626 2.605880448e-19 0.001286938662)
(-0.008998649719 -0.0532154705 -8.550834462e-20 0.007331506662 1.946592921e-20 0.001667143057)
(-0.01356613108 -0.03720417631 4.328774772e-19 0.01156289209 3.007160823e-19 0.00200323899)
(-0.016758346 -0.02400823738 -2.15251111e-19 0.01448743795 2.33203325e-19 0.002270908053)
(-0.01872074722 -0.01367793029 2.183076317e-19 0.01624367593 3.625518586e-19 0.002477071294)
(-0.02030436705 -0.004659481088 -4.586881144e-19 0.01774565338 6.699919012e-20 0.002558713668)
(-0.0211283035 0.002431353571 -1.221233296e-19 0.01861449416 -6.057541753e-20 0.002513809342)
(-0.02180982304 0.008832211695 -7.330213177e-19 0.01957644437 1.206489664e-19 0.002233378664)
(-0.02195066504 0.01344854601 -2.684079385e-19 0.02026693413 2.054496501e-19 0.001683730912)
(-0.02099051365 0.01663725492 -5.527209415e-19 0.02027473375 -2.044980739e-19 0.0007157798999)
(0.05395583597 -0.1491372821 -5.056460833e-19 -0.05438089279 -2.834619648e-19 0.0004250568109)
(0.02085023373 -0.1090287135 1.355870363e-19 -0.02191637789 -1.4454328e-19 0.00106614416)
(0.003214628703 -0.08207943552 3.612113274e-20 -0.004824945781 6.076393471e-20 0.001610317078)
(-0.007432267015 -0.06130467924 2.708201636e-19 0.005360129029 -2.058510354e-20 0.002072137986)
(-0.01374755285 -0.04573620082 -1.744017632e-19 0.01127615172 4.723662766e-20 0.002471401131)
(-0.01827446466 -0.03263244 2.93197318e-21 0.01549663858 -1.283423301e-19 0.002777826073)
(-0.02117838007 -0.02212426248 6.339229432e-19 0.01817331178 1.492015758e-19 0.003005068286)
(-0.02358963711 -0.01292724149 -1.06441032e-19 0.02051353064 8.966605347e-19 0.003076106472)
(-0.02494954196 -0.005529634137 -5.356784526e-19 0.02195061091 2.464738487e-19 0.002998931043)
(-0.02627635707 0.001074121284 4.645031618e-19 0.02363375949 4.592375842e-19 0.002642597582)
(-0.02658414887 0.00598742872 -2.603341345e-19 0.02460289359 3.759352455e-19 0.001981255276)
(-0.02598471994 0.009574663518 -1.41074268e-19 0.02514596398 -1.722969722e-19 0.0008387559603)
(0.07002770496 -0.1438667923 1.052115053e-19 -0.07053299997 -1.807658444e-19 0.0005052950182)
(0.03177223064 -0.1122666144 7.43284612e-20 -0.03303697802 -4.831917072e-19 0.001264747381)
(0.01085650113 -0.08914675649 4.849774447e-19 -0.01275953178 1.794944866e-19 0.001903030652)
(-0.002191556006 -0.07011334016 -8.270674669e-20 -0.0002449873881 1.111060027e-20 0.002436543394)
(-0.01023895377 -0.05516739806 7.955327706e-20 0.00734973944 3.771786468e-19 0.002889214332)
(-0.01619334436 -0.04226924218 1.19042056e-19 0.01296758777 -4.688270803e-19 0.003225756595)
(-0.02021541839 -0.03163458342 6.49933001e-19 0.01674971292 -3.35296903e-19 0.003465705466)
(-0.02360708942 -0.02230943683 4.481598289e-19 0.02008652428 6.041226959e-19 0.003520565145)
(-0.02573872514 -0.0145989938 1.714961366e-19 0.02233145888 -4.804615205e-19 0.003407266265)
(-0.02775481035 -0.007898263183 4.562925919e-20 0.02477687369 -6.351313931e-19 0.002977936665)
(-0.02852683159 -0.002684761729 7.26208252e-19 0.02631177816 1.385892914e-18 0.00221505343)
(-0.02820500174 0.001052454874 -2.717624067e-19 0.0272776727 -5.699343135e-20 0.0009273290398)
(0.08602728726 -0.1368031954 3.918236434e-19 -0.08660503192 3.24468027e-19 0.0005777446617)
(0.04516832336 -0.1142291538 1.840933203e-19 -0.04661173727 -3.184570303e-19 0.001443413902)
(0.02201992784 -0.09528797582 7.353526972e-19 -0.02418533707 1.453192657e-19 0.002165409234)
(0.006942919559 -0.0782579478 5.999445105e-19 -0.009704523375 3.295512482e-19 0.002761603815)
(-0.002801447117 -0.06412947909 -2.278712207e-19 -0.0004586176819 -4.524416835e-19 0.003260064799)
(-0.01026563388 -0.05160331526 1.655610829e-19 0.006644784635 1.060410258e-19 0.003620849243)
(-0.01557269189 -0.04098075576 8.935449005e-20 0.01170276633 -1.141410616e-18 0.003869925554)
(-0.02009803951 -0.03164583391 2.409730661e-19 0.01618988871 5.04972849e-19 0.003908150801)
(-0.02318280361 -0.02375587073 -5.849058548e-19 0.01942018822 1.330642806e-18 0.003762615392)
(-0.02606884543 -0.01699425223 3.934870755e-19 0.02279933015 -5.178066567e-19 0.00326951528)
(-0.02748175251 -0.01167359679 3.476050798e-19 0.02506056319 -1.018672349e-18 0.002421189321)
(-0.02782109554 -0.007762799333 -3.379872654e-19 0.02681185864 3.204664402e-19 0.001009236907)
(0.1016918771 -0.1277596429 -4.068115404e-19 -0.1023336697 -4.855414075e-19 0.0006417926499)
(0.0607578551 -0.1139384929 3.686841132e-19 -0.06235893969 -1.223413304e-19 0.001601084584)
(0.03642355909 -0.0992087708 -3.346667206e-19 -0.03881951313 -1.298861546e-18 0.00239595404)
(0.01971222694 -0.08434929566 8.079945925e-20 -0.02275772311 7.440901736e-19 0.003045496169)
(0.008333972466 -0.07124439619 -1.176287674e-18 -0.01191536039 -1.770223713e-19 0.003581387925)
(-0.0006962537313 -0.05930430178 3.079445401e-19 -0.003263486384 -8.790347032e-20 0.003959740115)
(-0.007431614864 -0.04890184447 -1.208809266e-18 0.003219212664 -1.208670578e-18 0.0042124022)
(-0.01323085565 -0.03975529529 5.503244604e-19 0.00899942637 -9.410117257e-19 0.004231429284)
(-0.01744486933 -0.03185549035 1.007295267e-18 0.01339142353 -7.997205429e-19 0.0040534458)
(-0.02130650429 -0.02524938047 4.179005892e-19 0.01780438456 7.836161903e-19 0.003502119727)
(-0.02351740451 -0.01984828557 -1.198324409e-18 0.0209374204 9.39706122e-19 0.002579984111)
(-0.02453221281 -0.01601785111 9.85453623e-19 0.02346411817 1.644583708e-19 0.001068094644)
(0.1167164878 -0.1166218345 -8.962889899e-20 -0.1174139561 -7.977004425e-19 0.0006974682535)
(0.07791012545 -0.1105311317 3.557863325e-19 -0.07964797946 2.988996389e-20 0.001737854011)
(0.05334652386 -0.09975460842 2.705446354e-19 -0.05594169839 2.791599323e-20 0.002595174535)
(0.03538867691 -0.08714166321 -1.79336207e-19 -0.03867818056 -1.310444686e-18 0.003289503651)
(0.02247359955 -0.07527434092 1.540571292e-18 -0.02632933806 1.476103844e-18 0.003855738509)
(0.01187287032 -0.06417748086 -3.677183831e-19 -0.0161195262 1.048958259e-19 0.004246655885)
(0.003625923549 -0.05426809619 7.100827589e-19 -0.008125536602 1.005148277e-18 0.004499613053)
(-0.003520221715 -0.04556521078 5.582576929e-19 -0.0009790959579 -9.995677143e-19 0.004499317673)
(-0.008974835456 -0.03789034587 9.436793532e-20 0.004683325853 6.622791531e-19 0.004291509603)
(-0.01388545387 -0.03165418358 1.209086207e-18 0.01019583797 3.567393169e-21 0.003689615898)
(-0.01699427674 -0.02635010075 1.737130138e-18 0.01428797755 -7.864082385e-19 0.00270629919)
(-0.01880908606 -0.02273864941 3.372479129e-19 0.01769477732 1.218027574e-18 0.001114308738)
(0.1306932916 -0.1033512827 2.876769385e-19 -0.1314382481 -5.137205189e-19 0.0007449565454)
(0.09572876773 -0.1033747465 5.030936701e-19 -0.09758288764 -9.7059057e-19 0.001854119909)
(0.07170456777 -0.09605344649 -1.018356369e-18 -0.07446847802 -1.126795025e-18 0.002763910244)
(0.05285407617 -0.08568192335 -3.018958033e-20 -0.05634917707 -5.934895551e-19 0.003495100901)
(0.03853156989 -0.07526386892 4.493351686e-19 -0.04261710027 -1.400742121e-18 0.004085530388)
(0.02640764185 -0.06529124498 6.454163644e-19 -0.03089265503 1.383292493e-18 0.004485013181)
(0.01662695011 -0.0561920655 5.344972204e-19 -0.02136319015 -4.0334384e-19 0.004736240045)
(0.008120996586 -0.04822490577 5.560673153e-20 -0.01283848915 3.691144704e-19 0.004717492567)
(0.001356585526 -0.04105916107 2.684657281e-18 -0.005840115204 -1.062406944e-18 0.004483529678)
(-0.004557396083 -0.03542484673 1.027128231e-18 0.0007185246515 1.248154967e-18 0.003838871432)
(-0.008660663462 -0.03044196459 -1.624011612e-18 0.005854214855 -1.007353178e-18 0.002806448607)
(-0.01116896207 -0.02719129041 2.9596582e-19 0.01001762796 2.138839537e-19 0.001151334108)
(0.1432231854 -0.08800386388 3.488307263e-19 -0.1440071423 1.175556801e-19 0.0007839568769)
(0.1131110901 -0.09214939979 -7.913318595e-19 -0.1150607958 2.409165955e-20 0.001949705677)
(0.09015714007 -0.08762151084 -5.222699835e-19 -0.09305926079 -5.853965086e-19 0.002902120721)
(0.0707167855 -0.07942288238 1.222313124e-18 -0.07437935413 4.481556728e-19 0.003662568634)
(0.05515656213 -0.07065209369 2.183898186e-19 -0.05942761576 -2.518518604e-18 0.004271053634)
(0.0416313749 -0.06208609304 1.514127867e-18 -0.04630665345 1.537604715e-19 0.004675278545)
(0.03039057803 -0.05413197928 -1.258155495e-18 -0.03531253345 -6.373422066e-19 0.004921955423)
(0.02061022632 -0.04720489125 1.946643777e-18 -0.02549519155 -3.424804894e-19 0.004884965234)
(0.01257012326 -0.04086026105 1.331538608e-19 -0.01719612884 -1.017475882e-18 0.004626005578)
(0.005749753406 -0.03609517691 -2.045151411e-18 -0.009693938376 -1.625494567e-18 0.003944184969)
(0.0006491519272 -0.03158867451 -4.91923458e-19 -0.003520188239 2.740832239e-19 0.002871036311)
(-0.002559368299 -0.02895703391 -1.820446236e-19 0.001389031585 -1.046073576e-18 0.001170336714)
(0.1538698227 -0.07076368387 5.443276344e-19 -0.1546851157 1.088952684e-18 0.00081529306)
(0.1288872646 -0.07689022127 1.206712756e-19 -0.1309133204 -4.906644197e-20 0.002026055867)
(0.1072531313 -0.07442704 7.633436784e-19 -0.1102654459 6.544759288e-19 0.003012314551)
(0.08746264274 -0.06829312752 -9.154214719e-19 -0.09125837689 -7.45132609e-19 0.003795734147)
(0.07087104367 -0.06134642471 -1.402537212e-19 -0.07528949735 -4.974891017e-20 0.004418453676)
(0.05613194666 -0.05445312061 -5.839898713e-20 -0.06095804373 -1.622871486e-18 0.004826097071)
(0.04358964151 -0.04797437803 -2.263567882e-19 -0.04865923033 -1.170097521e-18 0.005069588826)
(0.03268481851 -0.04236374644 3.731436923e-19 -0.03770323211 1.266426545e-19 0.005018413598)
(0.02347259857 -0.03719463703 -1.263935213e-18 -0.02821422158 -5.39352753e-19 0.004741623006)
(0.01594521045 -0.03340536775 -7.295848953e-19 -0.01997746407 -3.371787124e-19 0.004032253618)
(0.009925373383 -0.02976954152 6.506522371e-20 -0.01285580254 -1.08568603e-18 0.002930429159)
(0.006404105505 -0.02775016494 1.350804504e-19 -0.007597696774 6.785402985e-19 0.001193591269)
(0.1622545317 -0.05190112362 -3.730999271e-19 -0.1630927878 1.604889918e-19 0.0008382561437)
(0.1419182917 -0.05801374031 -1.285311956e-18 -0.1440007216 5.980527161e-20 0.002082429935)
(0.1215819821 -0.05691375581 -9.338815702e-19 -0.1246754054 -5.134743865e-19 0.003093423366)
(0.1016152231 -0.05272407822 -5.811180115e-19 -0.1055084373 -7.420759248e-19 0.003893214264)
(0.08423390336 -0.04774665679 8.88980946e-19 -0.08875889101 4.121450247e-20 0.004524987653)
(0.06853655526 -0.04275260413 -8.86162944e-19 -0.07346987861 -7.312708797e-19 0.004933323346)
(0.05495429544 -0.0380288952 8.794031723e-21 -0.06012556202 -2.92317453e-19 0.005171266582)
(0.04314931819 -0.03397180905 1.724134149e-18 -0.04825568704 -1.137636483e-18 0.005106368845)