/*--------------------------------*- C++ -*----------------------------------*\
| =========                 |                                                 |
| \\      /  F ield         | foam-extend: Open Source CFD                    |
|  \\    /   O peration     | Version:  3.0                                   |
|   \\  /    A nd           | Web:         http://www.extend-project.de       |
|    \\/     M anipulation  |                                                 |
\*---------------------------------------------------------------------------*/
FoamFile
{
    version     2.0;
    format      ascii;
    class       volScalarField;
    location    "21";
    object      p;
}
// * * * * * * * * * * * * * * * * * * * * * * * * * * * * * * * * * * * * * //

dimensions      [0 0 0 0 0 0 0];

internalField   nonuniform List<scalar> 
1920
(
-0.235113
-0.212239
-0.199938
-0.185398
-0.178326
-0.168728
-0.164757
-0.158327
-0.156272
-0.151942
-0.151044
-0.148085
-0.147781
-0.145624
-0.145428
-0.143563
-0.142994
-0.140898
-0.139422
-0.136505
-0.234114
-0.211337
-0.199089
-0.18461
-0.177568
-0.16801
-0.164056
-0.157653
-0.155606
-0.151295
-0.1504
-0.147454
-0.147151
-0.145003
-0.144808
-0.14295
-0.142384
-0.140297
-0.138827
-0.135922
-0.232097
-0.209516
-0.197373
-0.183019
-0.176039
-0.166564
-0.162643
-0.156296
-0.154267
-0.149993
-0.149106
-0.146185
-0.145885
-0.143756
-0.143563
-0.141721
-0.14116
-0.139091
-0.137634
-0.134753
-0.229102
-0.206812
-0.194826
-0.180657
-0.173766
-0.164413
-0.160543
-0.154277
-0.152275
-0.148055
-0.14718
-0.144297
-0.144
-0.141898
-0.141707
-0.139889
-0.139336
-0.137293
-0.135855
-0.133012
-0.225109
-0.203208
-0.191431
-0.177509
-0.170739
-0.161549
-0.157747
-0.15159
-0.149623
-0.145477
-0.144617
-0.141784
-0.141493
-0.139428
-0.139241
-0.137454
-0.13691
-0.134903
-0.13349
-0.130697
-0.220169
-0.198749
-0.18723
-0.173613
-0.166991
-0.158003
-0.154284
-0.148262
-0.146338
-0.142283
-0.141441
-0.13867
-0.138385
-0.136366
-0.136182
-0.134435
-0.133903
-0.13194
-0.130558
-0.127826
-0.21427
-0.193424
-0.182214
-0.168962
-0.162518
-0.15377
-0.150151
-0.144291
-0.142418
-0.138472
-0.137654
-0.134957
-0.13468
-0.132714
-0.132536
-0.130836
-0.130318
-0.128407
-0.127062
-0.124403
-0.20747
-0.187285
-0.17643
-0.163599
-0.157359
-0.148889
-0.145385
-0.13971
-0.137897
-0.134076
-0.133283
-0.130672
-0.130403
-0.1285
-0.128327
-0.126681
-0.126179
-0.124329
-0.123027
-0.120452
-0.199765
-0.180329
-0.169878
-0.157524
-0.151516
-0.143361
-0.139987
-0.134523
-0.132777
-0.129098
-0.128335
-0.125821
-0.125562
-0.12373
-0.123564
-0.121979
-0.121496
-0.119715
-0.118461
-0.115982
-0.191221
-0.172616
-0.162612
-0.150786
-0.145034
-0.137228
-0.133998
-0.128768
-0.127096
-0.123574
-0.122844
-0.120437
-0.12019
-0.118435
-0.118276
-0.116759
-0.116297
-0.114592
-0.113391
-0.111018
-0.181841
-0.16415
-0.154636
-0.14339
-0.137921
-0.130498
-0.127427
-0.122453
-0.120864
-0.117515
-0.11682
-0.114532
-0.114297
-0.112628
-0.112477
-0.111034
-0.110595
-0.108974
-0.107832
-0.105576
-0.1717
-0.154995
-0.146012
-0.135393
-0.130228
-0.123219
-0.120318
-0.115622
-0.114121
-0.110959
-0.110303
-0.108142
-0.10792
-0.106345
-0.106202
-0.104839
-0.104424
-0.102893
-0.101815
-0.0996845
-0.160806
-0.145161
-0.136748
-0.126803
-0.121967
-0.115402
-0.112686
-0.108288
-0.106883
-0.103921
-0.103307
-0.101283
-0.101075
-0.0996
-0.0994663
-0.0981902
-0.0978016
-0.0963678
-0.0953584
-0.0933629
-0.149241
-0.134721
-0.126913
-0.117683
-0.113194
-0.107101
-0.10458
-0.100498
-0.0991938
-0.0964452
-0.0958749
-0.0939966
-0.0938033
-0.0924341
-0.0923099
-0.0911255
-0.0907648
-0.0894341
-0.0884972
-0.0866452
-0.13702
-0.123689
-0.116521
-0.108047
-0.103926
-0.098332
-0.0960177
-0.0922702
-0.0910727
-0.0885493
-0.0880259
-0.0863015
-0.0861242
-0.0848673
-0.0847534
-0.0836661
-0.083335
-0.0821133
-0.0812532
-0.0795528
-0.124229
-0.112142
-0.105643
-0.0979595
-0.0942229
-0.0891513
-0.0870529
-0.083655
-0.0825691
-0.0802811
-0.0798064
-0.0782429
-0.078082
-0.0769422
-0.0768388
-0.0758529
-0.0755526
-0.0744449
-0.073665
-0.0721235
-0.110889
-0.1001
-0.0942991
-0.0874412
-0.084106
-0.0795792
-0.0777063
-0.0746736
-0.0737044
-0.0716622
-0.0712387
-0.0698432
-0.0696997
-0.0686825
-0.0685903
-0.0677104
-0.0674424
-0.0664537
-0.0657576
-0.0643816
-0.0970908
-0.0876446
-0.0825649
-0.0765602
-0.0736398
-0.069676
-0.068036
-0.0653804
-0.0645317
-0.0627434
-0.0623724
-0.0611504
-0.0610246
-0.0601338
-0.060053
-0.0592825
-0.0590477
-0.058182
-0.0575725
-0.0563677
-0.0828604
-0.074799
-0.0704641
-0.0653396
-0.0628474
-0.0594649
-0.0580654
-0.0557992
-0.055075
-0.053549
-0.0532325
-0.0521898
-0.0520826
-0.0513225
-0.0512536
-0.0505961
-0.0503959
-0.0496571
-0.049137
-0.0481088
-0.0682919
-0.0616475
-0.0580746
-0.0538509
-0.0517967
-0.0490087
-0.047855
-0.0459871
-0.0453901
-0.0441323
-0.0438712
-0.0430117
-0.0429232
-0.0422966
-0.0422397
-0.0416977
-0.0415326
-0.0409237
-0.0404949
-0.0396475
-0.0534142
-0.0482177
-0.0454233
-0.04212
-0.0405135
-0.038333
-0.0374309
-0.03597
-0.0355033
-0.0345196
-0.0343156
-0.0336434
-0.0335743
-0.0330844
-0.03304
-0.0326162
-0.0324871
-0.0320109
-0.0316756
-0.0310128
-0.0383245
-0.0345958
-0.0325906
-0.0302203
-0.0290675
-0.0275028
-0.0268553
-0.025807
-0.025472
-0.024766
-0.0246195
-0.0241371
-0.0240874
-0.0237357
-0.0237037
-0.0233995
-0.0233069
-0.0229651
-0.0227245
-0.0222489
-0.0230541
-0.0208113
-0.0196053
-0.0181796
-0.0174863
-0.0165452
-0.0161559
-0.0155254
-0.015324
-0.0148995
-0.0148115
-0.0145214
-0.0144916
-0.0142802
-0.014261
-0.0140781
-0.0140225
-0.0138169
-0.0136722
-0.0133862
-0.00770155
-0.00695215
-0.00654912
-0.00607269
-0.00584092
-0.00552641
-0.00539621
-0.00518546
-0.00511803
-0.00497609
-0.00494655
-0.00484954
-0.00483946
-0.00476873
-0.00476223
-0.00470105
-0.00468237
-0.00461367
-0.00456528
-0.00446973
0.0077006
0.00695123
0.00654823
0.00607186
0.00584014
0.00552567
0.00539552
0.00518482
0.00511744
0.00497554
0.00494606
0.00484909
0.00483906
0.00476837
0.00476191
0.00470077
0.00468212
0.00461343
0.00456506
0.00446949
0.0230531
0.0208103
0.0196044
0.0181788
0.0174855
0.0165445
0.0161552
0.0155248
0.0153234
0.0148989
0.014811
0.0145209
0.0144912
0.0142798
0.0142607
0.0140778
0.0140222
0.0138167
0.013672
0.0133859
0.0383236
0.0345948
0.0325897
0.0302194
0.0290667
0.027502
0.0268546
0.0258064
0.0254713
0.0247655
0.024619
0.0241366
0.0240869
0.0237353
0.0237034
0.0233992
0.0233066
0.0229648
0.0227242
0.0222487
0.0534133
0.0482167
0.0454224
0.0421191
0.0405126
0.0383322
0.0374301
0.0359694
0.0355026
0.034519
0.034315
0.0336429
0.0335739
0.0330839
0.0330396
0.0326158
0.0324868
0.0320106
0.0316753
0.0310125
0.0682909
0.0616466
0.0580736
0.05385
0.0517959
0.0490079
0.0478543
0.0459864
0.0453894
0.0441316
0.0438707
0.0430112
0.0429227
0.0422961
0.0422393
0.0416973
0.0415322
0.0409233
0.0404946
0.0396471
0.0828594
0.074798
0.0704631
0.0653387
0.0628466
0.059464
0.0580646
0.0557984
0.0550743
0.0535484
0.0532319
0.0521892
0.052082
0.051322
0.0512531
0.0505957
0.0503955
0.0496567
0.0491366
0.0481084
0.0970898
0.0876436
0.082564
0.0765592
0.0736389
0.0696752
0.0680351
0.0653796
0.0645309
0.0627427
0.0623717
0.0611498
0.061024
0.0601333
0.0600525
0.059282
0.0590473
0.0581816
0.057572
0.0563672
0.110888
0.100099
0.0942981
0.0874402
0.0841051
0.0795783
0.0777054
0.0746727
0.0737036
0.0716614
0.0712379
0.0698425
0.069699
0.0686818
0.0685897
0.0677098
0.0674418
0.0664532
0.0657571
0.0643811
0.124227
0.112141
0.105642
0.0979585
0.0942219
0.0891503
0.0870519
0.0836541
0.0825683
0.0802802
0.0798056
0.0782421
0.0780812
0.0769415
0.0768381
0.0758523
0.075552
0.0744443
0.0736644
0.0721229
0.137019
0.123688
0.11652
0.108046
0.103924
0.098331
0.0960167
0.0922693
0.0910718
0.0885483
0.088025
0.0863007
0.0861234
0.0848665
0.0847526
0.0836653
0.0833342
0.0821126
0.0812525
0.0795522
0.14924
0.13472
0.126912
0.117682
0.113193
0.1071
0.104579
0.100497
0.0991929
0.0964442
0.0958739
0.0939957
0.0938024
0.0924333
0.0923091
0.0911247
0.090764
0.0894333
0.0884964
0.0866444
0.160805
0.14516
0.136747
0.126802
0.121966
0.115401
0.112685
0.108287
0.106882
0.10392
0.103306
0.101282
0.101074
0.099599
0.0994653
0.0981893
0.0978007
0.096367
0.0953575
0.0933621
0.171698
0.154993
0.14601
0.135391
0.130227
0.123217
0.120317
0.115621
0.11412
0.110958
0.110302
0.108141
0.107919
0.106343
0.106201
0.104838
0.104423
0.102892
0.101814
0.0996835
0.18184
0.164148
0.154635
0.143389
0.13792
0.130497
0.127425
0.122452
0.120863
0.117514
0.116819
0.114531
0.114295
0.112627
0.112476
0.111033
0.110594
0.108972
0.107831
0.105574
0.191219
0.172615
0.162611
0.150785
0.145033
0.137227
0.133997
0.128766
0.127095
0.123573
0.122843
0.120436
0.120188
0.118434
0.118275
0.116757
0.116295
0.11459
0.11339
0.111017
0.199763
0.180328
0.169877
0.157523
0.151514
0.143359
0.139985
0.134522
0.132776
0.129097
0.128334
0.12582
0.125561
0.123729
0.123562
0.121977
0.121494
0.119713
0.118459
0.11598
0.207469
0.187283
0.176429
0.163598
0.157357
0.148888
0.145383
0.139709
0.137895
0.134074
0.133281
0.13067
0.130402
0.128498
0.128326
0.126679
0.126178
0.124328
0.123025
0.120451
0.214269
0.193422
0.182212
0.168961
0.162516
0.153769
0.15015
0.144289
0.142417
0.138471
0.137652
0.134956
0.134678
0.132713
0.132534
0.130834
0.130316
0.128406
0.127061
0.124402
0.220168
0.198747
0.187229
0.173612
0.166989
0.158001
0.154282
0.14826
0.146336
0.142281
0.14144
0.138669
0.138384
0.136364
0.136181
0.134433
0.133901
0.131938
0.130556
0.127824
0.225108
0.203207
0.19143
0.177508
0.170737
0.161547
0.157745
0.151588
0.149621
0.145475
0.144615
0.141782
0.141491
0.139426
0.139239
0.137452
0.136909
0.134901
0.133488
0.130695
0.2291
0.206811
0.194824
0.180655
0.173764
0.164411
0.160542
0.154275
0.152273
0.148053
0.147178
0.144295
0.143998
0.141896
0.141706
0.139888
0.139334
0.137291
0.135853
0.13301
0.232095
0.209514
0.197372
0.183018
0.176037
0.166562
0.162642
0.156294
0.154265
0.149991
0.149104
0.146183
0.145883
0.143754
0.143561
0.141719
0.141158
0.139089
0.137632
0.134752
0.234113
0.211335
0.199087
0.184608
0.177566
0.168009
0.164054
0.157651
0.155604
0.151293
0.150398
0.147452
0.147149
0.145001
0.144806
0.142948
0.142382
0.140295
0.138825
0.13592
0.235111
0.212237
0.199937
0.185396
0.178324
0.168726
0.164755
0.158325
0.15627
0.15194
0.151042
0.148083
0.147779
0.145622
0.145426
0.143561
0.142992
0.140896
0.13942
0.136503
0.23512
0.212244
0.199943
0.185402
0.17833
0.168731
0.16476
0.158329
0.156274
0.151943
0.151045
0.148086
0.147781
0.145624
0.145429
0.143563
0.142995
0.140898
0.139422
0.136504
0.234104
0.211328
0.19908
0.184602
0.177561
0.168004
0.16405
0.157647
0.155601
0.151289
0.150395
0.147449
0.147146
0.144998
0.144803
0.142946
0.14238
0.140293
0.138823
0.135918
0.232103
0.209521
0.197378
0.183023
0.176042
0.166567
0.162646
0.156298
0.154269
0.149994
0.149107
0.146186
0.145886
0.143756
0.143563
0.141721
0.14116
0.139091
0.137633
0.134753
0.229092
0.206803
0.194818
0.180649
0.173759
0.164406
0.160537
0.154271
0.152269
0.14805
0.147175
0.144292
0.143995
0.141893
0.141703
0.139885
0.139331
0.137289
0.135851
0.133008
0.225116
0.203214
0.191436
0.177513
0.170742
0.161552
0.15775
0.151592
0.149625
0.145478
0.144618
0.141785
0.141494
0.139428
0.139241
0.137455
0.13691
0.134903
0.13349
0.130696
0.220159
0.19874
0.187222
0.173606
0.166984
0.157996
0.154278
0.148256
0.146332
0.142277
0.141436
0.138666
0.138381
0.136361
0.136178
0.134431
0.133899
0.131936
0.130554
0.127822
0.214277
0.193429
0.182219
0.168966
0.162521
0.153773
0.150154
0.144293
0.14242
0.138474
0.137655
0.134958
0.134681
0.132715
0.132537
0.130836
0.130318
0.128408
0.127062
0.124403
0.20746
0.187276
0.176422
0.163592
0.157352
0.148882
0.145378
0.139704
0.137891
0.13407
0.133278
0.130667
0.130398
0.128495
0.128323
0.126677
0.126175
0.124325
0.123023
0.120449
0.199771
0.180335
0.169883
0.157528
0.151519
0.143364
0.139989
0.134525
0.132779
0.1291
0.128336
0.125822
0.125563
0.123731
0.123564
0.121979
0.121496
0.119715
0.118461
0.115982
0.191211
0.172608
0.162604
0.150778
0.145027
0.137221
0.133992
0.128762
0.127091
0.123569
0.122839
0.120433
0.120185
0.118431
0.118272
0.116755
0.116293
0.114588
0.113387
0.111015
0.181848
0.164155
0.154641
0.143395
0.137925
0.130501
0.127429
0.122455
0.120866
0.117517
0.116822
0.114533
0.114298
0.112629
0.112478
0.111035
0.110595
0.108974
0.107832
0.105576
0.17169
0.154986
0.146003
0.135385
0.130221
0.123212
0.120312
0.115617
0.114116
0.110954
0.110298
0.108137
0.107915
0.10634
0.106198
0.104835
0.10442
0.102889
0.101812
0.0996811
0.160813
0.145167
0.136753
0.126808
0.121971
0.115405
0.112689
0.108291
0.106885
0.103923
0.103309
0.101285
0.101076
0.099601
0.0994672
0.0981909
0.0978022
0.0963683
0.0953588
0.0933632
0.149231
0.134712
0.126905
0.117675
0.113187
0.107095
0.104574
0.100493
0.0991885
0.0964401
0.0958701
0.0939921
0.093799
0.09243
0.0923059
0.0911217
0.0907611
0.0894305
0.0884938
0.0866419
0.137026
0.123695
0.116526
0.108051
0.103929
0.0983352
0.0960206
0.0922727
0.0910749
0.0885512
0.0880276
0.086303
0.0861256
0.0848684
0.0847544
0.0836669
0.0833357
0.0821139
0.0812537
0.0795532
0.124219
0.112133
0.105635
0.0979521
0.094216
0.0891449
0.0870469
0.0836495
0.0825638
0.0802761
0.0798016
0.0782384
0.0780777
0.0769382
0.0768349
0.0758492
0.0755491
0.0744415
0.0736617
0.0721203
0.110896
0.100106
0.0943042
0.0874455
0.0841099
0.0795825
0.0777093
0.0746761
0.0737067
0.0716642
0.0712405
0.0698448
0.0697011
0.0686837
0.0685914
0.0677113
0.0674432
0.0664544
0.0657582
0.0643821
0.0970809
0.0876358
0.0825568
0.0765528
0.0736329
0.0696697
0.06803
0.0653749
0.0645264
0.0627385
0.0623677
0.061146
0.0610204
0.0601299
0.0600492
0.0592789
0.0590443
0.0581787
0.0575693
0.0563646
0.0828672
0.0748047
0.0704691
0.0653439
0.0628513
0.0594682
0.0580684
0.0558018
0.0550774
0.0535511
0.0532344
0.0521915
0.0520841
0.0513238
0.0512548
0.0505972
0.0503968
0.0496579
0.0491377
0.0481093
0.068282
0.0616388
0.0580665
0.0538436
0.0517899
0.0490024
0.0478492
0.0459817
0.0453849
0.0441274
0.0438667
0.0430074
0.0429191
0.0422927
0.042236
0.0416942
0.0415292
0.0409204
0.0404918
0.0396444
0.053421
0.0482234
0.0454284
0.0421243
0.0405174
0.0383364
0.0374339
0.0359727
0.0355057
0.0345217
0.0343175
0.0336451
0.0335759
0.0330858
0.0330413
0.0326173
0.0324881
0.0320117
0.0316764
0.0310134
0.0383147
0.034587
0.0325826
0.030213
0.0290607
0.0274966
0.0268495
0.0258016
0.0254668
0.0247612
0.024615
0.0241328
0.0240833
0.0237319
0.0237001
0.0233961
0.0233035
0.0229619
0.0227214
0.0222459
0.0230609
0.020817
0.0196104
0.018184
0.0174902
0.0165486
0.016159
0.0155281
0.0153265
0.0149016
0.0148135
0.0145232
0.0144932
0.0142816
0.0142623
0.0140793
0.0140235
0.0138178
0.013673
0.0133868
0.00769172
0.00694342
0.00654108
0.00606542
0.00583415
0.0055202
0.00539037
0.00518006
0.00511292
0.00497133
0.00494204
0.0048453
0.00483543
0.00476492
0.0047586
0.00469761
0.00467907
0.00461051
0.00456225
0.00446678
-0.0076938
-0.00694548
-0.00654313
-0.00606748
-0.00583621
-0.00552227
-0.00539243
-0.00518212
-0.00511497
-0.00497338
-0.00494407
-0.00484733
-0.00483744
-0.00476693
-0.0047606
-0.0046996
-0.00468106
-0.0046125
-0.00456424
-0.00446878
-0.023063
-0.0208191
-0.0196124
-0.018186
-0.0174923
-0.0165507
-0.016161
-0.0155302
-0.0153285
-0.0149037
-0.0148155
-0.0145252
-0.0144952
-0.0142836
-0.0142643
-0.0140813
-0.0140255
-0.0138198
-0.013675
-0.0133889
-0.0383168
-0.0345891
-0.0325846
-0.0302151
-0.0290627
-0.0274986
-0.0268516
-0.0258037
-0.0254689
-0.0247633
-0.024617
-0.0241349
-0.0240853
-0.0237339
-0.0237021
-0.0233981
-0.0233055
-0.0229639
-0.0227234
-0.022248
-0.0534231
-0.0482254
-0.0454304
-0.0421264
-0.0405194
-0.0383384
-0.037436
-0.0359748
-0.0355077
-0.0345238
-0.0343196
-0.0336472
-0.0335779
-0.0330878
-0.0330433
-0.0326193
-0.0324901
-0.0320138
-0.0316784
-0.0310154
-0.0682841
-0.0616409
-0.0580686
-0.0538457
-0.051792
-0.0490045
-0.0478512
-0.0459837
-0.045387
-0.0441295
-0.0438687
-0.0430094
-0.0429211
-0.0422948
-0.042238
-0.0416962
-0.0415312
-0.0409224
-0.0404938
-0.0396465
-0.0828693
-0.0748067
-0.0704712
-0.065346
-0.0628534
-0.0594703
-0.0580705
-0.0558039
-0.0550795
-0.0535532
-0.0532365
-0.0521935
-0.0520862
-0.0513259
-0.0512569
-0.0505992
-0.0503989
-0.04966
-0.0491397
-0.0481114
-0.097083
-0.0876379
-0.0825589
-0.0765549
-0.073635
-0.0696718
-0.0680321
-0.065377
-0.0645285
-0.0627406
-0.0623698
-0.0611481
-0.0610225
-0.060132
-0.0600513
-0.0592809
-0.0590463
-0.0581808
-0.0575714
-0.0563666
-0.110898
-0.100108
-0.0943062
-0.0874476
-0.0841119
-0.0795846
-0.0777114
-0.0746782
-0.0737088
-0.0716663
-0.0712426
-0.0698469
-0.0697032
-0.0686858
-0.0685935
-0.0677134
-0.0674453
-0.0664565
-0.0657603
-0.0643842
-0.124221
-0.112135
-0.105637
-0.0979542
-0.0942181
-0.0891471
-0.087049
-0.0836516
-0.082566
-0.0802783
-0.0798038
-0.0782405
-0.0780798
-0.0769403
-0.076837
-0.0758513
-0.0755512
-0.0744436
-0.0736638
-0.0721224
-0.137028
-0.123697
-0.116528
-0.108053
-0.103931
-0.0983373
-0.0960227
-0.0922748
-0.0910771
-0.0885533
-0.0880297
-0.0863052
-0.0861277
-0.0848705
-0.0847565
-0.083669
-0.0833378
-0.082116
-0.0812558
-0.0795554
-0.149233
-0.134714
-0.126907
-0.117678
-0.113189
-0.107097
-0.104576
-0.100495
-0.0991906
-0.0964423
-0.0958722
-0.0939942
-0.0938011
-0.0924322
-0.0923081
-0.0911239
-0.0907633
-0.0894327
-0.0884959
-0.0866441
-0.160815
-0.145169
-0.136755
-0.12681
-0.121973
-0.115407
-0.112691
-0.108293
-0.106887
-0.103925
-0.103311
-0.101287
-0.101079
-0.0996032
-0.0994693
-0.0981931
-0.0978044
-0.0963705
-0.095361
-0.0933654
-0.171692
-0.154988
-0.146005
-0.135387
-0.130223
-0.123214
-0.120314
-0.115619
-0.114118
-0.110956
-0.1103
-0.10814
-0.107917
-0.106342
-0.1062
-0.104837
-0.104422
-0.102892
-0.101814
-0.0996833
-0.18185
-0.164157
-0.154643
-0.143397
-0.137927
-0.130503
-0.127431
-0.122458
-0.120868
-0.117519
-0.116824
-0.114535
-0.1143
-0.112632
-0.11248
-0.111037
-0.110598
-0.108976
-0.107835
-0.105578
-0.191213
-0.17261
-0.162606
-0.15078
-0.145029
-0.137223
-0.133994
-0.128764
-0.127093
-0.123571
-0.122841
-0.120435
-0.120187
-0.118433
-0.118274
-0.116757
-0.116295
-0.11459
-0.11339
-0.111017
-0.199773
-0.180337
-0.169885
-0.15753
-0.151521
-0.143366
-0.139991
-0.134527
-0.132781
-0.129102
-0.128339
-0.125824
-0.125566
-0.123733
-0.123567
-0.121981
-0.121498
-0.119717
-0.118463
-0.115984
-0.207462
-0.187278
-0.176424
-0.163594
-0.157354
-0.148885
-0.145381
-0.139706
-0.137893
-0.134072
-0.13328
-0.130669
-0.130401
-0.128498
-0.128325
-0.126679
-0.126177
-0.124328
-0.123025
-0.120451
-0.214279
-0.193431
-0.182221
-0.168968
-0.162523
-0.153775
-0.150156
-0.144295
-0.142422
-0.138476
-0.137657
-0.13496
-0.134683
-0.132717
-0.132539
-0.130838
-0.13032
-0.12841
-0.127065
-0.124406
-0.220161
-0.198742
-0.187224
-0.173608
-0.166986
-0.157998
-0.15428
-0.148258
-0.146334
-0.142279
-0.141438
-0.138668
-0.138383
-0.136363
-0.13618
-0.134433
-0.133901
-0.131938
-0.130556
-0.127824
-0.225118
-0.203216
-0.191438
-0.177515
-0.170744
-0.161554
-0.157752
-0.151594
-0.149627
-0.145481
-0.14462
-0.141787
-0.141496
-0.139431
-0.139243
-0.137457
-0.136913
-0.134905
-0.133492
-0.130699
-0.229094
-0.206805
-0.19482
-0.180651
-0.173761
-0.164409
-0.160539
-0.154273
-0.152271
-0.148052
-0.147177
-0.144294
-0.143997
-0.141896
-0.141705
-0.139887
-0.139334
-0.137291
-0.135853
-0.13301
-0.232105
-0.209523
-0.19738
-0.183025
-0.176044
-0.166568
-0.162648
-0.1563
-0.154271
-0.149996
-0.149109
-0.146188
-0.145888
-0.143758
-0.143565
-0.141723
-0.141162
-0.139093
-0.137636
-0.134755
-0.234106
-0.21133
-0.199082
-0.184604
-0.177563
-0.168006
-0.164052
-0.157649
-0.155603
-0.151291
-0.150397
-0.147451
-0.147148
-0.145
-0.144806
-0.142948
-0.142382
-0.140295
-0.138825
-0.13592
-0.235121
-0.212246
-0.199945
-0.185404
-0.178332
-0.168733
-0.164761
-0.158331
-0.156276
-0.151945
-0.151047
-0.148088
-0.147783
-0.145626
-0.145431
-0.143565
-0.142997
-0.1409
-0.139424
-0.136506
)
;

boundaryField
{
    out
    {
        type            implicitExtrapolation;
    }
    in
    {
        type            implicitExtrapolation;
    }
    frontAndBack
    {
        type            empty;
    }
}


// ************************************************************************* //
