/*--------------------------------*- C++ -*----------------------------------*\
| =========                 |                                                 |
| \\      /  F ield         | foam-extend: Open Source CFD                    |
|  \\    /   O peration     | Version:  3.0                                   |
|   \\  /    A nd           | Web:         http://www.extend-project.de       |
|    \\/     M anipulation  |                                                 |
\*---------------------------------------------------------------------------*/
FoamFile
{
    version     2.0;
    format      ascii;
    class       volScalarField;
    location    "7.4";
    object      p;
}
// * * * * * * * * * * * * * * * * * * * * * * * * * * * * * * * * * * * * * //

dimensions      [0 0 0 0 0 0 0];

internalField   nonuniform List<scalar> 
400
(
1.54801
0.76572
0.78978
0.553795
0.792625
0.696306
0.968513
0.903372
1.16826
1.10808
1.36723
1.30494
1.56332
1.48743
1.73239
1.60981
1.78622
1.5249
1.47846
0.77828
2.57997
1.93327
1.84171
1.49619
1.57905
1.33704
1.4544
1.24599
1.35989
1.15867
1.26239
1.05461
1.14792
0.922144
0.99935
0.73744
0.766996
0.421439
0.2942
-0.268781
2.13814
1.53725
1.52342
1.25466
1.38546
1.21101
1.37235
1.22113
1.38768
1.23836
1.4094
1.25418
1.43029
1.26072
1.42938
1.22422
1.33975
1.04189
0.985662
0.44306
2.18546
1.76762
1.68472
1.45339
1.49395
1.31854
1.38779
1.22403
1.29728
1.13496
1.21189
1.04962
1.13371
0.96744
1.05085
0.861737
0.90163
0.63702
0.519716
0.0877439
1.81758
1.42532
1.42534
1.24258
1.34838
1.22129
1.35841
1.24148
1.39889
1.28237
1.46786
1.3516
1.57211
1.45109
1.69443
1.54124
1.74527
1.48083
1.4816
0.935069
1.69847
1.41512
1.38236
1.24791
1.28512
1.18151
1.23318
1.13138
1.19195
1.09286
1.17373
1.08544
1.20085
1.12428
1.27534
1.18151
1.32171
1.10623
1.07018
0.478994
1.48802
1.25836
1.27736
1.18026
1.25654
1.17971
1.28156
1.20172
1.33701
1.25691
1.44651
1.37592
1.6423
1.58354
1.9313
1.85014
2.21647
1.97396
2.11124
1.30798
1.29753
1.18513
1.18391
1.13327
1.14622
1.09179
1.1063
1.04244
1.06917
1.00864
1.0688
1.03065
1.15195
1.14816
1.35116
1.35114
1.60115
1.43718
1.50484
0.64711
1.16894
1.1662
1.18237
1.16892
1.18852
1.14783
1.18761
1.1268
1.20781
1.1422
1.29483
1.24586
1.51144
1.49617
1.91142
1.90311
2.43523
2.2436
2.58573
1.51622
0.937867
1.06951
1.07913
1.10757
1.07348
1.04885
1.00606
0.954374
0.9216
0.86654
0.867653
0.840145
0.912422
0.944076
1.13074
1.21225
1.50966
1.44904
1.60982
0.63333
0.855206
1.12649
1.12256
1.18865
1.13894
1.12261
1.08608
1.02634
1.0261
0.94787
1.01541
0.951244
1.14176
1.13062
1.51947
1.5682
2.19105
2.11969
2.7114
1.62229
0.623426
1.01078
1.02384
1.1237
1.04123
1.03564
0.931879
0.873735
0.766587
0.686141
0.594468
0.532322
0.494169
0.50687
0.581891
0.711241
0.940405
1.05769
1.26075
0.541818
0.587515
1.09803
1.07577
1.21039
1.10579
1.10837
1.00129
0.930603
0.837045
0.722318
0.666415
0.547464
0.585817
0.525194
0.762708
0.828837
1.39772
1.5259
2.36142
1.71562
0.408459
0.985986
1.00478
1.16297
1.04992
1.05969
0.905968
0.83081
0.648228
0.519495
0.317087
0.179003
-0.0152609
-0.085007
-0.209684
-0.095772
-0.0666325
0.281755
0.434873
0.505814
0.443468
1.08525
1.06158
1.24766
1.11829
1.13755
0.977374
0.88907
0.705351
0.538655
0.342935
0.137675
-0.0293093
-0.195951
-0.227089
-0.211532
0.114246
0.481666
1.45787
1.84287
0.385827
1.03539
1.06108
1.25893
1.13583
1.1575
0.968128
0.870263
0.621734
0.433704
0.123872
-0.115923
-0.479831
-0.689581
-1.0635
-1.05852
-1.33259
-0.783213
-0.801664
0.600383
0.539179
1.16114
1.15144
1.36584
1.23437
1.26321
1.06471
0.953939
0.694095
0.471875
0.147795
-0.15593
-0.536467
-0.85155
-1.21903
-1.34653
-1.45497
-0.917272
-0.0834043
1.85551
0.695088
1.26347
1.28286
1.49063
1.35981
1.37906
1.15994
1.03377
0.735517
0.491189
0.100197
-0.241042
-0.747006
-1.12823
-1.74164
-1.95769
-2.57114
-2.01526
-2.3343
0.651249
1.02543
1.46154
1.45795
1.66394
1.52197
1.53668
1.30214
1.16155
0.84729
0.578672
0.166208
-0.221213
-0.767285
-1.24015
-1.92305
-2.29308
-2.95329
-2.50565
-2.38966
1.17744
1.51948
1.83034
1.79888
1.95881
1.78772
1.76364
1.51085
1.34416
1.02165
0.734648
0.315206
-0.0997455
-0.670054
-1.21387
-1.97516
-2.52217
-3.39682
-3.28958
-3.93299
-0.162612
)
;

boundaryField
{
    cavity
    {
        type            implicitExtrapolation;
    }
    lid
    {
        type            implicitExtrapolation;
    }
    frontAndBack
    {
        type            empty;
    }
}


// ************************************************************************* //
