/*--------------------------------*- C++ -*----------------------------------*\
| =========                 |                                                 |
| \\      /  F ield         | foam-extend: Open Source CFD                    |
|  \\    /   O peration     | Version:  3.0                                   |
|   \\  /    A nd           | Web:         http://www.extend-project.de       |
|    \\/     M anipulation  |                                                 |
\*---------------------------------------------------------------------------*/
FoamFile
{
    version     2.0;
    format      ascii;
    class       volVectorField;
    location    "7.4";
    object      s;
}
// * * * * * * * * * * * * * * * * * * * * * * * * * * * * * * * * * * * * * //

dimensions      [0 0 0 0 0 0 0];

internalField   nonuniform List<vector> 
400
(
(-0.0156336 0.0295434 1.02859e-317)
(-0.0262189 0.0427093 1.80528e-317)
(-0.0570383 0.0442131 2.0489e-317)
(-0.0733046 0.0366802 2.05873e-317)
(-0.0963145 0.0311414 1.97052e-317)
(-0.10972 0.0231281 1.84241e-317)
(-0.124206 0.0174912 1.70185e-317)
(-0.132621 0.0110343 1.56332e-317)
(-0.139435 0.00583773 1.42973e-317)
(-0.142214 0.000124158 1.3074e-317)
(-0.141782 -0.00522899 1.19264e-317)
(-0.138448 -0.0112087 1.0898e-317)
(-0.13052 -0.017177 9.94132e-318)
(-0.120783 -0.0239425 9.0771e-318)
(-0.104929 -0.030217 8.26951e-318)
(-0.0894802 -0.0373731 7.49695e-318)
(-0.0661284 -0.0421862 6.71229e-318)
(-0.0482436 -0.0468968 5.80439e-318)
(-0.0205601 -0.0434992 4.53134e-318)
(-0.00968412 -0.0283222 2.34543e-318)
(-0.017223 0.0175729 1.32342e-317)
(-0.0391852 0.0397164 2.58492e-317)
(-0.0739178 0.0487903 3.11042e-317)
(-0.0993869 0.0481513 3.24821e-317)
(-0.128664 0.0429778 3.19167e-317)
(-0.149669 0.0349139 3.04423e-317)
(-0.169858 0.0261364 2.85504e-317)
(-0.183132 0.0167659 2.65681e-317)
(-0.193162 0.0074578 2.45698e-317)
(-0.197437 -0.00196412 2.26895e-317)
(-0.196936 -0.0113955 2.08816e-317)
(-0.191616 -0.020824 1.92225e-317)
(-0.18034 -0.0301542 1.76347e-317)
(-0.165441 -0.0389613 1.61563e-317)
(-0.143765 -0.0467437 1.46998e-317)
(-0.120802 -0.0523507 1.32418e-317)
(-0.0910525 -0.0543844 1.16477e-317)
(-0.0646603 -0.0504529 9.7575e-318)
(-0.0327163 -0.037799 7.18699e-318)
(-0.0120173 -0.0144297 3.31422e-318)
(-0.0170277 0.0531871 1.19291e-317)
(-0.037676 0.0950656 2.42128e-317)
(-0.0721621 0.107766 2.9993e-317)
(-0.0965399 0.102084 3.20995e-317)
(-0.124399 0.0902248 3.21949e-317)
(-0.144509 0.0731895 3.12494e-317)
(-0.163679 0.0556966 2.97507e-317)
(-0.176705 0.0369292 2.80412e-317)
(-0.186608 0.0184897 2.62262e-317)
(-0.191342 -0.00044446 2.4451e-317)
(-0.191515 -0.0194155 2.26958e-317)
(-0.187165 -0.0387339 2.10363e-317)
(-0.17702 -0.0579993 1.94072e-317)
(-0.163193 -0.0767482 1.78368e-317)
(-0.14258 -0.0937815 1.62284e-317)
(-0.12025 -0.107587 1.45422e-317)
(-0.090824 -0.115068 1.26148e-317)
(-0.0642625 -0.113011 1.0282e-317)
(-0.0314817 -0.0939413 7.2147e-318)
(-0.0110311 -0.0485201 2.99693e-318)
(-0.0115443 0.0528701 8.96192e-318)
(-0.029055 0.101387 1.89207e-317)
(-0.0534211 0.118622 2.41741e-317)
(-0.0728842 0.115046 2.66281e-317)
(-0.0943056 0.102837 2.73976e-317)
(-0.11078 0.0845559 2.72157e-317)
(-0.126526 0.0646313 2.64463e-317)
(-0.137807 0.0431583 2.5386e-317)
(-0.146696 0.0214137 2.41325e-317)
(-0.151613 -0.000959891 2.28237e-317)
(-0.152822 -0.0237564 2.14588e-317)
(-0.150469 -0.0469025 2.0108e-317)
(-0.143149 -0.0702342 1.87231e-317)
(-0.132828 -0.0925284 1.73217e-317)
(-0.116486 -0.112923 1.58115e-317)
(-0.0984862 -0.128118 1.41357e-317)
(-0.0744187 -0.135654 1.21349e-317)
(-0.0519013 -0.129036 9.63322e-318)
(-0.0257773 -0.102642 6.42727e-318)
(-0.00731657 -0.046569 2.30577e-318)
(-0.00971931 0.0657324 5.70392e-318)
(-0.0216115 0.123673 1.29142e-317)
(-0.0407029 0.143224 1.73318e-317)
(-0.0545422 0.13903 1.99454e-317)
(-0.0710076 0.124543 2.12941e-317)
(-0.0833021 0.103058 2.1838e-317)
(-0.0957677 0.079536 2.1804e-317)
(-0.104969 0.0540267 2.14187e-317)
(-0.112798 0.0280454 2.07697e-317)
(-0.117965 0.00100928 1.99803e-317)
(-0.120414 -0.0267903 1.90689e-317)
(-0.120563 -0.055451 1.81036e-317)
(-0.116419 -0.0847446 1.70593e-317)
(-0.110362 -0.113308 1.59552e-317)
(-0.098141 -0.140096 1.4722e-317)
(-0.0851388 -0.160884 1.33093e-317)
(-0.0644794 -0.172838 1.1581e-317)
(-0.0464446 -0.166914 9.37203e-318)
(-0.021471 -0.13672 6.46329e-318)
(-0.00709448 -0.0656389 2.55476e-318)
(-0.00621353 0.0651243 2.52342e-318)
(-0.0139682 0.124608 7.05247e-318)
(-0.025257 0.146011 1.05972e-317)
(-0.0338269 0.142613 1.32711e-317)
(-0.0444163 0.128722 1.51003e-317)
(-0.0527117 0.107212 1.62879e-317)
(-0.0616447 0.0835101 1.69322e-317)
(-0.0688315 0.0574286 1.71902e-317)
(-0.075516 0.0306461 1.71338e-317)
(-0.0809107 0.00238106 1.68689e-317)
(-0.0845884 -0.0270712 1.64298e-317)
(-0.0872606 -0.0579705 1.58802e-317)
(-0.0865077 -0.0901433 1.52188e-317)
(-0.0849497 -0.122136 1.44659e-317)
(-0.0775285 -0.152884 1.35757e-317)
(-0.0700064 -0.177202 1.25042e-317)
(-0.0539859 -0.191998 1.11292e-317)
(-0.040768 -0.185387 9.27545e-318)
(-0.0183963 -0.150973 6.66618e-318)
(-0.00696152 -0.0689199 2.84764e-318)
(-0.00425011 0.0671477 1.20285e-319)
(-0.00781973 0.128696 2.49065e-318)
(-0.0138518 0.151026 5.24408e-318)
(-0.0178539 0.148144 7.85657e-318)
(-0.0238744 0.134528 9.97483e-318)
(-0.0286259 0.112914 1.15983e-317)
(-0.0345109 0.0890806 1.27279e-317)
(-0.0397734 0.0625039 1.34596e-317)
(-0.0453003 0.0351277 1.38508e-317)
(-0.0507515 0.00576085 1.39916e-317)
(-0.055377 -0.0251487 1.39235e-317)
(-0.060331 -0.0583644 1.37084e-317)
(-0.0625744 -0.0935343 1.336e-317)
(-0.0654444 -0.129762 1.29037e-317)
(-0.0622861 -0.165443 1.23148e-317)
(-0.0605067 -0.195667 1.1557e-317)
(-0.0479087 -0.21585 1.05241e-317)
(-0.0399714 -0.213142 9.03416e-318)
(-0.0169848 -0.17788 6.7468e-318)
(-0.00944729 -0.0853821 3.07803e-318)
(-0.00164792 0.0641937 -1.62699e-318)
(-0.0024078 0.123384 -9.20113e-319)
(-0.00250835 0.14586 1.14579e-318)
(-0.00263312 0.143529 3.60042e-318)
(-0.00386354 0.131358 5.85081e-318)
(-0.00534639 0.110983 7.74493e-318)
(-0.00800422 0.0886846 9.20991e-318)
(-0.0112436 0.0633543 1.02911e-317)
(-0.0152727 0.0372259 1.10279e-317)
(-0.0203464 0.008675 1.14936e-317)
(-0.0254395 -0.0217505 1.17322e-317)
(-0.032031 -0.0553183 1.18015e-317)
(-0.0369127 -0.0916571 1.17247e-317)
(-0.0435878 -0.130463 1.1531e-317)
(-0.0449271 -0.169934 1.12073e-317)
(-0.0485035 -0.205317 1.07267e-317)
(-0.0405932 -0.231101 9.99021e-318)
(-0.0376331 -0.232396 8.82253e-318)
(-0.0161594 -0.197179 6.82984e-318)
(-0.0111393 -0.0944749 3.32661e-318)
(0.000566364 0.0612026 -2.51366e-318)
(0.00226369 0.118183 -2.88978e-318)
(0.00699283 0.140176 -1.4038e-318)
(0.00998825 0.138649 7.89388e-319)
(0.0128044 0.127755 2.9913e-318)
(0.0141487 0.108868 4.95757e-318)
(0.0144954 0.088229 6.56993e-318)
(0.0133181 0.0644604 7.83231e-318)
(0.0110632 0.0399543 8.76754e-318)
(0.00684181 0.0126982 9.43027e-318)
(0.00195554 -0.0165934 9.86134e-318)
(-0.00557224 -0.0498811 1.01103e-317)
(-0.0122456 -0.0865186 1.0203e-317)
(-0.022271 -0.127457 1.01652e-317)
(-0.0274323 -0.169999 9.99058e-318)
(-0.0368716 -0.211335 9.65462e-318)
(-0.0331956 -0.243074 9.06822e-318)
(-0.0371251 -0.252251 8.07068e-318)
(-0.0155446 -0.219273 6.27735e-318)
(-0.0158531 -0.111049 3.06749e-318)
(0.00251664 0.0556283 -2.88248e-318)
(0.00604704 0.108013 -3.93249e-318)
(0.0152952 0.129193 -2.92378e-318)
(0.0210852 0.128321 -1.04101e-318)
(0.0278386 0.1192 1.00887e-318)
(0.0319658 0.102307 2.93271e-318)
(0.0354543 0.0840193 4.58115e-318)
(0.0366332 0.0625824 5.92738e-318)
(0.0366143 0.0405433 6.97553e-318)
(0.0339753 0.0155954 7.76337e-318)
(0.0300941 -0.0114897 8.32447e-318)
(0.0228512 -0.0431745 8.69966e-318)
(0.015294 -0.0788473 8.91306e-318)
(0.00354257 -0.120403 8.986e-318)
(-0.00512242 -0.16509 8.91106e-318)
(-0.0186514 -0.211309 8.66554e-318)
(-0.0207812 -0.249758 8.16134e-318)
(-0.0298174 -0.267008 7.26118e-318)
(-0.0132031 -0.239313 5.62292e-318)
(-0.0159007 -0.125401 2.73048e-318)
(0.0048178 0.050557 -2.77719e-318)
(0.00926988 0.0983719 -4.15777e-318)
(0.0224922 0.117879 -3.53357e-318)
(0.0301588 0.117765 -1.98688e-318)
(0.0402753 0.109973 -1.68689e-319)
(0.0466683 0.0951614 1.61203e-318)
(0.0530731 0.0791015 3.19465e-318)
(0.0565544 0.0601383 4.52744e-318)
(0.0589984 0.0407298 5.59945e-318)
(0.0583661 0.0184459 6.43222e-318)
(0.0562333 -0.00584914 7.05e-318)
(0.0500863 -0.0351573 7.48146e-318)
(0.0428325 -0.0685987 7.74523e-318)
(0.0300652 -0.109515 7.85414e-318)
(0.019149 -0.154193 7.79733e-318)
(0.000909112 -0.204205 7.54778e-318)
(-0.00614973 -0.246642 7.02462e-318)
(-0.0239196 -0.273306 6.11223e-318)
(-0.0101566 -0.249374 4.55509e-318)
(-0.0218414 -0.136612 2.03507e-318)
(0.00576378 0.0428524 -2.43875e-318)
(0.0115911 0.0854525 -3.93559e-318)
(0.0276106 0.103623 -3.61489e-318)
(0.0373584 0.104234 -2.39061e-318)
(0.050398 0.0980262 -8.28874e-319)
(0.0591587 0.0853555 7.68835e-319)
(0.0683769 0.0716905 2.23609e-318)
(0.0743707 0.0553734 3.50654e-318)
(0.0795136 0.0387968 4.5546e-318)
(0.0815103 0.0195358 5.38826e-318)
(0.0818355 -0.00157738 6.02272e-318)
(0.078171 -0.0277402 6.47777e-318)
(0.0723879 -0.0581985 6.76524e-318)
(0.0610871 -0.0970479 6.89225e-318)
(0.0488775 -0.140866 6.84262e-318)
(0.0297107 -0.192918 6.58838e-318)
(0.0162658 -0.240275 6.05145e-318)
(-0.00503232 -0.276402 5.13814e-318)
(-0.00291971 -0.262696 3.6777e-318)
(-0.0158036 -0.15408 1.49728e-318)
(0.00757474 0.0375928 -2.13135e-318)
(0.0129138 0.0743994 -3.61239e-318)
(0.0314252 0.0900664 -3.48313e-318)
(0.041965 0.0910317 -2.51401e-318)
(0.0573016 0.0857732 -1.18409e-318)
(0.0676324 0.0751049 2.26163e-319)
(0.0791588 0.0635381 1.55787e-318)
(0.0872098 0.0497845 2.73657e-318)
(0.0948494 0.0359316 3.72868e-318)
(0.0993872 0.0197335 4.53159e-318)
(0.102494 0.00201245 5.15134e-318)
(0.101639 -0.0205383 5.59992e-318)
(0.0984114 -0.0469956 5.88343e-318)
(0.0890149 -0.0823604 6.00019e-318)
(0.0774154 -0.12256 5.93343e-318)
(0.0564116 -0.173895 5.65035e-318)
(0.0391499 -0.220432 5.08656e-318)
(0.0087192 -0.262777 4.16423e-318)
(0.00471113 -0.251081 2.79697e-318)
(-0.022306 -0.149904 9.45311e-319)
(0.00730613 0.0289962 -1.61605e-318)
(0.0136462 0.0611577 -2.98619e-318)
(0.0330722 0.0750613 -3.02256e-318)
(0.0450683 0.0765956 -2.29854e-318)
(0.0620913 0.0724174 -1.209e-318)
(0.0740622 0.0636241 -2.84088e-321)
(0.0874916 0.0540898 1.16731e-318)
(0.0974783 0.0427548 2.22426e-318)
(0.107394 0.0314736 3.12869e-318)
(0.11462 0.0182347 3.87013e-318)
(0.120706 0.00378359 4.44855e-318)
(0.123654 -0.0149887 4.86939e-318)
(0.123837 -0.0372943 5.13477e-318)
(0.119059 -0.0682692 5.24067e-318)
(0.10927 -0.104397 5.1686e-318)
(0.0921889 -0.153273 4.88929e-318)
(0.0700195 -0.200301 4.34855e-318)
(0.0410712 -0.249695 3.48502e-318)
(0.0181984 -0.251089 2.2667e-318)
(-0.00508134 -0.168544 6.99073e-319)
(0.00775025 0.0247082 -1.6511e-318)
(0.0124536 0.0505421 -2.83437e-318)
(0.032347 0.0614985 -2.86642e-318)
(0.0441484 0.0627378 -2.24533e-318)
(0.0619022 0.0591458 -1.30382e-318)
(0.0743398 0.0520217 -2.47201e-319)
(0.0886496 0.0442596 7.91058e-319)
(0.0995699 0.0351713 1.73982e-318)
(0.110872 0.0261848 2.56098e-318)
(0.119869 0.0156738 3.2405e-318)
(0.128386 0.00425959 3.77536e-318)
(0.134322 -0.0107681 4.16652e-318)
(0.13817 -0.0286498 4.41251e-318)
(0.137171 -0.0542962 4.50728e-318)
(0.131159 -0.0842557 4.43408e-318)
(0.11585 -0.127055 4.16502e-318)
(0.0939619 -0.167515 3.66365e-318)
(0.0580951 -0.214585 2.88209e-318)
(0.0297213 -0.212644 1.82429e-318)
(-0.0130301 -0.137981 5.18838e-319)
(0.00634391 0.0169593 -9.35869e-319)
(0.0114899 0.0390694 -1.99221e-318)
(0.0309498 0.0478005 -2.15272e-318)
(0.0434031 0.0492618 -1.7428e-318)
(0.0615607 0.0462753 -1.01758e-318)
(0.0743197 0.0406653 -1.64544e-319)
(0.0890492 0.034556 6.97156e-319)
(0.100418 0.0274502 1.49672e-318)
(0.112565 0.0205418 2.19572e-318)
(0.122982 0.0124345 2.778e-318)
(0.133517 0.00376259 3.23742e-318)
(0.142779 -0.0078349 3.57308e-318)
(0.150315 -0.021534 3.78259e-318)
(0.155332 -0.0418941 3.86029e-318)
(0.153646 -0.0657651 3.79229e-318)
(0.146993 -0.102255 3.55783e-318)
(0.124084 -0.137947 3.13013e-318)
(0.0984082 -0.187123 2.47658e-318)
(0.0473535 -0.197494 1.60932e-318)
(0.0207967 -0.15815 5.31956e-319)
(0.00461204 0.0140666 -1.41611e-318)
(0.00751421 0.0294662 -2.14763e-318)
(0.0249592 0.0352129 -2.15591e-318)
(0.036065 0.0358886 -1.72897e-318)
(0.0525571 0.0334807 -1.08493e-318)
(0.0641031 0.0293676 -3.49072e-319)
(0.0773494 0.0248059 3.85524e-319)
(0.0877124 0.019609 1.06626e-318)
(0.0989683 0.0144263 1.66349e-318)
(0.108987 0.00842123 2.16335e-318)
(0.119805 0.00190729 2.5602e-318)
(0.129833 -0.00664065 2.85255e-318)
(0.139639 -0.0167937 3.03803e-318)
(0.147084 -0.0316045 3.11003e-318)
(0.150372 -0.0491157 3.05879e-318)
(0.146788 -0.075595 2.86856e-318)
(0.130528 -0.101415 2.52574e-318)
(0.101709 -0.136123 2.01075e-318)
(0.0558099 -0.137023 1.33922e-318)
(0.00602179 -0.0920722 4.97816e-319)
(0.00242274 0.00872107 -1.81727e-319)
(0.00549918 0.0209802 -9.93111e-319)
(0.0222169 0.0243356 -1.19749e-318)
(0.0325734 0.0249822 -1.02579e-318)
(0.04823 0.0229933 -6.03279e-319)
(0.0580934 0.0200612 -8.52906e-320)
(0.0701225 0.0169291 4.53992e-319)
(0.0789005 0.013267 9.59075e-319)
(0.0891311 0.00982477 1.40467e-318)
(0.098428 0.00562457 1.77741e-318)
(0.109068 0.00136899 2.07281e-318)
(0.120139 -0.00454662 2.2886e-318)
(0.131474 -0.0110284 2.42334e-318)
(0.143335 -0.0212937 2.47368e-318)
(0.150522 -0.0323739 2.43214e-318)
(0.15728 -0.051967 2.28852e-318)
(0.144069 -0.0693311 2.0333e-318)
(0.135098 -0.10365 1.65668e-318)
(0.0700841 -0.111935 1.16547e-318)
(0.0604503 -0.119673 5.19075e-319)
(-0.000817346 0.00660226 -1.05983e-318)
(-3.58016e-05 0.0114202 -1.31426e-318)
(0.010703 0.0126034 -1.25451e-318)
(0.0175421 0.0126572 -9.97548e-319)
(0.0273072 0.0116513 -6.58802e-319)
(0.0337689 0.0103324 -2.82111e-319)
(0.0409436 0.00857706 8.81018e-320)
(0.046526 0.00665801 4.3004e-319)
(0.0527441 0.00443728 7.29868e-319)
(0.0585952 0.00191328 9.8159e-319)
(0.065699 -0.001039 1.18283e-318)
(0.0727831 -0.00464753 1.33198e-318)
(0.0815436 -0.00902865 1.42818e-318)
(0.0892988 -0.0146246 1.46872e-318)
(0.097454 -0.0214943 1.44959e-318)
(0.101194 -0.0300356 1.36552e-318)
(0.0988392 -0.0396175 1.21596e-318)
(0.0860624 -0.0478399 9.99584e-319)
(0.0530662 -0.0471785 7.23381e-319)
(0.0173846 -0.0134992 3.57373e-319)
(-0.00155716 0.00352568 5.42143e-319)
(0.000637594 0.00683286 -1.61609e-320)
(0.00983918 0.00655518 -1.70201e-319)
(0.013515 0.00656623 -1.8937e-319)
(0.0210483 0.00583721 -7.39073e-320)
(0.0236341 0.00500847 6.94903e-320)
(0.0287241 0.00449484 2.26168e-319)
(0.0310816 0.00359214 3.6969e-319)
(0.0352125 0.00321827 4.96032e-319)
(0.0385557 0.00227316 5.99885e-319)
(0.0432075 0.00193501 6.81593e-319)
(0.0486937 0.000658346 7.40861e-319)
(0.0546993 0.00027671 7.78346e-319)
(0.0632289 -0.00203657 7.93469e-319)
(0.0695062 -0.00245839 7.83657e-319)
(0.0808859 -0.00794029 7.46662e-319)
(0.0793244 -0.00794021 6.7982e-319)
(0.0915107 -0.024741 5.81713e-319)
(0.0502421 -0.0223871 4.61136e-319)
(0.0792494 -0.0710347 2.92862e-319)
)
;

boundaryField
{
    cavity
    {
        type            myHeatFlux;
        ThetaWall       uniform 0;
        value           nonuniform List<vector> 
60
(
(0.001 0 0)
(0.001 0 0)
(0.001 0 0)
(0.001 0 0)
(0.001 0 0)
(0.001 0 0)
(0.001 0 0)
(0.001 0 0)
(0.001 0 0)
(0.001 0 0)
(0.001 0 0)
(0.001 0 0)
(0.001 0 0)
(0.001 0 0)
(0.001 0 0)
(0.001 0 0)
(0.001 0 0)
(0.001 0 0)
(0.001 0 0)
(0.001 0 0)
(0 -0.001 0)
(0 -0.001 0)
(0 -0.001 0)
(0 -0.001 0)
(0 -0.001 0)
(0 -0.001 0)
(0 -0.001 0)
(0 -0.001 0)
(0 -0.001 0)
(0 -0.001 0)
(0 -0.001 0)
(0 -0.001 0)
(0 -0.001 0)
(0 -0.001 0)
(0 -0.001 0)
(0 -0.001 0)
(0 -0.001 0)
(0 -0.001 0)
(0 -0.001 0)
(0 -0.001 0)
(-0.001 0 0)
(-0.001 0 0)
(-0.001 0 0)
(-0.001 0 0)
(-0.001 0 0)
(-0.001 0 0)
(-0.001 0 0)
(-0.001 0 0)
(-0.001 0 0)
(-0.001 0 0)
(-0.001 0 0)
(-0.001 0 0)
(-0.001 0 0)
(-0.001 0 0)
(-0.001 0 0)
(-0.001 0 0)
(-0.001 0 0)
(-0.001 0 0)
(-0.001 0 0)
(-0.001 0 0)
)
;
    }
    lid
    {
        type            myHeatFlux;
        ThetaWall       uniform 0;
        value           nonuniform List<vector> 
20
(
(0.000135815 0.0009 0)
(0.000135815 0.0009 0)
(0.000135815 0.0009 0)
(0.000135815 0.0009 0)
(0.000135815 0.0009 0)
(0.000135815 0.0009 0)
(0.000135815 0.0009 0)
(0.000135815 0.0009 0)
(0.000135815 0.0009 0)
(0.000135815 0.0009 0)
(0.000135815 0.0009 0)
(0.000135815 0.0009 0)
(0.000135815 0.0009 0)
(0.000135815 0.0009 0)
(0.000135815 0.0009 0)
(0.000135815 0.0009 0)
(0.000135815 0.0009 0)
(0.000135815 0.0009 0)
(0.000135815 0.0009 0)
(0.000135815 0.0009 0)
)
;
    }
    frontAndBack
    {
        type            empty;
    }
}


// ************************************************************************* //
