/*--------------------------------*- C++ -*----------------------------------*\
| =========                 |                                                 |
| \\      /  F ield         | foam-extend: Open Source CFD                    |
|  \\    /   O peration     | Version:  3.0                                   |
|   \\  /    A nd           | Web:         http://www.extend-project.de       |
|    \\/     M anipulation  |                                                 |
\*---------------------------------------------------------------------------*/
FoamFile
{
    version     2.0;
    format      ascii;
    class       volScalarField;
    location    "42";
    object      p;
}
// * * * * * * * * * * * * * * * * * * * * * * * * * * * * * * * * * * * * * //

dimensions      [0 0 0 0 0 0 0];

internalField   nonuniform List<scalar> 
2688
(
-0.2366923698
-0.2173128894
-0.2057889003
-0.192560841
-0.1853675795
-0.176027035
-0.1716022819
-0.1648899236
-0.1623069017
-0.1574437321
-0.1561010544
-0.1525588957
-0.152030709
-0.1494181343
-0.149372324
-0.147370953
-0.1475187069
-0.145841974
-0.1459005889
-0.1442678998
-0.1439185763
-0.1420494363
-0.140885934
-0.1384875854
-0.2358366443
-0.2165336904
-0.2050529573
-0.1918768229
-0.1847100843
-0.1754062821
-0.1709969127
-0.1643114367
-0.1617365414
-0.1568939946
-0.1555551673
-0.152029808
-0.1515036973
-0.1489056294
-0.1488621844
-0.1468735832
-0.1470245376
-0.1453585263
-0.1454193326
-0.1437953466
-0.1434464569
-0.1415887758
-0.1404321208
-0.1380628393
-0.2345317295
-0.2153328126
-0.2039144583
-0.1908084546
-0.18367988
-0.1744232259
-0.1700349623
-0.1633790949
-0.1608117314
-0.1559843017
-0.154641378
-0.1511189984
-0.1505790978
-0.1479748523
-0.1479112235
-0.1459120401
-0.1460421686
-0.144368602
-0.1444161362
-0.1427969466
-0.1424507092
-0.1406172769
-0.1394836299
-0.1371604324
-0.232200332
-0.2131997951
-0.2018988032
-0.1889287765
-0.1818735262
-0.1727142214
-0.1683713371
-0.1617872468
-0.1592467319
-0.1544733924
-0.1531445351
-0.14966327
-0.1491277974
-0.1465542168
-0.1464862381
-0.1445086813
-0.1446239819
-0.1429651558
-0.1429844644
-0.1413780152
-0.1409946559
-0.1391811877
-0.1380286165
-0.1357504075
-0.2294281802
-0.2106524528
-0.1994851357
-0.18666745
-0.1796950087
-0.1706410565
-0.1663471035
-0.1598350649
-0.1573192716
-0.152593133
-0.1512711241
-0.1478183341
-0.1472768981
-0.1447181221
-0.1446362142
-0.1426641121
-0.1427623286
-0.141103745
-0.141107042
-0.1395015321
-0.1391072708
-0.1373076049
-0.136160058
-0.1339362649
-0.2256526779
-0.2071938874
-0.1962156835
-0.183616143
-0.1767630442
-0.167865882
-0.1636472254
-0.1572512913
-0.1547817064
-0.1501434734
-0.1488476753
-0.1454624649
-0.1449326998
-0.1424264611
-0.1423449745
-0.1404148942
-0.1405044222
-0.1388828487
-0.1388704785
-0.137302741
-0.1368919969
-0.1351338753
-0.1339887844
-0.1318212186
-0.2214477399
-0.2033316811
-0.192557277
-0.1801907342
-0.1734646276
-0.1647303743
-0.1605887233
-0.1543073381
-0.151880448
-0.1473219259
-0.1460447725
-0.1427138178
-0.1421861194
-0.1397155509
-0.1396253867
-0.1377172494
-0.1377920068
-0.1361824341
-0.1361528079
-0.1345919102
-0.1341631574
-0.1324149906
-0.1312525311
-0.1291395462
-0.2162748827
-0.1985903002
-0.1880742845
-0.1760052611
-0.1694430857
-0.1609230561
-0.1568859397
-0.1507636362
-0.1484024801
-0.1439650988
-0.1427278182
-0.1394913248
-0.1389863346
-0.1365915697
-0.1365138603
-0.1346696425
-0.1347535899
-0.1332030861
-0.1331868629
-0.1316857633
-0.1312804117
-0.1295875083
-0.1284540814
-0.1263685821
-0.2106899538
-0.1934614857
-0.1832170024
-0.1714588453
-0.1650665786
-0.156765332
-0.1528328261
-0.1468666765
-0.1445662775
-0.1402407594
-0.1390343752
-0.135877994
-0.1353840115
-0.1330468267
-0.1329681828
-0.1311663321
-0.1312455955
-0.1297295782
-0.1297168271
-0.1282520876
-0.1278768335
-0.1262280265
-0.1251662392
-0.123065209
-0.2041831566
-0.1874951911
-0.1775749484
-0.1661897257
-0.160003722
-0.1519710861
-0.1481708539
-0.1424042905
-0.1401882727
-0.1360149873
-0.1348617644
-0.131824398
-0.1313636362
-0.1291217142
-0.1290646523
-0.1273408543
-0.1274370681
-0.125987513
-0.1259940857
-0.1245906805
-0.1242464549
-0.1226554534
-0.1216443091
-0.1195480091
-0.1972882713
-0.1811638005
-0.1715793881
-0.1605789327
-0.1546036816
-0.1468429889
-0.1431737683
-0.1376030899
-0.1354652914
-0.1314347413
-0.1303245054
-0.1273922644
-0.126951495
-0.1247883578
-0.1247374339
-0.1230745622
-0.1231711736
-0.1217712526
-0.1217815005
-0.1204224569
-0.1200942278
-0.1185485283
-0.1175692348
-0.1155243821
-0.1895270408
-0.1740452041
-0.1648465237
-0.1542893578
-0.1485596151
-0.1411178637
-0.1376062836
-0.1322721564
-0.1302354179
-0.1263848174
-0.1253392249
-0.122546964
-0.1221478739
-0.1200951786
-0.1200717111
-0.1184952868
-0.1186099751
-0.1172748602
-0.1172951443
-0.1159828624
-0.1156576461
-0.1141550883
-0.1131865939
-0.1112336916
-0.1814085777
-0.1665902436
-0.1577872887
-0.1476837066
-0.1422026907
-0.1350823055
-0.1317261774
-0.126624777
-0.1246823626
-0.1210031071
-0.120011748
-0.1173479611
-0.1169775574
-0.115023751
-0.1150136187
-0.1135157553
-0.113635507
-0.112363471
-0.1123849626
-0.1111222522
-0.1107966462
-0.1093426679
-0.1083863832
-0.1065520206
-0.172487769
-0.1584060631
-0.1500451019
-0.1404491228
-0.1352490272
-0.1284929875
-0.1253167074
-0.1204844231
-0.1186568322
-0.1151810458
-0.1142630086
-0.1117562151
-0.1114336324
-0.1096024595
-0.1096251032
-0.1082217589
-0.1083645114
-0.1071604427
-0.1071951
-0.1059761498
-0.1056524279
-0.1042376783
-0.1032897615
-0.1015687756
-0.1632474329
-0.1499206235
-0.1420099998
-0.1329303183
-0.1280133168
-0.1216233788
-0.11862429
-0.1140576868
-0.1123383216
-0.1090591494
-0.1082048533
-0.1058472393
-0.1055613601
-0.1038479637
-0.1038932451
-0.1025880972
-0.1027491223
-0.1016302689
-0.1016851791
-0.1005389728
-0.1002392327
-0.09888685665
-0.09797057091
-0.09633827417
-0.1532763971
-0.1407709648
-0.1333526272
-0.124838003
-0.1202329225
-0.114247156
-0.111446382
-0.1071764686
-0.1055820168
-0.1025250509
-0.1017488738
-0.09956081216
-0.09932520409
-0.09774357225
-0.09782513312
-0.09662354794
-0.0968161339
-0.09577754684
-0.09586318403
-0.09477623023
-0.09450543818
-0.09319644161
-0.09230790031
-0.09071865698
-0.1430300507
-0.1313612028
-0.1244417779
-0.1164991936
-0.1122073589
-0.1066269452
-0.1040217598
-0.1000456905
-0.09857026751
-0.09573059183
-0.09502449235
-0.0930017573
-0.09280785028
-0.09135869097
-0.09147047571
-0.09038410659
-0.09061021199
-0.08968036893
-0.08981468077
-0.08883046159
-0.08862642503
-0.08739435233
-0.08657050903
-0.08497764114
-0.1321316258
-0.1213586807
-0.1149752894
-0.1076477362
-0.103694074
-0.09855171178
-0.09615933324
-0.09250231722
-0.09115787011
-0.08855409834
-0.0879260983
-0.08608031023
-0.08593303831
-0.08461973981
-0.08476432025
-0.08378712386
-0.08404777355
-0.08321203223
-0.08339572943
-0.08249635744
-0.08236207992
-0.08119221467
-0.08043722124
-0.07880936724
-0.1210079609
-0.1111426441
-0.1053001122
-0.09859269586
-0.09497780594
-0.0902740231
-0.08809190002
-0.0847515011
-0.08353315169
-0.08116173657
-0.08060556632
-0.07893459007
-0.07882776505
-0.07765310879
-0.07782696201
-0.07697108594
-0.07726975916
-0.07655374131
-0.07680325861
-0.07602680452
-0.07599486958
-0.07492142293
-0.07427136672
-0.07259321245
-0.1093172287
-0.100411273
-0.09514157833
-0.08909126496
-0.08583598823
-0.08159813543
-0.07963957074
-0.076635654
-0.07555073013
-0.07342433349
-0.07294157169
-0.07144986708
-0.07137846629
-0.07033699089
-0.07052668727
-0.0697754498
-0.07008787614
-0.06946512381
-0.06974405291
-0.06906215391
-0.06908969789
-0.06810016962
-0.06752766852
-0.06582823975
-0.09745625031
-0.08951754085
-0.08482360975
-0.0794334306
-0.07653766946
-0.07276540352
-0.07102805874
-0.06835812124
-0.0674026978
-0.06551804441
-0.06510395611
-0.06378920008
-0.06374887307
-0.06284111908
-0.06304460731
-0.06240296789
-0.06273219844
-0.06221266907
-0.06253248042
-0.06196012029
-0.06206958946
-0.0611871383
-0.06072699673
-0.05905158997
-0.08511903081
-0.07819135291
-0.07409986885
-0.06940070636
-0.06688135719
-0.06359709832
-0.06209100489
-0.05977079158
-0.0589490303
-0.05731536517
-0.05696775052
-0.0558317692
-0.05581191916
-0.05503087947
-0.05522543343
-0.05467689432
-0.05498316448
-0.05454340965
-0.05484450713
-0.05436128718
-0.05448226131
-0.05371578833
-0.05332721966
-0.05178063323
-0.07267034113
-0.06675746786
-0.06326935779
-0.05926197767
-0.05711819044
-0.05432045855
-0.05304334712
-0.05106973873
-0.05037828883
-0.04899148364
-0.04870636455
-0.04774459161
-0.04774134416
-0.04708206001
-0.04726501331
-0.04680289672
-0.04708604349
-0.04671479948
-0.04700038355
-0.04659043544
-0.04673115694
-0.04607914574
-0.04578890406
-0.04444950918
-0.0598413969
-0.05497883696
-0.0521154343
-0.04882466129
-0.0470697071
-0.04477653985
-0.04373616294
-0.04212221673
-0.04156429088
-0.04043310059
-0.04020893998
-0.03942589498
-0.03943148447
-0.03889420294
-0.03904849911
-0.03866936876
-0.03889825607
-0.03859057027
-0.03881031617
-0.03847288196
-0.03856505925
-0.03805130338
-0.03780626278
-0.03680949907
-0.04696227673
-0.04314951931
-0.0409096727
-0.03833387109
-0.03696606303
-0.03517465238
-0.03436860709
-0.03311024942
-0.03268261248
-0.03180152156
-0.03163421201
-0.03102251106
-0.03103206712
-0.03060652471
-0.03072695358
-0.03041571823
-0.03058580414
-0.03031928319
-0.03047110441
-0.03017679438
-0.03022484305
-0.02982743685
-0.02965560819
-0.02903696278
-0.03380326213
-0.03106722076
-0.02946686427
-0.02762478054
-0.02665403711
-0.02537838585
-0.0248129559
-0.02392144777
-0.02362813417
-0.02300711008
-0.02289931453
-0.02246902709
-0.02248443668
-0.02218249967
-0.02227045275
-0.02204283656
-0.02215432185
-0.02194997995
-0.02202873085
-0.02180099911
-0.02177823215
-0.02151219696
-0.021326032
-0.02116389103
-0.02065656268
-0.01899238077
-0.01802825288
-0.01691580771
-0.01633955741
-0.01557550046
-0.01524804458
-0.01471839708
-0.01455609154
-0.01418854815
-0.01413574077
-0.01387781286
-0.01389292842
-0.01370222017
-0.01375006117
-0.0135901369
-0.013635917
-0.01347638576
-0.01348255134
-0.01330939812
-0.01324169334
-0.01310451211
-0.01297703007
-0.01316886005
-0.007333782786
-0.006759459989
-0.006441981737
-0.006071687653
-0.00589653851
-0.005653977158
-0.005569507498
-0.005411088883
-0.005384977922
-0.005281671447
-0.005291046813
-0.005219685219
-0.005246046214
-0.005186507323
-0.005213460857
-0.005149251837
-0.005161273296
-0.005084473323
-0.005071004399
-0.004999372353
-0.004975378783
-0.005005157085
-0.005067738543
-0.00546951701
0.005914312106
0.005407931937
0.005084103062
0.004718707331
0.004496184451
0.004222635308
0.004066933399
0.003859678368
0.003752800177
0.003598682387
0.003531573893
0.003425258821
0.003393990659
0.003333470251
0.003335782791
0.003316522226
0.003348134743
0.003353304573
0.003398650646
0.003378681179
0.003387268716
0.003212497949
0.003053831478
0.002448859739
0.01923224018
0.01763637787
0.01666653134
0.01555946543
0.01493620611
0.0141412141
0.01374206779
0.01316260085
0.01291748885
0.01249638213
0.01236242466
0.01206421991
0.01201307309
0.01181283131
0.01182196069
0.01169521582
0.0117402788
0.01164998705
0.01169175423
0.01156684299
0.0115257597
0.0112221875
0.01094700564
0.01021262238
0.03241451355
0.02974247575
0.02813394641
0.02629390358
0.02527410222
0.02396403285
0.02332424752
0.02237824496
0.02199761124
0.02131578783
0.0211186274
0.02063615218
0.02057038301
0.02023909615
0.02026190562
0.02003573743
0.02010185345
0.01992131783
0.01996782415
0.01974052467
0.01966470675
0.01923698398
0.01887689205
0.01801105834
0.04555899854
0.04181149868
0.03956553352
0.03699344199
0.03557799061
0.0337527633
0.03287164726
0.03155665914
0.03103683971
0.03008805259
0.02981957282
0.02914176712
0.02904771504
0.02856989202
0.02858757969
0.0282451792
0.02831198183
0.02802986683
0.0280667326
0.02774029067
0.02762924505
0.02710053863
0.0266689765
0.02571246693
0.0585094683
0.05370372017
0.05082951149
0.04753608494
0.04572982
0.04339650533
0.04227664646
0.04059806659
0.03994092356
0.03873045241
0.03839305284
0.0375262387
0.03740794545
0.03679141315
0.03681053489
0.03636078658
0.03643780733
0.03606300857
0.03610316882
0.03568581432
0.03555714098
0.03493553798
0.03445431125
0.03341267573
0.07131420498
0.06546062232
0.06196560348
0.05795903743
0.05576724408
0.05293170419
0.05157587353
0.04953654541
0.04874154146
0.04726818707
0.04685693178
0.04579490988
0.04564196308
0.04487533708
0.04487955865
0.04430746478
0.04437364037
0.04389185224
0.04391333581
0.04339816052
0.043235507
0.04252682762
0.04199292069
0.04088381985
0.08387028919
0.07698966124
0.07288471669
0.0681774969
0.0656055346
0.06227527072
0.06068565918
0.05829031411
0.05735813606
0.05562570273
0.05514122648
0.05388862697
0.05370314456
0.05279357529
0.05278829471
0.05210496781
0.05217094061
0.0515978709
0.05161835892
0.05102458469
0.05085291678
0.05007661108
0.04951585567
0.0483502331
0.09617339378
0.08828595043
0.08358483673
0.07819267212
0.07525052852
0.07143787736
0.06962139484
0.06687915942
0.06581364644
0.06382754772
0.06327009631
0.06182766344
0.06160531196
0.06054774888
0.06052268562
0.05971659893
0.05976477854
0.05908361004
0.05907832115
0.05838910429
0.0581828266
0.05733252295
0.05673933836
0.05552310271
0.1081779145
0.09930761134
0.09402272382
0.08795960955
0.08465308255
0.08036573646
0.0783240806
0.07523868407
0.07403912672
0.07180106959
0.07116896704
0.06953837036
0.06927796979
0.06807624502
0.06803225223
0.06711152911
0.06714605956
0.06637006512
0.06634646177
0.06557760057
0.06534379882
0.06443163729
0.0638032577
0.06255944978
0.1198239155
0.1100007964
0.1041521993
0.09744141105
0.09378525594
0.08904225178
0.08678673421
0.08337413715
0.08204936963
0.0795725074
0.07887248852
0.07706360242
0.07676971748
0.07542924487
0.07536816014
0.07433201398
0.0743505394
0.07347124923
0.07341952782
0.07255574898
0.07227279563
0.07128372
0.0705886678
0.06933479929
0.1311269295
0.1203776384
0.1139790497
0.1066358344
0.1026362556
0.09744531341
0.09497717978
0.0912399318
0.08978791651
0.08707150526
0.08629965211
0.08431033306
0.08397853372
0.08249794878
0.0824162552
0.08126655776
0.08126826938
0.08029297212
0.08021818258
0.07927264786
0.07895660222
0.07790575864
0.07717489735
0.07590336845
0.1419686216
0.130332879
0.1234104722
0.1154654855
0.1111417732
0.1055284498
0.1028631477
0.09882390977
0.09725812241
0.09432306101
0.09349208673
0.09134179105
0.09098496849
0.0893818711
0.08929361508
0.08804504654
0.08804591964
0.08698502873
0.08690424599
0.08588249684
0.0855476743
0.08443650076
0.08367463517
0.08237979776
0.1524290776
0.1399356846
0.1325043088
0.1239738071
0.1193325854
0.1133045547
0.1104430324
0.1061032108
0.1044205976
0.1012638195
0.1003681553
0.09805112253
0.09766270645
0.09593061233
0.09582974139
0.09447712008
0.09447336606
0.09332438615
0.09323861065
0.09214038658
0.09179447931
0.09062138183
0.08983793077
0.08850769534
0.1623292624
0.1490273256
0.1411188836
0.1320404751
0.1271050714
0.120693838
0.1176549793
0.1130431242
0.1112606562
0.1079095474
0.1069657236
0.1045089523
0.1041057992
0.1022712668
0.1021752469
0.1007439971
0.1007531612
0.09953917176
0.09946367561
0.09830755458
0.0979594154
0.09673343437
0.09592701196
0.09455070311
0.1718165242
0.1577364373
0.1493667177
0.139757444
0.1345349326
0.1277481161
0.1245327463
0.1196492833
0.1177631966
0.1142127654
0.1132140866
0.1106090512
0.1101834909
0.1082365993
0.1081391567
0.1066199614
0.1066403981
0.1053534811
0.1052953475
0.1040735836
0.1037397137
0.102451377
0.1016364596
0.1002014669
0.1806496503
0.1658494558
0.1570555559
0.1469593463
0.1414764198
0.1343506348
0.1309801975
0.12585841
0.1238879389
0.1201703313
0.1191352366
0.1164137212
0.1159833995
0.1139552099
0.1138719087
0.1122940096
0.112336343
0.111002282
0.1109625298
0.1096944301
0.1093626481
0.1080184461
0.1071741489
0.1056649834
0.189044922
0.173556029
0.1643544911
0.153788974
0.1480531905
0.1405960309
0.1370713555
0.1317108501
0.1296516147
0.1257601695
0.1246807217
0.1218318077
0.1213872671
0.1192649224
0.1191871179
0.1175376563
0.117596944
0.1162034973
0.1161845439
0.1148581112
0.1145393192
0.1131278708
0.1122643356
0.1106697
0.196698651
0.1805874188
0.1710198743
0.1600345086
0.1540751568
0.1463273747
0.1426715931
0.1371092249
0.1349818432
0.1309520943
0.1298479905
0.1269065797
0.126466325
0.1242833216
0.1242265248
0.1225362605
0.1226220244
0.1211960417
0.1211977954
0.1198337355
0.1195167725
0.1180460184
0.1171459589
0.1154486507
0.2038963266
0.1871946241
0.1772782108
0.1658910603
0.159716241
0.1516854876
0.1478995526
0.1421342675
0.1399337376
0.1357574304
0.1346191764
0.131571865
0.1311239533
0.1288642726
0.1288163614
0.1270685492
0.1271703341
0.1256942987
0.1257085764
0.1242875668
0.1239645437
0.1224147833
0.121466782
0.1196526031
0.2102730101
0.193054718
0.182834839
0.1710999636
0.1647407217
0.1564708198
0.1525786687
0.146649795
0.1443974327
0.1401125959
0.1389611539
0.1358454795
0.1354105103
0.1331097832
0.1330885753
0.1313143587
0.1314424146
0.1299410328
0.1299648663
0.1285042161
0.1281579697
0.1265356776
0.125518011
0.1235721256
0.2161819618
0.1984789061
0.1879731878
0.1759090146
0.1693741283
0.1608729819
0.1568759168
0.150781994
0.1484722521
0.14406907
0.1428930886
0.1396928765
0.1392561331
0.1368954121
0.136887444
0.1350697142
0.1352188219
0.1336805801
0.1337237896
0.1322182139
0.1318721148
0.1301743222
0.1291063394
0.1270213509
0.2212000266
0.2030926346
0.1923494064
0.1800135409
0.1733348953
0.1646481945
0.1605699268
0.1543515323
0.1520055055
0.1475237222
0.1463453012
0.1431011562
0.1426871186
0.1403063014
0.1403363898
0.1385094586
0.1386977474
0.1371451015
0.1372083648
0.1356648247
0.1352971752
0.1335176918
0.1323698387
0.1301323816
0.2257448074
0.2072644484
0.1963017878
0.1837130561
0.1769003668
0.1680366561
0.1638793185
0.1575351164
0.155147095
0.1505754618
0.1493808281
0.1460725639
0.1456606459
0.143234304
0.1432800208
0.1414209651
0.1416354434
0.1400589565
0.1401548266
0.1385856836
0.1382419512
0.1364087223
0.1352353085
0.1328623663
0.2293400046
0.2105725025
0.1994407778
0.1866591741
0.1797442016
0.1707496493
0.1665354321
0.1601055716
0.1576947199
0.1530731347
0.1518838084
0.1485549573
0.1481733036
0.1457493738
0.145847281
0.1440042672
0.1442865168
0.1427251154
0.1428906625
0.1413156393
0.1410193446
0.1391329423
0.1379454273
0.1354264993
0.2324619502
0.2134379133
0.2021556673
0.1892005559
0.1821943387
0.1730787778
0.1688115388
0.1622959757
0.1598577984
0.1551748496
0.1539757815
0.1506020264
0.1502226295
0.147764293
0.1478729102
0.1460019151
0.1463022366
0.1447172276
0.1449083868
0.1433112265
0.14304118
0.1411179475
0.1399237087
0.1373008861
0.234588412
0.2153977672
0.2040165536
0.190949144
0.1838824361
0.1746910228
0.170390008
0.1638261845
0.161375257
0.1566675788
0.1554749409
0.1520984975
0.1517455323
0.1493056748
0.1494630362
0.1476287169
0.1480017577
0.1464630878
0.1467480103
0.1451902796
0.1450210161
0.1431039056
0.141980192
0.139258474
0.2362465973
0.2169189906
0.2054578199
0.1922981855
0.1851837328
0.1759284129
0.1716003985
0.1649915303
0.1625272865
0.1577869976
0.1565897271
0.1531877512
0.1528346971
0.1503712035
0.1505295137
0.1486684176
0.1490413267
0.1474689901
0.1477522408
0.1461539179
0.145979993
0.1440212646
0.1428837256
0.1401272367
0.23687763
0.2175057068
0.2060165997
0.1928261303
0.1856931306
0.1764167919
0.172077113
0.1654556207
0.1629856386
0.1582413954
0.1570445453
0.153648973
0.1533035539
0.1508594076
0.1510339902
0.1492071077
0.1496060076
0.1480807319
0.1483985199
0.1468498802
0.1467097423
0.1447849649
0.1436569461
0.1409288302
0.2370496435
0.217661956
0.2061642793
0.1929638066
0.1858268273
0.1765441572
0.1722033472
0.1655777451
0.1631080419
0.158360528
0.1571638067
0.1537638981
0.1534164973
0.1509638616
0.1511321533
0.1492877034
0.1496740342
0.1481162661
0.1484133429
0.1468170856
0.1466478916
0.1446821427
0.1435323749
0.1408306662
0.23617816
0.2168686695
0.2054144112
0.1922647749
0.1851514772
0.1759025465
0.1715722601
0.1649688468
0.1624999234
0.1577667063
0.1565625392
0.1531721207
0.1528088083
0.1503641234
0.1505060163
0.1486717919
0.1490185284
0.1474775162
0.1477221531
0.1461529161
0.1459289268
0.1440036343
0.1428275384
0.1401958645
0.2348606457
0.2156566922
0.2042652654
0.1911878168
0.1841141774
0.1749163355
0.1706105362
0.1640437912
0.1615884676
0.1568815297
0.1556823073
0.1523102189
0.1519443728
0.1495109776
0.1496439766
0.1478127915
0.1481457655
0.1465969255
0.1468238715
0.1452379371
0.144994663
0.1430629331
0.1418828401
0.1392969451
0.2324991899
0.2134946941
0.202217769
0.1892724379
0.1822651731
0.1731560893
0.1688843591
0.1623755099
0.1599302919
0.1552574176
0.1540483628
0.1506907511
0.1502959116
0.1478605282
0.1479434737
0.1460977219
0.1463568122
0.1447884642
0.1449198218
0.1433235825
0.1429821931
0.1410696786
0.1398392816
0.1373318505
0.2297081042
0.2109290409
0.1997855698
0.1869936414
0.1800691927
0.1710678517
0.1668459324
0.1604138398
0.1579953818
0.15337761
0.1521782792
0.1488608891
0.1484630781
0.1460585277
0.146130346
0.1443108493
0.1445561982
0.1430145827
0.1431352415
0.1415723191
0.1412297143
0.1393619955
0.1381521923
0.135702889
0.2258884577
0.2074274377
0.196468596
0.1838889937
0.1770739793
0.1682167761
0.1640544294
0.1577180806
0.1553235125
0.1507642976
0.1495616034
0.1462722357
0.1458489693
0.1434462786
0.1434737177
0.141634327
0.1418187414
0.1402437777
0.1402919758
0.1386993255
0.1382892
0.136424353
0.1351905966
0.1328176778
0.2216589905
0.2035404137
0.1927840867
0.1804372123
0.1737473648
0.1650532463
0.1609657836
0.1547452137
0.1523907575
0.1479141675
0.1467264029
0.1434968406
0.1430702148
0.1407136702
0.1407260772
0.1389294374
0.1390949408
0.1375719838
0.1376068976
0.1360856585
0.1356798658
0.1338988808
0.1326995236
0.1303954256
0.2164314383
0.1987454277
0.1882420681
0.1761857712
0.1696482499
0.161153524
0.1571526237
0.1510676573
0.1487544495
0.1443658605
0.1431876612
0.1400088757
0.1395707608
0.1372351034
0.1372243601
0.1354250169
0.135564113
0.134023025
0.1340361191
0.1324962206
0.1320835626
0.1303109547
0.1291361493
0.1269055584
0.2108175691
0.1935866916
0.1833525577
0.1716055311
0.165234369
0.1569562717
0.1530551154
0.1471237623
0.1448647034
0.1405852401
0.1394287508
0.1363277932
0.1358881686
0.1336106777
0.1335831678
0.1318358155
0.131951591
0.1304726401
0.1304671581
0.1290107854
0.1285994524
0.1269214893
0.1257826157
0.1236267011
0.2042499155
0.1875607125
0.1776451329
0.1662638935
0.1600869014
0.1520622758
0.1482749562
0.1425196892
0.1403205247
0.1361610942
0.1350287154
0.1320061576
0.1315694936
0.1293395338
0.1293069707
0.1275850692
0.1276992979
0.1262321141
0.1262376025
0.1247908155
0.1244094308
0.1227592513
0.1216729705
0.1195898774
0.1973236086
0.1811965252
0.1716137229
0.1606146195
0.1546435726
0.1468868112
0.1432237178
0.1376586239
0.1355284767
0.1315042455
0.1304026074
0.127476131
0.127043832
0.1248843086
0.1248393922
0.1231768054
0.1232714401
0.1218680191
0.1218579418
0.1204887228
0.1201100787
0.1185452658
0.1174948414
0.1154891926
0.1895000504
0.1740170246
0.1648146032
0.1542522727
0.1485151969
0.1410635
0.1375405034
0.1321907591
0.1301384016
0.1262658339
0.1252011497
0.12238056
0.1219611178
0.1198753804
0.1198337838
0.1182242372
0.1183257154
0.1169646205
0.1169760647
0.1156486844
0.1153138441
0.1138030591
0.1128189881
0.1108918647
0.1813501291
0.1665291847
0.1577191049
0.1476071874
0.1421134646
0.1349779374
0.1316027937
0.1264781611
0.1245099876
0.1207983207
0.1197749381
0.1170696504
0.1166634983
0.1146625302
0.1146179157
0.1130767572
0.1131690841
0.1118723445
0.1118784994
0.110618159
0.1102931393
0.1088540667
0.1079087101
0.106063036
0.1723700413
0.1582875604
0.149914956
0.1403054213
0.1350825159
0.1282999092
0.1250891194
0.1202163041
0.1183419969
0.1148110848
0.1138349707
0.1112599955
0.1108723471
0.1089670563
0.108927305
0.1074607041
0.1075584707
0.1063273292
0.1063529674
0.1051596993
0.1048782738
0.1035152466
0.1026396426
0.1008825623
0.1631008185
0.1497721024
0.1418465955
0.1327502472
0.1278052751
0.1213834797
0.118342619
0.1137275561
0.1119518787
0.1086064557
0.1076819949
0.1052415636
0.1048761694
0.1030709188
0.1030374901
0.10164974
0.101748484
0.1005843861
0.1006145931
0.09948250006
0.09921894029
0.0979213278
0.09709086766
0.0954233704
0.153077469
0.1405724702
0.13313593
0.1246011638
0.1199601593
0.1139343842
0.1110795006
0.10674887
0.1050809852
0.1019418551
0.1010729495
0.09878348005
0.09844029044
0.09674816711
0.09671969167
0.09542256149
0.09552504299
0.09444312458
0.0944918207
0.09344441143
0.09322587792
0.09202031654
0.09126451151
0.08969703219
0.1428071959
0.1311382003
0.124197936
0.1162327531
0.1119008067
0.1062760657
0.1036109528
0.09956760494
0.09801108847
0.09507981202
0.09427106207
0.09213368596
0.09181897317
0.09024063766
0.09022335739
0.0890142515
0.08912104407
0.08810931651
0.08816390756
0.08717641322
0.08697628399
0.08583733539
0.08513033654
0.08366411054
0.1318663974
0.1210961327
0.1146899779
0.1073382874
0.103339195
0.09814804997
0.09568750526
0.09195670785
0.09051965589
0.08781627482
0.08706976417
0.08510034636
0.08481075036
0.08335941765
0.08334752217
0.0822413151
0.08235184116
0.08143455089
0.08150973943
0.08062002378
0.08047090729
0.07943734343
0.07881495719
0.07746106052
0.1207255968
0.1108630666
0.1049961129
0.09826324522
0.09460036484
0.0898453969
0.08759175392
0.08417397519
0.08285878018
0.08038251874
0.07970211893
0.07789945028
0.07764096203
0.0763142248
0.07631318627
0.07530169449
0.07541299518
0.07456856763
0.07464322123
0.07381470546
0.07367727201
0.0727147426
0.07213993129
0.07089857297
0.1090042673
0.1001042634
0.09480960575
0.0887341342
0.085428316
0.08113843988
0.07910466168
0.07602265725
0.07483623937
0.0726053523
0.07199228668
0.07037095333
0.07013951091
0.0689501187
0.06895380426
0.06805313384
0.06816511812
0.06742099661
0.06751078299
0.06678461941
0.06669137336
0.06583955888
0.06534623657
0.06422675375
0.09713397731
0.08920200034
0.08448265703
0.07906743674
0.07612064984
0.07229651296
0.07048384603
0.06773638008
0.06668002039
0.06469202934
0.06414871746
0.06270558811
0.06250507975
0.06144823562
0.06145922549
0.06065847721
0.06076513814
0.06009815059
0.06018076833
0.05952209236
0.05943649756
0.05866504895
0.05822107301
0.05722368919
0.0847786134
0.07786088538
0.07374459653
0.06902211039
0.06645164192
0.06311763408
0.06153669124
0.05914309826
0.05822242105
0.05649308543
0.05602065765
0.05476874542
0.05459646846
0.05368419298
0.05369897304
0.0530134966
0.05311704369
0.05255137738
0.0526411018
0.05208274316
0.05202946384
0.05136723716
0.05099552311
0.05012580532
0.07232856088
0.06642693221
0.06291481961
0.05888568333
0.05669249923
0.05384786878
0.05249931333
0.0504573744
0.04967295495
0.04819877395
0.04779812997
0.04673281617
0.04658970636
0.04581533001
0.04583229531
0.04525050676
0.04534165951
0.0448581624
0.04493455801
0.04445304914
0.04440558562
0.04383639918
0.04351828201
0.04277969542
0.05949359696
0.05464516391
0.0517590982
0.04844906393
0.04664636144
0.04431021677
0.04320178649
0.04152659055
0.0408823758
0.03967590689
0.03934817222
0.03848056833
0.03836629789
0.03774121255
0.03776181866
0.03729841874
0.0373857245
0.03700485682
0.03708719943
0.03670599032
0.03669024908
0.03623129353
0.03598736631
0.03538182011
0.04662031217
0.04282321675
0.04056260153
0.03797029087
0.03655840747
0.0347291243
0.0338614895
0.03255061056
0.0320472405
0.03110484485
0.03085018715
0.03017491538
0.03008795018
0.02960386177
0.02962190514
0.02926389823
0.02933214091
0.02903601875
0.02909824545
0.02879937574
0.02878484829
0.02842669827
0.02823651304
0.02776885585
0.03346636529
0.03074810305
0.02912854996
0.02727248645
0.02626013629
0.02495094315
0.02432848596
0.02339201285
0.02303110902
0.02236123095
0.02217986473
0.02170512843
0.02164619265
0.02131292213
0.02133287089
0.02109403481
0.02115570101
0.02096311719
0.02102821479
0.0208320604
0.0208481568
0.02060496199
0.02049193684
0.02016312086
0.02033124352
0.01868629036
0.0177056231
0.01658264165
0.01596979649
0.01517862244
0.01480251405
0.01423855021
0.01402171496
0.01362171999
0.01351468375
0.01323597072
0.01320393465
0.01301358399
0.01302962304
0.01289714451
0.01293860721
0.01283175667
0.01287650082
0.01276376653
0.01278122826
0.01263944533
0.01258044558
0.01239096586
0.007023233224
0.006469096417
0.006136431295
0.005757512492
0.00554822303
0.005282067325
0.00515309276
0.004966199256
0.004892214731
0.004765502088
0.004730861591
0.00465176712
0.004645506746
0.004603404036
0.004616832268
0.004599380904
0.00462571058
0.004617760771
0.004651877149
0.004639281846
0.004672032706
0.004646402823
0.004654736521
0.004607855789
-0.006209428786
-0.005681802351
-0.005370164284
-0.00500985836
-0.004815946683
-0.004559408867
-0.004439453967
-0.004250205979
-0.00417836152
-0.004032441111
-0.00399160082
-0.003872693234
-0.00385091647
-0.003748480899
-0.003736306216
-0.00364527786
-0.003632778589
-0.003551805483
-0.003527074388
-0.00345318265
-0.003406377747
-0.003330127538
-0.003259565366
-0.003170171232
-0.01950428419
-0.01788766013
-0.01692916127
-0.01582628856
-0.01522969239
-0.01444968969
-0.01408341081
-0.01351902052
-0.01330518267
-0.01288859804
-0.01277638277
-0.01246157385
-0.01241560558
-0.0121704255
-0.01216423644
-0.01196637387
-0.01197654661
-0.01180762397
-0.01180736059
-0.01164463942
-0.01160086686
-0.01141599007
-0.01129299509
-0.01106147713
-0.03266926417
-0.02997600678
-0.02837590986
-0.02653699726
-0.02553863238
-0.0242378894
-0.02362328264
-0.02268385641
-0.0223242708
-0.02163558351
-0.0214476418
-0.02093486284
-0.02086000044
-0.02046936979
-0.02046163751
-0.02015228613
-0.02016928459
-0.01990523138
-0.01990176842
-0.01964410964
-0.01957057778
-0.01927791641
-0.0190815574
-0.01871765469
-0.04578355443
-0.04201687229
-0.03977907573
-0.03720829317
-0.03581289039
-0.03399648871
-0.03313889897
-0.0318304122
-0.03133044947
-0.03037628579
-0.0301171006
-0.02941344441
-0.02931317554
-0.02878557816
-0.02878172083
-0.02837361569
-0.02841163752
-0.02807205064
-0.02809419453
-0.0277645782
-0.02769952685
-0.02731411359
-0.02707315796
-0.02657225657
-0.05871666682
-0.05389195751
-0.05102340843
-0.04772911235
-0.04593859341
-0.04361013438
-0.04250816775