/*--------------------------------*- C++ -*----------------------------------*\
| =========                 |                                                 |
| \\      /  F ield         | foam-extend: Open Source CFD                    |
|  \\    /   O peration     | Version:  3.0                                   |
|   \\  /    A nd           | Web:         http://www.extend-project.de       |
|    \\/     M anipulation  |                                                 |
\*---------------------------------------------------------------------------*/
FoamFile
{
    version     2.0;
    format      ascii;
    class       volSymmTensorField;
    location    "10";
    object      sigma;
}
// * * * * * * * * * * * * * * * * * * * * * * * * * * * * * * * * * * * * * //

dimensions      [0 0 0 0 0 0 0];

internalField   nonuniform List<symmTensor> 
400
(
(0.0106261 -0.000408973 0 -0.0118834 0 0.00125733)
(0.0160762 -0.000581018 0 -0.013106 0 -0.00297019)
(0.0189314 -0.00134521 0 -0.0132302 0 -0.00570126)
(0.019551 -0.00215077 0 -0.0124781 0 -0.00707293)
(0.0185921 -0.00320209 0 -0.0112474 0 -0.00734474)
(0.0163407 -0.00395685 0 -0.00959371 0 -0.006747)
(0.013217 -0.00476122 0 -0.00770795 0 -0.00550901)
(0.00946079 -0.00520993 0 -0.00564173 0 -0.00381906)
(0.00530398 -0.00567832 0 -0.0034629 0 -0.00184107)
(0.000958371 -0.00575832 0 -0.00123966 0 0.000281288)
(-0.00346281 -0.00587657 0 0.00103661 0 0.0024262)
(-0.00770626 -0.0055535 0 0.00324329 0 0.00446297)
(-0.011747 -0.00532942 0 0.00546579 0 0.00628117)
(-0.0151851 -0.00456556 0 0.00745929 0 0.00772576)
(-0.0181009 -0.00404982 0 0.00942541 0 0.00867552)
(-0.0197702 -0.00280006 0 0.0108525 0 0.00891765)
(-0.0205348 -0.00224985 0 0.0122039 0 0.00833091)
(-0.0189121 -0.000557288 0 0.0122845 0 0.00662764)
(-0.0161723 -0.00113556 0 0.01234 0 0.00383224)
(-0.00947516 0.000222408 0 0.00978517 0 -0.000310001)
(0.0121059 0.000869643 0 -0.0182844 0 0.0061785)
(0.0168197 0.000216134 0 -0.0186758 0 0.00185617)
(0.0194863 -0.000712887 0 -0.0183574 0 -0.00112886)
(0.0201558 -0.00166046 0 -0.0172173 0 -0.00293858)
(0.0192751 -0.00279415 0 -0.0155089 0 -0.00376622)
(0.0170788 -0.003761 0 -0.0132747 0 -0.00380415)
(0.0139487 -0.00471097 0 -0.0107098 0 -0.00323887)
(0.0101124 -0.00537844 0 -0.00787465 0 -0.00223778)
(0.00583744 -0.00593066 0 -0.0048866 0 -0.000950838)
(0.0013196 -0.00612263 0 -0.00180671 0 0.000487119)
(-0.00326646 -0.00617767 0 0.00131339 0 0.00195308)
(-0.00770814 -0.00582369 0 0.00438186 0 0.00332628)
(-0.0118816 -0.00538899 0 0.00739263 0 0.00448896)
(-0.0154829 -0.00451609 0 0.0101715 0 0.00531141)
(-0.0184133 -0.00373039 0 0.0127502 0 0.00566307)
(-0.0202075 -0.00247709 0 0.0148165 0 0.00539102)
(-0.0207962 -0.00169701 0 0.0164419 0 0.00435433)
(-0.0196425 -0.00035593 0 0.0172533 0 0.00238926)
(-0.0166273 -0.000270343 0 0.0172288 0 -0.000601571)
(-0.0119226 0.000801316 0 0.016681 0 -0.00475837)
(0.0121206 0.000990578 0 -0.0217139 0 0.0095933)
(0.0169222 0.000499222 0 -0.0222716 0 0.00534941)
(0.019429 -0.000167607 0 -0.0216824 0 0.00225339)
(0.0200201 -0.000997246 0 -0.0202007 0 0.000180673)
(0.0190853 -0.00205834 0 -0.0180633 0 -0.00102198)
(0.0169303 -0.00309338 0 -0.0154163 0 -0.001514)
(0.0138732 -0.00410961 0 -0.0124212 0 -0.00145196)
(0.0101373 -0.00490497 0 -0.00915512 0 -0.000982168)
(0.00597562 -0.00551283 0 -0.00573617 0 -0.000239453)
(0.00155817 -0.00577408 0 -0.00221011 0 0.000651944)
(-0.0029153 -0.00579062 0 0.00133955 0 0.00157575)
(-0.00728324 -0.00541326 0 0.00486419 0 0.00241905)
(-0.011362 -0.00485113 0 0.00829224 0 0.00306975)
(-0.0149509 -0.00392413 0 0.0115398 0 0.00341114)
(-0.017843 -0.00301608 0 0.0145202 0 0.00332273)
(-0.0197752 -0.00183678 0 0.0170991 0 0.00267609)
(-0.0204798 -0.00106349 0 0.0191364 0 0.00134336)
(-0.0197001 -0.000116376 0 0.0205049 0 -0.000804827)
(-0.0169612 9.97173e-05 0 0.02084 0 -0.00387876)
(-0.0122258 0.000513005 0 0.020209 0 -0.00798321)
(0.0120223 0.00226614 0 -0.0238478 0 0.0118255)
(0.0164099 0.00162803 0 -0.024125 0 0.00771505)
(0.0185872 0.000832526 0 -0.0231998 0 0.00461264)
(0.0190152 -0.000112211 0 -0.0214244 0 0.00240923)
(0.0180687 -0.00123633 0 -0.0190451 0 0.000976421)
(0.0160201 -0.00236254 0 -0.0161997 0 0.000179587)
(0.0131581 -0.00345282 0 -0.0130429 0 -0.000115159)
(0.00967044 -0.004338 0 -0.00963485 0 -3.55929e-05)
(0.00579889 -0.00500146 0 -0.00609699 0 0.000298094)
(0.0016791 -0.00531163 0 -0.00245229 0 0.00077319)
(-0.00248416 -0.00532201 0 0.00120147 0 0.00128269)
(-0.00657375 -0.00493591 0 0.00485121 0 0.00172253)
(-0.010386 -0.0043075 0 0.00839667 0 0.0019893)
(-0.0137934 -0.00335245 0 0.0118163 0 0.00197717)
(-0.0165451 -0.00235482 0 0.0149678 0 0.00157734)
(-0.0185111 -0.00118816 0 0.0178345 0 0.000676612)
(-0.0193151 -0.000277629 0 0.0201546 0 -0.000839425)
(-0.0189249 0.000650536 0 0.0220101 0 -0.00308524)
(-0.0165777 0.00122043 0 0.0227465 0 -0.00616875)
(-0.0123503 0.00174197 0 0.0225447 0 -0.0101944)
(0.0113376 0.00281833 0 -0.0243423 0 0.0130047)
(0.0154568 0.00235371 0 -0.0245666 0 0.00910977)
(0.0174029 0.00158939 0 -0.0234946 0 0.00609166)
(0.0176917 0.00059514 0 -0.0215563 0 0.00386466)
(0.0167161 -0.000605724 0 -0.0190365 0 0.00232031)
(0.014771 -0.00183863 0 -0.016114 0 0.00134297)
(0.0121228 -0.00303526 0 -0.0129395 0 0.000816685)
(0.0089443 -0.0040277 0 -0.00957369 0 0.000629386)
(0.00544642 -0.00476927 0 -0.00612087 0 0.000674449)
(0.00173234 -0.00513491 0 -0.00258299 0 0.000850649)
(-0.00201394 -0.00515304 0 0.000952823 0 0.00106112)
(-0.00571997 -0.00475042 0 0.0045087 0 0.00121126)
(-0.00919214 -0.00405825 0 0.00798503 0 0.00120712)
(-0.0123593 -0.00303813 0 0.0114064 0 0.000952968)
(-0.0149708 -0.00193448 0 0.01462 0 0.000350771)
(-0.016946 -0.000697533 0 0.017647 0 -0.000701039)
(-0.0178977 0.000352455 0 0.0202034 0 -0.00230569)
(-0.0177448 0.0013282 0 0.0223117 0 -0.00456682)
(-0.0157565 0.00207608 0 0.0233392 0 -0.00758269)
(-0.0117265 0.00250968 0 0.0231659 0 -0.0114394)
(0.0104733 0.00387673 0 -0.0237943 0 0.013321)
(0.0141226 0.00336516 0 -0.0237992 0 0.00967666)
(0.0157429 0.00244155 0 -0.0225548 0 0.00681192)
(0.01586 0.00122088 0 -0.0205093 0 0.00464935)
(0.0148781 -0.000204873 0 -0.0179708 0 0.0030927)
(0.0130754 -0.00167082 0 -0.0151156 0 0.00204014)
(0.0107095 -0.00306529 0 -0.0120992 0 0.0013897)
(0.00791903 -0.00423085 0 -0.00896174 0 0.00104271)
(0.0048911 -0.00509243 0 -0.00579588 0 0.000904778)
(0.00168666 -0.00553474 0 -0.00257253 0 0.000885872)
(-0.00153514 -0.00556446 0 0.000635787 0 0.000899353)
(-0.00474994 -0.00512809 0 0.00388954 0 0.000860398)
(-0.00778324 -0.0043337 0 0.00709867 0 0.000684566)
(-0.0106173 -0.00318034 0 0.0103314 0 0.000285834)
(-0.0130078 -0.00187393 0 0.0134319 0 -0.000424095)
(-0.0149218 -0.000429189 0 0.0164588 0 -0.001537)
(-0.0159574 0.000900267 0 0.0191043 0 -0.0031469)
(-0.0160385 0.00210726 0 0.0213873 0 -0.00534884)
(-0.0144364 0.00306388 0 0.0226696 0 -0.00823315)
(-0.0108582 0.00354262 0 0.0227349 0 -0.0118767)
(0.00939375 0.00433286 0 -0.0222682 0 0.0128744)
(0.0124996 0.00391182 0 -0.0220178 0 0.0095182)
(0.0137886 0.00287173 0 -0.0206572 0 0.00686868)
(0.0137348 0.00139662 0 -0.0185824 0 0.00484752)
(0.0127602 -0.000328146 0 -0.016125 0 0.00336473)
(0.011122 -0.00209838 0 -0.0134499 0 0.00232797)
(0.00907004 -0.00376798 0 -0.0107165 0 0.00164643)
(0.00671347 -0.00516238 0 -0.00794632 0 0.00123285)
(0.004209 -0.00618838 0 -0.00521313 0 0.00100413)
(0.00157837 -0.00672574 0 -0.00245933 0 0.000880965)
(-0.00105618 -0.00676928 0 0.000269174 0 0.000787005)
(-0.00371364 -0.00627244 0 0.00306638 0 0.000647265)
(-0.00625431 -0.00533318 0 0.00586738 0 0.000386934)
(-0.00869974 -0.00397144 0 0.00877035 0 -7.06073e-05)
(-0.0108339 -0.0023823 0 0.0116384 0 -0.000804479)
(-0.0126385 -0.000622955 0 0.0145363 0 -0.00189779)
(-0.013737 0.00105964 0 0.0171737 0 -0.00343674)
(-0.0140064 0.00257046 0 0.0195162 0 -0.00550987)
(-0.0127951 0.00373688 0 0.0209978 0 -0.00820271)
(-0.00973301 0.00422788 0 0.0213231 0 -0.0115901)
(0.00804079 0.00518317 0 -0.0197642 0 0.0117234)
(0.0105062 0.00452384 0 -0.0192113 0 0.00870513)
(0.0114043 0.00312892 0 -0.017738 0 0.00633372)
(0.0111622 0.00122566 0 -0.0156888 0 0.00452651)
(0.0102146 -0.000947105 0 -0.0134104 0 0.00319579)
(0.00878133 -0.00315684 0 -0.0110373 0 0.00225592)
(0.00710382 -0.00520726 0 -0.00872895 0 0.00162513)
(0.00524985 -0.00691431 0 -0.00647631 0 0.00122645)
(0.00334719 -0.00815547 0 -0.00433459 0 0.000987394)
(0.00137248 -0.00881305 0 -0.00221176 0 0.000839273)
(-0.000587816 -0.00886414 0 -0.000128265 0 0.000716081)
(-0.00259986 -0.00827405 0 0.00204689 0 0.000552978)
(-0.00455645 -0.00712814 0 0.00427152 0 0.000284934)
(-0.00652619 -0.00547042 0 0.00668133 0 -0.00015514)
(-0.0083141 -0.00349031 0 0.0091515 0 -0.0008374)
(-0.00994149 -0.00128964 0 0.0117782 0 -0.00183672)
(-0.0110393 0.000867902 0 0.0142718 0 -0.00323244)
(-0.0115047 0.00281729 0 0.0166128 0 -0.00510815)
(-0.0107138 0.00430774 0 0.018261 0 -0.00754724)
(-0.00830611 0.00498692 0 0.0189314 0 -0.0106253)
(0.00657213 0.00537815 0 -0.016491 0 0.00991884)
(0.00828025 0.00456642 0 -0.015569 0 0.00728878)
(0.00872059 0.00280497 0 -0.0139825 0 0.00526187)
(0.00826394 0.00039548 0 -0.0120046 0 0.00374063)
(0.00735141 -0.00232577 0 -0.00998736 0 0.00263595)
(0.00615375 -0.00506022 0 -0.00802066 0 0.00186691)
(0.0048969 -0.00757412 0 -0.0062568 0 0.0013599)
(0.00360103 -0.00964991 0 -0.00464875 0 0.00104772)
(0.00236089 -0.011149 0 -0.00322936 0 0.000868474)
(0.00110685 -0.0119432 0 -0.00187111 0 0.000764259)
(-0.000114555 -0.0120005 0 -0.000565308 0 0.000679863)
(-0.00141368 -0.0112914 0 0.000852669 0 0.000561008)
(-0.00272366 -0.00989324 0 0.00237065 0 0.000353012)
(-0.00415342 -0.00787182 0 0.00415471 0 -1.28634e-06)
(-0.00554541 -0.00541592 0 0.0061081 0 -0.000562699)
(-0.00694985 -0.00267413 0 0.00834766 0 -0.00139781)
(-0.00803458 6.42748e-05 0 0.0106139 0 -0.00257935)
(-0.00870432 0.00255756 0 0.0128916 0 -0.00418724)
(-0.00839307 0.00446265 0 0.0146992 0 -0.00630617)
(-0.00674979 0.00537398 0 0.0157732 0 -0.00902344)
(0.00470472 0.00602231 0 -0.0121535 0 0.00744881)
(0.00560014 0.00461893 0 -0.0108977 0 0.00529761)
(0.00556443 0.00218121 0 -0.00925936 0 0.00369492)
(0.0048974 -0.000939195 0 -0.00743277 0 0.00253537)
(0.00405536 -0.00436786 0 -0.00578439 0 0.00172903)
(0.00314649 -0.00775789 0 -0.00434631 0 0.00119982)
(0.00237583 -0.0108301 0 -0.00325824 0 0.000882413)
(0.00171056 -0.0133457 0 -0.00243039 0 0.00071983)
(0.00120689 -0.0151418 0 -0.00186818 0 0.000661288)
(0.000751069 -0.0160899 0 -0.00141146 0 0.00066039)
(0.000347581 -0.0161437 0 -0.00102097 0 0.000673393)
(-0.000154473 -0.0152844 0 -0.000502986 0 0.000657459)
(-0.000728218 -0.0135797 0 0.000159181 0 0.000569037)
(-0.00152727 -0.0111177 0 0.00116543 0 0.000361845)
(-0.00242805 -0.00809093 0 0.00244281 0 -1.47596e-05)
(-0.0035353 -0.00469096 0 0.00415349 0 -0.000618194)
(-0.00453908 -0.00124574 0 0.00605311 0 -0.00151404)
(-0.00540712 0.00194501 0 0.00818529 0 -0.00277818)
(-0.00558376 0.00445891 0 0.0100799 0 -0.00449614)
(-0.00478329 0.00587984 0 0.0115439 0 -0.00676056)
(0.00276503 0.00584903 0 -0.0071229 0 0.00435787)
(0.00270268 0.00395426 0 -0.00546904 0 0.00276636)
(0.00209066 0.000819679 0 -0.00376399 0 0.00167333)
(0.00118236 -0.00309929 0 -0.00213657 0 0.000954209)
(0.000422528 -0.00733585 0 -0.00093986 0 0.000517331)
(-0.000154431 -0.0114498 0 -0.000137932 0 0.000292363)
(-0.000379762 -0.0151411 0 0.000156188 0 0.000223574)
(-0.000351205 -0.0181276 0 8.57562e-05 0 0.000265449)
(-5.31111e-05 -0.0202449 0 -0.000326461 0 0.000379572)
(0.000351736 -0.0213536 0 -0.000883855 0 0.000532119)
(0.000829273 -0.0214045 0 -0.00152126 0 0.000691989)
(0.0011877 -0.0203852 0 -0.00201653 0 0.000828835)
(0.00141411 -0.0183513 0 -0.00232561 0 0.000911502)
(0.0013103 -0.0154155 0 -0.00221615 0 0.000905847)
(0.000954763 -0.0117574 0 -0.00172768 0 0.000772919)
(0.000187676 -0.00762423 0 -0.000653678 0 0.000466001)
(-0.000729711 -0.00335616 0 0.000801472 0 -7.17614e-05)
(-0.00182322 0.000654928 0 0.0027345 0 -0.000911271)
(-0.00257946 0.00389664 0 0.0047197 0 -0.00214024)
(-0.00275122 0.00587407 0 0.00662059 0 -0.00386937)
(0.000274288 0.00626916 0 -0.000886897 0 0.000612609)
(-0.000761691 0.00332642 0 0.00104186 0 -0.000280167)
(-0.00190156 -0.00088574 0 0.00266278 0 -0.000761221)
(-0.00299913 -0.00584549 0 0.00395583 0 -0.000956699)
(-0.00360234 -0.0110497 0 0.00455682 0 -0.000954482)
(-0.00376964 -0.0160008 0 0.00458545 0 -0.000815807)
(-0.00337867 -0.0203731 0 0.00396285 0 -0.00058418)
(-0.00258826 -0.0238685 0 0.00287968 0 -0.000291428)
(-0.0014358 -0.0263183 0 0.00139764 0 3.81567e-05)
(-0.000116406 -0.027589 0 -0.000268523 0 0.000384929)
(0.00128885 -0.0276259 0 -0.0020206 0 0.00073175)
(0.00256749 -0.0264278 0 -0.0036297 0 0.00106221)
(0.00365967 -0.0240352 0 -0.00501865 0 0.00135898)
(0.00433586 -0.0205776 0 -0.00593769 0 0.00160183)
(0.00462191 -0.0162228 0 -0.00638742 0 0.00176551)
(0.00429345 -0.0112546 0 -0.00610997 0 0.00181652)
(0.00356454 -0.00603791 0 -0.00527409 0 0.00170954)
(0.00230265 -0.00102324 0 -0.00368474 0 0.00138209)
(0.00102038 0.00320456 0 -0.00176994 0 0.000749561)
(-0.000154495 0.00613042 0 0.000453511 0 -0.000299016)
(-0.00219555 0.00558122 0 0.00589073 0 -0.00369518)
(-0.0043992 0.00173896 0 0.00818233 0 -0.00378313)
(-0.00619243 -0.00354766 0 0.00974328 0 -0.00355084)
(-0.00749285 -0.00959119 0 0.0106333 0 -0.00314046)
(-0.00790092 -0.0158177 0 0.0105351 0 -0.00263414)
(-0.00759311 -0.0216042 0 0.00967292 0 -0.00207982)
(-0.00651698 -0.0266542 0 0.00802197 0 -0.001505)
(-0.00491024 -0.0306283 0 0.00583508 0 -0.000924835)
(-0.00285724 -0.0333932 0 0.0032044 0 -0.000347161)
(-0.000592338 -0.0348107 0 0.000368012 0 0.000224326)
(0.00177282 -0.0348382 0 -0.00256087 0 0.000788051)
(0.00400193 -0.0334799 0 -0.0053449 0 0.00134297)
(0.00600221 -0.0307555 0 -0.00788946 0 0.00188725)
(0.00750681 -0.0268124 0 -0.00992336 0 0.00241656)
(0.00848984 -0.0217694 0 -0.0114118 0 0.00292192)
(0.00864807 -0.0159659 0 -0.0120344 0 0.00338631)
(0.00812581 -0.00972046 0 -0.0119058 0 0.00378001)
(0.00666581 -0.00361211 0 -0.0107189 0 0.00405314)
(0.00473675 0.00171603 0 -0.00886244 0 0.00412569)
(0.0023816 0.00559205 0 -0.00625103 0 0.00386943)
(-0.00542556 0.00576785 0 0.0140106 0 -0.00858505)
(-0.00871688 0.000289243 0 0.0163994 0 -0.00768256)
(-0.0109715 -0.006551 0 0.017593 0 -0.00662154)
(-0.0123168 -0.0139607 0 0.0178425 0 -0.00552562)
(-0.012391 -0.0213385 0 0.0168495 0 -0.00445846)
(-0.0115011 -0.028019 0 0.0149482 0 -0.00344716)
(-0.00968471 -0.0337359 0 0.0121826 0 -0.00249789)
(-0.00722981 -0.0381642 0 0.00883522 0 -0.0016054)
(-0.00428848 -0.0412074 0 0.00504699 0 -0.000758517)
(-0.0010931 -0.0427493 0 0.00103618 0 5.69253e-05)
(0.00219631 -0.0427566 0 -0.00305263 0 0.000856319)
(0.00536491 -0.0412437 0 -0.00702032 0 0.00165542)
(0.00826766 -0.0382033 0 -0.0107371 0 0.00246941)
(0.0106477 -0.0337841 0 -0.0139596 0 0.00331195)
(0.0124011 -0.0280503 0 -0.0165943 0 0.00419322)
(0.0131825 -0.0213562 0 -0.0182993 0 0.00511679)
(0.0130345 -0.0139799 0 -0.0191087 0 0.0060742)
(0.0115584 -0.00656069 0 -0.0185946 0 0.00703621)
(0.0091826 0.000214158 0 -0.0171232 0 0.00794057)
(0.00571948 0.00561904 0 -0.0143985 0 0.00867904)
(-0.00838521 0.00427659 0 0.0222317 0 -0.0138465)
(-0.0130721 -0.00259058 0 0.0249207 0 -0.0118486)
(-0.0159217 -0.0109112 0 0.0257854 0 -0.00986371)
(-0.0172797 -0.01956 0 0.0252973 0 -0.00801768)
(-0.0169281 -0.0279956 0 0.0232771 0 -0.006349)
(-0.015373 -0.0354005 0 0.0202285 0 -0.00485549)
(-0.012759 -0.041649 0 0.0162749 0 -0.00351586)
(-0.00944776 -0.0463931 0 0.0117482 0 -0.00230048)
(-0.00563135 -0.049629 0 0.00680795 0 -0.0011766)
(-0.00154968 -0.0512438 0 0.0016604 0 -0.000110715)
(0.0026244 -0.0512379 0 -0.00355506 0 0.000930665)
(0.00668883 -0.0496244 0 -0.00866983 0 0.001981)
(0.01048 -0.0463713 0 -0.0135537 0 0.00307373)
(0.0137379 -0.0416236 0 -0.0179801 0 0.00424223)
(0.0163053 -0.0353527 0 -0.0218241 0 0.00551874)
(0.0177633 -0.027941 0 -0.0246951 0 0.00693185)
(0.018047 -0.0195053 0 -0.0265481 0 0.0085011)
(0.0165379 -0.0108454 0 -0.0267645 0 0.0102266)
(0.0135712 -0.0025618 0 -0.0256413 0 0.0120701)
(0.00868376 0.00425999 0 -0.0226007 0 0.0139169)
(-0.0125253 0.00424911 0 0.0319881 0 -0.0194629)
(-0.0181327 -0.0051361 0 0.0342757 0 -0.0161429)
(-0.0210883 -0.0155863 0 0.0342255 0 -0.0131372)
(-0.0220807 -0.0257829 0 0.0325787 0 -0.010498)
(-0.0211244 -0.035308 0 0.0293358 0 -0.00821135)
(-0.0188082 -0.0433822 0 0.0250408 0 -0.00623262)
(-0.0154342 -0.0500368 0 0.0199402 0 -0.00450604)
(-0.0113368 -0.0549905 0 0.0143107 0 -0.00297389)
(-0.00678649 -0.0583282 0 0.00836662 0 -0.00158013)
(-0.0019574 -0.0599725 0 0.00222843 0 -0.000271032)
(0.00292965 -0.0599481 0 -0.00393486 0 0.00100522)
(0.00775037 -0.0582727 0 -0.0100504 0 0.00230002)
(0.0122852 -0.0548815 0 -0.0159506 0 0.00366545)
(0.0163565 -0.0498986 0 -0.0215122 0 0.00515569)
(0.0197038 -0.0431904 0 -0.0265309 0 0.00682717)
(0.0219693 -0.0351084 0 -0.0307072 0 0.00873789)
(0.0228903 -0.0255818 0 -0.0338335 0 0.0109432)
(0.0217934 -0.0154383 0 -0.0352804 0 0.013487)
(0.0187496 -0.00510747 0 -0.0351335 0 0.016384)
(0.0129383 0.00413103 0 -0.0325353 0 0.019597)
(-0.0157913 0.00107335 0 0.0407513 0 -0.02496)
(-0.022924 -0.0100985 0 0.043219 0 -0.0202949)
(-0.0260589 -0.0222087 0 0.0423039 0 -0.016245)
(-0.0266134 -0.0333053 0 0.0394315 0 -0.0128181)
(-0.0249243 -0.0434442 0 0.0348593 0 -0.00993497)
(-0.0218137 -0.0517334 0 0.0293116 0 -0.00749791)
(-0.0176914 -0.0584703 0 0.0231029 0 -0.00541149)
(-0.0128992 -0.0633867 0 0.0164871 0 -0.00358793)
(-0.00771969 -0.0666762 0 0.00966725 0 -0.00194756)
(-0.00228498 -0.0682704 0 0.00270201 0 -0.000417033)
(0.00318915 -0.0682315 0 -0.00426212 0 0.00107296)
(0.0086301 -0.0665645 0 -0.0112209 0 0.00259079)
(0.0138133 -0.0632011 0 -0.0180197 0 0.00420641)
(0.0186166 -0.0582289 0 -0.0246111 0 0.00599445)
(0.0227348 -0.0514418 0 -0.0307711 0 0.00803632)
(0.0258286 -0.0431417 0 -0.0362505 0 0.010422)
(0.0274788 -0.0330186 0 -0.0407277 0 0.0132489)
(0.0268011 -0.021963 0 -0.0434173 0 0.0166162)
(0.0235475 -0.00996265 0 -0.0441516 0 0.0206041)
(0.0161441 0.00108789 0 -0.0413574 0 0.0252133)
(-0.0210915 0.000511657 0 0.0513406 0 -0.0302491)
(-0.0275868 -0.0146224 0 0.0516188 0 -0.024032)
(-0.0301644 -0.0293588 0 0.0491213 0 -0.018957)
(-0.0296858 -0.0416699 0 0.0444953 0 -0.0148095)
(-0.0273485 -0.0523186 0 0.0387487 0 -0.0114002)
(-0.0235574 -0.0606772 0 0.0321248 0 -0.00856744)
(-0.0189864 -0.0673082 0 0.0251609 0 -0.00617451)
(-0.0137586 -0.0720659 0 0.0178635 0 -0.00410482)
(-0.00825419 -0.0752163 0 0.0105114 0 -0.00225725)
(-0.00248278 -0.0767284 0 0.00302392 0 -0.00054114)
(0.0032848 -0.0766784 0 -0.00441274 0 0.00112794)
(0.00907013 -0.0750691 0 -0.0119031 0 0.002833)
(0.0145908 -0.0718233 0 -0.0192503 0 0.00465955)
(0.0198492 -0.0669873 0 -0.0265497 0 0.00670054)
(0.0244328 -0.0602845 0 -0.0334933 0 0.00906047)
(0.0282343 -0.0519061 0 -0.0400951 0 0.0118608)
(0.0305555 -0.0412554 0 -0.0457993 0 0.0152438)
(0.0309522 -0.0290409 0 -0.0503295 0 0.0193773)
(0.0283248 -0.0144174 0 -0.0527812 0 0.0244564)
(0.0215292 0.000492774 0 -0.052238 0 0.0307089)
(-0.0246665 -0.00634988 0 0.0589156 0 -0.0342491)
(-0.0316461 -0.0224336 0 0.058496 0 -0.02685)
(-0.033574 -0.037057 0 0.0545614 0 -0.0209875)
(-0.0321517 -0.0489822 0 0.0484446 0 -0.0162929)
(-0.0291074 -0.0590622 0 0.0415964 0 -0.012489)
(-0.0247587 -0.0669368 0 0.0341208 0 -0.00936204)
(-0.0198203 -0.0731178 0 0.0265627 0 -0.00674235)
(-0.0143137 -0.0775664 0 0.0188046 0 -0.00449094)
(-0.00860113 -0.0804935 0 0.0110916 0 -0.00249044)
(-0.002643 -0.0819027 0 0.00328025 0 -0.000637256)
(0.0033024 -0.0818564 0 -0.00446662 0 0.00116422)
(0.00929046 -0.080346 0 -0.0122983 0 0.00300781)
(0.0150437 -0.0773348 0 -0.0200343 0 0.00499066)
(0.0206275 -0.0728035 0 -0.0278471 0 0.00721961)
(0.0256115 -0.0665728 0 -0.0354288 0 0.00981722)
(0.0300414 -0.0586698 0 -0.0429715 0 0.0129301)
(0.0330602 -0.0486142 0 -0.0497984 0 0.0167382)
(0.0344773 -0.0367474 0 -0.0559452 0 0.021468)
(0.0323464 -0.022209 0 -0.0597578 0 0.0274114)
(0.0251964 -0.00621811 0 -0.0601558 0 0.0349593)
(-0.026055 -0.0103257 0 0.0623955 0 -0.0363405)
(-0.0309361 -0.0314749 0 0.0593051 0 -0.0283689)
(-0.0330377 -0.0471963 0 0.0551417 0 -0.0221039)
(-0.0312915 -0.0594883 0 0.0484126 0 -0.017121)
(-0.0286165 -0.0689222 0 0.0417219 0 -0.0131054)
(-0.024361 -0.0764198 0 0.0341791 0 -0.00981814)
(-0.0196628 -0.0820384 0 0.0267357 0 -0.00707297)
(-0.01425 -0.0861869 0 0.0189694 0 -0.00471941)
(-0.00865526 -0.0888249 0 0.011287 0 -0.00263172)
(-0.0027451 -0.09011 0 0.00344469 0 -0.000699583)
(0.00313763 -0.0900301 0 -0.00431611 0 0.00117848)
(0.009093 -0.0885756 0 -0.0121951 0 0.0031021)
(0.0147701 -0.0857951 0 -0.0199448 0 0.00517467)
(0.0203018 -0.081503 0 -0.0278125 0 0.00751062)
(0.0251272 -0.075805 0 -0.0353696 0 0.0102424)
(0.0295181 -0.0682284 0 -0.0430486 0 0.0135305)
(0.032282 -0.0588563 0 -0.0498574 0 0.0175753)
(0.0340636 -0.0465916 0 -0.0566991 0 0.0226355)
(0.0319356 -0.0311705 0 -0.0609882 0 0.0290526)
(0.0268498 -0.0102412 0 -0.0641424 0 0.0372926)
)
;

boundaryField
{
    cavity
    {
        type            mySigma;
    }
    lid
    {
        type            zeroGradient;
    }
    frontAndBack
    {
        type            empty;
    }
}


// ************************************************************************* //
