/*--------------------------------*- C++ -*----------------------------------*\
| =========                 |                                                 |
| \\      /  F ield         | foam-extend: Open Source CFD                    |
|  \\    /   O peration     | Version:  3.0                                   |
|   \\  /    A nd           | Web:         http://www.extend-project.de       |
|    \\/     M anipulation  |                                                 |
\*---------------------------------------------------------------------------*/
FoamFile
{
    version     2.0;
    format      ascii;
    class       volVectorField;
    location    "10";
    object      u;
}
// * * * * * * * * * * * * * * * * * * * * * * * * * * * * * * * * * * * * * //

dimensions      [0 0 0 0 0 0 0];

internalField   nonuniform List<vector> 
400
(
(-0.0143102 -0.0648928 0)
(-0.0610777 0.0456413 0)
(-0.180569 0.0617574 0)
(-0.232595 0.0575833 0)
(-0.329903 0.0500872 0)
(-0.366288 0.0388329 0)
(-0.436924 0.0297667 0)
(-0.450899 0.0211125 0)
(-0.497757 0.0131085 0)
(-0.486798 0.00609196 0)
(-0.512526 -0.00267893 0)
(-0.473087 -0.00891509 0)
(-0.480906 -0.0210153 0)
(-0.40641 -0.0264648 0)
(-0.402203 -0.0466954 0)
(-0.279784 -0.046389 0)
(-0.280329 -0.0869038 0)
(-0.0816352 -0.0429345 0)
(-0.152112 -0.11428 0)
(0.164012 0.111221 0)
(-0.0783737 0.140122 0)
(-0.1127 0.118356 0)
(-0.190862 0.109392 0)
(-0.222885 0.0916785 0)
(-0.28893 0.0835544 0)
(-0.316813 0.0681071 0)
(-0.367825 0.054697 0)
(-0.382642 0.0395232 0)
(-0.414816 0.0225388 0)
(-0.411285 0.00838979 0)
(-0.424322 -0.0113498 0)
(-0.39972 -0.0230324 0)
(-0.395597 -0.0459889 0)
(-0.348302 -0.0525479 0)
(-0.332037 -0.0802052 0)
(-0.262882 -0.0757045 0)
(-0.243658 -0.111392 0)
(-0.164171 -0.0853301 0)
(-0.136519 -0.131314 0)
(-0.0865046 -0.0991269 0)
(-0.0382258 0.12328 0)
(-0.0901177 0.155474 0)
(-0.159586 0.170293 0)
(-0.204604 0.153741 0)
(-0.262469 0.142346 0)
(-0.293482 0.115665 0)
(-0.335547 0.0937612 0)
(-0.351836 0.0658953 0)
(-0.376751 0.0398141 0)
(-0.377772 0.013321 0)
(-0.385332 -0.0161855 0)
(-0.370381 -0.0398846 0)
(-0.360866 -0.0742491 0)
(-0.329493 -0.0920984 0)
(-0.303617 -0.133623 0)
(-0.256516 -0.136465 0)
(-0.215025 -0.186531 0)
(-0.156683 -0.151032 0)
(-0.097093 -0.192015 0)
(-0.0429525 -0.111489 0)
(-0.0524714 0.267566 0)
(-0.103 0.239245 0)
(-0.163487 0.223386 0)
(-0.192792 0.193963 0)
(-0.23779 0.171854 0)
(-0.256745 0.140462 0)
(-0.289822 0.112343 0)
(-0.299633 0.0798918 0)
(-0.319513 0.0476832 0)
(-0.319227 0.0160852 0)
(-0.325175 -0.0195353 0)
(-0.31443 -0.0483402 0)
(-0.306554 -0.0875667 0)
(-0.28638 -0.110474 0)
(-0.264886 -0.153637 0)
(-0.238553 -0.164665 0)
(-0.200388 -0.211363 0)
(-0.17452 -0.203175 0)
(-0.100134 -0.245024 0)
(-0.0771684 -0.238833 0)
(-0.0382523 0.278418 0)
(-0.0888786 0.266097 0)
(-0.144298 0.259769 0)
(-0.179417 0.22766 0)
(-0.220784 0.205882 0)
(-0.243051 0.167177 0)
(-0.271709 0.1361 0)
(-0.28354 0.0949602 0)
(-0.299612 0.0587863 0)
(-0.302291 0.0183277 0)
(-0.305592 -0.0215867 0)
(-0.299767 -0.059087 0)
(-0.289747 -0.102774 0)
(-0.275944 -0.134155 0)
(-0.251152 -0.181678 0)
(-0.230134 -0.201033 0)
(-0.186547 -0.250457 0)
(-0.159716 -0.250989 0)
(-0.0871441 -0.289021 0)
(-0.0542642 -0.288416 0)
(-0.0374376 0.394449 0)
(-0.0826792 0.345692 0)
(-0.133671 0.313833 0)
(-0.158838 0.270198 0)
(-0.193803 0.235142 0)
(-0.207082 0.19096 0)
(-0.230429 0.152355 0)
(-0.236196 0.107273 0)
(-0.249393 0.065908 0)
(-0.249605 0.0215454 0)
(-0.252837 -0.0225346 0)
(-0.248506 -0.0646009 0)
(-0.241094 -0.111705 0)
(-0.232981 -0.149269 0)
(-0.21279 -0.199502 0)
(-0.201388 -0.229168 0)
(-0.162871 -0.281541 0)
(-0.147642 -0.302199 0)
(-0.0785656 -0.350097 0)
(-0.0527344 -0.379886 0)
(-0.0355164 0.398311 0)
(-0.0770229 0.362264 0)
(-0.125188 0.335734 0)
(-0.150956 0.287503 0)
(-0.183057 0.253762 0)
(-0.197541 0.203374 0)
(-0.217626 0.164747 0)
(-0.224765 0.113431 0)
(-0.235168 0.0717081 0)
(-0.237547 0.0213105 0)
(-0.23899 -0.0230892 0)
(-0.237865 -0.0711565 0)
(-0.229454 -0.118518 0)
(-0.224887 -0.162551 0)
(-0.203817 -0.213214 0)
(-0.194582 -0.250744 0)
(-0.155579 -0.303859 0)
(-0.139036 -0.334855 0)
(-0.0746481 -0.383503 0)
(-0.0452399 -0.419369 0)
(-0.0317241 0.506757 0)
(-0.0619632 0.435971 0)
(-0.105589 0.387723 0)
(-0.121557 0.327834 0)
(-0.148765 0.281389 0)
(-0.155343 0.225132 0)
(-0.171343 0.179147 0)
(-0.172909 0.124374 0)
(-0.181095 0.0782634 0)
(-0.180628 0.0249816 0)
(-0.182233 -0.0225393 0)
(-0.181311 -0.0743725 0)
(-0.175462 -0.124811 0)
(-0.174405 -0.174908 0)
(-0.157901 -0.229673 0)
(-0.15558 -0.277137 0)
(-0.122482 -0.336706 0)
(-0.115756 -0.382689 0)
(-0.0583908 -0.443491 0)
(-0.040176 -0.499485 0)
(-0.0342233 0.491762 0)
(-0.0616696 0.436036 0)
(-0.10355 0.395121 0)
(-0.117215 0.330398 0)
(-0.141145 0.287212 0)
(-0.146334 0.225586 0)
(-0.158822 0.181935 0)
(-0.160275 0.122815 0)
(-0.165764 0.0790896 0)
(-0.166734 0.0221655 0)
(-0.16698 -0.0226177 0)
(-0.168963 -0.0780465 0)
(-0.162976 -0.125435 0)
(-0.165624 -0.180005 0)
(-0.149658 -0.231807 0)
(-0.150575 -0.285818 0)
(-0.118484 -0.34325 0)
(-0.113143 -0.398489 0)
(-0.0584555 -0.45869 0)
(-0.0397728 -0.517679 0)
(-0.0279131 0.602418 0)
(-0.0385967 0.505938 0)
(-0.0741815 0.443241 0)
(-0.076419 0.365234 0)
(-0.0946637 0.310232 0)
(-0.0918349 0.242513 0)
(-0.0999443 0.192788 0)
(-0.0958697 0.131042 0)
(-0.0990725 0.0844881 0)
(-0.096834 0.0260234 0)
(-0.09732 -0.0204107 0)
(-0.0986025 -0.0783852 0)
(-0.0955433 -0.128062 0)
(-0.100545 -0.188033 0)
(-0.0901355 -0.244426 0)
(-0.0974094 -0.307931 0)
(-0.0731424 -0.373702 0)
(-0.0792123 -0.442295 0)
(-0.0340451 -0.516528 0)
(-0.032547 -0.597539 0)
(-0.0329074 0.558044 0)
(-0.0426571 0.482062 0)
(-0.0764423 0.43273 0)
(-0.0739572 0.35066 0)
(-0.0875478 0.302394 0)
(-0.0804806 0.23065 0)
(-0.0840648 0.185775 0)
(-0.0780175 0.121793 0)
(-0.0782891 0.0799552 0)
(-0.0767686 0.0203835 0)
(-0.0764352 -0.0208032 0)
(-0.0809831 -0.079691 0)
(-0.0790831 -0.123273 0)
(-0.0893032 -0.185107 0)
(-0.0812495 -0.234558 0)
(-0.0944174 -0.302374 0)
(-0.0723323 -0.360986 0)
(-0.0827807 -0.437172 0)
(-0.0380454 -0.505056 0)
(-0.0364817 -0.584142 0)
(-0.021812 0.677781 0)
(-0.00825669 0.550101 0)
(-0.031879 0.474567 0)
(-0.0165076 0.376246 0)
(-0.0220896 0.316624 0)
(-0.00726384 0.238923 0)
(-0.00526178 0.190249 0)
(0.00590555 0.125245 0)
(0.00838396 0.083274 0)
(0.0132929 0.0242756 0)
(0.0133618 -0.0160204 0)
(0.0105833 -0.075485 0)
(0.0089435 -0.11942 0)
(-0.00188575 -0.185482 0)
(-0.00110731 -0.23888 0)
(-0.0192334 -0.316398 0)
(-0.00841674 -0.384904 0)
(-0.0314588 -0.476226 0)
(-0.00143857 -0.562609 0)
(-0.0240607 -0.672035 0)
(-0.0311715 0.587928 0)
(-0.0185364 0.491702 0)
(-0.0394341 0.440799 0)
(-0.015313 0.340776 0)
(-0.0134724 0.293091 0)
(0.00932895 0.213827 0)
(0.0175539 0.172664 0)
(0.0328507 0.108274 0)
(0.0386215 0.0727605 0)
(0.0435519 0.0156717 0)
(0.0436575 -0.0177618 0)
(0.037017 -0.074875 0)
(0.0322497 -0.110355 0)
(0.0139532 -0.174567 0)
(0.00932584 -0.216705 0)
(-0.0188284 -0.294575 0)
(-0.0127302 -0.348322 0)
(-0.0448187 -0.443822 0)
(-0.0127236 -0.512285 0)
(-0.0348021 -0.609661 0)
(-0.0100578 0.727348 0)
(0.0349802 0.559009 0)
(0.032062 0.471477 0)
(0.0680496 0.350353 0)
(0.0814989 0.292048 0)
(0.109071 0.208031 0)
(0.124244 0.166917 0)
(0.14229 0.104445 0)
(0.151198 0.0729037 0)
(0.15876 0.0196415 0)
(0.158727 -0.00902914 0)
(0.155256 -0.0635692 0)
(0.146788 -0.0958196 0)
(0.131585 -0.162008 0)
(0.118226 -0.205567 0)
(0.0902088 -0.293859 0)
(0.08013 -0.35852 0)
(0.038128 -0.475979 0)
(0.0445238 -0.572548 0)
(-0.0103221 -0.719681 0)
(-0.0347141 0.562889 0)
(0.0127778 0.448996 0)
(0.0143674 0.407634 0)
(0.0682454 0.291431 0)
(0.0941379 0.252225 0)
(0.135035 0.171337 0)
(0.158818 0.139774 0)
(0.183304 0.0817341 0)
(0.195953 0.0567715 0)
(0.204373 0.00869254 0)
(0.203629 -0.013661 0)
(0.196076 -0.0623021 0)
(0.182178 -0.086042 0)
(0.157397 -0.145374 0)
(0.133707 -0.174747 0)
(0.0899587 -0.255978 0)
(0.0683315 -0.295863 0)
(0.00772793 -0.408003 0)
(0.0174039 -0.463815 0)
(-0.0406229 -0.575628 0)
(0.0192503 0.749227 0)
(0.100917 0.510713 0)
(0.139197 0.416284 0)
(0.192072 0.270836 0)
(0.233255 0.22553 0)
(0.26774 0.143723 0)
(0.29789 0.119091 0)
(0.317969 0.0678404 0)
(0.332894 0.0524272 0)
(0.340878 0.0126213 0)
(0.340256 -4.50118e-05 0)
(0.337115 -0.0414088 0)
(0.321141 -0.0564458 0)
(0.305984 -0.112878 0)
(0.275326 -0.137551 0)
(0.244644 -0.228014 0)
(0.203678 -0.275975 0)
(0.14942 -0.424919 0)
(0.111696 -0.524266 0)
(0.0199266 -0.743163 0)
(-0.0516014 0.442697 0)
(0.0661528 0.328328 0)
(0.118528 0.316557 0)
(0.209405 0.197703 0)
(0.272547 0.176943 0)
(0.32709 0.107198 0)
(0.368928 0.0901151 0)
(0.397159 0.0473867 0)
(0.416446 0.0345775 0)
(0.426178 0.00209995 0)
(0.424941 -0.00910657 0)
(0.418812 -0.0423889 0)
(0.396359 -0.0541488 0)
(0.371741 -0.0988553 0)
(0.324943 -0.11281 0)
(0.273642 -0.183867 0)
(0.204614 -0.200357 0)
(0.115293 -0.315938 0)
(0.0626926 -0.334453 0)
(-0.0554568 -0.444312 0)
(0.125642 0.734717 0)
(0.18739 0.341704 0)
(0.310432 0.27334 0)
(0.34326 0.117207 0)
(0.415158 0.108262 0)
(0.43393 0.0478864 0)
(0.473468 0.0496405 0)
(0.483291 0.0210305 0)
(0.500437 0.0241669 0)
(0.504096 0.00493232 0)
(0.503238 0.00813534 0)
(0.501898 -0.0120202 0)
(0.48286 -0.0086245 0)
(0.476254 -0.040789 0)
(0.434481 -0.0389077 0)
(0.420105 -0.107292 0)
(0.3466 -0.117429 0)
(0.315221 -0.283002 0)
(0.1957 -0.353728 0)
(0.114 -0.736309 0)
(0.0964056 0.129752 0)
(0.296788 0.142804 0)
(0.494959 0.161158 0)
(0.594541 0.0935801 0)
(0.699063 0.086881 0)
(0.742623 0.0495691 0)
(0.792014 0.0414844 0)
(0.809582 0.0212182 0)
(0.828588 0.0146102 0)
(0.833559 0.000170665 0)
(0.831637 -0.00604444 0)
(0.827959 -0.0211706 0)
(0.804294 -0.0277381 0)
(0.789735 -0.0498046 0)
(0.732724 -0.0561372 0)
(0.696778 -0.0956264 0)
(0.578175 -0.0953233 0)
(0.496218 -0.165096 0)
(0.273577 -0.133506 0)
(0.113697 -0.135029 0)
(0.295594 0.341672 0)
(0.176054 -0.0557476 0)
(0.382892 -0.0241087 0)
(0.313363 -0.0864431 0)
(0.390333 -0.0393189 0)
(0.361242 -0.0444256 0)
(0.395824 -0.0166151 0)
(0.386464 -0.014764 0)
(0.402646 0.000997636 0)
(0.402428 0.00271443 0)
(0.405879 0.0145453 0)
(0.411238 0.0160953 0)
(0.401073 0.0302835 0)
(0.413981 0.0313583 0)
(0.382749 0.0544678 0)
(0.412325 0.0475077 0)
(0.33454 0.0831733 0)
(0.399955 0.0214485 0)
(0.19056 0.0284648 0)
(0.29446 -0.349503 0)
)
;

boundaryField
{
    cavity
    {
        type            myImplicitVelocity;
    }
    lid
    {
        type            fixedValue;
        value           uniform (1 0 0);
    }
    frontAndBack
    {
        type            empty;
    }
}


// ************************************************************************* //
