/*--------------------------------*- C++ -*----------------------------------*\
| =========                 |                                                 |
| \\      /  F ield         | foam-extend: Open Source CFD                    |
|  \\    /   O peration     | Version:  3.0                                   |
|   \\  /    A nd           | Web:         http://www.extend-project.de       |
|    \\/     M anipulation  |                                                 |
\*---------------------------------------------------------------------------*/
FoamFile
{
    version     2.0;
    format      ascii;
    class       volScalarField;
    location    "40";
    object      Theta;
}
// * * * * * * * * * * * * * * * * * * * * * * * * * * * * * * * * * * * * * //

dimensions      [0 2 -2 0 0 0 0];

internalField   nonuniform List<scalar> 
728
(
1.9636
0.253147
2.57436
-0.236799
-2.98064
10.9708
4.95057
3.4198
1.29445
6.53088
1.08856
-3.20735
-1.75436
-0.563719
4.64156
3.47445
0.181815
1.40854
-0.131789
1.52147
4.39379
4.85076
-3.12839
-2.03189
11.1005
20.8537
-24.0867
-13.5684
1.99828
5.58906
-1.85674
1.03705
3.29561
7.27885
-2.54034
0.597549
1.24763
0.374802
1.16272
1.35069
1.94816
4.14435
-0.350922
-1.24167
-1.99638
-2.85917
4.91209
5.80088
-1.65142
-1.60124
4.53485
5.67894
10.439
-17.778
-7.06863
22.6506
0.220452
2.58425
-0.133009
2.07491
1.46253
-0.624733
2.8286
-0.147856
2.08597
1.46501
-0.13888
0.753414
3.33592
-5.42078
12.8718
-16.3258
4.22852
2.34008
-0.160081
-1.70718
0.479621
4.87827
2.56842
-1.90416
-3.65611
6.36614
-7.93715
11.3159
-0.302451
0.41237
1.47004
-2.24455
3.16389
4.79959
3.23421
0.59515
9.91514
-8.5906
0.624965
-0.373346
6.50463
-0.661807
-4.21907
2.56779
-0.0154754
2.65958
2.74122
-0.00773596
4.15642
-1.30519
3.75032
-1.05299
0.676061
3.62891
2.07449
0.714698
1.12853
1.06384
0.579512
0.855857
0.431967
2.62222
2.48465
0.00847028
-0.312967
2.91598
-0.647918
2.58487
0.900985
-0.223965
0.95011
2.37167
-1.40233
4.40001
-0.56922
2.95338
0.304209
3.52941
-0.689595
2.12462
1.65214
1.07434
0.307189
1.10713
6.36587
5.07204
-6.30991
-6.54939
1.76455
3.78691
0.236035
-1.51317
-0.523311
5.2166
-2.13236
2.40779
2.41302
-0.0636687
2.85484
-0.0733526
0.968722
-2.74416
1.7905
5.8895
-0.634958
11.536
6.41922
-4.48076
-2.49137
-5.27178
6.43924
3.10218
2.44864
0.119565
-0.107264
2.59767
-0.832267
3.60973
-0.923756
3.43263
-0.532881
2.18983
0.0857135
1.96722
3.71032
-2.13783
2.72657
-1.70563
-14.5608
-9.71173
9.96343
14.5077
4.15297
4.53635
-1.71327
-1.94728
1.56888
-2.63415
5.75862
1.02703
0.965356
-0.861111
2.59011
1.70185
0.689664
0.738867
1.86311
0.824705
0.819855
-0.27152
1.23694
2.65907
1.52463
-0.407921
3.73812
0.91317
0.872598
1.30803
-0.564783
2.0944
-6.77028
-7.18645
7.9105
8.26378
0.423722
-1.6887
3.94192
1.78635
1.71903
-0.188263
4.35224
-2.56756
3.35637
-0.86913
3.75424
-1.0887
1.02984
4.30851
1.20777
-1.88335
3.45255
4.14935
-1.42399
-0.842791
4.16238
1.60038
6.2026
0.373836
-8.94363
-29.0568
5.11498
29.6087
1.31967
1.74381
0.805092
-0.309988
26.5169
2.53196
-24.2278
-3.53931
0.183308
-1.14943
2.26416
4.15503
-1.83515
1.34792
4.16002
0.585334
-1.08528
-2.82168
6.27361
3.71951
4.59226
-0.64283
-2.30656
6.9909
2.18668
1.35332
0.982804
0.212653
2.45296
2.46774
-0.235417
-0.0561254
3.83115
5.43603
-0.821092
-2.73552
1.06406
5.43325
-2.12852
1.57726
3.29886
1.37269
0.698176
-1.4639
0.113946
2.6279
-0.296895
2.0792
-0.925004
0.287793
2.668
1.38057
-0.422865
-1.34217
3.97224
2.78024
-3.70518
3.58912
7.39066
-8.073
-0.690801
4.34712
-1.75743
3.07807
11.513
-6.82411
9.92844
-3.72893
-2.12744
4.18873
-0.0318819
2.12689
-15.7049
4.22198
-3.50207
18.1746
-1.05182
3.02227
-0.0306235
1.83586
3.4742
3.51482
1.37548
-2.36251
4.23854
-1.24805
3.97588
-1.09435
-10.9803
13.7832
-3.26473
4.84625
0.607082
3.77141
-1.16377
1.79759
-2.41465
-1.43498
4.38005
2.93384
1.1947
7.1448
1.0794
-3.75667
2.18814
-0.402025
3.90863
-2.10975
-0.975163
-1.12023
3.12829
3.96017
2.41688
5.44373
-0.394875
-2.77594
2.44568
4.17859
0.832766
0.627988
12.5059
-1.00339
-8.95328
3.09187
-1.7933
-5.34543
7.44112
3.71204
0.32026
-1.00024
1.84411
3.88449
3.27975
0.043083
-0.238666
2.67641
0.72704
1.37691
0.868979
0.718839
1.52915
3.52748
0.830747
-1.18734
0.776319
-0.182611
1.69883
3.29718
3.32851
10.7555
-0.0569281
-6.54853
-1.93429
5.49776
3.08102
6.28092
3.35568
4.65118
2.17698
0.727684
2.03647
-0.411742
1.07193
0.891012
0.234543
1.45634
2.76566
-0.962615
-3.97479
3.04658
-1.80558
5.18432
1.85474
-1.19164
0.859993
4.72254
1.23253
1.12653
0.787391
0.638001
0.825881
0.818666
1.30128
0.941598
2.15084
-0.798807
3.14734
0.17112
0.802542
1.62154
0.964829
0.691071
3.25316
0.218012
0.0346418
2.25264
-1.50148
5.58064
4.72818
-2.16238
-2.82163
1.9918
0.822754
5.61686
1.52204
-0.347518
-0.386253
2.77288
2.6808
0.149069
-0.571732
2.6492
-1.60488
0.317165
4.83206
1.88825
2.58923
6.21735
0.997043
-2.39402
-2.4589
6.14227
1.81117
0.772983
4.42362
6.72912
-1.41188
-3.2527
-0.402217
0.777855
3.13235
1.28997
-1.03587
-0.311701
2.77861
3.143
0.992184
2.6453
1.20513
-0.494129
-0.559965
1.97832
2.3657
-0.341424
4.68891
-0.114942
1.06486
-4.06221
-2.93986
-1.39359
4.27581
5.40263
0.504306
-0.215393
1.4873
2.52385
12.7537
10.5045
-7.06391
-5.37486
-4.44712
0.642001
7.45911
1.90939
-2.23113
5.23971
6.59073
-1.17703
-0.41281
2.85806
1.10744
1.34001
-2.64339
-1.64579
5.91633
3.9154
6.7462
1.63188
-3.47341
1.04697
1.58161
3.23376
1.06587
-0.292882
1.06054
0.589956
1.13872
2.08529
-1.2424
3.11742
4.00582
-1.01089
4.35603
2.39981
-1.41969
-0.19536
-0.438636
2.4448
-0.176565
2.88343
-1.61371
4.67252
4.92268
-2.19759
1.09036
5.34102
1.02208
-3.20708
1.93756
0.127571
0.097453
1.43095
-0.0374335
4.63848
-4.6461
8.46378
-7.88547
5.45491
-16.8285
15.8501
1.91473
-1.01432
3.81953
0.0195033
0.904026
1.34576
1.27764
0.154381
3.03996
-3.4603
-1.07474
5.65943
4.5758
-1.27594
-0.88876
4.58114
0.380617
0.723735
2.56944
-1.27264
1.54354
-0.0511953
2.45957
0.775355
5.76957
1.02356
4.26389
0.629086
3.09433
7.23113
0.28635
-3.73151
0.841299
1.3061
0.0559931
2.47935
0.0997765
2.48962
2.27862
-0.352898
2.73564
4.028
0.0768455
-1.49529
-0.742913
0.729789
2.74218
1.62321
5.43075
-2.10762
-2.15471
6.14162
4.68008
1.99255
-0.62586
-2.99395
0.125431
0.962696
1.13526
2.2595
-3.21797
-2.1492
6.88258
4.51243
-7.33266
7.42132
-7.69629
7.23413
0.955148
6.49976
-3.07459
3.26066
1.4887
5.26891
-2.51668
0.463615
17.9947
-15.4111
-20.7764
14.6652
2.35964
2.32213
-0.0267141
-0.268676
5.14339
6.13971
-2.18036
-0.548152
4.10966
5.4146
-5.24508
-4.16248
0.20393
2.00976
-0.129082
1.81851
2.43768
1.79758
-0.797588
0.205559
0.261955
1.57403
0.167095
2.43866
1.10736
-0.293337
1.11846
3.25097
2.80578
3.63565
-1.01696
-0.436268
0.792307
1.71833
3.88131
-0.673469
-2.74283
4.03918
-6.84221
8.74799
-5.53732
-0.290665
9.51288
3.28213
1.61766
-1.73082
1.15752
5.44263
0.856253
0.694984
4.81224
-3.27239
2.24781
6.38025
-2.65881
0.756671
-4.68021
2.30228
8.98301
1.32264
-2.45973
1.96934
4.89615
0.462539
2.81845
-0.703802
2.99047
-0.161225
2.21968
0.95041
0.872638
0.302735
4.04489
0.848171
1.33256
-1.35696
1.46883
2.97347
0.545749
-0.576945
)
;

boundaryField
{
    insideCircle
    {
        type            myTemperature;
        value           nonuniform List<scalar> 
12
(
3.16389
4.94308
3.2975
0.797182
-1.32283
0.973687
-0.412206
7.741
4.14409
3.37765
1.49991
1.77141
)
;
    }
    outsideCircle
    {
        type            myTemperature;
        value           nonuniform List<scalar> 
60
(
1.9636
0.133342
2.53524
-0.50436
1.41409
5.63652
2.17137
1.63123
0.234178
2.58431
-0.397981
3.01258
1.39409
0.0814349
2.49102
0.118416
0.351365
2.67022
-0.449875
1.90802
-0.213095
1.50481
2.69651
1.38233
-0.663157
1.78964
-0.468808
1.94448
1.86347
0.0304704
2.44004
0.433704
3.14895
-0.173763
0.442827
2.13916
0.577903
2.58043
1.53973
-0.401042
0.62409
-0.455662
1.40716
2.66777
-0.63629
2.38806
0.96318
0.992246
1.58174
2.3876
0.327121
-0.768787
5.15082
-1.497
0.832325
2.17787
-0.233587
2.45493
2.21978
-0.152532
)
;
    }
    topAndBottom
    {
        type            empty;
    }
}


// ************************************************************************* //
