/*--------------------------------*- C++ -*----------------------------------*\
| =========                 |                                                 |
| \\      /  F ield         | foam-extend: Open Source CFD                    |
|  \\    /   O peration     | Version:  3.0                                   |
|   \\  /    A nd           | Web:         http://www.extend-project.de       |
|    \\/     M anipulation  |                                                 |
\*---------------------------------------------------------------------------*/
FoamFile
{
    version     2.0;
    format      ascii;
    class       volVectorField;
    location    "20";
    object      u;
}
// * * * * * * * * * * * * * * * * * * * * * * * * * * * * * * * * * * * * * //

dimensions      [0 0 0 0 0 0 0];

internalField   nonuniform List<vector> 
400
(
(-0.111611 -0.0970513 0)
(-0.0692532 0.0284608 0)
(-0.282321 0.0357316 0)
(-0.215414 0.0383382 0)
(-0.391742 0.0375856 0)
(-0.315242 0.0244024 0)
(-0.459686 0.0226103 0)
(-0.373006 0.0137534 0)
(-0.497166 0.0110301 0)
(-0.394711 0.00667744 0)
(-0.508505 0.000849824 0)
(-0.381592 0.000750278 0)
(-0.496102 -0.0125004 0)
(-0.330186 -0.00630319 0)
(-0.461671 -0.0374117 0)
(-0.228749 -0.0130929 0)
(-0.406999 -0.0887297 0)
(-0.0487723 0.0043142 0)
(-0.332817 -0.123693 0)
(0.216199 0.12915 0)
(-0.112099 0.278223 0)
(-0.0774064 0.146116 0)
(-0.216195 0.111365 0)
(-0.19427 0.071436 0)
(-0.300193 0.0624403 0)
(-0.2775 0.0437079 0)
(-0.361864 0.0353138 0)
(-0.330605 0.0238879 0)
(-0.396758 0.0108445 0)
(-0.352654 0.00482867 0)
(-0.404264 -0.0137964 0)
(-0.343619 -0.0129939 0)
(-0.384723 -0.0387468 0)
(-0.30341 -0.0279963 0)
(-0.338516 -0.0638981 0)
(-0.234821 -0.0414977 0)
(-0.264693 -0.0911702 0)
(-0.157145 -0.0784759 0)
(-0.145395 -0.141243 0)
(-0.0979405 -0.245768 0)
(-0.049307 0.0960288 0)
(-0.0708694 0.132728 0)
(-0.177606 0.153894 0)
(-0.192803 0.122416 0)
(-0.278249 0.122218 0)
(-0.280866 0.0863562 0)
(-0.344215 0.0772958 0)
(-0.334585 0.0490916 0)
(-0.378828 0.0347776 0)
(-0.357926 0.0146903 0)
(-0.384987 -0.00644385 0)
(-0.352659 -0.0183309 0)
(-0.362762 -0.0510191 0)
(-0.317888 -0.0522273 0)
(-0.309151 -0.104465 0)
(-0.250247 -0.0869835 0)
(-0.218851 -0.165147 0)
(-0.146023 -0.115583 0)
(-0.0937381 -0.182004 0)
(-0.0143084 -0.114181 0)
(-0.0547603 0.399394 0)
(-0.0669055 0.27633 0)
(-0.149139 0.234116 0)
(-0.152431 0.172366 0)
(-0.216 0.150946 0)
(-0.214625 0.109887 0)
(-0.263073 0.089469 0)
(-0.255719 0.0587338 0)
(-0.288666 0.0346305 0)
(-0.274365 0.0112131 0)
(-0.291425 -0.0186455 0)
(-0.270552 -0.0350436 0)
(-0.270997 -0.0731713 0)
(-0.246206 -0.0815145 0)
(-0.227544 -0.131307 0)
(-0.206532 -0.131766 0)
(-0.160136 -0.1953 0)
(-0.159513 -0.20351 0)
(-0.0608303 -0.272932 0)
(-0.0859262 -0.353817 0)
(-0.0360351 0.218132 0)
(-0.0663864 0.225929 0)
(-0.135184 0.239248 0)
(-0.157551 0.189225 0)
(-0.214405 0.184497 0)
(-0.226119 0.133494 0)
(-0.267419 0.118532 0)
(-0.269882 0.0747865 0)
(-0.294982 0.0535777 0)
(-0.290084 0.0175513 0)
(-0.298515 -0.010124 0)
(-0.287704 -0.0386869 0)
(-0.277834 -0.0752842 0)
(-0.262516 -0.09566 0)
(-0.23084 -0.144132 0)
(-0.213557 -0.154413 0)
(-0.154879 -0.212213 0)
(-0.140467 -0.214919 0)
(-0.054293 -0.255617 0)
(-0.044336 -0.260955 0)
(-0.0244512 0.502057 0)
(-0.0457254 0.377015 0)
(-0.099028 0.325647 0)
(-0.109018 0.251712 0)
(-0.153688 0.219605 0)
(-0.156327 0.162973 0)
(-0.189697 0.133307 0)
(-0.18701 0.0863666 0)
(-0.207756 0.054897 0)
(-0.201136 0.0147999 0)
(-0.208199 -0.0209918 0)
(-0.199395 -0.0557063 0)
(-0.191154 -0.0983772 0)
(-0.183039 -0.128537 0)
(-0.156452 -0.180343 0)
(-0.153847 -0.207789 0)
(-0.103336 -0.268512 0)
(-0.111992 -0.304146 0)
(-0.0317229 -0.369168 0)
(-0.046298 -0.45248 0)
(-0.0334998 0.2885 0)
(-0.0609624 0.298768 0)
(-0.112925 0.302112 0)
(-0.129529 0.243732 0)
(-0.17111 0.231763 0)
(-0.179012 0.1695 0)
(-0.208497 0.149231 0)
(-0.210429 0.0928675 0)
(-0.22728 0.067723 0)
(-0.225527 0.0180081 0)
(-0.229111 -0.0118678 0)
(-0.225322 -0.055748 0)
(-0.213945 -0.0916836 0)
(-0.209241 -0.130421 0)
(-0.179881 -0.173415 0)
(-0.175222 -0.207625 0)
(-0.124456 -0.254191 0)
(-0.120376 -0.286633 0)
(-0.0490583 -0.321406 0)
(-0.0414829 -0.339009 0)
(-0.013052 0.59669 0)
(-0.022819 0.45801 0)
(-0.0621084 0.394494 0)
(-0.0670441 0.309954 0)
(-0.0996575 0.269101 0)
(-0.0997358 0.200371 0)
(-0.122977 0.164729 0)
(-0.1196 0.10516 0)
(-0.133263 0.0699898 0)
(-0.12833 0.0166239 0)
(-0.131983 -0.0212312 0)
(-0.12751 -0.0709142 0)
(-0.119621 -0.114536 0)
(-0.117851 -0.162689 0)
(-0.0955563 -0.214492 0)
(-0.0990609 -0.263348 0)
(-0.0588112 -0.323521 0)
(-0.0693967 -0.37968 0)
(-0.0116601 -0.448174 0)
(-0.0264861 -0.543068 0)
(-0.0359255 0.324506 0)
(-0.0537988 0.345707 0)
(-0.0985803 0.345814 0)
(-0.104113 0.28109 0)
(-0.135264 0.264382 0)
(-0.134704 0.192791 0)
(-0.154854 0.16908 0)
(-0.152205 0.103144 0)
(-0.16319 0.0764381 0)
(-0.161119 0.0167055 0)
(-0.163308 -0.0127272 0)
(-0.163438 -0.0681628 0)
(-0.155277 -0.101422 0)
(-0.158113 -0.154583 0)
(-0.136223 -0.19233 0)
(-0.140945 -0.244511 0)
(-0.101357 -0.284011 0)
(-0.104993 -0.33393 0)
(-0.0462862 -0.364423 0)
(-0.0409166 -0.377187 0)
(-0.00663677 0.686552 0)
(0.00237882 0.522434 0)
(-0.0283925 0.445094 0)
(-0.022221 0.346669 0)
(-0.0446258 0.299673 0)
(-0.0382706 0.21994 0)
(-0.0521601 0.182199 0)
(-0.0454722 0.113471 0)
(-0.053168 0.0788622 0)
(-0.0476961 0.0166972 0)
(-0.0500388 -0.0189838 0)
(-0.0476231 -0.0790262 0)
(-0.0433234 -0.119975 0)
(-0.0457783 -0.181873 0)
(-0.0315826 -0.231825 0)
(-0.0407164 -0.29839 0)
(-0.0126692 -0.359671 0)
(-0.0298927 -0.434924 0)
(0.0114106 -0.51237 0)
(-0.0145037 -0.630312 0)
(-0.0415525 0.328858 0)
(-0.0461014 0.365038 0)
(-0.0868055 0.369841 0)
(-0.0763938 0.297116 0)
(-0.0974465 0.280344 0)
(-0.0843876 0.200276 0)
(-0.0947905 0.176242 0)
(-0.0847547 0.104113 0)
(-0.0900652 0.0786149 0)
(-0.0859897 0.0135197 0)
(-0.0881374 -0.012874 0)
(-0.0915781 -0.0749687 0)
(-0.089149 -0.10338 0)
(-0.100332 -0.166458 0)
(-0.0887038 -0.19755 0)
(-0.105764 -0.263599 0)
(-0.0778215 -0.295016 0)
(-0.0947806 -0.358176 0)
(-0.0431561 -0.379918 0)
(-0.0455534 -0.380298 0)
(0.00225479 0.774315 0)
(0.0334176 0.569768 0)
(0.0131559 0.475707 0)
(0.0328546 0.357323 0)
(0.0229498 0.307618 0)
(0.0374113 0.217231 0)
(0.0345395 0.182501 0)
(0.0456273 0.108683 0)
(0.0442938 0.0800162 0)
(0.0512163 0.0146838 0)
(0.0491833 -0.0135075 0)
(0.0506024 -0.0781381 0)
(0.0489454 -0.111377 0)
(0.0433447 -0.182488 0)
(0.0460748 -0.226595 0)
(0.0314468 -0.309481 0)
(0.0444511 -0.370874 0)
(0.0177904 -0.469772 0)
(0.0426135 -0.561709 0)
(-0.00102158 -0.719045 0)
(-0.052368 0.29324 0)
(-0.0380416 0.351448 0)
(-0.0735497 0.369807 0)
(-0.0402133 0.287113 0)
(-0.0468528 0.275686 0)
(-0.0167883 0.188611 0)
(-0.0143119 0.167953 0)
(0.00551655 0.0942788 0)
(0.00699928 0.0729342 0)
(0.0143511 0.00852509 0)
(0.0114295 -0.0123828 0)
(0.00516018 -0.0748707 0)
(-0.00102888 -0.0962824 0)
(-0.0215509 -0.163766 0)
(-0.0251019 -0.185847 0)
(-0.0586329 -0.26218 0)
(-0.0471599 -0.281558 0)
(-0.0858994 -0.35651 0)
(-0.0398901 -0.361204 0)
(-0.0579407 -0.338705 0)
(0.0211201 0.864808 0)
(0.0753111 0.593422 0)
(0.0765196 0.478227 0)
(0.10783 0.330613 0)
(0.117644 0.284106 0)
(0.13802 0.184596 0)
(0.149828 0.160085 0)
(0.163582 0.0872604 0)
(0.169721 0.0710479 0)
(0.177398 0.0101129 0)
(0.175083 -0.00448359 0)
(0.176297 -0.0658572 0)
(0.16641 -0.084871 0)
(0.160066 -0.15863 0)
(0.146787 -0.18975 0)
(0.130161 -0.287657 0)
(0.121103 -0.343838 0)
(0.0875732 -0.477218 0)
(0.0866619 -0.589757 0)
(0.0226794 -0.816874 0)
(-0.0785432 0.196822 0)
(-0.0241803 0.293104 0)
(-0.0480011 0.336709 0)
(0.0198667 0.245799 0)
(0.0383487 0.245387 0)
(0.0889113 0.156322 0)
(0.110212 0.142274 0)
(0.140221 0.0742521 0)
(0.150695 0.0589667 0)
(0.161734 0.00299523 0)
(0.157959 -0.011469 0)
(0.150387 -0.0664003 0)
(0.132761 -0.0802688 0)
(0.104617 -0.144371 0)
(0.0780387 -0.156176 0)
(0.0264633 -0.236726 0)
(0.00763825 -0.239178 0)
(-0.0637603 -0.322235 0)
(-0.0320253 -0.296394 0)
(-0.0862962 -0.229343 0)
(0.0681667 0.967588 0)
(0.125826 0.565761 0)
(0.179151 0.434477 0)
(0.205501 0.244199 0)
(0.248162 0.214914 0)
(0.263081 0.112583 0)
(0.293236 0.108605 0)
(0.302573 0.046601 0)
(0.316606 0.0493333 0)
(0.321811 0.00263866 0)
(0.319144 0.0066274 0)
(0.320735 -0.0409029 0)
(0.302046 -0.0393635 0)
(0.299752 -0.10417 0)
(0.267043 -0.111868 0)
(0.258415 -0.217508 0)
(0.216596 -0.253844 0)
(0.191636 -0.437711 0)
(0.140983 -0.567277 0)
(0.0711908 -0.935164 0)
(-0.110411 0.00279492 0)
(0.0319158 0.178934 0)
(0.0585479 0.256593 0)
(0.167469 0.176667 0)
(0.231514 0.187722 0)
(0.296592 0.111126 0)
(0.342503 0.102625 0)
(0.376373 0.0506933 0)
(0.397016 0.0395123 0)
(0.409402 0.000221498 0)
(0.405886 -0.0106481 0)
(0.39997 -0.0495688 0)
(0.371582 -0.0595611 0)
(0.343826 -0.109642 0)
(0.288201 -0.115105 0)
(0.228528 -0.186522 0)
(0.153059 -0.172606 0)
(0.0494209 -0.246771 0)
(0.015082 -0.176012 0)
(-0.112408 -0.0171263 0)
(0.176341 1.04611 0)
(0.140293 0.399849 0)
(0.304052 0.299029 0)
(0.27506 0.0710915 0)
(0.363012 0.0855684 0)
(0.347535 0.00138298 0)
(0.393865 0.0285885 0)
(0.386809 -0.00815919 0)
(0.406064 0.0160283 0)
(0.404366 -0.00651896 0)
(0.402393 0.0157522 0)
(0.405266 -0.00690765 0)
(0.382643 0.0164634 0)
(0.391188 -0.0210923 0)
(0.344241 0.00313592 0)
(0.361126 -0.0826217 0)
(0.280605 -0.0749496 0)
(0.30563 -0.299857 0)
(0.161908 -0.405454 0)
(0.169989 -1.03242 0)
(0.145217 -0.31392 0)
(0.310922 0.0480398 0)
(0.522416 0.121731 0)
(0.623243 0.117714 0)
(0.733724 0.115235 0)
(0.785603 0.0801557 0)
(0.838346 0.063167 0)
(0.861556 0.0382619 0)
(0.881662 0.0216872 0)
(0.889785 0.00360269 0)
(0.887275 -0.0118548 0)
(0.885175 -0.0301283 0)
(0.859087 -0.0457919 0)
(0.843272 -0.0715323 0)
(0.780698 -0.0853143 0)
(0.738548 -0.123117 0)
(0.610299 -0.117289 0)
(0.522484 -0.128184 0)
(0.28897 -0.0403977 0)
(0.14562 0.314854 0)
(0.221668 0.58997 0)
(0.054291 0.0250391 0)
(0.29475 -0.0132229 0)
(0.162799 -0.140456 0)
(0.271993 -0.0770872 0)
(0.200908 -0.103518 0)
(0.248578 -0.0476639 0)
(0.216339 -0.0517846 0)
(0.234976 -0.0125343 0)
(0.225402 -0.012473 0)
(0.226017 0.0200111 0)
(0.233467 0.0209365 0)
(0.216744 0.0580278 0)
(0.245631 0.0569856 0)
(0.202147 0.107577 0)
(0.267864 0.0875478 0)
(0.166581 0.140947 0)
(0.291563 0.0214044 0)
(0.059881 -0.0285232 0)
(0.222758 -0.597706 0)
)
;

boundaryField
{
    cavity
    {
        type            myImplicitVelocity;
    }
    lid
    {
        type            fixedValue;
        value           uniform (1 0 0);
    }
    frontAndBack
    {
        type            empty;
    }
}


// ************************************************************************* //
