/*--------------------------------*- C++ -*----------------------------------*\
| =========                 |                                                 |
| \\      /  F ield         | OpenFOAM: The Open Source CFD Toolbox           |
|  \\    /   O peration     | Version:  2.2.0                                 |
|   \\  /    A nd           | Web:      www.OpenFOAM.org                      |
|    \\/     M anipulation  |                                                 |
\*---------------------------------------------------------------------------*/
FoamFile
{
    version     2.0;
    format      ascii;
    class       volVectorField;
    location    "4";
    object      s;
}
// * * * * * * * * * * * * * * * * * * * * * * * * * * * * * * * * * * * * * //

dimensions      [0 1 -1 0 0 0 0];

internalField   nonuniform List<vector> 
7920
(
(0.489154 0.428896 0.107676)
(0.461652 0.40454 0.169321)
(0.431152 0.377471 0.234445)
(0.398026 0.348042 0.301931)
(0.362252 0.316332 0.370186)
(0.323704 0.28249 0.436978)
(0.282947 0.247832 0.499147)
(0.233244 0.207918 0.551329)
(0.523323 0.349595 0.149716)
(0.493758 0.329575 0.209858)
(0.461 0.307314 0.273361)
(0.425418 0.283093 0.339191)
(0.386973 0.257018 0.405935)
(0.345689 0.229423 0.471762)
(0.301583 0.201251 0.534403)
(0.252375 0.171949 0.591146)
(0.538345 0.265485 0.217174)
(0.508002 0.250424 0.273467)
(0.474401 0.233666 0.332851)
(0.437909 0.215436 0.394414)
(0.398516 0.195863 0.456968)
(0.356368 0.175347 0.519065)
(0.31146 0.154657 0.579085)
(0.263407 0.134971 0.635504)
(0.534807 0.181591 0.317012)
(0.505496 0.171641 0.364664)
(0.472935 0.160507 0.415024)
(0.437455 0.148334 0.467413)
(0.399039 0.135222 0.52097)
(0.357888 0.121486 0.574689)
(0.314133 0.107708 0.627511)
(0.268391 0.0952315 0.678597)
(0.519252 0.103347 0.436949)
(0.492508 0.0980806 0.471021)
(0.462511 0.0921084 0.507612)
(0.429521 0.0855048 0.546421)
(0.39347 0.0783234 0.587033)
(0.35455 0.0707575 0.628942)
(0.313004 0.0631745 0.671607)
(0.269941 0.0564922 0.714658)
(0.504795 0.0331132 0.526849)
(0.480431 0.031544 0.54913)
(0.452774 0.0297367 0.57402)
(0.422021 0.0277118 0.601553)
(0.388048 0.0254839 0.631679)
(0.351017 0.023116 0.664251)
(0.311225 0.020732 0.699051)
(0.26998 0.0186477 0.735946)
(0.504795 -0.0331132 0.526849)
(0.480431 -0.0315438 0.54913)
(0.452774 -0.0297364 0.574021)
(0.422021 -0.0277118 0.601554)
(0.388049 -0.0254846 0.63168)
(0.351018 -0.0231172 0.664251)
(0.311226 -0.0207332 0.699051)
(0.269981 -0.0186486 0.735946)
(0.519252 -0.103347 0.43695)
(0.492508 -0.0980804 0.471022)
(0.462511 -0.0921081 0.507614)
(0.429521 -0.0855049 0.546422)
(0.393472 -0.0783244 0.587034)
(0.354552 -0.0707593 0.628942)
(0.313007 -0.0631763 0.671607)
(0.269943 -0.0564935 0.714659)
(0.534808 -0.181591 0.317013)
(0.505496 -0.171641 0.364665)
(0.472935 -0.160507 0.415025)
(0.437456 -0.148335 0.467414)
(0.399041 -0.135223 0.520971)
(0.357892 -0.121488 0.574689)
(0.314137 -0.107711 0.627511)
(0.268393 -0.0952331 0.678598)
(0.538344 -0.265485 0.217174)
(0.508002 -0.250423 0.273467)
(0.474401 -0.233665 0.332851)
(0.437911 -0.215435 0.394415)
(0.398518 -0.195864 0.456968)
(0.356372 -0.175349 0.519066)
(0.311465 -0.15466 0.579086)
(0.263408 -0.134973 0.635506)
(0.523322 -0.349594 0.149716)
(0.493757 -0.329573 0.209857)
(0.460999 -0.307312 0.273361)
(0.425417 -0.28309 0.339191)
(0.386973 -0.257016 0.405935)
(0.345691 -0.229422 0.471762)
(0.301585 -0.201253 0.534405)
(0.252376 -0.171951 0.59115)
(0.489161 -0.428902 0.107676)
(0.46166 -0.404546 0.169321)
(0.431162 -0.377479 0.234446)
(0.398036 -0.348051 0.301932)
(0.362261 -0.316341 0.370188)
(0.323711 -0.282497 0.436981)
(0.282951 -0.247839 0.499151)
(0.233249 -0.207924 0.551335)
(0.224092 0.196415 0.0262988)
(0.226445 0.198266 0.0483918)
(0.227928 0.199362 0.0738642)
(0.22829 0.199528 0.102883)
(0.226987 0.198381 0.135361)
(0.223346 0.195541 0.17074)
(0.216551 0.190879 0.207543)
(0.203921 0.183167 0.242695)
(0.252839 0.16902 0.0381897)
(0.254475 0.170316 0.0610751)
(0.255045 0.171001 0.0873679)
(0.254258 0.170956 0.117263)
(0.251515 0.169932 0.150761)
(0.24615 0.167775 0.187546)
(0.237188 0.164497 0.226786)
(0.223595 0.160539 0.266975)
(0.280559 0.138508 0.0595488)
(0.280975 0.139085 0.0828756)
(0.280155 0.139196 0.109574)
(0.277804 0.138771 0.139871)
(0.273337 0.13767 0.173866)
(0.26615 0.135864 0.211464)
(0.255367 0.133456 0.252309)
(0.240549 0.131266 0.295753)
(0.308586 0.104885 0.0936779)
(0.307072 0.104711 0.115875)
(0.3042 0.104212 0.141285)
(0.299702 0.103365 0.170186)
(0.293063 0.102107 0.202788)
(0.283786 0.100475 0.239209)
(0.27119 0.0986137 0.279469)
(0.255287 0.0972845 0.323532)
(0.334822 0.0666801 0.136873)
(0.330843 0.0661035 0.155846)
(0.325455 0.0653456 0.177862)
(0.318442 0.0644059 0.203301)
(0.30938 0.0632726 0.232525)
(0.297886 0.0619932 0.265877)
(0.28346 0.0606884 0.303695)
(0.266364 0.0598594 0.346402)
(0.351932 0.0230916 0.170221)
(0.346037 0.0227759 0.185856)
(0.338741 0.0224043 0.204471)
(0.32987 0.0219805 0.226543)
(0.31907 0.0215059 0.252566)
(0.306028 0.0210016 0.283042)
(0.290355 0.020514 0.318508)
(0.272418 0.0202156 0.359634)
(0.351932 -0.0230917 0.170221)
(0.346037 -0.0227759 0.185858)
(0.338741 -0.0224044 0.204473)
(0.32987 -0.0219807 0.226546)
(0.31907 -0.0215061 0.252568)
(0.306028 -0.0210015 0.283043)
(0.290355 -0.0205131 0.318508)
(0.272419 -0.0202133 0.359633)
(0.334822 -0.0666802 0.136875)
(0.330843 -0.0661037 0.155848)
(0.325455 -0.0653459 0.177867)
(0.318442 -0.0644064 0.203306)
(0.309381 -0.0632733 0.232529)
(0.297887 -0.0619938 0.265879)
(0.283462 -0.0606883 0.303695)
(0.266365 -0.0598577 0.346398)
(0.308586 -0.104885 0.0936798)
(0.307072 -0.104711 0.115878)
(0.3042 -0.104213 0.14129)
(0.299702 -0.103365 0.170191)
(0.293063 -0.102108 0.202792)
(0.283788 -0.100476 0.239211)
(0.271193 -0.0986142 0.279468)
(0.255289 -0.0972835 0.323528)
(0.280559 -0.138508 0.0595505)
(0.280975 -0.139085 0.0828783)
(0.280156 -0.139196 0.109578)
(0.277805 -0.138772 0.139875)
(0.273339 -0.137671 0.173869)
(0.266153 -0.135866 0.211466)
(0.255371 -0.133457 0.252308)
(0.240552 -0.131265 0.29575)
(0.252839 -0.16902 0.0381915)
(0.254475 -0.170315 0.0610779)
(0.255045 -0.171 0.0873716)
(0.254258 -0.170955 0.117267)
(0.251516 -0.169931 0.150765)
(0.246153 -0.167776 0.187549)
(0.237191 -0.164498 0.226788)
(0.223599 -0.16054 0.266975)
(0.224095 -0.196418 0.0262996)
(0.226449 -0.198269 0.0483933)
(0.227932 -0.199366 0.0738664)
(0.228294 -0.199532 0.102886)
(0.226991 -0.198384 0.135363)
(0.223349 -0.195544 0.170742)
(0.216554 -0.190882 0.207545)
(0.203926 -0.183169 0.242697)
(0.117077 0.102559 0.00387881)
(0.118978 0.103989 0.013627)
(0.120826 0.105359 0.0250111)
(0.122518 0.106605 0.038214)
(0.123832 0.107588 0.053349)
(0.12444 0.108148 0.0703656)
(0.123759 0.108115 0.088834)
(0.120825 0.107366 0.107501)
(0.132648 0.088672 0.00510418)
(0.134322 0.0898946 0.015468)
(0.135858 0.0910855 0.0275639)
(0.137126 0.0922055 0.0416117)
(0.137873 0.0931769 0.0577989)
(0.137752 0.0939498 0.0762346)
(0.136155 0.0944908 0.0968701)
(0.132723 0.0953241 0.119387)
(0.147965 0.0730703 0.00811273)
(0.14923 0.0739434 0.0191879)
(0.150275 0.0748 0.0321043)
(0.150959 0.0756207 0.0471196)
(0.151025 0.0763699 0.0644909)
(0.150149 0.0770484 0.0844595)
(0.1478 0.0776926 0.107234)
(0.143756 0.0788028 0.132976)
(0.163749 0.0556826 0.0133343)
(0.164284 0.0561063 0.0248607)
(0.164523 0.0565207 0.0383039)
(0.164331 0.0569222 0.0539524)
(0.163479 0.0573052 0.0721183)
(0.161689 0.0576969 0.0931398)
(0.158539 0.0581653 0.117397)
(0.153942 0.0590951 0.145348)
(0.178626 0.0355916 0.0200302)
(0.178128 0.03565 0.0315655)
(0.177282 0.0357047 0.0450575)
(0.175969 0.0357604 0.0608233)
(0.174002 0.0358251 0.0792206)
(0.171156 0.0359284 0.10066)
(0.167103 0.0361292 0.125641)
(0.161835 0.0366638 0.154814)
(0.188349 0.0123646 0.0251609)
(0.187 0.0123289 0.0364812)
(0.185286 0.0122931 0.0497772)
(0.183102 0.0122603 0.0653863)
(0.180295 0.012236 0.0836958)
(0.176674 0.0122328 0.10516)
(0.171972 0.012274 0.130342)
(0.166214 0.0124394 0.159993)
(0.188349 -0.0123646 0.0251612)
(0.187 -0.0123289 0.0364819)
(0.185286 -0.012293 0.0497783)
(0.183103 -0.0122604 0.0653877)
(0.180295 -0.0122363 0.0836969)
(0.176674 -0.0122333 0.105161)
(0.171972 -0.0122743 0.130342)
(0.166214 -0.0124391 0.159993)
(0.178627 -0.0355918 0.0200311)
(0.178128 -0.0356502 0.0315671)
(0.177283 -0.0357049 0.04506)
(0.17597 -0.0357607 0.0608262)
(0.174003 -0.0358258 0.0792229)
(0.171156 -0.0359293 0.100662)
(0.167104 -0.0361299 0.125641)
(0.161836 -0.0366637 0.154813)
(0.16375 -0.0556829 0.0133353)
(0.164284 -0.0561066 0.0248625)
(0.164524 -0.0565211 0.0383064)
(0.164332 -0.0569228 0.0539551)
(0.163479 -0.057306 0.0721203)
(0.16169 -0.0576978 0.0931406)
(0.15854 -0.058166 0.117396)
(0.153943 -0.0590952 0.145346)
(0.147965 -0.0730705 0.00811371)
(0.14923 -0.0739435 0.0191894)
(0.150276 -0.0748 0.0321064)
(0.150959 -0.0756209 0.0471218)
(0.151026 -0.0763704 0.0644926)
(0.15015 -0.0770492 0.0844606)
(0.147802 -0.0776934 0.107235)
(0.143757 -0.0788031 0.132977)
(0.132648 -0.0886719 0.0051051)
(0.134322 -0.0898942 0.0154693)
(0.135858 -0.0910847 0.0275658)
(0.137127 -0.0922046 0.0416139)
(0.137873 -0.0931761 0.0578011)
(0.137753 -0.0939496 0.0762369)
(0.136157 -0.094491 0.0968728)
(0.132725 -0.0953247 0.11939)
(0.117079 -0.102561 0.00387947)
(0.118981 -0.103992 0.0136281)
(0.120829 -0.105363 0.0250127)
(0.122522 -0.106609 0.0382161)
(0.123835 -0.107591 0.0533514)
(0.124442 -0.108151 0.0703684)
(0.123762 -0.108117 0.0888374)
(0.120828 -0.107368 0.107506)
(0.0620474 0.0543491 -0.00633957)
(0.0631525 0.0551833 -0.00225851)
(0.0642892 0.0560369 0.0025601)
(0.06542 0.0568903 0.00822562)
(0.0664524 0.057693 0.0148337)
(0.0672403 0.0583872 0.0224294)
(0.0674812 0.0588886 0.0309224)
(0.0667817 0.0592706 0.0398796)
(0.0703334 0.0470274 -0.0104818)
(0.0713347 0.0477776 -0.00606295)
(0.0723275 0.0485589 -0.000813423)
(0.0732595 0.049363 0.00541173)
(0.0740221 0.0501675 0.0127658)
(0.0744588 0.0509651 0.0213965)
(0.0742658 0.0517505 0.0314222)
(0.0733028 0.0528572 0.042886)
(0.0784664 0.0387676 -0.0169843)
(0.0792938 0.039348 -0.0119516)
(0.0800742 0.0399613 -0.00595132)
(0.0807498 0.040607 0.00119671)
(0.0812116 0.0412801 0.00969527)
(0.0813104 0.0419929 0.0197679)
(0.0807881 0.0427741 0.0316598)
(0.0795413 0.0438959 0.0456403)
(0.0867551 0.0295192 -0.0269332)
(0.0872628 0.0298603 -0.0208644)
(0.0876895 0.0302289 -0.0136766)
(0.0879798 0.03063 -0.0051721)
(0.0880366 0.0310693 0.0048741)
(0.0877324 0.0315678 0.0167183)
(0.0868633 0.0321665 0.0306611)
(0.0853719 0.0330598 0.0470746)
(0.0944369 0.0188301 -0.0394414)
(0.09448 0.0189512 -0.0318725)
(0.0944181 0.0190907 -0.02307)
(0.0942041 0.0192549 -0.0128454)
(0.0937586 0.0194525 -0.000983926)
(0.0929785 0.0197022 0.0127646)
(0.091705 0.0200369 0.0287079)
(0.0899075 0.0205725 0.0472556)
(0.0993914 0.00652967 -0.0491434)
(0.0990473 0.00654562 -0.0402766)
(0.0985892 0.00656835 -0.0301302)
(0.0979783 0.00660074 -0.0185366)
(0.0971492 0.00664693 -0.00530225)
(0.0960156 0.00671448 0.00980514)
(0.0944455 0.00681612 0.027085)
(0.0924212 0.00699063 0.0469576)
(0.0993916 -0.00652971 -0.0491432)
(0.0990475 -0.00654558 -0.0402763)
(0.0985895 -0.00656826 -0.0301298)
(0.0979785 -0.00660075 -0.0185361)
(0.0971493 -0.00664715 -0.00530184)
(0.0960157 -0.00671488 0.00980537)
(0.0944456 -0.00681648 0.027085)
(0.0924212 -0.00699055 0.0469574)
(0.0944376 -0.0188303 -0.0394409)
(0.0944807 -0.0189513 -0.0318718)
(0.0944188 -0.0190908 -0.0230689)
(0.0942047 -0.0192552 -0.0128442)
(0.0937591 -0.019453 -0.000982992)
(0.0929789 -0.0197028 0.0127651)
(0.0917053 -0.0200375 0.0287079)
(0.0899077 -0.0205726 0.0472551)
(0.0867559 -0.0295196 -0.0269327)
(0.0872637 -0.0298606 -0.0208635)
(0.0876904 -0.0302293 -0.0136754)
(0.0879806 -0.0306305 -0.00517086)
(0.0880372 -0.03107 0.0048751)
(0.087733 -0.0315686 0.0167188)
(0.086864 -0.0321672 0.0306611)
(0.0853725 -0.03306 0.0470741)
(0.0784671 -0.0387679 -0.0169838)
(0.0792945 -0.0393482 -0.0119509)
(0.080075 -0.0399615 -0.00595028)
(0.0807505 -0.0406073 0.00119783)
(0.0812124 -0.0412807 0.00969625)
(0.0813113 -0.0419937 0.0197686)
(0.0807894 -0.0427749 0.0316602)
(0.0795425 -0.0438962 0.0456403)
(0.0703338 -0.0470276 -0.0104813)
(0.0713352 -0.0477776 -0.00606218)
(0.0723281 -0.0485587 -0.000812383)
(0.0732601 -0.0493626 0.00541294)
(0.0740229 -0.0501673 0.0127671)
(0.0744601 -0.0509653 0.0213978)
(0.0742676 -0.051751 0.0314235)
(0.073305 -0.0528579 0.0428872)
(0.06205 -0.0543514 -0.00633926)
(0.0631554 -0.0551858 -0.00225798)
(0.0642926 -0.0560398 0.00256088)
(0.0654235 -0.0568933 0.0082266)
(0.0664554 -0.0576958 0.0148348)
(0.0672428 -0.0583895 0.0224307)
(0.0674835 -0.0588904 0.0309239)
(0.0667842 -0.059272 0.0398814)
(0.030365 0.0265962 -0.0111414)
(0.0309265 0.0270195 -0.00972697)
(0.031515 0.0274615 -0.00800391)
(0.0321138 0.0279144 -0.00590606)
(0.0326829 0.028358 -0.00336162)
(0.0331561 0.0287687 -0.000303856)
(0.033389 0.0291084 0.00330203)
(0.0332071 0.0294371 0.00738936)
(0.0343994 0.0230029 -0.0178913)
(0.0349134 0.0233908 -0.0163047)
(0.0354356 0.0238029 -0.0143236)
(0.0359424 0.0242365 -0.0118481)
(0.0363861 0.0246843 -0.00875918)
(0.036695 0.0251457 -0.00491968)
(0.0367274 0.0256219 -0.000177788)
(0.036418 0.0262802 0.00562212)
(0.0383368 0.0189448 -0.0290627)
(0.0387752 0.0192537 -0.0269509)
(0.0392046 0.0195868 -0.0243013)
(0.0395987 0.019945 -0.020982)
(0.03991 0.0203285 -0.0168365)
(0.0400701 0.0207452 -0.0116823)
(0.0399601 0.0212116 -0.00530831)
(0.0395286 0.0218577 0.00252998)
(0.0423075 0.0143997 -0.0464778)
(0.0426064 0.0145923 -0.043085)
(0.0428814 0.014805 -0.0389736)
(0.0431074 0.0150408 -0.0340021)
(0.0432423 0.0153042 -0.0280093)
(0.0432279 0.0156064 -0.0208134)
(0.0429705 0.0159685 -0.0122066)
(0.0424373 0.0164809 -0.00194101)
(0.0459437 0.00916403 -0.0684198)
(0.0460378 0.00924421 -0.0628327)
(0.0460975 0.00933757 -0.0563815)
(0.0461019 0.0094476 -0.0489535)
(0.0460165 0.00957931 -0.0404259)
(0.0457944 0.00974223 -0.0306627)
(0.0453623 0.00995276 -0.0195045)
(0.0446986 0.0102642 -0.00674453)
(0.0482678 0.00317221 -0.0853885)
(0.0481905 0.00318836 -0.0777864)
(0.0480751 0.00320924 -0.069264)
(0.0479043 0.00323637 -0.0597496)
(0.0476499 0.00327199 -0.049167)
(0.0472725 0.00331989 -0.0374287)
(0.046711 0.00338632 -0.0244196)
(0.0459494 0.00348911 -0.00996728)
(0.048268 -0.00317224 -0.0853884)
(0.0481907 -0.00318835 -0.0777863)
(0.0480753 -0.00320921 -0.069264)
(0.0479045 -0.00323642 -0.0597496)
(0.04765 -0.00327219 -0.049167)
(0.0472726 -0.00332022 -0.0374287)
(0.0467111 -0.00338663 -0.0244196)
(0.0459495 -0.00348914 -0.00996723)
(0.0459442 -0.00916415 -0.0684196)
(0.0460382 -0.00924432 -0.0628325)
(0.046098 -0.0093377 -0.0563814)
(0.0461023 -0.00944781 -0.0489534)
(0.0460168 -0.00957967 -0.0404257)
(0.0457946 -0.0097427 -0.0306625)
(0.0453625 -0.00995318 -0.0195042)
(0.0446988 -0.0102643 -0.00674426)
(0.0423082 -0.0143999 -0.0464775)
(0.042607 -0.0145926 -0.0430846)
(0.042882 -0.0148053 -0.0389733)
(0.043108 -0.0150412 -0.0340017)
(0.0432428 -0.0153047 -0.0280088)
(0.0432283 -0.015607 -0.0208128)
(0.042971 -0.015969 -0.0122059)
(0.0424377 -0.0164811 -0.00194047)
(0.0383374 -0.0189451 -0.0290625)
(0.0387757 -0.0192539 -0.0269505)
(0.0392051 -0.019587 -0.0243008)
(0.0395993 -0.0199453 -0.0209814)
(0.0399105 -0.0203289 -0.0168358)
(0.0400707 -0.0207458 -0.0116815)
(0.0399609 -0.0212122 -0.00530743)
(0.0395294 -0.021858 0.0025307)
(0.0343998 -0.0230031 -0.017891)
(0.0349138 -0.0233909 -0.0163043)
(0.0354361 -0.0238029 -0.014323)
(0.0359428 -0.0242364 -0.0118473)
(0.0363866 -0.0246842 -0.00875831)
(0.0366958 -0.0251459 -0.00491869)
(0.0367286 -0.0256223 -0.000176719)
(0.0364195 -0.0262807 0.0056231)
(0.0303667 -0.0265977 -0.0111412)
(0.0309285 -0.0270211 -0.00972665)
(0.0315171 -0.0274634 -0.00800344)
(0.032116 -0.0279163 -0.00590545)
(0.0326848 -0.0283598 -0.00336088)
(0.0331577 -0.0287703 -0.000303007)
(0.0333905 -0.0291096 0.003303)
(0.0332086 -0.0294381 0.00739044)
(0.0140713 0.0123249 -0.0135756)
(0.0143382 0.0125271 -0.0135163)
(0.0146201 0.0127402 -0.0133675)
(0.0149096 0.0129607 -0.0130867)
(0.015189 0.0131803 -0.0126178)
(0.0154287 0.0133888 -0.0118886)
(0.0155634 0.0135697 -0.010809)
(0.0155147 0.013755 -0.00926578)
(0.0159421 0.0106615 -0.0216456)
(0.0161875 0.0108483 -0.021501)
(0.0164392 0.0110484 -0.0211859)
(0.0166867 0.0112608 -0.0206263)
(0.0169087 0.0114828 -0.0197248)
(0.017073 0.0117145 -0.0183568)
(0.017116 0.0119574 -0.0163648)
(0.0170053 0.012287 -0.0135519)
(0.0177653 0.00878033 -0.0351719)
(0.0179773 0.00893074 -0.0345513)
(0.0181881 0.00909428 -0.0336165)
(0.0183858 0.00927158 -0.0322634)
(0.0185493 0.00946315 -0.0303644)
(0.0186477 0.00967289 -0.0277662)
(0.0186277 0.00990899 -0.0242885)
(0.0184631 0.0102288 -0.019719)
(0.0195922 0.00666961 -0.0563243)
(0.0197429 0.00676569 -0.054306)
(0.0198858 0.00687255 -0.0517808)
(0.0200096 0.00699183 -0.0486398)
(0.0200958 0.0071258 -0.0447604)
(0.0201177 0.00727973 -0.0400079)
(0.0200332 0.0074635 -0.0342357)
(0.0198239 0.00771681 -0.02728)
(0.0212518 0.00423984 -0.082948)
(0.0213123 0.00428226 -0.0783974)
(0.0213606 0.00433178 -0.0731816)
(0.0213871 0.00439007 -0.0672305)
(0.0213767 0.00445957 -0.0604746)
(0.0213076 0.00454467 -0.0528454)
(0.0211468 0.00465298 -0.0442728)
(0.0208806 0.00480793 -0.034674)
(0.0223055 0.00146628 -0.103499)
(0.0222908 0.00147584 -0.096585)
(0.0222622 0.00148792 -0.0889458)
(0.0222119 0.00150325 -0.0805624)
(0.0221273 0.00152288 -0.0714247)
(0.0219904 0.00154856 -0.061528)
(0.021773 0.00158317 -0.0508646)
(0.0214642 0.00163458 -0.0394087)
(0.0223056 -0.0014663 -0.103499)
(0.0222909 -0.00147583 -0.0965851)
(0.0222623 -0.00148791 -0.0889461)
(0.022212 -0.00150328 -0.0805629)
(0.0221274 -0.00152301 -0.0714251)
(0.0219904 -0.00154878 -0.0615282)
(0.021773 -0.0015834 -0.0508645)
(0.0214642 -0.00163467 -0.0394085)
(0.0212521 -0.00423991 -0.0829479)
(0.0213126 -0.00428233 -0.0783976)
(0.0213609 -0.00433186 -0.0731822)
(0.0213874 -0.00439021 -0.0672312)
(0.0213769 -0.00445981 -0.0604751)
(0.0213078 -0.00454499 -0.0528455)
(0.021147 -0.00465327 -0.0442723)
(0.0208808 -0.00480806 -0.0346732)
(0.0195927 -0.00666978 -0.0563242)
(0.0197433 -0.00676586 -0.0543061)
(0.0198862 -0.00687274 -0.0517811)
(0.0200101 -0.00699208 -0.04864)
(0.0200961 -0.00712613 -0.0447603)
(0.020118 -0.00728012 -0.0400074)
(0.0200335 -0.00746384 -0.0342347)
(0.0198242 -0.00771698 -0.0272787)
(0.0177657 -0.00878053 -0.0351719)
(0.0179777 -0.00893091 -0.0345513)
(0.0181885 -0.00909444 -0.0336165)
(0.0183862 -0.00927178 -0.0322633)
(0.0185496 -0.00946344 -0.0303639)
(0.0186481 -0.00967326 -0.0277655)
(0.0186282 -0.00990936 -0.0242874)
(0.0184635 -0.010229 -0.0197178)
(0.0159424 -0.0106617 -0.0216455)
(0.0161878 -0.0108484 -0.0215008)
(0.0164395 -0.0110484 -0.0211858)
(0.016687 -0.0112608 -0.0206261)
(0.0169091 -0.0114828 -0.0197244)
(0.0170735 -0.0117147 -0.0183562)
(0.0171167 -0.0119577 -0.016364)
(0.0170062 -0.0122874 -0.0135512)
(0.0140724 -0.0123258 -0.0135755)
(0.0143395 -0.0125281 -0.0135162)
(0.0146215 -0.0127414 -0.0133673)
(0.014911 -0.012962 -0.0130865)
(0.0151903 -0.0131815 -0.0126175)
(0.0154297 -0.0133898 -0.0118882)
(0.0155643 -0.0135705 -0.0108085)
(0.0155156 -0.0137556 -0.00926532)
(0.00606633 0.00531348 -0.0147279)
(0.00618439 0.00540337 -0.0153103)
(0.0063096 0.00549863 -0.0159069)
(0.00643879 0.00559775 -0.0164867)
(0.00656455 0.00569726 -0.0170011)
(0.0066741 0.0057929 -0.0173763)
(0.00673993 0.00587787 -0.0174976)
(0.0067282 0.00596649 -0.017168)
(0.0068747 0.00459788 -0.0234224)
(0.00698362 0.00468128 -0.0239613)
(0.00709603 0.00477106 -0.0244362)
(0.00720728 0.00486676 -0.0247851)
(0.00730843 0.0049673 -0.0249217)
(0.00738548 0.00507268 -0.0247284)
(0.00741175 0.00518386 -0.0240469)
(0.00737164 0.00533176 -0.0226638)
(0.00766197 0.00378727 -0.0380596)
(0.00775708 0.00385485 -0.0381469)
(0.00785244 0.00392866 -0.0380264)
(0.00794295 0.00400894 -0.0376079)
(0.00801961 0.00409598 -0.0367778)
(0.00806905 0.0041914 -0.0353985)
(0.00806875 0.00429879 -0.0333057)
(0.00800572 0.0044415 -0.0303064)
(0.00844721 0.00287598 -0.0609645)
(0.00851683 0.00291979 -0.0596011)
(0.00858399 0.0029687 -0.0578323)
(0.00864383 0.00302337 -0.0555653)
(0.00868828 0.00308482 -0.0526965)
(0.00870585 0.00315524 -0.0491149)
(0.00867847 0.00323885 -0.044705)
(0.00859651 0.00335184 -0.0393463)
(0.00915598 0.00182693 -0.0897685)
(0.00918819 0.001847 -0.085718)
(0.0092161 0.00187041 -0.0810981)
(0.00923554 0.00189786 -0.0758597)
(0.00923988 0.00193039 -0.0699592)
(0.00921966 0.00196985 -0.0633614)
(0.00916043 0.00201947 -0.0560405)
(0.00905478 0.00208887 -0.0479759)
(0.00960363 0.000631403 -0.111978)
(0.00960468 0.000636214 -0.105406)
(0.00960074 0.000642205 -0.0982014)
(0.00958834 0.000649676 -0.090373)
(0.00956197 0.000659078 -0.0819419)
(0.00951356 0.000671148 -0.0729439)
(0.00943082 0.000687115 -0.0634242)
(0.00930748 0.000710217 -0.0534298)
(0.0096037 -0.000631413 -0.111978)
(0.00960476 -0.000636213 -0.105406)
(0.00960082 -0.000642199 -0.0982019)
(0.00958841 -0.000649699 -0.0903736)
(0.00956202 -0.000659159 -0.0819425)
(0.0095136 -0.000671281 -0.0729442)
(0.00943084 -0.000687252 -0.0634242)
(0.0093075 -0.000710278 -0.0534294)
(0.00915618 -0.00182698 -0.0897686)
(0.0091884 -0.00184705 -0.0857184)
(0.0092163 -0.00187046 -0.0810991)
(0.00923572 -0.00189794 -0.0758608)
(0.00924003 -0.00193052 -0.06996)
(0.00921977 -0.00197003 -0.0633616)
(0.00916053 -0.00201964 -0.0560399)
(0.00905486 -0.00208895 -0.0479748)
(0.00844748 -0.00287608 -0.0609645)
(0.00851711 -0.0029199 -0.0596015)
(0.00858428 -0.00296881 -0.057833)
(0.00864409 -0.00302352 -0.0555659)
(0.00868851 -0.00308502 -0.0526967)
(0.00870605 -0.00315547 -0.0491144)
(0.00867866 -0.00323906 -0.0447037)
(0.00859668 -0.00335195 -0.0393446)
(0.00766223 -0.0037874 -0.0380596)
(0.00775734 -0.00385497 -0.038147)
(0.00785272 -0.00392876 -0.0380267)
(0.00794322 -0.00400907 -0.037608)
(0.00801986 -0.00409616 -0.0367776)
(0.00806931 -0.00419163 -0.0353977)
(0.00806905 -0.00429902 -0.0333045)
(0.00800601 -0.00444164 -0.030305)
(0.00687489 -0.004598 -0.0234224)
(0.00698383 -0.00468136 -0.0239614)
(0.00709624 -0.0047711 -0.0244362)
(0.0072075 -0.00486678 -0.0247851)
(0.00730868 -0.00496736 -0.0249215)
(0.00738581 -0.00507282 -0.0247279)
(0.0074122 -0.00518407 -0.0240463)
(0.00737218 -0.00533199 -0.0226632)
(0.00606699 -0.00531405 -0.0147279)
(0.00618512 -0.005404 -0.0153103)
(0.00631042 -0.00549934 -0.0159069)
(0.00643961 -0.00559849 -0.0164866)
(0.00656529 -0.00569797 -0.017001)
(0.00667473 -0.00579351 -0.0173761)
(0.0067405 -0.00587838 -0.0174974)
(0.00672876 -0.0059669 -0.0171679)
(0.00242141 0.00212096 -0.0152489)
(0.00246991 0.00215819 -0.0161222)
(0.00252153 0.00219781 -0.0170566)
(0.00257499 0.00223924 -0.0180265)
(0.00262736 0.00228111 -0.018987)
(0.00267353 0.00232172 -0.0198633)
(0.00270271 0.00235848 -0.0205301)
(0.00270126 0.00239713 -0.0207527)
(0.00274549 0.00183637 -0.0242235)
(0.0027904 0.00187099 -0.0250719)
(0.00283698 0.00190841 -0.0259046)
(0.00288333 0.00194843 -0.0266654)
(0.00292588 0.00199063 -0.0272729)
(0.00295902 0.00203498 -0.0276131)
(0.00297227 0.00208192 -0.0275276)
(0.00295869 0.0021431 -0.0267964)
(0.00306129 0.00151335 -0.0393556)
(0.00310087 0.00154152 -0.0397635)
(0.00314083 0.00157238 -0.0400122)
(0.0031791 0.00160604 -0.0400176)
(0.00321208 0.00164261 -0.0396732)
(0.00323438 0.00168269 -0.0388485)
(0.00323708 0.00172772 -0.0373872)
(0.00321429 0.00178644 -0.0351055)
(0.00337509 0.00114925 -0.0630348)
(0.00340478 0.00116772 -0.0619691)
(0.0034338 0.00118838 -0.0605446)
(0.00346015 0.00121151 -0.0586758)
(0.0034806 0.00123748 -0.0562684)
(0.00349045 0.00126715 -0.0532223)
(0.00348245 0.00130218 -0.0494364)
(0.00345203 0.00134864 -0.0448107)
(0.00365669 0.000729737 -0.0927936)
(0.0036719 0.000738445 -0.0889739)
(0.0036857 0.000748583 -0.0846291)
(0.00369641 0.000760428 -0.0797198)
(0.0037013 0.00077439 -0.0742143)
(0.00369646 0.00079118 -0.0680929)
(0.003676 0.000812064 -0.06135)
(0.00363625 0.000840695 -0.0539937)
(0.00383362 0.000252083 -0.115725)
(0.0038368 0.000254267 -0.109315)
(0.00383832 0.000256954 -0.102317)
(0.00383672 0.000260262 -0.0947499)
(0.00382973 0.000264365 -0.0866503)
(0.00381396 0.000269552 -0.0780721)
(0.00378435 0.000276304 -0.0690848)
(0.00373771 0.00028586 -0.0597686)
(0.00383366 -0.000252089 -0.115725)
(0.00383684 -0.000254266 -0.109315)
(0.00383836 -0.000256951 -0.102317)
(0.00383676 -0.000260273 -0.0947507)
(0.00382976 -0.000264407 -0.086651)
(0.00381399 -0.00026962 -0.0780725)
(0.00378437 -0.000276375 -0.0690847)
(0.00373772 -0.000285893 -0.0597682)
(0.0036568 -0.000729763 -0.0927937)
(0.00367201 -0.000738469 -0.0889745)
(0.00368582 -0.000748609 -0.0846303)
(0.00369651 -0.000760471 -0.0797212)
(0.00370138 -0.000774461 -0.0742154)
(0.00369652 -0.000791275 -0.0680932)
(0.00367606 -0.000812154 -0.0613494)
(0.0036363 -0.000840738 -0.0539924)
(0.00337525 -0.00114931 -0.0630349)
(0.00340494 -0.00116778 -0.0619696)
(0.00343396 -0.00118845 -0.0605454)
(0.00346031 -0.00121159 -0.0586767)
(0.00348074 -0.00123759 -0.0562688)
(0.00349057 -0.00126728 -0.0532218)
(0.00348256 -0.00130229 -0.049435)
(0.00345213 -0.00134869 -0.0448088)
(0.00306144 -0.00151343 -0.0393557)
(0.00310102 -0.00154159 -0.0397638)
(0.00314099 -0.00157245 -0.0400126)
(0.00317925 -0.00160612 -0.0400179)
(0.00321222 -0.00164271 -0.0396731)
(0.00323453 -0.00168281 -0.0388477)
(0.00323724 -0.00172784 -0.0373859)
(0.00321445 -0.00178652 -0.035104)
(0.0027456 -0.00183645 -0.0242236)
(0.00279053 -0.00187105 -0.0250721)
(0.00283711 -0.00190845 -0.0259048)
(0.00288346 -0.00194846 -0.0266655)
(0.00292603 -0.00199068 -0.0272728)
(0.0029592 -0.00203507 -0.0276128)
(0.00297251 -0.00208204 -0.0275271)
(0.00295898 -0.00214323 -0.0267959)
(0.00242176 -0.00212127 -0.0152489)
(0.0024703 -0.00215853 -0.0161223)
(0.00252197 -0.0021982 -0.0170568)
(0.00257543 -0.00223964 -0.0180266)
(0.00262776 -0.00228149 -0.018987)
(0.00267387 -0.00232205 -0.0198633)
(0.00270302 -0.00235876 -0.0205301)
(0.00270157 -0.00239736 -0.0207529)
(0.000853499 0.000747628 -0.015465)
(0.000871194 0.000761347 -0.0164593)
(0.000890089 0.000776016 -0.0175343)
(0.000909728 0.000791423 -0.0186664)
(0.000929084 0.000807099 -0.0198124)
(0.000946345 0.000822436 -0.0208974)
(0.000957766 0.000836563 -0.0217914)
(0.00095847 0.000851467 -0.0222443)
(0.000968362 0.000647776 -0.0245547)
(0.000984823 0.000660554 -0.0255317)
(0.00100197 0.000674419 -0.0265131)
(0.00101913 0.000689296 -0.0274452)
(0.00103503 0.00070504 -0.0282487)
(0.00104768 0.00072162 -0.028811)
(0.00105342 0.000739211 -0.0289741)
(0.00104956 0.000761662 -0.0285151)
(0.00108042 0.000534179 -0.0398887)
(0.00109506 0.000544609 -0.0404297)
(0.00110994 0.000556075 -0.0408319)
(0.00112432 0.000568609 -0.0410138)
(0.00113692 0.000582249 -0.0408718)
(0.00114581 0.000597192 -0.0402784)
(0.00114784 0.000613939 -0.039081)
(0.00114068 0.000635367 -0.0370996)
(0.00119139 0.000405738 -0.0638807)
(0.00120265 0.000412651 -0.0629392)
(0.00121377 0.000420401 -0.0616584)
(0.00122406 0.00042908 -0.0599562)
(0.00123235 0.000438824 -0.057742)
(0.00123693 0.000449915 -0.0549203)
(0.00123521 0.000462922 -0.0513963)
(0.00122531 0.000479867 -0.0470786)
(0.0012904 0.000257555 -0.0940216)
(0.0012967 0.000260903 -0.0902998)
(0.00130262 0.000264793 -0.0860716)
(0.00130755 0.000269323 -0.0813018)
(0.0013105 0.000274632 -0.0759636)
(0.00131003 0.000280964 -0.0700438)
(0.00130399 0.000288754 -0.0635453)
(0.00129084 0.000299227 -0.0564883)
(0.00135228 8.8935e-05 -0.11724)
(0.00135448 8.98079e-05 -0.110901)
(0.00135621 9.08714e-05 -0.103992)
(0.00135694 9.21649e-05 -0.0965385)
(0.00135583 9.37493e-05 -0.0885814)
(0.00135161 9.57227e-05 -0.0801829)
(0.00134242 9.82527e-05 -0.0714224)
(0.00132688 0.000101758 -0.0623942)
(0.0013523 -8.89375e-05 -0.11724)
(0.0013545 -8.98077e-05 -0.110901)
(0.00135624 -9.08698e-05 -0.103993)
(0.00135696 -9.21698e-05 -0.0965394)
(0.00135585 -9.37674e-05 -0.0885822)
(0.00135162 -9.5753e-05 -0.0801833)
(0.00134243 -9.82839e-05 -0.0714224)
(0.00132688 -0.000101772 -0.0623938)
(0.00129045 -0.000257568 -0.0940218)
(0.00129675 -0.000260914 -0.0903004)
(0.00130268 -0.000264805 -0.0860729)
(0.00130761 -0.000269342 -0.0813033)
(0.00131055 -0.000274665 -0.0759648)
(0.00131007 -0.000281007 -0.0700442)
(0.00130402 -0.000288794 -0.0635447)
(0.00129086 -0.000299246 -0.0564869)
(0.00119147 -0.000405767 -0.0638809)
(0.00120273 -0.000412681 -0.0629398)
(0.00121386 -0.000420433 -0.0616594)
(0.00122414 -0.00042912 -0.0599573)
(0.00123242 -0.000438875 -0.0577424)
(0.00123699 -0.000449973 -0.0549198)
(0.00123527 -0.000462975 -0.0513949)
(0.00122536 -0.000479894 -0.0470765)
(0.0010805 -0.000534217 -0.0398889)
(0.00109514 -0.000544644 -0.0404301)
(0.00111003 -0.000556109 -0.0408324)
(0.0011244 -0.000568648 -0.0410142)
(0.001137 -0.000582299 -0.0408718)
(0.00114588 -0.000597252 -0.0402777)
(0.00114792 -0.000613999 -0.0390797)
(0.00114075 -0.000635406 -0.037098)
(0.000968424 -0.000647815 -0.0245548)
(0.00098489 -0.000660585 -0.025532)
(0.00100204 -0.000674441 -0.0265134)
(0.0010192 -0.000689316 -0.0274454)
(0.00103511 -0.000705068 -0.0282487)
(0.00104777 -0.000721667 -0.0288108)
(0.00105354 -0.000739274 -0.0289736)
(0.00104969 -0.000761727 -0.0285146)
(0.000853667 -0.000747776 -0.0154651)
(0.000871379 -0.000761508 -0.0164594)
(0.000890296 -0.000776197 -0.0175344)
(0.000909937 -0.000791612 -0.0186666)
(0.000929274 -0.00080728 -0.0198126)
(0.000946508 -0.000822596 -0.0208975)
(0.000957914 -0.000836697 -0.0217915)
(0.000958614 -0.000851578 -0.0222445)
(0.000152767 0.000133824 -0.0155377)
(0.000156265 0.000136585 -0.0165729)
(0.000160033 0.00013957 -0.0176955)
(0.000163986 0.000142738 -0.0188826)
(0.000167942 0.000146007 -0.0200914)
(0.000171568 0.000149265 -0.0212471)
(0.00017421 0.000152366 -0.0222182)
(0.000174956 0.000155641 -0.0227494)
(0.00017364 0.000116181 -0.0246655)
(0.000176937 0.000118761 -0.025686)
(0.000180414 0.000121587 -0.0267177)
(0.000183941 0.000124641 -0.0277077)
(0.00018729 0.000127898 -0.0285776)
(0.00019009 0.000131343 -0.0292153)
(0.0001917 0.000135009 -0.0294628)