/*--------------------------------*- C++ -*----------------------------------*\
| =========                 |                                                 |
| \\      /  F ield         | foam-extend: Open Source CFD                    |
|  \\    /   O peration     | Version:  3.0                                   |
|   \\  /    A nd           | Web:         http://www.extend-project.de       |
|    \\/     M anipulation  |                                                 |
\*---------------------------------------------------------------------------*/
FoamFile
{
    version     2.0;
    format      ascii;
    class       volVectorField;
    location    "80";
    object      s;
}
// * * * * * * * * * * * * * * * * * * * * * * * * * * * * * * * * * * * * * //

dimensions      [0 1 -1 0 0 0 0];

internalField   nonuniform List<vector> 
80
(
(0.971554 0.151388 0)
(0.66559 0.106777 0)
(0.494586 0.0805192 0)
(0.40192 0.0662876 0)
(0.86528 0.452131 0)
(0.59925 0.303653 0)
(0.446005 0.228439 0)
(0.356428 0.176711 0)
(0.690136 0.696839 0)
(0.472334 0.470042 0)
(0.352494 0.349079 0)
(0.286544 0.281455 0)
(0.444361 0.872359 0)
(0.303005 0.591223 0)
(0.225028 0.439723 0)
(0.182069 0.354975 0)
(0.153902 0.965029 0)
(0.10491 0.654249 0)
(0.0780299 0.486443 0)
(0.0630669 0.393781 0)
(-0.15146 0.964206 0)
(-0.102573 0.653894 0)
(-0.0764514 0.486181 0)
(-0.061945 0.393434 0)
(-0.441833 0.869478 0)
(-0.299598 0.589661 0)
(-0.222848 0.438455 0)
(-0.180483 0.354906 0)
(-0.688775 0.689913 0)
(-0.467139 0.467918 0)
(-0.34743 0.347909 0)
(-0.281275 0.281587 0)
(-0.868142 0.442977 0)
(-0.588821 0.30046 0)
(-0.437898 0.223411 0)
(-0.354515 0.180823 0)
(-0.962435 0.1528 0)
(-0.652811 0.10365 0)
(-0.485481 0.0770593 0)
(-0.393021 0.0623585 0)
(-0.962447 -0.152246 0)
(-0.652842 -0.103263 0)
(-0.485511 -0.0768049 0)
(-0.393051 -0.0621916 0)
(-0.868204 -0.442336 0)
(-0.588927 -0.300041 0)
(-0.437987 -0.223137 0)
(-0.354578 -0.180646 0)
(-0.688928 -0.689096 0)
(-0.467319 -0.467419 0)
(-0.347557 -0.347615 0)
(-0.281384 -0.281419 0)
(-0.44215 -0.868395 0)
(-0.299924 -0.58903 0)
(-0.223102 -0.438043 0)
(-0.180629 -0.354615 0)
(-0.152006 -0.962698 0)
(-0.103108 -0.65293 0)
(-0.0767391 -0.485575 0)
(-0.0621713 -0.393144 0)
(0.153171 -0.962794 0)
(0.103913 -0.652931 0)
(0.0770528 -0.48561 0)
(0.0623397 -0.393099 0)
(0.443536 -0.868813 0)
(0.300852 -0.588852 0)
(0.223551 -0.437909 0)
(0.180978 -0.354696 0)
(0.690864 -0.690215 0)
(0.468938 -0.467145 0)
(0.348048 -0.347831 0)
(0.281518 -0.281143 0)
(0.871669 -0.444997 0)
(0.591318 -0.299343 0)
(0.439315 -0.222171 0)
(0.356004 -0.179273 0)
(0.969676 -0.162809 0)
(0.65851 -0.101322 0)
(0.490343 -0.0771433 0)
(0.39639 -0.056959 0)
)
;

boundaryField
{
    up
    {
        type            myHeatFlux;
        alpha           uniform 1;
        Theta_wall      uniform 1;
        value           nonuniform List<vector> 
20
(
(0.371572 0.0611594 0)
(0.30166 0.149562 3.7335e-17)
(0.260513 0.256092 0)
(0.165683 0.323156 -4.02705e-17)
(0.0574333 0.358891 0)
(-0.056498 0.358681 0)
(-0.164565 0.323561 4.02542e-17)
(-0.256454 0.256718 0)
(-0.323224 0.164851 -4.02354e-17)
(-0.358329 0.0568473 0)
(-0.358357 -0.0567059 0)
(-0.323281 -0.164703 4.02335e-17)
(-0.256549 -0.256578 0)
(-0.16469 -0.323315 -4.02362e-17)
(-0.0566887 -0.358435 0)
(0.0568309 -0.358395 0)
(0.164947 -0.323311 4.02488e-17)
(0.256469 -0.256154 0)
(0.323025 -0.162795 -4.01121e-17)
(0.361455 -0.0523126 0)
)
;
    }
    hole
    {
        type            myHeatFlux;
        alpha           uniform 1;
        Theta_wall      uniform 4;
        value           nonuniform List<vector> 
20
(
(1.48156 0.232875 -0)
(1.21928 0.630607 0)
(1.02507 1.03024 0)
(0.660013 1.29522 -0)
(0.228464 1.43664 -0)
(-0.226462 1.43647 -0)
(-0.659122 1.29554 -0)
(-1.02698 1.02793 -0)
(-1.29409 0.659901 -0)
(-1.43444 0.227497 -0)
(-1.43436 -0.227022 -0)
(-1.2939 -0.659245 -0)
(-1.02679 -1.02693 0)
(-0.659127 -1.29413 0)
(-0.226843 -1.43469 0)
(0.227815 -1.4348 0)
(0.660131 -1.29418 0)
(1.02768 -1.02713 0)
(1.28884 -0.657358 -0)
(1.44352 -0.236148 -0)
)
;
    }
    frontAndBack
    {
        type            empty;
    }
}


// ************************************************************************* //
