/*--------------------------------*- C++ -*----------------------------------*\
| =========                 |                                                 |
| \\      /  F ield         | foam-extend: Open Source CFD                    |
|  \\    /   O peration     | Version:  3.0                                   |
|   \\  /    A nd           | Web:         http://www.extend-project.de       |
|    \\/     M anipulation  |                                                 |
\*---------------------------------------------------------------------------*/
FoamFile
{
    version     2.0;
    format      ascii;
    class       volVectorField;
    location    "6";
    object      u;
}
// * * * * * * * * * * * * * * * * * * * * * * * * * * * * * * * * * * * * * //

dimensions      [0 0 0 0 0 0 0];

internalField   nonuniform List<vector> 
576
(
(0.0575149 -0.0236045 -1.05319e-20)
(0.156005 -0.0214695 -7.2312e-20)
(0.228131 -0.0386192 -4.92464e-19)
(0.347298 -0.0373521 -2.57352e-19)
(0.491022 -0.0382216 4.98669e-19)
(0.540122 -0.0397926 3.99441e-19)
(0.678607 -0.0353576 5.36989e-19)
(0.736583 -0.0334006 9.63168e-19)
(0.826834 -0.0278539 4.48789e-19)
(0.886938 -0.0220869 3.60364e-19)
(0.942949 -0.0144832 5.67026e-19)
(0.987014 -0.00539147 -3.21994e-19)
(0.0698028 -0.0691752 4.39766e-20)
(0.167426 -0.0642433 -2.46696e-18)
(0.248455 -0.114539 -2.04492e-18)
(0.367189 -0.11142 -5.1885e-19)
(0.511496 -0.114464 1.04458e-18)
(0.561384 -0.119182 -4.45401e-20)
(0.697571 -0.106346 5.73696e-19)
(0.754547 -0.10057 5.95569e-18)
(0.841865 -0.0840579 4.68179e-18)
(0.898909 -0.06676 -3.44487e-19)
(0.950828 -0.0438846 -3.98121e-18)
(0.989951 -0.0164044 -3.55313e-18)
(0.0934695 -0.109937 -8.60049e-20)
(0.189584 -0.102416 9.82213e-19)
(0.287776 -0.182568 -7.25293e-19)
(0.405517 -0.177805 -3.69709e-18)
(0.550989 -0.182833 -1.81713e-18)
(0.602512 -0.190416 4.39119e-18)
(0.734325 -0.169984 5.94483e-18)
(0.789316 -0.16076 3.24621e-18)
(0.870911 -0.134394 8.32348e-18)
(0.921966 -0.106758 2.82542e-18)
(0.965957 -0.0701889 2.55951e-18)
(0.995595 -0.026251 7.8134e-18)
(0.126785 -0.14333 -2.20095e-19)
(0.220834 -0.133713 4.60272e-19)
(0.343366 -0.238186 -1.86495e-18)
(0.459727 -0.232019 2.33177e-18)
(0.606812 -0.238627 -5.34013e-18)
(0.660638 -0.24855 -2.04631e-18)
(0.786251 -0.22197 6.38847e-19)
(0.838451 -0.209939 7.18812e-18)
(0.911997 -0.175534 6.49476e-18)
(0.954604 -0.139428 8.22884e-18)
(0.987396 -0.0916545 8.35077e-18)
(1.00361 -0.0342697 1.72971e-17)
(0.167625 -0.166905 -2.21679e-19)
(0.259077 -0.155718 -5.47487e-19)
(0.411399 -0.277411 -3.20577e-19)
(0.526068 -0.27031 8.02893e-19)
(0.675132 -0.278063 2.31179e-18)
(0.731828 -0.289643 -6.86304e-18)
(0.849857 -0.258711 -5.12948e-18)
(0.898616 -0.244686 -1.30347e-17)
(0.962296 -0.204602 -1.22583e-17)
(0.994545 -0.162518 -2.67156e-18)
(1.01364 -0.106834 -6.29414e-18)
(1.01342 -0.0399485 -1.75139e-17)
(0.213164 -0.179149 2.61524e-19)
(0.301729 -0.167153 1.26869e-18)
(0.487303 -0.297748 4.65255e-19)
(0.600102 -0.290156 -2.76253e-18)
(0.751339 -0.298488 -2.84819e-19)
(0.811232 -0.310915 -2.40989e-18)
(0.920808 -0.277751 -4.85507e-18)
(0.965729 -0.262688 -9.41248e-19)
(1.01842 -0.219668 -7.87938e-18)
(1.03911 -0.174482 -1.13403e-17)
(1.04292 -0.114697 3.11216e-19)
(1.02438 -0.0428915 -6.71587e-18)
(0.260315 -0.179167 2.72609e-19)
(0.345869 -0.167133 1.00923e-18)
(0.565855 -0.297707 5.56866e-18)
(0.676734 -0.290138 9.26267e-19)
(0.830208 -0.298476 1.81553e-19)
(0.893419 -0.310889 -1.33441e-18)
(0.994251 -0.277755 5.16021e-19)
(1.0352 -0.262682 2.39254e-18)
(1.0765 -0.219673 1.71136e-19)
(1.08524 -0.174486 2.46616e-18)
(1.07324 -0.114702 -2.77345e-19)
(1.03571 -0.0428974 -3.99377e-18)
(0.305867 -0.166976 1.90494e-19)
(0.388513 -0.155706 9.46535e-19)
(0.641726 -0.27734 3.54285e-18)
(0.750764 -0.270287 -2.02657e-18)
(0.906383 -0.27805 5.40464e-18)
(0.97279 -0.289587 -3.70482e-18)
(1.06518 -0.258742 -3.28513e-18)
(1.10228 -0.244688 -6.54249e-19)
(1.1326 -0.204633 -8.17229e-18)
(1.12979 -0.16254 3.46461e-18)
(1.10252 -0.106851 2.69304e-18)
(1.04666 -0.0399644 7.73476e-18)
(0.346718 -0.143399 3.37369e-19)
(0.426756 -0.133635 6.59893e-19)
(0.709739 -0.238026 -1.97665e-18)
(0.817136 -0.23195 2.51016e-18)
(0.97467 -0.2386 -2.91861e-18)
(1.04393 -0.248465 5.34892e-18)
(1.12876 -0.22201 -1.97696e-18)
(1.16241 -0.209934 -1.21895e-17)
(1.18289 -0.175572 -1.09898e-17)
(1.16972 -0.139457 -4.96482e-18)
(1.12876 -0.0916809 -8.63741e-18)
(1.05647 -0.0342927 8.77632e-18)
(0.380078 -0.110043 6.21381e-19)
(0.457994 -0.102418 1.28767e-18)
(0.765266 -0.182446 2.68269e-20)
(0.871329 -0.177738 2.95628e-18)
(1.03042 -0.182816 1.08433e-19)
(1.10201 -0.190327 4.10124e-18)
(1.18067 -0.170067 5.80705e-18)
(1.21149 -0.160794 -2.34437e-18)
(1.22393 -0.134479 2.02761e-18)
(1.20231 -0.106817 4.76926e-18)
(1.15018 -0.0702279 2.54504e-18)
(1.06449 -0.0262701 -3.98586e-18)
(0.40367 -0.0691793 1.05272e-19)
(0.480094 -0.0641736 -4.36337e-20)
(0.804522 -0.114383 1.18105e-18)
(0.909649 -0.111342 -1.80061e-18)
(1.06984 -0.114494 1.71653e-18)
(1.14306 -0.119133 7.2337e-20)
(1.21737 -0.106451 -1.66373e-19)
(1.24619 -0.100618 5.74635e-18)
(1.25294 -0.0841537 5.80133e-18)
(1.22535 -0.0668455 8.2722e-18)
(1.16532 -0.0439559 1.19784e-17)
(1.07015 -0.0164443 -1.16613e-18)
(0.41588 -0.0235959 -8.19995e-20)
(0.491544 -0.0215049 -1.37665e-18)
(0.824827 -0.0384722 -8.10538e-19)
(0.929479 -0.0372823 1.46847e-18)
(1.09024 -0.0382882 -8.98992e-19)
(1.16429 -0.0397316 1.33597e-19)
(1.23636 -0.0354954 -8.36081e-19)
(1.26413 -0.0335046 1.35395e-18)
(1.26795 -0.0280259 5.06341e-19)
(1.23726 -0.0222664 1.09764e-18)
(1.17315 -0.0146553 1.37944e-18)
(1.07308 -0.00548533 2.13744e-18)
(0.415871 0.023598 -4.75142e-20)
(0.491558 0.0226807 1.14017e-18)
(0.824793 0.0401145 1.24794e-18)
(0.929466 0.0393942 1.82262e-18)
(1.09023 0.040612 1.2931e-18)
(1.16425 0.0424685 2.2894e-19)
(1.23634 0.0379673 1.36373e-18)
(1.26409 0.0359748 -2.61274e-18)
(1.26792 0.0300812 -3.40625e-18)
(1.23724 0.0238834 -3.86574e-18)
(1.17314 0.0156777 -5.03841e-19)
(1.07308 0.00586006 1.35153e-18)
(0.403644 0.0691828 3.50914e-19)
(0.480129 0.0653698 -1.09376e-18)
(0.80442 0.116021 -4.40919e-20)
(0.909605 0.113462 8.76298e-19)
(1.06979 0.11683 3.0671e-18)
(1.14294 0.121867 4.24341e-19)
(1.21731 0.108932 -3.67289e-18)
(1.24608 0.103087 -2.70772e-18)
(1.25286 0.0862089 -5.19887e-18)
(1.22528 0.0684601 -4.04037e-18)
(1.16528 0.0449767 5.18864e-19)
(1.07014 0.016819 -3.6011e-18)
(0.38003 0.110049 -4.07788e-20)
(0.458036 0.10365 -2.3805e-18)
(0.765092 0.184073 -5.54755e-19)
(0.871248 0.179871 -4.04411e-18)
(1.03033 0.185169 4.70001e-19)
(1.10181 0.193052 -2.98622e-19)
(1.18057 0.172562 2.28202e-18)
(1.21132 0.163258 1.3081e-18)
(1.2238 0.136533 2.89947e-18)
(1.2022 0.108427 2.98116e-18)
(1.15011 0.0712458 -9.27476e-19)
(1.06447 0.0266448 -8.31294e-18)
(0.346642 0.14341 -6.04025e-19)
(0.426783 0.13491 1.31051e-18)
(0.709487 0.23963 -2.11747e-18)
(0.817006 0.234094 -3.9573e-19)
(0.974515 0.240972 -4.65411e-18)
(1.04365 0.251171 4.62514e-18)
(1.12861 0.224521 7.65196e-18)
(1.16218 0.212388 6.52479e-18)
(1.1827 0.177624 1.43724e-17)
(1.16956 0.14106 1.11105e-17)
(1.12866 0.0926951 -2.59403e-18)
(1.05645 0.0346683 5.75426e-18)
(0.305755 0.166992 -4.10988e-19)
(0.3885 0.157016 -1.3877e-18)
(0.641396 0.278906 -4.12409e-18)
(0.750577 0.272434 3.13283e-18)
(0.906163 0.280433 -6.48688e-19)
(0.972438 0.292263 2.10357e-18)
(1.06498 0.261266 2.20777e-18)
(1.10199 0.247128 3.63967e-18)
(1.13237 0.206681 8.01938e-18)
(1.12959 0.164135 5.69621e-18)
(1.10239 0.107863 5.42621e-18)
(1.04663 0.0403429 1.79567e-17)
(0.260157 0.179186 -5.64822e-19)
(0.345797 0.168462 -1.57899e-18)
(0.565457 0.299221 -1.99368e-18)
(0.676486 0.292277 -1.79753e-18)
(0.829926 0.300862 5.32237e-19)
(0.893013 0.313526 -2.07506e-18)
(0.994001 0.280292 -4.67706e-18)
(1.03487 0.265109 -1.0093e-17)
(1.07624 0.221723 3.19405e-18)
(1.08501 0.176081 -4.17453e-18)
(1.0731 0.115717 -9.64895e-19)
(1.03567 0.043282 -6.35016e-18)
(0.212956 0.179163 -1.16362e-19)
(0.301586 0.168465 -1.61787e-19)
(0.486848 0.299191 -7.09449e-19)
(0.599784 0.292268 -5.05967e-19)
(0.750999 0.300864 -2.46781e-18)
(0.810792 0.313509 -8.03021e-19)
(0.920521 0.280303 -4.96035e-18)
(0.965378 0.265106 1.26031e-17)
(1.01813 0.221727 1.11384e-17)
(1.03886 0.176083 -7.00229e-18)
(1.04277 0.115721 2.11861e-18)
(1.02433 0.0432854 -4.3738e-18)
(0.167371 0.166925 -3.60017e-19)
(0.25888 0.157025 -2.67663e-19)
(0.410924 0.278816 4.3111e-18)
(0.525697 0.272408 -2.32904e-18)
(0.674761 0.28044 1.28613e-18)
(0.731378 0.292214 -4.1492e-18)
(0.849543 0.261296 3.60074e-18)
(0.898258 0.24712 1.05516e-17)
(0.961996 0.20669 -2.46535e-18)
(0.994283 0.164141 -6.10033e-18)
(1.01347 0.107875 -8.28525e-18)
(1.01337 0.0403531 -1.50575e-17)
(0.126507 0.143305 -2.32345e-19)
(0.220591 0.134922 1.51555e-18)
(0.342861 0.239486 -3.44943e-19)
(0.459276 0.234051 -1.05704e-18)
(0.606407 0.240982 4.12163e-19)
(0.660182 0.251092 -5.79745e-18)
(0.785904 0.224568 1.04705e-18)
(0.838081 0.212375 2.22357e-19)
(0.91167 0.177639 -1.179e-17)
(0.954317 0.141069 -8.34796e-18)
(0.987204 0.0927141 -1.15544e-17)
(1.00355 0.0346851 -2.12997e-18)
(0.0931489 0.109914 1.88192e-19)
(0.189327 0.103662 7.09651e-20)
(0.287298 0.183881 -6.63919e-19)
(0.405046 0.179811 1.52093e-18)
(0.550596 0.185177 -3.85507e-18)
(0.602056 0.192945 2.68702e-18)
(0.73394 0.172622 -2.65181e-18)
(0.788948 0.16324 -1.16087e-17)
(0.870578 0.136553 -9.19515e-18)
(0.921684 0.10844 -1.27681e-17)
(0.965756 0.0712719 -5.90331e-18)
(0.995529 0.0266676 1.3457e-17)
(0.0695707 0.0690279 7.46865e-19)
(0.16722 0.0653769 2.01432e-18)
(0.24802 0.115791 1.00638e-18)
(0.366703 0.113384 -1.10339e-18)
(0.511131 0.116831 1.59534e-18)
(0.560961 0.121737 -4.84535e-19)
(0.697192 0.108997 -4.58448e-19)
(0.754207 0.103064 -2.28591e-18)
(0.84152 0.0862332 -2.20417e-19)
(0.898609 0.0684775 -1.89359e-18)
(0.950589 0.0450098 -2.9497e-18)
(0.989855 0.0168471 -5.51099e-18)
(0.0573786 0.0234329 1.46069e-19)
(0.155776 0.0226752 2.64923e-19)
(0.227704 0.0398566 2.17853e-19)
(0.34686 0.0392978 -6.16317e-19)
(0.4907 0.0406004 -1.03883e-18)
(0.539696 0.0423201 4.24479e-20)
(0.678163 0.0380308 -7.2608e-19)
(0.736224 0.035948 -5.41315e-19)
(0.826477 0.0301083 -1.22333e-18)
(0.886663 0.0239054 8.42147e-19)
(0.942735 0.0157177 -1.2402e-18)
(0.986916 0.005893 -1.65836e-18)
(0.0574033 -0.0237632 1.00478e-20)
(0.155775 -0.0215322 7.39862e-20)
(0.227734 -0.0387473 4.93189e-19)
(0.346868 -0.0373976 2.57361e-19)
(0.490696 -0.0383185 -4.9917e-19)
(0.539711 -0.0398923 -3.99397e-19)
(0.67815 -0.0354404 -5.363e-19)
(0.736225 -0.0335336 -9.62438e-19)
(0.826472 -0.0279964 -4.48096e-19)
(0.88666 -0.0222386 -3.59946e-19)
(0.942731 -0.0146083 -5.66498e-19)
(0.986912 -0.00544823 3.22074e-19)
(0.0696428 -0.0693439 -4.46796e-20)
(0.167215 -0.0642321 2.46967e-18)
(0.248107 -0.114663 2.04642e-18)
(0.366726 -0.111476 5.20821e-19)
(0.511117 -0.114547 -1.04212e-18)
(0.561002 -0.119298 4.6541e-20)
(0.697153 -0.10641 -5.73935e-19)
(0.754208 -0.100646 -5.95603e-18)
(0.841505 -0.084121 -4.68007e-18)
(0.898599 -0.0668101 3.47712e-19)
(0.950575 -0.0439013 3.98268e-18)
(0.989843 -0.0164037 3.55255e-18)
(0.0932625 -0.110203 8.51693e-20)
(0.189318 -0.102514 -9.82343e-19)
(0.287435 -0.182717 7.24606e-19)
(0.40508 -0.177887 3.697e-18)
(0.550571 -0.182891 1.81592e-18)
(0.602119 -0.190484 -4.39213e-18)
(0.733876 -0.17004 -5.94393e-18)
(0.788947 -0.160815 -3.24495e-18)
(0.87055 -0.134441 -8.32116e-18)
(0.921666 -0.106772 -2.82235e-18)
(0.965732 -0.0701654 -2.55789e-18)
(0.99551 -0.0262268 -7.81223e-18)
(0.126652 -0.143555 2.19692e-19)
(0.220575 -0.13377 -4.59909e-19)
(0.343035 -0.238271 1.86409e-18)
(0.459315 -0.232107 -2.33281e-18)
(0.606368 -0.238693 5.33991e-18)
(0.660258 -0.248601 2.04738e-18)
(0.785814 -0.221996 -6.3917e-19)
(0.838074 -0.209941 -7.18878e-18)
(0.911629 -0.175527 -6.49444e-18)
(0.95429 -0.1394 -8.22925e-18)
(0.98717 -0.0916107 -8.35035e-18)
(1.00353 -0.0342483 -1.72961e-17)
(0.167536 -0.167127 2.21335e-19)
(0.258855 -0.155868 5.4745e-19)
(0.411117 -0.27754 3.20083e-19)
(0.525733 -0.27044 -8.02618e-19)
(0.674704 -0.278149 -2.31107e-18)
(0.731456 -0.289688 6.86373e-18)
(0.849428 -0.258737 5.12931e-18)
(0.898239 -0.244676 1.30343e-17)
(0.96194 -0.20458 1.2256e-17)
(0.994245 -0.162472 2.66726e-18)
(1.01343 -0.106776 6.29127e-18)
(1.01334 -0.0399216 1.75118e-17)
(0.213128 -0.179313 -2.61882e-19)
(0.301549 -0.167305 -1.26935e-18)
(0.487042 -0.297847 -4.6527e-19)
(0.599807 -0.290274 2.76254e-18)
(0.750921 -0.298571 2.84621e-19)
(0.810859 -0.310945 2.40977e-18)
(0.920381 -0.277759 4.85323e-18)
(0.965343 -0.262655 9.40532e-19)
(1.01805 -0.219621 7.88015e-18)
(1.03881 -0.174416 1.13392e-17)
(1.04271 -0.114629 -3.12823e-19)
(1.0243 -0.0428603 6.71518e-18)
(0.260318 -0.179283 -2.72781e-19)
(0.345746 -0.167299 -1.00974e-18)
(0.565633 -0.29781 -5.56935e-18)
(0.676487 -0.290258 -9.26823e-19)
(0.829825 -0.29857 -1.81605e-19)
(0.893056 -0.310926 1.33392e-18)
(0.993837 -0.277768 -5.16525e-19)
(1.03481 -0.262651 -2.39221e-18)
(1.07615 -0.219624 -1.72451e-19)
(1.08494 -0.174419 -2.46705e-18)
(1.07303 -0.114633 2.77062e-19)
(1.03564 -0.0428642 3.99379e-18)
(0.305892 -0.167039 -1.90569e-19)
(0.388434 -0.155854 -9.46924e-19)
(0.641534 -0.277431 -3.543e-18)
(0.750549 -0.270395 2.02669e-18)
(0.906037 -0.278145 -5.40462e-18)
(0.972444 -0.289631 3.70428e-18)
(1.06479 -0.258764 3.2845e-18)
(1.10191 -0.244667 6.53173e-19)
(1.13226 -0.204591 8.17073e-18)
(1.12951 -0.16248 -3.4654e-18)
(1.10232 -0.10679 -2.69322e-18)
(1.04659 -0.0399332 -7.73448e-18)
(0.346742 -0.143415 -3.37539e-19)
(0.426704 -0.133749 -6.60361e-19)
(0.709573 -0.238101 1.97656e-18)
(0.816944 -0.232038 -2.5109e-18)
(0.974363 -0.238689 2.91808e-18)
(1.04361 -0.248513 -5.34907e-18)
(1.1284 -0.222041 1.97597e-18)
(1.16206 -0.209929 1.21883e-17)
(1.18257 -0.175547 1.09895e-17)
(1.16946 -0.139413 4.9646e-18)
(1.12858 -0.0916333 8.63755e-18)
(1.05641 -0.034267 -8.77628e-18)
(0.380084 -0.110024 -6.21462e-19)
(0.457946 -0.102493 -1.28764e-18)
(0.765113 -0.182501 -2.6562e-20)
(0.871148 -0.177804 -2.95624e-18)
(1.03015 -0.182893 -1.08238e-19)
(1.10172 -0.190375 -4.10161e-18)
(1.18035 -0.170103 -5.80675e-18)
(1.21118 -0.160803 2.34461e-18)
(1.22364 -0.13447 -2.02782e-18)
(1.20208 -0.106791 -4.76945e-18)
(1.15002 -0.0701962 -2.54518e-18)
(1.06443 -0.0262516 3.98537e-18)
(0.403647 -0.0691397 -1.05421e-19)
(0.480034 -0.0642156 4.35372e-20)
(0.804371 -0.11442 -1.18084e-18)
(0.909468 -0.111387 1.8008e-18)
(1.06959 -0.114558 -1.7167e-18)
(1.14279 -0.119179 -7.22245e-20)
(1.21707 -0.10649 1.66654e-19)
(1.2459 -0.100639 -5.74594e-18)
(1.25269 -0.0841599 -5.80125e-18)
(1.22515 -0.0668371 -8.27201e-18)
(1.16518 -0.0439394 -1.19785e-17)
(1.07011 -0.0164333 1.16626e-18)
(0.415825 -0.0235504 8.19959e-20)
(0.491462 -0.0215272 1.37665e-18)
(0.824673 -0.038498 8.10783e-19)
(0.929295 -0.0373145 -1.46796e-18)
(1.09001 -0.038343 8.9909e-19)
(1.16404 -0.0397768 -1.3354e-19)
(1.23609 -0.0355366 8.36304e-19)
(1.26387 -0.0335354 -1.35365e-18)
(1.26772 -0.0280457 -5.05893e-19)
(1.23708 -0.0222732 -1.09724e-18)
(1.17303 -0.0146522 -1.37899e-18)
(1.07304 -0.0054813 -2.13726e-18)
(0.415789 0.0236376 4.75415e-20)
(0.491455 0.0226628 -1.1398e-18)
(0.824638 0.0400911 -1.24745e-18)
(0.929279 0.0393663 -1.82185e-18)
(1.09 0.0405598 -1.29262e-18)
(1.16402 0.0424217 -2.28673e-19)
(1.2361 0.0379235 -1.36336e-18)
(1.26387 0.0359354 2.61283e-18)
(1.26772 0.0300498 3.40595e-18)
(1.23708 0.0238639 3.86553e-18)
(1.17303 0.01567 5.03868e-19)
(1.07305 0.00585791 -1.35143e-18)
(0.403541 0.0692089 -3.50812e-19)
(0.480013 0.0653425 1.09325e-18)
(0.804271 0.115993 4.40306e-20)
(0.909425 0.113431 -8.75783e-19)
(1.06959 0.116775 -3.06581e-18)
(1.14274 0.121817 -4.23768e-19)
(1.2171 0.108886 3.6731e-18)
(1.24589 0.103041 2.70784e-18)
(1.25269 0.0861695 5.19797e-18)
(1.22514 0.0684319 4.03909e-18)
(1.16519 0.0449623 -5.1968e-19)
(1.07011 0.016812 3.60087e-18)
(0.379918 0.110059 4.07534e-20)
(0.457919 0.103603 2.37975e-18)
(0.764965 0.184038 5.54403e-19)
(0.871088 0.179835 4.04274e-18)
(1.03015 0.18511 -4.69564e-19)
(1.10165 0.193001 2.99821e-19)
(1.1804 0.172519 -2.28089e-18)
(1.21117 0.163214 -1.30774e-18)
(1.22366 0.136493 -2.89949e-18)
(1.20208 0.108397 -2.98178e-18)
(1.15003 0.0712318 9.26365e-19)
(1.06444 0.0266356 8.31305e-18)
(0.346528 0.143406 6.0385e-19)
(0.42668 0.134836 -1.31023e-18)
(0.709399 0.239592 2.11666e-18)
(0.816885 0.234056 3.94879e-19)
(0.974391 0.240913 4.65238e-18)
(1.04355 0.251128 -4.62429e-18)
(1.12849 0.224489 -7.6496e-18)
(1.16207 0.212357 -6.52246e-18)
(1.18261 0.177597 -1.43693e-17)
(1.16948 0.141043 -1.1108e-17)
(1.1286 0.0926927 2.59415e-18)
(1.05642 0.0346616 -5.75381e-18)
(0.305646 0.166977 4.10789e-19)
(0.388428 0.156913 1.3873e-18)
(0.641364 0.278872 4.12226e-18)
(0.750512 0.272401 -3.13147e-18)
(0.906105 0.280385 6.47628e-19)
(0.972411 0.292241 -2.10373e-18)
(1.06493 0.261261 -2.20726e-18)
(1.10195 0.247127 -3.63916e-18)
(1.13234 0.206688 -8.01576e-18)
(1.12956 0.164151 -5.69215e-18)
(1.10236 0.107888 -5.42377e-18)
(1.0466 0.0403464 -1.79551e-17)
(0.260056 0.179166 5.64646e-19)
(0.34577 0.168327 1.57863e-18)
(0.565494 0.2992 1.99304e-18)
(0.676491 0.292257 1.79688e-18)
(0.829946 0.300836 -5.31663e-19)
(0.893076 0.313541 2.07408e-18)
(0.994033 0.280328 4.67641e-18)
(1.03491 0.265158 1.00895e-17)
(1.07628 0.221785 -3.19422e-18)
(1.08504 0.17615 4.17505e-18)
(1.0731 0.115786 9.66438e-19)
(1.03566 0.0433069 6.35082e-18)
(0.212866 0.179142 1.16238e-19)
(0.301617 0.168303 1.62553e-19)
(0.486961 0.299201 7.10469e-19)
(0.599871 0.292277 5.06069e-19)
(0.751108 0.30088 2.46684e-18)
(0.810955 0.313582 8.03089e-19)
(0.920648 0.280395 4.95882e-18)
(0.965511 0.265223 -1.26017e-17)
(1.01826 0.221861 -1.11331e-17)
(1.03897 0.176224 7.002e-18)
(1.04283 0.115849 -2.11808e-18)
(1.02434 0.0433448 4.37364e-18)
(0.167288 0.166898 3.59733e-19)
(0.258979 0.156837 2.67896e-19)
(0.411109 0.278849 -4.3078e-18)
(0.525859 0.27244 2.32917e-18)
(0.674941 0.280492 -1.28427e-18)
(0.731622 0.292341 4.14773e-18)
(0.849751 0.261439 -3.60033e-18)
(0.898471 0.247299 -1.05476e-17)
(0.962217 0.206892 2.46769e-18)
(0.994471 0.164352 6.10089e-18)
(1.0136 0.108062 8.28547e-18)
(1.01342 0.0404539 1.50546e-17)
(0.126452 0.143282 2.32054e-19)
(0.220758 0.134731 -1.51436e-18)
(0.343106 0.23957 3.45762e-19)
(0.459508 0.234126 1.05724e-18)
(0.606647 0.241083 -4.0989e-19)
(0.660491 0.251274 5.79899e-18)
(0.786179 0.224764 -1.04626e-18)
(0.838354 0.212611 -2.23177e-19)
(0.911955 0.177892 1.17869e-17)
(0.95456 0.141325 8.34606e-18)
(0.987383 0.0929277 1.15527e-17)
(1.00363 0.0348023 2.12909e-18)
(0.0931223 0.109869 -1.87917e-19)
(0.189559 0.103469 -7.01626e-20)
(0.287594 0.183985 6.64377e-19)
(0.40532 0.179913 -1.51799e-18)
(0.550853 0.185301 3.85472e-18)
(0.60238 0.193123 -2.68419e-18)
(0.734229 0.172799 2.65317e-18)
(0.789211 0.163466 1.16065e-17)
(0.870862 0.136793 9.19426e-18)
(0.921914 0.108681 1.2768e-17)
(0.965933 0.0714639 5.90364e-18)
(0.995605 0.0267539 -1.34561e-17)
(0.0696376 0.0690028 -7.45979e-19)
(0.167488 0.0652542 -2.0112e-18)
(0.248368 0.115907 -1.0046e-18)
(0.367027 0.113484 1.10399e-18)
(0.511389 0.116954 -1.59238e-18)
(0.56131 0.121899 4.8658e-19)
(0.697525 0.109166 4.60027e-19)
(0.754496 0.103271 2.28893e-18)
(0.841833 0.0864532 2.23418e-19)
(0.898845 0.0686928 1.89564e-18)
(0.950762 0.0451716 2.95159e-18)
(0.98991 0.0169099 5.51108e-18)
(0.0574735 0.0235227 -1.46095e-19)
(0.155998 0.0225692 -2.65238e-19)
(0.228018 0.0399468 -2.18192e-19)
(0.347245 0.0393942 6.17863e-19)
(0.490945 0.0407912 1.03948e-18)
(0.540061 0.0424929 -4.14921e-20)
(0.678541 0.0381733 7.25654e-19)
(0.736517 0.0361149 5.41073e-19)
(0.82681 0.0302631 1.22224e-18)
(0.886903 0.0240626 -8.43317e-19)
(0.942918 0.0158692 1.23898e-18)
(0.986978 0.00599349 1.65823e-18)
)
;

boundaryField
{
    out
    {
        type            fixedValue;
        value           uniform (1 0 0);
    }
    in
    {
        type            fixedValue;
        value           uniform (0 0 0);
    }
    frontAndBack
    {
        type            empty;
    }
}


// ************************************************************************* //
