/*--------------------------------*- C++ -*----------------------------------*\
| =========                 |                                                 |
| \\      /  F ield         | foam-extend: Open Source CFD                    |
|  \\    /   O peration     | Version:  3.0                                   |
|   \\  /    A nd           | Web:         http://www.extend-project.de       |
|    \\/     M anipulation  |                                                 |
\*---------------------------------------------------------------------------*/
FoamFile
{
    version     2.0;
    format      ascii;
    class       volSymmTensorField;
    location    "19";
    object      sigma;
}
// * * * * * * * * * * * * * * * * * * * * * * * * * * * * * * * * * * * * * //

dimensions      [0 0 0 0 0 0 0];

internalField   nonuniform List<symmTensor> 
2688
(
(-0.1774624302 -0.004866278118 4.27554296e-20 0.1773133888 6.784538927e-22 0.0001490413771)
(-0.1740637739 -0.005737849839 6.397015681e-20 0.1736588572 6.038866071e-21 0.0004049166499)
(-0.1668697897 -0.006123626109 1.145870447e-20 0.166235434 4.962465176e-20 0.0006343557039)
(-0.1577960267 -0.006220292929 -6.123852271e-22 0.1569548496 6.26165621e-20 0.0008411771043)
(-0.1479194368 -0.006144281958 2.151270701e-20 0.1468914539 7.960057289e-20 0.001027982905)
(-0.1378372262 -0.005965881917 3.767045919e-20 0.1366409573 6.088835449e-20 0.001196268845)
(-0.1278909819 -0.005728636045 4.798564424e-20 0.1265440177 7.439019708e-20 0.001346964187)
(-0.1182638735 -0.005459844184 2.194650553e-20 0.1167835907 4.126656287e-20 0.001480282866)
(-0.1090562482 -0.005176875758 -3.199317098e-21 0.1074601026 3.515393974e-20 0.001596145648)
(-0.1003137072 -0.004890915716 8.60043085e-21 0.09861976299 5.66301829e-21 0.001693944183)
(-0.09205522893 -0.004609118633 2.298222001e-20 0.09028233204 5.054076017e-20 0.00177289689)
(-0.0842824636 -0.004336287293 3.269022501e-20 0.08245069691 6.849914353e-20 0.001831766695)
(-0.07698933724 -0.004075392912 6.19434746e-20 0.07512013355 5.094182165e-20 0.001869203694)
(-0.0701675292 -0.003828674121 3.426220902e-20 0.06828409503 6.610088869e-20 0.001883434174)
(-0.06380700898 -0.003597389749 -3.088150672e-20 0.06193440745 8.478498122e-20 0.001872601528)
(-0.05790261095 -0.003382844523 -1.830450494e-21 0.05606817498 9.047516716e-20 0.001834435973)
(-0.05244869568 -0.003185666428 2.613378409e-20 0.05068209644 7.70738105e-20 0.001766599239)
(-0.04744874067 -0.003006977266 -7.888041644e-21 0.0457823949 1.174886744e-19 0.001666345771)
(-0.04290513624 -0.002847295245 -4.899584671e-22 0.04137427721 8.634210362e-20 0.001530859024)
(-0.03883286555 -0.002707959772 3.466280098e-20 0.03747593831 9.734151798e-20 0.001356927242)
(-0.0352445121 -0.002589647383 4.233218872e-20 0.03410327017 1.507189689e-20 0.001141241927)
(-0.03216879128 -0.002494090013 1.772949135e-20 0.03128866901 2.780074493e-20 0.0008801222671)
(-0.02963057516 -0.002422535454 1.737905442e-21 0.02906083315 -4.722693912e-21 0.000569742011)
(-0.02767337247 -0.0023749765 -2.173675571e-21 0.02746742166 -5.514985523e-20 0.0002059508152)
(-0.1769534528 -0.01458802099 3.733418473e-20 0.1768048831 -1.642744206e-21 0.0001485697618)
(-0.1731326218 -0.0171633275 7.338360685e-20 0.1727289885 2.983765848e-21 0.0004036333032)
(-0.1656975946 -0.01829705115 3.63220713e-20 0.165065226 2.264167464e-20 0.0006323685549)
(-0.1564944836 -0.01857335775 4.840878063e-21 0.1556559526 4.875195867e-20 0.0008385310395)
(-0.1465580624 -0.01833781262 1.458688051e-20 0.1455333012 6.807855065e-20 0.00102476121)
(-0.1364599516 -0.01779908508 3.549324653e-20 0.135267436 4.579454387e-20 0.001192515681)
(-0.1265254162 -0.0170863921 3.919043283e-20 0.1251826791 7.83496363e-20 0.001342737052)
(-0.1169271784 -0.01628068496 -4.184512869e-21 0.1154515423 2.882241715e-20 0.001475636098)
(-0.1077587917 -0.01543348662 -3.317513918e-20 0.1061676573 5.67607663e-20 0.00159113445)
(-0.0990612988 -0.01457794948 1.218566876e-20 0.09737267298 1.298366136e-20 0.001688625827)
(-0.09085066599 -0.01373525889 5.686043832e-20 0.08908333401 2.999936291e-20 0.001767331976)
(-0.08312642265 -0.01291961756 3.818919579e-20 0.08130040338 1.898573883e-20 0.001826019276)
(-0.07588112088 -0.01213980792 5.848109629e-20 0.07401777901 3.59567922e-21 0.001863341872)
(-0.06910537451 -0.01140243893 6.972259216e-20 0.06722784357 4.200622852e-20 0.001877530932)
(-0.06278850873 -0.01071122679 3.350350659e-20 0.06092177376 6.943887701e-20 0.001866734972)
(-0.05692474338 -0.01007002754 2.650145291e-20 0.0550960525 1.311494009e-19 0.001828690871)
(-0.05150812359 -0.009480707225 8.420306372e-20 0.04974705642 2.387673877e-20 0.00176106717)
(-0.04654168154 -0.008946596573 3.3737381e-20 0.04488055447 1.674593112e-19 0.001661127071)
(-0.04202761659 -0.008469229982 2.144523064e-20 0.04050155328 1.784086441e-19 0.001526063318)
(-0.03798046508 -0.008052564937 3.452266279e-20 0.03662778924 3.959732122e-20 0.001352675841)
(-0.03441262716 -0.007698619268 -3.295629346e-20 0.03327496076 3.299598848e-20 0.001137666406)
(-0.03135235398 -0.007412577582 1.515112903e-20 0.03047498944 1.362509701e-19 0.0008773645361)
(-0.02882425889 -0.007198144547 -7.011924517e-20 0.02825630355 9.086896781e-20 0.0005679553353)
(-0.02687225766 -0.007055301947 3.137091351e-20 0.0266669529 -5.2623873e-20 0.0002053047635)
(-0.1759356507 -0.0242762354 2.592778679e-20 0.1757880144 2.63093873e-20 0.0001476362812)
(-0.1712839309 -0.02843868809 5.958860603e-20 0.1708828471 3.62475427e-21 0.0004010837749)
(-0.1633752984 -0.03025074952 3.923934413e-20 0.1627469323 -3.103289095e-20 0.0006283660875)
(-0.1539182387 -0.03066618771 2.651203943e-20 0.1530850141 1.465870323e-20 0.0008332246294)
(-0.1438650085 -0.03024908498 1.599971254e-20 0.1428467253 5.932258465e-20 0.001018283243)
(-0.1337364528 -0.02933977281 4.087153628e-20 0.1325514716 5.124005944e-20 0.001184981227)
(-0.1238258271 -0.02814895883 4.759626671e-20 0.1224915662 8.820613962e-20 0.001334260857)
(-0.1142852803 -0.02680851656 -5.447551457e-21 0.1128189508 8.608407528e-20 0.001466329552)
(-0.1051949605 -0.02540232782 -1.288644516e-20 0.1036138518 9.496841332e-20 0.001581108681)
(-0.09658692203 -0.02398430014 -3.717424112e-20 0.09490892724 9.446980448e-20 0.001677994783)
(-0.0884712017 -0.02258884333 1.245200836e-20 0.08671498766 1.106053608e-19 0.001756214034)
(-0.0808431594 -0.02123898713 4.496906853e-21 0.07902862005 3.698329893e-20 0.001814539352)
(-0.07369264708 -0.01994894898 7.407686418e-20 0.07184101433 -1.384402158e-20 0.00185163275)
(-0.06700818706 -0.01872941512 1.121825909e-19 0.06514245102 9.817210755e-21 0.001865736046)
(-0.06077783857 -0.01758637797 7.260183189e-20 0.05892282929 7.027172667e-20 0.001855009285)
(-0.05499460864 -0.01652607381 1.496804279e-20 0.05317740456 9.126584219e-20 0.001817204085)
(-0.04965191057 -0.01555151406 5.431070503e-20 0.04790190622 6.071862047e-20 0.001750004351)
(-0.04475188614 -0.01466811677 2.671042624e-19 0.04310119462 1.677131775e-20 0.001650691519)
(-0.04029635753 -0.01387838384 -2.127731622e-20 0.03877988088 6.273787455e-20 0.001516476648)
(-0.03629900485 -0.01318878663 -1.041465241e-19 0.03495482504 5.213986018e-20 0.001344179808)
(-0.0327719048 -0.01260264314 1.708639805e-19 0.03164138193 2.509624977e-20 0.001130522866)
(-0.02974236346 -0.01212847043 2.129124414e-19 0.02887050625 -1.881751792e-20 0.0008718572072)
(-0.02723440861 -0.01177236698 -1.511284813e-19 0.02667001762 1.313197677e-19 0.0005643909835)
(-0.0252928168 -0.01153445898 -2.66191318e-20 0.02508879998 -5.696549767e-20 0.00020401682)
(-0.1744094983 -0.0339082833 -5.63205835e-23 0.1742632669 4.343234424e-20 0.0001462314001)
(-0.1685449513 -0.03946732672 2.581634583e-20 0.1681476845 -3.519337487e-20 0.0003972667403)
(-0.1599461926 -0.04184400687 4.141249667e-20 0.1593238078 -8.68270082e-20 0.0006223848494)
(-0.1501202528 -0.04233253305 5.513205108e-20 0.1492949586 7.668774245e-22 0.0008252941663)
(-0.1398985984 -0.04169794321 4.328757745e-20 0.1388899998 3.456075937e-20 0.001008598621)
(-0.1297278143 -0.04040137888 5.078979105e-20 0.1285540977 6.272767247e-20 0.001173716593)
(-0.1198543454 -0.038728166 8.760094673e-20 0.1185327611 7.506131711e-20 0.001321584364)
(-0.1104002247 -0.03685663084 5.837373324e-21 0.108947818 1.297913809e-19 0.001452406722)
(-0.101425985 -0.03490008781 3.959648163e-21 0.09985987983 5.81513132e-20 0.001566105207)
(-0.09295054918 -0.03293121973 5.314775922e-20 0.09128846817 4.447679504e-20 0.001662081008)
(-0.08497529562 -0.03099634571 4.198998196e-20 0.08323572834 6.315914228e-20 0.001739567279)
(-0.07748949611 -0.02912638414 -6.908755915e-20 0.07569214882 9.418745153e-21 0.001797347285)
(-0.07047905917 -0.02734037271 -2.040759003e-20 0.06864496391 6.286224571e-20 0.001834095265)
(-0.06392945271 -0.02565259428 1.515186327e-19 0.06208138366 1.132303122e-20 0.001848069047)
(-0.0578268888 -0.02407102227 1.183416714e-19 0.05598944284 1.817203763e-19 0.001837445961)
(-0.05216260461 -0.0226039941 9.003942157e-20 0.05036260534 -8.894045556e-21 0.001799999272)
(-0.04692909209 -0.02125551806 2.712638416e-20 0.04519565669 -7.068084114e-20 0.001733435405)
(-0.04212719061 -0.0200329012 7.573880877e-20 0.04049212808 -1.310683587e-19 0.001635062525)
(-0.03775817082 -0.01893953012 1.815406668e-19 0.03625605218 -1.014783781e-19 0.00150211864)
(-0.03383446281 -0.01798421352 7.510444116e-21 0.0325030085 -5.509399606e-21 0.001331454313)
(-0.03036767735 -0.01717150888 -1.396262928e-19 0.02924785548 1.147248229e-20 0.001119821864)
(-0.02738372467 -0.01651307241 2.170465425e-19 0.02652011757 -2.958687888e-20 0.0008636071057)
(-0.02490574736 -0.01601728742 6.572795771e-20 0.02434669482 1.282990974e-19 0.0005590525444)
(-0.02297979859 -0.01568466484 -1.995222474e-20 0.02277771015 -2.874464303e-20 0.0002020884364)
(-0.1723757619 -0.04346115764 -4.457696827e-20 0.1722313962 5.745434523e-20 0.0001443656868)
(-0.1649556149 -0.05015792934 -4.972614388e-20 0.1645634161 -2.322786586e-20 0.0003921987751)
(-0.155473874 -0.05294481282 2.921252639e-20 0.1548594273 -5.942594076e-20 0.0006144467563)
(-0.1451781573 -0.05341681827 8.892868505e-20 0.1443633884 1.81114725e-20 0.0008147688704)
(-0.1347444204 -0.05251607977 5.717702773e-20 0.1337486786 3.722768032e-20 0.0009957417345)
(-0.1245236549 -0.05080977815 7.588539513e-20 0.1233648946 4.432190548e-20 0.001158760299)
(-0.1147020707 -0.04864851014 1.337854177e-19 0.11339732 2.978043255e-20 0.001304750692)
(-0.1053629499 -0.04625098482 2.499499248e-20 0.1039290351 1.239971067e-19 0.001433914741)
(-0.09654159908 -0.04375597057 -6.553171469e-20 0.09499542462 3.387837511e-20 0.001546174459)
(-0.08824006584 -0.04125223513 -2.522869871e-20 0.08659912817 2.519523231e-20 0.001640937669)
(-0.08044860796 -0.03879621736 4.766316603e-20 0.07873116117 -7.526714554e-21 0.001717446792)
(-0.07314868157 -0.03642545025 9.494498871e-21 0.07137418206 1.023539679e-20 0.001774499504)
(-0.06632113434 -0.03416295547 3.202640573e-20 0.06451034808 1.032836486e-19 0.001810786255)
(-0.05994751593 -0.03202596 1.803288749e-19 0.05812292947 4.338274635e-20 0.001824586462)
(-0.05401167123 -0.03002401592 1.755912973e-19 0.05219757096 5.951488871e-20 0.001814100271)
(-0.04850256822 -0.02816718255 -1.423153966e-19 0.0467254387 -2.591957337e-19 0.001777129522)
(-0.04341151898 -0.02646026334 -8.058651443e-20 0.04170010869 -1.33704023e-19 0.00171141029)
(-0.03873768931 -0.02491218587 9.707200095e-20 0.03712340336 3.883969969e-20 0.00161428595)
(-0.03448164024 -0.0235271105 3.854544528e-20 0.03299860993 6.11076365e-20 0.001483030305)
(-0.0306541897 -0.02231594101 1.030416399e-19 0.0293396552 2.607131398e-20 0.001314534502)
(-0.02726634397 -0.02128439097 9.367235379e-20 0.02616075249 1.594672885e-19 0.00110559148)
(-0.02434220589 -0.0204469962 2.709115593e-19 0.02348957349 1.643213185e-19 0.0008526323975)
(-0.02190378387 -0.01981427845 1.167311093e-19 0.02135183699 -1.082368741e-20 0.0005519468793)
(-0.01999874216 -0.0193874545 -1.237561119e-19 0.01979922334 2.805259121e-19 0.0001995188189)
(-0.1698356431 -0.05291131435 -5.272527098e-20 0.1696935977 1.538546574e-20 0.0001420453364)
(-0.1605675538 -0.06042627033 -1.062185934e-19 0.1601816575 1.732672509e-20 0.0003858962487)
(-0.1500404782 -0.06343289144 1.108175706e-20 0.1494359026 -2.870212689e-20 0.0006045756538)
(-0.1391921793 -0.06377798481 1.003137924e-19 0.1383904985 3.558944182e-20 0.0008016807943)
(-0.1285129274 -0.06255128771 7.795731297e-20 0.1275331754 8.422426899e-21 0.0009797519699)
(-0.1182395988 -0.06040777069 5.486206817e-20 0.1170994409 1.596303418e-21 0.001140157888)
(-0.1084865214 -0.05775174294 1.740964823e-19 0.1072027103 7.396891216e-21 0.001283811102)
(-0.0992907584 -0.0548347977 1.53194448e-19 0.09787984846 -4.591502783e-20 0.001410909948)
(-0.09065754228 -0.05181624363 1.904762533e-20 0.08913616498 -1.579329677e-19 0.001521377296)
(-0.08256881968 -0.04879760895 -4.66045956e-20 0.08095419022 1.211807406e-19 0.001614629464)
(-0.0750016095 -0.04584324275 7.469716407e-23 0.07331168872 5.244728548e-20 0.001689920778)
(-0.06792807108 -0.04299571848 1.584067203e-20 0.06618200414 5.255711441e-20 0.001746066945)
(-0.06132303629 -0.04028101011 4.127300856e-21 0.05954125737 1.077601167e-19 0.001781778918)
(-0.05516339978 -0.03771848271 6.755963016e-20 0.0533680369 1.332781995e-19 0.001795362884)
(-0.04943019744 -0.03531877119 9.044759524e-21 0.04764515 -8.707576292e-21 0.001785047449)
(-0.04410970219 -0.03309318867 -2.414311477e-19 0.04236103241 6.949221698e-20 0.001748669773)
(-0.03919182662 -0.0310470851 4.939169681e-20 0.03750782413 3.107865418e-19 0.001684002489)
(-0.03467374365 -0.02919067664 1.950392492e-19 0.0330853112 2.102546035e-19 0.001588432448)
(-0.03055516822 -0.02752875886 1.27451769e-19 0.02909589063 2.041106336e-19 0.001459277586)
(-0.0268449919 -0.02607403065 3.449133997e-20 0.02555151198 2.253765653e-19 0.001293479922)
(-0.02355349146 -0.02483325873 1.490879961e-20 0.02246560817 3.088582246e-19 0.001087883287)
(-0.02070259611 -0.02382354065 5.963634827e-20 0.01986361997 4.559752903e-19 0.000838976142)
(-0.01831295873 -0.02305735335 3.786726642e-19 0.01776985253 3.453006242e-19 0.0005431062052)
(-0.01643412171 -0.02253701662 -1.493186523e-20 0.01623779862 4.141698415e-19 0.0001963230972)
(-0.1667909275 -0.06223456212 -2.31388888e-20 0.1666516486 -2.915409567e-20 0.0001392789124)
(-0.1554428184 -0.07019692616 -1.134255554e-19 0.1550644372 2.998767202e-21 0.0003783811519)
(-0.1437444961 -0.07320250404 -2.54255863e-20 0.1431516915 -4.349534928e-21 0.000592804685)
(-0.1322824224 -0.07329293638 1.361207266e-19 0.131496349 -4.071457584e-20 0.0007860733272)
(-0.1213364264 -0.07167128192 1.00417767e-19 0.1203757442 -8.77366425e-20 0.0009606822403)
(-0.1110141118 -0.06905909135 2.022705975e-20 0.1098961413 7.071163722e-20 0.00111797048)
(-0.1013484116 -0.06590095465 9.834372719e-20 0.1000895775 3.078172199e-21 0.001258834021)
(-0.09232409011 -0.06247263596 4.780066591e-20 0.09094062299 -2.178122821e-19 0.001383467122)
(-0.08391237063 -0.05894827574 4.2184741e-20 0.08242057694 -7.828080172e-20 0.001491793689)
(-0.07607249121 -0.05543830217 2.154123747e-19 0.07448925065 4.486286803e-20 0.001583240568)
(-0.06876652585 -0.05201240821 -4.172453818e-22 0.06710944969 -9.730296919e-21 0.001657076156)
(-0.06195615072 -0.04871638091 2.784341505e-20 0.06024401248 1.30589107e-19 0.001712138242)
(-0.05560942089 -0.04557794848 8.021092106e-20 0.05386225874 2.177055895e-19 0.001747162141)
(-0.04969799092 -0.04261767925 1.070403922e-19 0.04793750457 1.727289211e-19 0.001760486348)
(-0.04419974015 -0.03984671537 1.968227548e-19 0.04244936669 8.302158538e-21 0.001750373459)
(-0.03909790868 -0.03727708088 1.575298574e-20 0.03738320589 2.403824529e-19 0.001714702787)
(-0.03438083779 -0.03491438377 5.731428317e-20 0.03272954712 7.41215055e-20 0.001651290678)
(-0.03004345029 -0.03276974314 7.013183906e-20 0.02848587473 -5.499763768e-22 0.00155757556)
(-0.02608450398 -0.03084842813 2.207382744e-19 0.02465357585 -1.433862369e-20 0.001430928135)
(-0.02251070229 -0.02916458393 3.464505351e-19 0.02124235155 5.144593193e-20 0.001268350747)
(-0.01933148552 -0.02772591012 5.820081807e-19 0.01826473718 -5.232161987e-21 0.001066748335)
(-0.01656630213 -0.02655169664 4.381808964e-19 0.01574362475 3.812568725e-19 0.0008226773783)
(-0.01423425727 -0.02565616039 4.135955303e-19 0.01370170205 2.784704544e-19 0.0005325552218)
(-0.01238696427 -0.02504318073 -1.068868444e-19 0.01219445527 -3.890954665e-20 0.0001925089953)
(-0.1632441417 -0.07140599693 -1.143172399e-20 0.1631080666 -5.086057939e-21 0.0001360750282)
(-0.1496523175 -0.07940472731 -8.098404634e-20 0.1492826401 -1.86617126e-20 0.0003696773872)
(-0.1366981684 -0.08216483154 -3.421983075e-20 0.1361189974 -7.835592679e-20 0.0005791709459)
(-0.1245856242 -0.08185947867 7.370969211e-20 0.1238176287 -1.025860837e-19 0.0007679954544)
(-0.1133654736 -0.07976695497 1.781331559e-19 0.112426881 -6.228921132e-20 0.0009385925135)
(-0.1030047087 -0.07665183157 1.147760431e-19 0.1019124409 9.471200079e-20 0.001092267807)
(-0.09344777747 -0.07298405801 -1.504515394e-20 0.09221787951 -1.186280873e-20 0.001229897956)
(-0.08462264271 -0.06905389429 1.82961304e-20 0.08327097017 -1.156547176e-19 0.001351672537)
(-0.07646361755 -0.06504397442 3.05906628e-20 0.0750061006 1.192795698e-19 0.001457516949)
(-0.06890532643 -0.06106934151 7.922061121e-20 0.06735845613 2.825048853e-20 0.001546870296)
(-0.06189366008 -0.05720218491 8.714827996e-20 0.0602746424 7.34340924e-20 0.001619017685)
(-0.05537895963 -0.05348947849 2.344131275e-19 0.05370613723 1.063175486e-19 0.001672822402)
(-0.04932196227 -0.04995937673 1.098738218e-19 0.04761491392 1.535596224e-19 0.001707048346)
(-0.04368866962 -0.04663261458 -5.197311554e-20 0.04196859833 5.73336075e-20 0.001720071284)
(-0.03845356267 -0.0435202041 5.915451608e-20 0.03674336937 5.236155408e-20 0.001710193298)
(-0.03359661101 -0.04063427855 5.73617374e-20 0.0319212686 4.395477048e-20 0.001675342407)
(-0.02910446589 -0.03798038426 -6.769610707e-20 0.02749108051 -4.466864262e-20 0.00161338538)
(-0.02496961364 -0.03557011489 1.218801607e-19 0.02344779334 -8.619168791e-20 0.001521820298)
(-0.02118977342 -0.03340903241 1.406814982e-19 0.01979169479 -1.207106979e-19 0.001398078639)
(-0.01776926033 -0.03151233998 1.914675179e-21 0.01653002767 -1.131710908e-19 0.001239232658)
(-0.01471659036 -0.02988853651 3.508112968e-19 0.01367433226 -2.946970598e-21 0.001042258096)
(-0.01204848982 -0.02855869366 8.800552535e-19 0.01124469918 -4.423745121e-20 0.0008037906374)
(-0.009782356842 -0.0275385286 6.397931605e-19 0.009262028485 -3.251313138e-19 0.0005203283577)
(-0.00797197956 -0.02683398644 3.171454812e-20 0.007783890944 -1.764761215e-19 0.0001880886156)
(-0.1591987566 -0.08039994114 4.769755952e-20 0.1590663126 -8.761680018e-20 0.0001324439406)
(-0.1432740509 -0.08799593756 -7.446327373e-20 0.1429142383 -9.567714137e-20 0.0003598125519)
(-0.1290245204 -0.09024989676 -2.267604081e-20 0.1284608029 -1.952021677e-19 0.0005637174652)
(-0.1162514783 -0.08939868237 -5.479656624e-21 0.1155039743 4.858770033e-20 0.0007475040258)
(-0.1047647868 -0.08675499311 1.76346266e-19 0.1038512346 2.512719084e-20 0.0009135522465)
(-0.09438365365 -0.08310118399 2.056565391e-19 0.09332052306 2.222814875e-20 0.001063130583)
(-0.08495959345 -0.07891658501 -1.127817635e-20 0.08376249992 -4.168574922e-20 0.001197093536)
(-0.07636098323 -0.07449559282 -1.732097222e-20 0.07504535774 -1.147864471e-23 0.001315625489)
(-0.06848345395 -0.07002255105 1.456259137e-19 0.06706480049 9.859006935e-20 0.001418653464)
(-0.06123587652 -0.06561253295 6.835874683e-20 0.0597302456 1.656431196e-19 0.00150563092)
(-0.05454723063 -0.06133717836 2.347471261e-20 0.05297136884 4.738058012e-20 0.001575861787)
(-0.04835603495 -0.05724248139 1.611059487e-19 0.04672779601 7.347100318e-20 0.001628238934)
(-0.04261540819 -0.05335560323 2.77236306e-19 0.04095384952 1.132414887e-19 0.001661558662)
(-0.03728547354 -0.04969633819 8.555767444e-20 0.03561123414 7.705899315e-20 0.001674239403)
(-0.03233718832 -0.04627488766 1.178070257e-19 0.03067256027 1.484226884e-19 0.001664628055)
(-0.02774712217 -0.04310285158 3.845789593e-20 0.02611641447 1.112714378e-19 0.001630707708)
(-0.0235001761 -0.04018537357 -1.216175683e-19 0.02192977381 2.999475446e-20 0.001570402284)
(-0.01958628973 -0.03753406352 -2.415353916e-19 0.0181050128 1.227620337e-19 0.001481276934)
(-0.01600209494 -0.03515458241 3.517480863e-20 0.01464126287 2.119470064e-19 0.001360832069)
(-0.01274938566 -0.03306277393 1.83746014e-19 0.0115431671 2.351212298e-19 0.001206218558)
(-0.009835687839 -0.03126779235 9.83144022e-20 0.008821195096 2.306746927e-19 0.001014492744)
(-0.007274833685 -0.0297920496 -4.350289709e-20 0.006492453953 -5.674389489e-20 0.0007823797313)
(-0.005082394049 -0.02865250452 4.238640786e-19 0.00457592475 -2.57431097e-19 0.0005064692991)
(-0.003314340791 -0.02785770389 2.954293372e-19 0.003131261044 -3.346009065e-19 0.0001830797464)
(-0.1546593799 -0.08918994888 8.80382778e-20 0.1545309831 -7.831775682e-20 0.0001283967325)
(-0.136391171 -0.09592912457 -3.24922533e-21 0.1360423538 -1.787941125e-19 0.0003488171979)
(-0.1208541255 -0.09740796733 -7.831700409e-20 0.1203076332 -8.116808441e-21 0.0005464923577)
(-0.1074386165 -0.09585660365 5.389979741e-20 0.1067139535 1.418140862e-19 0.0007246629623)
(-0.09570878072 -0.09257977585 9.49327215e-20 0.0948231409 3.436250188e-20 0.000885639815)
(-0.0853332602 -0.08835143489 2.406122344e-19 0.08430260997 -4.000323379e-20 0.001030650233)
(-0.07606897615 -0.08364371264 4.5991619e-20 0.07490845213 -4.934800467e-20 0.001160524025)
(-0.06772374771 -0.07874439993 4.053724624e-21 0.06644830796 2.610160067e-20 0.001275439754)
(-0.0601539414 -0.07383251652 1.643079863e-19 0.05877861484 1.076012777e-19 0.001375326555)
(-0.05324234214 -0.06901841526 1.384616738e-19 0.05178268834 1.315318874e-19 0.001459653797)
(-0.04690082837 -0.06437003182 -1.485181436e-20 0.04537308159 4.265215767e-20 0.001527746783)
(-0.04105599357 -0.05993013761 1.891330601e-19 0.0394774624 1.061717457e-19 0.001578531171)
(-0.03565328964 -0.05572343198 3.134236155e-19 0.03404244992 -3.627824941e-20 0.001610839724)
(-0.0306469339 -0.05176762338 2.236025635e-19 0.02902379557 -1.688304315e-19 0.001623138328)
(-0.02600435635 -0.0480713993 2.800277051e-19 0.02439053241 -8.21895436e-20 0.001613823937)
(-0.02169871215 -0.04464516192 1.868636655e-19 0.02011777109 -9.396939862e-20 0.001580941068)
(-0.01771315241 -0.0414932997 6.249635425e-20 0.01619067528 -4.224429093e-20 0.001522477128)
(-0.01403504081 -0.03862696398 2.713024511e-19 0.01259896868 -3.476610787e-20 0.001436072133)
(-0.01065990695 -0.03605171359 -5.835329003e-20 0.009340603978 2.299510803e-19 0.001319302969)
(-0.007586963444 -0.03378359848 -8.687299168e-21 0.006417555209 1.779443916e-19 0.001169408235)
(-0.004822703937 -0.03183227711 1.665345941e-19 0.00383916997 3.089946742e-19 0.0009835339672)
(-0.002377968116 -0.03022104101 -1.669262664e-19 0.001619462875 2.695661217e-19 0.0007585052411)
(-0.0002664199814 -0.02896782038 -4.305957623e-19 -0.0002245943839 -2.131728878e-19 0.0004910143653)
(0.001453878721 -0.02808431388 1.668122126e-19 -0.001631371583 -1.091397837e-19 0.0001774928619)
(-0.149631989 -0.09774882373 3.633579357e-20 0.1495080429 -5.357746599e-21 0.0001239461514)
(-0.1290899415 -0.1031756972 -5.456985849e-21 0.1287532156 -5.102867159e-20 0.0003367258529)
(-0.1123216865 -0.103610399 -6.401206433e-20 0.1117941367 1.730885615e-19 0.0005275497507)
(-0.09831036906 -0.1012053076 4.920448664e-20 0.09761082503 7.659684311e-20 0.0006995440273)
(-0.0863768546 -0.09721450157 2.502624115e-20 0.08552191174 1.293474507e-21 0.0008549428634)
(-0.07604093432 -0.09237714006 2.686231744e-19 0.07504600566 -1.124859662e-19 0.000994928656)
(-0.06696612745 -0.08714145805 1.510708888e-19 0.0658458236 -8.668729587e-20 0.001120303854)
(-0.05890057802 -0.08177782491 1.597136823e-19 0.05766933721 -1.278032158e-19 0.001231240811)
(-0.05166202302 -0.07645285857 3.174054546e-19 0.05033435213 -4.334618174e-20 0.001327670896)
(-0.04510765483 -0.07126741391 3.50373745e-19 0.04369857332 -9.310751832e-20 0.001409081509)
(-0.039132611 -0.06628255134 3.636119156e-20 0.03765778965 -3.634821688e-20 0.001474821347)
(-0.0336518502 -0.0615355668 3.63924863e-20 0.03212799747 1.239063199e-20 0.001523852732)
(-0.02860336821 -0.05704722383 9.704206285e-20 0.02704831974 -7.779575296e-20 0.001555048467)
(-0.02393565098 -0.05283199601 2.760541212e-20 0.02236872416 -9.183305517e-20 0.001566926815)
(-0.01961272276 -0.04889635218 8.719021177e-20 0.018054783 1.899287199e-19 0.001557939758)
(-0.01560442641 -0.04524883017 6.60272433e-20 0.01407822734 1.812732533e-19 0.001526199069)
(-0.011892226 -0.04189271029 -9.478003592e-20 0.01042246401 -6.527410445e-20 0.001469761984)
(-0.008460961491 -0.03883820787 1.124961669e-19 0.007074611149 -2.023455342e-20 0.001386350343)
(-0.005305079903 -0.03609057735 4.966210148e-19 0.004031454613 3.599764221e-19 0.00127362529)
(-0.002421225621 -0.03366563635 2.561050818e-19 0.001292304172 2.071206146e-19 0.001128921449)
(0.0001851572897 -0.03157339353 6.1931605e-19 -0.001134641115 6.194096333e-20 0.0009494838257)
(0.002506244954 -0.02983755247 2.198619059e-19 -0.003238492231 -4.395437166e-19 0.0007322472767)
(0.004530317321 -0.02847673927 -4.79095246e-19 -0.005004334557 -4.482792913e-19 0.0004740172369)
(0.006197421222 -0.02750635103 -9.070144116e-20 -0.006368770553 2.525191206e-20 0.0001713493317)
(-0.1441241259 -0.1060487043 2.089258088e-20 0.1440050198 5.455318349e-20 0.0001191060689)
(-0.1214576356 -0.1097200983 -7.694882835e-21 0.1211340592 7.17546297e-20 0.0003235763822)
(-0.1035625302 -0.1088498982 -5.125601433e-20 0.103055581 1.766968816e-19 0.0005069491951)
(-0.0890304174 -0.1054431712 4.332061753e-20 0.08835819105 9.06260671e-21 0.0006722263517)
(-0.0769485626 -0.10066151 -6.203033097e-20 0.07612700423 -5.250480269e-20 0.0008215583749)
(-0.06669409182 -0.09518345566 1.111418167e-19 0.06573801285 -5.663955894e-20 0.000956078969)
(-0.05784115053 -0.0894170086 1.107679197e-19 0.05676458971 -8.50176247e-20 0.001076560822)
(-0.05008093421 -0.08360454284 -6.184834928e-20 0.04889776478 -7.054994032e-20 0.001183169433)
(-0.04319439534 -0.07789335811 1.419941117e-19 0.04191855646 4.731328892e-22 0.001275838882)
(-0.0370144479 -0.07237014714 3.158739533e-19 0.03566037191 1.602885179e-21 0.001354075994)
(-0.0314203956 -0.0670860013 2.894012579e-19 0.03000314036 -1.971533813e-20 0.001417255242)
(-0.02631624302 -0.06207054544 1.235249771e-19 0.02485186439 8.636141046e-20 0.001464378627)
(-0.0216329973 -0.05733917184 8.285628276e-20 0.02013863451 8.165832281e-20 0.001494362787)
(-0.01731378842 -0.05290200102 2.287150873e-19 0.01580800544 8.069587821e-20 0.001505782973)
(-0.01331948027 -0.04876259799 4.30308574e-19 0.01182232918 2.645671909e-19 0.001497151084)
(-0.00961682241 -0.0449269876 3.226908373e-19 0.008150170149 -1.835592371e-19 0.001466652261)
(-0.00618571646 -0.04139699869 -8.165494981e-20 0.004773297 -3.231237822e-19 0.001412419459)
(-0.003008613036 -0.03818144459 1.311228464e-19 0.001676349275 3.051574208e-20 0.00133226376)
(-7.892983386e-05 -0.03528507745 5.689427592e-19 -0.001145007738 -1.051795053e-19 0.001223937572)
(0.002609170468 -0.03272305227 1.455746546e-19 -0.003694050619 -3.989072878e-19 0.001084880151)
(0.005051286471 -0.03050557517 -2.97570255e-21 -0.005963730331 -4.792375083e-19 0.00091244386)
(0.007242557569 -0.02865630014 2.000655357e-19 -0.007946240757 -6.153667e-19 0.0007036831878)
(0.00917320223 -0.02719427533 -2.539539557e-19 -0.009628728968 -7.755302861e-20 0.0004555267384)
(0.01078167698 -0.02613911976 4.50222399e-20 -0.01094634239 1.805202095e-19 0.0001646654051)
(-0.1381451283 -0.1140611677 1.44371697e-20 0.1380312366 8.145453919e-20 0.0001138917321)
(-0.1135804484 -0.115559649 5.286300011e-20 0.1132710382 6.970416929e-20 0.0003094101768)
(-0.09470911703 -0.1131402003 -4.856827935e-20 0.09422436149 1.422020477e-19 0.0004847555395)
(-0.07975846637 -0.1085944588 9.446735955e-20 0.07911567044 -1.164499701e-19 0.0006427959254)
(-0.06759880494 -0.102951798 -5.191590967e-20 0.0668132136 -7.105134317e-20 0.0007855913376)
(-0.05747509916 -0.09680561959 2.520847218e-20 0.05656087586 4.742628605e-20 0.0009142232955)
(-0.04887888845 -0.09050818728 1.632907158e-19 0.04784945623 -1.377241821e-20 0.001029432223)
(-0.04144892671 -0.08426385498 4.521478898e-20 0.04031755023 2.196292244e-20 0.001131376481)
(-0.0349323957 -0.07819405202 1.375931187e-20 0.03371240273 1.25502319e-19 0.001219992966)
(-0.02914003745 -0.07236689548 1.021350745e-19 0.02784522756 1.329591915e-19 0.001294809897)
(-0.02393675654 -0.06682058302 1.968073133e-19 0.0225815272 2.082164533e-20 0.001355229335)
(-0.01921666125 -0.06157499551 2.811291344e-19 0.01781636487 7.006557358e-20 0.001400296378)
(-0.01490448501 -0.05663880048 2.325521846e-19 0.01347551025 -2.058954449e-19 0.00142897476)
(-0.01093857072 -0.05201671181 -3.79064581e-20 0.009498669592 -5.463463591e-20 0.001439901129)
(-0.007276986825 -0.04770874639 3.417481576e-19 0.005845334845 -2.079412407e-19 0.00143165198)
(-0.003883720335 -0.04371780471 1.119135439e-19 0.002481229092 -3.885506774e-19 0.001402491243)
(-0.0007372949653 -0.04004394144 2.644466793e-20 -0.0006133386833 -2.069006508e-19 0.001350633649)
(0.002182015283 -0.03669412661 -8.681264635e-20 -0.00345600139 -6.751803743e-20 0.001273986106)
(0.00488173544 -0.03367242252 1.374768252e-19 -0.006052135093 4.741190723e-20 0.001170399653)
(0.007370028071 -0.03099291148 2.744582305e-19 -0.008407454052 -1.615052463e-19 0.001037425981)
(0.009643503614 -0.02866584965 -8.878819396e-20 -0.01051603705 5.301379851e-22 0.0008725334393)
(0.01170013923 -0.02671439818 -3.154929025e-20 -0.0123730445 -1.992253859e-22 0.0006729052629)
(0.01353204506 -0.02515776217 -2.492376313e-20 -0.01396764816 3.432948526e-19 0.0004356031025)
(0.01507648905 -0.02402026634 3.434652202e-21 -0.01523395258 -1.372873952e-20 0.0001574635337)
(-0.1317063067 -0.1217573912 1.316557462e-20 0.1315979871 6.344559897e-20 0.0001083195721)