/*--------------------------------*- C++ -*----------------------------------*\
| =========                 |                                                 |
| \\      /  F ield         | foam-extend: Open Source CFD                    |
|  \\    /   O peration     | Version:  3.0                                   |
|   \\  /    A nd           | Web:         http://www.extend-project.de       |
|    \\/     M anipulation  |                                                 |
\*---------------------------------------------------------------------------*/
FoamFile
{
    version     2.0;
    format      ascii;
    class       volVectorField;
    location    "19";
    object      u;
}
// * * * * * * * * * * * * * * * * * * * * * * * * * * * * * * * * * * * * * //

dimensions      [0 0 0 0 0 0 0];

internalField   nonuniform List<vector> 
2688
(
(0.1235882673 -0.05222659872 9.893869832e-19)
(0.2953907833 -0.04271849549 -4.077346682e-18)
(0.4326953484 -0.03543114759 -1.414017109e-18)
(0.5351981356 -0.02962493923 2.013861154e-18)
(0.6211488043 -0.02505088405 -8.864926962e-19)
(0.6860443977 -0.02130144902 -3.689668183e-19)
(0.7429497439 -0.01826751922 -1.624356343e-18)
(0.7858301212 -0.01572021736 -4.01281379e-18)
(0.8251544951 -0.01360502721 -3.149749411e-18)
(0.8543064762 -0.01179613258 -1.48464664e-18)
(0.8823747157 -0.01025229524 -1.141701998e-18)
(0.902484243 -0.008914120011 -1.053992054e-18)
(0.9229880952 -0.007735573937 -6.74640599e-19)
(0.9368355639 -0.00670568591 -5.779156696e-18)
(0.9520284144 -0.005763878391 1.554146731e-18)
(0.9613237953 -0.004938765657 3.084292848e-18)
(0.9726292389 -0.004149488359 1.660583636e-18)
(0.9784486146 -0.003460671758 7.626070865e-19)
(0.9867874957 -0.00276689406 3.628324625e-18)
(0.989812352 -0.00216740773 2.311708806e-18)
(0.9957878789 -0.001527552187 -5.250603363e-19)
(0.9964470085 -0.0009808742559 -1.633580062e-18)
(1.000453507 -0.0003749985342 -3.884918661e-19)
(0.9990376723 0.0002475238193 -2.328897049e-18)
(0.1352837849 -0.1560192774 3.391705981e-18)
(0.3049562295 -0.1276129024 -2.942072387e-19)
(0.4406306092 -0.1058452859 -9.809637649e-18)
(0.5418321308 -0.088497946 -2.193157647e-18)
(0.6267587856 -0.07483392606 -2.885828217e-18)
(0.6908143418 -0.06363249688 5.199537507e-19)
(0.747040055 -0.05456818655 -2.177265172e-18)
(0.7893499254 -0.04695915053 -1.235253318e-18)
(0.8282006872 -0.0406400103 4.141263601e-18)
(0.8569476184 -0.03523655203 4.749706298e-18)
(0.8846701711 -0.03062404578 -2.219919203e-18)
(0.9044800748 -0.02662646075 -4.076362684e-18)
(0.9247200277 -0.02310515904 -4.138758562e-20)
(0.9383369191 -0.02002839202 -2.651432043e-18)
(0.9533189074 -0.01721469696 -2.716154996e-18)
(0.9624295881 -0.01475015943 -1.135227525e-19)
(0.9735582967 -0.01239278603 -4.422164522e-18)
(0.9792233182 -0.01033517525 -4.549173807e-18)
(0.9874066225 -0.008261873956 6.485140465e-18)
(0.9902971181 -0.006469769212 -1.267880421e-17)
(0.9961297164 -0.004558393377 6.105680153e-18)
(0.9966664961 -0.002925866215 5.513634186e-19)
(1.000537132 -0.001115089247 5.046078148e-18)
(0.9989817829 0.0007451469677 5.023848938e-18)
(0.1585253709 -0.2578504175 6.691645901e-18)
(0.3239677075 -0.210903677 -2.039310821e-18)
(0.4563984332 -0.1749274182 -5.092090118e-18)
(0.5550150807 -0.1462576347 -1.184403313e-18)
(0.6379063636 -0.1236756357 -2.920511585e-18)
(0.7002928691 -0.1051628194 4.68622527e-18)
(0.7551681763 -0.09018276925 -5.363078831e-18)
(0.7963446068 -0.07760779082 6.031491138e-18)
(0.8342540351 -0.06716439595 -5.981923961e-18)
(0.8621961568 -0.05823429584 8.261971139e-18)
(0.8892316351 -0.05061123231 5.433181191e-18)
(0.9084461973 -0.04400447328 3.18973471e-18)
(0.9281616676 -0.03818471539 4.221196884e-18)
(0.9413203994 -0.03309963312 -6.689230402e-18)
(0.9558832899 -0.02844928179 4.255658315e-18)
(0.9646268916 -0.02437606056 -1.061824945e-17)
(0.9754042986 -0.02048009482 2.066541782e-17)
(0.9807626778 -0.01707964859 -1.737594866e-17)
(0.9886370112 -0.01365329719 -1.364172163e-17)
(0.9912606703 -0.01069141718 1.257478383e-17)
(0.9968087246 -0.007532170448 3.058211233e-18)
(0.9971022068 -0.004833888826 -2.007868502e-17)
(1.000702935 -0.001841314617 -8.223343163e-18)
(0.9988705712 0.001233181917 1.142834796e-17)
(0.1930230638 -0.3564387062 -2.259554106e-19)
(0.3521843059 -0.2915416752 -6.097291508e-18)
(0.4798014801 -0.2418097896 -6.449778156e-18)
(0.5745825329 -0.202178066 2.663292345e-19)
(0.6544525622 -0.17096195 -8.016684576e-18)
(0.7143622943 -0.1453705932 4.152871154e-18)
(0.7672333706 -0.1246627889 -6.890105282e-18)
(0.8067273337 -0.1072800457 -1.493482121e-18)
(0.8432394929 -0.09284359455 -3.302967109e-18)
(0.8699868211 -0.08049925361 -5.971290184e-18)
(0.8960023931 -0.06996146383 -1.617198589e-17)
(0.9143330634 -0.06082872724 -5.940528682e-18)
(0.9332699359 -0.05278374282 1.172604896e-17)
(0.9457484147 -0.04575441376 1.455690451e-18)
(0.9596891917 -0.03932592853 2.263611307e-18)
(0.9678879071 -0.03369527417 -8.818440238e-18)
(0.9781440786 -0.02830962292 -1.298076899e-17)
(0.9830474934 -0.02360900926 5.588221734e-18)
(0.990463357 -0.01887261287 -3.467310756e-18)
(0.9926907374 -0.01477833641 -1.945191471e-17)
(0.997816156 -0.01041110314 1.015819449e-17)
(0.9977486844 -0.006680960687 1.879056641e-17)
(1.000949036 -0.002544109964 -1.967978605e-17)
(0.9987053232 0.001705937208 2.271692425e-17)
(0.2383422221 -0.450544833 -5.286459249e-19)
(0.3892524129 -0.3685138713 6.35581077e-18)
(0.5105461773 -0.3056512194 1.152904635e-17)
(0.6002881059 -0.2555560942 7.291250831e-19)
(0.6761892085 -0.2160985136 -1.06033112e-18)
(0.7328450015 -0.183750409 9.555020141e-19)
(0.7830831801 -0.1575755034 -5.713011589e-18)
(0.8203670373 -0.1356035414 -6.09258408e-18)
(0.8550436814 -0.1173557388 -1.045312026e-18)
(0.8802215598 -0.1017523292 1.448917393e-17)
(0.9048973159 -0.08843240785 -9.022582551e-19)
(0.9220668989 -0.076888462 6.193765774e-18)
(0.9399809044 -0.0667194292 -5.153358725e-18)
(0.9515657208 -0.05783414917 9.725162849e-18)
(0.9646891302 -0.04970832935 -2.805376247e-17)
(0.9721719684 -0.04259094385 -9.057681502e-18)
(0.9817433102 -0.03578330707 2.138014444e-17)
(0.9860490783 -0.02984160031 1.628662928e-18)
(0.9928626813 -0.02385478135 1.110597083e-17)
(0.9945695823 -0.01867954949 9.47776397e-18)
(0.9991396518 -0.01315925176 -1.719972422e-18)
(0.9985979636 -0.008444105468 5.692545786e-18)
(1.001272271 -0.003214983943 -3.126751796e-17)
(0.998488236 0.00215719541 3.417695031e-17)
(0.2939130955 -0.5389848774 -1.811126101e-17)
(0.4347051865 -0.4408513464 -8.190298779e-20)
(0.5482453006 -0.365648761 2.534554655e-18)
(0.6318084832 -0.3057201289 -5.730406039e-19)
(0.7028427894 -0.2585172412 -1.179933877e-17)
(0.7555087033 -0.2198192155 1.266914257e-18)
(0.8025183584 -0.1885061855 2.460656363e-18)
(0.8370921427 -0.1622213697 -2.831356639e-17)
(0.8695180321 -0.1403915913 -1.782585228e-17)
(0.8927713537 -0.1217254321 2.764227706e-18)
(0.9158041872 -0.1057908597 -1.594622414e-18)
(0.9315499603 -0.09198098315 2.730685944e-18)
(0.9482097132 -0.07981581175 -4.610957968e-19)
(0.9586986775 -0.06918642127 1.557742064e-17)
(0.9708198673 -0.05946549475 -9.725135285e-18)
(0.977424906 -0.05095094792 3.650365609e-17)
(0.9861566095 -0.04280694325 1.462187904e-17)
(0.9897295706 -0.03569888625 7.50082243e-20)
(0.9958047731 -0.02853694828 -9.893325478e-18)
(0.9968733909 -0.02234589198 1.167680255e-18)
(1.000762565 -0.01574199764 4.412768804e-18)
(0.9996393072 -0.01010125646 2.192011462e-17)
(1.001668672 -0.003845596381 1.683067949e-17)
(0.9982219869 0.00258113919 -2.9283731e-17)
(0.3590366925 -0.6206471616 -8.656511441e-18)
(0.4879716818 -0.5076452498 -7.682006397e-18)
(0.5924252545 -0.4210482753 1.524669758e-17)
(0.6687474215 -0.3520398128 -1.266170043e-17)
(0.7340783974 -0.2976852217 -9.799485403e-18)
(0.7820684824 -0.2531239147 1.103023999e-17)
(0.8252947 -0.2170666554 6.029747734e-19)
(0.8566926133 -0.1867994659 -7.040248862e-18)
(0.8864809071 -0.1616623147 3.647802977e-17)
(0.9074789085 -0.1401680538 -2.355204371e-17)
(0.9285864195 -0.1218192475 -6.521867333e-18)
(0.9426636361 -0.1059170093 1.187522447e-17)
(0.9578534863 -0.09190867141 -3.360425193e-18)
(0.9670581584 -0.07966874545 -1.540658616e-19)
(0.9780047469 -0.06847492979 -1.733476795e-17)
(0.9835810046 -0.05867021397 -1.579710142e-17)
(0.9913286284 -0.04929222956 -2.350541263e-17)
(0.994042763 -0.04110713322 -4.601300965e-18)
(0.9992525586 -0.03286012448 -5.433677882e-18)
(0.99957315 -0.02573104889 -9.402403947e-18)
(1.00266433 -0.01812661677 -2.638011538e-17)
(1.00085956 -0.01163120425 -2.906595816e-17)
(1.002133042 -0.004427685625 -2.014969634e-17)
(0.9979098958 0.002972802983 -4.307407646e-17)
(0.4328940117 -0.6945042304 -1.773567485e-18)
(0.5483815146 -0.5680548627 -9.706175038e-18)
(0.642529942 -0.4711526262 -7.741055986e-18)
(0.7106400464 -0.3939321211 3.889937414e-18)
(0.7695027766 -0.333109356 6.955749022e-18)
(0.8121899995 -0.2832451786 -1.661540038e-17)
(0.8511253285 -0.2428970525 -2.729814062e-18)
(0.8789214391 -0.2090281786 7.328238372e-18)
(0.9057183749 -0.180899718 1.397202215e-18)
(0.9241585712 -0.1568477513 8.76445332e-18)
(0.9430825567 -0.1363154605 9.696405124e-18)
(0.9552674597 -0.118520944 -8.026215305e-18)
(0.9687903266 -0.1028456478 -1.630742972e-17)
(0.9765385192 -0.08914921654 3.350059402e-18)
(0.9861530639 -0.07662334297 2.133411796e-17)
(0.9905626262 -0.06565184844 -6.044614069e-18)
(0.9971942981 -0.05515785283 2.212814053e-17)
(0.998934462 -0.0459986825 3.070802124e-18)
(1.003162887 -0.03677027789 2.398461003e-18)
(1.002635113 -0.0287928455 3.615869784e-18)
(1.004821349 -0.02028350684 5.357015727e-17)
(1.002243612 -0.01301516194 -2.298116241e-17)
(1.002659863 -0.004954353941 -1.071155541e-17)
(0.9975560222 0.003326797892 -2.4430089e-17)
(0.5145563798 -0.7596277796 -2.253917715e-17)
(0.6151754876 -0.6213212121 -1.802010364e-17)
(0.6979297206 -0.5153322524 2.997804173e-18)
(0.7569599141 -0.4308707993 1.733808232e-17)
(0.8086709027 -0.3643447276 1.277052823e-17)
(0.8454948565 -0.309804726 -1.495700959e-17)
(0.8796859047 -0.265673175 -9.037512043e-18)
(0.9034996134 -0.2286284616 1.41438549e-17)
(0.9269891072 -0.1978624443 -4.126338489e-18)
(0.9426012012 -0.1715551429 -4.186945225e-18)
(0.9591108944 -0.1490975647 -8.599965231e-18)
(0.9692034518 -0.1296344533 2.202144324e-17)
(0.9808831031 -0.1124892991 -1.606249603e-17)
(0.9870208029 -0.09750853061 -1.575981823e-18)
(0.995162441 -0.08380810829 -9.614007366e-18)
(0.9982819323 -0.07180777115 -5.941027755e-18)
(1.003679637 -0.0603297504 -1.405550227e-17)
(1.004342873 -0.0503116597 2.109823196e-17)
(1.007486169 -0.04021790771 1.941078185e-17)
(1.006020414 -0.03149238055 -3.817764793e-18)
(1.007206064 -0.02218517345 -1.203833602e-17)
(1.003773757 -0.01423528734 8.085063672e-18)
(1.003242164 -0.005418596385 3.379108033e-17)
(0.997164662 0.003639109138 -5.144493518e-17)
(0.6029966654 -0.8151983426 1.186585536e-17)
(0.6875131304 -0.6667737852 -2.495772352e-17)
(0.7579274281 -0.5530310203 4.468867049e-17)
(0.8071240744 -0.4623907808 -1.591428658e-17)
(0.8510897074 -0.3909980148 1.107057677e-17)
(0.8815637524 -0.3324681019 -1.323807054e-17)
(0.9106167183 -0.2851080857 -6.350947181e-18)
(0.9301174968 -0.2453534572 2.190082385e-18)
(0.9500250361 -0.212336776 9.190978444e-18)
(0.9625743351 -0.1841050506 -1.615961157e-17)
(0.9764694007 -0.1600046226 7.686553213e-18)
(0.9842960272 -0.1391177512 3.412870649e-18)
(0.9939795558 -0.1207183817 -1.912611005e-17)
(0.9983731737 -0.1046417261 -1.151836796e-17)
(1.004919729 -0.08993907041 -4.922534253e-18)
(1.006642111 -0.07706084714 -2.369867364e-17)
(1.010703475 -0.064743151 9.848329897e-18)
(1.010200376 -0.05399214966 -3.563751982e-17)
(1.012168495 -0.04315994124 -4.1345462e-18)
(1.009686842 -0.03379602636 -3.083356159e-19)
(1.009788881 -0.02380793424 2.32047543e-17)
(1.005431001 -0.01527649591 -3.070335467e-17)
(1.0038729 -0.005814761141 3.071349421e-17)
(0.9967408354 0.003905558994 2.490866265e-17)
(0.6971028985 -0.8605175487 1.208115815e-17)
(0.764485261 -0.7038416025 9.713533691e-18)
(0.821769062 -0.5837753874 1.565836746e-17)
(0.8605022028 -0.488096186 -1.519966001e-17)
(0.8962263037 -0.412734505 1.020607839e-17)
(0.9199436337 -0.3509506843 -7.375478878e-18)
(0.9435293649 -0.3009577805 -1.395491855e-17)
(0.9584408972 -0.2589930998 -1.140157005e-17)
(0.9745369896 -0.224140949 -1.306523685e-17)
(0.9838272249 -0.1943397552 -3.039976087e-17)
(0.9949401031 -0.1688995392 -1.398622068e-17)
(1.000355545 -0.1468515179 1.301474393e-17)
(1.007915003 -0.1274293059 -2.792722966e-19)
(1.01045273 -0.1104589052 2.778858628e-17)
(1.015301966 -0.0949389215 2.565722517e-17)
(1.01553771 -0.08134475573 1.977176366e-17)
(1.018177101 -0.06834232931 -5.926436056e-18)
(1.016432967 -0.05699362538 5.679060424e-17)
(1.017150604 -0.04555923182 -1.662683466e-17)
(1.013588022 -0.03567466348 -5.814145578e-18)
(1.012537025 -0.02513132664 -1.922362717e-17)
(1.007194356 -0.01612559661 -7.328338438e-17)
(1.004543964 -0.006137843037 1.869547669e-17)
(0.9962898469 0.004122895843 -9.985312107e-18)
(0.7956914265 -0.8950150255 9.706453619e-18)
(0.8451234254 -0.7320579483 -3.241255597e-18)
(0.8886512844 -0.607178214 7.710078981e-18)
(0.9164225152 -0.5076633123 -1.62953919e-17)
(0.9435125316 -0.4292804524 5.018609465e-18)
(0.9601513257 -0.3650197439 2.115393348e-17)
(0.9780094214 -0.3130226508 -5.752341027e-18)
(0.9881131536 -0.2693757044 3.117122783e-17)
(1.000216298 -0.2331263783 2.921688128e-17)
(1.006092309 -0.2021305311 1.875501674e-17)
(1.014290546 -0.1756704618 -1.049560164e-17)
(1.017180038 -0.1527385789 1.261917745e-18)
(1.022514311 -0.1325377674 -8.041146518e-18)
(1.023107798 -0.1148870351 -1.59701983e-20)
(1.026178897 -0.09874487698 -3.275648035e-17)
(1.024857187 -0.08460572185 -6.172156909e-17)
(1.026006879 -0.0710820527 -1.2233096e-17)
(1.02296255 -0.05927837633 -3.266117175e-18)
(1.022370136 -0.0473855637 -2.821163953e-17)
(1.017675061 -0.03710466256 -3.242250512e-17)
(1.015416114 -0.02613862665 3.717064039e-17)
(1.009041682 -0.01677188168 -1.735213308e-18)
(1.005246991 -0.006383681898 4.080807197e-17)
(0.9958173176 0.004288400073 8.734894266e-19)
(0.897522686 -0.9182573715 7.432389492e-18)
(0.9284140421 -0.751068484 -1.024454442e-17)
(0.9577335134 -0.6229456559 1.146700908e-18)
(0.9741823157 -0.5208464681 -2.035283035e-17)
(0.9923542645 -0.4404281111 5.802763939e-19)
(1.001681694 -0.3744985823 9.548219258e-18)
(1.013623745 -0.321151179 -1.054631615e-17)
(1.01876151 -0.2763707985 -1.727071834e-17)
(1.026740332 -0.2391801443 2.329021752e-18)
(1.029089756 -0.2073794011 -2.414055617e-19)
(1.034277439 -0.1802322298 6.748423328e-18)
(1.034557837 -0.156704858 -3.893394266e-18)
(1.037593709 -0.1359794957 -3.62553128e-17)
(1.036178984 -0.1178704003 3.628295848e-17)
(1.037413464 -0.1013090875 -1.328052307e-17)
(1.034483096 -0.08680274736 3.509423389e-17)
(1.034094107 -0.07292793715 8.282421876e-18)
(1.029706863 -0.06081771794 2.901441041e-17)
(1.027761309 -0.04861609027 3.290013556e-17)
(1.021896537 -0.03806812439 1.239766859e-18)
(1.01838989 -0.02681732983 4.258328047e-18)
(1.010949814 -0.0172073234 6.813634623e-18)
(1.005973151 -0.00654935017 -2.137715511e-19)
(0.9953293 0.00439991288 -3.029010295e-17)
(1.001315811 -0.9299519208 1.015681941e-18)
(1.013309191 -0.7606337123 -5.869858382e-18)
(1.028146509 -0.6308790298 -2.020298341e-17)
(1.033054721 -0.5274795654 9.04061809e-18)
(1.042136798 -0.4460370392 9.024313822e-19)
(1.044012007 -0.3792678442 -1.975824318e-18)
(1.049924062 -0.3252410183 3.33294807e-18)
(1.050000225 -0.2798903761 9.799199142e-18)
(1.053775309 -0.2422260878 -5.5898111e-19)
(1.052530258 -0.2100203684 -1.367997665e-17)
(1.054649423 -0.1825274757 -3.484807794e-18)
(1.052270502 -0.1587004672 -9.403568891e-18)
(1.052963703 -0.1377111663 1.241822294e-17)
(1.049502078 -0.1193714192 -1.344121891e-17)
(1.048864544 -0.102599194 9.506649085e-18)
(1.044294498 -0.08790808928 -1.520404906e-17)
(1.042337177 -0.07385659712 -5.952309878e-18)
(1.036581107 -0.0615921455 -2.944113116e-18)
(1.03325635 -0.04923512679 -3.204705838e-17)
(1.026199294 -0.03855278268 1.238215336e-17)
(1.021420931 -0.02715869323 8.271111023e-19)
(1.012894634 -0.01742631863 2.008710981e-18)
(1.006713261 -0.006632581004 2.046452135e-18)
(0.9948317934 0.004456126499 1.500853749e-19)
(1.105765814 -0.9299519444 -2.582506805e-18)
(1.098741748 -0.7606337201 -2.398154704e-18)
(1.09900526 -0.6308789163 -2.325073092e-17)
(1.092299868 -0.5274794364 1.180915995e-17)
(1.092234528 -0.4460369041 1.353449355e-18)
(1.086610341 -0.3792676654 4.167248299e-18)
(1.086454204 -0.325240828 -3.202475471e-18)
(1.081436702 -0.279890208 8.266212033e-18)
(1.080981407 -0.2422259383 -4.367602477e-18)
(1.076119097 -0.2100202463 -1.546360397e-17)
(1.075150307 -0.182527384 -1.763746817e-17)
(1.070095216 -0.1587003897 5.557031348e-18)
(1.068430929 -0.1377111208 1.650220589e-17)
(1.062909456 -0.1193713606 -2.084979767e-17)
(1.06038808 -0.102599164 -1.623261727e-17)
(1.054168001 -0.08790803127 1.434432667e-17)
(1.050632434 -0.07385658444 -2.369846757e-18)
(1.043498903 -0.06159210501 -9.22209874e-19)
(1.038786203 -0.04923512066 -6.604646492e-18)
(1.030529341 -0.03855270041 -1.632435576e-17)
(1.024471185 -0.02715863338 -5.791825628e-18)
(1.014851828 -0.01742623301 -3.053628275e-18)
(1.007458079 -0.00663250138 -2.73332726e-17)
(0.9943311962 0.004456250709 2.499451579e-17)
(1.209558946 -0.9182571352 -6.211589463e-18)
(1.183636901 -0.7510681771 6.342163003e-18)
(1.169418234 -0.6229450218 -1.581439608e-17)
(1.151172258 -0.5208458904 -6.367793829e-18)
(1.142017051 -0.440427555 -1.439628039e-18)
(1.128940636 -0.374497976 -4.691126011e-18)
(1.122754499 -0.3211505513 2.776007917e-18)
(1.112675391 -0.2763702752 -2.004646017e-17)
(1.10801635 -0.2391796651 -2.076473207e-17)
(1.099559553 -0.2073789906 3.550411419e-19)
(1.095522234 -0.1802318797 2.494034848e-17)
(1.087807808 -0.1567045105 9.804428063e-19)
(1.083800846 -0.1359792069 3.651326557e-18)
(1.076232468 -0.1178700506 -2.874082065e-18)
(1.071839085 -0.1013087853 1.062089302e-18)
(1.063979336 -0.08680237844 1.94635348e-17)
(1.058875455 -0.07292766394 4.583026088e-18)
(1.050373112 -0.0608174121 1.696651856e-17)
(1.044281222 -0.04861584135 7.567171728e-18)
(1.034832076 -0.03806772633 2.933108012e-17)
(1.027502208 -0.02681695023 4.117978373e-18)
(1.016796634 -0.0172069607 1.550506124e-17)
(1.008198168 -0.006548950816 -6.098826274e-18)
(0.9938336614 0.004400354796 -1.59667714e-17)
(1.311390156 -0.8950148367 -4.50250487e-18)
(1.266927458 -0.732057653 8.278251929e-18)
(1.238500351 -0.6071773676 -6.443927409e-18)
(1.208931953 -0.5076624991 3.294108454e-18)
(1.190858674 -0.4292796541 -5.879480735e-19)
(1.170470888 -0.3650188104 1.590371956e-18)
(1.158368702 -0.3130216741 9.79967952e-18)
(1.143323654 -0.269374869 1.196637236e-17)
(1.13454031 -0.2331256191 1.684896388e-17)
(1.122556965 -0.2021298819 1.885165104e-17)
(1.115509124 -0.1756699263 5.399086726e-18)
(1.105185635 -0.1527380639 -1.068942369e-17)
(1.098880297 -0.1325373747 1.267411357e-19)
(1.089303709 -0.1148865558 -7.82118362e-18)
(1.083073713 -0.09874450859 -1.905263692e-17)
(1.073605288 -0.08460523702 -1.85312716e-17)
(1.066962729 -0.07108175802 -8.458010534e-18)
(1.05711745 -0.05927799378 -3.145513456e-17)
(1.049672418 -0.04738530339 7.506997345e-18)
(1.039053527 -0.03710410076 -2.652628103e-17)
(1.030475954 -0.02613812738 -2.166411233e-18)
(1.018704718 -0.01677134639 2.656273513e-18)
(1.008924271 -0.006383119321 -2.161435297e-17)
(0.9933455641 0.004289095392 4.714945532e-17)
(1.409978631 -0.8605171081 -1.525248308e-18)
(1.347565594 -0.7038409987 1.444195793e-17)
(1.305382491 -0.583774037 2.84489823e-18)
(1.264852208 -0.4880949368 -2.85628917e-19)
(1.238144868 -0.4127332975 -3.645895924e-18)
(1.210678532 -0.3509493392 -1.52467139e-17)
(1.192848706 -0.3009563856 5.71046604e-18)
(1.172995857 -0.2589919386 -9.396994694e-18)
(1.160219553 -0.2241398951 -1.059988135e-17)
(1.144821955 -0.1943388695 -1.106070412e-17)
(1.13485945 -0.1688988065 5.401558032e-18)
(1.122009974 -0.146850813 -1.17604231e-17)
(1.113479436 -0.1274287601 2.023030611e-18)
(1.101958586 -0.1104582386 -1.014972835e-17)
(1.093950463 -0.0949383894 4.174257174e-17)
(1.082924593 -0.08134406771 1.936177291e-17)
(1.074792377 -0.06834186937 1.649174484e-17)
(1.063646931 -0.05699305124 -1.370760599e-18)
(1.054891878 -0.04555877771 4.440603255e-18)
(1.043140483 -0.03567382016 -4.642013682e-18)
(1.033354969 -0.02513053224 -1.599981658e-17)
(1.020551986 -0.01612479837 -6.4000446e-18)
(1.009627223 -0.006136970738 -4.137527687e-17)
(0.9928729407 0.004123897413 -9.502296177e-20)
(1.504084794 -0.8151979682 -2.856983013e-18)
(1.424537621 -0.6667732297 1.241129977e-18)
(1.369223922 -0.5530295102 1.40959849e-17)
(1.318230153 -0.4623893608 -4.662823985e-18)
(1.28328128 -0.3909966368 -7.64616987e-18)
(1.249058221 -0.3324665107 -3.965701182e-18)
(1.225761147 -0.2851064323 6.548967335e-18)
(1.201319094 -0.2453520597 -3.756925381e-18)
(1.184731368 -0.2123355112 -7.948248071e-18)
(1.166074759 -0.1841039638 2.03226863e-17)
(1.153330117 -0.1600037262 -6.381287681e-18)
(1.138069503 -0.1391168723 -1.444233887e-17)
(1.127414943 -0.1207177169 2.068646972e-17)
(1.114038218 -0.1046409073 9.685283585e-19)
(1.104332805 -0.08993845355 -2.051154648e-17)
(1.091820282 -0.07706002777 7.765548818e-18)
(1.082266118 -0.06474264941 -1.618845399e-17)
(1.069879603 -0.05399146841 -2.762663791e-17)
(1.059874064 -0.04315943407 2.140712236e-19)
(1.047041648 -0.033794992 1.523889669e-18)
(1.036103086 -0.02380700464 1.226631661e-17)
(1.02231528 -0.01527551592 2.230776064e-17)
(1.010298203 -0.005813717763 3.258438025e-18)
(0.9924218194 0.003906820803 -1.55595155e-17)
(1.592524998 -0.7596271547 -1.032794823e-17)
(1.496875213 -0.6213203423 2.086514138e-18)
(1.429221472 -0.5153302703 -3.432797495e-18)
(1.368394192 -0.430868971 6.609944313e-18)
(1.32570001 -0.3643429692 -5.573867144e-18)
(1.285127026 -0.3098027573 1.875133793e-18)
(1.256691883 -0.2656711374 5.556190698e-18)
(1.227936924 -0.2286267822 -7.176547673e-18)
(1.207767251 -0.197860929 -5.459571073e-19)
(1.186047839 -0.1715538843 4.453023633e-18)
(1.170688557 -0.1490965399 -6.892674716e-18)
(1.153161972 -0.1296334797 1.016321883e-18)
(1.14051127 -0.1124885871 2.994752862e-18)
(1.125390417 -0.09750765459 -1.080581729e-17)
(1.114089915 -0.08380746404 3.328945171e-18)
(1.100180263 -0.07180688406 4.401376271e-18)
(1.089289789 -0.06032919307 1.028836259e-17)
(1.075736941 -0.05031086135 6.235096844e-18)
(1.064556232 -0.04021725663 -9.409152042e-18)
(1.050707875 -0.03149112743 -2.157732555e-18)
(1.038685711 -0.02218402114 -1.148701477e-17)
(1.023972358 -0.01423411013 5.357269917e-18)
(1.010928749 -0.005417308291 -7.377731357e-18)
(0.9919977878 0.003640609288 2.928318636e-18)
(1.674187245 -0.6945036636 1.255234659e-18)
(1.563669018 -0.568054057 1.440071639e-18)
(1.484620951 -0.4711505269 -4.152437607e-18)
(1.414713807 -0.3939301899 -4.777845662e-19)
(1.364867896 -0.333107507 -4.72474561e-20)
(1.318431647 -0.2832430582 -4.921810416e-18)
(1.285252203 -0.2428948748 2.509661167e-18)
(1.25251489 -0.2090263716 7.088185497e-18)
(1.229037792 -0.1808981095 -7.407281265e-18)
(1.204490318 -0.1568463848 6.708055431e-18)
(1.186716787 -0.1363143559 3.954112545e-18)
(1.167097889 -0.1185198481 -1.115591618e-17)
(1.152604029 -0.1028448494 1.676761394e-18)
(1.135872696 -0.08914819281 9.641912419e-18)
(1.123099345 -0.07662259115 6.825879225e-19)
(1.107899612 -0.06565077286 -1.2093834e-18)
(1.095775231 -0.0551571484 1.057489931e-17)
(1.081145417 -0.04599763735 1.47685243e-18)
(1.06887959 -0.03676943253 2.867835513e-19)
(1.054093144 -0.02879132062 -3.205496837e-18)
(1.041070411 -0.02028216824 2.205942377e-17)
(1.025502459 -0.01301375794 1.668524433e-17)
(1.011510976 -0.004952856924 2.564845674e-17)
(0.9916062807 0.003328585793 -3.744484017e-18)
(1.748044388 -0.6206463301 3.485788309e-19)
(1.62407874 -0.5076441385 2.558978016e-18)
(1.534725376 -0.4210457722 -2.687259944e-18)
(1.45660619 -0.352037534 -1.472689541e-18)
(1.400292106 -0.2976830518 -3.78853016e-18)
(1.348552975 -0.2531214771 5.504426346e-18)
(1.311082681 -0.2170641392 2.696375676e-18)
(1.274743632 -0.1867974241 4.832606803e-18)
(1.248275221 -0.1616604866 6.238560199e-18)
(1.221169981 -0.1401665541 -2.097753069e-18)
(1.201212946 -0.1218180379 6.183389632e-18)
(1.179701717 -0.1059158545 1.354429942e-18)
(1.163540866 -0.09190785149 -8.879690965e-18)
(1.145352992 -0.07966770151 -5.688107746e-19)
(1.131247569 -0.06847417122 -5.983255689e-18)
(1.114881074 -0.05866907843 1.37968335e-18)
(1.101640731 -0.04929144271 -1.687560874e-17)
(1.086036897 -0.04110593762 -1.333833418e-18)
(1.072789674 -0.0328591471 -1.579290334e-18)
(1.057154789 -0.02572940903 -2.243983113e-18)
(1.043227127 -0.01812518996 -7.35932998e-18)
(1.026886239 -0.01162972514 -7.193942708e-18)
(1.012037482 -0.004426071202 -6.945535795e-18)
(0.9912520895 0.002974704611 -2.548522034e-18)
(1.813167844 -0.5389840594 -1.308209038e-18)
(1.677345013 -0.4408503357 7.124970565e-19)
(1.578904949 -0.3656461706 -3.965034119e-18)
(1.493544821 -0.3057178081 2.33718127e-18)
(1.431527427 -0.2585150578 -2.9823669e-18)
(1.375112493 -0.2198167116 1.746719901e-18)
(1.333858742 -0.1885036538 2.551581412e-18)
(1.294343877 -0.1622193183 -4.379126016e-18)
(1.265237879 -0.1403898119 -5.947906024e-18)
(1.235877336 -0.1217239521 -8.90195643e-19)
(1.213994998 -0.1057897023 2.167601697e-18)
(1.1908152 -0.09197981737 9.775475635e-19)
(1.17318448 -0.0798149993 7.046970173e-18)
(1.153712281 -0.06918528942 -2.350545781e-18)
(1.138432304 -0.05946464181 3.75468002e-18)
(1.121036996 -0.05094958705 4.877810139e-18)
(1.10681266 -0.04280591779 1.269745404e-18)
(1.090349969 -0.03569734906 -1.408015567e-19)
(1.076237408 -0.02853572273 -3.802870705e-18)
(1.059854405 -0.02234399382 7.100509676e-21)
(1.045128826 -0.01574036841 -3.453973057e-18)
(1.028106412 -0.01009948747 1.629938323e-17)
(1.01250175 -0.003843702576 2.020284111e-18)
(0.9909398188 0.002583383795 8.049058461e-18)
(1.868738415 -0.450543711 2.837814076e-18)
(1.722797664 -0.3685125819 3.630296866e-18)
(1.616603798 -0.3056483589 6.499752293e-19)
(1.525064887 -0.2555535535 1.644711551e-18)
(1.458180802 -0.2160961394 3.156414059e-18)
(1.397775943 -0.1837477192 4.346750642e-19)
(1.353293727 -0.1575727326 -2.287563683e-18)
(1.311068905 -0.135601345 -7.601388077e-19)
(1.279712228 -0.1173537943 3.072588514e-18)
(1.248427214 -0.1017507563 6.171931555e-19)
(1.224901999 -0.08843114932 4.444950478e-18)
(1.2002984 -0.07688722976 -1.436657475e-18)
(1.181413429 -0.06671855326 -6.646918879e-19)
(1.16084531 -0.05783294683 -4.350815677e-18)
(1.144563075 -0.04970738693 1.168636306e-18)
(1.126289876 -0.04258943718 3.838003578e-18)
(1.111225886 -0.03578210159 2.4326889e-19)
(1.094030328 -0.02983985876 5.643638951e-19)
(1.079179358 -0.02385342187 2.451385948e-18)
(1.062157965 -0.01867758838 2.328442315e-18)
(1.046751508 -0.01315757263 -1.407800036e-18)
(1.02914753 -0.00844224675 -4.38499666e-18)
(1.01289784 -0.003212974262 2.38665746e-18)
(0.9906732555 0.00215956085 2.606717531e-18)
(1.914057505 -0.3564375664 2.673021736e-18)
(1.75986541 -0.2915405901 -1.266071554e-18)
(1.647348118 -0.2418068645 -5.604849198e-19)
(1.550770279 -0.2021755445 1.058886163e-18)
(1.479917287 -0.1709596561 2.087829707e-18)
(1.416258549 -0.1453679234 -2.038890507e-18)
(1.369143433 -0.1246601655 1.589423018e-19)
(1.324708581 -0.1072779948 -1.387204595e-19)
(1.291516415 -0.0928418706 8.612870261e-19)
(1.258661944 -0.08049785018 -1.679310848e-18)
(1.233796917 -0.0699604013 -1.361866807e-18)
(1.208032161 -0.06082761047 9.258848106e-19)
(1.188124315 -0.05278298451 3.070318857e-19)
(1.166662429 -0.04575322616 -9.420406167e-19)
(1.14956283 -0.0393249836 3.982892537e-18)
(1.130573673 -0.03369365733 -3.000249126e-18)
(1.114824941 -0.02830830805 -3.40252819e-18)
(1.097031702 -0.02360711352 2.081324767e-18)
(1.08157856 -0.0188711877 2.783260255e-19)
(1.064036533 -0.01477632067 3.938110283e-19)
(1.048074814 -0.01040936318 -1.790589494e-18)
(1.029996562 -0.006678853482 3.583765945e-18)
(1.013220836 -0.002541887905 -3.613139526e-18)
(0.9904558509 0.001708567823 -3.280850826e-18)
(1.948554976 -0.2578489752 2.808072903e-18)
(1.788081809 -0.2109023176 -6.906854707e-20)
(1.670751017 -0.1749245319 -3.050958068e-19)
(1.570337483 -0.1462551324 7.236031893e-19)
(1.49646332 -0.123673332 1.202157665e-18)
(1.430327685 -0.1051601617 2.858206848e-19)
(1.38120838 -0.09018005413 8.828756513e-19)
(1.33509124 -0.07760571885 -4.944129696e-19)
(1.300501889 -0.06716256594 5.678043295e-19)
(1.266452744 -0.05823281169 -5.875639632e-19)
(1.240567848 -0.05061002573 2.165114752e-18)
(1.213919217 -0.0440032163 2.013181501e-19)
(1.193232755 -0.03818378301 1.252854251e-19)
(1.171090526 -0.03309826984 1.853725899e-18)
(1.153368743 -0.02844814851 1.491861006e-18)
(1.133834589 -0.02437425384 -4.03165642e-19)
(1.117564622 -0.02047857519 -8.269896328e-19)
(1.099316418 -0.0170775458 -3.678275215e-19)
(1.083404887 -0.01365165578 9.138993335e-19)
(1.065466532 -0.01068926646 -8.675698908e-19)
(1.049082134 -0.007530259215 -1.53447157e-18)
(1.030642851 -0.004831503501 -1.300829165e-18)
(1.013466691 -0.001838845519 1.124359133e-18)
(0.9902903224 0.001236050591 -2.643880076e-18)
(1.971797222 -0.1560178124 1.602455776e-18)
(1.807092299 -0.1276118216 4.107803586e-19)
(1.686518434 -0.1058424209 -6.786126822e-19)
(1.583520656 -0.08849543336 1.642905099e-19)
(1.507611007 -0.07483169064 8.858792121e-19)
(1.43980658 -0.06362986122 3.901508664e-19)
(1.389336959 -0.05456578472 6.558511463e-19)
(1.342086394 -0.04695738384 -1.242559602e-19)
(1.306555692 -0.04063853506 1.072204742e-18)
(1.271701637 -0.03523532538 2.566763782e-20)
(1.245129606 -0.03062308192 5.517914169e-19)
(1.217885455 -0.02662532971 6.728784384e-19)
(1.196674405 -0.02310430414 3.113501299e-19)
(1.174073781 -0.02002698797 3.146818799e-19)
(1.155932809 -0.01721350784 1.058967509e-18)
(1.136031454 -0.0147482755 -7.696663918e-20)
(1.119410326 -0.01239129915 -9.650696133e-19)
(1.100855588 -0.01033319724 -5.271836497e-19)
(1.08463524 -0.008260460557 2.922652271e-19)
(1.066429844 -0.006467790329 -1.392610538e-18)