/*--------------------------------*- C++ -*----------------------------------*\
| =========                 |                                                 |
| \\      /  F ield         | foam-extend: Open Source CFD                    |
|  \\    /   O peration     | Version:  3.0                                   |
|   \\  /    A nd           | Web:         http://www.extend-project.de       |
|    \\/     M anipulation  |                                                 |
\*---------------------------------------------------------------------------*/
FoamFile
{
    version     2.0;
    format      ascii;
    class       volScalarField;
    location    "6";
    object      p;
}
// * * * * * * * * * * * * * * * * * * * * * * * * * * * * * * * * * * * * * //

dimensions      [0 0 0 0 0 0 0];

internalField   nonuniform List<scalar> 
2000
(
-0.0607881
-0.0424626
-0.0271454
-0.0206889
-0.00444239
-0.00492163
0.0111828
0.00852529
0.0229673
0.0205293
-0.0412446
-0.0240141
-0.00963343
-0.00183135
0.0117481
0.0131027
0.027193
0.023089
0.0379253
0.030563
-0.0236238
-0.00803502
0.00535412
0.0111337
0.0257516
0.0253324
0.0411025
0.0372864
0.052808
0.0455784
0.00322525
0.0169378
0.029712
0.0350585
0.0472216
0.047086
0.058497
0.0540023
0.0640156
0.0566818
0.0193683
0.0320475
0.0418075
0.0482066
0.0570653
0.0598315
0.0688325
0.0673339
0.0782896
0.0695755
0.0496238
0.0598967
0.0697512
0.0739478
0.0823155
0.0827834
0.0887267
0.085456
0.0903283
0.0830218
0.0662924
0.0753017
0.0812985
0.0870787
0.0909642
0.0948022
0.0980573
0.0980247
0.103768
0.0963898
0.0961249
0.1025
0.109365
0.112145
0.117987
0.118402
0.122475
0.118762
0.123271
0.113819
0.115654
0.120467
0.123005
0.128074
0.128468
0.13269
0.132618
0.133005
0.135996
0.12934
0.142132
0.144169
0.14775
0.149036
0.152075
0.153096
0.155191
0.153219
0.157498
0.148722
-0.157308
-0.125738
-0.110382
-0.0863162
-0.0796544
-0.0580511
-0.059671
-0.0421776
-0.0468869
-0.0355046
-0.158892
-0.127025
-0.112852
-0.0863025
-0.0817024
-0.0568555
-0.0599765
-0.0395241
-0.0449895
-0.032479
-0.147889
-0.118017
-0.102509
-0.0805556
-0.0741857
-0.0533822
-0.0565181
-0.0382576
-0.044273
-0.0311748
-0.152082
-0.121341
-0.106621
-0.0819286
-0.075076
-0.053017
-0.0522143
-0.0349031
-0.0364894
-0.0260019
-0.133641
-0.106243
-0.0910021
-0.0722472
-0.0642085
-0.0471182
-0.0457441
-0.0309306
-0.0313589
-0.0196852
-0.136514
-0.108548
-0.0921587
-0.0723178
-0.0607378
-0.0444804
-0.03745
-0.0252284
-0.0204182
-0.0136553
-0.115154
-0.0906593
-0.0754278
-0.0607347
-0.0496742
-0.0382721
-0.0305478
-0.0218946
-0.0145695
-0.00906086
-0.112752
-0.0885176
-0.0711059
-0.0575164
-0.0414026
-0.0336732
-0.0193497
-0.0154814
-0.00310337
-0.00150955
-0.0913172
-0.0700035
-0.0545023
-0.0448173
-0.0303309
-0.0267957
-0.0131411
-0.0126287
0.000471732
0.00106607
-0.0806276
-0.0599306
-0.0437068
-0.0336186
-0.0181913
-0.0149869
-0.000249933
-0.00204881
0.0115576
0.00996357
-0.0370403
-0.0325014
-0.0290132
-0.0253372
-0.0257535
-0.0168697
-0.024858
-0.0125328
-0.0222868
-0.0151469
-0.0183818
-0.0181396
-0.0162033
-0.0190754
-0.0111458
-0.0184117
-0.00578384
-0.0133317
-0.00242438
-0.00523828
-0.0340553
-0.0308327
-0.0271328
-0.0260227
-0.0258636
-0.0192068
-0.0263849
-0.0149324
-0.0233131
-0.0162692
-0.0195031
-0.0172818
-0.0182068
-0.0169849
-0.0133513
-0.0170544
-0.00732238
-0.0142836
-0.00210987
-0.0071795
-0.0334257
-0.0271307
-0.0243714
-0.0175115
-0.0176068
-0.00857442
-0.0130128
-0.00563392
-0.0107506
-0.0074217
-0.00978158
-0.00889259
-0.00918754
-0.0112383
-0.00534271
-0.0129921
-0.00140679
-0.0100877
-0.000156516
-0.00438544
-0.0264213
-0.0256639
-0.0229312
-0.0225413
-0.0209213
-0.017502
-0.018218
-0.0125755
-0.0149256
-0.0112743
-0.0147097
-0.0112516
-0.0156619
-0.0130795
-0.010988
-0.0151916
-0.00466287
-0.0131916
-0.000480962
-0.00686388
-0.0187218
-0.0160468
-0.0104709
-0.00930602
-0.00400517
-0.00272078
-0.000733756
-0.000472877
-0.000655012
0.000596787
-0.00217461
0.00140042
-0.00338655
-0.0025111
-0.00166088
-0.0067632
0.00137299
-0.0066107
0.00148172
-0.00316525
-0.00861935
-0.0139824
-0.00396824
-0.0104034
-0.00191211
-0.00610959
0.00224123
-0.00267137
0.00168069
-0.00196473
-0.0053235
-0.00310365
-0.00921163
-0.00639212
-0.00721719
-0.00944749
-0.00260145
-0.00720606
-0.00150814
-0.00139342
-0.000821142
-0.00742489
0.00541323
-0.000837627
0.0112155
0.00207667
0.0130938
0.00535149
0.0110233
0.0101918
0.00753125
0.0104309
0.00304789
0.00566475
0.00160507
-0.000743596
0.00250869
-0.0022216
0.000671968
0.000102985
0.00920045
-0.000438231
0.011715
0.00435006
0.0152854
0.00897353
0.0198134
0.0109282
0.0187034
0.00954216
0.01059
0.00736395
0.00321885
0.00295622
0.000366913
-0.00148032
-0.000410134
-0.00106076
-0.00128484
0.000687437
0.0130798
0.00592829
0.0166091
0.0136725
0.0219152
0.0136039
0.026361
0.0143778
0.0260887
0.0194144
0.0212393
0.0194667
0.0133732
0.0141564
0.00787363
0.00859284
0.00374145
0.0033095
0.00282386
-0.000852115
0.0224167
0.015186
0.019044
0.0186551
0.0249329
0.0209211
0.0318641
0.0229565
0.031508
0.021843
0.0238706
0.0186933
0.0136136
0.0117123
0.00478044
0.00661129
0.00167497
0.00268775
0.00194875
-0.00107365
0.027652
0.0300453
0.0270279
0.0252303
0.0302877
0.0203824
0.0339483
0.0216998
0.0352818
0.0282035
0.0310525
0.029898
0.0231587
0.023904
0.0143453
0.0145551
0.00695227
0.00640366
0.00338765
0.000536543
0.04373
0.0382779
0.0304445
0.0341972
0.0294903
0.032484
0.0372157
0.0304554
0.0401462
0.0265162
0.0319433
0.0217474
0.0191253
0.0155197
0.00962731
0.0103231
0.00565644
0.0048566
0.00229438
0.000776834
0.0470142
0.0460013
0.0420287
0.0421258
0.0401469
0.0392485
0.0399346
0.0354493
0.0412561
0.0329403
0.0389826
0.0309631
0.030019
0.0248501
0.0187679
0.015283
0.0104993
0.00896536
0.00325643
0.0034793
0.0601247
0.0535403
0.0452655
0.0449438
0.0386845
0.0389981
0.039654
0.0361954
0.0413412
0.032967
0.035798
0.0255835
0.024979
0.0179763
0.0159662
0.0119693
0.00879648
0.00613384
0.00201763
0.00235756
0.063687
0.0573309
0.0551858
0.0537249
0.0500095
0.0512662
0.0473263
0.0463483
0.0461298
0.0397346
0.0419013
0.0328439
0.0321633
0.0239791
0.0220136
0.0140765
0.0131066
0.00832576
0.00405482
0.00332651
0.0752833
0.0658589
0.0611128
0.0543782
0.0487651
0.0458469
0.0435756
0.0413239
0.0427617
0.0383912
0.0379076
0.0316882
0.0295512
0.0232211
0.0213264
0.0143446
0.0124936
0.00721809
0.00478543
0.0024837
0.0743729
0.066893
0.0649662
0.0576978
0.0571931
0.0542218
0.0518958
0.0524398
0.0481573
0.0464392
0.0408338
0.0370058
0.0298475
0.0254174
0.0232098
0.0135505
0.0148829
0.00663803
0.00534547
0.00240553
0.082741
0.076705
0.071819
0.0616273
0.0581587
0.0527107
0.0488428
0.0477129
0.0432833
0.0424119
0.0383117
0.0364293
0.0336481
0.0286373
0.0269545
0.0181158
0.0184023
0.009307
0.00897444
0.00234171
0.0800937
0.0754356
0.0659069
0.060902
0.0570432
0.0553505
0.0523825
0.0541794
0.0480598
0.0482309
0.0407471
0.0381468
0.0306763
0.0254852
0.0249816
0.0141847
0.0176493
0.0081233
0.00744151
0.00247163
0.0840185
0.0819022
0.0710832
0.0697968
0.0603861
0.0604829
0.0526471
0.052006
0.0462309
0.0438629
0.0417564
0.0390564
0.0383122
0.031732
0.0314805
0.0222
0.0228051
0.012024
0.0120125
0.00051266
0.0822066
0.0770189
0.0646318
0.0658914
0.0529211
0.059577
0.0476742
0.053275
0.0445601
0.0446465
0.0394197
0.034901
0.032174
0.0246124
0.0260806
0.017044
0.0196977
0.0105154
0.00930873
0.000921645
0.0835241
0.0789306
0.0690942
0.0722475
0.0586833
0.0652253
0.0503873
0.0544722
0.0458637
0.0444197
0.042455
0.0397849
0.0394746
0.0337279
0.0337939
0.0263805
0.0252162
0.0160473
0.0133494
0.00073707
0.0797563
0.0708578
0.0659986
0.0638859
0.052119
0.057756
0.0419238
0.049308
0.037163
0.0407598
0.0323698
0.0312587
0.0279017
0.0244343
0.0235478
0.0202247
0.0177488
0.0126786
0.00856156
0.00129772
0.0817886
0.076514
0.0708123
0.0694586
0.0593559
0.062024
0.046803
0.0522222
0.0400882
0.0435778
0.0371559
0.0375085
0.037299
0.0338874
0.0351039
0.0291245
0.0262966
0.020463
0.0131681
0.00497206
0.0730305
0.0677854
0.0621725
0.0598353
0.0506117
0.0507591
0.0399897
0.0419475
0.0318024
0.0348173
0.0245297
0.0268378
0.0221711
0.02385
0.0212048
0.0200827
0.0151211
0.0126326
0.00782704
0.00298106
0.0758276
0.079102
0.066613
0.0695365
0.0585686
0.0556562
0.0466654
0.0426777
0.0360869
0.0364131
0.0318555
0.0316618
0.0330357
0.0306821
0.032578
0.0287021
0.0237004
0.0205097
0.0115424
0.00596933
0.0660225
0.0740877
0.0582143
0.0615371
0.0493672
0.0466327
0.0405587
0.0359715
0.0295096
0.0280265
0.0206836
0.022321
0.0192523
0.0220793
0.0188656
0.0186507
0.0139476
0.0113951
0.00926215
0.00157737
0.0705846
0.0757318
0.0625536
0.0656456
0.0569977
0.0507303
0.0453287
0.0361572
0.0325113
0.0293631
0.0274874
0.0266513
0.0267156
0.0253259
0.0254474
0.0249948
0.0198337
0.0171642
0.00997266
0.00292105
0.0668503
0.0776528
0.0609313
0.063594
0.0516451
0.0470537
0.041078
0.0350582
0.0284836
0.0247624
0.0216213
0.0206162
0.0211457
0.020221
0.0185586
0.0185722
0.0143099
0.0120697
0.00822047
0.000984673
0.0700962
0.0733684
0.0638096
0.0621301
0.0554332
0.0488646
0.0421533
0.0357624
0.0288016
0.0255064
0.0240532
0.0225792
0.0235838
0.02107
0.020656
0.020718
0.0162655
0.0142751
0.00721512
0.00201704
0.158621
0.137821
0.123068
0.106272
0.0912239
0.083097
0.0664116
0.0599318
0.0446979
0.0363466
0.145563
0.131158
0.117264
0.10632
0.0912424
0.0853415
0.0733134
0.0684977
0.0579689
0.0483855
0.158698
0.142023
0.128292
0.1149
0.10205
0.094992
0.081745
0.0776498
0.0660992
0.0542976
0.146909
0.134489
0.125122
0.115745
0.102951
0.0988718
0.0887019
0.0848767
0.0780338
0.0640696
0.157169
0.141348
0.131693
0.119921
0.109877
0.103733
0.0928958
0.08927
0.081616
0.0674318
0.150578
0.136306
0.131106
0.12053
0.110917
0.105549
0.0988388
0.0915811
0.0920867
0.0755355
0.154264
0.139918
0.13303
0.124153
0.115257
0.11074
0.10189
0.0978932
0.0904769
0.0799914
0.150952
0.135136
0.131349
0.12064
0.111461
0.107105
0.100945
0.0979993
0.0976323
0.0862234
0.151774
0.139719
0.132728
0.127643
0.116584
0.113828
0.103817
0.100073
0.0949818
0.0874152
0.146628
0.130909
0.127379
0.118034
0.109982
0.105175
0.10298
0.0967834
0.0994043
0.0896588
0.150409
0.139932
0.131897
0.127195
0.116273
0.108537
0.104292
0.0940993
0.0962999
0.0872774
0.141362
0.127623
0.125997
0.117608
0.114194
0.104897
0.106324
0.0938773
0.096333
0.0880836
0.146897
0.138412
0.127638
0.123664
0.112855
0.106444
0.101735
0.0939196
0.0920595
0.0842813
0.137958
0.128428
0.12563
0.120696
0.115023
0.107734
0.103324
0.0948315
0.0897822
0.087539
0.142759
0.135959
0.123757
0.120717
0.111493
0.108217
0.099897
0.0958099
0.0866309
0.0804955
0.136997
0.13004
0.124865
0.12144
0.113528
0.108626
0.100688
0.0939993
0.0867964
0.0882791
0.1409
0.133747
0.122642
0.118826
0.11118
0.108391
0.0982811
0.0948537
0.0780054
0.0817905
0.137825
0.131841
0.124802
0.12091
0.113689
0.109816
0.100179
0.0949631
0.0839696
0.0851322
0.140223
0.132756
0.122874
0.118446
0.110608
0.108712
0.0975853
0.0942041
0.0758129
0.083112
0.139309
0.133096
0.124286
0.120007
0.112681
0.110417
0.0992785
0.0958966
0.0799308
0.082427
0.275263
0.284908
0.281431
0.298007
0.293361
0.314016
0.313757
0.333287
0.34192
0.362787
0.262451
0.274131
0.268977
0.285631
0.282002
0.299228
0.298491
0.315536
0.321509
0.340011
0.259719
0.26828
0.261928
0.273483
0.269496
0.284237
0.283669
0.298903
0.304856
0.321618
0.250665
0.255982
0.253614
0.261238
0.262215
0.271784
0.273353
0.285096
0.290076
0.304623
0.238469
0.246608
0.238529
0.246404
0.243825
0.251789
0.252992
0.261759
0.266382
0.278234
0.227509
0.232451
0.231313
0.235631
0.237843
0.242302
0.243977
0.250418
0.253601
0.263765
0.209566
0.217334
0.210199
0.215084
0.214964
0.217373
0.220273
0.223336
0.226689
0.233549
0.197696
0.204373
0.201759
0.206
0.206176
0.208171
0.208267
0.210314
0.211404
0.216766
0.17997
0.189035
0.182533
0.185592
0.184732
0.184613
0.185105
0.185419
0.185633
0.187989
0.164945
0.17272
0.168806
0.171546
0.170597
0.16934
0.168996
0.166772
0.166238
0.166377
0.35703
0.362732
0.367572
0.376234
0.382844
0.396888
0.405377
0.425225
0.440119
0.471872
0.354887
0.360155
0.365162
0.372663
0.379145
0.391011
0.400354
0.417869
0.433844
0.464195
0.35228
0.354984
0.363961
0.370425
0.379486
0.394286
0.402497
0.424069
0.438093
0.46951
0.345061
0.351066
0.354386
0.364411
0.367354
0.381735
0.388199
0.406362
0.42098
0.44992
0.340124
0.345478
0.350165
0.360612
0.365454
0.383646
0.389778
0.412362
0.425923
0.455729
0.328142
0.338652
0.336988
0.351092
0.350054
0.367341
0.370641
0.389954
0.402217
0.429198
0.319312
0.331113
0.329435
0.345429
0.344794
0.365771
0.369649
0.391673
0.404758
0.431938
0.305097
0.321196
0.314397
0.333425
0.328231
0.348224
0.348407
0.368412
0.378051
0.402622
0.293719
0.307943
0.30347
0.322456
0.318891
0.341024
0.3433
0.364256
0.376019
0.400169
0.283711
0.300444
0.29352
0.310747
0.306532
0.324095
0.324378
0.342594
0.350669
0.372247
0.348042
0.353858
0.348855
0.351625
0.350472
0.345039
0.351154
0.342381
0.349209
0.344516
0.34742
0.345308
0.349665
0.343509
0.352394
0.345968
0.351895
0.350975
0.353088
0.355944
0.346325
0.351537
0.348198
0.348506
0.350414
0.34224
0.348661
0.341232
0.344681
0.343032
0.343836
0.342265
0.34573
0.339845
0.347394
0.342679
0.347605
0.349076
0.350117
0.353879
0.346721
0.350129
0.348286
0.348134
0.350101
0.342321
0.352163
0.340685
0.348436
0.344067
0.344182
0.34591
0.346545
0.344734
0.350832
0.345015
0.350237
0.346452
0.349627
0.348521
0.344623
0.346611
0.345903
0.342919
0.346752
0.337116
0.345506
0.334321
0.341815
0.33552
0.339786
0.336196
0.338586
0.333545
0.338922
0.33345
0.339975
0.339049
0.342385
0.34373
0.34358
0.344817
0.345947
0.342324
0.346309
0.336599
0.346631
0.336347
0.340586
0.340007
0.334633
0.340791
0.335378
0.34008
0.339965
0.33985
0.342512
0.339269
0.341852
0.339017
0.341671
0.339269
0.342468
0.336848
0.340334
0.333727
0.338964
0.32732
0.335137
0.328485
0.332003
0.331883
0.330158
0.330122
0.329389
0.328219
0.329149
0.330697
0.330078
0.331198
0.338886
0.338412
0.344005
0.336397
0.340963
0.33213
0.335996
0.331637
0.33239
0.331637
0.325815
0.329576
0.322054
0.327053
0.32459
0.327004
0.327489
0.326918
0.324982
0.324422
0.336323
0.332124
0.335428
0.327185
0.332379
0.326953
0.328674
0.324261
0.323883
0.324559
0.322001
0.326586
0.320581
0.323396
0.320961
0.317052
0.317792
0.314541
0.314348
0.311342
0.334237
0.332858
0.34121
0.331361
0.338656
0.326859
0.33091
0.326951
0.326191
0.32387
0.319071
0.318062
0.312814
0.313276
0.311622
0.306884
0.31115
0.303936
0.302729
0.297649
0.332321
0.326227
0.329512
0.319987
0.324335
0.31847
0.321147
0.317111
0.317049
0.317262
0.316796
0.316401
0.31453
0.309943
0.309309
0.298336
0.302177
0.288494
0.291468
0.286026
0.332131
0.331597
0.334747
0.329842
0.33166
0.323774
0.326525
0.320485
0.32196
0.315317
0.313099
0.305156
0.304232
0.296669
0.297205
0.287577
0.292142
0.278205
0.281443
0.269602
0.327828
0.324886
0.324933
0.320077
0.320576
0.314809
0.316684
0.311164
0.312634
0.312129
0.311431
0.309816
0.30846
0.297508
0.301555
0.281357
0.288875
0.269158
0.272666
0.264584
0.33229
0.332041
0.329044
0.326882
0.324379
0.318943
0.319166
0.313878
0.312821
0.307164
0.307613
0.294916
0.302983
0.285053
0.293883
0.277462
0.281071
0.266643
0.264049
0.256876
0.32461
0.322072
0.323457
0.317792
0.319517
0.311746
0.314775
0.306889
0.310503
0.304622
0.307004
0.29869
0.299305
0.286364
0.287792
0.273635
0.274211
0.264557
0.260639
0.258559
0.331956
0.328512
0.327269
0.320325
0.319606
0.311841
0.312248
0.305414
0.305686
0.299705
0.301621
0.291483
0.295871
0.282065
0.284138
0.273198
0.268461
0.261596
0.252639
0.251985
0.324185
0.318435
0.322521
0.313531
0.317668
0.308048
0.314163
0.3025
0.307999
0.298624
0.300289
0.291506
0.289145
0.280442
0.275007
0.271415
0.262235
0.265626
0.250856
0.255496
0.330312
0.325034
0.326006
0.314913
0.316294
0.303929
0.308399
0.297391
0.302798
0.293651
0.296827
0.288235
0.288729
0.278579
0.272991
0.269123
0.255823
0.2581
0.246717
0.245453
0.324879
0.318936
0.321818
0.313018
0.316601
0.305524
0.311585
0.298224
0.302967
0.292438
0.292735
0.285159
0.280575
0.276339
0.264381
0.268546
0.253079
0.259852
0.247074
0.245713
0.328706
0.321373
0.324951
0.30965
0.314607
0.298141
0.305185
0.29234
0.299355
0.28852
0.291943
0.283268
0.282215
0.273837
0.264386
0.261737
0.248638
0.249547
0.244517
0.237761
0.329289
0.322602
0.326903
0.313373
0.320309
0.303743
0.311269
0.295747
0.30057
0.287332
0.285988
0.279245
0.272458
0.270333
0.259472
0.257402
0.249264
0.242803
0.242481
0.230944
0.328601
0.319352
0.324717
0.307288
0.314409
0.295764
0.301652
0.287443
0.293364
0.283092
0.284708
0.276161
0.274516
0.264813
0.261262
0.25114
0.24736
0.238786
0.23901
0.228623
0.336388
0.329628
0.33255
0.318395
0.323416
0.306565
0.311555
0.294464
0.298651
0.282921
0.281434
0.272413
0.266117
0.260796
0.254749
0.245868
0.242358
0.231279
0.232024
0.219236
0.330003
0.323721
0.323539
0.313055
0.313795
0.298621
0.300431
0.284022
0.289341
0.276262
0.278822
0.267117
0.266152
0.255099
0.254653
0.243981
0.241398
0.231169
0.229162
0.217682
0.340046
0.335037
0.333593
0.324979
0.323901
0.311521
0.30984
0.292978
0.293036
0.276374
0.276419
0.263018
0.260252
0.251016
0.24745
0.239449
0.235497
0.226281
0.225405
0.211572
0.333659
0.330144
0.326163
0.320078
0.315743
0.304037
0.302988
0.285604
0.287962
0.269702
0.273534
0.259568
0.258438
0.249422
0.245185
0.236288
0.234334
0.219682
0.22152
0.205141
0.340829
0.336308
0.334378
0.327195
0.324204
0.312432
0.307007
0.291868
0.287261
0.271902
0.269452
0.256496
0.253097
0.245611
0.243898
0.234816
0.236975
0.219293
0.226446
0.204108
0.337185
0.33493
0.330639
0.325223
0.31809
0.308077
0.304085
0.288089
0.286167
0.266367
0.268322
0.25464
0.253567
0.245209
0.240737
0.229676
0.233957
0.211907
0.222576
0.197336
0.340765
0.336954
0.334029
0.328266
0.322685
0.312136
0.303938
0.291193
0.284808
0.269601
0.266585
0.252139
0.250898
0.242492
0.24368
0.231367
0.236799
0.21522
0.224337
0.200304
0.338936
0.336438
0.331946
0.327005
0.319278
0.3105
0.303853
0.290126
0.284778
0.266716
0.266436
0.249774
0.253781
0.240008
0.242281
0.228843
0.23358
0.215379
0.222061
0.19949
0.340145
0.336313
0.332688
0.327189
0.321032
0.311837
0.303358
0.291209
0.284258
0.267977
0.266717
0.248316
0.253918
0.239143
0.244486
0.23005
0.233592
0.217007
0.220191
0.201253
0.270876
0.263024
0.266211
0.253724
0.247927
0.231683
0.2201
0.204182
0.191759
0.172954
0.259805
0.250519
0.248934
0.2382
0.22755
0.215099
0.201891
0.188087
0.174103
0.159587
0.253138
0.245205
0.248913
0.236122
0.23335
0.219449
0.211152
0.197375
0.186764
0.170619
0.251106
0.244047
0.239559
0.228089
0.219241
0.206393
0.197465
0.181524
0.172522
0.157259
0.243243
0.236849
0.236858
0.221185
0.221612
0.206103
0.202378
0.187037
0.181213
0.16404
0.242905
0.239663
0.229965
0.2185
0.212528
0.197231
0.194366
0.176694
0.173221
0.156169
0.240193
0.23056
0.230394
0.211467
0.2142
0.195056
0.196122
0.177017
0.176671
0.157846
0.23904
0.229202
0.223842
0.204132
0.205133
0.183146
0.187933
0.168302
0.170034
0.151701
0.237842
0.222414
0.224012
0.200806
0.208065
0.184834
0.192415
0.169044
0.1739
0.154219
0.231945
0.217797
0.21507
0.192947
0.197156
0.17208
0.181506
0.158625
0.164499
0.143997
0.23067
0.213677
0.21089
0.192403
0.196533
0.177163
0.185068
0.16245
0.169705
0.151421
0.223097
0.20546
0.206955
0.187747
0.191853
0.168446
0.177797
0.152442
0.159826
0.138054
0.220707
0.203085
0.202989
0.184752
0.186521
0.171088
0.175894
0.157636
0.163799
0.149678
0.21684
0.194602
0.20137
0.180862
0.189992
0.167886
0.175259
0.151241
0.155906
0.136747
0.210411
0.193556
0.198873
0.18164
0.18341
0.167331
0.168968
0.154283
0.158141
0.148287
0.213927
0.189746
0.196405
0.177901
0.184861
0.168034
0.170757
0.153187
0.153327
0.138949
0.206113
0.185012
0.193773
0.178964
0.181429
0.166297
0.164898
0.151868
0.154668
0.145828
0.209304
0.187239
0.194703
0.178103
0.183227
0.166095
0.168378
0.153071
0.153283
0.141932
0.204165
0.18294
0.191087
0.176103
0.181184
0.164387
0.165563
0.149835
0.154295
0.143569
0.203999
0.185451
0.192679
0.177052
0.183456
0.163729
0.167803
0.150533
0.154322
0.143322
)
;

boundaryField
{
    down
    {
        type            symmetryPlane;
    }
    right
    {
        type            fixedValue;
        value           uniform 0;
    }
    up
    {
        type            symmetryPlane;
    }
    left
    {
        type            zeroGradient;
    }
    cylinder
    {
        type            implicitExtrapolation;
    }
    defaultFaces
    {
        type            empty;
    }
}


// ************************************************************************* //
