/*--------------------------------*- C++ -*----------------------------------*\
| =========                 |                                                 |
| \\      /  F ield         | foam-extend: Open Source CFD                    |
|  \\    /   O peration     | Version:  3.0                                   |
|   \\  /    A nd           | Web:         http://www.extend-project.de       |
|    \\/     M anipulation  |                                                 |
\*---------------------------------------------------------------------------*/
FoamFile
{
    version     2.0;
    format      ascii;
    class       volSymmTensorField;
    location    "6";
    object      sigma;
}
// * * * * * * * * * * * * * * * * * * * * * * * * * * * * * * * * * * * * * //

dimensions      [0 0 0 0 0 0 0];

internalField   nonuniform List<symmTensor> 
2000
(
(0.0511031 -0.0459328 3.9583e-14 0.0084645 3.49454e-14 3.62794e-31)
(0.0512003 -0.0476366 1.05666e-13 8.09521e-05 8.63323e-14 3.67974e-31)
(0.0499843 -0.047731 1.56047e-13 -0.00595363 1.23935e-13 3.82883e-31)
(0.0478989 -0.0469251 1.911e-13 -0.010121 1.49542e-13 3.82916e-31)
(0.0455341 -0.0454743 2.13251e-13 -0.0132948 1.65583e-13 3.79383e-31)
(0.0428703 -0.0437579 2.25265e-13 -0.0154561 1.74267e-13 3.73895e-31)
(0.040423 -0.0416804 2.29703e-13 -0.017413 1.77472e-13 3.61323e-31)
(0.0377267 -0.0397279 2.28807e-13 -0.0187477 1.7678e-13 3.44302e-31)
(0.0357084 -0.0372989 2.24687e-13 -0.0206204 1.7363e-13 3.25611e-31)
(0.032607 -0.0353142 2.20375e-13 -0.0214909 1.70162e-13 3.05511e-31)
(0.055553 -0.0377119 6.04765e-14 -0.00142906 5.33176e-14 3.6289e-31)
(0.0567332 -0.0384368 1.48013e-13 -0.0102611 1.19937e-13 3.96883e-31)
(0.0561884 -0.0379843 2.12199e-13 -0.0164079 1.67964e-13 4.19274e-31)
(0.0545565 -0.0369608 2.54741e-13 -0.0205561 1.99759e-13 4.37508e-31)
(0.0524309 -0.0354277 2.80057e-13 -0.023551 2.19024e-13 4.47767e-31)
(0.0500462 -0.0337617 2.92564e-13 -0.0256401 2.29007e-13 4.42944e-31)
(0.0475733 -0.0317833 2.96074e-13 -0.0272188 2.32401e-13 4.31601e-31)
(0.0450442 -0.0301036 2.93714e-13 -0.0283619 2.31391e-13 4.13665e-31)
(0.0423384 -0.0280918 2.88017e-13 -0.0290278 2.27747e-13 3.90754e-31)
(0.0391841 -0.0268702 2.81418e-13 -0.0289834 2.2343e-13 3.70193e-31)
(0.0579074 -0.0284957 9.4758e-14 -0.00943173 8.37276e-14 3.62458e-31)
(0.0597641 -0.0281526 2.09794e-13 -0.0182785 1.69323e-13 4.34319e-31)
(0.059657 -0.0272524 2.89785e-13 -0.0242664 2.29677e-13 5.00243e-31)
(0.0583753 -0.0261592 3.39323e-13 -0.0282197 2.67839e-13 5.30418e-31)
(0.0565035 -0.0248297 3.66058e-13 -0.030965 2.89495e-13 5.37978e-31)
(0.0543525 -0.0235172 3.76726e-13 -0.0328223 2.99343e-13 5.29504e-31)
(0.0520039 -0.0220527 3.76676e-13 -0.0340553 3.011e-13 5.12747e-31)
(0.0495611 -0.0207538 3.6994e-13 -0.0348129 2.97612e-13 4.91613e-31)
(0.0466863 -0.0192305 3.59461e-13 -0.0347988 2.91e-13 4.69666e-31)
(0.0433215 -0.0177564 3.47628e-13 -0.0339434 2.83309e-13 4.53926e-31)
(0.057607 -0.0186912 1.51644e-13 -0.0149365 1.3479e-13 2.98476e-31)
(0.059947 -0.0172347 3.00291e-13 -0.0235773 2.42749e-13 4.95788e-31)
(0.0601798 -0.0158594 3.96619e-13 -0.0292683 3.16602e-13 6.03073e-31)
(0.0591841 -0.0147216 4.50809e-13 -0.0329363 3.60143e-13 6.48276e-31)
(0.0574543 -0.0136386 4.75512e-13 -0.0353136 3.82137e-13 6.57472e-31)
(0.0554317 -0.0127218 4.80644e-13 -0.0368133 3.89339e-13 6.43669e-31)
(0.0530166 -0.0118094 4.73464e-13 -0.0375316 3.86818e-13 6.21372e-31)
(0.0505003 -0.0110265 4.59074e-13 -0.037744 3.78253e-13 5.94365e-31)
(0.0474636 -0.0100853 4.40959e-13 -0.0371002 3.6625e-13 5.66658e-31)
(0.0440426 -0.00905965 4.21705e-13 -0.0357347 3.53112e-13 5.29954e-31)
(0.0549399 -0.00887053 2.46327e-13 -0.0183231 2.2093e-13 4.72099e-31)
(0.0573149 -0.0064067 4.32728e-13 -0.026271 3.52492e-13 6.49491e-31)
(0.0576634 -0.0047172 5.42671e-13 -0.0314054 4.39008e-13 7.66116e-31)
(0.0568599 -0.00361463 5.96127e-13 -0.0346151 4.84737e-13 8.09553e-31)
(0.0553033 -0.0028503 6.12959e-13 -0.0366031 5.03074e-13 8.08536e-31)
(0.0534556 -0.00232748 6.07155e-13 -0.0377083 5.03566e-13 7.82227e-31)
(0.0511613 -0.00191847 5.88176e-13 -0.0380686 4.92973e-13 7.51385e-31)
(0.0487379 -0.00153164 5.62249e-13 -0.0378892 4.75957e-13 7.13133e-31)
(0.0458267 -0.000998507 5.33384e-13 -0.0369598 4.55666e-13 6.80091e-31)
(0.0426191 -0.000254765 5.04325e-13 -0.0354469 4.34665e-13 6.16224e-31)
(0.0495353 0.000501489 4.02572e-13 -0.0191172 3.65041e-13 4.44375e-31)
(0.051768 0.00386376 6.24819e-13 -0.0261198 5.15748e-13 8.73615e-31)
(0.0521116 0.00582995 7.39665e-13 -0.0305212 6.09898e-13 1.00684e-30)
(0.0514318 0.00687261 7.82451e-13 -0.0332088 6.50931e-13 1.02568e-30)
(0.0500054 0.00730864 7.82455e-13 -0.0347523 6.58747e-13 1.02145e-30)
(0.0483264 0.00743315 7.583e-13 -0.0355098 6.46359e-13 9.61307e-31)
(0.0461973 0.00734572 7.2163e-13 -0.0355602 6.22423e-13 9.10628e-31)
(0.0439758 0.00728193 6.79592e-13 -0.0351588 5.92578e-13 8.59666e-31)
(0.0413303 0.00735291 6.36497e-13 -0.0340882 5.60432e-13 7.95191e-31)
(0.0385302 0.00766415 5.95034e-13 -0.0326198 5.28687e-13 7.29383e-31)
(0.0418474 0.00892543 6.54774e-13 -0.0179373 6.00726e-13 1.1594e-30)
(0.0436419 0.0129447 8.98246e-13 -0.0236396 7.54603e-13 1.29634e-30)
(0.0438955 0.0150377 9.99765e-13 -0.0271671 8.44046e-13 1.34422e-30)
(0.0433043 0.0159851 1.01589e-12 -0.0292156 8.68029e-13 1.306e-30)
(0.0420977 0.0161224 9.86469e-13 -0.0303355 8.54682e-13 1.26452e-30)
(0.0406541 0.0159224 9.34476e-13 -0.0307406 8.20731e-13 1.17352e-30)
(0.0388422 0.0154286 8.73107e-13 -0.0305944 7.76553e-13 1.09159e-30)
(0.0369351 0.0150367 8.09842e-13 -0.030054 7.28478e-13 1.03527e-30)
(0.0347094 0.0147289 7.48817e-13 -0.0290096 6.80289e-13 9.57068e-31)
(0.0323916 0.0147604 6.92308e-13 -0.0277253 6.34547e-13 8.67196e-31)
(0.0318275 0.0158406 1.04732e-12 -0.0145729 9.71944e-13 1.79667e-30)
(0.0331523 0.0203574 1.27599e-12 -0.018838 1.09381e-12 1.7961e-30)
(0.0332603 0.0225323 1.33298e-12 -0.0213963 1.15535e-12 1.75126e-30)
(0.032774 0.02337 1.29951e-12 -0.0228219 1.14296e-12 1.63813e-30)
(0.0317765 0.0232415 1.22455e-12 -0.0235418 1.09357e-12 1.56283e-30)
(0.0306494 0.0227468 1.13357e-12 -0.0236894 1.02689e-12 1.43355e-30)
(0.0292131 0.0219143 1.03983e-12 -0.0234449 9.54175e-13 1.31736e-30)
(0.0277436 0.021204 9.5008e-13 -0.0229074 8.81737e-13 1.21472e-30)
(0.0260356 0.0205701 8.67533e-13 -0.0219895 8.12983e-13 1.11933e-30)
(0.0243004 0.0203049 7.93561e-13 -0.0209664 7.49898e-13 1.00605e-30)
(0.0201963 0.0208493 1.62798e-12 -0.00985682 1.5267e-12 2.40383e-30)
(0.0209317 0.0256483 1.77649e-12 -0.0125265 1.55496e-12 2.34867e-30)
(0.0209196 0.0278207 1.74321e-12 -0.0140889 1.55207e-12 2.23261e-30)
(0.0205352 0.0285676 1.63096e-12 -0.0148358 1.47677e-12 2.05299e-30)
(0.0198476 0.0282448 1.49196e-12 -0.015178 1.37283e-12 1.88227e-30)
(0.0190508 0.0275452 1.35025e-12 -0.0150691 1.26057e-12 1.70836e-30)
(0.018093 0.0264821 1.21666e-12 -0.0147706 1.15042e-12 1.55475e-30)
(0.0170752 0.025567 1.09564e-12 -0.0142491 1.04744e-12 1.41517e-30)
(0.0159433 0.0247139 9.88545e-13 -0.0135421 9.53825e-13 1.28859e-30)
(0.0147717 0.0242923 8.95252e-13 -0.012797 8.70415e-13 1.15906e-30)
(0.00725595 0.023522 2.43231e-12 -0.0039344 2.30156e-12 3.14482e-30)
(0.00744645 0.0284701 2.40447e-12 -0.00497593 2.14649e-12 3.01288e-30)
(0.00730475 0.0306351 2.22342e-12 -0.00551295 2.03021e-12 2.77898e-30)
(0.00704904 0.0313069 2.00014e-12 -0.00564152 1.86056e-12 2.51819e-30)
(0.00667079 0.0308749 1.77872e-12 -0.00564059 1.68216e-12 2.26413e-30)
(0.00626515 0.0300578 1.57569e-12 -0.00536457 1.51168e-12 2.02809e-30)
(0.00580733 0.0288809 1.39612e-12 -0.00508208 1.35601e-12 1.81092e-30)
(0.00532794 0.0278646 1.24032e-12 -0.00468412 1.21731e-12 1.62048e-30)
(0.00481585 0.0269122 1.10671e-12 -0.00423664 1.09555e-12 1.45616e-30)
(0.00429659 0.0264075 9.93113e-13 -0.00382973 9.89781e-13 1.31357e-30)
(-0.0277643 -0.00678283 4.16797e-15 0.121403 2.10313e-15 1.75774e-31)
(-0.0374186 -0.00707804 1.27117e-14 0.11856 7.0392e-15 1.73915e-31)
(-0.0435843 -0.00711899 1.96895e-14 0.114368 1.09603e-14 1.69161e-31)
(-0.0472346 -0.00703938 2.52636e-14 0.109446 1.39134e-14 1.62487e-31)
(-0.0491756 -0.00687573 2.95986e-14 0.104162 1.60267e-14 1.55479e-31)
(-0.0497019 -0.00667435 3.28785e-14 0.0986892 1.74524e-14 1.479e-31)
(-0.0492013 -0.00646708 3.52886e-14 0.0930411 1.83389e-14 1.39877e-31)
(-0.0478653 -0.00627463 3.70044e-14 0.0872656 1.88168e-14 1.32684e-31)
(-0.0456276 -0.00608524 3.81844e-14 0.0812413 1.89919e-14 1.25742e-31)
(-0.0428359 -0.00597537 3.89689e-14 0.0750693 1.89397e-14 1.19608e-31)
(-0.025106 -0.0197812 4.23414e-15 0.117924 2.44475e-15 1.80093e-31)
(-0.0345306 -0.0207453 1.31171e-14 0.11496 8.0311e-15 1.78464e-31)
(-0.0405958 -0.0209316 2.0499e-14 0.110754 1.24413e-14 1.73173e-31)
(-0.0442383 -0.0206928 2.64295e-14 0.105852 1.57373e-14 1.66409e-31)
(-0.0462117 -0.0202026 3.10425e-14 0.100657 1.80716e-14 1.59161e-31)
(-0.046809 -0.0196291 3.45183e-14 0.0952656 1.96235e-14 1.50688e-31)
(-0.0464144 -0.0190053 3.705e-14 0.089748 2.05683e-14 1.42688e-31)
(-0.04517 -0.0184665 3.88237e-14 0.0840955 2.10633e-14 1.35007e-31)
(-0.043074 -0.0179054 4.0008e-14 0.0782249 2.12451e-14 1.27874e-31)
(-0.0403573 -0.017598 4.07438e-14 0.0721687 2.12335e-14 1.21383e-31)
(-0.0198875 -0.0318736 4.5215e-15 0.111145 3.06134e-15 1.89807e-31)
(-0.0288728 -0.0334204 1.4353e-14 0.107968 1.00021e-14 1.86834e-31)
(-0.0347621 -0.033728 2.25428e-14 0.103706 1.54119e-14 1.81691e-31)
(-0.038364 -0.0333574 2.91172e-14 0.0988602 1.94074e-14 1.72828e-31)
(-0.0404399 -0.0325802 3.4198e-14 0.0937888 2.21925e-14 1.6536e-31)
(-0.041181 -0.0316428 3.79769e-14 0.088579 2.39989e-14 1.56536e-31)
(-0.0410127 -0.0306301 4.06697e-14 0.0833038 2.5051e-14 1.48259e-31)
(-0.0399739 -0.0297324 4.24903e-14 0.0778943 2.55504e-14 1.40312e-31)
(-0.0381431 -0.0288327 4.3637e-14 0.0723428 2.5669e-14 1.32774e-31)
(-0.0355904 -0.0282976 4.42741e-14 0.0665167 2.55463e-14 1.25213e-31)
(-0.0126702 -0.0420926 5.09868e-15 0.101598 3.86544e-15 2.04101e-31)
(-0.0209513 -0.0442846 1.65419e-14 0.098023 1.258e-14 1.98846e-31)
(-0.0265052 -0.0447814 2.60586e-14 0.0936476 1.92878e-14 1.93616e-31)
(-0.0300395 -0.0443161 3.36538e-14 0.0888713 2.41768e-14 1.83935e-31)
(-0.0321931 -0.043292 3.94497e-14 0.0839924 2.75196e-14 1.75309e-31)
(-0.0331208 -0.0420245 4.36666e-14 0.0790526 2.96164e-14 1.6484e-31)
(-0.0332486 -0.0406715 4.65636e-14 0.0741166 3.07557e-14 1.56713e-31)
(-0.0325225 -0.0394437 4.84036e-14 0.0690784 3.11975e-14 1.48452e-31)
(-0.0310926 -0.0382494 4.94341e-14 0.0639736 3.11646e-14 1.39848e-31)
(-0.0288526 -0.0375352 4.98531e-14 0.0584854 3.08339e-14 1.313e-31)
(-0.0036984 -0.0502987 6.05234e-15 0.0897462 4.95219e-15 2.2564e-31)
(-0.0110759 -0.0529815 1.99064e-14 0.0856614 1.59951e-14 2.15026e-31)
(-0.0162189 -0.0536364 3.13868e-14 0.0811303 2.44039e-14 2.08041e-31)
(-0.0196317 -0.0530988 4.0463e-14 0.0763862 3.04559e-14 1.99023e-31)
(-0.0219034 -0.0519026 4.72666e-14 0.0717467 3.45098e-14 1.89295e-31)
(-0.0230802 -0.0503529 5.20679e-14 0.0670904 3.69518e-14 1.77637e-31)
(-0.0235928 -0.048741 5.51941e-14 0.062622 3.81523e-14 1.68341e-31)
(-0.0232923 -0.0472008 5.69827e-14 0.0580516 3.84482e-14 1.58645e-31)
(-0.0224017 -0.0458201 5.77565e-14 0.0535541 3.81351e-14 1.49264e-31)
(-0.0205739 -0.0449029 5.77662e-14 0.0485785 3.74469e-14 1.39951e-31)
(0.00614942 -0.055902 7.53081e-15 0.0764103 6.45816e-15 2.41564e-31)
(-8.41466e-05 -0.059016 2.48187e-14 0.0716163 2.05567e-14 2.36551e-31)
(-0.00461898 -0.0598547 3.90714e-14 0.0667878 3.11993e-14 2.27667e-31)
(-0.00787008 -0.0592791 5.02003e-14 0.0621137 3.87757e-14 2.18128e-31)
(-0.0101858 -0.0579617 5.83616e-14 0.0576685 4.37517e-14 2.07893e-31)
(-0.0116369 -0.0561833 6.39034e-14 0.0534088 4.66179e-14 1.96266e-31)
(-0.0125513 -0.0543425 6.72518e-14 0.0494096 4.78425e-14 1.84576e-31)
(-0.0128005 -0.0525694 6.88496e-14 0.0454384 4.78584e-14 1.73326e-31)
(-0.0125717 -0.0510114 6.91268e-14 0.0416614 4.70598e-14 1.62283e-31)
(-0.011367 -0.0500278 6.84156e-14 0.037343 4.5767e-14 1.51594e-31)
(0.0166087 -0.0589716 9.77985e-15 0.0620773 8.59943e-15 2.65505e-31)
(0.0116393 -0.0622806 3.18488e-14 0.0565117 2.67149e-14 2.5714e-31)
(0.00772781 -0.0631992 4.99157e-14 0.0514015 4.02997e-14 2.48086e-31)
(0.00471255 -0.0626176 6.38119e-14 0.0467371 4.98867e-14 2.38088e-31)
(0.00234257 -0.0612581 7.37507e-14 0.042509 5.60789e-14 2.29994e-31)
(0.000647525 -0.0593473 8.02001e-14 0.0386145 5.94914e-14 2.17455e-31)
(-0.000710727 -0.0574143 8.37214e-14 0.0351174 6.07007e-14 2.04493e-31)
(-0.00154763 -0.0554234 8.48919e-14 0.0318152 6.02421e-14 1.91311e-31)
(-0.00212621 -0.0538483 8.42784e-14 0.0288635 5.8627e-14 1.78223e-31)
(-0.00171842 -0.0527309 8.23294e-14 0.0254055 5.63005e-14 1.65217e-31)
(0.0267223 -0.0593156 1.31998e-14 0.0476395 1.17231e-14 2.74319e-31)
(0.0231217 -0.0626272 4.18467e-14 0.0412071 3.51267e-14 2.76633e-31)
(0.019981 -0.0635798 6.50706e-14 0.0357158 5.25898e-14 2.72703e-31)
(0.0171906 -0.0629995 8.26186e-14 0.0311103 6.48326e-14 2.64116e-31)
(0.0148534 -0.061646 9.48341e-14 0.0270726 7.26489e-14 2.56052e-31)
(0.0128612 -0.0596831 1.02377e-13 0.0235882 7.68112e-14 2.43888e-31)
(0.0111777 -0.0576744 1.0599e-13 0.0205217 7.80061e-14 2.29716e-31)
(0.00967271 -0.0555772 1.06394e-13 0.0179026 7.68412e-14 2.14308e-31)
(0.00834689 -0.0539418 1.04281e-13 0.015695 7.39057e-14 1.98586e-31)
(0.00770994 -0.0529557 1.00214e-13 0.0133011 6.97703e-14 1.83274e-31)
(0.0363058 -0.0571265 1.84482e-14 0.0334305 1.6399e-14 2.91418e-31)
(0.0340192 -0.0601439 5.60732e-14 0.0262385 4.6762e-14 2.97898e-31)
(0.0315473 -0.0609573 8.61581e-14 0.0204868 6.93172e-14 2.95086e-31)
(0.0290339 -0.0603735 1.08414e-13 0.0159325 8.50393e-14 2.92544e-31)
(0.0267131 -0.0590697 1.23474e-13 0.0120879 9.50204e-14 2.86527e-31)
(0.0245704 -0.0572107 1.32333e-13 0.0089174 1.0027e-13 2.75293e-31)
(0.0225678 -0.0553232 1.35993e-13 0.00622172 1.01608e-13 2.61605e-31)
(0.0206022 -0.0532695 1.35297e-13 0.00406687 9.96375e-14 2.44832e-31)
(0.0183683 -0.0517944 1.30905e-13 0.00267965 9.48045e-14 2.25039e-31)
(0.0165425 -0.0505464 1.232e-13 0.00137898 8.74597e-14 2.05061e-31)
(0.0444539 -0.0525552 2.66187e-14 0.020325 2.35865e-14 3.33093e-31)
(0.0434693 -0.0550597 7.64022e-14 0.0123999 6.30792e-14 3.33491e-31)
(0.0417204 -0.055632 1.1544e-13 0.00639268 9.22548e-14 3.38726e-31)
(0.0394083 -0.0550288 1.43569e-13 0.00201214 1.12431e-13 3.34918e-31)
(0.0370634 -0.0538075 1.62034e-13 -0.00152561 1.25202e-13 3.28633e-31)
(0.0345366 -0.0521127 1.72455e-13 -0.00412122 1.32011e-13 3.18244e-31)
(0.0322291 -0.0503872 1.76316e-13 -0.00641135 1.33982e-13 3.04511e-31)
(0.0295111 -0.0483601 1.74659e-13 -0.00783643 1.31789e-13 2.86884e-31)
(0.0270574 -0.0468806 1.67786e-13 -0.00917849 1.25436e-13 2.6525e-31)
(0.023467 -0.0455748 1.54422e-13 -0.00914439 1.13472e-13 2.35336e-31)
(-0.0391135 -0.0057207 3.9457e-14 0.0684127 1.89683e-14 1.13898e-31)
(-0.0359156 -0.00533729 3.9723e-14 0.0623614 1.90443e-14 1.08272e-31)
(-0.033276 -0.00502987 3.9709e-14 0.0568884 1.89104e-14 1.03019e-31)
(-0.0307858 -0.00479194 3.94156e-14 0.0517844 1.85745e-14 9.71511e-32)
(-0.0287218 -0.00459895 3.88529e-14 0.0471332 1.80518e-14 9.15625e-32)
(-0.0266283 -0.00445123 3.80434e-14 0.0427507 1.73663e-14 8.5998e-32)
(-0.0247881 -0.00434949 3.70209e-14 0.0386844 1.65498e-14 8.02136e-32)
(-0.0228257 -0.00427233 3.58276e-14 0.0347922 1.56385e-14 7.47901e-32)
(-0.0209558 -0.00422721 3.45108e-14 0.0311247 1.46698e-14 6.952e-32)
(-0.0189988 -0.00420839 3.31201e-14 0.027571 1.36793e-14 6.44826e-32)
(-0.0169825 -0.00420268 3.17045e-14 0.0241895 1.26996e-14 5.97441e-32)
(-0.0149805 -0.00422588 3.03097e-14 0.020904 1.17583e-14 5.5372e-32)
(-0.0128412 -0.00425465 2.8977e-14 0.0177778 1.08786e-14 5.13976e-32)
(-0.010724 -0.00431535 2.77424e-14 0.0147741 1.00789e-14 4.78664e-32)
(-0.00860681 -0.00437012 2.66357e-14 0.0119423 9.37359e-15 4.48031e-32)
(-0.00646054 -0.00445446 2.56813e-14 0.00932405 8.77343e-15 4.22582e-32)
(-0.00450807 -0.00453472 2.48979e-14 0.00694587 8.28668e-15 4.01761e-32)
(-0.00268312 -0.00461369 2.42991e-14 0.00494527 7.91955e-15 3.86032e-32)
(-0.00124053 -0.00469289 2.38933e-14 0.00337879 7.67698e-15 3.75638e-32)
(-0.000382736 -0.00472833 2.36829e-14 0.00247783 7.56352e-15 3.70313e-32)
(-0.0368038 -0.0168368 4.12229e-14 0.0656916 2.12725e-14 1.15721e-31)
(-0.0338791 -0.0157084 4.15142e-14 0.0598985 2.12829e-14 1.10184e-31)
(-0.0314721 -0.0148064 4.14981e-14 0.0546886 2.10775e-14 1.04626e-31)
(-0.0292147 -0.0141144 4.1166e-14 0.0497823 2.0643e-14 9.89211e-32)
(-0.0273224 -0.0135405 4.05259e-14 0.0453459 1.99919e-14 9.30486e-32)
(-0.025402 -0.0131436 3.96045e-14 0.0411147 1.91548e-14 8.72348e-32)
(-0.0236956 -0.0128387 3.84429e-14 0.0371993 1.81732e-14 8.13798e-32)
(-0.021849 -0.0126561 3.70929e-14 0.0334381 1.7093e-14 7.56545e-32)
(-0.0200925 -0.012536 3.56117e-14 0.0298771 1.596e-14 7.01238e-32)
(-0.0182251 -0.0124962 3.40575e-14 0.0264466 1.48159e-14 6.48407e-32)
(-0.0162986 -0.0125024 3.2486e-14 0.0231528 1.36969e-14 5.9929e-32)
(-0.0143786 -0.0125623 3.09477e-14 0.0199902 1.26328e-14 5.54428e-32)
(-0.0123286 -0.0126543 2.94868e-14 0.0169458 1.16471e-14 5.13336e-32)
(-0.0102853 -0.012811 2.81402e-14 0.0140673 1.0758e-14 4.77235e-32)
(-0.0082461 -0.0129794 2.69381e-14 0.0113271 9.9789e-15 4.46198e-32)
(-0.00619076 -0.0132055 2.59039e-14 0.00882366 9.31952e-15 4.20092e-32)
(-0.0042965 -0.0134283 2.50556e-14 0.00654541 8.78683e-15 3.99085e-32)
(-0.00255605 -0.0136664 2.44061e-14 0.00463476 8.38572e-15 3.83252e-32)
(-0.00117552 -0.0138509 2.39637e-14 0.00314206 8.11944e-15 3.72651e-32)
(-0.000336197 -0.0139311 2.37323e-14 0.00228547 7.98952e-15 3.67299e-32)
(-0.0323423 -0.0270793 4.47822e-14 0.0603921 2.55914e-14 1.1945e-31)
(-0.0299532 -0.0252751 4.51377e-14 0.0551213 2.56333e-14 1.13944e-31)
(-0.0279974 -0.0238976 4.50852e-14 0.0503853 2.53457e-14 1.0827e-31)
(-0.0261693 -0.0228478 4.4623e-14 0.0459054 2.47331e-14 1.02332e-31)
(-0.0246528 -0.0219816 4.37681e-14 0.0418471 2.38285e-14 9.6078e-32)
(-0.0230652 -0.0213967 4.25639e-14 0.0379464 2.2687e-14 8.98125e-32)
(-0.0216271 -0.0209244 4.10737e-14 0.0343183 2.13745e-14 8.34194e-32)
(-0.0200338 -0.0206524 3.93728e-14 0.0308138 1.99583e-14 7.71508e-32)
(-0.0184522 -0.0204527 3.754e-14 0.0274891 1.85005e-14 7.1119e-32)
(-0.0167753 -0.0203933 3.56506e-14 0.0242821 1.70542e-14 6.54327e-32)
(-0.0149885 -0.0203814 3.37721e-14 0.0212011 1.56624e-14 6.01963e-32)
(-0.0132046 -0.0204813 3.19621e-14 0.0182511 1.4358e-14 5.54435e-32)
(-0.0113083 -0.0206115 3.02673e-14 0.0154083 1.31653e-14 5.11486e-32)
(-0.00941054 -0.0208514 2.87245e-14 0.0127314 1.21013e-14 4.73945e-32)
(-0.00752356 -0.0211184 2.73616e-14 0.0101848 1.11777e-14 4.41872e-32)
(-0.00561571 -0.021463 2.61993e-14 0.00787174 1.0402e-14 4.15093e-32)
(-0.00388223 -0.0218333 2.52521e-14 0.00578008 9.77917e-15 3.93685e-32)
(-0.00226349 -0.0222007 2.45301e-14 0.00403234 9.31213e-15 3.77588e-32)
(-0.00101114 -0.0225168 2.40398e-14 0.00269329 9.00283e-15 3.66812e-32)
(-0.000272529 -0.0226519 2.37836e-14 0.00189384 8.85242e-15 3.61364e-32)
(-0.0261353 -0.0358795 5.03405e-14 0.052905 3.08558e-14 1.25201e-31)
(-0.0245254 -0.0335501 5.0743e-14 0.0483419 3.09059e-14 1.19876e-31)
(-0.0232383 -0.0317954 5.05676e-14 0.0442556 3.04616e-14 1.14038e-31)
(-0.021982 -0.0305207 4.98236e-14 0.0403214 2.95537e-14 1.07653e-31)
(-0.0209387 -0.0294674 4.85505e-14 0.036775 2.82539e-14 1.00515e-31)
(-0.0197702 -0.0287898 4.68306e-14 0.0333154 2.66608e-14 9.32699e-32)
(-0.018664 -0.0282383 4.47726e-14 0.0300943 2.48796e-14 8.6035e-32)
(-0.017382 -0.027931 4.24941e-14 0.0269676 2.30078e-14 7.89497e-32)
(-0.0160699 -0.0276987 4.0108e-14 0.0239884 2.11277e-14 7.21951e-32)
(-0.0146336 -0.027636 3.77127e-14 0.0211201 1.93035e-14 6.60148e-32)
(-0.013082 -0.0276323 3.53887e-14 0.0183576 1.75827e-14 6.02958e-32)
(-0.0115169 -0.0277593 3.31983e-14 0.0157161 1.5998e-14 5.51422e-32)
(-0.00983489 -0.0279391 3.11869e-14 0.013178 1.45711e-14 5.06674e-32)
(-0.00816518 -0.0282453 2.93867e-14 0.0107908 1.3315e-14 4.6761e-32)
(-0.00648643 -0.0285923 2.78192e-14 0.00854107 1.22367e-14 4.34844e-32)
(-0.00483242 -0.0290213 2.6498e-14 0.00650036 1.13393e-14 4.07402e-32)
(-0.00328963 -0.0294831 2.54313e-14 0.00467926 1.06239e-14 3.85413e-32)
(-0.00187603 -0.0299331 2.46239e-14 0.00317033 1.00901e-14 3.69166e-32)
(-0.0007903 -0.0303331 2.40782e-14 0.0020204 9.7375e-15 3.58325e-32)
(-9.96509e-05 -0.0304905 2.37934e-14 0.00136628 9.56593e-15 3.52832e-32)
(-0.0185526 -0.0429514 5.81512e-14 0.0437142 3.73799e-14 1.34279e-31)
(-0.0179363 -0.0402912 5.85259e-14 0.0400782 3.73555e-14 1.27833e-31)
(-0.0174513 -0.0383645 5.80433e-14 0.0367727 3.6592e-14 1.21443e-31)
(-0.016933 -0.0370278 5.67439e-14 0.0335145 3.5179e-14 1.13771e-31)
(-0.0164761 -0.035906 5.47282e-14 0.0305738 3.32631e-14 1.0553e-31)
(-0.0158367 -0.0352219 5.21612e-14 0.0276461 3.10149e-14 9.70792e-32)
(-0.0151256 -0.034625 4.92324e-14 0.0249128 2.8595e-14 8.86795e-32)
(-0.0142158 -0.034319 4.61227e-14 0.0222299 2.61362e-14 8.04802e-32)
(-0.0131819 -0.0340631 4.29855e-14 0.0196838 2.37383e-14 7.2844e-32)
(-0.0120536 -0.0340013 3.99394e-14 0.017213 2.14713e-14 6.60782e-32)
(-0.0107433 -0.0340024 3.70694e-14 0.0148537 1.93802e-14 5.99876e-32)
(-0.00943258 -0.0341561 3.44326e-14 0.0126019 1.74917e-14 5.45918e-32)
(-0.00801892 -0.0343621 3.20642e-14 0.0104374 1.58192e-14 4.98809e-32)
(-0.00660027 -0.0347114 2.99837e-14 0.00842862 1.43674e-14 4.5842e-32)
(-0.00517146 -0.0351166 2.82001e-14 0.00652351 1.31356e-14 4.24622e-32)
(-0.0037654 -0.0356117 2.6716e-14 0.00482893 1.21203e-14 3.9661e-32)
(-0.0024866 -0.0361466 2.55298e-14 0.00331772 1.13167e-14 3.74586e-32)
(-0.00130237 -0.0366717 2.46388e-14 0.00209892 1.07202e-14 3.58331e-32)
(-0.00044023 -0.037104 2.40394e-14 0.00117728 1.03273e-14 3.47489e-32)
(0.000112899 -0.0372594 2.37271e-14 0.000663114 1.01353e-14 3.42005e-32)
(-0.0103296 -0.047867 6.85369e-14 0.0334271 4.54761e-14 1.44524e-31)
(-0.0108103 -0.0451382 6.86823e-14 0.0308131 4.51792e-14 1.37703e-31)
(-0.0112154 -0.0432397 6.75117e-14 0.0283027 4.37843e-14 1.29492e-31)
(-0.0113979 -0.0420402 6.51685e-14 0.025781 4.15187e-14 1.20794e-31)
(-0.0115054 -0.0410257 6.19088e-14 0.0234425 3.86693e-14 1.10601e-31)
(-0.0113618 -0.0404512 5.80564e-14 0.0211397 3.55133e-14 1.00346e-31)
(-0.0110536 -0.0399283 5.39194e-14 0.0189362 3.22743e-14 9.05354e-32)
(-0.0105461 -0.0396553 4.97467e-14 0.0167998 2.9112e-14 8.09511e-32)
(-0.00983772 -0.0394276 4.57173e-14 0.0147469 2.61299e-14 7.2974e-32)
(-0.00904087 -0.0393786 4.19472e-14 0.0127673 2.33891e-14 6.54927e-32)
(-0.0080581 -0.0393738 3.85047e-14 0.0108702 2.09202e-14 5.90978e-32)
(-0.00703622 -0.03956 3.54236e-14 0.00906121 1.87344e-14 5.34873e-32)
(-0.00590999 -0.0397903 3.27158e-14 0.00733841 1.68306e-14 4.86364e-32)
(-0.00481589 -0.0401873 3.03796e-14 0.00572417 1.52006e-14 4.44942e-32)
(-0.003686 -0.040643 2.84062e-14 0.0042329 1.38332e-14 4.11916e-32)
(-0.00261681 -0.0411729 2.67834e-14 0.00289765 1.27163e-14 3.82968e-32)
(-0.00162277 -0.0417425 2.54985e-14 0.00173424 1.18384e-14 3.61483e-32)
(-0.000688336 -0.0422777 2.45401e-14 0.000818214 1.119e-14 3.45509e-32)
(-3.61877e-05 -0.0427423 2.38984e-14 0.00014475 1.07637e-14 3.34893e-32)
(0.000421672 -0.0428678 2.35644e-14 -0.000206752 1.05544e-14 3.29532e-32)
(-0.00182212 -0.0506643 8.18702e-14 0.0225888 5.55095e-14 1.57828e-31)
(-0.00359966 -0.0482485 8.1289e-14 0.0210891 5.45044e-14 1.49384e-31)
(-0.00488644 -0.0465812 7.86592e-14 0.0193752 5.19066e-14 1.38891e-31)
(-0.00585544 -0.0456817 7.44553e-14 0.017593 4.82576e-14 1.26971e-31)
(-0.00648347 -0.0448684 6.92735e-14 0.0158527 4.40737e-14 1.14294e-31)
(-0.00683749 -0.0444331 6.36717e-14 0.0141794 3.9753e-14 1.01914e-31)
(-0.00686924 -0.0440214 5.80666e-14 0.0125283 3.55565e-14 9.06756e-32)
(-0.00672798 -0.0438052 5.2726e-14 0.0109734 3.16358e-14 8.0731e-32)
(-0.00633968 -0.0436252 4.77996e-14 0.00944683 2.8067e-14 7.13064e-32)
(-0.00584809 -0.043607 4.33572e-14 0.00800295 2.48792e-14 6.363e-32)
(-0.00518767 -0.0436454 3.94187e-14 0.00660383 2.20731e-14 5.75783e-32)
(-0.00450668 -0.0438477 3.59762e-14 0.00527243 1.96349e-14 5.1793e-32)
(-0.00370202 -0.0441288 3.30076e-14 0.00402404 1.75431e-14 4.69966e-32)
(-0.00293151 -0.04455 3.0485e-14 0.00283747 1.57742e-14 4.2823e-32)
(-0.00208704 -0.0450418 2.83798e-14 0.00177213 1.4305e-14 3.94111e-32)
(-0.00130158 -0.0456282 2.66653e-14 0.000818618 1.31144e-14 3.67724e-32)
(-0.000610023 -0.0462097 2.5318e-14 1.03339e-05 1.21842e-14 3.4689e-32)
(3.2459e-05 -0.046762 2.43186e-14 -0.000584633 1.15e-14 3.31361e-32)
(0.000433904 -0.0471811 2.36522e-14 -0.00102601 1.10509e-14 3.21169e-32)
(0.00077956 -0.047252 2.33058e-14 -0.00117439 1.08294e-14 3.16109e-32)
(0.00602707 -0.0511544 9.84937e-14 0.0119122 6.78769e-14 1.7283e-31)
(0.00314597 -0.0494148 9.59512e-14 0.0113268 6.5202e-14 1.61382e-31)
(0.00115531 -0.0483163 9.04088e-14 0.0102286 6.04185e-14 1.46862e-31)
(-0.00041913 -0.0478955 8.32143e-14 0.00919189 5.46902e-14 1.31099e-31)
(-0.00145199 -0.0474428 7.54666e-14 0.00809113 4.8793e-14 1.15257e-31)
(-0.0022294 -0.0471932 6.78769e-14 0.00711103 4.31624e-14 1.00605e-31)
(-0.00263303 -0.0469265 6.0822e-14 0.00609275 3.8004e-14 8.88092e-32)
(-0.00283751 -0.046777 5.44615e-14 0.00514726 3.33921e-14 7.83682e-32)
(-0.00279039 -0.0466742 4.88333e-14 0.00419725 2.93322e-14 6.92268e-32)
(-0.00264216 -0.0466933 4.39146e-14 0.00328347 2.57976e-14 6.16049e-32)
(-0.00230141 -0.0467891 3.96563e-14 0.00240116 2.27478e-14 5.51542e-32)
(-0.0019391 -0.0470324 3.60013e-14 0.00153283 2.01388e-14 4.956e-32)
(-0.00146174 -0.0473665 3.28934e-14 0.000727944 1.79279e-14 4.48216e-32)
(-0.00102236 -0.0478539 3.0281e-14 -4.09529e-05 1.60764e-14 4.09679e-32)
(-0.000548497 -0.0483855 2.81193e-14 -0.000720242 1.45503e-14 3.7762e-32)
(-9.35003e-05 -0.0490095 2.63703e-14 -0.00130153 1.33211e-14 3.52517e-32)
(0.000325024 -0.0495859 2.5003e-14 -0.00176265 1.23652e-14 3.31628e-32)
(0.000740324 -0.050134 2.39927e-14 -0.00207384 1.16643e-14 3.17142e-32)
(0.000969941 -0.0505022 2.33211e-14 -0.0022677 1.12048e-14 3.0756e-32)
(0.00119429 -0.0505013 2.29726e-14 -0.00229054 1.09775e-14 3.02652e-32)
(0.0130438 -0.0497723 1.18298e-13 0.00148923 8.28589e-14 1.89394e-31)
(0.00878153 -0.0492225 1.10832e-13 0.00204474 7.63638e-14 1.71345e-31)
(0.00636594 -0.0487875 1.00256e-13 0.00147196 6.79784e-14 1.49976e-31)
(0.00434534 -0.0487833 8.92046e-14 0.00123244 5.95934e-14 1.30767e-31)
(0.00306834 -0.0486892 7.88608e-14 0.000702126 5.19109e-14 1.11098e-31)
(0.00202229 -0.0486115 6.96377e-14 0.000406574 4.51259e-14 9.48544e-32)
(0.00133926 -0.0485416 6.15936e-14 -1.77653e-05 3.92325e-14 8.56284e-32)
(0.000820515 -0.0485124 5.46498e-14 -0.000374432 3.41555e-14 7.47524e-32)
(0.000570455 -0.0485423 4.86871e-14 -0.000772443 2.9803e-14 6.58379e-32)
(0.000425879 -0.0486652 4.35845e-14 -0.00118504 2.60858e-14 5.86664e-32)
(0.000432636 -0.0488711 3.92329e-14 -0.00158043 2.2924e-14 5.22961e-32)
(0.000466387 -0.0492087 3.55384e-14 -0.00200971 2.02482e-14 4.69243e-32)
(0.000594771 -0.0496193 3.24222e-14 -0.00238007 1.79994e-14 4.2415e-32)
(0.000727456 -0.0501679 2.98186e-14 -0.00275581 1.61281e-14 3.91542e-32)
(0.000933198 -0.0507438 2.7674e-14 -0.00304193 1.45935e-14 3.59361e-32)
(0.00112512 -0.0513959 2.59448e-14 -0.00329774 1.3362e-14 3.36407e-32)
(0.00126376 -0.0519873 2.45966e-14 -0.00343396 1.24071e-14 3.17245e-32)
(0.00142222 -0.0525255 2.36025e-14 -0.00351894 1.17085e-14 3.03284e-32)
(0.00144654 -0.052848 2.29427e-14 -0.00350355 1.1251e-14 2.94227e-32)
(0.00156504 -0.0528141 2.26013e-14 -0.00345777 1.10242e-14 2.89743e-32)
(0.0181305 -0.0468878 1.38287e-13 -0.008077 9.90286e-14 2.02176e-31)
(0.0133857 -0.047522 1.20805e-13 -0.00686602 8.47784e-14 1.72501e-31)
(0.0108498 -0.0482534 1.04263e-13 -0.00665958 7.19982e-14 1.42153e-31)
(0.00861169 -0.0485264 9.02017e-14 -0.00608555 6.13663e-14 1.21727e-31)
(0.00703553 -0.0488055 7.846e-14 -0.00581964 5.2557e-14 1.03659e-31)
(0.0057573 -0.0488808 6.8646e-14 -0.00551646 4.5214e-14 9.35126e-32)
(0.00479653 -0.0490473 6.04015e-14 -0.00534074 3.90546e-14 7.91833e-32)
(0.00404818 -0.0491827 5.34422e-14 -0.00520489 3.38648e-14 6.98278e-32)
(0.00350857 -0.0494037 4.75483e-14 -0.00512768 2.94806e-14 6.16694e-32)
(0.00309538 -0.0496683 4.25489e-14 -0.00510691 2.57743e-14 5.58815e-32)
(0.00282911 -0.0500066 3.83101e-14 -0.00508916 2.26442e-14 4.91609e-32)
(0.00259999 -0.0504536 3.47254e-14 -0.00513268 2.0009e-14 4.44216e-32)
(0.00244777 -0.0509546 3.17096e-14 -0.00513301 1.78028e-14 4.0424e-32)
(0.00228594 -0.0515873 2.91944e-14 -0.00517451 1.59722e-14 3.72244e-32)
(0.00217494 -0.0522277 2.71249e-14 -0.00513503 1.4474e-14 3.40805e-32)
(0.00209364 -0.0529272 2.54576e-14 -0.005098 1.32738e-14 3.20988e-32)
(0.00201628 -0.0535317 2.4158e-14 -0.00497113 1.23443e-14 3.03756e-32)
(0.00202771 -0.0540817 2.32e-14 -0.00484381 1.16649e-14 2.9037e-32)
(0.00194884 -0.0543836 2.25644e-14 -0.00467247 1.12203e-14 2.82026e-32)
(0.001966 -0.0543242 2.22362e-14 -0.00459619 1.09998e-14 2.78003e-32)
(0.0226959 -0.042264 1.55256e-13 -0.0180642 1.12943e-13 2.03191e-31)
(0.0186503 -0.0439162 1.25747e-13 -0.0156365 8.92839e-14 1.65736e-31)
(0.0151765 -0.0461064 1.05659e-13 -0.0136921 7.37522e-14 1.37998e-31)
(0.0128075 -0.0469493 9.04016e-14 -0.0125164 6.20838e-14 1.17448e-31)
(0.0106592 -0.0476285 7.82048e-14 -0.0113912 5.28038e-14 1.01032e-31)
(0.0091373 -0.0480893 6.82054e-14 -0.0105932 4.5225e-14 8.84142e-32)
(0.00786215 -0.0485238 5.98897e-14 -0.00987741 3.89463e-14 7.66724e-32)
(0.00687305 -0.0489515 5.29134e-14 -0.00934235 3.37004e-14 6.73729e-32)
(0.00610073 -0.0493871 4.70295e-14 -0.0088361 2.9296e-14 5.96308e-32)
(0.00545334 -0.0498641 4.20536e-14 -0.00844943 2.55896e-14 5.32782e-32)
(0.00490002 -0.050377 3.78439e-14 -0.00807138 2.24705e-14 4.75252e-32)
(0.00440479 -0.0509755 3.42896e-14 -0.00777768 1.98516e-14 4.28559e-32)
(0.00395968 -0.0515972 3.1303e-14 -0.00744936 1.76637e-14 3.89737e-32)
(0.00354283 -0.0523151 2.88143e-14 -0.00719877 1.58512e-14 3.57557e-32)
(0.0032106 -0.0530068 2.67679e-14 -0.00685217 1.43699e-14 3.30185e-32)
(0.00292358 -0.0537408 2.51198e-14 -0.00659144 1.31844e-14 3.093e-32)