/*--------------------------------*- C++ -*----------------------------------*\
| =========                 |                                                 |
| \\      /  F ield         | foam-extend: Open Source CFD                    |
|  \\    /   O peration     | Version:  3.0                                   |
|   \\  /    A nd           | Web:         http://www.extend-project.de       |
|    \\/     M anipulation  |                                                 |
\*---------------------------------------------------------------------------*/
FoamFile
{
    version     2.0;
    format      ascii;
    class       volSymmTensorField;
    location    "51";
    object      sigma;
}
// * * * * * * * * * * * * * * * * * * * * * * * * * * * * * * * * * * * * * //

dimensions      [0 0 0 0 0 0 0];

internalField   nonuniform List<symmTensor> 
7680
(
(-0.179996 -0.00320129 -1.46955e-20 0.179948 4.40712e-22 4.79317e-05)
(-0.179313 -0.0035073 5.00911e-20 0.179178 1.2994e-19 0.000134926)
(-0.176687 -0.00369342 1.54534e-21 0.176471 -7.39057e-20 0.000215989)
(-0.172659 -0.00378893 -2.68193e-21 0.172367 6.95619e-20 0.000291937)
(-0.167838 -0.00382655 1.28066e-20 0.167474 -1.82439e-20 0.000363423)
(-0.162404 -0.00382014 -7.30154e-21 0.161973 2.35472e-20 0.000430943)
(-0.156719 -0.00378712 2.48396e-20 0.156224 -5.5913e-20 0.000494891)
(-0.150817 -0.00373465 9.85403e-21 0.150262 -2.05507e-20 0.000555548)
(-0.144919 -0.00367235 8.39353e-21 0.144306 -8.28269e-20 0.000613125)
(-0.139007 -0.00360417 1.71275e-20 0.138339 -1.00481e-20 0.000667743)
(-0.133217 -0.00353554 -3.53908e-20 0.132497 -1.01841e-19 0.000719474)
(-0.127513 -0.00346869 1.87571e-20 0.126745 4.41914e-20 0.000768314)
(-0.121982 -0.00340679 2.62542e-21 0.121168 -8.62823e-20 0.000814228)
(-0.116586 -0.00335107 -3.14105e-20 0.115729 4.95151e-20 0.000857115)
(-0.11138 -0.00330339 -2.40567e-20 0.110483 2.15516e-21 0.000896854)
(-0.106329 -0.00326441 6.43687e-21 0.105395 1.03972e-19 0.000933267)
(-0.101468 -0.00323517 -9.78042e-21 0.100502 -8.70892e-20 0.000966162)
(-0.0967685 -0.003216 -4.03593e-21 0.0957732 1.92089e-19 0.000995298)
(-0.0922516 -0.00320734 2.27944e-20 0.0912312 -1.04729e-19 0.00102043)
(-0.0878959 -0.00320935 -6.44228e-21 0.0868546 1.75251e-19 0.00104127)
(-0.083712 -0.00322208 -2.73364e-20 0.0826545 -5.46183e-20 0.00105753)
(-0.0796862 -0.00324551 -2.96502e-20 0.0786173 1.48239e-19 0.00106889)
(-0.0758211 -0.00327949 -3.42225e-20 0.074746 -2.12029e-20 0.00107505)
(-0.0721108 -0.00332389 -2.25168e-20 0.0710352 1.87561e-19 0.00107565)
(-0.0685514 -0.00337848 -6.96914e-22 0.0674811 -2.62544e-20 0.00107038)
(-0.0651448 -0.0034431 -5.91308e-20 0.0640859 1.51785e-19 0.00105887)
(-0.061881 -0.0035176 8.80946e-21 0.0608402 8.12949e-20 0.00104079)
(-0.05877 -0.00360187 -7.79386e-21 0.0577543 1.21571e-19 0.00101578)
(-0.0557963 -0.00369603 1.67451e-20 0.0548127 7.70815e-20 0.00098351)
(-0.0529777 -0.00379988 -4.26758e-20 0.0520341 4.12624e-20 0.000943627)
(-0.0502939 -0.00391486 -7.87865e-21 0.0493981 3.86012e-20 0.00089583)
(-0.047769 -0.00403847 -3.13096e-20 0.0469292 -1.14959e-20 0.000839798)
(-0.0453831 -0.00417888 1.73882e-20 0.0446079 1.80642e-20 0.000775273)
(-0.0431543 -0.00432131 -5.19473e-20 0.0424523 -1.88182e-20 0.000701984)
(-0.0410863 -0.00449918 7.98735e-21 0.0404666 6.53761e-21 0.000619729)
(-0.0391533 -0.00465852 -7.09144e-20 0.038625 1.47691e-20 0.0005283)
(-0.0374327 -0.00488287 5.70946e-21 0.0370051 -1.08969e-19 0.000427564)
(-0.0358013 -0.00510717 -3.09209e-21 0.0354839 3.75314e-20 0.000317389)
(-0.0344374 -0.00527295 -2.6701e-20 0.0342397 -7.92078e-20 0.000197719)
(-0.033154 -0.00564142 1.57917e-20 0.0330855 -5.2131e-20 6.84916e-05)
(-0.179802 -0.00867858 2.10071e-20 0.179755 5.54247e-21 4.74449e-05)
(-0.179019 -0.00976614 -3.51832e-20 0.178886 6.27019e-20 0.00013355)
(-0.176321 -0.0104641 -3.12784e-20 0.176108 5.44539e-21 0.000213768)
(-0.172243 -0.0108633 4.33804e-20 0.171954 -2.11124e-20 0.000288904)
(-0.167387 -0.0110639 -1.34979e-20 0.167027 -2.92438e-20 0.000359603)
(-0.16193 -0.0111101 -3.07858e-21 0.161504 5.3601e-20 0.000426356)
(-0.15623 -0.0110556 -3.15392e-20 0.155741 5.45802e-20 0.000489554)
(-0.150321 -0.0109231 -1.64464e-20 0.149772 2.55007e-20 0.000549477)
(-0.144421 -0.0107421 -5.63465e-21 0.143814 1.34421e-19 0.000606333)
(-0.138509 -0.0105252 8.96179e-21 0.137849 1.16887e-19 0.000660244)
(-0.132722 -0.0102888 5.21782e-20 0.132011 -1.89542e-20 0.000711282)
(-0.127024 -0.0100401 5.80233e-21 0.126265 7.27371e-20 0.000759447)
(-0.1215 -0.00978849 2.31325e-20 0.120695 -7.58414e-20 0.000804703)
(-0.116111 -0.00953812 5.06999e-20 0.115264 6.46644e-20 0.000846955)
(-0.110913 -0.00929439 3.31362e-20 0.110027 -1.48604e-19 0.000886085)
(-0.105871 -0.00905976 -6.58185e-20 0.104949 -1.48055e-20 0.000921919)
(-0.101018 -0.0088371 6.85235e-20 0.100064 5.92452e-22 0.000954272)
(-0.0963265 -0.00862808 -2.05795e-20 0.0953436 -5.42947e-20 0.000982906)
(-0.0918172 -0.00843385 -1.25305e-20 0.0908096 9.40343e-20 0.00100759)
(-0.0874683 -0.00825578 1.24321e-20 0.0864402 -4.7464e-20 0.00102803)
(-0.0832904 -0.00809373 -5.96724e-20 0.0822464 1.52835e-20 0.00104396)
(-0.0792696 -0.00794907 3.51358e-20 0.0782145 -8.29187e-20 0.00105507)
(-0.0754087 -0.00782074 -4.15869e-21 0.0743476 4.7711e-20 0.00106106)
(-0.0717013 -0.00771025 1.0128e-20 0.0706397 -1.35869e-19 0.00106159)
(-0.0681437 -0.00761585 -8.86778e-20 0.0670874 -1.53035e-21 0.00105635)
(-0.0647374 -0.00753944 7.71095e-20 0.0636924 -8.53216e-20 0.00104498)
(-0.061473 -0.00747873 -4.06497e-20 0.0604458 3.12929e-21 0.00102717)
(-0.0583596 -0.00743618 -4.40199e-21 0.0573571 -4.77619e-20 0.00100254)
(-0.0553827 -0.00740925 -7.06461e-20 0.0544119 -5.84056e-20 0.000970802)
(-0.052559 -0.00740055 -4.20656e-20 0.0516274 1.9043e-20 0.000931577)
(-0.04987 -0.00740924 -4.07414e-20 0.0489854 -2.14769e-20 0.000884578)
(-0.0473374 -0.0074337 -3.75653e-20 0.0465079 6.04891e-22 0.00082947)
(-0.044945 -0.00748484 2.533e-20 0.044179 -5.487e-21 0.000765996)
(-0.0427072 -0.00753769 1.75991e-20 0.0420133 -5.72825e-20 0.000693861)
(-0.0406307 -0.00764837 7.01971e-21 0.0400178 3.44994e-20 0.000612853)
(-0.0386927 -0.00772065 -1.18825e-19 0.03817 -1.99353e-21 0.000522726)
(-0.0369554 -0.00790363 -4.65719e-20 0.0365321 5.43802e-21 0.000423318)
(-0.0353309 -0.00804657 2.58366e-20 0.0350164 2.89258e-20 0.000314443)
(-0.0339415 -0.00818183 -1.12166e-19 0.0337455 -2.73437e-20 0.000196004)
(-0.0326694 -0.00851846 1.37935e-20 0.0326015 3.78484e-20 6.79113e-05)
(-0.179466 -0.0141471 2.64589e-20 0.179419 -3.58155e-20 4.69345e-05)
(-0.178478 -0.0160027 5.85688e-20 0.178346 6.17058e-20 0.000132103)
(-0.175633 -0.0172002 -1.58856e-20 0.175422 -2.0016e-19 0.000211431)
(-0.171451 -0.0178942 -2.97212e-20 0.171166 1.4995e-19 0.000285717)
(-0.166523 -0.0182512 7.4482e-20 0.166168 -1.1791e-19 0.000355594)
(-0.16102 -0.0183456 5.15692e-20 0.160598 -1.19722e-20 0.00042155)
(-0.155289 -0.018266 2.37769e-20 0.154805 -1.04542e-19 0.000483971)
(-0.149364 -0.0180513 6.26581e-20 0.148821 1.2924e-20 0.000543135)
(-0.143456 -0.0177501 8.47118e-20 0.142857 -1.11386e-20 0.000599249)
(-0.137546 -0.0173835 -8.36974e-20 0.136893 -7.44787e-21 0.000652436)
(-0.131766 -0.0169788 -5.27954e-20 0.131063 -1.52186e-19 0.00070277)
(-0.126078 -0.0165481 -2.89626e-20 0.125328 7.22733e-20 0.000750252)
(-0.120567 -0.0161069 3.7872e-21 0.119773 -5.24712e-20 0.000794851)
(-0.115195 -0.0156622 -9.06684e-20 0.114358 5.24792e-20 0.000836476)
(-0.110014 -0.0152229 -9.16402e-20 0.109139 8.03547e-20 0.000875013)
(-0.104989 -0.0147932 1.15522e-19 0.104079 9.23956e-20 0.000910295)
(-0.100154 -0.0143778 -3.33383e-20 0.0992122 6.2635e-20 0.00094214)
(-0.095481 -0.0139797 6.03815e-20 0.0945107 1.55015e-19 0.000970323)
(-0.0909893 -0.0136006 6.09334e-20 0.0899946 -1.44249e-19 0.000994611)
(-0.0866572 -0.0132433 -8.86861e-20 0.0856425 1.27602e-19 0.00101473)
(-0.0824953 -0.0129074 -4.79871e-20 0.0814649 -3.55843e-20 0.00103043)
(-0.0784894 -0.0125955 -1.76356e-20 0.077448 1.29798e-19 0.00104138)
(-0.074642 -0.0123058 -6.92154e-20 0.0735946 -1.33928e-20 0.00104731)
(-0.0709467 -0.0120414 -7.72826e-20 0.0698988 6.38992e-20 0.00104789)
(-0.0673997 -0.0117991 3.99718e-20 0.0663569 1.83344e-19 0.00104281)
(-0.0640024 -0.0115825 -5.74892e-20 0.0629707 1.03842e-19 0.00103173)
(-0.0607451 -0.0113879 5.48713e-20 0.0597307 1.79628e-19 0.00101433)
(-0.0576372 -0.0112192 -6.16805e-20 0.056647 4.45113e-20 0.000990261)
(-0.0546637 -0.0110725 8.21226e-20 0.0537045 1.49724e-19 0.000959191)
(-0.051842 -0.0109513 5.49502e-21 0.0509212 5.49214e-22 0.000920775)
(-0.0491524 -0.0108549 -2.34629e-20 0.0482777 6.90288e-20 0.000874703)
(-0.0466183 -0.0107793 -1.22545e-20 0.0457976 7.80914e-20 0.000820641)
(-0.0442213 -0.0107411 -6.5047e-20 0.043463 1.685e-19 0.000758305)
(-0.0419788 -0.0107049 6.63917e-21 0.0412914 -2.7793e-19 0.000687388)
(-0.0398943 -0.0107427 5.68726e-20 0.0392867 2.00958e-19 0.000607637)
(-0.0379489 -0.0107402 -9.13521e-20 0.0374301 -1.08034e-19 0.000518776)
(-0.036203 -0.0108613 2.62309e-20 0.0357824 5.78439e-21 0.000420584)
(-0.0345693 -0.0109538 -5.1309e-20 0.0342564 1.04538e-19 0.000312825)
(-0.033178 -0.011035 -1.89567e-20 0.0329827 -5.33006e-20 0.000195318)
(-0.0319064 -0.0113461 -1.48578e-20 0.0318386 1.6687e-19 6.78623e-05)
(-0.178988 -0.0196113 7.19806e-20 0.178941 5.80356e-20 4.63696e-05)
(-0.177693 -0.0222044 -9.67453e-20 0.177562 2.26132e-20 0.00013051)
(-0.174626 -0.0238813 -1.00031e-20 0.174417 2.76026e-19 0.000208867)
(-0.17029 -0.0248556 1.33188e-19 0.170008 -2.47077e-19 0.000282227)
(-0.165254 -0.0253585 -1.2283e-19 0.164902 6.61879e-20 0.000351215)
(-0.159678 -0.0254934 9.942e-21 0.159262 6.94478e-20 0.000416313)
(-0.153903 -0.0253836 -2.08141e-20 0.153425 7.41162e-20 0.000477905)
(-0.147952 -0.0250831 5.23358e-20 0.147416 -2.79098e-20 0.000536264)
(-0.142034 -0.0246593 1.48376e-20 0.141443 -1.04992e-19 0.000591599)
(-0.136125 -0.0241417 -6.87376e-20 0.135481 -5.36958e-20 0.000644032)
(-0.130354 -0.0235682 9.61297e-20 0.129661 5.14128e-20 0.000693639)
(-0.124683 -0.0229554 7.68223e-20 0.123942 1.43201e-20 0.000740425)
(-0.119193 -0.0223251 3.18779e-20 0.118408 -1.60347e-19 0.000784364)
(-0.113844 -0.0216868 1.46777e-19 0.113018 1.17754e-19 0.000825366)
(-0.108689 -0.0210529 6.67008e-20 0.107825 -1.25404e-20 0.000863325)
(-0.103691 -0.0204293 -1.16607e-19 0.102793 3.13503e-19 0.000898077)
(-0.0988843 -0.0198224 1.72601e-19 0.0979549 -1.98472e-19 0.00092945)
(-0.0942388 -0.0192366 -2.21322e-19 0.0932816 2.16348e-19 0.000957223)
(-0.0897748 -0.0186742 -1.44983e-20 0.0887936 -1.32598e-19 0.000981176)
(-0.0854694 -0.0181392 1.05202e-19 0.0844684 1.29609e-19 0.00100104)
(-0.0813334 -0.0176308 -5.14411e-20 0.0803168 -1.31354e-19 0.00101656)
(-0.0773517 -0.0171532 5.9534e-20 0.0763243 7.71346e-22 0.00102745)
(-0.0735272 -0.0167035 -6.2502e-20 0.0724938 2.03894e-20 0.00103342)
(-0.0698529 -0.0162865 1.71374e-19 0.0688188 1.57265e-19 0.00103415)
(-0.0663251 -0.0158975 -1.75533e-20 0.0652958 -1.11232e-19 0.00102934)
(-0.0629447 -0.0155421 8.04135e-20 0.0619261 7.76087e-20 0.00101866)
(-0.0597024 -0.0152142 -7.17872e-20 0.0587006 1.15746e-20 0.00100179)
(-0.0566071 -0.0149207 -3.82865e-20 0.0556287 9.66526e-20 0.000978371)
(-0.0536438 -0.0146547 -9.01298e-20 0.0526957 -1.40057e-19 0.000948092)
(-0.0508301 -0.0144227 -1.27029e-19 0.0499195 9.89355e-20 0.000910586)
(-0.0481455 -0.0142215 5.73391e-20 0.0472799 -2.23319e-20 0.000865541)
(-0.0456156 -0.014048 1.05194e-19 0.044803 4.24737e-20 0.0008126)
(-0.0432164 -0.0139222 -3.45194e-19 0.0424649 1.16098e-19 0.000751465)
(-0.0409777 -0.0137963 5.90893e-21 0.040296 -2.21882e-20 0.00068179)
(-0.0388795 -0.0137695 2.17487e-19 0.0382762 1.05644e-19 0.000603292)
(-0.0369443 -0.0136759 -3.38523e-19 0.0364287 3.99293e-20 0.000515638)
(-0.0351696 -0.0137593 1.90784e-19 0.0347511 7.64018e-20 0.00041856)
(-0.0335525 -0.0137594 -2.69509e-20 0.0332407 8.61962e-20 0.00031174)
(-0.0321347 -0.0138082 -3.25114e-20 0.0319398 -9.64657e-20 0.000194932)
(-0.0308662 -0.0140659 -5.56123e-20 0.0307983 -1.65545e-19 6.78483e-05)
(-0.178367 -0.0250641 4.63636e-20 0.178321 -1.28493e-19 4.5764e-05)
(-0.176665 -0.0283598 2.20025e-19 0.176537 -2.27173e-19 0.000128792)
(-0.173306 -0.0304879 -1.13525e-19 0.1731 -3.04857e-19 0.000206101)
(-0.168765 -0.0317221 -1.43178e-19 0.168487 -2.9172e-20 0.000278465)
(-0.163586 -0.0323559 2.66238e-19 0.163239 2.84989e-20 0.000346502)
(-0.157915 -0.0325206 7.93764e-20 0.157505 -1.64094e-19 0.000410687)
(-0.15208 -0.0323732 -1.83159e-20 0.151608 -1.56174e-19 0.000471401)
(-0.146096 -0.0319817 -6.81566e-20 0.145567 9.0666e-20 0.000528916)
(-0.140164 -0.031432 6.73659e-20 0.139581 5.37861e-20 0.000583438)
(-0.134257 -0.0307616 -8.11789e-21 0.133622 1.15057e-19 0.000635094)
(-0.128499 -0.0300184 1.13428e-20 0.127815 -1.96919e-19 0.00068396)
(-0.122848 -0.0292236 -1.99534e-19 0.122118 1.27479e-19 0.000730046)
(-0.117386 -0.0284048 8.38089e-20 0.116612 -1.26394e-19 0.000773327)
(-0.112068 -0.027574 4.39944e-21 0.111255 1.95524e-19 0.000813722)
(-0.106948 -0.0267468 1.15715e-19 0.106097 -1.49598e-20 0.000851126)
(-0.101987 -0.025931 -2.83819e-20 0.101102 1.83853e-19 0.000885385)
(-0.097218 -0.0251345 -6.84605e-20 0.0963017 -2.73254e-19 0.000916331)
(-0.0926103 -0.024363 1.47529e-19 0.0916665 1.02174e-19 0.000943753)
(-0.0881838 -0.0236193 -6.78826e-20 0.0872163 4.79218e-20 0.000967435)
(-0.083915 -0.0229087 -5.47983e-20 0.0829279 -4.51749e-20 0.000987122)
(-0.0798145 -0.02223 -1.98809e-19 0.078812 2.04095e-19 0.00100257)
(-0.0758667 -0.0215889 1.13118e-19 0.0748532 1.69889e-19 0.00101348)
(-0.0720743 -0.0209815 6.48302e-20 0.0710547 1.01891e-19 0.00101959)
(-0.0684298 -0.0204141 -1.46822e-19 0.0674093 -1.79888e-19 0.00102058)
(-0.0649297 -0.0198805 -5.53649e-20 0.0639136 2.79464e-19 0.00101616)
(-0.0615744 -0.0193883 1.07395e-19 0.0605684 -5.00237e-20 0.001006)
(-0.0583546 -0.0189296 1.08379e-19 0.0573648 1.51942e-19 0.000989778)
(-0.0552791 -0.0185129 -1.81174e-19 0.0543119 4.85772e-20 0.000967143)
(-0.0523325 -0.0181296 6.70851e-20 0.0513948 3.07813e-19 0.000937764)
(-0.0495333 -0.017788 1.21617e-19 0.048632 1.99725e-19 0.000901277)
(-0.0468587 -0.0174832 -1.18139e-19 0.0460013 2.80583e-19 0.000857347)
(-0.0443393 -0.0172131 2.30145e-19 0.0435337 -5.86128e-20 0.000805604)
(-0.0419409 -0.0169971 -9.28708e-20 0.0411951 1.8479e-19 0.000745714)
(-0.0397129 -0.0167885 -9.21544e-20 0.0390356 1.14352e-19 0.000677306)
(-0.0376002 -0.0166822 1.77621e-19 0.0370002 2.90767e-19 0.000600043)
(-0.0356825 -0.0165263 -8.80172e-20 0.035169 -6.84128e-20 0.000513546)
(-0.0338729 -0.0165331 6.36388e-20 0.0334554 1.98702e-20 0.000417476)
(-0.0322759 -0.0164987 -2.04266e-19 0.0319644 7.29066e-20 0.000311446)
(-0.0308205 -0.0164783 -3.47177e-19 0.0306254 -3.72197e-20 0.000195115)
(-0.0295445 -0.0167131 1.16691e-19 0.0294764 1.3151e-19 6.8093e-05)
(-0.177601 -0.0305104 2.62589e-20 0.177556 6.32533e-20 4.51068e-05)
(-0.1754 -0.0344569 -2.13892e-19 0.175273 3.12248e-19 0.00012694)
(-0.171679 -0.0370005 1.72528e-19 0.171476 -6.14628e-20 0.000203124)
(-0.166886 -0.0384688 2.0981e-19 0.166612 3.55174e-19 0.000274423)
(-0.16153 -0.0392148 -1.99833e-19 0.161189 -1.87385e-20 0.000341446)
(-0.155743 -0.0393961 -5.94613e-20 0.155339 -8.81143e-20 0.000404664)
(-0.149833 -0.0392015 1.34544e-19 0.149369 1.10033e-19 0.00046445)
(-0.143808 -0.0387128 2.04495e-19 0.143287 -9.64033e-20 0.000521077)
(-0.137861 -0.0380334 4.25347e-20 0.137286 -1.0939e-19 0.000574753)
(-0.131955 -0.0372078 -2.57258e-19 0.13133 1.31591e-19 0.000625602)
(-0.126214 -0.0362941 8.73067e-20 0.12554 2.17306e-19 0.000673706)
(-0.12059 -0.0353174 1.14819e-19 0.119871 1.00568e-19 0.000719077)
(-0.115161 -0.0343109 3.36779e-20 0.114399 5.37275e-21 0.000761695)
(-0.109883 -0.033289 2.92494e-19 0.109082 -2.12766e-19 0.000801484)
(-0.104806 -0.0322706 6.78365e-20 0.103968 3.58053e-20 0.000838345)
(-0.0998907 -0.0312647 -2.33725e-19 0.0990186 -9.92149e-20 0.000872129)
(-0.095169 -0.0302811 1.09971e-20 0.0942663 1.94572e-19 0.000902677)
(-0.0906085 -0.0293265 4.83633e-20 0.0896788 1.77859e-19 0.000929783)
(-0.0862294 -0.0284043 -1.16359e-19 0.0852762 5.93345e-20 0.00095324)
(-0.0820068 -0.0275207 2.40055e-19 0.081034 2.12855e-19 0.000972801)
(-0.0779515 -0.0266746 1.05638e-19 0.0769633 2.17977e-19 0.000988226)
(-0.0740466 -0.0258726 -6.32766e-20 0.0730474 1.76341e-19 0.000999234)
(-0.0702956 -0.0251101 -3.08063e-19 0.0692901 -1.72327e-19 0.00100556)
(-0.0666896 -0.0243949 3.18027e-19 0.0656827 2.40173e-19 0.0010069)
(-0.0632258 -0.0237191 9.18305e-20 0.0622229 8.05495e-20 0.00100296)
(-0.0599035 -0.0230926 -1.00686e-19 0.0589101 2.89652e-19 0.0009934)
(-0.056714 -0.0225047 1.12217e-19 0.0557361 -1.15154e-19 0.00097792)
(-0.0536654 -0.0219674 1.38717e-19 0.0527092 1.27268e-19 0.000956151)
(-0.0507423 -0.0214681 5.74752e-20 0.0498146 -9.74528e-20 0.000927765)
(-0.0479636 -0.0210197 -5.90291e-20 0.0470712 -1.02786e-19 0.000892375)
(-0.0453043 -0.0206116 -1.08914e-19 0.0444547 -5.41084e-19 0.000849638)
(-0.0427998 -0.0202488 -2.80445e-20 0.0420007 2.74079e-20 0.000799151)
(-0.0404055 -0.0199421 -1.78909e-20 0.0396649 -3.04333e-19 0.000740559)
(-0.0381903 -0.0196543 1.02835e-19 0.0375168 6.44215e-20 0.00067344)
(-0.0360649 -0.0194702 1.37297e-19 0.0354675 -2.88261e-19 0.000597419)
(-0.0341627 -0.0192454 -6.07605e-19 0.0336506 -1.3639e-19 0.00051205)
(-0.0323241 -0.0191906 4.00846e-19 0.0319072 -1.61165e-19 0.000416932)
(-0.0307376 -0.019094 -1.76443e-20 0.030426 -3.42262e-20 0.000311588)
(-0.0292632 -0.0190289 3.3734e-20 0.0290676 -4.79683e-19 0.000195595)
(-0.027968 -0.0192319 -2.48682e-19 0.0278995 9.95157e-20 6.84456e-05)
(-0.176693 -0.0359427 2.04239e-19 0.176648 -9.7981e-20 4.44122e-05)
(-0.1739 -0.0404849 1.28513e-19 0.173775 5.28971e-20 0.000124972)
(-0.169754 -0.0434008 -1.82581e-19 0.169554 -9.90122e-21 0.00019996)
(-0.164664 -0.0450721 2.04129e-21 0.164394 -3.04059e-19 0.000270129)
(-0.159101 -0.0459074 1.87254e-20 0.158765 1.34458e-19 0.00033608)
(-0.153177 -0.046089 1.13477e-21 0.152778 4.46505e-19 0.000398277)
(-0.147179 -0.045836 -6.56853e-20 0.146722 1.8462e-20 0.00045709)
(-0.141107 -0.0452424 -2.26069e-19 0.140594 1.52109e-19 0.000512792)
(-0.13514 -0.0444283 2.85794e-19 0.134575 -1.08927e-20 0.000565589)
(-0.129238 -0.0434449 2.24745e-19 0.128622 1.04899e-19 0.000615609)
(-0.123516 -0.0423596 -5.86316e-20 0.122853 -3.28938e-21 0.000662933)
(-0.117924 -0.0412011 -3.55659e-19 0.117216 1.71748e-19 0.000707581)
(-0.112536 -0.040008 -1.82248e-19 0.111787 -1.00503e-21 0.000749536)
(-0.107305 -0.0387968 -4.28102e-20 0.106517 3.22646e-19 0.000788727)
(-0.10228 -0.0375894 3.29425e-19 0.101455 -1.60731e-19 0.00082506)
(-0.0974193 -0.0363962 1.13928e-19 0.0965609 4.01355e-21 0.000858396)
(-0.0927539 -0.0352284 1.03713e-19 0.0918653 7.8813e-21 0.000888578)
(-0.0882503 -0.0340937 8.30942e-20 0.0873348 -1.01475e-20 0.000915411)
(-0.0839279 -0.0329962 -2.35839e-20 0.0829892 -1.23533e-19 0.000938693)
(-0.0797609 -0.0319431 1.04512e-19 0.0788027 -2.04583e-19 0.000958187)
(-0.07576 -0.0309329 -1.19099e-19 0.0747864 -1.12211e-21 0.000973656)
(-0.0719072 -0.0299735 -5.35293e-20 0.0709224 -3.21284e-19 0.000984831)
(-0.0682063 -0.0290592 5.73569e-21 0.0672148 1.94985e-19 0.000991448)
(-0.0646472 -0.0281994 4.47377e-20 0.063654 -1.35242e-19 0.000993208)
(-0.0612276 -0.0273847 1.49417e-19 0.0602378 -1.13278e-19 0.000989819)
(-0.0579458 -0.0266268 -2.86965e-20 0.0569649 -6.85114e-20 0.000980951)
(-0.0547938 -0.0259129 -9.62983e-20 0.0538275 -1.35781e-21 0.000966285)
(-0.0517784 -0.0252574 -3.9908e-20 0.050833 -3.12978e-19 0.000945458)
(-0.0488853 -0.0246447 -2.05064e-19 0.0479671 6.20061e-19 0.000918123)
(-0.0461321 -0.0240914 -2.42461e-19 0.0452483 -5.36257e-20 0.000883888)
(-0.0434942 -0.023582 -9.84205e-20 0.0426518 3.48116e-19 0.000842379)
(-0.0410084 -0.0231287 4.33425e-19 0.0402152 1.38267e-19 0.000793178)
(-0.0386245 -0.0227306 -3.93768e-20 0.0378886 -1.94183e-19 0.000735887)
(-0.0364241 -0.0223707 -1.2116e-19 0.0357541 2.35103e-19 0.000670049)
(-0.0342919 -0.0221002 1.40275e-19 0.0336967 -1.63119e-19 0.000595236)
(-0.0324072 -0.0218303 -2.8295e-20 0.0318963 -3.38202e-20 0.000510944)
(-0.0305352 -0.021688 2.57152e-20 0.0301185 2.14697e-20 0.000416701)
(-0.0289691 -0.0215755 -5.03587e-19 0.0286572 -9.31882e-20 0.000311953)
(-0.0274463 -0.0214356 -2.29259e-19 0.0272501 -1.36143e-19 0.000196189)
(-0.026151 -0.0216305 2.62506e-19 0.0260822 5.85516e-19 6.88119e-05)
(-0.175636 -0.0413658 9.44512e-20 0.175593 1.39745e-19 4.36688e-05)
(-0.172171 -0.0464325 -2.8905e-20 0.172049 -7.37803e-20 0.000122877)
(-0.167541 -0.049671 -1.85275e-20 0.167344 1.0251e-19 0.000196599)
(-0.162112 -0.0515093 1.4242e-19 0.161847 7.20075e-19 0.000265574)
(-0.156312 -0.0524077 2.36833e-19 0.155982 6.3322e-20 0.000330393)
(-0.150232 -0.0525712 6.42528e-21 0.149841 -4.36378e-19 0.000391516)
(-0.144137 -0.0522466 1.22811e-20 0.143687 -7.34043e-20 0.000449311)
(-0.138011 -0.0515394 1.71437e-19 0.137506 -1.56762e-19 0.000504045)
(-0.132023 -0.0505852 -7.58768e-20 0.131467 -3.56307e-20 0.000555928)
(-0.126125 -0.0494409 -1.32253e-19 0.12552 -1.46775e-19 0.000605088)
(-0.120426 -0.0481828 2.91657e-19 0.119775 -1.14016e-19 0.000651611)
(-0.114871 -0.0468427 2.381e-19 0.114175 -2.48485e-19 0.000695518)
(-0.109531 -0.0454644 7.38563e-20 0.108794 9.85634e-20 0.0007368)
(-0.104355 -0.044066 8.16134e-20 0.10358 -4.2886e-20 0.000775389)
(-0.0993899 -0.0426724 -1.42172e-19 0.0985787 -3.66482e-19 0.000811199)
(-0.0945921 -0.041295 -1.13341e-19 0.093748 7.28833e-20 0.000844094)
(-0.0899922 -0.0399465 1.18659e-19 0.0891183 -3.04763e-19 0.000873929)
(-0.0855544 -0.0386355 -2.33456e-20 0.0846539 4.50391e-20 0.000900511)
(-0.0812981 -0.0373667 -1.89175e-19 0.0803745 -4.57649e-19 0.00092365)
(-0.0771958 -0.0361479 3.60828e-19 0.0762526 7.32628e-20 0.000943111)
(-0.0732584 -0.0349775 9.28071e-20 0.0722997 -7.94808e-20 0.000958669)
(-0.0694664 -0.0338645 7.33686e-20 0.0684964 6.11963e-20 0.000970056)
(-0.0658242 -0.0328023 -1.98382e-19 0.0648472 1.59912e-19 0.000977018)
(-0.0623203 -0.0318017 3.01266e-20 0.061341 6.94016e-20 0.000979253)
(-0.0589532 -0.0308517 1.24151e-19 0.0579767 1.45679e-19 0.000976477)
(-0.0557195 -0.029966 1.93765e-19 0.0547511 -2.97118e-19 0.000968353)
(-0.0526123 -0.0291292 -2.54207e-19 0.0516577 2.52636e-19 0.000954564)
(-0.0496369 -0.0283591 9.07069e-19 0.0487022 -5.45666e-19 0.000934733)
(-0.04678 -0.0276355 2.98461e-19 0.0458715 4.89433e-19 0.000908509)
(-0.0440581 -0.0269809 -2.28211e-19 0.0431826 -5.64774e-19 0.000875475)
(-0.0414466 -0.0263718 -2.44415e-19 0.0406114 4.81429e-19 0.000835247)
(-0.038983 -0.0258317 -5.76545e-19 0.0381956 -6.03324e-20 0.000787367)
(-0.0366136 -0.0253428 7.86683e-20 0.0358822 1.87406e-19 0.000731413)
(-0.0344277 -0.0249137 1.00022e-19 0.0337608 2.72288e-19 0.000666878)
(-0.0322943 -0.0245577 -3.02299e-19 0.031701 1.4887e-19 0.000593289)
(-0.0304189 -0.0242396 -4.09518e-19 0.0299088 1.55361e-20 0.000510076)
(-0.0285293 -0.0240199 3.81387e-19 0.0281126 2.81213e-19 0.000416707)
(-0.0269624 -0.0238752 -2.06649e-19 0.0266499 2.7816e-19 0.000312537)
(-0.0254242 -0.0236851 6.52876e-19 0.0252272 -1.85262e-19 0.000196973)
(-0.0240947 -0.0238619 -5.21492e-19 0.0240254 1.04423e-19 6.92956e-05)
(-0.174435 -0.0467716 1.20627e-19 0.174392 -1.071e-19 4.28911e-05)
(-0.17022 -0.0522899 1.37521e-19 0.170099 -8.20471e-20 0.000120676)
(-0.16505 -0.0557946 2.34707e-19 0.164857 -7.46894e-20 0.000193064)
(-0.159245 -0.0577591 1.22714e-19 0.158985 -7.15151e-19 0.000260783)
(-0.153183 -0.0586909 -4.75527e-19 0.152859 -4.94675e-19 0.000324415)
(-0.146931 -0.0588151 -2.63772e-20 0.146546 1.68468e-19 0.000384415)
(-0.140726 -0.0584042 2.53992e-20 0.140285 2.40558e-19 0.000441146)
(-0.134541 -0.0575736 -1.63225e-19 0.134047 2.82268e-20 0.000494876)
(-0.128532 -0.0564728 2.50303e-19 0.127986 3.40545e-19 0.000545812)
(-0.12264 -0.0551642 2.6221e-19 0.122046 -4.57395e-19 0.000594087)
(-0.116968 -0.053732 -3.12978e-19 0.116328 3.1103e-19 0.000639788)
(-0.111455 -0.0522106 -6.39339e-20 0.110772 -2.8495e-19 0.000682942)
(-0.106169 -0.0506486 -7.42345e-21 0.105445 7.91249e-20 0.000723542)
(-0.101055 -0.0490654 -2.67176e-19 0.100294 -8.1477e-20 0.000761528)
(-0.0961584 -0.0474887 3.23438e-19 0.0953616 2.484e-19 0.00079682)
(-0.0914322 -0.0459306 1.80479e-19 0.0906029 -2.00072e-19 0.000829289)
(-0.0869064 -0.0444054 -9.64916e-20 0.0860476 4.40311e-19 0.000858792)
(-0.0825433 -0.0429223 8.55657e-20 0.0816581 -2.36156e-19 0.000885149)
(-0.0783619 -0.0414863 -2.46147e-19 0.0774538 2.58813e-19 0.000908172)
(-0.074333 -0.0401062 3.14401e-19 0.0734053 -1.00823e-20 0.000927636)
(-0.0704678 -0.0387802 -4.33554e-20 0.0695245 -1.93251e-19 0.000943318)
(-0.066745 -0.0375181 1.64243e-19 0.0657901 -6.47678e-20 0.000954959)
(-0.0631698 -0.0363123 1.29937e-19 0.0622075 -1.4718e-19 0.000962303)
(-0.0597287 -0.0351751 -4.91577e-20 0.0587636 -3.68055e-20 0.000965056)
(-0.0564215 -0.034094 -3.35204e-19 0.0554586 1.89073e-19 0.000962929)
(-0.0532428 -0.0330843 2.5261e-19 0.0522872 -5.24313e-19 0.000955588)
(-0.0501872 -0.0321285 -5.77397e-19 0.0492445 1.39669e-19 0.000942703)
(-0.0472575 -0.0312468 -1.21834e-19 0.0463336 1.6798e-19 0.000923895)
(-0.0444429 -0.0304158 2.33968e-19 0.0435441 3.19155e-20 0.000898794)
(-0.0417566 -0.0296624 -9.61287e-20 0.0408896 -2.77898e-19 0.000866972)
(-0.0391775 -0.0289564 6.27047e-19 0.0383495 1.8017e-19 0.000828017)
(-0.0367384 -0.0283319 1.89154e-19 0.035957 -2.70504e-19 0.000781449)
(-0.0343906 -0.027754 -3.79466e-20 0.0336638 5.92087e-19 0.000726806)
(-0.032218 -0.0272603 2.75392e-19 0.0315545 -7.36908e-19 0.000663546)
(-0.030093 -0.0268178 -1.54271e-19 0.0295019 5.48373e-19 0.000591143)
(-0.0282219 -0.0264638 3.28729e-20 0.0277129 -1.9195e-19 0.000508976)
(-0.0263208 -0.0261567 2.42292e-19 0.0259044 4.96849e-19 0.000416444)
(-0.0247539 -0.0260045 -9.16237e-19 0.0244411 -3.43622e-19 0.000312837)
(-0.0231863 -0.025744 -3.65285e-19 0.0229888 1.49668e-19 0.000197483)
(-0.0218499 -0.0259244 4.81196e-19 0.0217803 3.74602e-19 6.95988e-05)
(-0.173082 -0.0521647 -8.92937e-20 0.17304 6.63453e-19 4.2067e-05)
(-0.168051 -0.058047 -1.50302e-19 0.167933 3.03529e-19 0.000118356)
(-0.162294 -0.0617558 -3.59449e-19 0.162104 9.31898e-20 0.000189344)
(-0.15608 -0.0638018 7.70519e-21 0.155824 5.19792e-19 0.000255746)
(-0.149733 -0.0647343 5.71487e-19 0.149415 6.64128e-19 0.000318136)
(-0.143294 -0.0647962 1.98047e-19 0.142917 2.58178e-19 0.000376962)
(-0.136972 -0.0642829 -2.96814e-20 0.13654 -1.03403e-19 0.000432583)
(-0.130725 -0.0633179 2.5431e-19 0.130239 -2.93556e-19 0.000485267)
(-0.124692 -0.062064 -4.01287e-19 0.124157 -2.84182e-19 0.000535221)
(-0.118808 -0.0605872 -1.86238e-19 0.118226 2.18975e-19 0.000582578)
(-0.113167 -0.0589796 3.37944e-19 0.112539 4.80296e-19 0.000627431)
(-0.107702 -0.0572773 -1.94897e-19 0.107032 4.29095e-19 0.000669809)
(-0.102476 -0.0555333 2.12118e-19 0.101767 2.89711e-19 0.000709712)
(-0.0974317 -0.053768 4.63406e-20 0.0966846 2.89482e-19 0.000747084)
(-0.0926107 -0.0520117 -4.3828e-19 0.0918289 5.95479e-20 0.000781851)
(-0.0879643 -0.0502769 1.53727e-19 0.0871504 -7.29567e-20 0.00081389)
(-0.083521 -0.0485795 6.50623e-20 0.0826779 -5.81945e-21 0.000843068)
(-0.0792409 -0.0469289 -9.3031e-20 0.0783717 -2.59585e-19 0.000869206)
(-0.075143 -0.0453308 -8.182e-20 0.0742508 -2.37963e-19 0.000892126)
(-0.0711958 -0.0437944 -1.96897e-19 0.0702842 3.89427e-19 0.000911608)
(-0.0674112 -0.0423177 4.46986e-20 0.0664837 -1.3951e-22 0.000927436)
(-0.0637657 -0.0409114 -3.58712e-20 0.0628264 3.59595e-19 0.000939351)
(-0.0602655 -0.0395672 -6.34096e-20 0.0593184 -9.86923e-20 0.000947105)
(-0.0568948 -0.0382983 4.76632e-19 0.0559444 1.23098e-19 0.000950401)
(-0.0536551 -0.0370907 -4.43541e-19 0.0527061 2.3709e-19 0.000948953)
(-0.0505381 -0.0359617 9.8304e-20 0.0495957 -1.07198e-19 0.000942418)
(-0.0475408 -0.0348913 4.35206e-19 0.0466103 5.76178e-19 0.000930467)
(-0.044663 -0.0339024 4.79117e-19 0.0437503 1.59435e-19 0.000912704)
(-0.0418964 -0.032968 -1.548e-19 0.0410076 4.02427e-19 0.000888754)
(-0.0392505 -0.0321197 -4.8948e-19 0.0383923 4.63571e-19 0.000858163)
(-0.0367084 -0.0313203 -2.14235e-19 0.0358879 7.30593e-20 0.000820505)
(-0.0342971 -0.0306143 4.20211e-20 0.0335218 -1.33649e-20 0.000775265)
(-0.0319752 -0.0299505 -2.99972e-19 0.0312532 -8.42297e-22 0.000721957)
(-0.0298158 -0.0293931 1.20133e-19 0.0291558 -1.96923e-19 0.000659991)
(-0.0277057 -0.0288682 4.08364e-19 0.0271169 2.86076e-19 0.000588805)
(-0.0258324 -0.0284738 -4.40551e-19 0.0253247 -3.41065e-19 0.000507716)
(-0.0239346 -0.0280897 7.01932e-19 0.0235185 4.94807e-20 0.000416073)
(-0.0223508 -0.0279157 -2.37651e-19 0.0220377 -1.30952e-19 0.00031309)
(-0.0207792 -0.027605 1.01668e-18 0.0205811 5.17681e-19 0.000198027)
(-0.0194041 -0.0277662 -6.11409e-19 0.0193341 -3.39281e-19 6.99889e-05)
(-0.17158 -0.0575366 6.00373e-20 0.171539 -4.28794e-19 4.12115e-05)
(-0.165673 -0.0636949 1.36394e-21 0.165557 -5.24151e-19 0.000115936)
(-0.159286 -0.0675403 2.12429e-19 0.159101 1.90232e-19 0.000185461)
(-0.152635 -0.0696192 1.14105e-19 0.152384 -4.70071e-20 0.000250488)
(-0.145984 -0.070517 -7.5765e-19 0.145672 -1.20565e-19 0.000311583)
(-0.139345 -0.0704914 -2.0409e-20 0.138976 -8.35446e-19 0.000369187)
(-0.1329 -0.069858 -2.73185e-19 0.132476 -3.5141e-20 0.000423656)
(-0.126587 -0.068747 -1.24573e-19 0.126112 -2.72395e-19 0.000475255)
(-0.120532 -0.0673325 5.50295e-19 0.120008 5.94371e-19 0.000524192)
(-0.114659 -0.0656837 5.58049e-19 0.114088 -2.13186e-20 0.000570603)
(-0.109052 -0.0638991 -4.27481e-20 0.108438 -3.64427e-20 0.000614583)
(-0.10364 -0.0620163 6.88357e-20 0.102984 -7.94004e-19 0.000656166)
(-0.0984813 -0.0600922 -1.95627e-19 0.097786 1.21976e-19 0.000695355)
(-0.0935131 -0.0581478 -4.16187e-20 0.092781 -7.05764e-19 0.000732102)
(-0.0887754 -0.0562156 1.16041e-19 0.0880091 -9.38554e-20 0.000766337)
(-0.0842164 -0.0543086 -9.15161e-21 0.0834185 -1.67505e-19 0.000797944)
(-0.0798635 -0.0524436 -1.27966e-19 0.0790367 1.67803e-19 0.000826795)
(-0.0756745 -0.0506305 -1.01016e-19 0.0748218 -1.96555e-19 0.000852721)