/*--------------------------------*- C++ -*----------------------------------*\
| =========                 |                                                 |
| \\      /  F ield         | foam-extend: Open Source CFD                    |
|  \\    /   O peration     | Version:  3.0                                   |
|   \\  /    A nd           | Web:         http://www.extend-project.de       |
|    \\/     M anipulation  |                                                 |
\*---------------------------------------------------------------------------*/
FoamFile
{
    version     2.0;
    format      ascii;
    class       volSymmTensorField;
    location    "6.2";
    object      sigma;
}
// * * * * * * * * * * * * * * * * * * * * * * * * * * * * * * * * * * * * * //

dimensions      [0 0 0 0 0 0 0];

internalField   nonuniform List<symmTensor> 
400
(
(0.309579 0.0671875 1.58737e-316 -0.421152 1.90169e-316 0.111573)
(0.575809 -0.0652619 1.6286e-316 -0.383756 2.09326e-316 -0.192053)
(0.693411 -0.231499 1.56342e-316 -0.358687 2.02894e-316 -0.334724)
(0.675424 -0.341277 1.47232e-316 -0.302306 1.86946e-316 -0.373118)
(0.627529 -0.459075 1.35158e-316 -0.263975 1.66384e-316 -0.363554)
(0.531642 -0.539148 1.23768e-316 -0.211017 1.47401e-316 -0.320626)
(0.433979 -0.609825 1.1215e-316 -0.169565 1.27906e-316 -0.264415)
(0.317956 -0.658754 1.01742e-316 -0.120571 1.12408e-316 -0.197385)
(0.204243 -0.692846 9.19866e-317 -0.077829 9.68178e-317 -0.126414)
(0.0797159 -0.711747 8.32951e-317 -0.029194 8.53735e-317 -0.0505218)
(-0.0444894 -0.714379 7.54646e-317 0.017149 7.3481e-317 0.0273404)
(-0.176589 -0.702907 6.84008e-317 0.0687924 6.53214e-317 0.107796)
(-0.307769 -0.673437 6.2218e-317 0.120314 5.63184e-317 0.187455)
(-0.439425 -0.629736 5.63475e-317 0.175351 5.05229e-317 0.264074)
(-0.558347 -0.563352 5.14664e-317 0.228244 4.37471e-317 0.330103)
(-0.660385 -0.487147 4.62474e-317 0.282105 3.96261e-317 0.37828)
(-0.713486 -0.375783 4.24059e-317 0.323654 3.48857e-317 0.389833)
(-0.714599 -0.27054 3.75855e-317 0.366625 3.22046e-317 0.347973)
(-0.581737 -0.111703 3.47292e-317 0.37785 2.97261e-317 0.203887)
(-0.299506 0.0194672 3.00887e-317 0.391051 2.81696e-317 -0.0915451)
(0.201564 0.0629615 7.09819e-317 -0.485858 1.15994e-316 0.284294)
(0.429176 0.000502484 8.27161e-317 -0.501133 1.59424e-316 0.0719566)
(0.514431 -0.086802 8.69315e-317 -0.465223 1.68817e-316 -0.0492085)
(0.531763 -0.156593 8.76542e-317 -0.42388 1.62336e-316 -0.107883)
(0.495311 -0.229627 8.55625e-317 -0.366231 1.47944e-316 -0.12908)
(0.431697 -0.284873 8.24029e-317 -0.305381 1.3251e-316 -0.126317)
(0.353868 -0.333063 7.82693e-317 -0.243491 1.1584e-316 -0.110378)
(0.262468 -0.364919 7.39079e-317 -0.176642 1.01846e-316 -0.0858258)
(0.169293 -0.38655 6.93231e-317 -0.112381 8.78811e-317 -0.0569118)
(0.0668798 -0.392795 6.48041e-317 -0.0420915 7.71683e-317 -0.0247884)
(-0.0348494 -0.388986 6.04043e-317 0.0264321 6.64084e-317 0.0084173)
(-0.142551 -0.371244 5.61508e-317 0.100459 5.86755e-317 0.042092)
(-0.247922 -0.345228 5.22061e-317 0.174118 5.05977e-317 0.0738039)
(-0.350711 -0.309037 4.83172e-317 0.249077 4.51467e-317 0.101633)
(-0.444372 -0.266461 4.49151e-317 0.323582 3.91617e-317 0.120789)
(-0.513794 -0.221821 4.13015e-317 0.387842 3.53085e-317 0.125952)
(-0.556244 -0.169155 3.84346e-317 0.449433 3.09872e-317 0.106811)
(-0.528689 -0.12839 3.50328e-317 0.477809 2.81551e-317 0.0508802)
(-0.434498 -0.0702758 3.2688e-317 0.497694 2.56447e-317 -0.0631962)
(-0.195539 -0.0432564 2.98218e-317 0.454606 2.5164e-317 -0.259067)
(0.188627 0.165304 8.76815e-318 -0.545528 6.05804e-317 0.356902)
(0.370051 0.117847 2.47164e-317 -0.537926 1.15222e-316 0.167875)
(0.433636 0.0662981 3.62856e-317 -0.491632 1.33794e-316 0.057996)
(0.439367 0.00916342 4.4386e-317 -0.436918 1.34229e-316 -0.00244904)
(0.407905 -0.0458922 4.93191e-317 -0.374826 1.25554e-316 -0.0330795)
(0.356147 -0.0939445 5.214e-317 -0.311577 1.14102e-316 -0.0445697)
(0.296699 -0.133133 5.30974e-317 -0.25167 1.01073e-316 -0.0450281)
(0.226301 -0.159495 5.29341e-317 -0.188037 8.93615e-317 -0.0382644)
(0.156405 -0.173836 5.18412e-317 -0.128582 7.77955e-317 -0.0278228)
(0.0768442 -0.173176 5.02129e-317 -0.061936 6.83437e-317 -0.0149082)
(-0.00247747 -0.161888 4.82134e-317 0.00401956 5.91869e-317 -0.00154209)
(-0.0900887 -0.136788 4.59745e-317 0.0784392 5.20614e-317 0.0116494)
(-0.179395 -0.107028 4.36628e-317 0.156913 4.50468e-317 0.0224818)
(-0.269322 -0.0687931 4.11389e-317 0.239744 3.97787e-317 0.0295785)
(-0.358982 -0.035505 3.86414e-317 0.329852 3.44754e-317 0.0291293)
(-0.427136 -0.00335762 3.56367e-317 0.409733 3.05497e-317 0.0174029)
(-0.481184 0.0149589 3.24584e-317 0.494418 2.65817e-317 -0.0132348)
(-0.467207 0.0219985 2.8165e-317 0.539088 2.33755e-317 -0.0718803)
(-0.398744 0.0156923 2.29656e-317 0.573349 2.00586e-317 -0.174605)
(-0.187053 -0.00287357 1.69075e-317 0.531163 1.62833e-317 -0.34411)
(0.129406 0.220674 -4.73741e-317 -0.479114 8.99104e-318 0.349708)
(0.270913 0.192207 -2.79231e-317 -0.464388 7.07434e-317 0.193476)
(0.31838 0.159075 -9.8028e-318 -0.41429 9.62642e-317 0.0959104)
(0.325619 0.108205 4.62558e-318 -0.363867 1.03148e-316 0.0382475)
(0.302672 0.0645174 1.58545e-317 -0.308427 1.00125e-316 0.005755)
(0.2671 0.0212102 2.39573e-317 -0.256588 9.32103e-317 -0.010512)
(0.227805 -0.01022 2.95862e-317 -0.210618 8.40277e-317 -0.0171869)
(0.180654 -0.0298681 3.32213e-317 -0.162924 7.51802e-317 -0.0177302)
(0.136458 -0.0374067 3.53254e-317 -0.12135 6.61119e-317 -0.0151079)
(0.0828072 -0.0275754 3.62851e-317 -0.0721884 5.84331e-317 -0.0106189)
(0.0309569 -0.00952084 3.64045e-317 -0.0249725 5.09518e-317 -0.00598438)
(-0.0322661 0.026356 3.59049e-317 0.0342781 4.50114e-317 -0.00201203)
(-0.0969717 0.0608972 3.49962e-317 0.0975306 3.93009e-317 -0.00055889)
(-0.169848 0.108066 3.37394e-317 0.17292 3.51069e-317 -0.00307227)
(-0.245018 0.137341 3.23109e-317 0.25785 3.12286e-317 -0.0128327)
(-0.309766 0.167809 3.0598e-317 0.343157 2.89122e-317 -0.0333902)
(-0.367249 0.160328 2.87622e-317 0.438655 2.71841e-317 -0.0714054)
(-0.364862 0.138402 2.64902e-317 0.499835 2.69889e-317 -0.134973)
(-0.320757 0.0719959 2.38494e-317 0.557393 2.68398e-317 -0.236636)
(-0.14095 -0.0208499 2.00367e-317 0.530532 2.49329e-317 -0.389581)
(0.131677 0.311484 -6.6703e-317 -0.513189 -1.94726e-317 0.381512)
(0.239334 0.281076 -4.92299e-317 -0.452765 3.68806e-317 0.213431)
(0.273623 0.254151 -3.05105e-317 -0.387603 6.37626e-317 0.11398)
(0.264883 0.194964 -1.45693e-317 -0.320837 7.43485e-317 0.0559545)
(0.249347 0.15055 -1.51915e-318 -0.271896 7.57096e-317 0.022549)
(0.21883 0.100978 8.48395e-318 -0.223261 7.26906e-317 0.00443102)
(0.198101 0.0687316 1.58834e-317 -0.193204 6.71646e-317 -0.00489675)
(0.166981 0.0465995 2.11777e-317 -0.15826 6.10877e-317 -0.00872156)
(0.145741 0.0410515 2.47904e-317 -0.135852 5.4569e-317 -0.00988953)
(0.111578 0.0527005 2.71461e-317 -0.102011 4.86266e-317 -0.00956665)
(0.0817305 0.0767746 2.857e-317 -0.0722063 4.28006e-317 -0.00952423)
(0.0345285 0.119651 2.93311e-317 -0.024073 3.78195e-317 -0.0104555)
(-0.0157497 0.163848 2.96941e-317 0.0301647 3.30823e-317 -0.014415)
(-0.0844386 0.223318 2.97908e-317 0.107206 2.92422e-317 -0.0227677)
(-0.161057 0.261422 2.9905e-317 0.200314 2.5753e-317 -0.0392579)
(-0.241977 0.305884 3.00206e-317 0.309675 2.32603e-317 -0.0676974)
(-0.322183 0.293996 3.05172e-317 0.438325 2.14274e-317 -0.116142)
(-0.355555 0.276135 3.11114e-317 0.550307 2.09216e-317 -0.194751)
(-0.341738 0.17427 3.21585e-317 0.663514 2.18277e-317 -0.321775)
(-0.173766 0.0581687 3.21895e-317 0.697398 2.56466e-317 -0.523632)
(0.101609 0.425949 -7.91285e-317 -0.486408 -3.8419e-317 0.384799)
(0.168311 0.365629 -6.38777e-317 -0.38429 1.10757e-317 0.215979)
(0.193242 0.314681 -4.55825e-317 -0.310446 3.71302e-317 0.117204)
(0.175066 0.237983 -2.92004e-317 -0.235317 4.98255e-317 0.0602513)
(0.168844 0.179675 -1.50952e-317 -0.196636 5.43194e-317 0.0277921)
(0.147678 0.12303 -3.91814e-318 -0.157532 5.44727e-317 0.00985381)
(0.145102 0.0847409 4.76263e-318 -0.145327 5.19012e-317 0.000224858)
(0.132917 0.0624954 1.12205e-317 -0.128339 4.82672e-317 -0.00457842)
(0.135066 0.0567779 1.59039e-317 -0.128051 4.38551e-317 -0.00701475)
(0.124202 0.0744516 1.91663e-317 -0.115724 3.95282e-317 -0.00847826)
(0.120913 0.104668 2.13426e-317 -0.110487 3.50775e-317 -0.010426)
(0.0961126 0.16131 2.27019e-317 -0.0822034 3.10864e-317 -0.0139092)
(0.0716431 0.219218 2.34871e-317 -0.050848 2.71968e-317 -0.0207951)
(0.015801 0.301479 2.38937e-317 0.0172646 2.39176e-317 -0.0330656)
(-0.0435615 0.358977 2.41266e-317 0.098248 2.09214e-317 -0.0546865)
(-0.1338 0.430792 2.43497e-317 0.224676 1.87686e-317 -0.0908754)
(-0.215575 0.433092 2.47596e-317 0.366978 1.73421e-317 -0.151403)
(-0.288762 0.429952 2.54067e-317 0.539178 1.74261e-317 -0.250416)
(-0.295798 0.316729 2.63568e-317 0.708149 1.92946e-317 -0.412351)
(-0.170927 0.17693 2.66515e-317 0.843714 2.37023e-317 -0.672787)
(0.0931032 0.546093 -6.72489e-317 -0.464626 -4.0715e-317 0.371523)
(0.128586 0.450597 -5.70963e-317 -0.331311 -4.1012e-318 0.202725)
(0.147506 0.367379 -4.29316e-317 -0.255922 1.79996e-317 0.108416)
(0.119675 0.270314 -2.93865e-317 -0.175327 3.06249e-317 0.0556517)
(0.123961 0.193094 -1.73379e-317 -0.150168 3.67751e-317 0.0262068)
(0.108618 0.124965 -7.39104e-318 -0.118687 3.90367e-317 0.0100687)
(0.123041 0.0765024 5.27899e-319 -0.124332 3.87161e-317 0.00129078)
(0.124768 0.0466473 6.6515e-318 -0.121411 3.70336e-317 -0.0033565)
(0.147478 0.0365384 1.12511e-317 -0.141285 3.44105e-317 -0.00619253)
(0.154604 0.0498217 1.46306e-317 -0.146185 3.14657e-317 -0.00841893)
(0.173507 0.0825184 1.7057e-317 -0.161926 2.82282e-317 -0.0115813)
(0.165883 0.141102 1.8771e-317 -0.149276 2.50665e-317 -0.0166067)
(0.160132 0.212328 2.00144e-317 -0.134397 2.18582e-317 -0.0257351)
(0.111367 0.308646 2.09647e-317 -0.0703516 1.88849e-317 -0.0410152)
(0.0566795 0.394153 2.18999e-317 0.0107191 1.60216e-317 -0.0673986)
(-0.0509494 0.497986 2.29322e-317 0.161956 1.36046e-317 -0.111006)
(-0.155059 0.540788 2.44614e-317 0.339577 1.17549e-317 -0.184518)
(-0.277559 0.588168 2.6426e-317 0.583964 1.1264e-317 -0.306405)
(-0.324082 0.514788 2.92916e-317 0.835418 1.34227e-317 -0.511336)
(-0.22015 0.435512 3.20503e-317 1.07568 2.15756e-317 -0.855535)
(0.0581411 0.66708 -5.88542e-317 -0.364631 -3.94774e-317 0.30649)
(0.0624886 0.521265 -5.19015e-317 -0.22653 -1.25146e-317 0.164042)
(0.0725741 0.393139 -4.0751e-317 -0.158317 5.46703e-318 0.0857428)
(0.0428714 0.273846 -2.94418e-317 -0.0857117 1.71028e-317 0.0428404)
(0.0530421 0.1723 -1.89004e-317 -0.0726451 2.38162e-317 0.019603)
(0.0465103 0.0951629 -9.96834e-318 -0.053633 2.72665e-317 0.00712273)
(0.0721102 0.0337073 -2.62941e-318 -0.0727068 2.83598e-317 0.000596626)
(0.0885655 -0.00030774 3.13572e-318 -0.08566 2.80207e-317 -0.00290545)
(0.127129 -0.0167561 7.54897e-318 -0.122052 2.66419e-317 -0.00507683)
(0.153802 -0.00321076 1.08065e-317 -0.146586 2.4727e-317 -0.00721589)
(0.194148 0.031222 1.31228e-317 -0.183684 2.23714e-317 -0.0104641)
(0.208731 0.0992815 1.46822e-317 -0.192627 1.9866e-317 -0.0161034)
(0.229247 0.186136 1.56529e-317 -0.203122 1.71662e-317 -0.0261249)
(0.198128 0.308895 1.61853e-317 -0.154854 1.44757e-317 -0.0432736)
(0.169021 0.430862 1.64241e-317 -0.0963441 1.17304e-317 -0.0726766)
(0.0587049 0.58369 1.65274e-317 0.0633542 9.18682e-318 -0.122059)
(-0.0329168 0.68355 1.66686e-317 0.238836 7.00013e-318 -0.205919)
(-0.196818 0.794179 1.70476e-317 0.544101 5.9118e-318 -0.347283)
(-0.254855 0.777406 1.79672e-317 0.842627 7.17991e-318 -0.587772)
(-0.209187 0.739826 1.94385e-317 1.20254 1.3279e-317 -0.993351)
(0.0285096 0.74844 -3.93504e-317 -0.233329 -3.10766e-317 0.204819)
(0.00831529 0.571799 -3.66026e-317 -0.11237 -1.51237e-317 0.104055)
(0.0151264 0.408028 -2.99477e-317 -0.0663945 -1.99352e-318 0.0512681)
(-0.0119577 0.27264 -2.22636e-317 -0.0115067 7.74564e-318 0.0234644)
(0.00629659 0.149949 -1.47069e-317 -0.0154214 1.4203e-317 0.00912482)
(0.00770047 0.0620753 -7.92015e-318 -0.00950141 1.81408e-317 0.00180094)
(0.0436999 -0.0130148 -2.18266e-318 -0.041958 2.0109e-317 -0.00174188)
(0.0712758 -0.0578942 2.49461e-318 -0.0677424 2.07142e-317 -0.0035334)
(0.123861 -0.0840527 6.15726e-318 -0.119082 2.02914e-317 -0.00477899)
(0.165921 -0.0818692 8.93334e-318 -0.159517 1.92141e-317 -0.00640392)
(0.225509 -0.0512948 1.0948e-317 -0.215986 1.76206e-317 -0.0095234)
(0.25905 0.00877354 1.23272e-317 -0.243848 1.57235e-317 -0.0152027)
(0.302178 0.105403 1.32068e-317 -0.276472 1.35393e-317 -0.0257053)
(0.287182 0.232853 1.36722e-317 -0.243516 1.11915e-317 -0.0436665)
(0.274134 0.391729 1.38836e-317 -0.199184 8.65433e-318 -0.0749492)
(0.160275 0.577935 1.38675e-317 -0.0326015 6.0584e-318 -0.127673)
(0.0570422 0.755735 1.38941e-317 0.161488 3.55608e-318 -0.21853)
(-0.15146 0.949316 1.39753e-317 0.525039 1.6692e-318 -0.373579)
(-0.259316 1.04925 1.46538e-317 0.902606 1.8436e-318 -0.64329)
(-0.256136 1.15917 1.63539e-317 1.37065 7.32482e-318 -1.11452)
(-0.0136546 0.797376 -2.93647e-317 -0.0528738 -2.43965e-317 0.0665284)
(-0.0552491 0.58807 -2.82319e-317 0.028422 -1.47294e-317 0.0268271)
(-0.0618375 0.393441 -2.38152e-317 0.0533932 -5.42433e-318 0.00844427)
(-0.081014 0.248275 -1.81327e-317 0.0810177 2.35695e-318 -3.68356e-06)
(-0.0636496 0.10773 -1.21679e-317 0.0669531 8.07201e-318 -0.00330345)
(-0.053036 0.0143699 -6.68824e-318 0.0574452 1.19474e-317 -0.00440916)
(-0.0148366 -0.0737135 -1.91748e-318 0.0191026 1.42396e-317 -0.00426593)
(0.0228323 -0.12545 1.99197e-318 -0.0188963 1.53267e-317 -0.00393608)
(0.081039 -0.162012 5.07384e-318 -0.0773169 1.54585e-317 -0.00372211)
(0.137071 -0.16659 7.37489e-318 -0.132633 1.49165e-317 -0.0044376)
(0.208214 -0.141029 8.97514e-318 -0.201521 1.38332e-317 -0.00669244)
(0.262069 -0.0812366 9.94156e-318 -0.250289 1.2377e-317 -0.0117795)
(0.325725 0.0248017 1.03307e-317 -0.304201 1.05859e-317 -0.0215239)
(0.336017 0.171349 1.01775e-317 -0.29701 8.54834e-318 -0.0390063)
(0.353104 0.370205 9.48708e-318 -0.283435 6.25783e-318 -0.0696695)
(0.257431 0.613 8.27833e-318 -0.134982 3.78807e-318 -0.12245)
(0.186634 0.876883 6.51639e-318 0.0274598 1.23356e-318 -0.214094)
(-0.0376454 1.1723 4.39223e-318 0.410383 -1.12424e-318 -0.372738)
(-0.132142 1.38887 2.05218e-318 0.782652 -2.42624e-318 -0.650509)
(-0.197388 1.59694 9.4533e-319 1.32952 -1.38724e-318 -1.13213)
(-0.0589109 0.790497 -1.50258e-317 0.149265 -1.62274e-317 -0.0903542)
(-0.114851 0.580676 -1.59589e-317 0.173588 -1.29197e-317 -0.0587367)
(-0.12471 0.375311 -1.43148e-317 0.162711 -7.11059e-318 -0.038001)
(-0.132861 0.226016 -1.10606e-317 0.157871 -1.30264e-318 -0.0250097)
(-0.113538 0.075414 -7.29512e-318 0.130008 3.56697e-318 -0.0164699)
(-0.0948243 -0.0253591 -3.53365e-318 0.105866 7.21808e-318 -0.0110413)
(-0.0545185 -0.124035 -1.55443e-319 0.0617165 9.66729e-318 -0.00719801)
(-0.0097208 -0.186896 2.71871e-318 0.0144014 1.10867e-317 -0.00468058)
(0.0537924 -0.234783 5.01887e-318 -0.0507165 1.16454e-317 -0.00307582)
(0.120052 -0.254426 6.75323e-318 -0.117326 1.15497e-317 -0.0027258)
(0.203273 -0.238906 7.94119e-318 -0.199179 1.09257e-317 -0.00409423)
(0.274306 -0.196434 8.60715e-318 -0.266136 9.91401e-318 -0.00817056)
(0.359689 -0.0908522 8.78174e-318 -0.342869 8.57241e-318 -0.0168205)
(0.394599 0.0439663 8.4511e-318 -0.361898 6.97298e-318 -0.0327012)
(0.439008 0.271666 7.63452e-318 -0.377715 5.12645e-318 -0.0612934)
(0.362734 0.528127 6.23963e-318 -0.251966 3.05181e-318 -0.110768)
(0.300606 0.880867 4.28712e-318 -0.102717 7.88721e-319 -0.197889)
(0.0531032 1.25389 1.74807e-318 0.29712 -1.67614e-318 -0.350223)
(-0.0964754 1.63692 -1.21474e-318 0.719995 -3.88228e-318 -0.623519)
(-0.239648 2.04335 -3.10459e-318 1.36104 -5.1988e-318 -1.12139)
(-0.0944858 0.73401 -1.15879e-317 0.338614 -1.12334e-317 -0.244129)
(-0.170151 0.528427 -1.18267e-317 0.312359 -1.02144e-317 -0.142208)
(-0.198751 0.325178 -1.02616e-317 0.28113 -6.80577e-318 -0.082379)
(-0.196206 0.184209 -7.61025e-318 0.244499 -2.66697e-318 -0.0482936)
(-0.182147 0.0311475 -4.54562e-318 0.210516 1.26868e-318 -0.0283691)
(-0.154999 -0.069921 -1.62244e-318 0.17181 4.46758e-318 -0.0168112)
(-0.118155 -0.175979 1.01878e-318 0.127633 6.77891e-318 -0.00947721)
(-0.067931 -0.245572 3.22141e-318 0.0728532 8.24091e-318 -0.00492217)
(-0.00790487 -0.303395 4.97071e-318 0.00973305 8.95909e-318 -0.00182818)
(0.0646934 -0.333745 6.24159e-318 -0.0643568 9.08328e-318 -0.000336617)
(0.146608 -0.328405 7.03624e-318 -0.146201 8.72468e-318 -0.000406558)
(0.231265 -0.296246 7.34457e-318 -0.228148 8.00042e-318 -0.00311748)
(0.323353 -0.193044 7.1469e-318 -0.313614 6.97786e-318 -0.00973862)
(0.386467 -0.0549599 6.40456e-318 -0.363465 5.72548e-318 -0.0230016)
(0.453678 0.199066 5.0249e-318 -0.406446 4.28027e-318 -0.0472319)
(0.420325 0.500492 2.94673e-318 -0.330173 2.65885e-318 -0.0901512)
(0.402914 0.941007 -6.99152e-320 -0.237063 8.76324e-319 -0.165851)
(0.188953 1.43228 -3.88064e-318 0.11058 -1.22954e-318 -0.299532)
(0.0909631 1.96878 -8.80346e-318 0.44806 -3.90724e-318 -0.539023)
(-0.101113 2.51555 -1.30311e-317 1.06415 -8.5352e-318 -0.96304)
(-0.14562 0.652875 -5.82585e-318 0.537608 -8.26088e-318 -0.391988)
(-0.21958 0.469547 -5.81733e-318 0.436303 -1.00299e-317 -0.216723)
(-0.252678 0.282483 -4.67521e-318 0.373016 -8.08247e-318 -0.120338)
(-0.237349 0.145148 -2.89357e-318 0.304939 -4.80625e-318 -0.0675899)
(-0.226911 -0.00382175 -9.61032e-319 0.264924 -1.23034e-318 -0.0380121)
(-0.193384 -0.10773 9.08187e-319 0.214808 1.8607e-318 -0.0214248)
(-0.160151 -0.21651 2.59711e-318 0.171498 4.21192e-318 -0.0113462)
(-0.107091 -0.292424 4.04726e-318 0.112246 5.80442e-318 -0.00515464)
(-0.0497413 -0.357608 5.20395e-318 0.0506528 6.71672e-318 -0.000911493)
(0.0255757 -0.399839 6.03613e-318 -0.0272071 7.08051e-318 0.0016314)
(0.109185 -0.406786 6.51413e-318 -0.111873 7.00588e-318 0.00268811)
(0.203299 -0.394749 6.6109e-318 -0.204787 6.605e-318 0.00148828)
(0.308941 -0.304653 6.30457e-318 -0.305863 5.9553e-318 -0.00307825)
(0.397365 -0.193453 5.54915e-318 -0.384274 5.13196e-318 -0.0130916)
(0.496489 0.0646299 4.30749e-318 -0.464286 4.1894e-318 -0.0322027)
(0.503581 0.344664 2.4898e-318 -0.4374 3.14596e-318 -0.0661807)
(0.520568 0.847136 2.5642e-321 -0.394171 1.99592e-318 -0.126396)
(0.315015 1.36019 -3.17639e-318 -0.0824422 4.646e-319 -0.232573)
(0.170596 2.06194 -7.22859e-318 0.257201 -2.02876e-318 -0.427796)
(-0.153322 2.77958 -1.10754e-317 0.960414 -7.18045e-318 -0.807091)
(-0.162216 0.505187 -7.22475e-318 0.659888 -5.53637e-318 -0.497673)
(-0.264037 0.363745 -4.90859e-318 0.535445 -7.71763e-318 -0.271408)
(-0.31363 0.211862 -2.15172e-318 0.460826 -6.85604e-318 -0.147196)
(-0.290841 0.0961198 -2.38145e-319 0.37139 -4.35773e-318 -0.0805488)
(-0.282332 -0.0395406 1.40305e-318 0.326453 -1.37433e-318 -0.0441209)
(-0.241505 -0.138559 2.66008e-318 0.265642 1.28132e-318 -0.0241372)
(-0.211831 -0.245131 3.7675e-318 0.224051 3.31642e-318 -0.0122195)
(-0.157423 -0.323137 4.68024e-318 0.162363 4.70575e-318 -0.00493994)
(-0.109442 -0.391939 5.40216e-318 0.109221 5.51604e-318 0.000220788)
(-0.0366137 -0.442259 5.88589e-318 0.0329829 5.86139e-318 0.00363078)
(0.0331054 -0.459246 6.09109e-318 -0.0389847 5.83991e-318 0.00587938)
(0.128825 -0.461907 5.97529e-318 -0.135008 5.54908e-318 0.00618306)
(0.222017 -0.385888 5.49216e-318 -0.226047 5.06666e-318 0.00403012)
(0.330996 -0.288891 4.59923e-318 -0.328526 4.46636e-318 -0.00247035)
(0.430663 -0.0322981 3.20796e-318 -0.41524 3.82246e-318 -0.0154227)
(0.496281 0.262698 1.30373e-318 -0.457172 3.17735e-318 -0.0391092)
(0.54597 0.819503 -1.33436e-318 -0.466155 2.53937e-318 -0.0798158)
(0.439986 1.43577 -4.52687e-318 -0.290224 1.68344e-318 -0.149762)
(0.378556 2.29145 -8.69799e-318 -0.107261 -2.87853e-319 -0.271294)
(0.0952761 3.18713 -1.30428e-317 0.38258 -5.78324e-318 -0.477856)
(-0.208851 0.400719 -3.42895e-318 0.788908 -9.78421e-318 -0.580056)
(-0.283349 0.273772 -9.19881e-319 0.587402 -1.3059e-317 -0.304053)
(-0.339559 0.146357 1.71039e-318 0.500242 -1.1134e-317 -0.160683)
(-0.305684 0.0344356 2.9152e-318 0.391816 -7.47791e-318 -0.0861314)
(-0.303015 -0.0881914 3.64067e-318 0.349384 -3.85437e-318 -0.0463693)
(-0.258385 -0.182942 4.11397e-318 0.283345 -8.36097e-319 -0.0249601)
(-0.234016 -0.282313 4.55126e-318 0.246372 1.38261e-318 -0.0123565)
(-0.1809 -0.356773 4.96791e-318 0.185537 2.91678e-318 -0.00463781)
(-0.14085 -0.424309 5.31575e-318 0.139897 3.87972e-318 0.000953398)
(-0.0735583 -0.477013 5.53821e-318 0.0686109 4.41299e-318 0.00494738)
(-0.012522 -0.502829 5.57422e-318 0.00448844 4.62154e-318 0.00803357)
(0.080085 -0.519994 5.37713e-318 -0.0897385 4.60151e-318 0.00965345)
(0.172832 -0.466141 4.91361e-318 -0.182345 4.43013e-318 0.00951372)
(0.295252 -0.401964 4.15981e-318 -0.301599 4.17927e-318 0.00634713)
(0.41919 -0.174808 3.10767e-318 -0.41817 3.91764e-318 -0.0010205)
(0.529514 0.0640627 1.76152e-318 -0.514971 3.69129e-318 -0.0145435)
(0.635703 0.617149 1.26194e-319 -0.599584 3.48856e-318 -0.0361193)
(0.565609 1.15694 -1.74751e-318 -0.497138 3.1071e-318 -0.0684703)
(0.496279 2.10099 -3.91186e-318 -0.376805 1.70132e-318 -0.119474)
(-0.00303758 3.0041 -6.51331e-318 0.238178 -2.44514e-318 -0.23514)
(-0.204157 0.200681 2.51376e-318 0.796935 -2.1274e-318 -0.592778)
(-0.319098 0.144045 4.69118e-318 0.625313 -7.19667e-318 -0.306215)
(-0.373058 0.0783292 6.55507e-318 0.531727 -6.59769e-318 -0.15867)
(-0.335527 -0.00774175 6.40674e-318 0.419212 -3.81768e-318 -0.0836846)
(-0.324027 -0.10235 6.00486e-318 0.368539 -1.12773e-318 -0.0445128)
(-0.27259 -0.187028 5.59408e-318 0.296342 1.03428e-318 -0.0237521)
(-0.249192 -0.271541 5.40428e-318 0.260769 2.53257e-318 -0.0115766)
(-0.197989 -0.339829 5.36769e-318 0.202074 3.49978e-318 -0.00408499)
(-0.170253 -0.400055 5.39438e-318 0.168713 4.04218e-318 0.00154009)
(-0.113168 -0.451752 5.38987e-318 0.107401 4.27298e-318 0.00576628)
(-0.0746303 -0.480677 5.27175e-318 0.0651753 4.27514e-318 0.00945499)
(0.00580537 -0.506573 4.98139e-318 -0.0178514 4.12059e-318 0.012046)
(0.0684851 -0.47104 4.47065e-318 -0.0821584 3.87389e-318 0.0136733)
(0.192915 -0.428162 3.72286e-318 -0.206198 3.59624e-318 0.0132826)
(0.285992 -0.233226 2.70229e-318 -0.296934 3.35613e-318 0.0109426)
(0.449361 -0.0146719 1.4782e-318 -0.455502 3.2126e-318 0.00614124)
(0.542184 0.52389 -1.49257e-320 -0.544276 3.17186e-318 0.00209215)
(0.639594 1.11684 -1.54787e-318 -0.645418 3.14137e-318 0.00582374)
(0.633671 2.15675 -3.26622e-318 -0.674815 2.34208e-318 0.0411442)
(0.389714 3.30309 -5.4458e-318 -0.566016 -6.85121e-319 0.176302)
(-0.227197 0.123358 1.08177e-317 0.795167 -1.5475e-317 -0.56797)
(-0.277173 0.0381276 9.82892e-318 0.557243 -1.8547e-317 -0.28007)
(-0.340087 -0.0252154 8.95093e-318 0.481742 -1.438e-317 -0.141655)
(-0.295656 -0.108021 7.39726e-318 0.369384 -8.86544e-318 -0.0737286)
(-0.290804 -0.191951 6.09967e-318 0.329766 -4.97827e-318 -0.0389621)
(-0.241804 -0.261125 5.24949e-318 0.262592 -2.16288e-318 -0.0207886)
(-0.223728 -0.331652 4.77449e-318 0.233835 -3.05604e-319 -0.0101076)
(-0.179102 -0.38514 4.57233e-318 0.182573 9.63211e-319 -0.00347103)
(-0.160325 -0.435857 4.48677e-318 0.158635 1.80546e-318 0.00168992)
(-0.115038 -0.479774 4.4193e-318 0.109284 2.36475e-318 0.0057537)
(-0.0893715 -0.510645 4.28426e-318 0.0798096 2.72188e-318 0.0095619)
(-0.024024 -0.541891 4.03223e-318 0.0113605 2.94236e-318 0.0126635)
(0.0267106 -0.529334 3.63603e-318 -0.0420442 3.07413e-318 0.0153336)
(0.141256 -0.515866 3.09966e-318 -0.158139 3.16209e-318 0.0168837)
(0.240155 -0.377543 2.45847e-318 -0.258078 3.2443e-318 0.0179227)
(0.4172 -0.234656 1.79106e-318 -0.436455 3.3525e-318 0.0192551)
(0.569884 0.212746 1.22926e-318 -0.596854 3.46338e-318 0.0269697)
(0.686449 0.624748 8.50025e-319 -0.742082 3.48972e-318 0.0556333)
(0.763333 1.58526 8.80959e-319 -0.908112 2.94292e-318 0.144778)
(0.166338 2.37831 4.57055e-319 -0.51132 1.23534e-318 0.344981)
(-0.201552 -0.0871849 2.85466e-317 0.662737 1.10505e-317 -0.461185)
(-0.304231 -0.0817771 2.22032e-317 0.527264 8.92584e-319 -0.223033)
(-0.326006 -0.052937 1.55836e-317 0.437008 -9.38329e-320 -0.111002)
(-0.279212 -0.111281 1.0992e-317 0.336584 1.34985e-318 -0.0573724)
(-0.256118 -0.145172 7.85185e-318 0.286424 2.58022e-318 -0.0303064)
(-0.200405 -0.200857 6.10466e-318 0.216709 3.40012e-318 -0.016304)
(-0.184346 -0.240492 5.11207e-318 0.192316 3.84867e-318 -0.00797065)
(-0.143694 -0.281029 4.61657e-318 0.146428 4.03517e-318 -0.00273401)
(-0.138926 -0.311666 4.34289e-318 0.137391 4.03882e-318 0.00153486)
(-0.107035 -0.342471 4.15859e-318 0.102029 3.91536e-318 0.00500601)
(-0.106163 -0.363415 3.95669e-318 0.0976758 3.70767e-318 0.008487)
(-0.0613658 -0.383956 3.68001e-318 0.0498363 3.44849e-318 0.0115296)
(-0.0497076 -0.37934 3.28992e-318 0.0351293 3.17202e-318 0.0145783)
(0.0456277 -0.366439 2.7843e-318 -0.0626754 2.9106e-318 0.0170477)
(0.0859099 -0.273675 2.1623e-318 -0.105856 2.70117e-318 0.0199466)
(0.285606 -0.155579 1.52188e-318 -0.309915 2.57996e-318 0.0243083)
(0.354127 0.189931 8.95553e-319 -0.391711 2.52948e-318 0.0375843)
(0.678365 0.590476 4.98977e-319 -0.756208 2.52959e-318 0.0778432)
(0.686205 1.48295 3.74329e-319 -0.894804 2.20043e-318 0.208599)
(0.748753 2.65557 -3.41696e-320 -1.38929 1.1785e-318 0.640534)
(-0.14872 -0.104767 2.07114e-317 0.458162 -2.06051e-317 -0.309442)
(-0.133882 -0.192955 1.44152e-317 0.277172 -1.81662e-317 -0.143289)
(-0.17422 -0.231149 8.76355e-318 0.244575 -1.29303e-317 -0.0703547)
(-0.137618 -0.274844 5.6849e-318 0.173996 -7.98244e-318 -0.0363783)
(-0.129894 -0.323768 3.86247e-318 0.149242 -5.31891e-318 -0.0193477)
(-0.0966948 -0.349935 2.94295e-318 0.107299 -3.52058e-318 -0.0106045)
(-0.0869728 -0.383443 2.47083e-318 0.0922384 -2.35525e-318 -0.00526557)
(-0.0628493 -0.402762 2.26659e-318 0.0647204 -1.47889e-318 -0.00187104)
(-0.0602243 -0.426221 2.17219e-318 0.0591669 -7.9843e-319 0.00105743)
(-0.0421513 -0.447456 2.11406e-318 0.0386543 -2.37448e-319 0.00349698)
(-0.0425847 -0.468088 2.03402e-318 0.036498 2.35338e-319 0.00608678)
(-0.0168905 -0.494601 1.90652e-318 0.00844005 6.40729e-319 0.00845046)
(-0.00876498 -0.507328 1.72246e-318 -0.00224613 9.87672e-319 0.0110111)
(0.0503592 -0.528555 1.49612e-318 -0.0636937 1.28249e-318 0.0133345)
(0.087861 -0.496165 1.27094e-318 -0.104155 1.52183e-318 0.0162943)
(0.21744 -0.469972 1.11283e-318 -0.238088 1.70298e-318 0.0206477)
(0.322282 -0.275249 1.16251e-318 -0.354519 1.81096e-318 0.032237)
(0.501937 -0.121647 1.43203e-318 -0.567242 1.81753e-318 0.0653052)
(0.722602 0.465075 2.17991e-318 -0.892794 1.69424e-318 0.170191)
(0.1852 0.713091 2.71201e-318 -0.643117 1.54691e-318 0.457917)
(-0.0490533 -0.325044 3.34506e-317 0.147757 3.49353e-317 -0.0987041)
(-0.139621 -0.264148 2.2978e-317 0.188298 1.74117e-317 -0.0486764)
(-0.0948845 -0.139292 1.18201e-317 0.119062 1.18393e-317 -0.0241778)
(-0.0575594 -0.160178 7.07085e-318 0.0702708 8.929e-318 -0.0127114)
(-0.036605 -0.110641 4.21251e-318 0.0434966 7.84172e-318 -0.00689162)
(0.00306491 -0.131616 3.00505e-318 0.000859847 7.06669e-318 -0.00392475)
(0.00279613 -0.109967 2.34369e-318 -0.000787156 6.54131e-318 -0.00200897)
(0.0232465 -0.119492 2.04568e-318 -0.0224622 6.03591e-318 -0.000784302)
(0.0103652 -0.106668 1.87282e-318 -0.010735 5.55475e-318 0.000369849)
(0.0185044 -0.102657 1.76438e-318 -0.0198408 5.0657e-318 0.00133641)
(-0.00363718 -0.0925496 1.65973e-318 0.00119733 4.58207e-318 0.00243985)
(0.00441127 -0.070633 1.53454e-318 -0.00787237 4.11183e-318 0.0034611)
(-0.0248895 -0.059573 1.36932e-318 0.0202397 3.67359e-318 0.00464976)
(0.00604657 -0.0089119 1.16152e-318 -0.0118142 3.28373e-318 0.00576764)
(-0.0265055 0.00925749 9.02248e-319 0.0192648 2.95004e-318 0.00724069)
(0.0872901 0.109292 6.48516e-319 -0.0965096 2.68288e-318 0.00921947)
(0.0526888 0.151868 4.06493e-319 -0.066761 2.41998e-318 0.0140722)
(0.406822 0.33558 3.31365e-319 -0.434438 2.10184e-318 0.0276159)
(0.303712 0.492692 4.50212e-319 -0.384952 1.56427e-318 0.0812402)
(0.954348 1.25338 4.87332e-319 -1.333 5.60695e-319 0.378655)
)
;

boundaryField
{
    cavity
    {
        type            mySigma;
    }
    lid
    {
        type            fixedValue;
        value           uniform (0.1 -0.3 0 -0.1 0 0);
    }
    frontAndBack
    {
        type            empty;
    }
}


// ************************************************************************* //
