/*--------------------------------*- C++ -*----------------------------------*\
| =========                 |                                                 |
| \\      /  F ield         | foam-extend: Open Source CFD                    |
|  \\    /   O peration     | Version:  3.0                                   |
|   \\  /    A nd           | Web:         http://www.extend-project.de       |
|    \\/     M anipulation  |                                                 |
\*---------------------------------------------------------------------------*/
FoamFile
{
    version     2.0;
    format      ascii;
    class       volVectorField;
    location    "8.8";
    object      s;
}
// * * * * * * * * * * * * * * * * * * * * * * * * * * * * * * * * * * * * * //

dimensions      [0 0 0 0 0 0 0];

internalField   nonuniform List<vector> 
400
(
(-0.0318141 0.0655527 1.33169e-317)
(-0.0531985 0.0930397 2.38461e-317)
(-0.118654 0.095323 2.74474e-317)
(-0.152098 0.0779548 2.79065e-317)
(-0.200356 0.0657488 2.69738e-317)
(-0.227541 0.0481649 2.54273e-317)
(-0.257483 0.036382 2.36597e-317)
(-0.274217 0.0225716 2.18652e-317)
(-0.287967 0.0120133 2.01169e-317)
(-0.293155 7.19106e-05 1.84802e-317)
(-0.291874 -0.0106404 1.69398e-317)
(-0.284711 -0.0228836 1.5525e-317)
(-0.268153 -0.0347362 1.42e-317)
(-0.248147 -0.0484263 1.29649e-317)
(-0.21564 -0.0609664 1.17806e-317)
(-0.184164 -0.0755031 1.06057e-317)
(-0.136584 -0.085513 9.3637e-318)
(-0.100136 -0.0955478 7.92588e-318)
(-0.0434938 -0.0893047 5.98527e-318)
(-0.0212913 -0.0588874 2.94548e-318)
(-0.0347194 0.0372741 1.80408e-317)
(-0.0794471 0.0829033 3.58118e-317)
(-0.151553 0.101214 4.35214e-317)
(-0.203639 0.0988177 4.57744e-317)
(-0.26414 0.0876533 4.52218e-317)
(-0.306986 0.0705959 4.32882e-317)
(-0.34841 0.0526016 4.07226e-317)
(-0.375269 0.0334949 3.79679e-317)
(-0.395622 0.0148979 3.51845e-317)
(-0.404029 -0.00390921 3.25266e-317)
(-0.402787 -0.0224804 2.99766e-317)
(-0.391701 -0.041094 2.75946e-317)
(-0.368576 -0.0594037 2.53086e-317)
(-0.338157 -0.0767793 2.31242e-317)
(-0.294017 -0.0921675 2.09377e-317)
(-0.247384 -0.103434 1.86813e-317)
(-0.186811 -0.107668 1.61744e-317)
(-0.133335 -0.10037 1.32084e-317)
(-0.0678671 -0.0752893 9.35913e-318)
(-0.0259497 -0.028994 4.01533e-318)
(-0.0340984 0.112902 1.7502e-317)
(-0.0759066 0.198572 3.56543e-317)
(-0.146585 0.223612 4.41894e-317)
(-0.195983 0.209446 4.72187e-317)
(-0.252942 0.184278 4.72634e-317)
(-0.293775 0.148061 4.57488e-317)
(-0.33286 0.112285 4.34539e-317)
(-0.359272 0.0736331 4.08584e-317)
(-0.37933 0.0365685 3.81559e-317)
(-0.38879 -0.00172508 3.55171e-317)
(-0.388956 -0.0394686 3.29438e-317)
(-0.379905 -0.0781549 3.04993e-317)
(-0.359123 -0.116294 2.81153e-317)
(-0.33091 -0.153802 2.57885e-317)
(-0.289032 -0.18759 2.33972e-317)
(-0.2438 -0.215683 2.08459e-317)
(-0.184271 -0.230936 1.79147e-317)
(-0.130702 -0.228252 1.43484e-317)
(-0.0645465 -0.19073 9.78289e-318)
(-0.0232319 -0.100075 3.77179e-318)
(-0.0212292 0.108294 1.48066e-317)
(-0.0573329 0.205958 3.0534e-317)
(-0.104903 0.240465 3.8353e-317)
(-0.144555 0.231478 4.15595e-317)
(-0.187236 0.206459 4.21691e-317)
(-0.220961 0.168632 4.1367e-317)
(-0.252725 0.128593 3.97896e-317)
(-0.275905 0.0851755 3.78628e-317)
(-0.293953 0.0419088 3.57577e-317)
(-0.304074 -0.00277044 3.36373e-317)
(-0.306572 -0.0478378 3.15132e-317)
(-0.301788 -0.0937393 2.94491e-317)
(-0.287056 -0.139674 2.73911e-317)
(-0.266055 -0.18379 2.53365e-317)
(-0.233293 -0.223842 2.31726e-317)
(-0.196836 -0.254088 2.07967e-317)
(-0.148962 -0.26876 1.79972e-317)
(-0.103587 -0.256168 1.44835e-317)
(-0.0523116 -0.203576 9.91633e-318)
(-0.0149294 -0.092535 3.80442e-318)
(-0.0170112 0.133684 1.11323e-317)
(-0.0417761 0.249482 2.34295e-317)
(-0.0777741 0.288192 3.00169e-317)
(-0.105991 0.278205 3.32177e-317)
(-0.138133 0.24886 3.43914e-317)
(-0.163426 0.204946 3.43968e-317)
(-0.188368 0.157945 3.36813e-317)
(-0.207448 0.10662 3.25801e-317)
(-0.22334 0.0549939 3.12324e-317)
(-0.234084 0.00104278 2.97846e-317)
(-0.239134 -0.0539725 2.82616e-317)
(-0.239478 -0.110866 2.67314e-317)
(-0.231222 -0.16862 2.51662e-317)
(-0.218845 -0.225173 2.35764e-317)
(-0.194538 -0.277803 2.18803e-317)
(-0.168147 -0.31908 1.99982e-317)
(-0.127539 -0.342407 1.77396e-317)
(-0.0911455 -0.331314 1.48193e-317)
(-0.0431072 -0.271559 1.07562e-317)
(-0.0137439 -0.131307 4.74083e-318)
(-0.0090525 0.12859 6.90696e-318)
(-0.0260405 0.245844 1.54868e-317)
(-0.0449298 0.288261 2.07754e-317)
(-0.0628491 0.281004 2.39808e-317)
(-0.0824614 0.253743 2.57539e-317)
(-0.099942 0.210892 2.66114e-317)
(-0.117536 0.164229 2.68069e-317)
(-0.132756 0.112493 2.65828e-317)
(-0.14634 0.0596824 2.60447e-317)
(-0.15769 0.00373647 2.5319e-317)
(-0.165308 -0.0543244 2.44444e-317)
(-0.170803 -0.115311 2.34902e-317)
(-0.169528 -0.178572 2.24531e-317)
(-0.166175 -0.241466 2.13532e-317)
(-0.151792 -0.301619 2.01374e-317)
(-0.136271 -0.349078 1.87409e-317)
(-0.105532 -0.377462 1.69886e-317)
(-0.0785469 -0.363732 1.45888e-317)
(-0.0367437 -0.295282 1.09602e-317)
(-0.0128584 -0.133792 5.10333e-318)
(-0.00517761 0.130993 2.97597e-318)
(-0.013774 0.251269 8.15356e-318)
(-0.022125 0.295073 1.22649e-317)
(-0.0309538 0.289733 1.54722e-317)
(-0.0413551 0.263408 1.77759e-317)
(-0.0518017 0.221211 1.93801e-317)
(-0.0632616 0.174633 2.03724e-317)
(-0.0747001 0.122391 2.09106e-317)
(-0.0859727 0.068565 2.1074e-317)
(-0.0975187 0.010637 2.09717e-317)
(-0.107061 -0.0502676 2.06523e-317)
(-0.11722 -0.115744 2.01862e-317)
(-0.121973 -0.184917 1.95891e-317)
(-0.127587 -0.256052 1.8889e-317)
(-0.121751 -0.325893 1.80547e-317)
(-0.117811 -0.38477 1.70361e-317)
(-0.0938678 -0.423748 1.56756e-317)
(-0.0774635 -0.417582 1.37026e-317)
(-0.0341701 -0.347922 1.05037e-317)
(-0.0180764 -0.166609 5.0533e-318)
(-0.000178656 0.122206 -4.28528e-319)
(-0.00309966 0.236465 1.83761e-318)
(0.000207405 0.280446 4.93125e-318)
(-0.000925067 0.277169 8.10127e-318)
(-0.00181825 0.254377 1.08214e-317)
(-0.00579532 0.215623 1.30304e-317)
(-0.0108313 0.17262 1.46804e-317)
(-0.0182677 0.123473 1.58565e-317)
(-0.0265656 0.0724097 1.66124e-317)
(-0.0373758 0.0164529 1.7041e-317)
(-0.047875 -0.0433664 1.71945e-317)
(-0.061297 -0.109282 1.71409e-317)
(-0.0713514 -0.180716 1.69066e-317)
(-0.0845059 -0.256615 1.6522e-317)
(-0.0876837 -0.333917 1.59658e-317)
(-0.0942862 -0.402408 1.51972e-317)
(-0.07971 -0.452406 1.4071e-317)
(-0.0729864 -0.453232 1.23567e-317)
(-0.0326919 -0.383758 9.48984e-318)
(-0.0213882 -0.182264 4.58367e-318)
(0.00371843 0.115051 -2.86593e-318)
(0.0058424 0.223881 -2.8213e-318)
(0.017935 0.266659 -5.87988e-319)
(0.0229885 0.265651 2.4455e-318)
(0.0297213 0.245767 5.3888e-318)
(0.0313522 0.210693 7.97908e-318)
(0.032134 0.171275 1.00723e-317)
(0.0287999 0.125646 1.16903e-317)
(0.0240015 0.0779284 1.28653e-317)
(0.0148659 0.024724 1.36716e-317)
(0.00480095 -0.0328141 1.41603e-317)
(-0.0105725 -0.0980865 1.43922e-317)
(-0.0241228 -0.170096 1.43964e-317)
(-0.0441374 -0.250127 1.41991e-317)
(-0.0547192 -0.333456 1.37818e-317)
(-0.0733081 -0.413622 1.31047e-317)
(-0.0665789 -0.475324 1.20397e-317)
(-0.0740089 -0.491801 1.03996e-317)
(-0.0320557 -0.426867 7.75489e-318)
(-0.0320556 -0.215111 3.52493e-318)
(0.00711932 0.102375 -4.4301e-318)
(0.0131316 0.201399 -5.96772e-318)
(0.0332172 0.242471 -4.45751e-318)
(0.0438313 0.243362 -1.66438e-318)
(0.0578288 0.227364 1.32109e-318)
(0.0650112 0.196833 4.09737e-318)
(0.0718253 0.162349 6.45121e-318)
(0.07325 0.121698 8.35442e-318)
(0.0728698 0.0789894 9.81531e-318)
(0.0669777 0.0305449 1.0889e-317)
(0.0589569 -0.0226047 1.16204e-317)
(0.0442504 -0.084576 1.20617e-317)
(0.0290173 -0.154733 1.22394e-317)
(0.00570002 -0.235841 1.2175e-317)
(-0.0117236 -0.323586 1.18468e-317)
(-0.0382162 -0.413226 1.12164e-317)
(-0.0427942 -0.488592 1.01697e-317)
(-0.0599854 -0.520852 8.56295e-318)
(-0.0276321 -0.466936 6.1207e-318)
(-0.0319239 -0.243731 2.54139e-318)
(0.0108674 0.0916117 -5.16257e-318)
(0.0189855 0.181029 -7.71089e-318)
(0.0457268 0.218968 -6.79845e-318)
(0.0600844 0.221649 -4.3321e-318)
(0.0800985 0.208604 -1.46369e-318)
(0.0918222 0.18252 1.3193e-318)
(0.104191 0.152607 3.76293e-318)
(0.110271 0.117026 5.79627e-318)
(0.114775 0.0795683 7.40797e-318)
(0.112927 0.0364565 8.63259e-318)
(0.108474 -0.0111716 9.50638e-318)
(0.0959058 -0.0684337 1.00693e-317)
(0.0814596 -0.134168 1.03445e-317)
(0.055917 -0.214042 1.03449e-317)
(0.034408 -0.301714 1.00496e-317)
(-0.00191436 -0.39897 9.41721e-318)
(-0.0153935 -0.482035 8.35623e-318)
(-0.0508076 -0.533131 6.75785e-318)
(-0.0220811 -0.486154 4.49913e-318)
(-0.0457204 -0.265248 1.53536e-318)
(0.0126629 0.0762373 -5.1727e-318)
(0.0233054 0.155127 -8.26449e-318)
(0.0546147 0.190298 -7.86167e-318)
(0.0728866 0.194636 -5.7931e-318)
(0.0980474 0.184785 -3.17135e-318)
(0.114471 0.163094 -5.20414e-319)
(0.132203 0.137938 1.87912e-318)
(0.14342 0.107653 3.92608e-318)
(0.153305 0.0757709 5.58714e-318)
(0.156865 0.0386566 6.87903e-318)
(0.157404 -0.00272832 7.82671e-318)
(0.149953 -0.0537637 8.46145e-318)
(0.138562 -0.113696 8.80082e-318)
(0.116166 -0.189505 8.85406e-318)
(0.092239 -0.275717 8.60094e-318)
(0.0544852 -0.377168 8.00564e-318)
(0.0284422 -0.470559 6.99579e-318)
(-0.0132155 -0.540898 5.49323e-318)
(-0.00790717 -0.515115 3.47709e-318)
(-0.0327252 -0.302642 1.01428e-318)
(0.015171 0.0651567 -5.00969e-318)
(0.0253544 0.132966 -8.32567e-318)
(0.0602499 0.163734 -8.27228e-318)
(0.0802173 0.168816 -6.55877e-318)
(0.109306 0.161016 -4.20753e-318)
(0.12899 0.143193 -1.74689e-318)
(0.151139 0.122165 5.38181e-319)
(0.166617 0.0968559 2.52507e-318)
(0.181514 0.0703061 4.16693e-318)
(0.190242 0.0391766 5.46509e-318)
(0.196442 0.00446562 6.43443e-318)
(0.194568 -0.0394946 7.09746e-318)
(0.188474 -0.0915186 7.4679e-318)
(0.169667 -0.16054 7.55164e-318)
(0.147398 -0.239535 7.33327e-318)
(0.105479 -0.339739 6.78285e-318)
(0.0728144 -0.431208 5.85365e-318)
(0.011886 -0.513867 4.49012e-318)
(0.00713626 -0.491011 2.73185e-318)
(-0.047906 -0.292287 6.90047e-319)
(0.0149742 0.0495157 -4.2066e-318)
(0.0262646 0.10805 -7.50226e-318)
(0.0623763 0.135185 -7.78155e-318)
(0.084777 0.141222 -6.47359e-318)
(0.116787 0.135343 -4.47164e-318)
(0.139739 0.121018 -2.28664e-318)
(0.165608 0.103816 -2.02142e-319)
(0.185145 0.0831203 1.64559e-318)
(0.20468 0.0615305 3.19593e-318)
(0.218979 0.0361501 4.43786e-318)
(0.231239 0.00782774 5.37686e-318)
(0.237126 -0.0287384 6.02973e-318)
(0.237921 -0.0726402 6.40736e-318)
(0.228559 -0.133111 6.51568e-318)
(0.209951 -0.204251 6.34501e-318)
(0.176366 -0.299944 5.87582e-318)
(0.133795 -0.392921 5.08049e-318)
(0.076939 -0.490536 3.92326e-318)
(0.0336715 -0.494706 2.45289e-318)
(-0.0119268 -0.334034 7.31089e-319)
(0.0147845 0.040333 -4.09277e-318)
(0.0236049 0.0877826 -7.13932e-318)
(0.0594309 0.109669 -7.47884e-318)
(0.081761 0.115035 -6.37982e-318)
(0.114839 0.110199 -4.62616e-318)
(0.139003 0.0987632 -2.67216e-318)
(0.166623 0.0848578 -7.8135e-319)
(0.188259 0.0683263 9.1417e-319)
(0.210651 0.0511533 2.35171e-318)
(0.228601 0.0310222 3.51434e-318)
(0.245789 0.0086542 4.40329e-318)
(0.257593 -0.0206054 5.02955e-318)
(0.265804 -0.0557845 5.40281e-318)
(0.263753 -0.105829 5.52903e-318)
(0.252974 -0.164751 5.40505e-318)
(0.222417 -0.248493 5.01976e-318)
(0.1812 -0.328187 4.36532e-318)
(0.109423 -0.420727 3.41984e-318)
(0.0570029 -0.416997 2.21992e-318)
(-0.0297647 -0.269848 7.71978e-319)
(0.0122137 0.0273166 -2.86082e-318)
(0.0207884 0.0672635 -5.6912e-318)
(0.0554839 0.0846863 -6.23994e-318)
(0.0786972 0.0899348 -5.49617e-318)
(0.11249 0.0859167 -4.09098e-318)
(0.137434 0.0770262 -2.45765e-318)
(0.16604 0.0660877 -8.35761e-319)
(0.188839 0.0532037 6.37468e-319)
(0.21311 0.0399877 1.89919e-318)
(0.234089 0.0244693 2.92648e-318)
(0.255424 0.00745881 3.71669e-318)
(0.273966 -0.0151258 4.27739e-318)
(0.289562 -0.0420898 4.61762e-318)
(0.299631 -0.0818655 4.74442e-318)
(0.297419 -0.128859 4.65905e-318)
(0.284519 -0.200556 4.36007e-318)
(0.240959 -0.271132 3.84783e-318)
(0.19062 -0.369095 3.11191e-318)
(0.0916894 -0.390697 2.15805e-318)
(0.0395249 -0.3157 9.17934e-319)
(0.00834341 0.0213636 -3.17211e-318)
(0.0132919 0.0500473 -5.38604e-318)
(0.0434919 0.0617965 -5.72479e-318)
(0.0645332 0.0652415 -5.01473e-318)
(0.0951458 0.061915 -3.80282e-318)
(0.118021 0.0553778 -2.409e-318)
(0.143867 0.0471857 -1.0333e-318)
(0.164854 0.0377274 2.18036e-319)
(0.187425 0.0278061 1.29171e-318)
(0.207668 0.016299 2.16993e-318)
(0.229529 0.00352517 2.84946e-318)
(0.249542 -0.0131164 3.33662e-318)
(0.26957 -0.0331068 3.63915e-318)
(0.28429 -0.0620028 3.76391e-318)
(0.291956 -0.0964776 3.71617e-318)
(0.284752 -0.148307 3.49943e-318)
(0.2547 -0.199217 3.12342e-318)
(0.197112 -0.267495 2.58528e-318)
(0.10946 -0.269176 1.86932e-318)
(0.00876805 -0.179969 8.71729e-319)
(0.00345715 0.0130147 -1.47695e-318)
(0.00827331 0.0354766 -3.54145e-318)
(0.0368613 0.0425712 -4.03382e-318)
(0.0565129 0.0451651 -3.66073e-318)
(0.0855796 0.0422822 -2.78567e-318)
(0.105488 0.0376238 -1.74075e-318)
(0.129118 0.0319659 -6.8104e-319)
(0.147224 0.0253202 2.88352e-319)
(0.167935 0.0187011 1.12398e-318)
(0.186846 0.0106592 1.80722e-318)
(0.208461 0.00229548 2.33607e-318)
(0.230525 -0.00922804 2.71568e-318)
(0.253634 -0.0219936 2.95182e-318)
(0.27706 -0.0420726 3.05262e-318)
(0.292481 -0.0638646 3.02243e-318)
(0.305908 -0.102504 2.86835e-318)
(0.281768 -0.136737 2.59912e-318)
(0.264363 -0.205595 2.21614e-318)
(0.137564 -0.222439 1.69139e-318)
(0.118904 -0.240685 8.85435e-319)
(-0.00193805 0.0097838 -2.00294e-318)
(-0.00113736 0.0191201 -3.00806e-318)
(0.0169294 0.0216397 -3.1075e-318)
(0.03005 0.0225637 -2.69728e-318)
(0.0483386 0.0209958 -2.07032e-318)
(0.0614672 0.0188364 -1.36138e-318)
(0.0757187 0.0156374 -6.69968e-319)
(0.0872826 0.012082 -4.30232e-320)
(0.099907 0.00784008 4.93917e-319)
(0.111834 0.00298271 9.33196e-319)
(0.126163 -0.00277621 1.27382e-318)
(0.140288 -0.00981637 1.52075e-318)
(0.157915 -0.018438 1.67682e-318)
(0.173216 -0.0293882 1.74767e-318)
(0.189993 -0.0429572 1.73879e-318)
(0.197322 -0.0596337 1.6555e-318)
(0.194015 -0.078591 1.50891e-318)
(0.168428 -0.0943048 1.303e-318)
(0.104961 -0.0928147 1.01114e-318)
(0.0326895 -0.0248637 5.35295e-319)
(-0.00504412 0.00457552 -6.31465e-320)
(-0.000599237 0.0113804 -9.72746e-319)
(0.0146741 0.0111299 -1.14879e-318)
(0.0224203 0.0114533 -1.06343e-318)
(0.0363277 0.0102418 -7.75085e-319)
(0.0422849 0.00895157 -4.48389e-319)
(0.0523219 0.00796102 -1.16377e-319)
(0.0576266 0.00638128 1.80457e-319)
(0.0660893 0.00559424 4.34155e-319)
(0.072976 0.00382082 6.38931e-319)
(0.0825187 0.00309432 7.96577e-319)
(0.0932928 0.000636425 9.09629e-319)
(0.105614 -0.000155064 9.80538e-319)
(0.12215 -0.00465091 1.01219e-318)
(0.135407 -0.00545584 1.00627e-318)
(0.157504 -0.016335 9.65913e-319)
(0.155918 -0.016139 8.96858e-319)
(0.179908 -0.0502642 8.04433e-319)
(0.0994445 -0.045381 6.86282e-319)
(0.157498 -0.144572 4.75425e-319)
)
;

boundaryField
{
    cavity
    {
        type            myHeatFlux;
        ThetaWall       uniform 0;
        value           nonuniform List<vector> 
60
(
(0.001 0 0)
(0.001 0 0)
(0.001 0 0)
(0.001 0 0)
(0.001 0 0)
(0.001 0 0)
(0.001 0 0)
(0.001 0 0)
(0.001 0 0)
(0.001 0 0)
(0.001 0 0)
(0.001 0 0)
(0.001 0 0)
(0.001 0 0)
(0.001 0 0)
(0.001 0 0)
(0.001 0 0)
(0.001 0 0)
(0.001 0 0)
(0.001 0 0)
(0 -0.001 0)
(0 -0.001 0)
(0 -0.001 0)
(0 -0.001 0)
(0 -0.001 0)
(0 -0.001 0)
(0 -0.001 0)
(0 -0.001 0)
(0 -0.001 0)
(0 -0.001 0)
(0 -0.001 0)
(0 -0.001 0)
(0 -0.001 0)
(0 -0.001 0)
(0 -0.001 0)
(0 -0.001 0)
(0 -0.001 0)
(0 -0.001 0)
(0 -0.001 0)
(0 -0.001 0)
(-0.001 0 0)
(-0.001 0 0)
(-0.001 0 0)
(-0.001 0 0)
(-0.001 0 0)
(-0.001 0 0)
(-0.001 0 0)
(-0.001 0 0)
(-0.001 0 0)
(-0.001 0 0)
(-0.001 0 0)
(-0.001 0 0)
(-0.001 0 0)
(-0.001 0 0)
(-0.001 0 0)
(-0.001 0 0)
(-0.001 0 0)
(-0.001 0 0)
(-0.001 0 0)
(-0.001 0 0)
)
;
    }
    lid
    {
        type            myHeatFlux;
        ThetaWall       uniform 0;
        value           nonuniform List<vector> 
20
(
(0.000135815 0.0009 0)
(0.000135815 0.0009 0)
(0.000135815 0.0009 0)
(0.000135815 0.0009 0)
(0.000135815 0.0009 0)
(0.000135815 0.0009 0)
(0.000135815 0.0009 0)
(0.000135815 0.0009 0)
(0.000135815 0.0009 0)
(0.000135815 0.0009 0)
(0.000135815 0.0009 0)
(0.000135815 0.0009 0)
(0.000135815 0.0009 0)
(0.000135815 0.0009 0)
(0.000135815 0.0009 0)
(0.000135815 0.0009 0)
(0.000135815 0.0009 0)
(0.000135815 0.0009 0)
(0.000135815 0.0009 0)
(0.000135815 0.0009 0)
)
;
    }
    frontAndBack
    {
        type            empty;
    }
}


// ************************************************************************* //
