/*--------------------------------*- C++ -*----------------------------------*\
| =========                 |                                                 |
| \\      /  F ield         | foam-extend: Open Source CFD                    |
|  \\    /   O peration     | Version:  3.0                                   |
|   \\  /    A nd           | Web:         http://www.extend-project.de       |
|    \\/     M anipulation  |                                                 |
\*---------------------------------------------------------------------------*/
FoamFile
{
    version     2.0;
    format      ascii;
    class       volScalarField;
    location    "8.8";
    object      Theta;
}
// * * * * * * * * * * * * * * * * * * * * * * * * * * * * * * * * * * * * * //

dimensions      [0 0 0 0 0 0 0];

internalField   nonuniform List<scalar> 
400
(
0.484101
-0.317441
-0.364968
-0.492411
-0.354309
-0.306178
-0.152248
-0.0654975
0.0720579
0.164356
0.292238
0.381336
0.50815
0.579113
0.697352
0.706926
0.771633
0.602748
0.478258
-0.226467
1.58544
0.932396
0.777925
0.518257
0.50317
0.382256
0.38499
0.31031
0.303103
0.239789
0.220925
0.151243
0.123901
0.0316582
-0.00478955
-0.14754
-0.213924
-0.475501
-0.660376
-1.2196
1.22541
0.615859
0.529494
0.335324
0.349183
0.277143
0.298216
0.261047
0.273667
0.244664
0.252431
0.220786
0.228683
0.181311
0.185953
0.0918363
0.0661216
-0.152041
-0.295173
-0.833915
1.21738
0.853881
0.732411
0.568133
0.533181
0.442033
0.420945
0.353936
0.33142
0.273066
0.252139
0.195968
0.181575
0.117481
0.105095
0.00595911
-0.0370404
-0.233992
-0.396587
-0.788251
0.862023
0.551224
0.498668
0.37923
0.378216
0.321178
0.325313
0.290092
0.295477
0.271673
0.287119
0.271928
0.306472
0.290096
0.340701
0.287472
0.316332
0.135804
0.0313551
-0.450928
0.728408
0.569177
0.517586
0.437357
0.418806
0.365831
0.352164
0.311022
0.303184
0.274024
0.283649
0.269997
0.309662
0.306855
0.376797
0.350551
0.409899
0.256206
0.168998
-0.334135
0.488753
0.395655
0.384846
0.337151
0.33136
0.295596
0.289296
0.262215
0.265387
0.252988
0.282951
0.293412
0.370225
0.402248
0.53574
0.5494
0.701929
0.551766
0.546588
-0.156535
0.341281
0.367947
0.366565
0.35249
0.334779
0.303364
0.281635
0.249198
0.238221
0.219291
0.239241
0.248919
0.324774
0.370438
0.519176
0.567773
0.753837
0.642636
0.658053
-0.106895
0.169092
0.288799
0.30146
0.314785
0.290014
0.265253
0.234749
0.202515
0.185224
0.165324
0.184999
0.197751
0.288768
0.348988
0.547061
0.625267
0.918114
0.817806
0.977914
-0.0110932
0.0248255
0.251927
0.277319
0.317292
0.281948
0.25802
0.210787
0.168678
0.130686
0.0953515
0.0906099
0.0882143
0.153627
0.210828
0.388011
0.494568
0.775226
0.745055
0.880025
-0.0447259
-0.0993045
0.230262
0.247787
0.31151
0.258507
0.236558
0.172168
0.121643
0.0647945
0.0132879
-0.0120399
-0.0347321
0.0167493
0.0587942
0.254498
0.367044
0.752537
0.750238
1.13342
0.0679166
-0.221
0.187676
0.224602
0.306929
0.249548
0.226521
0.147402
0.0835182
0.00108169
-0.0752411
-0.140073
-0.196061
-0.201141
-0.188457
-0.0687903
0.0521371
0.337125
0.445672
0.687726
-0.037302
-0.288106
0.199363
0.214768
0.316613
0.242091
0.221122
0.124649
0.0487222
-0.0586459
-0.161802
-0.262712
-0.360434
-0.408682
-0.446469
-0.350109
-0.263627
0.104943
0.249503
0.874402
0.185515
-0.357933
0.163187
0.205056
0.317528
0.24808
0.226361
0.120098
0.0299436
-0.103724
-0.237368
-0.386555
-0.532232
-0.661054
-0.755963
-0.789135
-0.726243
-0.566692
-0.282356
0.0023088
0.0206629
-0.343361
0.202678
0.220129
0.346984
0.268352
0.250625
0.13139
0.0289267
-0.129771
-0.294618
-0.486571
-0.687455
-0.87981
-1.05711
-1.15579
-1.18148
-0.981787
-0.686427
0.113398
0.387842
-0.322966
0.207688
0.252493
0.382975
0.315338
0.296816
0.171667
0.0556184
-0.126109
-0.32125
-0.559615
-0.813424
-1.09213
-1.34669
-1.60344
-1.69516
-1.79332
-1.37858
-1.18292
0.140038
-0.191538
0.290973
0.317464
0.456035
0.386749
0.37165
0.237005
0.109303
-0.0934507
-0.317138
-0.594179
-0.903305
-1.24948
-1.6031
-1.95561
-2.19144
-2.32027
-1.97521
-1.22836
0.516069
-0.0315422
0.396643
0.440399
0.57401
0.509917
0.487936
0.346177
0.204363
-0.0147184
-0.262338
-0.570951
-0.924278
-1.33665
-1.7715
-2.26498
-2.6178
-3.05745
-2.72683
-2.81097
0.0547952
0.244149
0.556855
0.591773
0.724433
0.656493
0.629913
0.477258
0.323041
0.0892777
-0.178365
-0.511397
-0.905194
-1.36877
-1.89357
-2.48735
-3.01666
-3.58016
-3.4522
-3.25803
-0.00155606
0.604803
0.85774
0.881693
0.987954
0.900069
0.844371
0.678947
0.503916
0.267163
-0.0151639
-0.347311
-0.764644
-1.23906
-1.83068
-2.47999
-3.18887
-3.92407
-4.16746
-4.62314
-1.17342
)
;

boundaryField
{
    cavity
    {
        type            implicitExtrapolation;
    }
    lid
    {
        type            implicitExtrapolation;
    }
    frontAndBack
    {
        type            empty;
    }
}


// ************************************************************************* //
