/*--------------------------------*- C++ -*----------------------------------*\
| =========                 |                                                 |
| \\      /  F ield         | foam-extend: Open Source CFD                    |
|  \\    /   O peration     | Version:  3.0                                   |
|   \\  /    A nd           | Web:         http://www.extend-project.de       |
|    \\/     M anipulation  |                                                 |
\*---------------------------------------------------------------------------*/
FoamFile
{
    version     2.0;
    format      ascii;
    class       volScalarField;
    location    "7";
    object      p;
}
// * * * * * * * * * * * * * * * * * * * * * * * * * * * * * * * * * * * * * //

dimensions      [0 0 0 0 0 0 0];

internalField   nonuniform List<scalar> 
1920
(
-0.221038
-0.198099
-0.185438
-0.170604
-0.163019
-0.153013
-0.148459
-0.141581
-0.138933
-0.134174
-0.132726
-0.129414
-0.128658
-0.126283
-0.125797
-0.123914
-0.123286
-0.121445
-0.120214
-0.117903
-0.2201
-0.197258
-0.18465
-0.169879
-0.162325
-0.152362
-0.147827
-0.140978
-0.13834
-0.133602
-0.132159
-0.128861
-0.128109
-0.125743
-0.125259
-0.123384
-0.122758
-0.120926
-0.1197
-0.117398
-0.2182
-0.195555
-0.183056
-0.168412
-0.160924
-0.151048
-0.146551
-0.139762
-0.137148
-0.13245
-0.131021
-0.127751
-0.127005
-0.124661
-0.124181
-0.122322
-0.121702
-0.119885
-0.11867
-0.116388
-0.215386
-0.193033
-0.180694
-0.166239
-0.158848
-0.149098
-0.144659
-0.137957
-0.135376
-0.130739
-0.129327
-0.126099
-0.125363
-0.123049
-0.122575
-0.12074
-0.120127
-0.118334
-0.117134
-0.114882
-0.211629
-0.189666
-0.177543
-0.16334
-0.156077
-0.146498
-0.142137
-0.135552
-0.133016
-0.12846
-0.127073
-0.123902
-0.123179
-0.120905
-0.12044
-0.118637
-0.118035
-0.116273
-0.115095
-0.112882
-0.206986
-0.185505
-0.173647
-0.159755
-0.152652
-0.143282
-0.139016
-0.132575
-0.130095
-0.125638
-0.124282
-0.12118
-0.120472
-0.118248
-0.117793
-0.11603
-0.115441
-0.113717
-0.112565
-0.1104
-0.201437
-0.180531
-0.168992
-0.155473
-0.14856
-0.139441
-0.13529
-0.129022
-0.126609
-0.122272
-0.120952
-0.117934
-0.117245
-0.115081
-0.114638
-0.112922
-0.112349
-0.110672
-0.10955
-0.107444
-0.195045
-0.174803
-0.163629
-0.150538
-0.143844
-0.135015
-0.130995
-0.124926
-0.122588
-0.118389
-0.11711
-0.114187
-0.11352
-0.111424
-0.110995
-0.109334
-0.108779
-0.107155
-0.106069
-0.104029
-0.187798
-0.168308
-0.15755
-0.144946
-0.1385
-0.129999
-0.126129
-0.120285
-0.118035
-0.113992
-0.112761
-0.109947
-0.109305
-0.107287
-0.106874
-0.105274
-0.10474
-0.103177
-0.102131
-0.100167
-0.179767
-0.16111
-0.150811
-0.138746
-0.132576
-0.124438
-0.120733
-0.115138
-0.112984
-0.109113
-0.107935
-0.105241
-0.104626
-0.102694
-0.102299
-0.100767
-0.100256
-0.0987592
-0.0977581
-0.0958785
-0.170946
-0.153205
-0.143411
-0.131938
-0.126071
-0.118333
-0.11481
-0.10949
-0.107442
-0.103761
-0.102641
-0.100079
-0.0994948
-0.0976578
-0.0972819
-0.0958256
-0.0953392
-0.0939161
-0.0929641
-0.0911768
-0.161413
-0.14466
-0.135413
-0.124579
-0.119039
-0.111731
-0.108405
-0.103381
-0.101447
-0.0979709
-0.0969129
-0.0944937
-0.0939418
-0.0922071
-0.0918519
-0.0904767
-0.0900173
-0.0886735
-0.0877746
-0.086087
-0.151169
-0.13548
-0.12682
-0.116673
-0.111485
-0.104641
-0.101526
-0.0968216
-0.09501
-0.091755
-0.0907644
-0.0884988
-0.0879821
-0.0863575
-0.0860251
-0.0847372
-0.084307
-0.0830485
-0.0822066
-0.0806261
-0.140297
-0.125735
-0.117698
-0.108281
-0.103465
-0.0971133
-0.0942216
-0.0898552
-0.0881735
-0.0851524
-0.0842327
-0.0821298
-0.0816501
-0.0801421
-0.0798334
-0.078638
-0.0782386
-0.0770706
-0.0762892
-0.0748224
-0.128805
-0.115437
-0.108058
-0.099412
-0.0949911
-0.0891596
-0.086505
-0.0824963
-0.0809525
-0.078179
-0.0773348
-0.0754043
-0.0749639
-0.0735796
-0.0732963
-0.0721988
-0.0718322
-0.0707599
-0.0700425
-0.0686959
-0.11678
-0.104659
-0.0979688
-0.0901299
-0.0861212
-0.0808338
-0.0784266
-0.0747917
-0.0733918
-0.0708769
-0.0701112
-0.0683607
-0.0679613
-0.066706
-0.0664489
-0.0654538
-0.0651213
-0.0641491
-0.0634986
-0.0622777
-0.104237
-0.0934186
-0.0874467
-0.0804497
-0.0768718
-0.0721523
-0.0700037
-0.0667594
-0.0655099
-0.0632652
-0.0625819
-0.0610195
-0.0606631
-0.0595427
-0.0593134
-0.0584252
-0.0581284
-0.0572606
-0.05668
-0.0555902
-0.0912658
-0.0817928
-0.0765637
-0.070437
-0.0673039
-0.0631712
-0.0612897
-0.0584487
-0.0573545
-0.0553887
-0.0547903
-0.053422
-0.0531098
-0.0521286
-0.0519276
-0.0511498
-0.0508899
-0.05013
-0.0496216
-0.0486675
-0.0778861
-0.0698019
-0.0653395
-0.0601109
-0.0574372
-0.0539103
-0.0523047
-0.0498802
-0.0489465
-0.047269
-0.0467584
-0.0455908
-0.0453244
-0.0444872
-0.0443157
-0.043652
-0.0434302
-0.0427817
-0.0423478
-0.0415336
-0.06419
-0.0575268
-0.0538488
-0.0495391
-0.0473351
-0.0444279
-0.0431043
-0.0411057
-0.0403359
-0.0389531
-0.038532
-0.0375695
-0.0373497
-0.0366595
-0.036518
-0.0359709
-0.0357879
-0.0352534
-0.0348958
-0.0342247
-0.0502021
-0.0449908
-0.0421143
-0.0387436
-0.0370198
-0.0347461
-0.0337109
-0.0321477
-0.0315457
-0.0304642
-0.030135
-0.0293822
-0.0292104
-0.0286706
-0.02856
-0.028132
-0.027989
-0.0275709
-0.0272912
-0.0267665
-0.0360159
-0.0322767
-0.0302126
-0.0277936
-0.0265565
-0.0249246
-0.0241816
-0.0230596
-0.0226274
-0.0218511
-0.0216146
-0.0210743
-0.0209508
-0.0205633
-0.0204838
-0.0201766
-0.0200738
-0.0197738
-0.0195731
-0.0191967
-0.0216589
-0.0194099
-0.0181685
-0.0167133
-0.0159691
-0.0149873
-0.0145403
-0.0138653
-0.0136053
-0.0131382
-0.012996
-0.0126709
-0.0125967
-0.0123636
-0.0123157
-0.0121309
-0.012069
-0.0118886
-0.0117679
-0.0115416
-0.00722575
-0.00647438
-0.00605959
-0.00557281
-0.0053237
-0.00499505
-0.00484523
-0.00461913
-0.00453191
-0.00437542
-0.00432765
-0.00421869
-0.00419365
-0.00411548
-0.00409925
-0.0040373
-0.00401643
-0.00395609
-0.00391569
-0.00384033
0.0072549
0.00650319
0.00608821
0.00560291
0.00535484
0.0050278
0.00487902
0.00465435
0.00456786
0.00441245
0.00436516
0.00425701
0.00423239
0.00415487
0.00413912
0.00407765
0.00405722
0.00399697
0.00395666
0.00388058
0.021688
0.0194386
0.018197
0.0167432
0.0160001
0.0150199
0.0145739
0.0139002
0.013641
0.013175
0.0130333
0.0127089
0.0126351
0.0124026
0.0123553
0.0121709
0.0121095
0.0119292
0.0118085
0.0115815
0.0360447
0.0323051
0.0302408
0.0278233
0.0265871
0.0249569
0.0242148
0.0230943
0.0226628
0.0218875
0.0216516
0.021112
0.020989
0.0206021
0.020523
0.0202163
0.020114
0.019814
0.0196134
0.0192362
0.0502305
0.0450189
0.0421421
0.0387727
0.0370499
0.0347777
0.0337435
0.0321817
0.0315803
0.0304998
0.030171
0.029419
0.0292476
0.0287084
0.0285983
0.0281708
0.0280282
0.0276102
0.0273306
0.0268051
0.0642178
0.0575542
0.0538759
0.0495676
0.0473645
0.0444589
0.0431362
0.041139
0.0403699
0.0389881
0.0385675
0.0376057
0.0373864
0.0366968
0.0365558
0.036009
0.0358265
0.035292
0.0349345
0.0342627
0.0779135
0.0698288
0.065366
0.0601387
0.0574658
0.0539403
0.0523356
0.0499124
0.0489793
0.0473027
0.0467925
0.0456257
0.0453596
0.044523
0.0443519
0.0436886
0.0434672
0.0428188
0.042385
0.04157
0.0912921
0.0818187
0.0765893
0.0704638
0.0673315
0.0632002
0.0613196
0.0584799
0.0573862
0.0554215
0.0548235
0.053456
0.0531441
0.0521635
0.051963
0.0511856
0.050926
0.0501662
0.0496578
0.0487029
0.104263
0.0934438
0.0874714
0.0804756
0.0768983
0.07218
0.0700322
0.066789
0.0655401
0.0632962
0.0626133
0.0610516
0.0606955
0.0595756
0.0593466
0.0584588
0.0581625
0.0572947
0.0567141
0.0556236
0.116805
0.104683
0.0979922
0.0901543
0.0861464
0.0808602
0.0784537
0.0748201
0.0734207
0.0709067
0.0701414
0.0683916
0.0679925
0.0667378
0.0664811
0.0654863
0.0651542
0.0641819
0.0635315
0.0623098
0.128829
0.11546
0.10808
0.0994354
0.0950149
0.0891845
0.0865304
0.0825227
0.0809794
0.0782066
0.0773627
0.0754328
0.0749927
0.0736089
0.0733259
0.0722288
0.0718625
0.0707902
0.0700729
0.0687255
0.140318
0.125757
0.117718
0.108302
0.103487
0.0971366
0.0942455
0.0898801
0.0881989
0.0851786
0.0842592
0.082157
0.0816775
0.0801701
0.0798617
0.0786666
0.0782675
0.0770995
0.0763181
0.0748506
0.15119
0.1355
0.126839
0.116694
0.111506
0.104663
0.101548
0.0968444
0.0950331
0.0917788
0.0907883
0.0885233
0.0880068
0.0863827
0.0860505
0.0847629
0.0843329
0.0830745
0.0822326
0.0806515
0.161432
0.144678
0.135431
0.124597
0.119058
0.111751
0.108425
0.103402
0.101468
0.097993
0.0969353
0.0945167
0.093965
0.0922307
0.0918758
0.0905009
0.0900417
0.0886979
0.0877989
0.0861107
0.170965
0.153222
0.143428
0.131955
0.126089
0.118351
0.114828
0.109509
0.107461
0.103781
0.102661
0.100099
0.099515
0.0976784
0.0973027
0.0958466
0.0953604
0.0939374
0.0929854
0.0911974
0.179783
0.161125
0.150825
0.13876
0.132591
0.124453
0.120749
0.115155
0.113001
0.109131
0.107953
0.105259
0.104645
0.102713
0.102318
0.100787
0.100275
0.0987788
0.0977776
0.0958974
0.187814
0.168322
0.157563
0.144959
0.138514
0.130013
0.126143
0.1203
0.11805
0.114007
0.112776
0.109962
0.109321
0.107303
0.10689
0.10529
0.104756
0.103193
0.102147
0.100183
0.195057
0.174814
0.16364
0.150549
0.143855
0.135026
0.131007
0.124938
0.1226
0.118401
0.117123
0.114201
0.113534
0.111438
0.111009
0.109348
0.108793
0.107169
0.106083
0.104043
0.201449
0.180543
0.169002
0.155483
0.148569
0.139451
0.1353
0.129032
0.126619
0.122282
0.120962
0.117944
0.117255
0.115091
0.114648
0.112933
0.11236
0.110683
0.109561
0.107454
0.206995
0.185513
0.173654
0.159762
0.152658
0.143289
0.139023
0.132583
0.130102
0.125646
0.12429
0.121188
0.120481
0.118257
0.117802
0.116039
0.11545
0.113727
0.112574
0.110409
0.211638
0.189673
0.177549
0.163346
0.156083
0.146503
0.142142
0.135557
0.133021
0.128465
0.127078
0.123907
0.123184
0.12091
0.120445
0.118643
0.118041
0.116279
0.115101
0.112887
0.215391
0.193037
0.180697
0.166242
0.15885
0.1491
0.144661
0.137959
0.135378
0.130741
0.12933
0.126102
0.125366
0.123052
0.122578
0.120744
0.120131
0.118338
0.117138
0.114886
0.218205
0.195559
0.183058
0.168414
0.160925
0.151048
0.146552
0.139762
0.137148
0.13245
0.13102
0.127751
0.127005
0.124661
0.124181
0.122323
0.121702
0.119886
0.118671
0.116389
0.220101
0.197258
0.184649
0.169877
0.162323
0.15236
0.147824
0.140975
0.138338
0.133599
0.132157
0.128859
0.128106
0.125741
0.125258
0.123383
0.122757
0.120924
0.119699
0.117397
0.221038
0.198098
0.185435
0.170601
0.163015
0.153009
0.148454
0.141576
0.138927
0.134169
0.13272
0.129408
0.128653
0.126278
0.125792
0.12391
0.123281
0.121441
0.12021
0.117899
0.221046
0.198105
0.185441
0.170605
0.163019
0.153013
0.148457
0.141579
0.13893
0.134171
0.132723
0.12941
0.128655
0.12628
0.125794
0.123911
0.123282
0.121442
0.120211
0.1179
0.22009
0.197248
0.184639
0.169868
0.162314
0.152352
0.147816
0.140968
0.13833
0.133592
0.13215
0.128852
0.1281
0.125735
0.125251
0.123377
0.122751
0.120919
0.119693
0.117392
0.218209
0.195562
0.18306
0.168415
0.160926
0.151048
0.146551
0.139761
0.137146
0.132448
0.131018
0.127748
0.127002
0.124657
0.124178
0.122319
0.121698
0.119882
0.118667
0.116385
0.215376
0.193023
0.180684
0.166229
0.158837
0.149087
0.144649
0.137947
0.135366
0.130729
0.129318
0.126091
0.125355
0.123041
0.122567
0.120733
0.12012
0.118327
0.117128
0.114876
0.211638
0.189672
0.177547
0.163343
0.156079
0.146498
0.142137
0.135551
0.133015
0.128458
0.127071
0.1239
0.123176
0.120902
0.120437
0.118634
0.118032
0.11627
0.115092
0.112879
0.206976
0.185495
0.173637
0.159746
0.152642
0.143272
0.139007
0.132566
0.130086
0.12563
0.124273
0.121172
0.120465
0.118241
0.117786
0.116023
0.115434
0.113711
0.112559
0.110395
0.201445
0.180538
0.168997
0.155476
0.148562
0.139442
0.135291
0.129022
0.126608
0.12227
0.12095
0.117932
0.117243
0.115078
0.114636
0.11292
0.112346
0.11067
0.109548
0.107441
0.195035
0.174793
0.163619
0.150529
0.143835
0.135006
0.130986
0.124917
0.12258
0.118381
0.117103
0.11418
0.113514
0.111418
0.110989
0.109328
0.108773
0.10715
0.106064
0.104025
0.187807
0.168314
0.157554
0.144949
0.138503
0.130001
0.12613
0.120285
0.118034
0.113991
0.11276
0.109946
0.109304
0.107286
0.106873
0.105273
0.104739
0.103175
0.10213
0.100166
0.179757
0.161101
0.150802
0.138737
0.132567
0.124429
0.120725
0.115131
0.112976
0.109106
0.107928
0.105235
0.10462
0.102689
0.102294
0.100763
0.100251
0.0987551
0.0977542
0.0958747
0.170955
0.153211
0.143417
0.131942
0.126074
0.118334
0.114811
0.109491
0.107442
0.103761
0.10264
0.100079
0.0994943
0.0976573
0.0972815
0.0958252
0.0953389
0.0939158
0.0929639
0.0911765
0.161404
0.144651
0.135404
0.124571
0.119031
0.111724
0.108397
0.103374
0.10144
0.0979646
0.096907
0.0944883
0.0939369
0.0922026
0.0918479
0.090473
0.090014
0.0886705
0.0877719
0.0860844
0.151177
0.135486
0.126825
0.116677
0.111488
0.104644
0.101528
0.0968226
0.0950107
0.0917555
0.0907648
0.0884992
0.0879826
0.086358
0.0860257
0.0847379
0.0843079
0.0830495
0.0822077
0.0806271
0.140288
0.125727
0.11769
0.108273
0.103458
0.0971064
0.0942149
0.0898489
0.0881676
0.085147
0.0842277
0.0821254
0.0816461
0.0801387
0.0798305
0.0786355
0.0782366
0.0770689
0.0762878
0.0748211
0.128814
0.115443
0.108063
0.0994163
0.0949945
0.0891623
0.0865071
0.082498
0.080954
0.0781803
0.0773361
0.0754056
0.0749654
0.0735811
0.073298
0.0722007
0.0718343
0.0707621
0.0700449
0.0686982
0.116772
0.104652
0.0979613
0.0901229
0.0861145
0.0808275
0.0784206
0.0747863
0.0733868
0.0708724
0.0701072
0.0683573
0.0679584
0.0667036
0.0664471
0.0654524
0.0651204
0.0641485
0.0634985
0.0622777
0.104246
0.0934253
0.0874523
0.0804543
0.0768756
0.0721554
0.0700065
0.0667618
0.0655122
0.0632673
0.0625841
0.0610218
0.0606656
0.0595453
0.0593162
0.0584282
0.0581317
0.057264
0.0566837
0.055594
0.091258
0.0817856
0.0765568
0.0704306
0.0672978
0.0631656
0.0612845
0.058444
0.0573502
0.0553851
0.0547872
0.0534195
0.0531078
0.0521272
0.0519268
0.0511494
0.0508901
0.0501305
0.0496226
0.0486687
0.0778944
0.0698087
0.0653453
0.0601158
0.0574414
0.053914
0.052308
0.0498832
0.0489494
0.0472718
0.0467614
0.0455938
0.0453277
0.0444906
0.0443195
0.0436559
0.0434344
0.0427861
0.0423526
0.0415384
0.0641823
0.0575199
0.0538422
0.0495331
0.0473295
0.0444229
0.0430997
0.0411016
0.0403323
0.03895
0.0385296
0.0375676
0.0373485
0.0366588
0.0365179
0.0359712
0.0357889
0.0352548
0.0348976
0.0342269
0.0502103
0.0449977
0.0421202
0.0387486
0.0370243
0.03475
0.0337145
0.0321511
0.0315491
0.0304675
0.0301384
0.0293857
0.0292142
0.0286746
0.0285644
0.0281366
0.0279939
0.0275761
0.0272967
0.0267721
0.0360085
0.03227
0.0302063
0.027788
0.0265512
0.0249199
0.0241773
0.0230559
0.0226242
0.0218484
0.0216126
0.0210728
0.02095
0.020563
0.0204841
0.0201774
0.0200753
0.0197757
0.0195755
0.0191994
0.0216671
0.0194168
0.0181745
0.0167185
0.0159737
0.0149914
0.0145441
0.0138689
0.0136089
0.0131417
0.0129997
0.0126747
0.0126008
0.0123678
0.0123204
0.0121358
0.0120743
0.0118941
0.0117737
0.0115476
0.00721837
0.00646775
0.00605341
0.00556724
0.00531856
0.00499045
0.00484109
0.00461553
0.00452884
0.00437288
0.00432573
0.0042173
0.00419294
0.00411528
0.00409973
0.00403826
0.00401802
0.0039581
0.00391822
0.00384321
-0.00724672
-0.00649635
-0.00608223
-0.00559777
-0.00535024
-0.00502371
-0.00487519
-0.00465078
-0.00456431
-0.00440897
-0.00436149
-0.00425326
-0.00422832
-0.00415062
-0.00413447
-0.00407278
-0.00405195
-0.00399149
-0.00395087
-0.00387464
-0.0216953
-0.0194452
-0.0182032
-0.0167489
-0.0160052
-0.0150245
-0.0145781
-0.013904
-0.0136442
-0.0131777
-0.0130353
-0.0127105
-0.012636
-0.012403
-0.012355
-0.0121702
-0.0121081
-0.0119274
-0.0118062
-0.0115789
-0.0360365
-0.0322983
-0.0302348
-0.0278182
-0.0265827
-0.0249529
-0.0242112
-0.0230909
-0.0226595
-0.0218843
-0.0216482
-0.0211086
-0.0209852
-0.0205982
-0.0205187
-0.0202118
-0.020109
-0.0198089
-0.019608
-0.0192307
-0.0502379
-0.0450256
-0.0421484
-0.0387785
-0.0370553
-0.0347826
-0.033748
-0.0321857
-0.0315839
-0.0305029
-0.0301735
-0.029421
-0.0292489
-0.0287092
-0.0285984
-0.0281705
-0.0280272
-0.0276089
-0.0273288
-0.026803
-0.0642096
-0.0575475
-0.0538701
-0.0495627
-0.0473603
-0.0444553
-0.0431329
-0.041136
-0.040367
-0.0389853
-0.0385646
-0.0376028
-0.0373832
-0.0366934
-0.036552
-0.0360051
-0.0358222
-0.0352875
-0.0349297
-0.0342579
-0.077921
-0.0698357
-0.0653726
-0.0601448
-0.0574716
-0.0539457
-0.0523406
-0.0499169
-0.0489833
-0.0473063
-0.0467955
-0.0456282
-0.0453615
-0.0445244
-0.0443527
-0.0436889
-0.0434669
-0.0428181
-0.0423838
-0.0415687
-0.091284
-0.0818121
-0.0765837
-0.0704592
-0.0673276
-0.063197
-0.0613167
-0.0584774
-0.0573839
-0.0554193
-0.0548212
-0.0534537
-0.0531415
-0.0521608
-0.0519599
-0.0511824
-0.0509224
-0.0501624
-0.0496538
-0.0486989
-0.104271
-0.093451
-0.0874784
-0.0804822
-0.0769046
-0.0721859
-0.0700378
-0.0667941
-0.0655448
-0.0633005
-0.062617
-0.0610548
-0.0606981
-0.0595778
-0.0593481
-0.0584599
-0.0581629
-0.0572948
-0.0567138
-0.0556231
-0.116796
-0.104677
-0.0979868
-0.0901501
-0.0861429
-0.0808574
-0.0784514
-0.0748182
-0.0734189
-0.0709051
-0.0701398
-0.06839
-0.0679907
-0.0667359
-0.0664789
-0.065484
-0.0651515
-0.0641791
-0.0635284
-0.0623067
-0.128837
-0.115467
-0.108088
-0.0994426
-0.0950219
-0.0891912
-0.0865367
-0.0825286
-0.0809849
-0.0782116
-0.0773672
-0.0754369
-0.0749962
-0.0736119
-0.0733283
-0.0722307
-0.0718639
-0.0707912
-0.0700734
-0.0687258
-0.14031
-0.12575
-0.117713
-0.108298
-0.103484
-0.0971344
-0.0942438
-0.0898788
-0.0881978
-0.0851778
-0.0842584
-0.0821562
-0.0816766
-0.0801691
-0.0798604
-0.0786652
-0.0782659
-0.0770977
-0.0763161
-0.0748485
-0.151199
-0.135508
-0.126847
-0.116702
-0.111513
-0.104671
-0.101555
-0.0968512
-0.0950394
-0.0917847
-0.0907937
-0.0885283
-0.0880112
-0.0863866
-0.0860539
-0.0847659
-0.0843354
-0.0830766
-0.0822343
-0.0806528
-0.161423
-0.144672
-0.135426
-0.124594
-0.119055
-0.111749
-0.108424
-0.103402
-0.101468
-0.097993
-0.0969353
-0.0945168
-0.093965
-0.0922307
-0.0918757
-0.0905006
-0.0900412
-0.0886973
-0.0877981
-0.0861097
-0.170973
-0.153231
-0.143437
-0.131964
-0.126097
-0.118359
-0.114836
-0.109517
-0.107468
-0.103788
-0.102667
-0.100105
-0.0995205
-0.0976834
-0.0973072
-0.0958508
-0.0953641
-0.0939407
-0.0929883
-0.0912
-0.179774
-0.161118
-0.150821
-0.138757
-0.132589
-0.124452
-0.120748
-0.115155
-0.113001
-0.109132
-0.107954
-0.10526
-0.104646
-0.102714
-0.102319
-0.100788
-0.100276
-0.0987794
-0.097778
-0.0958977
-0.187823
-0.168331
-0.157572
-0.144969
-0.138523
-0.130022
-0.126152
-0.120309
-0.118058
-0.114015
-0.112784
-0.109969
-0.109327
-0.107309
-0.106896
-0.105296
-0.104761
-0.103197
-0.102151
-0.100187
-0.195049
-0.174808
-0.163635
-0.150547
-0.143854
-0.135026
-0.131007
-0.124939
-0.122602
-0.118403
-0.117125
-0.114203
-0.113536
-0.11144
-0.111011
-0.10935
-0.108795
-0.107171
-0.106085
-0.104045
-0.201459
-0.180552
-0.169012
-0.155493
-0.14858
-0.139461
-0.13531
-0.129042
-0.126628
-0.122291
-0.12097
-0.117952
-0.117263
-0.115098
-0.114655
-0.112939
-0.112366
-0.110688
-0.109566
-0.107459
-0.206987
-0.185507
-0.17365
-0.15976
-0.152657
-0.143289
-0.139024
-0.132584
-0.130104
-0.125648
-0.124292
-0.121191
-0.120483
-0.11826
-0.117804
-0.116041
-0.115452
-0.113729
-0.112576
-0.110411
-0.211647
-0.189683
-0.17756
-0.163356
-0.156093
-0.146514
-0.142153
-0.135567
-0.133031
-0.128475
-0.127087
-0.123916
-0.123192
-0.120918
-0.120453
-0.11865
-0.118047
-0.116285
-0.115106
-0.112893
-0.215382
-0.193031
-0.180693
-0.166239
-0.158849
-0.1491
-0.144662
-0.137961
-0.13538
-0.130744
-0.129333
-0.126105
-0.125369
-0.123055
-0.122582
-0.120747
-0.120134
-0.118341
-0.117141
-0.114889
-0.218215
-0.195569
-0.183069
-0.168425
-0.160936
-0.151059
-0.146563
-0.139773
-0.137158
-0.13246
-0.13103
-0.12776
-0.127014
-0.124669
-0.124189
-0.12233
-0.121709
-0.119892
-0.118677
-0.116395
-0.220092
-0.197252
-0.184645
-0.169875
-0.162322
-0.15236
-0.147825
-0.140977
-0.13834
-0.133602
-0.13216
-0.128862
-0.12811
-0.125745
-0.125261
-0.123386
-0.12276
-0.120928
-0.119702
-0.1174
-0.221048
-0.198108
-0.185446
-0.170611
-0.163025
-0.15302
-0.148465
-0.141587
-0.138938
-0.134179
-0.13273
-0.129418
-0.128662
-0.126287
-0.1258
-0.123917
-0.123288
-0.121448
-0.120217
-0.117905
)
;

boundaryField
{
    out
    {
        type            implicitExtrapolation;
    }
    in
    {
        type            implicitExtrapolation;
    }
    frontAndBack
    {
        type            empty;
    }
}


// ************************************************************************* //
