/*--------------------------------*- C++ -*----------------------------------*\
| =========                 |                                                 |
| \\      /  F ield         | foam-extend: Open Source CFD                    |
|  \\    /   O peration     | Version:  3.0                                   |
|   \\  /    A nd           | Web:         http://www.extend-project.de       |
|    \\/     M anipulation  |                                                 |
\*---------------------------------------------------------------------------*/
FoamFile
{
    version     2.0;
    format      ascii;
    class       volVectorField;
    location    "7";
    object      u;
}
// * * * * * * * * * * * * * * * * * * * * * * * * * * * * * * * * * * * * * //

dimensions      [0 0 0 0 0 0 0];

internalField   nonuniform List<vector> 
1920
(
(0.146524 -0.0588493 5.31635e-18)
(0.337205 -0.0465155 1.71287e-18)
(0.485068 -0.0374718 1.62938e-18)
(0.589961 -0.0304913 -5.68277e-19)
(0.676875 -0.0251624 3.74681e-18)
(0.739025 -0.020902 9.07504e-19)
(0.793938 -0.0175282 3.18851e-18)
(0.832626 -0.014755 2.10277e-18)
(0.869251 -0.0124728 5.29653e-19)
(0.893982 -0.0105606 -7.08161e-19)
(0.919407 -0.00891475 -1.93591e-18)
(0.935221 -0.00752184 6.3095e-19)
(0.953361 -0.00625423 1.72591e-18)
(0.963076 -0.00518151 -8.13095e-19)
(0.976206 -0.00413532 -7.40867e-19)
(0.981442 -0.00326001 7.12727e-19)
(0.990925 -0.00233302 -7.00902e-18)
(0.992611 -0.00158006 -1.93579e-18)
(0.999289 -0.000683541 -3.29654e-18)
(0.997857 -1.82139e-06 7.61846e-19)
(0.161885 -0.175539 9.13603e-18)
(0.349349 -0.138762 1.12318e-18)
(0.494851 -0.111793 2.45483e-18)
(0.597919 -0.0909693 -4.87251e-18)
(0.683443 -0.0750726 -2.56519e-18)
(0.744479 -0.0623603 -1.95345e-19)
(0.798513 -0.0522963 -2.01579e-18)
(0.836477 -0.0440215 7.17823e-18)
(0.872508 -0.0372142 5.26066e-18)
(0.896739 -0.0315076 5.71459e-18)
(0.921734 -0.0265975 3.24986e-18)
(0.937184 -0.0224394 4.90871e-18)
(0.954993 -0.0186568 1.53321e-18)
(0.964428 -0.0154542 1.32613e-18)
(0.977284 -0.0123322 2.30685e-18)
(0.982292 -0.00971911 1.13117e-17)
(0.991533 -0.00695281 1.28565e-17)
(0.993023 -0.00470519 1.11531e-17)
(0.999466 -0.00202973 4.78829e-18)
(0.997856 8.61774e-06 3.53442e-18)
(0.19235 -0.289226 4.59731e-18)
(0.373429 -0.228634 6.50884e-19)
(0.51425 -0.184201 4.34649e-18)
(0.613705 -0.149893 4.35543e-18)
(0.696472 -0.123702 -1.68667e-18)
(0.755304 -0.102754 1.31205e-18)
(0.807591 -0.0861704 5.39501e-18)
(0.844119 -0.0725343 -7.64864e-18)
(0.878968 -0.0613167 -8.1127e-18)
(0.902208 -0.051913 -5.12292e-18)
(0.926351 -0.0438226 -4.77864e-18)
(0.941078 -0.0369713 -1.72805e-18)
(0.958231 -0.0307389 3.53037e-19)
(0.967109 -0.0254619 -2.51389e-18)
(0.979424 -0.0203178 -1.03755e-17)
(0.983978 -0.0160119 -9.3377e-18)
(0.992739 -0.0114537 -1.69947e-17)
(0.993838 -0.00774977 -7.52038e-18)
(0.999817 -0.00334144 -1.39751e-17)
(0.997854 1.87159e-05 1.04851e-17)
(0.23739 -0.397959 7.19064e-18)
(0.409033 -0.31459 3.4876e-18)
(0.542937 -0.253455 4.28103e-18)
(0.637049 -0.206249 4.12832e-18)
(0.715738 -0.170212 2.19055e-18)
(0.771306 -0.141389 -9.32791e-18)
(0.821011 -0.11857 -5.92347e-18)
(0.855414 -0.0998066 -8.08609e-18)
(0.888517 -0.0843715 -1.62258e-17)
(0.910292 -0.0714319 -2.1354e-18)
(0.933175 -0.0602996 -1.23382e-18)
(0.946836 -0.0508717 -8.92975e-18)
(0.963018 -0.0422959 9.0898e-18)
(0.971074 -0.0350343 7.91244e-19)
(0.982587 -0.0279561 3.29526e-18)
(0.986471 -0.0220309 -1.05452e-17)
(0.994522 -0.0157589 -7.14985e-18)
(0.995045 -0.0106623 5.91805e-18)
(1.00034 -0.00459625 1.27966e-17)
(0.99785 2.78263e-05 2.63192e-18)
(0.296239 -0.499889 1.22174e-17)
(0.455554 -0.395167 6.9722e-18)
(0.580418 -0.318375 6.8208e-18)
(0.66755 -0.259079 1.0561e-17)
(0.740909 -0.213811 1.50957e-17)
(0.792216 -0.177605 9.51018e-18)
(0.838546 -0.14894 1.39725e-18)
(0.870175 -0.12537 8.49537e-18)
(0.900994 -0.105981 4.42958e-18)
(0.920856 -0.0897265 5.94253e-18)
(0.942092 -0.0757428 1.59392e-18)
(0.954359 -0.0639 -1.02629e-17)
(0.969272 -0.0531278 4.73631e-18)
(0.976254 -0.0440064 1.27414e-17)
(0.986721 -0.0351154 -1.00825e-17)
(0.989728 -0.0276726 2.88811e-17)
(0.996851 -0.0197941 -1.37662e-17)
(0.996621 -0.013392 1.30606e-17)
(1.00102 -0.00577228 -1.17033e-17)
(0.997846 3.65003e-05 -1.67028e-18)
(0.367886 -0.59326 1.70734e-17)
(0.512192 -0.468979 1.37553e-17)
(0.626051 -0.377845 1.12281e-17)
(0.704684 -0.307474 -1.71837e-17)
(0.771555 -0.25375 2.81857e-18)
(0.817672 -0.210781 -2.30107e-19)
(0.859894 -0.176762 2.41708e-17)
(0.888144 -0.14879 1.19294e-18)
(0.916185 -0.125779 4.99194e-19)
(0.933716 -0.106488 -1.92376e-17)
(0.952949 -0.0898919 7.84667e-18)
(0.963517 -0.0758366 -5.24513e-18)
(0.976887 -0.063052 2.6128e-18)
(0.982561 -0.0522266 -1.59621e-17)
(0.991754 -0.0416746 -1.20339e-20)
(0.993694 -0.0328414 5.60472e-18)
(0.999688 -0.0234912 -2.67956e-18)
(0.998539 -0.0158932 3.13302e-18)
(1.00184 -0.00685004 3.73297e-19)
(0.99784 4.37708e-05 -2.29989e-17)
(0.45111 -0.676485 -5.80195e-18)
(0.577982 -0.53477 -1.05922e-17)
(0.679057 -0.430853 -8.76358e-18)
(0.747819 -0.350609 1.63263e-18)
(0.807154 -0.289349 2.45527e-18)
(0.847242 -0.240351 -1.96361e-18)
(0.884691 -0.20156 -4.88615e-18)
(0.909017 -0.169662 -9.51649e-18)
(0.933829 -0.143423 1.05692e-17)
(0.948654 -0.121425 -1.50822e-17)
(0.965559 -0.102501 -1.42887e-18)
(0.974155 -0.0864739 -2.31152e-17)
(0.985731 -0.071896 -1.13654e-18)
(0.989887 -0.0595519 -3.84579e-17)
(0.997599 -0.0475198 -1.55371e-17)
(0.9983 -0.0374475 -3.68187e-19)
(1.00298 -0.0267857 -8.32128e-18)
(1.00077 -0.018122 -2.11698e-17)
(1.0028 -0.00781028 1.57322e-17)
(0.997833 5.0489e-05 -2.32798e-17)
(0.544483 -0.748131 -9.93071e-19)
(0.651795 -0.591408 -3.21273e-17)
(0.738527 -0.476486 -7.40526e-19)
(0.796212 -0.387744 4.50001e-18)
(0.847092 -0.319996 -1.67738e-17)
(0.880417 -0.265809 -4.51255e-18)
(0.912512 -0.222909 2.0747e-18)
(0.932435 -0.187633 2.20934e-18)
(0.953626 -0.158614 2.86726e-17)
(0.965414 -0.134287 -3.8539e-18)
(0.979706 -0.113358 1.62421e-17)
(0.986091 -0.0956334 -1.53289e-18)
(0.995655 -0.0795113 3.68717e-17)
(0.998106 -0.0658596 -1.49624e-17)
(1.00416 -0.052553 2.01902e-17)
(1.00347 -0.0414139 3.01694e-17)
(1.00668 -0.0296227 -1.80079e-17)
(1.00327 -0.0200414 5.28833e-17)
(1.00388 -0.00863753 8.67047e-19)
(0.997826 5.55503e-05 4.65281e-17)
(0.646412 -0.80698 3.30373e-18)
(0.732372 -0.637929 -5.82047e-18)
(0.803447 -0.513968 -5.28833e-18)
(0.849042 -0.418245 3.63028e-18)
(0.890691 -0.345168 1.072e-17)
(0.916633 -0.286717 -1.06968e-17)
(0.942883 -0.240443 1.04244e-17)
(0.957999 -0.202391 4.51794e-18)
(0.975236 -0.17109 8.23932e-18)
(0.98371 -0.144849 2.56735e-17)
(0.99515 -0.122274 -1.41521e-17)
(0.999119 -0.103155 -3.08135e-17)
(1.00649 -0.0857646 2.96288e-17)
(1.00708 -0.0710391 -1.82168e-17)
(1.01132 -0.056686 -2.33497e-18)
(1.00911 -0.0446707 -1.4066e-17)
(1.01071 -0.0319522 2.11411e-17)
(1.006 -0.0216173 3.00538e-17)
(1.00506 -0.00931655 -2.42363e-17)
(0.997818 6.00147e-05 2.51465e-17)
(0.755147 -0.852019 1.19486e-17)
(0.818328 -0.673533 -1.70853e-18)
(0.872701 -0.542654 3.08195e-19)
(0.905397 -0.441589 5.71519e-18)
(0.9372 -0.364434 5.3923e-18)
(0.955266 -0.302721 1.01935e-17)
(0.975281 -0.253864 5.48868e-18)
(0.98527 -0.213689 1.51796e-17)
(0.998289 -0.180641 -5.89041e-18)
(1.00323 -0.152934 -8.40579e-18)
(1.01163 -0.129099 -5.61623e-18)
(1.01302 -0.108913 -2.04312e-17)
(1.01804 -0.0905521 -1.0139e-17)
(1.01665 -0.0750047 4.67538e-18)
(1.01895 -0.0598503 -2.57311e-17)
(1.01513 -0.0471644 1.66182e-17)
(1.01502 -0.0337359 -4.97871e-17)
(1.00891 -0.0228243 3.03607e-19)
(1.00631 -0.00983689 -2.42944e-17)
(0.997811 6.26331e-05 2.08123e-17)
(0.868833 -0.882482 -1.36678e-17)
(0.9082 -0.697615 -9.13934e-19)
(0.945109 -0.562056 4.54492e-18)
(0.964321 -0.457377 -3.07704e-18)
(0.985828 -0.377463 2.13091e-17)
(0.995659 -0.313544 -2.42462e-17)
(1.00915 -0.26294 -8.72911e-18)
(1.01378 -0.221328 -7.72571e-18)
(1.02239 -0.187098 -3.51259e-18)
(1.02363 -0.158401 -2.90771e-17)
(1.02885 -0.133714 -7.85401e-19)
(1.02755 -0.112806 2.10248e-17)
(1.03012 -0.0937887 -5.0696e-18)
(1.02666 -0.0776854 -2.214e-17)
(1.02694 -0.0619893 -6.91638e-18)
(1.02142 -0.04885 7.06852e-18)
(1.01952 -0.0349415 1.92627e-17)
(1.01196 -0.0236399 3.54137e-18)
(1.00762 -0.0101884 1.20759e-17)
(0.997802 6.46936e-05 -7.00564e-17)
(0.985521 -0.897843 -1.55502e-17)
(1.00044 -0.709758 -1.36665e-17)
(1.01943 -0.57184 -5.96033e-19)
(1.0248 -0.46534 4.38624e-18)
(1.03574 -0.384035 -1.16939e-17)
(1.03712 -0.319004 -7.50846e-18)
(1.04392 -0.267519 4.86747e-18)
(1.04305 -0.225182 -4.41339e-18)
(1.04713 -0.190356 1.81704e-17)
(1.04458 -0.16116 1.16957e-17)
(1.04653 -0.136043 9.71648e-19)
(1.04247 -0.114771 4.5238e-18)
(1.04253 -0.0954221 2.71863e-18)
(1.03693 -0.0790385 4.11828e-17)
(1.03514 -0.063069 -2.43053e-17)
(1.02788 -0.0497009 -1.28745e-18)
(1.02414 -0.0355503 -2.61498e-18)
(1.01508 -0.024052 -3.92956e-18)
(1.00897 -0.0103662 -1.71952e-17)
(0.997794 6.48449e-05 2.80012e-17)
(1.10322 -0.897844 -7.16491e-18)
(1.09349 -0.709759 -1.43914e-17)
(1.09439 -0.571841 -3.08098e-18)
(1.0858 -0.46534 9.02371e-18)
(1.08608 -0.384035 -2.19193e-17)
(1.07894 -0.319003 -5.82521e-18)
(1.07899 -0.267518 -4.44055e-18)
(1.07257 -0.225181 6.02433e-18)
(1.07208 -0.190356 1.74494e-17)
(1.0657 -0.161159 1.73391e-17)
(1.06436 -0.136042 1.67336e-18)
(1.05751 -0.11477 2.0669e-18)
(1.05503 -0.0954214 -9.08629e-19)
(1.04729 -0.0790378 7.09439e-18)
(1.0434 -0.0630684 1.77635e-17)
(1.03439 -0.0497004 7.35261e-19)
(1.0288 -0.0355499 2.19332e-18)
(1.01823 -0.0240518 1.23265e-18)
(1.01033 -0.0103661 1.57342e-17)
(0.997786 6.45316e-05 3.04293e-19)
(1.21991 -0.882481 -1.25237e-17)
(1.18573 -0.697614 8.79977e-18)
(1.16871 -0.562057 -7.80523e-18)
(1.14628 -0.457378 -5.56667e-18)
(1.13599 -0.377465 8.14507e-19)
(1.1204 -0.313546 -5.03233e-18)
(1.11376 -0.262942 1.12574e-18)
(1.10183 -0.22133 -1.9784e-17)
(1.09682 -0.1871 -2.48503e-17)
(1.08665 -0.158402 5.03666e-18)
(1.08204 -0.133715 1.16311e-17)
(1.07243 -0.112807 1.20855e-17)
(1.06743 -0.0937894 -4.01951e-18)
(1.05756 -0.0776861 -1.71244e-17)
(1.0516 -0.0619899 2.90466e-18)
(1.04085 -0.0488506 3.31012e-18)
(1.03342 -0.0349421 2.22734e-17)
(1.02136 -0.0236408 9.30165e-19)
(1.01168 -0.0101893 -8.98611e-18)
(0.997778 6.24081e-05 3.02314e-17)
(1.33359 -0.852019 4.92582e-18)
(1.2756 -0.673534 2.59117e-18)
(1.24112 -0.542655 -9.41354e-18)
(1.2052 -0.44159 -1.60966e-18)
(1.18462 -0.364435 5.2976e-18)
(1.16079 -0.302722 1.48958e-17)
(1.14763 -0.253865 1.29818e-18)
(1.13034 -0.213689 5.84826e-18)
(1.12093 -0.18064 -2.03621e-17)
(1.10705 -0.152934 7.43225e-18)
(1.09927 -0.129099 -7.8397e-19)
(1.08696 -0.108912 1.31962e-19)
(1.07952 -0.0905513 -2.41181e-17)
(1.06757 -0.0750039 -8.12508e-21)
(1.05958 -0.0598496 -2.2532e-17)
(1.04715 -0.047164 -2.53967e-17)
(1.03792 -0.0337357 -1.6964e-17)
(1.0244 -0.0228246 -2.1166e-17)
(1.01299 -0.00983756 9.89865e-18)
(0.997771 5.99189e-05 -4.27622e-17)
(1.44233 -0.806979 2.00505e-18)
(1.36156 -0.637929 7.31177e-18)
(1.31037 -0.513969 -1.22238e-17)
(1.26156 -0.418247 -1.99619e-18)
(1.23113 -0.34517 3.10239e-18)
(1.19942 -0.28672 1.33496e-17)
(1.18003 -0.240446 -4.98087e-18)
(1.15762 -0.202394 2.1899e-19)
(1.14398 -0.171092 -6.90585e-18)
(1.12657 -0.14485 5.61251e-18)
(1.11575 -0.122275 -6.39996e-18)
(1.10086 -0.103156 2.18076e-17)
(1.09107 -0.0857651 -4.57757e-18)
(1.07714 -0.0710396 2.68746e-18)
(1.06722 -0.0566863 1.84527e-17)
(1.05316 -0.0446713 -1.83799e-17)
(1.04223 -0.0319528 1.37801e-17)
(1.02732 -0.0216186 -1.75924e-17)
(1.01425 -0.00931795 1.87685e-17)
(0.997764 5.58506e-05 6.84429e-18)
(1.54426 -0.748132 -1.88364e-18)
(1.44213 -0.591409 -1.0415e-17)
(1.37529 -0.476489 2.35356e-18)
(1.31438 -0.387746 -4.20297e-18)
(1.27473 -0.319999 -1.13863e-17)
(1.23564 -0.265811 3.42774e-18)
(1.2104 -0.222911 -9.64165e-19)
(1.18318 -0.187634 2.96722e-18)
(1.16559 -0.158615 1.87354e-17)
(1.14487 -0.134286 -9.51958e-18)
(1.13119 -0.113358 -6.65544e-18)
(1.11388 -0.0956325 2.38996e-17)
(1.1019 -0.0795103 2.64734e-18)
(1.08611 -0.0658587 2.59148e-17)
(1.07438 -0.0525522 -1.40666e-18)
(1.05881 -0.0414135 1.22941e-17)
(1.04626 -0.0296225 1.59259e-17)
(1.03005 -0.020042 -6.19153e-18)
(1.01542 -0.00863848 3.14163e-18)
(0.997757 5.1494e-05 -3.34864e-18)
(1.63763 -0.676483 -4.7719e-18)
(1.51595 -0.53477 -2.40532e-18)
(1.43476 -0.430856 -3.37777e-18)
(1.36278 -0.350613 3.11268e-18)
(1.31467 -0.289353 -5.29431e-18)
(1.26881 -0.240355 1.48802e-18)
(1.23822 -0.201563 -2.58264e-20)
(1.2066 -0.169665 -1.03709e-18)
(1.18539 -0.143425 -9.14483e-18)
(1.16163 -0.121427 8.15512e-19)
(1.14534 -0.102502 -3.04255e-18)
(1.12582 -0.0864743 -3.53998e-18)
(1.11183 -0.071896 -1.58438e-17)
(1.09433 -0.0595519 2.71747e-18)
(1.08094 -0.0475196 -8.32033e-18)
(1.06397 -0.0374477 -2.25784e-18)
(1.04996 -0.0267859 4.15722e-19)
(1.03255 -0.018123 -1.33411e-17)
(1.0165 -0.00781148 2.38107e-17)
(0.997752 4.58641e-05 -2.04284e-17)
(1.72086 -0.59326 6.89204e-18)
(1.58174 -0.468981 6.11756e-18)
(1.48777 -0.37785 3.92445e-18)
(1.40591 -0.307478 -6.85175e-18)
(1.35027 -0.253755 -9.70546e-19)
(1.29838 -0.210785 3.81995e-18)
(1.26302 -0.176766 5.59208e-18)
(1.22747 -0.148791 -2.4879e-19)
(1.20303 -0.12578 -9.22806e-18)
(1.17656 -0.106488 5.9268e-19)
(1.15795 -0.0898913 2.04874e-18)
(1.13646 -0.0758356 1.20307e-18)
(1.12067 -0.0630509 -2.8326e-18)
(1.10166 -0.0522254 -9.6753e-19)
(1.08678 -0.0416735 1.14175e-17)
(1.06858 -0.0328407 1.7471e-18)
(1.05325 -0.0234906 1.04771e-17)
(1.03478 -0.0158934 -4.8238e-18)
(1.01746 -0.00685055 -1.44462e-17)
(0.997747 4.00085e-05 3.39318e-18)
(1.7925 -0.499886 3.82977e-18)
(1.63838 -0.395168 3.62078e-18)
(1.5334 -0.31838 2.48407e-18)
(1.44305 -0.259084 2.34532e-18)
(1.38091 -0.213817 4.34198e-18)
(1.32384 -0.17761 4.25567e-18)
(1.28437 -0.148945 -1.9419e-18)
(1.24544 -0.125373 3.27426e-18)
(1.21822 -0.105983 2.26904e-18)
(1.18942 -0.0897279 3.43403e-18)
(1.1688 -0.0757434 -4.37534e-18)
(1.14562 -0.0639001 3.31206e-18)
(1.12829 -0.0531274 -2.35202e-19)
(1.10796 -0.0440059 4.678e-18)
(1.09182 -0.0351146 -2.08437e-18)
(1.07255 -0.0276722 2.04323e-19)
(1.05609 -0.0197936 6.5781e-18)
(1.0367 -0.0133923 -4.11077e-18)
(1.01829 -0.00577252 3.3829e-18)
(0.997743 3.32145e-05 1.16926e-18)
(1.85135 -0.397958 2.55803e-18)
(1.6849 -0.314592 2.3468e-18)
(1.57088 -0.253462 1.61351e-18)
(1.47355 -0.206256 1.38283e-18)
(1.40608 -0.170219 1.43313e-18)
(1.34475 -0.141394 -2.79953e-18)
(1.3019 -0.118574 -1.22358e-18)
(1.2602 -0.0998092 -3.11895e-18)
(1.2307 -0.0843729 -1.04257e-18)
(1.19999 -0.071432 1.09246e-18)
(1.17772 -0.0602991 -7.01169e-19)
(1.15314 -0.0508706 3.58311e-18)
(1.13454 -0.0422947 -8.87695e-19)
(1.11314 -0.035033 3.28723e-18)
(1.09595 -0.0279548 1.0235e-17)
(1.0758 -0.0220299 -2.19343e-18)
(1.05842 -0.0157578 1.34999e-18)
(1.03827 -0.0106617 -7.68776e-19)
(1.01897 -0.00459563 -2.17929e-19)
(0.997739 2.62672e-05 -2.39553e-18)
(1.89639 -0.289222 1.23234e-18)
(1.7205 -0.228634 1.50421e-18)
(1.59957 -0.184207 9.59765e-19)
(1.49689 -0.1499 2.07513e-18)
(1.42535 -0.123709 1.23422e-18)
(1.36075 -0.102761 -1.57461e-18)
(1.31532 -0.0861755 5.37205e-20)
(1.2715 -0.072538 -2.29562e-18)
(1.24025 -0.0613193 -1.5237e-18)
(1.20807 -0.0519145 -5.7657e-19)
(1.18454 -0.0438233 2.42753e-19)
(1.1589 -0.0369713 -3.01916e-20)
(1.13933 -0.0307384 -4.76321e-20)
(1.11711 -0.0254611 1.22875e-18)
(1.09911 -0.0203167 1.30706e-18)
(1.0783 -0.0160108 -2.31243e-18)
(1.0602 -0.0114524 -2.72709e-18)
(1.03948 -0.00774888 -2.08508e-18)
(1.01949 -0.0033401 1.92165e-18)
(0.997737 1.87203e-05 -2.78568e-18)
(1.92685 -0.175536 1.18113e-18)
(1.74458 -0.138764 9.69645e-19)
(1.61897 -0.111799 5.64018e-19)
(1.51268 -0.0909776 3.18601e-19)
(1.43838 -0.0750815 2.43951e-19)
(1.37157 -0.0623677 -8.00719e-19)
(1.3244 -0.0523018 -1.44584e-19)
(1.27914 -0.0440251 -6.65666e-19)
(1.2467 -0.0372162 -9.577e-21)
(1.21354 -0.0315083 1.43393e-18)
(1.18916 -0.0265976 3.5579e-19)
(1.16279 -0.022439 9.76576e-19)
(1.14256 -0.0186562 5.94695e-19)
(1.11979 -0.0154533 1.20698e-18)
(1.10125 -0.0123311 1.46585e-18)
(1.07998 -0.00971781 1.0885e-18)
(1.06141 -0.00695116 1.19105e-18)
(1.0403 -0.00470337 1.50735e-18)
(1.01984 -0.00202747 9.91711e-19)
(0.997735 1.11213e-05 5.45685e-19)
(1.94222 -0.0588473 4.11929e-19)
(1.75673 -0.0465199 5.25543e-19)
(1.62876 -0.0374796 2.37985e-19)
(1.52064 -0.0304994 2.34737e-19)
(1.44495 -0.0251701 2.21227e-19)
(1.37703 -0.0209083 -3.16243e-19)
(1.32898 -0.0175336 8.32477e-20)
(1.28299 -0.0147593 -3.10469e-19)
(1.24996 -0.0124765 2.42146e-19)
(1.2163 -0.0105633 9.61706e-19)
(1.19149 -0.00891685 8.19923e-19)
(1.16475 -0.00752305 8.88226e-19)
(1.1442 -0.00625469 6.01462e-19)
(1.12114 -0.00518127 1.16042e-18)
(1.10233 -0.00413439 1.28386e-18)
(1.08083 -0.00325856 1.04935e-18)
(1.06202 -0.00233084 1.43632e-18)
(1.04071 -0.00157746 1.61087e-18)
(1.02002 -0.000680053 8.13803e-19)
(0.997735 3.25354e-06 1.09157e-18)
(1.94222 0.0588486 -4.4714e-19)
(1.75673 0.0465208 1.41664e-19)
(1.62876 0.037482 -8.92556e-20)
(1.52064 0.0305013 3.08642e-19)
(1.44495 0.0251724 1.97234e-19)
(1.37703 0.0209094 1.65172e-20)
(1.32898 0.0175349 1.53347e-19)
(1.28299 0.0147593 -1.43334e-19)
(1.24996 0.0124767 3.2709e-19)
(1.2163 0.0105625 6.30933e-19)
(1.19149 0.00891633 8.55639e-19)
(1.16475 0.00752162 7.42212e-19)
(1.14419 0.00625354 6.16524e-19)
(1.12114 0.00517935 1.08844e-18)
(1.10233 0.00413277 1.22211e-18)
(1.08083 0.00325636 6.31817e-19)
(1.06202 0.00232909 1.00147e-18)
(1.04071 0.00157542 7.16283e-19)
(1.02002 0.000678825 6.30878e-19)
(0.997735 -4.53311e-06 7.57795e-19)
(1.92686 0.175538 -1.43434e-18)
(1.74459 0.138765 -1.7419e-19)
(1.61897 0.111802 -5.26457e-19)
(1.51268 0.0909797 3.38479e-19)
(1.43838 0.075084 2.77364e-19)
(1.37158 0.0623689 1.34568e-19)
(1.3244 0.0523033 1.95871e-19)
(1.27914 0.0440252 7.55118e-20)
(1.24671 0.0372166 6.89558e-19)
(1.21354 0.0315076 5.53297e-19)
(1.18916 0.0265972 8.97282e-19)
(1.16279 0.0224377 7.88574e-19)
(1.14256 0.0186551 8.1807e-19)
(1.11979 0.0154514 1.07824e-18)
(1.10125 0.0123295 1.58396e-18)
(1.07998 0.00971562 6.58391e-19)
(1.06141 0.00694941 8.28641e-19)
(1.0403 0.00470135 1.6268e-19)
(1.01984 0.00202625 9.16296e-19)
(0.997736 -1.22741e-05 3.66288e-19)
(1.89639 0.289223 -1.53666e-18)
(1.7205 0.228636 -5.00241e-19)
(1.59957 0.184209 -1.05981e-18)
(1.49689 0.149902 -1.16656e-18)
(1.42535 0.123711 -4.39664e-19)
(1.36075 0.102762 8.88303e-20)
(1.31532 0.0861767 -9.99314e-19)
(1.2715 0.0725379 2.01808e-18)
(1.24025 0.0613194 2.73097e-18)
(1.20807 0.0519135 1.83994e-18)
(1.18454 0.0438226 1.94626e-18)
(1.15889 0.0369696 2.15191e-18)
(1.13932 0.0307369 5.98374e-19)
(1.11711 0.0254589 1.34023e-18)
(1.09911 0.0203148 3.00348e-18)
(1.0783 0.0160084 3.0681e-18)
(1.0602 0.0114505 5.10513e-18)
(1.03948 0.00774671 1.93198e-18)
(1.01949 0.00333875 2.64078e-18)
(0.997738 -1.97779e-05 -7.71831e-19)
(1.85136 0.39796 -2.80001e-18)
(1.6849 0.314594 -1.32376e-18)
(1.57089 0.253465 -1.21076e-18)
(1.47355 0.206259 -1.11283e-18)
(1.40609 0.170221 -1.8377e-18)
(1.34475 0.141396 1.88292e-18)
(1.3019 0.118576 5.3787e-19)
(1.2602 0.0998095 9.67483e-19)
(1.2307 0.0843734 3.05841e-18)
(1.19999 0.0714313 2.33996e-19)
(1.17772 0.0602986 4.02835e-19)
(1.15314 0.0508691 3.54141e-18)
(1.13454 0.0422933 -1.40214e-18)
(1.11314 0.0350309 3.11318e-19)
(1.09595 0.027953 -5.73516e-19)
(1.0758 0.0220275 1.00488e-18)
(1.05842 0.0157559 2.14071e-18)
(1.03827 0.0106596 -2.5582e-18)
(1.01897 0.00459432 -2.9949e-18)
(0.997742 -2.69466e-05 7.52794e-19)
(1.79251 0.499888 -4.57463e-18)
(1.63838 0.395169 -2.10346e-18)
(1.53341 0.318383 -1.86604e-18)
(1.44305 0.259087 -2.02419e-18)
(1.38091 0.213819 -5.07565e-18)
(1.32384 0.177611 -2.94043e-18)
(1.28437 0.148946 -2.17011e-18)
(1.24544 0.125373 -3.57705e-18)
(1.21822 0.105983 -3.00375e-18)
(1.18942 0.0897265 -1.5356e-18)
(1.1688 0.0757423 -5.518e-19)
(1.14561 0.0638979 3.82386e-18)
(1.12828 0.0531255 -2.67616e-19)
(1.10796 0.0440033 -1.5961e-18)
(1.09182 0.0351123 3.44409e-18)
(1.07255 0.0276693 -9.39027e-18)
(1.05609 0.0197913 4.29805e-18)
(1.0367 0.0133899 -4.42979e-18)
(1.01829 0.00577097 3.69086e-18)
(0.997745 -3.37139e-05 2.08799e-18)
(1.72086 0.593263 -6.12312e-18)
(1.58174 0.468984 -3.39631e-18)
(1.48777 0.377855 -3.01207e-18)
(1.40592 0.307482 7.58951e-18)
(1.35027 0.253759 -6.75486e-19)
(1.29838 0.210787 1.30016e-18)
(1.26302 0.176768 -8.83863e-18)
(1.22747 0.148792 -2.1638e-19)
(1.20303 0.12578 -1.68807e-18)
(1.17656 0.106487 7.14366e-18)
(1.15794 0.0898906 -2.86646e-18)
(1.13646 0.0758338 2.86601e-18)
(1.12067 0.0630493 -7.36985e-19)
(1.10165 0.052223 9.4161e-18)
(1.08678 0.0416713 1.27458e-19)
(1.06858 0.032838 -1.31379e-18)
(1.05325 0.0234884 7.07594e-19)
(1.03478 0.0158912 -1.39468e-18)
(1.01746 0.00684911 -1.6886e-18)
(0.99775 -3.98898e-05 7.83117e-18)
(1.63764 0.676487 2.9155e-18)
(1.51595 0.534773 7.33208e-18)
(1.43477 0.43086 4.76935e-18)
(1.36278 0.350616 -9.90148e-19)
(1.31467 0.289356 -5.58825e-19)
(1.26881 0.240356 2.15031e-18)
(1.23822 0.201565 3.15822e-18)
(1.2066 0.169664 3.65777e-18)
(1.18539 0.143425 -6.79616e-18)
(1.16162 0.121425 4.36087e-18)
(1.14533 0.1025 -4.38237e-19)
(1.12582 0.0864716 1.04006e-17)
(1.11182 0.0718935 -2.2756e-18)
(1.09433 0.0595487 1.72872e-17)
(1.08094 0.0475167 4.34875e-18)
(1.06397 0.0374444 -1.99534e-18)
(1.04996 0.0267832 2.6382e-18)
(1.03255 0.0181204 5.24051e-18)
(1.0165 0.00780972 -8.34461e-18)
(0.997755 -4.55072e-05 5.04614e-18)
(1.54426 0.748136 -5.49272e-19)
(1.44214 0.591413 1.69719e-17)
(1.3753 0.476495 -3.21932e-19)
(1.31439 0.387751 -2.67516e-18)
(1.27473 0.320003 8.35314e-18)
(1.23564 0.265814 3.33484e-18)
(1.2104 0.222913 -1.53688e-18)
(1.18318 0.187635 -2.56731e-18)
(1.16559 0.158615 -1.58896e-17)
(1.14486 0.134286 -4.73055e-19)
(1.13119 0.113357 -8.23787e-18)
(1.11388 0.0956304 1.3335e-18)
(1.1019 0.0795083 -2.20837e-17)
(1.08611 0.0658559 5.77954e-18)
(1.07438 0.0525496 -1.23387e-17)
(1.0588 0.0414105 -1.70244e-17)
(1.04626 0.0296201 7.73148e-18)
(1.03005 0.0200397 -3.08917e-17)
(1.01542 0.00863694 1.73321e-18)
(0.997762 -5.03195e-05 -2.73789e-17)
(1.44233 0.806984 -3.45444e-18)
(1.36156 0.637934 1.51244e-18)
(1.31038 0.513975 2.06638e-18)
(1.26156 0.418251 -2.26197e-18)
(1.23113 0.345174 -7.84277e-18)
(1.19942 0.286722 6.46003e-18)
(1.18003 0.240447 -5.84948e-18)
(1.15762 0.202394 -3.24501e-18)
(1.14398 0.171092 -3.73078e-18)
(1.12657 0.144848 -1.42726e-17)
(1.11574 0.122273 1.06356e-17)
(1.10085 0.103152 1.87902e-17)
(1.09107 0.085762 -1.70137e-17)
(1.07714 0.0710358 9.5508e-18)
(1.06722 0.0566828 2.53222e-18)
(1.05316 0.0446676 8.79641e-18)
(1.04222 0.0319497 -1.13354e-17)
(1.02732 0.0216158 -1.35549e-17)
(1.01424 0.00931602 1.90901e-17)
(0.997768 -5.44367e-05 -1.2222e-17)
(1.3336 0.852025 -8.14893e-18)
(1.27561 0.673539 1.14376e-19)
(1.24113 0.542663 -1.03491e-18)
(1.20521 0.441596 -3.08604e-18)
(1.18462 0.36444 -3.85063e-18)
(1.16079 0.302725 -6.0998e-18)
(1.14763 0.253868 -1.20503e-18)
(1.13034 0.21369 -9.47256e-18)
(1.12093 0.180641 5.18387e-18)
(1.10705 0.152933 9.50159e-18)
(1.09927 0.129098 3.25112e-18)
(1.08695 0.10891 8.71525e-18)
(1.07951 0.090549 6.8245e-18)
(1.06756 0.0750007 -5.32068e-18)
(1.05958 0.0598467 1.63519e-17)
(1.04714 0.0471607 -1.37354e-17)
(1.03792 0.033733 3.50603e-17)
(1.0244 0.0228222 3.07864e-18)
(1.01299 0.00983595 1.64426e-17)
(0.997775 -5.75873e-05 -8.20008e-18)
(1.21991 0.882487 1.25814e-17)
(1.18574 0.69762 8.07625e-19)
(1.16872 0.562064 -3.10376e-18)
(1.14628 0.457384 4.02994e-18)
(1.136 0.377469 -1.51455e-17)
(1.1204 0.313549 2.09738e-17)
(1.11376 0.262944 8.55635e-18)
(1.10183 0.22133 7.90473e-18)
(1.09682 0.187099 1.70887e-18)
(1.08664 0.1584 2.10463e-17)
(1.08204 0.133713 -2.30671e-18)
(1.07242 0.112803 -2.25271e-17)
(1.06743 0.0937859 2.78164e-19)
(1.05756 0.0776819 1.26414e-17)
(1.05159 0.0619859 2.03688e-18)
(1.04085 0.0488465 -6.56495e-18)
(1.03342 0.0349387 -1.9592e-17)
(1.02136 0.0236379 -3.29785e-18)
(1.01168 0.0101872 -1.22098e-17)
(0.997782 -5.9939e-05 5.63202e-17)
(1.10322 0.89785 1.39851e-17)
(1.09349 0.709765 1.23838e-17)
(1.0944 0.57185 2.1429e-18)
(1.08581 0.465346 -3.35823e-18)
(1.08609 0.384041 1.45711e-17)
(1.07894 0.319007 5.43768e-18)
(1.07899 0.267522 -4.59632e-18)
(1.07257 0.225183 4.33241e-18)
(1.07208 0.190357 -1.70962e-17)
(1.0657 0.161158 -1.61706e-17)
(1.06436 0.136041 -4.09985e-18)
(1.05751 0.114767 -5.88455e-18)
(1.05503 0.0954188 -4.36954e-18)
(1.04728 0.0790343 -4.14231e-17)
(1.0434 0.0630651 1.76091e-17)
(1.03439 0.0496968 3.1753e-19)
(1.0288 0.0355469 1.21918e-18)
(1.01823 0.0240493 2.98326e-18)
(1.01033 0.0103645 1.31606e-17)
(0.99779 -6.12245e-05 -3.35139e-17)
(0.985528 0.89785 6.27224e-18)
(1.00045 0.709765 1.24564e-17)
(1.01944 0.57185 4.84967e-18)
(1.02481 0.465347 -8.73888e-18)
(1.03574 0.384041 2.30081e-17)
(1.03712 0.319007 3.673e-18)
(1.04392 0.267522 4.54599e-18)
(1.04305 0.225183 -3.56477e-18)
(1.04713 0.190357 -1.23716e-17)
(1.04457 0.161158 -1.87144e-17)
(1.04653 0.136041 -3.65676e-18)
(1.04246 0.114767 -4.07984e-18)
(1.04252 0.0954184 2.73524e-18)
(1.03692 0.079034 -3.57351e-18)
(1.03513 0.0630647 -2.05261e-17)
(1.02788 0.0496965 -7.43413e-20)
(1.02414 0.0355465 -4.38981e-18)
(1.01508 0.0240489 -9.24117e-19)
(1.00897 0.010364 -1.83602e-17)
(0.997797 -6.16503e-05 -2.85214e-18)
(0.868839 0.882488 1.3496e-17)
(0.908208 0.697622 -1.33603e-17)
(0.945118 0.562066 1.05771e-17)
(0.964327 0.457385 7.02213e-18)
(0.985833 0.377471 -4.23351e-18)
(0.995662 0.31355 1.67462e-18)
(1.00916 0.262945 -3.0082e-18)
(1.01378 0.221331 2.5076e-17)
(1.02239 0.1871 3.56775e-17)
(1.02363 0.158401 -4.30218e-18)
(1.02885 0.133713 -1.37347e-17)
(1.02755 0.112804 -1.63344e-17)
(1.03012 0.093786 8.27392e-18)
(1.02665 0.0776817 1.99926e-17)
(1.02693 0.0619857 6.84215e-19)
(1.02142 0.0488461 9.6184e-19)
(1.01952 0.0349382 -2.53164e-17)
(1.01195 0.0236372 3.53065e-18)
(1.00762 0.0101865 1.10136e-17)
(0.997805 -6.09815e-05 -3.18886e-17)
(0.755153 0.852026 -7.91627e-18)
(0.818337 0.673541 -4.15989e-18)
(0.872711 0.542665 1.3019e-17)
(0.905405 0.441597 1.24385e-18)
(0.937206 0.364441 -8.54614e-18)
(0.95527 0.302727 -2.37858e-17)
(0.975283 0.253869 -2.42755e-18)
(0.98527 0.213691 -1.06325e-17)
(0.998288 0.180642 2.64946e-17)
(1.00322 0.152933 -8.97984e-18)
(1.01162 0.129097 2.96118e-18)
(1.01301 0.108909 -4.12783e-18)
(1.01804 0.0905483 3.24938e-17)
(1.01664 0.075 -8.40974e-18)
(1.01895 0.0598457 2.73535e-17)
(1.01512 0.0471596 3.44519e-17)
(1.01502 0.0337317 2.12893e-17)
(1.00891 0.0228209 3.04782e-17)
(1.00631 0.00983433 -1.92055e-17)
(0.997813 -5.94424e-05 6.15802e-17)
(0.646416 0.806986 -1.70616e-18)
(0.732379 0.637937 -1.03603e-17)
(0.803456 0.513979 1.69871e-17)
(0.849049 0.418254 2.06512e-18)
(0.890696 0.345177 -2.59895e-18)
(0.916636 0.286724 -1.97576e-17)
(0.942884 0.240449 7.63502e-18)
(0.957999 0.202395 -1.4684e-18)
(0.975234 0.171093 6.10663e-18)
(0.983707 0.144849 -6.72001e-18)
(0.995146 0.122273 1.20365e-17)
(0.999115 0.103152 -3.81168e-17)
(1.00648 0.0857618 3.17071e-18)
(1.00707 0.0710353 -1.44628e-17)
(1.01131 0.056682 -3.5291e-17)
(1.00911 0.0446665 1.89926e-17)
(1.01071 0.0319484 -3.14679e-17)
(1.006 0.0216142 2.19523e-17)
(1.00506 0.00931413 -3.32753e-17)
(0.99782 -5.68561e-05 -1.65314e-17)
(0.544488 0.748138 5.16275e-18)
(0.651804 0.591417 2.01221e-17)
(0.738537 0.476499 -7.65783e-18)
(0.796221 0.387754 4.75156e-18)
(0.847098 0.320006 2.25307e-17)
(0.880421 0.265816 -3.92987e-18)
(0.912514 0.222915 5.35209e-19)
(0.932435 0.187636 -5.20544e-18)
(0.953624 0.158616 -3.37246e-17)
(0.965411 0.134286 1.81839e-17)
(0.979703 0.113357 1.35355e-17)
(0.986086 0.09563 -3.73748e-17)
(0.995649 0.0795075 -9.59811e-19)
(0.998101 0.0658548 -4.7604e-17)
(1.00415 0.0525482 6.23461e-18)
(1.00346 0.0414088 -2.63556e-17)
(1.00667 0.0296181 -3.06196e-17)
(1.00327 0.0200375 7.97045e-18)
(1.00388 0.00863431 -6.06987e-18)
(0.997827 -5.34421e-05 8.11797e-18)
(0.451113 0.67649 9.53587e-18)
(0.57799 0.534778 1.87901e-18)
(0.679066 0.430866 4.64933e-18)
(0.747826 0.35062 -9.83814e-18)
(0.807159 0.28936 9.08416e-18)
(0.847245 0.24036 -3.55165e-18)
(0.884693 0.201567 -8.17878e-19)
(0.909017 0.169667 3.40746e-18)
(0.933828 0.143426 2.4344e-17)
(0.948651 0.121426 -3.99352e-18)
(0.965555 0.102501 5.28009e-18)
(0.97415 0.0864717 1.44924e-17)
(0.985726 0.0718932 3.7427e-17)
(0.989882 0.0595478 1.8942e-18)
(0.997594 0.0475156 1.81962e-17)
(0.998295 0.0374428 7.80693e-18)
(1.00298 0.0267813 1.00004e-18)
(1.00076 0.0181181 2.88497e-17)
(1.0028 0.00780691 -4.54409e-17)
(0.997833 -4.9105e-05 4.25445e-17)
(0.36789 0.593266 -1.79774e-17)
(0.5122 0.468989 -1.7528e-17)
(0.62606 0.377861 -1.27202e-17)
(0.704692 0.307487 1.46441e-17)
(0.771562 0.253763 -8.65314e-19)
(0.817676 0.210791 -9.99969e-18)
(0.859896 0.176771 -1.27632e-17)
(0.888144 0.148794 -1.28249e-19)
(0.916183 0.125782 1.85717e-17)
(0.933713 0.106488 -3.23868e-18)
(0.952945 0.0898909 -5.95823e-18)
(0.963512 0.0758336 -4.64483e-18)
(0.976882 0.0630485 2.63015e-18)
(0.982556 0.0522218 4.34307e-18)
(0.991748 0.0416697 -2.95798e-17)
(0.993688 0.032836 -1.54853e-18)
(0.999683 0.023486 -2.7038e-17)
(0.998535 0.0158885 1.22202e-17)
(1.00184 0.00684576 4.29735e-17)
(0.997838 -4.40346e-05 -1.33993e-17)
(0.29624 0.499891 -7.11579e-18)
(0.45556 0.395175 -8.25202e-18)
(0.580426 0.31839 -6.86807e-18)
(0.667557 0.259093 -1.16309e-17)
(0.740915 0.213824 -1.43192e-17)
(0.792219 0.177615 -9.09395e-18)
(0.838547 0.14895 1.01256e-17)
(0.870174 0.125376 -8.33439e-18)
(0.900993 0.105986 -1.24013e-17)
(0.920853 0.089728 -1.06488e-17)
(0.942089 0.0757433 1.393e-17)
(0.954354 0.0638981 -1.09146e-17)
(0.969267 0.0531253 3.28368e-19)
(0.976249 0.0440023 -1.31241e-17)
(0.986716 0.035111 1.05596e-17)
(0.989723 0.0276675 6.15989e-18)
(0.996847 0.019789 -1.31284e-17)
(0.996616 0.0133871 1.40031e-17)
(1.00101 0.00576756 -1.60288e-17)
(0.997844 -3.82353e-05 -1.82701e-20)
(0.237392 0.397963 -3.43166e-18)
(0.40904 0.3146 -4.28343e-18)
(0.542946 0.253472 -3.21681e-18)
(0.637057 0.206265 -5.46817e-18)
(0.715744 0.170227 -2.69243e-18)
(0.77131 0.141401 1.56504e-17)
(0.821013 0.11858 4.44813e-18)
(0.855415 0.0998127 1.55982e-17)
(0.888516 0.0843759 5.17593e-18)
(0.91029 0.0714329 -1.7646e-18)