/*--------------------------------*- C++ -*----------------------------------*\
| =========                 |                                                 |
| \\      /  F ield         | foam-extend: Open Source CFD                    |
|  \\    /   O peration     | Version:  3.0                                   |
|   \\  /    A nd           | Web:         http://www.extend-project.de       |
|    \\/     M anipulation  |                                                 |
\*---------------------------------------------------------------------------*/
FoamFile
{
    version     2.0;
    format      ascii;
    class       volSymmTensorField;
    location    "17";
    object      sigma;
}
// * * * * * * * * * * * * * * * * * * * * * * * * * * * * * * * * * * * * * //

dimensions      [0 0 0 0 0 0 0];

internalField   nonuniform List<symmTensor> 
400
(
(0.0167272 -0.000790993 0 -0.0175999 0 0.000872673)
(0.023287 -0.00116313 0 -0.0172805 0 -0.00600651)
(0.0265345 -0.0022713 0 -0.016094 0 -0.0104405)
(0.0272086 -0.00287388 0 -0.014417 0 -0.0127917)
(0.0259992 -0.00411617 0 -0.0125613 0 -0.0134379)
(0.0231267 -0.00452847 0 -0.0104373 0 -0.0126893)
(0.0191416 -0.00548041 0 -0.00827599 0 -0.0108657)
(0.0142324 -0.0056136 0 -0.00600505 0 -0.00822731)
(0.00873362 -0.00626477 0 -0.00370553 0 -0.00502809)
(0.00289687 -0.00608894 0 -0.0013975 0 -0.00149937)
(-0.00311855 -0.00647059 0 0.000972368 0 0.00214618)
(-0.00893089 -0.0059435 0 0.00325446 0 0.00567643)
(-0.0145621 -0.00609409 0 0.00566651 0 0.00889563)
(-0.0193785 -0.00513288 0 0.00784537 0 0.0115332)
(-0.0236629 -0.00512308 0 0.0102711 0 0.0133919)
(-0.0262824 -0.00354651 0 0.0121691 0 0.0141133)
(-0.0280356 -0.00362786 0 0.0145339 0 0.0135017)
(-0.0267058 -0.001166 0 0.0156666 0 0.0110392)
(-0.024162 -0.002368 0 0.0175447 0 0.0066173)
(-0.0166436 0.000377664 0 0.0170659 0 -0.000422327)
(0.0166435 0.00147251 0 -0.0247587 0 0.00811525)
(0.0222794 0.00025374 0 -0.0234333 0 0.00115391)
(0.0255006 -0.00133662 0 -0.0218498 0 -0.0036508)
(0.0262034 -0.00249555 0 -0.0196005 0 -0.0066029)
(0.0251237 -0.00392776 0 -0.0171215 0 -0.00800217)
(0.0224149 -0.00483804 0 -0.0142881 0 -0.00812679)
(0.0185851 -0.0059293 0 -0.0113406 0 -0.00724444)
(0.0138292 -0.00646854 0 -0.00822998 0 -0.00559926)
(0.0085002 -0.00713923 0 -0.00507818 0 -0.00342203)
(0.0028072 -0.00721282 0 -0.00187676 0 -0.000930442)
(-0.00301467 -0.00742841 0 0.00134771 0 0.00166695)
(-0.00869908 -0.00697815 0 0.00453922 0 0.00415986)
(-0.0140963 -0.00676041 0 0.00775445 0 0.00634189)
(-0.0188152 -0.00576275 0 0.0108282 0 0.00798701)
(-0.0227694 -0.0052053 0 0.013898 0 0.00887135)
(-0.0253829 -0.00365159 0 0.0166527 0 0.00873022)
(-0.0265736 -0.00295333 0 0.0192617 0 0.00731197)
(-0.0257642 -0.000870482 0 0.021466 0 0.00429822)
(-0.0224815 -0.000431023 0 0.0230505 0 -0.000569004)
(-0.0171235 0.00193464 0 0.0247858 0 -0.00766223)
(0.0154281 0.00128893 0 -0.0283164 0 0.0128883)
(0.0210742 0.00056261 0 -0.0272241 0 0.00614994)
(0.0241104 -0.000633239 0 -0.0253717 0 0.0012613)
(0.024803 -0.00187181 0 -0.0228 0 -0.00200302)
(0.0237428 -0.00334106 0 -0.0198604 0 -0.00388238)
(0.0211787 -0.0045715 0 -0.0165657 0 -0.00461299)
(0.0175473 -0.00581243 0 -0.0131229 0 -0.00442442)
(0.0130484 -0.00666016 0 -0.00951336 0 -0.003535)
(0.00802141 -0.00739459 0 -0.00586801 0 -0.0021534)
(0.00263167 -0.00764121 0 -0.00215162 0 -0.000480046)
(-0.00284188 -0.00774733 0 0.00155174 0 0.00129014)
(-0.00823242 -0.00730524 0 0.00526949 0 0.00296293)
(-0.0132787 -0.00679359 0 0.00893556 0 0.00434318)
(-0.0177769 -0.00569335 0 0.0125492 0 0.00522767)
(-0.0214324 -0.00472394 0 0.0160254 0 0.00540698)
(-0.0239902 -0.00313594 0 0.0193338 0 0.00465645)
(-0.02505 -0.00206069 0 0.0223038 0 0.00274611)
(-0.0243701 -0.000418117 0 0.0249405 0 -0.000570406)
(-0.0212806 0.000361871 0 0.026808 0 -0.00552741)
(-0.0156882 0.00125394 0 0.0280498 0 -0.0123616)
(0.0142678 0.00315433 0 -0.0299359 0 0.0156681)
(0.0192797 0.00207756 0 -0.0285789 0 0.00929921)
(0.021978 0.000613335 0 -0.0265114 0 0.00453345)
(0.0225966 -0.000898513 0 -0.0237804 0 0.00118384)
(0.0216395 -0.00255993 0 -0.0206936 0 -0.000945902)
(0.0193099 -0.00404135 0 -0.0172553 0 -0.00205463)
(0.0160045 -0.00544787 0 -0.0136654 0 -0.00233919)
(0.0118906 -0.00649718 0 -0.00989923 0 -0.0019914)
(0.00730225 -0.00731623 0 -0.00610497 0 -0.00119728)
(0.00236616 -0.00766008 0 -0.00222817 0 -0.000137993)
(-0.00262089 -0.00771683 0 0.00161204 0 0.00100886)
(-0.00755305 -0.00725121 0 0.00548682 0 0.00206623)
(-0.012121 -0.0065517 0 0.00926501 0 0.00285604)
(-0.0162283 -0.00535564 0 0.0130327 0 0.00319565)
(-0.01948 -0.00409629 0 0.0165824 0 0.00289758)
(-0.0218327 -0.00243749 0 0.0200657 0 0.00176696)
(-0.0226818 -0.000979131 0 0.0230769 0 -0.00039515)
(-0.0222148 0.000670909 0 0.0260066 0 -0.0037918)
(-0.0193798 0.0019505 0 0.0280006 0 -0.00862088)
(-0.0145777 0.00294929 0 0.0296542 0 -0.0150765)
(0.0127194 0.0031353 0 -0.0294212 0 0.0167018)
(0.0173238 0.00250545 0 -0.028179 0 0.0108552)
(0.0197334 0.00129212 0 -0.0261137 0 0.00638031)
(0.0202778 -0.00020258 0 -0.0234069 0 0.00312918)
(0.0193649 -0.0019323 0 -0.0203058 0 0.000940924)
(0.0172425 -0.00356925 0 -0.0168911 0 -0.000351353)
(0.0142557 -0.00512578 0 -0.0133399 0 -0.000915836)
(0.0105654 -0.00634053 0 -0.00964627 0 -0.000919126)
(0.00647239 -0.00725691 0 -0.00594754 0 -0.00052485)
(0.0020718 -0.00767589 0 -0.00217788 0 0.000106075)
(-0.00235457 -0.00770761 0 0.00153965 0 0.000814914)
(-0.00674981 -0.00719648 0 0.00530656 0 0.00144325)
(-0.0108066 -0.00634881 0 0.00897463 0 0.00183199)
(-0.014489 -0.00502902 0 0.0126698 0 0.00181926)
(-0.0174037 -0.00355921 0 0.0161634 0 0.00124035)
(-0.0195493 -0.00180648 0 0.0196224 0 -7.31263e-05)
(-0.0203634 -0.000170093 0 0.0226542 0 -0.00229082)
(-0.0199264 0.00139575 0 0.0255081 0 -0.00558164)
(-0.0174243 0.00269258 0 0.0275309 0 -0.0101067)
(-0.0128783 0.00324794 0 0.02889 0 -0.0160117)
(0.0110393 0.00458823 0 -0.0273178 0 0.0162785)
(0.0150282 0.0037018 0 -0.026079 0 0.0110508)
(0.0170529 0.00227395 0 -0.0240488 0 0.00699588)
(0.0174702 0.000542377 0 -0.0214625 0 0.00399227)
(0.0166269 -0.00140112 0 -0.0185329 0 0.00190594)
(0.0147533 -0.00328174 0 -0.0153494 0 0.000596112)
(0.0121598 -0.00503799 0 -0.0120794 0 -8.04417e-05)
(0.00897623 -0.00644081 0 -0.00870909 0 -0.000267132)
(0.00547439 -0.00747176 0 -0.00536849 0 -0.000105905)
(0.00171297 -0.0079663 0 -0.00197562 0 0.000262653)
(-0.00205033 -0.00798025 0 0.00135094 0 0.000699384)
(-0.00580195 -0.0074144 0 0.00473675 0 0.00106519)
(-0.00925216 -0.00641638 0 0.00803147 0 0.00122069)
(-0.0124173 -0.00494309 0 0.0113926 0 0.00102471)
(-0.0149151 -0.00323319 0 0.0145804 0 0.000334664)
(-0.0168007 -0.00129374 0 0.0177946 0 -0.000993869)
(-0.0175241 0.000602089 0 0.0206289 0 -0.00310481)
(-0.0172017 0.00232784 0 0.0233413 0 -0.0061396)
(-0.0150791 0.00376825 0 0.0253103 0 -0.0102312)
(-0.0111476 0.00442629 0 0.0266444 0 -0.0154968)
(0.00940652 0.00432629 0 -0.024033 0 0.0146265)
(0.0126964 0.00379559 0 -0.0227782 0 0.0100818)
(0.0143106 0.00251471 0 -0.0208604 0 0.00654975)
(0.0145584 0.00069394 0 -0.0184755 0 0.00391716)
(0.0137614 -0.00142076 0 -0.0158294 0 0.00206804)
(0.0121266 -0.00352191 0 -0.0130092 0 0.00088256)
(0.00993456 -0.00549602 0 -0.0101735 0 0.000238927)
(0.00728649 -0.00709178 0 -0.00730151 0 1.50179e-05)
(0.00441601 -0.00825927 0 -0.00450552 0 8.95056e-05)
(0.00134587 -0.0088313 0 -0.00168781 0 0.000341938)
(-0.00170677 -0.00884013 0 0.00105397 0 0.000652804)
(-0.00476649 -0.00820774 0 0.00386384 0 0.00090265)
(-0.00758654 -0.00706118 0 0.00661468 0 0.000971858)
(-0.010213 -0.00540474 0 0.00947333 0 0.000739658)
(-0.0123166 -0.00345489 0 0.0122321 0 8.44726e-05)
(-0.0139469 -0.00129457 0 0.0150631 0 -0.00111628)
(-0.0146409 0.000825475 0 0.0176253 0 -0.0029844)
(-0.0144265 0.00267847 0 0.0200659 0 -0.00563941)
(-0.0127268 0.00410556 0 0.0219216 0 -0.00919473)
(-0.00942597 0.00456942 0 0.0231816 0 -0.0137556)
(0.0074176 0.00557922 0 -0.0192871 0 0.0118695)
(0.0100152 0.00456487 0 -0.0181151 0 0.00809991)
(0.0112076 0.00287534 0 -0.0163937 0 0.00518614)
(0.0112754 0.00067996 0 -0.0143071 0 0.00303167)
(0.0105418 -0.00178686 0 -0.0120778 0 0.00153599)
(0.00917708 -0.00424377 0 -0.00977375 0 0.000596678)
(0.00743845 -0.00651969 0 -0.00754934 0 0.000110891)
(0.00538928 -0.00837365 0 -0.00536533 0 -2.39456e-05)
(0.0032223 -0.00971092 0 -0.00331294 0 9.06378e-05)
(0.000922285 -0.0103781 0 -0.00127616 0 0.000353879)
(-0.00133926 -0.0103774 0 0.000673345 0 0.000665917)
(-0.00362648 -0.00965645 0 0.00269958 0 0.000926901)
(-0.00573542 -0.00832197 0 0.00469846 0 0.00103696)
(-0.00775433 -0.00641954 0 0.00685911 0 0.000895215)
(-0.00938933 -0.00415369 0 0.00898915 0 0.000400176)
(-0.0107295 -0.00166161 0 0.0112803 0 -0.000550762)
(-0.0113417 0.000799432 0 0.0134016 0 -0.00205997)
(-0.0112756 0.00297362 0 0.0155045 0 -0.00422889)
(-0.00999678 0.00466373 0 0.0171516 0 -0.00715477)
(-0.00739654 0.00544334 0 0.0183217 0 -0.0109251)
(0.00568084 0.00491018 0 -0.0138874 0 0.00820652)
(0.00739833 0.00407269 0 -0.0126492 0 0.00525086)
(0.00805196 0.00232835 0 -0.0110866 0 0.00303459)
(0.00786803 -0.000154709 0 -0.00931995 0 0.00145192)
(0.0071713 -0.00298256 0 -0.00758177 0 0.000410478)
(0.00607517 -0.00581383 0 -0.00589731 0 -0.000177864)
(0.00481401 -0.00843796 0 -0.00441502 0 -0.000398994)
(0.00339841 -0.0105748 0 -0.00306145 0 -0.000336959)
(0.00198198 -0.0121132 0 -0.0019078 0 -7.41837e-05)
(0.00050047 -0.0128865 0 -0.000808559 0 0.000308088)
(-0.000921087 -0.0128856 0 0.000191573 0 0.000729515)
(-0.0023913 -0.0120685 0 0.00128137 0 0.00110992)
(-0.00375731 -0.0105309 0 0.00238828 0 0.00136903)
(-0.00514387 -0.00835164 0 0.00371823 0 0.00142563)
(-0.00631468 -0.00572844 0 0.00511714 0 0.00119754)
(-0.00737472 -0.00285356 0 0.00677374 0 0.000600985)
(-0.00796211 1.88181e-07 0 0.00841119 0 -0.000449077)
(-0.00810677 0.00251625 0 0.0101461 0 -0.00203933)
(-0.00736513 0.00438096 0 0.0116233 0 -0.00425819)
(-0.00561059 0.00517916 0 0.0128113 0 -0.00720069)
(0.00336476 0.00608862 0 -0.00702537 0 0.00366061)
(0.0043104 0.00436266 0 -0.00594594 0 0.00163554)
(0.00449744 0.00185987 0 -0.00470385 0 0.000206408)
(0.00409808 -0.00127349 0 -0.00338144 0 -0.000716641)
(0.00347911 -0.0046934 0 -0.00226446 0 -0.00121465)
(0.00269544 -0.00806774 0 -0.00133349 0 -0.00136195)
(0.00196045 -0.0111434 0 -0.000732502 0 -0.00122795)
(0.00123714 -0.0136416 0 -0.0003585 0 -0.000878643)
(0.000626284 -0.0154185 0 -0.000248865 0 -0.000377419)
(2.75243e-05 -0.0163163 0 -0.000241451 0 0.000213927)
(-0.000494483 -0.016306 0 -0.00034027 0 0.000834753)
(-0.00108042 -0.015362 0 -0.000344191 0 0.00142461)
(-0.00163547 -0.0135695 0 -0.000287481 0 0.00192295)
(-0.00232251 -0.0110318 0 5.43724e-05 0 0.00226813)
(-0.00295307 -0.00795273 0 0.000555919 0 0.00239715)
(-0.00368267 -0.00455397 0 0.00143816 0 0.0022445)
(-0.00417289 -0.00114575 0 0.00243104 0 0.00174185)
(-0.00451023 0.00195702 0 0.00369358 0 0.000816653)
(-0.00423315 0.00441854 0 0.00484093 0 -0.000607782)
(-0.00326137 0.00592254 0 0.00587044 0 -0.00260908)
(0.00146606 0.00487838 0 9.37661e-05 0 -0.00155983)
(0.00135662 0.00308584 0 0.00126228 0 -0.00261891)
(0.000878205 0.00025362 0 0.00230841 0 -0.00318662)
(0.000172827 -0.00343028 0 0.00319816 0 -0.00337099)
(-0.000396276 -0.007459 0 0.00364392 0 -0.00324765)
(-0.000854771 -0.0113919 0 0.00373246 0 -0.00287769)
(-0.00102183 -0.0149643 0 0.00333582 0 -0.00231399)
(-0.0010097 -0.0178393 0 0.0026137 0 -0.001604)
(-0.000759222 -0.0198799 0 0.00155101 0 -0.000791791)
(-0.000430154 -0.0209107 0 0.000349433 0 8.07201e-05)
(-1.1522e-06 -0.0209018 0 -0.000971666 0 0.000972819)
(0.000337566 -0.0198361 0 -0.00218172 0 0.00184415)
(0.000633339 -0.0177823 0 -0.00328747 0 0.00265413)
(0.000673958 -0.0148782 0 -0.00403499 0 0.00336104)
(0.00059274 -0.0113013 0 -0.00451401 0 0.00392127)
(0.000183541 -0.00734071 0 -0.00447153 0 0.00428799)
(-0.000274502 -0.00329932 0 -0.00413507 0 0.00440957)
(-0.000905703 0.00041273 0 -0.00332119 0 0.00422689)
(-0.00129333 0.00333505 0 -0.00237561 0 0.00366894)
(-0.00135367 0.00511182 0 -0.00128675 0 0.00264042)
(-0.00129347 0.00607816 0 0.00878374 0 -0.00749027)
(-0.00224768 0.00285307 0 0.00967537 0 -0.00742768)
(-0.00320673 -0.00120426 0 0.0102467 0 -0.00703997)
(-0.00411114 -0.00591426 0 0.0105206 0 -0.00640944)
(-0.00454075 -0.0108298 0 0.0101377 0 -0.00559693)
(-0.00460105 -0.0155143 0 0.00924845 0 -0.00464739)
(-0.00415125 -0.0196822 0 0.00774646 0 -0.00359521)
(-0.00335229 -0.0230031 0 0.00582048 0 -0.00246819)
(-0.00221783 -0.025331 0 0.00350786 0 -0.00129003)
(-0.000926188 -0.0265044 0 0.00100842 0 -8.22275e-05)
(0.000468769 -0.0264844 0 -0.00160381 0 0.00113504)
(0.00177067 -0.0252672 0 -0.00411255 0 0.00234188)
(0.00295203 -0.0229069 0 -0.00647027 0 0.00351824)
(0.00378403 -0.0195532 0 -0.0084269 0 0.00464287)
(0.0043288 -0.0153772 0 -0.0100213 0 0.00569254)
(0.00433073 -0.0106828 0 -0.0109709 0 0.00664013)
(0.00402991 -0.00580239 0 -0.0114824 0 0.00745253)
(0.00321477 -0.0011392 0 -0.0113017 0 0.00808697)
(0.00235451 0.00283845 0 -0.0108422 0 0.00848767)
(0.00144579 0.00586023 0 -0.0100337 0 0.00858787)
(-0.00338879 0.00412523 0 0.0172428 0 -0.013854)
(-0.00562683 0.00054695 0 0.0182704 0 -0.0126436)
(-0.00735635 -0.00416443 0 0.0185876 0 -0.0112312)
(-0.00856379 -0.00969901 0 0.0182853 0 -0.00972149)
(-0.00885968 -0.0154632 0 0.0170251 0 -0.00816542)
(-0.00848411 -0.0208386 0 0.0150737 0 -0.00658955)
(-0.00735344 -0.0255923 0 0.0123608 0 -0.00500735)
(-0.0057261 -0.029318 0 0.00915096 0 -0.00342486)
(-0.0036576 -0.0319233 0 0.00550176 0 -0.00184416)
(-0.00138337 -0.0332276 0 0.00164869 0 -0.000265318)
(0.00101238 -0.0332102 0 -0.00232491 0 0.00131253)
(0.00329321 -0.0318724 0 -0.00618374 0 0.00289054)
(0.00539726 -0.0292411 0 -0.00986694 0 0.00446968)
(0.0070443 -0.0254967 0 -0.0130944 0 0.00605012)
(0.00824575 -0.0207404 0 -0.0158759 0 0.0076302)
(0.00865803 -0.0153593 0 -0.0178626 0 0.00920453)
(0.00846029 -0.0096079 0 -0.0192211 0 0.0107608)
(0.00731799 -0.00406094 0 -0.0195927 0 0.0122747)
(0.00567622 0.000710999 0 -0.0193758 0 0.0136996)
(0.00349018 0.00428439 0 -0.0184345 0 0.0149443)
(-0.00677595 0.00549902 0 0.0275021 0 -0.0207262)
(-0.00987477 -0.000264227 0 0.0280396 0 -0.0181649)
(-0.0119819 -0.00680716 0 0.0276161 0 -0.0156342)
(-0.0132369 -0.0138017 0 0.026425 0 -0.0131881)
(-0.0132379 -0.0207234 0 0.0240872 0 -0.0108493)
(-0.0123144 -0.0269789 0 0.0209328 0 -0.00861848)
(-0.0104784 -0.0323712 0 0.016962 0 -0.00648367)
(-0.00800786 -0.0365306 0 0.0124343 0 -0.00442644)
(-0.00506032 -0.0393997 0 0.00748586 0 -0.00242555)
(-0.00184185 -0.0408274 0 0.00230063 0 -0.000458782)
(0.00147298 -0.0408002 0 -0.00296932 0 0.00149634)
(0.00469701 -0.0393295 0 -0.00815932 0 0.00346231)
(0.00767365 -0.0364146 0 -0.0131353 0 0.0054617)
(0.0101642 -0.0322289 0 -0.0176811 0 0.00751689)
(0.0120672 -0.0268225 0 -0.0217167 0 0.00964948)
(0.0130364 -0.0205738 0 -0.0249148 0 0.0118784)
(0.0131447 -0.0137041 0 -0.0273614 0 0.0142167)
(0.011971 -0.00677719 0 -0.0286366 0 0.0166656)
(0.00997233 -0.000341118 0 -0.0291797 0 0.0192074)
(0.00694257 0.00524165 0 -0.0287491 0 0.0218066)
(-0.00902414 0.00238735 0 0.0366992 0 -0.0276751)
(-0.0137467 -0.0040197 0 0.037525 0 -0.0237783)
(-0.016604 -0.0115692 0 0.0366889 0 -0.0200849)
(-0.0180196 -0.0195307 0 0.0346901 0 -0.0166705)
(-0.0176686 -0.0273847 0 0.0312015 0 -0.0135329)
(-0.0161358 -0.0342592 0 0.0267771 0 -0.0106413)
(-0.0135159 -0.0401398 0 0.0214692 0 -0.00795336)
(-0.0101932 -0.044575 0 0.0156164 0 -0.00542315)
(-0.00635329 -0.0476264 0 0.00935789 0 -0.0030046)
(-0.00223364 -0.0491251 0 0.00288618 0 -0.000652541)
(0.00198612 -0.0491014 0 -0.0036633 0 0.00167719)
(0.00611053 -0.0475608 0 -0.010139 0 0.00402844)
(0.00997171 -0.044474 0 -0.0164171 0 0.00644542)
(0.0133054 -0.0400216 0 -0.0222789 0 0.00897342)
(0.015969 -0.0341407 0 -0.0276276 0 0.0116587)
(0.0175132 -0.0272797 0 -0.0320606 0 0.0145475)
(0.0179308 -0.0194637 0 -0.0356134 0 0.0176827)
(0.0165326 -0.0115138 0 -0.0376291 0 0.0210965)
(0.0137458 -0.00394734 0 -0.03854 0 0.0247942)
(0.00905344 0.00244853 0 -0.0377643 0 0.0287108)
(-0.0133382 0.00419516 0 0.0481647 0 -0.0348265)
(-0.0185854 -0.00560776 0 0.047917 0 -0.0293316)
(-0.0214543 -0.0158225 0 0.045861 0 -0.0244067)
(-0.0224579 -0.0256041 0 0.0424719 0 -0.020014)
(-0.0215726 -0.0346951 0 0.0376632 0 -0.0160906)
(-0.019314 -0.0423259 0 0.031874 0 -0.01256)
(-0.0160036 -0.0486592 0 0.025347 0 -0.00934339)
(-0.011921 -0.0533348 0 0.0182856 0 -0.00636454)
(-0.0073942 -0.0565077 0 0.0109458 0 -0.00355156)
(-0.00254516 -0.0580546 0 0.00338166 0 -0.000836498)
(0.00234094 -0.0580292 0 -0.00418688 0 0.00184594)
(0.00719061 -0.0564415 0 -0.0117508 0 0.00456015)
(0.0117225 -0.0532241 0 -0.019094 0 0.00737144)
(0.0158074 -0.0485276 0 -0.0261552 0 0.0103478)
(0.0191373 -0.0421751 0 -0.0326984 0 0.0135611)
(0.0214047 -0.0345641 0 -0.0384925 0 0.0170878)
(0.0223503 -0.0255163 0 -0.0433571 0 0.0210068)
(0.0213807 -0.0158218 0 -0.046776 0 0.0253953)
(0.0186285 -0.00570319 0 -0.0489481 0 0.0303196)
(0.0134635 0.00394618 0 -0.0492983 0 0.0358348)
(-0.0157074 -0.00116099 0 0.0571381 0 -0.0414307)
(-0.0229066 -0.0116019 0 0.0573823 0 -0.0344757)
(-0.0260971 -0.0228684 0 0.0544585 0 -0.0283614)
(-0.026835 -0.0332578 0 0.0498739 0 -0.0230388)
(-0.0252612 -0.0428746 0 0.0436465 0 -0.0183853)
(-0.0222479 -0.050673 0 0.0365198 0 -0.0142719)
(-0.0181862 -0.0570913 0 0.0287656 0 -0.0105794)
(-0.0134124 -0.061733 0 0.0206126 0 -0.0072002)
(-0.00824469 -0.0648715 0 0.0122819 0 -0.00403716)
(-0.0027912 -0.0663821 0 0.00379202 0 -0.00100082)
(0.00268706 -0.0663609 0 -0.00468056 0 0.0019935)
(0.00814579 -0.0647998 0 -0.0131748 0 0.00502896)
(0.0133178 -0.0616298 0 -0.021508 0 0.00819023)
(0.0181042 -0.0569615 0 -0.0296709 0 0.0115667)
(0.0221729 -0.0505468 0 -0.0374284 0 0.0152555)
(0.0251927 -0.042759 0 -0.0445567 0 0.019364)
(0.0267785 -0.0331958 0 -0.0507897 0 0.0240112)
(0.026017 -0.0228285 0 -0.0553424 0 0.0293254)
(0.0228461 -0.0116103 0 -0.0582751 0 0.0354289)
(0.015635 -0.00117309 0 -0.0580107 0 0.0423756)
(-0.0210376 0.00085024 0 0.0686558 0 -0.0476182)
(-0.027053 -0.014939 0 0.0660088 0 -0.0389559)
(-0.0297465 -0.0297933 0 0.0614491 0 -0.0317026)
(-0.0293376 -0.0418786 0 0.0548936 0 -0.0255559)
(-0.0272548 -0.0522979 0 0.0475333 0 -0.0202785)
(-0.0235828 -0.0603435 0 0.03926 0 -0.0156771)
(-0.0191762 -0.0667466 0 0.0307673 0 -0.0115911)
(-0.0140089 -0.071292 0 0.0218923 0 -0.0078834)
(-0.00859557 -0.0743221 0 0.0130301 0 -0.00443449)
(-0.0028546 -0.0757769 0 0.00399105 0 -0.00113646)
(0.0028365 -0.0757615 0 -0.00494822 0 0.00211173)
(0.00857508 -0.0742683 0 -0.013984 0 0.00540889)
(0.0139799 -0.0712136 0 -0.0228359 0 0.00885604)
(0.0191347 -0.0666461 0 -0.0316957 0 0.012561)
(0.0235235 -0.0602363 0 -0.0401667 0 0.0166433)
(0.0271587 -0.0522007 0 -0.0483983 0 0.0212396)
(0.0292431 -0.0418092 0 -0.0557534 0 0.0265103)
(0.029596 -0.0297892 0 -0.0622433 0 0.0326473)
(0.0270251 -0.0149869 0 -0.0669121 0 0.039887)
(0.0210261 0.000693212 0 -0.0695647 0 0.0485386)
(-0.0244134 -0.00840268 0 0.0765164 0 -0.0521029)
(-0.0309571 -0.0238179 0 0.0731734 0 -0.0422163)
(-0.0330339 -0.0377071 0 0.0671585 0 -0.0341245)
(-0.0317375 -0.049304 0 0.0591095 0 -0.027372)
(-0.0289194 -0.0591226 0 0.0505589 0 -0.0216395)
(-0.0246946 -0.0667658 0 0.0413797 0 -0.0166851)
(-0.0198851 -0.0727793 0 0.0322013 0 -0.0123162)
(-0.0144488 -0.0770794 0 0.0228222 0 -0.00837339)
(-0.00881775 -0.0799249 0 0.0135381 0 -0.00472033)
(-0.002917 -0.0813051 0 0.00415259 0 -0.00123559)
(0.00294011 -0.0813043 0 -0.0051338 0 0.00219368)
(0.00884257 -0.0799033 0 -0.0145202 0 0.00567765)
(0.0144633 -0.0770615 0 -0.0237924 0 0.00932913)
(0.0199079 -0.0727494 0 -0.0331774 0 0.0132696)
(0.0246955 -0.066752 0 -0.0423307 0 0.0176352)
(0.0289355 -0.0591125 0 -0.051521 0 0.0225855)
(0.0317121 -0.0493166 0 -0.0600247 0 0.0283126)
(0.0329946 -0.0377454 0 -0.0680522 0 0.0350577)
(0.030845 -0.0238484 0 -0.0739815 0 0.0431365)
(0.0242413 -0.00844353 0 -0.0772416 0 0.0530004)
(-0.0244393 -0.00952738 0 0.0786296 0 -0.0541902)
(-0.0297024 -0.0315114 0 0.0735812 0 -0.0438787)
(-0.0320241 -0.0474971 0 0.067423 0 -0.0353989)
(-0.0304406 -0.0602054 0 0.0587799 0 -0.0283393)
(-0.0280875 -0.0696983 0 0.0504567 0 -0.0223692)
(-0.0239258 -0.0772404 0 0.0411542 0 -0.0172284)
(-0.0194471 -0.0827906 0 0.0321562 0 -0.0127091)
(-0.0141111 -0.0868926 0 0.0227518 0 -0.00864071)
(-0.00867177 -0.0894963 0 0.0135498 0 -0.00487805)
(-0.00284537 -0.0908017 0 0.00413808 0 -0.00129271)
(0.00287636 -0.0908059 0 -0.00511067 0 0.00223431)
(0.00870141 -0.0894802 0 -0.0145205 0 0.00581906)
(0.0141438 -0.0868912 0 -0.0237243 0 0.00958056)
(0.0194717 -0.0827721 0 -0.0331191 0 0.0136474)
(0.0239479 -0.0772542 0 -0.0421127 0 0.0181648)
(0.0280847 -0.069694 0 -0.0513885 0 0.0233038)
(0.0304174 -0.0602507 0 -0.0596899 0 0.0292725)
(0.031959 -0.0475072 0 -0.0682909 0 0.0363318)
(0.029607 -0.0315332 0 -0.0744195 0 0.0448125)
(0.0243801 -0.00950064 0 -0.0795077 0 0.0551277)
)
;

boundaryField
{
    cavity
    {
        type            mySigma;
    }
    lid
    {
        type            zeroGradient;
    }
    frontAndBack
    {
        type            empty;
    }
}


// ************************************************************************* //
