/*--------------------------------*- C++ -*----------------------------------*\
| =========                 |                                                 |
| \\      /  F ield         | foam-extend: Open Source CFD                    |
|  \\    /   O peration     | Version:  3.0                                   |
|   \\  /    A nd           | Web:         http://www.extend-project.de       |
|    \\/     M anipulation  |                                                 |
\*---------------------------------------------------------------------------*/
FoamFile
{
    version     2.0;
    format      ascii;
    class       volVectorField;
    location    "40";
    object      s;
}
// * * * * * * * * * * * * * * * * * * * * * * * * * * * * * * * * * * * * * //

dimensions      [0 1 -1 0 0 0 0];

internalField   nonuniform List<vector> 
320
(
(1.2297 0.094557 0)
(0.947215 0.0743796 0)
(0.767076 0.0604032 0)
(0.645781 0.0513783 0)
(0.556888 0.0447214 0)
(0.490106 0.03997 0)
(0.43795 0.036311 0)
(0.395593 0.033333 0)
(1.20043 0.29173 0)
(0.924043 0.221918 0)
(0.748686 0.180179 0)
(0.630439 0.151226 0)
(0.543926 0.130531 0)
(0.479466 0.114581 0)
(0.428686 0.102475 0)
(0.388925 0.0918954 0)
(1.13703 0.474919 0)
(0.875695 0.363084 0)
(0.710448 0.294435 0)
(0.598226 0.247112 0)
(0.515996 0.212647 0)
(0.454414 0.186412 0)
(0.405421 0.165575 0)
(0.366667 0.148977 0)
(1.04781 0.64334 0)
(0.807137 0.494411 0)
(0.655052 0.401141 0)
(0.551523 0.33702 0)
(0.475474 0.290255 0)
(0.418324 0.254801 0)
(0.372594 0.226747 0)
(0.336167 0.204394 0)
(0.933855 0.79763 0)
(0.719149 0.613621 0)
(0.583598 0.497737 0)
(0.491277 0.418399 0)
(0.42349 0.360372 0)
(0.372498 0.31663 0)
(0.331818 0.281956 0)
(0.299474 0.254506 0)
(0.79738 0.93276 0)
(0.613961 0.717727 0)
(0.498153 0.582189 0)
(0.41926 0.489561 0)
(0.361323 0.421787 0)
(0.317744 0.370724 0)
(0.283031 0.330241 0)
(0.255454 0.298104 0)
(0.641512 1.04529 0)
(0.493865 0.804299 0)
(0.40066 0.652314 0)
(0.337159 0.548612 0)
(0.290559 0.472707 0)
(0.255499 0.415582 0)
(0.227613 0.370277 0)
(0.205453 0.334305 0)
(0.469996 1.13223 0)
(0.361823 0.871158 0)
(0.293503 0.706501 0)
(0.24695 0.594226 0)
(0.212789 0.51204 0)
(0.187094 0.450198 0)
(0.166671 0.401149 0)
(0.150445 0.362181 0)
(0.287006 1.1914 0)
(0.22098 0.916649 0)
(0.179255 0.743346 0)
(0.150813 0.625231 0)
(0.12994 0.538769 0)
(0.114235 0.473723 0)
(0.101757 0.422134 0)
(0.0918419 0.38114 0)
(0.0970337 1.22129 0)
(0.0747952 0.939632 0)
(0.0606887 0.761961 0)
(0.0510574 0.640891 0)
(0.0439706 0.552267 0)
(0.0386373 0.485597 0)
(0.0343963 0.432721 0)
(0.0310277 0.390699 0)
(-0.095261 1.22116 0)
(-0.0731681 0.939522 0)
(-0.0593016 0.761857 0)
(-0.0498798 0.640803 0)
(-0.0430091 0.552192 0)
(-0.0378451 0.485534 0)
(-0.0337554 0.432669 0)
(-0.0305033 0.390653 0)
(-0.285149 1.19099 0)
(-0.219275 0.916313 0)
(-0.177785 0.743032 0)
(-0.149543 0.624968 0)
(-0.128891 0.538546 0)
(-0.113359 0.473535 0)
(-0.101045 0.421976 0)
(-0.0912551 0.380998 0)
(-0.467965 1.13152 0)
(-0.359941 0.870567 0)
(-0.291852 0.705936 0)
(-0.245489 0.593768 0)
(-0.211567 0.51166 0)
(-0.186054 0.449894 0)
(-0.165822 0.400909 0)
(-0.14974 0.361976 0)
(-0.639213 1.04421 0)
(-0.49171 0.803405 0)
(-0.398707 0.651479 0)
(-0.335367 0.547964 0)
(-0.289015 0.47219 0)
(-0.254151 0.415188 0)
(-0.226503 0.369982 0)
(-0.204526 0.334052 0)
(-0.794684 0.931213 0)
(-0.611343 0.716478 0)
(-0.495721 0.580994 0)
(-0.416968 0.48868 0)
(-0.359331 0.421105 0)
(-0.315978 0.37027 0)
(-0.281596 0.329954 0)
(-0.254267 0.297911 0)
(-0.930558 0.795309 0)
(-0.715898 0.611922 0)
(-0.580511 0.496214 0)
(-0.488287 0.417373 0)
(-0.420789 0.359659 0)
(-0.370015 0.316241 0)
(-0.329749 0.281808 0)
(-0.297743 0.25444 0)
(-1.04349 0.639841 0)
(-0.802805 0.492312 0)
(-0.650991 0.399224 0)
(-0.547571 0.335794 0)
(-0.471875 0.289361 0)
(-0.414934 0.25443 0)
(-0.369776 0.226726 0)
(-0.333883 0.204707 0)
(-1.13072 0.468637 0)
(-0.869928 0.360589 0)
(-0.705427 0.292411 0)
(-0.593361 0.245952 0)
(-0.511334 0.211942 0)
(-0.44963 0.186356 0)
(-0.400694 0.166065 0)
(-0.361797 0.149936 0)
(-1.19008 0.285908 0)
(-0.915616 0.219996 0)
(-0.742481 0.178402 0)
(-0.62453 0.150058 0)
(-0.538194 0.129307 0)
(-0.473247 0.113696 0)
(-0.42174 0.101315 0)
(-0.380799 0.091474 0)
(-1.22013 0.0961505 0)
(-0.938746 0.0739935 0)
(-0.761241 0.0600059 0)
(-0.640311 0.0504713 0)
(-0.551794 0.0434901 0)
(-0.485206 0.0382373 0)
(-0.432396 0.0340714 0)
(-0.39042 0.0307602 0)
(-1.22013 -0.0959654 0)
(-0.938749 -0.0738256 0)
(-0.761246 -0.0598644 0)
(-0.640316 -0.0503556 0)
(-0.551798 -0.0433964 0)
(-0.48521 -0.0381617 0)
(-0.4324 -0.0340103 0)
(-0.390424 -0.0307104 0)
(-1.19008 -0.285713 0)
(-0.915626 -0.219823 0)
(-0.742496 -0.178258 0)
(-0.624545 -0.14994 0)
(-0.538208 -0.129212 0)
(-0.47326 -0.11362 0)
(-0.421751 -0.101253 0)
(-0.380809 -0.0914241 0)
(-1.13071 -0.468424 0)
(-0.869947 -0.360405 0)
(-0.705452 -0.292259 0)
(-0.593387 -0.245831 0)
(-0.511358 -0.211845 0)
(-0.44965 -0.186279 0)
(-0.400712 -0.166002 0)
(-0.361812 -0.149885 0)
(-1.0435 -0.639601 0)
(-0.802835 -0.492111 0)
(-0.651028 -0.399062 0)
(-0.547608 -0.335666 0)
(-0.471908 -0.289259 0)
(-0.414962 -0.254349 0)
(-0.3698 -0.226662 0)
(-0.333903 -0.204655 0)
(-0.930571 -0.795033 0)
(-0.715943 -0.6117 0)
(-0.580562 -0.496037 0)
(-0.488335 -0.417234 0)
(-0.42083 -0.359549 0)
(-0.37005 -0.316154 0)
(-0.329778 -0.281738 0)
(-0.297767 -0.254384 0)
(-0.794718 -0.930895 0)
(-0.611406 -0.716227 0)
(-0.495788 -0.580797 0)
(-0.417028 -0.488526 0)
(-0.359383 -0.420983 0)
(-0.31602 -0.370173 0)
(-0.28163 -0.329876 0)
(-0.254295 -0.297847 0)
(-0.639276 -1.04384 0)
(-0.491798 -0.80312 0)
(-0.398793 -0.651255 0)
(-0.335442 -0.547788 0)
(-0.289078 -0.47205 0)
(-0.254202 -0.415076 0)
(-0.226543 -0.369891 0)
(-0.204558 -0.333976 0)
(-0.468068 -1.13109 0)
(-0.36006 -0.870238 0)
(-0.291963 -0.705677 0)
(-0.245584 -0.59356 0)
(-0.211646 -0.511493 0)
(-0.186118 -0.449758 0)
(-0.165873 -0.400797 0)
(-0.14978 -0.361882 0)
(-0.285304 -1.1905 0)
(-0.219433 -0.915931 0)
(-0.177925 -0.742723 0)
(-0.149665 -0.624718 0)
(-0.128992 -0.538342 0)
(-0.113442 -0.473366 0)
(-0.101111 -0.421836 0)
(-0.0913088 -0.380879 0)
(-0.095478 -1.2206 0)
(-0.0733741 -0.939071 0)
(-0.0594864 -0.761483 0)
(-0.0500438 -0.640495 0)
(-0.0431481 -0.551937 0)
(-0.0379623 -0.485322 0)
(-0.0338513 -0.432491 0)
(-0.0305816 -0.3905 0)
(0.0967416 -1.22065 0)
(0.074524 -0.939091 0)
(0.0604446 -0.761497 0)
(0.050833 -0.640505 0)
(0.0437768 -0.551947 0)
(0.0384686 -0.485332 0)
(0.0342555 -0.432501 0)
(0.0309099 -0.390512 0)
(0.286629 -1.19064 0)
(0.220629 -0.915992 0)
(0.178919 -0.74277 0)
(0.150488 -0.62475 0)
(0.129647 -0.538372 0)
(0.113974 -0.473396 0)
(0.101536 -0.421865 0)
(0.0916561 -0.380911 0)
(0.469514 -1.13133 0)
(0.361347 -0.870344 0)
(0.293037 -0.705761 0)
(0.246482 -0.593619 0)
(0.212366 -0.511545 0)
(0.186708 -0.449809 0)
(0.166347 -0.400845 0)
(0.150171 -0.361936 0)
(0.640905 -1.04416 0)
(0.493239 -0.803277 0)
(0.399998 -0.6514 0)
(0.336468 -0.547878 0)
(0.289902 -0.472132 0)
(0.254889 -0.415144 0)
(0.227093 -0.369952 0)
(0.205017 -0.334041 0)
(0.796591 -0.931328 0)
(0.613059 -0.71645 0)
(0.497208 -0.581004 0)
(0.41826 -0.488649 0)
(0.360388 -0.421079 0)
(0.316871 -0.370244 0)
(0.282311 -0.32993 0)
(0.25487 -0.297911 0)
(0.932767 -0.795606 0)
(0.717932 -0.612003 0)
(0.582298 -0.496361 0)
(0.489879 -0.417382 0)
(0.422092 -0.359666 0)
(0.371128 -0.316192 0)
(0.330623 -0.281754 0)
(0.298473 -0.254396 0)
(1.04614 -0.640453 0)
(0.805258 -0.492537 0)
(0.653238 -0.399453 0)
(0.549608 -0.335804 0)
(0.473577 -0.289294 0)
(0.416404 -0.254272 0)
(0.370914 -0.226529 0)
(0.334843 -0.204542 0)
(1.13402 -0.469731 0)
(0.873115 -0.360923 0)
(0.708358 -0.292809 0)
(0.596038 -0.245893 0)
(0.513589 -0.211813 0)
(0.451564 -0.185968 0)
(0.402145 -0.165663 0)
(0.362923 -0.149487 0)
(1.19458 -0.287945 0)
(0.919764 -0.220485 0)
(0.74628 -0.178715 0)
(0.628042 -0.14981 0)
(0.541227 -0.128801 0)
(0.47592 -0.112845 0)
(0.423786 -0.1003 0)
(0.382471 -0.0903653 0)
(1.22698 -0.100371 0)
(0.944589 -0.0741985 0)
(0.766256 -0.0602811 0)
(0.644848 -0.0498978 0)
(0.555879 -0.0427445 0)
(0.488925 -0.0368031 0)
(0.435667 -0.0325865 0)
(0.393198 -0.0282461 0)
)
;

boundaryField
{
    up
    {
        type            myHeatFlux;
        alpha           uniform 1;
        Theta_wall      uniform 1;
        value           nonuniform List<vector> 
40
(
(0.379219 0.031859 0)
(0.372415 0.0880562 0)
(0.350184 0.142394 0)
(0.32097 0.195217 0)
(0.286102 0.243192 0)
(0.244091 0.284884 0)
(0.19633 0.319499 0)
(0.143769 0.34615 0)
(0.0877645 0.364275 0)
(0.0296438 0.373414 0)
(-0.0291636 0.373371 0)
(-0.0872268 0.364144 0)
(-0.143124 0.345963 0)
(-0.195485 0.319274 0)
(-0.243026 0.284732 0)
(-0.284578 0.243184 0)
(-0.319119 0.195651 0)
(-0.345798 0.143303 0)
(-0.363959 0.0874268 0)
(-0.373155 0.0293986 0)
(-0.373158 -0.029353 0)
(-0.363968 -0.0873811 0)
(-0.345812 -0.143257 0)
(-0.319137 -0.195603 0)
(-0.2846 -0.243132 0)
(-0.243052 -0.284673 0)
(-0.195515 -0.319205 0)
(-0.14316 -0.345876 0)
(-0.0872756 -0.364033 0)
(-0.0292351 -0.373229 0)
(0.0295357 -0.37324 0)
(0.0875939 -0.364064 0)
(0.143519 -0.345927 0)
(0.195935 -0.319264 0)
(0.243574 -0.284729 0)
(0.285234 -0.243133 0)
(0.319957 -0.195474 0)
(0.346718 -0.142846 0)
(0.36508 -0.0863131 0)
(0.375669 -0.0270941 0)
)
;
    }
    hole
    {
        type            myHeatFlux;
        alpha           uniform 1;
        Theta_wall      uniform 4;
        value           nonuniform List<vector> 
40
(
(1.51429 0.117151 -2.62351e-18)
(1.47505 0.357343 0)
(1.38921 0.579022 2.07977e-17)
(1.27915 0.784995 0)
(1.14161 0.975071 -2.07466e-17)
(0.975199 1.14104 2.07418e-17)
(0.784702 1.2791 -0)
(0.574889 1.38568 -0)
(0.350968 1.45819 -0)
(0.118476 1.49481 2.59014e-18)
(-0.116861 1.49464 -2.58963e-18)
(-0.349252 1.4577 -0)
(-0.57298 1.38489 2.07106e-17)
(-0.782548 1.27801 -0)
(-0.972803 1.1397 -2.07062e-17)
(-1.13907 0.973348 2.07045e-17)
(-1.27727 0.783064 -0)
(-1.384 0.573524 -0)
(-1.45664 0.349884 -0)
(-1.4934 0.117646 2.5876e-18)
(-1.49339 -0.117477 -2.58756e-18)
(-1.45661 -0.349702 0)
(-1.38396 -0.573315 2.07005e-17)
(-1.27722 -0.782816 0)
(-1.13903 -0.97305 -2.07014e-17)
(-0.972775 -1.13934 2.07021e-17)
(-0.782549 -1.27758 0)
(-0.573027 -1.38439 0)
(-0.34936 -1.45712 0)
(-0.117047 -1.49398 2.58852e-18)
(0.1182 -1.49407 -2.58883e-18)
(0.350594 -1.45737 0)
(0.574415 -1.38478 2.07168e-17)
(0.784153 -1.27808 0)
(0.974627 -1.13991 -2.07247e-17)
(1.14113 -0.97366 2.07289e-17)
(1.27949 -0.783509 0)
(1.38626 -0.574217 -0)
(1.45793 -0.351069 -0)
(1.50049 -0.121559 2.60034e-18)
)
;
    }
    frontAndBack
    {
        type            empty;
    }
}


// ************************************************************************* //
