/*--------------------------------*- C++ -*----------------------------------*\
| =========                 |                                                 |
| \\      /  F ield         | foam-extend: Open Source CFD                    |
|  \\    /   O peration     | Version:  3.0                                   |
|   \\  /    A nd           | Web:         http://www.extend-project.de       |
|    \\/     M anipulation  |                                                 |
\*---------------------------------------------------------------------------*/
FoamFile
{
    version     2.0;
    format      ascii;
    class       volVectorField;
    location    "25";
    object      u;
}
// * * * * * * * * * * * * * * * * * * * * * * * * * * * * * * * * * * * * * //

dimensions      [0 0 0 0 0 0 0];

internalField   nonuniform List<vector> 
2688
(
(0.1243708437 -0.05264920234 9.76457045e-19)
(0.2972327265 -0.04307559283 -4.155229859e-18)
(0.4353054638 -0.03574109667 -1.459187042e-18)
(0.5383490699 -0.02989742703 2.04013246e-18)
(0.6246852504 -0.02529732079 -9.195399982e-19)
(0.6898348479 -0.02152740396 -3.932445048e-19)
(0.7469019861 -0.01847943963 -1.664064867e-18)
(0.7898588158 -0.01592270337 -4.116301116e-18)
(0.8292027107 -0.01380218233 -3.248712659e-18)
(0.8583111549 -0.01199077079 -1.539900605e-18)
(0.8863004353 -0.01044722872 -1.174815331e-18)
(0.9062779904 -0.009111636426 -1.085863807e-18)
(0.9266295603 -0.007937846414 -7.01420347e-19)
(0.9402749339 -0.006914787587 -5.938055669e-18)
(0.9552574702 -0.005981555886 1.567003528e-18)
(0.9642915176 -0.005167178099 3.144933315e-18)
(0.9753381269 -0.004390066373 1.675000256e-18)
(0.9808437993 -0.003715632186 7.705341036e-19)
(0.9888820785 -0.003037079275 3.675920959e-18)
(0.99154679 -0.002455196975 2.373508771e-18)
(0.9971855759 -0.001833853426 -5.725497375e-19)
(0.9974417391 -0.001308615338 -1.666418563e-18)
(1.001076471 -0.0007257265628 -4.116249804e-19)
(0.9992222708 -0.0001431067903 -2.416795282e-18)
(0.1361608803 -0.1572893735 3.421900421e-18)
(0.3068789606 -0.1286883839 -3.315988459e-19)
(0.4433095136 -0.1067771375 -9.984831841e-18)
(0.5450443384 -0.08931939827 -2.244799729e-18)
(0.6303503611 -0.07557726491 -2.956525398e-18)
(0.6946555462 -0.06431447524 5.16768546e-19)
(0.7510401553 -0.05520929396 -2.234024837e-18)
(0.7934245075 -0.0475708044 -1.276811757e-18)
(0.8322936507 -0.04123589556 4.238140522e-18)
(0.8609964479 -0.0358240417 4.850484721e-18)
(0.8886400956 -0.03121295483 -2.285478767e-18)
(0.908318532 -0.02722267257 -4.199136427e-18)
(0.9284072762 -0.023716167 -5.977125405e-20)
(0.9418235439 -0.02065956741 -2.698010704e-18)
(0.9565971479 -0.01787180798 -2.809468805e-18)
(0.9654488378 -0.0154388233 -8.684850571e-20)
(0.9763214751 -0.01311761224 -4.577179866e-18)
(0.9816760956 -0.01110268288 -4.653135177e-18)
(0.9895624358 -0.009075633416 6.645568144e-18)
(0.9920968155 -0.007337004734 -1.300693727e-17)
(0.997596556 -0.005481139972 6.199437288e-18)
(0.9977350473 -0.003912222049 5.274885111e-19)
(1.001239229 -0.002170867513 5.124183161e-18)
(0.9992545328 -0.0004302338878 5.041344751e-18)
(0.1595926292 -0.2599516913 6.752231717e-18)
(0.3260501501 -0.2126833585 -2.091278553e-18)
(0.4592168961 -0.1764704259 -5.212622226e-18)
(0.558350732 -0.1476179933 -1.214817979e-18)
(0.6416094971 -0.1249064878 -2.991345712e-18)
(0.7042365757 -0.1062925336 4.781391792e-18)
(0.7592648536 -0.09124488672 -5.497739855e-18)
(0.8005113629 -0.07862068725 6.185940579e-18)
(0.8384368385 -0.06815097861 -6.172947914e-18)
(0.8663333894 -0.05920664847 8.447509996e-18)
(0.893290077 -0.05158601873 5.591655685e-18)
(0.9123740425 -0.04499126478 3.260481813e-18)
(0.9319404055 -0.03919620373 4.311021666e-18)
(0.9449013318 -0.0341445244 -6.885258514e-18)
(0.9592596402 -0.02953729766 4.382592655e-18)
(0.967748881 -0.02551627047 -1.094036737e-17)
(0.978275704 -0.02168013752 2.120825719e-17)
(0.9833301468 -0.01835006536 -1.780929246e-17)
(0.9909145209 -0.0150000611 -1.40465792e-17)
(0.9931899379 -0.01212655049 1.289423926e-17)
(0.9984132318 -0.009059388811 3.145480544e-18)
(0.9983179503 -0.006466458951 -2.052770926e-17)
(1.001562693 -0.003588701116 -8.365870321e-18)
(0.9993187628 -0.0007119613646 1.158665995e-17)
(0.1943715783 -0.3593446003 -2.30543164e-19)
(0.3545050874 -0.2940034139 -6.177958327e-18)
(0.4828269754 -0.2439444635 -6.552747305e-18)
(0.578100493 -0.2040601363 2.645592827e-19)
(0.6583206707 -0.1726650216 -8.183652347e-18)
(0.7184573784 -0.1469339863 4.235216746e-18)
(0.7714724998 -0.1261331114 -7.049009054e-18)
(0.8110300445 -0.108682016 -1.510096251e-18)
(0.8475548205 -0.09420917443 -3.387942899e-18)
(0.8742547135 -0.08184485097 -6.163412243e-18)
(0.9001918649 -0.07131046934 -1.661321646e-17)
(0.9183935143 -0.06219415324 -6.146908136e-18)
(0.9371845735 -0.05418337901 1.203986184e-17)
(0.9494696262 -0.04720014427 1.463564287e-18)
(0.9632115492 -0.04083138145 2.377623966e-18)
(0.9711628093 -0.03527289236 -9.024854976e-18)
(0.9811764182 -0.02997007694 -1.340367767e-17)
(0.9857853247 -0.02536674645 5.804390813e-18)
(0.992921526 -0.02073590832 -3.508201569e-18)
(0.9948124855 -0.01676367136 -1.995404806e-17)
(0.999625446 -0.01252378605 1.035488738e-17)
(0.9991832336 -0.008939440914 1.919349909e-17)
(1.002042987 -0.004961418084 -2.010416151e-17)
(0.9994141191 -0.0009847815041 2.306368994e-17)
(0.2400605206 -0.4542188083 -5.774070922e-19)
(0.3918864055 -0.3716264916 6.428140553e-18)
(0.5138434946 -0.3083507641 1.169621738e-17)
(0.6040458031 -0.2579360911 7.524948103e-19)
(0.6802742589 -0.2182520796 -1.095390953e-18)
(0.7371393519 -0.18572757 9.647398643e-19)
(0.7875098182 -0.1594350581 -5.829658329e-18)
(0.8248485181 -0.1373765084 -6.211442271e-18)
(0.8595331348 -0.1190825421 -1.093251563e-18)
(0.8846609281 -0.1034537049 1.487323431e-17)
(0.9092586713 -0.09013807106 -9.2524685e-19)
(0.9263012155 -0.07861484669 6.342805823e-18)
(0.9440737401 -0.06848912704 -5.326745836e-18)
(0.9554709102 -0.05966215692 1.002192014e-17)
(0.9684030725 -0.0516119576 -2.875139817e-17)
(0.9756476002 -0.04458589325 -9.366578346e-18)
(0.9849869775 -0.03788308481 2.191466581e-17)
(0.9890106023 -0.03206437902 1.625926096e-18)
(0.9955580175 -0.02621096235 1.134257828e-17)
(0.9969439485 -0.02118993802 9.697911097e-18)
(1.001217821 -0.01583065189 -1.747411864e-18)
(1.000319903 -0.01129995459 5.870382914e-18)
(1.002673881 -0.00627170951 -3.188658353e-17)
(0.9995394283 -0.001245171052 3.485546734e-17)
(0.2960846576 -0.543380721 -1.832027726e-17)
(0.4377233964 -0.4445758594 -9.36339827e-20)
(0.5518759108 -0.3688792773 2.61075641e-18)
(0.6358599478 -0.3085682734 -6.013770621e-19)
(0.7071937768 -0.2610945213 -1.205139831e-17)
(0.760047269 -0.2221855384 1.306348897e-18)
(0.8071748335 -0.1907320379 2.555607491e-18)
(0.8417927851 -0.1643434432 -2.902498753e-17)
(0.874221002 -0.1424584182 -1.834808949e-17)
(0.8974210953 -0.1237616185 2.843781603e-18)
(0.9203764857 -0.1078321673 -1.636624218e-18)
(0.9359977364 -0.09404694075 2.745213308e-18)
(0.9525213584 -0.0819335942 -5.006767305e-19)
(0.9628297952 -0.07137389737 1.591745517e-17)
(0.9747690522 -0.06174349 -1.005116293e-17)
(0.9811469747 -0.05333821912 3.73835386e-17)
(0.9896596425 -0.04531970266 1.490822045e-17)
(0.9929655791 -0.03835880507 5.286093894e-20)
(0.9987910502 -0.03135641248 -1.017419423e-17)
(0.9995576638 -0.02534975885 1.141639132e-18)
(1.00317053 -0.01893845871 4.401655977e-18)
(1.001713771 -0.01351840478 2.231732898e-17)
(1.003447589 -0.007503142571 1.718690133e-17)
(0.9996931051 -0.001489938619 -3.002491925e-17)
(0.3617395533 -0.6257095342 -8.797822499e-18)
(0.4914401534 -0.5119346216 -7.797385238e-18)
(0.5964464302 -0.424768977 1.543774857e-17)
(0.6731433001 -0.3553200936 -1.289260823e-17)
(0.7387410715 -0.3006535178 -1.000445172e-17)
(0.7868933116 -0.2558493661 1.128702922e-17)
(0.8302204884 -0.2196303906 6.371540103e-19)
(0.8616499587 -0.1892436011 -7.222202453e-18)
(0.8914338638 -0.1640427402 3.747561266e-17)
(0.9123748522 -0.1425131071 -2.422119318e-17)
(0.9334055321 -0.1241701781 -6.732788779e-18)
(0.9473611529 -0.1082963106 1.217462107e-17)
(0.9624211577 -0.09434768603 -3.407669744e-18)
(0.9714537017 -0.08218805382 -1.716234425e-19)
(0.9822293448 -0.07109855771 -1.770181141e-17)
(0.9875916886 -0.06141977246 -1.61560562e-17)
(0.9951355044 -0.05218639341 -2.409321482e-17)
(0.9976003871 -0.0441708297 -4.649139453e-18)
(1.002579781 -0.03610753047 -5.475804309e-18)
(1.002620636 -0.02919077787 -9.464124218e-18)
(1.005458842 -0.02180810752 -2.685469691e-17)
(1.003347224 -0.01556684378 -2.953619627e-17)
(1.004354244 -0.008640213519 -2.0550518e-17)
(0.9998732266 -0.001715935864 -4.386553925e-17)
(0.4361994327 -0.7001694857 -1.871966019e-18)
(0.5523606946 -0.5728552858 -9.908153454e-18)
(0.6469941834 -0.4753168402 -7.870777411e-18)
(0.7154265875 -0.3976034703 3.95501436e-18)
(0.774519063 -0.3364315984 7.096968454e-18)
(0.8173395758 -0.2862957054 -1.698651746e-17)
(0.8563567118 -0.2457667442 -2.800433206e-18)
(0.8841701142 -0.2117638929 7.493280654e-18)
(0.9109551059 -0.1835641209 1.346332126e-18)
(0.9293340369 -0.1594724086 9.043670954e-18)
(0.9481819132 -0.1389466678 9.985942027e-18)
(0.9602485336 -0.121183783 -8.312403642e-18)
(0.9736486638 -0.1055752807 -1.67094449e-17)
(0.9812342069 -0.09196863389 3.345933899e-18)
(0.990690214 -0.07955949693 2.190358996e-17)
(0.9949007807 -0.06872892424 -6.310496992e-18)
(1.001345846 -0.0583967869 2.26431995e-17)
(1.002856873 -0.04942736539 3.06742157e-18)
(1.006876753 -0.04040454276 2.386699799e-18)
(1.006094488 -0.03266468986 3.609189209e-18)
(1.008054167 -0.02440348791 5.480115025e-17)
(1.005199814 -0.01741953035 -2.340856263e-17)
(1.005382581 -0.009668625829 -1.106550123e-17)
(1.000077525 -0.001920382058 -2.485485536e-17)
(0.5185280775 -0.7658245811 -2.275935769e-17)
(0.6197193442 -0.6265721286 -1.835542439e-17)
(0.702883843 -0.5198874103 3.074889698e-18)
(0.7621784458 -0.4348868339 1.76250379e-17)
(0.8140781147 -0.3679788705 1.305587133e-17)
(0.8510034422 -0.3131417181 -1.528096897e-17)
(0.8852550397 -0.268812415 -9.248810467e-18)
(0.9090702284 -0.2316211102 1.448910061e-17)
(0.9325393663 -0.2007770572 -4.27781171e-18)
(0.9480854763 -0.1744262403 -4.265899773e-18)
(0.9645198501 -0.1519758235 -8.89481451e-18)
(0.9744978372 -0.1325473032 2.263841423e-17)
(0.9860626578 -0.1154752231 -1.641795726e-17)
(0.9920482785 -0.1005926712 -1.624246029e-18)
(1.000045168 -0.08701995981 -9.900280844e-18)
(1.002982237 -0.07517379563 -6.02997605e-18)
(1.008212411 -0.06387284512 -1.456153896e-17)
(1.008668787 -0.05406234943 2.155318543e-17)
(1.01162773 -0.04419347525 1.986418909e-17)
(1.009935387 -0.03572783472 -3.855648896e-18)
(1.010923679 -0.0266920024 -1.24398235e-17)
(1.00724815 -0.01905315784 8.396737752e-18)
(1.006519535 -0.01057545573 3.449403965e-17)
(1.000303431 -0.002100650871 -5.247177265e-17)
(0.6076900064 -0.8218488069 1.194601961e-17)
(0.6926686317 -0.6724092831 -2.527843572e-17)
(0.7634122513 -0.5579199678 4.536867957e-17)
(0.8128105774 -0.4667011516 -1.621562928e-17)
(0.856920461 -0.3948985439 1.129409531e-17)
(0.8874612955 -0.3360497418 -1.351048152e-17)
(0.9165518446 -0.2884775775 -6.469336173e-18)
(0.9360369804 -0.2485655227 2.221947379e-18)
(0.9559150804 -0.2154650763 9.465369922e-18)
(0.9683932564 -0.1871865347 -1.654655242e-17)
(0.9822138356 -0.1630937627 7.927121094e-18)
(0.9899298389 -0.1422439333 3.462593726e-18)
(0.999507046 -0.123922955 -1.952646956e-17)
(1.003759955 -0.1079516592 -1.18427715e-17)
(1.01017665 -0.09338604672 -4.973692877e-18)
(1.011734524 -0.08067327228 -2.426519568e-17)
(1.015649001 -0.0685456133 1.025183973e-17)
(1.014963184 -0.05801742801 -3.658539234e-17)
(1.016773156 -0.0474265949 -4.191827807e-18)
(1.014095173 -0.03834164208 -3.338871707e-19)
(1.014031477 -0.02864480202 2.360171573e-17)
(1.009466567 -0.02044716362 -3.147676192e-17)
(1.00775094 -0.01134926916 3.107810375e-17)
(1.000548106 -0.002254518532 2.549512773e-17)
(0.7025641106 -0.8675379531 1.225697202e-17)
(0.7702915496 -0.7097906416 9.768289976e-18)
(0.8278185167 -0.5889364568 1.595944491e-17)
(0.866686593 -0.4926465044 -1.555234143e-17)
(0.9025075979 -0.4168521675 1.037971035e-17)
(0.9262549208 -0.3547317635 -7.514177007e-18)
(0.9498537552 -0.3045149622 -1.426080362e-17)
(0.9647314346 -0.2623840749 -1.171826116e-17)
(0.9807884137 -0.2274434931 -1.341079624e-17)
(0.9900021044 -0.1975928506 -3.115347758e-17)
(1.001041413 -0.172160715 -1.437402092e-17)
(1.006350514 -0.1501517774 1.331171312e-17)
(1.013812748 -0.1308123129 -2.883672522e-19)
(1.016221933 -0.1139531212 2.840512457e-17)
(1.020957172 -0.09857779598 2.62489029e-17)
(1.021047487 -0.08515827949 2.024331397e-17)
(1.02356195 -0.07235644151 -6.350240914e-18)
(1.021660768 -0.06124295552 5.816812364e-17)
(1.022248134 -0.05006335915 -1.705497046e-17)
(1.018521387 -0.04047331914 -5.8668163e-18)
(1.01733829 -0.03023741863 -1.963250308e-17)
(1.011827068 -0.02158404535 -7.477692685e-17)
(1.00906118 -0.01198037151 1.900369965e-17)
(1.000808468 -0.002380004913 -1.005440068e-17)
(0.8019571635 -0.9023171412 9.839245895e-18)
(0.8516116124 -0.7382458165 -3.306354158e-18)
(0.8952924248 -0.6125466054 7.81893478e-18)
(0.9231286506 -0.5123964544 -1.666123159e-17)
(0.9502659982 -0.4335635716 5.079985577e-18)
(0.9668962176 -0.3689527756 2.163529649e-17)
(0.9847417968 -0.3167228509 -5.882557133e-18)
(0.9947925665 -0.2729029541 3.193579847e-17)
(1.006846454 -0.2365616353 2.996686874e-17)
(1.012640174 -0.2055142831 1.935103271e-17)
(1.020765765 -0.1790625985 -1.077858227e-17)
(1.023553322 -0.156171328 1.272441989e-18)
(1.02879987 -0.1360565673 -8.156336253e-18)
(1.029277517 -0.1185214953 1.954737334e-21)
(1.032251239 -0.1025297937 -3.342081702e-17)
(1.0308041 -0.08857229817 -6.325840363e-17)
(1.031851894 -0.07525725578 -1.235892483e-17)
(1.028677456 -0.06369823981 -3.282926191e-18)
(1.027984006 -0.05207045919 -2.870017754e-17)
(1.023158524 -0.04209595507 -3.322076707e-17)
(1.020802728 -0.03144971263 3.790865705e-17)
(1.01430008 -0.02244946205 -1.751046506e-18)
(1.010433919 -0.01246078246 4.147044919e-17)
(1.001081259 -0.002475580701 8.391133663e-19)
(0.9046193829 -0.9257492946 7.5106115e-18)
(0.9356064852 -0.7574172248 -1.040532013e-17)
(0.9649857048 -0.6284537069 1.105823047e-18)
(0.9814272618 -0.5257027718 -2.072524568e-17)
(0.999595304 -0.4448226867 5.507104989e-19)
(1.008874343 -0.3785340041 9.746500898e-18)
(1.020777411 -0.324947763 -1.080280464e-17)
(1.025842515 -0.2799899138 -1.779634205e-17)
(1.033761621 -0.2427048734 2.32495609e-18)
(1.036022884 -0.2108512512 -2.392959318e-19)
(1.041138901 -0.1837126743 6.993557712e-18)
(1.041321978 -0.1602269432 -3.959701937e-18)
(1.044279943 -0.1395898587 -3.731465812e-17)
(1.042762518 -0.1215994218 3.725268497e-17)
(1.043916762 -0.1051924715 -1.372969845e-17)
(1.040881594 -0.0908725217 3.600798613e-17)
(1.040414455 -0.077211743 8.324063881e-18)
(1.035924879 -0.0653525541 2.949852818e-17)
(1.033908464 -0.05342283388 3.36816864e-17)
(1.027948116 -0.04318928173 1.243148113e-18)
(1.024381034 -0.03226658486 4.259909599e-18)
(1.016854389 -0.02303260156 7.093627641e-18)
(1.011851753 -0.01278452503 -2.297835762e-19)
(1.001363032 -0.002540002339 -3.09140362e-17)
(1.00925956 -0.9375394828 1.013118838e-18)
(1.02121958 -0.7670635591 -5.985216246e-18)
(1.03602168 -0.6364575373 -2.055420013e-17)
(1.040849003 -0.5323980031 9.216677434e-18)
(1.049874959 -0.4504878418 8.966488689e-19)
(1.051661169 -0.3833549069 -2.051882446e-18)
(1.057507265 -0.3290862284 3.417489086e-18)
(1.057490644 -0.2835558031 1.005857088e-17)
(1.061195333 -0.2457959162 -5.696007711e-19)
(1.059856077 -0.2135366051 -1.402574558e-17)
(1.061904559 -0.1860524064 -3.550314129e-18)
(1.059432973 -0.1622675616 -9.655890374e-18)
(1.060058283 -0.1413676574 1.287139449e-17)
(1.056507346 -0.1231480948 -1.389985344e-17)
(1.05580708 -0.1065321985 9.886145311e-18)
(1.051153291 -0.09202987613 -1.563452054e-17)
(1.049142056 -0.07819512698 -6.012411119e-18)
(1.043312006 -0.06618490689 -2.980862117e-18)
(1.039947156 -0.05410324859 -3.283988069e-17)
(1.032830068 -0.04373936206 1.269495353e-17)
(1.028028378 -0.03267756091 8.061708566e-19)
(1.019457978 -0.02332600902 2.000906647e-18)
(1.013296978 -0.01294741835 2.030325861e-18)
(1.001650247 -0.002572471385 1.191368732e-19)
(1.114561948 -0.9375396655 -2.640346332e-18)
(1.107374552 -0.7670637032 -2.431665802e-18)
(1.107507262 -0.6364576113 -2.365762009e-17)
(1.100646878 -0.5323980527 1.203793706e-17)
(1.100472863 -0.4504878691 1.369387937e-18)
(1.094718839 -0.3833549019 4.238195317e-18)
(1.09446961 -0.329086241 -3.280268447e-18)
(1.089339111 -0.2835558041 8.488609151e-18)
(1.088802691 -0.2457959289 -4.443573889e-18)
(1.083840136 -0.2135366051 -1.582014513e-17)
(1.082801652 -0.1860524274 -1.813391269e-17)
(1.077658607 -0.162267576 5.749357784e-18)
(1.075936484 -0.1413677001 1.698869813e-17)
(1.070339168 -0.1231481346 -2.136331308e-17)
(1.067772638 -0.1065322735 -1.66947401e-17)
(1.061489984 -0.09202995652 1.473943167e-17)
(1.057924864 -0.07819524853 -2.389391428e-18)
(1.050745858 -0.0661850344 -9.295798376e-19)
(1.046024025 -0.05410340325 -6.642962504e-18)
(1.03774288 -0.04373950476 -1.667790708e-17)
(1.031698761 -0.0326777256 -5.837372841e-18)
(1.022078027 -0.02332617054 -3.075548005e-18)
(1.014751332 -0.01294757943 -2.79081115e-17)
(1.001939322 -0.002572611562 2.547452465e-17)
(1.219202186 -0.9257496249 -6.302878181e-18)
(1.192987699 -0.757417482 6.441295613e-18)
(1.178543268 -0.6284537817 -1.609636186e-17)
(1.160068648 -0.5257028402 -6.473682291e-18)
(1.150752538 -0.4448227069 -1.48723812e-18)
(1.137505681 -0.3785339622 -4.813051545e-18)
(1.131199482 -0.3249477729 2.829722809e-18)
(1.120987257 -0.2799899053 -2.056539377e-17)
(1.11623642 -0.2427048847 -2.131221231e-17)
(1.107673344 -0.2108512341 3.670918655e-19)
(1.103567325 -0.1837126918 2.564832083e-17)
(1.095769614 -0.1602269446 9.957073785e-19)
(1.091714836 -0.1395899048 3.67401427e-18)
(1.084084004 -0.1215994583 -2.896330401e-18)
(1.079662965 -0.1051925596 1.048673447e-18)
(1.071761685 -0.09087262153 1.986557329e-17)
(1.066652469 -0.0772119004 4.597756502e-18)
(1.058132985 -0.06535272657 1.729920344e-17)
(1.052062712 -0.05342302071 7.600547441e-18)
(1.042624822 -0.04318945257 2.994554551e-17)
(1.03534609 -0.03226677732 4.125156778e-18)
(1.024681605 -0.02303285301 1.577712358e-17)
(1.016196541 -0.01278477552 -6.141578594e-18)
(1.002226533 -0.002540327304 -1.643462592e-17)
(1.321864469 -0.9023178201 -4.56976096e-18)
(1.27698261 -0.7382463449 8.435941298e-18)
(1.248236565 -0.6125468267 -6.532830539e-18)
(1.218367271 -0.5123966248 3.350911328e-18)
(1.200081848 -0.4335636539 -5.891008575e-19)
(1.179483802 -0.3689527352 1.610645126e-18)
(1.167235105 -0.3167228972 1.002373253e-17)
(1.152037218 -0.2729029597 1.229414691e-17)
(1.143151608 -0.2365616833 1.732239455e-17)
(1.131056077 -0.2055142769 1.93328647e-17)
(1.123940491 -0.179062667 5.480640201e-18)
(1.113538299 -0.1561713653 -1.096149329e-17)
(1.107194947 -0.1360567033 1.175911732e-19)
(1.097569044 -0.1185216127 -7.898250788e-18)
(1.091328538 -0.102530028 -1.94610878e-17)
(1.081839236 -0.08857254923 -1.89400065e-17)
(1.075215102 -0.07525763832 -8.511830816e-18)
(1.065380487 -0.06369864121 -3.217038903e-17)
(1.057987259 -0.05207092062 7.776559432e-18)
(1.0474145 -0.04209637204 -2.714783545e-17)
(1.038924495 -0.03145019097 -2.200082552e-18)
(1.027236013 -0.02244999466 2.639320539e-18)
(1.017614484 -0.01246131553 -2.211505898e-17)
(1.002508409 -0.002476156921 4.804783386e-17)
(1.421257633 -0.8675387627 -1.563870048e-18)
(1.358302788 -0.7097912793 1.464395286e-17)
(1.315710551 -0.588936686 2.922515986e-18)
(1.274809407 -0.4926466992 -2.969298583e-19)
(1.247840304 -0.4168522568 -3.730246827e-18)
(1.220125142 -0.3547317043 -1.560940488e-17)
(1.202123198 -0.3045150272 5.811524332e-18)
(1.182098402 -0.262384093 -9.644586151e-18)
(1.169209703 -0.2274435609 -1.089837653e-17)
(1.153694193 -0.1975928476 -1.143375178e-17)
(1.143664891 -0.1721607989 5.554013566e-18)
(1.130741148 -0.150151821 -1.203233628e-17)
(1.122182112 -0.1308124716 2.03003544e-18)
(1.11062466 -0.1139532561 -1.05046077e-17)
(1.10262264 -0.09857806529 4.281436865e-17)
(1.091595875 -0.08515857273 1.977233396e-17)
(1.083505075 -0.07235688466 1.684632147e-17)
(1.072397195 -0.06124342806 -1.404262819e-18)
(1.063723142 -0.05006388288 4.455575851e-18)
(1.052051633 -0.04047379796 -4.675674667e-18)
(1.042388922 -0.03023795819 -1.627565208e-17)
(1.029709028 -0.02158469474 -6.428400136e-18)
(1.018987213 -0.01198100919 -4.208372817e-17)
(1.00278122 -0.002380760742 -1.248040598e-19)
(1.516131884 -0.8218499433 -2.935745239e-18)
(1.435925788 -0.6724101946 1.278184249e-18)
(1.380116857 -0.557920352 1.430398145e-17)
(1.328685445 -0.4667014556 -4.745117568e-18)
(1.293427446 -0.3948987079 -7.807099974e-18)
(1.258918756 -0.3360497082 -4.055738151e-18)
(1.235425121 -0.288477704 6.687613716e-18)
(1.21079288 -0.2485655812 -3.833052738e-18)
(1.194083077 -0.2154652031 -8.151753732e-18)
(1.175303084 -0.1871865625 2.088622544e-17)
(1.162492528 -0.1630939123 -6.564149664e-18)
(1.147161879 -0.1422440243 -1.482745096e-17)
(1.136487887 -0.1239232077 2.1228531e-17)
(1.123086709 -0.107951873 1.083303175e-18)
(1.113403254 -0.09338644797 -2.115800045e-17)
(1.100908936 -0.08067369058 8.029379305e-18)
(1.091418148 -0.06854623736 -1.651535429e-17)
(1.079094909 -0.0580180697 -2.822769677e-17)
(1.069198263 -0.04742731803 1.936272581e-19)
(1.056477981 -0.03834228723 1.518328876e-18)
(1.045695886 -0.02864554138 1.250422871e-17)
(1.032069683 -0.02044801016 2.276789238e-17)
(1.020297614 -0.01135011273 3.448059479e-18)
(1.003041733 -0.002255468125 -1.593931311e-17)
(1.605294015 -0.7658258082 -1.046005684e-17)
(1.508875276 -0.6265731195 2.087195629e-18)
(1.440645397 -0.5198878026 -3.483061368e-18)
(1.379317703 -0.4348871563 6.716892708e-18)
(1.336269875 -0.3679790555 -5.678623061e-18)
(1.295376665 -0.3131416904 1.91503405e-18)
(1.266721997 -0.2688125903 5.665372865e-18)
(1.237759705 -0.2316212115 -7.341441997e-18)
(1.217458873 -0.2007772289 -5.451363925e-19)
(1.195610935 -0.1744262941 4.517584884e-18)
(1.18018659 -0.1519760048 -7.070869156e-18)
(1.162593946 -0.1325474168 1.110662498e-18)
(1.149932346 -0.1154755104 3.001568779e-18)
(1.134798443 -0.1005929155 -1.11114573e-17)
(1.123534801 -0.087020406 3.434687995e-18)
(1.109661282 -0.0751742653 4.426145489e-18)
(1.098854804 -0.06387353558 1.056062094e-17)
(1.085389365 -0.05406306884 6.48517721e-18)
(1.07434374 -0.04419427156 -9.648404591e-18)
(1.060637804 -0.03572856328 -2.179602186e-18)
(1.04880372 -0.02669282522 -1.170805314e-17)
(1.034288158 -0.01905413749 5.539538304e-18)
(1.021529065 -0.01057641092 -7.398309636e-18)
(1.003286496 -0.0021017676 3.069172219e-18)
(1.687622845 -0.700170993 1.227428107e-18)
(1.576234023 -0.5728565217 1.443332699e-18)
(1.496535114 -0.4753173748 -4.245444006e-18)
(1.426069593 -0.3976038871 -4.872237172e-19)
(1.375828924 -0.3364318551 -5.2550236e-20)
(1.329040506 -0.2862957211 -5.037620579e-18)
(1.29562033 -0.2457670023 2.531194762e-18)
(1.262659844 -0.2117640569 7.281969515e-18)
(1.239043182 -0.1835643659 -7.606778073e-18)
(1.214362428 -0.1594725033 6.844805408e-18)
(1.196524603 -0.1389469165 4.095551703e-18)
(1.17684332 -0.1211839427 -1.145252193e-17)
(1.162346432 -0.1055756522 1.665721102e-18)
(1.145612602 -0.0919689422 9.916657356e-18)
(1.13288987 -0.07956004645 6.731899526e-19)
(1.117742854 -0.06872947934 -1.319730328e-18)
(1.105721519 -0.05839760072 1.079017041e-17)
(1.091201429 -0.04942818686 1.47681523e-18)
(1.079094879 -0.04040546611 2.717270618e-19)
(1.06447885 -0.03266551758 -3.399729342e-18)
(1.051673402 -0.024404438 2.243830326e-17)
(1.036336666 -0.01742062807 1.687979159e-17)
(1.022666191 -0.009669715813 2.613319413e-17)
(1.003512564 -0.001921631989 -3.907246663e-18)
(1.762082958 -0.6257110725 3.393895243e-19)
(1.637154817 -0.5119359022 2.579343461e-18)
(1.54708305 -0.4247695239 -2.756345462e-18)
(1.468353056 -0.3553205131 -1.50704736e-18)
(1.411607025 -0.3006538089 -3.867631796e-18)
(1.359486832 -0.2558494188 5.618523539e-18)
(1.321756634 -0.2196307347 2.721367305e-18)
(1.285180081 -0.189243846 4.918405819e-18)
(1.258564519 -0.1640430565 6.400407429e-18)
(1.231321695 -0.1425132495 -2.217248326e-18)
(1.211301074 -0.124170468 6.335121042e-18)
(1.189730776 -0.1082965008 1.45819932e-18)
(1.173574023 -0.09434809101 -9.12507273e-18)
(1.155393178 -0.0821883908 -5.867115551e-19)
(1.141350822 -0.07109914068 -6.123057264e-18)
(1.125052025 -0.06142036351 1.476121818e-18)
(1.111931952 -0.05218725016 -1.73105649e-17)
(1.096458005 -0.0441717065 -1.351390732e-18)
(1.083391936 -0.03610851466 -1.593485168e-18)
(1.067952781 -0.02919169049 -2.262384138e-18)
(1.054268813 -0.02180913886 -7.547668441e-18)
(1.038189373 -0.01556806153 -7.352431156e-18)
(1.023694633 -0.008641402496 -7.109613552e-18)
(1.003717017 -0.001717330626 -2.576408601e-18)
(1.827738063 -0.5433824708 -1.326566553e-18)
(1.690871669 -0.4445773684 7.145786725e-19)
(1.591653638 -0.3688799525 -4.036833865e-18)
(1.50563647 -0.3085687565 2.372002829e-18)
(1.443154333 -0.2610948654 -3.042506315e-18)
(1.386332861 -0.2221856451 1.767220693e-18)
(1.3448023 -0.1907324835 2.576266213e-18)
(1.30503729 -0.1643437694 -4.528051918e-18)
(1.275777444 -0.1424588142 -6.127788593e-18)
(1.246275519 -0.1237617996 -9.346671838e-19)
(1.224330212 -0.1078325138 2.182350514e-18)
(1.201094278 -0.09404716448 9.865073685e-19)
(1.183473934 -0.0819340641 7.255355038e-18)
(1.164017186 -0.07137427542 -2.445156139e-18)
(1.148811249 -0.06174414186 3.84830337e-18)
(1.131496871 -0.05333885279 4.9838638e-18)
(1.117407987 -0.04532062915 1.349361237e-18)
(1.101092983 -0.03835973022 -1.431411555e-19)
(1.087180857 -0.03135747623 -3.885687107e-18)
(1.071015921 -0.0253507269 -1.618520007e-21)
(1.056557316 -0.01893955603 -3.593760554e-18)
(1.039823014 -0.01351966379 1.657704251e-17)
(1.024601465 -0.007504396992 2.011997612e-18)
(1.00389731 -0.001491399248 8.163250676e-18)
(1.883762412 -0.4542204804 2.856739858e-18)
(1.73670894 -0.3716280052 3.656867401e-18)
(1.629686281 -0.3083514735 6.441673663e-19)
(1.537450867 -0.257936565 1.668793628e-18)
(1.470074043 -0.2182524792 3.219152762e-18)
(1.409240898 -0.1857277579 4.238329814e-19)
(1.36446745 -0.15943564 -2.363102618e-18)
(1.321981683 -0.1373769714 -7.847335427e-19)
(1.290465443 -0.1190830469 3.159038611e-18)
(1.259035794 -0.1034539663 6.155769571e-19)
(1.235448138 -0.09013847604 4.531960989e-18)
(1.210790892 -0.07861511631 -1.488023178e-18)
(1.191921657 -0.06848963442 -7.046712154e-19)
(1.171376163 -0.05966256594 -4.459209222e-18)
(1.155177336 -0.05161263489 1.1778865e-18)
(1.136996351 -0.04458655158 3.896672801e-18)
(1.122080775 -0.03788403638 2.303760139e-19)
(1.105048085 -0.03206534291 5.620316195e-19)
(1.090414013 -0.02621207408 2.517939231e-18)
(1.073629753 -0.02119097174 2.379913077e-18)
(1.058510149 -0.01583179206 -1.421888048e-18)
(1.041217041 -0.01130127598 -4.539195102e-18)
(1.025375312 -0.006273015195 2.411309707e-18)
(1.004051186 -0.001246726864 2.606488098e-18)
(1.929451553 -0.3593464082 2.69456903e-18)
(1.77409031 -0.2940051811 -1.297237529e-18)
(1.660702788 -0.2439452929 -5.860415159e-19)
(1.563396264 -0.2040606474 1.061082413e-18)
(1.492027702 -0.1726654394 2.118513498e-18)
(1.42792295 -0.1469342175 -2.096409514e-18)
(1.380504849 -0.126133801 1.573023212e-19)
(1.335800246 -0.1086825627 -1.48861421e-19)
(1.30244386 -0.09420974622 8.672275878e-19)
(1.269442108 -0.08184513066 -1.739479895e-18)
(1.244515074 -0.07131090742 -1.430874616e-18)
(1.218698714 -0.06219443734 9.501280598e-19)
(1.198810977 -0.05418392921 3.096345177e-19)
(1.177377582 -0.04720057284 -9.492001417e-19)
(1.160369031 -0.04083209627 4.083660888e-18)
(1.141481307 -0.03527355899 -3.10149139e-18)
(1.125891548 -0.02997105402 -3.499685428e-18)
(1.108273568 -0.02536771583 2.120454605e-18)
(1.093050733 -0.020737049 2.744010626e-19)
(1.075761398 -0.0167647062 3.83029561e-19)
(1.06010273 -0.01252492361 -1.840380404e-18)
(1.042353907 -0.008940725014 3.660261873e-18)
(1.026006395 -0.004962731521 -3.695079594e-18)
(1.004176677 -0.0009863415257 -3.364178249e-18)
(1.964230852 -0.2599533011 2.829277996e-18)
(1.802545587 -0.2126850569 -8.986888732e-20)
(1.684313024 -0.1764713301 -3.270537543e-19)
(1.583146288 -0.1476185435 7.191668332e-19)
(1.508739154 -0.1249070067 1.2110284e-18)
(1.442143995 -0.1062928923 2.864479119e-19)
(1.392712753 -0.09124573278 8.969729825e-19)
(1.346319133 -0.0786214024 -5.162415399e-19)
(1.311562005 -0.06815167747 5.700413662e-19)
(1.277363539 -0.05920703574 -6.070534052e-19)
(1.251416957 -0.05158653178 2.213125151e-18)
(1.224718258 -0.04499161075 1.915831122e-19)
(1.204055229 -0.03919679106 1.111086015e-19)
(1.18194595 -0.03414498075 1.891906906e-18)
(1.164321029 -0.02953802508 1.498240342e-18)
(1.144895325 -0.02551695172 -4.050629956e-19)
(1.128792373 -0.02168112156 -8.337597996e-19)
(1.110728865 -0.01835104945 -3.955678261e-19)
(1.095057856 -0.01500120586 9.325403538e-19)
(1.077384052 -0.01212760644 -8.920030127e-19)
(1.061315049 -0.009060524669 -1.554151365e-18)
(1.043219336 -0.006467746279 -1.340159512e-18)
(1.026486824 -0.003590020356 1.168932498e-18)
(1.004272242 -0.0007135600687 -2.677056239e-18)
(1.987662993 -0.1572911198 1.612535473e-18)
(1.821717019 -0.1286902613 4.022429146e-19)
(1.700220156 -0.1067781304 -6.993718114e-19)
(1.596452661 -0.08932002206 1.556560244e-19)
(1.51999832 -0.07557778966 8.884285147e-19)
(1.451725278 -0.06431485026 3.896436694e-19)
(1.400937708 -0.05521019455 6.577827774e-19)
(1.353406134 -0.04757151411 -1.3735023e-19)
(1.317705272 -0.04123656507 1.086159264e-18)
(1.28270053 -0.03582436691 1.934402735e-20)
(1.25606704 -0.03121343717 5.413443469e-19)
(1.228773873 -0.02722298625 6.777067693e-19)
(1.207588502 -0.02371675107 3.080316432e-19)
(1.185023849 -0.02066000235 2.951538959e-19)
(1.166983664 -0.01787252413 1.065286957e-18)
(1.1471955 -0.01543946573 -7.369334047e-20)
(1.130746799 -0.01311856515 -9.788643916e-19)
(1.112383118 -0.01110361622 -5.345195775e-19)
(1.096410162 -0.00907673452 3.018586902e-19)
(1.078477318 -0.007337991808 -1.413690184e-18)
(1.062131857 -0.005482194268 -1.434121119e-19)