/*--------------------------------*- C++ -*----------------------------------*\
| =========                 |                                                 |
| \\      /  F ield         | foam-extend: Open Source CFD                    |
|  \\    /   O peration     | Version:  3.0                                   |
|   \\  /    A nd           | Web:         http://www.extend-project.de       |
|    \\/     M anipulation  |                                                 |
\*---------------------------------------------------------------------------*/
FoamFile
{
    version     2.0;
    format      ascii;
    class       volVectorField;
    location    "5";
    object      u;
}
// * * * * * * * * * * * * * * * * * * * * * * * * * * * * * * * * * * * * * //

dimensions      [0 0 0 0 0 0 0];

internalField   nonuniform List<vector> 
2000
(
(0.973827 -0.811733 -2.59579e-14)
(0.960271 -0.692905 -1.74034e-14)
(0.997237 -0.597192 -1.13318e-14)
(0.974064 -0.530446 -6.44822e-15)
(1.01743 -0.471127 -2.77661e-15)
(0.982709 -0.430864 -1.23065e-16)
(1.0368 -0.391974 1.72165e-15)
(0.970076 -0.357776 2.86564e-15)
(1.02929 -0.322247 3.23211e-15)
(0.849599 -0.241781 4.76337e-15)
(1.06379 -0.767192 -3.54288e-14)
(1.04811 -0.660346 -2.02353e-14)
(1.06333 -0.571901 -1.18403e-14)
(1.0321 -0.504113 -5.46399e-15)
(1.04738 -0.448599 -9.91369e-16)
(1.00903 -0.410816 1.98024e-15)
(1.02371 -0.367745 3.82124e-15)
(0.968254 -0.358224 4.81181e-15)
(0.989218 -0.306413 5.03863e-15)
(0.906023 -0.318942 6.80548e-15)
(1.22179 -0.742277 -4.83896e-14)
(1.16864 -0.639357 -2.21375e-14)
(1.17654 -0.538976 -1.08317e-14)
(1.1264 -0.483486 -2.81097e-15)
(1.14581 -0.411579 2.38584e-15)
(1.09544 -0.381438 5.55101e-15)
(1.12093 -0.314279 7.29883e-15)
(1.06594 -0.300973 8.0619e-15)
(1.08893 -0.225544 8.06846e-15)
(1.02867 -0.220362 9.63908e-15)
(1.30426 -0.671743 -6.61058e-14)
(1.24875 -0.582563 -2.15808e-14)
(1.23746 -0.494818 -7.14653e-15)
(1.18384 -0.44436 2.43051e-15)
(1.18301 -0.382634 8.04588e-15)
(1.14132 -0.357737 1.10703e-14)
(1.14556 -0.302638 1.24094e-14)
(1.11444 -0.296657 1.26835e-14)
(1.12432 -0.23852 1.22172e-14)
(1.10081 -0.239533 1.32846e-14)
(1.44492 -0.601368 -8.97652e-14)
(1.35573 -0.52252 -1.59786e-14)
(1.33423 -0.427684 1.03807e-15)
(1.2699 -0.389428 1.14852e-14)
(1.26431 -0.318402 1.67856e-14)
(1.21908 -0.300675 1.90123e-14)
(1.22315 -0.234065 1.94184e-14)
(1.1922 -0.230308 1.87788e-14)
(1.20285 -0.165585 1.74977e-14)
(1.18013 -0.169642 1.77129e-14)
(1.51431 -0.511484 -1.20645e-13)
(1.4207 -0.444191 -1.40894e-15)
(1.38428 -0.370056 1.59883e-14)
(1.31842 -0.336277 2.57082e-14)
(1.30009 -0.2822 2.93542e-14)
(1.26174 -0.266671 2.97644e-14)
(1.25409 -0.217803 2.84798e-14)
(1.23721 -0.215513 2.63711e-14)
(1.23826 -0.167463 2.38577e-14)
(1.23436 -0.171559 2.28418e-14)
(1.62337 -0.406698 -1.59491e-13)
(1.50126 -0.355636 2.72822e-14)
(1.45546 -0.281839 4.02086e-14)
(1.381 -0.260588 4.63077e-14)
(1.35672 -0.205758 4.62497e-14)
(1.31489 -0.197768 4.34448e-14)
(1.30408 -0.147078 3.95166e-14)
(1.28609 -0.148335 3.52918e-14)
(1.2838 -0.100764 3.11092e-14)
(1.28114 -0.107642 2.84665e-14)
(1.66903 -0.301999 -2.06693e-13)
(1.54189 -0.261664 7.54127e-14)
(1.48594 -0.214289 7.55683e-14)
(1.41179 -0.196819 7.37692e-14)
(1.37891 -0.162258 6.73346e-14)
(1.34267 -0.155673 5.96615e-14)
(1.32298 -0.125343 5.20636e-14)
(1.31448 -0.125751 4.50672e-14)
(1.30401 -0.0978553 3.88103e-14)
(1.31294 -0.0991866 3.42133e-14)
(1.73448 -0.17511 -2.62332e-13)
(1.58912 -0.155514 1.46054e-13)
(1.52687 -0.115534 1.21974e-13)
(1.44639 -0.11078 1.07086e-13)
(1.40937 -0.0820475 9.13852e-14)
(1.36974 -0.0826057 7.7257e-14)
(1.34746 -0.057064 6.51084e-14)
(1.33622 -0.0616665 5.48612e-14)
(1.32318 -0.0382499 4.62627e-14)
(1.33065 -0.0450013 3.95471e-14)
(1.74781 -0.0620438 -3.2707e-13)
(1.59986 -0.0540888 2.36329e-13)
(1.5338 -0.0433105 1.75704e-13)
(1.4533 -0.0416165 1.42953e-13)
(1.4139 -0.0348669 1.15755e-13)
(1.37554 -0.0361535 9.41712e-14)
(1.35077 -0.0321425 7.70644e-14)
(1.34285 -0.0339443 6.34462e-14)
(1.32539 -0.0329307 5.25164e-14)
(1.33877 -0.0289352 4.37748e-14)
(0.0967643 -0.0810401 -3.27315e-15)
(0.224434 -0.0661756 -4.41523e-15)
(0.348943 -0.0548937 -4.96349e-15)
(0.426027 -0.0512251 -5.15575e-15)
(0.510369 -0.0422153 -5.0995e-15)
(0.5661 -0.0416733 -4.90017e-15)
(0.633037 -0.0351241 -4.6252e-15)
(0.676177 -0.0352549 -4.31648e-15)
(0.729251 -0.0299582 -4.00941e-15)
(0.765101 -0.0321131 -3.71755e-15)
(0.113327 -0.17756 -2.83346e-15)
(0.241612 -0.148939 -2.76439e-15)
(0.361107 -0.132742 -2.48445e-15)
(0.437627 -0.114969 -2.14755e-15)
(0.52016 -0.10547 -1.80814e-15)
(0.574005 -0.0975745 -1.50614e-15)
(0.639938 -0.0895852 -1.22879e-15)
(0.683071 -0.0889022 -1.00123e-15)
(0.73418 -0.0820825 -8.16059e-16)
(0.770526 -0.0885882 -6.85737e-16)
(0.157446 -0.332633 -3.23986e-15)
(0.273055 -0.274277 -3.30077e-15)
(0.389449 -0.238776 -2.98186e-15)
(0.461194 -0.209716 -2.61904e-15)
(0.536613 -0.188154 -2.20071e-15)
(0.591333 -0.173475 -1.8264e-15)
(0.648307 -0.158874 -1.48721e-15)
(0.691449 -0.15408 -1.20456e-15)
(0.736689 -0.142284 -9.64416e-16)
(0.774077 -0.149724 -8.27805e-16)
(0.203685 -0.413926 -3.89826e-15)
(0.319848 -0.34726 -3.95388e-15)
(0.425588 -0.306527 -3.51057e-15)
(0.494423 -0.267348 -3.02171e-15)
(0.566156 -0.244444 -2.48305e-15)
(0.614669 -0.22328 -2.01255e-15)
(0.669999 -0.209421 -1.57307e-15)
(0.711427 -0.200547 -1.21668e-15)
(0.75197 -0.190355 -9.27547e-16)
(0.791602 -0.200061 -7.97032e-16)
(0.28811 -0.54759 -4.82073e-15)
(0.382444 -0.455264 -4.84824e-15)
(0.481446 -0.398254 -4.21211e-15)
(0.538687 -0.347091 -3.51363e-15)
(0.60068 -0.314131 -2.80148e-15)
(0.646259 -0.28565 -2.17611e-15)
(0.68811 -0.265291 -1.61023e-15)
(0.729657 -0.253354 -1.16377e-15)
(0.757615 -0.241166 -7.95277e-16)
(0.802852 -0.250176 -6.88946e-16)
(0.361124 -0.602627 -6.17302e-15)
(0.454429 -0.50856 -5.98779e-15)
(0.540803 -0.447802 -5.0695e-15)
(0.594544 -0.387747 -4.07892e-15)
(0.650605 -0.356231 -3.12582e-15)
(0.688289 -0.317741 -2.27498e-15)
(0.728373 -0.304928 -1.55362e-15)
(0.76149 -0.282409 -9.67331e-16)
(0.788703 -0.280427 -5.07206e-16)
(0.829158 -0.286564 -4.37526e-16)
(0.479484 -0.706893 -8.03298e-15)
(0.544235 -0.593458 -7.50608e-15)
(0.621576 -0.517508 -6.13055e-15)
(0.656401 -0.451508 -4.73822e-15)
(0.704654 -0.406839 -3.42496e-15)
(0.731458 -0.365597 -2.30511e-15)
(0.758556 -0.341539 -1.35181e-15)
(0.789281 -0.317215 -5.89342e-16)
(0.798272 -0.313304 3.88494e-18)
(0.852168 -0.318836 2.04394e-17)
(0.571127 -0.728789 -1.0619e-14)
(0.634148 -0.618453 -9.39288e-15)
(0.69812 -0.542004 -7.34999e-15)
(0.730642 -0.465154 -5.40199e-15)
(0.771953 -0.42474 -3.65116e-15)
(0.792293 -0.367976 -2.16697e-15)
(0.820914 -0.355453 -9.30598e-16)
(0.834175 -0.31192 7.67776e-17)
(0.851705 -0.329878 8.82179e-16)
(0.876624 -0.321422 8.47064e-16)
(0.716132 -0.797695 -1.42333e-14)
(0.744376 -0.674603 -1.17224e-14)
(0.800214 -0.585188 -8.76311e-15)
(0.807726 -0.511025 -6.04512e-15)
(0.847717 -0.45523 -3.73446e-15)
(0.846083 -0.403807 -1.8328e-15)
(0.869982 -0.367774 -2.39735e-16)
(0.868874 -0.329844 1.08578e-15)
(0.868718 -0.318398 2.27551e-15)
(0.914499 -0.324416 2.34288e-15)
(0.814058 -0.785208 -1.91136e-14)
(0.83992 -0.669045 -1.44253e-14)
(0.882888 -0.583846 -1.01393e-14)
(0.887795 -0.497771 -6.47236e-15)
(0.923719 -0.449778 -3.50702e-15)
(0.924329 -0.374286 -1.16461e-15)
(0.959405 -0.354045 7.07227e-16)
(0.958151 -0.266769 2.41413e-15)
(0.986197 -0.298629 4.37503e-15)
(0.973898 -0.180356 6.15257e-15)
(0.81505 -0.00447868 -3.58435e-15)
(0.782653 -0.000823805 -3.54023e-15)
(0.831326 -0.00466807 -3.44877e-15)
(0.800775 0.00146681 -3.32383e-15)
(0.842187 -0.00445285 -3.16575e-15)
(0.82136 0.00183787 -2.9838e-15)
(0.8527 -0.00457058 -2.78824e-15)
(0.838609 0.000918012 -2.58497e-15)
(0.868185 -0.00419665 -2.3845e-15)
(0.850799 -0.000364619 -2.19244e-15)
(0.884407 -0.00310148 -2.01517e-15)
(0.861522 -0.000825872 -1.85637e-15)
(0.892783 -0.00132537 -1.71907e-15)
(0.874514 -0.000162598 -1.60552e-15)
(0.890931 0.00179928 -1.51669e-15)
(0.884044 0.00188452 -1.45317e-15)
(0.886742 0.00469654 -1.41549e-15)
(0.881022 0.00573724 -1.40337e-15)
(0.878094 0.00748907 -1.41652e-15)
(0.856353 0.0122588 -1.45677e-15)
(0.811258 -0.013866 -6.9363e-16)
(0.778431 -0.00572008 -6.22335e-16)
(0.82835 -0.0199146 -5.21369e-16)
(0.797664 -0.0085233 -4.07099e-16)
(0.838702 -0.0215129 -2.94358e-16)
(0.819537 -0.0126307 -1.79405e-16)
(0.849024 -0.0225275 -7.88768e-17)
(0.837999 -0.0147596 1.15613e-17)
(0.864753 -0.0219502 7.84743e-17)
(0.851304 -0.015031 1.3146e-16)
(0.882455 -0.019938 1.635e-16)
(0.862751 -0.0136606 1.77684e-16)
(0.891905 -0.0159496 1.78683e-16)
(0.877365 -0.0112491 1.6439e-16)
(0.891224 -0.00901723 1.39276e-16)
(0.885432 -0.00464016 1.05469e-16)
(0.888435 0.00143499 6.39064e-17)
(0.880616 0.00841524 1.66197e-17)
(0.880209 0.0181694 -3.50574e-17)
(0.85865 0.0307979 -9.23923e-17)
(0.793407 -0.0269995 -9.85392e-16)
(0.767232 -0.0116448 -9.11677e-16)
(0.812839 -0.0331498 -7.68305e-16)
(0.792204 -0.0106298 -6.08118e-16)
(0.828949 -0.0309783 -4.44618e-16)
(0.818264 -0.0123955 -2.83653e-16)
(0.84657 -0.0303247 -1.44948e-16)
(0.839006 -0.0144585 -2.80455e-17)
(0.866371 -0.0286448 6.16622e-17)
(0.85319 -0.0150517 1.2608e-16)
(0.884389 -0.0239201 1.64365e-16)
(0.866142 -0.0126814 1.81178e-16)
(0.892376 -0.0151937 1.81331e-16)
(0.881128 -0.00792235 1.65138e-16)
(0.894329 -0.00242966 1.37191e-16)
(0.89142 0.00173201 9.95382e-17)
(0.895148 0.0133673 5.38572e-17)
(0.891952 0.0183353 2.33999e-18)
(0.888923 0.0351124 -5.37556e-17)
(0.872466 0.0486974 -1.1679e-16)
(0.785131 -0.0364105 -1.22432e-15)
(0.763867 -0.0223771 -1.1167e-15)
(0.80951 -0.0514825 -8.94104e-16)
(0.792223 -0.0267534 -6.49078e-16)
(0.826169 -0.0521577 -4.14689e-16)
(0.81785 -0.0310094 -1.98408e-16)
(0.842317 -0.0504436 -2.28395e-17)
(0.839768 -0.0323599 1.17776e-16)
(0.862488 -0.0447314 2.12073e-16)
(0.857497 -0.0319222 2.70291e-16)
(0.883006 -0.0371029 3.00163e-16)
(0.873494 -0.0281577 3.0401e-16)
(0.892687 -0.0271466 2.86816e-16)
(0.889604 -0.0213952 2.565e-16)
(0.895122 -0.0114608 2.13789e-16)
(0.895356 -0.00724425 1.64135e-16)
(0.895496 0.0101782 1.08424e-16)
(0.89069 0.0188084 4.77752e-17)
(0.889974 0.0410009 -1.56491e-17)
(0.875483 0.0633219 -8.5112e-17)
(0.756219 -0.0550266 -1.50196e-15)
(0.748851 -0.0345919 -1.34293e-15)
(0.788327 -0.0715423 -9.69705e-16)
(0.786444 -0.0365041 -6.06056e-16)
(0.815805 -0.0639334 -2.67852e-16)
(0.821178 -0.0368551 8.16049e-18)
(0.842645 -0.0560381 2.18711e-16)
(0.847624 -0.0356539 3.5723e-16)
(0.866059 -0.0466664 4.41817e-16)
(0.86325 -0.0315718 4.76271e-16)
(0.886429 -0.0355247 4.77344e-16)
(0.877813 -0.0233616 4.53013e-16)
(0.8946 -0.0203449 4.1148e-16)
(0.895226 -0.0120049 3.57988e-16)
(0.901858 -0.00278413 2.97313e-16)
(0.905003 0.00520439 2.31576e-16)
(0.909657 0.0184416 1.63004e-16)
(0.907497 0.0306029 9.27721e-17)
(0.906988 0.0493119 2.18702e-17)
(0.897125 0.0770208 -5.3612e-17)
(0.75294 -0.0695655 -1.8245e-15)
(0.757698 -0.0544638 -1.5067e-15)
(0.793214 -0.0980778 -9.16924e-16)
(0.800445 -0.0643323 -3.57869e-16)
(0.821082 -0.0926674 7.94613e-17)
(0.830188 -0.0647339 4.01083e-16)
(0.844919 -0.0823725 5.98222e-16)
(0.85498 -0.0592149 7.10196e-16)
(0.870317 -0.0690809 7.38473e-16)
(0.872975 -0.051257 7.27668e-16)
(0.89178 -0.0536175 6.81614e-16)
(0.891567 -0.0426695 6.17098e-16)
(0.899561 -0.0361552 5.41121e-16)
(0.903151 -0.0276925 4.60563e-16)
(0.903788 -0.0150984 3.7638e-16)
(0.904398 -0.00468963 2.95382e-16)
(0.904845 0.0142777 2.13384e-16)
(0.901754 0.0281321 1.34166e-16)
(0.90365 0.0529361 5.67422e-17)
(0.897392 0.0820074 -2.30482e-17)
(0.721438 -0.0975092 -2.09467e-15)
(0.753792 -0.0746509 -1.47359e-15)
(0.779028 -0.120643 -5.24156e-16)
(0.804877 -0.081485 2.18473e-16)
(0.824052 -0.105604 7.19414e-16)
(0.844123 -0.0782928 1.00055e-15)
(0.856934 -0.089143 1.11992e-15)
(0.869389 -0.0678203 1.13112e-15)
(0.880599 -0.0718918 1.08127e-15)
(0.884181 -0.0539535 9.90646e-16)
(0.895119 -0.0519962 8.81738e-16)
(0.897931 -0.0380901 7.7022e-16)
(0.905953 -0.0327493 6.56042e-16)
(0.910953 -0.0197695 5.47418e-16)
(0.915648 -0.0112555 4.43772e-16)
(0.920425 0.00160828 3.45466e-16)
(0.923349 0.0174618 2.53721e-16)
(0.922465 0.0310335 1.67226e-16)
(0.922966 0.0548278 8.55557e-17)
(0.918739 0.0848965 3.64805e-18)
(0.738107 -0.113295 -2.13726e-15)
(0.793885 -0.107822 -8.83134e-16)
(0.805319 -0.15173 4.92978e-16)
(0.83542 -0.123122 1.29481e-15)
(0.842366 -0.133061 1.6698e-15)
(0.864722 -0.113612 1.76091e-15)
(0.872773 -0.113786 1.70117e-15)
(0.886097 -0.0950353 1.56423e-15)
(0.896614 -0.0947345 1.39365e-15)
(0.901857 -0.0762722 1.2175e-15)
(0.91098 -0.0739836 1.04691e-15)
(0.91136 -0.0579373 8.86725e-16)
(0.913437 -0.050007 7.4033e-16)
(0.916399 -0.0354481 6.07401e-16)
(0.912889 -0.0228811 4.87256e-16)
(0.91667 -0.00666562 3.78217e-16)
(0.912996 0.0116222 2.79787e-16)
(0.914189 0.0311289 1.88766e-16)
(0.918568 0.0548894 1.05791e-16)
(0.919066 0.0846844 2.45424e-17)
(0.707501 -0.163723 -1.20375e-15)
(0.818427 -0.124681 1.05964e-15)
(0.820646 -0.160854 2.45388e-15)
(0.86668 -0.136202 2.84547e-15)
(0.872226 -0.144253 2.77702e-15)
(0.890364 -0.123266 2.5284e-15)
(0.900639 -0.123541 2.21368e-15)
(0.904093 -0.101906 1.91028e-15)
(0.912789 -0.100075 1.6257e-15)
(0.912887 -0.0797744 1.37321e-15)
(0.917306 -0.0748159 1.15018e-15)
(0.922523 -0.060114 9.5493e-16)
(0.92299 -0.0500425 7.85462e-16)
(0.927876 -0.0367534 6.36155e-16)
(0.929485 -0.0248138 5.06995e-16)
(0.933782 -0.00621242 3.91508e-16)
(0.935459 0.00685993 2.90247e-16)
(0.935424 0.0306896 1.98902e-16)
(0.932983 0.0519692 1.1684e-16)
(0.934436 0.0822007 3.83668e-17)
(0.777843 -0.17735 2.87981e-15)
(0.894784 -0.222663 4.67377e-15)
(0.885373 -0.186583 4.65495e-15)
(0.91328 -0.184954 4.05211e-15)
(0.917853 -0.161819 3.42246e-15)
(0.924455 -0.150299 2.85737e-15)
(0.928718 -0.139174 2.39024e-15)
(0.932031 -0.121067 1.98632e-15)
(0.934005 -0.115877 1.65535e-15)
(0.935751 -0.0958188 1.37235e-15)
(0.931262 -0.0899671 1.13798e-15)
(0.932046 -0.0721567 9.35102e-16)
(0.928809 -0.0624039 7.64511e-16)
(0.927511 -0.0438471 6.17041e-16)
(0.926676 -0.0321934 4.90626e-16)
(0.9259 -0.00973404 3.78767e-16)
(0.924811 0.00270586 2.82184e-16)
(0.931018 0.0277218 1.95702e-16)
(0.929519 0.0480759 1.18276e-16)
(0.93683 0.0794544 4.50591e-17)
(1.08081 -0.065956 6.9854e-15)
(0.982203 -0.222222 4.22319e-15)
(0.997978 -0.206801 3.15547e-15)
(0.964915 -0.183701 2.55115e-15)
(0.972776 -0.178456 2.12903e-15)
(0.960339 -0.150172 1.80155e-15)
(0.965353 -0.145925 1.53301e-15)
(0.953366 -0.124337 1.31079e-15)
(0.954131 -0.119047 1.12197e-15)
(0.949016 -0.100287 9.59975e-16)
(0.942748 -0.093666 8.19209e-16)
(0.943407 -0.0754791 6.96227e-16)
(0.938066 -0.0661954 5.87689e-16)
(0.938021 -0.0478195 4.90617e-16)
(0.937515 -0.0353045 4.0324e-16)
(0.938078 -0.0129448 3.23461e-16)
(0.937059 0.00264665 2.49866e-16)
(0.943993 0.0287636 1.80686e-16)
(0.938948 0.0456669 1.15127e-16)
(0.946081 0.0809749 4.87382e-17)
(1.109 -0.147745 6.59693e-15)
(1.05466 -0.140507 4.54809e-15)
(1.02813 -0.162177 3.42439e-15)
(1.0129 -0.148644 2.70939e-15)
(0.995762 -0.153023 2.21561e-15)
(0.990647 -0.134613 1.84668e-15)
(0.977617 -0.132692 1.55948e-15)
(0.97607 -0.11528 1.32521e-15)
(0.967203 -0.107442 1.13108e-15)
(0.965377 -0.0947527 9.66173e-16)
(0.953444 -0.0838917 8.25237e-16)
(0.952832 -0.070679 7.02114e-16)
(0.94392 -0.0596639 5.93954e-16)
(0.942817 -0.0411435 4.97473e-16)
(0.941139 -0.0297806 4.10706e-16)
(0.941307 -0.00900385 3.31105e-16)
(0.939789 0.00463334 2.57514e-16)
(0.946726 0.0272873 1.88158e-16)
(0.943471 0.0444138 1.22054e-16)
(0.950192 0.0773629 5.47618e-17)
(1.05929 -0.127342 6.2999e-15)
(1.0256 -0.144234 4.72106e-15)
(1.03955 -0.156771 3.70232e-15)
(1.01554 -0.147531 2.96248e-15)
(1.01575 -0.152622 2.41793e-15)
(0.999629 -0.134501 2.00356e-15)
(0.995754 -0.134407 1.67871e-15)
(0.98369 -0.117143 1.41699e-15)
(0.975002 -0.112466 1.20175e-15)
(0.968983 -0.0996179 1.0214e-15)
(0.95986 -0.0891382 8.68164e-16)
(0.957585 -0.0755201 7.3606e-16)
(0.954649 -0.0624437 6.20834e-16)
(0.952112 -0.0456645 5.18984e-16)
(0.951029 -0.0316419 4.27859e-16)
(0.951008 -0.0122303 3.45101e-16)
(0.9487 0.00493886 2.68895e-16)
(0.95739 0.0264366 1.97523e-16)
(0.952172 0.042984 1.29875e-16)
(0.961399 0.0759037 6.13506e-17)
(1.08741 -0.153208 5.84863e-15)
(1.06866 -0.116475 4.59966e-15)
(1.0618 -0.140328 3.73929e-15)
(1.04981 -0.117844 3.05362e-15)
(1.035 -0.130137 2.51697e-15)
(1.02847 -0.112777 2.09351e-15)
(1.00866 -0.11818 1.75486e-15)
(1.00663 -0.101676 1.4796e-15)
(0.988906 -0.0998156 1.25251e-15)
(0.989021 -0.0856624 1.06241e-15)
(0.974325 -0.0772993 9.01274e-16)
(0.973095 -0.064337 7.62897e-16)
(0.964249 -0.0515509 6.42664e-16)
(0.961158 -0.0386156 5.36878e-16)
(0.959171 -0.0234764 4.42626e-16)
(0.959635 -0.00931243 3.57438e-16)
(0.957059 0.00866702 2.79311e-16)
(0.961712 0.0258485 2.06469e-16)
(0.959731 0.0431464 1.37709e-16)
(0.966329 0.0712252 6.83438e-17)
(1.0679 -0.131901 5.40905e-15)
(1.05549 -0.114275 4.37825e-15)
(1.05665 -0.128727 3.65471e-15)
(1.04531 -0.116637 3.0427e-15)
(1.03845 -0.124097 2.5403e-15)
(1.02569 -0.115091 2.12983e-15)
(1.01711 -0.114751 1.79355e-15)
(1.00855 -0.102159 1.51601e-15)
(0.993985 -0.0992745 1.28485e-15)
(0.991201 -0.0849331 1.09034e-15)
(0.977829 -0.0802347 9.25015e-16)
(0.9771 -0.0642566 7.82974e-16)
(0.971378 -0.0554015 6.59621e-16)
(0.968528 -0.0399661 5.51262e-16)
(0.966044 -0.0262504 4.54907e-16)
(0.966281 -0.011151 3.68062e-16)
(0.964192 0.00591858 2.8864e-16)
(0.970799 0.023267 2.14834e-16)
(0.967076 0.040842 1.45401e-16)
(0.977253 0.0662544 7.56226e-17)
(1.0854 -0.131838 4.99965e-15)
(1.08053 -0.105273 4.1257e-15)
(1.06936 -0.118339 3.50926e-15)
(1.06649 -0.100178 2.96887e-15)
(1.04849 -0.109582 2.50974e-15)
(1.04796 -0.0963489 2.12365e-15)
(1.02928 -0.0992525 1.8001e-15)
(1.02706 -0.0877844 1.52853e-15)
(1.00832 -0.0853703 1.29956e-15)
(1.00755 -0.0724469 1.10528e-15)
(0.991866 -0.0677359 9.39192e-16)
(0.992265 -0.0522758 7.95994e-16)
(0.980429 -0.0459289 6.71385e-16)
(0.979814 -0.0313274 5.61839e-16)
(0.975146 -0.0203072 4.64443e-16)
(0.976667 -0.00654221 3.7675e-16)
(0.973865 0.00848421 2.96681e-16)
(0.977848 0.0236142 2.22444e-16)
(0.975458 0.0386374 1.52798e-16)
(0.983821 0.0631244 8.30513e-17)
(1.08002 -0.108015 4.62418e-15)
(1.07341 -0.100866 3.86844e-15)
(1.06674 -0.104217 3.33628e-15)
(1.06115 -0.0968691 2.85908e-15)
(1.05001 -0.100788 2.44384e-15)
(1.04293 -0.0922057 2.08668e-15)
(1.03106 -0.0938032 1.78147e-15)
(1.02589 -0.0826784 1.52117e-15)
(1.01065 -0.0808044 1.2989e-15)
(1.00797 -0.0691763 1.10845e-15)
(0.994944 -0.0662056 9.44436e-16)
(0.993683 -0.0522036 8.0226e-16)
(0.984976 -0.046951 6.7807e-16)
(0.984714 -0.0301403 5.68625e-16)
(0.979344 -0.0209721 4.71188e-16)
(0.981595 -0.00541647 3.83428e-16)
(0.978742 0.00782137 3.03341e-16)
(0.984445 0.0225727 2.29192e-16)
(0.982616 0.0388772 1.59781e-16)
(0.993402 0.0570352 9.04906e-17)
(1.08806 -0.107818 4.27713e-15)
(1.08658 -0.096538 3.61961e-15)
(1.07563 -0.0970087 3.15391e-15)
(1.07388 -0.0889685 2.73088e-15)
(1.05794 -0.0893592 2.35656e-15)
(1.05941 -0.0808515 2.02901e-15)
(1.04233 -0.0811322 1.74454e-15)
(1.04222 -0.0719257 1.49845e-15)
(1.02237 -0.0697356 1.28577e-15)
(1.02094 -0.0598014 1.1017e-15)
(1.00583 -0.0541685 9.41891e-16)
(1.00668 -0.0431503 8.02478e-16)
(0.995844 -0.0363344 6.80102e-16)
(0.997359 -0.02344 5.71866e-16)
(0.989686 -0.0146354 4.75269e-16)
(0.993589 -0.00102202 3.88146e-16)
(0.988198 0.00904371 3.08614e-16)
(0.994598 0.0238156 2.35028e-16)
(0.989207 0.0339699 1.66258e-16)
(0.998411 0.0555282 9.7807e-17)
(1.08636 -0.0872193 3.95942e-15)
(1.08533 -0.0823806 3.38386e-15)
(1.07513 -0.0816654 2.97229e-15)
(1.07083 -0.0789451 2.59536e-15)
(1.06092 -0.0769156 2.25786e-15)
(1.05386 -0.0719219 1.95861e-15)
(1.0421 -0.0719849 1.6953e-15)
(1.03842 -0.065187 1.46469e-15)
(1.02268 -0.0624067 1.26318e-15)
(1.02206 -0.0556833 1.0871e-15)
(1.00864 -0.0487793 9.3298e-16)
(1.00705 -0.0422302 7.97608e-16)
(0.998702 -0.0327393 6.78123e-16)
(0.99893 -0.022226 5.71983e-16)
(0.992815 -0.012228 4.76952e-16)
(0.994932 -0.000389152 3.91061e-16)
(0.991784 0.00999281 3.12571e-16)
(0.997154 0.0225854 2.39954e-16)
(0.996748 0.0328477 1.72173e-16)
(1.00636 0.0500936 1.0488e-16)
(1.08831 -0.0883858 3.66857e-15)
(1.09261 -0.078651 3.16414e-15)
(1.0791 -0.0810354 2.79729e-15)
(1.07949 -0.0732517 2.45969e-15)
(1.06644 -0.0714577 2.15473e-15)
(1.06581 -0.065432 1.88159e-15)
(1.05015 -0.0628653 1.63868e-15)
(1.05217 -0.0570889 1.4237e-15)
(1.0313 -0.0543623 1.23401e-15)
(1.0329 -0.0464683 1.06677e-15)
(1.01642 -0.0421201 9.19222e-16)
(1.01863 -0.032869 7.88739e-16)
(1.0105 -0.0258123 6.72901e-16)
(1.01128 -0.0155712 5.69513e-16)
(1.00374 -0.00734143 4.76603e-16)
(1.0069 0.00264016 3.92405e-16)
(1.00112 0.0115228 3.15344e-16)
(1.00719 0.0223604 2.44019e-16)
(1.00208 0.0310097 1.77499e-16)
(1.00943 0.0452085 1.11608e-16)
(1.08802 -0.0704533 3.4053e-15)
(1.09275 -0.0645862 2.96171e-15)
(1.08018 -0.0651219 2.63249e-15)
(1.08058 -0.0610154 2.32846e-15)
(1.06937 -0.0579563 2.05205e-15)
(1.06309 -0.0560253 1.80248e-15)
(1.0508 -0.0525812 1.5786e-15)
(1.04675 -0.0513921 1.37871e-15)
(1.0324 -0.0463352 1.20079e-15)
(1.03254 -0.0414135 1.04266e-15)
(1.01952 -0.0350417 9.02107e-16)
(1.01964 -0.0278196 7.76985e-16)
(1.01126 -0.0212589 6.6526e-16)
(1.01166 -0.0149801 5.65053e-16)
(1.00433 -0.00630759 4.74644e-16)
(1.00622 -7.02593e-05 3.92467e-16)
(1.00305 0.00967881 3.1711e-16)
(1.00813 0.0171408 2.47308e-16)
(1.00761 0.0261139 1.82239e-16)
(1.01544 0.0384019 1.17912e-16)
(1.09063 -0.0677659 3.16737e-15)
(1.09785 -0.0578242 2.77731e-15)
(1.08217 -0.0640526 2.47993e-15)
(1.08645 -0.0526769 2.20473e-15)
(1.07154 -0.0556135 1.9532e-15)
(1.07129 -0.0476361 1.72464e-15)
(1.05467 -0.0454855 1.51811e-15)
(1.05789 -0.042283 1.33232e-15)
(1.04019 -0.0374725 1.1657e-15)
(1.04242 -0.0331507 1.01653e-15)
(1.02748 -0.0287322 8.83023e-16)
(1.02907 -0.0208518 7.6342e-16)
(1.01918 -0.016566 6.56021e-16)
(1.02129 -0.00869606 5.59221e-16)
(1.01295 -0.00309559 4.71527e-16)
(1.01653 0.00407327 3.91565e-16)
(1.01133 0.0122106 3.18078e-16)
(1.01673 0.0185213 2.49935e-16)
(1.01375 0.0268519 1.86422e-16)
(1.02136 0.0335218 1.23734e-16)
(1.08989 -0.052353 2.95506e-15)
(1.09622 -0.0481692 2.61122e-15)
(1.08481 -0.048722 2.34097e-15)
(1.08863 -0.0425174 2.0905e-15)
(1.07422 -0.0420598 1.86057e-15)
(1.073 -0.0387279 1.65052e-15)
(1.05575 -0.035554 1.45956e-15)
(1.05403 -0.0365007 1.28666e-15)
(1.04036 -0.0300178 1.13057e-15)
(1.03956 -0.0289064 9.89899e-16)
(1.0295 -0.0218489 8.6321e-16)
(1.02885 -0.0169327 7.49041e-16)
(1.01982 -0.0132274 6.45967e-16)
(1.02091 -0.010095 5.5262e-16)
(1.01231 -0.00317733 4.6771e-16)
(1.01625 0.000892411 3.90033e-16)
(1.01179 0.00993922 3.18476e-16)
(1.01723 0.0145301 2.52034e-16)
(1.01507 0.021082 1.90096e-16)
(1.02289 0.0286989 1.29044e-16)
(1.09372 -0.0491247 2.76747e-15)
(1.10126 -0.0374622 2.46361e-15)
(1.08736 -0.0437832 2.21649e-15)
(1.09267 -0.033421 1.98718e-15)
(1.075 -0.0389877 1.77587e-15)
(1.07741 -0.0318662 1.58196e-15)
(1.05634 -0.0321914 1.40476e-15)
(1.0626 -0.0285581 1.24341e-15)
(1.04661 -0.0245681 1.09688e-15)
(1.04898 -0.0226364 9.64066e-16)
(1.03738 -0.0172949 8.43757e-16)
(1.03512 -0.014866 7.34743e-16)
(1.02295 -0.0103501 6.35822e-16)
(1.02779 -0.00736078 5.45825e-16)
(1.01997 -0.000891374 4.63636e-16)
(1.02535 0.00347101 3.88201e-16)
(1.0204 0.0113257 3.18537e-16)
(1.02358 0.0139964 2.53752e-16)
(1.02217 0.0206733 1.93333e-16)
(1.03074 0.0240233 1.33831e-16)
(1.09421 -0.0346657 2.60494e-15)
(1.10133 -0.0300766 2.33468e-15)
(1.0885 -0.0311042 2.1071e-15)
(1.093 -0.0269002 1.89571e-15)
(1.0754 -0.0254792 1.70031e-15)
(1.07934 -0.0243835 1.5203e-15)
(1.05846 -0.0189257 1.35507e-15)
(1.06083 -0.0213848 1.20388e-15)
(1.04517 -0.0147216 1.06587e-15)
(1.04539 -0.0171078 9.4011e-16)
(1.03546 -0.0106496 8.25599e-16)
(1.03359 -0.0104653 7.21315e-16)
(1.02474 -0.00618594 6.26239e-16)
(1.02744 -0.00425518 5.39365e-16)
(1.01991 0.00104527 4.59725e-16)
(1.02502 0.00364044 3.86392e-16)
(1.0187 0.00991558 3.18498e-16)
(1.02324 0.0114404 2.55249e-16)
(1.02076 0.0168061 1.96215e-16)
(1.02905 0.0200264 1.38105e-16)
(1.0957 -0.0316122 2.4661e-15)
(1.10468 -0.021742 2.22429e-15)
(1.09033 -0.0259776 2.01305e-15)
(1.09795 -0.0199633 1.81675e-15)
(1.07716 -0.024951 1.63477e-15)
(1.08351 -0.0212157 1.46657e-15)
(1.05876 -0.0232506 1.31158e-15)
(1.06604 -0.0182613 1.16914e-15)
(1.04989 -0.0180322 1.03853e-15)
(1.0518 -0.0145031 9.1894e-16)
(1.04248 -0.0137758 8.09536e-16)
(1.03775 -0.01136 7.09448e-16)
(1.02704 -0.00849104 6.17799e-16)
(1.03265 -0.0048651 5.33722e-16)
(1.02529 -0.000662901 4.56367e-16)
(1.03151 0.00215391 3.84916e-16)
(1.02542 0.00650405 3.18594e-16)
(1.02801 0.00763836 2.56691e-16)
(1.02763 0.0132634 1.98844e-16)
(1.03635 0.0154856 1.41899e-16)
(1.10048 -0.0152145 2.35159e-15)
(1.10688 -0.0158658 2.13236e-15)
(1.0902 -0.0133988 1.93444e-15)
(1.09379 -0.0149741 1.75055e-15)
(1.07385 -0.0107424 1.57972e-15)
(1.08065 -0.0139177 1.42138e-15)
(1.0609 -0.00739849 1.27498e-15)
(1.06538 -0.00894688 1.13991e-15)
(1.04808 -0.00553475 1.01555e-15)
(1.0486 -0.00581661 9.0121e-16)
(1.03734 -0.00517341 7.96159e-16)
(1.03739 -0.00347847 6.99657e-16)
(1.02955 -0.00141797 6.10944e-16)
(1.0334 0.00308107 5.29262e-16)
(1.02492 0.00271121 4.53862e-16)
(1.0301 0.00422804 3.84011e-16)
(1.02208 0.00595483 3.19008e-16)
(1.02813 0.00584976 2.58207e-16)
(1.02637 0.0125672 2.01292e-16)
(1.03481 0.0111436 1.4522e-16)
(1.10001 -0.0164984 2.26854e-15)
(1.10651 -0.0159308 2.06572e-15)
(1.09128 -0.0148786 1.87756e-15)
(1.10046 -0.0146315 1.70299e-15)
(1.07799 -0.0146356 1.54062e-15)
(1.08654 -0.0145483 1.38977e-15)
(1.0633 -0.0139061 1.24987e-15)
(1.06736 -0.0114428 1.12038e-15)
(1.05233 -0.0109759 1.00072e-15)
(1.05132 -0.00831166 8.90301e-16)
(1.04382 -0.00964257 7.88487e-16)
(1.04035 -0.00601959 6.94632e-16)
(1.03231 -0.0059173 6.0807e-16)
(1.03536 -0.000470334 5.28129e-16)
(1.02493 -0.00269835 4.54135e-16)
(1.03321 0.00138466 3.85421e-16)
(1.02552 0.000431329 3.21339e-16)
(1.03334 0.00522705 2.61279e-16)
(1.03142 0.00720158 2.04949e-16)
(1.03916 0.0100431 1.49364e-16)
(1.10525 0.00112046 2.00867e-15)
(1.10856 -0.00394107 1.83464e-15)
(1.09167 0.00244627 1.67293e-15)
(1.09397 -0.00304616 1.52356e-15)
(1.07379 -1.62192e-05 1.38396e-15)
(1.08114 -0.00401622 1.25339e-15)
(1.06368 -0.00170472 1.13142e-15)
(1.0679 -0.00122049 1.01767e-15)
(1.0507 -0.000368419 9.11735e-16)
(1.04932 -0.000331303 8.13203e-16)
(1.03891 -0.00106264 7.21616e-16)
(1.0403 -0.00152542 6.36488e-16)
(1.03418 0.000752749 5.57308e-16)
(1.03563 0.00247585 4.83543e-16)
(1.02573 0.0018171 4.14643e-16)
(1.03218 0.0029612 3.50046e-16)
(1.02489 0.00276218 2.89181e-16)
(1.034 0.00460221 2.31491e-16)
(1.03022 0.00712559 1.76693e-16)
(1.03654 0.00601114 1.21793e-16)
(1.10605 -0.00955823 7.29934e-15)
(1.10785 -0.00918685 6.58777e-15)
(1.09228 -0.0108193 5.92245e-15)
(1.09789 -0.00878505 5.31333e-15)
(1.07684 -0.00748536 4.7573e-15)
(1.0846 -0.00637852 4.2516e-15)
(1.0658 -0.00449335 3.7934e-15)
(1.06834 -0.00483153 3.37985e-15)
(1.05282 -0.00424992 3.00808e-15)
(1.05017 -0.0031099 2.67528e-15)
(1.04211 -0.00370924 2.3787e-15)
(1.04159 -0.000419232 2.11567e-15)
(1.03568 -0.00275642 1.88367e-15)
(1.03575 0.000777722 1.68033e-15)
(1.02471 -0.00301967 1.50349e-15)
(1.03345 -0.00045276 1.35116e-15)
(1.02648 -0.00220737 1.22157e-15)
(1.0371 0.000730265 1.11317e-15)
(1.03225 0.000516263 1.02488e-15)
(1.03749 0.00233472 9.52744e-16)
(1.33923 -0.032206 3.93768e-14)
(1.34079 -0.0277102 3.84198e-14)
(1.34048 -0.0778319 3.65842e-14)
(1.32473 -0.0753061 3.41173e-14)
(1.31047 -0.146259 3.12793e-14)
(1.28481 -0.147669 2.82845e-14)
(1.24989 -0.242932 2.5358e-14)
(1.20144 -0.229185 2.26677e-14)
(1.15707 -0.343481 2.03235e-14)
(1.0203 -0.284754 1.72481e-14)
(1.25543 -0.0235946 3.59596e-14)
(1.25274 -0.023564 3.53923e-14)
(1.2622 -0.0731676 3.40049e-14)
(1.2449 -0.0715822 3.20086e-14)
(1.24408 -0.145463 2.9604e-14)
(1.20592 -0.139281 2.69898e-14)
(1.19698 -0.235921 2.43084e-14)
(1.11863 -0.206245 2.15932e-14)
(1.13257 -0.312737 1.85737e-14)
(0.998233 -0.305981 1.36971e-14)
(1.26828 -0.0286462 3.25469e-14)
(1.26576 -0.0191164 3.20438e-14)
(1.27749 -0.0533864 3.07635e-14)
(1.25265 -0.0419338 2.89035e-14)
(1.25747 -0.0964695 2.66484e-14)
(1.21443 -0.0858469 2.41497e-14)
(1.21512 -0.158161 2.15095e-14)
(1.12803 -0.143199 1.86727e-14)
(1.14826 -0.212876 1.54076e-14)
(1.01856 -0.265178 1.11052e-14)
(1.19673 -0.0190092 2.93387e-14)
(1.19123 -0.0115475 2.89225e-14)
(1.21236 -0.0524063 2.77606e-14)
(1.18954 -0.0439763 2.6047e-14)
(1.20708 -0.100938 2.39318e-14)
(1.1611 -0.0911722 2.15556e-14)
(1.18639 -0.15951 1.89807e-14)
(1.10391 -0.151513 1.61989e-14)
(1.15058 -0.210601 1.31616e-14)
(1.05441 -0.265957 9.73513e-15)
(1.20836 -0.0255119 2.63369e-14)
(1.20065 -0.0112902 2.59998e-14)
(1.22073 -0.036276 2.49593e-14)
(1.18954 -0.0229645 2.33854e-14)
(1.21045 -0.0603966 2.1417e-14)
(1.16177 -0.0543886 1.91771e-14)
(1.18874 -0.0975329 1.67332e-14)
(1.10966 -0.11265 1.41433e-14)
(1.13982 -0.147277 1.14927e-14)
(1.061 -0.232855 8.73511e-15)
(1.15013 -0.0177524 2.35445e-14)
(1.14183 -0.00999016 2.32898e-14)
(1.17036 -0.0374941 2.23666e-14)
(1.14414 -0.0319152 2.09304e-14)
(1.17375 -0.0641631 1.9109e-14)
(1.12923 -0.066954 1.70305e-14)
(1.16846 -0.097594 1.47825e-14)
(1.10405 -0.12027 1.24408e-14)
(1.14289 -0.142055 1.01775e-14)
(1.08328 -0.217493 7.88353e-15)
(1.16003 -0.0187497 2.09644e-14)
(1.14941 -0.00394633 2.0784e-14)
(1.17404 -0.0204541 1.99785e-14)
(1.14303 -0.0140936 1.86751e-14)
(1.17086 -0.0326486 1.70176e-14)
(1.12894 -0.0418398 1.511e-14)
(1.16296 -0.056149 1.30721e-14)
(1.1085 -0.0937863 1.10062e-14)
(1.13047 -0.102072 9.05531e-15)
(1.08618 -0.186862 7.1392e-15)
(1.11415 -0.0194705 1.86022e-14)
(1.10479 -0.0151886 1.84912e-14)
(1.13402 -0.0289977 1.77877e-14)
(1.11124 -0.0302791 1.66294e-14)
(1.14267 -0.0406188 1.51276e-14)
(1.11057 -0.0573737 1.34158e-14)
(1.14691 -0.060639 1.15843e-14)
(1.10812 -0.101701 9.77636e-15)
(1.13136 -0.102327 8.10086e-15)
(1.09622 -0.170941 6.45422e-15)
(1.12203 -0.00836341 1.64546e-14)