/*--------------------------------*- C++ -*----------------------------------*\
| =========                 |                                                 |
| \\      /  F ield         | OpenFOAM: The Open Source CFD Toolbox           |
|  \\    /   O peration     | Version:  2.2.0                                 |
|   \\  /    A nd           | Web:      www.OpenFOAM.org                      |
|    \\/     M anipulation  |                                                 |
\*---------------------------------------------------------------------------*/
FoamFile
{
    version     2.0;
    format      ascii;
    class       volVectorField;
    location    "40";
    object      s;
}
// * * * * * * * * * * * * * * * * * * * * * * * * * * * * * * * * * * * * * //

dimensions      [0 1 -1 0 0 0 0];

internalField   nonuniform List<vector> 
1600
(
(2.97675 0.221902 0)
(2.18632 0.166337 0)
(1.66507 0.129574 0)
(1.30314 0.104206 0)
(1.04016 0.0857537 0)
(0.84373 0.0719685 0)
(0.691977 0.0613024 0)
(0.573342 0.0529276 0)
(0.477432 0.0461563 0)
(0.400511 0.0406769 0)
(0.335618 0.0360799 0)
(0.283244 0.0323129 0)
(0.237007 0.0290365 0)
(0.199793 0.0263584 0)
(0.165906 0.0239539 0)
(0.13791 0.0220073 0)
(0.113166 0.020227 0)
(0.0905276 0.0188241 0)
(0.0727617 0.0174922 0)
(0.0536521 0.0166079 0)
(2.91826 0.662134 0)
(2.14362 0.495558 0)
(1.63255 0.386037 0)
(1.27764 0.310288 0)
(1.01969 0.255292 0)
(0.826987 0.214154 0)
(0.678082 0.182347 0)
(0.561664 0.157348 0)
(0.467526 0.13714 0)
(0.392034 0.120769 0)
(0.328326 0.107035 0)
(0.276928 0.09575 0)
(0.231535 0.0859454 0)
(0.19503 0.0778635 0)
(0.16178 0.0706527 0)
(0.134345 0.0646523 0)
(0.110133 0.059306 0)
(0.087981 0.0547034 0)
(0.0707598 0.0507339 0)
(0.0520801 0.0471866 0)
(2.80206 1.09016 0)
(2.05892 0.815877 0)
(1.56807 0.635838 0)
(1.2271 0.511221 0)
(0.979096 0.420772 0)
(0.793786 0.353078 0)
(0.650513 0.300736 0)
(0.538488 0.259582 0)
(0.447857 0.226306 0)
(0.375188 0.199335 0)
(0.313824 0.176702 0)
(0.264342 0.158086 0)
(0.220616 0.141912 0)
(0.185461 0.128537 0)
(0.153476 0.116627 0)
(0.127014 0.106614 0)
(0.103839 0.0977752 0)
(0.0823961 0.0899444 0)
(0.0660994 0.0833964 0)
(0.0479328 0.0771203 0)
(2.63058 1.49781 0)
(1.93383 1.12147 0)
(1.47293 0.874661 0)
(1.15247 0.703674 0)
(0.919153 0.579572 0)
(0.744718 0.486635 0)
(0.60975 0.414758 0)
(0.504194 0.358217 0)
(0.418726 0.312482 0)
(0.350215 0.275395 0)
(0.29229 0.244256 0)
(0.245634 0.218626 0)
(0.204317 0.196348 0)
(0.171176 0.177887 0)
(0.140934 0.161462 0)
(0.115983 0.147566 0)
(0.0940762 0.135365 0)
(0.0738321 0.124371 0)
(0.0584406 0.115344 0)
(0.0412628 0.106329 0)
(2.40745 1.87719 0)
(1.77098 1.40688 0)
(1.34901 1.09839 0)
(1.05521 0.884509 0)
(0.840982 0.729207 0)
(0.680689 0.612836 0)
(0.556515 0.522791 0)
(0.45937 0.451919 0)
(0.380618 0.394561 0)
(0.317512 0.348025 0)
(0.264059 0.308926 0)
(0.221069 0.276726 0)
(0.182884 0.248715 0)
(0.152329 0.225482 0)
(0.124357 0.204797 0)
(0.10129 0.18726 0)
(0.0810487 0.17187 0)
(0.0622176 0.157944 0)
(0.048019 0.146537 0)
(0.0319269 0.135086 0)
(2.1375 2.22139 0)
(1.57372 1.66709 0)
(1.19881 1.30329 0)
(0.937207 1.05082 0)
(0.746053 0.867395 0)
(0.60285 0.729837 0)
(0.491736 0.62333 0)
(0.404763 0.539445 0)
(0.334136 0.471506 0)
(0.277569 0.416355 0)
(0.229524 0.369976 0)
(0.190972 0.331766 0)
(0.156564 0.298489 0)
(0.129152 0.270877 0)
(0.103889 0.246268 0)
(0.0831457 0.225388 0)
(0.0648453 0.207056 0)
(0.0478134 0.190447 0)
(0.0349686 0.17684 0)
(0.0203213 0.16319 0)
(1.8264 2.5243 0)
(1.34616 1.89769 0)
(1.02531 1.48603 0)
(0.800747 1.20005 0)
(0.636142 0.992088 0)
(0.512619 0.835993 0)
(0.416546 0.715028 0)
(0.341297 0.619682 0)
(0.280038 0.542388 0)
(0.231015 0.479605 0)
(0.189211 0.42675 0)
(0.155779 0.383188 0)
(0.125738 0.345198 0)
(0.101944 0.313671 0)
(0.0798335 0.285531 0)
(0.0617418 0.261649 0)
(0.0457468 0.240663 0)
(0.0307269 0.221624 0)
(0.0195794 0.206043 0)
(0.00648447 0.190354 0)
(1.48074 2.78075 0)
(1.0929 2.0949 0)
(0.83196 1.64377 0)
(0.648431 1.32997 0)
(0.513287 1.10153 0)
(0.411603 0.929875 0)
(0.332239 0.79671 0)
(0.270017 0.691649 0)
(0.219175 0.606385 0)
(0.178541 0.537078 0)
(0.143685 0.478653 0)
(0.115954 0.430483 0)
(0.0907752 0.388404 0)
(0.0710208 0.353487 0)
(0.0524157 0.322257 0)
(0.0373099 0.295764 0)
(0.0238573 0.27243 0)
(0.0111545 0.251287 0)
(0.00182839 0.233919 0)
(-0.0093923 0.216512 0)
(1.10764 2.98662 0)
(0.819115 2.25573 0)
(0.622529 1.77422 0)
(0.483175 1.43881 0)
(0.379745 1.19429 0)
(0.301604 1.01032 0)
(0.240261 0.867409 0)
(0.192103 0.754537 0)
(0.152517 0.662812 0)
(0.120955 0.588189 0)
(0.093619 0.525185 0)
(0.0720608 0.473218 0)
(0.0521608 0.427734 0)
(0.0367826 0.389989 0)
(0.0220028 0.356165 0)
(0.010122 0.327456 0)
(-0.000516016 0.302158 0)
(-0.0107524 0.279158 0)
(-0.0179807 0.260343 0)
(-0.0272804 0.241297 0)
(0.714904 3.13889 0)
(0.530218 2.37792 0)
(0.40111 1.87567 0)
(0.30806 1.52519 0)
(0.237944 1.26926 0)
(0.184536 1.07641 0)
(0.142156 0.926366 0)
(0.108803 0.807702 0)
(0.0810824 0.711115 0)
(0.059086 0.632458 0)
(0.0396924 0.565925 0)
(0.024655 0.511023 0)
(0.0103392 0.462853 0)
(-0.000403165 0.422893 0)
(-0.0111348 0.386973 0)
(-0.0195748 0.356515 0)
(-0.0272547 0.329574 0)
(-0.0348088 0.305135 0)
(-0.039897 0.285022 0)
(-0.0470277 0.264791 0)
(0.310441 3.23575 0)
(0.232011 2.46016 0)
(0.171914 1.94706 0)
(0.126358 1.58827 0)
(0.090413 1.32574 0)
(0.0624299 1.12755 0)
(0.0395564 0.973064 0)
(0.0214561 0.850694 0)
(0.00597324 0.750901 0)
(-0.00614586 0.66954 0)
(-0.0173247 0.600569 0)
(-0.0256154 0.543621 0)
(-0.0341365 0.493528 0)
(-0.0400771 0.451961 0)
(-0.0465868 0.414513 0)
(-0.0514712 0.382711 0)
(-0.0560287 0.3546 0)
(-0.0608447 0.328936 0)
(-0.0635986 0.307977 0)
(-0.0685662 0.286582 0)
(-0.0974719 3.27662 0)
(-0.0697725 2.50187 0)
(-0.0606954 1.98794 0)
(-0.0586543 1.62764 0)
(-0.060249 1.36337 0)
(-0.0626659 1.16341 0)
(-0.06588 1.00721 0)
(-0.068596 0.88324 0)
(-0.0717119 0.781918 0)
(-0.073841 0.699194 0)
(-0.0766944 0.628886 0)
(-0.0781422 0.570801 0)
(-0.0807735 0.519535 0)
(-0.0818235 0.477017 0)
(-0.0840368 0.438542 0)
(-0.0852668 0.405924 0)
(-0.086666 0.376927 0)
(-0.088612 0.350539 0)
(-0.0890602 0.328826 0)
(-0.091703 0.306767 0)
(-0.500801 3.26209 0)
(-0.369245 2.5035 0)
(-0.292448 1.99853 0)
(-0.243635 1.64343 0)
(-0.211462 1.38218 0)
(-0.188669 1.184 0)
(-0.172476 1.02876 0)
(-0.159972 0.905281 0)
(-0.150832 0.804088 0)
(-0.143046 0.721334 0)
(-0.137617 0.650791 0)
(-0.132257 0.592457 0)
(-0.129005 0.540798 0)
(-0.125184 0.497925 0)
(-0.123082 0.45903 0)
(-0.120682 0.42596 0)
(-0.118875 0.396613 0)
(-0.118 0.369671 0)
(-0.116056 0.3477 0)
(-0.116439 0.325061 0)
(-0.891636 3.1941 0)
(-0.66085 2.4662 0)
(-0.519111 1.97966 0)
(-0.425401 1.63619 0)
(-0.360686 1.38259 0)
(-0.313574 1.18958 0)
(-0.2786 1.03789 0)
(-0.251345 0.916918 0)
(-0.230293 0.817461 0)
(-0.212858 0.735968 0)
(-0.199343 0.666245 0)
(-0.187325 0.608548 0)
(-0.178303 0.557208 0)
(-0.169688 0.514642 0)
(-0.163344 0.475779 0)
(-0.15733 0.442823 0)
(-0.152381 0.41336 0)
(-0.148636 0.386377 0)
(-0.144373 0.364261 0)
(-0.142401 0.341389 0)
(-1.26247 3.07552 0)
(-0.939186 2.39207 0)
(-0.736716 1.93275 0)
(-0.600847 1.60698 0)
(-0.505513 1.36534 0)
(-0.435427 1.18072 0)
(-0.382672 1.03503 0)
(-0.341409 0.918471 0)
(-0.309014 0.822269 0)
(-0.28237 0.743257 0)
(-0.261113 0.675374 0)
(-0.24272 0.619122 0)
(-0.228143 0.568842 0)
(-0.214931 0.527102 0)
(-0.204472 0.488871 0)
(-0.194999 0.456325 0)
(-0.186972 0.427264 0)
(-0.180504 0.400421 0)
(-0.173946 0.37853 0)
(-0.169772 0.355723 0)
(-1.60653 2.91055 0)
(-1.19934 2.28388 0)
(-0.941561 1.85985 0)
(-0.767147 1.55725 0)
(-0.643685 1.33155 0)
(-0.552433 1.15822 0)
(-0.48322 1.02079 0)
(-0.428956 0.91039 0)
(-0.385988 0.818845 0)
(-0.35074 0.74345 0)
(-0.322213 0.678331 0)
(-0.297821 0.62432 0)
(-0.277992 0.575716 0)
(-0.260415 0.535424 0)
(-0.246053 0.498209 0)
(-0.233247 0.466603 0)
(-0.222309 0.438181 0)
(-0.213149 0.411873 0)
(-0.204424 0.390469 0)
(-0.19799 0.367804 0)
(-1.91754 2.70413 0)
(-1.43689 2.14511 0)
(-1.13032 1.76341 0)
(-0.921713 1.48888 0)
(-0.773166 1.28259 0)
(-0.662932 1.12319 0)
(-0.578893 0.995996 0)
(-0.512861 0.893325 0)
(-0.460276 0.807692 0)
(-0.417178 0.736918 0)
(-0.381979 0.675421 0)
(-0.352081 0.624309 0)
(-0.327386 0.578021 0)
(-0.305789 0.53959 0)
(-0.287767 0.503909 0)
(-0.271892 0.4735 0)
(-0.258183 0.4461 0)
(-0.246558 0.420591 0)
(-0.235753 0.399804 0)
(-0.227281 0.377752 0)
(-2.19037 2.46216 0)
(-1.64801 1.97989 0)
(-1.30012 1.64644 0)
(-1.06231 1.40404 0)
(-0.892171 1.22014 0)
(-0.765483 1.07686 0)
(-0.668496 0.961627 0)
(-0.592129 0.868022 0)
(-0.531038 0.789385 0)
(-0.480966 0.724119 0)
(-0.439794 0.666966 0)
(-0.404949 0.619398 0)
(-0.375855 0.57591 0)
(-0.350598 0.53985 0)
(-0.329257 0.506027 0)
(-0.310535 0.477219 0)
(-0.294323 0.451115 0)
(-0.280357 0.42662 0)
(-0.267671 0.406821 0)
(-0.257211 0.385321 0)
(-2.42069 2.19122 0)
(-1.82962 1.79273 0)
(-1.44861 1.51221 0)
(-1.18709 1.30522 0)
(-0.999203 1.14607 0)
(-0.858856 1.02071 0)
(-0.751008 0.918822 0)
(-0.6659 0.835384 0)
(-0.597542 0.764634 0)
(-0.541478 0.705592 0)
(-0.495115 0.65341 0)
(-0.455968 0.609854 0)
(-0.422981 0.56965 0)
(-0.394515 0.536266 0)
(-0.370175 0.504685 0)
(-0.348945 0.477711 0)
(-0.330433 0.453145 0)
(-0.31438 0.429953 0)
(-0.299974 0.41116 0)
(-0.287683 0.390605 0)
(-2.60527 1.89837 0)
(-1.97936 1.58864 0)
(-1.57396 1.36434 0)
(-1.2946 1.19509 0)
(-1.09309 1.06244 0)
(-0.942071 0.956317 0)
(-0.825603 0.868815 0)
(-0.733464 0.796372 0)
(-0.659176 0.734193 0)
(-0.598175 0.681946 0)
(-0.547474 0.635204 0)
(-0.504707 0.59609 0)
(-0.468407 0.559494 0)
(-0.437182 0.529135 0)
(-0.410263 0.500034 0)
(-0.386832 0.475167 0)
(-0.366326 0.45238 0)
(-0.348462 0.430661 0)
(-0.332515 0.413206 0)
(-0.318831 0.393704 0)
(-2.74252 1.59097 0)
(-2.09572 1.3728 0)
(-1.67497 1.2066 0)
(-1.38383 1.07651 0)
(-1.17298 0.971414 0)
(-1.01441 0.885383 0)
(-0.891659 0.812942 0)
(-0.79428 0.752048 0)
(-0.715458 0.698908 0)
(-0.650632 0.653835 0)
(-0.596479 0.612884 0)
(-0.550821 0.578471 0)
(-0.511784 0.545777 0)
(-0.478294 0.518614 0)
(-0.449175 0.492253 0)
(-0.423859 0.469616 0)
(-0.401621 0.448844 0)
(-0.382052 0.428703 0)
(-0.364795 0.412854 0)
(-0.349456 0.394441 0)
(-2.83136 1.27652 0)
(-2.17794 1.15036 0)
(-1.75101 1.04286 0)
(-1.45424 0.952368 0)
(-1.23839 0.87524 0)
(-1.07543 0.809632 0)
(-0.94877 0.752565 0)
(-0.847969 0.703489 0)
(-0.766043 0.659629 0)
(-0.69852 0.621947 0)
(-0.641835 0.586975 0)
(-0.594019 0.557447 0)
(-0.552873 0.528782 0)
(-0.517602 0.504987 0)
(-0.48673 0.481421 0)
(-0.459841 0.461188 0)
(-0.436197 0.442376 0)
(-0.415107 0.424008 0)
(-0.396765 0.409503 0)
(-0.379843 0.392451 0)
(-2.87176 0.962551 0)
(-2.22612 0.926742 0)
(-1.80202 0.877007 0)
(-1.50573 0.825612 0)
(-1.28917 0.776168 0)
(-1.12496 0.730844 0)
(-0.996743 0.689087 0)
(-0.894335 0.651813 0)
(-0.810723 0.617256 0)
(-0.741638 0.586994 0)
(-0.68333 0.55806 0)
(-0.634112 0.533455 0)
(-0.591461 0.5089 0)
(-0.554946 0.488499 0)
(-0.522729 0.467823 0)
(-0.494694 0.449999 0)
(-0.469909 0.433241 0)
(-0.447714 0.416624 0)
(-0.428447 0.403549 0)
(-0.410508 0.387783 0)
(-2.86545 0.656495 0)
(-2.2412 0.707127 0)
(-1.82861 0.712846 0)
(-1.53865 0.699093 0)
(-1.32553 0.676405 0)
(-1.16309 0.650736 0)
(-1.0356 0.623871 0)
(-0.933338 0.598109 0)
(-0.849421 0.572661 0)
(-0.779871 0.549683 0)
(-0.720834 0.526701 0)
(-0.670937 0.506965 0)
(-0.627395 0.486486 0)
(-0.590129 0.469474 0)
(-0.55701 0.451673 0)
(-0.528168 0.436294 0)
(-0.502587 0.421588 0)
(-0.479505 0.406792 0)
(-0.459599 0.395189 0)
(-0.44072 0.380809 0)
(-2.81501 0.365318 0)
(-2.22489 0.496428 0)
(-1.83192 0.553991 0)
(-1.55379 0.575559 0)
(-1.348 0.57807 0)
(-1.19018 0.570982 0)
(-1.06558 0.558247 0)
(-0.965117 0.543445 0)
(-0.882201 0.526705 0)
(-0.813231 0.510711 0)
(-0.754315 0.493467 0)
(-0.704436 0.478426 0)
(-0.660577 0.461915 0)
(-0.623052 0.448191 0)
(-0.589427 0.43322 0)
(-0.560144 0.420231 0)
(-0.534034 0.407571 0)
(-0.510362 0.394579 0)
(-0.489982 0.384455 0)
(-0.470426 0.371479 0)
(-2.72416 0.0953998 0)
(-2.17964 0.299191 0)
(-1.81366 0.403775 0)
(-1.55236 0.45754 0)
(-1.35744 0.483125 0)
(-1.20684 0.493127 0)
(-1.08709 0.49345 0)
(-0.98995 0.488817 0)
(-0.909239 0.4802 0)
(-0.841808 0.470741 0)
(-0.783795 0.4589 0)
(-0.734575 0.448291 0)
(-0.690939 0.435554 0)
(-0.653597 0.424963 0)
(-0.619854 0.412713 0)
(-0.590442 0.402025 0)
(-0.564094 0.391356 0)
(-0.540044 0.380123 0)
(-0.51942 0.371466 0)
(-0.499309 0.359868 0)
(-2.59746 -0.147564 0)
(-2.10856 0.119432 0)
(-1.77599 0.265195 0)
(-1.5359 0.347313 0)
(-1.35497 0.393349 0)
(-1.2139 0.418581 0)
(-1.10073 0.430611 0)
(-1.00827 0.435143 0)
(-0.930834 0.433891 0)
(-0.865802 0.430382 0)
(-0.809399 0.4235 0)
(-0.761415 0.416965 0)
(-0.718487 0.407736 0)
(-0.681733 0.400054 0)
(-0.648215 0.390364 0)
(-0.618973 0.381846 0)
(-0.592625 0.373062 0)
(-0.568436 0.363527 0)
(-0.547726 0.356257 0)
(-0.527274 0.346033 0)
(-2.44031 -0.358782 0)
(-2.01532 -0.0393781 0)
(-1.72152 0.140801 0)
(-1.5063 0.24685 0)
(-1.34198 0.31028 0)
(-1.21236 0.348576 0)
(-1.10726 0.370728 0)
(-1.02062 0.383239 0)
(-0.947374 0.388457 0)
(-0.885475 0.390202 0)
(-0.831286 0.387744 0)
(-0.785035 0.384854 0)
(-0.743237 0.378805 0)
(-0.707419 0.373759 0)
(-0.674434 0.366426 0)
(-0.645605 0.3599 0)
(-0.619496 0.35288 0)
(-0.595328 0.344922 0)
(-0.574732 0.33898 0)
(-0.554008 0.330039 0)
(-2.25871 -0.534324 0)
(-1.90403 -0.174482 0)
(-1.65316 0.032706 0)
(-1.46568 0.157754 0)
(-1.32003 0.235198 0)
(-1.2034 0.284132 0)
(-1.10755 0.314632 0)
(-1.02766 0.333787 0)
(-0.959344 0.344458 0)
(-0.901178 0.350665 0)
(-0.849702 0.352016 0)
(-0.805594 0.352276 0)
(-0.765278 0.349023 0)
(-0.730692 0.346296 0)
(-0.698489 0.341071 0)
(-0.670308 0.336341 0)
(-0.644601 0.330912 0)
(-0.620669 0.324427 0)
(-0.600269 0.319666 0)
(-0.579525 0.311976 0)
(-2.05923 -0.671447 0)
(-1.7792 -0.283782 0)
(-1.57413 -0.057564 0)
(-1.41639 0.0812664 0)
(-1.29087 0.169078 0)
(-1.18834 0.226062 0)
(-1.10259 0.262997 0)
(-1.03012 0.287363 0)
(-0.967285 0.30239 0)
(-0.913298 0.312203 0)
(-0.864916 0.316697 0)
(-0.82326 0.319569 0)
(-0.784704 0.318691 0)
(-0.751566 0.317932 0)
(-0.720366 0.314547 0)
(-0.692972 0.311374 0)
(-0.667869 0.307368 0)
(-0.644227 0.302189 0)
(-0.624236 0.298525 0)
(-0.603406 0.291967 0)
(-1.84864 -0.7683 0)
(-1.64549 -0.366034 0)
(-1.48776 -0.128943 0)
(-1.36088 0.0181744 0)
(-1.25632 0.1126 0)
(-1.16853 0.174912 0)
(-1.09341 0.216291 0)
(-1.02879 0.244356 0)
(-0.97179 0.262586 0)
(-0.922277 0.2751 0)
(-0.877242 0.28203 0)
(-0.838256 0.286945 0)
(-0.801644 0.287993 0)
(-0.770133 0.288834 0)
(-0.740053 0.286992 0)
(-0.713627 0.285144 0)
(-0.68916 0.282349 0)
(-0.666042 0.278341 0)
(-0.646397 0.275593 0)
(-0.625807 0.270088 0)
(-1.63395 -0.824439 0)
(-1.50777 -0.420667 0)
(-1.39754 -0.181066 0)
(-1.3017 -0.031099 0)
(-1.2183 0.066094 0)
(-1.14545 0.13102 0)
(-1.08113 0.174814 0)
(-1.0245 0.205062 0)
(-0.973492 0.225323 0)
(-0.928581 0.239623 0)
(-0.887024 0.248269 0)
(-0.850806 0.254641 0)
(-0.816266 0.257153 0)
(-0.786438 0.259207 0)
(-0.757631 0.258604 0)
(-0.732161 0.257816 0)
(-0.708539 0.256035 0)
(-0.685838 0.253018 0)
(-0.666807 0.251076 0)
(-0.646262 0.246531 0)
(-1.4221 -0.840252 0)
(-1.37076 -0.448046 0)
(-1.30686 -0.213982 0)
(-1.24133 -0.0666379 0)
(-1.17868 0.0296086 0)
(-1.12049 0.09442 0)
(-1.0668 0.138649 0)
(-1.01808 0.169561 0)
(-0.973004 0.190697 0)
(-0.932673 0.205873 0)
(-0.894587 0.215524 0)
(-0.861162 0.222782 0)
(-0.828686 0.226308 0)
(-0.800623 0.229202 0)
(-0.773026 0.229545 0)
(-0.748684 0.229576 0)
(-0.72575 0.228605 0)
(-0.703739 0.226421 0)
(-0.685104 0.225129 0)
(-0.664888 0.221405 0)
(-1.21972 -0.817514 0)
(-1.23916 -0.449167 0)
(-1.21905 -0.228476 0)
(-1.18231 -0.0888515 0)
(-1.13932 0.00281903 0)
(-1.09508 0.0649693 0)
(-1.05153 0.107708 0)
(-1.01037 0.137852 0)
(-0.970976 0.158746 0)
(-0.935035 0.173924 0)
(-0.900314 0.183884 0)
(-0.869551 0.191463 0)
(-0.839143 0.195545 0)
(-0.8127 0.198903 0)
(-0.786443 0.199877 0)
(-0.76302 0.200475 0)
(-0.741022 0.200091 0)
(-0.719453 0.198582 0)
(-0.701461 0.197777 0)
(-0.681485 0.194811 0)
(-1.03325 -0.758922 0)
(-1.11727 -0.425869 0)
(-1.13728 -0.225714 0)
(-1.12684 -0.098643 0)
(-1.10194 -0.0148435 0)
(-1.07051 0.0422168 0)
(-1.0363 0.081709 0)
(-1.0021 0.109729 0)
(-0.967964 0.129357 0)
(-0.936103 0.143727 0)
(-0.904484 0.153371 0)
(-0.876257 0.160763 0)
(-0.847697 0.165012 0)
(-0.822913 0.168499 0)
(-0.797727 0.169865 0)
(-0.775413 0.170797 0)
(-0.754035 0.170854 0)
(-0.733121 0.169859 0)
(-0.715594 0.169456 0)
(-0.69576 0.167149 0)
(-0.868237 -0.668039 0)
(-1.00911 -0.380662 0)
(-1.06436 -0.207449 0)
(-1.07715 -0.0972093 0)
(-1.06814 -0.0242796 0)
(-1.04804 0.025566 0)
(-1.02207 0.0602067 0)
(-0.99403 0.0849067 0)
(-0.964555 0.102327 0)
(-0.936286 0.115155 0)
(-0.907463 0.123886 0)
(-0.881406 0.130614 0)
(-0.854617 0.134626 0)
(-0.831131 0.137928 0)
(-0.807137 0.139394 0)
(-0.785567 0.140459 0)
(-0.764986 0.140741 0)
(-0.744555 0.140114 0)
(-0.727417 0.13995 0)
(-0.708117 0.138114 0)
(-0.72991 -0.549758 0)
(-0.918153 -0.316548 0)
(-1.00285 -0.175891 0)
(-1.03499 -0.086112 0)
(-1.03931 -0.0266129 0)
(-1.02867 0.0141696 0)
(-1.00962 0.0426057 0)
(-0.986746 0.0629481 0)
(-0.961186 0.0773775 0)
(-0.935977 0.088044 0)
(-0.909466 0.0953899 0)
(-0.885353 0.101063 0)
(-0.859927 0.10455 0)
(-0.837752 0.107408 0)
(-0.814548 0.108789 0)
(-0.79383 0.10982 0)
(-0.773807 0.110183 0)
(-0.753721 0.10987 0)
(-0.737205 0.109817 0)
(-0.717691 0.108627 0)
(-0.622313 -0.408921 0)
(-0.847232 -0.237311 0)
(-0.954795 -0.133492 0)
(-1.00198 -0.0672149 0)
(-1.01663 -0.0231756 0)
(-1.01335 0.00704994 0)
(-0.999666 0.0281787 0)
(-0.980808 0.0433278 0)
(-0.958297 0.0541112 0)
(-0.935422 0.0621031 0)
(-0.910769 0.0676458 0)
(-0.888042 0.0719312 0)
(-0.863828 0.0746163 0)
(-0.842476 0.0767987 0)
(-0.820075 0.0779324 0)
(-0.799917 0.0787281 0)
(-0.780292 0.0791318 0)
(-0.760788 0.0788726 0)
(-0.744226 0.0789847 0)
(-0.725413 0.0779555 0)
(-0.548729 -0.252006 0)
(-0.798787 -0.146796 0)
(-0.921814 -0.0832444 0)
(-0.979276 -0.0425387 0)
(-1.00097 -0.0155142 0)
(-1.00271 0.00308539 0)
(-0.992702 0.0160948 0)
(-0.976597 0.0254447 0)
(-0.95617 0.0321154 0)
(-0.934947 0.0370723 0)
(-0.911516 0.0405233 0)
(-0.889868 0.0432061 0)
(-0.866364 0.0448846 0)
(-0.84574 0.0462876 0)
(-0.823804 0.0469699 0)
(-0.804011 0.047551 0)
(-0.784893 0.0477191 0)
(-0.765293 0.047697 0)
(-0.749399 0.0476498 0)
(-0.730171 0.0472373 0)
(-0.511455 -0.0848731 0)
(-0.774017 -0.0495279 0)
(-0.905056 -0.0280985 0)
(-0.96768 -0.0143659 0)
(-0.992984 -0.00523817 0)
(-0.997265 0.00104739 0)
(-0.989126 0.00545188 0)
(-0.974407 0.00861957 0)
(-0.955042 0.0108893 0)
(-0.934606 0.0125737 0)
(-0.911838 0.013765 0)
(-0.890636 0.0146729 0)
(-0.86758 0.0152806 0)
(-0.847245 0.0157342 0)
(-0.825555 0.0160206 0)
(-0.806112 0.0161631 0)
(-0.78695 0.0162683 0)
(-0.767919 0.016165 0)
(-0.75174 0.016153 0)
(-0.733115 0.0158275 0)
(-0.511376 0.0854093 0)
(-0.774126 0.0500454 0)
(-0.904986 0.028655 0)
(-0.967658 0.0150056 0)
(-0.992935 0.0059033 0)
(-0.997222 -0.000333749 0)
(-0.989084 -0.00470934 0)
(-0.974371 -0.00784148 0)
(-0.955003 -0.0100786 0)
(-0.934591 -0.0117291 0)
(-0.911802 -0.0128845 0)
(-0.890646 -0.0137594 0)
(-0.867557 -0.0143278 0)
(-0.847246 -0.0147615 0)
(-0.825601 -0.0150042 0)
(-0.80605 -0.0151739 0)
(-0.787172 -0.0152332 0)
(-0.76782 -0.0152788 0)
(-0.75227 -0.0152374 0)
(-0.733245 -0.015352 0)
(-0.548482 0.251811 0)
(-0.798568 0.147366 0)
(-0.92169 0.0837459 0)
(-0.979143 0.043203 0)
(-1.00088 0.016177 0)
(-1.00261 -0.00236418 0)
(-0.992616 -0.015351 0)
(-0.976498 -0.0246645 0)
(-0.956068 -0.0313021 0)
(-0.934808 -0.0362225 0)
(-0.911389 -0.0396336 0)
(-0.889676 -0.0422714 0)
(-0.866208 -0.0439101 0)
(-0.84553 -0.0452425 0)
(-0.823604 -0.0459076 0)
(-0.803885 -0.0463445 0)
(-0.784665 -0.0465603 0)
(-0.76538 -0.046217 0)
(-0.74933 -0.0463093 0)
(-0.730571 -0.0451723 0)
(-0.621804 0.409117 0)
(-0.846863 0.23788 0)
(-0.954553 0.134092 0)
(-1.00177 0.0678859 0)
(-1.01646 0.0238659 0)
(-1.01317 -0.00632123 0)
(-0.999503 -0.0274314 0)
(-0.98064 -0.0425515 0)
(-0.95812 -0.0533141 0)
(-0.935251 -0.0612771 0)
(-0.910554 -0.0667977 0)
(-0.887858 -0.0710453 0)
(-0.863552 -0.0737039 0)
(-0.842249 -0.0758324 0)
(-0.819729 -0.0769197 0)
(-0.799578 -0.0776448 0)
(-0.779875 -0.0779509 0)
(-0.760264 -0.0776061 0)
(-0.743644 -0.0775625 0)
(-0.724662 -0.0764402 0)
(-0.729248 0.550223 0)
(-0.917639 0.31729 0)
(-1.00255 0.176524 0)
(-1.03473 0.0868395 0)
(-1.03911 0.0273207 0)
(-1.02847 -0.0134267 0)
(-1.00943 -0.0418536 0)
(-0.986539 -0.0621732 0)
(-0.960966 -0.0765808 0)
(-0.935718 -0.087223 0)
(-0.909194 -0.0945372 0)
(-0.885008 -0.100183 0)
(-0.859577 -0.103629 0)
(-0.837303 -0.106458 0)
(-0.814071 -0.107793 0)
(-0.793285 -0.108784 0)
(-0.773098 -0.109109 0)
(-0.75308 -0.108733 0)
(-0.736134 -0.108648 0)
(-0.716864 -0.107362 0)
(-0.867664 0.668902 0)
(-1.00858 0.38144 0)
(-1.06405 0.208184 0)
(-1.07683 0.097963 0)
(-1.0679 0.0250156 0)
(-1.04778 -0.0248067 0)
(-1.02183 -0.0594519 0)
(-0.993769 -0.0841359 0)
(-0.964279 -0.101553 0)
(-0.935998 -0.114371 0)
(-0.907124 -0.123098 0)
(-0.88107 -0.129816 0)
(-0.854174 -0.133825 0)
(-0.830722 -0.137117 0)
(-0.806546 -0.138574 0)
(-0.78503 -0.139639 0)
(-0.764225 -0.139896 0)
(-0.743797 -0.139314 0)
(-0.726472 -0.139096 0)
(-0.707035 -0.137415 0)
(-1.03269 0.759884 0)
(-1.11679 0.42675 0)
(-1.13696 0.226505 0)
(-1.12655 0.099433 0)
(-1.10169 0.015606 0)
(-1.07026 -0.0414528 0)
(-1.03605 -0.0809526 0)
(-1.00183 -0.10897 0)
(-0.967679 -0.128596 0)
(-0.935784 -0.142963 0)
(-0.904137 -0.152598 0)
(-0.875853 -0.15999 0)
(-0.847267 -0.164223 0)
(-0.822396 -0.167724 0)
(-0.797186 -0.169062 0)
(-0.774771 -0.170036 0)
(-0.75334 -0.170052 0)
(-0.73237 -0.169133 0)
(-0.714697 -0.168673 0)
(-0.69495 -0.166457 0)
(-1.21935 0.818579 0)
(-1.23872 0.450076 0)
(-1.21876 0.2293 0)
(-1.18199 0.0896708 0)
(-1.13906 -0.0020467 0)
(-1.0948 -0.0641884 0)
(-1.05126 -0.106952 0)
(-1.01007 -0.137094 0)
(-0.970665 -0.158003 0)
(-0.934701 -0.173189 0)
(-0.899938 -0.183162 0)
(-0.869161 -0.190759 0)
(-0.838675 -0.194854 0)
(-0.812241 -0.198243 0)
(-0.785853 -0.199227 0)
(-0.762481 -0.199878 0)
(-0.740299 -0.199488 0)
(-0.718809 -0.19807 0)
(-0.700634 -0.197233 0)
(-0.680686 -0.19441 0)
(-1.42178 0.841339 0)
(-1.37042 0.448958 0)
(-1.30659 0.214848 0)
(-1.24107 0.0674584 0)
(-1.17844 -0.0288193 0)
(-1.12023 -0.0936476 0)
(-1.06654 -0.1379 0)
(-1.0178 -0.168824 0)
(-0.97271 -0.189978 0)
(-0.932353 -0.205168 0)
(-0.894241 -0.214834 0)
(-0.860781 -0.222113 0)
(-0.828278 -0.225649 0)
(-0.800165 -0.228578 0)
(-0.772553 -0.228926 0)
(-0.748143 -0.22901 0)
(-0.725216 -0.228038 0)
(-0.703123 -0.225927 0)
(-0.684509 -0.224629 0)
(-0.664237 -0.220987 0)
(-1.63376 0.82547 0)
(-1.50747 0.421591 0)
(-1.39731 0.181915 0)
(-1.30143 0.0319365 0)
(-1.21806 -0.0653096 0)
(-1.14519 -0.130238 0)
(-1.08087 -0.174067 0)
(-1.02423 -0.204325 0)
(-0.973199 -0.224613 0)
(-0.928267 -0.238932 0)
(-0.886684 -0.247602 0)
(-0.850447 -0.254006 0)
(-0.815866 -0.256541 0)
(-0.786034 -0.258642 0)
(-0.75716 -0.258054 0)
(-0.731719 -0.257339 0)
(-0.707996 -0.255548 0)
(-0.685369 -0.252641 0)
(-0.666206 -0.250649 0)
(-0.645763 -0.246253 0)
(-1.84848 0.769321 0)
(-1.64529 0.366908 0)
(-1.48757 0.129805 0)
(-1.36066 -0.0173571 0)
(-1.25611 -0.111815 0)
(-1.16831 -0.174146 0)
(-1.09318 -0.215558 0)
(-1.02854 -0.243642 0)
(-0.971529 -0.261903 0)
(-0.921998 -0.274441 0)
(-0.876946 -0.2814 0)
(-0.837941 -0.286346 0)
(-0.801313 -0.287423 0)
(-0.76978 -0.288304 0)
(-0.739693 -0.286493 0)
(-0.713234 -0.284688 0)
(-0.688785 -0.281932 0)
(-0.665608 -0.277959 0)
(-0.646022 -0.275269 0)
(-0.62534 -0.269782 0)
(-2.05913 0.672366 0)
(-1.779 0.284656 0)
(-1.57396 0.0583926 0)
(-1.41618 -0.0804441 0)
(-1.29067 -0.168303 0)
(-1.18812 -0.225293 0)
(-1.10237 -0.262267 0)
(-1.02988 -0.286647 0)
(-0.967042 -0.301708 0)
(-0.913041 -0.311544 0)
(-0.864647 -0.316069 0)
(-0.822981 -0.318976 0)
(-0.784409 -0.318124 0)
(-0.751271 -0.317418 0)
(-0.720048 -0.314046 0)
(-0.692672 -0.310953 0)
(-0.667529 -0.30693 0)
(-0.643939 -0.301871 0)
(-0.623883 -0.298147 0)
(-0.60314 -0.29174 0)
(-2.25862 0.535229 0)
(-1.9039 0.175296 0)
(-1.653 -0.0318799 0)
(-1.46552 -0.156959 0)
(-1.31985 -0.234431 0)
(-1.20322 -0.28338 0)
(-1.10736 -0.313917 0)
(-1.02746 -0.33309 0)
(-0.959135 -0.343797 0)
(-0.90096 -0.350029 0)
(-0.849478 -0.351417 0)
(-0.805363 -0.351708 0)
(-0.765043 -0.348494 0)
(-0.730449 -0.345799 0)
(-0.698249 -0.340626 0)
(-0.670054 -0.335916 0)
(-0.644367 -0.330561 0)
(-0.620403 -0.324077 0)
(-0.60005 -0.31941 0)
(-0.579245 -0.311718 0)
(-2.4402 0.359586 0)
(-2.01517 0.0401958 0)
(-1.72137 -0.140006 0)
(-1.50614 -0.24605 0)
(-1.34182 -0.309522 0)
(-1.21219 -0.347821 0)
(-1.10709 -0.370014 0)
(-1.02044 -0.382537 0)
(-0.947192 -0.38779 0)
(-0.885288 -0.389558 0)
(-0.831099 -0.387131 0)
(-0.78485 -0.384277 0)
(-0.743054 -0.378251 0)
(-0.707246 -0.373261 0)
(-0.674263 -0.365933 0)
(-0.645458 -0.359493 0)
(-0.619344 -0.352452 0)
(-0.595217 -0.344609 0)
(-0.574608 -0.338632 0)
(-0.553946 -0.329783 0)
(-2.59734 0.148384 0)
(-2.10844 -0.118655 0)
(-1.77584 -0.264394 0)
(-1.53577 -0.346535 0)
(-1.35482 -0.392595 0)
(-1.21375 -0.41784 0)
(-1.10058 -0.429906 0)
(-1.00812 -0.434452 0)
(-0.930681 -0.433237 0)
(-0.865648 -0.429747 0)
(-0.809246 -0.422902 0)
(-0.761264 -0.416388 0)
(-0.718341 -0.407203 0)
(-0.681592 -0.399535 0)
(-0.648085 -0.389907 0)
(-0.618845 -0.381389 0)
(-0.592517 -0.372687 0)
(-0.568322 -0.36315 0)
(-0.54764 -0.355952 0)
(-0.52716 -0.345785 0)
(-2.72395 -0.0946395 0)
(-2.17951 -0.298393 0)
(-1.81351 -0.402994 0)
(-1.55223 -0.456748 0)
(-1.35731 -0.482376 0)
(-1.20671 -0.492377 0)
(-1.08696 -0.492743 0)
(-0.989821 -0.488118 0)
(-0.909113 -0.479536 0)
(-0.841686 -0.470095 0)
(-0.783682 -0.45828 0)
(-0.734473 -0.447705 0)
(-0.690849 -0.43498 0)
(-0.653529 -0.424446 0)
(-0.619799 -0.412189 0)
(-0.590425 -0.401583 0)
(-0.564081 -0.390901 0)
(-0.540091 -0.379741 0)
(-0.519468 -0.371119 0)
(-0.499442 -0.359509 0)
(-2.81481 -0.364502 0)
(-2.22475 -0.495617 0)
(-1.83178 -0.553185 0)
(-1.55369 -0.574774 0)
(-1.34789 -0.577315 0)
(-1.19007 -0.570239 0)
(-1.06547 -0.557541 0)
(-0.96501 -0.542749 0)
(-0.882098 -0.526044 0)
(-0.81313 -0.510059 0)
(-0.754222 -0.492847 0)
(-0.70435 -0.477812 0)
(-0.660505 -0.461337 0)
(-0.622992 -0.447611 0)
(-0.589388 -0.432684 0)
(-0.560122 -0.419694 0)
(-0.534042 -0.407068 0)
(-0.510388 -0.394118 0)
(-0.490038 -0.383979 0)
(-0.47048 -0.371138 0)
(-2.86512 -0.655642 0)
(-2.24108 -0.706281 0)
(-1.82847 -0.712039 0)
(-1.53855 -0.69829 0)
(-1.32543 -0.675651 0)
(-1.163 -0.649983 0)
(-1.03551 -0.623163 0)
(-0.933253 -0.597404 0)
(-0.849342 -0.571989 0)
(-0.779798 -0.549024 0)
(-0.720771 -0.52606 0)
(-0.670888 -0.506349 0)
(-0.627356 -0.485868 0)
(-0.590122 -0.4689 0)
(-0.557005 -0.451079 0)
(-0.528225 -0.435746 0)
(-0.502629 -0.421038 0)
(-0.479649 -0.406247 0)
(-0.459714 -0.394715 0)
(-0.440983 -0.380264 0)
(-2.87148 -0.961615 0)
(-2.226 -0.925819 0)
(-1.80192 -0.87617 0)
(-1.50565 -0.824799 0)
(-1.2891 -0.775404 0)
(-1.12489 -0.730092 0)
(-0.996674 -0.688376 0)
(-0.894268 -0.651107 0)
(-0.81066 -0.616583 0)
(-0.741576 -0.586321 0)
(-0.683278 -0.557412 0)
(-0.634062 -0.532803 0)
(-0.59143 -0.508261 0)
(-0.554921 -0.487857 0)
(-0.522735 -0.467168 0)
(-0.494715 -0.449369 0)
(-0.469974 -0.432542 0)
(-0.447813 -0.416014 0)
(-0.428586 -0.402807 0)
(-0.410703 -0.387192 0)
(-2.83109 -1.27546 0)
(-2.17786 -1.14941 0)
(-1.75093 -1.04201 0)
(-1.45419 -0.951547 0)
(-1.23834 -0.874475 0)
(-1.07538 -0.808875 0)
(-0.94872 -0.751853 0)
(-0.847923 -0.702779 0)
(-0.765998 -0.658953 0)
(-0.698479 -0.621274 0)
(-0.641793 -0.586319 0)
(-0.593987 -0.556801 0)
(-0.552833 -0.528129 0)
(-0.51759 -0.504348 0)
(-0.486695 -0.480748 0)
(-0.459868 -0.460516 0)
(-0.436184 -0.441656 0)
(-0.415205 -0.423247 0)
(-0.396822 -0.408688 0)
(-0.380093 -0.391559 0)
(-2.7425 -1.5899 0)
(-2.09569 -1.37177 0)
(-1.67495 -1.20574 0)
(-1.38381 -1.07569 0)
(-1.17296 -0.970647 0)
(-1.01438 -0.884626 0)
(-0.891631 -0.812229 0)
(-0.79425 -0.751338 0)
(-0.715429 -0.698232 0)
(-0.650598 -0.653159 0)
(-0.59645 -0.612226 0)
(-0.550781 -0.577815 0)
(-0.511754 -0.545111 0)
(-0.478244 -0.517964 0)
(-0.449138 -0.491538 0)
(-0.423798 -0.468948 0)
(-0.401558 -0.448014 0)
(-0.381983 -0.427962 0)
(-0.364691 -0.411807 0)
(-0.3494 -0.393506 0)
(2.97663 -0.222032 0)
(2.91792 -0.661709 0)
(2.80166 -1.08967 0)
(2.63016 -1.49719 0)
(2.40704 -1.87646 0)
(2.13712 -2.22059 0)
(1.82606 -2.52345 0)
(1.48044 -2.77987 0)
(1.10739 -2.98572 0)
(0.714686 -3.13799 0)
(0.310274 -3.23485 0)
(-0.0976225 -3.27573 0)
(-0.500913 -3.26121 0)
(-0.891732 -3.19323 0)
(-1.26256 -3.07468 0)
(-1.6066 -2.90971 0)
(-1.91766 -2.7033 0)
(-2.19048 -2.46132 0)
(-2.42091 -2.19032 0)
(-2.60561 -1.89736 0)
(2.18615 -0.165835 0)
(2.14337 -0.495012 0)
(2.05861 -0.815259 0)
(1.93347 -1.1208 0)
(1.77062 -1.40615 0)
(1.57338 -1.66632 0)
(1.34585 -1.89689 0)
(1.09262 -2.09408 0)
(0.818858 -2.25489 0)
(0.530001 -2.37708 0)
(0.231818 -2.45931 0)
(-0.0699254 -2.50104 0)
(-0.369381 -2.50267 0)
(-0.660955 -2.46538 0)
(-0.939276 -2.39126 0)
(-1.19941 -2.28307 0)
(-1.43695 -2.14431 0)
(-1.64807 -1.97906 0)
(-1.82967 -1.79189 0)
(-1.97939 -1.5877 0)
(1.66503 -0.129095 0)
(1.63242 -0.385491 0)
(1.56789 -0.635262 0)
(1.47271 -0.874023 0)
(1.34878 -1.09771 0)
(1.19857 -1.30257 0)
(1.02508 -1.48528 0)
(0.831738 -1.64299 0)
(0.622329 -1.77343 0)
(0.400927 -1.87488 0)
(0.171757 -1.94626 0)
(-0.0608394 -1.98715 0)
(-0.292566 -1.99773 0)
(-0.519219 -1.97886 0)
(-0.736809 -1.93197 0)
(-0.941641 -1.85905 0)
(-1.13039 -1.76262 0)
(-1.30019 -1.64563 0)
(-1.44866 -1.51139 0)
(-1.57399 -1.3635 0)
(1.30309 -0.103597 0)
(1.27753 -0.309666 0)
(1.22693 -0.510573 0)
(1.15227 -0.703 0)
(1.05499 -0.883806 0)
(0.936976 -1.0501 0)
(0.800515 -1.1993 0)
(0.648211 -1.32921 0)
(0.482968 -1.43803 0)
(0.307874 -1.52441 0)
(0.126188 -1.58749 0)
(-0.0587979 -1.62686 0)
(-0.243764 -1.64265 0)
(-0.425505 -1.63541 0)
(-0.600937 -1.60621 0)
(-0.767218 -1.55648 0)
(-0.921769 -1.4881 0)
(-1.06236 -1.40325 0)