/*--------------------------------*- C++ -*----------------------------------*\
| =========                 |                                                 |
| \\      /  F ield         | OpenFOAM: The Open Source CFD Toolbox           |
|  \\    /   O peration     | Version:  2.2.0                                 |
|   \\  /    A nd           | Web:      www.OpenFOAM.org                      |
|    \\/     M anipulation  |                                                 |
\*---------------------------------------------------------------------------*/
FoamFile
{
    version     2.0;
    format      ascii;
    class       volScalarField;
    location    "40";
    object      Theta;
}
// * * * * * * * * * * * * * * * * * * * * * * * * * * * * * * * * * * * * * //

dimensions      [0 2 -2 0 0 0 0];

internalField   nonuniform List<scalar> 
1600
(
0.348554
0.0918059
0.385536
0.32695
0.524917
0.534462
0.629673
0.697229
0.687251
0.843847
0.691807
0.997338
0.651054
1.14796
0.610385
1.23952
0.647622
1.2054
0.81047
1.04769
0.358125
0.104036
0.391449
0.335568
0.531847
0.541312
0.636068
0.703156
0.693023
0.849292
0.697143
1.00269
0.65584
1.15382
0.613808
1.24669
0.648415
1.21349
0.80905
1.05067
0.435011
0.115625
0.420874
0.350646
0.549404
0.554473
0.648887
0.713868
0.703038
0.857513
0.705348
1.00786
0.663743
1.154
0.62467
1.23755
0.66809
1.18806
0.845342
1.00097
0.447031
0.150058
0.44411
0.376355
0.571064
0.575041
0.667497
0.731082
0.719063
0.872433
0.719374
1.02131
0.675886
1.16701
0.63407
1.25193
0.672684
1.20638
0.842568
1.02588
0.501018
0.187702
0.48614
0.409181
0.602221
0.60195
0.692103
0.753009
0.739046
0.890214
0.735845
1.03533
0.689997
1.17708
0.647577
1.25718
0.687952
1.20614
0.861186
1.02216
0.528843
0.243395
0.525906
0.451528
0.637836
0.63583
0.722347
0.78113
0.764844
0.91427
0.758145
1.05657
0.709226
1.19683
0.663188
1.2775
0.697955
1.23039
0.862007
1.05515
0.60184
0.30338
0.582313
0.501182
0.681957
0.675863
0.758093
0.813725
0.794265
0.941042
0.782479
1.07857
0.729445
1.21467
0.680377
1.2912
0.713765
1.23895
0.879256
1.05572
0.64717
0.378576
0.63754
0.559083
0.73055
0.722233
0.799223
0.852112
0.829286
0.973733
0.812695
1.10719
0.755642
1.24069
0.702446
1.31667
0.730027
1.26752
0.885516
1.09366
0.745615
0.456679
0.709993
0.623743
0.787267
0.77424
0.845335
0.894408
0.867332
1.0085
0.84419
1.13586
0.781725
1.26407
0.724396
1.33461
0.750207
1.27777
0.908841
1.0906
0.801029
0.550809
0.777931
0.69597
0.84736
0.831992
0.896373
0.942212
0.91088
1.04922
0.881805
1.1715
0.814332
1.29645
0.751747
1.3664
0.769877
1.3139
0.915222
1.13865
0.926547
0.642649
0.867186
0.773298
0.916088
0.894449
0.951874
0.992979
0.956538
1.09084
0.919623
1.20559
0.846019
1.32362
0.779638
1.38554
0.798187
1.3211
0.950655
1.12813
0.98981
0.754777
0.944988
0.85848
0.985845
0.962267
1.01155
1.04911
1.00761
1.13873
0.963654
1.24765
0.883597
1.36234
0.809501
1.42487
0.816314
1.36713
0.951298
1.18598
1.13332
0.857265
1.04945
0.94599
1.0654
1.03341
1.07524
1.10699
1.05985
1.18609
1.00719
1.28615
0.921214
1.39203
0.845305
1.44341
0.856297
1.37053
1.00068
1.17403
1.21394
0.983866
1.13621
1.04217
1.14308
1.10971
1.14202
1.17009
1.11704
1.23995
1.056
1.33366
0.961393
1.43657
0.874168
1.48985
0.869394
1.42319
0.996727
1.22959
1.35611
1.09665
1.2511
1.13783
1.23134
1.18772
1.21244
1.23367
1.17482
1.29197
1.10486
1.37565
1.00544
1.46799
0.918919
1.50838
0.920004
1.42874
1.05181
1.23175
1.46668
1.23132
1.34775
1.24202
1.31558
1.27053
1.28467
1.30208
1.23645
1.35033
1.15665
1.42734
1.04629
1.5169
0.945885
1.5583
0.931569
1.47852
1.05459
1.26957
1.59505
1.35492
1.46744
1.34436
1.40969
1.35372
1.36005
1.36994
1.29857
1.40588
1.20994
1.472
1.09563
1.55023
0.996241
1.5802
0.984104
1.4947
1.10118
1.29446
1.73023
1.49216
1.57314
1.45307
1.49907
1.44068
1.43605
1.44183
1.36306
1.46715
1.26359
1.52618
1.13752
1.6007
1.02517
1.62815
1.0028
1.53499
1.11972
1.31612
1.85648
1.62338
1.69542
1.56023
1.59629
1.52735
1.51434
1.51249
1.42786
1.52506
1.31937
1.57291
1.1887
1.63656
1.07508
1.65481
1.0503
1.55916
1.15755
1.34882
1.98745
1.76173
1.80509
1.67069
1.68853
1.61617
1.59231
1.58595
1.49384
1.58747
1.37452
1.62756
1.23309
1.68614
1.10903
1.70017
1.07665
1.59802
1.18143
1.37834
2.17132
1.89334
1.93083
1.77992
1.78653
1.70435
1.67145
1.65784
1.55943
1.64657
1.43058
1.67564
1.28332
1.72314
1.15696
1.72445
1.12561
1.60541
1.237
1.35732
2.27181
2.03299
2.03942
1.89015
1.87908
1.793
1.74946
1.73104
1.62543
1.70847
1.48623
1.72935
1.32932
1.77161
1.1932
1.77098
1.15133
1.65438
1.24975
1.41628
2.40413
2.16773
2.15789
1.9991
1.9744
1.88052
1.82725
1.80246
1.69012
1.76761
1.54106
1.77866
1.37686
1.81252
1.2354
1.80456
1.18925
1.68242
1.28296
1.44312
2.52705
2.30234
2.26677
2.10647
2.06538
1.96693
1.90341
1.87364
1.75439
1.82745
1.5955
1.82984
1.42275
1.85717
1.27341
1.84456
1.21969
1.71914
1.30627
1.4766
2.64844
2.43394
2.37746
2.2119
2.15603
2.05149
1.97807
1.94277
1.81678
1.88504
1.64833
1.87853
1.46794
1.89888
1.31218
1.88094
1.25243
1.75205
1.33252
1.50823
2.77398
2.56059
2.48363
2.31392
2.24315
2.13361
2.0504
2.01018
1.87753
1.94135
1.6997
1.92618
1.51149
1.93955
1.34908
1.91574
1.28383
1.78141
1.35994
1.53159
2.88565
2.68437
2.58522
2.41271
2.3273
2.21296
2.12028
2.07533
1.93632
1.99593
1.74974
1.97268
1.55439
1.97974
1.38581
1.95117
1.31456
1.81382
1.38391
1.5632
3.00865
2.80014
2.68616
2.50699
2.40848
2.28878
2.18694
2.13721
1.99185
2.04719
1.79637
2.01557
1.59378
2.01574
1.41943
1.98098
1.34418
1.83703
1.4122
1.57789
3.10307
2.9136
2.77518
2.59667
2.48388
2.36098
2.2504
2.1969
2.04583
2.09767
1.84278
2.059
1.63387
2.05372
1.45371
2.01517
1.37206
1.86992
1.43153
1.61332
3.22526
3.01441
2.8703
2.68064
2.5577
2.42856
2.30975
2.25154
2.09453
2.14229
1.8832
2.09566
1.66792
2.08357
1.48348
2.03804
1.4006
1.88376
1.46332
1.61439
3.2923
3.11688
2.94154
2.75953
2.62152
2.49201
2.36509
2.30454
2.14253
2.18774
1.92496
2.13544
1.70381
2.11945
1.51271
2.07275
1.42061
1.92172
1.47011
1.66028
3.41617
3.19832
3.03152
2.83049
2.68731
2.54944
2.41593
2.3504
2.18321
2.2244
1.95847
2.16459
1.73301
2.14124
1.5414
2.08498
1.45415
1.92011
1.51372
1.64238
3.45265
3.28856
3.08068
2.89735
2.7367
2.60287
2.46134
2.39553
2.22375
2.26377
1.99361
2.20003
1.76111
2.17567
1.55889
2.12347
1.45593
1.96813
1.49741
1.69911
3.56738
3.34988
3.1635
2.9533
2.79374
2.64852
2.50296
2.43146
2.25613
2.29166
2.02126
2.22059
1.78919
2.18686
1.5942
2.12042
1.50496
1.94789
1.5591
1.67017
3.5917
3.42093
3.1924
3.00588
2.82729
2.69061
2.53679
2.46743
2.28715
2.32367
2.04627
2.25123
1.80304
2.22136
1.58991
2.16528
1.4787
2.00275
1.52035
1.71773
3.6631
3.46971
3.25878
3.04739
2.87317
2.72367
2.5686
2.49278
2.31184
2.34225
2.07068
2.26181
1.83568
2.21909
1.63935
2.14611
1.54523
1.97494
1.58521
1.7087
3.71316
3.50771
3.2771
3.08112
2.89233
2.7525
2.59
2.51821
2.33135
2.36596
2.08207
2.2877
1.83034
2.25378
1.61071
2.19124
1.50072
2.01407
1.55424
1.70879
3.70288
3.55511
3.31418
3.11099
2.92285
2.77324
2.61089
2.53278
2.34858
2.37482
2.10418
2.28789
1.86715
2.24073
1.66595
2.16988
1.55842
2.01016
1.57829
1.75522
3.80053
3.55119
3.32956
3.12189
2.93014
2.78687
2.62015
2.54651
2.35621
2.38925
2.10269
2.30672
1.84846
2.26708
1.63133
2.1934
1.53194
1.99989
1.59879
1.68551
3.70914
3.59552
3.33491
3.14031
2.94281
2.79544
2.62872
2.55043
2.3643
2.38938
2.11763
2.30097
1.87649
2.25579
1.66669
2.192
1.54661
2.04052
1.55779
1.78607
3.83684
3.56084
3.33956
3.13025
2.93774
2.79362
2.62634
2.55179
2.36179
2.39292
2.10898
2.30791
1.85729
2.26461
1.64337
2.18762
1.54441
1.99173
1.61007
1.66276
3.75811
3.58167
3.32751
3.13216
2.93418
2.78886
2.62197
2.54512
2.35838
2.38559
2.11096
2.29901
1.86816
2.25424
1.65959
2.18391
1.55032
2.01275
1.58473
1.72636
3.68457
3.54334
3.29994
3.10696
2.91406
2.773
2.60802
2.5345
2.347
2.37855
2.09775
2.2961
1.84942
2.25721
1.63486
2.19356
1.52275
2.03188
1.55252
1.77286
3.67301
3.5291
3.27852
3.08876
2.8958
2.75397
2.5909
2.51681
2.33185
2.36289
2.08638
2.2819
1.84341
2.24304
1.63405
2.17843
1.52477
2.01472
1.55635
1.7475
3.61589
3.47594
3.23388
3.04907
2.8625
2.72493
2.56587
2.49481
2.31177
2.34579
2.06837
2.26894
1.82522
2.23465
1.61447
2.17537
1.50368
2.01718
1.53388
1.75423
3.58844
3.43128
3.19744
3.01105
2.82956
2.69182
2.53653
2.46618
2.28598
2.32113
2.04633
2.24745
1.80723
2.21489
1.60093
2.15504
1.49565
1.99287
1.53411
1.72091
3.51366
3.36333
3.13833
2.95744
2.78412
2.65043
2.50082
2.43358
2.25704
2.29492
2.02209
2.22618
1.78626
2.19789
1.58221
2.1424
1.47799
1.98566
1.51507
1.72205
3.46964
3.29312
3.08582
2.90155
2.73723
2.60427
2.46016
2.39466
2.22175
2.26157
1.99142
2.19707
1.75978
2.17158
1.56012
2.11666
1.46192
1.95656
1.50932
1.68287
3.3689
3.21174
3.01136
2.83496
2.67983
2.55154
2.41424
2.35244
2.18426
2.22732
1.96047
2.16907
1.73402
2.14893
1.53818
2.0996
1.44134
1.9476
1.48491
1.68814
3.31652
3.11896
2.94565
2.76336
2.62079
2.49372
2.36341
2.30419
2.1404
2.18598
1.92231
2.13278
1.70087
2.11588
1.51051
2.06692
1.42189
1.9099
1.47983
1.63717
3.18691
3.02673
2.85445
2.6854
2.55154
2.43101
2.30807
2.25359
2.0952
2.14484
1.88505
2.09936
1.66965
2.08957
1.48271
2.0491
1.39283
1.90504
1.44217
1.65163
3.12901
2.9136
2.77911
2.60001
2.48266
2.36299
2.24849
2.19708
2.04381
2.09639
1.84057
2.05657
1.63177
2.0498
1.45316
2.00794
1.37632
1.8557
1.4451
1.58863
2.97965
2.81273
2.67219
2.51281
2.40238
2.29197
2.1848
2.13948
1.9919
2.04951
1.79739
2.01878
1.59416
2.02132
1.41636
1.99174
1.33353
1.85644
1.39077
1.60621
2.90496
2.68359
2.58826
2.41579
2.32566
2.21534
2.11812
2.07605
1.9345
1.99515
1.74847
1.97043
1.55458
1.97514
1.38968
1.9421
1.32501
1.79862
1.40131
1.54494
2.7588
2.57338
2.47098
2.32114
2.2365
2.13777
2.04753
2.01283
1.8768
1.94358
1.69946
1.92924
1.50934
1.94552
1.34163
1.92718
1.26845
1.79823
1.3392
1.54663
2.64902
2.43602
2.3763
2.21571
2.15311
2.0545
1.97545
1.9441
1.81521
1.88473
1.64828
1.87648
1.47067
1.89421
1.31948
1.87303
1.26413
1.74382
1.34297
1.50805
2.52537
2.31414
2.25615
2.1146
2.05842
1.9719
1.89987
1.8766
1.75291
1.82954
1.59417
1.83266
1.41881
1.86293
1.26404
1.85437
1.20517
1.72944
1.29309
1.47864
2.37897
2.17572
2.14986
2.0047
1.96934
1.88444
1.82398
1.80443
1.68869
1.76785
1.54169
1.77744
1.37994
1.81042
1.24016
1.80445
1.19095
1.69124
1.27301
1.4678
2.271
2.0441
2.03037
1.89848
1.87235
1.79829
1.74564
1.73401
1.62369
1.71005
1.48509
1.73087
1.32678
1.77461
1.18767
1.77584
1.14376
1.65869
1.2439
1.4175
2.11465
1.9058
1.91779
1.78702
1.77975
1.70904
1.66761
1.66039
1.55782
1.6476
1.43047
1.67639
1.28336
1.7262
1.15396
1.73515
1.11335
1.63258
1.20666
1.41249
0.276079
0.351455
0.4137
0.428228
0.480929
0.513181
0.584185
0.635568
0.7292
0.79452
0.909699
0.988634
1.11629
1.21522
1.34312
1.46421
1.59192
1.71988
1.86337
1.97479
0.100571
0.105348
0.124377
0.156397
0.196675
0.251363
0.312232
0.386495
0.46545
0.557745
0.651799
0.760226
0.867158
0.988282
1.10667
1.23661
1.36371
1.50037
1.63146
1.77277
0.375443
0.391449
0.411306
0.4384
0.476794
0.51847
0.573318
0.630397
0.701142
0.772198
0.857889
0.941182
1.03929
1.13378
1.24064
1.34469
1.45794
1.56734
1.68633
1.7967
0.32865
0.3367
0.353807
0.379525
0.413198
0.455734
0.505656
0.563694
0.628498
0.700664
0.778439
0.863097
0.951798
1.04679
1.14439
1.24719
1.35131
1.45956
1.56723
1.67856
0.522771
0.531188
0.545962
0.568269
0.598125
0.634026
0.67758
0.72651
0.782723
0.84352
0.911211
0.98238
1.05989
1.13985
1.2251
1.312
1.403
1.49434
1.58947
1.6825
0.534999
0.541902
0.555833
0.57653
0.60385
0.637862
0.678108
0.724574
0.776762
0.834556
0.897328
0.965062
1.03682
1.11282
1.1918
1.27413
1.35835
1.44503
1.53221
1.62123
0.629279
0.635413
0.647709
0.666042
0.690434
0.720468
0.756169
0.797157
0.843281
0.894202
0.949658
1.00926
1.07269
1.13957
1.20937
1.28196
1.35643
1.4329
1.51042
1.58869
0.697756
0.703239
0.714758
0.731662
0.75408
0.781999
0.81492
0.853125
0.895777
0.943311
0.994627
1.05032
1.10902
1.1715
1.2361
1.30381
1.3727
1.44397
1.51532
1.58855
0.687481
0.692292
0.702811
0.718112
0.738508
0.763835
0.793587
0.828219
0.866641
0.909682
0.955859
1.00625
1.05905
1.11558
1.17368
1.23507
1.29696
1.36178
1.42603
1.49237
0.844921
0.849035
0.858711
0.872721
0.891293
0.914755
0.942033
0.974214
1.00954
1.04959
1.09207
1.13899
1.18754
1.24014
1.29362
1.35048
1.40765
1.46732
1.52666
1.58815
0.692183
0.696047
0.705306
0.718229
0.735588
0.757194
0.782194
0.81183
0.844022
0.880885
0.919593
0.962711
1.00708
1.05538
1.10425
1.15683
1.20867
1.26443
1.3182
1.37469
0.999873
1.0023
1.01023
1.022
1.03721
1.05744
1.08011
1.10788
1.13729
1.17183
1.2071
1.24756
1.28783
1.33306
1.37758
1.42605
1.47416
1.52444
1.57468
1.62702
0.650526
0.654152
0.662808
0.673795
0.689038
0.707505
0.728659
0.754208
0.781235
0.813055
0.845719
0.882722
0.920552
0.96174
1.00355
1.04869
1.09246
1.14091
1.18629
1.23397
1.15418
1.15349
1.15893
1.16917
1.18084
1.19912
1.2177
1.24247
1.26675
1.29745
1.32632
1.36236
1.39509
1.43521
1.4718
1.5138
1.55462
1.59713
1.64005
1.6857
0.606169
0.611611
0.620895
0.630058
0.644408
0.659595
0.677813
0.699468
0.722408
0.749424
0.777765
0.808521
0.842337
0.875992
0.913471
0.951229
0.98908
1.03075
1.06997
1.10862
1.25449
1.24658
1.24708
1.25709
1.26439
1.28266
1.29714
1.32071
1.33988
1.36887
1.39087
1.42522
1.44966
1.48743
1.51597
1.55347
1.58771
1.6245
1.66005
1.70239
0.633793
0.646106
0.658726
0.665457
0.680509
0.691069
0.707637
0.724334
0.745015
0.765841
0.79282
0.815239
0.848816
0.872975
0.909323
0.938955
0.973231
1.00741
1.04363
1.07188
1.23904
1.21446
1.20395
1.21667
1.2187
1.24003
1.24963
1.27499
1.28746
1.31841
1.33112
1.36783
1.38193
1.42015
1.44053
1.4746
1.50287
1.53597
1.56236
1.60569
0.776401
0.806133
0.828383
0.830331
0.84744
0.850463
0.867587
0.876231
0.898384
0.909204
0.939613
0.950077
0.987244
1.00067
1.03707
1.05965
1.09102
1.11779
1.15405
1.17045
1.11764
1.05718
1.02156
1.04408
1.04162
1.07036
1.07289
1.10502
1.10663
1.14517
1.14465
1.18742
1.19079
1.22871
1.24466
1.27233
1.29789
1.32651
1.34257
1.39105
)
;

boundaryField
{
    up
    {
        type            myTemperature;
        value           nonuniform List<scalar> 
80
(
1.0477
1.05095
1.05594
1.06243
1.07049
1.08046
1.09236
1.10608
1.12161
1.13876
1.1575
1.17767
1.19913
1.22182
1.24544
1.27007
1.29529
1.32121
1.34742
1.37427
1.40149
1.42788
1.45379
1.47949
1.50465
1.52915
1.55281
1.57548
1.59701
1.61725
1.63609
1.65338
1.66905
1.68296
1.69509
1.70525
1.71353
1.71976
1.72391
1.72628
1.72691
1.72416
1.71854
1.71206
1.70393
1.69393
1.68201
1.66828
1.65275
1.63559
1.61685
1.59669
1.57524
1.55255
1.52894
1.50431
1.4791
1.4532
1.42697
1.40029
1.04697
1.04998
1.05533
1.06169
1.06977
1.07977
1.09171
1.10547
1.12103
1.13822
1.157
1.17719
1.19869
1.2214
1.24506
1.26971
1.29498
1.32093
1.34721
1.37357
)
;
    }
    hole
    {
        type            myTemperature;
        value           nonuniform List<scalar> 
80
(
0.348481
0.357772
0.377922
0.409064
0.450821
0.502525
0.563777
0.634223
0.713389
0.800855
0.896019
0.998371
1.10723
1.22194
1.34185
1.4661
1.59413
1.72489
1.85787
1.99162
2.12543
2.25973
2.39301
2.524
2.6521
2.77646
2.89637
3.01109
3.11993
3.22223
3.31734
3.4047
3.48377
3.55405
3.61513
3.66661
3.70818
3.7396
3.76064
3.77109
3.77023
3.76033
3.74086
3.70972
3.66802
3.61637
3.55514
3.48471
3.40555
3.3181
3.22294
3.12058
3.01173
2.89701
2.7771
2.65284
2.52482
2.39406
2.26111
2.12724
0.349325
0.358863
0.378607
0.409905
0.451662
0.503357
0.564602
0.635043
0.714205
0.80167
0.896831
0.99918
1.10803
1.22274
1.34264
1.46688
1.59487
1.7256
1.8585
1.99287
)
;
    }
    frontAndBack
    {
        type            empty;
    }
}


// ************************************************************************* //
