/*--------------------------------*- C++ -*----------------------------------*\
| =========                 |                                                 |
| \\      /  F ield         | foam-extend: Open Source CFD                    |
|  \\    /   O peration     | Version:  3.0                                   |
|   \\  /    A nd           | Web:         http://www.extend-project.de       |
|    \\/     M anipulation  |                                                 |
\*---------------------------------------------------------------------------*/
FoamFile
{
    version     2.0;
    format      ascii;
    class       volSymmTensorField;
    location    "7.8";
    object      sigma;
}
// * * * * * * * * * * * * * * * * * * * * * * * * * * * * * * * * * * * * * //

dimensions      [0 0 0 0 0 0 0];

internalField   nonuniform List<symmTensor> 
400
(
(0.741068 0.329816 2.70479e-316 -1.01819 3.02811e-316 0.277126)
(1.35694 -0.0369793 2.69398e-316 -0.900661 3.19646e-316 -0.456279)
(1.62022 -0.501399 2.5505e-316 -0.827234 3.07666e-316 -0.792987)
(1.54633 -0.812667 2.37439e-316 -0.673473 2.84062e-316 -0.872859)
(1.4292 -1.15413 2.16663e-316 -0.586791 2.55006e-316 -0.842412)
(1.18534 -1.378 1.97135e-316 -0.453885 2.27105e-316 -0.73146)
(0.963576 -1.5834 1.77819e-316 -0.367288 1.99066e-316 -0.596288)
(0.688145 -1.71614 1.60472e-316 -0.2521 1.75369e-316 -0.436045)
(0.43538 -1.8109 1.44285e-316 -0.163609 1.523e-316 -0.271771)
(0.149321 -1.85734 1.29754e-316 -0.0534093 1.33929e-316 -0.095912)
(-0.125658 -1.85764 1.16534e-316 0.0437513 1.15834e-316 0.0819066)
(-0.426686 -1.81856 1.04401e-316 0.159639 1.01953e-316 0.267047)
(-0.717797 -1.72527 9.34988e-317 0.268607 8.78591e-317 0.449191)
(-1.01999 -1.59762 8.29318e-317 0.393282 7.72503e-317 0.626708)
(-1.2841 -1.40122 7.35023e-317 0.505611 6.615e-317 0.778484)
(-1.52249 -1.18645 6.34729e-317 0.6309 5.77027e-317 0.891594)
(-1.6387 -0.875307 5.45728e-317 0.721268 4.88622e-317 0.917437)
(-1.64642 -0.586944 4.43361e-317 0.826315 4.1728e-317 0.820103)
(-1.3411 -0.17519 3.5514e-317 0.857638 3.44179e-317 0.483465)
(-0.688535 0.164021 2.58712e-317 0.894642 2.68246e-317 -0.206107)
(0.463341 0.277663 1.60485e-316 -1.14404 2.11064e-316 0.680698)
(0.958188 0.077512 1.68429e-316 -1.12374 2.59261e-316 0.165552)
(1.13944 -0.186773 1.65626e-316 -1.01624 2.67146e-316 -0.123201)
(1.16022 -0.398805 1.59054e-316 -0.901668 2.55108e-316 -0.25855)
(1.07466 -0.616592 1.49636e-316 -0.770581 2.33227e-316 -0.304081)
(0.92588 -0.774322 1.39889e-316 -0.63296 2.09387e-316 -0.29292)
(0.756326 -0.913392 1.29722e-316 -0.503996 1.8437e-316 -0.25233)
(0.55313 -0.999373 1.20037e-316 -0.360699 1.62373e-316 -0.192432)
(0.353871 -1.05973 1.10633e-316 -0.229961 1.41057e-316 -0.12391)
(0.129762 -1.07474 1.01777e-316 -0.0813715 1.23671e-316 -0.0483901)
(-0.087009 -1.06345 9.3414e-317 0.0582243 1.06956e-316 0.0287847)
(-0.321482 -1.01456 8.54487e-317 0.214254 9.39226e-317 0.107228)
(-0.546385 -0.940891 7.80516e-317 0.36549 8.11981e-317 0.180894)
(-0.770176 -0.841036 7.07374e-317 0.52399 7.16163e-317 0.246186)
(-0.970863 -0.717646 6.4002e-317 0.679454 6.20841e-317 0.291409)
(-1.12398 -0.588358 5.68246e-317 0.819215 5.50012e-317 0.304766)
(-1.21587 -0.430932 5.01008e-317 0.954505 4.78286e-317 0.261364)
(-1.16345 -0.301854 4.23068e-317 1.03156 4.1881e-317 0.131884)
(-0.958034 -0.130516 3.46072e-317 1.09341 3.52048e-317 -0.135377)
(-0.442337 -0.0376958 2.60899e-317 1.04143 2.70517e-317 -0.599089)
(0.429445 0.6358 6.74093e-317 -1.24396 1.34483e-316 0.814514)
(0.791814 0.41528 8.27846e-317 -1.1543 2.04347e-316 0.362484)
(0.92055 0.198639 9.01005e-317 -1.02964 2.26086e-316 0.109092)
(0.90795 -0.000623015 9.36473e-317 -0.882672 2.22876e-316 -0.0252779)
(0.84339 -0.187859 9.40191e-317 -0.75326 2.07424e-316 -0.0901299)
(0.727492 -0.329483 9.27865e-317 -0.616254 1.87906e-316 -0.111238)
(0.609384 -0.449333 9.00626e-317 -0.501296 1.66639e-316 -0.108088)
(0.46305 -0.520085 8.66323e-317 -0.374003 1.47124e-316 -0.0890467)
(0.323646 -0.563624 8.25359e-317 -0.261065 1.28345e-316 -0.0625808)
(0.160166 -0.562302 7.81509e-317 -0.129435 1.1249e-316 -0.0307301)
(-0.000885226 -0.535329 7.35755e-317 -0.000694885 9.75971e-317 0.00158011)
(-0.182306 -0.472541 6.88877e-317 0.148633 8.5521e-317 0.033673)
(-0.367179 -0.393587 6.42891e-317 0.30693 7.417e-317 0.0602491)
(-0.556259 -0.294092 5.95453e-317 0.477416 6.5269e-317 0.0788432)
(-0.744816 -0.194204 5.50025e-317 0.664336 5.69635e-317 0.0804804)
(-0.893447 -0.0951473 5.00323e-317 0.836312 5.07376e-317 0.057135)
(-1.00972 -0.00932713 4.50352e-317 1.01872 4.51473e-317 -0.00900606)
(-0.994633 0.0565315 3.90016e-317 1.13373 4.08973e-317 -0.1391)
(-0.852814 0.111207 3.19104e-317 1.22502 3.60866e-317 -0.372206)
(-0.416116 0.146425 2.29352e-317 1.18309 2.81283e-317 -0.76697)
(0.240354 0.765573 -2.76362e-317 -0.902244 5.49211e-317 0.66189)
(0.510957 0.578479 -3.84392e-318 -0.864642 1.43551e-316 0.353685)
(0.607416 0.390469 1.49405e-317 -0.768496 1.77698e-316 0.161081)
(0.626827 0.212155 2.90991e-317 -0.675979 1.83533e-316 0.0491524)
(0.589118 0.0541581 3.96105e-317 -0.577292 1.75139e-316 -0.0118259)
(0.527363 -0.0653959 4.68659e-317 -0.487511 1.61075e-316 -0.0398514)
(0.456829 -0.159515 5.15754e-317 -0.40796 1.44348e-316 -0.0488697)
(0.370259 -0.206201 5.42274e-317 -0.324757 1.28299e-316 -0.0455015)
(0.287293 -0.229274 5.52841e-317 -0.251026 1.12555e-316 -0.0362677)
(0.184375 -0.203355 5.51352e-317 -0.161148 9.89616e-317 -0.0232264)
(0.0829166 -0.161786 5.4114e-317 -0.072499 8.61778e-317 -0.0104176)
(-0.0421315 -0.0763908 5.24585e-317 0.0410208 7.56598e-317 0.00111069)
(-0.172381 0.00708946 5.04765e-317 0.165392 6.58975e-317 0.00698833)
(-0.318693 0.119835 4.82635e-317 0.31394 5.82667e-317 0.00475317)
(-0.472346 0.201502 4.62059e-317 0.485236 5.14252e-317 -0.0128899)
(-0.602923 0.286217 4.42702e-317 0.655807 4.67345e-317 -0.0528834)
(-0.721779 0.308132 4.30112e-317 0.851145 4.31868e-317 -0.129367)
(-0.717199 0.298849 4.20889e-317 0.975886 4.20291e-317 -0.258687)
(-0.630889 0.224208 4.20932e-317 1.0972 4.19069e-317 -0.466315)
(-0.274211 0.0913361 4.03362e-317 1.05087 4.21811e-317 -0.776656)
(0.23193 0.950733 -8.697e-317 -0.847677 -4.37256e-318 0.615747)
(0.42298 0.762443 -5.9984e-317 -0.753524 8.92448e-317 0.330544)
(0.491651 0.596474 -3.46231e-317 -0.655876 1.30216e-316 0.164225)
(0.486042 0.40624 -1.3858e-317 -0.554725 1.42992e-316 0.0686835)
(0.471056 0.254879 2.88788e-318 -0.486024 1.41078e-316 0.0149675)
(0.427145 0.126822 1.55487e-317 -0.414816 1.32477e-316 -0.0123283)
(0.400412 0.0364338 2.48639e-317 -0.375598 1.2062e-316 -0.0248143)
(0.351958 -0.0131691 3.14141e-317 -0.324383 1.08348e-316 -0.0275748)
(0.319429 -0.0292381 3.57642e-317 -0.293168 9.59817e-317 -0.0262612)
(0.260128 0.000427879 3.8436e-317 -0.237865 8.48047e-317 -0.022263)
(0.205011 0.0552591 3.98583e-317 -0.185445 7.42099e-317 -0.0195657)
(0.114917 0.153413 4.03769e-317 -0.0961455 6.5028e-317 -0.0187715)
(0.0128465 0.255794 4.03788e-317 0.0117205 5.64335e-317 -0.024567)
(-0.124541 0.391316 4.00583e-317 0.16347 4.91267e-317 -0.0389295)
(-0.285545 0.488035 3.98934e-317 0.355333 4.2349e-317 -0.0697876)
(-0.449705 0.599405 3.99515e-317 0.57354 3.67878e-317 -0.123836)
(-0.621392 0.606621 4.09422e-317 0.838324 3.20423e-317 -0.216932)
(-0.688357 0.606675 4.26206e-317 1.05592 2.91031e-317 -0.367561)
(-0.671181 0.453368 4.57879e-317 1.28113 2.89832e-317 -0.609947)
(-0.337546 0.281891 4.81898e-317 1.33082 3.5619e-317 -0.993274)
(0.125981 1.11152 -1.31702e-316 -0.619455 -5.16022e-317 0.493474)
(0.232531 0.884584 -1.0368e-316 -0.502617 4.10513e-317 0.270086)
(0.286402 0.685574 -7.40483e-317 -0.423426 8.54755e-317 0.137024)
(0.283296 0.480857 -4.86552e-317 -0.343554 1.03754e-316 0.0602577)
(0.293486 0.314461 -2.72256e-317 -0.31074 1.07621e-316 0.0172547)
(0.281644 0.186457 -1.04819e-317 -0.27645 1.04343e-316 -0.00519409)
(0.293596 0.0926822 2.45735e-318 -0.277554 9.71718e-317 -0.0160421)
(0.289598 0.0517686 1.20158e-317 -0.269744 8.87442e-317 -0.0198531)
(0.30425 0.0401151 1.89081e-317 -0.283457 7.96277e-317 -0.0207931)
(0.295055 0.0874641 2.36418e-317 -0.274535 7.09824e-317 -0.0205201)
(0.293795 0.156122 2.67177e-317 -0.271719 6.251e-317 -0.0220757)
(0.25125 0.285576 2.85163e-317 -0.224457 5.48969e-317 -0.0267923)
(0.203314 0.414308 2.9405e-317 -0.164584 4.75882e-317 -0.0387303)
(0.0946009 0.597005 2.96544e-317 -0.0335029 4.11166e-317 -0.061098)
(-0.0269702 0.727933 2.96042e-317 0.128838 3.49273e-317 -0.101868)
(-0.205964 0.889189 2.94729e-317 0.376207 2.95721e-317 -0.170243)
(-0.373763 0.912477 2.96857e-317 0.658242 2.48185e-317 -0.284479)
(-0.515441 0.920936 3.03396e-317 0.984857 2.17135e-317 -0.469415)
(-0.53694 0.718273 3.19604e-317 1.30452 2.14567e-317 -0.767583)
(-0.299638 0.454128 3.38323e-317 1.53629 2.70295e-317 -1.23665)
(0.100291 1.23589 -1.40219e-316 -0.485011 -7.52896e-317 0.38472)
(0.146496 0.984515 -1.16191e-316 -0.3446 5.3113e-318 0.198104)
(0.187907 0.760683 -8.79229e-317 -0.283196 4.81143e-317 0.0952898)
(0.176126 0.53798 -6.26794e-317 -0.214779 6.91483e-317 0.0386531)
(0.209755 0.354923 -4.08864e-317 -0.217703 7.7283e-317 0.00794802)
(0.215459 0.212196 -2.34034e-317 -0.207827 7.83876e-317 -0.00763175)
(0.262879 0.107246 -9.64835e-318 -0.247676 7.53669e-317 -0.0152033)
(0.289056 0.0521498 8.26122e-319 -0.27105 7.04354e-317 -0.0180063)
(0.345745 0.0349113 8.61711e-318 -0.32615 6.43782e-317 -0.0195957)
(0.37353 0.0712052 1.42426e-317 -0.352595 5.81271e-317 -0.0209345)
(0.417085 0.145542 1.81612e-317 -0.391863 5.17032e-317 -0.0252221)
(0.409268 0.275427 2.07382e-317 -0.375908 4.55688e-317 -0.0333599)
(0.397279 0.430737 2.23278e-317 -0.347038 3.9465e-317 -0.0502412)
(0.301883 0.638133 2.3141e-317 -0.222867 3.36618e-317 -0.0790162)
(0.18316 0.823733 2.35194e-317 -0.0534348 2.78307e-317 -0.129725)
(-0.0333437 1.0456 2.35415e-317 0.246402 2.22011e-317 -0.213059)
(-0.260136 1.14293 2.36815e-317 0.613151 1.67099e-317 -0.353014)
(-0.502276 1.24699 2.39376e-317 1.08463 1.2091e-317 -0.58235)
(-0.61909 1.10549 2.51227e-317 1.58271 1.01958e-317 -0.963615)
(-0.412257 0.954572 2.7469e-317 2.00854 1.57091e-317 -1.59629)
(0.016169 1.35091 -1.39247e-316 -0.2229 -8.66387e-317 0.206731)
(-0.000926528 1.04119 -1.1969e-316 -0.0959195 -1.94591e-317 0.096846)
(0.0210512 0.764617 -9.42241e-317 -0.0591225 1.94622e-317 0.0380713)
(0.0144316 0.524056 -7.05274e-317 -0.0217568 4.13696e-317 0.00732518)
(0.059664 0.313502 -4.94451e-317 -0.0519156 5.22509e-317 -0.00774835)
(0.0886161 0.165811 -3.21753e-317 -0.0741983 5.66196e-317 -0.0144178)
(0.157353 0.0445103 -1.82783e-317 -0.140668 5.68094e-317 -0.016685)
(0.215582 -0.0130346 -7.52795e-318 -0.198676 5.47119e-317 -0.0169067)
(0.302808 -0.0396088 6.19959e-319 -0.285734 5.11321e-317 -0.0170738)
(0.371391 0.000504609 6.56913e-318 -0.353033 4.69173e-317 -0.018358)
(0.458037 0.0787863 1.07249e-317 -0.435056 4.22273e-317 -0.0229806)
(0.496894 0.231555 1.33898e-317 -0.46421 3.74777e-317 -0.0326835)
(0.540426 0.417772 1.48165e-317 -0.488682 3.25501e-317 -0.0517444)
(0.483043 0.684179 1.51736e-317 -0.398114 2.76583e-317 -0.0849287)
(0.421883 0.941056 1.45877e-317 -0.279303 2.25736e-317 -0.14258)
(0.201134 1.26593 1.31357e-317 0.0378283 1.74178e-317 -0.238962)
(0.00831984 1.46742 1.08892e-317 0.393503 1.2079e-317 -0.401823)
(-0.320118 1.68659 8.06294e-318 0.993648 6.88153e-318 -0.67353)
(-0.452004 1.62355 5.00067e-318 1.58227 2.81997e-318 -1.13026)
(-0.373587 1.49879 3.55541e-318 2.26096 1.59223e-318 -1.88737)
(-0.0385897 1.38402 -1.16889e-316 0.0353217 -8.27898e-317 0.00326804)
(-0.09917 1.06095 -1.04072e-316 0.121089 -3.32756e-317 -0.0219189)
(-0.0848429 0.758689 -8.45908e-317 0.114192 -6.96756e-319 -0.0293495)
(-0.0837556 0.508348 -6.53183e-317 0.113679 2.00634e-317 -0.0299235)
(-0.0244129 0.280014 -4.76444e-317 0.0518205 3.21733e-317 -0.0274075)
(0.0209307 0.118249 -3.26798e-317 0.00303121 3.86306e-317 -0.0239619)
(0.109516 -0.0202174 -2.04086e-317 -0.0890054 4.11861e-317 -0.0205105)
(0.189491 -0.0997179 -1.0669e-317 -0.171976 4.13166e-317 -0.0175149)
(0.305368 -0.14324 -3.14733e-318 -0.289273 3.97958e-317 -0.0160948)
(0.40453 -0.130151 2.47975e-318 -0.387941 3.73436e-317 -0.0165887)
(0.531931 -0.0604001 6.50544e-318 -0.510621 3.42276e-317 -0.02131)
(0.609523 0.0699458 9.16077e-318 -0.578035 3.08015e-317 -0.031488)
(0.700914 0.274501 1.06475e-317 -0.648731 2.70796e-317 -0.052183)
(0.676558 0.543272 1.1045e-317 -0.58863 2.32143e-317 -0.0879282)
(0.64575 0.873935 1.04598e-317 -0.494734 1.90898e-317 -0.151016)
(0.414536 1.25978 8.80317e-318 -0.157764 1.47019e-317 -0.256772)
(0.183436 1.61698 6.11676e-318 0.255077 9.92337e-318 -0.438513)
(-0.24671 2.00039 2.40794e-318 0.992837 4.60963e-318 -0.746127)
(-0.505421 2.16655 -2.09347e-318 1.7832 -8.49872e-319 -1.27778)
(-0.510153 2.34939 -5.16838e-318 2.71193 -5.81887e-318 -2.20177)
(-0.111962 1.37303 -9.6967e-317 0.3431 -7.40299e-317 -0.231138)
(-0.219878 1.02265 -8.91202e-317 0.372861 -3.86186e-317 -0.152983)
(-0.23489 0.694394 -7.47005e-317 0.336531 -1.25072e-317 -0.10164)
(-0.223278 0.445327 -5.93741e-317 0.292321 6.03206e-318 -0.0690424)
(-0.168719 0.201893 -4.46826e-317 0.216242 1.80841e-317 -0.0475235)
(-0.107595 0.0379006 -3.1891e-317 0.140992 2.54689e-317 -0.0333976)
(-0.0173324 -0.11765 -2.11218e-317 0.0408894 2.93713e-317 -0.023557)
(0.0813572 -0.208385 -1.24441e-317 -0.0644183 3.09174e-317 -0.0169389)
(0.206114 -0.270814 -5.63732e-318 -0.193149 3.07814e-317 -0.012965)
(0.333127 -0.271059 -5.17939e-319 -0.321165 2.95852e-317 -0.0119621)
(0.482654 -0.212821 3.12783e-318 -0.467444 2.76304e-317 -0.0152102)
(0.602839 -0.0814641 5.45422e-318 -0.578234 2.52477e-317 -0.0246058)
(0.737268 0.140052 6.56848e-318 -0.692947 2.25289e-317 -0.044321)
(0.767152 0.454203 6.52051e-318 -0.687001 1.96312e-317 -0.0801514)
(0.803285 0.865016 5.25411e-318 -0.659528 1.6527e-317 -0.143757)
(0.61053 1.37972 2.72608e-318 -0.357544 1.32097e-317 -0.252986)
(0.457246 1.90979 -1.34541e-318 -0.0149369 9.51653e-318 -0.442309)
(-0.00950588 2.51177 -6.77742e-318 0.777623 5.00835e-318 -0.768117)
(-0.220823 2.89793 -1.39211e-317 1.55537 -1.09093e-318 -1.33454)
(-0.371572 3.2468 -2.02529e-317 2.67585 -1.13563e-317 -2.30428)
(-0.187289 1.29164 -6.9388e-317 0.663082 -6.02391e-317 -0.475793)
(-0.31602 0.962563 -6.68935e-317 0.600901 -3.89464e-317 -0.284881)
(-0.339305 0.641969 -5.84612e-317 0.511904 -1.94473e-317 -0.1726)
(-0.311992 0.397132 -4.79368e-317 0.418684 -3.82596e-318 -0.106691)
(-0.257948 0.151655 -3.72178e-317 0.324744 7.47084e-318 -0.0667962)
(-0.186471 -0.0223304 -2.73626e-317 0.228956 1.51348e-317 -0.0424859)
(-0.094341 -0.191314 -1.88222e-317 0.121234 1.9858e-317 -0.0268925)
(0.014481 -0.304994 -1.17133e-317 0.00233128 2.24103e-317 -0.0168122)
(0.150108 -0.38914 -6.0126e-318 -0.139454 2.33455e-317 -0.0106537)
(0.295411 -0.424417 -1.61718e-318 -0.287521 2.31845e-317 -0.00789048)
(0.472507 -0.388943 1.58735e-318 -0.462769 2.22405e-317 -0.00973748)
(0.627171 -0.300596 3.69951e-318 -0.609694 2.08209e-317 -0.0174771)
(0.811635 -0.0832791 4.80282e-318 -0.775995 1.90746e-317 -0.0356404)
(0.89232 0.196421 4.91198e-318 -0.823066 1.7166e-317 -0.0692549)
(0.989402 0.665131 4.02645e-318 -0.858733 1.51389e-317 -0.130669)
(0.832761 1.19649 2.05005e-318 -0.595987 1.2988e-317 -0.236774)
(0.690436 1.91381 -1.17213e-318 -0.266567 1.05613e-317 -0.423869)
(0.155932 2.67085 -5.63152e-318 0.594068 7.25386e-318 -0.750001)
(-0.198507 3.41415 -1.16627e-317 1.53278 1.76914e-318 -1.33427)
(-0.528087 4.20271 -1.77129e-317 2.92839 -9.04833e-318 -2.40031)
(-0.236789 1.1331 -5.26085e-317 0.926878 -4.65219e-317 -0.690088)
(-0.410588 0.833079 -5.2096e-317 0.812558 -3.394e-317 -0.40197)
(-0.468542 0.536949 -4.675e-317 0.702848 -2.02109e-317 -0.234306)
(-0.435085 0.318114 -3.91961e-317 0.573478 -7.89667e-318 -0.138393)
(-0.394347 0.0810311 -3.10304e-317 0.476589 1.84513e-318 -0.082242)
(-0.315612 -0.089915 -2.33303e-317 0.364802 8.94732e-318 -0.0491891)
(-0.23431 -0.267663 -1.6446e-317 0.262811 1.36928e-317 -0.0285012)
(-0.120096 -0.395085 -1.06261e-317 0.135502 1.6559e-317 -0.0154064)
(0.00450986 -0.498753 -5.86778e-318 0.0023333 1.79724e-317 -0.00684316)
(0.159974 -0.557825 -2.1634e-318 -0.157799 1.83525e-317 -0.00217494)
(0.330768 -0.545741 5.50607e-319 -0.329112 1.79927e-317 -0.00165602)
(0.512986 -0.479793 2.32219e-318 -0.506029 1.71709e-317 -0.00695709)
(0.708625 -0.271022 3.18421e-318 -0.687198 1.60601e-317 -0.0214276)
(0.849202 0.019464 3.16369e-318 -0.798603 1.48337e-317 -0.0505997)
(0.993967 0.541166 2.19156e-318 -0.889238 1.35899e-317 -0.104729)
(0.929003 1.18296 3.01617e-319 -0.728253 1.2373e-317 -0.20075)
(0.889281 2.08849 -2.77718e-318 -0.518529 1.10576e-317 -0.370752)
(0.428246 3.12605 -6.81715e-318 0.242509 9.11454e-318 -0.670754)
(0.214358 4.20096 -1.23642e-317 0.992192 4.78977e-318 -1.20655)
(-0.200191 5.29447 -1.86e-317 2.34491 -6.06099e-318 -2.14471)
(-0.315141 0.978993 -3.60282e-317 1.20328 -3.70668e-317 -0.888142)
(-0.479352 0.719298 -3.69878e-317 0.977664 -3.2152e-317 -0.498312)
(-0.549066 0.461098 -3.42996e-317 0.831035 -2.24621e-317 -0.281969)
(-0.500978 0.254367 -2.9457e-317 0.662653 -1.23948e-317 -0.161675)
(-0.472712 0.0319375 -2.39183e-317 0.565814 -3.59395e-318 -0.0931017)
(-0.39145 -0.14165 -1.84067e-317 0.445064 3.24275e-318 -0.0536139)
(-0.320672 -0.322175 -1.33158e-317 0.350088 8.11558e-318 -0.0294169)
(-0.207922 -0.462766 -8.84077e-318 0.222029 1.13203e-317 -0.0141068)
(-0.0893099 -0.582368 -5.07507e-318 0.0931807 1.31943e-317 -0.00387085)
(0.0672008 -0.669065 -2.04851e-318 -0.0697626 1.41001e-317 0.00256185)
(0.244084 -0.685433 2.44019e-319 -0.249161 1.43115e-317 0.00507676)
(0.443071 -0.667347 1.82533e-318 -0.445688 1.40867e-317 0.00261753)
(0.673272 -0.489726 2.73323e-318 -0.665219 1.36062e-317 -0.00805274)
(0.864352 -0.265607 3.00249e-318 -0.833144 1.30426e-317 -0.0312081)
(1.08582 0.262641 2.67263e-318 -1.00962 1.2509e-317 -0.0762061)
(1.09988 0.844053 1.78878e-318 -0.943382 1.20667e-317 -0.156503)
(1.13813 1.88667 3.55322e-319 -0.837951 1.16067e-317 -0.300181)
(0.669964 2.9543 -1.54424e-318 -0.115226 1.06948e-317 -0.554738)
(0.33577 4.40236 -4.05173e-318 0.6886 7.77498e-318 -1.02437)
(-0.404321 5.87902 -7.65634e-318 2.34439 -4.0795e-320 -1.94007)
(-0.331625 0.714336 -2.91871e-317 1.33666 -2.49697e-317 -1.00503)
(-0.549199 0.535979 -2.83702e-317 1.10712 -2.38678e-317 -0.557924)
(-0.644855 0.350403 -2.53431e-317 0.954414 -1.81086e-317 -0.30956)
(-0.600159 0.184469 -2.17953e-317 0.773842 -1.08226e-317 -0.173683)
(-0.579547 -0.0070707 -1.78326e-317 0.677256 -3.81211e-318 -0.0977087)
(-0.496558 -0.171782 -1.39736e-317 0.551284 1.88852e-318 -0.0547259)
(-0.437987 -0.345925 -1.02527e-317 0.466577 6.07488e-318 -0.0285895)
(-0.32975 -0.492796 -6.89327e-318 0.341807 8.90114e-318 -0.0120568)
(-0.234949 -0.620397 -3.9665e-318 0.235437 1.06171e-317 -0.000487478)
(-0.0873261 -0.726527 -1.55942e-318 0.0799351 1.15101e-317 0.00739098)
(0.0556901 -0.765643 2.99676e-319 -0.0678626 1.18129e-317 0.0121724)
(0.256153 -0.780496 1.60372e-318 -0.268792 1.17426e-317 0.0126391)
(0.45365 -0.634786 2.3603e-318 -0.460431 1.14653e-317 0.00678162)
(0.687757 -0.439318 2.62251e-318 -0.678257 1.11365e-317 -0.00949946)
(0.902625 0.085248 2.39685e-318 -0.860128 1.08748e-317 -0.0424973)
(1.04442 0.712788 1.83779e-318 -0.941185 1.07607e-317 -0.103235)
(1.15031 1.88142 9.12258e-319 -0.940234 1.07108e-317 -0.210075)
(0.912079 3.21601 -1.12899e-319 -0.515105 1.04783e-317 -0.396974)
(0.786891 5.02974 -1.36347e-318 -0.0607799 8.74003e-318 -0.726111)
(0.193206 6.95456 -3.75475e-318 1.09115 3.28803e-318 -1.28436)
(-0.390499 0.560608 -2.17247e-317 1.47326 -2.86938e-317 -1.08276)
(-0.561449 0.402453 -2.03575e-317 1.14252 -2.96213e-317 -0.581071)
(-0.671477 0.253698 -1.76134e-317 0.986729 -2.34465e-317 -0.315252)
(-0.617399 0.0979352 -1.53291e-317 0.791087 -1.54435e-317 -0.173688)
(-0.612671 -0.0737974 -1.29011e-317 0.708821 -8.15893e-318 -0.0961505)
(-0.533182 -0.229293 -1.04398e-317 0.586112 -2.29003e-318 -0.0529306)
(-0.488194 -0.393177 -7.9149e-318 0.515035 1.99336e-318 -0.0268412)
(-0.389962 -0.533826 -5.47395e-318 0.400154 4.98411e-318 -0.010192)
(-0.311684 -0.662433 -3.24424e-318 0.30989 6.93649e-318 0.00179496)
(-0.180003 -0.775147 -1.32509e-318 0.169378 8.14229e-318 0.0106248)
(-0.0527304 -0.835746 2.23767e-319 0.0357579 8.81513e-318 0.0169725)
(0.137337 -0.883628 1.38711e-318 -0.157432 9.1486e-318 0.0200951)
(0.339483 -0.787381 2.18754e-318 -0.357823 9.28629e-318 0.0183405)
(0.596616 -0.667182 2.68781e-318 -0.605534 9.36015e-318 0.00891816)
(0.874476 -0.206743 2.98746e-318 -0.861743 9.45763e-318 -0.0127332)
(1.10142 0.287261 3.22388e-318 -1.04845 9.6407e-318 -0.0529695)
(1.34561 1.45257 3.59914e-318 -1.2238 9.82001e-318 -0.121804)
(1.15352 2.59448 4.18503e-318 -0.918512 9.82178e-318 -0.235008)
(1.0091 4.61571 5.26007e-318 -0.578083 8.86062e-318 -0.431018)
(-0.133456 6.53209 5.32176e-318 0.991713 6.31242e-318 -0.858257)
(-0.379089 0.263728 -9.42891e-318 1.43173 -1.14186e-317 -1.05264)
(-0.61227 0.215456 -8.4779e-318 1.16929 -1.65748e-317 -0.557019)
(-0.718013 0.174551 -7.21846e-318 1.015 -1.39972e-317 -0.29699)
(-0.671344 0.0594795 -7.29261e-318 0.832663 -8.69183e-318 -0.161319)
(-0.656494 -0.0608451 -6.97537e-318 0.744781 -3.55971e-318 -0.0882871)
(-0.574104 -0.200661 -6.18653e-318 0.622206 6.0065e-319 -0.0481015)
(-0.535918 -0.336681 -4.91762e-318 0.559735 3.6116e-318 -0.0238171)
(-0.44647 -0.467815 -3.40773e-318 0.454642 5.66836e-318 -0.00817241)
(-0.396826 -0.582204 -1.86661e-318 0.393247 6.96228e-318 0.0035796)
(-0.288351 -0.694794 -4.52786e-319 0.275642 7.70188e-318 0.0127092)
(-0.212386 -0.761021 7.30175e-319 0.192145 8.04753e-318 0.0202413)
(-0.0492199 -0.82826 1.64115e-318 0.0238334 8.14038e-318 0.0253865)
(0.081404 -0.768369 2.27369e-318 -0.108839 8.09406e-318 0.0274354)
(0.342361 -0.692894 2.68932e-318 -0.366373 8.00967e-318 0.0240123)
(0.540276 -0.296474 2.94087e-318 -0.553527 7.95898e-318 0.0132506)
(0.886964 0.162751 3.20796e-318 -0.878686 7.99642e-318 -0.0082783)
(1.08396 1.31292 3.58438e-318 -1.04411 8.04571e-318 -0.0398508)
(1.28843 2.61483 4.2563e-318 -1.21121 8.03474e-318 -0.0772198)
(1.2895 4.89978 5.34454e-318 -1.19891 7.49191e-318 -0.0905889)
(0.812043 7.46801 5.70745e-318 -0.850953 6.32653e-318 0.03891)
(-0.384407 0.172601 -1.27085e-318 1.34646 -3.12602e-317 -0.962055)
(-0.525342 0.0825019 -2.5902e-318 1.0161 -3.16866e-317 -0.49076)
(-0.641935 0.0292545 -3.21671e-318 0.898485 -2.43134e-317 -0.25655)
(-0.593332 -0.0800718 -4.46151e-318 0.731173 -1.55291e-317 -0.137841)
(-0.59168 -0.195507 -4.9935e-318 0.666698 -9.24132e-318 -0.0750176)
(-0.520736 -0.308777 -4.82091e-318 0.561538 -4.541e-318 -0.0408017)
(-0.493279 -0.42763 -4.07692e-318 0.513307 -1.33062e-318 -0.0200275)
(-0.420741 -0.531205 -3.00132e-318 0.427171 9.45454e-319 -0.00642928)
(-0.387761 -0.632279 -1.82601e-318 0.383593 2.51525e-318 0.00416789)
(-0.305489 -0.72895 -6.97176e-319 0.292634 3.61197e-318 0.0128551)
(-0.253296 -0.802376 2.85308e-319 0.232696 4.36881e-318 0.0206001)
(-0.124263 -0.879635 1.09022e-318 0.09738 4.89819e-318 0.026883)
(-0.0139351 -0.870205 1.72923e-318 -0.0173809 5.27747e-318 0.0313161)
(0.220162 -0.85651 2.26506e-318 -0.252574 5.57299e-318 0.0324119)
(0.441048 -0.583662 2.80555e-318 -0.470617 5.817e-318 0.0295687)
(0.80357 -0.292263 3.47219e-318 -0.826016 6.03306e-318 0.0224458)
(1.15405 0.655456 4.48185e-318 -1.1722 6.15765e-318 0.0181487)
(1.35962 1.5344 5.78645e-318 -1.39668 6.12164e-318 0.0370563)
(1.56905 3.6336 7.68487e-318 -1.70789 5.85958e-318 0.138845)
(0.193027 5.33504 9.07606e-318 -0.560897 5.98887e-318 0.367869)
(-0.350532 -0.0921581 2.81274e-317 1.1131 8.38989e-318 -0.762566)
(-0.560328 -0.0608465 1.89836e-317 0.941804 -4.00162e-318 -0.381476)
(-0.61861 0.0297292 9.82067e-318 0.815359 -4.28484e-318 -0.196748)
(-0.569872 -0.0442535 4.02907e-318 0.675056 -1.51065e-318 -0.105184)
(-0.540978 -0.0743718 4.4712e-319 0.598251 1.12214e-318 -0.0572726)
(-0.460177 -0.165636 -9.84851e-319 0.491543 3.13457e-318 -0.0313658)
(-0.437984 -0.225953 -1.31959e-318 0.453391 4.55196e-318 -0.0154071)
(-0.372951 -0.304764 -9.52237e-319 0.377731 5.48605e-318 -0.00477978)
(-0.368946 -0.362561 -3.17254e-319 0.365048 6.05429e-318 0.00389832)
(-0.313149 -0.431488 3.94798e-319 0.301853 6.34655e-318 0.0112955)
(-0.314899 -0.477922 1.04168e-318 0.29652 6.43978e-318 0.0183787)
(-0.228515 -0.531154 1.57416e-318 0.203876 6.3973e-318 0.0246395)
(-0.207244 -0.528339 1.97535e-318 0.177075 6.2724e-318 0.0301691)
(-0.0132631 -0.514588 2.29171e-318 -0.0205403 6.11048e-318 0.0338034)
(0.0676963 -0.323466 2.57096e-318 -0.103821 5.93655e-318 0.0361247)
(0.486863 -0.0834618 2.94634e-318 -0.524623 5.76625e-318 0.03776)
(0.625424 0.67474 3.4808e-318 -0.675208 5.5349e-318 0.0497837)
(1.33069 1.55293 4.23699e-318 -1.43248 5.19572e-318 0.101793)
(1.35277 3.58444 5.19108e-318 -1.66245 4.73687e-318 0.309682)
(1.58498 6.27581 5.85162e-318 -2.67964 4.55232e-318 1.09466)
(-0.230835 -0.0860211 1.51495e-317 0.725748 -3.21805e-317 -0.494913)
(-0.276865 -0.188786 8.44372e-318 0.517688 -2.57826e-317 -0.240823)
(-0.346238 -0.230031 2.84083e-318 0.46936 -1.83759e-317 -0.123122)
(-0.314519 -0.290704 -2.23856e-319 0.380496 -1.15226e-317 -0.0659774)
(-0.306702 -0.367053 -1.69111e-318 0.342912 -7.94928e-318 -0.0362096)
(-0.263283 -0.412038 -2.1476e-318 0.283458 -5.48045e-318 -0.0201745)
(-0.249387 -0.474385 -2.03463e-318 0.259437 -3.89638e-318 -0.0100499)
(-0.21369 -0.514573 -1.61875e-318 0.216859 -2.69527e-318 -0.00316866)
(-0.210495 -0.566351 -1.08933e-318 0.207759 -1.7762e-318 0.0027362)
(-0.180759 -0.614643 -5.48146e-319 0.172806 -1.02598e-318 0.00795291)
(-0.181505 -0.66575 -5.65359e-320 0.16829 -4.08607e-319 0.0132155)
(-0.133831 -0.727127 3.68025e-319 0.115672 1.08368e-319 0.0181589)
(-0.115003 -0.765845 7.34997e-319 0.092009 5.35463e-319 0.0229937)
(0.00137561 -0.817225 1.08313e-318 -0.0283795 8.83202e-319 0.0270039)
(0.0857565 -0.765202 1.48148e-318 -0.116674 1.15352e-318 0.0309174)
(0.346664 -0.71412 1.97952e-318 -0.382144 1.34593e-318 0.0354807)
(0.587749 -0.315106 2.69621e-318 -0.637623 1.4677e-318 0.0498737)
(0.935293 0.0153074 3.50057e-318 -1.03358 1.52152e-318 0.0982916)
(1.47791 1.28701 4.45225e-318 -1.74888 1.66281e-318 0.270969)
(0.203012 1.78717 5.24213e-318 -0.945823 2.44453e-318 0.742811)
(-0.114379 -0.351111 4.23141e-317 0.277145 3.63838e-317 -0.162765)
(-0.284603 -0.248374 2.76181e-317 0.366397 1.44192e-317 -0.0817941)
(-0.233718 -0.0483868 1.22797e-317 0.275906 8.93678e-318 -0.0421879)
(-0.189722 -0.0652306 6.07067e-318 0.212722 6.66827e-318 -0.0230001)
(-0.157251 0.0301043 2.37836e-318 0.170135 6.65071e-318 -0.0128835)
(-0.0975597 0.00174365 1.07638e-318 0.105004 6.85512e-318 -0.00744465)
(-0.0986733 0.0513404 5.06393e-319 0.102506 7.24779e-318 -0.0038326)
(-0.0655322 0.0374264 4.49852e-319 0.0668593 7.51427e-318 -0.00132705)
(-0.0912022 0.0704051 5.41061e-319 0.0902226 7.68076e-318 0.000979578)
(-0.0784556 0.0791647 7.02285e-319 0.0753834 7.71137e-318 0.00307211)
(-0.124402 0.10735 8.48765e-319 0.119097 7.63698e-318 0.00530519)
(-0.11176 0.14994 9.60637e-319 0.104274 7.47429e-318 0.00748641)
(-0.174927 0.182586 1.02251e-318 0.165137 7.24773e-318 0.00978937)
(-0.116794 0.282748 1.05509e-318 0.104894 6.9776e-318 0.0119003)
(-0.190164 0.338278 1.06609e-318 0.175936 6.65743e-318 0.0142277)
(0.0424242 0.540494 1.12484e-318 -0.0593279 6.28432e-318 0.0169037)
(-0.0425495 0.676348 1.23866e-318 0.0187901 5.80005e-318 0.0237593)
(0.731626 1.06158 1.43513e-318 -0.776797 5.14491e-318 0.0451707)
(0.485185 1.53622 1.61166e-318 -0.628405 4.38334e-318 0.14322)
(2.04842 3.29121 1.69811e-318 -2.80005 3.44393e-318 0.75163)
)
;

boundaryField
{
    cavity
    {
        type            mySigma;
    }
    lid
    {
        type            fixedValue;
        value           uniform (0.1 -0.3 0 -0.1 0 0);
    }
    frontAndBack
    {
        type            empty;
    }
}


// ************************************************************************* //
