/*--------------------------------*- C++ -*----------------------------------*\
| =========                 |                                                 |
| \\      /  F ield         | foam-extend: Open Source CFD                    |
|  \\    /   O peration     | Version:  3.0                                   |
|   \\  /    A nd           | Web:         http://www.extend-project.de       |
|    \\/     M anipulation  |                                                 |
\*---------------------------------------------------------------------------*/
FoamFile
{
    version     2.0;
    format      ascii;
    class       volScalarField;
    location    "7.8";
    object      Theta;
}
// * * * * * * * * * * * * * * * * * * * * * * * * * * * * * * * * * * * * * //

dimensions      [0 0 0 0 0 0 0];

internalField   nonuniform List<scalar> 
400
(
0.324126
-0.152396
-0.191872
-0.274685
-0.198389
-0.171406
-0.0790475
-0.0235625
0.063244
0.124908
0.207573
0.2675
0.348933
0.395684
0.469266
0.474673
0.511342
0.404724
0.322673
-0.104686
0.956339
0.567587
0.470247
0.314846
0.304335
0.2358
0.240276
0.202658
0.203948
0.174422
0.169545
0.135509
0.12446
0.0743157
0.0549993
-0.0296908
-0.0711635
-0.231636
-0.348464
-0.686242
0.743279
0.377028
0.319201
0.201182
0.209659
0.169241
0.186483
0.170133
0.184463
0.174337
0.186228
0.174189
0.1853
0.161957
0.168955
0.114144
0.0991898
-0.034752
-0.125393
-0.454853
0.737124
0.495991
0.423463
0.321511
0.30733
0.257181
0.253329
0.220867
0.216603
0.190233
0.186684
0.161113
0.160803
0.128685
0.128347
0.071562
0.0502647
-0.0724901
-0.172167
-0.427266
0.531251
0.310685
0.278566
0.201754
0.209927
0.180218
0.193106
0.179556
0.192895
0.186928
0.205727
0.204617
0.234403
0.231348
0.270232
0.241966
0.265975
0.152891
0.0891635
-0.229401
0.451345
0.305858
0.278672
0.223593
0.22591
0.199469
0.204669
0.188565
0.195792
0.187417
0.204153
0.204729
0.239378
0.245339
0.298679
0.287281
0.333812
0.235232
0.18532
-0.158835
0.309329
0.199782
0.19723
0.16147
0.172351
0.156355
0.16642
0.158557
0.172331
0.173637
0.202223
0.217018
0.273522
0.30058
0.391696
0.4051
0.507323
0.412
0.410831
-0.0543905
0.217306
0.179537
0.184043
0.168938
0.173606
0.160605
0.161876
0.150952
0.156433
0.153803
0.176611
0.190894
0.247464
0.28275
0.384539
0.418989
0.544258
0.471997
0.487424
-0.0182401
0.108534
0.134762
0.148005
0.151234
0.15061
0.141621
0.136447
0.125039
0.125492
0.12151
0.142723
0.158226
0.222049
0.265947
0.394674
0.447861
0.633264
0.571104
0.669055
0.0414985
0.0131661
0.115363
0.136747
0.158686
0.150415
0.142294
0.125771
0.10804
0.094976
0.0810396
0.0867894
0.092431
0.140559
0.181916
0.298732
0.368438
0.549247
0.529867
0.620207
0.0351366
-0.0712921
0.10865
0.124807
0.164595
0.143303
0.136544
0.107522
0.0839006
0.0575033
0.0327899
0.024037
0.0166418
0.0536539
0.0857999
0.209518
0.284436
0.521228
0.524616
0.754678
0.107976
-0.157514
0.0849039
0.115217
0.170036
0.144928
0.138042
0.0984173
0.0661062
0.0226826
-0.0180652
-0.0518993
-0.0805693
-0.0783047
-0.0650768
0.0135094
0.0924034
0.272724
0.34328
0.501172
0.064299
-0.208306
0.10045
0.115624
0.186859
0.148528
0.143402
0.0908481
0.0503955
-0.0103092
-0.0684235
-0.126331
-0.181019
-0.207674
-0.224661
-0.164665
-0.103929
0.118386
0.218558
0.592708
0.20448
-0.264469
0.0771903
0.114183
0.195411
0.160263
0.155065
0.0951438
0.0452104
-0.0330585
-0.110935
-0.199395
-0.284514
-0.360512
-0.413522
-0.430692
-0.385812
-0.284049
-0.100434
0.0860359
0.125768
-0.262661
0.111387
0.129823
0.224761
0.181201
0.179042
0.108823
0.0504287
-0.0452125
-0.143253
-0.259758
-0.379112
-0.496069
-0.598457
-0.659099
-0.664419
-0.546195
-0.347069
0.133255
0.352333
-0.258551
0.114141
0.15657
0.255547
0.219382
0.216306
0.14119
0.0732599
-0.0379297
-0.155833
-0.301745
-0.454701
-0.624581
-0.775445
-0.930749
-0.978171
-1.0344
-0.765912
-0.632095
0.216212
-0.177105
0.177894
0.204905
0.312711
0.272662
0.271609
0.188201
0.111815
-0.0142273
-0.15082
-0.322027
-0.509427
-0.72222
-0.932918
-1.14913
-1.28089
-1.36157
-1.12731
-0.676572
0.444524
-0.0694631
0.252826
0.294266
0.397213
0.359608
0.35223
0.262852
0.17602
0.0386924
-0.113947
-0.30529
-0.520975
-0.774558
-1.03639
-1.33791
-1.54339
-1.80927
-1.58861
-1.62776
0.159619
0.118322
0.369757
0.401645
0.504109
0.460633
0.448687
0.350016
0.253797
0.105833
-0.0602866
-0.267716
-0.508946
-0.795016
-1.11207
-1.47656
-1.78837
-2.13314
-2.0317
-1.91398
0.115281
0.389993
0.585735
0.60505
0.682567
0.623138
0.588277
0.480205
0.368654
0.218482
0.0420425
-0.164801
-0.421654
-0.714431
-1.07444
-1.47344
-1.89869
-2.34932
-2.48076
-2.75777
-0.636019
)
;

boundaryField
{
    cavity
    {
        type            implicitExtrapolation;
    }
    lid
    {
        type            implicitExtrapolation;
    }
    frontAndBack
    {
        type            empty;
    }
}


// ************************************************************************* //
