/*--------------------------------*- C++ -*----------------------------------*\
| =========                 |                                                 |
| \\      /  F ield         | foam-extend: Open Source CFD                    |
|  \\    /   O peration     | Version:  3.0                                   |
|   \\  /    A nd           | Web:         http://www.extend-project.de       |
|    \\/     M anipulation  |                                                 |
\*---------------------------------------------------------------------------*/
FoamFile
{
    version     2.0;
    format      ascii;
    class       volVectorField;
    location    "7.8";
    object      u;
}
// * * * * * * * * * * * * * * * * * * * * * * * * * * * * * * * * * * * * * //

dimensions      [0 0 0 0 0 0 0];

internalField   nonuniform List<vector> 
400
(
(-2.3093 6.06298 3.31311e-315)
(-2.07355 4.14987 2.94493e-315)
(-5.38688 4.50751 2.60542e-315)
(-5.40995 2.77114 2.35013e-315)
(-7.44463 3.08159 2.0512e-315)
(-7.65705 2.00215 1.87749e-315)
(-8.79119 2.16997 1.6139e-315)
(-9.0368 1.49117 1.49727e-315)
(-9.52694 1.59784 1.26595e-315)
(-9.69015 1.06191 1.1895e-315)
(-9.65391 1.11676 9.88008e-316)
(-9.63279 0.545782 9.39502e-316)
(-9.08644 0.539807 7.66559e-316)
(-8.79712 -0.193331 7.3565e-316)
(-7.68604 -0.196516 5.93228e-316)
(-7.12718 -1.21128 5.70206e-316)
(-5.33827 -1.03111 4.64798e-316)
(-4.69481 -2.42693 4.43251e-316)
(-2.07452 -2.03742 3.84084e-316)
(-1.66758 -3.41272 3.66681e-316)
(-0.415224 1.23422 2.26524e-315)
(-1.40966 1.03027 2.06043e-315)
(-2.31718 1.10042 1.8622e-315)
(-2.84674 0.713499 1.71726e-315)
(-3.76808 0.698485 1.53969e-315)
(-4.05027 0.284206 1.43165e-315)
(-4.74224 0.154138 1.27144e-315)
(-4.8944 -0.228882 1.18777e-315)
(-5.24204 -0.483105 1.0428e-315)
(-5.28455 -0.812254 9.77092e-316)
(-5.26464 -1.17912 8.47026e-316)
(-5.17884 -1.44899 7.95143e-316)
(-4.82059 -1.89288 6.80689e-316)
(-4.57132 -2.09674 6.38476e-316)
(-3.95748 -2.54557 5.41393e-316)
(-3.48155 -2.66171 5.03751e-316)
(-2.78209 -2.98348 4.27012e-316)
(-1.9584 -2.97343 3.90016e-316)
(-1.43927 -2.9599 3.36894e-316)
(-0.149566 -2.73844 3.07165e-316)
(-1.05584 8.3808 1.74392e-315)
(-1.68281 6.74284 1.61524e-315)
(-3.05767 6.39008 1.48141e-315)
(-3.41715 4.78278 1.38076e-315)
(-4.29831 4.69468 1.24961e-315)
(-4.57441 3.32997 1.16514e-315)
(-5.09303 3.27701 1.03987e-315)
(-5.35176 2.11651 9.69366e-316)
(-5.56486 2.03154 8.52551e-316)
(-5.80204 0.973578 7.94324e-316)
(-5.73163 0.80676 6.87582e-316)
(-5.87808 -0.236534 6.39466e-316)
(-5.53799 -0.517642 5.4386e-316)
(-5.46159 -1.58466 5.03312e-316)
(-4.88532 -1.95873 4.20676e-316)
(-4.40885 -3.02813 3.86044e-316)
(-3.68043 -3.40264 3.20424e-316)
(-2.64704 -4.41663 2.95965e-316)
(-1.90481 -4.74107 2.55579e-316)
(-0.338765 -5.64214 2.63763e-316)
(-0.0636788 5.42455 7.69291e-316)
(-0.659998 4.144 8.37794e-316)
(-0.91045 3.8089 8.41367e-316)
(-1.21371 2.67267 8.57487e-316)
(-1.52432 2.5246 8.26366e-316)
(-1.66203 1.55584 8.10682e-316)
(-1.91936 1.39471 7.59896e-316)
(-2.01518 0.547165 7.28651e-316)
(-2.14335 0.261905 6.68608e-316)
(-2.25299 -0.497381 6.31866e-316)
(-2.21736 -0.992013 5.69945e-316)
(-2.3425 -1.67445 5.3345e-316)
(-2.14202 -2.43707 4.74536e-316)
(-2.22471 -3.01027 4.40869e-316)
(-1.90415 -4.03547 3.87489e-316)
(-1.79128 -4.40448 3.5582e-316)
(-1.48882 -5.53031 3.0703e-316)
(-0.913459 -5.57344 2.69554e-316)
(-0.915607 -6.33317 2.17522e-316)
(0.287953 -6.0372 1.42846e-316)
(-0.627434 9.0725 4.85786e-316)
(-0.941611 7.64708 6.02765e-316)
(-1.8161 6.91008 6.36738e-316)
(-1.98212 5.42733 6.69466e-316)
(-2.52882 5.11464 6.58526e-316)
(-2.74919 3.71567 6.51272e-316)
(-3.02976 3.60026 6.15906e-316)
(-3.38492 2.29897 5.91092e-316)
(-3.44448 2.22131 5.43871e-316)
(-3.9378 0.975421 5.11793e-316)
(-3.7903 0.810745 4.59783e-316)
(-4.35817 -0.418568 4.24523e-316)
(-3.98937 -0.784886 3.70919e-316)
(-4.47691 -1.97054 3.32531e-316)
(-3.86864 -2.64565 2.77602e-316)
(-3.9932 -3.63576 2.3208e-316)
(-3.19005 -4.67324 1.72762e-316)
(-2.5555 -5.20387 1.09269e-316)
(-1.7825 -6.38609 3.61034e-317)
(-0.171863 -6.42002 -7.38827e-317)
(-0.437742 7.54471 -1.7952e-316)
(-0.0689093 5.79373 7.21271e-317)
(-0.630761 5.24893 2.00965e-316)
(-0.331505 3.68981 3.15958e-316)
(-0.641227 3.59738 3.70693e-316)
(-0.4959 2.27767 4.1421e-316)
(-0.646413 2.28432 4.24975e-316)
(-0.67616 1.14184 4.31377e-316)
(-0.717306 1.03629 4.17937e-316)
(-0.939485 -0.00184345 4.06207e-316)
(-0.872563 -0.392729 3.81407e-316)
(-1.30669 -1.37552 3.62591e-316)
(-1.07962 -2.22971 3.34772e-316)
(-1.72619 -3.12997 3.15633e-316)
(-1.23136 -4.60946 2.90249e-316)
(-2.02236 -5.24796 2.74825e-316)
(-1.1303 -7.34248 2.55082e-316)
(-1.85662 -7.35647 2.43793e-316)
(-0.522646 -9.37586 2.30261e-316)
(-0.831865 -8.52168 2.15753e-316)
(-0.695133 9.52906 -1.45488e-316)
(-0.205772 7.7153 6.95963e-317)
(-1.06431 7.07746 1.79256e-316)
(-0.835384 5.29592 2.6859e-316)
(-1.249 5.18341 3.14247e-316)
(-1.3819 3.6068 3.45425e-316)
(-1.50458 3.71052 3.54228e-316)
(-1.97693 2.29649 3.5687e-316)
(-1.91028 2.4493 3.45328e-316)
(-2.70792 1.09496 3.33101e-316)
(-2.47421 1.17116 3.10512e-316)
(-3.58354 -0.227535 2.89765e-316)
(-3.11062 -0.369765 2.60797e-316)
(-4.45793 -1.85235 2.33503e-316)
(-3.56719 -2.40517 1.99658e-316)
(-4.91959 -3.84285 1.64019e-316)
(-3.35742 -5.02192 1.24269e-316)
(-4.21767 -6.03836 7.45234e-317)
(-1.81446 -7.76138 2.46713e-317)
(-1.52906 -8.1089 -4.85117e-317)
(-0.476324 8.63063 -4.92966e-316)
(0.351616 6.27617 -2.22482e-316)
(-0.171955 6.02044 -6.62352e-317)
(0.399101 3.95129 6.68023e-317)
(0.211065 4.26586 1.46696e-316)
(0.471984 2.61 2.07619e-316)
(0.456479 3.00321 2.40819e-316)
(0.442614 1.63937 2.627e-316)
(0.493598 1.91069 2.69283e-316)
(0.197048 0.673986 2.70922e-316)
(0.295154 0.652306 2.64135e-316)
(-0.355112 -0.616648 2.57182e-316)
(-0.106423 -1.17628 2.46283e-316)
(-1.23992 -2.57434 2.39248e-316)
(-0.552645 -4.01518 2.31927e-316)
(-2.32735 -5.44873 2.33093e-316)
(-0.681645 -8.0672 2.37701e-316)
(-3.15028 -9.07081 2.57978e-316)
(0.0970752 -12.3728 2.85538e-316)
(-2.56514 -12.2822 3.45232e-316)
(-0.300645 9.58155 -2.48168e-316)
(0.328317 7.27231 -7.6367e-317)
(0.000256116 6.93215 2.58019e-317)
(0.176314 4.77821 1.06064e-316)
(0.142744 5.02509 1.58484e-316)
(-0.103249 3.26486 1.94712e-316)
(0.0435789 3.68246 2.16049e-316)
(-0.569158 2.20623 2.28246e-316)
(-0.336278 2.67035 2.3098e-316)
(-1.35128 1.27808 2.29152e-316)
(-1.04692 1.72642 2.20945e-316)
(-2.57067 0.178963 2.10602e-316)
(-2.07009 0.524588 1.96017e-316)
(-4.21571 -1.41789 1.7991e-316)
(-3.16348 -1.34652 1.61644e-316)
(-5.90407 -3.80227 1.40823e-316)
(-3.62111 -4.33546 1.21196e-316)
(-6.47496 -7.0455 9.87004e-317)
(-2.03078 -8.65356 8.19963e-317)
(-3.63629 -10.9355 7.70942e-317)
(0.0354574 8.63748 -4.11699e-316)
(0.523373 5.99871 -2.2182e-316)
(0.719622 6.19351 -9.98607e-317)
(1.04259 3.82339 3.50108e-318)
(1.31461 4.56085 7.14315e-317)
(1.45137 2.72193 1.23732e-316)
(1.72793 3.48631 1.56174e-316)
(1.68794 2.03542 1.78323e-316)
(1.89787 2.71995 1.89449e-316)
(1.64258 1.40875 1.95083e-316)
(1.76526 1.91793 1.95075e-316)
(1.17503 0.441512 1.93584e-316)
(1.32107 0.543754 1.90372e-316)
(0.156069 -1.43523 1.89851e-316)
(0.712105 -2.216 1.91239e-316)
(-1.44038 -4.93927 2.0182e-316)
(0.38998 -7.35583 2.18049e-316)
(-3.28421 -10.612 2.57179e-316)
(1.16585 -15.0905 3.04364e-316)
(-3.88144 -17.9141 4.09795e-316)
(0.667501 8.99112 -1.10458e-316)
(0.620154 6.5276 -4.01484e-317)
(1.40509 6.37569 1.98864e-317)
(1.03195 4.13509 6.62192e-317)
(1.64857 4.59264 1.03876e-316)
(1.11841 2.82609 1.30689e-316)
(1.65912 3.43771 1.49957e-316)
(0.954636 2.03031 1.62201e-316)
(1.40053 2.71678 1.68559e-316)
(0.381319 1.41615 1.70619e-316)
(0.728349 2.18885 1.68548e-316)
(-0.851174 0.626231 1.63888e-316)
(-0.481812 1.5019 1.56646e-316)
(-2.96485 -0.831005 1.47427e-316)
(-2.14104 0.120137 1.37121e-316)
(-5.85392 -3.55997 1.24473e-316)
(-3.51247 -2.77269 1.1259e-316)
(-8.25085 -7.98916 1.00042e-316)
(-2.38914 -8.467 8.95664e-317)
(-6.03014 -13.8647 9.60687e-317)
(0.758167 7.50442 -1.97479e-316)
(0.517299 5.34673 -1.04944e-316)
(1.76661 5.81426 -3.43192e-317)
(1.60367 3.59832 2.844e-317)
(2.52885 4.46561 7.1186e-317)
(2.44598 2.70097 1.05606e-316)
(3.12223 3.61702 1.27558e-316)
(3.07349 2.25814 1.4291e-316)
(3.50347 3.22602 1.51168e-316)
(3.43004 2.00957 1.55385e-316)
(3.58788 3.03207 1.56004e-316)
(3.38582 1.53616 1.55288e-316)
(3.30992 2.47999 1.53752e-316)
(2.76076 0.0782229 1.54308e-316)
(2.74156 0.473557 1.56588e-316)
(1.3595 -3.65842 1.67134e-316)
(2.3075 -5.01123 1.81006e-316)
(-0.92144 -11.5143 2.15883e-316)
(2.76447 -16.7784 2.52379e-316)
(-3.41797 -25.2212 3.3294e-316)
(1.85016 7.83689 -1.10018e-317)
(0.698455 5.59445 -2.73629e-318)
(2.70076 5.41371 2.88333e-317)
(1.62403 3.44316 5.44183e-317)
(2.91913 3.86381 7.9547e-317)
(2.12912 2.30856 9.86636e-317)
(3.08062 2.91695 1.13992e-316)
(2.41195 1.72379 1.24691e-316)
(3.08131 2.45513 1.31642e-316)
(2.30433 1.3935 1.35288e-316)
(2.67858 2.2959 1.36056e-316)
(1.47865 0.938069 1.34508e-316)
(1.59232 2.11451 1.3093e-316)
(-0.533167 -0.269358 1.25171e-316)
(-0.369989 1.35074 1.1768e-316)
(-4.16573 -3.17428 1.06509e-316)
(-2.76216 -0.961896 9.28777e-317)
(-8.75634 -8.56095 7.20403e-317)
(-2.83967 -6.83096 4.65432e-317)
(-8.65405 -15.0163 6.43125e-318)
(1.28394 5.50383 -4.87797e-318)
(0.545884 4.6681 4.99056e-317)
(2.71863 5.0414 7.25841e-317)
(2.22446 3.39669 9.93335e-317)
(3.7804 4.0174 1.13106e-316)
(3.55049 2.53923 1.26637e-316)
(4.63705 3.34798 1.34144e-316)
(4.62779 2.22736 1.39269e-316)
(5.30886 3.27344 1.40882e-316)
(5.5064 2.30686 1.40347e-316)
(5.75077 3.66198 1.37876e-316)
(6.15877 2.38801 1.34617e-316)
(5.86978 4.07889 1.30979e-316)
(6.47498 1.64387 1.28959e-316)
(5.59578 3.42398 1.27984e-316)
(6.24034 -1.71542 1.33319e-316)
(5.11689 -1.14822 1.39661e-316)
(4.9347 -11.2997 1.59995e-316)
(4.70722 -16.3523 1.77828e-316)
(0.831495 -33.7889 2.0854e-316)
(2.7872 6.34202 -1.51695e-316)
(0.580899 4.45459 -7.46428e-317)
(3.31242 4.12431 -2.8947e-317)
(1.77291 2.62978 8.95798e-318)
(3.46878 2.87085 3.65532e-317)
(2.61634 1.67279 5.8053e-317)
(3.84099 2.13574 7.50542e-317)
(3.33928 1.2548 8.79337e-317)
(4.17379 1.85862 9.76447e-317)
(3.78179 1.13601 1.04423e-316)
(4.18368 1.91684 1.08782e-316)
(3.64291 0.970355 1.10903e-316)
(3.50981 2.03856 1.10979e-316)
(2.33734 0.0983924 1.08493e-316)
(1.65889 1.7057 1.033e-316)
(-1.17681 -2.67433 9.25755e-317)
(-1.51207 0.0651851 7.70174e-317)
(-7.80115 -8.36285 4.66777e-317)
(-3.24823 -4.25431 9.447e-318)
(-12.2959 -11.8868 -6.9507e-317)
(1.43793 3.17711 3.42256e-316)
(0.916499 4.27173 3.30182e-316)
(3.76673 4.13609 2.71134e-316)
(3.32595 3.22756 2.35118e-316)
(5.47046 3.34739 2.08441e-316)
(5.21334 2.21931 1.92276e-316)
(6.70196 2.76781 1.80668e-316)
(6.74942 1.9413 1.71305e-316)
(7.70542 2.89277 1.62469e-316)
(8.18601 2.25358 1.53412e-316)
(8.62562 3.68966 1.43992e-316)
(9.72076 2.8221 1.34521e-316)
(9.43407 4.93123 1.25294e-316)
(11.4564 2.91867 1.17704e-316)
(9.85673 5.86558 1.11329e-316)
(13.38 0.529417 1.10292e-316)
(9.3743 3.64534 1.10354e-316)
(15.0529 -9.87316 1.20804e-316)
(6.72678 -12.501 1.29843e-316)
(11.9254 -43.5478 1.42607e-316)
(3.078 4.5985 -5.30004e-316)
(0.214464 2.88054 -3.06909e-316)
(2.57381 2.50933 -2.02064e-316)
(1.06929 1.51435 -1.20994e-316)
(2.51519 1.63219 -7.07184e-317)
(1.86476 0.876168 -3.30004e-317)
(2.98996 1.14902 -4.45162e-318)
(2.71317 0.630795 1.81523e-317)
(3.50775 0.975811 3.65797e-317)
(3.42144 0.609991 5.15677e-317)
(3.79546 1.03104 6.38086e-317)
(3.77191 0.583313 7.3471e-317)
(3.52608 1.10768 8.05955e-317)
(3.269 0.0483135 8.44867e-317)
(2.08538 0.747251 8.4657e-317)
(0.62696 -2.081 7.77166e-317)
(-1.13955 -0.744093 6.49396e-317)
(-7.00466 -6.59938 3.4287e-317)
(-3.48644 -2.54917 -1.42016e-318)
(-19.7045 -1.20938 -7.843e-317)
(1.24984 1.1874 1.3708e-315)
(2.04855 4.49723 8.92983e-316)
(5.93587 3.49563 6.50912e-316)
(5.88863 3.15297 4.75602e-316)
(9.03078 2.74088 3.91035e-316)
(8.72482 1.83637 3.3277e-316)
(10.8265 2.14148 2.97565e-316)
(10.8669 1.54515 2.69046e-316)
(12.2401 2.35179 2.45293e-316)
(13.0206 2.00121 2.22731e-316)
(13.8864 3.35209 2.01133e-316)
(15.8245 2.91016 1.80288e-316)
(16.0042 5.09038 1.60631e-316)
(19.7723 3.73505 1.43393e-316)
(18.1673 7.3237 1.28595e-316)
(25.1519 2.50435 1.19788e-316)
(18.2946 8.29394 1.13356e-316)
(31.8652 -8.12817 1.17764e-316)
(10.1095 -3.90101 1.21996e-316)
(34.9319 -55.7419 1.40154e-316)
(2.54709 2.44456 -1.28191e-315)
(-0.602051 0.178335 -8.03826e-316)
(-0.671696 0.274906 -5.65905e-316)
(-1.62794 -0.244522 -3.90234e-316)
(-1.87662 0.00171212 -2.9564e-316)
(-2.04962 -0.144875 -2.26552e-316)
(-1.96315 -0.0681581 -1.78523e-316)
(-2.03433 -0.153996 -1.3935e-316)
(-1.89 -0.211709 -1.06646e-316)
(-2.07731 -0.267057 -7.78618e-317)
(-2.09767 -0.466394 -5.23038e-317)
(-2.54173 -0.49434 -2.96792e-317)
(-2.90251 -0.943659 -1.0251e-317)
(-3.85032 -0.946581 5.07401e-318)
(-4.66497 -1.96942 1.56814e-317)
(-6.866 -1.7851 1.80734e-317)
(-7.23663 -4.07945 1.47625e-317)
(-14.4351 -1.71307 -4.61946e-318)
(-5.32817 -4.31344 -2.53444e-317)
(-37.0396 22.4469 -6.82524e-317)
(0.185047 0.158612 3.22783e-315)
(4.4489 6.03632 1.67473e-315)
(11.897 3.87166 1.16457e-315)
(12.2353 3.61616 8.08952e-316)
(18.2661 2.80759 6.77977e-316)
(17.5212 1.75926 5.87652e-316)
(21.3061 2.00144 5.38872e-316)
(21.1703 1.40645 4.96794e-316)
(23.6838 2.23874 4.60649e-316)
(25.0395 2.00591 4.2431e-316)
(27.0295 3.4257 3.88357e-316)
(30.7429 3.21089 3.52668e-316)
(32.3006 5.54171 3.18476e-316)
(39.6603 4.53392 2.87446e-316)
(39.3372 8.58501 2.59748e-316)
(52.5892 3.81589 2.38798e-316)
(43.5954 11.9652 2.19366e-316)
(68.2388 -8.70542 2.08056e-316)
(24.309 8.8453 1.92766e-316)
(77.5955 -75.005 1.91387e-316)
)
;

boundaryField
{
    cavity
    {
        type            myImplicitVelocity;
    }
    lid
    {
        type            fixedValue;
        value           uniform (1 0 0);
    }
    frontAndBack
    {
        type            empty;
    }
}


// ************************************************************************* //
