/*--------------------------------*- C++ -*----------------------------------*\
| =========                 |                                                 |
| \\      /  F ield         | OpenFOAM: The Open Source CFD Toolbox           |
|  \\    /   O peration     | Version:  2.2.0                                 |
|   \\  /    A nd           | Web:      www.OpenFOAM.org                      |
|    \\/     M anipulation  |                                                 |
\*---------------------------------------------------------------------------*/
FoamFile
{
    version     2.0;
    format      ascii;
    class       volVectorField;
    location    "10";
    object      s;
}
// * * * * * * * * * * * * * * * * * * * * * * * * * * * * * * * * * * * * * //

dimensions      [0 1 -1 0 0 0 0];

internalField   nonuniform List<vector> 
7920
(
(0.524538 0.459884 0.105702)
(0.496595 0.435022 0.166489)
(0.467128 0.408736 0.230529)
(0.433617 0.378807 0.29691)
(0.398398 0.347452 0.363904)
(0.358665 0.312338 0.429302)
(0.318379 0.278461 0.490256)
(0.265766 0.235385 0.540399)
(0.560837 0.3746 0.147158)
(0.530792 0.354082 0.206567)
(0.49926 0.332457 0.269119)
(0.463385 0.307787 0.333987)
(0.425583 0.281915 0.399601)
(0.383749 0.253507 0.464207)
(0.339676 0.225714 0.525604)
(0.289442 0.193947 0.580763)
(0.577006 0.284501 0.213869)
(0.54612 0.269011 0.269605)
(0.51391 0.252775 0.328218)
(0.477136 0.234176 0.389007)
(0.438465 0.214734 0.450609)
(0.395935 0.193716 0.511674)
(0.351003 0.173084 0.57055)
(0.301409 0.151974 0.625621)
(0.572831 0.194458 0.312973)
(0.54295 0.184167 0.360278)
(0.512025 0.17344 0.410073)
(0.476353 0.160991 0.461893)
(0.438895 0.147989 0.514686)
(0.397703 0.13399 0.567544)
(0.354139 0.12025 0.619314)
(0.307522 0.107213 0.669175)
(0.556013 0.110643 0.432542)
(0.528729 0.105184 0.466415)
(0.500639 0.0995107 0.502585)
(0.467572 0.0927673 0.540959)
(0.432718 0.0856973 0.580927)
(0.394009 0.0780353 0.622076)
(0.352831 0.070495 0.663751)
(0.309321 0.0636452 0.70564)
(0.5403 0.0354361 0.522537)
(0.515459 0.0338037 0.544652)
(0.489933 0.0321069 0.569152)
(0.459221 0.0300368 0.596282)
(0.426642 0.0278507 0.625792)
(0.39002 0.0254552 0.657626)
(0.350764 0.0230858 0.691445)
(0.309426 0.0209739 0.727182)
(0.54029 -0.0354303 0.52254)
(0.515444 -0.0337928 0.544656)
(0.489923 -0.0320887 0.569155)
(0.459209 -0.030014 0.596285)
(0.426632 -0.0278235 0.625794)
(0.39001 -0.0254258 0.657629)
(0.350756 -0.0230557 0.691447)
(0.309418 -0.0209454 0.727185)
(0.555987 -0.110634 0.432549)
(0.52869 -0.105169 0.466423)
(0.500611 -0.0994921 0.502592)
(0.467539 -0.0927444 0.540966)
(0.43269 -0.0856719 0.580934)
(0.393982 -0.0780082 0.622083)
(0.352807 -0.070468 0.663757)
(0.309301 -0.0636203 0.705646)
(0.572798 -0.194445 0.31298)
(0.542898 -0.184146 0.360285)
(0.511988 -0.173422 0.410081)
(0.476308 -0.160969 0.4619)
(0.438856 -0.147967 0.514694)
(0.397664 -0.133967 0.567552)
(0.354105 -0.12023 0.619321)
(0.307494 -0.107195 0.669182)
(0.576974 -0.284486 0.213873)
(0.546068 -0.268987 0.26961)
(0.513871 -0.25276 0.328224)
(0.477089 -0.234158 0.389013)
(0.438423 -0.21472 0.450616)
(0.395893 -0.193703 0.511682)
(0.350965 -0.173074 0.570558)
(0.301377 -0.151967 0.625629)
(0.56081 -0.374586 0.147161)
(0.530747 -0.354061 0.20657)
(0.499223 -0.332447 0.269124)
(0.46334 -0.307776 0.333992)
(0.425541 -0.28191 0.399607)
(0.383707 -0.253505 0.464214)
(0.339638 -0.225715 0.525612)
(0.289408 -0.193948 0.580771)
(0.524524 -0.45988 0.105704)
(0.49657 -0.435015 0.166491)
(0.467102 -0.408741 0.230533)
(0.433585 -0.378814 0.296915)
(0.398364 -0.347465 0.363909)
(0.358629 -0.312353 0.429308)
(0.318346 -0.27848 0.490263)
(0.265729 -0.235406 0.540407)
(0.221583 0.194189 0.0296159)
(0.223536 0.195639 0.0533596)
(0.225109 0.196754 0.0808195)
(0.225214 0.196625 0.112044)
(0.223959 0.19545 0.147048)
(0.220125 0.192263 0.185258)
(0.213528 0.187878 0.224903)
(0.201166 0.179345 0.263525)
(0.249835 0.166966 0.0430967)
(0.251088 0.16792 0.067611)
(0.251797 0.168588 0.0958644)
(0.250819 0.168292 0.127925)
(0.248169 0.167189 0.163918)
(0.242863 0.164839 0.203488)
(0.234032 0.161583 0.245696)
(0.22107 0.157239 0.28936)
(0.276389 0.1364 0.0673991)
(0.276451 0.136711 0.0922629)
(0.27579 0.136779 0.120817)
(0.273266 0.136139 0.153156)
(0.268888 0.134923 0.189518)
(0.261751 0.132941 0.229768)
(0.25109 0.130393 0.273549)
(0.236485 0.127927 0.320393)
(0.303384 0.10308 0.10653)
(0.301585 0.102751 0.129896)
(0.298907 0.102237 0.156762)
(0.294306 0.101275 0.18727)
(0.287815 0.0999718 0.221795)
(0.27869 0.0982853 0.260428)
(0.266305 0.0963858 0.303267)
(0.250801 0.0950143 0.350407)
(0.328529 0.0653978 0.156698)
(0.324378 0.0647453 0.176088)
(0.319236 0.0639746 0.198791)
(0.312212 0.062976 0.225056)
(0.303364 0.0618142 0.255446)
(0.292096 0.0605028 0.290304)
(0.277946 0.0591519 0.33011)
(0.261301 0.0582833 0.375411)
(0.344986 0.0226223 0.195861)
(0.339015 0.0222852 0.211146)
(0.332003 0.0219068 0.229683)
(0.323197 0.0214672 0.251837)
(0.312664 0.0209857 0.27833)
(0.29991 0.0204776 0.309688)
(0.284569 0.019983 0.346626)
(0.26714 0.0196887 0.389946)
(0.345011 -0.0226338 0.195867)
(0.339049 -0.0223076 0.211151)
(0.332028 -0.0219447 0.229688)
(0.323226 -0.0215159 0.251842)
(0.312689 -0.0210457 0.278335)
(0.299934 -0.0205452 0.309692)
(0.28459 -0.0200559 0.34663)
(0.267158 -0.0197625 0.38995)
(0.328591 -0.0654168 0.156713)
(0.324463 -0.0647764 0.176102)
(0.3193 -0.0640132 0.198804)
(0.312285 -0.0630246 0.225069)
(0.303428 -0.0618699 0.255459)
(0.292158 -0.0605647 0.290316)
(0.278 -0.0592175 0.330121)
(0.261348 -0.0583496 0.37542)
(0.30346 -0.103108 0.106546)
(0.301689 -0.102792 0.129912)
(0.298989 -0.102275 0.156779)
(0.2944 -0.101321 0.187287)
(0.287898 -0.10002 0.221812)
(0.278771 -0.0983377 0.260444)
(0.266377 -0.0964396 0.303283)
(0.250864 -0.0950689 0.350421)
(0.276457 -0.136432 0.067412)
(0.276543 -0.136754 0.0922765)
(0.275866 -0.136812 0.120833)
(0.273354 -0.136178 0.153172)
(0.268969 -0.134959 0.189535)
(0.261832 -0.132979 0.229785)
(0.251164 -0.13043 0.273565)
(0.236552 -0.127964 0.320408)
(0.249888 -0.166997 0.0431051)
(0.251162 -0.167961 0.0676204)
(0.251862 -0.168617 0.0958758)
(0.250895 -0.168324 0.127937)
(0.248242 -0.167215 0.163932)
(0.242939 -0.164866 0.203501)
(0.234103 -0.161607 0.245709)
(0.221138 -0.157265 0.289374)
(0.221617 -0.194211 0.0296193)
(0.223583 -0.195668 0.0533639)
(0.225155 -0.196771 0.0808251)
(0.22527 -0.196643 0.11205)
(0.224016 -0.195462 0.147055)
(0.220186 -0.192275 0.185266)
(0.213588 -0.187887 0.224912)
(0.20123 -0.179353 0.263535)
(0.128145 0.112233 0.00430597)
(0.13012 0.113657 0.0142155)
(0.13213 0.115087 0.0257942)
(0.133894 0.116299 0.0391889)
(0.135302 0.117269 0.0545307)
(0.135924 0.1177 0.0717633)
(0.135112 0.117617 0.0904067)
(0.132094 0.116335 0.109374)
(0.1449 0.0968248 0.00595192)
(0.146633 0.0980157 0.0165269)
(0.148321 0.0992264 0.0288646)
(0.149649 0.100296 0.0431464)
(0.150466 0.101226 0.0595749)
(0.150405 0.101949 0.0782372)
(0.148589 0.102379 0.0990712)
(0.145148 0.103219 0.121785)
(0.160934 0.0794378 0.0099147)
(0.162208 0.0802573 0.0212327)
(0.16335 0.0810949 0.0344096)
(0.16402 0.0818393 0.0496623)
(0.164079 0.082516 0.0672575)
(0.163152 0.083123 0.087407)
(0.160535 0.0836293 0.110315)
(0.15622 0.0848032 0.13613)
(0.177757 0.0604214 0.0171079)
(0.178222 0.0607922 0.0288055)
(0.178472 0.0611784 0.0424147)
(0.178183 0.0615202 0.0581849)
(0.177253 0.0618585 0.0764352)
(0.175358 0.0622248 0.0974765)
(0.171948 0.0626512 0.121695)
(0.167168 0.0637213 0.149522)
(0.193668 0.0385716 0.0268745)
(0.192996 0.0385746 0.0383087)
(0.192046 0.038586 0.0516732)
(0.190528 0.038582 0.0672546)
(0.188386 0.0385972 0.0854219)
(0.185344 0.0386627 0.10657)
(0.180998 0.0388158 0.131214)
(0.175514 0.0394042 0.159985)
(0.204186 0.0133989 0.0347212)
(0.202574 0.0133401 0.0456161)
(0.20066 0.0132854 0.0584541)
(0.198186 0.0132299 0.0735535)
(0.195127 0.013188 0.0913201)
(0.191246 0.0131734 0.112203)
(0.18622 0.0132037 0.136791)
(0.180221 0.0133949 0.165823)
(0.204188 -0.0133987 0.0347105)
(0.202575 -0.0133398 0.0456062)
(0.200662 -0.0132848 0.0584442)
(0.198187 -0.0132294 0.0735443)
(0.195129 -0.0131876 0.0913115)
(0.191247 -0.0131731 0.112195)
(0.186222 -0.0132035 0.136784)
(0.180223 -0.0133947 0.165817)
(0.193675 -0.0385729 0.0268503)
(0.193 -0.0385756 0.0382855)
(0.192051 -0.0385873 0.0516496)
(0.190533 -0.0385832 0.0672321)
(0.188391 -0.0385986 0.0854002)
(0.185349 -0.0386639 0.106549)
(0.181002 -0.0388169 0.131195)
(0.175518 -0.0394048 0.159968)
(0.177767 -0.0604252 0.0170833)
(0.178231 -0.0607958 0.0287808)
(0.178482 -0.0611826 0.0423882)
(0.178192 -0.0615243 0.0581585)
(0.177262 -0.0618625 0.0764086)
(0.175366 -0.0622283 0.0974506)
(0.171956 -0.062654 0.121671)
(0.167174 -0.0637231 0.1495)
(0.160946 -0.0794439 0.00989692)
(0.16222 -0.0802635 0.0212135)
(0.163361 -0.081101 0.0343875)
(0.164031 -0.0818451 0.0496389)
(0.16409 -0.082521 0.0672325)
(0.163162 -0.0831268 0.0873815)
(0.160545 -0.0836315 0.11029)
(0.156228 -0.084804 0.136106)
(0.144911 -0.0968318 0.00594082)
(0.146645 -0.0980229 0.016514)
(0.148333 -0.0992323 0.0288485)
(0.149661 -0.100301 0.0431282)
(0.150478 -0.10123 0.0595545)
(0.150416 -0.101952 0.0782154)
(0.148599 -0.10238 0.0990487)
(0.145158 -0.103219 0.121762)
(0.12815 -0.112236 0.00429989)
(0.130126 -0.113659 0.0142074)
(0.132137 -0.115088 0.0257833)
(0.133901 -0.116299 0.0391758)
(0.13531 -0.117267 0.0545152)
(0.135932 -0.117697 0.0717458)
(0.13512 -0.117613 0.0903878)
(0.132102 -0.116329 0.109355)
(0.0667302 0.058435 -0.00556778)
(0.0678448 0.0592304 -0.00108047)
(0.0690391 0.0600804 0.00421285)
(0.0701901 0.0608871 0.0104211)
(0.0712462 0.0616422 0.0176483)
(0.0720504 0.0622552 0.0259335)
(0.0721821 0.0626619 0.0351638)
(0.0714888 0.0627625 0.0448662)
(0.0754902 0.050451 -0.0092723)
(0.0764953 0.0511555 -0.00442845)
(0.0775443 0.0519184 0.00131405)
(0.0784934 0.0526702 0.00809944)
(0.0792735 0.0534189 0.0160914)
(0.0797489 0.0541748 0.0254321)
(0.0794207 0.0548468 0.0362451)
(0.0785058 0.0559967 0.0485222)
(0.083825 0.0413922 -0.0149451)
(0.0846327 0.0419244 -0.00948945)
(0.0854443 0.0425085 -0.00300377)
(0.0861005 0.0430956 0.00469103)
(0.086541 0.0437058 0.013809)
(0.0866164 0.044364 0.0245728)
(0.0859442 0.0450332 0.0372428)
(0.0846104 0.0462067 0.0520641)
(0.0925614 0.0314807 -0.0234259)
(0.0930119 0.0317835 -0.0170059)
(0.0934297 0.0321287 -0.00941462)
(0.0936587 0.032489 -0.000453585)
(0.0936597 0.0328918 0.0101164)
(0.0933014 0.0333669 0.0225576)
(0.0922969 0.0339222 0.0371968)
(0.0907691 0.0348956 0.0544029)
(0.10075 0.0200794 -0.0339086)
(0.100682 0.0201659 -0.0261712)
(0.100555 0.0202791 -0.0171569)
(0.100222 0.0204068 -0.00667185)
(0.0996704 0.0205713 0.00551874)
(0.0987856 0.0207938 0.0196802)
(0.0973629 0.0210905 0.0361559)
(0.0955062 0.0216498 0.0553717)
(0.106132 0.00697 -0.0419511)
(0.105627 0.00697242 -0.0331068)
(0.105053 0.0069851 -0.0229421)
(0.104275 0.00700439 -0.0112782)
(0.103298 0.00703981 0.00210425)
(0.102021 0.00709939 0.0174602)
(0.100286 0.00719158 0.0351315)
(0.0981818 0.00737726 0.0555657)
(0.106126 -0.0069684 -0.0419515)
(0.10562 -0.00696953 -0.0331072)
(0.105048 -0.00698022 -0.0229426)
(0.10427 -0.00699823 -0.0112787)
(0.103294 -0.00703225 0.00210381)
(0.102017 -0.00709091 0.0174599)
(0.100282 -0.00718237 0.0351312)
(0.0981789 -0.00736773 0.0555654)
(0.100737 -0.020076 -0.0339097)
(0.100666 -0.0201611 -0.0261723)
(0.100542 -0.0202737 -0.017158)
(0.100209 -0.0204002 -0.006673)
(0.0996589 -0.0205639 0.00551764)
(0.098775 -0.0207856 0.0196792)
(0.097354 -0.0210817 0.0361552)
(0.0954989 -0.0216407 0.0553712)
(0.0925462 -0.0314755 -0.023427)
(0.0929941 -0.031777 -0.0170071)
(0.0934149 -0.0321228 -0.0094159)
(0.0936429 -0.0324821 -0.000454845)
(0.093646 -0.0328848 0.0101152)
(0.0932885 -0.0333592 0.0225566)
(0.0922858 -0.0339141 0.037196)
(0.0907597 -0.0348869 0.0544024)
(0.0838123 -0.0413862 -0.014946)
(0.0846185 -0.0419174 -0.00949029)
(0.0854317 -0.0425024 -0.00300474)
(0.0860872 -0.0430885 0.00469008)
(0.0865289 -0.0436987 0.0138081)
(0.0866048 -0.0443563 0.024572)
(0.0859337 -0.0450249 0.0372424)
(0.0846011 -0.0461977 0.0520639)
(0.0754806 -0.0504446 -0.00927268)
(0.0764851 -0.0511482 -0.0044288)
(0.0775348 -0.0519113 0.00131362)
(0.0784835 -0.0526622 0.00809909)
(0.0792642 -0.0534106 0.0160911)
(0.0797396 -0.0541658 0.0254321)
(0.0794119 -0.0548371 0.0362455)
(0.0784976 -0.0559867 0.048523)
(0.0667218 -0.0584269 -0.00556788)
(0.0678358 -0.0592211 -0.0010805)
(0.0690313 -0.0600709 0.00421284)
(0.070182 -0.0608764 0.0104212)
(0.0712386 -0.0616311 0.0176486)
(0.0720428 -0.0622434 0.025934)
(0.0721746 -0.0626496 0.0351646)
(0.0714819 -0.0627499 0.0448674)
(0.0338157 0.0296089 -0.0108427)
(0.034396 0.0300185 -0.00927816)
(0.035028 0.0304644 -0.0073812)
(0.0356499 0.0308972 -0.00508634)
(0.0362424 0.0313184 -0.00231912)
(0.036735 0.0316918 0.000983526)
(0.036908 0.0319746 0.00485247)
(0.0367248 0.0321725 0.00919216)
(0.0382474 0.0255617 -0.017419)
(0.0387728 0.0259302 -0.015675)
(0.0393329 0.026337 -0.0135128)
(0.0398547 0.0267466 -0.0108335)
(0.0403123 0.0271689 -0.0075145)
(0.0406425 0.0276144 -0.00342187)
(0.0405958 0.0280345 0.00160243)
(0.0403027 0.0287458 0.00768067)
(0.0424581 0.0209679 -0.0282805)
(0.0428885 0.0212532 -0.0260134)
(0.0433352 0.0215728 -0.0231869)
(0.0437166 0.0219013 -0.0196698)
(0.0440125 0.0222541 -0.0153015)
(0.0441517 0.0226462 -0.00990061)
(0.0439466 0.0230594 -0.00324746)
(0.0434547 0.0237556 0.00488549)
(0.0468519 0.0159376 -0.0451997)
(0.0471114 0.0161079 -0.0416746)
(0.0473706 0.0163064 -0.0374115)
(0.0475488 0.0165183 -0.0322688)
(0.0476374 0.0167616 -0.0260803)
(0.0475727 0.0170518 -0.0186626)
(0.0472178 0.0173942 -0.00979657)
(0.0466396 0.0179624 0.000759742)
(0.0509462 0.010156 -0.0665586)
(0.0509565 0.0102137 -0.0608842)
(0.050955 0.0102895 -0.0543286)
(0.0508648 0.0103762 -0.0467778)
(0.0506907 0.0104877 -0.0381026)
(0.0503766 0.0106346 -0.028163)
(0.0498271 0.010826 -0.0167862)
(0.0490944 0.0111564 -0.003763)
(0.0536248 0.00352271 -0.0831222)
(0.0534242 0.00352955 -0.0754685)
(0.0532085 0.00354323 -0.0668789)
(0.0529043 0.00356145 -0.0572795)
(0.052527 0.00358996 -0.0465866)
(0.052026 0.00363263 -0.0347065)
(0.0513291 0.00369408 -0.0215098)
(0.0504788 0.00380444 -0.00681642)
(0.0536221 -0.00352166 -0.0831216)
(0.0534208 -0.00352745 -0.075468)
(0.0532059 -0.00353956 -0.0668784)
(0.0529014 -0.00355656 -0.0572791)
(0.0525245 -0.00358364 -0.0465862)
(0.0520235 -0.00362507 -0.0347062)
(0.0513269 -0.00368526 -0.0215095)
(0.050477 -0.00379458 -0.00681619)
(0.0509396 -0.0101541 -0.0665574)
(0.0509482 -0.0102107 -0.060883)
(0.0509484 -0.0102857 -0.0543274)
(0.0508573 -0.0103712 -0.0467767)
(0.0506842 -0.0104817 -0.0381016)
(0.0503704 -0.0106274 -0.0281621)
(0.0498216 -0.0108177 -0.0167855)
(0.0490897 -0.0111471 -0.0037624)
(0.0468439 -0.0159348 -0.0451986)
(0.0471017 -0.016104 -0.0416736)
(0.0473626 -0.0163025 -0.0374104)
(0.0475398 -0.0165134 -0.0322678)
(0.0476295 -0.0167561 -0.0260793)
(0.047565 -0.0170452 -0.0186617)
(0.0472108 -0.0173867 -0.00979573)
(0.0466334 -0.0179537 0.000760487)
(0.0424512 -0.0209646 -0.0282798)
(0.0428805 -0.021249 -0.0260128)
(0.0433282 -0.0215689 -0.0231862)
(0.0437088 -0.0218965 -0.019669)
(0.0440053 -0.022249 -0.0153007)
(0.0441445 -0.0226401 -0.00989985)
(0.0439398 -0.0230523 -0.00324672)
(0.0434483 -0.0237474 0.0048862)
(0.0382417 -0.0255578 -0.0174186)
(0.0387666 -0.0259257 -0.0156746)
(0.0393272 -0.0263325 -0.0135124)
(0.0398485 -0.0267412 -0.0108329)
(0.0403064 -0.0271631 -0.00751389)
(0.0406364 -0.0276077 -0.00342123)
(0.0405897 -0.028027 0.0016031)
(0.0402967 -0.0287373 0.00768134)
(0.0338103 -0.0296037 -0.0108425)
(0.0343902 -0.0300125 -0.00927783)
(0.0350229 -0.0304583 -0.00738075)
(0.0356444 -0.0308901 -0.00508581)
(0.0362372 -0.0313109 -0.00231851)
(0.0367295 -0.0316835 0.000984191)
(0.0369024 -0.0319657 0.00485318)
(0.0367192 -0.0321628 0.00919285)
(0.0160785 0.0140775 -0.0134306)
(0.0163567 0.0142724 -0.0132949)
(0.0166627 0.0144871 -0.0130568)
(0.0169652 0.0146962 -0.0126739)
(0.0172575 0.0149026 -0.0120879)
(0.0175066 0.0150899 -0.0112278)
(0.0176077 0.0152359 -0.010004)
(0.0175479 0.0153533 -0.00831974)
(0.0181806 0.0121504 -0.0214488)
(0.0184331 0.0123272 -0.0212312)
(0.0187056 0.0125244 -0.02083)
(0.0189614 0.0127236 -0.0201705)
(0.0191909 0.0129316 -0.0191521)
(0.019364 0.0131533 -0.0176498)
(0.0193637 0.0133659 -0.0155006)
(0.0192548 0.0137249 -0.0125222)
(0.0201747 0.00996363 -0.0349342)
(0.0203835 0.010102 -0.034248)
(0.020604 0.0102587 -0.0332334)
(0.020795 0.0104204 -0.0317847)
(0.0209501 0.010596 -0.0297697)
(0.0210353 0.0107922 -0.027033)
(0.0209632 0.0110011 -0.0233863)
(0.0207637 0.0113486 -0.0186224)
(0.0222485 0.0075688 -0.0561425)
(0.0223787 0.00765311 -0.0540584)
(0.0225132 0.0077524 -0.05145)
(0.022611 0.00785875 -0.0482059)
(0.0226712 0.00798171 -0.0441981)
(0.0226633 0.00812834 -0.0392885)
(0.0225244 0.00830172 -0.0333221)
(0.0222873 0.00858418 -0.026135)
(0.024176 0.00481991 -0.0830439)
(0.0241912 0.0048503 -0.0783932)
(0.0242057 0.00489037 -0.0730574)
(0.0241798 0.00493604 -0.0669642)
(0.0241194 0.00499457 -0.0600394)
(0.0239971 0.00507071 -0.0522119)
(0.0237699 0.00516911 -0.0434044)
(0.0234628 0.00533423 -0.0335318)
(0.0254343 0.00167104 -0.103956)
(0.0253519 0.00167553 -0.0968846)
(0.0252674 0.00168366 -0.0890682)
(0.0251428 0.00169408 -0.0804877)
(0.0249887 0.00170974 -0.0711299)
(0.0247804 0.00173236 -0.0609884)
(0.0244857 0.00176426 -0.0500497)
(0.0241248 0.0018195 -0.0382845)
(0.0254329 -0.00167044 -0.103956)
(0.02535 -0.00167427 -0.0968841)
(0.025266 -0.00168147 -0.0890677)
(0.0251411 -0.00169112 -0.0804873)
(0.0249873 -0.00170589 -0.0711295)
(0.024779 -0.00172772 -0.060988)
(0.0244845 -0.0017588 -0.0500493)
(0.0241238 -0.00181333 -0.0382842)
(0.0241724 -0.00481885 -0.0830429)
(0.0241867 -0.00484856 -0.0783923)
(0.024202 -0.00488809 -0.0730564)
(0.0241757 -0.00493302 -0.0669632)
(0.0241158 -0.00499087 -0.0600385)
(0.0239935 -0.00506627 -0.052211)
(0.0237667 -0.00516393 -0.0434034)
(0.02346 -0.00532833 -0.0335309)
(0.022244 -0.00756716 -0.0561416)
(0.0223732 -0.00765081 -0.0540574)
(0.0225086 -0.00775002 -0.0514489)
(0.0226059 -0.00785571 -0.0482048)
(0.0226666 -0.00797824 -0.044197)
(0.0226588 -0.00812419 -0.0392873)
(0.0225202 -0.0082969 -0.0333209)
(0.0222836 -0.00857863 -0.0261337)
(0.0201705 -0.00996158 -0.0349335)
(0.0203787 -0.0100994 -0.0342473)
(0.0205997 -0.0102562 -0.0332325)
(0.0207904 -0.0104173 -0.0317837)
(0.0209458 -0.0105926 -0.0297686)
(0.0210309 -0.0107882 -0.0270318)
(0.0209591 -0.0109965 -0.023385)
(0.0207598 -0.0113433 -0.0186209)
(0.018177 -0.0121479 -0.0214484)
(0.0184292 -0.0123243 -0.0212307)
(0.018702 -0.0125214 -0.0208294)
(0.0189575 -0.0127201 -0.0201697)
(0.0191871 -0.0129278 -0.0191511)
(0.0193601 -0.013149 -0.0176486)
(0.0193598 -0.013361 -0.0154992)
(0.019251 -0.0137194 -0.0125206)
(0.016075 -0.0140741 -0.0134303)
(0.016353 -0.0142686 -0.0132944)
(0.0166594 -0.0144831 -0.0130562)
(0.0169617 -0.0146917 -0.0126731)
(0.0172541 -0.0148978 -0.012087)
(0.017503 -0.0150846 -0.0112266)
(0.0176041 -0.0152302 -0.0100026)
(0.0175443 -0.0153471 -0.00831816)
(0.00715633 0.00626531 -0.0146921)
(0.00728014 0.00635118 -0.0152539)
(0.00741778 0.00644694 -0.0158258)
(0.00755339 0.00653965 -0.0163766)
(0.00768551 0.0066318 -0.0168566)
(0.0077988 0.00671574 -0.0171913)
(0.0078474 0.00678161 -0.0172648)
(0.00782553 0.00683701 -0.0168847)
(0.0080936 0.00540889 -0.0234135)
(0.00820574 0.00548695 -0.0239416)
(0.00832848 0.00557514 -0.0244011)
(0.0084431 0.00566375 -0.024729)
(0.00854727 0.00575694 -0.0248364)
(0.00862666 0.00585633 -0.0246037)
(0.00863042 0.00595233 -0.0238673)
(0.00858737 0.00611454 -0.0224172)
(0.00898384 0.00443674 -0.0381785)
(0.00907652 0.00449802 -0.0382657)
(0.00917618 0.00456831 -0.038138)
(0.00926207 0.00464044 -0.0377023)
(0.00933327 0.00471933 -0.0368414)
(0.00937373 0.00480746 -0.0354134)
(0.00934571 0.00490179 -0.0332479)
(0.00926264 0.00505801 -0.0301503)
(0.00990828 0.00337071 -0.0614778)
(0.00996609 0.00340813 -0.0601001)
(0.0100278 0.00345286 -0.0583036)
(0.0100723 0.00350045 -0.0559918)
(0.0101016 0.00355585 -0.0530566)
(0.0101008 0.0036218 -0.0493831)
(0.0100433 0.00369999 -0.0448501)
(0.00994345 0.00382668 -0.0393351)
(0.0107669 0.00214659 -0.0910791)
(0.0107737 0.00216016 -0.0869327)
(0.0107823 0.00217845 -0.0821984)
(0.0107721 0.00219907 -0.0768245)
(0.010748 0.00222567 -0.070765)
(0.0106967 0.00226013 -0.0639835)
(0.0106001 0.00230469 -0.0564517)
(0.0104692 0.00237884 -0.048149)
(0.0113267 0.000744184 -0.114109)
(0.0112902 0.000746233 -0.107327)
(0.0112551 0.000750052 -0.0998955)
(0.0112011 0.000754826 -0.0918219)
(0.0111356 0.000762025 -0.0831285)
(0.0110463 0.000772325 -0.0738527)
(0.0109198 0.000786808 -0.0640402)
(0.010765 0.00081163 -0.0537389)
(0.011326 -0.000743875 -0.114108)
(0.0112893 -0.000745564 -0.107327)
(0.0112544 -0.000748883 -0.0998953)
(0.0112004 -0.000753224 -0.0918217)
(0.0111349 -0.000759929 -0.0831283)
(0.0110456 -0.000769759 -0.0738525)
(0.0109192 -0.000783752 -0.06404)
(0.0107645 -0.000808116 -0.0537387)
(0.0107651 -0.00214605 -0.0910785)
(0.0107715 -0.00215925 -0.0869322)
(0.0107805 -0.00217724 -0.0821978)
(0.0107701 -0.00219744 -0.076824)
(0.0107462 -0.00222365 -0.0707645)
(0.010695 -0.00225767 -0.063983)
(0.0105985 -0.00230178 -0.0564512)
(0.0104678 -0.00237547 -0.0481486)
(0.00990605 -0.00336989 -0.0614772)
(0.00996338 -0.00340695 -0.0600996)
(0.0100255 -0.0034516 -0.058303)
(0.0100698 -0.00349882 -0.0559912)
(0.0100993 -0.00355395 -0.053056)
(0.0100986 -0.00361949 -0.0493825)
(0.0100412 -0.00369727 -0.0448494)
(0.00994158 -0.00382351 -0.0393345)
(0.00898174 -0.0044357 -0.0381782)
(0.00907413 -0.00449669 -0.0382653)
(0.00917405 -0.00456698 -0.0381375)
(0.00925973 -0.00463878 -0.0377018)
(0.00933108 -0.00471747 -0.0368408)
(0.00937153 -0.00480522 -0.0354128)
(0.00934361 -0.00489917 -0.0332473)
(0.00926064 -0.00505495 -0.0301496)
(0.00809171 -0.00540759 -0.0234133)
(0.00820373 -0.00548542 -0.0239413)
(0.0083266 -0.00557356 -0.0244007)
(0.00844109 -0.00566187 -0.0247286)
(0.00854534 -0.00575486 -0.0248359)
(0.00862469 -0.0058539 -0.0246031)
(0.00862846 -0.00594957 -0.0238667)
(0.00858545 -0.00611139 -0.0224165)
(0.00715447 -0.00626354 -0.014692)
(0.00727819 -0.00634913 -0.0152537)
(0.00741603 -0.00644481 -0.0158255)
(0.00755154 -0.0065372 -0.0163762)
(0.00768373 -0.00662917 -0.0168561)
(0.00779696 -0.00671282 -0.0171908)
(0.00784553 -0.00677842 -0.0172641)
(0.00782365 -0.00683348 -0.0168839)
(0.00299705 0.00262382 -0.015276)
(0.00304882 0.00265954 -0.0161603)
(0.00310684 0.00269977 -0.0171065)
(0.00316373 0.00273844 -0.0180888)
(0.00321945 0.00277707 -0.0190611)
(0.00326722 0.00281223 -0.0199478)
(0.00328823 0.00283984 -0.0206207)
(0.00327948 0.00286349 -0.020843)
(0.00338979 0.00226532 -0.024323)
(0.00343664 0.00229783 -0.0251959)
(0.00348844 0.0023349 -0.0260532)
(0.00353652 0.00237191 -0.0268375)
(0.00358057 0.00241104 -0.0274651)
(0.00361413 0.00245265 -0.027819)
(0.00361644 0.00249303 -0.0277357)
(0.00359912 0.00256112 -0.0269922)
(0.00376325 0.00185848 -0.0396809)
(0.00380196 0.00188403 -0.0401256)
(0.00384416 0.00191362 -0.0404078)
(0.00388024 0.0019438 -0.0404404)
(0.00391055 0.00197696 -0.0401128)
(0.00392791 0.0020139 -0.0392897)
(0.00391694 0.0020536 -0.0378091)
(0.0038831 0.00211907 -0.0354825)
(0.00415039 0.00141191 -0.0639488)
(0.00417453 0.00142751 -0.0628976)
(0.0042009 0.00144637 -0.0614763)
(0.00421974 0.00146629 -0.0595954)
(0.00423256 0.00148958 -0.0571559)
(0.00423275 0.00151722 -0.0540539)
(0.00420947 0.00155007 -0.0501837)
(0.00416858 0.00160309 -0.0454429)
(0.00450981 0.000899115 -0.0948008)
(0.00451267 0.000904786 -0.0908873)
(0.00451691 0.000912567 -0.0864306)
(0.00451291 0.000921229 -0.081389)
(0.00450347 0.000932468 -0.0757292)
(0.00448259 0.000946956 -0.0694313)
(0.00444303 0.00096573 -0.0624897)
(0.00438917 0.000996803 -0.0549141)
(0.00474387 0.000311688 -0.118811)
(0.00472866 0.000312554 -0.112163)
(0.00471468 0.000314209 -0.104909)
(0.00469243 0.000316231 -0.0970691)
(0.00466571 0.000319293 -0.0886824)
(0.00462898 0.000323637 -0.0798068)
(0.00457697 0.000329746 -0.0705153)
(0.00451316 0.000340152 -0.0608921)
(0.00474353 -0.000311536 -0.118811)
(0.00472823 -0.00031222 -0.112163)
(0.00471433 -0.000313627 -0.104909)
(0.00469205 -0.000315428 -0.097069)
(0.00466537 -0.000318237 -0.0886823)
(0.00462865 -0.000322339 -0.0798067)
(0.00457667 -0.000328192 -0.0705152)
(0.0045129 -0.000338352 -0.060892)
(0.00450894 -0.000898851 -0.0948005)
(0.00451157 -0.000904334 -0.090887)
(0.00451601 -0.000911957 -0.0864304)
(0.00451192 -0.000920408 -0.0813887)
(0.00450258 -0.000931443 -0.075729)
(0.00448173 -0.000945703 -0.0694311)
(0.00444225 -0.000964237 -0.0624895)
(0.00438849 -0.000995068 -0.0549138)
(0.00414927 -0.00141149 -0.0639485)
(0.00417319 -0.00142692 -0.0628973)
(0.00419976 -0.00144573 -0.061476)
(0.00421849 -0.00146545 -0.0595951)
(0.00423141 -0.0014886 -0.0571556)
(0.00423163 -0.00151603 -0.0540535)
(0.00420844 -0.00154867 -0.0501834)
(0.00416765 -0.00160144 -0.0454426)
(0.00376218 -0.00185795 -0.0396807)
(0.00380075 -0.00188335 -0.0401255)
(0.00384306 -0.00191292 -0.0404076)
(0.00387906 -0.00194293 -0.0404402)
(0.00390944 -0.00197598 -0.0401125)
(0.0039268 -0.00201273 -0.0392894)
(0.00391588 -0.00205223 -0.0378088)
(0.00388209 -0.00211746 -0.0354821)
(0.0033888 -0.00226464 -0.0243229)
(0.0034356 -0.00229703 -0.0251958)
(0.00348746 -0.00233407 -0.0260531)
(0.00353549 -0.00237093 -0.0268373)
(0.00357958 -0.00240994 -0.0274649)
(0.00361312 -0.00245137 -0.0278187)
(0.00361544 -0.00249158 -0.0277353)
(0.00359815 -0.00255947 -0.0269918)
(0.00299607 -0.00262289 -0.0152759)
(0.0030478 -0.00265847 -0.0161602)
(0.00310591 -0.00269865 -0.0171064)
(0.00316277 -0.00273716 -0.0180886)
(0.00321853 -0.0027757 -0.0190609)
(0.00326627 -0.0028107 -0.0199475)
(0.00328727 -0.00283817 -0.0206203)
(0.00327851 -0.00286164 -0.0208426)
(0.00111959 0.000980148 -0.0155233)
(0.00113883 0.00099336 -0.0165441)
(0.00116062 0.00100844 -0.0176488)
(0.00118184 0.0010228 -0.0188137)
(0.00120272 0.00103721 -0.0199944)
(0.00122057 0.00105029 -0.0211146)
(0.00122854 0.00106054 -0.0220409)
(0.00122519 0.00106941 -0.0225179)
(0.00126644 0.000846324 -0.0247084)
(0.00128382 0.000858358 -0.0257273)
(0.00130329 0.000872255 -0.0267531)
(0.00132121 0.000886012 -0.0277306)
(0.00133773 0.000900626 -0.0285784)
(0.00135025 0.000916104 -0.0291804)
(0.00135124 0.000931192 -0.0293734)
(0.0013448 0.000956546 -0.0289288)
(0.00140634 0.000694513 -0.0403176)
(0.00142067 0.000703977 -0.0409139)
(0.00143656 0.000715076 -0.0413698)
(0.00144999 0.000726303 -0.0416007)
(0.00146138 0.000738701 -0.0414988)
(0.00146787 0.000752463 -0.0409318)
(0.00146388 0.000767306 -0.0397409)
(0.00145134 0.000791667 -0.0377404)
(0.00155113 0.000527667 -0.0649962)
(0.00156001 0.000533434 -0.0640835)
(0.00157 0.000540513 -0.0628212)
(0.00157699 0.000547913 -0.0611229)
(0.00158184 0.000556611 -0.0588933)
(0.00158191 0.000566893 -0.0560331)
(0.00157329 0.000579147 -0.0524435)
(0.00155808 0.00059885 -0.0480302)
(0.00168553 0.000336044 -0.0963787)
(0.00168646 0.000338133 -0.092564)
(0.0016882 0.000341072 -0.0882251)
(0.00168665 0.000344294 -0.0833242)
(0.00168319 0.000348503 -0.0778337)
(0.0016754 0.000353904 -0.0717405)
(0.00166069 0.000360921 -0.0650485)
(0.00164062 0.000372489 -0.0577804)
(0.00177297 0.000116496 -0.120805)
(0.00176714 0.000116815 -0.114213)
(0.00176209 0.000117454 -0.107035)
(0.00175372 0.000118212 -0.099294)
(0.00174382 0.000119367 -0.0910372)
(0.00173011 0.000120993 -0.0823309)
(0.00171074 0.000123283 -0.0732598)
(0.00168695 0.000127161 -0.0639234)
(0.00177281 -0.000116423 -0.120805)
(0.00176693 -0.000116653 -0.114213)
(0.00176192 -0.000117172 -0.107035)
(0.00175354 -0.000117821 -0.0992939)
(0.00174366 -0.000118852 -0.0910371)
(0.00172995 -0.000120357 -0.0823308)
(0.0017106 -0.000122517 -0.0732597)
(0.00168683 -0.000126269 -0.0639233)
(0.00168512 -0.000335918 -0.0963786)
(0.00168594 -0.000337915 -0.0925639)
(0.00168777 -0.000340776 -0.0882249)
(0.00168618 -0.000343894 -0.0833241)
(0.00168277 -0.000348001 -0.0778336)
(0.00167499 -0.000353287 -0.0717404)
(0.00166031 -0.000360183 -0.0650485)
(0.00164029 -0.000371627 -0.0577803)
(0.00155059 -0.000527467 -0.0649961)
(0.00155937 -0.000533147 -0.0640834)
(0.00156945 -0.000540197 -0.0628211)
(0.00157639 -0.000547504 -0.0611228)
(0.00158129 -0.000556127 -0.0588932)
(0.00158138 -0.000566305 -0.056033)
(0.0015728 -0.000578447 -0.0524434)
(0.00155763 -0.000598029 -0.04803)
(0.00140582 -0.00069425 -0.0403175)
(0.00142008 -0.000703642 -0.0409138)
(0.00143603 -0.000714731 -0.0413697)
(0.00144942 -0.000725875 -0.0416006)
(0.00146084 -0.000738212 -0.0414987)
(0.00146734 -0.000751877 -0.0409317)
(0.00146337 -0.000766616 -0.0397408)
(0.00145086 -0.000790861 -0.0377403)
(0.00126596 -0.000845987 -0.0247083)
(0.00128331 -0.000857963 -0.0257273)
(0.00130281 -0.000871842 -0.026753)
(0.0013207 -0.000885522 -0.0277305)
(0.00133724 -0.00090008 -0.0285783)
(0.00134976 -0.00091547 -0.0291803)
(0.00135075 -0.000930466 -0.0293732)
(0.00134433 -0.000955719 -0.0289286)
(0.0011191 -0.000979686 -0.0155232)
(0.00113833 -0.00099283 -0.0165441)
(0.00116016 -0.00100788 -0.0176488)
(0.00118136 -0.00102216 -0.0188136)
(0.00120227 -0.00103653 -0.0199943)
(0.00122011 -0.00104952 -0.0211145)
(0.00122807 -0.00105971 -0.0220408)
(0.00122472 -0.00106849 -0.0225178)
(0.000234433 0.000205219 -0.015611)
(0.000238424 0.000207913 -0.0166804)
(0.000243055 0.000211085 -0.0178413)
(0.000247533 0.000214067 -0.019071)
(0.000251959 0.000217063 -0.0203257)
(0.000255743 0.000219781 -0.0215288)
(0.000257524 0.000221886 -0.0225451)
(0.000256787 0.000223786 -0.0231126)
(0.00026535 0.000177315 -0.0248449)
(0.000268937 0.00017978 -0.0259157)
(0.000273083 0.000182711 -0.0270012)
(0.000276857 0.00018558 -0.0280473)
(0.000280362 0.000188638 -0.0289732)
(0.000283004 0.000191855 -0.0296633)
(0.000283322 0.000195024 -0.0299543)
(0.000282002 0.000200279 -0.0296159)
(0.000295022 0.00014569 -0.0405429)
(0.000297971 0.000147638 -0.0411929)
(0.000301369 0.000149987 -0.0417104)