/*--------------------------------*- C++ -*----------------------------------*\
| =========                 |                                                 |
| \\      /  F ield         | OpenFOAM: The Open Source CFD Toolbox           |
|  \\    /   O peration     | Version:  2.2.0                                 |
|   \\  /    A nd           | Web:      www.OpenFOAM.org                      |
|    \\/     M anipulation  |                                                 |
\*---------------------------------------------------------------------------*/
FoamFile
{
    version     2.0;
    format      ascii;
    class       volScalarField;
    location    "10";
    object      Theta;
}
// * * * * * * * * * * * * * * * * * * * * * * * * * * * * * * * * * * * * * //

dimensions      [0 2 -2 0 0 0 0];

internalField   nonuniform List<scalar> 
7920
(
3.01813
2.85681
3.24378
3.32813
3.55668
3.90332
3.79351
5.00323
3.00198
2.80551
3.18553
3.23196
3.46144
3.67613
3.74751
4.27089
2.98123
2.7535
3.13503
3.15916
3.38878
3.55154
3.69298
3.9927
2.95671
2.68859
3.0704
3.0687
3.28629
3.40923
3.56585
3.7274
2.93333
2.63216
3.02042
3.00304
3.21611
3.32337
3.48584
3.59512
2.91849
2.59539
2.98893
2.96204
3.17235
3.27175
3.43418
3.5206
2.9197
2.59517
2.98942
2.96217
3.17258
3.27191
3.43432
3.52067
2.93653
2.63156
3.02172
3.00338
3.21672
3.32378
3.48623
3.59536
2.96111
2.68774
3.07221
3.06916
3.28714
3.40979
3.56637
3.72775
2.98586
2.75257
3.13695
3.15963
3.38969
3.55219
3.69355
3.99327
3.00621
2.80464
3.18727
3.23237
3.46221
3.67667
3.74785
4.27138
3.02041
2.85635
3.24469
3.3284
3.55715
3.90378
3.7937
5.00404
2.37846
2.32351
2.41709
2.43175
2.48623
2.5618
2.55515
2.8053
2.37983
2.32608
2.41461
2.42309
2.48091
2.51859
2.57987
2.6171
2.38095
2.32944
2.40858
2.41149
2.46124
2.4812
2.53568
2.52381
2.38483
2.33968
2.40964
2.41087
2.45505
2.46796
2.52183
2.49182
2.39014
2.35243
2.41208
2.41202
2.44939
2.45723
2.50183
2.46497
2.39349
2.36257
2.41483
2.41499
2.44851
2.45495
2.49502
2.45955
2.3913
2.36309
2.41394
2.41484
2.44812
2.45473
2.4948
2.45944
2.3847
2.35377
2.40982
2.41165
2.44839
2.45665
2.50124
2.46463
2.37811
2.34132
2.40681
2.41038
2.45377
2.46718
2.52108
2.4913
2.37484
2.33097
2.40595
2.41101
2.45999
2.48035
2.53491
2.52302
2.37482
2.32732
2.41243
2.42269
2.47991
2.51788
2.57939
2.61638
2.37532
2.3243
2.41571
2.43145
2.48552
2.5612
2.55475
2.80438
2.18869
2.18959
2.22613
2.24467
2.28024
2.31557
2.35792
2.41206
2.19194
2.1906
2.22515
2.23974
2.27493
2.29477
2.35986
2.33109
2.19616
2.19176
2.22222
2.23218
2.26062
2.27361
2.32134
2.29151
2.20312
2.19791
2.2256
2.23364
2.259
2.2711
2.31366
2.29362
2.21158
2.20531
2.22976
2.23549
2.25708
2.26729
2.30161
2.28743
2.21788
2.21116
2.2337
2.23834
2.25813
2.26801
2.29891
2.29023
2.21807
2.21114
2.23379
2.23836
2.25818
2.26804
2.29894
2.29025
2.21196
2.20529
2.22994
2.23556
2.25718
2.26736
2.30167
2.28748
2.20337
2.19797
2.22573
2.23372
2.2591
2.27118
2.31374
2.29369
2.19612
2.1919
2.22224
2.23226
2.26069
2.27367
2.3214
2.29152
2.19176
2.19078
2.22513
2.23983
2.275
2.29484
2.36
2.33111
2.18876
2.18962
2.22618
2.24471
2.28033
2.31562
2.35804
2.41204
2.09849
2.09591
2.10987
2.1158
2.12968
2.13939
2.16422
2.1637
2.10035
2.09676
2.10999
2.11428
2.12779
2.13136
2.16455
2.13045
2.10274
2.09747
2.10885
2.11087
2.1207
2.12173
2.14304
2.11474
2.10668
2.101
2.11154
2.11293
2.12156
2.12325
2.14108
2.12275
2.11147
2.10496
2.1144
2.11471
2.1217
2.12293
2.13609
2.12312
2.1151
2.10801
2.11695
2.11674
2.12306
2.1244
2.13577
2.12674
2.11541
2.10791
2.11708
2.11674
2.1231
2.12442
2.13579
2.12675
2.11218
2.10472
2.11469
2.11471
2.1218
2.12297
2.13613
2.12313
2.10741
2.10075
2.11185
2.11292
2.12167
2.12329
2.14113
2.12278
2.1032
2.09728
2.10906
2.11085
2.12078
2.12175
2.14307
2.11475
2.10058
2.09664
2.11011
2.11426
2.12784
2.13137
2.16459
2.13045
2.09874
2.09579
2.11
2.11578
2.12974
2.1394
2.16426
2.16368
2.04982
2.04796
2.05519
2.05787
2.06489
2.06913
2.08294
2.07886
2.05078
2.04837
2.05525
2.05715
2.06387
2.06541
2.08251
2.06368
2.05201
2.04874
2.05476
2.05554
2.06043
2.06089
2.07172
2.05694
2.05402
2.05051
2.05619
2.05668
2.06102
2.06197
2.07092
2.06191
2.05645
2.05248
2.05771
2.05768
2.06126
2.06206
2.0687
2.06274
2.0583
2.05397
2.05904
2.05874
2.06204
2.06292
2.06868
2.06484
2.05848
2.05391
2.05911
2.05874
2.06206
2.06293
2.0687
2.06485
2.05688
2.05233
2.05789
2.05768
2.06133
2.06209
2.06873
2.06275
2.05447
2.05034
2.05639
2.05668
2.0611
2.062
2.07097
2.06193
2.05231
2.04861
2.0549
2.05553
2.06049
2.06092
2.07176
2.05696
2.05094
2.04828
2.05535
2.05714
2.06391
2.06543
2.08254
2.0637
2.04998
2.04787
2.05527
2.05786
2.06494
2.06916
2.08298
2.07888
2.02397
2.0227
2.0262
2.02729
2.03054
2.03235
2.03895
2.03629
2.02443
2.02289
2.02622
2.02694
2.03001
2.03061
2.03854
2.02926
2.02502
2.02307
2.02601
2.02621
2.02842
2.02855
2.0335
2.02629
2.02597
2.0239
2.0267
2.02677
2.02873
2.02909
2.03313
2.02876
2.02713
2.02483
2.02743
2.02726
2.02889
2.02919
2.03216
2.02929
2.02801
2.02553
2.02807
2.02777
2.02927
2.02961
2.03218
2.03032
2.02811
2.0255
2.02811
2.02777
2.02929
2.02962
2.03219
2.03032
2.02735
2.02476
2.02753
2.02727
2.02892
2.0292
2.03218
2.0293
2.02621
2.02382
2.0268
2.02677
2.02877
2.0291
2.03315
2.02877
2.02518
2.023
2.02608
2.02621
2.02846
2.02856
2.03352
2.02631
2.02452
2.02284
2.02627
2.02694
2.03003
2.03062
2.03856
2.02927
2.02406
2.02265
2.02624
2.02729
2.03056
2.03236
2.03896
2.0363
2.01085
2.01002
2.01169
2.01209
2.01352
2.01428
2.01718
2.01589
2.01106
2.0101
2.0117
2.01193
2.01327
2.01352
2.01695
2.01282
2.01133
2.01019
2.01162
2.01163
2.01259
2.01263
2.01476
2.01156
2.01176
2.01056
2.01193
2.01187
2.01273
2.01287
2.0146
2.01266
2.01228
2.01097
2.01226
2.0121
2.01282
2.01294
2.0142
2.01293
2.01268
2.01128
2.01255
2.01233
2.013
2.01313
2.01422
2.01339
2.01273
2.01127
2.01257
2.01233
2.013
2.01313
2.01422
2.01339
2.01239
2.01093
2.01231
2.0121
2.01284
2.01294
2.01421
2.01293
2.01188
2.01052
2.01198
2.01187
2.01275
2.01288
2.01461
2.01267
2.01141
2.01015
2.01165
2.01162
2.01261
2.01264
2.01477
2.01157
2.01111
2.01008
2.01172
2.01193
2.01328
2.01353
2.01696
2.01282
2.0109
2.00999
2.01171
2.01209
2.01353
2.01429
2.01719
2.0159
2.00461
2.00418
2.00494
2.00509
2.0057
2.00603
2.00724
2.00673
2.0047
2.00421
2.00494
2.00502
2.00559
2.00571
2.00712
2.00545
2.00482
2.00425
2.00491
2.0049
2.00531
2.00535
2.00623
2.00494
2.005
2.00441
2.00504
2.005
2.00537
2.00544
2.00616
2.00538
2.00522
2.00458
2.00518
2.0051
2.00541
2.00547
2.006
2.0055
2.00539
2.00471
2.0053
2.00519
2.00549
2.00555
2.00601
2.00569
2.00541
2.0047
2.00531
2.00519
2.00549
2.00555
2.00601
2.00569
2.00527
2.00456
2.0052
2.0051
2.00542
2.00548
2.00601
2.0055
2.00505
2.00439
2.00506
2.005
2.00538
2.00545
2.00616
2.00539
2.00485
2.00424
2.00493
2.0049
2.00532
2.00535
2.00623
2.00494
2.00472
2.0042
2.00495
2.00502
2.00559
2.00571
2.00712
2.00545
2.00463
2.00417
2.00495
2.00509
2.0057
2.00603
2.00724
2.00674
2.00176
2.00155
2.00186
2.00191
2.00214
2.00226
2.00271
2.00253
2.00179
2.00157
2.00186
2.00188
2.00209
2.00214
2.00265
2.00205
2.00184
2.00158
2.00185
2.00184
2.00199
2.00201
2.00233
2.00187
2.00191
2.00164
2.0019
2.00187
2.00202
2.00205
2.0023
2.00203
2.00199
2.0017
2.00195
2.00191
2.00203
2.00206
2.00225
2.00207
2.00206
2.00175
2.002
2.00195
2.00206
2.00209
2.00225
2.00214
2.00207
2.00175
2.002
2.00195
2.00206
2.00209
2.00226
2.00214
2.00201
2.0017
2.00196
2.00191
2.00204
2.00206
2.00225
2.00207
2.00193
2.00163
2.00191
2.00187
2.00202
2.00205
2.00231
2.00203
2.00185
2.00157
2.00186
2.00184
2.002
2.00202
2.00233
2.00187
2.0018
2.00156
2.00186
2.00188
2.00209
2.00215
2.00265
2.00205
2.00177
2.00155
2.00186
2.00191
2.00214
2.00227
2.00271
2.00253
2.00038
2.00032
2.00039
2.0004
2.00044
2.00046
2.00054
2.00051
2.00039
2.00033
2.00039
2.00039
2.00043
2.00044
2.00052
2.00041
2.0004
2.00033
2.00039
2.00038
2.00041
2.00041
2.00047
2.00038
2.00041
2.00034
2.0004
2.00039
2.00041
2.00042
2.00046
2.0004
2.00043
2.00036
2.00041
2.0004
2.00042
2.00042
2.00045
2.00041
2.00045
2.00037
2.00042
2.00041
2.00042
2.00043
2.00045
2.00042
2.00046
2.00036
2.00042
2.00041
2.00042
2.00043
2.00045
2.00042
2.00045
2.00035
2.00041
2.0004
2.00042
2.00042
2.00045
2.00041
2.00043
2.00034
2.0004
2.00039
2.00041
2.00042
2.00046
2.0004
2.00041
2.00033
2.00039
2.00038
2.00041
2.00041
2.00047
2.00038
2.0004
2.00032
2.00039
2.00039
2.00043
2.00044
2.00052
2.00041
2.00039
2.00032
2.00039
2.0004
2.00044
2.00046
2.00054
2.00051
1.99933
1.9995
1.99934
1.99937
1.99929
1.99927
1.99912
1.99923
1.99931
1.99949
1.99934
1.99938
1.99929
1.99932
1.99912
1.99941
1.9993
1.99949
1.99934
1.9994
1.99934
1.99937
1.99926
1.99949
1.99927
1.99948
1.99932
1.99939
1.99933
1.99935
1.99926
1.99941
1.99924
1.99945
1.99931
1.99938
1.99933
1.99935
1.99929
1.9994
1.99922
1.99944
1.99929
1.99936
1.99932
1.99934
1.99929
1.99937
1.99923
1.99943
1.9993
1.99936
1.99932
1.99934
1.99929
1.99937
1.99925
1.99945
1.99931
1.99938
1.99933
1.99935
1.99929
1.9994
1.99928
1.99947
1.99933
1.99939
1.99933
1.99936
1.99926
1.99941
1.99931
1.99949
1.99935
1.9994
1.99934
1.99937
1.99926
1.99949
1.99932
1.99949
1.99934
1.99938
1.9993
1.99932
1.99912
1.99941
1.99933
1.99949
1.99934
1.99937
1.99929
1.99927
1.99912
1.99923
1.99721
1.99752
1.99685
1.99678
1.99624
1.99595
1.99508
1.99516
1.99716
1.9975
1.99685
1.99683
1.9963
1.99616
1.99511
1.99598
1.99708
1.99749
1.99687
1.99691
1.99648
1.99639
1.99568
1.99633
1.99696
1.99741
1.99679
1.99685
1.99645
1.99633
1.99572
1.99606
1.99683
1.99731
1.99671
1.9968
1.99643
1.99633
1.99583
1.99602
1.99675
1.99723
1.99665
1.99675
1.9964
1.99628
1.99584
1.9959
1.99677
1.99722
1.99665
1.99675
1.9964
1.99628
1.99584
1.9959
1.99687
1.99729
1.99673
1.9968
1.99644
1.99633
1.99584
1.99602
1.99701
1.99739
1.99681
1.99685
1.99645
1.99634
1.99572
1.99607
1.99711
1.99748
1.99688
1.99691
1.99649
1.99639
1.99568
1.99633
1.99718
1.99749
1.99686
1.99682
1.99631
1.99616
1.99511
1.99598
1.99723
1.99751
1.99686
1.99678
1.99625
1.99595
1.99508
1.99515
1.99111
1.99453
1.99164
1.99264
1.99129
1.99123
1.98955
1.99052
1.99093
1.99447
1.99158
1.99271
1.99135
1.9917
1.98937
1.99259
1.99068
1.99444
1.99163
1.99294
1.99184
1.99236
1.99097
1.99361
1.99029
1.9942
1.99137
1.99275
1.99172
1.99216
1.99103
1.99282
1.98987
1.99393
1.99113
1.9926
1.99168
1.99214
1.99136
1.9927
1.98961
1.9937
1.99094
1.99245
1.99157
1.99201
1.99136
1.99238
1.98967
1.99369
1.99097
1.99245
1.99158
1.99201
1.99137
1.99238
1.99001
1.99388
1.99119
1.99261
1.9917
1.99215
1.99138
1.99271
1.99044
1.99415
1.99144
1.99276
1.99175
1.99218
1.99105
1.99283
1.99078
1.9944
1.99167
1.99294
1.99186
1.99237
1.99098
1.99362
1.99099
1.99444
1.99162
1.9927
1.99136
1.99171
1.98938
1.9926
1.99116
1.99451
1.99167
1.99264
1.9913
1.99124
1.98956
1.99053
1.96443
1.97379
1.95768
1.95939
1.94874
1.94364
1.93304
1.92615
1.96391
1.97344
1.95764
1.9598
1.94926
1.94616
1.93254
1.93724
1.96318
1.97309
1.95792
1.96072
1.95124
1.94904
1.93851
1.94257
1.96203
1.9719
1.95713
1.96009
1.95104
1.94875
1.93921
1.94096
1.96073
1.97054
1.9563
1.9595
1.951
1.94888
1.9407
1.94112
1.95981
1.96949
1.9556
1.95888
1.95064
1.94849
1.94088
1.94022
1.95985
1.96948
1.95562
1.95888
1.95065
1.94849
1.94088
1.94022
1.96081
1.97052
1.95634
1.95951
1.95102
1.94889
1.94071
1.94113
1.96212
1.97187
1.95717
1.9601
1.95106
1.94876
1.93922
1.94097
1.96323
1.97307
1.95795
1.96072
1.95125
1.94904
1.93852
1.94258
1.96394
1.97343
1.95766
1.9598
1.94927
1.94617
1.93255
1.93725
1.96446
1.97378
1.9577
1.9594
1.94875
1.94364
1.93305
1.92616
1.72112
2.05313
1.84031
1.9496
1.89011
1.90828
1.89144
1.88925
1.72073
2.05288
1.84051
1.95003
1.89116
1.91055
1.89179
1.89999
1.72023
2.05263
1.84094
1.95094
1.89319
1.91325
1.89723
1.90518
1.71942
2.05168
1.84052
1.95062
1.89344
1.91331
1.8985
1.90428
1.71842
2.05057
1.83997
1.95025
1.89362
1.91356
1.90003
1.90452
1.71763
2.04974
1.83944
1.94982
1.89346
1.91336
1.9004
1.90392
1.71752
2.04977
1.83939
1.94982
1.89344
1.91335
1.90039
1.90391
1.71816
2.05065
1.83986
1.95024
1.89358
1.91354
1.9
1.90451
1.71914
2.05176
1.8404
1.95061
1.89338
1.91328
1.89847
1.90426
1.72004
2.0527
1.84086
1.95094
1.89314
1.91323
1.8972
1.90517
1.72062
2.05293
1.84045
1.95003
1.89112
1.91053
1.89177
1.89997
1.72103
2.05317
1.84026
1.94959
1.89009
1.90827
1.89142
1.88927
3.04121
2.92056
3.30418
3.41063
3.65072
4.01188
3.91831
5.12633
3.03352
2.89122
3.26649
3.34156
3.58825
3.81778
3.9298
4.42529
3.02466
2.86458
3.23399
3.28939
3.53113
3.70388
3.87096
4.13277
3.01621
2.83613
3.19796
3.23423
3.46181
3.59712
3.77273
3.90841
3.01006
2.81702
3.17501
3.20045
3.41857
3.5376
3.70724
3.79747
3.00656
2.80492
3.1607
3.17943
3.3913
3.50204
3.66497
3.73751
3.006
2.80137
3.15757
3.17472
3.38591
3.49516
3.65802
3.72697
3.0082
2.80579
3.16464
3.18481
3.40026
3.51369
3.6822
3.75828
3.0128
2.81736
3.18113
3.2091
3.4333
3.55983
3.73765
3.84797
3.01868
2.83525
3.20578
3.247
3.48146
3.63563
3.80355
4.00635
3.02413
2.85439
3.23327
3.293
3.53633
3.74518
3.88197
4.2926
3.02534
2.86697
3.25086
3.33268
3.56187
3.88376
3.80974
4.8609
2.35852
2.29
2.39074
2.40163
2.45565
2.53631
2.51424
2.80891
2.35348
2.28103
2.37851
2.3813
2.4361
2.48009
2.51035
2.60674
2.34622
2.27305
2.36769
2.36685
2.4201
2.45071
2.49094
2.53615
2.33929
2.26516
2.3569
2.35283
2.40353
2.42452
2.47112
2.47824
2.33409
2.25994
2.34953
2.34364
2.39225
2.40784
2.45508
2.44165
2.3317
2.25797
2.34628
2.33968
2.38717
2.40053
2.44781
2.42614
2.33249
2.25983
2.34768
2.34149
2.3889
2.4027
2.44922
2.42942
2.33654
2.26602
2.35454
2.35038
2.39928
2.41724
2.46305
2.45822
2.34359
2.27512
2.36447
2.36271
2.41272
2.43699
2.47743
2.49994
2.35295
2.28932
2.38172
2.38619
2.44045
2.48087
2.51445
2.59981
2.36328
2.30042
2.39276
2.39946
2.45007
2.50336
2.50605
2.65878
2.37323
2.31972
2.41684
2.43682
2.49111
2.59308
2.54818
2.94748
2.16777
2.16983
2.20778
2.22845
2.26455
2.30808
2.33858
2.43965
2.16521
2.16401
2.19955
2.21558
2.24889
2.27742
2.31854
2.34557
2.16165
2.15952
2.19344
2.20769
2.23894
2.26407
2.30232
2.32426
2.15839
2.15538
2.18771
2.20035
2.22978
2.25192
2.29001
2.30446
2.15611
2.15282
2.18403
2.19575
2.22395
2.24422
2.28133
2.29086
2.15537
2.15208
2.18265
2.19398
2.22156
2.24106
2.27768
2.28552
2.15642
2.15339
2.18377
2.19519
2.22259
2.24235
2.27802
2.28778
2.15937
2.15708
2.18798
2.20031
2.22842
2.25029
2.28513
2.30292
2.16406
2.16215
2.1936
2.2067
2.23504
2.25929
2.29043
2.31976
2.17019
2.17045
2.20416
2.22049
2.25177
2.28387
2.31391
2.3718
2.1769
2.17613
2.20982
2.22583
2.25476
2.28902
2.30395
2.37974
2.18406
2.18842
2.22666
2.25036
2.28591
2.3432
2.35385
2.53601
2.08497
2.08276
2.09645
2.10292
2.1161
2.1295
2.14667
2.1723
2.0837
2.07996
2.0924
2.0967
2.10798
2.11515
2.13375
2.13013
2.08199
2.07798
2.08966
2.0933
2.10341
2.1099
2.12498
2.12438
2.08054
2.07636
2.08738
2.09051
2.09984
2.10565
2.1198
2.1191
2.07965
2.07552
2.0861
2.08898
2.09784
2.10321
2.11653
2.11538
2.07954
2.07558
2.08595
2.0888
2.09751
2.10281
2.11582
2.11499
2.08036
2.07659
2.08693
2.08991
2.09861
2.10421
2.11668
2.11743
2.08213
2.07872
2.08937
2.09282
2.10192
2.10861
2.12067
2.12567
2.08476
2.08144
2.09237
2.09611
2.10527
2.11294
2.12315
2.13329
2.08815
2.08582
2.09799
2.1033
2.1141
2.12546
2.136
2.15926
2.09183
2.08864
2.10072
2.10547
2.11498
2.12618
2.12979
2.15732
2.09585
2.09545
2.1103
2.11918
2.13322
2.15541
2.16242
2.23715
2.04215
2.04084
2.04778
2.05087
2.05759
2.06369
2.07386
2.08283
2.04156
2.0395
2.04582
2.04788
2.05357
2.05689
2.06708
2.06329
2.04078
2.03859
2.04454
2.04629
2.05137
2.05452
2.06256
2.06127
2.04016
2.0379
2.04357
2.0451
2.04981
2.05279
2.06016
2.05964
2.03984
2.0376
2.04308
2.04451
2.04901
2.05187
2.05872
2.05848
2.03991
2.03774
2.04314
2.04457
2.04901
2.0519
2.05854
2.05876
2.04042
2.03832
2.04373
2.04522
2.04966
2.05271
2.05906
2.06019
2.04139
2.03942
2.045
2.04669
2.05131
2.05487
2.06101
2.06418
2.04277
2.0408
2.04651
2.0483
2.05295
2.05691
2.06218
2.06765
2.04452
2.04296
2.04927
2.05178
2.05723
2.06284
2.06843
2.07979
2.04639
2.04435
2.05061
2.05278
2.05761
2.06288
2.06536
2.07779
2.04846
2.04773
2.05542
2.05958
2.0668
2.07719
2.08235
2.11623
2.02001
2.01906
2.02233
2.02359
2.02664
2.02922
2.03414
2.03736
2.01974
2.01845
2.02142
2.02221
2.02476
2.02609
2.03087
2.02839
2.01939
2.01803
2.02083
2.02147
2.02371
2.02499
2.02866
2.02752
2.01913
2.01775
2.02041
2.02096
2.02304
2.02426
2.02757
2.02697
2.01902
2.01764
2.02023
2.02073
2.02272
2.02391
2.02695
2.0266
2.01909
2.01775
2.02031
2.02082
2.02278
2.024
2.02694
2.02688
2.01937
2.01806
2.02064
2.02117
2.02315
2.02446
2.02726
2.02768
2.01987
2.0186
2.02127
2.0219
2.02397
2.02551
2.02822
2.02961
2.02055
2.01927
2.02202
2.0227
2.02479
2.02652
2.02886
2.03129
2.0214
2.0203
2.02334
2.02434
2.02682
2.02929
2.03183
2.03691
2.02231
2.02098
2.02401
2.02486
2.02707
2.02935
2.03054
2.03597
2.02331
2.02259
2.0263
2.02808
2.03145
2.03608
2.03877
2.05394
2.00896
2.00832
2.00986
2.01034
2.01168
2.01276
2.01495
2.01617
2.00885
2.00806
2.00947
2.00974
2.01086
2.01142
2.01351
2.0123
2.0087
2.00788
2.00921
2.00942
2.0104
2.01093
2.01253
2.01192
2.00859
2.00777
2.00904
2.00921
2.01012
2.01063
2.01206
2.01173
2.00855
2.00773
2.00897
2.00912
2.01
2.01049
2.01181
2.01161
2.0086
2.00779
2.00902
2.00918
2.01004
2.01056
2.01182
2.01177
2.00874
2.00794
2.00918
2.00935
2.01022
2.01077
2.01198
2.01215
2.00897
2.00819
2.00947
2.00968
2.01059
2.01125
2.01241
2.01301
2.00929
2.00849
2.00981
2.01004
2.01097
2.01171
2.01272
2.01377
2.00968
2.00895
2.0104
2.01077
2.01186
2.01291
2.01402
2.01621
2.01009
2.00926
2.01071
2.01101
2.012
2.01296
2.0135
2.01582
2.01055
2.00996
2.01173
2.01242
2.01393
2.0159
2.01714
2.02367
2.00378
2.00345
2.00413
2.00432
2.00489
2.00534
2.00627
2.00676
2.00374
2.00334
2.00397
2.00408
2.00455
2.00479
2.00567
2.00517
2.00368
2.00327
2.00387
2.00394
2.00436
2.00459
2.00526
2.00501
2.00363
2.00323
2.0038
2.00386
2.00425
2.00447
2.00507
2.00494
2.00362
2.00321
2.00377
2.00383
2.0042
2.00442
2.00497
2.0049
2.00364
2.00324
2.0038
2.00385
2.00422
2.00445
2.00498
2.00498
2.0037
2.00331
2.00387
2.00393
2.0043
2.00454
2.00505
2.00514
2.00381
2.00341
2.00399
2.00407
2.00446
2.00474
2.00524
2.0055
2.00394
2.00354
2.00414
2.00422
2.00463
2.00494
2.00538
2.00583
2.00411
2.00373
2.00439
2.00452
2.005
2.00544
2.00592
2.00683
2.00429
2.00386
2.00453
2.00464
2.00507
2.00547
2.00573
2.00669
2.00448
2.00416
2.00495
2.00522
2.00587
2.00668
2.00724
2.00992
2.00144
2.00128
2.00155
2.00161
2.00182
2.00199
2.00234
2.00252
2.00142
2.00124
2.00149
2.00152
2.0017
2.00179
2.00211
2.00193
2.0014
2.00121
2.00145
2.00147
2.00163
2.00171
2.00196
2.00187
2.00138
2.00119
2.00143
2.00144
2.00159
2.00167
2.00189
2.00185
2.00138
2.00119
2.00142
2.00143
2.00157
2.00165
2.00186
2.00183
2.00138
2.0012
2.00143
2.00144
2.00158
2.00167
2.00186
2.00186
2.00141
2.00123
2.00145
2.00147
2.00161
2.0017
2.00189
2.00193
2.00145
2.00127
2.0015
2.00152
2.00167
2.00178
2.00196
2.00206
2.0015
2.00132
2.00156
2.00158
2.00174
2.00185
2.00202
2.00219
2.00156
2.00139
2.00165
2.00169
2.00187
2.00203
2.00221
2.00255
2.00163
2.00144
2.00171
2.00174
2.0019
2.00206
2.00216
2.00251
2.00171
2.00154
2.00186
2.00195
2.0022
2.0025
2.00271
2.00369
2.00031
2.00026
2.00032
2.00033
2.00037
2.0004
2.00046
2.00049
2.00031
2.00025
2.00031
2.00031
2.00034
2.00036
2.00041
2.00037
2.0003
2.00025
2.0003
2.0003
2.00033
2.00034
2.00038
2.00036
2.0003
2.00024
2.00029
2.00029
2.00032
2.00033
2.00037
2.00035
2.0003
2.00024
2.00029
2.00029
2.00032
2.00033
2.00036
2.00035
2.0003
2.00025
2.00029
2.00029
2.00032
2.00033
2.00036
2.00036
2.00031
2.00025
2.0003
2.0003
2.00032
2.00034
2.00037
2.00037
2.00031
2.00026
2.00031
2.00031
2.00034
2.00036
2.00039
2.0004
2.00032
2.00027
2.00032
2.00033
2.00035
2.00037
2.0004
2.00043
2.00034
2.00029
2.00034
2.00035
2.00038
2.00041
2.00044
2.0005
2.00035
2.0003
2.00036
2.00036
2.00039
2.00042
2.00044
2.0005
2.00037
2.00032
2.00039
2.0004
2.00045
2.0005
2.00055
2.00073
1.99945
1.99958
1.99945
1.99946
1.99939
1.99935
1.99925
1.9992
1.99946
1.9996
1.99947
1.9995
1.99943
1.99943
1.99932
1.99943
1.99946
1.99961
1.99949
1.99952
1.99946
1.99946
1.99938
1.99945
1.99947
1.99961
1.9995
1.99953
1.99948
1.99947
1.99941
1.99946
1.99947
1.99962
1.9995
1.99954
1.99948
1.99948
1.99942
1.99946
1.99947
1.99961
1.99949
1.99953
1.99948
1.99948
1.99942
1.99945
1.99945
1.99961
1.99949
1.99952
1.99947
1.99947
1.99941
1.99943
1.99944
1.9996
1.99947
1.9995
1.99945
1.99944
1.99939
1.99938
1.99942
1.99958
1.99945
1.99949
1.99943
1.99941
1.99938
1.99934
1.99939
1.99956
1.99941
1.99944
1.99938
1.99934
1.9993
1.99919
1.99936
1.99954
1.9994
1.99943
1.99938
1.99935
1.99935
1.99923
1.99934
1.9995
1.99933
1.99935
1.99926
1.99917
1.99913
1.99875
1.99769
1.99788
1.99729
1.99717
1.99667
1.99629
1.9956
1.99505
1.99773
1.99794
1.99739
1.99733
1.99688
1.99665
1.99596
1.99609
1.99777
1.99799
1.99746
1.99741
1.997
1.99677
1.99621
1.99619
1.99779
1.99802
1.99751
1.99747
1.99708
1.99686
1.99633
1.99626
1.9978
1.99804
1.99752
1.9975
1.99711
1.9969
1.9964
1.9963
1.99778
1.99803
1.99751
1.99749
1.9971
1.99689
1.9964
1.99627
1.99774
1.998
1.99747
1.99745
1.99706
1.99684
1.99637
1.99619
1.99768
1.99795
1.9974
1.99737
1.99697
1.99672
1.99626
1.99597
1.99759
1.99788
1.99732
1.99729
1.99688
1.99661
1.9962
1.99579
1.99749
1.99777
1.99717
1.99711
1.99666
1.9963
1.99586
1.99516
1.99738
1.99771
1.99709
1.99705
1.99663
1.9963
1.99602
1.99527
1.99727
1.99753
1.99684
1.99669
1.99614
1.99553
1.99511
1.99321
1.99252
1.99553
1.99286
1.99371
1.99243
1.99207
1.99095
1.98994
1.99264
1.9957
1.99314
1.99411
1.99296
1.99301
1.99177
1.9927
1.99277
1.99581
1.99331
1.99432
1.99326
1.99333
1.99239
1.99299
1.99286
1.9959
1.99344
1.99448
1.99347
1.99356
1.9927
1.99321
1.99289
1.99594
1.9935
1.99455
1.99357
1.99368
1.99289
1.99336
1.99285
1.99592
1.99347
1.99453
1.99355
1.99366
1.9929
1.9933
1.99273
1.99584
1.99336
1.99443
1.99344
1.99353
1.99282
1.99308
1.99254
1.99569
1.99316
1.99421
1.99319
1.9932
1.99253
1.99245
1.99228
1.99551
1.99292
1.99398
1.99296
1.99291
1.99239
1.99195
1.99197
1.99521
1.9925
1.99347
1.99232
1.99202
1.99148
1.99007
1.99163
1.99504
1.9923
1.99336
1.99233
1.99207
1.99208
1.99045
1.9913
1.99455
1.99159
1.99236
1.991
1.98997
1.98968
1.98479
1.96793
1.9778
1.96138
1.96313
1.95257
1.94649
1.93795
1.92399
1.96825
1.97861
1.96253
1.96493
1.95489
1.95081
1.9413
1.93748
1.9686
1.97919
1.96326
1.96591
1.95618
1.95244
1.94366
1.93984
1.96889
1.97969
1.96389
1.96675
1.95725
1.9538
1.94525
1.94193
1.96903
1.97995
1.96421
1.96719
1.95783
1.95455
1.94623
1.94321
1.96899
1.97995
1.96423
1.96725
1.95794
1.9547
1.9465
1.94345
1.96874
1.97966
1.96395
1.96694
1.95764
1.95431
1.94627
1.94277
1.96829
1.97904
1.96328
1.9661
1.95668
1.95303
1.94508
1.94031
1.96764
1.97824
1.96247
1.96516
1.95573
1.95176
1.94437
1.93795
1.96683
1.97693
1.9609
1.96306
1.95316
1.94802
1.94059
1.9299
1.96596
1.97606
1.9602
1.96242
1.95296
1.94769
1.94259
1.92971
1.96502
1.97402
1.95752
1.95845
1.94775
1.93905
1.93362
1.90514
1.72375
2.05685
1.84324
1.95265
1.89307
1.91019
1.89529
1.88606
1.72395
2.05761
1.84438
1.95422
1.89557
1.91391
1.89882
1.89885
1.72424
2.05817
1.84508
1.95508
1.89683
1.91539
1.90084
1.90142
1.72449
2.05869
1.84575
1.95595
1.89807
1.91681
1.90277
1.90384
1.72464
2.05896
1.84609
1.95638
1.89868
1.91751
1.90373
1.9051
1.72465
2.05897
1.84617
1.95649
1.89889
1.91775
1.90415
1.90554
1.72449
2.05869
1.84595
1.95623
1.89864
1.91743
1.90398
1.90497
1.72417
2.05808
1.84535
1.95545
1.89774
1.91624
1.90282
1.90263
1.72369
2.05729
1.84464
1.95461
1.89686
1.91515
1.90219
1.90051
1.72307
2.05602
1.84318
1.95265
1.89435
1.91169
1.8984
1.8929
1.72242
2.05518
1.84257
1.95214
1.89414
1.91147
1.90036
1.89245
1.72166
2.05332
1.8401
1.94868
1.88914
1.90403
1.89188
1.8701
3.04151
2.92101
3.30447
3.41077
3.6509
4.01054
3.91934
5.11601
3.03443
2.89385
3.26943
3.34564
3.59385
3.82361
3.94201
4.42889
3.02612
2.86842
3.23776
3.29443
3.53722
3.70999
3.88072
4.13485
3.01834
2.84204
3.20391
3.24242
3.4717
3.60842
3.78815
3.92054
3.01296
2.8251
3.18305
3.21153
3.43169
3.55296
3.72637
3.81573
3.01041
2.81581
3.1716
3.19455
3.40917
3.52346
3.69052
3.76541
3.01101
2.81568
3.17185
3.1946
3.4093
3.52354
3.6906
3.76545
3.01468
2.82471
3.18378
3.21168
3.43204
3.55319
3.7266
3.81586
3.02108
2.8414
3.20506
3.24265
3.47223
3.60874
3.78846
3.92072
3.02935
2.86766
3.23912
3.2947
3.53785
3.71042
3.88111
4.13525
3.03761
2.89309
3.27074
3.34588
3.5944
3.82396
3.94219
4.4292
3.04306
2.92054
3.30503
3.41088
3.65121
4.0109
3.91943
5.11684
2.35829
2.28991
2.39078
2.40195
2.45597
2.53793
2.51408
2.81607
2.35289
2.28008
2.37771
2.38047
2.43496
2.47977
2.50744
2.60957
2.34523
2.27151
2.36662
2.36583
2.41918
2.45069
2.48981
2.53968
2.33774
2.26259
2.35492
2.35063
2.40134
2.42275
2.46836
2.47822
2.33188
2.25624
2.34665
2.34037
2.38907
2.4049
2.45162
2.43998
2.32865
2.25278
2.34209
2.33478
2.38231
2.39549
2.44249
2.42117
2.32837
2.25283
2.34197
2.33474
2.38225
2.39545
2.44245
2.42115
2.33107
2.25639
2.3463
2.34027
2.3889
2.40478
2.45151
2.43992
2.33639
2.26285
2.35435
2.35048
2.40106
2.42256
2.46819
2.47812
2.3436
2.27183
2.36593
2.36566
2.41884
2.45046
2.48961
2.53949
2.35132
2.28042
2.37705
2.38034
2.43468
2.47957
2.50735
2.60939
2.35755
2.29013
2.39052
2.40191
2.45584
2.53779
2.51403
2.81573
2.16762
2.16989
2.20799
2.229
2.26514
2.31011
2.33864
2.44776
2.16464
2.16353
2.19915
2.21539
2.24848
2.2782
2.31644
2.3506
2.16062
2.15883
2.19307
2.20783
2.23937
2.26595
2.30317
2.3312
2.15673
2.15403
2.18667
2.19974
2.22946
2.25267
2.29006
2.30861
2.15368
2.15075
2.18236
2.19458
2.22325
2.24456
2.2817
2.2944
2.15194
2.149
2.17997
2.19176
2.21985
2.24015
2.27728
2.28686
2.15176
2.14906
2.17989
2.19176
2.21981
2.24013
2.27726
2.28685
2.15315
2.15093
2.18213
2.19457
2.22316
2.24452
2.28165
2.29438
2.15593
2.15431
2.18633
2.19973
2.22933
2.25261
2.29001
2.30856
2.1597
2.15916
2.19268
2.20782
2.23923
2.26586
2.3031
2.33107
2.16379
2.16384
2.19881
2.2154
2.24838
2.27813
2.31647
2.35048
2.16722
2.16998
2.20779
2.22898
2.26509
2.31007
2.33867
2.44767
2.08485
2.0828
2.09661
2.10335
2.11657
2.13114
2.14672
2.17937
2.08326
2.07948
2.09192
2.09629
2.10728
2.11527
2.13123
2.13377
2.08118
2.0773
2.08915
2.09307
2.10329
2.11079
2.1248
2.12941
2.07925
2.07509
2.08621
2.08949
2.09885
2.10526
2.1185
2.12106
2.07774
2.07363
2.08432
2.08733
2.09628
2.10213
2.11506
2.11616
2.07689
2.07286
2.08327
2.08616
2.09488
2.10039
2.11327
2.11338
2.07679
2.07289
2.08323
2.08615
2.09486
2.10038
2.11326
2.11338
2.07746
2.07372
2.08419
2.08733
2.09623
2.1021
2.11502
2.11614
2.07881
2.07524
2.08603
2.08948
2.09877
2.10522
2.11846
2.12103
2.08068
2.07747
2.08893
2.09305
2.10319
2.11073
2.12474
2.12933
2.08275
2.07963
2.09171
2.09627
2.10721
2.11521
2.13123
2.13369
2.0846
2.08286
2.09651
2.10333
2.11653
2.13109
2.14671
2.17926
2.04207
2.04087
2.0479
2.05116
2.05791
2.06476
2.07393
2.08749
2.04127
2.0392
2.04553
2.04763
2.05315
2.057
2.06548
2.06576
2.04024
2.03817
2.04423
2.04617
2.05134
2.05516
2.06253
2.06468
2.03931
2.03712
2.04285
2.04449
2.04924
2.05263
2.05945
2.06105
2.03859
2.03643
2.04198
2.04353
2.0481
2.05129
2.05792
2.05913
2.03819
2.03608
2.0415
2.04299
2.04747
2.05052
2.05712
2.05796
2.03815
2.03609
2.04148
2.04299
2.04746
2.05052
2.05711
2.05796
2.03846
2.03648
2.04192
2.04352
2.04807
2.05127
2.05791
2.05912
2.0391
2.03718
2.04276
2.04449
2.0492
2.0526
2.05943
2.06104
2.03999
2.03825
2.04413
2.04616
2.0513
2.05513
2.06251
2.06464
2.041
2.03927
2.04542
2.04762
2.05312
2.05697
2.06548
2.06571
2.04193
2.04089
2.04784
2.05114
2.05789
2.06474
2.07393
2.08745
2.01996
2.01907
2.02239
2.02374
2.02683
2.02982
2.03419
2.04001
2.01957
2.01827
2.02124
2.02205
2.02451
2.02612
2.02995
2.02977
2.01908
2.01778
2.02063
2.02137
2.02367
2.0253
2.0286
2.02939
2.01864
2.01729
2.01998
2.02058
2.02267
2.0241
2.0271
2.02767
2.0183
2.01697
2.01957
2.02013
2.02214
2.02348
2.0264
2.02681
2.01811
2.0168
2.01935
2.01988
2.02185
2.02313
2.02602
2.02628
2.01809
2.01681
2.01934
2.01988
2.02184
2.02313
2.02601
2.02628
2.01823
2.01699
2.01955
2.02013
2.02213
2.02348
2.02639
2.02681
2.01854
2.01732
2.01994
2.02057
2.02265
2.02409
2.02709
2.02766
2.01896
2.01782
2.02059
2.02137
2.02365
2.02528
2.02859
2.02937
2.01944
2.01831
2.02119
2.02204
2.02449
2.02611
2.02994
2.02974
2.01989
2.01909
2.02236
2.02374
2.02682
2.02981
2.03419
2.04
2.00894
2.00833
2.00989
2.01042
2.01177
2.01305
2.01498
2.01749
2.00876
2.00797
2.00938
2.00966
2.01074
2.01143
2.01306
2.01299
2.00854
2.00776
2.00911
2.00937
2.01038
2.01107
2.0125
2.01284
2.00834
2.00754
2.00882
2.00902
2.00993
2.01054
2.01183
2.01207
2.00818
2.0074
2.00864
2.00882
2.0097
2.01028
2.01152
2.0117
2.0081
2.00732
2.00854
2.00871
2.00957
2.01012
2.01136
2.01146
2.00809
2.00733
2.00853
2.00871
2.00957
2.01012
2.01136
2.01146
2.00815
2.00741
2.00862
2.00882
2.0097
2.01027
2.01152
2.0117
2.00829
2.00755
2.0088
2.00902
2.00993
2.01054
2.01183
2.01207
2.00848
2.00778
2.00909
2.00937
2.01037
2.01107
2.01249
2.01283
2.0087
2.00799
2.00935
2.00966
2.01073
2.01142
2.01306
2.01297
2.0089
2.00833
2.00987
2.01041
2.01177
2.01305
2.01498
2.01748
2.00377
2.00345
2.00415
2.00435
2.00493
2.00547
2.00629
2.00734
2.0037
2.0033
2.00393
2.00404
2.0045
2.0048
2.00548
2.00548
2.0036
2.00321
2.00382
2.00392
2.00435
2.00465
2.00524
2.00541
2.00352
2.00312
2.0037
2.00377
2.00416
2.00442
2.00496
2.00508
2.00345
2.00306
2.00362
2.00368
2.00406
2.00431
2.00484
2.00493
2.00341
2.00303
2.00358
2.00364
2.00401
2.00425
2.00476
2.00483
2.00341
2.00303
2.00358
2.00364
2.00401
2.00425
2.00476
2.00483
2.00344
2.00307
2.00361
2.00368
2.00406
2.00431
2.00483
2.00493
2.00349
2.00313
2.00369
2.00377
2.00416
2.00442
2.00496
2.00508
2.00357
2.00322
2.00381
2.00391
2.00434
2.00464
2.00524
2.00541
2.00367
2.00331
2.00392
2.00404
2.00449
2.00479
2.00548
2.00547
2.00376
2.00346
2.00414
2.00435
2.00493
2.00547
2.00629
2.00734
2.00143
2.00128
2.00155
2.00162
2.00184
2.00204
2.00234
2.00274
2.0014
2.00122
2.00147
2.00151
2.00168
2.00179
2.00204
2.00205
2.00137
2.00119
2.00143
2.00146
2.00162
2.00173
2.00196
2.00202
2.00133
2.00115
2.00138
2.0014
2.00155
2.00165
2.00185
2.0019
2.00131
2.00113
2.00136
2.00137
2.00152
2.00161
2.0018
2.00184
2.00129
2.00112
2.00134
2.00136
2.0015
2.00158
2.00178