/*--------------------------------*- C++ -*----------------------------------*\
| =========                 |                                                 |
| \\      /  F ield         | foam-extend: Open Source CFD                    |
|  \\    /   O peration     | Version:  3.0                                   |
|   \\  /    A nd           | Web:         http://www.extend-project.de       |
|    \\/     M anipulation  |                                                 |
\*---------------------------------------------------------------------------*/
FoamFile
{
    version     2.0;
    format      ascii;
    class       volVectorField;
    location    "30";
    object      s;
}
// * * * * * * * * * * * * * * * * * * * * * * * * * * * * * * * * * * * * * //

dimensions      [0 1 -1 0 0 0 0];

internalField   nonuniform List<vector> 
728
(
(-1.22385 -0.39641 0)
(-1.24491 -0.24188 0)
(-1.53319 0.518778 0)
(-1.57437 0.380354 0)
(-2.51417 -0.204522 0)
(-2.56593 0.291929 0)
(-2.46078 0.130675 0)
(-2.74739 0.124061 0)
(-1.65428 0.330741 0)
(-1.99292 -0.335263 0)
(-1.73007 0.63368 0)
(-1.92291 -0.198146 0)
(-1.5972 0.340702 0)
(-1.87834 -0.238859 0)
(-1.66714 0.639535 0)
(-1.94085 -0.38143 0)
(-1.26641 0.131275 0)
(-2.09234 0.147585 0)
(-2.05943 0.131539 0)
(-1.1948 -0.182347 0)
(-1.77335 0.486019 0)
(-2.38788 -0.113483 0)
(-2.25855 -0.0490655 0)
(-1.67276 0.100996 0)
(-3.20141 -0.12061 0)
(-2.6458 0.0609993 0)
(-2.26622 0.0380731 0)
(-3.21327 0.464997 0)
(-1.31972 0.179542 0)
(-2.17053 0.112352 0)
(-2.12071 0.0986127 0)
(-1.24458 -0.149962 0)
(-1.84477 0.466188 0)
(-2.45999 -0.0432898 0)
(-2.33207 -0.00571117 0)
(-1.76708 0.0895881 0)
(-1.95758 -0.189435 0)
(-1.2338 0.525937 0)
(-1.92543 -0.167213 0)
(-1.13861 0.156707 0)
(-1.43318 0.171832 0)
(-2.1649 -0.165521 0)
(-1.52303 0.531275 0)
(-2.09335 -0.119305 0)
(-1.3283 0.194321 0)
(-2.02554 -0.160535 0)
(-1.41519 0.555832 0)
(-2.08252 -0.207879 0)
(-1.90636 -0.131619 0)
(-2.10528 0.316209 0)
(-2.1815 0.52387 0)
(-1.9727 -0.393417 0)
(-2.49499 0.0469294 0)
(-3.16483 0.00484785 0)
(-2.03727 -0.0480355 0)
(-3.09367 0.675417 0)
(-1.32818 -0.212556 0)
(-1.75101 0.478087 0)
(-1.80325 0.357977 0)
(-1.3043 -0.413017 0)
(-1.27773 0.0465333 0)
(-2.11656 -0.0498064 0)
(-2.17757 -0.067913 0)
(-1.36932 0.407001 0)
(-1.60194 0.581086 0)
(-1.40553 -0.416351 0)
(-1.61384 0.405499 0)
(-1.4109 -0.265324 0)
(-2.59714 0.378632 0)
(-2.49088 -0.0883871 0)
(-2.6916 0.118052 0)
(-2.42988 0.180099 0)
(-1.89962 -0.206115 0)
(-1.23935 0.583405 0)
(-1.14304 0.200499 0)
(-1.88585 -0.18377 0)
(-1.28283 -0.0286294 0)
(-2.20904 -0.00104866 0)
(-1.36937 0.322854 0)
(-2.14683 -0.000253692 0)
(-2.35417 -0.306461 0)
(-2.2127 -0.0552888 0)
(-2.13534 0.182299 0)
(-2.26817 0.447241 0)
(-1.09687 -0.145535 0)
(-1.62923 0.32675 0)
(-1.04443 -0.321351 0)
(-1.80695 0.318271 0)
(-3.70866 0.0488878 0)
(-2.5523 -0.36108 0)
(-3.48752 0.748146 0)
(-2.05901 -0.597195 0)
(-2.31227 -0.295626 0)
(-2.17008 -0.0120274 0)
(-2.20269 0.180672 0)
(-2.32995 0.42619 0)
(-1.84079 0.603978 0)
(-2.06922 -0.355917 0)
(-1.74833 0.306328 0)
(-1.98016 -0.188466 0)
(-1.24013 -0.228685 0)
(-1.21503 -0.399592 0)
(-1.60283 0.491727 0)
(-1.66283 0.373087 0)
(-1.40878 -0.413779 0)
(-1.68681 0.392572 0)
(-1.67075 0.56074 0)
(-1.41878 -0.241984 0)
(-1.08618 -0.0965153 0)
(-1.73845 0.329192 0)
(-1.04537 -0.305911 0)
(-1.83747 0.270646 0)
(-1.06799 -0.115727 0)
(-2.04614 0.0393409 0)
(-1.15589 0.210181 0)
(-2.00626 0.0388072 0)
(-1.31073 -0.261875 0)
(-1.30407 -0.400562 0)
(-1.53011 0.55445 0)
(-1.55517 0.394324 0)
(-1.31156 -0.232027 0)
(-1.67707 0.498811 0)
(-1.72435 0.367306 0)
(-1.28529 -0.415371 0)
(-1.61346 0.363857 0)
(-1.80574 -0.235805 0)
(-1.66783 0.640516 0)
(-1.85658 -0.385228 0)
(-1.66758 -0.289689 0)
(-1.69232 -0.425054 0)
(-1.49202 0.383428 0)
(-1.53331 0.651636 0)
(-1.25892 -0.172114 0)
(-1.74627 0.419195 0)
(-1.83035 0.342754 0)
(-1.22602 -0.371751 0)
(-1.63447 -0.272433 0)
(-1.50949 0.403803 0)
(-1.65916 -0.408436 0)
(-1.54062 0.65076 0)
(-2.09045 0.447757 0)
(-2.53795 -0.0345611 0)
(-2.35532 0.0349819 0)
(-1.9874 0.0376741 0)
(-1.46986 -0.401421 0)
(-1.9057 0.473029 0)
(-1.47968 -0.178994 0)
(-1.91609 0.341757 0)
(-1.17494 0.130788 0)
(-2.00948 -0.167571 0)
(-1.97167 -0.146681 0)
(-1.26971 0.495265 0)
(-1.38928 0.642801 0)
(-1.36562 0.419747 0)
(-1.49203 -0.409133 0)
(-1.47968 -0.29765 0)
(-1.10617 -0.064749 0)
(-2.04499 0.000533614 0)
(-1.19827 0.274253 0)
(-2.08959 -0.00141959 0)
(-2.3925 0.0887859 0)
(-2.32738 0.132524 0)
(-2.60807 0.242343 0)
(-2.4131 -0.29279 0)
(-2.31127 0.285526 0)
(-2.33675 0.163136 0)
(-2.55942 0.242905 0)
(-2.31846 -0.161756 0)
(-1.96149 0.435129 0)
(-1.44707 -0.127406 0)
(-1.97874 0.323708 0)
(-1.42868 -0.370001 0)
(-1.73601 -0.252708 0)
(-1.76498 -0.379919 0)
(-1.50438 0.362519 0)
(-1.54993 0.642414 0)
(-1.39316 0.416613 0)
(-1.39654 0.616618 0)
(-1.41129 -0.293805 0)
(-1.41509 -0.40358 0)
(-2.15729 0.488047 0)
(-2.09898 0.3092 0)
(-1.85781 -0.389829 0)
(-1.81095 -0.123546 0)
(-2.55486 0.379086 0)
(-2.34279 0.0491088 0)
(-2.62362 0.192859 0)
(-2.65905 -0.105272 0)
(-1.64894 0.553797 0)
(-2.20939 -0.178155 0)
(-1.56571 0.192869 0)
(-2.11984 -0.114052 0)
(-1.70253 0.586986 0)
(-2.05734 -0.15665 0)
(-2.14115 -0.25631 0)
(-1.61101 0.248785 0)
(-1.03198 0.269873 0)
(-1.90811 -0.0185643 0)
(-1.94035 -0.0143571 0)
(-0.941946 -0.0701723 0)
(-1.00508 0.0968535 0)
(-1.88931 -0.135554 0)
(-1.91946 -0.139787 0)
(-1.10859 0.460924 0)
(-1.49349 -0.433715 0)
(-1.7466 0.387876 0)
(-1.49617 -0.246324 0)
(-1.74122 0.562633 0)
(-1.22943 0.375408 0)
(-1.66183 -0.256381 0)
(-1.66556 -0.320407 0)
(-1.27796 0.687919 0)
(-2.00649 -0.13656 0)
(-2.04967 -0.164753 0)
(-1.33316 0.51003 0)
(-1.24207 0.141964 0)
(-2.18141 0.274395 0)
(-2.36087 0.063206 0)
(-2.60192 0.160513 0)
(-2.21918 -0.191087 0)
(-1.06056 0.096937 0)
(-1.91364 -0.131828 0)
(-1.94632 -0.143146 0)
(-1.16051 0.460703 0)
(-1.40834 -0.0584878 0)
(-1.47896 0.297946 0)
(-2.29752 0.0657635 0)
(-2.21872 0.05665 0)
(-1.55038 0.607931 0)
(-1.45959 -0.275274 0)
(-1.45469 -0.413194 0)
(-1.54328 0.415473 0)
(-1.01086 -0.126858 0)
(-1.98467 0.0342215 0)
(-1.10143 0.19008 0)
(-1.95613 0.0350991 0)
(-1.97106 0.522989 0)
(-1.65319 -0.415444 0)
(-1.63634 -0.184952 0)
(-1.9543 0.356984 0)
(-2.12714 0.410657 0)
(-2.05416 -0.00459054 0)
(-2.65321 0.0256325 0)
(-2.46819 0.0517829 0)
(-3.03465 -0.0984477 0)
(-2.6365 0.474055 0)
(-2.84147 -0.539715 0)
(-2.99226 0.190568 0)
(-1.93504 -0.184758 0)
(-1.36356 0.25167 0)
(-1.97486 -0.241828 0)
(-1.4462 0.604853 0)
(-3.15497 0.181641 0)
(-2.81725 0.44814 0)
(-2.90755 -0.300444 0)
(-2.46462 0.689796 0)
(-1.14217 -0.0697074 0)
(-1.88513 0.274479 0)
(-1.09113 -0.29807 0)
(-1.81492 0.302709 0)
(-2.22565 -0.0762859 0)
(-1.80024 0.506278 0)
(-2.36068 -0.140559 0)
(-1.70836 0.127454 0)
(-1.74881 0.396907 0)
(-1.59278 -0.241184 0)
(-1.60823 -0.426344 0)
(-1.76151 0.589942 0)
(-2.04765 0.0961254 0)
(-2.16488 0.516025 0)
(-2.32241 0.0128565 0)
(-2.53476 -0.0916497 0)
(-1.8946 0.129821 0)
(-0.963877 -0.185103 0)
(-1.03354 0.0934583 0)
(-1.8858 0.117958 0)
(-1.5584 -0.412532 0)
(-1.43733 0.653335 0)
(-1.41246 0.418298 0)
(-1.54359 -0.295624 0)
(-1.50302 0.46548 0)
(-2.23579 -0.0972346 0)
(-1.41345 0.100997 0)
(-2.15819 -0.0698013 0)
(-1.19754 0.138271 0)
(-2.05285 0.12014 0)
(-2.02626 0.108915 0)
(-1.1187 -0.171005 0)
(-1.90427 0.549451 0)
(-1.68652 -0.432671 0)
(-1.66744 -0.216441 0)
(-1.8696 0.361244 0)
(-1.21693 0.39985 0)
(-1.59292 -0.367576 0)
(-1.58605 -0.279281 0)
(-1.267 0.683057 0)
(-1.84707 0.158144 0)
(-1.01857 0.0317657 0)
(-1.83308 0.163819 0)
(-0.948714 -0.215794 0)
(-1.26962 0.365848 0)
(-1.6965 -0.249062 0)
(-1.6977 -0.320309 0)
(-1.32185 0.679452 0)
(-2.00339 0.327288 0)
(-1.9573 -0.0867629 0)
(-2.56766 0.082623 0)
(-2.39047 0.0705941 0)
(-1.22467 0.0740745 0)
(-2.10601 -0.106612 0)
(-2.05708 -0.0872068 0)
(-1.3164 0.430932 0)
(-2.45743 -0.0303891 0)
(-2.58655 0.441439 0)
(-2.66399 0.0812673 0)
(-2.37074 0.204117 0)
(-1.57065 0.28387 0)
(-1.65415 0.616851 0)
(-1.99445 -0.178248 0)
(-2.06644 -0.281355 0)
(-2.31443 0.083056 0)
(-2.25978 0.0713191 0)
(-2.41569 0.421406 0)
(-2.54638 -0.156171 0)
(-2.30821 0.0348998 0)
(-2.46874 0.389529 0)
(-2.38694 0.139714 0)
(-2.59806 -0.0475481 0)
(-1.18321 0.658677 0)
(-1.79 -0.229264 0)
(-1.08281 0.228299 0)
(-1.81566 -0.216563 0)
(-1.42865 -0.409893 0)
(-1.44223 -0.205693 0)
(-1.8166 0.508431 0)
(-1.83944 0.369992 0)
(-2.21868 0.00191092 0)
(-2.3767 0.423577 0)
(-2.36969 0.107666 0)
(-2.61962 -0.0640455 0)
(-1.41144 -0.134747 0)
(-2.30897 0.114597 0)
(-2.22118 0.0963183 0)
(-1.48037 0.225412 0)
(-1.91596 -0.149138 0)
(-2.00017 0.306081 0)
(-1.98871 -0.379582 0)
(-2.0724 0.524588 0)
(-1.91755 0.601903 0)
(-2.01228 -0.369173 0)
(-1.83475 0.327115 0)
(-1.93173 -0.179838 0)
(-1.33193 -0.169425 0)
(-1.40158 0.164897 0)
(-2.21313 0.134266 0)
(-2.15625 0.11625 0)
(-1.36903 0.36147 0)
(-1.78763 -0.244245 0)
(-1.42601 0.680145 0)
(-1.81455 -0.331771 0)
(-1.51073 -0.354817 0)
(-2.09152 0.392785 0)
(-1.52362 -0.0823216 0)
(-2.07288 0.286696 0)
(-1.12199 -0.361129 0)
(-1.67854 0.375759 0)
(-1.76247 0.348369 0)
(-1.16921 -0.169292 0)
(-2.24194 -0.296585 0)
(-2.13209 0.525277 0)
(-2.10859 -0.0857603 0)
(-2.02218 0.240443 0)
(-2.01597 -0.114292 0)
(-2.16212 0.245681 0)
(-2.24693 0.464549 0)
(-2.11819 -0.380742 0)
(-1.43708 0.35453 0)
(-1.79296 -0.235797 0)
(-1.49177 0.667447 0)
(-1.8244 -0.336433 0)
(-1.8416 0.388539 0)
(-1.26844 -0.126765 0)
(-1.89832 0.316057 0)
(-1.23071 -0.348017 0)
(-1.05232 0.211305 0)
(-1.95704 0.0108528 0)
(-1.92466 0.0154844 0)
(-0.96375 -0.107581 0)
(-1.01375 -0.176985 0)
(-1.94444 0.138135 0)
(-1.08941 0.112331 0)
(-1.93276 0.127598 0)
(-1.20817 -0.0811576 0)
(-1.9022 0.288439 0)
(-1.16017 -0.316355 0)
(-1.84947 0.334734 0)
(-2.02661 0.0933478 0)
(-2.44401 -0.195491 0)
(-2.15621 0.443609 0)
(-2.26698 -0.027016 0)
(-2.87336 1.02896 0)
(-2.96828 -0.346506 0)
(-2.65405 -0.701893 0)
(-3.27025 0.514289 0)
(-3.4761 0.0917114 0)
(-2.5789 0.32903 0)
(-3.35059 -0.561976 0)
(-2.07264 0.478205 0)
(-1.62611 -0.254046 0)
(-1.64179 -0.420359 0)
(-1.68747 0.602814 0)
(-1.65944 0.378587 0)
(-1.29227 0.269944 0)
(-1.20616 -0.0728403 0)
(-2.14723 0.0256427 0)
(-2.09466 0.0301481 0)
(-1.93069 0.11375 0)
(-2.4491 -0.135799 0)
(-2.27567 -0.0080508 0)
(-2.0512 0.48841 0)
(-1.0887 -0.24807 0)
(-1.94984 0.183953 0)
(-1.15633 0.0240249 0)
(-1.94382 0.202558 0)
(-1.06935 -0.203232 0)
(-1.98627 0.162305 0)
(-1.14371 0.0869809 0)
(-1.96948 0.152259 0)
(-1.18258 0.335059 0)
(-1.08787 -0.011053 0)
(-2.05199 -0.0403111 0)
(-2.00557 -0.0327334 0)
(-1.12612 -0.378683 0)
(-1.69383 0.356287 0)
(-1.60065 0.446553 0)
(-1.15666 -0.204586 0)
(-1.07036 0.343778 0)
(-1.9758 -0.0440821 0)
(-1.93616 -0.0479586 0)
(-0.973378 -0.00342135 0)
(-1.39598 -0.419855 0)
(-1.46902 0.416575 0)
(-1.40212 -0.28677 0)
(-1.46608 0.612173 0)
(-1.87948 0.344818 0)
(-1.83724 -0.429961 0)
(-1.92952 0.55503 0)
(-1.79699 -0.217508 0)
(-2.25931 0.0213972 0)
(-1.57565 0.353323 0)
(-1.50276 -0.00513042 0)
(-2.34192 0.0246658 0)
(-1.29907 -0.40373 0)
(-1.47708 0.407867 0)
(-1.32352 -0.291662 0)
(-1.46937 0.585584 0)
(-1.46407 -0.319606 0)
(-1.48526 -0.0223823 0)
(-2.11132 0.253164 0)
(-2.1415 0.345178 0)
(-1.95908 0.309045 0)
(-1.35966 -0.104525 0)
(-1.9279 0.390027 0)
(-1.32949 -0.345701 0)
(-1.79031 0.272902 0)
(-2.47123 0.0828583 0)
(-1.72906 -0.100997 0)
(-2.35286 0.0764887 0)
(-2.07099 0.24373 0)
(-2.08757 0.308697 0)
(-1.35839 -0.299254 0)
(-1.40055 -0.00823251 0)
(-1.7327 0.633361 0)
(-1.8002 -0.429642 0)
(-1.68844 0.381315 0)
(-1.75561 -0.255985 0)
(-1.22393 0.664455 0)
(-1.75121 -0.242433 0)
(-1.74001 -0.278608 0)
(-1.12561 0.310421 0)
(-1.77299 0.351816 0)
(-1.81627 -0.229944 0)
(-1.87041 -0.420359 0)
(-1.82574 0.598617 0)
(-0.954727 0.0410727 0)
(-1.90939 -0.0904703 0)
(-1.05298 0.390727 0)
(-1.87353 -0.0906795 0)
(-2.09564 0.206607 0)
(-2.12474 0.257908 0)
(-1.32898 -0.262446 0)
(-1.3771 0.0426448 0)
(-2.43174 0.0367131 0)
(-1.72731 0.355556 0)
(-1.65763 -0.0203596 0)
(-2.31262 0.0391413 0)
(-2.04721 0.325687 0)
(-1.6799 -0.149736 0)
(-1.69841 -0.389533 0)
(-2.07323 0.483155 0)
(-1.00641 0.141153 0)
(-1.83602 -0.164166 0)
(-1.11055 0.512994 0)
(-1.85842 -0.169354 0)
(-2.59689 0.206894 0)
(-2.53932 0.183157 0)
(-2.42041 -0.10536 0)
(-2.77666 -0.115655 0)
(-1.93214 0.296081 0)
(-2.09166 -0.40047 0)
(-2.02705 0.551625 0)
(-2.00187 -0.177011 0)
(-2.37365 0.123917 0)
(-2.01783 0.246971 0)
(-2.56058 0.162359 0)
(-1.98926 -0.176118 0)
(-1.86211 0.0564878 0)
(-1.89142 0.0579528 0)
(-1.00907 0.14866 0)
(-0.923392 -0.1504 0)
(-1.88961 -0.205679 0)
(-1.29998 0.279676 0)
(-1.91359 -0.259903 0)
(-1.37355 0.639705 0)
(-2.26167 0.297288 0)
(-1.55129 -0.299067 0)
(-2.18571 0.214428 0)
(-1.57491 0.0368638 0)
(-0.976057 -0.277215 0)
(-1.76123 0.252004 0)
(-1.03329 -0.0449894 0)
(-1.80834 0.244017 0)
(-1.53379 -0.29682 0)
(-1.5508 0.411897 0)
(-1.54413 -0.442574 0)
(-1.56453 0.626614 0)
(-1.54889 -0.282377 0)
(-1.49139 0.638073 0)
(-1.56227 -0.410302 0)
(-1.47087 0.403896 0)
(-1.98957 -0.273114 0)
(-1.54149 0.665629 0)
(-1.93872 -0.187755 0)
(-1.46929 0.323728 0)
(-1.86342 -0.221708 0)
(-1.55086 0.677815 0)
(-1.48705 0.352683 0)
(-1.90981 -0.326423 0)
(-1.83373 0.216082 0)
(-1.82555 -0.183395 0)
(-2.45316 0.211442 0)
(-2.30051 0.137237 0)
(-1.64565 -0.163706 0)
(-2.39364 0.169878 0)
(-1.67936 0.208257 0)
(-2.28256 0.118652 0)
(-1.85489 -0.196483 0)
(-1.08343 0.195693 0)
(-1.15672 0.585949 0)
(-1.84756 -0.171986 0)
(-2.46015 -0.291531 0)
(-2.31847 0.027552 0)
(-2.34677 0.138921 0)
(-2.49002 0.363376 0)
(-2.44599 -0.0741971 0)
(-2.63351 0.191332 0)
(-2.48356 0.193605 0)
(-2.69339 -0.14772 0)
(-1.26848 0.66439 0)
(-1.79438 -0.216375 0)
(-1.78711 -0.253592 0)
(-1.19123 0.30074 0)
(-1.20596 0.264135 0)
(-1.87329 -0.198033 0)
(-1.89083 -0.231812 0)
(-1.2898 0.635246 0)
(-1.83667 0.125117 0)
(-2.27673 0.178157 0)
(-1.83794 -0.252046 0)
(-2.40805 0.27102 0)
(-2.29239 0.324527 0)
(-2.21312 0.216504 0)
(-1.6844 0.0467841 0)
(-1.68972 -0.28612 0)
(-1.62084 -0.2688 0)
(-1.65836 -0.228037 0)
(-1.21301 0.696966 0)
(-1.16232 0.377685 0)
(-0.98779 -0.251834 0)
(-1.85553 0.206902 0)
(-1.82623 0.207858 0)
(-1.05913 -0.00462215 0)
(-2.60937 0.356875 0)
(-2.53022 -0.0870821 0)
(-2.76415 0.154659 0)
(-2.81629 -0.0606082 0)
(-1.53195 -0.180226 0)
(-2.35094 0.195542 0)
(-1.57178 0.177449 0)
(-2.26011 0.142671 0)
(-1.34072 0.379326 0)
(-1.3907 0.678143 0)
(-1.69571 -0.265236 0)
(-1.71112 -0.359823 0)
(-1.28382 0.415368 0)
(-1.51761 -0.40095 0)
(-1.31417 0.664199 0)
(-1.5022 -0.297527 0)
(-1.62172 -0.372993 0)
(-2.12826 0.41508 0)
(-1.62642 -0.101188 0)
(-2.09864 0.290013 0)
(-1.90755 0.216221 0)
(-1.11271 -0.0126281 0)
(-1.88252 0.234389 0)
(-1.0503 -0.266466 0)
(-2.27363 0.416595 0)
(-1.84941 -0.0723084 0)
(-2.2022 0.271192 0)
(-1.88242 -0.369019 0)
(-2.2434 0.384862 0)
(-1.73607 -0.365831 0)
(-1.72294 -0.0556333 0)
(-2.17781 0.256035 0)
(-1.82179 -0.238326 0)
(-1.3222 0.334307 0)
(-1.38752 0.673056 0)
(-1.83933 -0.308688 0)
(-1.61149 -0.270562 0)
(-1.58522 0.406195 0)
(-1.62968 -0.420602 0)
(-1.60531 0.631287 0)
(-2.19229 0.0755038 0)
(-2.50133 0.319145 0)
(-2.34231 0.128964 0)
(-2.29896 -0.284113 0)
(-2.08147 -0.0271161 0)
(-2.39382 0.370051 0)
(-2.2812 0.203034 0)
(-2.14891 -0.345807 0)
(-1.58755 0.440602 0)
(-2.30828 -0.0661097 0)
(-2.22113 -0.0348484 0)
(-1.49869 0.0755207 0)
(-2.8101 -0.152098 0)
(-2.89578 0.616017 0)
(-2.46419 -0.422527 0)
(-3.17681 0.11494 0)
(-1.67849 -0.3801 0)
(-1.41483 0.678546 0)
(-1.65725 -0.270081 0)
(-1.37446 0.399267 0)
(-2.02408 -0.279143 0)
(-2.44951 0.300293 0)
(-2.30504 0.174807 0)
(-1.98872 0.0952629 0)
(-2.02032 -0.310049 0)
(-2.37912 0.361976 0)
(-2.26984 0.212967 0)
(-1.97407 0.0214758 0)
(-1.23195 0.0144725 0)
(-1.17377 -0.261638 0)
(-1.99172 0.218749 0)
(-1.98967 0.251777 0)
(-2.27305 0.250824 0)
(-1.51184 -0.237948 0)
(-2.20227 0.184636 0)
(-1.54234 0.100894 0)
(-1.28174 0.412998 0)
(-1.32019 0.682405 0)
(-1.57076 -0.287407 0)
(-1.58546 -0.389281 0)
(-1.30873 0.666809 0)
(-1.76067 -0.228104 0)
(-1.24578 0.325605 0)
(-1.75989 -0.28538 0)
(-1.38884 0.678945 0)
(-1.61304 -0.39161 0)
(-1.59732 -0.283744 0)
(-1.35332 0.412955 0)
(-1.26085 -0.0426814 0)
(-1.20972 -0.304121 0)
(-1.95066 0.295294 0)
(-1.97317 0.256555 0)
(-2.3062 -0.265482 0)
(-2.16914 -0.0804585 0)
(-1.94228 0.205806 0)
(-2.0651 0.51769 0)
(-2.07499 -0.128399 0)
(-1.9208 0.588617 0)
(-2.18895 -0.280655 0)
(-1.82025 0.269099 0)
(-1.28992 0.0543613 0)
(-2.05014 0.188395 0)
(-1.22795 -0.24192 0)
(-2.06724 0.221232 0)
(-2.13756 -0.122569 0)
(-2.25913 -0.251705 0)
(-1.85479 0.558846 0)
(-1.74819 0.215564 0)
(-1.38881 -0.223858 0)
(-2.19437 0.233657 0)
(-2.14404 0.184116 0)
(-1.43861 0.100772 0)
(-2.22402 -0.0850498 0)
(-1.78615 0.17791 0)
(-2.36285 -0.198254 0)
(-1.89619 0.538267 0)
(-1.95775 -0.055581 0)
(-1.13372 0.35482 0)
(-1.99726 -0.0574306 0)
(-1.03682 0.0062707 0)
(-1.2997 -0.316453 0)
(-2.01422 0.270845 0)
(-2.00564 0.334906 0)
(-1.33883 -0.0503858 0)
(-1.98257 -0.107734 0)
(-1.16463 0.416511 0)
(-1.0654 0.0606931 0)
(-1.94412 -0.0986845 0)
(-2.08684 -0.0720699 0)
(-1.14357 0.0533271 0)
(-1.23538 0.411114 0)
(-2.03778 -0.0595416 0)
(-1.21301 0.442481 0)
(-2.03982 -0.107618 0)
(-1.11656 0.0822205 0)
(-1.99598 -0.0957495 0)
)
;

boundaryField
{
    insideCircle
    {
        type            myHeatFlux;
        alpha           uniform 1;
        Theta_wall      uniform 4;
        value           nonuniform List<vector> 
12
(
(-4.24638 0.273832 -8.73983e-18)
(-2.55237 -0.520207 -2.44091e-17)
(-4.01295 1.0227 5.31793e-19)
(-2.02572 -0.763628 1.84218e-17)
(-3.28561 1.35032 0)
(-3.33461 -0.730377 0)
(-2.96195 -1.14392 0)
(-3.69424 0.827118 -0)
(-4.23623 -0.0696676 1.07776e-17)
(-2.54745 0.549516 2.42799e-17)
(-4.09706 -0.768462 -3.33153e-18)
(-1.99774 0.710142 -1.82838e-17)
)
;
    }
    outsideCircle
    {
        type            myHeatFlux;
        alpha           uniform 1;
        Theta_wall      uniform 1;
        value           nonuniform List<vector> 
60
(
(-1.18206 -0.383247 0)
(-1.20982 -0.245219 -0)
(-1.49694 0.511569 0)
(-1.54566 0.383789 0)
(-1.05311 -0.127091 -0)
(-1.63464 0.339498 0)
(-1.00977 -0.315588 0)
(-1.74724 0.308576 0)
(-1.35381 0.408816 0)
(-1.36595 0.611232 0)
(-1.38525 -0.303944 -0)
(-1.3833 -0.404527 0)
(-0.995795 0.275073 0)
(-1.88339 -0.020189 -0)
(-1.92362 -0.0166139 0)
(-0.908616 -0.0587334 0)
(-1.19303 0.405781 0)
(-1.55717 -0.363701 0)
(-1.5609 -0.284718 -0)
(-1.24424 0.685487 0)
(-1.81443 0.157131 0)
(-0.985313 0.0419554 -0)
(-1.80693 0.16359 0)
(-0.920048 -0.213315 0)
(-1.14857 0.636953 0)
(-1.7439 -0.224322 0)
(-1.06349 0.250655 0)
(-1.76212 -0.20939 -0)
(-1.09048 -0.366938 0)
(-1.67064 0.360848 0)
(-1.55147 0.433412 0)
(-1.12261 -0.204443 -0)
(-1.28118 -0.413843 0)
(-1.45404 0.41016 0)
(-1.2954 -0.292718 -0)
(-1.44287 0.580219 0)
(-0.93121 0.0443569 0)
(-1.89025 -0.092811 0)
(-1.02817 0.396148 0)
(-1.85822 -0.0934759 -0)
(-0.978293 0.131469 -3.93804e-18)
(-1.83179 -0.171665 -1.87875e-17)
(-1.08602 0.517521 8.08937e-18)
(-1.84426 -0.174214 1.89191e-17)
(-1.84953 0.0568011 0)
(-1.86959 0.0577797 0)
(-0.985415 0.14307 0)
(-0.901792 -0.149942 0)
(-0.953744 -0.273832 -5.2966e-18)
(-1.72813 0.24837 -1.79561e-17)
(-1.0119 -0.0556511 3.26957e-18)
(-1.80187 0.247997 1.86929e-17)
(-1.63114 -0.287718 0)
(-1.65966 -0.243833 -0)
(-1.19019 0.693941 0)
(-1.12775 0.356557 0)
(-1.26662 0.419572 0)
(-1.49839 -0.403399 0)
(-1.29606 0.662707 0)
(-1.48402 -0.302796 -0)
)
;
    }
    topAndBottom
    {
        type            empty;
    }
}


// ************************************************************************* //
