/*--------------------------------*- C++ -*----------------------------------*\
| =========                 |                                                 |
| \\      /  F ield         | foam-extend: Open Source CFD                    |
|  \\    /   O peration     | Version:  3.0                                   |
|   \\  /    A nd           | Web:         http://www.extend-project.de       |
|    \\/     M anipulation  |                                                 |
\*---------------------------------------------------------------------------*/
FoamFile
{
    version     2.0;
    format      ascii;
    class       volScalarField;
    location    "30";
    object      Theta;
}
// * * * * * * * * * * * * * * * * * * * * * * * * * * * * * * * * * * * * * //

dimensions      [0 2 -2 0 0 0 0];

internalField   nonuniform List<scalar> 
728
(
1.96521
0.256415
2.57644
-0.239271
-3.07788
11.0676
4.81652
3.43192
1.13057
6.29179
1.27106
-2.99574
-1.69927
-0.656423
4.57221
3.55535
0.224761
1.65083
-0.267189
1.53108
4.36007
4.76188
-3.0066
-1.98329
11.0823
20.9001
-24.0621
-13.5489
1.9083
5.35381
-1.73647
1.04089
3.35899
7.28396
-2.63575
0.501694
1.33685
0.467858
1.05602
1.26224
1.74996
4.22669
-0.122327
-1.33337
-1.8017
-2.68275
4.67801
5.60907
-1.65347
-1.62675
4.53867
5.64714
10.4617
-17.8092
-7.17336
22.6551
0.228988
2.57845
-0.133816
2.06032
1.3174
-0.744771
2.98487
0.0673025
2.13107
1.59533
-0.184174
0.657961
3.2833
-5.35158
12.9127
-16.2626
4.13275
2.26697
-0.0945049
-1.60354
0.564931
4.68633
2.38513
-1.78116
-2.9182
5.62919
-7.72475
10.9915
-0.26749
0.4057
1.46392
-2.25392
3.16545
4.8142
3.25497
0.569753
9.50697
-8.18598
0.505601
-0.219519
6.24371
-0.156516
-4.01989
2.10049
-0.00293877
2.62481
2.74248
-0.0122507
3.98869
-1.27617
3.71516
-0.938962
0.666681
3.6372
2.04913
0.730873
1.13598
1.19308
0.603174
0.756028
0.437736
2.59795
2.4931
0.00530221
-0.308754
2.92098
-0.652228
2.59414
0.80441
-0.242545
1.04471
2.39628
-1.3647
4.34362
-0.597898
2.97914
0.309437
3.53508
-0.684146
2.12177
1.57408
1.06218
0.381053
1.10831
6.27773
5.1284
-6.22187
-6.40794
1.90296
3.74654
0.165209
-1.49042
-0.487456
5.14804
-2.06485
2.36184
2.40627
-0.0831914
2.79385
-0.0634739
0.984775
-2.6003
1.71915
5.68647
-0.635882
11.2482
6.40541
-4.25149
-2.2804
-5.32097
6.45464
2.94571
2.59081
0.136547
-0.213695
2.51561
-0.81148
3.56509
-0.90615
3.40748
-0.517274
2.20731
0.0778926
2.01716
3.68272
-2.10975
2.72178
-1.68422
-14.3031
-9.71234
10.0015
14.2872
4.03122
4.5394
-1.61266
-1.94681
1.73019
-2.47924
5.57686
0.887399
0.992479
-0.838348
2.61525
1.65241
0.642226
0.67986
1.90949
0.869151
1.01578
-0.32862
1.09785
2.71709
1.49436
-0.4323
3.76452
0.929381
0.722596
1.45081
-0.410983
1.95967
-6.98287
-7.06793
7.87655
8.44051
0.42999
-1.67268
3.92322
1.78622
1.65749
-0.0372463
4.4883
-2.63982
3.31649
-0.750534
3.59169
-1.057
1.03553
4.28056
1.20193
-1.86049
3.48854
3.98839
-1.33271
-0.868084
4.24143
1.46705
6.25471
0.160134
-8.80989
-28.7288
4.97116
29.2474
1.11427
1.60728
1.0064
-0.172469
26.4411
2.76719
-24.1563
-3.70849
0.188082
-1.13125
2.24771
4.11057
-1.93435
1.39254
4.23625
0.536928
-1.04635
-2.59191
5.94685
3.69173
4.49838
-0.579862
-2.32712
6.92277
2.22528
1.34749
0.97485
0.198731
2.49882
2.48446
-0.258395
-0.102791
3.65191
5.28419
-0.697349
-2.60556
1.02011
5.28314
-2.05841
1.57539
3.32832
1.56928
0.558376
-1.50685
0.109183
2.62206
-0.295549
2.08295
-0.933311
0.303901
2.67938
1.37878
-0.419359
-1.32852
3.97241
2.77272
-3.78541
3.68916
7.37265
-7.96222
-0.60933
4.28849
-1.72259
2.9684
11.4633
-6.82278
9.90122
-3.8086
-2.04693
4.08211
-0.245334
2.35691
-14.9908
4.03864
-3.21743
17.4868
-0.945057
2.83489
-0.445377
2.22192
3.47299
3.52383
1.3803
-2.3734
4.12353
-1.18374
4.00705
-1.11395
-10.9494
13.8137
-3.09086
4.77002
0.628737
3.66459
-1.0986
1.7143
-2.33998
-1.46239
4.31043
2.97361
1.3779
6.78046
0.927841
-3.44615
2.17453
-0.328992
4.06944
-2.2003
-0.948744
-1.12555
3.09271
3.96496
2.47072
5.29758
-0.385714
-2.6823
2.41819
4.17708
0.83643
0.617281
11.8052
-0.654746
-8.27481
2.83182
-1.8861
-5.26905
7.35539
3.83208
0.303733
-1.00136
1.85203
3.87738
3.28413
0.0548713
-0.255975
2.63971
0.733875
1.43844
0.7959
0.730721
1.52657
3.5103
0.82482
-1.17846
0.770357
-0.193853
1.69377
3.34808
3.13897
10.296
0.195344
-6.1022
-1.90558
5.51489
3.06446
6.2183
3.37023
4.61857
2.15125
0.765123
1.80355
-0.134706
1.16674
0.7875
0.353398
1.41631
2.96263
-1.09317
-3.85638
3.32909
-2.05481
5.04709
1.8333
-1.13449
0.842457
4.58288
1.23664
1.25435
0.790783
0.571315
0.83052
0.824028
1.36618
0.863013
2.1324
-0.792431
3.1428
0.179994
0.816392
1.66648
0.888102
0.690342
3.21682
0.192592
0.0335582
2.26152
-1.50236
5.38834
4.73841
-2.02271
-2.78142
1.89257
0.865652
5.54694
1.52275
-0.353913
-0.392864
2.76424
2.65067
0.127907
-0.702627
2.82073
-1.55556
0.305348
4.76112
1.934
2.60903
6.19934
0.93596
-2.45647
-2.36429
5.97136
1.81554
0.787299
4.39323
6.46615
-1.37718
-3.05034
-0.363034
0.727068
3.18174
1.23632
-1.06737
-0.453927
2.95322
3.15919
0.988899
2.65686
1.20805
-0.509288
-0.678834
2.19024
2.36726
-0.337549
4.70211
-0.122694
1.11331
-4.00961
-2.91321
-1.43932
4.34871
5.35168
0.490298
-0.244208
1.49893
2.54757
12.5979
10.0323
-6.95896
-4.88825
-4.30633
1.06475
7.26
1.51019
-2.33714
5.34292
6.62658
-1.26392
-0.43188
2.8593
1.11307
1.33346
-2.57591
-1.57177
5.84952
3.82721
6.61471
1.62733
-3.39909
1.09279
1.59095
3.22481
1.05215
-0.309957
0.9543
0.550268
1.25688
2.12409
-1.19403
3.11709
3.93058
-1.02972
4.28743
2.37616
-1.37081
-0.18013
-0.4703
2.45029
-0.190895
2.90348
-1.70368
4.71403
4.91355
-2.18828
1.11232
5.34211
1.00836
-3.19401
1.98348
0.0691337
0.143881
1.37021
0.314531
4.25737
-4.61367
8.36686
-7.9803
5.57819
-16.3789
15.4267
1.90915
-0.997933
3.81582
0.0192021
0.8265
1.23655
1.36801
0.23122
3.11626
-3.45809
-1.1033
5.60635
4.67739
-1.35972
-0.934988
4.54919
0.382613
0.692668
2.57556
-1.28012
1.52375
-0.0412771
2.4536
0.774427
5.57033
1.02345
4.24611
0.812691
3.0722
7.23035
0.315213
-3.7506
0.817952
1.32111
0.0370348
2.48904
0.0910337
2.48462
2.27953
-0.341018
2.67412
4.11877
0.0891666
-1.56633
-0.759048
0.7284
2.8001
1.61725
5.47774
-2.08979
-2.19833
6.07305
4.58831
1.9901
-0.582789
-2.94431
0.0993323
0.951093
1.13444
2.27804
-3.08016
-2.13617
6.70102
4.49501
-7.15303
7.41381
-7.68413
7.10221
0.859876
6.49975
-3.0887
3.30995
1.62828
5.30689
-2.54877
0.365813
18.0721
-15.2389
-20.8652
14.4718
2.37037
2.3188
-0.0454481
-0.274447
5.22007
6.15216
-2.17309
-0.695099
4.08237
5.35425
-5.19783
-4.07241
0.209128
2.01275
-0.216935
2.00319
2.52851
1.78245
-0.867128
0.192474
0.242031
1.58684
0.149938
2.43906
1.12203
-0.318678
1.09506
3.27317
2.80366
3.60195
-0.99841
-0.435978
0.789924
1.70159
3.79832
-0.645033
-2.09967
3.41378
-6.61646
8.43472
-5.10964
-0.00163973
9.04385
3.04514
1.59215
-1.64154
1.1414
5.24888
0.514413
1.04309
4.63319
-3.13802
2.235
6.24725
-2.58987
0.761463
-4.40696
2.15449
8.69188
1.50541
-2.43059
1.9514
4.84581
0.488089
2.79953
-0.793403
3.13916
-0.16142
2.23172
0.962087
0.847956
0.284195
4.01706
0.830375
1.34861
-1.33526
1.46032
2.96362
0.553856
-0.581037
)
;

boundaryField
{
    insideCircle
    {
        type            myTemperature;
        value           nonuniform List<scalar> 
12
(
3.16546
4.95662
3.31534
0.770436
-1.24378
1.0076
-0.456457
7.67538
4.11489
3.47352
1.53306
1.69397
)
;
    }
    outsideCircle
    {
        type            myTemperature;
        value           nonuniform List<scalar> 
60
(
1.96521
0.135425
2.53406
-0.505324
1.37912
5.64043
2.16213
1.64524
0.206555
2.56506
-0.382447
2.93422
1.37363
0.0243377
2.48733
0.170298
0.345168
2.67949
-0.456817
1.90977
-0.205427
1.49067
2.69075
1.37455
-0.643158
1.79861
-0.49944
1.93361
1.86527
0.0226261
2.44132
0.431733
3.13462
-0.17449
0.454879
2.15088
0.568508
2.58502
1.55105
-0.410639
0.614098
-0.449105
1.41545
2.66039
-0.634517
2.40656
0.962061
0.99597
1.56018
2.39309
0.34398
-0.74744
5.16229
-1.47964
0.837191
2.1677
-0.233135
2.44528
2.21936
-0.160864
)
;
    }
    topAndBottom
    {
        type            empty;
    }
}


// ************************************************************************* //
