/*--------------------------------*- C++ -*----------------------------------*\
| =========                 |                                                 |
| \\      /  F ield         | foam-extend: Open Source CFD                    |
|  \\    /   O peration     | Version:  3.0                                   |
|   \\  /    A nd           | Web:         http://www.extend-project.de       |
|    \\/     M anipulation  |                                                 |
\*---------------------------------------------------------------------------*/
FoamFile
{
    version     2.0;
    format      ascii;
    class       volScalarField;
    location    "10";
    object      Theta;
}
// * * * * * * * * * * * * * * * * * * * * * * * * * * * * * * * * * * * * * //

dimensions      [0 2 -2 0 0 0 0];

internalField   nonuniform List<scalar> 
400
(
-0.32141
-0.356549
0.0162704
0.165055
0.35568
0.479374
0.590453
0.677892
0.755268
0.817171
-0.255208
-0.295195
0.0654022
0.207221
0.390732
0.509098
0.615463
0.698967
0.772776
0.831699
-0.124364
-0.173819
0.162477
0.290636
0.460034
0.567878
0.66491
0.740627
0.807377
0.860406
0.0678188
0.00439017
0.305079
0.413111
0.561816
0.654194
0.73753
0.801813
0.858201
0.902576
0.316659
0.235169
0.489723
0.57171
0.693616
0.765966
0.831565
0.88104
0.924008
0.957175
0.616003
0.512769
0.711842
0.762488
0.852162
0.900418
0.944684
0.976346
1.00317
1.02286
0.958494
0.830387
0.965979
0.980766
1.03356
1.05425
1.07411
1.08539
1.09375
1.09801
1.33569
1.18018
1.24586
1.22116
1.23335
1.22367
1.21665
1.20548
1.1935
1.18077
1.73831
1.55357
1.54463
1.47776
1.4466
1.40451
1.36879
1.33367
1.29997
1.26911
2.15642
1.94128
1.85487
1.74422
1.66805
1.59231
1.5268
1.46679
1.41055
1.36086
2.57977
2.33393
2.16902
2.01404
1.89229
1.78246
1.68677
1.60158
1.5225
1.45374
2.99789
2.72165
2.47927
2.2805
2.11374
1.97026
1.84478
1.7347
1.63308
1.54549
3.40051
3.09503
2.77803
2.5371
2.327
2.1511
1.99692
1.86289
1.73955
1.63383
3.77771
3.44482
3.05792
2.77749
2.52678
2.32051
2.13946
1.98298
1.8393
1.71659
4.12019
3.76243
3.31206
2.99576
2.70819
2.47434
2.26889
2.09203
1.92987
1.79174
4.41954
4.04003
3.53419
3.18653
2.86674
2.60879
2.38201
2.18733
2.00904
1.85742
4.66837
4.27079
3.71884
3.34511
2.99854
2.72056
2.47604
2.26656
2.07484
1.91202
4.86056
4.44902
3.86146
3.46759
3.10034
2.80688
2.54867
2.32775
2.12567
1.95419
4.99138
4.57033
3.95853
3.55096
3.16963
2.86563
2.5981
2.3694
2.16026
1.9829
5.05761
4.63175
4.00768
3.59316
3.20471
2.89538
2.62313
2.39048
2.17778
1.99743
5.05761
4.63175
4.00769
3.59315
3.20472
2.89537
2.62313
2.39048
2.17778
1.99743
4.99138
4.57032
3.95855
3.55094
3.16964
2.86563
2.5981
2.3694
2.16026
1.98289
4.86056
4.449
3.86148
3.46756
3.10036
2.80686
2.54867
2.32775
2.12566
1.95419
4.66836
4.27076
3.71887
3.34507
2.99856
2.72054
2.47604
2.26656
2.07484
1.91202
4.41953
4.04
3.53423
3.18648
2.86677
2.60877
2.38201
2.18733
2.00903
1.85742
4.12018
3.76239
3.31211
2.99569
2.70822
2.47432
2.26889
2.09202
1.92987
1.79174
3.77769
3.44477
3.05798
2.77742
2.52682
2.32048
2.13946
1.98298
1.8393
1.71659
3.4005
3.09498
2.77809
2.53702
2.32704
2.15106
1.99693
1.86289
1.73954
1.63383
2.99787
2.72159
2.47933
2.28042
2.11379
1.97022
1.84478
1.7347
1.63307
1.54548
2.57976
2.33387
2.16909
2.01396
1.89233
1.78242
1.68678
1.60158
1.52249
1.45374
2.15641
1.94122
1.85493
1.74414
1.6681
1.59227
1.5268
1.46679
1.41054
1.36085
1.7383
1.55351
1.54469
1.47767
1.44664
1.40447
1.3688
1.33367
1.29996
1.26911
1.33567
1.18012
1.24593
1.22107
1.23339
1.22364
1.21665
1.20548
1.19349
1.18077
0.958478
0.830329
0.966041
0.980684
1.03361
1.05422
1.07411
1.08539
1.09374
1.098
0.615991
0.512718
0.711905
0.762412
0.852209
0.900386
0.94469
0.976342
1.00317
1.02285
0.316641
0.235107
0.489776
0.571631
0.693655
0.765931
0.831569
0.881034
0.924003
0.957172
0.0678154
0.0043647
0.30514
0.413058
0.561864
0.654172
0.737541
0.801812
0.858199
0.902574
-0.124391
-0.173898
0.162513
0.290556
0.460055
0.56784
0.664907
0.740616
0.807371
0.860403
-0.255189
-0.295159
0.0654431
0.207223
0.390777
0.509102
0.615482
0.698974
0.77278
0.831701
-0.321448
-0.356645
0.0162868
0.164976
0.355674
0.479336
0.59044
0.677878
0.755261
0.817168
)
;

boundaryField
{
    up
    {
        type            myTemperature;
        value           nonuniform List<scalar> 
40
(
0.847418
0.860485
0.886298
0.924219
0.973316
1.03238
1.09996
1.17438
1.25382
1.33632
1.41985
1.50235
1.58179
1.65622
1.72379
1.78286
1.83195
1.86987
1.89569
1.90875
1.90875
1.89569
1.86987
1.83195
1.78285
1.72379
1.65621
1.58179
1.50235
1.41985
1.33632
1.25382
1.17438
1.09995
1.03238
0.973314
0.924218
0.886296
0.860485
0.847418
)
;
    }
    hole
    {
        type            myTemperature;
        value           nonuniform List<scalar> 
40
(
-0.299066
-0.230444
-0.0948944
0.104244
0.362069
0.672232
1.0271
1.41793
1.8351
2.26834
2.70695
3.1402
3.55737
3.9482
4.30306
4.61323
4.87105
5.07019
5.20574
5.27436
5.27436
5.20574
5.07019
4.87106
4.61323
4.30307
3.9482
3.55737
3.1402
2.70696
2.26834
1.8351
1.41793
1.0271
0.672239
0.362075
0.104249
-0.0948904
-0.23044
-0.299065
)
;
    }
    frontAndBack
    {
        type            empty;
    }
}


// ************************************************************************* //
