/*--------------------------------*- C++ -*----------------------------------*\
| =========                 |                                                 |
| \\      /  F ield         | foam-extend: Open Source CFD                    |
|  \\    /   O peration     | Version:  3.0                                   |
|   \\  /    A nd           | Web:         http://www.extend-project.de       |
|    \\/     M anipulation  |                                                 |
\*---------------------------------------------------------------------------*/
FoamFile
{
    version     2.0;
    format      ascii;
    class       volScalarField;
    location    "30";
    object      p;
}
// * * * * * * * * * * * * * * * * * * * * * * * * * * * * * * * * * * * * * //

dimensions      [0 0 0 0 0 0 0];

internalField   nonuniform List<scalar> 
672
(
-0.2323886195
-0.1970923662
-0.1861862313
-0.1674540083
-0.1651256272
-0.1542570654
-0.1554719227
-0.1488168417
-0.1506231705
-0.1458701147
-0.1456536476
-0.1405794631
-0.2294250736
-0.1945779754
-0.1838098522
-0.1653159329
-0.1630165097
-0.152286877
-0.1534857108
-0.1469164547
-0.1486995305
-0.1440064449
-0.1437936629
-0.1387754066
-0.2236142934
-0.1896455648
-0.1791476262
-0.1611191128
-0.1588767598
-0.1484157543
-0.1495837825
-0.1431775873
-0.1449143803
-0.1403379821
-0.1401266762
-0.1352387058
-0.2149557756
-0.182300838
-0.1722085079
-0.1548776775
-0.1527217333
-0.1426665165
-0.143789188
-0.1376324429
-0.1393022798
-0.1349028639
-0.134701103
-0.1299941963
-0.2036300439
-0.1726915028
-0.1631287214
-0.1467084092
-0.1446651268
-0.1351373854
-0.1362004124
-0.1303659555
-0.1319460732
-0.1277769982
-0.1275807587
-0.1231211253
-0.189709015
-0.1608837756
-0.1519737626
-0.1366757069
-0.1347719123
-0.1258961919
-0.1268866611
-0.1214523215
-0.1229243034
-0.1190401876
-0.1188568657
-0.1146948634
-0.1734364773
-0.1470795911
-0.1389316612
-0.1249435135
-0.1232022485
-0.1150862703
-0.115991674
-0.1110222551
-0.1123672476
-0.1088147274
-0.1086442565
-0.1048352596
-0.1549499017
-0.1313998621
-0.1241192765
-0.111621412
-0.1100657214
-0.1028149296
-0.1036240097
-0.09918486131
-0.1003851036
-0.09721079469
-0.09705367944
-0.0936430896
-0.1345467363
-0.1140930954
-0.1077686179
-0.09691419142
-0.09556240244
-0.08926531352
-0.08996777626
-0.08611268362
-0.08715456628
-0.08439644811
-0.08425838512
-0.08128856509
-0.1124203452
-0.09532644746
-0.09004046605
-0.08096947237
-0.0798400489
-0.07457777034
-0.07516532418
-0.07194386673
-0.07281341015
-0.07050790658
-0.07038735251
-0.06790095593
-0.08890995309
-0.07538501156
-0.07120099028
-0.06402428619
-0.06312948647
-0.05896683168
-0.05943068014
-0.05688325006
-0.05756909574
-0.05574424982
-0.0556447538
-0.05366389701
-0.0642519229
-0.05447132389
-0.051444872
-0.04625529455
-0.0456083671
-0.04259823108
-0.04293427378
-0.04109206671
-0.04158711631
-0.04026666117
-0.04018957711
-0.03875401762
-0.03881374109
-0.03289540378
-0.03106138931
-0.02792160437
-0.02752819616
-0.0257079717
-0.02590965338
-0.02479691166
-0.0250931364
-0.02429312305
-0.02424008656
-0.0233521248
-0.01285922694
-0.01088231403
-0.0102668762
-0.009218316607
-0.009085634922
-0.008477823836
-0.008544622838
-0.008173319507
-0.008268345409
-0.007999062652
-0.00796920318
-0.007657851827
0.01323037463
0.0112457046
0.01063806998
0.009584465921
0.009457343802
0.008845108343
0.008916093027
0.008539852974
0.008647424445
0.008383347156
0.008384968262
0.008131340666
0.03918104245
0.03325522143
0.03142909535
0.02828483298
0.02789730697
0.02607335102
0.02627970674
0.02516276548
0.0254720376
0.02467740409
0.02465622386
0.0238247043
0.06461280064
0.05482500959
0.05180654011
0.04661339824
0.0459728175
0.04296011721
0.04330095246
0.04145603413
0.04196231005
0.04064791146
0.04059754976
0.03921168056
0.08925922997
0.07572788623
0.07155205555
0.06437330356
0.0634856557
0.0593221826
0.05979180778
0.05724348757
0.05794064153
0.05612221755
0.05604763526
0.05411097141
0.1127566753
0.09565686924
0.090379227
0.0813077394
0.08018648076
0.07492522411
0.07551964629
0.0722991974
0.07317935248
0.0708801831
0.07078011892
0.06832839139
0.134863624
0.1144052835
0.1080893524
0.09723650031
0.0958938082
0.08959996773
0.09030998575
0.0864581739
0.08750837825
0.08475661342
0.08463094034
0.08168333488
0.1552471497
0.1316929958
0.124421
0.1119265068
0.1103811173
0.1031355618
0.1039539267
0.09951974748
0.1007288344
0.09755982447
0.09741231643
0.09401370946
0.1737064897
0.1473469704
0.1392077056
0.1252251115
0.1234949472
0.1153864932
0.1163017708
0.1113396359
0.112691128
0.109143767
0.1089748027
0.1051646364
0.1899526528
0.1611253499
0.1522236723
0.1369328167
0.1350407463
0.126174388
0.127175427
0.1217502195
0.123227021
0.1193476095
0.1191591937
0.1149838277
0.2038389932
0.1728999663
0.1633453858
0.1469340299
0.1449029007
0.1353863311
0.13646053
0.130637042
0.1322214324
0.1280569187
0.1278526438
0.1233714632
0.2151319864
0.1824770155
0.172391937
0.1550711585
0.1529270734
0.1428841004
0.1440176025
0.1378729133
0.1395443453
0.1351489634
0.1349318721
0.1301925455
0.2237491884
0.1897818914
0.1792908687
0.1612731454
0.159042414
0.1485942632
0.1497728912
0.1433793549
0.1451165584
0.1405433521
0.1403134154
0.1353862711
0.2295217986
0.1946764698
0.183913526
0.1654306743
0.1631416751
0.1524247167
0.1536335241
0.1470762394
0.1488587953
0.1441670195
0.1439332513
0.138870151
0.2324380177
0.1971454934
0.1862437985
0.1675224348
0.1652033994
0.1543466284
0.1555702455
0.148926091
0.1507298606
0.145976572
0.1457354129
0.1406126547
0.2324000756
0.1971114961
0.186210155
0.1674912056
0.165171455
0.1543168476
0.1555395925
0.1488974536
0.1507012746
0.1459482765
0.145709738
0.1405799222
0.2294695183
0.1946212647
0.1838552265
0.1653682381
0.1630764956
0.1523547332
0.1535614023
0.14699913
0.148779649
0.1440847264
0.1438474697
0.1387899234
0.2236224667
0.189659983
0.1791666576
0.1611495012
0.1589147019
0.1484659146
0.1496405904
0.143246032
0.1449806394
0.1404052277
0.1401753562
0.1352404212
0.2149927302
0.1823360015
0.1722451794
0.1549189318
0.1527687145
0.1427189963
0.1438473886
0.1376957639
0.1393634281
0.1349629446
0.1347425848
0.1300066667
0.2036295047
0.172696019
0.1631367459
0.1467242523
0.144686083
0.1351664073
0.1362339109
0.1304069779
0.1319863348
0.1278181187
0.1276114703
0.1231235271
0.1897342048
0.1609063973
0.1519966041
0.1366994234
0.1347981375
0.1259238949
0.1269169192
0.1214840076
0.1229547866
0.1190694548
0.1188768942
0.1147008919
0.1734244073
0.1470710248
0.1389251122
0.1249399433
0.1232004656
0.1150868082
0.1159935807
0.1110258837
0.1123711894
0.1088188333
0.1086466529
0.1048322672
0.1549614171
0.1314079751
0.124125941
0.1116246898
0.1100676443
0.1028136472
0.1036217154
0.09917961036
0.1003806049
0.09720487602
0.09705143666
0.09364587715
0.134522627
0.1140709063
0.1077468813
0.09689038434
0.09553681605
0.089236172
0.0899365179
0.08607748381
0.08712042236
0.08436246149
0.08423148229
0.08128055503
0.1124189942
0.0953209476
0.09003188159
0.08095358114
0.07981901318
0.07454933585
0.07513216904
0.0719041508
0.07277558227
0.07046933299
0.07036365392
0.06790008754
0.08887571382
0.07535138327
0.07116651139
0.06398353469
0.06308399269
0.05891297013
0.05937198011
0.05681604655
0.05750441705
0.05568002216
0.05559702785
0.05365710934
0.06424106629
0.05445578791
0.05142504488
0.04622531056
0.0455704148
0.04254987069
0.04287830526
0.04102705993
0.04152425181
0.04020374349
0.04014841155
0.03874772993
0.03877329489
0.03285477451
0.0310191361
0.02787052911
0.02747061597
0.02563913624
0.02583442016
0.02471044289
0.02501025587
0.02421080737
0.02418009913
0.02334621247
0.01284410866
0.01086228835
0.01024205337
0.00918209754
0.009040260582
0.008420770683
0.008478867242
0.00809750006
0.008195224617
0.007926252529
0.007921945367
0.007651275023
-0.01327189118
-0.01128753398
-0.01068163584
-0.009637249035
-0.009516942626
-0.008916304278
-0.00899406322
-0.008629188132
-0.008733366313
-0.008468250427
-0.008447313511
-0.008137880586
-0.03919435643
-0.03327332565
-0.03145173008
-0.02831823852
-0.02793928514
-0.02612619041
-0.02634059291
-0.02523278654
-0.02553907317
-0.02474369847
-0.02469751067
-0.02382694681
-0.06465003712
-0.05486201257
-0.05184473301
-0.04665897905
-0.04602404124
-0.04302065084
-0.04336730949
-0.04153124038
-0.04203503047
-0.04071884158
-0.04065001261
-0.03921723736
-0.08926505701
-0.07573806293
-0.07156580719
-0.06439551506
-0.06351429862
-0.05935906807
-0.059834759
-0.05729301555
-0.05798806649
-0.05616853266
-0.05607536132
-0.05410939123
-0.1127851166
-0.09568397661
-0.09040643269
-0.08133871587
-0.08022061249
-0.0749644357
-0.07556229155
-0.07234657851
-0.07322488871
-0.07092380949
-0.07081149778
-0.06832987381
-0.1348577563
-0.1144030941
-0.1080892867
-0.09724143314
-0.09590184469
-0.08961259554
-0.09032559427
-0.08647725065
-0.08752702951
-0.08477488464
-0.08464186542
-0.08168179927
-0.1552640165
-0.131707083
-0.1244337828
-0.1119384212
-0.1103928985
-0.1031472699
-0.1039658401
-0.09953185557
-0.1007400446
-0.09757023746
-0.09741958837
-0.09401474762
-0.1736870144
-0.1473303881
-0.1391915954
-0.125210048
-0.1234790581
-0.1153712279
-0.1162855232
-0.1113239341
-0.1126759305
-0.1091301145
-0.1089651862
-0.1051615669
-0.1899574629
-0.1611258292
-0.1522214535
-0.1369248858
-0.1350293485
-0.1261576076
-0.1271557408
-0.1217260569
-0.1232037941
-0.1193248232
-0.1191446811
-0.1149891752
-0.2038066919
-0.1728697578
-0.1633141833
-0.146900061
-0.1448644679
-0.1353446575
-0.1364141207
-0.1305881998
-0.1321737058
-0.1280121938
-0.1278218703
-0.123364299
-0.2151266615
-0.1824659451
-0.1723770927
-0.1550463716
-0.1528960596
-0.1428430009
-0.1439709237
-0.1378174386
-0.1394909851
-0.1350964948
-0.1348962112
-0.130197578
-0.223707402
-0.1897414757
-0.1792485433
-0.1612250114
-0.1589872626
-0.1485326886
-0.1497040679
-0.143305299
-0.1450447827
-0.1404749114
-0.1402676505
-0.1353775416
-0.2295103231
-0.1946582166
-0.1838909087
-0.1653953668
-0.1630983853
-0.1523681711
-0.1535695807
-0.1470004164
-0.1487853525
-0.1440942981
-0.1438816781
-0.1388716626
-0.2323920005
-0.1971003706
-0.1861964128
-0.1674677997
-0.1651405231
-0.1542757003
-0.1554908734
-0.1488398306
-0.1506463762
-0.1458960116
-0.1456814154
-0.1406013952
)
;

boundaryField
{
    out
    {
        type            implicitExtrapolation;
    }
    in
    {
        type            implicitExtrapolation;
    }
    frontAndBack
    {
        type            empty;
    }
}


// ************************************************************************* //
