/*--------------------------------*- C++ -*----------------------------------*\
| =========                 |                                                 |
| \\      /  F ield         | foam-extend: Open Source CFD                    |
|  \\    /   O peration     | Version:  3.0                                   |
|   \\  /    A nd           | Web:         http://www.extend-project.de       |
|    \\/     M anipulation  |                                                 |
\*---------------------------------------------------------------------------*/
FoamFile
{
    version     2.0;
    format      ascii;
    class       volVectorField;
    location    "20";
    object      u;
}
// * * * * * * * * * * * * * * * * * * * * * * * * * * * * * * * * * * * * * //

dimensions      [0 0 0 0 0 0 0];

internalField   nonuniform List<vector> 
120
(
(0.499852 -0.156896 -8.47314e-20)
(0.758527 -0.086075 5.94885e-18)
(0.953095 -0.0441492 -1.40675e-17)
(0.959229 -0.0239267 7.44546e-18)
(1.04724 0.00502216 3.51724e-17)
(0.656954 -0.429109 2.4009e-18)
(0.844821 -0.235671 -3.33673e-17)
(0.99751 -0.121222 -9.97348e-18)
(0.983464 -0.0661093 -3.16907e-17)
(1.04261 0.0127847 -2.8052e-17)
(0.929101 -0.586302 4.03959e-18)
(0.99435 -0.322064 6.55541e-18)
(1.07449 -0.165752 1.8599e-17)
(1.02554 -0.0904986 1.1253e-17)
(1.0347 0.0172124 8.85078e-17)
(1.24338 -0.586347 1.89715e-18)
(1.16703 -0.322116 -7.02037e-19)
(1.16342 -0.165806 2.74643e-17)
(1.07414 -0.0905766 -1.43303e-18)
(1.02561 0.0171158 -6.25334e-18)
(1.51557 -0.429252 -2.17946e-18)
(1.31659 -0.23581 3.37119e-18)
(1.24044 -0.121391 -3.16796e-18)
(1.11626 -0.0663232 6.00301e-18)
(1.01776 0.0124951 -2.96716e-17)
(1.67273 -0.157099 -9.07427e-19)
(1.40294 -0.0862929 5.01932e-18)
(1.28492 -0.0444052 -2.77394e-18)
(1.14058 -0.0242664 2.24221e-18)
(1.01324 0.00458019 -1.33552e-17)
(1.67276 0.157163 -1.08852e-18)
(1.40296 0.0863776 4.32088e-18)
(1.28493 0.0444955 4.2487e-19)
(1.1406 0.0243237 1.54109e-18)
(1.01325 -0.00454635 -1.14254e-17)
(1.51564 0.429342 -2.98835e-18)
(1.31663 0.235911 9.60329e-18)
(1.24047 0.121494 -1.44613e-18)
(1.1163 0.0663937 8.44477e-18)
(1.01779 -0.0124501 3.48105e-18)
(1.24348 0.58648 -2.96942e-18)
(1.16709 0.322244 -1.3146e-17)
(1.16346 0.165929 -2.07122e-17)
(1.07419 0.0906698 -1.48571e-17)
(1.02566 -0.0170512 -5.6529e-17)
(0.929194 0.586486 2.07564e-18)
(0.99441 0.322225 1.57667e-18)
(1.07454 0.165897 -2.67539e-17)
(1.02559 0.090618 5.89147e-18)
(1.03474 -0.0171243 4.14746e-17)
(0.657022 0.429337 7.82016e-18)
(0.844865 0.23586 -4.55591e-18)
(0.997543 0.121387 2.4674e-17)
(0.983501 0.066251 -8.12691e-18)
(1.04265 -0.0126752 6.56721e-17)
(0.499876 0.157148 -2.46376e-19)
(0.758543 0.0862781 -1.15907e-17)
(0.953108 0.0443252 1.8426e-17)
(0.959244 0.0240809 -2.83222e-18)
(1.04726 -0.00489826 3.27235e-18)
(0.49989 -0.157154 8.27007e-20)
(0.758571 -0.0864384 -5.95331e-18)
(0.953168 -0.044647 1.40615e-17)
(0.959317 -0.0245933 -7.44991e-18)
(1.04737 0.004114 -3.51722e-17)
(0.657046 -0.429353 -2.40197e-18)
(0.844966 -0.236011 3.33489e-17)
(0.997705 -0.12169 9.97196e-18)
(0.983734 -0.0667293 3.16774e-17)
(1.04297 0.0119464 2.80403e-17)
(0.929262 -0.586506 -4.04321e-18)
(0.994574 -0.322362 -6.56295e-18)
(1.07481 -0.166151 -1.85932e-17)
(1.02595 -0.0910366 -1.12557e-17)
(1.03526 0.0165082 -8.84982e-17)
(1.24358 -0.586511 -1.90185e-18)
(1.16733 -0.322342 6.90499e-19)
(1.16383 -0.16612 -2.74565e-17)
(1.0747 -0.0909851 1.42874e-18)
(1.02632 0.0165796 6.23163e-18)
(1.51581 -0.429347 2.17582e-18)
(1.31694 -0.235959 -3.3805e-18)
(1.24093 -0.121584 3.16072e-18)
(1.1169 -0.0665875 -6.00578e-18)
(1.01858 0.0121672 2.96498e-17)
(1.67299 -0.157139 9.05759e-19)
(1.40332 -0.0863388 -5.02148e-18)
(1.28544 -0.044478 2.76672e-18)
(1.14127 -0.0243521 -2.24676e-18)
(1.01411 0.00446192 1.3348e-17)
(1.67302 0.157204 1.08714e-18)
(1.40334 0.0864228 -4.32494e-18)
(1.28545 0.0445649 -4.309e-19)
(1.14128 0.0244055 -1.54499e-18)
(1.01413 -0.0044332 1.1432e-17)
(1.51588 0.429438 2.98816e-18)
(1.31698 0.236059 -9.62278e-18)
(1.24096 0.121682 1.44389e-18)
(1.11693 0.0666543 -8.46187e-18)
(1.01862 -0.0121236 -3.49387e-18)
(1.24368 0.586645 2.96683e-18)
(1.16739 0.322468 1.31401e-17)
(1.16387 0.166239 2.0721e-17)
(1.07474 0.0910748 1.48571e-17)
(1.02638 -0.0165112 5.65576e-17)
(0.929356 0.58669 -2.07983e-18)
(0.994632 0.32252 -1.58801e-18)
(1.07486 0.166294 2.67644e-17)
(1.026 0.0911531 -5.8962e-18)
(1.03531 -0.0164127 -4.15015e-17)
(0.657115 0.429581 -7.82391e-18)
(0.845009 0.236196 4.54688e-18)
(0.997735 0.121852 -2.46825e-17)
(0.983767 0.0668691 8.12504e-18)
(1.043 -0.0118298 -6.57019e-17)
(0.499916 0.157407 2.44356e-19)
(0.758587 0.0866406 1.15886e-17)
(0.953178 0.044822 -1.84338e-17)
(0.959328 0.0247467 2.82822e-18)
(1.04738 -0.00398754 -3.28161e-18)
)
;

boundaryField
{
    out
    {
        type            fixedValue;
        value           uniform (1 0 0);
    }
    in
    {
        type            myVelocity;
    }
    frontAndBack
    {
        type            empty;
    }
}


// ************************************************************************* //
