/*--------------------------------*- C++ -*----------------------------------*\
| =========                 |                                                 |
| \\      /  F ield         | foam-extend: Open Source CFD                    |
|  \\    /   O peration     | Version:  3.0                                   |
|   \\  /    A nd           | Web:         http://www.extend-project.de       |
|    \\/     M anipulation  |                                                 |
\*---------------------------------------------------------------------------*/
FoamFile
{
    version     2.0;
    format      ascii;
    class       volSymmTensorField;
    location    "5";
    object      sigma;
}
// * * * * * * * * * * * * * * * * * * * * * * * * * * * * * * * * * * * * * //

dimensions      [0 0 0 0 0 0 0];

internalField   nonuniform List<symmTensor> 
400
(
(0.1572 -0.00660405 9.93729e-317 -0.21288 1.27409e-316 0.0556802)
(0.297329 -0.0617205 1.05582e-316 -0.200171 1.45337e-316 -0.0971585)
(0.36117 -0.127836 1.03331e-316 -0.189942 1.41677e-316 -0.171228)
(0.361344 -0.172461 9.90188e-317 -0.166408 1.30657e-316 -0.194936)
(0.338913 -0.217429 9.18971e-317 -0.145866 1.1563e-316 -0.193047)
(0.294383 -0.250905 8.50461e-317 -0.120565 1.02426e-316 -0.173818)
(0.242157 -0.278846 7.77011e-317 -0.0965955 8.82987e-317 -0.145561)
(0.180956 -0.300293 7.10415e-317 -0.0705429 7.78143e-317 -0.110413)
(0.116819 -0.314829 6.47178e-317 -0.0451317 6.66469e-317 -0.0716874)
(0.0474618 -0.323673 5.906e-317 -0.0178812 5.91747e-317 -0.0295806)
(-0.0232805 -0.325466 5.3967e-317 0.00951106 5.07185e-317 0.0137695)
(-0.0965755 -0.320973 4.94145e-317 0.0384095 4.56277e-317 0.058166)
(-0.169343 -0.309569 4.54745e-317 0.0681182 3.92421e-317 0.101225)
(-0.239161 -0.291296 4.18063e-317 0.0977365 3.5848e-317 0.141425)
(-0.302453 -0.265698 3.88891e-317 0.127474 3.1063e-317 0.174979)
(-0.35229 -0.234172 3.57095e-317 0.154513 2.88514e-317 0.197777)
(-0.378971 -0.190993 3.36897e-317 0.177313 2.55944e-317 0.201659)
(-0.374081 -0.147299 3.05505e-317 0.196712 2.43194e-317 0.177369)
(-0.304065 -0.0810251 2.89164e-317 0.201839 2.27421e-317 0.102227)
(-0.156376 -0.0237712 2.42076e-317 0.20626 2.17647e-317 -0.0498844)
(0.108519 0.00721798 3.18424e-317 -0.258334 6.87514e-317 0.149815)
(0.235309 -0.0149067 4.37157e-317 -0.27578 1.04515e-316 0.0404708)
(0.285268 -0.046968 5.0447e-317 -0.262546 1.13154e-316 -0.022722)
(0.297658 -0.072249 5.40975e-317 -0.24326 1.09754e-316 -0.0543979)
(0.279437 -0.0991123 5.51382e-317 -0.212502 9.99819e-317 -0.0669353)
(0.24556 -0.12096 5.48372e-317 -0.17883 8.97763e-317 -0.0667298)
(0.202058 -0.139705 5.33858e-317 -0.142731 7.81988e-317 -0.059327)
(0.151088 -0.153314 5.14057e-317 -0.104389 6.89553e-317 -0.0466991)
(0.0976612 -0.162117 4.90147e-317 -0.0661448 5.92491e-317 -0.0315163)
(0.0396484 -0.16492 4.64887e-317 -0.0255476 5.22842e-317 -0.0141008)
(-0.0187929 -0.163144 4.39337e-317 0.0150517 4.48017e-317 0.00374121)
(-0.0797222 -0.155228 4.14378e-317 0.0577623 3.99021e-317 0.02196)
(-0.139587 -0.144326 3.91407e-317 0.100984 3.42756e-317 0.0386032)
(-0.197134 -0.128817 3.69454e-317 0.144122 3.09716e-317 0.0530119)
(-0.249341 -0.112359 3.51861e-317 0.187111 2.68279e-317 0.0622301)
(-0.287642 -0.0951043 3.34172e-317 0.223723 2.47067e-317 0.0639192)
(-0.310025 -0.076583 3.24752e-317 0.257423 2.1944e-317 0.0526016)
(-0.294065 -0.0633276 3.12601e-317 0.271892 2.09533e-317 0.0221732)
(-0.240187 -0.0421926 3.12991e-317 0.278659 2.06426e-317 -0.0384714)
(-0.106956 -0.0335669 3.03057e-317 0.248999 2.36279e-317 -0.142043)
(0.101115 0.0320387 -5.55694e-318 -0.29287 3.12525e-317 0.191755)
(0.211337 0.0308808 7.48056e-318 -0.306292 7.08892e-317 0.0949558)
(0.251178 0.0243438 1.83062e-317 -0.287829 8.51438e-317 0.036651)
(0.260055 0.0104311 2.64051e-317 -0.263606 8.67829e-317 0.00355053)
(0.242382 -0.0044504 3.17892e-317 -0.228278 8.17155e-317 -0.0141042)
(0.213249 -0.0212765 3.5252e-317 -0.191912 7.47516e-317 -0.0213366)
(0.17706 -0.0343295 3.7018e-317 -0.154384 6.63513e-317 -0.0226763)
(0.134837 -0.0447835 3.77225e-317 -0.115139 5.89341e-317 -0.0196976)
(0.0919198 -0.0494231 3.75845e-317 -0.0771345 5.1316e-317 -0.0147853)
(0.0438858 -0.0486096 3.69449e-317 -0.0357327 4.52602e-317 -0.00815314)
(-0.00404938 -0.0429542 3.59759e-317 0.00553818 3.91344e-317 -0.0014888)
(-0.056297 -0.0312842 3.48187e-317 0.0509874 3.45293e-317 0.00530969)
(-0.108917 -0.0186626 3.36115e-317 0.0984421 2.97264e-317 0.0104747)
(-0.161519 -0.00223141 3.23029e-317 0.147799 2.62421e-317 0.0137203)
(-0.21286 0.00894076 3.10763e-317 0.200345 2.24317e-317 0.0125154)
(-0.251314 0.0188745 2.95464e-317 0.246003 1.96612e-317 0.0053106)
(-0.280427 0.0179089 2.8044e-317 0.29271 1.66224e-317 -0.0122832)
(-0.268956 0.0096813 2.57209e-317 0.313622 1.43792e-317 -0.0446662)
(-0.226771 -0.00829447 2.29994e-317 0.326985 1.28414e-317 -0.100214)
(-0.101891 -0.0347979 1.96664e-317 0.291381 1.36688e-317 -0.18949)
(0.0819101 0.0556089 -3.77121e-317 -0.296287 -1.12738e-318 0.214377)
(0.171967 0.0694506 -2.39161e-317 -0.293831 3.98555e-317 0.121863)
(0.201593 0.0773678 -9.87601e-318 -0.265564 5.76805e-317 0.0639706)
(0.205475 0.0668813 1.61557e-318 -0.234832 6.3557e-317 0.0293574)
(0.189692 0.0576386 1.07046e-317 -0.198882 6.26001e-317 0.00918981)
(0.165528 0.0412886 1.73409e-317 -0.164175 5.90005e-317 -0.00135288)
(0.139136 0.030425 2.20077e-317 -0.132677 5.35365e-317 -0.00645844)
(0.10809 0.0215018 2.50875e-317 -0.100399 4.8257e-317 -0.00769066)
(0.0793337 0.0191588 2.69565e-317 -0.0720866 4.25423e-317 -0.0072471)
(0.045245 0.0238036 2.79285e-317 -0.0398484 3.77788e-317 -0.00539662)
(0.0128197 0.0330682 2.82461e-317 -0.00913873 3.29174e-317 -0.00368096)
(-0.0262399 0.0507082 2.80891e-317 0.0282981 2.91519e-317 -0.00205821)
(-0.0655206 0.06725 2.75992e-317 0.0676557 2.53399e-317 -0.00213502)
(-0.109916 0.0898122 2.68204e-317 0.114154 2.26323e-317 -0.00423781)
(-0.154613 0.101026 2.58277e-317 0.165328 1.99524e-317 -0.0107143)
(-0.193893 0.111922 2.45038e-317 0.217041 1.84323e-317 -0.0231485)
(-0.226988 0.0984783 2.28631e-317 0.272723 1.72044e-317 -0.0457351)
(-0.225572 0.0757496 2.06394e-317 0.308426 1.72205e-317 -0.0828532)
(-0.196958 0.0233815 1.77718e-317 0.339182 1.75179e-317 -0.142223)
(-0.0871846 -0.0443007 1.42517e-317 0.319514 1.7056e-317 -0.23233)
(0.0864418 0.102224 -3.8657e-317 -0.341158 -1.29459e-317 0.254716)
(0.160378 0.117193 -2.85925e-317 -0.30705 1.96761e-317 0.146673)
(0.181882 0.128908 -1.66515e-317 -0.263645 3.64401e-317 0.0817637)
(0.175404 0.113662 -6.07328e-318 -0.218845 4.39281e-317 0.0434412)
(0.161472 0.103079 2.68997e-318 -0.182278 4.56729e-317 0.0208053)
(0.138665 0.0823518 9.5058e-318 -0.146849 4.4583e-317 0.00818361)
(0.121283 0.0699834 1.45591e-317 -0.122329 4.16629e-317 0.00104641)
(0.0982954 0.059035 1.82017e-317 -0.0959917 3.82627e-317 -0.00230375)
(0.08182 0.0571278 2.07021e-317 -0.0776888 3.43806e-317 -0.00413121)
(0.058129 0.0626459 2.23564e-317 -0.053433 3.08006e-317 -0.00469595)
(0.0379513 0.0750694 2.3387e-317 -0.0323511 2.7163e-317 -0.00560022)
(0.00762233 0.0969291 2.39814e-317 -0.000861351 2.40605e-317 -0.00676098)
(-0.0233051 0.119135 2.43093e-317 0.0332207 2.10338e-317 -0.00991555)
(-0.0653901 0.14914 2.4451e-317 0.080783 1.86278e-317 -0.0153929)
(-0.110464 0.165968 2.45674e-317 0.13634 1.64193e-317 -0.0258759)
(-0.158759 0.185001 2.4592e-317 0.202001 1.49602e-317 -0.0432422)
(-0.204335 0.169827 2.47332e-317 0.277033 1.39916e-317 -0.0726981)
(-0.222926 0.148247 2.47053e-317 0.343049 1.4081e-317 -0.120122)
(-0.210728 0.0758052 2.47321e-317 0.407557 1.53051e-317 -0.196828)
(-0.106457 -0.0087597 2.40963e-317 0.424946 1.87897e-317 -0.318489)
(0.0793979 0.177607 -4.13147e-317 -0.365815 -2.04307e-317 0.286417)
(0.130219 0.174242 -3.3409e-317 -0.294204 5.86374e-318 0.163986)
(0.143992 0.171668 -2.28187e-317 -0.23612 2.07464e-317 0.0921285)
(0.127376 0.142413 -1.29039e-317 -0.177869 2.87337e-317 0.0504921)
(0.116565 0.121594 -4.16692e-318 -0.142823 3.20253e-317 0.0262577)
(0.0965719 0.0932473 2.85776e-318 -0.109181 3.27033e-317 0.0126092)
(0.0891502 0.0752529 8.35167e-318 -0.0938424 3.15633e-317 0.00469217)
(0.0762581 0.0617971 1.24547e-317 -0.0767416 2.96655e-317 0.000483542)
(0.0736458 0.0585097 1.54312e-317 -0.0714173 2.71334e-317 -0.00222856)
(0.0633547 0.0661185 1.75054e-317 -0.0594783 2.45885e-317 -0.0038764)
(0.0589233 0.0818013 1.88873e-317 -0.0529672 2.18688e-317 -0.00595612)
(0.0415973 0.111097 1.97487e-317 -0.0330137 1.94284e-317 -0.00858357)
(0.0254433 0.141824 2.02331e-317 -0.0119938 1.70149e-317 -0.0134495)
(-0.00943005 0.185331 2.04534e-317 0.0306689 1.50479e-317 -0.0212388)
(-0.0457005 0.214742 2.04986e-317 0.0805656 1.33111e-317 -0.034865)
(-0.100155 0.251219 2.04442e-317 0.157245 1.22797e-317 -0.0570891)
(-0.149154 0.24635 2.03156e-317 0.243508 1.1885e-317 -0.0943546)
(-0.19208 0.237112 2.01413e-317 0.347253 1.27039e-317 -0.155173)
(-0.194159 0.160553 1.9799e-317 0.449399 1.47077e-317 -0.25524)
(-0.112349 0.0676882 1.88685e-317 0.529614 1.7776e-317 -0.417265)
(0.0784653 0.271855 -2.71571e-317 -0.382567 -1.68786e-317 0.304102)
(0.109637 0.238613 -2.33422e-317 -0.279627 -5.53813e-319 0.16999)
(0.118997 0.21026 -1.66531e-317 -0.213233 1.06374e-317 0.0942354)
(0.0933302 0.163142 -9.6643e-318 -0.144859 1.77022e-317 0.051529)
(0.0875536 0.127006 -3.21721e-318 -0.114738 2.14901e-317 0.0271842)
(0.0695484 0.0891715 2.29912e-318 -0.0831532 2.31351e-317 0.0136048)
(0.0718404 0.0630836 6.7591e-318 -0.0775277 2.32197e-317 0.00568729)
(0.0668792 0.0443491 1.0266e-317 -0.0682054 2.24278e-317 0.00132619)
(0.0765089 0.0376427 1.29238e-317 -0.0747913 2.09772e-317 -0.00171762)
(0.0769704 0.0429517 1.49004e-317 -0.0731297 1.92701e-317 -0.0038407)
(0.0859275 0.0599534 1.63458e-317 -0.079317 1.73257e-317 -0.00661051)
(0.0790375 0.0912648 1.74069e-317 -0.0689281 1.54149e-317 -0.0101095)
(0.0745737 0.130022 1.82352e-317 -0.058332 1.34793e-317 -0.0162417)
(0.0444096 0.182986 1.89474e-317 -0.0186315 1.17576e-317 -0.0257782)
(0.0123459 0.229356 1.97246e-317 0.0298718 1.02162e-317 -0.0422177)
(-0.0516486 0.286124 2.06253e-317 0.120602 9.16502e-318 -0.0689534)
(-0.111325 0.306293 2.19045e-317 0.22556 8.75545e-318 -0.114234)
(-0.183455 0.328552 2.34421e-317 0.372848 9.58665e-318 -0.189393)
(-0.206384 0.277712 2.5458e-317 0.522894 1.24344e-317 -0.316511)
(-0.139979 0.221192 2.70524e-317 0.670826 1.92928e-317 -0.530846)
(0.0624866 0.373327 -2.21698e-317 -0.349125 -1.45814e-317 0.286638)
(0.073273 0.300531 -1.97176e-317 -0.230867 -3.60492e-318 0.157594)
(0.0777733 0.237449 -1.4659e-317 -0.163849 4.67243e-318 0.0860756)
(0.0473996 0.170092 -9.05928e-318 -0.0939598 1.05754e-317 0.0465602)
(0.0454168 0.114653 -3.57706e-318 -0.069956 1.42401e-317 0.0245393)
(0.0311657 0.0676158 1.20046e-318 -0.0436186 1.62625e-317 0.0124529)
(0.0408191 0.0314373 5.19789e-318 -0.0463467 1.69811e-317 0.00552764)
(0.0443583 0.00836293 8.3695e-318 -0.046056 1.68572e-317 0.00169765)
(0.064193 -0.00299425 1.08113e-317 -0.0631729 1.60771e-317 -0.00102007)
(0.0763441 0.00156427 1.2624e-317 -0.0732547 1.49385e-317 -0.00308944)
(0.0984749 0.0194992 1.39276e-317 -0.0925801 1.34958e-317 -0.00589485)
(0.104719 0.0557561 1.48338e-317 -0.0950186 1.19488e-317 -0.00970001)
(0.115608 0.103986 1.5448e-317 -0.0993032 1.02901e-317 -0.0163051)
(0.0956534 0.17183 1.58732e-317 -0.0688022 8.69643e-318 -0.0268512)
(0.0776483 0.240283 1.62059e-317 -0.0326597 7.18719e-318 -0.0449886)
(0.0117295 0.325883 1.65698e-317 0.063301 6.03245e-318 -0.0750305)
(-0.0425076 0.381826 1.70566e-317 0.168908 5.45701e-318 -0.126401)
(-0.139545 0.445034 1.78119e-317 0.352798 6.12859e-318 -0.213253)
(-0.171215 0.434247 1.88862e-317 0.533532 8.89359e-318 -0.362317)
(-0.138179 0.414552 1.99103e-317 0.754476 1.52171e-317 -0.616297)
(0.0454576 0.458042 -8.83244e-318 -0.281527 -8.15808e-318 0.236069)
(0.0390949 0.352014 -8.87219e-318 -0.165467 -3.76346e-318 0.126372)
(0.0416633 0.255256 -6.72926e-318 -0.10913 1.35992e-318 0.0674667)
(0.0106132 0.171262 -3.56701e-318 -0.0463413 5.75169e-318 0.0357281)
(0.0139989 0.0968886 -1.93214e-319 -0.03246 8.94235e-318 0.018461)
(0.00390531 0.0409253 3.04219e-318 -0.0131075 1.10121e-317 0.00920222)
(0.0204114 -0.00591556 5.85451e-318 -0.0243813 1.20906e-317 0.00396994)
(0.0308531 -0.0357283 8.20338e-318 -0.0319911 1.24219e-317 0.00113803)
(0.059482 -0.0534697 1.00642e-317 -0.0584811 1.21454e-317 -0.00100097)
(0.0811891 -0.0547406 1.14927e-317 -0.0784644 1.14584e-317 -0.00272473)
(0.114871 -0.038847 1.25534e-317 -0.109489 1.04343e-317 -0.00538204)
(0.132579 -0.0057408 1.33247e-317 -0.123449 9.20972e-318 -0.00913035)
(0.156932 0.0487266 1.39026e-317 -0.141043 7.81108e-318 -0.015889)
(0.146636 0.121287 1.43681e-317 -0.119886 6.35116e-318 -0.0267503)
(0.139115 0.211937 1.48715e-317 -0.0933908 4.87044e-318 -0.0457244)
(0.0715675 0.319368 1.54735e-317 0.00579344 3.55679e-318 -0.077361)
(0.0140819 0.422201 1.64561e-317 0.11817 2.66206e-318 -0.132252)
(-0.108299 0.536449 1.77947e-317 0.334609 2.81789e-318 -0.22631)
(-0.163691 0.597216 1.9928e-317 0.554868 5.32784e-318 -0.391177)
(-0.158391 0.664727 2.24231e-317 0.839289 1.31267e-317 -0.680897)
(0.0175643 0.519629 -6.04224e-318 -0.168257 -5.21221e-318 0.150692)
(-0.00250398 0.382516 -6.02492e-318 -0.0756822 -3.16803e-318 0.0781861)
(-0.00603591 0.256147 -4.33921e-318 -0.0343691 -6.41198e-320 0.040405)
(-0.0327018 0.159634 -1.82771e-318 0.0120323 3.08083e-318 0.0206695)
(-0.0280861 0.068492 9.89678e-319 0.017774 5.66532e-318 0.0103121)
(-0.0324711 0.00627085 3.62915e-318 0.0274849 7.5423e-318 0.0049862)
(-0.0132723 -0.0508479 5.95572e-318 0.0111759 8.69187e-318 0.00209645)
(0.00370555 -0.0857336 7.85877e-318 -0.00434459 9.21943e-318 0.000639035)
(0.0367978 -0.110227 9.34845e-318 -0.0362397 9.20838e-318 -0.000558042)
(0.0671926 -0.115645 1.04477e-317 -0.0655283 8.78664e-318 -0.00166431)
(0.108456 -0.102369 1.12024e-317 -0.104711 8.01681e-318 -0.00374486)
(0.138143 -0.0696225 1.1657e-317 -0.1311 6.99305e-318 -0.0070429)
(0.17472 -0.00902596 1.18561e-317 -0.161488 5.74412e-318 -0.0132316)
(0.178824 0.073684 1.18426e-317 -0.155236 4.34241e-318 -0.0235878)
(0.18823 0.188362 1.16556e-317 -0.146378 2.82455e-318 -0.0418511)
(0.130745 0.326779 1.13612e-317 -0.0578497 1.33008e-318 -0.0728957)
(0.0902667 0.481552 1.10179e-317 0.0369428 8.2919e-320 -0.12721)
(-0.0415557 0.654859 1.08136e-317 0.263172 -3.60673e-319 -0.221617)
(-0.0929381 0.790298 1.09482e-317 0.481485 1.13532e-318 -0.388547)
(-0.127603 0.926376 1.18553e-317 0.809381 6.63372e-318 -0.681778)
(-0.0124708 0.539685 1.86075e-318 -0.0308507 -9.90033e-319 0.0433216)
(-0.0438376 0.392027 9.05904e-319 0.0249797 -2.25413e-318 0.0188579)
(-0.0494417 0.248069 1.17156e-318 0.0415535 -9.99307e-319 0.00788817)
(-0.0688181 0.144954 2.39143e-318 0.0658816 1.02711e-318 0.00293648)
(-0.0616347 0.0418303 3.92524e-318 0.0608538 3.10378e-318 0.000780854)
(-0.0600367 -0.0261814 5.54106e-318 0.0600515 4.82106e-318 -1.47748e-05)
(-0.0384179 -0.0919665 6.99612e-318 0.0387425 6.03042e-318 -0.000324516)
(-0.0160987 -0.133322 8.23447e-318 0.0163614 6.72122e-318 -0.000262661)
(0.0207245 -0.164866 9.20383e-318 -0.020242 6.93024e-318 -0.000482511)
(0.0579461 -0.178049 9.90886e-318 -0.0570916 6.73874e-318 -0.000854494)
(0.106217 -0.170059 1.03586e-317 -0.103911 6.20404e-318 -0.00230605)
(0.146311 -0.145597 1.0572e-317 -0.141408 5.39647e-318 -0.00490224)
(0.194929 -0.0843251 1.05791e-317 -0.184651 4.34795e-318 -0.0102778)
(0.213382 -0.00593769 1.03901e-317 -0.193938 3.1064e-318 -0.0194436)
(0.238304 0.12638 1.00688e-317 -0.202279 1.69865e-318 -0.0360253)
(0.192583 0.275684 9.59613e-318 -0.128252 2.01203e-319 -0.0643307)
(0.159475 0.482657 9.14132e-318 -0.0449974 -1.22079e-318 -0.114477)
(0.0173252 0.703228 8.68911e-318 0.1851 -2.21212e-318 -0.202425)
(-0.0590659 0.935718 8.66994e-318 0.420316 -1.67488e-318 -0.36125)
(-0.13702 1.18332 9.64741e-318 0.788607 2.67867e-318 -0.651587)
(-0.0422278 0.523484 4.44116e-319 0.116137 -4.37742e-321 -0.0739097)
(-0.0834281 0.370601 8.14951e-319 0.127638 -1.57306e-318 -0.0442104)
(-0.0996064 0.219722 1.97612e-318 0.125308 -1.2956e-318 -0.0257019)
(-0.108949 0.117475 3.44158e-318 0.123787 -9.32302e-321 -0.0148381)
(-0.103459 0.00796794 4.99345e-318 0.111946 1.64404e-318 -0.00848713)
(-0.0945651 -0.0618947 6.32801e-318 0.0992706 3.15931e-318 -0.00470544)
(-0.0736158 -0.134128 7.45939e-318 0.0760524 4.3127e-318 -0.00243657)
(-0.0466166 -0.179695 8.33301e-318 0.0474914 5.03394e-318 -0.000874853)
(-0.0105931 -0.217367 8.96844e-318 0.0106388 5.33071e-318 -4.57243e-05)
(0.0312029 -0.236386 9.3642e-318 -0.03158 5.25771e-318 0.000377104)
(0.0798097 -0.233705 9.52517e-318 -0.0795867 4.86165e-318 -0.000223002)
(0.12814 -0.214875 9.44493e-318 -0.12623 4.19622e-318 -0.00191009)
(0.181513 -0.153979 9.11127e-318 -0.17555 3.29023e-318 -0.00596308)
(0.2161 -0.0744189 8.49751e-318 -0.202754 2.17591e-318 -0.013346)
(0.254416 0.0740082 7.56013e-318 -0.227475 8.77614e-319 -0.0269409)
(0.232974 0.245864 6.26764e-318 -0.182425 -5.60256e-319 -0.050549)
(0.223859 0.503729 4.52486e-318 -0.131456 -2.01929e-318 -0.0924026)
(0.100402 0.786104 2.47486e-318 0.0659601 -3.30532e-318 -0.166362)
(0.0464104 1.10791 1.00473e-319 0.253632 -3.79159e-318 -0.300043)
(-0.0633249 1.43786 -1.25503e-318 0.603642 -2.74051e-318 -0.540317)
(-0.0778038 0.473546 3.49523e-318 0.268389 8.35826e-319 -0.190585)
(-0.121513 0.333825 4.09244e-318 0.225765 -2.36168e-318 -0.104252)
(-0.140519 0.188413 5.14437e-318 0.19717 -2.66715e-318 -0.0566514)
(-0.139335 0.0875375 6.17245e-318 0.170149 -1.61349e-318 -0.0308136)
(-0.134239 -0.0226376 7.03081e-318 0.150927 2.70303e-320 -0.0166885)
(-0.118714 -0.0946701 7.71787e-318 0.127574 1.60144e-318 -0.00885999)
(-0.0984762 -0.169755 8.24237e-318 0.102862 2.83942e-318 -0.00438568)
(-0.0678627 -0.218812 8.63235e-318 0.0694032 3.66061e-318 -0.0015405)
(-0.0327589 -0.260708 8.87716e-318 0.0325973 4.07293e-318 0.000161538)
(0.0118087 -0.285789 8.9701e-318 -0.0131321 4.13263e-318 0.00132347)
(0.0612188 -0.28947 8.89124e-318 -0.0627056 3.89146e-318 0.00148677)
(0.115733 -0.28079 8.61787e-318 -0.116509 3.4026e-318 0.000775951)
(0.175883 -0.226367 8.1298e-318 -0.173944 2.70008e-318 -0.00193865)
(0.225572 -0.159878 7.38281e-318 -0.218357 1.81593e-318 -0.0072144)
(0.280459 -0.008126 6.36032e-318 -0.263058 7.75797e-319 -0.0174008)
(0.283454 0.155061 4.97823e-318 -0.248457 -3.98869e-319 -0.034997)
(0.293426 0.448174 3.24121e-318 -0.227247 -1.6389e-318 -0.0661784)
(0.180132 0.74679 1.1022e-318 -0.059321 -2.93862e-318 -0.120811)
(0.10525 1.15973 -1.33738e-318 0.1163 -3.98743e-318 -0.22155)
(-0.0706398 1.58258 -2.96317e-318 0.488146 -4.55067e-318 -0.417506)
(-0.097276 0.381239 8.53938e-319 0.383593 6.96509e-319 -0.286317)
(-0.154349 0.263958 3.27486e-318 0.307407 -2.42371e-318 -0.153058)
(-0.185051 0.136683 5.80489e-318 0.265955 -2.95064e-318 -0.0809036)
(-0.1732 0.0476566 7.16625e-318 0.216024 -1.94331e-318 -0.042824)
(-0.168407 -0.0568534 8.02551e-318 0.191038 -3.79008e-319 -0.0226302)
(-0.144869 -0.12627 8.41103e-318 0.156627 1.10478e-318 -0.0117584)
(-0.125484 -0.200914 8.6182e-318 0.13114 2.24584e-318 -0.00565618)
(-0.0921104 -0.250772 8.68972e-318 0.0939778 2.99393e-318 -0.00186734)
(-0.0613356 -0.294661 8.66534e-318 0.0607896 3.37135e-318 0.000546037)
(-0.0172123 -0.323736 8.52946e-318 0.0148811 3.43706e-318 0.00233122)
(0.025371 -0.332677 8.25491e-318 -0.0286382 3.24237e-318 0.00326724)
(0.0813529 -0.331892 7.80199e-318 -0.0848632 2.83652e-318 0.00351035)
(0.135924 -0.2848 7.12312e-318 -0.138207 2.2528e-318 0.00228377)
(0.197641 -0.226722 6.15827e-318 -0.196847 1.52123e-318 -0.00079382)
(0.254645 -0.075196 4.81926e-318 -0.247527 6.77285e-319 -0.00711798)
(0.290656 0.0931403 3.04142e-318 -0.272545 -2.57141e-319 -0.0181103)
(0.319441 0.415943 6.27414e-319 -0.282764 -1.22044e-318 -0.0366776)
(0.259892 0.762316 -2.30513e-318 -0.192314 -2.27157e-318 -0.0675778)
(0.223502 1.25637 -6.09146e-318 -0.102888 -3.54158e-318 -0.120614)
(0.0577782 1.76695 -9.35776e-318 0.153793 -6.09224e-318 -0.211572)
(-0.132765 0.296125 4.70331e-318 0.496633 -2.00024e-318 -0.363868)
(-0.174975 0.193467 6.71994e-318 0.361656 -6.40027e-318 -0.18668)
(-0.209123 0.084604 8.68935e-318 0.305146 -6.09203e-318 -0.0960232)
(-0.187021 -0.00163223 9.28581e-318 0.236828 -4.0808e-318 -0.0498074)
(-0.183741 -0.097132 9.31526e-318 0.209675 -1.90865e-318 -0.0259336)
(-0.154441 -0.163846 9.08135e-318 0.167804 -8.13183e-320 -0.0133631)
(-0.136857 -0.233415 8.79516e-318 0.143253 1.22851e-318 -0.00639596)
(-0.102172 -0.28079 8.52461e-318 0.104268 2.08372e-318 -0.00209627)
(-0.0756514 -0.323131 8.25203e-318 0.0749246 2.55559e-318 0.000726854)
(-0.0336667 -0.353082 7.94334e-318 0.0307165 2.73256e-318 0.00295015)
(0.00352088 -0.366374 7.5489e-318 -0.0079691 2.6788e-318 0.00444822)
(0.0585612 -0.373203 7.01964e-318 -0.0640698 2.44796e-318 0.00550865)
(0.111737 -0.338067 6.30871e-318 -0.117248 2.07956e-318 0.00551121)
(0.182408 -0.297231 5.36257e-318 -0.18685 1.60707e-318 0.00444136)
(0.250772 -0.161879 4.14121e-318 -0.252292 1.06679e-318 0.00151958)
(0.314782 -0.0219905 2.58268e-318 -0.311549 4.82544e-319 -0.00323229)
(0.37174 0.29779 6.47102e-319 -0.36189 -1.13551e-319 -0.00984984)
(0.340154 0.607708 -1.67044e-318 -0.323229 -8.40025e-319 -0.0169259)
(0.300409 1.14674 -4.45502e-318 -0.276682 -2.02999e-318 -0.0237268)
(0.0324139 1.66546 -7.05404e-318 0.0113983 -4.81426e-318 -0.0438122)
(-0.134666 0.149783 8.56518e-318 0.528336 1.84837e-318 -0.39367)
(-0.200617 0.0934704 1.01579e-317 0.398928 -3.63064e-318 -0.198311)
(-0.235017 0.0236371 1.14611e-317 0.33484 -3.86538e-318 -0.0998233)
(-0.204497 -0.0452515 1.10339e-317 0.255408 -2.1004e-318 -0.0509118)
(-0.194793 -0.123537 1.02828e-317 0.221022 -3.56132e-319 -0.026229)
(-0.158158 -0.183073 9.45293e-318 0.171611 1.01508e-318 -0.0134525)
(-0.140231 -0.243349 8.77209e-318 0.14665 1.90732e-318 -0.00641934)
(-0.105385 -0.286115 8.22999e-318 0.107449 2.42339e-318 -0.00206439)
(-0.085398 -0.323859 7.77539e-318 0.0845032 2.6441e-318 0.000894794)
(-0.0488615 -0.35265 7.34538e-318 0.0455285 2.64641e-318 0.00333303)
(-0.0237194 -0.367813 6.8707e-318 0.0184888 2.48537e-318 0.00523064)
(0.0246617 -0.379504 6.29131e-318 -0.0315491 2.20165e-318 0.00688741)
(0.0624885 -0.355242 5.54675e-318 -0.0704095 1.83083e-318 0.00792096)
(0.134569 -0.326916 4.58044e-318 -0.143024 1.40265e-318 0.00845501)
(0.188694 -0.210572 3.31843e-318 -0.197116 9.59456e-319 0.00842179)
(0.281793 -0.0847322 1.73787e-318 -0.290537 5.38151e-319 0.00874383)
(0.335262 0.224069 -3.09977e-319 -0.347699 1.87666e-319 0.0124366)
(0.390773 0.551939 -2.65411e-318 -0.417683 -1.53521e-319 0.0269093)
(0.38288 1.13302 -5.60876e-318 -0.454246 -9.75291e-319 0.071366)
(0.230588 1.75752 -8.57373e-318 -0.423309 -3.76537e-318 0.192721)
(-0.159886 0.0753371 1.65012e-317 0.553107 -6.28909e-318 -0.393221)
(-0.178779 0.00217957 1.49708e-317 0.366864 -1.12098e-317 -0.188086)
(-0.218786 -0.0572148 1.34072e-317 0.310964 -9.03308e-318 -0.092178)
(-0.180891 -0.12346 1.15219e-317 0.227241 -5.37942e-318 -0.0463505)
(-0.173978 -0.189621 9.8604e-318 0.197728 -2.74271e-318 -0.0237496)
(-0.136351 -0.238752 8.63048e-318 0.148569 -8.8208e-319 -0.0122182)
(-0.121194 -0.28758 7.73354e-318 0.127076 2.90278e-319 -0.00588266)
(-0.0891354 -0.320981 7.10317e-318 0.0910473 1.0316e-318 -0.00191187)
(-0.0748548 -0.351604 6.61156e-318 0.0739897 1.47078e-318 0.000865063)
(-0.044865 -0.375733 6.18046e-318 0.0415985 1.70876e-318 0.0032665)
(-0.0280783 -0.391304 5.73102e-318 0.0228024 1.80567e-318 0.00527591)
(0.0120702 -0.406122 5.20774e-318 -0.0193092 1.80403e-318 0.00723902)
(0.0417326 -0.394624 4.56313e-318 -0.0505914 1.73486e-318 0.00885879)
(0.109686 -0.382771 3.76006e-318 -0.12012 1.62399e-318 0.0104341)
(0.164506 -0.298257 2.78192e-318 -0.1767 1.49706e-318 0.0121941)
(0.269308 -0.213146 1.63401e-318 -0.285062 1.37563e-318 0.0157541)
(0.35042 0.0443236 3.54018e-319 -0.3762 1.26389e-318 0.0257803)
(0.427981 0.279221 -9.82301e-319 -0.48212 1.08523e-318 0.0541391)
(0.459425 0.815253 -2.29581e-318 -0.589921 4.0256e-319 0.130496)
(0.144742 1.26604 -3.78981e-318 -0.447616 -1.73971e-318 0.302873)
(-0.138164 -0.0979274 2.72643e-317 0.464741 1.16006e-317 -0.326578)
(-0.196011 -0.102073 2.217e-317 0.349197 2.56782e-318 -0.153186)
(-0.206143 -0.0976123 1.67439e-317 0.279918 1.20155e-318 -0.0737755)
(-0.164225 -0.144969 1.27878e-317 0.201022 1.97048e-318 -0.0367967)
(-0.144885 -0.178169 9.96214e-318 0.163752 2.62247e-318 -0.0188676)
(-0.102653 -0.216975 8.19387e-318 0.11245 2.98829e-318 -0.00979755)
(-0.0888244 -0.246509 7.03323e-318 0.0936163 3.08872e-318 -0.00479192)
(-0.0597062 -0.271298 6.28331e-318 0.0612932 3.01315e-318 -0.00158701)
(-0.0537778 -0.290585 5.74203e-318 0.0530507 2.82317e-318 0.000727133)
(-0.0321423 -0.307152 5.3038e-318 0.0293196 2.5579e-318 0.00282264)
(-0.0292123 -0.318471 4.87912e-318 0.0245403 2.24478e-318 0.00467199)
(-0.00116211 -0.327887 4.40905e-318 -0.00543366 1.90489e-318 0.00659577)
(0.00773262 -0.323342 3.84197e-318 -0.0161216 1.5582e-318 0.00838897)
(0.0643453 -0.312932 3.13783e-318 -0.074704 1.22538e-318 0.0103587)
(0.0895602 -0.257771 2.2553e-318 -0.10246 9.37598e-319 0.0128994)
(0.204824 -0.18835 1.21629e-318 -0.222441 7.2928e-319 0.0176169)
(0.246023 0.00543484 -2.96439e-320 -0.275733 6.26218e-319 0.0297099)
(0.427298 0.225983 -1.26202e-318 -0.489939 6.37883e-319 0.0626402)
(0.42863 0.705676 -2.55575e-318 -0.587301 3.7008e-319 0.158671)
(0.435096 1.32358 -3.97348e-318 -0.883374 -9.56664e-319 0.448277)
(-0.11323 -0.125261 2.20405e-317 0.338152 -1.22216e-317 -0.224923)
(-0.0773306 -0.201155 1.62448e-317 0.177242 -1.24907e-317 -0.0999111)
(-0.104631 -0.23143 1.07696e-317 0.151976 -8.99962e-318 -0.0473448)
(-0.0697822 -0.266603 7.73676e-318 0.0933762 -5.47711e-318 -0.0235939)
(-0.0616251 -0.301613 5.80368e-318 0.0738267 -3.48877e-318 -0.0122017)
(-0.034196 -0.320235 4.71639e-318 0.0406509 -2.16723e-318 -0.00645489)
(-0.0256226 -0.341596 4.03778e-318 0.0288656 -1.31668e-318 -0.00324294)
(-0.00714033 -0.353143 3.61967e-318 0.00825929 -7.00901e-319 -0.00111896)
(-0.00402943 -0.365937 3.32036e-318 0.00356877 -2.35017e-319 0.000460665)
(0.00879155 -0.377147 3.07441e-318 -0.0107615 1.37948e-319 0.00196993)
(0.00930617 -0.386983 2.82777e-318 -0.0126437 4.47535e-319 0.0033375)
(0.0258837 -0.400435 2.54852e-318 -0.030726 7.1307e-319 0.00484234)
(0.0308098 -0.404691 2.21292e-318 -0.0371178 9.42603e-319 0.00630798)
(0.067217 -0.414498 1.80945e-318 -0.0752292 1.14289e-318 0.00801222)
(0.0879227 -0.391753 1.34763e-318 -0.0981521 1.30915e-318 0.0102294)
(0.166676 -0.374623 8.6256e-319 -0.180816 1.4347e-318 0.0141406)
(0.221837 -0.259692 4.48646e-319 -0.245486 1.49181e-318 0.0236482)
(0.335743 -0.17218 1.76204e-319 -0.384937 1.43532e-318 0.049194)
(0.440871 0.156105 3.05263e-319 -0.565833 1.12698e-318 0.124962)
(0.171433 0.305771 2.62927e-319 -0.506905 3.27803e-319 0.335472)
(-0.0157639 -0.317864 2.63123e-317 0.0842473 3.093e-317 -0.0684834)
(-0.0753033 -0.273313 1.87313e-317 0.109142 1.69317e-317 -0.0338388)
(-0.0363522 -0.184274 1.04764e-317 0.0526799 1.17222e-317 -0.0163277)
(-0.00518452 -0.202175 6.73898e-318 0.0134536 8.77783e-318 -0.00826903)
(0.0105451 -0.172721 4.46032e-318 -0.00616793 7.35068e-318 -0.00437719)
(0.0392784 -0.187473 3.38342e-318 -0.0368812 6.27326e-318 -0.00239721)
(0.0401931 -0.176708 2.74537e-318 -0.0389299 5.45405e-318 -0.00126319)
(0.0541521 -0.18294 2.39097e-318 -0.0536835 4.71036e-318 -0.000468584)
(0.0473442 -0.177364 2.15168e-318 -0.0474804 4.03046e-318 0.000136132)
(0.0530088 -0.174901 1.97514e-318 -0.0537699 3.38454e-318 0.000761088)
(0.0410586 -0.170968 1.81561e-318 -0.0423854 2.77571e-318 0.00132678)
(0.0466398 -0.157774 1.64699e-318 -0.0486337 2.20662e-318 0.00199387)
(0.0311061 -0.153778 1.44687e-318 -0.0337524 1.69042e-318 0.00264629)
(0.050265 -0.123841 1.19641e-318 -0.0537026 1.24214e-318 0.00343754)
(0.0336089 -0.117475 8.71364e-319 -0.0380405 8.81581e-319 0.0044316)
(0.100346 -0.0591482 4.88789e-319 -0.106408 6.31322e-319 0.00606148)
(0.0836181 -0.0457622 1.76628e-320 -0.0934187 4.6956e-319 0.00980063)
(0.280438 0.0589868 -3.65648e-319 -0.300271 3.90376e-319 0.0198332)
(0.226698 0.110443 -6.52651e-319 -0.28236 1.50537e-319 0.0556621)
(0.54638 0.508176 -9.53171e-319 -0.781722 -5.97256e-319 0.235342)
)
;

boundaryField
{
    cavity
    {
        type            mySigma;
    }
    lid
    {
        type            fixedValue;
        value           uniform (0.1 -0.3 0 -0.1 0 0);
    }
    frontAndBack
    {
        type            empty;
    }
}


// ************************************************************************* //
