/*--------------------------------*- C++ -*----------------------------------*\
| =========                 |                                                 |
| \\      /  F ield         | foam-extend: Open Source CFD                    |
|  \\    /   O peration     | Version:  3.0                                   |
|   \\  /    A nd           | Web:         http://www.extend-project.de       |
|    \\/     M anipulation  |                                                 |
\*---------------------------------------------------------------------------*/
FoamFile
{
    version     2.0;
    format      ascii;
    class       volVectorField;
    location    "40";
    object      s;
}
// * * * * * * * * * * * * * * * * * * * * * * * * * * * * * * * * * * * * * //

dimensions      [0 1 -1 0 0 0 0];

internalField   nonuniform List<vector> 
320
(
(1.22652 0.0965296 3.10457e-18)
(0.945472 0.0744102 3.31314e-18)
(0.766715 0.0603418 1.04325e-18)
(0.644552 0.0507273 1.7665e-18)
(0.555828 0.0437446 3.6572e-19)
(0.488457 0.0384424 -1.03344e-18)
(0.435648 0.0342862 4.03475e-19)
(0.393239 0.0309486 6.06141e-19)
(1.19632 0.287212 2.46478e-18)
(0.922191 0.221398 5.91993e-18)
(0.747836 0.17954 -1.16122e-18)
(0.628681 0.150933 1.20991e-18)
(0.542142 0.130157 -2.81933e-18)
(0.476429 0.114381 2.03465e-18)
(0.42492 0.102014 2.71565e-18)
(0.383556 0.0920836 -7.61569e-19)
(1.13666 0.470822 5.58203e-18)
(0.876203 0.362935 2.97908e-18)
(0.710543 0.294317 9.53904e-19)
(0.597329 0.247422 3.31783e-18)
(0.515106 0.213364 -1.0942e-18)
(0.452671 0.187502 -1.87712e-18)
(0.40373 0.167231 -3.94296e-18)
(0.364429 0.150951 4.27124e-19)
(1.04902 0.642839 -6.09807e-19)
(0.80864 0.495535 5.69564e-18)
(0.655754 0.401846 3.17036e-18)
(0.55127 0.337819 -3.00661e-18)
(0.475387 0.291318 -3.27964e-18)
(0.417766 0.256007 -3.49815e-18)
(0.372599 0.228329 -6.38613e-18)
(0.336328 0.206102 4.25998e-18)
(0.93554 0.799027 -3.77989e-18)
(0.721165 0.615933 -5.46158e-18)
(0.584818 0.499481 -4.80192e-18)
(0.491636 0.419897 5.20493e-19)
(0.423962 0.362098 2.52851e-18)
(0.372574 0.318208 -6.12891e-19)
(0.332293 0.283805 -2.01831e-18)
(0.299946 0.256178 -2.25584e-18)
(0.799027 0.93554 1.64943e-18)
(0.615933 0.721165 -5.79009e-18)
(0.499481 0.584818 -2.81797e-18)
(0.419897 0.491636 6.16011e-18)
(0.362098 0.423962 -1.81522e-18)
(0.318208 0.372574 -1.63758e-19)
(0.283805 0.332293 -3.23481e-20)
(0.256178 0.299946 -2.27292e-18)
(0.642839 1.04902 2.58333e-19)
(0.495535 0.80864 1.39811e-18)
(0.401846 0.655754 7.89989e-18)
(0.337819 0.55127 -1.69067e-18)
(0.291318 0.475387 -9.98492e-19)
(0.256007 0.417766 2.59927e-18)
(0.228329 0.372599 7.10682e-18)
(0.206102 0.336328 -7.41096e-19)
(0.470822 1.13666 3.74099e-18)
(0.362935 0.876203 -2.59738e-19)
(0.294317 0.710543 2.27667e-18)
(0.247422 0.597329 -3.57919e-18)
(0.213364 0.515106 3.87344e-18)
(0.187502 0.452671 3.19886e-18)
(0.167231 0.40373 4.54508e-18)
(0.150951 0.364429 -1.70981e-18)
(0.287212 1.19632 2.39482e-18)
(0.221398 0.922191 1.57588e-18)
(0.17954 0.747836 -5.35932e-19)
(0.150933 0.628681 -3.15356e-18)
(0.130157 0.542142 2.01743e-18)
(0.114381 0.476429 5.87757e-19)
(0.102014 0.42492 5.20993e-19)
(0.0920836 0.383556 2.55763e-18)
(0.0965296 1.22652 3.60419e-18)
(0.0744102 0.945472 2.64523e-18)
(0.0603418 0.766715 5.06939e-19)
(0.0507273 0.644552 6.76808e-19)
(0.0437446 0.555828 -1.53123e-19)
(0.0384424 0.488457 5.99104e-20)
(0.0342862 0.435648 4.9427e-19)
(0.0309486 0.393239 9.29454e-19)
(-0.0965296 1.22652 3.10457e-18)
(-0.0744102 0.945472 3.31314e-18)
(-0.0603418 0.766715 1.04325e-18)
(-0.0507273 0.644552 1.7665e-18)
(-0.0437446 0.555828 3.6572e-19)
(-0.0384424 0.488457 -1.03344e-18)
(-0.0342862 0.435648 4.03475e-19)
(-0.0309486 0.393239 6.06141e-19)
(-0.287212 1.19632 2.46478e-18)
(-0.221398 0.922191 5.91993e-18)
(-0.17954 0.747836 -1.16122e-18)
(-0.150933 0.628681 1.20991e-18)
(-0.130157 0.542142 -2.81933e-18)
(-0.114381 0.476429 2.03465e-18)
(-0.102014 0.42492 2.71565e-18)
(-0.0920836 0.383556 -7.61569e-19)
(-0.470822 1.13666 5.58203e-18)
(-0.362935 0.876203 2.97908e-18)
(-0.294317 0.710543 9.53904e-19)
(-0.247422 0.597329 3.31783e-18)
(-0.213364 0.515106 -1.0942e-18)
(-0.187502 0.452671 -1.87712e-18)
(-0.167231 0.40373 -3.94296e-18)
(-0.150951 0.364429 4.27124e-19)
(-0.642839 1.04902 -6.09807e-19)
(-0.495535 0.80864 5.69564e-18)
(-0.401846 0.655754 3.17036e-18)
(-0.337819 0.55127 -3.00661e-18)
(-0.291318 0.475387 -3.27964e-18)
(-0.256007 0.417766 -3.49815e-18)
(-0.228329 0.372599 -6.38613e-18)
(-0.206102 0.336328 4.25998e-18)
(-0.799027 0.93554 -3.77989e-18)
(-0.615933 0.721165 -5.46158e-18)
(-0.499481 0.584818 -4.80192e-18)
(-0.419897 0.491636 5.20493e-19)
(-0.362098 0.423962 2.52851e-18)
(-0.318208 0.372574 -6.12891e-19)
(-0.283805 0.332293 -2.01831e-18)
(-0.256178 0.299946 -2.25584e-18)
(-0.93554 0.799027 1.64943e-18)
(-0.721165 0.615933 -5.79009e-18)
(-0.584818 0.499481 -2.81797e-18)
(-0.491636 0.419897 6.16011e-18)
(-0.423962 0.362098 -1.81522e-18)
(-0.372574 0.318208 -1.63758e-19)
(-0.332293 0.283805 -3.23481e-20)
(-0.299946 0.256178 -2.27292e-18)
(-1.04902 0.642839 2.58333e-19)
(-0.80864 0.495535 1.39811e-18)
(-0.655754 0.401846 7.89989e-18)
(-0.55127 0.337819 -1.69067e-18)
(-0.475387 0.291318 -9.98492e-19)
(-0.417766 0.256007 2.59927e-18)
(-0.372599 0.228329 7.10682e-18)
(-0.336328 0.206102 -7.41096e-19)
(-1.13666 0.470822 3.74099e-18)
(-0.876203 0.362935 -2.59738e-19)
(-0.710543 0.294317 2.27667e-18)
(-0.597329 0.247422 -3.57919e-18)
(-0.515106 0.213364 3.87344e-18)
(-0.452671 0.187502 3.19886e-18)
(-0.40373 0.167231 4.54508e-18)
(-0.364429 0.150951 -1.70981e-18)
(-1.19632 0.287212 2.39482e-18)
(-0.922191 0.221398 1.57588e-18)
(-0.747836 0.17954 -5.35932e-19)
(-0.628681 0.150933 -3.15356e-18)
(-0.542142 0.130157 2.01743e-18)
(-0.476429 0.114381 5.87757e-19)
(-0.42492 0.102014 5.20993e-19)
(-0.383556 0.0920836 2.55763e-18)
(-1.22652 0.0965296 3.60419e-18)
(-0.945472 0.0744102 2.64523e-18)
(-0.766715 0.0603418 5.06939e-19)
(-0.644552 0.0507273 6.76808e-19)
(-0.555828 0.0437446 -1.53123e-19)
(-0.488457 0.0384424 5.99104e-20)
(-0.435648 0.0342862 4.9427e-19)
(-0.393239 0.0309486 9.29454e-19)
(-1.22652 -0.0965296 3.10457e-18)
(-0.945472 -0.0744102 3.31314e-18)
(-0.766715 -0.0603418 1.04325e-18)
(-0.644552 -0.0507273 1.7665e-18)
(-0.555828 -0.0437446 3.6572e-19)
(-0.488457 -0.0384424 -1.03344e-18)
(-0.435648 -0.0342862 4.03475e-19)
(-0.393239 -0.0309486 6.06141e-19)
(-1.19632 -0.287212 2.46478e-18)
(-0.922191 -0.221398 5.91993e-18)
(-0.747836 -0.17954 -1.16122e-18)
(-0.628681 -0.150933 1.20991e-18)
(-0.542142 -0.130157 -2.81933e-18)
(-0.476429 -0.114381 2.03465e-18)
(-0.42492 -0.102014 2.71565e-18)
(-0.383556 -0.0920836 -7.61569e-19)
(-1.13666 -0.470822 5.58203e-18)
(-0.876203 -0.362935 2.97908e-18)
(-0.710543 -0.294317 9.53904e-19)
(-0.597329 -0.247422 3.31783e-18)
(-0.515106 -0.213364 -1.0942e-18)
(-0.452671 -0.187502 -1.87712e-18)
(-0.40373 -0.167231 -3.94296e-18)
(-0.364429 -0.150951 4.27124e-19)
(-1.04902 -0.642839 -6.09807e-19)
(-0.80864 -0.495535 5.69564e-18)
(-0.655754 -0.401846 3.17036e-18)
(-0.55127 -0.337819 -3.00661e-18)
(-0.475387 -0.291318 -3.27964e-18)
(-0.417766 -0.256007 -3.49815e-18)
(-0.372599 -0.228329 -6.38613e-18)
(-0.336328 -0.206102 4.25998e-18)
(-0.93554 -0.799027 -3.77989e-18)
(-0.721165 -0.615933 -5.46158e-18)
(-0.584818 -0.499481 -4.80192e-18)
(-0.491636 -0.419897 5.20493e-19)
(-0.423962 -0.362098 2.52851e-18)
(-0.372574 -0.318208 -6.12891e-19)
(-0.332293 -0.283805 -2.01831e-18)
(-0.299946 -0.256178 -2.25584e-18)
(-0.799027 -0.93554 1.64943e-18)
(-0.615933 -0.721165 -5.79009e-18)
(-0.499481 -0.584818 -2.81797e-18)
(-0.419897 -0.491636 6.16011e-18)
(-0.362098 -0.423962 -1.81522e-18)
(-0.318208 -0.372574 -1.63758e-19)
(-0.283805 -0.332293 -3.23481e-20)
(-0.256178 -0.299946 -2.27292e-18)
(-0.642839 -1.04902 2.58333e-19)
(-0.495535 -0.80864 1.39811e-18)
(-0.401846 -0.655754 7.89989e-18)
(-0.337819 -0.55127 -1.69067e-18)
(-0.291318 -0.475387 -9.98492e-19)
(-0.256007 -0.417766 2.59927e-18)
(-0.228329 -0.372599 7.10682e-18)
(-0.206102 -0.336328 -7.41096e-19)
(-0.470822 -1.13666 3.74099e-18)
(-0.362935 -0.876203 -2.59738e-19)
(-0.294317 -0.710543 2.27667e-18)
(-0.247422 -0.597329 -3.57919e-18)
(-0.213364 -0.515106 3.87344e-18)
(-0.187502 -0.452671 3.19886e-18)
(-0.167231 -0.40373 4.54508e-18)
(-0.150951 -0.364429 -1.70981e-18)
(-0.287212 -1.19632 2.39482e-18)
(-0.221398 -0.922191 1.57588e-18)
(-0.17954 -0.747836 -5.35932e-19)
(-0.150933 -0.628681 -3.15356e-18)
(-0.130157 -0.542142 2.01743e-18)
(-0.114381 -0.476429 5.87757e-19)
(-0.102014 -0.42492 5.20993e-19)
(-0.0920836 -0.383556 2.55763e-18)
(-0.0965296 -1.22652 3.60419e-18)
(-0.0744102 -0.945472 2.64523e-18)
(-0.0603418 -0.766715 5.06939e-19)
(-0.0507273 -0.644552 6.76808e-19)
(-0.0437446 -0.555828 -1.53123e-19)
(-0.0384424 -0.488457 5.99104e-20)
(-0.0342862 -0.435648 4.9427e-19)
(-0.0309486 -0.393239 9.29454e-19)
(0.0965296 -1.22652 3.10457e-18)
(0.0744102 -0.945472 3.31314e-18)
(0.0603418 -0.766715 1.04325e-18)
(0.0507273 -0.644552 1.7665e-18)
(0.0437446 -0.555828 3.6572e-19)
(0.0384424 -0.488457 -1.03344e-18)
(0.0342862 -0.435648 4.03475e-19)
(0.0309486 -0.393239 6.06141e-19)
(0.287212 -1.19632 2.46478e-18)
(0.221398 -0.922191 5.91993e-18)
(0.17954 -0.747836 -1.16122e-18)
(0.150933 -0.628681 1.20991e-18)
(0.130157 -0.542142 -2.81933e-18)
(0.114381 -0.476429 2.03465e-18)
(0.102014 -0.42492 2.71565e-18)
(0.0920836 -0.383556 -7.61569e-19)
(0.470822 -1.13666 5.58203e-18)
(0.362935 -0.876203 2.97908e-18)
(0.294317 -0.710543 9.53904e-19)
(0.247422 -0.597329 3.31783e-18)
(0.213364 -0.515106 -1.0942e-18)
(0.187502 -0.452671 -1.87712e-18)
(0.167231 -0.40373 -3.94296e-18)
(0.150951 -0.364429 4.27124e-19)
(0.642839 -1.04902 -6.09807e-19)
(0.495535 -0.80864 5.69564e-18)
(0.401846 -0.655754 3.17036e-18)
(0.337819 -0.55127 -3.00661e-18)
(0.291318 -0.475387 -3.27964e-18)
(0.256007 -0.417766 -3.49815e-18)
(0.228329 -0.372599 -6.38613e-18)
(0.206102 -0.336328 4.25998e-18)
(0.799027 -0.93554 -3.77989e-18)
(0.615933 -0.721165 -5.46158e-18)
(0.499481 -0.584818 -4.80192e-18)
(0.419897 -0.491636 5.20493e-19)
(0.362098 -0.423962 2.52851e-18)
(0.318208 -0.372574 -6.12891e-19)
(0.283805 -0.332293 -2.01831e-18)
(0.256178 -0.299946 -2.25584e-18)
(0.93554 -0.799027 1.64943e-18)
(0.721165 -0.615933 -5.79009e-18)
(0.584818 -0.499481 -2.81797e-18)
(0.491636 -0.419897 6.16011e-18)
(0.423962 -0.362098 -1.81522e-18)
(0.372574 -0.318208 -1.63758e-19)
(0.332293 -0.283805 -3.23481e-20)
(0.299946 -0.256178 -2.27292e-18)
(1.04902 -0.642839 2.58333e-19)
(0.80864 -0.495535 1.39811e-18)
(0.655754 -0.401846 7.89989e-18)
(0.55127 -0.337819 -1.69067e-18)
(0.475387 -0.291318 -9.98492e-19)
(0.417766 -0.256007 2.59927e-18)
(0.372599 -0.228329 7.10682e-18)
(0.336328 -0.206102 -7.41096e-19)
(1.13666 -0.470822 3.74099e-18)
(0.876203 -0.362935 -2.59738e-19)
(0.710543 -0.294317 2.27667e-18)
(0.597329 -0.247422 -3.57919e-18)
(0.515106 -0.213364 3.87344e-18)
(0.452671 -0.187502 3.19886e-18)
(0.40373 -0.167231 4.54508e-18)
(0.364429 -0.150951 -1.70981e-18)
(1.19632 -0.287212 2.39482e-18)
(0.922191 -0.221398 1.57588e-18)
(0.747836 -0.17954 -5.35932e-19)
(0.628681 -0.150933 -3.15356e-18)
(0.542142 -0.130157 2.01743e-18)
(0.476429 -0.114381 5.87757e-19)
(0.42492 -0.102014 5.20993e-19)
(0.383556 -0.0920836 2.55763e-18)
(1.22652 -0.0965296 3.60419e-18)
(0.945472 -0.0744102 2.64523e-18)
(0.766715 -0.0603418 5.06939e-19)
(0.644552 -0.0507273 6.76808e-19)
(0.555828 -0.0437446 -1.53123e-19)
(0.488457 -0.0384424 5.99104e-20)
(0.435648 -0.0342862 4.9427e-19)
(0.393239 -0.0309486 9.29454e-19)
)
;

boundaryField
{
    up
    {
        type            myHeatFlux;
        alpha           uniform 1;
        Theta_wall      uniform 1;
        value           nonuniform List<vector> 
40
(
(0.375813 0.0295772 0)
(0.36656 0.0880032 0)
(0.34828 0.144262 0)
(0.321424 0.196969 0)
(0.286654 0.244826 0)
(0.244826 0.286654 0)
(0.196969 0.321424 0)
(0.144262 0.34828 0)
(0.0880032 0.36656 0)
(0.0295772 0.375813 0)
(-0.0295772 0.375813 0)
(-0.0880032 0.36656 0)
(-0.144262 0.34828 0)
(-0.196969 0.321424 0)
(-0.244826 0.286654 0)
(-0.286654 0.244826 0)
(-0.321424 0.196969 0)
(-0.34828 0.144262 0)
(-0.36656 0.0880032 0)
(-0.375813 0.0295772 0)
(-0.375813 -0.0295772 0)
(-0.36656 -0.0880032 0)
(-0.34828 -0.144262 0)
(-0.321424 -0.196969 0)
(-0.286654 -0.244826 0)
(-0.244826 -0.286654 0)
(-0.196969 -0.321424 0)
(-0.144262 -0.34828 0)
(-0.0880032 -0.36656 0)
(-0.0295772 -0.375813 0)
(0.0295772 -0.375813 0)
(0.0880032 -0.36656 0)
(0.144262 -0.34828 0)
(0.196969 -0.321424 0)
(0.244826 -0.286654 0)
(0.286654 -0.244826 0)
(0.321424 -0.196969 0)
(0.34828 -0.144262 0)
(0.36656 -0.0880032 0)
(0.375813 -0.0295772 0)
)
;
    }
    hole
    {
        type            myHeatFlux;
        alpha           uniform 1;
        Theta_wall      uniform 4;
        value           nonuniform List<vector> 
40
(
(1.50325 0.118309 -2.60465e-18)
(1.46624 0.352013 -0)
(1.39312 0.577049 2.08372e-17)
(1.2857 0.787877 -0)
(1.14662 0.979304 -2.08372e-17)
(0.979304 1.14662 2.08372e-17)
(0.787877 1.2857 0)
(0.577049 1.39312 -0)
(0.352013 1.46624 0)
(0.118309 1.50325 2.60465e-18)
(-0.118309 1.50325 -2.60465e-18)
(-0.352013 1.46624 -0)
(-0.577049 1.39312 2.08372e-17)
(-0.787877 1.2857 -0)
(-0.979304 1.14662 -2.08372e-17)
(-1.14662 0.979304 2.08372e-17)
(-1.2857 0.787877 0)
(-1.39312 0.577049 -0)
(-1.46624 0.352013 0)
(-1.50325 0.118309 2.60465e-18)
(-1.50325 -0.118309 -2.60465e-18)
(-1.46624 -0.352013 -0)
(-1.39312 -0.577049 2.08372e-17)
(-1.2857 -0.787877 -0)
(-1.14662 -0.979304 -2.08372e-17)
(-0.979304 -1.14662 2.08372e-17)
(-0.787877 -1.2857 0)
(-0.577049 -1.39312 -0)
(-0.352013 -1.46624 0)
(-0.118309 -1.50325 2.60465e-18)
(0.118309 -1.50325 -2.60465e-18)
(0.352013 -1.46624 -0)
(0.577049 -1.39312 2.08372e-17)
(0.787877 -1.2857 -0)
(0.979304 -1.14662 -2.08372e-17)
(1.14662 -0.979304 2.08372e-17)
(1.2857 -0.787877 0)
(1.39312 -0.577049 -0)
(1.46624 -0.352013 0)
(1.50325 -0.118309 2.60465e-18)
)
;
    }
    frontAndBack
    {
        type            empty;
    }
}


// ************************************************************************* //
