/*--------------------------------*- C++ -*----------------------------------*\
| =========                 |                                                 |
| \\      /  F ield         | OpenFOAM: The Open Source CFD Toolbox           |
|  \\    /   O peration     | Version:  2.2.0                                 |
|   \\  /    A nd           | Web:      www.OpenFOAM.org                      |
|    \\/     M anipulation  |                                                 |
\*---------------------------------------------------------------------------*/
FoamFile
{
    version     2.0;
    format      ascii;
    class       volVectorField;
    location    "20";
    object      s;
}
// * * * * * * * * * * * * * * * * * * * * * * * * * * * * * * * * * * * * * //

dimensions      [0 1 -1 0 0 0 0];

internalField   nonuniform List<vector> 
7920
(
(0.531932 0.466348 0.106176)
(0.50493 0.442288 0.16703)
(0.474897 0.41549 0.231289)
(0.442031 0.386083 0.297715)
(0.406808 0.354815 0.364898)
(0.367023 0.319472 0.430169)
(0.32677 0.286112 0.491396)
(0.274784 0.243015 0.540868)
(0.569079 0.380055 0.147816)
(0.540174 0.360216 0.20728)
(0.507979 0.338066 0.270029)
(0.473045 0.31388 0.334937)
(0.435084 0.287947 0.400679)
(0.39375 0.259418 0.465228)
(0.349579 0.232155 0.526706)
(0.300579 0.199755 0.581538)
(0.585958 0.288862 0.214864)
(0.556358 0.273931 0.270645)
(0.523369 0.257219 0.329445)
(0.487645 0.23903 0.390272)
(0.448733 0.219443 0.451989)
(0.406618 0.198393 0.513033)
(0.361781 0.178042 0.57197)
(0.312494 0.156473 0.626821)
(0.582299 0.197616 0.314437)
(0.55386 0.18774 0.361741)
(0.522062 0.176618 0.411674)
(0.487588 0.164478 0.463482)
(0.449833 0.151321 0.516326)
(0.40923 0.137357 0.569127)
(0.365794 0.123827 0.620849)
(0.319485 0.110499 0.670527)
(0.565625 0.112511 0.434618)
(0.53991 0.107306 0.468428)
(0.510845 0.101359 0.504674)
(0.479052 0.0947972 0.542981)
(0.443817 0.0875923 0.582945)
(0.405705 0.0799464 0.624007)
(0.36461 0.0724586 0.665589)
(0.321165 0.0654316 0.707314)
(0.549997 0.0360538 0.525059)
(0.52681 0.0345095 0.547051)
(0.500247 0.0327151 0.571568)
(0.470865 0.0307095 0.598574)
(0.437873 0.0284794 0.628023)
(0.401889 0.0261025 0.659723)
(0.362713 0.0237702 0.693394)
(0.321439 0.0216375 0.728939)
(0.549997 -0.0360538 0.525059)
(0.52681 -0.0345096 0.547051)
(0.500247 -0.0327151 0.571568)
(0.470865 -0.0307095 0.598574)
(0.437873 -0.0284794 0.628023)
(0.401889 -0.0261024 0.659723)
(0.362713 -0.0237699 0.693394)
(0.321439 -0.0216371 0.728939)
(0.565625 -0.112511 0.434618)
(0.53991 -0.107306 0.468428)
(0.510844 -0.101359 0.504674)
(0.479052 -0.0947972 0.542981)
(0.443817 -0.0875922 0.582945)
(0.405705 -0.0799462 0.624007)
(0.36461 -0.0724582 0.665589)
(0.321165 -0.065431 0.707314)
(0.582299 -0.197616 0.314437)
(0.55386 -0.18774 0.361741)
(0.522062 -0.176618 0.411674)
(0.487588 -0.164478 0.463482)
(0.449832 -0.151321 0.516325)
(0.409229 -0.137356 0.569127)
(0.365794 -0.123827 0.620849)
(0.319485 -0.110498 0.670527)
(0.585958 -0.288862 0.214864)
(0.556357 -0.27393 0.270645)
(0.523368 -0.257219 0.329445)
(0.487645 -0.23903 0.390271)
(0.448732 -0.219442 0.451989)
(0.406617 -0.198392 0.513032)
(0.361781 -0.178042 0.57197)
(0.312494 -0.156472 0.626821)
(0.569078 -0.380054 0.147816)
(0.540173 -0.360216 0.20728)
(0.507978 -0.338065 0.270029)
(0.473044 -0.31388 0.334936)
(0.435083 -0.287946 0.400679)
(0.393749 -0.259417 0.465228)
(0.349578 -0.232154 0.526706)
(0.30058 -0.199753 0.581537)
(0.531931 -0.466348 0.106176)
(0.504929 -0.442287 0.16703)
(0.474896 -0.415489 0.231289)
(0.44203 -0.386082 0.297715)
(0.406807 -0.354815 0.364898)
(0.367022 -0.319472 0.430169)
(0.32677 -0.286111 0.491396)
(0.274783 -0.243014 0.540868)
(0.217027 0.190211 0.0295562)
(0.219116 0.191811 0.0533939)
(0.220388 0.192715 0.0808693)
(0.220527 0.192635 0.112261)
(0.219071 0.191397 0.14736)
(0.215233 0.188073 0.185937)
(0.208368 0.183781 0.225661)
(0.196732 0.175014 0.265132)
(0.245492 0.164082 0.042991)
(0.2469 0.165158 0.0675898)
(0.247273 0.165639 0.0958505)
(0.246371 0.165401 0.12806)
(0.243461 0.164186 0.164162)
(0.238199 0.161771 0.204039)
(0.229147 0.158497 0.246442)
(0.21646 0.153938 0.29077)
(0.271569 0.134038 0.0672574)
(0.271764 0.134423 0.0922103)
(0.270754 0.134341 0.120777)
(0.268281 0.133725 0.15327)
(0.263629 0.132383 0.189764)
(0.256443 0.13033 0.230311)
(0.245636 0.127687 0.274345)
(0.230964 0.125033 0.321793)
(0.298851 0.101567 0.106305)
(0.297139 0.101295 0.129757)
(0.294093 0.100703 0.15663)
(0.289506 0.099776 0.187286)
(0.282697 0.0984068 0.221947)
(0.273495 0.0967057 0.260861)
(0.260893 0.0947677 0.304004)
(0.245242 0.0932795 0.351696)
(0.323812 0.0644753 0.1564)
(0.31969 0.0638352 0.175877)
(0.314186 0.0630131 0.198585)
(0.307132 0.0620096 0.225)
(0.297955 0.060783 0.255534)
(0.286571 0.0594306 0.290669)
(0.272203 0.0579988 0.330807)
(0.255334 0.057025 0.376637)
(0.340387 0.0223352 0.195504)
(0.334394 0.0220135 0.210877)
(0.327025 0.0216385 0.229415)
(0.318153 0.0212147 0.251719)
(0.30728 0.0207351 0.278356)
(0.294386 0.0202389 0.30999)
(0.278804 0.0197488 0.347277)
(0.261125 0.0194535 0.391122)
(0.340387 -0.0223352 0.195504)
(0.334394 -0.0220134 0.210877)
(0.327025 -0.0216384 0.229415)
(0.318153 -0.0212145 0.251719)
(0.307281 -0.020735 0.278356)
(0.294386 -0.0202388 0.309991)
(0.278804 -0.0197488 0.347277)
(0.261125 -0.0194538 0.391122)
(0.323812 -0.0644753 0.1564)
(0.31969 -0.0638352 0.175878)
(0.314186 -0.063013 0.198585)
(0.307132 -0.0620095 0.225)
(0.297955 -0.0607829 0.255534)
(0.286572 -0.0594306 0.29067)
(0.272203 -0.0579989 0.330808)
(0.255334 -0.0570254 0.376638)
(0.298851 -0.101567 0.106305)
(0.297139 -0.101295 0.129757)
(0.294094 -0.100703 0.15663)
(0.289506 -0.0997759 0.187286)
(0.282697 -0.0984068 0.221948)
(0.273495 -0.0967058 0.260861)
(0.260893 -0.0947679 0.304005)
(0.245242 -0.09328 0.351697)
(0.271569 -0.134038 0.0672576)
(0.271764 -0.134423 0.0922105)
(0.270754 -0.134341 0.120777)
(0.268281 -0.133725 0.15327)
(0.263629 -0.132383 0.189764)
(0.256443 -0.13033 0.230311)
(0.245636 -0.127687 0.274346)
(0.230964 -0.125033 0.321794)
(0.245493 -0.164082 0.0429912)
(0.2469 -0.165158 0.0675901)
(0.247273 -0.165639 0.0958508)
(0.246371 -0.165401 0.12806)
(0.243462 -0.164186 0.164163)
(0.238199 -0.161772 0.20404)
(0.229148 -0.158498 0.246443)
(0.21646 -0.153939 0.290772)
(0.217028 -0.190212 0.0295562)
(0.219117 -0.191812 0.053394)
(0.220389 -0.192716 0.0808695)
(0.220527 -0.192635 0.112261)
(0.219072 -0.191397 0.14736)
(0.215233 -0.188073 0.185937)
(0.208368 -0.183781 0.225662)
(0.196732 -0.175014 0.265133)
(0.131808 0.115445 0.00387139)
(0.133905 0.11697 0.0135749)
(0.135927 0.118414 0.0248927)
(0.137831 0.119734 0.0380173)
(0.139266 0.120765 0.0530302)
(0.140051 0.12124 0.069946)
(0.139147 0.121306 0.0881905)
(0.136468 0.119881 0.106894)
(0.149085 0.0996209 0.00534901)
(0.150955 0.100898 0.0157284)
(0.152649 0.102112 0.0278194)
(0.154143 0.103282 0.041842)
(0.154969 0.104227 0.0579614)
(0.155077 0.105039 0.0762988)
(0.153217 0.105521 0.096755)
(0.149813 0.106415 0.119102)
(0.164971 0.0814304 0.00901543)
(0.166381 0.0823159 0.0201486)
(0.167533 0.0831595 0.0330915)
(0.168363 0.0839816 0.0480937)
(0.168443 0.084669 0.0653882)
(0.167645 0.085357 0.0852073)
(0.165059 0.0858935 0.107727)
(0.160678 0.0871864 0.133129)
(0.182043 0.0618856 0.015788)
(0.182643 0.0623179 0.0273376)
(0.182906 0.0627299 0.0407546)
(0.182781 0.0631498 0.0563148)
(0.181879 0.0635258 0.0743072)
(0.18013 0.0639881 0.0950506)
(0.176763 0.0644791 0.118917)
(0.171992 0.0656848 0.146325)
(0.197809 0.0393985 0.0250333)
(0.197274 0.0394304 0.0363738)
(0.196355 0.0394523 0.0496035)
(0.195007 0.0394838 0.065028)
(0.192919 0.0395104 0.0829879)
(0.190034 0.0396176 0.103878)
(0.185779 0.0397823 0.128202)
(0.180344 0.0404369 0.156566)
(0.208388 0.0136787 0.032502)
(0.206912 0.0136372 0.0433524)
(0.205038 0.013596 0.0561067)
(0.202736 0.0135639 0.0710969)
(0.199744 0.0135408 0.0887018)
(0.196028 0.013558 0.109367)
(0.191108 0.0136156 0.133668)
(0.185185 0.0138552 0.162313)
(0.208388 -0.0136787 0.032502)
(0.206912 -0.0136372 0.0433524)
(0.205038 -0.013596 0.0561067)
(0.202736 -0.0135639 0.0710969)
(0.199744 -0.0135408 0.0887018)
(0.196027 -0.0135579 0.109367)
(0.191108 -0.0136153 0.133668)
(0.185185 -0.0138547 0.162313)
(0.197809 -0.0393985 0.0250333)
(0.197274 -0.0394304 0.0363738)
(0.196355 -0.0394523 0.0496035)
(0.195007 -0.0394838 0.065028)
(0.192919 -0.0395104 0.0829879)
(0.190034 -0.0396175 0.103878)
(0.185779 -0.039782 0.128202)
(0.180344 -0.0404364 0.156566)
(0.182043 -0.0618856 0.015788)
(0.182643 -0.0623179 0.0273376)
(0.182906 -0.0627299 0.0407547)
(0.182781 -0.0631498 0.0563148)
(0.181879 -0.0635257 0.0743072)
(0.18013 -0.0639879 0.0950506)
(0.176763 -0.0644788 0.118917)
(0.171992 -0.0656842 0.146325)
(0.164971 -0.0814304 0.00901546)
(0.166381 -0.0823159 0.0201486)
(0.167533 -0.0831595 0.0330915)
(0.168363 -0.0839816 0.0480937)
(0.168443 -0.0846689 0.0653882)
(0.167645 -0.0853568 0.0852072)
(0.165059 -0.0858932 0.107727)
(0.160678 -0.0871858 0.133129)
(0.149085 -0.0996209 0.00534901)
(0.150955 -0.100898 0.0157284)
(0.152649 -0.102112 0.0278194)
(0.154143 -0.103282 0.0418419)
(0.154969 -0.104227 0.0579613)
(0.155077 -0.105039 0.0762987)
(0.153217 -0.10552 0.0967547)
(0.149813 -0.106414 0.119101)
(0.131808 -0.115444 0.00387141)
(0.133905 -0.11697 0.0135749)
(0.135927 -0.118414 0.0248927)
(0.137831 -0.119734 0.0380173)
(0.139265 -0.120765 0.0530302)
(0.14005 -0.121239 0.0699459)
(0.139147 -0.121306 0.0881902)
(0.136468 -0.11988 0.106893)
(0.0646955 0.0566501 -0.00543665)
(0.0658062 0.0574415 -0.000873074)
(0.0669399 0.0582405 0.00450375)
(0.068089 0.0590381 0.0108165)
(0.0690833 0.0597561 0.0181603)
(0.0699312 0.0603425 0.0265868)
(0.069971 0.0607615 0.0359667)
(0.0695298 0.060732 0.0458365)
(0.073406 0.0490572 -0.00908262)
(0.0744129 0.0497586 -0.00416381)
(0.0753956 0.050473 0.00166202)
(0.0763506 0.0512199 0.00855148)
(0.0770617 0.0519144 0.0166647)
(0.0775705 0.0526676 0.026146)
(0.0771887 0.053284 0.037132)
(0.0762925 0.0544 0.0495812)
(0.0813284 0.0401587 -0.0146735)
(0.0821381 0.0406848 -0.00915295)
(0.0828859 0.041229 -0.0025947)
(0.0835436 0.0418055 0.00519225)
(0.0839233 0.0423662 0.0144199)
(0.0840071 0.0430155 0.0253148)
(0.0833136 0.0436196 0.038152)
(0.0819417 0.0447827 0.0531607)
(0.0899968 0.0306127 -0.0230083)
(0.0904497 0.0309204 -0.0165363)
(0.0908035 0.0312488 -0.00888452)
(0.0910323 0.0316143 0.000157337)
(0.090973 0.0319984 0.0108282)
(0.0906206 0.0324845 0.0233955)
(0.0895861 0.0330125 0.0382043)
(0.088037 0.0339973 0.0556092)
(0.0979348 0.0195185 -0.0333174)
(0.0978752 0.0196031 -0.0255519)
(0.0976947 0.0197016 -0.0165012)
(0.0973677 0.0198245 -0.00595945)
(0.0967698 0.019969 0.00630916)
(0.0958935 0.0201854 0.0205772)
(0.0944605 0.0204465 0.0372055)
(0.0925936 0.0209973 0.0566145)
(0.103275 0.0067841 -0.0412162)
(0.102783 0.00679058 -0.0323641)
(0.102161 0.0068038 -0.0221821)
(0.101392 0.00682838 -0.0104796)
(0.100374 0.00686586 0.00296521)
(0.0991065 0.00693371 0.0184155)
(0.0973627 0.00702749 0.0362305)
(0.0952538 0.00722503 0.0568562)
(0.103275 -0.00678409 -0.0412161)
(0.102783 -0.00679056 -0.032364)
(0.102161 -0.00680377 -0.0221821)
(0.101392 -0.00682836 -0.0104795)
(0.100374 -0.00686587 0.00296528)
(0.0991066 -0.00693376 0.0184156)
(0.0973627 -0.00702763 0.0362306)
(0.0952538 -0.00722531 0.0568564)
(0.0979348 -0.0195185 -0.0333173)
(0.0978753 -0.0196031 -0.0255518)
(0.0976948 -0.0197016 -0.0165011)
(0.0973678 -0.0198245 -0.0059593)
(0.0967699 -0.0199691 0.00630936)
(0.0958936 -0.0201854 0.0205774)
(0.0944605 -0.0204467 0.0372058)
(0.0925936 -0.0209976 0.0566149)
(0.0899969 -0.0306127 -0.0230082)
(0.0904498 -0.0309204 -0.0165362)
(0.0908036 -0.0312489 -0.00888437)
(0.0910325 -0.0316143 0.000157542)
(0.0909731 -0.0319984 0.0108285)
(0.0906207 -0.0324846 0.0233959)
(0.0895862 -0.0330127 0.0382048)
(0.0880371 -0.0339976 0.0556098)
(0.0813285 -0.0401588 -0.0146734)
(0.0821382 -0.0406848 -0.00915282)
(0.0828861 -0.041229 -0.00259451)
(0.0835438 -0.0418056 0.00519251)
(0.0839235 -0.0423663 0.0144202)
(0.0840072 -0.0430157 0.0253153)
(0.0833137 -0.0436197 0.0381526)
(0.0819418 -0.044783 0.0531616)
(0.0734061 -0.0490572 -0.00908252)
(0.074413 -0.0497586 -0.00416367)
(0.0753957 -0.0504731 0.00166223)
(0.0763506 -0.0512199 0.00855178)
(0.0770618 -0.0519145 0.0166651)
(0.0775706 -0.0526677 0.0261466)
(0.0771887 -0.0532841 0.0371329)
(0.0762925 -0.0544003 0.0495824)
(0.0646957 -0.0566503 -0.00543662)
(0.0658064 -0.0574417 -0.000873016)
(0.0669402 -0.0582407 0.00450385)
(0.0680892 -0.0590382 0.0108167)
(0.0690835 -0.0597563 0.0181606)
(0.0699314 -0.0603427 0.0265873)
(0.0699711 -0.0607617 0.0359674)
(0.06953 -0.0607324 0.0458377)
(0.0345803 0.0302786 -0.0109698)
(0.0351912 0.0307132 -0.00947345)
(0.0358226 0.0311579 -0.00765776)
(0.0364785 0.0316156 -0.00545515)
(0.0370689 0.0320433 -0.00279398)
(0.0376124 0.0324321 0.000388843)
(0.0377472 0.0327419 0.00413254)
(0.0376738 0.0328927 0.00833614)
(0.0391654 0.026175 -0.0175972)
(0.0397237 0.026565 -0.0159193)
(0.0402791 0.0269684 -0.0138355)
(0.0408369 0.027401 -0.0112456)
(0.0412862 0.027819 -0.00802906)
(0.0416567 0.028292 -0.00405747)
(0.0415855 0.0287078 0.000841355)
(0.0412801 0.0294469 0.00675835)
(0.0433109 0.0213887 -0.0285552)
(0.0437725 0.021689 -0.0263535)
(0.0442135 0.0220055 -0.0236053)
(0.0446263 0.0223498 -0.0201785)
(0.0449161 0.0226983 -0.0159154)
(0.0450807 0.0231122 -0.0106397)
(0.0448685 0.0235184 -0.00412375)
(0.0443424 0.0242581 0.00383713)
(0.0478049 0.0162638 -0.0456057)
(0.0480922 0.0164491 -0.0421358)
(0.0483417 0.0166509 -0.0379399)
(0.048547 0.0168807 -0.032876)
(0.0486274 0.0171304 -0.0267815)
(0.0485854 0.0174468 -0.0194782)
(0.0482216 0.0177978 -0.0107426)
(0.0476279 0.0184122 -0.000355076)
(0.051883 0.0103427 -0.0671296)
(0.051919 0.0104059 -0.0614951)
(0.0519075 0.0104801 -0.0549915)
(0.0518428 0.0105727 -0.047505)
(0.051664 0.0106831 -0.0389111)
(0.0513714 0.0108389 -0.0290749)
(0.0508241 0.0110262 -0.0178233)
(0.0500869 0.0113771 -0.00496511)
(0.0546106 0.00358822 -0.0838115)
(0.0544335 0.0035989 -0.0761833)
(0.0542055 0.00361446 -0.0676311)
(0.0539245 0.00363785 -0.0580818)
(0.0535422 0.00367014 -0.0474568)
(0.0530605 0.00372086 -0.0356681)
(0.0523666 0.00378779 -0.0225875)
(0.0515163 0.00391257 -0.00805176)
(0.0546106 -0.00358822 -0.0838115)
(0.0544334 -0.00359892 -0.0761833)
(0.0542055 -0.00361447 -0.0676311)
(0.0539244 -0.00363786 -0.0580818)
(0.0535422 -0.00367013 -0.0474568)
(0.0530605 -0.00372081 -0.0356681)
(0.0523666 -0.00378767 -0.0225876)
(0.0515163 -0.00391233 -0.0080518)
(0.051883 -0.0103427 -0.0671297)
(0.051919 -0.0104059 -0.0614951)
(0.0519075 -0.0104802 -0.0549915)
(0.0518428 -0.0105727 -0.047505)
(0.051664 -0.0106831 -0.0389111)
(0.0513714 -0.0108388 -0.029075)
(0.0508241 -0.0110261 -0.0178234)
(0.0500869 -0.0113768 -0.00496522)
(0.0478049 -0.0162638 -0.0456057)
(0.0480922 -0.0164491 -0.0421358)
(0.0483417 -0.016651 -0.0379399)
(0.048547 -0.0168807 -0.032876)
(0.0486274 -0.0171303 -0.0267815)
(0.0485854 -0.0174467 -0.0194783)
(0.0482216 -0.0177977 -0.0107428)
(0.0476279 -0.018412 -0.000355271)
(0.043311 -0.0213888 -0.0285552)
(0.0437726 -0.0216891 -0.0263536)
(0.0442136 -0.0220056 -0.0236053)
(0.0446263 -0.0223498 -0.0201786)
(0.0449161 -0.0226982 -0.0159155)
(0.0450808 -0.0231122 -0.0106399)
(0.0448685 -0.0235183 -0.00412395)
(0.0443424 -0.0242579 0.00383685)
(0.0391654 -0.0261751 -0.0175973)
(0.0397237 -0.026565 -0.0159193)
(0.0402792 -0.0269684 -0.0138355)
(0.0408369 -0.027401 -0.0112457)
(0.0412862 -0.027819 -0.0080292)
(0.0416568 -0.0282919 -0.00405767)
(0.0415856 -0.0287076 0.000841063)
(0.0412802 -0.0294466 0.00675793)
(0.0345803 -0.0302785 -0.0109698)
(0.0351912 -0.0307132 -0.00947346)
(0.0358225 -0.0311579 -0.00765778)
(0.0364784 -0.0316156 -0.00545521)
(0.0370689 -0.0320432 -0.00279407)
(0.0376123 -0.0324321 0.00038868)
(0.0377472 -0.0327418 0.00413227)
(0.0376737 -0.0328925 0.00833569)
(0.0156989 0.0137439 -0.0134108)
(0.0159795 0.0139397 -0.0132629)
(0.0162715 0.014141 -0.0130114)
(0.0165768 0.0143493 -0.0126119)
(0.0168545 0.0145448 -0.0120065)
(0.0171172 0.0147267 -0.011125)
(0.0171931 0.0148721 -0.00987368)
(0.0171931 0.0149532 -0.00816945)
(0.0177968 0.0118932 -0.0214196)
(0.0180532 0.0120705 -0.0211895)
(0.0183104 0.0122549 -0.0207743)
(0.0185707 0.0124536 -0.0200973)
(0.0187839 0.0126468 -0.0190576)
(0.0189674 0.0128688 -0.0175326)
(0.0189512 0.0130635 -0.0153508)
(0.0188417 0.0134169 -0.0123494)
(0.0196857 0.0097215 -0.0348959)
(0.0198987 0.00985926 -0.0341994)
(0.0201044 0.0100054 -0.0331733)
(0.020299 0.0101649 -0.0317098)
(0.0204401 0.0103271 -0.0296766)
(0.0205293 0.0105217 -0.026919)
(0.0204501 0.0107118 -0.0232423)
(0.0202378 0.0110606 -0.0184501)
(0.0217433 0.00739767 -0.0560846)
(0.021878 0.0074841 -0.0539917)
(0.0219976 0.00757891 -0.0513729)
(0.0220987 0.00768714 -0.0481147)
(0.0221456 0.00780527 -0.0440889)
(0.0221414 0.00795546 -0.0391572)
(0.0219947 0.00812118 -0.0331589)
(0.0217523 0.00841021 -0.0259378)
(0.0236073 0.0047063 -0.0829665)
(0.023629 0.00473674 -0.0783102)
(0.0236313 0.00477276 -0.0729674)
(0.0236107 0.0048175 -0.0668634)
(0.023541 0.00487086 -0.0599239)
(0.0234236 0.00494566 -0.0520767)
(0.0231947 0.00503462 -0.04324)
(0.0228867 0.0051992 -0.0333327)
(0.0248555 0.00163329 -0.103862)
(0.0247811 0.00163889 -0.096787)
(0.0246857 0.00164689 -0.0889657)
(0.0245674 0.00165862 -0.0803764)
(0.0244059 0.00167461 -0.0710053)
(0.0242028 0.00169924 -0.0608449)
(0.0239077 0.00173122 -0.0498776)
(0.0235478 0.00178983 -0.0380764)
(0.0248555 -0.00163329 -0.103862)
(0.0247811 -0.00163888 -0.096787)
(0.0246857 -0.00164689 -0.0889657)
(0.0245674 -0.00165863 -0.0803763)
(0.0244059 -0.00167462 -0.0710053)
(0.0242028 -0.00169927 -0.0608448)
(0.0239077 -0.00173129 -0.0498776)
(0.0235478 -0.00178994 -0.0380763)
(0.0236073 -0.0047063 -0.0829664)
(0.023629 -0.00473674 -0.0783102)
(0.0236313 -0.00477276 -0.0729673)
(0.0236107 -0.00481751 -0.0668633)
(0.0235411 -0.00487088 -0.0599238)
(0.0234236 -0.0049457 -0.0520766)
(0.0231947 -0.00503469 -0.0432399)
(0.0228867 -0.00519931 -0.0333326)
(0.0217433 -0.00739767 -0.0560846)
(0.021878 -0.0074841 -0.0539916)
(0.0219976 -0.00757891 -0.0513729)
(0.0220987 -0.00768715 -0.0481147)
(0.0221456 -0.00780529 -0.0440888)
(0.0221414 -0.0079555 -0.0391571)
(0.0219947 -0.00812126 -0.0331587)
(0.0217523 -0.00841033 -0.0259376)
(0.0196858 -0.00972151 -0.0348958)
(0.0198987 -0.00985927 -0.0341994)
(0.0201044 -0.0100054 -0.0331732)
(0.020299 -0.0101649 -0.0317097)
(0.0204401 -0.0103272 -0.0296765)
(0.0205293 -0.0105218 -0.0269189)
(0.0204501 -0.0107119 -0.023242)
(0.0202378 -0.0110607 -0.0184498)
(0.0177968 -0.0118932 -0.0214196)
(0.0180532 -0.0120704 -0.0211894)
(0.0183104 -0.0122549 -0.0207742)
(0.0185706 -0.0124536 -0.0200972)
(0.0187839 -0.0126468 -0.0190574)
(0.0189674 -0.0128688 -0.0175324)
(0.0189512 -0.0130635 -0.0153505)
(0.0188417 -0.013417 -0.012349)
(0.0156989 -0.013744 -0.0134108)
(0.0159796 -0.0139397 -0.0132629)
(0.0162715 -0.014141 -0.0130114)
(0.0165768 -0.0143493 -0.0126119)
(0.0168545 -0.0145449 -0.0120064)
(0.0171172 -0.0147268 -0.0111248)
(0.0171931 -0.0148722 -0.0098734)
(0.0171931 -0.0149533 -0.00816901)
(0.00722708 0.00632702 -0.0147157)
(0.00735697 0.00641757 -0.0152902)
(0.00749236 0.00651088 -0.0158773)
(0.00763428 0.00660774 -0.0164453)
(0.00776427 0.00669917 -0.0169448)
(0.00788796 0.00678527 -0.0173021)
(0.0079274 0.00685492 -0.0173982)
(0.00793243 0.00689865 -0.017045)
(0.0081901 0.00547322 -0.0234469)
(0.00830886 0.00555527 -0.0239875)
(0.00842835 0.00564085 -0.0244618)
(0.00854968 0.00573329 -0.0248066)
(0.00865039 0.00582372 -0.024933)
(0.008738 0.00592795 -0.0247231)
(0.00873559 0.00602053 -0.0240094)
(0.00869141 0.00618771 -0.0225908)
(0.00905781 0.00447308 -0.0382316)
(0.00915681 0.004537 -0.0383317)
(0.00925292 0.00460497 -0.0382193)
(0.00934451 0.00467939 -0.0378012)
(0.00941261 0.00475563 -0.0369604)
(0.00945774 0.00484709 -0.0355565)
(0.00942711 0.00493741 -0.0334165)
(0.0093371 0.00510136 -0.030352)
(0.00999919 0.00340202 -0.0615578)
(0.0100627 0.00344232 -0.0601912)
(0.0101198 0.00348665 -0.0584082)
(0.0101692 0.00353738 -0.0561118)
(0.0101948 0.00359304 -0.0531947)
(0.010198 0.0036637 -0.0495431)
(0.0101374 0.00374215 -0.0450342)
(0.0100343 0.00387759 -0.039551)
(0.0108505 0.00216316 -0.0911942)
(0.0108627 0.00217768 -0.0870561)
(0.0108667 0.00219489 -0.0823323)
(0.0108611 0.00221627 -0.0769711)
(0.0108342 0.00224185 -0.0709273)
(0.0107863 0.00227746 -0.0641655)
(0.010689 0.00231999 -0.0566569)
(0.0105567 0.00239737 -0.0483849)
(0.011419 0.00075036 -0.11425)
(0.0113877 0.00075313 -0.107473)
(0.0113475 0.000757049 -0.100049)
(0.0112977 0.000762729 -0.0919854)
(0.0112293 0.000770437 -0.0833048)
(0.0111429 0.000782166 -0.0740461)
(0.0110159 0.000797395 -0.0642548)
(0.0108605 0.000824886 -0.0539824)
(0.011419 -0.000750361 -0.11425)
(0.0113877 -0.000753133 -0.107473)
(0.0113475 -0.00075705 -0.100049)
(0.0112977 -0.000762727 -0.0919854)
(0.0112293 -0.00077043 -0.0833048)
(0.0111429 -0.000782148 -0.0740461)
(0.0110159 -0.000797362 -0.0642548)
(0.0108605 -0.000824825 -0.0539824)
(0.0108505 -0.00216316 -0.0911942)
(0.0108627 -0.00217768 -0.0870561)
(0.0108667 -0.00219489 -0.0823323)
(0.0108611 -0.00221627 -0.0769711)
(0.0108342 -0.00224185 -0.0709273)
(0.0107864 -0.00227744 -0.0641655)
(0.010689 -0.00231996 -0.0566569)
(0.0105567 -0.00239732 -0.0483849)
(0.00999921 -0.00340203 -0.0615578)
(0.0100627 -0.00344233 -0.0601913)
(0.0101198 -0.00348666 -0.0584082)
(0.0101692 -0.00353738 -0.0561118)
(0.0101948 -0.00359304 -0.0531948)
(0.010198 -0.00366369 -0.0495431)
(0.0101374 -0.00374212 -0.0450342)
(0.0100343 -0.00387754 -0.0395511)
(0.00905784 -0.00447309 -0.0382317)
(0.00915684 -0.00453701 -0.0383317)
(0.00925294 -0.00460498 -0.0382193)
(0.00934454 -0.0046794 -0.0378012)
(0.00941263 -0.00475563 -0.0369604)
(0.00945776 -0.00484708 -0.0355565)
(0.00942714 -0.00493738 -0.0334166)
(0.00933712 -0.00510131 -0.0303521)
(0.00819013 -0.00547324 -0.023447)
(0.00830889 -0.00555529 -0.0239875)
(0.00842838 -0.00564087 -0.0244619)
(0.00854972 -0.0057333 -0.0248066)
(0.00865042 -0.00582373 -0.0249331)
(0.00873803 -0.00592794 -0.0247232)
(0.00873563 -0.00602051 -0.0240095)
(0.00869145 -0.00618765 -0.0225909)
(0.00722708 -0.00632703 -0.0147157)
(0.00735697 -0.00641758 -0.0152902)
(0.00749236 -0.00651088 -0.0158773)
(0.00763428 -0.00660774 -0.0164453)
(0.00776428 -0.00669917 -0.0169448)
(0.00788797 -0.00678527 -0.0173022)
(0.00792742 -0.00685492 -0.0173982)
(0.00793243 -0.00689862 -0.0170451)
(0.00295106 0.00258329 -0.015278)
(0.0030043 0.00261989 -0.0161631)
(0.00305983 0.00265755 -0.0171104)
(0.00311809 0.00269661 -0.0180936)
(0.00317149 0.00273333 -0.019067)
(0.00322249 0.00276786 -0.0199549)
(0.00323883 0.00279542 -0.0206281)
(0.0032419 0.00281229 -0.0208525)
(0.00334575 0.0022357 -0.0243262)
(0.00339442 0.00226892 -0.0251999)
(0.0034434 0.00230353 -0.0260581)
(0.0034932 0.0023409 -0.0268433)
(0.00353457 0.00237735 -0.0274716)
(0.0035708 0.00241947 -0.0278265)
(0.00357003 0.00245652 -0.0277429)
(0.00355293 0.00252445 -0.0270017)
(0.0037009 0.00182751 -0.0396879)
(0.00374148 0.00185341 -0.0401338)
(0.00378088 0.00188092 -0.0404174)
(0.00381845 0.001911 -0.0404513)
(0.00384642 0.00194174 -0.0401249)
(0.00386512 0.00197866 -0.0393033)
(0.00385275 0.00201486 -0.0378229)
(0.00381652 0.00208134 -0.0354979)
(0.00408692 0.00139042 -0.0639614)
(0.00411298 0.00140677 -0.0629111)
(0.00413641 0.00142473 -0.0614909)
(0.00415668 0.00144527 -0.0596108)
(0.00416724 0.00146777 -0.0571719)
(0.00416869 0.00149638 -0.0540704)
(0.00414406 0.001528 -0.0501997)
(0.00410242 0.00158297 -0.0454591)
(0.00443607 0.000884337 -0.0948228)
(0.00444118 0.000890196 -0.0909096)
(0.00444287 0.000897131 -0.0864532)
(0.00444062 0.000905747 -0.0814117)
(0.00442962 0.000916042 -0.0757519)
(0.00441014 0.000930397 -0.0694539)
(0.00437042 0.000947478 -0.0625113)
(0.00431668 0.000978767 -0.054935)
(0.00466938 0.00030682 -0.118841)
(0.00465666 0.000307929 -0.112192)
(0.00464025 0.0003095 -0.104937)
(0.00461991 0.000311782 -0.0970967)
(0.00459191 0.000314881 -0.0887091)
(0.00455661 0.00031961 -0.0798324)
(0.0045047 0.000325737 -0.0705391)
(0.00444137 0.000336856 -0.0609143)
(0.00466938 -0.00030682 -0.118841)
(0.00465666 -0.000307929 -0.112192)
(0.00464025 -0.000309501 -0.104937)
(0.00461991 -0.000311785 -0.0970967)
(0.00459191 -0.000314886 -0.0887091)
(0.00455661 -0.00031962 -0.0798324)
(0.0045047 -0.000325752 -0.0705391)
(0.00444137 -0.00033688 -0.0609143)
(0.00443607 -0.000884337 -0.0948228)
(0.00444118 -0.000890196 -0.0909096)
(0.00444288 -0.000897133 -0.0864532)
(0.00444062 -0.00090575 -0.0814117)
(0.00442962 -0.000916048 -0.0757519)
(0.00441014 -0.000930406 -0.0694538)
(0.00437042 -0.000947494 -0.0625113)
(0.00431668 -0.000978791 -0.0549349)
(0.00408692 -0.00139042 -0.0639614)
(0.00411298 -0.00140677 -0.0629111)
(0.00413641 -0.00142473 -0.0614909)
(0.00415668 -0.00144527 -0.0596108)
(0.00416724 -0.00146778 -0.0571718)
(0.00416869 -0.00149638 -0.0540703)
(0.00414406 -0.00152801 -0.0501997)
(0.00410242 -0.00158299 -0.045459)
(0.0037009 -0.00182751 -0.0396879)
(0.00374148 -0.00185341 -0.0401338)
(0.00378088 -0.00188092 -0.0404174)
(0.00381845 -0.001911 -0.0404513)
(0.00384641 -0.00194174 -0.0401248)
(0.00386511 -0.00197867 -0.0393032)
(0.00385274 -0.00201487 -0.0378229)
(0.00381651 -0.00208136 -0.0354979)
(0.00334574 -0.00223569 -0.0243262)
(0.00339441 -0.00226891 -0.0251999)
(0.0034434 -0.00230353 -0.0260581)
(0.00349319 -0.0023409 -0.0268433)
(0.00353457 -0.00237735 -0.0274715)
(0.00357079 -0.00241946 -0.0278264)
(0.00357003 -0.00245652 -0.0277428)
(0.00355292 -0.00252446 -0.0270016)
(0.00295106 -0.00258329 -0.015278)
(0.0030043 -0.00261989 -0.0161631)
(0.00305983 -0.00265755 -0.0171104)
(0.00311809 -0.00269661 -0.0180936)
(0.00317149 -0.00273333 -0.0190669)
(0.00322248 -0.00276786 -0.0199549)
(0.00323882 -0.00279543 -0.020628)
(0.0032419 -0.0028123 -0.0208524)
(0.00112511 0.000984892 -0.0155279)
(0.00114544 0.000998874 -0.0165511)
(0.00116666 0.00101327 -0.0176587)
(0.00118892 0.00102821 -0.0188268)
(0.00120938 0.00104227 -0.0200112)
(0.00122889 0.00105553 -0.0211356)
(0.00123534 0.00106614 -0.022066)
(0.00123663 0.0010729 -0.0225479)
(0.00127556 0.000852351 -0.0247154)
(0.00129414 0.000865036 -0.0257368)
(0.00131287 0.000878268 -0.0267656)
(0.0013319 0.000892548 -0.0277464)
(0.00134779 0.000906518 -0.0285978)
(0.00136169 0.000922638 -0.0292041)
(0.00136161 0.0009369 -0.0294012)
(0.00135533 0.000962956 -0.0289623)
(0.00141118 0.000696844 -0.0403298)
(0.00142669 0.00070673 -0.0409288)
(0.00144176 0.000717241 -0.0413878)
(0.00145616 0.000728739 -0.0416222)
(0.00146694 0.000740516 -0.0415242)
(0.0014742 0.000754645 -0.0409617)
(0.0014697 0.000768559 -0.0397754)
(0.00145618 0.000793991 -0.0377807)
(0.00155825 0.000530132 -0.065017)
(0.00156823 0.000536369 -0.0641065)
(0.00157724 0.00054323 -0.0628469)
(0.00158506 0.000551077 -0.0611515)
(0.00158923 0.000559692 -0.0589252)
(0.00158994 0.000570624 -0.0560689)
(0.0015808 0.000582752 -0.0524833)
(0.00156521 0.000603754 -0.048075)
(0.00169126 0.000337154 -0.0964119)
(0.00169327 0.000339398 -0.0925984)
(0.00169402 0.000342058 -0.0882611)
(0.00169328 0.000345362 -0.0833621)
(0.00168926 0.000349319 -0.0778739)
(0.00168204 0.00035482 -0.0717834)
(0.00166716 0.000361391 -0.0650948)
(0.00164697 0.000373358 -0.057831)
(0.00177998 0.000116959 -0.120849)
(0.00177522 0.000117383 -0.114257)
(0.00176909 0.000117985 -0.107079)
(0.00176149 0.000118859 -0.0993386)
(0.00175102 0.000120046 -0.0910829)
(0.0017378 0.000121854 -0.0823783)
(0.0017183 0.000124202 -0.0733096)
(0.00169447 0.000128447 -0.0639768)
(0.00177999 -0.000116959 -0.120849)
(0.00177522 -0.000117383 -0.114257)
(0.00176909 -0.000117985 -0.107079)
(0.00176149 -0.000118858 -0.0993386)
(0.00175102 -0.000120045 -0.0910829)
(0.0017378 -0.000121851 -0.0823783)
(0.0017183 -0.000124197 -0.0733096)
(0.00169447 -0.000128438 -0.0639768)
(0.00169126 -0.000337155 -0.0964119)
(0.00169328 -0.000339398 -0.0925984)
(0.00169402 -0.000342058 -0.0882611)
(0.00169328 -0.000345362 -0.0833621)
(0.00168927 -0.000349318 -0.0778739)
(0.00168204 -0.000354818 -0.0717834)
(0.00166716 -0.000361387 -0.0650948)
(0.00164697 -0.000373349 -0.0578311)
(0.00155826 -0.000530134 -0.065017)
(0.00156823 -0.00053637 -0.0641065)
(0.00157724 -0.000543231 -0.0628469)
(0.00158506 -0.000551078 -0.0611515)
(0.00158924 -0.000559692 -0.0589252)
(0.00158995 -0.000570623 -0.0560689)
(0.00158081 -0.000582748 -0.0524833)
(0.00156521 -0.000603746 -0.0480751)
(0.00141119 -0.000696847 -0.0403298)
(0.00142669 -0.000706733 -0.0409288)
(0.00144177 -0.000717244 -0.0413878)
(0.00145616 -0.000728741 -0.0416222)
(0.00146694 -0.000740517 -0.0415242)
(0.0014742 -0.000754644 -0.0409617)
(0.0014697 -0.000768557 -0.0397754)
(0.00145618 -0.000793985 -0.0377807)
(0.00127556 -0.000852355 -0.0247154)
(0.00129414 -0.00086504 -0.0257368)
(0.00131287 -0.000878271 -0.0267656)
(0.00133191 -0.000892551 -0.0277464)
(0.00134779 -0.00090652 -0.0285978)
(0.0013617 -0.000922638 -0.0292041)
(0.00136162 -0.000936898 -0.0294012)
(0.00135534 -0.000962949 -0.0289623)
(0.00112511 -0.000984894 -0.0155279)
(0.00114544 -0.000998876 -0.0165511)
(0.00116667 -0.00101327 -0.0176587)
(0.00118893 -0.00102821 -0.0188269)
(0.00120939 -0.00104228 -0.0200112)
(0.0012289 -0.00105553 -0.0211356)
(0.00123535 -0.00106614 -0.022066)
(0.00123663 -0.00107289 -0.022548)
(0.000236468 0.000206948 -0.0156151)
(0.000240788 0.000209819 -0.0166866)
(0.000245313 0.000212776 -0.0178501)
(0.000250058 0.000215826 -0.0190826)
(0.000254441 0.000218682 -0.0203405)
(0.00025864 0.000221357 -0.0215471)
(0.000260072 0.000223433 -0.0225671)
(0.000260548 0.000224705 -0.0231385)
(0.000268505 0.000179387 -0.0248515)
(0.000272443 0.000182002 -0.0259245)
(0.00027643 0.000184732 -0.0270127)
(0.000280475 0.000187665 -0.0280617)
(0.000283875 0.000190527 -0.0289909)
(0.00028687 0.000193833 -0.0296847)
(0.000286906 0.000196706 -0.0299794)
(0.000285757 0.000202122 -0.0296455)
(0.00029743 0.000146847 -0.0405546)
(0.000300708 0.000148882 -0.041207)