/*--------------------------------*- C++ -*----------------------------------*\
| =========                 |                                                 |
| \\      /  F ield         | foam-extend: Open Source CFD                    |
|  \\    /   O peration     | Version:  3.0                                   |
|   \\  /    A nd           | Web:         http://www.extend-project.de       |
|    \\/     M anipulation  |                                                 |
\*---------------------------------------------------------------------------*/
FoamFile
{
    version     2.0;
    format      ascii;
    class       volVectorField;
    location    "2.2";
    object      u;
}
// * * * * * * * * * * * * * * * * * * * * * * * * * * * * * * * * * * * * * //

dimensions      [0 0 0 0 0 0 0];

internalField   nonuniform List<vector> 
400
(
(0.0111184 0.014432 4.87873e-316)
(-0.0954836 0.0815589 4.40623e-316)
(-0.115494 0.080378 3.54749e-316)
(-0.209436 0.112634 3.37041e-316)
(-0.251261 0.100723 2.42737e-316)
(-0.323997 0.0996289 2.45677e-316)
(-0.363601 0.0812635 1.57771e-316)
(-0.410565 0.063534 1.73833e-316)
(-0.43399 0.0416609 9.57517e-317)
(-0.451975 0.017541 1.21663e-316)
(-0.452938 -0.00574743 5.18623e-317)
(-0.44008 -0.0308496 8.47043e-317)
(-0.417769 -0.0543048 2.03144e-317)
(-0.373508 -0.0743988 5.69045e-317)
(-0.333183 -0.0949819 -4.69125e-318)
(-0.259398 -0.0980884 3.16227e-317)
(-0.215677 -0.111031 -2.66044e-317)
(-0.117724 -0.0779945 6.64024e-320)
(-0.0974529 -0.0779575 -4.26231e-317)
(0.0133534 -0.00652001 -4.36371e-317)
(-0.0312623 0.133598 1.63617e-316)
(-0.0906159 0.140381 2.02716e-316)
(-0.132795 0.122074 1.95585e-316)
(-0.187369 0.125063 1.99319e-316)
(-0.216688 0.103137 1.73569e-316)
(-0.258676 0.0964017 1.6521e-316)
(-0.279418 0.0733693 1.33303e-316)
(-0.305961 0.0581656 1.23208e-316)
(-0.317136 0.0334462 9.21538e-317)
(-0.327132 0.0132802 8.46997e-317)
(-0.327 -0.013008 5.7063e-317)
(-0.319712 -0.0335873 5.32078e-317)
(-0.308148 -0.0606377 2.88885e-317)
(-0.283287 -0.0766343 2.77577e-317)
(-0.262006 -0.103441 5.52291e-318)
(-0.219856 -0.110207 5.05743e-318)
(-0.190329 -0.135688 -1.65517e-317)
(-0.133532 -0.130794 -2.18876e-317)
(-0.092235 -0.150396 -4.41065e-317)
(-0.0301674 -0.140099 -7.24764e-317)
(-0.0134453 0.211592 2.445e-316)
(-0.0897078 0.245883 2.27498e-316)
(-0.134313 0.237478 2.00498e-316)
(-0.200611 0.247285 1.82508e-316)
(-0.244094 0.217011 1.52032e-316)
(-0.292396 0.199186 1.38469e-316)
(-0.324738 0.15884 1.09754e-316)
(-0.354462 0.121989 9.99166e-317)
(-0.371731 0.0769731 7.42161e-317)
(-0.384 0.0305417 6.73895e-317)
(-0.384754 -0.0168006 4.41658e-317)
(-0.37945 -0.0643724 3.91468e-317)
(-0.362987 -0.112432 1.67989e-317)
(-0.337869 -0.151787 1.13338e-317)
(-0.30466 -0.196985 -1.28979e-317)
(-0.256461 -0.216179 -2.31301e-317)
(-0.210929 -0.250432 -5.30209e-317)
(-0.139366 -0.23807 -7.70132e-317)
(-0.0944406 -0.245862 -1.15582e-316)
(-0.0104445 -0.205393 -1.67529e-316)
(-0.0237319 0.294017 3.01495e-317)
(-0.0955811 0.328052 7.61319e-317)
(-0.145168 0.296695 9.10008e-317)
(-0.193276 0.296943 1.01935e-316)
(-0.232102 0.249669 9.86194e-317)
(-0.260306 0.223139 9.39515e-317)
(-0.285402 0.173752 8.24594e-317)
(-0.300585 0.131331 7.28289e-317)
(-0.31309 0.0820022 5.9222e-317)
(-0.31978 0.0316797 4.90539e-317)
(-0.320583 -0.0192839 3.58509e-317)
(-0.319916 -0.0710911 2.65277e-317)
(-0.30829 -0.126091 1.43786e-317)
(-0.297672 -0.171836 6.28899e-318)
(-0.271606 -0.231345 -4.30007e-318)
(-0.244403 -0.259668 -9.89889e-318)
(-0.20309 -0.317955 -1.68976e-317)
(-0.150116 -0.313215 -1.53299e-317)
(-0.100327 -0.348999 -1.36979e-317)
(-0.0188028 -0.302338 5.61224e-318)
(-0.0328652 0.383351 1.91208e-316)
(-0.111134 0.421076 1.60324e-316)
(-0.179066 0.379826 1.3967e-316)
(-0.227908 0.373188 1.19462e-316)
(-0.28191 0.315883 1.02562e-316)
(-0.308991 0.276126 8.86266e-317)
(-0.344456 0.218956 7.41687e-317)
(-0.359578 0.160858 6.28023e-317)
(-0.377828 0.105797 4.98397e-317)
(-0.386995 0.0388882 3.96611e-317)
(-0.389239 -0.0167537 2.7422e-317)
(-0.393814 -0.0858391 1.74627e-317)
(-0.378518 -0.145996 4.75737e-318)
(-0.374584 -0.209207 -6.68573e-318)
(-0.337873 -0.276202 -2.21017e-317)
(-0.315398 -0.31942 -3.86863e-317)
(-0.255388 -0.388776 -6.074e-317)
(-0.199272 -0.38957 -9.0275e-317)
(-0.126067 -0.43663 -1.24237e-316)
(-0.0279081 -0.37878 -1.77419e-316)
(-0.0485041 0.490815 1.81278e-317)
(-0.113993 0.528864 5.07135e-317)
(-0.195298 0.45957 6.2296e-317)
(-0.220714 0.440354 7.0278e-317)
(-0.276125 0.364989 6.90383e-317)
(-0.281394 0.311305 6.49889e-317)
(-0.313668 0.246822 5.76062e-317)
(-0.313884 0.177859 4.94893e-317)
(-0.329625 0.121512 4.01411e-317)
(-0.332732 0.045638 3.11144e-317)
(-0.335611 -0.010453 2.14738e-317)
(-0.344187 -0.0898602 1.24586e-317)
(-0.332428 -0.155173 3.00634e-318)
(-0.343597 -0.233033 -5.54784e-318)
(-0.310032 -0.316116 -1.40393e-317)
(-0.313006 -0.377802 -2.02912e-317)
(-0.249046 -0.4794 -2.50845e-317)
(-0.221743 -0.492929 -2.25739e-317)
(-0.129587 -0.582545 -1.77485e-317)
(-0.045833 -0.511763 6.01469e-318)
(-0.0822634 0.590583 1.81933e-316)
(-0.131813 0.611069 1.39849e-316)
(-0.246436 0.520048 1.16674e-316)
(-0.252285 0.480427 9.4511e-317)
(-0.322919 0.397978 7.95482e-317)
(-0.314612 0.327084 6.64541e-317)
(-0.353773 0.264039 5.51906e-317)
(-0.347937 0.182098 4.50565e-317)
(-0.367333 0.131461 3.52344e-317)
(-0.371821 0.044793 2.59833e-317)
(-0.377033 -0.00315441 1.65085e-317)
(-0.394642 -0.0942936 7.12877e-318)
(-0.382951 -0.150685 -3.04382e-318)
(-0.411219 -0.244478 -1.39709e-317)
(-0.371103 -0.321764 -2.67671e-317)
(-0.398222 -0.405223 -4.2541e-317)
(-0.312422 -0.512788 -6.17806e-317)
(-0.30969 -0.549127 -9.05194e-317)
(-0.167955 -0.666169 -1.22659e-316)
(-0.0904377 -0.604607 -1.77689e-316)
(-0.12204 0.746465 2.42716e-317)
(-0.120494 0.729255 5.02328e-317)
(-0.259635 0.608805 5.71988e-317)
(-0.224292 0.537558 6.15825e-317)
(-0.296097 0.445385 5.86079e-317)
(-0.260997 0.35265 5.34437e-317)
(-0.295153 0.291169 4.62644e-317)
(-0.273135 0.195912 3.84268e-317)
(-0.288966 0.152033 3.01339e-317)
(-0.285485 0.0559056 2.18134e-317)
(-0.291427 0.0156125 1.33381e-317)
(-0.309816 -0.0872809 4.93361e-318)
(-0.303088 -0.139862 -3.6158e-318)
(-0.344843 -0.254226 -1.19812e-317)
(-0.310072 -0.338741 -2.0126e-317)
(-0.370687 -0.455983 -2.68954e-317)
(-0.279193 -0.592758 -3.21849e-317)
(-0.33656 -0.671616 -3.08435e-317)
(-0.153068 -0.848002 -2.72571e-317)
(-0.149489 -0.818156 -4.06719e-318)
(-0.176179 0.863455 1.77272e-316)
(-0.120208 0.772232 1.30661e-316)
(-0.300238 0.642933 1.06305e-316)
(-0.228455 0.528678 8.36176e-317)
(-0.311225 0.44564 6.90451e-317)
(-0.256946 0.331111 5.64433e-317)
(-0.292528 0.282446 4.60271e-317)
(-0.262528 0.17735 3.65665e-317)
(-0.279159 0.147628 2.77208e-317)
(-0.276223 0.046674 1.92321e-317)
(-0.285492 0.0233309 1.07949e-317)
(-0.313361 -0.0853196 2.26117e-318)
(-0.311812 -0.116038 -6.73491e-318)
(-0.374937 -0.244095 -1.65943e-317)
(-0.341112 -0.301836 -2.78729e-317)
(-0.439727 -0.45025 -4.21403e-317)
(-0.328098 -0.563914 -5.95339e-317)
(-0.44315 -0.70147 -8.69473e-317)
(-0.183211 -0.887591 -1.18039e-316)
(-0.241738 -0.946201 -1.75748e-316)
(-0.212259 1.05776 3.07549e-317)
(-0.0745421 0.865055 5.49476e-317)
(-0.269299 0.72758 5.89081e-317)
(-0.156297 0.555065 6.06466e-317)
(-0.231172 0.480706 5.56988e-317)
(-0.157369 0.337181 4.91562e-317)
(-0.182624 0.301055 4.13579e-317)
(-0.140818 0.183533 3.3294e-317)
(-0.151446 0.168172 2.5206e-317)
(-0.139046 0.0614023 1.72304e-317)
(-0.148526 0.0535113 9.31804e-318)
(-0.168896 -0.0636858 1.44457e-318)
(-0.174242 -0.0795335 -6.51676e-318)
(-0.236766 -0.230128 -1.44751e-317)
(-0.214453 -0.278219 -2.2355e-317)
(-0.333975 -0.477886 -2.93683e-317)
(-0.226395 -0.598571 -3.5274e-317)
(-0.414119 -0.830451 -3.53426e-317)
(-0.111918 -1.06572 -3.362e-317)
(-0.320586 -1.26016 -1.24316e-317)
(-0.239815 1.1514 1.72341e-316)
(-0.0470087 0.837487 1.25015e-316)
(-0.259318 0.730716 1.0102e-316)
(-0.120515 0.49841 7.87739e-317)
(-0.191532 0.453055 6.44391e-317)
(-0.106928 0.287948 5.20383e-317)
(-0.12472 0.270883 4.17897e-317)
(-0.0786034 0.148891 3.25592e-317)
(-0.0861794 0.148744 2.40608e-317)
(-0.0738087 0.0437879 1.60176e-317)
(-0.0873554 0.053323 8.17686e-318)
(-0.113116 -0.0624597 3.75851e-319)
(-0.129989 -0.0517379 -7.69276e-318)
(-0.207313 -0.210014 -1.64008e-317)
(-0.199662 -0.213259 -2.62065e-317)
(-0.351449 -0.447758 -3.86262e-317)
(-0.242507 -0.498234 -5.38152e-317)
(-0.491853 -0.82642 -7.91595e-317)
(-0.12272 -0.996613 -1.08289e-316)
(-0.41804 -1.37944 -1.68632e-316)
(-0.197416 1.32596 3.57733e-317)
(0.0285136 0.886837 6.16638e-317)
(-0.141486 0.799192 6.34808e-317)
(-0.00100732 0.495722 6.30366e-317)
(-0.0429101 0.471775 5.60861e-317)
(0.039335 0.277648 4.80683e-317)
(0.0390322 0.277662 3.94105e-317)
(0.0875342 0.148611 3.09289e-317)
(0.0882432 0.165102 2.28241e-317)
(0.110296 0.0614205 1.50651e-317)
(0.0975626 0.0893787 7.58046e-318)
(0.090237 -0.0272395 2.6014e-319)
(0.0656265 0.0049098 -7.01694e-318)
(0.0149588 -0.170537 -1.42671e-317)
(0.00262279 -0.14994 -2.1444e-317)
(-0.12415 -0.444342 -2.79426e-317)
(-0.0481096 -0.475388 -3.34351e-317)
(-0.313921 -0.946232 -3.37039e-317)
(0.0265029 -1.1386 -3.20824e-317)
(-0.410079 -1.7572 -1.15462e-317)
(-0.152532 1.30983 1.672e-316)
(0.0585517 0.797077 1.22884e-316)
(-0.0668607 0.763369 9.94962e-317)
(0.063148 0.417592 7.76781e-317)
(0.0524077 0.423106 6.30236e-317)
(0.130514 0.21963 5.03516e-317)
(0.14927 0.232888 3.98533e-317)
(0.196775 0.107776 3.05594e-317)
(0.204635 0.132016 2.21831e-317)
(0.227224 0.036459 1.44449e-317)
(0.210297 0.0730327 7.11993e-318)
(0.203791 -0.0348939 -3.96735e-321)
(0.161537 0.0146277 -7.13934e-318)
(0.108995 -0.15716 -1.45781e-317)
(0.0621462 -0.0944069 -2.26435e-317)
(-0.0750934 -0.408937 -3.26564e-317)
(-0.0433078 -0.341534 -4.45494e-317)
(-0.334478 -0.902086 -6.58532e-317)
(-0.00515481 -0.930606 -8.98803e-317)
(-0.458143 -1.72948 -1.47958e-316)
(0.00939013 1.40705 4.32879e-317)
(0.126573 0.817476 7.3413e-317)
(0.133701 0.797544 7.17205e-317)
(0.210634 0.398832 6.79851e-317)
(0.253417 0.41865 5.82582e-317)
(0.308097 0.198911 4.83549e-317)
(0.348211 0.225033 3.86083e-317)
(0.389506 0.103137 2.96399e-317)
(0.405524 0.14104 2.145e-317)
(0.436357 0.0557318 1.39058e-317)
(0.421411 0.108495 6.83867e-318)
(0.440759 0.0106531 1.24386e-319)
(0.393136 0.0813473 -6.37844e-318)
(0.392148 -0.0921799 -1.27002e-317)
(0.321168 -0.00153875 -1.86934e-317)
(0.271794 -0.361609 -2.38593e-317)
(0.232504 -0.265545 -2.75158e-317)
(0.0556012 -0.97974 -2.56036e-317)
(0.208457 -1.03624 -2.03539e-317)
(-0.224093 -2.13153 7.25887e-318)
(0.102824 1.22079 1.70069e-316)
(0.143607 0.708111 1.27674e-316)
(0.253117 0.705331 1.0233e-316)
(0.295762 0.327964 7.89866e-317)
(0.395688 0.351766 6.29471e-317)
(0.438881 0.147818 4.94029e-317)
(0.506053 0.172955 3.84419e-317)
(0.543216 0.0645818 2.90049e-317)
(0.568259 0.0988056 2.07644e-317)
(0.599707 0.0255541 1.33622e-317)
(0.581526 0.0731902 6.54599e-318)
(0.606225 -0.0111745 1.1574e-319)
(0.539373 0.0563204 -6.09153e-318)
(0.546925 -0.0996726 -1.22765e-317)
(0.425155 0.00214905 -1.85274e-317)
(0.383182 -0.340609 -2.58116e-317)
(0.240458 -0.175523 -3.36628e-317)
(0.066871 -0.891117 -4.87596e-317)
(0.0927149 -0.730301 -6.43573e-317)
(-0.295679 -1.76985 -1.1015e-316)
(0.305121 1.22949 7.98748e-317)
(0.177051 0.70774 1.00995e-316)
(0.473435 0.687751 8.83753e-317)
(0.450812 0.295039 7.64222e-317)
(0.606832 0.315655 6.20014e-317)
(0.621729 0.118416 4.92911e-317)
(0.703143 0.149935 3.82153e-317)
(0.730007 0.057197 2.86603e-317)
(0.758727 0.10033 2.03762e-317)
(0.79542 0.0449698 1.30144e-317)
(0.779976 0.103759 6.32579e-318)
(0.830309 0.0398347 1.19762e-319)
(0.765197 0.123997 -5.7209e-318)
(0.833996 -0.0110555 -1.12048e-317)
(0.699152 0.116379 -1.60774e-317)
(0.790596 -0.229613 -1.97195e-317)
(0.565632 -0.036511 -2.10263e-317)
(0.662923 -0.872523 -1.51943e-317)
(0.359826 -0.766918 -3.85487e-318)
(0.323016 -2.2626 4.00517e-317)
(0.489929 0.906603 1.88505e-316)
(0.248597 0.598455 1.30354e-316)
(0.646786 0.524139 1.00942e-316)
(0.596149 0.237512 7.49644e-317)
(0.806459 0.236848 5.84644e-317)
(0.813172 0.0815728 4.50701e-317)
(0.916067 0.100256 3.46102e-317)
(0.936688 0.026706 2.58656e-317)
(0.971628 0.0563727 1.83801e-317)
(1.00563 0.0125395 1.17775e-317)
(0.989995 0.0534625 5.79775e-318)
(1.04281 0.00241732 2.54444e-319)
(0.96763 0.0604502 -4.92803e-318)
(1.04177 -0.048869 -9.87099e-318)
(0.864632 0.0411396 -1.45063e-317)
(0.953606 -0.243167 -1.9379e-317)
(0.60588 -0.0791068 -2.38643e-317)
(0.655324 -0.752216 -3.29925e-317)
(0.180159 -0.505323 -4.15502e-317)
(-0.0492452 -1.34792 -7.1868e-317)
(0.368595 0.752157 2.17516e-316)
(0.286057 0.604602 1.72892e-316)
(0.819428 0.461855 1.30107e-316)
(0.780799 0.191339 9.79503e-317)
(1.02402 0.175532 7.40004e-317)
(1.00972 0.0468012 5.57456e-317)
(1.11051 0.0700607 4.17295e-317)
(1.1204 0.0200628 3.04685e-317)
(1.15055 0.0555343 2.11662e-317)
(1.19072 0.0317601 1.31492e-317)
(1.17568 0.0794787 6.02063e-318)
(1.25717 0.0529879 -5.43057e-319)
(1.19017 0.124199 -6.67456e-318)
(1.3337 0.0539921 -1.23915e-317)
(1.16441 0.171837 -1.73397e-317)
(1.41501 -0.0645586 -2.06676e-317)
(1.00227 0.152833 -2.07904e-317)
(1.46832 -0.596605 -1.14967e-317)
(0.488387 -0.309148 6.09193e-318)
(1.28511 -2.13532 6.77039e-317)
(1.16454 0.513603 1.04552e-316)
(0.512413 0.332727 4.75499e-317)
(0.990072 0.228228 3.89344e-317)
(0.907725 0.112836 2.87452e-317)
(1.09918 0.0975675 2.42938e-317)
(1.09071 0.0270331 1.98083e-317)
(1.17602 0.0328158 1.60894e-317)
(1.17868 0.00159691 1.26044e-317)
(1.20828 0.0151786 9.37865e-318)
(1.22594 -0.00139344 6.37935e-318)
(1.22107 0.0172392 3.57507e-318)
(1.26121 -0.00211343 1.00065e-318)
(1.21532 0.0219795 -1.338e-318)
(1.28415 -0.0248716 -3.42408e-318)
(1.1509 0.00545559 -5.23374e-318)
(1.25721 -0.132508 -7.22155e-318)
(0.928577 -0.0912594 -9.55613e-318)
(1.04661 -0.434755 -1.67498e-317)
(0.464727 -0.381071 -2.74652e-317)
(-0.00986503 -0.343991 -6.26007e-317)
(-0.290108 -0.197441 6.33323e-316)
(0.83364 0.687009 3.95661e-316)
(1.60386 0.227779 2.73665e-316)
(1.67115 0.124499 1.90417e-316)
(2.03695 0.06817 1.38894e-316)
(1.97186 0.000973157 1.02068e-316)
(2.08264 0.018263 7.51303e-317)
(2.06304 -0.000273167 5.4069e-317)
(2.0818 0.027121 3.6881e-317)
(2.14127 0.0224908 2.21769e-317)
(2.12083 0.0578162 9.06564e-318)
(2.28388 0.0543217 -3.15533e-318)
(2.22181 0.108948 -1.48304e-317)
(2.53535 0.0887567 -2.60937e-317)
(2.35138 0.183019 -3.64572e-317)
(2.90227 0.061091 -4.45646e-317)
(2.2409 0.264017 -4.71676e-317)
(3.25455 -0.322896 -3.5856e-317)
(0.865037 0.282998 -6.88724e-318)
(3.12562 -1.78256 8.12652e-317)
)
;

boundaryField
{
    cavity
    {
        type            myImplicitVelocity;
    }
    lid
    {
        type            fixedValue;
        value           uniform (1 0 0);
    }
    frontAndBack
    {
        type            empty;
    }
}


// ************************************************************************* //
