/*--------------------------------*- C++ -*----------------------------------*\
| =========                 |                                                 |
| \\      /  F ield         | foam-extend: Open Source CFD                    |
|  \\    /   O peration     | Version:  3.0                                   |
|   \\  /    A nd           | Web:         http://www.extend-project.de       |
|    \\/     M anipulation  |                                                 |
\*---------------------------------------------------------------------------*/
FoamFile
{
    version     2.0;
    format      ascii;
    class       volSymmTensorField;
    location    "33";
    object      sigma;
}
// * * * * * * * * * * * * * * * * * * * * * * * * * * * * * * * * * * * * * //

dimensions      [0 0 0 0 0 0 0];

internalField   nonuniform List<symmTensor> 
2688
(
(-0.1788057563 -0.005046188631 1.45367828e-19 0.1789662689 3.041988392e-19 -0.0001605125937)
(-0.1751027047 -0.00587308195 6.147757687e-20 0.1755390561 1.573982403e-19 -0.0004363514108)
(-0.1677928222 -0.006238855611 -9.493038092e-20 0.1684771434 6.714677477e-19 -0.0006843211819)
(-0.1583112127 -0.006298974476 7.458284712e-20 0.159220013 2.456686449e-19 -0.0009088003077)
(-0.1482838303 -0.006201682615 3.182327463e-20 0.1493965837 3.837067864e-19 -0.001112753409)
(-0.1378262712 -0.00599350042 9.999870518e-20 0.1391241856 1.513025927e-19 -0.001297914439)
(-0.1277146986 -0.005733562219 4.766339837e-20 0.1291800005 2.531422889e-19 -0.001465301952)
(-0.1177760789 -0.005438327365 6.901896098e-20 0.1193912574 9.126095411e-20 -0.001615178428)
(-0.1084051577 -0.00513108278 -4.741875404e-21 0.1101525204 1.775361756e-19 -0.001747362714)
(-0.09941731967 -0.004819537276 -5.562243392e-20 0.1012784708 -5.731684013e-20 -0.001861151144)
(-0.09101101247 -0.004511343866 7.037168156e-20 0.09296651084 4.101668341e-19 -0.001955498369)
(-0.08305677982 -0.004212227296 -2.793602842e-20 0.08508572823 9.065095934e-20 -0.002028948407)
(-0.0756407647 -0.003921954945 3.20127064e-19 0.07772047266 1.041293716e-19 -0.002079707963)
(-0.06870056746 -0.003647088121 -4.721311249e-20 0.07080619286 4.026230605e-20 -0.0021056254)
(-0.06224902301 -0.003382462436 -3.769163689e-20 0.06435319238 9.062864207e-20 -0.002104169372)
(-0.05629076872 -0.003136820023 1.375245087e-20 0.05836323788 4.097360422e-20 -0.002072469168)
(-0.05078379884 -0.002901365291 -3.367071684e-20 0.05279101767 1.861902108e-19 -0.002007218838)
(-0.04579718061 -0.00268741863 1.740076233e-19 0.04770194684 1.114136926e-19 -0.001904766225)
(-0.0412454368 -0.002483666475 -1.741308863e-19 0.04300641495 -5.029113761e-20 -0.001760978154)
(-0.03725570457 -0.002303101893 1.165453294e-19 0.03882703461 2.413769293e-19 -0.001571330039)
(-0.03371389427 -0.002134390565 1.110112024e-19 0.03504469462 -1.516740292e-19 -0.00133080035)
(-0.03078769905 -0.001988943029 4.2400914e-20 0.03182157486 -2.196496644e-19 -0.001033875808)
(-0.02836729063 -0.001859558431 -2.76875934e-20 0.02904188235 5.325127824e-20 -0.0006745917225)
(-0.02661578151 -0.001723523282 -7.220838347e-20 0.02686210821 -4.755709059e-19 -0.0002463266984)
(-0.1782983627 -0.01474961428 4.973149945e-20 0.178458787 -4.199775808e-19 -0.000160424293)
(-0.1741744612 -0.01730482185 2.70566444e-19 0.1746105642 -2.148011789e-19 -0.0004361029946)
(-0.1666194493 -0.01846700798 6.754279239e-20 0.1673033811 -3.931277031e-19 -0.0006839318298)
(-0.1570111155 -0.01870653219 -1.501400414e-19 0.1579193958 1.53394835e-20 -0.0009082803578)
(-0.1469237289 -0.01846894633 6.744563282e-20 0.1480358509 -9.707814575e-20 -0.001112122033)
(-0.1364526059 -0.01789605442 -7.869080995e-20 0.1377497909 -2.44230824e-19 -0.001297184966)
(-0.1263544289 -0.01716590956 1.755196921e-19 0.12781892 1.636595692e-19 -0.001464491162)
(-0.1164469194 -0.01632900473 -4.849380141e-20 0.1180612197 -4.076070133e-19 -0.001614300354)
(-0.1071179209 -0.01545585239 -8.682802468e-20 0.1088643545 7.984518607e-20 -0.001746433614)
(-0.09817746591 -0.01457014111 2.352778751e-19 0.1000376518 -3.812383157e-19 -0.001860185857)
(-0.08982235683 -0.0136954081 1.165204781e-19 0.09177687069 -1.072010825e-19 -0.001954513863)
(-0.08191919872 -0.01284918724 -5.443511924e-20 0.08394715979 -2.302029228e-19 -0.002027961072)
(-0.07455502109 -0.01203133237 -1.298758668e-19 0.07663375786 7.618653398e-20 -0.002078736776)
(-0.06766373865 -0.01126175024 1.448733498e-19 0.06976842664 -8.366411213e-21 -0.002104687992)
(-0.06126061392 -0.01052561393 -2.359043718e-20 0.06336389913 1.253890882e-19 -0.002103285214)
(-0.05534625945 -0.009849110639 6.614209596e-20 0.05741791389 3.968264849e-19 -0.002071654439)
(-0.04988223507 -0.009206902516 2.966005695e-19 0.05188872587 -2.999575615e-19 -0.002006490801)
(-0.04493301333 -0.008632340098 -3.896549185e-19 0.04683715087 4.269339948e-19 -0.001904137544)
(-0.04041751152 -0.008093451042 2.986912075e-19 0.04217797348 2.956398729e-19 -0.001760461962)
(-0.03645768308 -0.007627656454 3.243309348e-20 0.03802861543 -7.489271956e-20 -0.001570932354)
(-0.03294422619 -0.007204269722 -4.770954554e-19 0.03427475085 1.309818243e-19 -0.001330524659)
(-0.0300394531 -0.006854299618 1.693602286e-19 0.03107316806 2.704625745e-19 -0.001033714957)
(-0.02763717531 -0.006564879978 -3.231173253e-19 0.0283117045 3.061379995e-19 -0.0006745291896)
(-0.02590180442 -0.006310164339 2.387827358e-19 0.02614812967 -2.682819517e-19 -0.0002463252539)
(-0.1773004695 -0.0244235298 1.823623899e-19 0.1774603159 3.406143263e-19 -0.0001598464159)
(-0.1723420403 -0.02858985521 2.897356555e-20 0.1727765746 4.458836934e-19 -0.0004345342784)
(-0.1643003585 -0.03047688477 3.868190139e-20 0.1649818233 2.001418017e-19 -0.0006814648005)
(-0.1544396569 -0.0308552166 2.729586488e-19 0.1553446521 1.09537497e-19 -0.0009049951652)
(-0.1442320233 -0.03045467471 -1.766154478e-19 0.1453401134 2.972515308e-19 -0.001108090141)
(-0.1337324647 -0.02950676053 2.686197182e-19 0.1350249376 1.122202615e-19 -0.001292472958)
(-0.1236592411 -0.028303721 -6.318539814e-20 0.1251184044 2.420113367e-19 -0.001459163307)
(-0.1138115834 -0.02692735423 -2.30044067e-20 0.115420008 1.882594963e-19 -0.001608424588)
(-0.1045637981 -0.02549378639 -3.398156335e-20 0.1063038782 4.750995497e-19 -0.001740080035)
(-0.09571520763 -0.02404111652 -2.661511014e-19 0.09756863723 1.994743341e-19 -0.001853429602)
(-0.08745937521 -0.02260839217 1.580088093e-19 0.08940680918 4.553720626e-19 -0.00194743397)
(-0.07965510599 -0.02122384896 1.468318803e-19 0.08167574852 6.875665763e-20 -0.002020642524)
(-0.07239109631 -0.0198876624 5.222536345e-19 0.07446236591 -6.543692594e-20 -0.0020712696)
(-0.06559405224 -0.01863207993 1.930882539e-20 0.0676912216 -8.817583595e-20 -0.002097169357)
(-0.05928386274 -0.01743322738 3.930857531e-19 0.0613796817 -6.039276321e-20 -0.00209581896)
(-0.05345334067 -0.01633367035 -3.163752389e-19 0.05551769386 -1.073562237e-19 -0.002064353196)
(-0.04807078281 -0.01529240425 -3.531448206e-20 0.05007025823 1.647454657e-19 -0.001999475421)
(-0.04319186722 -0.01436363282 9.72287344e-19 0.0450894063 -1.379068943e-19 -0.001897539074)
(-0.03874366887 -0.01349581276 -6.462874492e-19 0.04049808937 1.358380342e-19 -0.001754420497)
(-0.03483852824 -0.01274949932 1.799562211e-20 0.03640412715 -2.267288189e-20 -0.001565598913)
(-0.0313759076 -0.01207590733 4.96523594e-19 0.03270196682 6.28921136e-20 -0.001326059219)
(-0.02850823386 -0.01152441059 3.998092386e-19 0.02953852183 -3.391096291e-19 -0.001030287976)
(-0.02613687556 -0.01107711626 -6.433367185e-19 0.0268091952 2.917726462e-19 -0.0006723196388)
(-0.02442297619 -0.01070506522 -8.913480731e-20 0.02466850323 -4.122405731e-19 -0.0002455270358)
(-0.1758113624 -0.03404906852 5.600218005e-20 0.1759701312 -1.186131856e-21 -0.000158768823)
(-0.1696317519 -0.03963418094 1.662569834e-19 0.1700633527 -1.603104689e-19 -0.0004316008211)
(-0.1608785702 -0.04212869864 -5.847256913e-20 0.1615554252 -7.163956739e-19 -0.0006768549923)
(-0.1506495557 -0.04257937064 -1.502434027e-19 0.1515484187 1.42339042e-19 -0.0008988630122)
(-0.1402670573 -0.04197856407 1.380622453e-19 0.1413676288 -2.16251286e-19 -0.001100571485)
(-0.1297270219 -0.04063876321 -1.693142801e-19 0.1310107164 6.140572607e-20 -0.001283694511)
(-0.1196913114 -0.03895822021 3.242113582e-19 0.1211405576 -5.512298965e-20 -0.00144924615)
(-0.1099322011 -0.03704592435 5.869790625e-20 0.1115296921 2.637749469e-19 -0.001597490981)
(-0.1008039863 -0.03506077303 9.959069773e-20 0.1025322421 -4.454422526e-19 -0.00172825584)
(-0.0920904897 -0.03305278932 1.986826057e-19 0.09393133632 8.04951529e-20 -0.00184084662)
(-0.08398035742 -0.03107593283 -3.616638651e-20 0.08591459021 2.069799935e-19 -0.001934232795)
(-0.07632110128 -0.02916727336 -4.925862472e-19 0.07832807383 -3.431172532e-19 -0.002006972545)
(-0.0692037526 -0.02732777447 -4.125596737e-19 0.07126104577 4.658258359e-19 -0.00205729317)
(-0.06254450955 -0.02560030865 2.833641559e-19 0.06462757009 -4.328545204e-19 -0.002083060545)
(-0.05637000392 -0.02395306106 -1.854011942e-19 0.05845177305 9.488230294e-19 -0.002081769131)
(-0.05066160873 -0.02244313104 4.732829711e-19 0.05271217757 -8.324623381e-20 -0.002050568835)
(-0.04539752331 -0.02101546789 4.869061455e-20 0.04738370797 3.669010676e-19 -0.001986184653)
(-0.04062051642 -0.01974290039 -2.576027283e-19 0.04250550487 -3.624318576e-19 -0.001884988454)
(-0.03626956424 -0.01855656807 6.691397378e-19 0.03801244618 -3.700338985e-20 -0.001742881943)
(-0.03244338344 -0.0175370656 -1.965904682e-19 0.0339987491 7.995410407e-20 -0.001555365658)
(-0.0290527697 -0.01662091256 -8.827803468e-19 0.03037022208 1.70269272e-19 -0.001317452384)
(-0.02623961374 -0.01587163325 6.753173114e-19 0.0272632665 -9.201636783e-20 -0.00102365276)
(-0.0239078358 -0.01526993995 -2.15436196e-19 0.0245758666 5.802325742e-19 -0.0006680308037)
(-0.02222755232 -0.01478399934 3.292575079e-19 0.02247153795 -2.291228779e-19 -0.0002439856376)
(-0.1738299878 -0.04360678492 6.319571061e-20 0.1739871774 1.679928302e-19 -0.0001571895782)
(-0.1660820701 -0.05034903545 -3.31999201e-19 0.1665093735 -1.867811339e-19 -0.0004273033503)
(-0.156416952 -0.05329151243 2.746238131e-19 0.1570870602 -2.519134828e-19 -0.0006701081246)
(-0.1457179146 -0.05372403077 5.131760123e-19 0.1466078088 2.796791782e-19 -0.0008898942529)
(-0.1351141027 -0.05287242589 -1.242374455e-19 0.1362036832 -2.662475778e-19 -0.001089580571)
(-0.1245256894 -0.05111773372 2.710556182e-19 0.1257965571 4.98022327e-19 -0.001270867623)
(-0.114541594 -0.04895362016 1.980069414e-19 0.1159763535 -2.964574342e-19 -0.001434759554)
(-0.1048996257 -0.04651018674 -3.081868713e-19 0.1064811472 4.489834222e-19 -0.00158152156)
(-0.09592815294 -0.04398559515 -2.520742515e-19 0.09763913635 3.732007004e-19 -0.001710983403)
(-0.08739116995 -0.04143816939 4.272258455e-19 0.08921362996 -2.747741157e-19 -0.001822460006)
(-0.07947092226 -0.03893610122 7.184569987e-20 0.08138585389 -2.143954585e-19 -0.001914931632)
(-0.07200046433 -0.03652269971 4.628844801e-19 0.07398743556 -9.346481848e-20 -0.001986971236)
(-0.06507375933 -0.03420035156 2.440106252e-19 0.0671105826 4.149201787e-19 -0.002036823265)
(-0.05859358224 -0.03202024554 4.486053349e-19 0.0606559561 -2.977344674e-19 -0.002062373867)
(-0.0525950963 -0.02994406327 7.898151041e-19 0.05465623728 3.458887866e-19 -0.002061140978)
(-0.04704513005 -0.02804099727 -7.418168983e-19 0.04907543075 -9.757296004e-19 -0.0020303007)
(-0.04193430484 -0.02624400069 -2.149151247e-20 0.04390091267 -6.012635586e-19 -0.001966607826)
(-0.03728914501 -0.02464174295 2.491877012e-19 0.03915561149 1.614018535e-19 -0.001866466487)
(-0.03306331233 -0.02315064196 -2.394470108e-19 0.0347891263 -1.049135108e-19 -0.001725813972)
(-0.02933858666 -0.0218682516 6.402520598e-19 0.03087877573 -2.866324766e-20 -0.001540189071)
(-0.02604026257 -0.0207191082 2.552423884e-19 0.02734490845 -1.354873337e-19 -0.001304645879)
(-0.02329528882 -0.01977862518 5.630287144e-19 0.02430902895 5.614975057e-19 -0.001013740134)
(-0.02101647149 -0.01902677782 -7.961640605e-20 0.02167805622 -9.418113233e-19 -0.000661584736)
(-0.01937508059 -0.01842884478 -5.913629e-19 0.01961671779 1.089053533e-18 -0.000241637194)
(-0.1713551403 -0.05307613664 -2.969305477e-19 0.1715102585 6.246715229e-19 -0.0001551182026)
(-0.1617428192 -0.06065230613 -4.084887901e-19 0.1621644819 5.035185724e-19 -0.0004216626638)
(-0.1509968935 -0.06384576184 -5.238230725e-20 0.1516581455 -6.582523195e-20 -0.0006612520299)
(-0.1397443567 -0.06414857534 -1.933722605e-19 0.1406224805 3.380684912e-19 -0.0008781238158)
(-0.1288834938 -0.0629838456 2.165224358e-19 0.1299586535 2.767345324e-19 -0.001075159697)
(-0.118244035 -0.0607861358 -1.388937782e-19 0.1194980757 -2.142131347e-19 -0.001254040636)
(-0.1083277212 -0.05813104599 3.914682342e-19 0.1097434798 -5.403541941e-20 -0.001415758521)
(-0.09883134587 -0.05516264975 6.210362078e-19 0.1003919231 5.804104412e-19 -0.0015605772)
(-0.09005220926 -0.05211370575 -2.943449212e-19 0.09174053985 -1.04484653e-18 -0.001688330596)
(-0.08173081559 -0.04904661932 -7.428367331e-19 0.0835291593 9.988733307e-19 -0.001798343712)
(-0.07404164589 -0.04604278138 5.978520125e-20 0.07593125774 2.121478318e-19 -0.001889611854)
(-0.06680065351 -0.04314866207 -2.307549053e-20 0.06876137961 -6.220123929e-20 -0.0019607261)
(-0.06010520888 -0.04036877196 -4.433963809e-19 0.06211516391 -1.886805424e-21 -0.002009955034)
(-0.05384216022 -0.03775983572 1.74773981e-20 0.05587737064 2.475455994e-20 -0.002035210423)
(-0.04805680153 -0.03527877624 -3.058293227e-19 0.05009084479 6.298404249e-20 -0.002034043258)
(-0.04269865324 -0.03300395661 -3.80667253e-19 0.04470231634 -2.942375109e-19 -0.002003663105)
(-0.03777308565 -0.03085884979 4.35305774e-19 0.03971395247 1.378152986e-18 -0.001940866819)
(-0.0332874652 -0.02894461942 3.768372379e-19 0.03512956518 -9.897356278e-20 -0.001842099976)
(-0.02921229855 -0.02716615694 2.287877214e-19 0.03091564917 6.082336826e-19 -0.001703350621)
(-0.0256110638 -0.02563379468 -4.6151574e-19 0.02713127097 3.727812137e-19 -0.00152020717)
(-0.02242175577 -0.02426391586 -1.215302072e-19 0.02370953857 4.047292431e-19 -0.0012877828)
(-0.01976289967 -0.02313919162 -2.398025274e-19 0.02076359179 1.225864498e-18 -0.001000692122)
(-0.01754174678 -0.02224074615 1.162848368e-18 0.01819486147 -2.752453536e-19 -0.0006531146875)
(-0.0159501263 -0.02153502383 -2.148313344e-19 0.01618869783 2.350668592e-18 -0.0002385715226)
(-0.1683856094 -0.06243568624 5.331787392e-19 0.168538163 -1.166608395e-18 -0.0001525536155)
(-0.1566737497 -0.07047049594 -9.080449011e-19 0.1570884358 3.096573797e-20 -0.0004146860808)
(-0.1447157667 -0.07368639731 3.75173417e-19 0.1453660704 -7.618267534e-19 -0.0006503036776)
(-0.1328481711 -0.07373030635 5.199861814e-19 0.1337117481 6.577182691e-19 -0.0008635770289)
(-0.1217070945 -0.07218048718 -7.823330998e-20 0.1227644356 -1.107803009e-18 -0.001057341082)
(-0.1110202966 -0.06950746529 -1.235402001e-19 0.1122535489 4.561069804e-19 -0.001233252311)
(-0.1011902395 -0.06635325651 5.916137498e-19 0.1025825257 -8.123272479e-20 -0.001392286237)
(-0.09186776289 -0.06286741573 -3.560540059e-19 0.09340246821 -1.086260589e-18 -0.001534705322)
(-0.08331462536 -0.05931206845 5.103067068e-19 0.0849749721 -5.175568798e-19 -0.001660346741)
(-0.07524509063 -0.05574862715 1.425633396e-18 0.07701363946 2.239549327e-19 -0.001768548833)
(-0.06782463224 -0.05227062514 -7.66002298e-19 0.06968295581 -8.54274987e-19 -0.001858323563)
(-0.06085008688 -0.04892401577 2.27269463e-19 0.06277837297 4.695072842e-19 -0.001928286098)
(-0.05442252986 -0.04571631835 3.365681546e-19 0.05639926284 3.406473391e-19 -0.001976732983)
(-0.04841098071 -0.0427065076 1.992238209e-19 0.05041259075 7.793109789e-19 -0.002001610045)
(-0.0428720226 -0.03984878531 8.398157582e-19 0.04487252982 -3.480108305e-19 -0.002000507213)
(-0.03773584529 -0.03722724831 -4.658266328e-19 0.03970652371 1.286528024e-18 -0.001970678416)
(-0.03302413208 -0.03475873004 3.015144418e-19 0.03493310256 -5.32265253e-19 -0.001908970472)
(-0.02872309383 -0.03255316035 -6.145829046e-19 0.03053497791 4.870851193e-19 -0.001811884083)
(-0.02482147266 -0.03050703525 8.006776044e-19 0.02649694082 -3.246660396e-19 -0.001675468159)
(-0.02136259189 -0.02874039599 4.235416129e-19 0.02285796949 6.020686106e-19 -0.001495377606)
(-0.01829913948 -0.02716266753 1.611210593e-18 0.01956593729 -5.999151973e-19 -0.001266797802)
(-0.01573678362 -0.02586540299 -3.936111059e-19 0.01672120617 8.672397221e-19 -0.0009844225466)
(-0.01358444379 -0.02482502469 1.379464933e-18 0.01422696097 4.620066841e-19 -0.0006425171888)
(-0.01204849323 -0.02401797483 -9.102759586e-19 0.01228319668 -4.70324736e-19 -0.0002347034417)
(-0.1649205847 -0.07166246854 2.483633707e-19 0.1650700955 1.286607808e-18 -0.0001495107949)
(-0.1509433032 -0.07973978466 2.059547768e-19 0.1513497077 5.946237529e-20 -0.0004064044658)
(-0.1376847993 -0.08272504684 -4.47780957e-19 0.1383221067 9.876354497e-19 -0.0006373074052)
(-0.1251653505 -0.08236721547 2.217397696e-19 0.1260116607 -8.073075774e-19 -0.0008463102399)
(-0.1137353581 -0.08035302925 3.274846621e-19 0.1147715511 -1.661644078e-19 -0.001036193018)
(-0.1030120264 -0.07716946202 6.596507166e-20 0.1042206076 7.923651225e-19 -0.001208581238)
(-0.09328946091 -0.07350763013 -7.092356232e-19 0.09465389322 9.556049713e-20 -0.001364432315)
(-0.08416895752 -0.06951326223 3.529331181e-19 0.08567296254 -1.70787708e-20 -0.001504005026)
(-0.07587334498 -0.06547189068 -7.837081178e-19 0.07750048654 1.293444839e-18 -0.001627141563)
(-0.06808872735 -0.06143844882 -7.418998143e-20 0.06982192148 -4.579673066e-19 -0.001733194133)
(-0.06097058919 -0.05751729673 3.221438591e-19 0.06279178509 7.889197446e-19 -0.001821195899)
(-0.0542952581 -0.05374990993 8.270372629e-19 0.05618504707 -8.788658323e-20 -0.001889788969)
(-0.04816771564 -0.05014768962 -1.604002527e-19 0.05010502055 2.389445051e-19 -0.001937304915)
(-0.04243777218 -0.04676834205 -3.40692234e-19 0.04439950069 -7.200842637e-19 -0.001961728515)
(-0.03717419148 -0.04356548203 3.385228427e-19 0.03913488962 -3.038028072e-20 -0.001960698141)
(-0.03228628517 -0.04062541021 2.539372888e-19 0.03421780405 -8.979296911e-19 -0.001931518882)
(-0.02781317537 -0.03786112735 3.378193082e-20 0.029684275 -7.24813588e-21 -0.001871099627)
(-0.02371871119 -0.03538791987 7.867567452e-19 0.02549471615 -7.687598262e-19 -0.001776004957)
(-0.0200096775 -0.03309649246 1.392324302e-19 0.02165203722 -3.215794069e-19 -0.00164235972)
(-0.01671140426 -0.03111367807 -7.048862673e-19 0.01817730061 -6.162986891e-19 -0.001465896348)
(-0.01378470633 -0.02934424559 5.669940796e-19 0.01502659629 -2.40713144e-19 -0.001241889958)
(-0.01133449735 -0.02788353195 1.627067789e-18 0.01229962384 3.90786985e-19 -0.0009651264845)
(-0.009255124416 -0.02670980546 6.576800086e-19 0.009885097363 -1.331484596e-18 -0.0006299729468)
(-0.007781530623 -0.02579910951 1.548172438e-19 0.008011683058 9.530154432e-19 -0.0002301524352)
(-0.1609596729 -0.08073243004 -2.99723147e-20 0.1611056646 -6.978744298e-19 -0.0001459917119)
(-0.1446265767 -0.08840744635 -1.272300602e-18 0.1450234113 4.201841898e-19 -0.0003968346231)
(-0.130025649 -0.09089195054 8.533486991e-19 0.130647943 -2.067733855e-18 -0.0006222940189)
(-0.1168445702 -0.0899804453 -7.386141068e-19 0.1176709372 6.589864895e-19 -0.0008263669785)
(-0.105132511 -0.08741792442 7.614500704e-19 0.1061442805 -2.345087009e-19 -0.001011769476)
(-0.09439122876 -0.08368700445 7.582614263e-19 0.09557132006 -1.462244393e-19 -0.0011800913)
(-0.08480020307 -0.07950930947 5.588935986e-20 0.08613247094 -3.260863101e-19 -0.001332267871)
(-0.07590948249 -0.07501675981 2.361398745e-19 0.07737803673 -3.840221461e-19 -0.001468554236)
(-0.06790044611 -0.0705119627 7.090525772e-19 0.0694892429 -6.814346276e-19 -0.001588796793)
(-0.0604302493 -0.06603742997 3.415832142e-19 0.06212261399 4.91911179e-19 -0.001692364686)
(-0.05364352339 -0.06170701753 -7.352780118e-19 0.05542183723 -6.499906336e-19 -0.001778313837)
(-0.0472954991 -0.05755340463 1.304111579e-19 0.04914081804 -1.727789412e-20 -0.001845318943)
(-0.0414950395 -0.05359287852 3.822480643e-19 0.0433867898 2.737295002e-19 -0.001891750297)
(-0.03607207442 -0.04987802784 -2.898710811e-19 0.03798771407 5.752302076e-19 -0.001915639649)
(-0.03110805814 -0.04636421916 2.58860336e-20 0.03302273765 7.076708402e-19 -0.001914679507)
(-0.02649052264 -0.04313612506 -4.039056913e-19 0.02837675916 9.933206538e-19 -0.001886236518)
(-0.02227697858 -0.04010579419 -1.105682219e-19 0.02410426788 2.801387394e-19 -0.001827289299)
(-0.01840761293 -0.03739084286 -1.363036183e-18 0.02014209244 6.672725731e-19 -0.001734479514)
(-0.01490864358 -0.03487698025 1.106619748e-18 0.01651266143 8.151808963e-19 -0.001604017849)
(-0.01178531238 -0.03270043996 1.300268064e-19 0.01321704305 5.288163196e-19 -0.001431730673)
(-0.009008179146 -0.03075128821 9.405150426e-19 0.01022117474 8.186549547e-19 -0.00121299559)
(-0.006678509299 -0.02914804183 -1.266213398e-18 0.00762121998 -7.210060377e-19 -0.0009427106805)
(-0.004676358138 -0.02784089789 2.109269729e-18 0.005291721964 4.021066103e-19 -0.0006153638261)
(-0.003264022669 -0.02683534542 -3.536534901e-19 0.003488840625 -1.370838098e-18 -0.0002248179564)
(-0.1565036722 -0.08961972317 1.898397077e-18 0.1566456879 -3.312690573e-21 -0.0001420156697)
(-0.1378038674 -0.09643248821 3.14544232e-20 0.1381898843 -8.469513295e-19 -0.0003860169133)
(-0.1218677137 -0.09813745546 -2.042114749e-19 0.122473036 -1.820453725e-19 -0.0006053223116)
(-0.108043656 -0.09651599835 5.163538917e-19 0.1088474785 1.254613288e-18 -0.0008038225413)
(-0.09607287797 -0.09331933416 -5.452658657e-19 0.09705703971 -3.710506175e-19 -0.0009841617431)
(-0.08534033546 -0.08900409384 3.435313208e-19 0.08648822349 5.156552343e-19 -0.001147888028)
(-0.0759079596 -0.08430310285 -6.044907111e-19 0.07720387263 -1.544353264e-19 -0.001295913025)
(-0.06727449289 -0.0793241745 -5.940676124e-19 0.06870297884 7.499134038e-19 -0.001428485951)
(-0.05957854594 -0.07438034633 5.466166156e-20 0.06112400501 6.128889067e-19 -0.001545459076)
(-0.05244850286 -0.06949563777 1.11815348e-19 0.05409472186 7.731685626e-19 -0.001646218993)
(-0.04601758806 -0.06479193323 2.617727186e-19 0.04774743679 1.405670706e-19 -0.001729848725)
(-0.0400200403 -0.06028872482 7.677195854e-19 0.04181509855 6.706517553e-19 -0.001795058244)
(-0.03456848225 -0.05600815614 7.295167458e-19 0.03640874557 2.571688237e-20 -0.001840263322)
(-0.0294728702 -0.05199376977 4.761222722e-19 0.03133641752 -8.437604683e-19 -0.001863547325)
(-0.02482756626 -0.04820506242 1.068778594e-18 0.02669023224 -2.872455363e-19 -0.001862665978)
(-0.02049785117 -0.0447210829 3.26940335e-19 0.02233290511 -1.261617754e-18 -0.001835053937)
(-0.01656043525 -0.04145604968 2.146994307e-19 0.01833820636 -2.056046715e-19 -0.001777771108)
(-0.01293019863 -0.03852606142 9.711947442e-19 0.01461774317 -7.859773567e-19 -0.001687544546)
(-0.009655813083 -0.03581463513 -9.377686769e-19 0.01121649827 -1.030488657e-19 -0.001560685188)
(-0.006716533142 -0.03346467776 -4.811962468e-19 0.008109657051 -5.483712948e-19 -0.001393123909)
(-0.004102608254 -0.03135372876 3.453967552e-20 0.00528296587 -4.042260513e-20 -0.001180357615)
(-0.001896133457 -0.02962002906 -1.041442034e-19 0.002813542504 8.27212419e-19 -0.0009174090464)
(1.800147298e-05 -0.0281930059 -1.617005052e-18 0.0005809005924 -8.104050394e-19 -0.0005989020653)
(0.001371568727 -0.02709916031 1.230912571e-18 -0.00115273057 -5.839781124e-20 -0.0002188381564)
(-0.1515542323 -0.09829741518 -5.252994692e-19 0.1516918194 5.117112246e-19 -0.000137587072)
(-0.1305583026 -0.1037862305 2.349006701e-19 0.1309322784 -9.56002855e-19 -0.0003739757536)
(-0.1133442514 -0.1044326179 -2.042189275e-19 0.1139306862 1.6970052e-18 -0.0005864347838)
(-0.09892486066 -0.1019456135 3.607599403e-19 0.09970359659 -8.348633596e-19 -0.0007787359353)
(-0.08673538514 -0.09803004264 -6.667206736e-20 0.08768882784 4.552104937e-19 -0.0009534426952)
(-0.07604650825 -0.09309487374 1.367211644e-18 0.07715856542 -6.195009401e-19 -0.001112057168)
(-0.06680281928 -0.08786459188 2.450899077e-19 0.06805828272 2.283151832e-19 -0.001255463439)
(-0.05845365844 -0.08241258118 9.952706689e-19 0.05983756333 -8.193480255e-19 -0.001383904887)
(-0.05109453007 -0.07705560159 2.629800733e-19 0.05259176891 -2.332269685e-19 -0.001497238843)
(-0.04432642705 -0.07179306349 6.95914185e-19 0.04592129932 -6.679166066e-19 -0.001594872274)
(-0.03827073666 -0.06675342756 -1.28957783e-18 0.03994665339 -4.831588111e-19 -0.001675916732)
(-0.03264169421 -0.06193853649 1.689771005e-20 0.03438081702 -2.119106632e-19 -0.001739122813)
(-0.02755528879 -0.05737742364 -3.227434906e-19 0.02933824401 -6.538037913e-19 -0.00178295522)
(-0.02280219806 -0.05310053481 -5.041302333e-19 0.02460775459 -2.783300298e-19 -0.001805556523)
(-0.01848942393 -0.04907405732 -2.828224424e-19 0.02029417495 3.788717898e-19 -0.001804751024)
(-0.01446031707 -0.04536709526 4.568081801e-20 0.01623836831 7.682879137e-19 -0.001778051245)
(-0.01081099776 -0.04189986009 -2.735001747e-19 0.01253360333 6.076028999e-19 -0.001722605566)
(-0.007430250312 -0.03878181681 -5.155572286e-21 0.00906548928 -6.023904345e-19 -0.001635238969)
(-0.004391310087 -0.03589972271 1.709537717e-18 0.005903682017 2.016247141e-18 -0.00151237193)
(-0.001643146823 -0.03339619587 -7.742046577e-20 0.002993202322 -3.061834655e-21 -0.001350055499)
(0.0007974636521 -0.03114411653 2.031947374e-18 0.0003464543879 1.329284971e-18 -0.00114391804)
(0.002876814247 -0.02929319098 -5.044687641e-19 -0.001987687521 -1.247285131e-18 -0.0008891267257)
(0.004696932876 -0.02775599365 -2.439438486e-20 -0.004116472095 -1.599823969e-19 -0.0005804607815)
(0.005985465329 -0.02658691257 -1.018797503e-18 -0.005773363583 -2.099006593e-19 -0.0002121017464)
(-0.1461151019 -0.1067368233 8.760798648e-19 0.1462478304 2.385978761e-19 -0.0001327285316)
(-0.122974224 -0.1104525784 -5.106180671e-19 0.1233349835 5.154707651e-19 -0.0003607595181)
(-0.1045893902 -0.1097698144 3.928051111e-20 0.1051550929 -6.556563427e-20 -0.0005657026668)
(-0.0896510688 -0.1062673715 1.582128258e-19 0.09040226777 3.67710475e-19 -0.0007511989611)
(-0.07729951674 -0.1015521687 -8.334501744e-19 0.07821924058 -3.034210216e-19 -0.0009197238385)
(-0.06669732483 -0.09596431257 5.016159423e-19 0.06777005284 -3.36307799e-19 -0.001072728004)
(-0.05767530545 -0.09020078792 -3.597597547e-19 0.05888637156 -4.056786668e-19 -0.001211066107)
(-0.04963701244 -0.08429051569 -4.555090152e-19 0.05097198629 -3.625325576e-19 -0.001334973857)
(-0.04263570186 -0.07854735567 7.522591658e-19 0.04408001697 -1.783635444e-20 -0.00144431511)
(-0.03624734643 -0.07294020716 1.065555796e-18 0.0377858642 7.879193702e-20 -0.001538517773)
(-0.03058137207 -0.06760262665 1.129874384e-18 0.03219809803 1.650384481e-19 -0.001616725958)
(-0.02533370319 -0.06251451595 1.607233665e-19 0.02701143662 3.942763248e-19 -0.001677733436)
(-0.02062317217 -0.05771276849 2.778139232e-19 0.02234323233 9.015603869e-19 -0.001720060164)
(-0.01622252995 -0.05321080838 7.294894832e-19 0.01796444225 1.839263132e-19 -0.001741912298)
(-0.01225068557 -0.04898402418 7.652076757e-19 0.01399187682 1.347673744e-18 -0.001741191252)
(-0.008530253115 -0.04508727357 3.06093719e-19 0.0102457466 -3.901295076e-19 -0.001715493486)
(-0.005175958635 -0.04145067368 -5.814914566e-19 0.006838025387 -1.108004683e-18 -0.001662066752)
(-0.002051460708 -0.0381715672 -1.33048412e-19 0.003629302443 6.829087958e-19 -0.001577841735)
(0.0007458594649 -0.0351461817 7.076624256e-19 0.0007135025102 -9.862422463e-19 -0.001459361975)
(0.003297360016 -0.0325081506 -9.600333247e-19 -0.001994551368 -1.059798313e-18 -0.001302808648)
(0.005558370341 -0.03013690581 -4.209691543e-19 -0.00445441284 -9.518642283e-19 -0.001103957501)
(0.007506428682 -0.028179399 7.38764309e-19 -0.006648296658 -1.379832244e-18 -0.0008581320247)
(0.009226173016 -0.02654600226 -1.200074992e-18 -0.008665891663 5.391039401e-20 -0.0005602813532)
(0.01044679773 -0.02530718992 1.116447277e-18 -0.01024203408 5.144595958e-21 -0.0002047636521)
(-0.1401913197 -0.114908329 -7.015481972e-20 0.1403187664 5.876979287e-19 -0.0001274466809)
(-0.1151348626 -0.1164276399 5.066541925e-19 0.1154812621 -6.257671587e-19 -0.000346399512)
(-0.09573425967 -0.1141619632 -6.327504107e-19 0.09627743918 1.342325242e-18 -0.0005431795047)
(-0.08038100806 -0.1095048117 8.039418867e-19 0.08110229348 -6.935205141e-19 -0.0007212854162)
(-0.06793978882 -0.1039161258 -5.751378777e-19 0.06882288513 7.70200568e-20 -0.0008830963157)
(-0.05747497811 -0.09764714586 -4.763018706e-20 0.05850498563 8.216935399e-19 -0.001030007529)
(-0.0487102221 -0.09134904947 6.50012146e-19 0.04987306281 3.197619767e-19 -0.001162840715)
(-0.04100875607 -0.08499687596 -5.611278523e-19 0.04229057998 7.635036343e-19 -0.001281823908)
(-0.03438341132 -0.07889524045 -7.376997572e-19 0.03577023804 2.412611643e-19 -0.001386826717)
(-0.02838865825 -0.07297699074 -4.894311664e-19 0.02986595898 7.721650932e-19 -0.001477300729)
(-0.02312195577 -0.06737935356 -1.973957581e-19 0.0246743797 -8.281251149e-19 -0.001552423931)
(-0.01826347721 -0.06205624709 5.226352912e-19 0.01987451547 8.021330218e-19 -0.001611038253)
(-0.01393408875 -0.0570533362 -5.455004316e-20 0.01558581085 -1.412662959e-18 -0.0016517221)
(-0.009890773815 -0.05236332291 -4.342963746e-19 0.01156352611 -3.505265973e-19 -0.001672752295)
(-0.006263061276 -0.04797315355 8.690445439e-19 0.007935173624 -9.381992999e-19 -0.001672112348)
(-0.002854932224 -0.04391941337 1.443808183e-19 0.004502424134 -1.526450685e-18 -0.00164749191)
(0.000201996149 -0.04014575172 7.830403606e-19 0.001394248642 4.66489926e-19 -0.001596244791)
(0.003066781109 -0.03673234207 -9.345829146e-20 -0.001551361983 -1.28684959e-18 -0.001515419126)
(0.005620372828 -0.03359052038 7.362545249e-19 -0.004218682677 1.21057164e-18 -0.00140169015)
(0.007970923446 -0.03083710586 1.321087377e-18 -0.006719539617 -7.768070164e-19 -0.001251383829)