/*--------------------------------*- C++ -*----------------------------------*\
| =========                 |                                                 |
| \\      /  F ield         | foam-extend: Open Source CFD                    |
|  \\    /   O peration     | Version:  3.0                                   |
|   \\  /    A nd           | Web:         http://www.extend-project.de       |
|    \\/     M anipulation  |                                                 |
\*---------------------------------------------------------------------------*/
FoamFile
{
    version     2.0;
    format      ascii;
    class       volScalarField;
    location    "23";
    object      p;
}
// * * * * * * * * * * * * * * * * * * * * * * * * * * * * * * * * * * * * * //

dimensions      [0 0 0 0 0 0 0];

internalField   nonuniform List<scalar> 
672
(
-0.2335118451
-0.198176315
-0.1874644784
-0.168736889
-0.16667401
-0.1559203672
-0.1574284116
-0.1509834115
-0.1531047184
-0.14861646
-0.1487238543
-0.1439294059
-0.2305884205
-0.1957036194
-0.1851279358
-0.1666403637
-0.1646042482
-0.153988712
-0.1554775892
-0.1491155478
-0.151209385
-0.1467769239
-0.1468829641
-0.1421378247
-0.2248179827
-0.1908101682
-0.1805017351
-0.1624793688
-0.1604962108
-0.1501465371
-0.1515996071
-0.1453946369
-0.1474357647
-0.1431114124
-0.1432101284
-0.1385882552
-0.2161703043
-0.1834783463
-0.1735702123
-0.1562466201
-0.1543419914
-0.144394518
-0.1457927669
-0.1398295232
-0.1417924829
-0.1376346745
-0.137730703
-0.1332756257
-0.2048540839
-0.1738783397
-0.1644920849
-0.148078659
-0.1462764286
-0.1368507728
-0.138177537
-0.1325254298
-0.1343843375
-0.1304420999
-0.1305256837
-0.126302369
-0.1909147844
-0.1620551288
-0.1533120463
-0.1380217813
-0.1363455235
-0.1275657821
-0.1288045596
-0.1235400858
-0.1252732677
-0.1215993938
-0.121676903
-0.1177314339
-0.174620079
-0.1482297758
-0.1402366882
-0.1262557207
-0.1247257457
-0.116697333
-0.1178328311
-0.1130174861
-0.1146029577
-0.1112400911
-0.1113068363
-0.1076915822
-0.1560868032
-0.1325067215
-0.1253675398
-0.1128775745
-0.1115145453
-0.1043428579
-0.1053609525
-0.1010587002
-0.1024751371
-0.09946735443
-0.0995190327
-0.09627525665
-0.1356308623
-0.1151492843
-0.1089502191
-0.09810280214
-0.09692205416
-0.09069331649
-0.09158085861
-0.08784299327
-0.08907473327
-0.0864577436
-0.0865001231
-0.08366876363
-0.1134310745
-0.09631309214
-0.09113584144
-0.08207243866
-0.08109102814
-0.07588701365
-0.076633811
-0.07350949658
-0.07454008525
-0.07234913265
-0.07237710436
-0.07000044871
-0.08984021645
-0.07629418144
-0.07219974475
-0.06502948229
-0.06425664031
-0.06013979329
-0.0607339741
-0.0582614512
-0.05907644668
-0.05733821065
-0.05735297114
-0.05545002889
-0.06508481602
-0.05528739059
-0.05233135314
-0.04714869468
-0.0465972295
-0.04362187421
-0.04405866702
-0.04226991211
-0.04286204983
-0.04160036565
-0.04160428563
-0.04021819194
-0.0395431439
-0.03361152143
-0.03182653854
-0.02869226181
-0.02836508601
-0.02656612241
-0.0268361579
-0.02575313823
-0.02611127341
-0.02534075085
-0.02533231376
-0.02446138819
-0.01347101879
-0.01148546681
-0.01089832185
-0.009855638278
-0.009760402595
-0.009162254894
-0.009265286575
-0.008901330199
-0.009023626539
-0.008755009371
-0.008733846813
-0.008411008155
0.01273896564
0.01075925123
0.01014590807
0.009088112974
0.008954492991
0.008346492958
0.008415448529
0.008055861653
0.008172436165
0.007937006451
0.007965419989
0.0077544969
0.03882277888
0.03289690112
0.03108633284
0.02793757635
0.02757325789
0.02576514409
0.02600257135
0.02492455398
0.02527817599
0.02454054175
0.02458224967
0.02381983414
0.06438461865
0.05459337824
0.05161312308
0.04641744131
0.04583110882
0.04284785518
0.04325398879
0.04147109348
0.04205739569
0.04082781357
0.0408738687
0.03958519911
0.08917413111
0.07563397016
0.07151704613
0.06433541601
0.06353117042
0.05940796381
0.05997534769
0.05750947406
0.05832081226
0.05661286102
0.05666823611
0.05485235855
0.1128036266
0.09569229799
0.09049513203
0.08142295254
0.08041453807
0.07520617864
0.07593081832
0.0728137986
0.07384193331
0.07167787631
0.07173958514
0.06943243092
0.1350572452
0.1145817094
0.1083652597
0.0975112605
0.09630848008
0.09007696562
0.09094724003
0.08721621197
0.08844504029
0.08584944733
0.08591276651
0.08312781911
0.1555670794
0.1319940224
0.1248408825
0.1123476054
0.1109683108
0.1037961269
0.1048034746
0.1005079457
0.1019253356
0.09893301322
0.09900212504
0.09578487741
0.1741698216
0.147785539
0.1397813895
0.1257994232
0.1242588494
0.1162316345
0.1173619919
0.1125529127
0.1141393042
0.1107859042
0.1108573073
0.1072438078
0.1905293582
0.1616767826
0.1529263999
0.1376386539
0.1359575862
0.1271815072
0.12842069
0.1231628315
0.1248974607
0.1212284903
0.1213003039
0.1173347622
0.2045488398
0.1735786728
0.1641879725
0.1477789558
0.1459773933
0.1365570449
0.1378899958
0.1322447928
0.1341080419
0.1301670371
0.1302422157
0.1259833654
0.2159360272
0.1832506828
0.1733416355
0.1560257189
0.1541266835
0.1441866084
0.1455951748
0.1396388153
0.1416050649
0.1374445749
0.1375208399
0.1330120879
0.2246693933
0.1906660841
0.1803592676
0.1623453702
0.1603721976
0.1500303651
0.1514977783
0.1452987028
0.1473439399
0.1430124107
0.1430857713
0.1383957895
0.2305120502
0.1956327171
0.185061493
0.1665849522
0.1645622507
0.1539557026
0.1554620224
0.1491046161
0.1512036246
0.1467592019
0.1468367431
0.1420139886
0.2335214434
0.1981897901
0.1874830777
0.1687667186
0.1667196536
0.1559740217
0.1575012076
0.1510581621
0.1531836435
0.1486785752
0.1487512574
0.1438713749
0.2335259219
0.1982013323
0.1874975156
0.1687859545
0.1667397637
0.1559977147
0.1575246324
0.1510843086
0.1532097074
0.148705109
0.1487804702
0.1438919245
0.230660673
0.1957720978
0.1852017033
0.1667205694
0.1647008176
0.1540897379
0.1555985226
0.149234927
0.1513340906
0.1468833471
0.1469558733
0.1421375846
0.224826486
0.1908277192
0.1805275536
0.1625184812
0.1605501597
0.1502108292
0.1516801869
0.1454803361
0.1475248459
0.143188408
0.1432598426
0.138558176
0.2162308501
0.1835345963
0.1736299771
0.1563100763
0.1544175745
0.144472791
0.1458857959
0.1399213432
0.1418879976
0.1377173381
0.1377879995
0.1332791471
0.2048504994
0.1738822348
0.1645018653
0.1480977497
0.1463051387
0.1368866701
0.1382239942
0.1325758062
0.1344378289
0.1304888173
0.1305577345
0.1262865024
0.1909565497
0.1620919637
0.1533493947
0.1380586564
0.1363874492
0.127607133
0.1288523847
0.1235858084
0.1253202261
0.1216390452
0.1217032624
0.117731493
0.1746006016
0.1482156874
0.140225355
0.1262484258
0.124721055
0.1166952743
0.1178332744
0.1130191793
0.1146058285
0.1112413515
0.1113055862
0.1076809419
0.1561065849
0.1325209232
0.1253786707
0.1128835842
0.1115173186
0.1043414716
0.1053566793
0.1010515057
0.1024678243
0.09945966114
0.09951651064
0.09628176069
0.1355948161
0.1151164469
0.1089169083
0.09806813239
0.09688260832
0.09065207932
0.09153340629
0.08779497798
0.08902523958
0.08641408274
0.08646640602
0.08366736901
0.1134300599
0.09630593357
0.0911222517
0.08204954519
0.08105705364
0.07584594039
0.07658069103
0.07345374342
0.07448187284
0.07229907052
0.07234804412
0.07001428276
0.0897902148
0.07624556443
0.07214798728
0.06497192346
0.06418821764
0.06006615408
0.06064721027
0.05817323639
0.05898603928
0.05726090489
0.05730011986
0.05546733632
0.06506838604
0.0552644218
0.0522995458
0.04710456357
0.04653632868
0.04355173505
0.04396970169
0.04217840351
0.04276558722
0.04151786398
0.04155172571
0.04023112282
0.03948457085
0.03355321765
0.03176352413
0.02862075198
0.02827912791
0.02647286429
0.02672581905
0.02564063498
0.0259963553
0.02524260408
0.0252668487
0.02448734819
0.01344763979
0.01145538428
0.01085841798
0.009802108201
0.009687765645
0.009079476652
0.009161106851
0.008794566852
0.008911738641
0.008659345917
0.008673614035
0.008426685975
-0.01279905251
-0.01081925485
-0.01021081581
-0.009161922173
-0.00904326317
-0.008442766886
-0.008529406024
-0.00817183942
-0.008291126713
-0.008037999777
-0.008033463687
-0.007728377606
-0.03884329115
-0.03292402031
-0.03112270142
-0.02798687923
-0.02764038509
-0.0258416577
-0.02609885855
-0.02502275431
-0.02538040222
-0.02462683981
-0.02463374512
-0.02379943453
-0.06443888418
-0.05464679216
-0.05167026645
-0.0464815119
-0.04590758646
-0.04292995251
-0.04335100062
-0.04156864838
-0.04215763152
-0.04091162557
-0.04093090693
-0.03956328552
-0.08918257626
-0.07564868932
-0.07153904937
-0.06436787905
-0.06357696219
-0.05946109008
-0.0600431465
-0.05757830405
-0.05839253076
-0.05667157554
-0.05670065795
-0.05483064072
-0.1128458956
-0.09573216856
-0.09053643873
-0.08146731721
-0.08046616933
-0.07526014308
-0.07599378999
-0.07287561124
-0.07390484343
-0.07172876316
-0.07177228053
-0.0694147727
-0.1350468373
-0.1145770836
-0.1083649417
-0.09751773386
-0.09632142662
-0.09009472818
-0.09097199745
-0.08724229823
-0.08847313978
-0.08587187532
-0.08592507821
-0.08311674433
-0.1555935414
-0.1320160725
-0.124861401
-0.1123662531
-0.1109875197
-0.1038140212
-0.1048226305
-0.1005255238
-0.1019422393
-0.09894676472
-0.09901080958
-0.09578323604
-0.1741375154
-0.1477584426
-0.1397551647
-0.1257757658
-0.1242336701
-0.1162086536
-0.1173366921
-0.1125303449
-0.1141163268
-0.1107677888
-0.1108450845
-0.1072436068
-0.1905393214
-0.1616802048
-0.1529252406
-0.1376304297
-0.1359430626
-0.1271619385
-0.1283947422
-0.1231351094
-0.1248688013
-0.1212062961
-0.1212906136
-0.117358704
-0.2044959357
-0.1735303719
-0.1641373702
-0.1477267033
-0.1459161339
-0.1364951548
-0.1378169842
-0.1321751144
-0.1340352601
-0.1301077096
-0.1302019729
-0.1259863241
-0.2159320444
-0.1832382479
-0.17332216
-0.1559944738
-0.1540833535
-0.1441346623
-0.1455302185
-0.1395710408
-0.1415353087
-0.1373877795
-0.1374886032
-0.1330476545
-0.2246012467
-0.1906019103
-0.1802906939
-0.1622716173
-0.1602839524
-0.1499389408
-0.1513888983
-0.1451927983
-0.1472340492
-0.142921358
-0.143026548
-0.1384047249
-0.2304993389
-0.1956101557
-0.1850306144
-0.1665390813
-0.1645005952
-0.1538829005
-0.155371666
-0.1490103105
-0.1511058257
-0.146677954
-0.1467861375
-0.142052551
-0.2334464787
-0.1981180642
-0.1874061501
-0.1686828226
-0.1666186293
-0.1558684854
-0.1573749749
-0.1509343369
-0.1530549622
-0.1485706252
-0.1486805632
-0.1438798979
)
;

boundaryField
{
    out
    {
        type            implicitExtrapolation;
    }
    in
    {
        type            implicitExtrapolation;
    }
    frontAndBack
    {
        type            empty;
    }
}


// ************************************************************************* //
