/*--------------------------------*- C++ -*----------------------------------*\
| =========                 |                                                 |
| \\      /  F ield         | foam-extend: Open Source CFD                    |
|  \\    /   O peration     | Version:  3.0                                   |
|   \\  /    A nd           | Web:         http://www.extend-project.de       |
|    \\/     M anipulation  |                                                 |
\*---------------------------------------------------------------------------*/
FoamFile
{
    version     2.0;
    format      ascii;
    class       volSymmTensorField;
    location    "8";
    object      sigma;
}
// * * * * * * * * * * * * * * * * * * * * * * * * * * * * * * * * * * * * * //

dimensions      [0 0 0 0 0 0 0];

internalField   nonuniform List<symmTensor> 
400
(
(0.00742902 -0.000267871 0 -0.00867784 0 0.00124881)
(0.0114541 -0.000259347 0 -0.00994979 0 -0.00150426)
(0.0135705 -0.000890267 0 -0.0103494 0 -0.00322107)
(0.013837 -0.00152231 0 -0.00984792 0 -0.00398906)
(0.0129377 -0.00236734 0 -0.00890444 0 -0.00403323)
(0.0110963 -0.00299735 0 -0.00756255 0 -0.00353371)
(0.00867446 -0.00363423 0 -0.00601172 0 -0.00266274)
(0.00585922 -0.00400584 0 -0.00430836 0 -0.00155086)
(0.00281989 -0.00435476 0 -0.00251721 0 -0.00030268)
(-0.000294123 -0.00441179 0 -0.0007015 0 0.000995623)
(-0.00341829 -0.0044615 0 0.00114153 0 0.00227676)
(-0.00637288 -0.00418048 0 0.00290678 0 0.0034661)
(-0.00916007 -0.00394141 0 0.00465571 0 0.00450436)
(-0.0114784 -0.003303 0 0.00618119 0 0.00529725)
(-0.0134063 -0.00282892 0 0.00762937 0 0.0057769)
(-0.0143775 -0.00182572 0 0.00857101 0 0.00580644)
(-0.0146783 -0.00136024 0 0.00935394 0 0.00532437)
(-0.0131322 -8.97373e-05 0 0.00898343 0 0.00414876)
(-0.0108548 -0.000676874 0 0.00849233 0 0.00236243)
(-0.00550805 0.00016304 0 0.00565848 0 -0.00015043)
(0.00909488 0.000784551 0 -0.0138914 0 0.00479654)
(0.0126974 0.000519056 0 -0.0146034 0 0.00190604)
(0.0146417 -7.47672e-05 0 -0.0146112 0 -3.05322e-05)
(0.0150127 -0.000706052 0 -0.0138623 0 -0.00115036)
(0.0141731 -0.00155147 0 -0.0125554 0 -0.00161767)
(0.0123355 -0.00230775 0 -0.0107489 0 -0.00158658)
(0.00982173 -0.00305737 0 -0.00862642 0 -0.00119531)
(0.00681978 -0.00360294 0 -0.00625883 0 -0.000560958)
(0.00353796 -0.00404023 0 -0.00375757 0 0.000219616)
(0.000124689 -0.00420152 0 -0.00118881 0 0.00106412)
(-0.00329919 -0.0042323 0 0.00139767 0 0.00190152)
(-0.00657467 -0.00395257 0 0.00391111 0 0.00266356)
(-0.00962361 -0.00359406 0 0.00633966 0 0.00328394)
(-0.012207 -0.00291937 0 0.00851866 0 0.00368838)
(-0.0142668 -0.00231812 0 0.0104657 0 0.00380112)
(-0.0154225 -0.00140701 0 0.0118903 0 0.00353216)
(-0.0156556 -0.000909413 0 0.0128546 0 0.00280107)
(-0.0145107 -4.59679e-05 0 0.012995 0 0.00151568)
(-0.0120116 -0.000263695 0 0.0123738 0 -0.00036223)
(-0.00827521 0.000344302 0 0.0111773 0 -0.00290211)
(0.00947072 0.000915801 0 -0.0167408 0 0.00727004)
(0.0133022 0.000823614 0 -0.0176828 0 0.00438053)
(0.0151806 0.000554583 0 -0.0174989 0 0.00231827)
(0.0155288 0.000107861 0 -0.016503 0 0.000974213)
(0.014642 -0.000618545 0 -0.0148574 0 0.000215405)
(0.0128106 -0.00138981 0 -0.0127223 0 -8.82527e-05)
(0.0102945 -0.00218672 0 -0.0102414 0 -5.31085e-05)
(0.00728918 -0.00283716 0 -0.00750685 0 0.000217664)
(0.00399073 -0.00334273 0 -0.00462684 0 0.000636107)
(0.000536566 -0.00358208 0 -0.00166169 0 0.00112513)
(-0.0029305 -0.00362148 0 0.0013144 0 0.0016161)
(-0.00628301 -0.00336009 0 0.00423854 0 0.00204447)
(-0.00939461 -0.00295923 0 0.0070484 0 0.00234621)
(-0.0121 -0.00230205 0 0.00964466 0 0.00245533)
(-0.0142553 -0.00169536 0 0.0119537 0 0.00230155)
(-0.0156342 -0.000932591 0 0.0138235 0 0.00181069)
(-0.0160533 -0.00055479 0 0.0151472 0 0.000906134)
(-0.0152861 -7.19434e-05 0 0.0157753 0 -0.000489234)
(-0.0130023 -0.000202901 0 0.0154496 0 -0.00244732)
(-0.00918965 1.19931e-05 0 0.0142406 0 -0.005051)
(0.00978235 0.00196679 0 -0.0187301 0 0.00894773)
(0.013397 0.00180179 0 -0.0194814 0 0.00608435)
(0.0150689 0.00149516 0 -0.0190331 0 0.00396418)
(0.0153093 0.000992033 0 -0.0177974 0 0.00248809)
(0.0144076 0.000240063 0 -0.0159482 0 0.00154059)
(0.0126374 -0.000598156 0 -0.0136463 0 0.0010089)
(0.0102297 -0.00146566 0 -0.0110219 0 0.000792221)
(0.00735734 -0.00220781 0 -0.00815646 0 0.000799119)
(0.00420646 -0.00278925 0 -0.00515654 0 0.000950087)
(0.000891262 -0.00309948 0 -0.00206503 0 0.00117377)
(-0.00243989 -0.00317341 0 0.00103419 0 0.0014057)
(-0.00569144 -0.00294183 0 0.00410634 0 0.0015851)
(-0.00871928 -0.00253383 0 0.00706747 0 0.00165181)
(-0.0114134 -0.00189691 0 0.00986827 0 0.0015451)
(-0.0135919 -0.00127246 0 0.0123917 0 0.00120023)
(-0.0151288 -0.000563449 0 0.0145788 0 0.000549905)
(-0.0157436 -0.000120086 0 0.0162226 0 -0.00047907)
(-0.0153683 0.000338578 0 0.0173317 0 -0.0019634)
(-0.0134001 0.000535482 0 0.0173902 0 -0.00399017)
(-0.00985734 0.000930411 0 0.0165225 0 -0.00666516)
(0.00957771 0.00250591 0 -0.019498 0 0.0099203)
(0.0130784 0.00246744 0 -0.0202199 0 0.00714154)
(0.0146279 0.00217252 0 -0.0196537 0 0.00502582)
(0.0147723 0.0016058 0 -0.0182639 0 0.00349161)
(0.0138432 0.000768988 0 -0.0162806 0 0.00243743)
(0.0121339 -0.00018685 0 -0.0138973 0 0.00176345)
(0.00985979 -0.00117576 0 -0.0112403 0 0.00138052)
(0.00718341 -0.00204295 0 -0.00839017 0 0.00120676)
(0.00426511 -0.00272728 0 -0.00543535 0 0.00117024)
(0.00119471 -0.00311866 0 -0.00240004 0 0.00120534)
(-0.00189606 -0.00323345 0 0.000643785 0 0.00125227)
(-0.00494619 -0.00301582 0 0.00369194 0 0.00125425)
(-0.00781744 -0.00258073 0 0.0066623 0 0.00115514)
(-0.0104438 -0.00190552 0 0.00954553 0 0.000898299)
(-0.0126364 -0.00120437 0 0.0122131 0 0.000423312)
(-0.0143064 -0.000429956 0 0.0146397 0 -0.000333329)
(-0.0151432 0.000150716 0 0.0165858 0 -0.00144259)
(-0.0150336 0.000705241 0 0.0180152 0 -0.00298155)
(-0.0133476 0.0011431 0 0.0183883 0 -0.00504073)
(-0.00985128 0.0015923 0 0.0175748 0 -0.00772354)
(0.00920754 0.00340619 0 -0.0195319 0 0.0103244)
(0.012416 0.00330839 0 -0.0200705 0 0.00765449)
(0.0137506 0.00284055 0 -0.0193428 0 0.00559216)
(0.0137633 0.00202926 0 -0.0178242 0 0.00406091)
(0.0128202 0.000945312 0 -0.0157882 0 0.00296799)
(0.0112028 -0.000265498 0 -0.0134256 0 0.00222278)
(0.00912396 -0.00147737 0 -0.0108689 0 0.00174499)
(0.00671769 -0.00254136 0 -0.00817821 0 0.00146052)
(0.00412511 -0.00337175 0 -0.00542932 0 0.00130422)
(0.00140017 -0.00386224 0 -0.00261612 0 0.00121596)
(-0.00134482 -0.00401218 0 0.000204006 0 0.00114082)
(-0.00408945 -0.00377722 0 0.00306334 0 0.00102611)
(-0.00670811 -0.00325591 0 0.00588837 0 0.000819746)
(-0.00917842 -0.00245107 0 0.00870976 0 0.000468664)
(-0.0113091 -0.00154904 0 0.0113931 0 -8.39906e-05)
(-0.013046 -0.000549543 0 0.013945 0 -0.00089908)
(-0.014048 0.000331784 0 0.0160936 0 -0.00204566)
(-0.0141921 0.00116363 0 0.0177926 0 -0.00360057)
(-0.0128144 0.00187969 0 0.0184687 0 -0.00565428)
(-0.0095797 0.00246016 0 0.0178876 0 -0.00830792)
(0.00859809 0.00389826 0 -0.0188137 0 0.0102156)
(0.0114374 0.00378755 0 -0.0191254 0 0.00768802)
(0.0125409 0.00311246 0 -0.0182668 0 0.00572594)
(0.0124199 0.00197753 0 -0.0166724 0 0.00425251)
(0.0114756 0.000537892 0 -0.0146558 0 0.0031802)
(0.00997325 -0.00102496 0 -0.0123982 0 0.00242498)
(0.0081255 -0.00255095 0 -0.010039 0 0.00191345)
(0.00604029 -0.00387692 0 -0.0076184 0 0.00157811)
(0.00383424 -0.0048985 0 -0.00519416 0 0.00135992)
(0.00152699 -0.00550421 0 -0.00273118 0 0.00120419)
(-0.000799312 -0.00568177 0 -0.000261638 0 0.00106095)
(-0.00316165 -0.00539061 0 0.00227979 0 0.000881855)
(-0.00546062 -0.00472075 0 0.00484167 0 0.000618944)
(-0.00770712 -0.00369028 0 0.00748437 0 0.000222756)
(-0.00972548 -0.00247829 0 0.0100857 0 -0.000360256)
(-0.011472 -0.00111941 0 0.0126604 0 -0.00118846)
(-0.0126082 0.000171993 0 0.0149373 0 -0.00232907)
(-0.0129652 0.00138392 0 0.0168233 0 -0.00385804)
(-0.0119112 0.00240866 0 0.0177763 0 -0.0058651)
(-0.0090241 0.0031137 0 0.0174738 0 -0.0084497)
(0.00772389 0.00464146 0 -0.0173462 0 0.00962232)
(0.0100837 0.00425032 0 -0.0173636 0 0.00727995)
(0.0108852 0.00315629 0 -0.0163531 0 0.00546784)
(0.0106074 0.00152424 0 -0.014713 0 0.00410565)
(0.00967636 -0.000428871 0 -0.0127854 0 0.003109)
(0.00832735 -0.00248561 0 -0.0107262 0 0.00239884)
(0.00677061 -0.00443854 0 -0.00867816 0 0.00190756)
(0.00507696 -0.0061122 0 -0.00665057 0 0.00157361)
(0.00334005 -0.00737585 0 -0.00468395 0 0.0013439)
(0.00153849 -0.00811754 0 -0.00270771 0 0.00116922)
(-0.000274229 -0.00830952 0 -0.000730664 0 0.00100489)
(-0.00215754 -0.00791886 0 0.00135025 0 0.000807289)
(-0.00403643 -0.00702544 0 0.00350344 0 0.000532991)
(-0.00596305 -0.0056665 0 0.00582664 0 0.000136402)
(-0.0077733 -0.00401923 0 0.00820568 0 -0.000432379)
(-0.00945546 -0.00215883 0 0.0106845 0 -0.00122908)
(-0.0106646 -0.000320873 0 0.0129833 0 -0.00231871)
(-0.0112406 0.00140882 0 0.0150168 0 -0.00377621)
(-0.0105531 0.00284384 0 0.0162435 0 -0.00569036)
(-0.0081681 0.00380189 0 0.0163274 0 -0.00815932)
(0.00666059 0.00493906 0 -0.0152204 0 0.00855978)
(0.00842112 0.00426448 0 -0.0148716 0 0.00645052)
(0.00885309 0.00267492 0 -0.0136965 0 0.00484343)
(0.00839442 0.000429887 0 -0.0120423 0 0.0036479)
(0.00748828 -0.00216112 0 -0.0102692 0 0.00278088)
(0.00632807 -0.00481587 0 -0.00849558 0 0.00216751)
(0.00511522 -0.00728816 0 -0.0068609 0 0.00174568)
(0.00387724 -0.00937299 0 -0.00533706 0 0.00145982)
(0.00268085 -0.0109222 0 -0.00394385 0 0.001263)
(0.00146276 -0.011815 0 -0.00257473 0 0.00111197)
(0.000243481 -0.0120136 0 -0.00121138 0 0.000967896)
(-0.00107624 -0.011489 0 0.000283693 0 0.00079255)
(-0.00245354 -0.0103137 0 0.00190584 0 0.000547696)
(-0.00397724 -0.00854353 0 0.00378485 0 0.000192389)
(-0.00551021 -0.00635792 0 0.00582925 0 -0.000319039)
(-0.00706718 -0.00387644 0 0.00810606 0 -0.00103888)
(-0.00832368 -0.00136536 0 0.0103532 0 -0.0020295)
(-0.00912346 0.00100869 0 0.012488 0 -0.00336451)
(-0.0088658 0.00296742 0 0.0139989 0 -0.00513306)
(-0.00710662 0.00425477 0 0.0145443 0 -0.0074377)
(0.00521008 0.00550078 0 -0.0122109 0 0.00700081)
(0.00627896 0.00419663 0 -0.0114817 0 0.0052027)
(0.00630011 0.00185068 0 -0.0101678 0 0.00386774)
(0.00565582 -0.00119909 0 -0.00855508 0 0.00289927)
(0.00480622 -0.00458569 0 -0.00702296 0 0.00221674)
(0.00388958 -0.00796945 0 -0.00563973 0 0.00175015)
(0.0030906 -0.0110591 0 -0.00453412 0 0.00144352)
(0.0023876 -0.0136264 0 -0.00363556 0 0.00124796)
(0.00181559 -0.0155011 0 -0.0029391 0 0.0011235)
(0.00126986 -0.0165604 0 -0.00230357 0 0.00103371)
(0.000737116 -0.0167535 0 -0.0016836 0 0.000946488)
(7.9878e-05 -0.0160596 0 -0.000909813 0 0.000829935)
(-0.000690541 -0.0145424 0 3.84732e-05 0 0.000652068)
(-0.00170515 -0.0122776 0 0.00132757 0 0.000377577)
(-0.00285303 -0.00945011 0 0.00288676 0 -3.37234e-05)
(-0.00419929 -0.00622291 0 0.00482897 0 -0.000629679)
(-0.00543376 -0.0029054 0 0.00690252 0 -0.00146876)
(-0.00645414 0.000265399 0 0.00907666 0 -0.00262252)
(-0.00665773 0.00291711 0 0.0108368 0 -0.0041791)
(-0.00564385 0.00474897 0 0.0118849 0 -0.00624105)
(0.00357575 0.00549689 0 -0.00852736 0 0.0049516)
(0.00380732 0.00355723 0 -0.00734808 0 0.00354076)
(0.00332635 0.00036562 0 -0.00587898 0 0.00255264)
(0.00247226 -0.00360986 0 -0.0043492 0 0.00187694)
(0.00169903 -0.00790931 0 -0.00313466 0 0.00143564)
(0.00107685 -0.0121045 0 -0.00224182 0 0.00116497)
(0.000759347 -0.0158781 0 -0.0017759 0 0.00101655)
(0.000664899 -0.0189652 0 -0.00161456 0 0.000949659)
(0.000794143 -0.0211907 0 -0.0017267 0 0.000932562)
(0.000997838 -0.0224238 0 -0.00193478 0 0.000936944)
(0.00123093 -0.0226091 0 -0.00216954 0 0.000938617)
(0.00131875 -0.0217317 0 -0.00223209 0 0.000913342)
(0.0012399 -0.0198432 0 -0.00207652 0 0.000836629)
(0.000821228 -0.0170408 0 -0.00150163 0 0.000680407)
(0.000135969 -0.0135003 0 -0.000547434 0 0.000411465)
(-0.000935028 -0.00943762 0 0.000946652 0 -1.16236e-05)
(-0.00212104 -0.00518347 0 0.00276291 0 -0.000641869)
(-0.00337593 -0.00107201 0 0.00492298 0 -0.00154705)
(-0.0041238 0.00242661 0 0.00693869 0 -0.00281489)
(-0.00399087 0.00490823 0 0.00854642 0 -0.00455556)
(0.00141591 0.0058282 0 -0.00378125 0 0.00236534)
(0.000740387 0.00282236 0 -0.00220314 0 0.00146276)
(-0.000230058 -0.00152347 0 -0.000681956 0 0.000912014)
(-0.00125534 -0.00663587 0 0.000654253 0 0.000601089)
(-0.00188266 -0.0119945 0 0.00142342 0 0.000459236)
(-0.00213022 -0.0171044 0 0.00169809 0 0.000432128)
(-0.00188799 -0.0216214 0 0.00140634 0 0.000481651)
(-0.00129661 -0.0252631 0 0.000719165 0 0.000577446)
(-0.000399802 -0.027851 0 -0.00029813 0 0.000697932)
(0.000621435 -0.0292592 0 -0.00144593 0 0.000824499)
(0.00168528 -0.0294271 0 -0.00262771 0 0.000942436)
(0.00259577 -0.0283486 0 -0.00363235 0 0.00103659)
(0.00329441 -0.0260607 0 -0.00438609 0 0.00109168)
(0.00357537 -0.0226754 0 -0.00466397 0 0.0010886)
(0.00346685 -0.0183574 0 -0.00447029 0 0.00100344)
(0.00278411 -0.0133615 0 -0.00358763 0 0.000803518)
(0.00175334 -0.00804742 0 -0.00219774 0 0.000444401)
(0.000316053 -0.00282479 0 -0.000181012 0 -0.000135042)
(-0.000954554 0.00173949 0 0.00197193 0 -0.00101738)
(-0.00179173 0.00517576 0 0.00410029 0 -0.00230856)
(-0.000878959 0.005376 0 0.0016001 0 -0.000721143)
(-0.00263898 0.0013136 0 0.00364995 0 -0.00101097)
(-0.00419907 -0.00426628 0 0.00522883 0 -0.00102976)
(-0.005395 -0.0105963 0 0.00629583 0 -0.000900838)
(-0.00582668 -0.0170817 0 0.00651198 0 -0.000685302)
(-0.00562593 -0.0231172 0 0.00604991 0 -0.000423982)
(-0.00474819 -0.028377 0 0.00488931 0 -0.000141121)
(-0.0034072 -0.0325487 0 0.00326093 0 0.000146268)
(-0.00168744 -0.0354825 0 0.00125838 0 0.000429055)
(0.000195607 -0.0370525 0 -0.0008959 0 0.000700294)
(0.00213595 -0.0372064 0 -0.0030923 0 0.000956349)
(0.00391726 -0.0359439 0 -0.00511015 0 0.00119289)
(0.00545421 -0.0332804 0 -0.00685976 0 0.00140555)
(0.00650573 -0.0293424 0 -0.00809222 0 0.00158649)
(0.00705339 -0.0242504 0 -0.00877703 0 0.00172364)
(0.00683385 -0.0183086 0 -0.00863052 0 0.00179667)
(0.00600636 -0.0118436 0 -0.00777987 0 0.00177351)
(0.00438596 -0.00539215 0 -0.00599026 0 0.0016043)
(0.00250407 0.00040762 0 -0.00371749 0 0.00121343)
(0.000537268 0.00490077 0 -0.00102583 0 0.000488561)
(-0.00387102 0.00541817 0 0.00821612 0 -0.0043451)
(-0.00670985 -0.000266068 0 0.0105644 0 -0.00385458)
(-0.00872173 -0.00745273 0 0.0119538 0 -0.00323208)
(-0.00995276 -0.0152232 0 0.0125397 0 -0.00258691)
(-0.0100578 -0.0229342 0 0.0120177 0 -0.00195988)
(-0.00930118 -0.0299294 0 0.0106726 0 -0.00137138)
(-0.00772327 -0.035911 0 0.00855002 0 -0.000826742)
(-0.00559079 -0.0405792 0 0.00591678 0 -0.00032599)
(-0.00304311 -0.04382 0 0.00290626 0 0.000136854)
(-0.000297541 -0.0455284 0 -0.000270935 0 0.000568476)
(0.00250538 -0.0456601 0 -0.0034834 0 0.000978022)
(0.00516582 -0.0442238 0 -0.00653932 0 0.0013735)
(0.00755953 -0.0412073 0 -0.0093229 0 0.00176337)
(0.00944884 -0.0367377 0 -0.0116021 0 0.00215324)
(0.0107482 -0.0308812 0 -0.0132944 0 0.00254614)
(0.0111434 -0.0239595 0 -0.0140816 0 0.00293812)
(0.0106938 -0.0162625 0 -0.0140093 0 0.00331545)
(0.00906247 -0.00840491 0 -0.0127092 0 0.00364677)
(0.00672375 -0.001094 0 -0.0105989 0 0.00387513)
(0.0036174 0.00490088 0 -0.00752606 0 0.00390866)
(-0.00681611 0.00424121 0 0.0151942 0 -0.00837809)
(-0.010974 -0.00301558 0 0.0179632 0 -0.00698923)
(-0.0135186 -0.011844 0 0.0191448 0 -0.00562626)
(-0.0147252 -0.020986 0 0.0191218 0 -0.00439661)
(-0.0144014 -0.0298451 0 0.017715 0 -0.00331363)
(-0.0129999 -0.037648 0 0.0153692 0 -0.00236934)
(-0.0106635 -0.0442189 0 0.0122078 0 -0.00154431)
(-0.00772548 -0.0492516 0 0.00854301 0 -0.000817526)
(-0.00435953 -0.0527142 0 0.00452487 0 -0.000165333)
(-0.000786004 -0.0545113 0 0.000351583 0 0.000434421)
(0.00284726 -0.054627 0 -0.00385221 0 0.00100494)
(0.00635616 -0.0530698 0 -0.00792414 0 0.00156799)
(0.00960317 -0.0498016 0 -0.0117494 0 0.00214621)
(0.0123496 -0.044943 0 -0.0151106 0 0.00276102)
(0.0144607 -0.0384722 0 -0.0178942 0 0.00343355)
(0.0155504 -0.0307297 0 -0.0197317 0 0.00418137)
(0.0155688 -0.0218592 0 -0.0205846 0 0.00501581)
(0.013961 -0.0126195 0 -0.0198948 0 0.00593373)
(0.011091 -0.00364735 0 -0.0179953 0 0.0069043)
(0.00661084 0.00391059 0 -0.0144521 0 0.0078413)
(-0.0107844 0.00392476 0 0.0236015 0 -0.0128171)
(-0.0159255 -0.00576525 0 0.0262425 0 -0.010317)
(-0.018592 -0.0167095 0 0.026703 0 -0.00811106)
(-0.0194436 -0.0274206 0 0.0256878 0 -0.00624419)
(-0.0185168 -0.0374025 0 0.0231958 0 -0.00467897)
(-0.0163762 -0.0459137 0 0.0197431 0 -0.00336689)
(-0.0133018 -0.0529275 0 0.0155588 0 -0.00225702)
(-0.00961591 -0.0582013 0 0.0109195 0 -0.00130356)
(-0.00554987 -0.0617879 0 0.00601296 0 -0.000463094)
(-0.00126937 -0.063625 0 0.000966242 0 0.00030313)
(0.00304813 -0.0637194 0 -0.00408126 0 0.00103313)
(0.00728638 -0.0620836 0 -0.00904935 0 0.00176297)
(0.0112698 -0.0586468 0 -0.0138004 0 0.00253054)
(0.0148298 -0.0535098 0 -0.0182043 0 0.00337441)
(0.0177466 -0.046549 0 -0.0220835 0 0.00433682)
(0.0196752 -0.0380763 0 -0.0251367 0 0.00546144)
(0.0203797 -0.0280566 0 -0.0271731 0 0.00679337)
(0.0192127 -0.0172885 0 -0.0275843 0 0.00837165)
(0.0162584 -0.00626782 0 -0.0264774 0 0.010219)
(0.0107537 0.0036076 0 -0.0230758 0 0.0123222)
(-0.0141999 0.00119967 0 0.0315051 0 -0.0173052)
(-0.0207319 -0.0105535 0 0.0343613 0 -0.0136294)
(-0.0235164 -0.0233333 0 0.0340513 0 -0.010535)
(-0.0238947 -0.0350794 0 0.0319115 0 -0.00801687)
(-0.0222403 -0.045751 0 0.0282132 0 -0.00597284)
(-0.019328 -0.0545455 0 0.0236319 0 -0.00430394)
(-0.0155394 -0.0616871 0 0.0184619 0 -0.00292249)
(-0.0111976 -0.0669601 0 0.0129532 0 -0.00175568)
(-0.00654182 -0.0705198 0 0.00728137 0 -0.000739549)
(-0.00169279 -0.0723162 0 0.00151151 0 0.000181288)
(0.00318069 -0.0723898 0 -0.00424001 0 0.00105932)
(0.00801631 -0.070743 0 -0.00996097 0 0.00194466)
(0.0126373 -0.0672992 0 -0.0155275 0 0.00289014)
(0.0169324 -0.0621245 0 -0.0208845 0 0.00395207)
(0.020641 -0.0550228 0 -0.0258359 0 0.00519495)
(0.0234391 -0.0462516 0 -0.0301315 0 0.00669239)
(0.0249357 -0.0355429 0 -0.0334658 0 0.00853015)
(0.0242838 -0.0237272 0 -0.035087 0 0.0108032)
(0.0212185 -0.0108593 0 -0.0348228 0 0.0136043)
(0.0142481 0.00107323 0 -0.031224 0 0.0169758)
(-0.0193756 0.000113907 0 0.0411177 0 -0.0217422)
(-0.0254683 -0.0153436 0 0.0421609 0 -0.0166926)
(-0.0276839 -0.0305828 0 0.0403915 0 -0.0127076)
(-0.0270742 -0.0434794 0 0.036653 0 -0.00957884)
(-0.0247452 -0.0546398 0 0.0318466 0 -0.00710142)
(-0.0211645 -0.0635061 0 0.0262809 0 -0.00511634)
(-0.016922 -0.0705579 0 0.0204198 0 -0.00349777)
(-0.0121605 -0.075686 0 0.014307 0 -0.00214651)
(-0.00718728 -0.079117 0 0.0081668 0 -0.000979514)
(-0.00201666 -0.0808314 0 0.00194298 0 7.368e-05)
(0.00314724 -0.0808843 0 -0.00422564 0 0.0010784)
(0.00832622 -0.0792759 0 -0.0104234 0 0.00209722)
(0.0133046 -0.0759206 0 -0.016501 0 0.00319639)
(0.0180819 -0.0708505 0 -0.0225305 0 0.00444852)
(0.0223156 -0.0638011 0 -0.0282551 0 0.00593954)
(0.0258819 -0.0549341 0 -0.0336551 0 0.00777322)
(0.0281491 -0.0437085 0 -0.0382291 0 0.0100801)
(0.028619 -0.0307913 0 -0.0416437 0 0.0130246)
(0.0262318 -0.0154715 0 -0.0430484 0 0.0168167)
(0.0196882 3.6865e-05 0 -0.0414103 0 0.0217221)
(-0.0229718 -0.00618475 0 0.0481509 0 -0.025179)
(-0.0294757 -0.0229933 0 0.0485448 0 -0.019069)
(-0.0310264 -0.0383827 0 0.0454137 0 -0.0143873)
(-0.0294862 -0.0509709 0 0.0402683 0 -0.0107821)
(-0.0264798 -0.0616093 0 0.0344484 0 -0.00796857)
(-0.0223723 -0.0700023 0 0.0281123 0 -0.00573996)
(-0.0177959 -0.0766122 0 0.0217356 0 -0.0039397)
(-0.0127824 -0.0814259 0 0.0152301 0 -0.00244768)
(-0.00762843 -0.0846252 0 0.00879424 0 -0.00116581)
(-0.00229124 -0.0862194 0 0.00230323 0 -1.1986e-05)
(0.00303266 -0.0862526 0 -0.00412163 0 0.00108897)
(0.00840637 -0.0847159 0 -0.0106155 0 0.00220918)
(0.0136153 -0.0815615 0 -0.0170405 0 0.00342517)
(0.0187288 -0.076766 0 -0.0235512 0 0.0048224)
(0.0233831 -0.0701538 0 -0.0298871 0 0.00650395)
(0.0276112 -0.0617363 0 -0.03621 0 0.00859881)
(0.030628 -0.0510644 0 -0.0419039 0 0.0112759)
(0.032187 -0.0384351 0 -0.0469489 0 0.0147619)
(0.030392 -0.0229961 0 -0.049762 0 0.01937)
(0.0236346 -0.00607483 0 -0.0491756 0 0.025541)
(-0.0246947 -0.0108943 0 0.0517495 0 -0.0270549)
(-0.0289602 -0.032415 0 0.0493856 0 -0.0204253)
(-0.0306113 -0.0487536 0 0.045991 0 -0.0153797)
(-0.0287686 -0.0615581 0 0.0402758 0 -0.0115072)
(-0.026076 -0.0715554 0 0.0345747 0 -0.00849869)
(-0.0220699 -0.0795455 0 0.028196 0 -0.00612611)
(-0.0177075 -0.0856162 0 0.0219246 0 -0.00421708)
(-0.012794 -0.090122 0 0.0154338 0 -0.00263981)
(-0.00775226 -0.0930284 0 0.00904002 0 -0.00128776)
(-0.00247242 -0.0944732 0 0.00254453 0 -7.2109e-05)
(0.00278879 -0.0944336 0 -0.0038767 0 0.00108791)
(0.00812506 -0.0929054 0 -0.010395 0 0.00226992)
(0.0132718 -0.089912 0 -0.0168281 0 0.00355628)
(0.0183459 -0.0853009 0 -0.0233858 0 0.0050399)
(0.0228925 -0.0791424 0 -0.0297262 0 0.00683369)
(0.0271202 -0.0710393 0 -0.0362016 0 0.00908149)
(0.0299925 -0.0610294 0 -0.0419672 0 0.0119747)
(0.0319836 -0.0481687 0 -0.0477604 0 0.0157769)
(0.0303673 -0.0320949 0 -0.0512281 0 0.0208608)
(0.0258136 -0.010769 0 -0.0535796 0 0.027766)
)
;

boundaryField
{
    cavity
    {
        type            mySigma;
    }
    lid
    {
        type            zeroGradient;
    }
    frontAndBack
    {
        type            empty;
    }
}


// ************************************************************************* //
