/*--------------------------------*- C++ -*----------------------------------*\
| =========                 |                                                 |
| \\      /  F ield         | foam-extend: Open Source CFD                    |
|  \\    /   O peration     | Version:  3.0                                   |
|   \\  /    A nd           | Web:         http://www.extend-project.de       |
|    \\/     M anipulation  |                                                 |
\*---------------------------------------------------------------------------*/
FoamFile
{
    version     2.0;
    format      ascii;
    class       volVectorField;
    location    "8";
    object      u;
}
// * * * * * * * * * * * * * * * * * * * * * * * * * * * * * * * * * * * * * //

dimensions      [0 0 0 0 0 0 0];

internalField   nonuniform List<vector> 
400
(
(-0.0127706 -0.0523353 0)
(-0.045364 0.0333047 0)
(-0.150539 0.0562749 0)
(-0.20088 0.0503205 0)
(-0.282408 0.0443337 0)
(-0.319379 0.0344884 0)
(-0.376053 0.026349 0)
(-0.391841 0.0190282 0)
(-0.426464 0.0118622 0)
(-0.419233 0.00590986 0)
(-0.434213 -0.00189192 0)
(-0.401445 -0.00734909 0)
(-0.399454 -0.0178753 0)
(-0.336204 -0.0228499 0)
(-0.322266 -0.0395753 0)
(-0.219257 -0.0398211 0)
(-0.208659 -0.0713511 0)
(-0.0462404 -0.0348997 0)
(-0.0999521 -0.0906747 0)
(0.152452 0.105899 0)
(-0.0635031 0.110056 0)
(-0.101166 0.0958739 0)
(-0.165627 0.0970094 0)
(-0.197565 0.0805422 0)
(-0.253768 0.0734866 0)
(-0.281572 0.0584766 0)
(-0.324297 0.045435 0)
(-0.339598 0.0306514 0)
(-0.364961 0.0147683 0)
(-0.362918 0.0010519 0)
(-0.370746 -0.0167081 0)
(-0.349226 -0.0281925 0)
(-0.341624 -0.0481448 0)
(-0.299684 -0.0550194 0)
(-0.28175 -0.0780078 0)
(-0.22065 -0.0742527 0)
(-0.202023 -0.102023 0)
(-0.1313 -0.0739543 0)
(-0.112752 -0.107952 0)
(-0.0643974 -0.0531906 0)
(-0.0295809 0.100237 0)
(-0.0808121 0.12901 0)
(-0.137011 0.147388 0)
(-0.180007 0.132205 0)
(-0.229003 0.121645 0)
(-0.259097 0.09702 0)
(-0.294759 0.0761431 0)
(-0.311121 0.05029 0)
(-0.331561 0.0259177 0)
(-0.333432 0.00145537 0)
(-0.338383 -0.0252218 0)
(-0.325137 -0.0468667 0)
(-0.31518 -0.0766444 0)
(-0.286659 -0.0924108 0)
(-0.263225 -0.12637 0)
(-0.220501 -0.127333 0)
(-0.185623 -0.165326 0)
(-0.133147 -0.128556 0)
(-0.085621 -0.15706 0)
(-0.0376263 -0.070709 0)
(-0.0432824 0.217085 0)
(-0.0953547 0.202735 0)
(-0.145121 0.194998 0)
(-0.175975 0.170635 0)
(-0.214737 0.150355 0)
(-0.235174 0.121529 0)
(-0.264028 0.0945382 0)
(-0.275227 0.0641472 0)
(-0.292396 0.0336744 0)
(-0.293516 0.00421439 0)
(-0.298252 -0.028594 0)
(-0.288932 -0.0550779 0)
(-0.281503 -0.0900323 0)
(-0.262507 -0.110274 0)
(-0.243467 -0.146982 0)
(-0.217187 -0.154311 0)
(-0.18458 -0.191228 0)
(-0.155715 -0.174992 0)
(-0.0938391 -0.204017 0)
(-0.0652055 -0.175634 0)
(-0.0338981 0.237548 0)
(-0.084552 0.231264 0)
(-0.130943 0.227771 0)
(-0.166345 0.200923 0)
(-0.201841 0.179643 0)
(-0.224936 0.144807 0)
(-0.249963 0.114558 0)
(-0.262945 0.0768394 0)
(-0.277143 0.04233 0)
(-0.281058 0.00535817 0)
(-0.284091 -0.0317282 0)
(-0.279374 -0.0654856 0)
(-0.270783 -0.104796 0)
(-0.257717 -0.131968 0)
(-0.236372 -0.172952 0)
(-0.215271 -0.18709 0)
(-0.17778 -0.227327 0)
(-0.14917 -0.219203 0)
(-0.0858572 -0.247156 0)
(-0.0495473 -0.228765 0)
(-0.0355209 0.334769 0)
(-0.0824234 0.301949 0)
(-0.127279 0.277332 0)
(-0.154891 0.241266 0)
(-0.185904 0.208398 0)
(-0.201693 0.168882 0)
(-0.222754 0.131716 0)
(-0.230775 0.090411 0)
(-0.242989 0.0508631 0)
(-0.245021 0.0102414 0)
(-0.248395 -0.0311524 0)
(-0.245166 -0.0691581 0)
(-0.238971 -0.11235 0)
(-0.230753 -0.145134 0)
(-0.212946 -0.189707 0)
(-0.199455 -0.212857 0)
(-0.164904 -0.257096 0)
(-0.144692 -0.266221 0)
(-0.0818382 -0.302823 0)
(-0.0492515 -0.309866 0)
(-0.034992 0.354901 0)
(-0.0782048 0.324973 0)
(-0.121269 0.30099 0)
(-0.149321 0.259545 0)
(-0.177913 0.226157 0)
(-0.194691 0.181173 0)
(-0.212787 0.143121 0)
(-0.222065 0.0965038 0)
(-0.23178 0.0560279 0)
(-0.235917 0.0102481 0)
(-0.237775 -0.0320283 0)
(-0.237717 -0.0752354 0)
(-0.23071 -0.11941 0)
(-0.226121 -0.157982 0)
(-0.207407 -0.204066 0)
(-0.196531 -0.234651 0)
(-0.160786 -0.281424 0)
(-0.140328 -0.301244 0)
(-0.0794709 -0.34148 0)
(-0.0440868 -0.35859 0)
(-0.0337012 0.447498 0)
(-0.0685494 0.39145 0)
(-0.109441 0.349562 0)
(-0.129374 0.298131 0)
(-0.154599 0.253688 0)
(-0.164562 0.203501 0)
(-0.179595 0.158824 0)
(-0.183998 0.109113 0)
(-0.192102 0.0644712 0)
(-0.193787 0.0160427 0)
(-0.195987 -0.0294625 0)
(-0.196193 -0.0762048 0)
(-0.191431 -0.123801 0)
(-0.189937 -0.168086 0)
(-0.174852 -0.218787 0)
(-0.169764 -0.258692 0)
(-0.138188 -0.312355 0)
(-0.125503 -0.346285 0)
(-0.0688789 -0.397771 0)
(-0.0414612 -0.432072 0)
(-0.0358099 0.456735 0)
(-0.0674701 0.403232 0)
(-0.106823 0.362888 0)
(-0.124569 0.305021 0)
(-0.146774 0.261376 0)
(-0.155421 0.206046 0)
(-0.167098 0.162437 0)
(-0.171421 0.10888 0)
(-0.176899 0.0657504 0)
(-0.180021 0.0141262 0)
(-0.180851 -0.0295277 0)
(-0.183976 -0.0795688 0)
(-0.178977 -0.125305 0)
(-0.181334 -0.174004 0)
(-0.166545 -0.223516 0)
(-0.165161 -0.270344 0)
(-0.133982 -0.324561 0)
(-0.123582 -0.36918 0)
(-0.0682904 -0.424135 0)
(-0.0413637 -0.46758 0)
(-0.0320717 0.550416 0)
(-0.0504959 0.466196 0)
(-0.0854679 0.408001 0)
(-0.0930498 0.338529 0)
(-0.110729 0.284682 0)
(-0.111879 0.223826 0)
(-0.119964 0.174845 0)
(-0.119032 0.118944 0)
(-0.122686 0.0731796 0)
(-0.122804 0.0201726 0)
(-0.124003 -0.0252227 0)
(-0.126584 -0.0776658 0)
(-0.12427 -0.125896 0)
(-0.128974 -0.179785 0)
(-0.119058 -0.234076 0)
(-0.123568 -0.290143 0)
(-0.0989397 -0.352696 0)
(-0.0985017 -0.410517 0)
(-0.0504475 -0.478554 0)
(-0.0371958 -0.540375 0)
(-0.0353648 0.538961 0)
(-0.0509091 0.459163 0)
(-0.0834684 0.406577 0)
(-0.0863294 0.330761 0)
(-0.0993747 0.280415 0)
(-0.0965765 0.215376 0)
(-0.1002 0.169716 0)
(-0.0974903 0.111743 0)
(-0.0981683 0.0697528 0)
(-0.0990357 0.0157468 0)
(-0.0992412 -0.0253246 0)
(-0.105016 -0.0787565 0)
(-0.103589 -0.122226 0)
(-0.11349 -0.178363 0)
(-0.105623 -0.227916 0)
(-0.116325 -0.289266 0)
(-0.0936127 -0.348312 0)
(-0.0985699 -0.4162 0)
(-0.0509167 -0.484014 0)
(-0.039896 -0.553952 0)
(-0.0273312 0.63637 0)
(-0.0234935 0.518194 0)
(-0.0476665 0.444836 0)
(-0.0381129 0.355022 0)
(-0.0440527 0.295223 0)
(-0.0331674 0.224845 0)
(-0.031816 0.175997 0)
(-0.0236644 0.117183 0)
(-0.0219462 0.0750954 0)
(-0.0193706 0.0216964 0)
(-0.0199365 -0.0186735 0)
(-0.0242188 -0.0726288 0)
(-0.0261594 -0.116603 0)
(-0.0372008 -0.176782 0)
(-0.0361237 -0.230148 0)
(-0.0522398 -0.300896 0)
(-0.0398494 -0.369113 0)
(-0.0569119 -0.451744 0)
(-0.0218809 -0.535837 0)
(-0.0316006 -0.629977 0)
(-0.0330619 0.589466 0)
(-0.0260902 0.481527 0)
(-0.0458895 0.422246 0)
(-0.02772 0.32773 0)
(-0.0261502 0.275814 0)
(-0.00802222 0.203416 0)
(-0.000550463 0.16054 0)
(0.0112638 0.102239 0)
(0.0163461 0.0659314 0)
(0.0188801 0.0142891 0)
(0.0186542 -0.0197976 0)
(0.0107947 -0.0717461 0)
(0.00621028 -0.108322 0)
(-0.0118169 -0.167353 0)
(-0.0156583 -0.211711 0)
(-0.0414905 -0.284257 0)
(-0.0337941 -0.342289 0)
(-0.0606931 -0.432759 0)
(-0.0251382 -0.508007 0)
(-0.038551 -0.606361 0)
(-0.016568 0.695216 0)
(0.0185054 0.534881 0)
(0.0143406 0.447899 0)
(0.0456108 0.335988 0)
(0.0579389 0.275956 0)
(0.0826982 0.199623 0)
(0.0966388 0.157154 0)
(0.112514 0.100787 0)
(0.120502 0.0680929 0)
(0.126178 0.0200894 0)
(0.125785 -0.00976615 0)
(0.120722 -0.0592591 0)
(0.112584 -0.0929542 0)
(0.0963667 -0.153772 0)
(0.0841371 -0.199254 0)
(0.0564727 -0.281455 0)
(0.0487428 -0.348591 0)
(0.0104668 -0.459046 0)
(0.0227598 -0.55675 0)
(-0.0206118 -0.692687 0)
(-0.0329289 0.587201 0)
(0.00984942 0.451574 0)
(0.0134302 0.396008 0)
(0.0609666 0.28481 0)
(0.0854773 0.239203 0)
(0.121691 0.165176 0)
(0.143782 0.13125 0)
(0.165072 0.0789628 0)
(0.176737 0.0529702 0)
(0.183086 0.00979398 0)
(0.182354 -0.0134283 0)
(0.173767 -0.0575409 0)
(0.16097 -0.0828502 0)
(0.136428 -0.137715 0)
(0.114871 -0.170554 0)
(0.0732151 -0.24757 0)
(0.0542889 -0.294992 0)
(-0.00162974 -0.405532 0)
(0.0103725 -0.475816 0)
(-0.0412421 -0.603407 0)
(0.0103876 0.71801 0)
(0.0863142 0.492494 0)
(0.121448 0.398219 0)
(0.173949 0.264769 0)
(0.212804 0.215798 0)
(0.247498 0.141891 0)
(0.275797 0.114431 0)
(0.295652 0.0685723 0)
(0.309641 0.050941 0)
(0.31683 0.0154283 0)
(0.316341 0.000624562 0)
(0.311816 -0.0367209 0)
(0.297053 -0.0543772 0)
(0.279925 -0.106384 0)
(0.251459 -0.134731 0)
(0.218438 -0.219569 0)
(0.18053 -0.27251 0)
(0.125034 -0.413963 0)
(0.0931833 -0.516137 0)
(0.00649 -0.722842 0)
(-0.0421695 0.490171 0)
(0.0693956 0.339724 0)
(0.1224 0.30902 0)
(0.206506 0.194238 0)
(0.265246 0.166282 0)
(0.315834 0.102845 0)
(0.354384 0.0838349 0)
(0.380453 0.0459395 0)
(0.398389 0.0327333 0)
(0.4069 0.00412543 0)
(0.406153 -0.00727021 0)
(0.399421 -0.0370374 0)
(0.379287 -0.0496652 0)
(0.354853 -0.0908061 0)
(0.312287 -0.107745 0)
(0.262641 -0.175376 0)
(0.199115 -0.20041 0)
(0.113973 -0.317154 0)
(0.0638654 -0.356411 0)
(-0.0488458 -0.503194 0)
(0.11199 0.690569 0)
(0.18935 0.332585 0)
(0.302841 0.262347 0)
(0.346273 0.1228 0)
(0.413538 0.107119 0)
(0.437803 0.0534998 0)
(0.474857 0.0506666 0)
(0.487214 0.0255339 0)
(0.503559 0.0255869 0)
(0.507874 0.0088514 0)
(0.507698 0.00939143 0)
(0.505408 -0.00850803 0)
(0.488417 -0.00841792 0)
(0.478905 -0.0379989 0)
(0.440416 -0.0411797 0)
(0.42015 -0.105151 0)
(0.350868 -0.122745 0)
(0.309093 -0.277777 0)
(0.195965 -0.352569 0)
(0.0993673 -0.707345 0)
(0.0887754 0.188556 0)
(0.291682 0.146289 0)
(0.479491 0.152863 0)
(0.576994 0.0844743 0)
(0.675011 0.0756037 0)
(0.717563 0.0424234 0)
(0.764197 0.0354054 0)
(0.781976 0.018312 0)
(0.800824 0.0132607 0)
(0.806406 0.0012586 0)
(0.806121 -0.00344653 0)
(0.80292 -0.0163586 0)
(0.782378 -0.0217388 0)
(0.768022 -0.0414162 0)
(0.715863 -0.0476709 0)
(0.6801 -0.0846431 0)
(0.568783 -0.0883447 0)
(0.486837 -0.161458 0)
(0.273287 -0.146094 0)
(0.111343 -0.207517 0)
(0.294752 0.310032 0)
(0.203747 -0.0549737 0)
(0.386016 -0.0220803 0)
(0.334598 -0.0718317 0)
(0.398809 -0.0326178 0)
(0.377841 -0.0346516 0)
(0.406915 -0.0125778 0)
(0.401113 -0.00978987 0)
(0.415963 0.00257322 0)
(0.417581 0.00504866 0)
(0.422978 0.014432 0)
(0.429355 0.0167973 0)
(0.42425 0.0280211 0)
(0.436502 0.0299707 0)
(0.413662 0.0480665 0)
(0.437711 0.043065 0)
(0.37283 0.0714295 0)
(0.421429 0.0184018 0)
(0.2303 0.0234484 0)
(0.299224 -0.322423 0)
)
;

boundaryField
{
    cavity
    {
        type            myImplicitVelocity;
    }
    lid
    {
        type            fixedValue;
        value           uniform (1 0 0);
    }
    frontAndBack
    {
        type            empty;
    }
}


// ************************************************************************* //
