/*--------------------------------*- C++ -*----------------------------------*\
| =========                 |                                                 |
| \\      /  F ield         | foam-extend: Open Source CFD                    |
|  \\    /   O peration     | Version:  3.0                                   |
|   \\  /    A nd           | Web:         http://www.extend-project.de       |
|    \\/     M anipulation  |                                                 |
\*---------------------------------------------------------------------------*/
FoamFile
{
    version     2.0;
    format      ascii;
    class       volSymmTensorField;
    location    "23";
    object      sigma;
}
// * * * * * * * * * * * * * * * * * * * * * * * * * * * * * * * * * * * * * //

dimensions      [0 0 0 0 0 0 0];

internalField   nonuniform List<symmTensor> 
224
(
(-0.15016 -0.0181334 -9.53669e-20 0.150163 6.82584e-20 -2.95819e-06)
(-0.123427 -0.0192527 -1.55572e-19 0.123434 1.83115e-19 -6.80012e-06)
(-0.093299 -0.0169117 -1.22208e-21 0.0933086 1.4907e-19 -9.51815e-06)
(-0.0661727 -0.0139888 1.5729e-19 0.0661837 -6.14859e-19 -1.093e-05)
(-0.0431951 -0.0112282 2.04169e-19 0.0432058 -2.39609e-19 -1.0676e-05)
(-0.025728 -0.00923854 1.10923e-20 0.0257363 -5.42396e-19 -8.288e-06)
(-0.0137361 -0.0079114 -7.97176e-20 0.0137395 8.98987e-22 -3.38063e-06)
(-0.139514 -0.0522261 -4.89588e-20 0.139516 1.47944e-19 -2.77472e-06)
(-0.10834 -0.0538807 -2.35131e-20 0.108346 2.63425e-19 -6.37861e-06)
(-0.0784573 -0.0466697 -3.19616e-19 0.0784663 -1.7776e-20 -8.92682e-06)
(-0.0527402 -0.0381238 -1.27796e-18 0.0527505 -1.73915e-19 -1.02465e-05)
(-0.0313715 -0.0301672 3.54704e-19 0.0313815 -3.17084e-19 -1.00003e-05)
(-0.0149688 -0.0243927 5.80172e-19 0.0149766 -1.6294e-18 -7.75259e-06)
(-0.00365158 -0.0205249 -5.42376e-20 0.00365474 -6.93236e-19 -3.15346e-06)
(-0.120274 -0.0803733 1.4589e-20 0.120276 3.03275e-20 -2.48331e-06)
(-0.0822315 -0.078082 1.01069e-19 0.0822372 1.04084e-19 -5.70954e-06)
(-0.0531384 -0.0655415 9.19473e-20 0.0531464 -1.68586e-19 -7.98901e-06)
(-0.0300621 -0.0519973 -6.26432e-19 0.0300712 1.31233e-19 -9.16513e-06)
(-0.0116049 -0.039737 -1.08447e-18 0.0116138 -1.06729e-18 -8.93588e-06)
(0.00284231 -0.0307173 -3.40866e-18 -0.0028354 -1.08909e-18 -6.9152e-06)
(0.012908 -0.0246305 -3.50672e-19 -0.0129052 6.21027e-19 -2.80283e-06)
(-0.0959123 -0.100361 5.28995e-20 0.0959144 -3.9879e-20 -2.09657e-06)
(-0.0519035 -0.0885252 7.0302e-20 0.0519083 -5.04708e-20 -4.82092e-06)
(-0.0246245 -0.0701885 -7.23347e-20 0.0246312 -2.79724e-19 -6.74378e-06)
(-0.00511335 -0.0525482 -6.60233e-19 0.00512108 -1.40332e-19 -7.73081e-06)
(0.0096487 -0.0372103 -1.22964e-18 -0.00964118 -2.33717e-19 -7.52716e-06)
(0.0215448 -0.0257011 -2.23955e-18 -0.021539 2.11033e-18 -5.81132e-06)
(0.02995 -0.0178519 8.45821e-19 -0.0299477 4.67925e-19 -2.34438e-06)
(-0.0702668 -0.111999 5.0982e-20 0.0702684 -2.75817e-20 -1.62903e-06)
(-0.0246764 -0.086033 4.41985e-20 0.0246801 -4.18106e-20 -3.74668e-06)
(-0.000709134 -0.0617644 -1.73216e-19 0.000714373 -9.50405e-20 -5.23885e-06)
(0.0146677 -0.041044 -6.73463e-19 -0.0146617 1.17339e-19 -5.99861e-06)
(0.0255249 -0.0238872 -8.38916e-19 -0.0255191 1.00866e-18 -5.82808e-06)
(0.0346065 -0.0106933 1.6175e-18 -0.034602 1.43076e-18 -4.48286e-06)
(0.0411338 -0.00158086 6.48423e-19 -0.041132 -9.81351e-19 -1.79493e-06)
(-0.0464143 -0.11693 -1.46392e-20 0.0464154 4.75801e-20 -1.09948e-06)
(-0.00603425 -0.0751391 8.50695e-20 0.00603678 3.0661e-21 -2.52958e-06)
(0.0128597 -0.045422 -8.62234e-20 -0.0128561 1.64252e-20 -3.53415e-06)
(0.0238494 -0.0225985 -8.10586e-20 -0.0238453 6.8867e-20 -4.0377e-06)
(0.0310537 -0.0046398 -8.54038e-19 -0.0310498 1.00718e-18 -3.907e-06)
(0.0373343 0.00953791 2.41218e-18 -0.0373313 -1.08876e-19 -2.98396e-06)
(0.0419301 0.019458 -1.74746e-18 -0.0419289 -1.2482e-19 -1.17764e-06)
(-0.0258488 -0.117868 8.77844e-20 0.0258493 8.92013e-21 -5.27919e-07)
(0.0020822 -0.0624171 2.7716e-19 -0.00208099 -8.60628e-20 -1.21617e-06)
(0.0142283 -0.028487 -4.68084e-19 -0.0142266 -4.58244e-20 -1.69502e-06)
(0.0207902 -0.00439999 -1.29559e-18 -0.0207882 2.84997e-19 -1.92334e-06)
(0.0248198 0.0137448 -9.16679e-19 -0.0248179 1.04309e-18 -1.83744e-06)
(0.0284671 0.0284017 1.25911e-18 -0.0284657 3.86835e-19 -1.37163e-06)
(0.0311775 0.0387702 5.50488e-19 -0.0311769 -5.44882e-20 -5.15378e-07)
(-0.00822853 -0.117508 3.49513e-20 0.00822847 5.33507e-21 6.28936e-08)
(0.0017627 -0.0541541 -1.37683e-19 -0.00176284 -1.52114e-20 1.41775e-07)
(0.00595746 -0.0179195 -2.37901e-19 -0.00595766 1.08035e-19 2.06012e-07)
(0.00813577 0.00674859 -4.1367e-19 -0.00813603 3.56805e-19 2.60952e-07)
(0.00942235 0.0248635 -4.32856e-19 -0.00942265 7.47589e-19 2.98337e-07)
(0.010614 0.0396972 6.08232e-19 -0.0106143 4.26464e-19 2.89352e-07)
(0.0115078 0.0502574 3.13476e-19 -0.0115079 -7.98231e-20 1.64432e-07)
(0.00822883 -0.117508 2.83134e-20 -0.00822948 1.19973e-20 6.50735e-07)
(-0.00176238 -0.0541542 -1.38739e-19 0.00176088 1.8755e-20 1.49262e-06)
(-0.00595672 -0.0179196 2.07717e-20 0.00595463 2.73318e-19 2.09664e-06)
(-0.00813437 0.0067485 -3.17558e-19 0.00813194 3.83431e-19 2.43209e-06)
(-0.00941999 0.0248634 -1.19281e-19 0.00941757 5.03799e-19 2.41942e-06)
(-0.0106104 0.0396971 -5.3838e-20 0.0106085 2.8941e-19 1.93654e-06)
(-0.0115027 0.0502575 1.8718e-19 0.0115019 -9.96131e-21 8.36945e-07)
(0.025849 -0.117868 4.92107e-20 -0.0258502 1.19028e-20 1.21242e-06)
(-0.0020818 -0.0624173 1.56603e-19 0.00207902 4.44659e-20 2.78363e-06)
(-0.0142274 -0.0284872 4.71874e-19 0.0142235 4.16212e-19 3.90306e-06)
(-0.0207886 -0.00440019 -1.16263e-18 0.0207841 3.64304e-19 4.50526e-06)
(-0.0248172 0.0137447 -1.8513e-19 0.0248128 3.91317e-19 4.44253e-06)
(-0.0284633 0.0284017 -4.19946e-19 0.0284598 9.29294e-20 3.50468e-06)
(-0.0311723 0.0387704 1.99969e-19 0.0311709 -1.6916e-20 1.47474e-06)
(0.0464143 -0.11693 1.18979e-19 -0.046416 3.11619e-20 1.72705e-06)
(0.0060348 -0.0751394 1.83676e-19 -0.00603877 -1.08096e-20 3.96629e-06)
(-0.0128585 -0.0454222 5.41322e-19 0.012853 1.40822e-19 5.55742e-06)
(-0.0238475 -0.0225987 3.97936e-19 0.0238411 3.36963e-19 6.40271e-06)
(-0.0310509 -0.00463984 3.77742e-19 0.0310446 8.48192e-19 6.29226e-06)
(-0.0373303 0.00953802 -2.04697e-18 0.0373253 7.58775e-19 4.93596e-06)
(-0.0419249 0.0194585 -2.56268e-19 0.0419228 -8.32831e-20 2.05512e-06)
(0.0702667 -0.111999 3.65076e-21 -0.0702689 -5.77373e-20 2.17446e-06)
(0.0246771 -0.0860334 4.35005e-20 -0.0246821 -6.86695e-20 4.99479e-06)
(0.000710591 -0.0617646 7.8457e-20 -0.000717586 -1.02948e-19 6.99573e-06)
(-0.0146654 -0.041044 1.31081e-19 0.0146574 -7.58223e-20 8.05108e-06)
(-0.0255218 -0.023887 4.31888e-19 0.0255139 -3.2485e-19 7.89682e-06)
(-0.0346023 -0.0106929 1.7548e-18 0.0345961 8.79825e-19 6.17441e-06)
(-0.0411286 -0.00158011 1.32657e-18 0.0411261 5.79473e-19 2.5547e-06)
(0.0959124 -0.100362 -2.18323e-20 -0.0959149 -1.00042e-19 2.53829e-06)
(0.0519044 -0.0885255 -1.0707e-20 -0.0519103 -9.53815e-20 5.83107e-06)
(0.0246262 -0.0701885 -5.02363e-20 -0.0246343 -2.3583e-19 8.16482e-06)
(0.00511581 -0.0525479 7.35348e-20 -0.0051252 -3.15468e-19 9.38965e-06)
(-0.00964543 -0.0372098 7.88915e-19 0.00963623 -1.51018e-18 9.19769e-06)
(-0.0215406 -0.0257003 3.90128e-18 0.0215334 1.21301e-19 7.17561e-06)
(-0.0299451 -0.017851 -1.06977e-18 0.0299422 -4.89259e-19 2.95643e-06)
(0.120274 -0.0803743 -5.13184e-21 -0.120277 -9.14922e-20 2.80423e-06)
(0.0822328 -0.0780823 -5.076e-20 -0.0822392 -7.77977e-20 6.44282e-06)
(0.0531403 -0.0655413 -2.58726e-19 -0.0531493 -4.10207e-19 9.01966e-06)
(0.0300646 -0.0519968 -1.14598e-19 -0.030075 -7.32478e-19 1.0367e-05)
(0.0116081 -0.0397362 4.33813e-19 -0.0116183 -1.29199e-18 1.01446e-05)
(-0.00283823 -0.0307163 1.88975e-18 0.00283033 -8.52908e-19 7.90058e-06)
(-0.0129033 -0.0246294 -1.56189e-18 0.0129001 3.09397e-19 3.24406e-06)
(0.139514 -0.0522272 -8.56606e-21 -0.139517 -2.30429e-20 2.96291e-06)
(0.108341 -0.0538809 -1.62942e-19 -0.108348 -7.18905e-20 6.80798e-06)
(0.0784593 -0.0466694 -8.29022e-19 -0.0784688 -1.79477e-20 9.52948e-06)
(0.0527428 -0.0381232 -9.49655e-19 -0.0527538 -3.23668e-19 1.0948e-05)
(0.0313748 -0.0301663 6.86438e-19 -0.0313855 -5.86724e-19 1.07044e-05)
(0.0149727 -0.0243916 1.5964e-18 -0.014981 -1.35566e-18 8.32457e-06)
(0.00365596 -0.0205239 8.8001e-19 -0.00365937 9.96329e-19 3.40865e-06)
(0.150161 -0.0181344 -9.3491e-20 -0.150164 -2.36537e-20 3.00783e-06)
(0.123429 -0.0192529 -2.37934e-19 -0.123436 -9.88096e-20 6.91217e-06)
(0.0933011 -0.0169113 -8.75629e-20 -0.0933107 2.69961e-19 9.6743e-06)
(0.0661753 -0.0139882 1.85065e-19 -0.0661864 3.32559e-19 1.11102e-05)
(0.0431983 -0.0112274 3.88695e-19 -0.0432091 2.14888e-20 1.08548e-05)
(0.0257318 -0.00923764 5.92442e-19 -0.0257402 -9.18436e-19 8.43046e-06)
(0.0137404 -0.0079106 -3.89637e-20 -0.0137438 -4.42142e-19 3.44288e-06)
(0.150161 0.0181344 -9.53683e-20 -0.150164 6.82596e-20 2.93795e-06)
(0.123429 0.0192529 -1.55575e-19 -0.123436 1.83112e-19 6.75246e-06)
(0.0933012 0.0169112 -1.22029e-21 -0.0933107 1.49068e-19 9.45008e-06)
(0.0661755 0.0139876 1.57296e-19 -0.0661864 -6.14844e-19 1.0849e-05)
(0.0431987 0.0112261 2.04174e-19 -0.0432093 -2.39604e-19 1.05924e-05)
(0.0257325 0.00923509 1.11102e-20 -0.0257407 -5.42385e-19 8.21651e-06)
(0.0137416 0.00790565 -7.96709e-20 -0.0137449 9.11579e-22 3.34717e-06)
(0.139514 0.0522272 -4.89606e-20 -0.139517 1.47945e-19 2.75539e-06)
(0.108341 0.0538809 -2.35172e-20 -0.108348 2.63424e-19 6.3342e-06)
(0.0784597 0.0466692 -3.19603e-19 -0.0784686 -1.7763e-20 8.86434e-06)
(0.0527436 0.0381227 -1.27793e-18 -0.0527538 -1.73937e-19 1.01732e-05)
(0.0313761 0.0301652 3.54701e-19 -0.031386 -3.17075e-19 9.92548e-06)
(0.0149747 0.0243896 5.80179e-19 -0.0149824 -1.62935e-18 7.68916e-06)
(0.00365928 0.0205199 -5.41947e-20 -0.0036624 -6.93179e-19 3.12374e-06)
(0.120274 0.0803741 1.45873e-20 -0.120276 3.03273e-20 2.46766e-06)
(0.082233 0.0780822 1.01067e-19 -0.0822387 1.04085e-19 5.67406e-06)
(0.053141 0.0655412 9.19524e-20 -0.0531489 -1.68566e-19 7.94035e-06)
(0.0300659 0.0519966 -6.26403e-19 -0.030075 1.31242e-19 9.1097e-06)
(0.0116102 0.0397357 -1.08443e-18 -0.011619 -1.06724e-18 8.88095e-06)
(-0.00283519 0.0307151 -3.40856e-18 0.00282832 -1.08914e-18 6.86998e-06)
(-0.0128984 0.0246271 -3.50623e-19 0.0128956 6.20975e-19 2.78239e-06)
(0.0959123 0.100362 5.28993e-20 -0.0959144 -3.98803e-20 2.08506e-06)
(0.0519049 0.0885252 7.03043e-20 -0.0519097 -5.0471e-20 4.79615e-06)
(0.0246271 0.0701884 -7.23215e-20 -0.0246338 -2.79713e-19 6.71183e-06)
(0.00511743 0.0525479 -6.60199e-19 -0.00512512 -1.40321e-19 7.69705e-06)
(-0.00964297 0.0372099 -1.22958e-18 0.00963547 -2.33698e-19 7.4962e-06)
(-0.021537 0.0257004 -2.2395e-18 0.0215312 2.11029e-18 5.7877e-06)
(-0.0299394 0.0178508 8.45819e-19 0.0299371 4.67987e-19 2.33432e-06)
(0.0702667 0.111999 5.09826e-20 -0.0702683 -2.75834e-20 1.62266e-06)
(0.0246778 0.086033 4.42042e-20 -0.0246815 -4.1813e-20 3.73445e-06)
(0.0007118 0.0617646 -1.73197e-19 -0.000717026 -9.50378e-20 5.22619e-06)
(-0.0146636 0.0410444 -6.73425e-19 0.0146576 1.17343e-19 5.9897e-06)
(-0.0255192 0.0238878 -8.38848e-19 0.0255134 1.00865e-18 5.82479e-06)
(-0.0345987 0.0106942 1.61745e-18 0.0345942 1.43082e-18 4.48451e-06)
(-0.0411232 0.00158224 6.48424e-19 0.0411214 -9.81297e-19 1.79759e-06)
(0.0464145 0.11693 -1.46358e-20 -0.0464156 4.75766e-20 1.09738e-06)
(0.00603569 0.075139 8.50772e-20 -0.00603822 3.06085e-21 2.52829e-06)
(-0.0128571 0.0454224 -8.62007e-20 0.0128536 1.64235e-20 3.53838e-06)
(-0.0238456 0.0225994 -8.10271e-20 0.0238415 6.8874e-20 4.05061e-06)
(-0.0310484 0.00464132 -8.53973e-19 0.0310445 1.00716e-18 3.92777e-06)
(-0.0373272 -0.00953555 2.41212e-18 0.0373242 -1.08818e-19 3.00728e-06)
(-0.0419205 -0.0194544 -1.74735e-18 0.0419193 -1.24821e-19 1.19068e-06)
(0.0258494 0.117867 8.77896e-20 -0.02585 8.91677e-21 5.29753e-07)
(-0.0020807 0.062417 2.77168e-19 0.00207947 -8.60678e-20 1.22425e-06)
(-0.0142259 0.0284876 -4.68054e-19 0.0142242 -4.58286e-20 1.71346e-06)
(-0.0207868 0.00440125 -1.29553e-18 0.0207849 2.84989e-19 1.9544e-06)
(-0.0248153 -0.0137427 -9.16618e-19 0.0248134 1.04308e-18 1.87838e-06)
(-0.0284612 -0.0283984 1.2591e-18 0.0284598 3.86881e-19 1.41339e-06)
(-0.0311698 -0.0387649 5.50446e-19 0.0311692 -5.4427e-20 5.37787e-07)
(0.00822965 0.117507 3.49579e-20 -0.00822959 5.33266e-21 -5.91974e-08)
(-0.00176113 0.054154 -1.37668e-19 0.00176126 -1.5215e-20 -1.28895e-07)
(-0.00595534 0.0179201 -2.3788e-19 0.00595552 1.08037e-19 -1.80353e-07)
(-0.00813299 -0.00674721 -4.13646e-19 0.00813322 3.56812e-19 -2.20724e-07)
(-0.00941877 -0.0248612 -4.32827e-19 0.00941902 7.47596e-19 -2.47473e-07)
(-0.0106096 -0.0396935 6.08236e-19 0.0106098 4.2649e-19 -2.38796e-07)
(-0.0115024 -0.0502514 3.13478e-19 0.0115025 -7.97752e-20 -1.38003e-07)
(-0.00822735 0.117507 2.83192e-20 0.008228 1.19956e-20 -6.46361e-07)
(0.00176399 0.0541541 -1.38723e-19 -0.00176251 1.87524e-20 -1.47861e-06)
(0.00595862 0.0179202 2.07906e-20 -0.00595655 2.73321e-19 -2.0696e-06)
(0.00813665 -0.00674724 -3.17541e-19 -0.00813426 3.83443e-19 -2.39038e-06)
(0.00942271 -0.0248613 -1.19265e-19 -0.00942034 5.03809e-19 -2.36696e-06)
(0.0106135 -0.0396937 -5.38193e-20 -0.0106116 2.89435e-19 -1.88444e-06)
(0.0115058 -0.0502517 1.87175e-19 -0.011505 -9.9149e-21 -8.09456e-07)
(-0.0258473 0.117867 4.9216e-20 0.0258485 1.19012e-20 -1.20982e-06)
(0.00208343 0.0624173 1.56615e-19 -0.00208065 4.44619e-20 -2.77395e-06)
(0.0142291 0.0284877 4.7188e-19 -0.0142252 4.16214e-19 -3.88293e-06)
(0.0207905 0.00440118 -1.16258e-18 -0.020786 3.64327e-19 -4.47269e-06)
(0.0248193 -0.013743 -1.8511e-19 -0.0248149 3.91323e-19 -4.4005e-06)
(0.0284653 -0.028399 -4.19935e-19 -0.0284618 9.29575e-20 -3.4623e-06)
(0.0311735 -0.0387657 1.99938e-19 -0.031172 -1.68746e-20 -1.45236e-06)
(-0.0464126 0.11693 1.18984e-19 0.0464143 3.11602e-20 -1.72724e-06)
(-0.00603318 0.0751394 1.83685e-19 0.00603715 -1.08117e-20 -3.96411e-06)
(0.0128601 0.0454225 5.41321e-19 -0.0128546 1.40821e-19 -5.54921e-06)
(0.0238492 0.0225993 3.97944e-19 -0.0238428 3.36973e-19 -6.38581e-06)
(0.0310525 0.00464095 3.77746e-19 -0.0310462 8.48189e-19 -6.26766e-06)
(0.0373315 -0.00953626 -2.04686e-18 -0.0373266 7.58847e-19 -4.90931e-06)
(0.0419246 -0.0194554 -2.56222e-19 -0.0419226 -8.32003e-20 -2.04019e-06)
(-0.0702649 0.111999 3.65517e-21 0.0702671 -5.77386e-20 -2.17921e-06)
(-0.0246755 0.0860334 4.35087e-20 0.0246805 -6.86702e-20 -5.00383e-06)
(-0.000708988 0.0617648 7.84631e-20 0.000715993 -1.02944e-19 -7.00495e-06)
(0.014667 0.0410443 1.3109e-19 -0.014659 -7.58063e-20 -8.05681e-06)
(0.0255232 0.0238875 4.31904e-19 -0.0255153 -3.24824e-19 -7.89755e-06)
(0.0346032 0.0106936 1.75485e-18 -0.034597 8.79863e-19 -6.17096e-06)
(0.0411277 0.00158126 1.32649e-18 -0.0411251 5.79455e-19 -2.55152e-06)
(-0.0959106 0.100362 -2.1829e-20 0.0959132 -1.00045e-19 -2.54754e-06)
(-0.0519028 0.0885255 -1.07001e-20 0.0519087 -9.53829e-20 -5.85175e-06)
(-0.0246246 0.0701885 -5.02299e-20 0.0246327 -2.35825e-19 -8.19212e-06)
(-0.00511421 0.0525478 7.3544e-20 0.00512363 -3.15454e-19 -9.41885e-06)
(0.00964686 0.0372095 7.8895e-19 -0.00963764 -1.51016e-18 -9.22437e-06)
(0.0215415 0.0256999 3.90124e-18 -0.0215343 1.2124e-19 -7.19557e-06)
(0.0299442 0.01785 -1.06985e-18 -0.0299412 -4.89264e-19 -2.96449e-06)
(-0.120272 0.0803746 -5.12804e-21 0.120275 -9.14938e-20 -2.81845e-06)
(-0.0822311 0.0780824 -5.07546e-20 0.0822376 -7.78007e-20 -6.47553e-06)
(-0.0531386 0.0655411 -2.58724e-19 0.0531477 -4.10205e-19 -9.06529e-06)
(-0.0300629 0.0519964 -1.14606e-19 0.0300733 -7.32479e-19 -1.04197e-05)
(-0.0116065 0.0397353 4.3386e-19 0.0116167 -1.29197e-18 -1.01975e-05)
(0.00283953 0.0307147 1.8897e-18 -0.00283159 -8.52986e-19 -7.94439e-06)
(0.0129031 0.0246265 -1.56187e-18 -0.0128998 3.09532e-19 -3.26419e-06)
(-0.139513 0.0522278 -8.5633e-21 0.139516 -2.30447e-20 -2.98069e-06)
(-0.10834 0.053881 -1.62941e-19 0.108347 -7.18959e-20 -6.84971e-06)
(-0.0784575 0.046669 -8.29027e-19 0.0784671 -1.79331e-20 -9.58869e-06)
(-0.0527408 0.0381223 -9.49652e-19 0.0527519 -3.2363e-19 -1.1018e-05)
(-0.0313727 0.0301648 6.86479e-19 0.0313834 -5.86693e-19 -1.0776e-05)
(-0.0149707 0.0243891 1.5964e-18 0.0149791 -1.35572e-18 -8.38521e-06)
(-0.00365479 0.0205194 8.79944e-19 0.00365822 9.9631e-19 -3.43674e-06)
(-0.150159 0.0181352 -9.34894e-20 0.150162 -2.36548e-20 -3.02842e-06)
(-0.123427 0.019253 -2.37932e-19 0.123434 -9.88088e-20 -6.96024e-06)
(-0.0932991 0.0169109 -8.7563e-20 0.0933089 2.69971e-19 -9.74255e-06)
(-0.0661729 0.0139871 1.85064e-19 0.0661841 3.32574e-19 -1.11912e-05)
(-0.0431955 0.0112254 3.88708e-19 0.0432064 2.15055e-20 -1.09384e-05)
(-0.0257286 0.00923445 5.92435e-19 0.0257371 -9.18471e-19 -8.50197e-06)
(-0.0137373 0.00790508 -3.90197e-20 0.0137407 -4.42161e-19 -3.47662e-06)
)
;

boundaryField
{
    out
    {
        type            mySigma;
    }
    in
    {
        type            mySigma;
    }
    frontAndBack
    {
        type            empty;
    }
}


// ************************************************************************* //
