/*--------------------------------*- C++ -*----------------------------------*\
| =========                 |                                                 |
| \\      /  F ield         | foam-extend: Open Source CFD                    |
|  \\    /   O peration     | Version:  3.0                                   |
|   \\  /    A nd           | Web:         http://www.extend-project.de       |
|    \\/     M anipulation  |                                                 |
\*---------------------------------------------------------------------------*/
FoamFile
{
    version     2.0;
    format      ascii;
    class       volVectorField;
    location    "23";
    object      u;
}
// * * * * * * * * * * * * * * * * * * * * * * * * * * * * * * * * * * * * * //

dimensions      [0 0 0 0 0 0 0];

internalField   nonuniform List<vector> 
224
(
(0.38296 -0.135748 1.55983e-18)
(0.655494 -0.0827834 6.63287e-18)
(0.842307 -0.0518374 -4.58612e-18)
(0.906055 -0.0333965 -7.50057e-18)
(0.98455 -0.0185818 -7.48533e-18)
(0.978602 -0.0112089 2.28527e-18)
(1.02388 0.00166525 -2.69183e-18)
(0.486847 -0.386545 4.05942e-19)
(0.718843 -0.235714 -9.09765e-19)
(0.88197 -0.147583 -1.38532e-17)
(0.931602 -0.0950622 3.7385e-17)
(0.998757 -0.0528668 -7.9759e-18)
(0.987163 -0.0318631 -1.81591e-17)
(1.02258 0.00481458 -2.13312e-17)
(0.678802 -0.578497 -6.75792e-18)
(0.835895 -0.352761 -4.55218e-18)
(0.955254 -0.220862 -1.72555e-17)
(0.978803 -0.142258 -5.47219e-18)
(1.025 -0.0791063 -2.30159e-17)
(1.00298 -0.0476696 6.86136e-17)
(1.02018 0.00722655 1.83232e-17)
(0.929603 -0.682379 -3.88968e-18)
(0.988828 -0.416106 -2.96947e-18)
(1.051 -0.260519 -5.51719e-18)
(1.04047 -0.167799 -8.73272e-20)
(1.05929 -0.0933052 -1.52347e-18)
(1.02364 -0.0562221 2.96197e-17)
(1.01704 0.00853441 -4.31958e-17)
(1.20107 -0.682376 -1.70551e-18)
(1.15436 -0.416103 -1.86936e-18)
(1.15464 -0.260517 -2.73073e-18)
(1.10722 -0.167795 -2.96955e-19)
(1.0964 -0.0933018 1.31255e-17)
(1.046 -0.0562178 -4.15456e-17)
(1.01364 0.00853913 -3.69234e-18)
(1.45187 -0.578489 1.23311e-18)
(1.30729 -0.352754 -1.46051e-18)
(1.25039 -0.220854 -3.12425e-18)
(1.16889 -0.142249 -9.39902e-18)
(1.13069 -0.0790961 1.36951e-17)
(1.06665 -0.0476575 -3.93367e-17)
(1.01049 0.00724112 4.26025e-17)
(1.64382 -0.386534 -8.25444e-19)
(1.42434 -0.235702 -3.69736e-18)
(1.32367 -0.14757 3.31201e-18)
(1.21609 -0.0950478 9.32674e-18)
(1.15693 -0.0528508 9.1128e-18)
(1.08246 -0.0318435 -1.58889e-17)
(1.00809 0.00483832 -5.61539e-18)
(1.7477 -0.135733 -1.34111e-19)
(1.48769 -0.0827688 -4.146e-19)
(1.36333 -0.0518212 3.42824e-18)
(1.24163 -0.0333781 3.00267e-18)
(1.17114 -0.0185605 5.46703e-18)
(1.09102 -0.0111833 -6.87006e-18)
(1.00679 0.00169801 -1.71877e-18)
(1.7477 0.135731 9.45303e-19)
(1.48769 0.0827652 5.96734e-19)
(1.36332 0.0518159 4.37777e-18)
(1.24163 0.0333724 -1.68107e-18)
(1.17114 0.0185542 2.84602e-18)
(1.09102 0.011179 -4.73432e-18)
(1.00679 -0.00170146 4.27482e-19)
(1.64382 0.386531 2.22405e-18)
(1.42434 0.235698 2.599e-18)
(1.32366 0.147564 7.41459e-18)
(1.21608 0.0950413 -1.13825e-17)
(1.15693 0.052844 3.9402e-18)
(1.08246 0.0318387 -4.63548e-18)
(1.00809 -0.00484121 5.98017e-18)
(1.45186 0.578485 4.66277e-18)
(1.30729 0.352748 3.21646e-18)
(1.25038 0.220846 8.05817e-18)
(1.16888 0.142241 5.61523e-18)
(1.13069 0.0790885 1.03557e-17)
(1.06665 0.0476518 -3.70698e-17)
(1.0105 -0.00724327 -5.66852e-18)
(1.20106 0.68237 1.46427e-18)
(1.15436 0.416094 1.10063e-18)
(1.15463 0.260507 -9.55465e-20)
(1.10722 0.167786 -1.13208e-18)
(1.0964 0.0932932 -6.21088e-18)
(1.04599 0.0562107 3.19818e-18)
(1.01364 -0.00854092 3.70145e-17)
(0.929598 0.682369 -7.84518e-19)
(0.988823 0.416095 7.46482e-19)
(1.051 0.260508 -9.72574e-19)
(1.04047 0.167788 -9.96027e-20)
(1.05929 0.0932953 -2.2071e-17)
(1.02363 0.0562136 7.35872e-17)
(1.01704 -0.00853678 -8.32099e-18)
(0.678798 0.578485 -3.7522e-18)
(0.835891 0.352749 2.22598e-18)
(0.955249 0.22085 -4.8542e-19)
(0.978798 0.142246 1.15855e-17)
(1.025 0.0790955 -2.78157e-17)
(1.00297 0.0476598 6.12268e-17)
(1.02018 -0.00723071 -7.77577e-17)
(0.486844 0.386531 2.01448e-18)
(0.718841 0.235701 8.86589e-18)
(0.881967 0.14757 -1.14458e-17)
(0.931598 0.0950497 -2.9621e-17)
(0.998752 0.0528554 -1.80801e-17)
(0.987159 0.0318523 1.88469e-17)
(1.02258 -0.00482154 3.34334e-17)
(0.382959 0.135732 -9.86589e-19)
(0.655494 0.0827695 -5.50815e-18)
(0.842306 0.0518245 7.24253e-19)
(0.906053 0.0333844 8.25047e-18)
(0.984547 0.0185703 -9.76271e-19)
(0.978599 0.0111977 1.13251e-17)
(1.02388 -0.00167546 5.23891e-19)
(0.382959 -0.135731 -1.56035e-18)
(0.655493 -0.0827619 -6.63332e-18)
(0.842304 -0.0518097 4.58536e-18)
(0.90605 -0.033362 7.49976e-18)
(0.984544 -0.0185402 7.48465e-18)
(0.978595 -0.0111594 -2.28586e-18)
(1.02387 0.00172877 2.69099e-18)
(0.486843 -0.38653 -4.06358e-19)
(0.718838 -0.235693 9.09299e-19)
(0.881961 -0.147555 1.38521e-17)
(0.93159 -0.095028 -3.73847e-17)
(0.998742 -0.0528264 7.97521e-18)
(0.987147 -0.0318152 1.81577e-17)
(1.02256 0.00487311 2.13299e-17)
(0.678796 -0.578483 6.7575e-18)
(0.835885 -0.352742 4.55162e-18)
(0.95524 -0.220836 1.72546e-17)
(0.978785 -0.142226 5.47138e-18)
(1.02498 -0.0790684 2.30149e-17)
(1.00295 -0.0476253 -6.8613e-17)
(1.02015 0.007279 -1.83229e-17)
(0.929594 -0.682367 3.88919e-18)
(0.988814 -0.416088 2.96888e-18)
(1.05098 -0.260496 5.51648e-18)
(1.04045 -0.16777 8.66585e-20)
(1.05926 -0.0932716 1.52265e-18)
(1.0236 -0.0561827 -2.96189e-17)
(1.017 0.00857971 4.31937e-17)
(1.20106 -0.682367 1.70505e-18)
(1.15434 -0.416089 1.86878e-18)
(1.15462 -0.260498 2.73007e-18)
(1.10719 -0.167772 2.96314e-19)
(1.09637 -0.0932734 -1.31262e-17)
(1.04596 -0.0561852 4.15456e-17)
(1.01359 0.00857711 3.69109e-18)
(1.45185 -0.578483 -1.23346e-18)
(1.30727 -0.352744 1.45996e-18)
(1.25036 -0.22084 3.12357e-18)
(1.16886 -0.142231 9.39831e-18)
(1.13065 -0.0790745 -1.36953e-17)
(1.06661 -0.0476323 3.93353e-17)
(1.01044 0.00727046 -4.26031e-17)
(1.6438 -0.38653 8.24998e-19)
(1.42432 -0.235697 3.69682e-18)
(1.32364 -0.147562 -3.31274e-18)
(1.21605 -0.0950365 -9.32736e-18)
(1.15689 -0.0528362 -9.11353e-18)
(1.08242 -0.0318273 1.58882e-17)
(1.00803 0.00485837 5.61505e-18)
(1.74769 -0.135733 1.3357e-19)
(1.48767 -0.0827673 4.14033e-19)
(1.3633 -0.0518184 -3.42885e-18)
(1.24159 -0.0333733 -3.00317e-18)
(1.17109 -0.0185542 -5.4675e-18)
(1.09097 -0.0111761 6.86939e-18)
(1.00672 0.0017066 1.71795e-18)
(1.74768 0.135729 -9.45861e-19)
(1.48767 0.0827621 -5.97289e-19)
(1.3633 0.0518137 -4.37844e-18)
(1.24159 0.0333701 1.68043e-18)
(1.17109 0.0185527 -2.84654e-18)
(1.09097 0.011176 4.73355e-18)
(1.00672 -0.00170524 -4.28236e-19)
(1.6438 0.386525 -2.22455e-18)
(1.42432 0.235691 -2.59953e-18)
(1.32364 0.147557 -7.41552e-18)
(1.21605 0.095033 1.13821e-17)
(1.15689 0.0528342 -3.94072e-18)
(1.08241 0.0318264 4.63445e-18)
(1.00802 -0.00485909 -5.9809e-18)
(1.45185 0.578476 -4.66329e-18)
(1.30727 0.352737 -3.21708e-18)
(1.25036 0.220835 -8.05881e-18)
(1.16886 0.142227 -5.61597e-18)
(1.13065 0.0790713 -1.03561e-17)
(1.06661 0.0476299 3.70682e-17)
(1.01043 -0.00727479 5.66794e-18)
(1.20105 0.682358 -1.46489e-18)
(1.15434 0.416081 -1.10132e-18)
(1.15461 0.260491 9.4822e-20)
(1.10719 0.167767 1.13135e-18)
(1.09637 0.0932686 6.21033e-18)
(1.04595 0.0561807 -3.1981e-18)
(1.01358 -0.0085856 -3.70155e-17)
(0.929586 0.682355 7.83913e-19)
(0.98881 0.416079 -7.47179e-19)
(1.05098 0.260489 9.7184e-19)
(1.04045 0.167763 9.88405e-20)
(1.05926 0.093265 2.20706e-17)
(1.0236 0.0561761 -7.35885e-17)
(1.01699 -0.00859184 8.31961e-18)
(0.678789 0.578469 3.75173e-18)
(0.835881 0.352731 -2.22666e-18)
(0.955238 0.220827 4.84664e-19)
(0.978783 0.142218 -1.15865e-17)
(1.02498 0.0790601 2.78162e-17)
(1.00295 0.0476168 -6.12298e-17)
(1.02015 -0.00729331 7.77592e-17)
(0.486838 0.386515 -2.01502e-18)
(0.718835 0.235681 -8.8666e-18)
(0.881959 0.147545 1.14452e-17)
(0.93159 0.0950185 2.9621e-17)
(0.998742 0.0528165 1.80801e-17)
(0.987146 0.0318052 -1.88481e-17)
(1.02256 -0.00488771 -3.3435e-17)
(0.382957 0.135715 9.86033e-19)
(0.655491 0.0827485 5.50762e-18)
(0.842304 0.0517976 -7.24918e-19)
(0.90605 0.033351 -8.25117e-18)
(0.984545 0.0185293 9.75942e-19)
(0.978596 0.0111484 -1.13261e-17)
(1.02387 -0.00174181 -5.24871e-19)
)
;

boundaryField
{
    out
    {
        type            fixedValue;
        value           uniform (1 0 0);
    }
    in
    {
        type            myVelocity;
    }
    frontAndBack
    {
        type            empty;
    }
}


// ************************************************************************* //
