/*--------------------------------*- C++ -*----------------------------------*\
| =========                 |                                                 |
| \\      /  F ield         | foam-extend: Open Source CFD                    |
|  \\    /   O peration     | Version:  3.0                                   |
|   \\  /    A nd           | Web:         http://www.extend-project.de       |
|    \\/     M anipulation  |                                                 |
\*---------------------------------------------------------------------------*/
FoamFile
{
    version     2.0;
    format      ascii;
    class       volSymmTensorField;
    location    "1.5";
    object      sigma;
}
// * * * * * * * * * * * * * * * * * * * * * * * * * * * * * * * * * * * * * //

dimensions      [0 0 0 0 0 0 0];

internalField   nonuniform List<symmTensor> 
300
(
(-2.63029e+14 5.22878e+14 -0.00520437 2.26902e+14 -0.00177112 0.00182183)
(6.11348e+14 -7.53251e+13 -0.00543324 -5.07849e+14 0.00130669 0.00212754)
(-3.34108e+14 1.67706e+14 0.0153253 1.82154e+14 0.0239018 -0.0158669)
(-3.23203e+14 6.88997e+13 0.0542075 -9.45256e+12 0.0556314 -0.0455744)
(9.48296e+13 -1.69751e+12 0.0767281 -3.57194e+14 0.0627751 -0.0574837)
(-8.75863e+12 1.03208e+13 0.0280061 2.2713e+13 -0.0019153 -0.00422236)
(1.39876e+14 1.06856e+12 -0.130388 -2.52565e+13 -0.166997 0.142453)
(2.71145e+13 1.05839e+13 -0.351139 9.07384e+12 -0.379662 0.328329)
(5.40773e+13 3.35134e+11 -0.42351 -6.36807e+12 -0.449228 0.358554)
(1.8264e+13 7.82583e+12 0.0334295 6.88078e+11 -0.0318366 -0.100221)
(1.29251e+14 -1.35009e+14 -0.00396691 -5.04927e+13 -0.0023072 0.00253632)
(3.90355e+13 -1.89373e+14 -0.0082196 -8.76399e+13 -0.00231553 0.00555927)
(-1.29761e+14 1.38948e+14 0.0123982 1.95246e+13 0.0234863 -0.0140103)
(-2.12265e+14 1.82304e+14 0.0680159 6.99885e+13 0.0746864 -0.0621554)
(1.06368e+14 -4.37295e+13 0.125067 -6.64145e+13 0.113628 -0.107432)
(7.52881e+11 9.99962e+13 0.0677253 1.39414e+13 0.030488 -0.0382892)
(5.54013e+13 7.31504e+12 -0.299052 -1.93819e+13 -0.348742 0.333445)
(1.44442e+13 4.25503e+13 -1.08538 3.69266e+12 -1.10794 1.11257)
(1.86001e+13 6.06737e+12 -1.82069 -4.96632e+12 -1.79113 1.82642)
(4.70388e+12 1.17927e+13 -0.398934 -1.19702e+12 -0.448931 0.384858)
(4.50332e+13 -6.15681e+13 -0.00442903 -3.57024e+11 -0.00330203 0.00300852)
(1.29584e+14 -8.438e+13 -0.0129512 -1.22034e+14 -0.00708382 0.0092048)
(6.07732e+13 9.95268e+13 0.0043756 -9.19821e+13 0.0168116 -0.00719223)
(-5.2235e+13 1.54884e+14 0.0727239 -4.75425e+13 0.0821855 -0.0678867)
(6.48662e+12 1.33985e+13 0.191345 4.42189e+13 0.181382 -0.175367)
(-9.38916e+11 2.56442e+13 0.27279 5.19785e+12 0.228774 -0.250851)
(2.54107e+13 1.40105e+13 0.0853916 2.07458e+13 0.0186295 -0.0735562)
(9.94043e+12 8.09052e+12 -0.656842 3.64595e+12 -0.687509 0.643605)
(1.30736e+13 7.12961e+12 -1.70708 6.36251e+12 -1.63631 1.6724)
(6.43798e+12 1.09836e+12 -0.389137 1.44567e+12 -0.433879 0.365115)
(2.51858e+13 1.32247e+13 -0.00463488 1.35741e+13 -0.00409083 0.00320763)
(7.48316e+12 5.63633e+13 -0.016213 -1.19499e+12 -0.0107234 0.0120426)
(4.53976e+11 9.27326e+13 -0.0075818 -1.30801e+13 0.00569915 0.00357983)
(-3.87854e+13 8.38213e+13 0.049186 -4.64633e+12 0.0631829 -0.0455089)
(1.55114e+13 1.66871e+13 0.166894 -8.14309e+12 0.164046 -0.149376)
(-1.54939e+13 3.60679e+13 0.27918 1.84755e+13 0.239336 -0.251113)
(8.12646e+12 9.88653e+12 0.162563 2.53913e+12 0.0912497 -0.142488)
(-3.02737e+12 1.6263e+13 -0.517718 9.30983e+12 -0.553462 0.505926)
(3.50527e+12 4.52905e+12 -1.62638 1.2702e+12 -1.53233 1.58048)
(-8.34758e+11 4.76589e+12 -0.365193 2.07286e+12 -0.405335 0.335804)
(2.169e+12 -8.697e+12 -0.00421779 4.39829e+13 -0.00437015 0.00306995)
(1.89921e+13 2.92615e+13 -0.0172752 9.87144e+12 -0.0127864 0.0128389)
(1.74801e+13 5.60029e+13 -0.0147914 -2.34006e+12 -0.00117291 0.00940043)
(-6.69428e+12 6.63259e+13 0.0313751 -1.23156e+13 0.0482806 -0.0294895)
(2.61251e+12 1.35539e+13 0.138878 1.81873e+13 0.140638 -0.121688)
(-2.25482e+12 1.43559e+13 0.25389 4.95118e+12 0.215332 -0.220925)
(5.02006e+12 6.89165e+12 0.161403 1.2306e+13 0.0827753 -0.130045)
(1.78136e+12 4.47475e+12 -0.488403 3.79938e+12 -0.53497 0.487825)
(3.10574e+12 3.24825e+12 -1.60585 4.78562e+12 -1.50166 1.55845)
(2.06234e+12 8.60684e+11 -0.358284 1.31237e+12 -0.394342 0.327411)
(-1.65135e+12 4.58698e+12 -0.00382761 2.17531e+13 -0.00432681 0.00275644)
(-1.87509e+13 3.46113e+13 -0.0165977 3.29193e+13 -0.0129279 0.0123331)
(-1.44328e+13 4.27114e+13 -0.0170772 2.16568e+13 -0.0039914 0.0109303)
(-1.87934e+13 3.90213e+13 0.0224127 9.13787e+12 0.0406178 -0.022659)
(-1.28259e+11 1.49455e+13 0.122652 4.2319e+12 0.127202 -0.107326)
(-1.18195e+13 1.36468e+13 0.236967 1.26333e+13 0.198416 -0.201457)
(-4.22748e+11 5.6044e+12 0.155174 4.31734e+12 0.068396 -0.113803)
(-4.50557e+12 5.47188e+12 -0.480957 6.65766e+12 -0.539571 0.493017)
(-6.06422e+10 2.14428e+12 -1.60374 1.92588e+12 -1.49439 1.557)
(-1.2765e+12 1.55324e+12 -0.357197 1.77991e+12 -0.388973 0.326435)
(-2.54792e+12 -9.76195e+12 -0.00324105 2.81041e+13 -0.00411945 0.00242092)
(-2.12877e+12 1.33826e+13 -0.0157629 2.60331e+13 -0.0125498 0.0113885)
(-2.69731e+11 2.12029e+13 -0.017465 1.86419e+13 -0.00470756 0.0104247)
(-4.97173e+12 2.69467e+13 0.0184868 6.83403e+12 0.0376512 -0.02105)
(2.08611e+12 7.81007e+12 0.11482 9.87692e+12 0.121795 -0.102102)
(-1.6018e+12 7.14795e+12 0.22932 4.96982e+12 0.191579 -0.192998)
(1.51312e+12 3.20984e+12 0.15486 6.2632e+12 0.0620464 -0.105201)
(1.92626e+11 2.21617e+12 -0.474086 2.76849e+12 -0.542784 0.498186)
(8.52242e+11 1.35155e+12 -1.60475 2.68707e+12 -1.4915 1.55871)
(7.0672e+11 5.14983e+11 -0.356821 8.67047e+11 -0.383306 0.326847)
(-5.14536e+12 -1.45342e+12 -0.00277453 1.50391e+13 -0.00397377 0.00214336)
(-1.76247e+13 1.00956e+13 -0.0146319 2.82644e+13 -0.0122228 0.010503)
(-1.50787e+13 1.35497e+13 -0.0170992 2.27421e+13 -0.00498128 0.009425)
(-1.39254e+13 1.41154e+13 0.0163529 1.3358e+13 0.036579 -0.0213537)
(-3.8885e+12 6.8212e+12 0.110469 6.7649e+12 0.120201 -0.100864)
(-7.24734e+12 4.2616e+12 0.226205 7.93753e+12 0.190389 -0.190095)
(-1.83145e+12 2.28859e+12 0.158081 3.51716e+12 0.0621025 -0.101682)
(-2.94168e+12 1.41197e+12 -0.465924 3.7923e+12 -0.541611 0.500854)
(-6.84466e+11 7.60845e+11 -1.60584 1.45264e+12 -1.48879 1.55999)
(-8.21274e+11 3.37265e+11 -0.355996 1.01686e+12 -0.375962 0.327205)
(-7.83406e+11 -8.56698e+12 -0.00238024 1.45068e+13 -0.00383839 0.00194173)
(-3.03196e+12 1.36993e+12 -0.0136831 1.85982e+13 -0.0120369 0.00985241)
(-2.25677e+12 4.85218e+12 -0.0167544 1.53377e+13 -0.00528717 0.00862711)
(-3.82245e+12 8.98232e+12 0.0146914 9.15648e+12 0.035662 -0.0218735)
(8.80497e+11 3.29996e+12 0.107059 6.42661e+12 0.119378 -0.10064)
(-8.97619e+11 2.86297e+12 0.224028 3.93316e+12 0.191163 -0.188964)
(5.77731e+11 1.35807e+12 0.1617 3.40734e+12 0.0653492 -0.099997)
(-1.59456e+10 9.40085e+11 -0.458147 1.81961e+12 -0.537522 0.502468)
(2.87857e+11 5.39626e+11 -1.60722 1.46353e+12 -1.48643 1.56101)
(2.55234e+11 2.60639e+11 -0.354762 5.4218e+11 -0.367108 0.327445)
(-3.26998e+12 -3.12165e+12 -0.0020743 8.00075e+12 -0.00373218 0.00180166)
(-1.03999e+13 -6.46809e+11 -0.012934 1.68057e+13 -0.0118223 0.00944137)
(-9.75596e+12 1.16961e+12 -0.0166443 1.47259e+13 -0.00587732 0.00824862)
(-8.78033e+12 2.65227e+12 0.0128771 9.91176e+12 0.0340735 -0.0219191)
(-3.58772e+12 1.58486e+12 0.103399 5.35574e+12 0.117875 -0.100056)
(-3.99547e+12 4.30162e+11 0.221144 4.53904e+12 0.191815 -0.187639)
(-1.5132e+12 4.1935e+11 0.163624 2.29696e+12 0.0695044 -0.0981104)
(-1.57582e+12 -1.10243e+10 -0.452589 1.94372e+12 -0.53237 0.504564)
(-5.53986e+11 8.78269e+10 -1.60982 8.72022e+11 -1.48552 1.56275)
(-4.20202e+11 -4.53792e+10 -0.353478 4.82734e+11 -0.357341 0.327864)
(1.01722e+12 -5.97394e+12 -0.00178175 6.30731e+12 -0.00358469 0.00169823)
(-6.68552e+11 -2.43297e+12 -0.0122958 9.91826e+12 -0.0117827 0.00921134)
(-7.1598e+11 -5.71948e+11 -0.0167227 8.74388e+12 -0.00694725 0.0083299)
(-1.90779e+12 1.95779e+12 0.0108066 6.33566e+12 0.0315632 -0.021211)
(3.66724e+11 9.11705e+11 0.0990463 4.00768e+12 0.114977 -0.0984852)
(-3.88025e+11 8.4927e+11 0.216648 2.60856e+12 0.19111 -0.185174)
(2.50581e+11 4.55022e+11 0.16272 1.93159e+12 0.0731907 -0.0950245)
(-6.34018e+09 3.19999e+11 -0.450394 1.1273e+12 -0.527434 0.507925)
(1.16487e+11 1.88254e+11 -1.61441 8.09918e+11 -1.48713 1.56593)
(9.56377e+10 1.13845e+11 -0.352904 3.31906e+11 -0.347809 0.328996)
(-1.33064e+12 -2.68818e+12 -0.00155147 3.54132e+12 -0.00342717 0.00160613)
(-4.71487e+12 -3.3748e+12 -0.0116636 8.22004e+12 -0.0117683 0.00908816)
(-4.82139e+12 -2.53264e+12 -0.0169546 7.58735e+12 -0.00840779 0.0088849)
(-4.44198e+12 -1.28558e+12 0.00828211 5.45232e+12 0.0279345 -0.019551)
(-2.16158e+12 -6.15473e+11 0.093862 3.13919e+12 0.110365 -0.095608)
(-1.91895e+12 -7.90844e+11 0.210417 2.27081e+12 0.188712 -0.181343)
(-8.74845e+11 -3.30333e+11 0.15913 1.24439e+12 0.076235 -0.0910592)
(-7.26166e+11 -3.86102e+11 -0.450585 8.90879e+11 -0.522028 0.511171)
(-3.07799e+11 -1.49959e+11 -1.61946 4.36684e+11 -1.49039 1.56891)
(-1.81252e+11 -1.19909e+11 -0.354626 1.91949e+11 -0.341106 0.331719)
(1.68164e+12 -3.50001e+12 -0.0013206 2.22352e+12 -0.00318893 0.00150201)
(8.44443e+11 -2.47841e+12 -0.0110228 4.41393e+12 -0.0117335 0.00898756)
(4.66791e+11 -1.49228e+12 -0.0174617 4.15714e+12 -0.0103423 0.00994153)
(-5.10359e+11 -1.85043e+11 0.00500915 3.46019e+12 0.0230441 -0.0166636)
(2.90428e+11 -1.93091e+10 0.0875919 2.26082e+12 0.103928 -0.0912443)
(-7.68625e+10 8.26076e+10 0.203278 1.53298e+12 0.185168 -0.17695)
(1.41924e+11 6.78497e+10 0.155703 1.08545e+12 0.0808925 -0.0892342)
(2.02239e+10 5.82907e+10 -0.446676 6.66567e+11 -0.510253 0.507379)
(5.66989e+10 4.03196e+10 -1.61477 4.53175e+11 -1.48602 1.5614)
(3.70113e+10 3.94719e+10 -0.35962 2.00282e+11 -0.340684 0.336037)
(-2.72049e+11 -1.7508e+12 -0.00105974 1.27768e+12 -0.00289239 0.00136381)
(-1.52779e+12 -3.03188e+12 -0.0102394 3.34214e+12 -0.0115088 0.00879959)
(-1.75833e+12 -2.72602e+12 -0.018291 3.18321e+12 -0.0126835 0.0115036)
(-1.71699e+12 -1.89408e+12 0.000461235 2.34561e+12 0.0165133 -0.0120907)
(-9.19866e+11 -1.09047e+12 0.0798372 1.42067e+12 0.0955213 -0.0850765)
(-7.2755e+11 -9.01301e+11 0.197465 9.26342e+11 0.182528 -0.174287)
(-3.64762e+11 -4.69794e+11 0.160703 5.3667e+11 0.0940533 -0.0977556)
(-2.63243e+11 -3.7637e+11 -0.421407 3.36988e+11 -0.476421 0.479101)
(-1.22611e+11 -1.77948e+11 -1.56924 1.72957e+11 -1.4425 1.51264)
(-6.04519e+10 -9.96015e+10 -0.343317 5.47792e+10 -0.322773 0.321689)
(1.5599e+12 -1.74817e+12 -0.000778468 5.23122e+11 -0.00247686 0.00117127)
(1.25301e+12 -1.55477e+12 -0.00924697 1.66489e+12 -0.0109483 0.00837167)
(8.42112e+11 -1.09323e+12 -0.0193022 1.73774e+12 -0.015322 0.0134297)
(1.48799e+11 -5.24207e+11 -0.00617156 1.64768e+12 0.00769896 -0.0051503)
(2.95877e+11 -2.34375e+11 0.0688507 1.16088e+12 0.0839833 -0.0756749)
(7.42936e+10 -1.25326e+11 0.195433 8.22331e+11 0.183654 -0.176017)
(1.09799e+11 -5.97573e+10 0.190948 5.85097e+11 0.130282 -0.132569)
(3.7877e+10 -3.20029e+10 -0.341198 3.74327e+11 -0.392598 0.394456)
(3.65618e+10 -1.48181e+10 -1.43476 2.4967e+11 -1.31032 1.37357)
(1.65133e+10 5.45243e+09 -0.143852 1.17565e+11 -0.0935468 0.136916)
(1.24872e+11 -9.65565e+11 -0.00046316 3.15952e+11 -0.001949 0.000911397)
(-1.12477e+11 -1.98326e+12 -0.00783875 1.01404e+12 -0.00984661 0.00751695)
(-2.68781e+11 -1.91363e+12 -0.0200076 9.64857e+11 -0.0177325 0.0152191)
(-3.63392e+11 -1.42064e+12 -0.0154635 6.993e+11 -0.00402591 0.00469045)
(-1.94314e+11 -8.77118e+11 0.0498459 4.33286e+11 0.0650739 -0.0586818)
(-1.432e+11 -6.50868e+11 0.192249 2.42871e+11 0.185738 -0.177968)
(-7.12219e+10 -3.66474e+11 0.268227 1.47413e+11 0.211699 -0.213708)
(-4.3874e+10 -2.59358e+11 -0.136823 7.50105e+10 -0.203775 0.195335)
(-2.04703e+10 -1.31457e+11 -1.26023 3.83176e+10 -1.17706 1.21175)
(-7.8911e+09 -6.20828e+10 -0.528822 -9.03955e+08 -0.489182 0.525973)
(1.14014e+12 -7.23172e+11 -0.000129932 -2.74957e+10 -0.00132169 0.000591278)
(1.07088e+12 -7.37584e+11 -0.00593767 5.25462e+11 -0.00803087 0.00608764)
(7.52548e+11 -5.69556e+11 -0.0193771 6.61926e+11 -0.0187625 0.0158142)
(3.23719e+11 -3.75126e+11 -0.0261271 7.20657e+11 -0.0176965 0.0162579)
(2.61618e+11 -1.95876e+11 0.0157692 5.56699e+11 0.0310441 -0.0272819)
(1.18017e+11 -1.29698e+11 0.15648 4.12344e+11 0.160041 -0.151219)
(9.24019e+10 -7.49772e+10 0.36517 2.99589e+11 0.323432 -0.319045)
(4.36527e+10 -4.8005e+10 0.394511 1.98578e+11 0.304272 -0.316992)
(2.93278e+10 -2.75092e+10 -0.0993534 1.3221e+11 -0.1369 0.123253)
(1.02684e+10 -7.05988e+09 -0.0534585 6.58838e+10 -0.0549986 0.06204)
(1.96125e+11 -4.67503e+11 0.000181276 -1.32137e+10 -0.00066447 0.000254008)
(3.41784e+11 -1.07973e+12 -0.00363039 9.00209e+10 -0.00553323 0.00413636)
(2.72113e+11 -1.08428e+12 -0.0161231 5.19529e+10 -0.0168304 0.0138852)
(1.48661e+11 -8.20258e+11 -0.0322755 1.24285e+10 -0.0275161 0.0240763)
(1.08775e+11 -5.2798e+11 -0.0281637 -4.25588e+09 -0.0156315 0.0145203)
(7.89038e+10 -3.7114e+11 0.0342529 -3.5769e+10 0.0470841 -0.043565)
(5.11114e+10 -2.17901e+11 0.161423 -2.09509e+10 0.154867 -0.149328)
(3.70989e+10 -1.44351e+11 0.245461 -2.62602e+10 0.207779 -0.208891)
(2.04618e+10 -7.55305e+10 0.0831966 -1.60116e+10 0.0546402 -0.0629008)
(9.55805e+09 -3.1433e+10 0.0274331 -1.74002e+10 0.0202468 -0.0199188)
(7.15958e+11 -2.15599e+11 0.000384709 -1.20077e+11 -0.000109249 -2.01052e-05)
(7.22511e+11 -2.54804e+11 -0.00137221 1.436e+11 -0.00282833 0.00207367)
(5.19096e+11 -2.27373e+11 -0.0102482 2.48831e+11 -0.0115318 0.00926515)
(2.84232e+11 -1.9234e+11 -0.0258629 3.06746e+11 -0.0241461 0.0204396)
(1.94703e+11 -1.14331e+11 -0.0369653 2.59353e+11 -0.0295451 0.0259486)
(1.06446e+11 -8.58575e+10 -0.020996 1.98817e+11 -0.00982442 0.00863201)
(7.23033e+10 -5.50846e+10 0.0343627 1.47096e+11 0.039946 -0.0382486)
(3.96409e+10 -3.82146e+10 0.0889018 9.99755e+10 0.0799855 -0.0791457)
(2.4159e+10 -2.35603e+10 0.0499444 6.67106e+10 0.038885 -0.0420517)
(8.24235e+09 -9.19987e+09 0.0181568 3.49e+10 0.0142094 -0.0148625)
(1.54641e+11 -1.99456e+11 0.000412652 -8.50093e+10 0.000232178 -0.000152623)
(3.7648e+11 -4.99097e+11 0.00019948 -1.77351e+11 -0.000729614 0.000517896)
(3.57639e+11 -5.1189e+11 -0.00462349 -2.1474e+11 -0.0058906 0.00444883)
(2.51708e+11 -3.8623e+11 -0.0150155 -1.8277e+11 -0.0150253 0.0120069)
(1.73424e+11 -2.53871e+11 -0.0263146 -1.33583e+11 -0.0230506 0.0190963)
(1.2134e+11 -1.71186e+11 -0.026616 -1.07054e+11 -0.0200303 0.0167122)
(7.57967e+10 -1.02639e+11 -0.00659017 -6.68201e+10 -0.000514205 -0.000955049)
(5.04562e+10 -6.47009e+10 0.0203314 -4.88512e+10 0.0208624 -0.0216155)
(2.75562e+10 -3.4101e+10 0.0165752 -2.83226e+10 0.0141407 -0.0162104)
(1.13418e+10 -1.22615e+10 0.00632335 -1.73664e+10 0.0050194 -0.00579364)
(3.99036e+11 -8.83689e+09 0.000285677 -7.82857e+10 0.000346445 -0.000130421)
(4.16511e+11 -3.7552e+10 0.000928291 5.16984e+10 0.00046316 -0.000311151)
(3.05059e+11 -6.22438e+10 -0.000738122 1.09852e+11 -0.0017968 0.000896014)
(1.91135e+11 -7.9129e+10 -0.00575557 1.37925e+11 -0.00662897 0.00421192)
(1.26461e+11 -5.54221e+10 -0.0125515 1.23319e+11 -0.0119717 0.00820438)
(7.71677e+10 -4.72441e+10 -0.0154785 9.52794e+10 -0.0128656 0.00871126)
(5.10953e+10 -3.30061e+10 -0.00915269 7.0704e+10 -0.00572312 0.00240137)
(3.07849e+10 -2.44025e+10 0.00238549 4.84033e+10 0.0043113 -0.00679391)
(1.85778e+10 -1.58286e+10 0.00473451 3.22045e+10 0.00507667 -0.00774222)
(6.86609e+09 -7.43349e+09 0.00165418 1.74391e+10 0.00151987 -0.0026753)
(9.67676e+10 -7.21874e+10 5.81593e-05 -7.36428e+10 0.000304638 9.23556e-06)
(2.78257e+11 -1.8591e+11 0.00106238 -1.89768e+11 0.000944119 -0.000551788)
(2.78988e+11 -1.90514e+11 0.00160739 -2.20135e+11 0.000689546 -0.00140992)
(2.03674e+11 -1.40359e+11 0.000776343 -1.78717e+11 -0.000649798 -0.00167771)
(1.40904e+11 -9.15206e+10 -0.00131435 -1.29703e+11 -0.00245798 -0.00134719)
(9.60397e+10 -5.83664e+10 -0.00249283 -9.46344e+10 -0.00263213 -0.00177014)
(6.03077e+10 -3.47983e+10 -0.000371821 -6.01414e+10 0.000542874 -0.00402098)
(3.86401e+10 -2.04954e+10 0.00395504 -4.06506e+10 0.00528943 -0.0069346)
(2.11286e+10 -1.04146e+10 0.00516855 -2.35192e+10 0.00648467 -0.00762796)
(7.92872e+09 -2.54947e+09 0.00161118 -1.22467e+10 0.00231646 -0.00415706)
(1.99623e+11 5.11065e+10 -0.000207744 -2.51074e+10 0.000191989 0.000221659)
(2.11335e+11 3.1631e+10 0.000929058 4.24899e+10 0.00107326 -0.000430066)
(1.59227e+11 -2.57359e+09 0.00327425 6.50923e+10 0.0023542 -0.00311146)
(1.11229e+11 -2.67383e+10 0.0058328 7.05165e+10 0.00381057 -0.00659291)
(7.45479e+10 -2.43827e+10 0.00770239 6.22322e+10 0.00523491 -0.00936809)
(4.9586e+10 -2.37273e+10 0.00893199 4.66767e+10 0.0069849 -0.0105096)
(3.32122e+10 -1.78349e+10 0.00972871 3.39805e+10 0.00909035 -0.00893266)
(2.15007e+10 -1.3821e+10 0.00978057 2.28797e+10 0.0108151 -0.0038603)
(1.31967e+10 -9.31274e+09 0.00863089 1.50013e+10 0.0111698 9.27438e-05)
(5.40523e+09 -4.93936e+09 0.00441509 8.21202e+09 0.00670523 -0.00829323)
(5.30882e+10 -1.80392e+10 -0.000475947 -4.63846e+10 7.42862e-05 0.000480008)
(1.70117e+11 -4.09833e+10 0.000754907 -1.30939e+11 0.00114213 -8.46794e-05)
(1.74214e+11 -3.92364e+10 0.00510257 -1.51492e+11 0.00405491 -0.00483004)
(1.27109e+11 -2.58493e+10 0.0111598 -1.20544e+11 0.00830216 -0.0120604)
(8.80623e+10 -1.43414e+10 0.0163877 -8.78105e+10 0.0125752 -0.0173843)
(5.84268e+10 -6.88951e+09 0.0185621 -6.15342e+10 0.015495 -0.0156403)
(3.67825e+10 -3.20698e+09 0.0158125 -3.94938e+10 0.0149346 -0.00263208)
(2.2804e+10 -8.58362e+08 0.00784157 -2.56946e+10 0.0094734 0.0231242)
(1.23702e+10 1.71658e+08 0.000924788 -1.48571e+10 0.00440565 0.0483035)
(4.11624e+09 1.21395e+09 0.0082269 -7.07514e+09 0.0119055 0.00595834)
(8.97055e+10 5.33188e+10 -0.000733881 7.50691e+09 -1.65539e-05 0.000778116)
(9.58973e+10 3.86499e+10 0.000628482 4.42026e+10 0.0013198 0.000483152)
(7.63879e+10 1.06225e+10 0.00767025 4.64752e+10 0.00646064 -0.00686526)
(5.97282e+10 -7.33079e+09 0.0183779 4.10312e+10 0.0143494 -0.0196309)
(4.16626e+10 -1.0623e+10 0.0266805 3.34871e+10 0.0211348 -0.0280598)
(2.99151e+10 -1.15088e+10 0.0252492 2.36273e+10 0.0216621 -0.0156949)
(2.05006e+10 -9.15584e+09 0.00880135 1.65078e+10 0.0101108 0.0302736)
(1.40399e+10 -7.24306e+09 -0.0226003 1.06695e+10 -0.0179576 0.106146)
(8.81354e+09 -5.00798e+09 -0.0520792 6.78131e+09 -0.0503709 0.1863)
(3.97473e+09 -2.89177e+09 -0.0103048 3.62475e+09 -0.0134584 0.190477)
(2.68314e+10 2.75479e+09 -0.00098544 -2.34923e+10 -7.56128e-05 0.0011188)
(9.05754e+10 1.4969e+10 0.000507968 -6.98271e+10 0.00164776 0.00137729)
(9.27964e+10 1.82805e+10 0.0111938 -8.24253e+10 0.00998108 -0.00901517)
(6.63555e+10 1.62082e+10 0.0289555 -6.47594e+10 0.0234745 -0.0304884)
(4.54762e+10 1.36622e+10 0.041233 -4.74984e+10 0.0330483 -0.0467269)
(2.91207e+10 1.06424e+10 0.0273581 -3.24641e+10 0.0232107 -0.015886)
(1.81839e+10 7.4648e+09 -0.0281661 -2.09691e+10 -0.0204147 0.109038)
(1.0802e+10 5.29104e+09 -0.11807 -1.32899e+10 -0.100949 0.302856)
(5.68972e+09 3.36272e+09 -0.205709 -7.66869e+09 -0.201552 0.346042)
(1.4805e+09 1.97681e+09 -0.204951 -3.42402e+09 -0.237175 -0.199257)
(3.62225e+10 4.12791e+10 -0.00123559 2.03519e+10 -0.000113851 0.00149404)
(4.08354e+10 2.9746e+10 0.000268434 4.10837e+10 0.00206597 0.002702)
(3.64236e+10 1.09276e+10 0.0154113 3.45528e+10 0.0146534 -0.0104626)
(3.23435e+10 -1.74785e+08 0.0439392 2.59024e+10 0.0371129 -0.0440668)
(2.38242e+10 -4.09709e+09 0.065227 1.89571e+10 0.0529114 -0.0810869)
(1.81388e+10 -5.05335e+09 0.0302637 1.23943e+10 0.0226026 -0.0458208)
(1.26536e+10 -4.31046e+09 -0.113966 8.15825e+09 -0.0985093 0.211581)
(8.96257e+09 -3.43465e+09 -0.338331 4.95887e+09 -0.29098 0.812712)
(5.7042e+09 -2.44627e+09 -0.399738 2.98428e+09 -0.354647 1.43194)
(2.75823e+09 -1.51363e+09 0.174188 1.48632e+09 0.140075 0.263012)
(1.37946e+10 9.87227e+09 -0.00147146 -9.13422e+09 -0.000143493 0.00186456)
(4.38615e+10 3.10793e+10 -0.000185546 -2.50627e+10 0.0024822 0.00438081)
(4.36559e+10 3.37576e+10 0.0194917 -3.21038e+10 0.0199843 -0.0101154)
(3.04513e+10 2.67223e+10 0.0625401 -2.4886e+10 0.0554763 -0.0556503)
(2.02437e+10 1.98651e+10 0.105511 -1.86872e+10 0.0882182 -0.128293)
(1.23475e+10 1.37518e+10 0.0623885 -1.25607e+10 0.0437154 -0.157996)
(7.48942e+09 9.04027e+09 -0.223965 -8.24142e+09 -0.218122 0.0413222)
(4.11919e+09 5.78623e+09 -0.867175 -5.12059e+09 -0.807691 0.708571)
(1.97157e+09 3.39098e+09 -1.51001 -2.96851e+09 -1.41431 1.62221)
(1.16998e+08 1.59713e+09 -0.295228 -1.22812e+09 -0.31123 0.34288)
(1.29905e+10 3.17884e+10 -0.00164138 2.09961e+10 -0.000158778 0.00215696)
(2.22564e+10 2.47312e+10 -0.000741769 3.22932e+10 0.00289884 0.00599157)
(2.22594e+10 1.45791e+10 0.022411 2.61597e+10 0.0250912 -0.00803569)
(2.30313e+10 7.89545e+09 0.0799272 1.70308e+10 0.0752096 -0.0585867)
(1.77465e+10 3.02276e+09 0.157418 1.14637e+10 0.13858 -0.149661)
(1.39388e+10 1.06365e+09 0.167882 6.8199e+09 0.136387 -0.216606)
(9.68142e+09 -1.24648e+07 -0.0842321 4.24416e+09 -0.109493 -0.0599125)
(6.81035e+09 -3.68688e+08 -0.815382 2.36567e+09 -0.801811 0.613708)
(4.21993e+09 -5.56504e+08 -1.74694 1.29633e+09 -1.68244 1.64852)
(2.01739e+09 -7.14304e+08 -0.392868 5.17846e+08 -0.421596 0.353148)
(1.00975e+10 1.09607e+10 -0.00165938 -5.62509e+09 -0.000211153 0.00230274)
(3.10682e+10 4.94027e+10 -0.000979853 -5.14061e+09 0.00302253 0.00690998)
(2.8259e+10 5.8284e+10 0.0242331 -4.29974e+09 0.0281674 -0.00685503)
(2.33704e+10 4.56061e+10 0.0896645 -2.82217e+09 0.0874946 -0.060806)
(1.62762e+10 3.38142e+10 0.182557 -1.75684e+09 0.167514 -0.161407)
(1.13425e+10 2.25822e+10 0.207207 -9.6844e+08 0.179078 -0.237551)
(7.33289e+09 1.47341e+10 -0.0592047 -5.02095e+08 -0.0876613 -0.0642469)
(4.62778e+09 9.00799e+09 -0.871695 -2.37439e+08 -0.880756 0.688867)
(2.52658e+09 4.96073e+09 -1.94436 -8.50069e+07 -1.92655 1.8524)
(7.57509e+08 1.95871e+09 -0.518416 -2.62431e+07 -0.56123 0.520032)
)
;

boundaryField
{
    frontAndBack
    {
        type            empty;
    }
    symm
    {
        type            symmetryPlane;
    }
    in
    {
        type            mySigma;
    }
    out
    {
        type            mySigma;
    }
}


// ************************************************************************* //
