/*--------------------------------*- C++ -*----------------------------------*\
| =========                 |                                                 |
| \\      /  F ield         | foam-extend: Open Source CFD                    |
|  \\    /   O peration     | Version:  3.0                                   |
|   \\  /    A nd           | Web:         http://www.extend-project.de       |
|    \\/     M anipulation  |                                                 |
\*---------------------------------------------------------------------------*/
FoamFile
{
    version     2.0;
    format      ascii;
    class       volVectorField;
    location    "1.5";
    object      u;
}
// * * * * * * * * * * * * * * * * * * * * * * * * * * * * * * * * * * * * * //

dimensions      [0 0 0 0 0 0 0];

internalField   nonuniform List<vector> 
300
(
(7.05861e+16 -4.09943e+16 -0.15953)
(3.53556e+15 5.23706e+16 0.0409046)
(-1.00137e+16 -1.16945e+16 0.0974291)
(1.80173e+16 5.38842e+15 0.0433049)
(-6.5637e+14 1.74827e+16 -0.126698)
(7.38929e+15 1.28428e+15 -0.329733)
(-1.83569e+15 -6.63561e+14 -0.535353)
(2.26623e+15 3.41521e+14 -0.478509)
(-7.65262e+14 -2.03166e+14 0.162948)
(1.01057e+15 1.23634e+13 1.50369)
(-2.41301e+15 7.39032e+15 0.0121332)
(-4.49931e+14 -3.28397e+15 0.0243136)
(-3.15416e+14 -4.53778e+15 0.0108782)
(2.19036e+15 -5.95989e+15 -0.0487932)
(6.7282e+14 5.9438e+15 -0.119129)
(-5.92276e+14 -1.68626e+15 -0.177562)
(2.92556e+14 1.96103e+15 -0.0956245)
(-4.22577e+14 -5.64764e+14 0.17818)
(2.02008e+14 5.27731e+14 0.605051)
(-2.88711e+14 -5.77687e+12 1.11892)
(-5.72649e+15 1.92237e+15 0.0113052)
(1.12413e+16 3.47447e+15 0.00124026)
(3.07673e+15 1.53093e+15 -0.0159623)
(-8.63883e+13 1.9001e+15 -0.068123)
(-7.03348e+14 -1.78436e+15 -0.154096)
(1.28947e+15 9.15693e+14 -0.196381)
(-4.4076e+14 -7.01362e+14 -0.0700049)
(6.69577e+14 3.39391e+14 0.353152)
(-2.65494e+14 -2.30986e+14 0.738504)
(4.01817e+14 8.67186e+13 1.17037)
(-3.5569e+15 5.05658e+15 -0.000185792)
(-1.92442e+15 7.15597e+14 0.0440864)
(-8.37363e+14 3.53275e+14 0.00344276)
(7.18232e+14 -1.75635e+15 -0.0411397)
(-2.87666e+14 1.89791e+15 -0.139273)
(-1.13052e+14 -7.29957e+14 -0.225677)
(-4.78913e+13 7.40278e+14 -0.121246)
(-1.12204e+14 -2.53331e+14 0.340115)
(2.61835e+13 2.28428e+14 0.794865)
(-1.08275e+14 -1.19203e+13 1.24838)
(2.26245e+15 -2.3262e+15 0.0157591)
(2.58951e+15 8.43461e+14 -0.0120861)
(1.43043e+15 6.01461e+14 0.0075791)
(2.67023e+14 7.04906e+14 -0.0383388)
(4.83334e+13 -4.89208e+14 -0.15562)
(4.08244e+14 4.25766e+14 -0.246513)
(-7.5227e+13 -2.49044e+14 -0.159535)
(2.18789e+14 1.75884e+14 0.300446)
(-7.56093e+13 -1.00513e+14 0.814911)
(1.42358e+14 6.43936e+13 1.2969)
(-2.24915e+15 2.38917e+15 0.0141262)
(-1.48897e+15 4.808e+14 0.0490303)
(-7.97344e+14 4.05601e+14 0.0102901)
(8.20933e+13 -5.1717e+14 -0.0468397)
(-3.17741e+14 6.12285e+14 -0.146813)
(-9.29675e+12 -2.64962e+14 -0.250083)
(-9.18288e+13 2.56113e+14 -0.183845)
(-2.12762e+13 -9.73747e+13 0.263217)
(-1.44001e+13 8.64829e+13 0.821873)
(-3.79262e+13 -8.82907e+12 1.3303)
(1.47545e+15 -1.13716e+15 0.012986)
(1.21529e+15 3.61643e+14 0.0134193)
(7.84177e+14 3.01841e+14 0.0186117)
(2.67595e+14 3.2929e+14 -0.0379248)
(1.42357e+14 -1.01808e+14 -0.14366)
(1.59294e+14 1.99711e+14 -0.252598)
(1.21893e+13 -7.40396e+13 -0.197891)
(7.53328e+13 8.51247e+13 0.229464)
(-1.56705e+13 -3.7456e+13 0.821228)
(4.83273e+13 3.60944e+13 1.35318)
(-1.41544e+15 1.10545e+15 0.0118672)
(-1.00227e+15 1.85298e+14 0.0183127)
(-5.95916e+14 1.80586e+14 0.000621112)
(-9.30882e+13 -1.76011e+14 -0.0347799)
(-2.21357e+14 1.83878e+14 -0.136459)
(-1.44848e+13 -9.70711e+13 -0.247463)
(-6.76568e+13 8.0674e+13 -0.209728)
(-5.96395e+12 -3.64155e+13 0.195763)
(-1.58673e+13 2.96315e+13 0.815193)
(-1.40347e+13 -4.98746e+12 1.36558)
(9.21304e+14 -5.20388e+14 0.0108748)
(6.78771e+14 2.11335e+14 0.0105664)
(4.53602e+14 1.95769e+14 0.0134426)
(1.86982e+14 1.88365e+14 -0.0315291)
(1.11634e+14 7.84155e+12 -0.131191)
(7.17718e+13 1.00495e+14 -0.241393)
(2.28429e+13 -1.39642e+13 -0.217804)
(2.78323e+13 4.14627e+13 0.160981)
(-1.03616e+11 -1.1809e+13 0.799366)
(1.60083e+13 1.81295e+13 1.36704)
(-8.79035e+14 4.75764e+14 0.00987466)
(-6.3023e+14 2.35342e+13 0.0251235)
(-3.92771e+14 3.02864e+13 0.012828)
(-1.09085e+14 -8.46661e+13 -0.0276028)
(-1.3485e+14 3.99252e+13 -0.118639)
(-1.92958e+13 -4.21099e+13 -0.233765)
(-4.07876e+13 2.01326e+13 -0.223561)
(-4.18615e+12 -1.51289e+13 0.124819)
(-1.05274e+13 8.70971e+12 0.775194)
(-5.81104e+12 -2.8146e+12 1.35646)
(5.68527e+14 -2.14291e+14 0.00879914)
(3.94277e+14 1.52459e+14 0.011552)
(2.5874e+14 1.44972e+14 0.0134433)
(1.12348e+14 1.19888e+14 -0.0234015)
(6.96044e+13 3.38169e+13 -0.111619)
(3.43184e+13 5.51826e+13 -0.222007)
(1.67098e+13 4.25259e+12 -0.227171)
(1.09038e+13 2.11696e+13 0.0857536)
(2.46022e+12 -2.44151e+12 0.739867)
(5.23088e+12 8.7734e+12 1.33034)
(-5.33104e+14 1.75799e+14 0.0101309)
(-3.79188e+14 -4.80981e+13 0.016993)
(-2.36612e+14 -3.6591e+13 0.0132604)
(-8.13971e+13 -5.66874e+13 -0.0181259)
(-7.6269e+13 -5.87325e+12 -0.0991156)
(-1.6088e+13 -2.31922e+13 -0.20869)
(-2.24065e+13 8.27909e+11 -0.230027)
(-3.27422e+12 -7.60663e+12 0.0430507)
(-5.95612e+12 1.61206e+12 0.690042)
(-2.66203e+12 -1.7195e+12 1.27797)
(3.44728e+14 -6.82456e+13 0.00554525)
(2.26145e+14 1.17327e+14 0.0115654)
(1.40955e+14 1.08117e+14 0.015772)
(6.11466e+13 7.8533e+13 -0.0122079)
(3.81454e+13 3.34713e+13 -0.086738)
(1.60127e+13 3.21473e+13 -0.192679)
(9.52143e+12 7.92151e+12 -0.230387)
(4.24501e+12 1.13887e+13 -0.00269429)
(1.91e+12 5.22482e+11 0.626213)
(1.65648e+12 4.25964e+12 1.17955)
(-3.14377e+14 4.21784e+13 0.00532786)
(-2.18195e+14 -6.86934e+13 0.0142471)
(-1.31988e+14 -5.39076e+13 0.0170497)
(-5.05386e+13 -4.24857e+13 -0.00467743)
(-4.03483e+13 -1.69333e+13 -0.0715995)
(-1.04819e+13 -1.49755e+13 -0.174171)
(-1.14712e+13 -4.13035e+12 -0.229567)
(-2.13183e+12 -4.50357e+12 -0.0458253)
(-3.08238e+12 -4.76991e+11 0.576942)
(-1.27926e+12 -1.11267e+12 1.08887)
(2.04003e+14 -4.17256e+12 0.00363947)
(1.25067e+14 8.87497e+13 0.0118011)
(7.19451e+13 7.7315e+13 0.0181085)
(3.03534e+13 5.10299e+13 0.00357362)
(1.85646e+13 2.5904e+13 -0.0539934)
(6.76777e+12 1.9143e+13 -0.15487)
(4.54006e+12 6.96907e+12 -0.231756)
(1.44405e+12 6.33155e+12 -0.0932396)
(1.02219e+12 1.13687e+12 0.598468)
(4.61856e+11 2.10978e+12 1.66225)
(-1.79791e+14 -1.03179e+13 0.00200357)
(-1.19345e+14 -6.44229e+13 0.0102312)
(-6.82008e+13 -4.89092e+13 0.0195891)
(-2.76199e+13 -3.12702e+13 0.0137614)
(-1.97252e+13 -1.61605e+13 -0.0320315)
(-5.70728e+12 -1.01151e+13 -0.132395)
(-5.41464e+12 -4.39149e+12 -0.250528)
(-1.13664e+12 -2.87082e+12 -0.245774)
(-1.47125e+12 -8.64807e+11 0.129788)
(-6.07245e+11 -7.3105e+11 0.226758)
(1.17121e+14 1.92468e+13 0.000478997)
(6.55921e+13 6.42702e+13 0.0081323)
(3.35746e+13 5.25217e+13 0.0196579)
(1.33742e+13 3.24312e+13 0.0249584)
(7.71913e+12 1.78539e+13 -0.000873306)
(2.27161e+12 1.13634e+13 -0.0864715)
(1.71709e+12 5.00204e+12 -0.233393)
(2.75744e+11 3.55385e+12 -0.338472)
(4.09325e+11 9.96516e+11 -0.0856361)
(6.87728e+10 1.06608e+12 0.0252243)
(-9.93985e+13 -2.55968e+13 -0.00108754)
(-6.14384e+13 -5.09715e+13 0.0039794)
(-3.2203e+13 -3.70162e+13 0.0160684)
(-1.32979e+13 -2.18081e+13 0.0310047)
(-8.62592e+12 -1.21925e+13 0.0351165)
(-2.56461e+12 -6.71099e+12 0.0051154)
(-2.25947e+12 -3.38233e+12 -0.0765077)
(-4.67947e+11 -1.8395e+12 -0.171702)
(-6.29318e+11 -7.42491e+11 -0.0771177)
(-2.67663e+11 -4.73155e+11 -0.011318)
(6.48472e+13 2.38851e+13 -0.00118886)
(3.19539e+13 4.43694e+13 0.000670299)
(1.35703e+13 3.39737e+13 0.0089612)
(4.73196e+12 2.00508e+13 0.0233369)
(2.32112e+12 1.14194e+13 0.037275)
(2.71264e+11 6.63515e+12 0.036021)
(3.43506e+11 3.22915e+12 0.00331862)
(-1.60019e+11 1.98008e+12 -0.0527819)
(8.63208e+10 6.97804e+11 -0.0338617)
(-4.7333e+10 5.4565e+11 -0.0101761)
(-5.28601e+13 -2.551e+13 -0.00195354)
(-2.92295e+13 -3.64682e+13 -0.00245737)
(-1.33346e+13 -2.52577e+13 0.00249223)
(-5.35479e+12 -1.43675e+13 0.0118463)
(-3.08623e+12 -8.18494e+12 0.024142)
(-8.17423e+11 -4.27506e+12 0.0308069)
(-7.33671e+11 -2.27265e+12 0.0210377)
(-9.79947e+10 -1.1459e+12 -0.00572934)
(-2.19323e+11 -5.21065e+11 -0.00870183)
(-9.94632e+10 -2.96725e+11 -0.00447798)
(3.43791e+13 2.09953e+13 -0.00199356)
(1.39043e+13 2.92687e+13 -0.00346605)
(3.96188e+12 2.1013e+13 -0.00149863)
(7.50564e+11 1.20287e+13 0.00411367)
(-2.97913e+10 6.89602e+12 0.012596)
(-4.7742e+11 3.78331e+12 0.0194875)
(-2.10997e+11 1.93893e+12 0.0186443)
(-2.73286e+11 1.08324e+12 0.00779599)
(-4.92947e+10 4.35452e+11 0.0018994)
(-6.84664e+10 2.80459e+11 -0.000944812)
(-2.68187e+13 -2.03505e+13 -0.00203261)
(-1.23432e+13 -2.43096e+13 -0.00436506)
(-4.23598e+12 -1.60356e+13 -0.00293877)
(-1.42512e+12 -8.97755e+12 0.0012465)
(-5.87341e+11 -5.08124e+12 0.00781755)
(6.27522e+09 -2.59855e+12 0.0146446)
(-7.24149e+10 -1.4011e+12 0.0174911)
(6.8084e+10 -6.84658e+11 0.0143064)
(-3.82997e+10 -3.2844e+11 0.00917155)
(-2.20227e+10 -1.78897e+11 0.00241181)
(1.72658e+13 1.60245e+13 -0.00225247)
(4.8704e+12 1.8532e+13 -0.00425205)
(-1.21621e+11 1.24737e+13 -0.00259466)
(-8.00744e+11 6.99145e+12 0.00242945)
(-8.34273e+11 3.96237e+12 0.0101647)
(-6.46076e+11 2.09579e+12 0.0186159)
(-3.6035e+11 1.09733e+12 0.0245015)
(-2.57682e+11 5.77165e+11 0.025195)
(-8.69612e+10 2.50969e+11 0.020515)
(-5.99231e+10 1.43513e+11 0.0101109)
(-1.27874e+13 -1.45559e+13 -0.00276206)
(-4.11323e+12 -1.5347e+13 -0.00429975)
(-3.22194e+11 -9.6213e+12 -0.00108541)
(2.49496e+11 -5.34412e+12 0.0069036)
(3.66106e+11 -2.96413e+12 0.0187391)
(3.08617e+11 -1.5051e+12 0.0311628)
(1.614e+11 -8.07137e+11 0.0395847)
(1.18668e+11 -3.90026e+11 0.0403995)
(2.89255e+10 -1.91604e+11 0.0341567)
(8.80229e+09 -1.03325e+11 0.0264802)
(8.041e+12 1.13321e+13 -0.00360944)
(7.82566e+11 1.136e+13 -0.00441651)
(-1.48199e+12 7.14606e+12 0.00113994)
(-1.18639e+12 3.94556e+12 0.0144659)
(-9.38261e+11 2.17731e+12 0.0334376)
(-5.78911e+11 1.1251e+12 0.0513821)
(-3.37726e+11 5.88511e+11 0.0578086)
(-2.01751e+11 2.97612e+11 0.0446323)
(-8.19899e+10 1.35455e+11 0.0190929)
(-4.49117e+10 7.25345e+10 0.0216499)
(-5.52625e+12 -9.73769e+12 -0.00479065)
(-4.82555e+11 -9.29949e+12 -0.00452962)
(1.05631e+12 -5.51577e+12 0.00437841)
(7.87168e+11 -3.05105e+12 0.025143)
(6.05537e+11 -1.63961e+12 0.0546563)
(3.57091e+11 -8.32144e+11 0.0785952)
(2.04068e+11 -4.37792e+11 0.0712904)
(1.146e+11 -2.11363e+11 0.00411863)
(4.44038e+10 -1.04704e+11 -0.129778)
(1.74932e+10 -5.71811e+10 -0.342183)
(3.24647e+12 7.71427e+12 -0.006289)
(-7.85288e+11 6.91104e+12 -0.00430636)
(-1.64481e+12 4.03143e+12 0.00873302)
(-1.08452e+12 2.21431e+12 0.0391246)
(-7.79017e+11 1.16918e+12 0.0822525)
(-4.40589e+11 5.96998e+11 0.113401)
(-2.59628e+11 3.048e+11 0.0816758)
(-1.42536e+11 1.5065e+11 -0.0856257)
(-6.29814e+10 7.01545e+10 -0.454087)
(-3.10335e+10 3.68609e+10 -1.0503)
(-1.85255e+12 -6.22199e+12 -0.00777658)
(9.1329e+11 -5.5341e+12 -0.00380606)
(1.35343e+12 -3.08464e+12 0.0143384)
(8.42368e+11 -1.71751e+12 0.0563323)
(5.70214e+11 -8.82337e+11 0.115107)
(3.09524e+11 -4.51264e+11 0.154087)
(1.76993e+11 -2.29185e+11 0.107212)
(9.21201e+10 -1.11827e+11 -0.0779561)
(4.01054e+10 -5.55227e+10 -0.330765)
(1.80192e+10 -3.16719e+10 -0.642979)
(7.25682e+11 5.20397e+12 -0.00914251)
(-1.24101e+12 4.49424e+12 -0.00296909)
(-1.40135e+12 2.42185e+12 0.0206025)
(-8.48361e+11 1.39615e+12 0.0746395)
(-5.66374e+11 7.00988e+11 0.147445)
(-3.04741e+11 3.70258e+11 0.177947)
(-1.77324e+11 1.80923e+11 0.0519714)
(-9.30925e+10 9.19588e+10 -0.299938)
(-4.27306e+10 4.31977e+10 -0.537984)
(-2.13084e+10 2.71077e+10 -0.822253)
(1.70823e+11 -3.75692e+12 -0.00307809)
(4.7675e+11 -3.33309e+12 0.0296184)
(3.50285e+11 -1.69377e+12 0.103365)
(2.53007e+11 -1.02162e+12 0.212201)
(1.37898e+11 -4.96377e+11 0.278745)
(8.3966e+10 -2.72599e+11 0.107726)
(4.119e+10 -1.32156e+11 -0.586456)
(2.3016e+10 -6.97209e+10 -1.88005)
(8.93389e+09 -3.50262e+10 -2.62738)
(3.87419e+09 -2.53926e+10 -0.654309)
)
;

boundaryField
{
    frontAndBack
    {
        type            empty;
    }
    symm
    {
        type            symmetryPlane;
    }
    in
    {
        type            myVelocity;
    }
    out
    {
        type            fixedValue;
        value           uniform (1 0 0);
    }
}


// ************************************************************************* //
