/*--------------------------------*- C++ -*----------------------------------*\
| =========                 |                                                 |
| \\      /  F ield         | foam-extend: Open Source CFD                    |
|  \\    /   O peration     | Version:  3.0                                   |
|   \\  /    A nd           | Web:         http://www.extend-project.de       |
|    \\/     M anipulation  |                                                 |
\*---------------------------------------------------------------------------*/
FoamFile
{
    version     2.0;
    format      ascii;
    class       volScalarField;
    location    "1";
    object      p;
}
// * * * * * * * * * * * * * * * * * * * * * * * * * * * * * * * * * * * * * //

dimensions      [0 0 0 0 0 0 0];

internalField   nonuniform List<scalar> 
1920
(
-0.209212
-0.185661
-0.173755
-0.160348
-0.155035
-0.148769
-0.148352
-0.147937
-0.151632
-0.156373
-0.163447
-0.17242
-0.181693
-0.193186
-0.203048
-0.214526
-0.223382
-0.231962
-0.238562
-0.241547
-0.20833
-0.184876
-0.173018
-0.159672
-0.154381
-0.148144
-0.14773
-0.147317
-0.150997
-0.155713
-0.162756
-0.171687
-0.180919
-0.19236
-0.202181
-0.21361
-0.222429
-0.230973
-0.237546
-0.240519
-0.206527
-0.183276
-0.171527
-0.158297
-0.153055
-0.14687
-0.14646
-0.14605
-0.149698
-0.154376
-0.16136
-0.170217
-0.179372
-0.190716
-0.200453
-0.211783
-0.220526
-0.228995
-0.235512
-0.238459
-0.203866
-0.180913
-0.169313
-0.156255
-0.151081
-0.144978
-0.144574
-0.14417
-0.147772
-0.152389
-0.159282
-0.168022
-0.177058
-0.188255
-0.197866
-0.209049
-0.21768
-0.226041
-0.232474
-0.235383
-0.200312
-0.177762
-0.166367
-0.153537
-0.148454
-0.142457
-0.14206
-0.141664
-0.145204
-0.149742
-0.156516
-0.165107
-0.173986
-0.184989
-0.194432
-0.205422
-0.213902
-0.222117
-0.228438
-0.231296
-0.195915
-0.173858
-0.162713
-0.150166
-0.145196
-0.139331
-0.138945
-0.138558
-0.14202
-0.146459
-0.153084
-0.161486
-0.17017
-0.180931
-0.190168
-0.200917
-0.209212
-0.217247
-0.22343
-0.226225
-0.19067
-0.169206
-0.15836
-0.146149
-0.141313
-0.135606
-0.13523
-0.134855
-0.138225
-0.142547
-0.148995
-0.157173
-0.165625
-0.1761
-0.185089
-0.19555
-0.203623
-0.211443
-0.21746
-0.22018
-0.184614
-0.163831
-0.15333
-0.141508
-0.136827
-0.131302
-0.130939
-0.130576
-0.13384
-0.138024
-0.144269
-0.152187
-0.160372
-0.170514
-0.17922
-0.18935
-0.197168
-0.20474
-0.210567
-0.2132
-0.177766
-0.157754
-0.147644
-0.136261
-0.131753
-0.126434
-0.126086
-0.125738
-0.128881
-0.132912
-0.138925
-0.146551
-0.154432
-0.164199
-0.172581
-0.182335
-0.189862
-0.197153
-0.202764
-0.2053
-0.170155
-0.151
-0.141324
-0.130429
-0.126116
-0.121025
-0.120693
-0.12036
-0.12337
-0.127228
-0.132986
-0.140286
-0.147832
-0.157181
-0.165207
-0.174544
-0.181752
-0.188731
-0.194103
-0.19653
-0.16182
-0.143604
-0.134401
-0.124041
-0.11994
-0.115099
-0.114784
-0.114468
-0.117332
-0.121002
-0.126478
-0.133421
-0.140597
-0.149488
-0.157121
-0.166
-0.172854
-0.179492
-0.1846
-0.186908
-0.152786
-0.135587
-0.126899
-0.117118
-0.113248
-0.108678
-0.108382
-0.108084
-0.11079
-0.114256
-0.119428
-0.125984
-0.132762
-0.141158
-0.148367
-0.156752
-0.163226
-0.169494
-0.174318
-0.176497
-0.143104
-0.126995
-0.118858
-0.109698
-0.106073
-0.101794
-0.101517
-0.10124
-0.103774
-0.107021
-0.111866
-0.118007
-0.124356
-0.132219
-0.138971
-0.146824
-0.152888
-0.158758
-0.163277
-0.165318
-0.132802
-0.117853
-0.110303
-0.101803
-0.098441
-0.0944705
-0.0942155
-0.0939584
-0.0963121
-0.0993265
-0.103824
-0.109525
-0.115419
-0.122718
-0.128986
-0.136276
-0.141904
-0.147353
-0.151548
-0.153442
-0.121938
-0.108212
-0.101281
-0.0934771
-0.0903906
-0.0867459
-0.0865121
-0.0862773
-0.0884387
-0.0912074
-0.0953375
-0.100572
-0.105984
-0.112685
-0.118441
-0.125133
-0.130302
-0.135304
-0.139156
-0.140896
-0.110545
-0.098102
-0.0918194
-0.0847455
-0.0819491
-0.0786457
-0.0784355
-0.0782235
-0.0801848
-0.0826958
-0.0864422
-0.0911888
-0.0960974
-0.102175
-0.107395
-0.113464
-0.118151
-0.122687
-0.12618
-0.127758
-0.0986853
-0.0875774
-0.0819694
-0.0756556
-0.0731599
-0.0702121
-0.0700249
-0.0698366
-0.0715878
-0.0738302
-0.0771748
-0.0814124
-0.0857945
-0.0912196
-0.0958797
-0.101297
-0.105482
-0.109531
-0.11265
-0.114059
-0.0863964
-0.0766719
-0.0717635
-0.066237
-0.0640538
-0.0614741
-0.061312
-0.0611482
-0.0626832
-0.0646476
-0.0675778
-0.0712892
-0.075128
-0.0798792
-0.0839612
-0.0887056
-0.092371
-0.0959174
-0.0986491
-0.0998829
-0.0737424
-0.0654428
-0.061254
-0.0565383
-0.0546759
-0.0524752
-0.0523376
-0.0521988
-0.0535095
-0.0551868
-0.0576884
-0.0608564
-0.0641335
-0.0681887
-0.0716735
-0.0757228
-0.0788521
-0.0818792
-0.0842116
-0.0852656
-0.0607679
-0.053929
-0.0504786
-0.0465939
-0.0450613
-0.0432491
-0.0431376
-0.0430246
-0.0441066
-0.0454903
-0.0475539
-0.0501662
-0.0528691
-0.0562126
-0.0590865
-0.062425
-0.0650056
-0.0675013
-0.0694247
-0.0702941
-0.0475364
-0.0421872
-0.0394892
-0.0364523
-0.0352549
-0.0338388
-0.0337527
-0.0336656
-0.034513
-0.0355963
-0.0372116
-0.0392556
-0.0413712
-0.0439869
-0.0462365
-0.0488482
-0.0508684
-0.0528212
-0.0543272
-0.0550086
-0.0340986
-0.0302622
-0.0283288
-0.0261525
-0.0252963
-0.0242825
-0.0242233
-0.0241627
-0.0247729
-0.025552
-0.0267132
-0.0281814
-0.0297018
-0.0315802
-0.0331966
-0.0350719
-0.0365234
-0.0379257
-0.0390078
-0.039498
-0.0205158
-0.0182085
-0.0170475
-0.0157412
-0.0152292
-0.0146218
-0.0145885
-0.0145543
-0.0149236
-0.0153942
-0.0160952
-0.0169801
-0.0178976
-0.019029
-0.0200046
-0.0211341
-0.0220103
-0.0228554
-0.0235092
-0.0238063
-0.00684459
-0.00607647
-0.00569307
-0.00526234
-0.00509722
-0.00489897
-0.0048928
-0.0048855
-0.00501325
-0.00517406
-0.00541289
-0.00571173
-0.00602341
-0.00640435
-0.00673548
-0.00711544
-0.00741287
-0.00769773
-0.00792009
-0.00802251
0.00685727
0.00608287
0.00568718
0.00524034
0.00505845
0.00484683
0.00482684
0.00480764
0.00492297
0.00507334
0.00529873
0.00558825
0.00588459
0.00625693
0.00657215
0.00694433
0.00722708
0.00750418
0.00771395
0.00780633
0.0205278
0.0182144
0.0170412
0.015719
0.0151903
0.0145696
0.0145228
0.0144768
0.0148339
0.0152941
0.015982
0.0168576
0.0177601
0.018883
0.0198429
0.0209647
0.0218265
0.0226639
0.0233052
0.0235924
0.0341143
0.0302713
0.0283257
0.0261333
0.0252606
0.0242336
0.0241608
0.0240886
0.0246867
0.0254553
0.0266034
0.0280623
0.0295676
0.0314371
0.0330378
0.0349052
0.0363421
0.0377366
0.0388064
0.0392868
0.0475502
0.0421947
0.039485
0.0364323
0.035219
0.03379
0.033691
0.0335924
0.0344283
0.0355016
0.0371044
0.0391395
0.0412407
0.0438481
0.0460826
0.0486868
0.0506929
0.0526383
0.0541322
0.0548042
0.0607887
0.0539429
0.0504805
0.04658
0.0450315
0.0432065
0.0430823
0.0429581
0.0440287
0.0454024
0.0474536
0.0500566
0.052745
0.0560797
0.0589384
0.0622688
0.0648352
0.0673232
0.0692346
0.0700949
0.0737601
0.065454
0.0612541
0.0565231
0.0546459
0.0524329
0.0522834
0.0521339
0.0534343
0.0551021
0.0575924
0.0607518
0.0640156
0.0680627
0.0715334
0.0755752
0.0786912
0.0817112
0.0840321
0.0850774
0.0864239
0.0766922
0.0717724
0.0662304
0.0640326
0.0614408
0.0612671
0.0610929
0.0626178
0.0645728
0.0674918
0.0711942
0.0750196
0.079762
0.0838296
0.0885658
0.0922176
0.0957566
0.0984767
0.0997023
0.0987089
0.0875943
0.081976
0.0756475
0.0731385
0.0701792
0.0699818
0.0697836
0.0715261
0.0737597
0.0770947
0.081324
0.0856945
0.0911116
0.0957589
0.101169
0.105341
0.109384
0.112492
0.113893
0.110581
0.0981301
0.0918369
0.0847482
0.0819385
0.078624
0.0784038
0.0781825
0.0801352
0.0826378
0.0863746
0.0911128
0.0960094
0.102078
0.107285
0.113346
0.11802
0.122549
0.126032
0.127602
0.121969
0.108236
0.101296
0.0934781
0.09038
0.086725
0.0864829
0.0862393
0.0883939
0.0911548
0.0952772
0.100504
0.105906
0.1126
0.118344
0.12503
0.130187
0.135183
0.139025
0.140757
0.132847
0.117889
0.11033
0.101816
0.0984427
0.0944622
0.0941991
0.0939341
0.0962812
0.0992883
0.103779
0.109471
0.115355
0.122646
0.128902
0.136184
0.141801
0.147243
0.151427
0.153315
0.143143
0.127027
0.118883
0.10971
0.106075
0.101787
0.101504
0.101219
0.103749
0.106989
0.111829
0.117963
0.124304
0.13216
0.138902
0.146749
0.152802
0.158666
0.163176
0.165211
0.15284
0.135632
0.126936
0.117142
0.113263
0.108684
0.108382
0.108078
0.110779
0.114239
0.119406
0.125955
0.132726
0.141114
0.148313
0.15669
0.163153
0.169414
0.17423
0.176402
0.161868
0.143644
0.134436
0.124064
0.119956
0.115107
0.114788
0.114467
0.117328
0.120993
0.126465
0.133402
0.140573
0.149457
0.157082
0.165955
0.1728
0.179432
0.184533
0.186834
0.170217
0.151054
0.141371
0.130464
0.126145
0.121046
0.120711
0.120372
0.123381
0.127235
0.132989
0.140283
0.147824
0.157166
0.165183
0.174513
0.181712
0.188685
0.194049
0.196469
0.177824
0.157804
0.147689
0.136296
0.131784
0.126458
0.126108
0.125755
0.128899
0.132925
0.138937
0.146558
0.154436
0.164196
0.172572
0.18232
0.18984
0.197126
0.20273
0.205259
0.184683
0.163891
0.153386
0.141554
0.136868
0.131337
0.130974
0.130607
0.133872
0.138052
0.144296
0.15221
0.160392
0.170527
0.179226
0.189349
0.19716
0.204726
0.210546
0.213173
0.190737
0.169264
0.158415
0.146195
0.141357
0.135645
0.13527
0.134892
0.138264
0.142582
0.149031
0.157205
0.165655
0.176123
0.185109
0.195564
0.203631
0.211446
0.217457
0.220171
0.195988
0.173924
0.162777
0.150221
0.145249
0.13938
0.138995
0.138606
0.142071
0.146507
0.153134
0.161532
0.170214
0.18097
0.190202
0.200944
0.209233
0.217263
0.223439
0.226229
0.200386
0.177827
0.16643
0.153593
0.14851
0.14251
0.142117
0.141719
0.145263
0.149799
0.156575
0.165162
0.17404
0.185037
0.194477
0.205461
0.213937
0.222147
0.228463
0.231315
0.20394
0.180981
0.169382
0.156318
0.151145
0.145038
0.144638
0.144233
0.147839
0.152455
0.159351
0.168089
0.177124
0.188316
0.197923
0.209101
0.217727
0.226082
0.23251
0.235413
0.206606
0.183347
0.171597
0.158363
0.153123
0.146937
0.146532
0.146122
0.149775
0.154453
0.161439
0.170292
0.179446
0.190785
0.200518
0.211843
0.220582
0.229047
0.235559
0.238501
0.208402
0.184942
0.173089
0.15974
0.154455
0.148214
0.147806
0.147392
0.151077
0.155795
0.162841
0.171771
0.181004
0.19244
0.202258
0.21368
0.222495
0.231033
0.237602
0.24057
0.20929
0.18573
0.173828
0.160422
0.155115
0.148849
0.148439
0.148024
0.151725
0.156464
0.163541
0.172509
0.181782
0.193268
0.203128
0.2146
0.223453
0.232028
0.238626
0.241606
0.209298
0.185737
0.173834
0.160428
0.155121
0.148854
0.148445
0.148029
0.15173
0.156468
0.163545
0.172513
0.181786
0.193272
0.203132
0.214604
0.223456
0.232032
0.23863
0.241611
0.208393
0.184935
0.173084
0.159736
0.154453
0.148214
0.147806
0.147393
0.151079
0.155797
0.162844
0.171774
0.181007
0.192444
0.202262
0.213686
0.222501
0.23104
0.23761
0.240578
0.206612
0.183354
0.171605
0.158372
0.153133
0.146947
0.146543
0.146133
0.149787
0.154464
0.161451
0.170304
0.179458
0.190797
0.200531
0.211855
0.220595
0.229061
0.235575
0.238518
0.20393
0.180974
0.169378
0.156317
0.151147
0.145042
0.144644
0.14424
0.147847
0.152464
0.159361
0.168099
0.177136
0.188328
0.197936
0.209115
0.217742
0.226099
0.232529
0.235435
0.200391
0.177834
0.166439
0.153605
0.148525
0.142525
0.142134
0.141737
0.145281
0.149817
0.156594
0.16518
0.17406
0.185057
0.194498
0.205483
0.21396
0.222171
0.228489
0.231345
0.195977
0.173917
0.162774
0.150223
0.145255
0.139389
0.139006
0.138619
0.142085
0.146523
0.153151
0.161549
0.170233
0.180989
0.190224
0.200967
0.209258
0.217289
0.223469
0.226262
0.190741
0.16927
0.158425
0.14621
0.141375
0.135665
0.135293
0.134915
0.138289
0.142607
0.149057
0.15723
0.165683
0.176151
0.185138
0.195594
0.203663
0.21148
0.217494
0.220213
0.184671
0.163884
0.153384
0.141558
0.136878
0.13135
0.13099
0.130625
0.133892
0.138073
0.144319
0.152233
0.160417
0.170553
0.179255
0.189379
0.197193
0.204761
0.210585
0.213218
0.177827
0.157811
0.1477
0.136313
0.131806
0.126483
0.126136
0.125784
0.12893
0.132956
0.13897
0.14659
0.15447
0.16423
0.172609
0.182357
0.189881
0.197169
0.202777
0.205313
0.170204
0.151047
0.14137
0.130471
0.126158
0.121064
0.120732
0.120396
0.123407
0.127261
0.133018
0.140312
0.147856
0.157198
0.165219
0.17455
0.181752
0.188729
0.194097
0.196525
0.16187
0.143651
0.134448
0.124083
0.119982
0.115137
0.114821
0.114501
0.117364
0.121029
0.126504
0.13344
0.140614
0.149498
0.157126
0.166
0.172849
0.179483
0.184589
0.186898
0.152826
0.135625
0.126937
0.117152
0.11328
0.108706
0.108409
0.108107
0.11081
0.114271
0.11944
0.12599
0.132763
0.141152
0.148354
0.156733
0.1632
0.169465
0.174285
0.176466
0.143144
0.127034
0.118896
0.109731
0.106105
0.10182
0.101542
0.101258
0.103791
0.107031
0.111873
0.118006
0.12435
0.132206
0.138952
0.146799
0.152857
0.158724
0.163239
0.165282
0.132833
0.117883
0.110332
0.101829
0.0984634
0.0944884
0.0942299
0.0939674
0.0963172
0.0993247
0.103818
0.10951
0.115397
0.122688
0.128949
0.136231
0.141853
0.147298
0.151489
0.153386
0.12197
0.108243
0.10131
0.093502
0.0904124
0.0867622
0.0865248
0.0862831
0.0884405
0.0912011
0.0953264
0.100552
0.105957
0.112651
0.118399
0.125085
0.130247
0.135246
0.139094
0.140836
0.110567
0.0981249
0.0918403
0.0847632
0.0819627
0.0786542
0.0784389
0.0782202
0.0801757
0.0826785
0.086418
0.0911553
0.0960556
0.102124
0.107335
0.113397
0.118076
0.122609
0.126098
0.127678
0.0987086
0.0876013
0.0819913
0.0756735
0.0731737
0.0702198
0.0700276
0.0698316
0.0715771
0.0738104
0.0771484
0.0813764
0.0857506
0.0911668
0.0958182
0.101229
0.105406
0.109452
0.112567
0.113977
0.0864105
0.0766884
0.0717777
0.0662482
0.0640602
0.0614746
0.0613062
0.0611348
0.0626623
0.0646174
0.0675391
0.0712404
0.0750693
0.0798111
0.0838827
0.0886198
0.0922762
0.0958193
0.0985462
0.0997824
0.0737594
0.0654613
0.0612703
0.0565508
0.0546837
0.0524765
0.0523326
0.0521855
0.0534891
0.0551567
0.0576501
0.060808
0.0640758
0.0681218
0.0715966
0.075639
0.0787594
0.0817832
0.0841107
0.0851666
0.0607763
0.0539405
0.0504878
0.0466004
0.0450623
0.0432439
0.0431252
0.0430038
0.0440772
0.045451
0.0475047
0.0501065
0.0527982
0.0561319
0.0589945
0.0623256
0.0648965
0.0673888
0.069307
0.0701785
0.047549
0.0422021
0.0395019
0.0364614
0.0352588
0.033836
0.033743
0.0336472
0.0344865
0.0355598
0.0371658
0.0391995
0.0413047
0.0439111
0.0461497
0.0487544
0.050765
0.0527144
0.0542151
0.0548981
0.0341033
0.0302707
0.028335
0.0261561
0.0252943
0.0242742
0.0242071
0.024138
0.0247388
0.0255077
0.0266582
0.0281158
0.0296243
0.0314928
0.0330972
0.0349651
0.0364065
0.0378053
0.0388821
0.0393742
0.0205263
0.0182219
0.0170586
0.015749
0.0152315
0.0146176
0.0145771
0.0145342
0.0148949
0.0153555
0.0160466
0.0169213
0.0178278
0.01895
0.0199141
0.0210366
0.021903
0.0227447
0.0233929
0.0236916
0.00684801
0.00608404
0.00569851
0.00526536
0.0050946
0.00489029
0.00487618
0.00486038
0.00497849
0.00512932
0.00535701
0.00564546
0.00594486
0.0063163
0.00663509
0.0070079
0.00729503
0.00757665
0.00779364
0.00789817
-0.00684622
-0.00606894
-0.00567546
-0.00523179
-0.00505514
-0.0048498
-0.004837
-0.00482613
-0.00495011
-0.00511003
-0.00534544
-0.00564471
-0.00595228
-0.00633346
-0.00666022
-0.00703906
-0.0073317
-0.00761188
-0.007827
-0.00791756
-0.020523
-0.0182054
-0.0170343
-0.0157143
-0.015191
-0.014576
-0.0145368
-0.0144988
-0.0148653
-0.015335
-0.0160338
-0.0169193
-0.017834
-0.0189659
-0.0199381
-0.0210666
-0.0219385
-0.0227788
-0.0234252
-0.0237098
-0.0341001
-0.0302546
-0.0283111
-0.0261218
-0.025254
-0.0242329
-0.0241668
-0.0241023
-0.0247085
-0.0254861
-0.0266439
-0.0281118
-0.029628
-0.0315059
-0.0331178
-0.0349913
-0.0364378
-0.037835
-0.0389097
-0.0393877
-0.0475415
-0.0421821
-0.0394744
-0.0364239
-0.0352153
-0.0337916
-0.0336993
-0.0336082
-0.0344526
-0.0355346
-0.0371478
-0.0391919
-0.0413048
-0.0439206
-0.046167
-0.0487774
-0.0507933
-0.0527411
-0.0542397
-0.0549085
-0.0607691
-0.0539211
-0.0504609
-0.0465635
-0.0450193
-0.0431998
-0.0430814
-0.0429642
-0.0440421
-0.0454238
-0.0474838
-0.0500952
-0.0527938
-0.0561361
-0.0590055
-0.0623415
-0.064917
-0.0674072
-0.069323
-0.0701804
-0.0737453
-0.0654358
-0.0612378
-0.0565089
-0.0546357
-0.0524275
-0.0522836
-0.0521406
-0.0534483
-0.0551239
-0.0576234
-0.060791
-0.0640656
-0.0681205
-0.0716024
-0.0756501
-0.0787754
-0.0817973
-0.0841225
-0.0851642
-0.0863971
-0.0766639
-0.071746
-0.0662071
-0.0640129
-0.0614261
-0.0612571
-0.061089
-0.0626199
-0.0645819
-0.0675086
-0.0712185
-0.0750531
-0.0798025
-0.0838801
-0.0886216
-0.0922819
-0.0958226
-0.0985468
-0.099769
-0.0986864
-0.0875691
-0.0819524
-0.075626
-0.0731201
-0.070165
-0.0699717
-0.0697791
-0.0715272
-0.0737676
-0.0771102
-0.081347
-0.085727
-0.0911514
-0.095809
-0.101225
-0.105406
-0.109451
-0.112563
-0.11396
-0.110546
-0.0980938
-0.0918024
-0.0847166
-0.0819098
-0.0785999
-0.0783829
-0.0781669
-0.0801241
-0.0826327
-0.0863756
-0.0911205
-0.0960252
-0.1021
-0.107316
-0.113382
-0.118065
-0.122595
-0.126082
-0.127648
-0.121938
-0.108204
-0.101264
-0.0934483
-0.0903523
-0.0867009
-0.0864612
-0.0862221
-0.0883805
-0.091147
-0.0952753
-0.100508
-0.105919
-0.11262
-0.118373
-0.125064
-0.13023
-0.135228
-0.139074
-0.140803
-0.132802
-0.117845
-0.110287
-0.101776
-0.098404
-0.0944276
-0.0941662
-0.0939058
-0.0962556
-0.0992678
-0.103763
-0.109461
-0.115352
-0.122649
-0.128913
-0.1362
-0.141824
-0.147268
-0.151456
-0.153341
-0.143104
-0.126986
-0.118843
-0.109671
-0.106038
-0.101752
-0.10147
-0.101189
-0.10372
-0.106965
-0.111808
-0.117948
-0.124296
-0.132158
-0.138909
-0.146761
-0.152822
-0.158689
-0.163203
-0.165234
-0.152785
-0.135579
-0.126884
-0.117092
-0.113214
-0.108639
-0.108337
-0.108037
-0.110739
-0.114203
-0.119373
-0.125927
-0.132703
-0.141096
-0.148302
-0.156685
-0.163155
-0.169419
-0.174238
-0.176408
-0.16182
-0.143596
-0.134388
-0.124017
-0.119909
-0.115063
-0.114743
-0.114424
-0.117285
-0.120953
-0.126428
-0.133369
-0.140545
-0.149435
-0.157067
-0.165945
-0.172798
-0.179433
-0.184538
-0.186838
-0.170154
-0.150992
-0.141309
-0.130405
-0.126086
-0.12099
-0.120654
-0.120318
-0.123326
-0.127184
-0.132939
-0.140238
-0.147782
-0.157129
-0.165153
-0.174488
-0.181694
-0.18867
-0.194037
-0.196457
-0.177767
-0.157749
-0.147633
-0.136242
-0.131728
-0.126404
-0.126052
-0.1257
-0.128842
-0.132871
-0.138883
-0.146507
-0.154389
-0.164154
-0.172537
-0.182289
-0.189817
-0.197106
-0.202714
-0.205244
-0.18461
-0.163822
-0.153316
-0.141487
-0.1368
-0.131271
-0.130906
-0.130541
-0.133804
-0.137988
-0.144232
-0.152149
-0.160333
-0.170474
-0.179179
-0.189306
-0.197123
-0.204692
-0.210517
-0.213144
-0.190673
-0.169204
-0.158353
-0.146136
-0.141294
-0.135582
-0.135204
-0.134826
-0.138195
-0.142515
-0.148963
-0.15714
-0.165592
-0.176065
-0.185055
-0.195515
-0.203589
-0.211407
-0.217423
-0.220138
-0.195908
-0.173848
-0.1627
-0.150149
-0.145175
-0.139307
-0.138918
-0.138531
-0.141992
-0.146431
-0.153056
-0.161458
-0.170142
-0.180902
-0.190139
-0.200886
-0.209181
-0.217214
-0.223395
-0.226186
-0.200318
-0.177764
-0.166364
-0.15353
-0.148443
-0.142442
-0.142044
-0.141646
-0.145185
-0.149722
-0.156495
-0.165084
-0.173963
-0.184965
-0.194409
-0.205397
-0.213879
-0.222093
-0.228413
-0.231268
-0.203855
-0.180902
-0.169302
-0.156242
-0.151066
-0.14496
-0.144555
-0.144152
-0.147753
-0.152371
-0.159264
-0.168005
-0.177041
-0.188238
-0.197849
-0.209031
-0.217662
-0.226021
-0.232453
-0.235359
-0.206538
-0.183285
-0.17153
-0.158299
-0.153052
-0.146866
-0.146455
-0.146045
-0.149693
-0.154369
-0.161352
-0.170206
-0.17936
-0.190702
-0.200439
-0.211768
-0.220513
-0.228982
-0.235499
-0.238444
-0.208315
-0.184861
-0.173007
-0.159662
-0.154372
-0.148134
-0.147721
-0.147308
-0.150988
-0.155706
-0.162749
-0.171681
-0.180914
-0.192355
-0.202176
-0.213603
-0.222422
-0.230964
-0.237537
-0.240508
-0.209226
-0.185671
-0.173761
-0.160357
-0.155042
-0.148777
-0.148361
-0.147946
-0.151641
-0.156379
-0.163451
-0.17242
-0.181692
-0.193181
-0.203044
-0.214521
-0.223379
-0.231958
-0.23856
-0.241545
)
;

boundaryField
{
    out
    {
        type            implicitExtrapolation;
    }
    in
    {
        type            implicitExtrapolation;
    }
    frontAndBack
    {
        type            empty;
    }
}


// ************************************************************************* //
