/*--------------------------------*- C++ -*----------------------------------*\
| =========                 |                                                 |
| \\      /  F ield         | foam-extend: Open Source CFD                    |
|  \\    /   O peration     | Version:  3.0                                   |
|   \\  /    A nd           | Web:         http://www.extend-project.de       |
|    \\/     M anipulation  |                                                 |
\*---------------------------------------------------------------------------*/
FoamFile
{
    version     2.0;
    format      ascii;
    class       volSymmTensorField;
    location    "1";
    object      sigma;
}
// * * * * * * * * * * * * * * * * * * * * * * * * * * * * * * * * * * * * * //

dimensions      [0 0 0 0 0 0 0];

internalField   nonuniform List<symmTensor> 
1920
(
(-0.130787 -0.00334273 3.5734e-20 0.130134 -1.40128e-20 0.000652543)
(-0.135131 -0.00486815 6.23814e-20 0.133462 6.05807e-21 0.00166875)
(-0.133236 -0.00559476 6.36105e-20 0.130729 -2.7995e-21 0.00250631)
(-0.128237 -0.00587155 4.85736e-20 0.12503 2.09209e-20 0.00320667)
(-0.1218 -0.00589305 2.73298e-20 0.117998 4.13705e-20 0.00380208)
(-0.11481 -0.00577031 3.26575e-20 0.11049 2.57093e-20 0.00432016)
(-0.10775 -0.00556763 1.95221e-20 0.102967 5.52999e-20 0.0047834)
(-0.100888 -0.00532421 3.09202e-20 0.0956722 3.19813e-20 0.00521598)
(-0.0943578 -0.00506263 3.4199e-20 0.088721 5.50395e-20 0.00563684)
(-0.0882339 -0.00479808 3.04937e-20 0.082171 6.13773e-20 0.00606286)
(-0.0825304 -0.00453798 1.31885e-20 0.0760273 7.24253e-20 0.00650301)
(-0.077241 -0.0042882 -3.55823e-22 0.070295 5.68123e-20 0.00694596)
(-0.072314 -0.00404944 1.44969e-20 0.0649458 5.50152e-20 0.00736818)
(-0.0676807 -0.00382313 2.37772e-20 0.059979 6.40045e-20 0.00770165)
(-0.0632303 -0.00360642 3.28698e-21 0.0553635 5.49985e-20 0.00786684)
(-0.0588412 -0.00339868 1.1093e-20 0.0511118 2.12733e-20 0.00772943)
(-0.054368 -0.0031957 3.44479e-20 0.0472024 3.69201e-21 0.0071656)
(-0.0496808 -0.00299721 1.09008e-20 0.0436675 2.77617e-21 0.00601331)
(-0.0446814 -0.00280076 1.49028e-20 0.0404966 -2.03589e-20 0.00418478)
(-0.0393274 -0.00261368 -1.1432e-21 0.0377375 -8.13359e-21 0.00158987)
(-0.130702 -0.0100886 4.05724e-20 0.130053 9.95986e-22 0.000649342)
(-0.134301 -0.0145828 6.56401e-20 0.132641 1.26799e-21 0.00166051)
(-0.131998 -0.0167148 6.68577e-20 0.129504 -1.71083e-20 0.00249391)
(-0.126787 -0.0175172 7.8043e-20 0.123596 -2.47318e-20 0.00319082)
(-0.120253 -0.0175659 4.38839e-20 0.116469 2.41744e-20 0.00378336)
(-0.113233 -0.0171894 3.96355e-20 0.108934 2.7792e-20 0.00429903)
(-0.106186 -0.016578 3.84123e-20 0.101426 4.53289e-20 0.00476021)
(-0.0993596 -0.0158474 1.89246e-20 0.0941687 1.14175e-19 0.00519092)
(-0.0928791 -0.0150642 3.82247e-20 0.087269 1.34588e-19 0.00561003)
(-0.0868116 -0.0142732 3.34454e-20 0.0807773 1.13662e-19 0.00603432)
(-0.0811673 -0.0134957 2.68412e-20 0.0746946 1.03391e-19 0.00647271)
(-0.0759372 -0.0127492 1.94926e-20 0.0690232 9.21347e-20 0.00691391)
(-0.0710684 -0.0120356 5.29559e-20 0.0637338 7.3571e-20 0.00733453)
(-0.0664912 -0.0113592 5.52903e-20 0.0588244 7.3414e-20 0.0076668)
(-0.0620958 -0.0107117 2.19065e-20 0.0542642 9.96745e-20 0.00783158)
(-0.0577603 -0.0100913 -2.66524e-20 0.0500652 1.10748e-19 0.00769506)
(-0.0533406 -0.00948553 -1.79455e-20 0.0462066 9.63331e-20 0.00713396)
(-0.0487068 -0.00889355 6.19387e-21 0.0427199 6.0343e-20 0.0059869)
(-0.0437614 -0.00830805 1.38428e-20 0.0395949 3.64054e-20 0.00416648)
(-0.0384585 -0.00774994 1.33494e-20 0.0368756 -2.61107e-20 0.00158292)
(-0.130515 -0.0169299 3.66281e-20 0.129872 2.99223e-22 0.000643503)
(-0.132657 -0.0241619 5.11056e-20 0.131011 -1.10295e-20 0.00164558)
(-0.129556 -0.0275687 3.78352e-20 0.127085 -1.6766e-20 0.00247142)
(-0.12393 -0.028825 6.45391e-20 0.120768 -4.33235e-20 0.00316193)
(-0.117206 -0.0288642 7.55266e-20 0.113457 -2.83586e-20 0.00374897)
(-0.110131 -0.0282185 4.38838e-20 0.105871 3.51476e-20 0.00425979)
(-0.103109 -0.0271957 8.47833e-20 0.0983922 5.723e-20 0.00471664)
(-0.0963541 -0.025983 1.45147e-19 0.0912107 1.21206e-19 0.00514335)
(-0.0899716 -0.0246879 9.13512e-20 0.084413 1.5239e-19 0.00555865)
(-0.0840151 -0.0233825 6.53819e-20 0.0780359 1.08751e-19 0.00597921)
(-0.0784874 -0.0221012 6.12742e-20 0.0720735 1.0362e-19 0.00641387)
(-0.0733735 -0.0208718 3.20884e-20 0.0665221 1.23114e-19 0.00685144)
(-0.0686192 -0.0196972 6.43683e-20 0.0613505 4.79868e-20 0.0072687)
(-0.0641528 -0.0185843 1.30102e-19 0.0565543 5.47897e-20 0.00759846)
(-0.0598657 -0.0175192 1.78613e-19 0.0521035 6.14059e-20 0.00776222)
(-0.0556359 -0.0164989 1.69329e-19 0.0480086 1.17948e-19 0.00762729)
(-0.0513219 -0.0155031 1.33509e-19 0.0442505 1.02775e-19 0.00707144)
(-0.0467936 -0.01453 6.13473e-20 0.040859 3.15866e-20 0.00593465)
(-0.0419549 -0.0135676 4.39154e-21 0.0378247 -2.75995e-20 0.00413024)
(-0.0367533 -0.0126493 -4.26682e-20 0.0351841 -5.70925e-22 0.00156921)
(-0.130191 -0.0239238 3.51372e-20 0.129556 -1.25124e-20 0.000634893)
(-0.130222 -0.0335188 4.31045e-20 0.128598 -3.35869e-21 0.00162351)
(-0.125969 -0.037989 2.40223e-20 0.123531 7.425e-21 0.00243821)
(-0.119745 -0.039583 2.97919e-20 0.116625 1.23045e-21 0.00311936)
(-0.11275 -0.0395535 8.73451e-20 0.109051 -5.55156e-20 0.00369839)
(-0.105598 -0.0386135 1.17184e-19 0.101396 -3.48384e-20 0.00420223)
(-0.0986146 -0.0371751 1.11931e-19 0.0939618 -9.87178e-21 0.00465283)
(-0.0919661 -0.0354887 1.81563e-19 0.0868924 -4.20991e-20 0.00507376)
(-0.0857283 -0.0336975 1.5775e-19 0.0802448 -2.68564e-20 0.00548351)
(-0.0799348 -0.0318974 7.08816e-20 0.0740362 6.05118e-21 0.00589855)
(-0.0745781 -0.0301342 1.21272e-19 0.0682505 4.93386e-20 0.00632761)
(-0.0696348 -0.0284445 7.52746e-20 0.0628751 8.99127e-20 0.00675964)
(-0.0650483 -0.0268316 1.24407e-20 0.0578766 4.93966e-20 0.00717172)
(-0.0607439 -0.0253042 1.16681e-19 0.0532464 1.77993e-20 0.0074975)
(-0.0566153 -0.0238432 1.64096e-19 0.0489558 1.79686e-20 0.00765949)
(-0.0525401 -0.022444 2.45989e-19 0.0450134 -1.03071e-19 0.0075267)
(-0.0483807 -0.0210787 1.06573e-19 0.0414023 -5.54829e-20 0.00697845)
(-0.0440068 -0.0197444 -2.00371e-20 0.03815 -8.83014e-20 0.00585678)
(-0.0393244 -0.0184246 -3.91456e-20 0.0352483 -1.54051e-21 0.00407614)
(-0.0342713 -0.0171634 1.746e-20 0.0327226 5.35001e-20 0.00154867)
(-0.129679 -0.0311183 2.38322e-20 0.129055 2.34307e-20 0.000623504)
(-0.127035 -0.0425726 2.11183e-20 0.125441 5.96347e-20 0.00159437)
(-0.121325 -0.047822 2.43892e-21 0.118931 6.4366e-20 0.00239439)
(-0.114348 -0.0495981 -5.25025e-20 0.111285 1.22896e-19 0.00306325)
(-0.107015 -0.0494204 -2.64538e-20 0.103383 3.58356e-20 0.0036318)
(-0.0997713 -0.0481527 4.71e-20 0.0956448 -2.14926e-20 0.00412652)
(-0.092843 -0.0462934 9.88055e-20 0.088274 -1.15094e-19 0.00456898)
(-0.0863343 -0.0441446 1.05294e-19 0.081352 -5.61794e-20 0.00498235)
(-0.0802847 -0.0418787 1.55902e-19 0.0748998 -5.90162e-20 0.00538483)
(-0.0747023 -0.0396109 1.05852e-19 0.0689097 8.25214e-20 0.00579257)
(-0.0695666 -0.0373956 1.7688e-19 0.0633524 3.57189e-20 0.00621421)
(-0.0648433 -0.0352759 1.48464e-19 0.0582044 4.7447e-20 0.00663885)
(-0.0604731 -0.0332553 2.51213e-20 0.0534291 8.20813e-20 0.00704399)
(-0.0563776 -0.0313432 5.88997e-20 0.0490132 1.2847e-19 0.00736441)
(-0.052453 -0.0295155 8.68598e-20 0.0449291 1.06237e-20 0.00752394)
(-0.0485769 -0.0277654 5.60165e-21 0.041183 -8.01435e-20 0.00739387)
(-0.0446167 -0.0260584 1.66649e-19 0.0377611 -5.37288e-20 0.00685559)
(-0.0404417 -0.0243899 6.95038e-21 0.0346878 -8.23971e-21 0.00575388)
(-0.0359608 -0.0227392 1.24373e-19 0.0319561 6.14182e-20 0.00400465)
(-0.0310997 -0.0211586 -1.65283e-20 0.0295781 7.78231e-20 0.00152157)
(-0.128914 -0.038549 -1.40314e-20 0.128305 1.27525e-19 0.000609439)
(-0.123145 -0.0512496 -4.38888e-20 0.121586 2.15199e-19 0.00155834)
(-0.115737 -0.0569329 -8.33299e-21 0.113397 1.76002e-19 0.00234024)
(-0.107889 -0.0587019 1.19488e-20 0.104895 9.14281e-20 0.00299392)
(-0.10017 -0.05828 -9.67615e-20 0.0966199 9.93269e-20 0.00354957)
(-0.0928272 -0.0566444 -8.36315e-20 0.0887942 5.53433e-20 0.00403308)
(-0.085972 -0.0543581 -5.74029e-20 0.0815065 4.34009e-20 0.00446554)
(-0.0796353 -0.0517612 1.13244e-19 0.0747657 6.88372e-20 0.00486962)
(-0.0738135 -0.0490472 2.04914e-19 0.0685504 -1.81874e-20 0.00526312)
(-0.0684854 -0.0463447 1.84862e-19 0.0628235 6.40677e-20 0.00566186)
(-0.0636148 -0.0437137 9.94564e-20 0.0575406 2.52445e-20 0.00607425)
(-0.059155 -0.0412016 1.87506e-19 0.0526653 7.03422e-20 0.00648968)
(-0.0550435 -0.0388108 1.93753e-19 0.0481574 7.96389e-20 0.00688611)
(-0.0511975 -0.0365503 1.61322e-19 0.0439978 1.68033e-19 0.00719975)
(-0.0475167 -0.0343916 1.86002e-20 0.0401606 -1.78707e-20 0.00735612)
(-0.0438784 -0.0323252 3.18855e-21 0.0366491 7.84254e-21 0.00722929)
(-0.0401561 -0.0303105 7.74459e-20 0.0334528 -6.0312e-20 0.00670325)
(-0.036219 -0.0283408 3.1856e-20 0.0305928 5.60901e-21 0.00562619)
(-0.0319795 -0.0263916 1.60414e-19 0.0280637 -9.18458e-20 0.00391587)
(-0.0273492 -0.0245204 5.08033e-20 0.0258613 -3.58038e-21 0.00148784)
(-0.127823 -0.046236 1.5708e-20 0.12723 1.18796e-19 0.000592716)
(-0.118608 -0.0594853 -5.47275e-20 0.117093 2.35517e-19 0.00151555)
(-0.109338 -0.0652099 -7.39278e-20 0.107062 9.01056e-20 0.00227594)
(-0.100541 -0.0667572 -2.11141e-20 0.0976291 -2.75617e-20 0.00291164)
(-0.0924097 -0.0659823 -6.08175e-20 0.0889576 1.07375e-19 0.00345202)
(-0.0849727 -0.0639337 -5.21715e-20 0.0810505 6.97946e-20 0.00392225)
(-0.0782115 -0.0612142 -3.19983e-20 0.0738686 8.6653e-20 0.0043429)
(-0.0720769 -0.0581862 1.27882e-20 0.0673409 -3.48544e-20 0.00473599)
(-0.0665182 -0.055055 1.20262e-19 0.0613994 -1.00369e-19 0.00511885)
(-0.0614813 -0.051956 2.67139e-19 0.0559744 -5.04377e-20 0.00550689)
(-0.0569133 -0.0489513 1.9448e-19 0.051005 -3.69158e-21 0.00590829)
(-0.0527534 -0.0460899 2.56044e-19 0.0464407 -1.52546e-20 0.00631273)
(-0.0489358 -0.0433719 2.89213e-19 0.042237 -9.342e-20 0.00669876)
(-0.0453731 -0.0408051 3.43457e-19 0.0383688 -4.79953e-20 0.00700431)
(-0.0419688 -0.0383563 3.94169e-20 0.034812 -1.87357e-19 0.00715685)
(-0.0386004 -0.0360134 -1.90313e-20 0.0315665 -1.57164e-19 0.00703382)
(-0.0351481 -0.0337301 3.3016e-20 0.0286258 -8.70155e-20 0.0065223)
(-0.0314815 -0.0314972 2.17014e-20 0.026007 -2.93697e-19 0.00547452)
(-0.0275169 -0.0292867 -9.5784e-20 0.0237064 -1.44229e-19 0.00381044)
(-0.0231503 -0.027158 1.42974e-19 0.0217025 -2.18371e-19 0.00144784)
(-0.126322 -0.0541823 8.12796e-20 0.125749 4.4835e-20 0.000573455)
(-0.113491 -0.0672256 5.76191e-20 0.112025 2.78429e-22 0.00146624)
(-0.102276 -0.0725673 -1.14022e-19 0.100074 -4.06409e-20 0.00220185)
(-0.0925 -0.0736617 -1.46025e-20 0.0896831 -1.75506e-20 0.00281683)
(-0.0839553 -0.0724171 6.15178e-20 0.0806157 -1.87142e-20 0.00333963)
(-0.0764385 -0.0699079 -8.31195e-20 0.0726439 2.19162e-21 0.00379461)
(-0.069795 -0.0667495 -6.98789e-20 0.0655933 -5.97122e-20 0.00420167)
(-0.0638908 -0.0633097 -8.75556e-20 0.0593086 -9.43821e-20 0.00458211)
(-0.0586253 -0.0597954 -5.83438e-20 0.0536726 2.73735e-20 0.00495273)
(-0.0539101 -0.0563421 2.36765e-19 0.0485816 -5.86276e-20 0.00532842)
(-0.0496742 -0.0530101 9.84215e-20 0.0439571 7.29377e-20 0.00571712)
(-0.0458428 -0.0498466 8.55398e-20 0.0397339 -9.02417e-21 0.00610884)
(-0.0423462 -0.0468488 8.04056e-20 0.0358634 -9.55954e-20 0.00648281)
(-0.0390927 -0.0440216 2.60865e-19 0.0323138 -1.1021e-19 0.00677892)
(-0.0359899 -0.0413279 -1.44443e-19 0.029063 -1.60498e-19 0.00692695)
(-0.0329158 -0.0387518 -1.61839e-19 0.0261076 -1.33197e-20 0.00680821)
(-0.0297583 -0.0362428 -1.38854e-19 0.0234449 -1.92539e-19 0.00631336)
(-0.0263874 -0.0337882 -4.43025e-19 0.0210881 -2.06106e-19 0.00529932)
(-0.022724 -0.0313572 -2.39684e-19 0.0190354 8.34994e-20 0.00368857)
(-0.0186479 -0.0290071 -8.4986e-20 0.0172464 -4.26121e-20 0.00140154)
(-0.124327 -0.0623721 6.03352e-20 0.123776 1.28205e-20 0.000551702)
(-0.107862 -0.0744277 8.64251e-20 0.106452 -9.84611e-20 0.00141059)
(-0.0947107 -0.0789481 -5.99358e-20 0.0925925 -8.58824e-20 0.00211824)
(-0.0839744 -0.0793512 -7.25954e-20 0.0812645 -5.04553e-20 0.00270987)
(-0.0750406 -0.0775176 3.03316e-20 0.0718277 -5.80781e-20 0.00321287)
(-0.0674703 -0.0744998 -2.5612e-21 0.0638196 -4.38923e-20 0.00365067)
(-0.0609711 -0.070898 -1.44107e-19 0.0569287 -2.8859e-20 0.00404241)
(-0.0553233 -0.0670677 -7.5505e-20 0.0509147 -4.88166e-21 0.00440862)
(-0.0503758 -0.0632071 -1.4432e-19 0.0456104 1.56056e-19 0.00476544)
(-0.0460054 -0.0594442 2.39394e-20 0.0408782 1.57415e-19 0.0051272)
(-0.0421234 -0.055834 2.98735e-19 0.0366218 1.74279e-19 0.00550156)
(-0.0386403 -0.0524184 1.15825e-19 0.0327614 -3.72993e-20 0.00587891)
(-0.0354835 -0.0491907 -1.34009e-19 0.0292443 6.07398e-20 0.00623923)
(-0.0325567 -0.0461516 2.39152e-19 0.026032 -2.49755e-20 0.00652465)
(-0.0297722 -0.0432604 -3.52165e-20 0.0231047 4.84998e-20 0.00666754)
(-0.027009 -0.0404969 -1.06115e-19 0.0204554 -3.17964e-20 0.00655362)
(-0.0241631 -0.0378072 -4.24851e-19 0.0180855 1.00761e-20 0.00607757)
(-0.0211055 -0.0351747 -3.22856e-19 0.0160039 2.59547e-19 0.0051016)
(-0.017762 -0.0325662 -6.54196e-20 0.0142109 1.87836e-19 0.00355108)
(-0.0139964 -0.030033 -1.94586e-19 0.0126471 1.17892e-19 0.00134935)
(-0.121753 -0.0707702 -3.17491e-20 0.121225 8.63385e-20 0.000527594)
(-0.101796 -0.0810606 1.81144e-20 0.100448 -5.13927e-20 0.00134888)
(-0.0868051 -0.0843249 -5.23234e-20 0.0847796 -8.8357e-20 0.00202555)
(-0.0751777 -0.0838014 -9.62794e-20 0.0725864 -1.42076e-20 0.00259131)
(-0.0659054 -0.0812619 -3.06715e-20 0.062833 2.54289e-21 0.00307235)
(-0.0583198 -0.0776898 -1.04947e-19 0.0548287 8.78728e-20 0.00349112)
(-0.0519947 -0.073642 -1.61174e-19 0.0481288 7.37156e-20 0.0038659)
(-0.0466268 -0.0694442 -1.31305e-19 0.0424105 1.16401e-19 0.00421633)
(-0.0420164 -0.0652756 4.15562e-20 0.0374586 1.54947e-19 0.00455784)
(-0.0380065 -0.0612493 1.14664e-20 0.0331024 1.90413e-19 0.00490416)
(-0.0344916 -0.057411 1.87795e-19 0.029229 -4.11384e-20 0.00526259)
(-0.0313683 -0.0537944 2.70034e-19 0.0257444 -1.93717e-19 0.00562394)
(-0.0285611 -0.0503878 3.30521e-20 0.0225921 -7.92657e-21 0.00596907)
(-0.0259699 -0.0471861 9.40406e-20 0.0197273 -1.19605e-20 0.00624256)
(-0.0235121 -0.0441456 1.16868e-19 0.0171324 -5.78236e-20 0.00637967)
(-0.021068 -0.0412413 -2.87582e-20 0.014797 -4.84464e-20 0.00627101)
(-0.0185424 -0.0384167 1.69519e-19 0.0127266 3.89027e-20 0.00581575)
(-0.0158079 -0.0356508 -1.20205e-19 0.0109259 1.00499e-19 0.004882)
(-0.0127951 -0.0329083 8.03121e-20 0.00939683 1.82159e-21 0.0033983)
(-0.0093533 -0.0302309 -2.13384e-19 0.008062 2.29955e-19 0.00129131)
(-0.118518 -0.0793223 -5.48307e-20 0.118017 4.3597e-20 0.000501204)
(-0.0953673 -0.0871057 -8.61464e-20 0.0940859 -2.76606e-20 0.00128137)
(-0.0787218 -0.0887002 -8.6374e-20 0.0767977 -4.06552e-20 0.00192416)
(-0.0663213 -0.0870277 -6.70599e-20 0.0638597 -1.63477e-20 0.00246161)
(-0.0567866 -0.0836734 -1.06635e-19 0.0538679 1.71486e-19 0.00291866)
(-0.0492355 -0.0795059 6.44919e-20 0.0459189 1.02889e-19 0.00331662)
(-0.0431168 -0.0750121 -7.69398e-20 0.039444 -1.91204e-20 0.00367286)
(-0.0380499 -0.0704712 -8.7981e-20 0.0340439 3.51149e-20 0.00400604)
(-0.03379 -0.0660332 1.04326e-19 0.0294592 -4.09078e-20 0.00433081)
(-0.0301492 -0.0617896 2.00486e-19 0.025489 -1.18715e-19 0.00466023)
(-0.0270063 -0.0577731 -4.35176e-20 0.0220051 -2.03761e-19 0.00500123)
(-0.0242456 -0.054006 -2.20728e-20 0.0189005 -1.39225e-19 0.00534507)
(-0.0217892 -0.0504706 1.69423e-19 0.0161157 -3.13499e-20 0.00567354)
(-0.019534 -0.0471551 2.35197e-19 0.0136 -1.44808e-19 0.00593395)
(-0.0174029 -0.0440127 2.21455e-20 0.0113382 -1.36575e-19 0.00606471)
(-0.0152783 -0.0410134 -1.33249e-19 0.00931653 -8.04441e-20 0.00596178)
(-0.0130737 -0.038099 -5.11652e-20 0.00754442 -9.28404e-20 0.00552926)
(-0.010664 -0.0352434 2.64701e-20 0.00602234 6.61008e-20 0.0046417)
(-0.00798541 -0.0324098 2.16709e-19 0.00475426 1.56588e-19 0.00323115)
(-0.00487355 -0.0296266 2.91666e-19 0.00364571 -1.00109e-19 0.00122784)
(-0.11455 -0.0879559 1.17024e-20 0.114078 -3.54969e-20 0.000472682)
(-0.0886482 -0.0925557 -3.93047e-20 0.0874398 -7.70339e-20 0.00120839)
(-0.0706167 -0.0921055 -1.06596e-19 0.0688021 -4.92482e-20 0.00181454)
(-0.0576069 -0.0890842 -1.33912e-20 0.0552855 1.27925e-20 0.00232141)
(-0.0479097 -0.084819 -1.48803e-20 0.0451572 1.46163e-19 0.00275252)
(-0.0404532 -0.0800219 4.20091e-20 0.0373253 -9.27574e-20 0.00312798)
(-0.0345758 -0.0750855 -5.80882e-20 0.0311116 -7.89519e-20 0.00346418)
(-0.0298286 -0.0702269 -6.54785e-20 0.0260499 -1.13024e-19 0.0037787)
(-0.0259272 -0.0655577 -1.29398e-19 0.0218418 -1.34496e-19 0.00408537)
(-0.0226568 -0.0611415 4.28968e-20 0.0182603 -1.51032e-19 0.00439649)
(-0.0198829 -0.0569948 -3.44935e-20 0.0151643 -7.2414e-20 0.00471861)
(-0.0174793 -0.0531256 -1.39131e-19 0.0124359 -1.55343e-20 0.00504348)
(-0.0153667 -0.0495095 -1.53456e-19 0.0100128 -1.00787e-19 0.00535389)
(-0.01344 -0.0461264 -1.62181e-19 0.00783991 -3.35555e-20 0.00560008)
(-0.0116277 -0.0429274 1.9465e-19 0.00590375 -1.86251e-20 0.00572391)
(-0.00981512 -0.0398767 -8.87047e-20 0.00418801 -6.78654e-20 0.00562711)
(-0.00792458 -0.0369152 -8.17617e-20 0.00270544 8.4539e-21 0.00521915)
(-0.00583433 -0.0340115 3.44129e-20 0.00145278 1.74182e-20 0.00438155)
(-0.00348574 -0.0311275 7.59459e-20 0.000435594 -1.16697e-19 0.00305015)
(-0.000703773 -0.0282752 1.87933e-20 -0.0004553 -1.60809e-19 0.00115907)
(-0.109789 -0.0965818 3.97474e-20 0.109346 -5.66431e-20 0.000442127)
(-0.0817088 -0.0974147 8.38454e-20 0.0805786 -1.49777e-19 0.00113024)
(-0.0626335 -0.094599 -7.15677e-20 0.0609363 -5.88969e-20 0.00169716)
(-0.0492191 -0.0900606 -3.37108e-20 0.0470479 3.97398e-20 0.00217128)
(-0.0394805 -0.0848059 1.82519e-19 0.0369059 -5.86495e-20 0.00257461)
(-0.032188 -0.0793542 5.69726e-20 0.029262 -1.4648e-19 0.00292598)
(-0.0265885 -0.0739824 -1.29096e-20 0.0233477 -9.35176e-20 0.00324072)
(-0.0221771 -0.068832 -1.64576e-19 0.0186418 -5.44561e-20 0.00353526)
(-0.0186372 -0.0639684 -3.42182e-19 0.0148146 2.93909e-20 0.00382254)
(-0.0157322 -0.059422 -2.19363e-19 0.0116181 -1.53803e-21 0.00411406)
(-0.0133171 -0.0551897 -9.68122e-20 0.00890117 -8.2135e-21 0.00441596)
(-0.0112577 -0.0512633 -1.26586e-19 0.00653724 1.44219e-20 0.00472048)
(-0.00947429 -0.0476106 -1.76056e-19 0.00446277 4.71578e-20 0.00501152)
(-0.0078611 -0.0442028 -3.10683e-19 0.00261863 1.14601e-19 0.00524247)
(-0.00635242 -0.0409886 -1.63552e-19 0.000993577 2.62286e-21 0.00535884)
(-0.00483752 -0.0379264 -7.3808e-20 -0.000431083 2.63182e-20 0.0052686)
(-0.00324724 -0.0349571 -7.98677e-20 -0.00163968 -3.27752e-20 0.00488692)
(-0.00146406 -0.0320434 -1.14175e-19 -0.00263879 -4.934e-20 0.00410284)
(0.000565213 -0.0291464 -1.67958e-19 -0.00342147 -4.91295e-20 0.00285625)
(0.00302348 -0.0262588 -3.21765e-20 -0.00410892 2.07094e-20 0.00108544)
(-0.104187 -0.105097 7.45738e-20 0.103778 -1.07434e-19 0.000409698)
(-0.074614 -0.101697 4.26246e-20 0.0735667 -8.08436e-20 0.00104727)
(-0.0548992 -0.0962627 2.7753e-20 0.0533267 -2.79688e-20 0.00157256)
(-0.0413192 -0.0900778 -4.95695e-21 0.0393073 -6.03209e-20 0.00201191)
(-0.0316777 -0.0837767 1.10824e-19 0.0292919 -1.60558e-19 0.00238576)
(-0.0246261 -0.0776566 1.35612e-19 0.0219145 -1.62142e-19 0.00271155)
(-0.0193424 -0.0718609 6.60651e-20 0.016339 -3.63021e-20 0.00300348)
(-0.0152807 -0.066445 1.37891e-19 0.0120039 -4.42636e-21 0.0032768)
(-0.0121006 -0.0614218 -9.70302e-20 0.00855714 -5.16238e-20 0.00354347)
(-0.00955017 -0.0567836 -2.9776e-19 0.00573601 -1.1488e-19 0.00381416)
(-0.00747727 -0.0525061 -2.78129e-19 0.00338273 -3.30448e-21 0.00409454)
(-0.00574261 -0.0485624 -1.8376e-19 0.00136519 1.06519e-19 0.00437742)
(-0.00426718 -0.0449125 -6.62923e-20 -0.000380668 1.7733e-19 0.00464784)
(-0.0029462 -0.0415175 -9.99354e-21 -0.00191635 6.41335e-20 0.00486255)
(-0.00171976 -0.0383246 -1.92368e-19 -0.00325119 6.07586e-20 0.00497095)
(-0.000481986 -0.0352861 -1.80978e-19 -0.00440565 4.23658e-20 0.00488763)
(0.000827885 -0.0323435 -2.41529e-19 -0.00536174 7.51093e-20 0.00453386)
(0.00232217 -0.0294532 -6.63653e-20 -0.00612879 1.11612e-19 0.00380662)
(0.00404865 -0.0265762 -8.65678e-20 -0.0066988 -4.21719e-20 0.00265014)
(0.00619448 -0.0236833 -2.5843e-19 -0.00720161 1.11866e-19 0.00100714)
(-0.0977185 -0.113387 2.93328e-20 0.097343 -4.09147e-20 0.000375518)
(-0.0674214 -0.105424 4.23686e-20 0.0664615 -1.53286e-21 0.000959851)
(-0.0475199 -0.0971987 8.23971e-20 0.0460787 -4.58067e-20 0.00144127)
(-0.0340394 -0.0892831 -6.45851e-21 0.0321954 -1.24016e-19 0.00184399)
(-0.0246469 -0.0819037 -4.67175e-20 0.0224601 -1.4736e-19 0.00218676)
(-0.0179183 -0.0751136 -1.22406e-20 0.0154327 -8.74683e-20 0.00248558)
(-0.0129892 -0.0689104 3.70729e-20 0.0102357 4.50907e-21 0.00275347)
(-0.0092886 -0.0632553 1.07774e-19 0.00628419 -2.99447e-20 0.00300441)
(-0.00646283 -0.0581043 1.51402e-19 0.00321349 -1.43433e-19 0.00324934)
(-0.00425129 -0.0534084 -2.10324e-19 0.000753232 -1.19481e-19 0.00349806)
(-0.00249869 -0.0491204 -2.22519e-19 -0.00125706 2.9296e-20 0.00375575)
(-0.00106394 -0.0451936 -8.93543e-20 -0.00295186 7.03005e-20 0.0040158)
(0.000129998 -0.0415795 8.35605e-20 -0.00439447 3.56623e-20 0.00426447)
(0.0011853 -0.0382291 3.04259e-21 -0.00564732 -2.07673e-20 0.00446202)
(0.002156 -0.0350882 1.86386e-19 -0.00671801 4.39109e-20 0.00456201)
(0.0031421 -0.0321027 1.42841e-19 -0.00762807 2.29663e-20 0.00448597)
(0.00419634 -0.0292154 1.01958e-19 -0.00835793 -1.42233e-20 0.00416159)
(0.00542474 -0.0263766 6.58556e-20 -0.00891904 -6.7245e-20 0.00349429)
(0.00686979 -0.0235471 1.26916e-22 -0.00930263 -2.60568e-20 0.00243283)
(0.00871891 -0.0206744 1.57731e-19 -0.00964351 -4.17268e-20 0.000924604)
(-0.0903742 -0.121329 -5.62602e-21 0.0900345 -1.89383e-21 0.000339754)
(-0.0601808 -0.108627 -1.37897e-20 0.0593125 4.60739e-20 0.000868369)
(-0.0405775 -0.0975241 1.53971e-19 0.0392736 -7.8704e-20 0.00130389)
(-0.0274788 -0.0878438 -2.06393e-22 0.0258105 -1.15426e-19 0.00166826)
(-0.0184953 -0.0793813 -1.25335e-19 0.0165168 -9.26735e-20 0.0019785)
(-0.012175 -0.0719333 -1.37649e-19 0.00992595 -2.15681e-21 0.00224908)
(-0.00763887 -0.0653439 3.89924e-20 0.00514707 7.30183e-21 0.0024918)
(-0.00430898 -0.0594758 2.68601e-20 0.0015897 -4.89156e-20 0.00271928)
(-0.00182877 -0.0542253 1.27757e-19 -0.00111267 -1.55959e-19 0.00294144)
(6.3245e-05 -0.0495007 -1.51763e-19 -0.00323036 -4.18631e-20 0.00316712)
(0.00152144 -0.0452307 -1.54365e-19 -0.00492245 -7.52662e-20 0.00340101)
(0.00268513 -0.041348 -2.70053e-19 -0.00632225 -4.24062e-20 0.00363712)
(0.0036281 -0.0377961 -3.81161e-20 -0.00749107 -6.64246e-21 0.00386297)
(0.00444813 -0.0345151 -1.2875e-19 -0.00849065 -8.76577e-20 0.00404252)
(0.00519338 -0.0314501 -1.39673e-19 -0.00932703 1.63355e-20 0.00413365)
(0.00595692 -0.0285404 1.67545e-19 -0.0100221 -6.57399e-20 0.0040652)
(0.00678393 -0.0257308 -4.52812e-20 -0.0105555 -9.73814e-20 0.0037716)
(0.00777304 -0.0229651 9.00774e-20 -0.0109401 -1.16258e-19 0.00316707)
(0.00896155 -0.0202045 -2.37137e-19 -0.0111667 -1.16312e-19 0.00220515)
(0.0105329 -0.0173723 2.70077e-21 -0.011371 -2.38677e-20 0.000838113)
(-0.0821676 -0.128799 1.9357e-20 0.081865 6.14098e-21 0.000302546)
(-0.0529331 -0.11134 8.69535e-20 0.0521599 -2.99983e-20 0.000773209)
(-0.0341273 -0.0973662 6.91013e-20 0.0329663 -7.07819e-20 0.00116098)
(-0.0217001 -0.0859396 6.53433e-20 0.0202146 -6.43429e-20 0.00148548)
(-0.0132888 -0.0764182 1.51784e-20 0.0115269 -9.8216e-20 0.00176186)
(-0.00746247 -0.0683383 -1.12818e-19 0.00545941 -5.11055e-20 0.00200306)
(-0.00335669 -0.0613894 -4.04551e-21 0.00113713 -4.11656e-20 0.00221957)
(-0.000405145 -0.0553341 -5.92807e-20 -0.00201749 -7.82722e-20 0.00242263)
(0.00174054 -0.0500088 -1.49749e-19 -0.00436161 -3.31543e-21 0.00262107)
(0.00333492 -0.0452786 3.82677e-20 -0.00615768 5.17992e-21 0.00282276)
(0.00452718 -0.0410482 -1.01795e-19 -0.00755905 -1.45718e-19 0.00303187)
(0.00545123 -0.03723 -4.25931e-19 -0.00869426 -1.72859e-20 0.00324303)
(0.00617622 -0.033759 -2.60965e-19 -0.00962132 1.08416e-21 0.0034451)
(0.00679377 -0.0305651 -4.20031e-19 -0.0103997 1.69423e-20 0.0036059)
(0.00734617 -0.0275925 -2.29047e-19 -0.011034 6.19551e-20 0.00368779)
(0.00791853 -0.0247745 -2.74893e-19 -0.0115458 -6.18225e-20 0.00362722)
(0.00854897 -0.0220578 -2.97658e-19 -0.0119146 4.84378e-20 0.00336565)
(0.00932765 -0.0193803 -6.80502e-20 -0.0121541 4.84057e-21 0.00282645)
(0.0102869 -0.0167034 -1.33883e-19 -0.012255 -1.95325e-20 0.00196815)
(0.0116016 -0.0139266 -8.9333e-20 -0.0123497 3.37396e-20 0.000748097)
(-0.073134 -0.13567 7.1933e-20 0.07287 -2.71161e-20 0.000264068)
(-0.0457092 -0.113601 9.67835e-20 0.0450344 -4.63039e-20 0.000674798)
(-0.028197 -0.0968568 8.07995e-20 0.0271838 -5.95515e-20 0.00101319)
(-0.0167279 -0.0837561 3.14563e-21 0.0154315 -3.88991e-20 0.00129644)
(-0.00904952 -0.0732288 6.52643e-20 0.00751171 -9.61657e-20 0.00153781)
(-0.00380076 -0.0645576 -5.40335e-20 0.00205216 -6.91409e-20 0.0017486)
(-0.000160921 -0.0572806 -1.23673e-20 -0.00177704 -3.23328e-20 0.00193796)
(0.00240628 -0.0510635 -1.09326e-20 -0.00452201 -1.49175e-21 0.00211574)
(0.00422993 -0.045684 -1.04674e-20 -0.00651953 -1.30978e-20 0.0022896)
(0.00554987 -0.0409655 -2.17636e-20 -0.0080163 -8.57675e-20 0.00246643)
(0.00650581 -0.0367895 -5.01816e-20 -0.00915566 -6.52461e-20 0.00264986)
(0.00722266 -0.0330485 -1.38278e-19 -0.0100578 1.86172e-20 0.00283517)
(0.0077636 -0.0296696 -6.71361e-20 -0.0107762 -3.86388e-20 0.0030126)
(0.00821232 -0.0265728 -2.94217e-19 -0.0113663 -7.89229e-21 0.00315394)
(0.00860528 -0.0237018 -1.59158e-19 -0.0118315 -4.92271e-21 0.00322624)
(0.00901863 -0.020984 -2.66888e-19 -0.0121924 5.82728e-21 0.00317381)
(0.00948398 -0.0183686 -2.06282e-19 -0.0124294 6.81954e-20 0.00294538)
(0.010082 -0.0157874 -3.35228e-20 -0.0125558 -2.57504e-20 0.00247381)
(0.01084 -0.0132025 -2.78723e-19 -0.0125628 5.64997e-20 0.00172277)
(0.0119204 -0.0104901 1.68922e-19 -0.0125753 -1.47146e-21 0.00065489)
(-0.0633304 -0.141821 -7.15131e-21 0.063106 1.22213e-22 0.000224477)
(-0.0385306 -0.115448 -2.09426e-21 0.0379571 -4.95086e-21 0.000573548)
(-0.0227864 -0.0961269 1.09306e-20 0.0219252 1.69333e-21 0.000861145)
(-0.0125492 -0.0814763 7.68696e-20 0.0114472 -4.12491e-20 0.00110195)
(-0.00575633 -0.0700246 2.23503e-20 0.00444905 -9.32118e-20 0.00130728)
(-0.00116395 -0.0608164 -7.37397e-20 -0.000322806 -5.40235e-20 0.00148676)
(0.00197708 -0.0532478 -8.18996e-20 -0.00362527 -2.14306e-21 0.00164819)
(0.00415532 -0.0468936 1.90468e-20 -0.00595523 1.03521e-20 0.00179991)
(0.00566999 -0.0414766 1.0824e-19 -0.00761845 -6.54979e-20 0.00194845)
(0.00673869 -0.0367813 -3.01375e-20 -0.00883837 -9.80808e-20 0.00209968)
(0.00748761 -0.0326674 -9.14638e-20 -0.00974425 -5.49997e-20 0.00225664)
(0.00802919 -0.029009 -7.86663e-20 -0.0104445 -3.43744e-20 0.00241532)
(0.00841938 -0.0257259 -6.89115e-20 -0.0109867 -5.68181e-20 0.00256735)
(0.00873223 -0.022729 -1.72981e-19 -0.0114209 -7.08114e-20 0.00268864)
(0.00899847 -0.0199613 -3.45103e-19 -0.0117495 -2.20899e-20 0.00275104)
(0.00928432 -0.0173454 -2.73812e-19 -0.0119913 2.98413e-20 0.00270697)
(0.00961544 -0.0148323 -2.87386e-19 -0.0121281 8.16336e-20 0.00251264)
(0.0100619 -0.0123487 2.02279e-20 -0.0121726 1.15092e-19 0.0021107)
(0.0106466 -0.0098575 1.53816e-19 -0.0121167 1.84734e-20 0.00147011)
(0.0115149 -0.00721286 5.61101e-21 -0.0120738 -4.34493e-20 0.000558926)
(-0.0528349 -0.147139 -2.42325e-20 0.0526509 4.35113e-21 0.000183948)
(-0.0314092 -0.116919 -4.14318e-20 0.0309393 7.40587e-21 0.000469899)
(-0.0178685 -0.0953008 -3.46183e-20 0.017163 3.06867e-21 0.000705493)
(-0.00911388 -0.0792737 -2.4758e-20 0.00821104 -2.85952e-20 0.00090284)
(-0.00334606 -0.0670058 -6.83284e-20 0.0022748 -3.34948e-20 0.00107126)
(0.000518345 -0.0573278 -9.40085e-20 -0.00173702 4.00586e-21 0.00121868)
(0.00313125 -0.0495086 -1.17502e-20 -0.00448271 -1.02179e-20 0.00135147)
(0.0049171 -0.0430413 -4.36842e-20 -0.00639359 -3.37024e-20 0.00147649)
(0.00613554 -0.0375999 -2.0405e-20 -0.00773461 -5.90998e-20 0.00159908)
(0.00697503 -0.0329337 -6.04522e-20 -0.00869906 -4.39924e-20 0.00172403)
(0.0075445 -0.0288831 -1.4246e-20 -0.00939835 -5.66241e-20 0.00185385)
(0.00794076 -0.0253057 -1.22661e-19 -0.00992597 -6.63721e-20 0.00198521)
(0.00821133 -0.0221149 -1.30754e-19 -0.0103225 -5.67063e-20 0.00211118)
(0.00841913 -0.0192134 -2.35236e-19 -0.010631 -3.21082e-20 0.0022119)
(0.00858919 -0.016544 -2.06262e-19 -0.0108533 1.39386e-20 0.00226413)
(0.00877699 -0.0140247 -2.1642e-19 -0.0110056 2.54237e-20 0.00222861)
(0.00900271 -0.0116085 -2.21073e-19 -0.0110719 8.63987e-20 0.00206921)
(0.00932508 -0.00921758 3.42821e-20 -0.0110637 6.7818e-20 0.00173862)
(0.00976245 -0.0068153 1.85485e-20 -0.0109736 -5.09253e-21 0.0012112)
(0.0104395 -0.00423658 -1.04929e-20 -0.0109001 8.82669e-21 0.000460581)
(-0.0417442 -0.151525 -2.84387e-20 0.0416015 3.79189e-21 0.000142648)
(-0.0243481 -0.11805 -5.31673e-20 0.0239838 7.06182e-21 0.000364286)
(-0.0133915 -0.0944912 -5.47126e-20 0.0128447 1.82065e-21 0.000546892)
(-0.00633829 -0.0773052 -5.95108e-20 0.00563834 -1.04721e-20 0.000699957)
(-0.00171697 -0.0643531 -6.33881e-20 0.000886202 2.2493e-21 0.000830765)
(0.00135744 -0.0542842 3.99108e-21 -0.00230293 -2.32534e-21 0.000945483)
(0.0034171 -0.0462592 1.24742e-20 -0.00446617 -2.33777e-20 0.00104907)
(0.00480811 -0.0397025 4.17027e-20 -0.00595496 -4.17519e-20 0.00114685)
(0.00574197 -0.0342461 -1.60566e-21 -0.00698492 -6.70198e-20 0.00124295)
(0.00637199 -0.0296098 -4.90633e-20 -0.0077131 -5.83039e-20 0.0013411)
(0.00678656 -0.0256177 -4.56317e-20 -0.00822979 -6.76351e-20 0.00144323)
(0.00706408 -0.0221135 -1.31176e-19 -0.00861078 -5.23452e-20 0.0015467)
(0.00724264 -0.0190051 -1.02923e-19 -0.00888873 -4.76384e-20 0.00164609)
(0.00737269 -0.0161882 -2.19064e-19 -0.00909849 -4.47437e-20 0.00172581)
(0.00747363 -0.0136058 -3.26248e-19 -0.00924126 3.60001e-20 0.00176764)
(0.00758944 -0.0111717 -8.32172e-20 -0.00933025 7.42423e-20 0.00174081)