/*--------------------------------*- C++ -*----------------------------------*\
| =========                 |                                                 |
| \\      /  F ield         | foam-extend: Open Source CFD                    |
|  \\    /   O peration     | Version:  3.0                                   |
|   \\  /    A nd           | Web:         http://www.extend-project.de       |
|    \\/     M anipulation  |                                                 |
\*---------------------------------------------------------------------------*/
FoamFile
{
    version     2.0;
    format      ascii;
    class       volVectorField;
    location    "0.2";
    object      s;
}
// * * * * * * * * * * * * * * * * * * * * * * * * * * * * * * * * * * * * * //

dimensions      [0 0 0 0 0 0 0];

internalField   nonuniform List<vector> 
400
(
(-0.000890861 -0.000555269 5.07219e-318)
(-0.000661372 -0.000768104 6.55568e-318)
(-0.000440902 -0.000787074 5.97142e-318)
(-0.000295858 -0.000768332 5.48727e-318)
(-0.000197457 -0.000758136 4.65983e-318)
(-0.000133597 -0.00075926 4.48665e-318)
(-9.09494e-05 -0.000767974 3.97807e-318)
(-6.165e-05 -0.000780296 4.03493e-318)
(-4.03846e-05 -0.000793765 3.66947e-318)
(-2.34813e-05 -0.00080714 3.80008e-318)
(-7.88911e-06 -0.000819949 3.45139e-318)
(9.47324e-06 -0.000832103 3.54434e-318)
(3.22621e-05 -0.000843717 3.09624e-318)
(6.51852e-05 -0.000855102 3.01533e-318)
(0.000114694 -0.000866963 2.30826e-318)
(0.000189286 -0.000880484 1.89651e-318)
(0.000301683 -0.000895751 8.71986e-319)
(0.000461096 -0.000905692 3.88034e-319)
(0.000690421 -0.000859494 -1.31002e-319)
(0.000911733 -0.000595572 3.72007e-319)
(-0.000880132 -0.000249632 2.57499e-318)
(-0.000696871 -0.000348882 6.03705e-318)
(-0.000546695 -0.000339032 7.23938e-318)
(-0.000416943 -0.000310909 7.29314e-318)
(-0.000309471 -0.000298883 6.81705e-318)
(-0.000224291 -0.00030595 6.29684e-318)
(-0.000158065 -0.000327139 5.79299e-318)
(-0.000106973 -0.000356503 5.43786e-318)
(-6.69585e-05 -0.000389843 5.11671e-318)
(-3.3949e-05 -0.000424902 4.88832e-318)
(-3.57239e-06 -0.000460852 4.61016e-318)
(2.91321e-05 -0.000497618 4.33073e-318)
(6.99307e-05 -0.00053528 3.90117e-318)
(0.000125288 -0.000573595 3.37188e-318)
(0.000201883 -0.000611571 2.61975e-318)
(0.000305026 -0.000646713 1.77123e-318)
(0.000436782 -0.000672692 8.6506e-319)
(0.000590931 -0.000673435 2.70787e-319)
(0.000753758 -0.000601807 1.60221e-319)
(0.000916759 -0.000356126 6.01777e-319)
(-0.000853309 2.22285e-05 4.54954e-318)
(-0.000656542 0.000106592 7.56071e-318)
(-0.000516667 0.000189224 8.13181e-318)
(-0.00040246 0.000240274 7.70013e-318)
(-0.000305257 0.000252275 6.86801e-318)
(-0.000222689 0.000231141 6.09877e-318)
(-0.000153314 0.000187383 5.38817e-318)
(-9.62268e-05 0.000130557 4.8901e-318)
(-4.9992e-05 6.69243e-05 4.44184e-318)
(-1.22474e-05 -5.7105e-07 4.12534e-318)
(2.06432e-05 -7.13844e-05 3.74991e-318)
(5.37828e-05 -0.000146104 3.38571e-318)
(9.37149e-05 -0.000225141 2.83543e-318)
(0.000147945 -0.00030741 2.16895e-318)
(0.000223953 -0.000389028 1.20437e-318)
(0.000326988 -0.000461704 6.24005e-320)
(0.00045794 -0.00051087 -1.32326e-318)
(0.000608946 -0.000512285 -2.61851e-318)
(0.000767261 -0.000428526 -3.47525e-318)
(0.00092273 -0.000204419 -2.81103e-318)
(-0.000808806 0.000249903 2.08332e-318)
(-0.000573519 0.000605586 5.35189e-318)
(-0.000427388 0.000825009 6.58371e-318)
(-0.000320625 0.000927444 6.54921e-318)
(-0.000230532 0.000939607 5.91043e-318)
(-0.000149185 0.000890214 5.12826e-318)
(-7.55986e-05 0.000804465 4.40018e-318)
(-1.19503e-05 0.000700456 3.80903e-318)
(3.96155e-05 0.000588285 3.32814e-318)
(7.86505e-05 0.000471469 2.92898e-318)
(0.000107209 0.000349227 2.53481e-318)
(0.000130185 0.000218904 2.09807e-318)
(0.000155248 7.85403e-05 1.53653e-318)
(0.000192194 -7.07264e-05 8.10594e-319)
(0.000251692 -0.000222046 -1.24939e-319)
(0.000342383 -0.000360607 -1.21533e-318)
(0.000468103 -0.000462185 -2.31089e-318)
(0.000621524 -0.000492862 -3.02748e-318)
(0.00078835 -0.00041419 -2.81794e-318)
(0.000939291 -0.000187532 -1.05914e-318)
(-0.000735795 0.000541932 4.00749e-318)
(-0.000434029 0.00126824 6.46151e-318)
(-0.000268433 0.00167907 6.86092e-318)
(-0.000156244 0.00184818 6.27463e-318)
(-5.8935e-05 0.00184868 5.34467e-318)
(3.7065e-05 0.00174566 4.39773e-318)
(0.000130391 0.00158875 3.57529e-318)
(0.000213598 0.00140993 2.91603e-318)
(0.000278953 0.00122485 2.39223e-318)
(0.000321792 0.00103696 1.95449e-318)
(0.00034179 0.000842172 1.53575e-318)
(0.000343575 0.00063321 1.07113e-318)
(0.00033667 0.000404035 4.88522e-319)
(0.000334989 0.000153962 -2.69404e-319)
(0.000355373 -0.00010754 -1.24455e-318)
(0.000413767 -0.000356769 -2.41999e-318)
(0.000520767 -0.000553209 -3.68639e-318)
(0.000670303 -0.000640471 -4.75839e-318)
(0.000841737 -0.000558345 -5.04418e-318)
(0.000973439 -0.000254429 -3.49058e-318)
(-0.000617004 0.000955209 2.03485e-318)
(-0.000201844 0.00219739 4.976e-318)
(8.85568e-06 0.0028586 5.88344e-318)
(0.000153627 0.00309546 5.58531e-318)
(0.000289918 0.00305323 4.75391e-318)
(0.000435402 0.00285395 3.81712e-318)
(0.000581789 0.00258395 2.97549e-318)
(0.000712312 0.00229463 2.28952e-318)
(0.000810672 0.00200801 1.74282e-318)
(0.000866248 0.00172542 1.28589e-318)
(0.000875465 0.0014361 8.54165e-319)
(0.000842506 0.00112398 3.79591e-319)
(0.000779304 0.000774891 -2.05833e-319)
(0.000705513 0.000382655 -9.57479e-319)
(0.00064726 -4.19425e-05 -1.89983e-318)
(0.000632459 -0.000464004 -2.98562e-318)
(0.00068402 -0.000816727 -4.02988e-318)
(0.000800376 -0.00100169 -4.62269e-318)
(0.000953555 -0.000906511 -4.10883e-318)
(0.00103361 -0.000425725 -1.68765e-318)
(-0.00043659 0.00154156 3.71972e-318)
(0.000168003 0.00348281 5.92937e-318)
(0.000476999 0.0044477 6.21378e-318)
(0.0007129 0.00473035 5.53829e-318)
(0.000952037 0.00458977 4.52541e-318)
(0.00121175 0.00423315 3.50027e-318)
(0.00146952 0.0037975 2.61204e-318)
(0.00169421 0.00335803 1.89837e-318)
(0.00185794 0.00294194 1.3345e-318)
(0.00194288 0.00254457 8.66072e-319)
(0.00194159 0.00214349 4.27307e-319)
(0.00185759 0.00170833 -5.16299e-320)
(0.00170498 0.00121101 -6.38713e-319)
(0.00150994 0.000634165 -1.39269e-318)
(0.00131013 -1.39495e-05 -2.34366e-318)
(0.00115062 -0.000686548 -3.46395e-318)
(0.00107459 -0.00127977 -4.61589e-318)
(0.00109218 -0.00162705 -5.48711e-318)
(0.00117311 -0.00151961 -5.46635e-318)
(0.0011369 -0.000737708 -3.57434e-318)
(-0.000176523 0.00235727 2.12357e-318)
(0.000736723 0.0052061 4.94246e-318)
(0.00124402 0.0065037 5.67248e-318)
(0.00168057 0.00677435 5.22712e-318)
(0.00213366 0.00645038 4.28928e-318)
(0.00261152 0.00585844 3.27654e-318)
(0.00306832 0.00519912 2.38196e-318)
(0.00345427 0.00457223 1.65848e-318)
(0.00372879 0.00400587 1.08669e-318)
(0.00386737 0.00348326 6.13956e-319)
(0.00385926 0.00296433 1.7355e-319)
(0.00370699 0.00239779 -3.03747e-319)
(0.00342543 0.00173502 -8.85573e-319)
(0.00304578 0.000939087 -1.6278e-318)
(0.00261689 8.83001e-06 -2.55492e-318)
(0.00220428 -0.0010018 -3.61922e-318)
(0.00188016 -0.00194319 -4.63491e-318)
(0.00167781 -0.00255209 -5.19011e-318)
(0.00157903 -0.00246156 -4.60463e-318)
(0.00130837 -0.00123919 -1.97504e-318)
(0.0001778 0.00343025 3.53803e-318)
(0.00157993 0.00737489 5.68635e-318)
(0.00245208 0.00898339 5.96555e-318)
(0.00326788 0.00914097 5.27202e-318)
(0.00410361 0.00852594 4.22762e-318)
(0.00494584 0.00761726 3.16849e-318)
(0.00571679 0.00668515 2.2518e-318)
(0.00634741 0.00584839 1.51755e-318)
(0.00678748 0.00512762 9.40691e-319)
(0.00700977 0.00448644 4.67248e-319)
(0.00700257 0.00386111 2.98218e-320)
(0.00676755 0.00317399 -4.42376e-319)
(0.00631708 0.00234937 -1.01726e-318)
(0.00568285 0.00132166 -1.75202e-318)
(0.00491895 6.90118e-05 -2.67619e-318)
(0.0041097 -0.00135899 -3.75699e-318)
(0.00336146 -0.00276762 -4.84631e-318)
(0.0027437 -0.0037728 -5.62074e-318)
(0.00227847 -0.0037747 -5.46839e-318)
(0.00157366 -0.00198227 -3.48238e-318)
(0.000643149 0.00479302 2.2571e-318)
(0.00279396 0.00996405 5.03428e-318)
(0.00428461 0.0117834 5.66734e-318)
(0.00573662 0.0116796 5.13934e-318)
(0.00717763 0.0106546 4.14127e-318)
(0.00856001 0.00936021 3.0879e-318)
(0.00977183 0.00812941 2.16733e-318)
(0.0107322 0.00708503 1.4303e-318)
(0.0113911 0.00622844 8.53904e-319)
(0.0117268 0.0054955 3.84087e-319)
(0.0117318 0.004795 -4.66546e-320)
(0.0114073 0.00401979 -5.08986e-319)
(0.0107587 0.00306367 -1.07089e-318)
(0.00980944 0.00182343 -1.78905e-318)
(0.00860597 0.000243802 -2.69029e-318)
(0.00723969 -0.00165159 -3.73282e-318)
(0.00584533 -0.00363679 -4.74081e-318)
(0.00453619 -0.00520223 -5.31367e-318)
(0.00341373 -0.00543937 -4.76957e-318)
(0.00196519 -0.00300543 -2.13413e-318)
(0.00121722 0.00641324 3.42184e-318)
(0.00447538 0.012802 5.59517e-318)
(0.00692927 0.014639 5.89825e-318)
(0.00934089 0.0140999 5.19581e-318)
(0.0116383 0.0125693 4.12662e-318)
(0.013737 0.0108635 3.04373e-318)
(0.0155018 0.0093524 2.11178e-318)
(0.0168584 0.00813933 1.37257e-318)
(0.017774 0.00719279 7.99927e-319)
(0.0182454 0.00641568 3.37936e-319)
(0.0182756 0.00568933 -8.19111e-320)
(0.0178673 0.00487937 -5.29204e-319)
(0.0170134 0.00385019 -1.07257e-318)
(0.0157185 0.00245732 -1.76964e-318)
(0.0140011 0.000599546 -2.65201e-318)
(0.0119362 -0.00175179 -3.68879e-318)
(0.00966202 -0.00437323 -4.73666e-318)
(0.00732475 -0.00665794 -5.47188e-318)
(0.00514445 -0.00734061 -5.28672e-318)
(0.00250341 -0.00431769 -3.32453e-318)
(0.00191213 0.00825629 2.41897e-318)
(0.00672554 0.0156661 5.18835e-318)
(0.010559 0.0172394 5.74144e-318)
(0.0142718 0.016098 5.1328e-318)
(0.0176493 0.0140222 4.07747e-318)
(0.0205889 0.0119425 2.99111e-318)
(0.0229637 0.0102214 2.05838e-318)
(0.0247362 0.00891394 1.32361e-318)
(0.025914 0.00794518 7.60693e-319)
(0.0265257 0.00718422 3.11978e-319)
(0.0265928 0.00649065 -9.13972e-320)
(0.0261215 0.00571036 -5.17277e-319)
(0.0250885 0.00468624 -1.03387e-318)
(0.0234692 0.00323528 -1.69823e-318)
(0.0212311 0.00120561 -2.54241e-318)
(0.0183994 -0.0015107 -3.5347e-318)
(0.0150659 -0.00473877 -4.52018e-318)
(0.0113671 -0.00784896 -5.12769e-318)
(0.00764642 -0.00923265 -4.69359e-318)
(0.0032317 -0.00587138 -2.19926e-318)
(0.0027027 0.0101855 3.38136e-318)
(0.00959303 0.018159 5.61611e-318)
(0.0152276 0.0191518 5.90428e-318)
(0.0205148 0.0173138 5.1494e-318)
(0.0250907 0.0147549 4.03324e-318)
(0.0288884 0.0124233 2.92633e-318)
(0.0318411 0.0106171 1.99392e-318)
(0.033984 0.00931937 1.27025e-318)
(0.0353869 0.00840841 7.23707e-319)
(0.0361213 0.00772664 2.94443e-319)
(0.0362322 0.00712272 -8.53202e-320)
(0.0357323 0.00643585 -4.82425e-319)
(0.0345809 0.00550052 -9.63428e-319)
(0.0327205 0.00410816 -1.58479e-318)
(0.030049 0.00206154 -2.38105e-318)
(0.0265082 -0.000838683 -3.3317e-318)
(0.0220753 -0.00451534 -4.31348e-318)
(0.0167937 -0.00842774 -5.02703e-318)
(0.0110572 -0.0107312 -4.89393e-318)
(0.00418622 -0.00752955 -3.09415e-318)
(0.00365191 0.0120187 2.63451e-318)
(0.0130652 0.0198391 5.37847e-318)
(0.0208079 0.0199872 5.78689e-318)
(0.0277463 0.0174938 5.04957e-318)
(0.033446 0.0146338 3.92251e-318)
(0.0379588 0.0122444 2.81725e-318)
(0.041342 0.0105113 1.90071e-318)
(0.0437341 0.00933521 1.20023e-318)
(0.0452793 0.00855682 6.79983e-319)
(0.0460942 0.00800565 2.78515e-319)
(0.0462482 0.00753381 -7.03648e-320)
(0.0457619 0.00698855 -4.31482e-319)
(0.044582 0.00621242 -8.67056e-319)
(0.0426224 0.00499067 -1.43141e-318)
(0.0397083 0.00310067 -2.15816e-318)
(0.0356787 0.000261225 -3.03155e-318)
(0.0303283 -0.00357346 -3.93166e-318)
(0.0235015 -0.00807255 -4.54549e-318)
(0.0154398 -0.0113566 -4.27796e-318)
(0.00551796 -0.00903299 -2.12057e-318)
(0.00476526 0.0134083 3.45144e-318)
(0.0169468 0.0201829 5.66657e-318)
(0.0268258 0.0194171 5.79661e-318)
(0.0351728 0.0164976 4.91226e-318)
(0.0416691 0.0136307 3.74316e-318)
(0.046581 0.0114217 2.64896e-318)
(0.0501412 0.00992177 1.7662e-318)
(0.0526006 0.00896413 1.10521e-318)
(0.0541719 0.00837212 6.23279e-319)
(0.0550074 0.00798128 2.58505e-319)
(0.0551947 0.00766128 -5.22376e-320)
(0.0547633 0.00728117 -3.6962e-319)
(0.0536549 0.00670599 -7.50209e-319)
(0.0517707 0.00573808 -1.24484e-318)
(0.0488806 0.00415771 -1.88593e-318)
(0.0447322 0.0016408 -2.66709e-318)
(0.0389043 -0.00196659 -3.49837e-318)
(0.0309536 -0.00661612 -4.14431e-318)
(0.0206383 -0.0106258 -4.11915e-318)
(0.00739052 -0.00994105 -2.70228e-318)
(0.00625635 0.0138947 2.9258e-318)
(0.0207987 0.0187542 5.42142e-318)
(0.0323804 0.0173033 5.50565e-318)
(0.0414826 0.0143732 4.59164e-318)
(0.0481939 0.0118491 3.43804e-318)
(0.0530458 0.0100442 2.39617e-318)
(0.0564584 0.00889937 1.57776e-318)
(0.0587709 0.00821742 9.78285e-319)
(0.0602374 0.00783236 5.49525e-319)
(0.061025 0.00760412 2.3149e-319)
(0.0612278 0.00743042 -3.42536e-320)
(0.0608825 0.00721063 -3.01187e-319)
(0.0599359 0.00684167 -6.19138e-319)
(0.0582976 0.00616189 -1.03213e-318)
(0.0557211 0.00498462 -1.56904e-318)
(0.0519073 0.0029994 -2.22561e-318)
(0.0462531 8.31459e-06 -2.92458e-318)
(0.0380294 -0.00419369 -3.44371e-318)
(0.026126 -0.00828419 -3.33483e-318)
(0.0101627 -0.00970103 -1.76109e-318)
(0.00796165 0.0127085 3.57675e-318)
(0.0237388 0.0153339 5.34513e-318)
(0.0360146 0.0137914 5.09899e-318)
(0.0448489 0.0113667 4.09243e-318)
(0.0510195 0.0094921 2.98823e-318)
(0.0552968 0.00823646 2.04518e-318)
(0.0582319 0.0074966 1.32846e-318)
(0.0601947 0.00709445 8.16098e-319)
(0.0614364 0.00690005 4.56863e-319)
(0.0621116 0.00681051 1.9526e-319)
(0.0623071 0.00675557 -1.86905e-320)
(0.0620621 0.0066671 -2.30457e-319)
(0.0613375 0.00647556 -4.80321e-319)
(0.0600703 0.00606537 -8.0384e-319)
(0.0580463 0.00530259 -1.22462e-318)
(0.0549874 0.00394537 -1.7416e-318)
(0.0502252 0.00183928 -2.30085e-318)
(0.0428688 -0.00132255 -2.7551e-318)
(0.0307117 -0.0045332 -2.78513e-318)
(0.0137795 -0.00760433 -1.96362e-318)
(0.00973422 0.00978112 3.02971e-318)
(0.0243887 0.0104175 4.6177e-318)
(0.0357162 0.00944295 4.24791e-318)
(0.0430323 0.00793867 3.31023e-318)
(0.0478905 0.00686471 2.36025e-318)
(0.0511364 0.00617843 1.58685e-318)
(0.053327 0.00580965 1.01703e-318)
(0.0547857 0.00563984 6.19242e-319)
(0.0557119 0.00558919 3.45673e-319)
(0.0562239 0.00559528 1.50023e-319)
(0.0563879 0.00561743 -7.34676e-321)
(0.0562393 0.00561633 -1.60275e-319)
(0.0557582 0.00555145 -3.38954e-319)
(0.0549154 0.0053523 -5.68882e-319)
(0.0535723 0.00494208 -8.66265e-319)
(0.0515292 0.00417517 -1.22832e-318)
(0.0482276 0.00300811 -1.6117e-318)
(0.0428635 0.00122424 -1.89087e-318)
(0.0323538 -0.000293467 -1.808e-318)
(0.0177924 -0.00373687 -9.22949e-319)
(0.00967829 0.00388901 2.99422e-318)
(0.0208278 0.00478077 3.55374e-318)
(0.0293188 0.00491513 3.01909e-318)
(0.0340379 0.00447031 2.24285e-318)
(0.0370138 0.00410565 1.55438e-318)
(0.0389485 0.00386511 1.02587e-318)
(0.0402479 0.00375689 6.48797e-319)
(0.0411218 0.00373206 3.91626e-319)
(0.041683 0.00375799 2.18194e-319)
(0.042 0.00380552 9.57598e-320)
(0.042111 0.00385649 -8.49793e-322)
(0.0420407 0.00389254 -9.3329e-320)
(0.0417871 0.00389463 -2.00225e-319)
(0.0413459 0.00382613 -3.36315e-319)
(0.0406712 0.00365646 -5.10637e-319)
(0.0396583 0.00331822 -7.20155e-319)
(0.0380132 0.00287324 -9.38443e-319)
(0.0352278 0.00233188 -1.09946e-318)
(0.0281159 0.00261117 -1.05642e-318)
(0.019191 0.00184721 -7.76404e-319)
(0.00523439 0.000497919 1.61215e-318)
(0.0094524 0.000967913 1.62871e-318)
(0.0123913 0.00161847 1.25601e-318)
(0.0137394 0.00180668 8.81374e-319)
(0.0146197 0.00187108 5.89005e-319)
(0.0151971 0.00188463 3.79274e-319)
(0.0156099 0.00190565 2.35837e-319)
(0.0158939 0.00193287 1.40735e-319)
(0.016084 0.00196694 7.81513e-320)
(0.0161942 0.00200229 3.48712e-320)
(0.0162355 0.0020359 1.17094e-321)
(0.0162221 0.00206411 -3.0301e-320)
(0.0161476 0.00208322 -6.59726e-320)
(0.0160403 0.00208267 -1.10784e-319)
(0.0158679 0.00206531 -1.66777e-319)
(0.0156918 0.00201104 -2.30571e-319)
(0.0153586 0.00203044 -2.87284e-319)
(0.015073 0.00217327 -2.97121e-319)
(0.0129706 0.00323786 -1.76871e-319)
(0.0130362 0.00368531 1.84015e-319)
)
;

boundaryField
{
    cavity
    {
        type            myHeatFlux;
        ThetaWall       uniform 0;
        value           nonuniform List<vector> 
60
(
(0.001 0 0)
(0.001 0 0)
(0.001 0 0)
(0.001 0 0)
(0.001 0 0)
(0.001 0 0)
(0.001 0 0)
(0.001 0 0)
(0.001 0 0)
(0.001 0 0)
(0.001 0 0)
(0.001 0 0)
(0.001 0 0)
(0.001 0 0)
(0.001 0 0)
(0.001 0 0)
(0.001 0 0)
(0.001 0 0)
(0.001 0 0)
(0.001 0 0)
(0 -0.001 0)
(0 -0.001 0)
(0 -0.001 0)
(0 -0.001 0)
(0 -0.001 0)
(0 -0.001 0)
(0 -0.001 0)
(0 -0.001 0)
(0 -0.001 0)
(0 -0.001 0)
(0 -0.001 0)
(0 -0.001 0)
(0 -0.001 0)
(0 -0.001 0)
(0 -0.001 0)
(0 -0.001 0)
(0 -0.001 0)
(0 -0.001 0)
(0 -0.001 0)
(0 -0.001 0)
(-0.001 0 0)
(-0.001 0 0)
(-0.001 0 0)
(-0.001 0 0)
(-0.001 0 0)
(-0.001 0 0)
(-0.001 0 0)
(-0.001 0 0)
(-0.001 0 0)
(-0.001 0 0)
(-0.001 0 0)
(-0.001 0 0)
(-0.001 0 0)
(-0.001 0 0)
(-0.001 0 0)
(-0.001 0 0)
(-0.001 0 0)
(-0.001 0 0)
(-0.001 0 0)
(-0.001 0 0)
)
;
    }
    lid
    {
        type            myHeatFlux;
        ThetaWall       uniform 0;
        value           nonuniform List<vector> 
20
(
(0.000135815 0.0009 0)
(0.000135815 0.0009 0)
(0.000135815 0.0009 0)
(0.000135815 0.0009 0)
(0.000135815 0.0009 0)
(0.000135815 0.0009 0)
(0.000135815 0.0009 0)
(0.000135815 0.0009 0)
(0.000135815 0.0009 0)
(0.000135815 0.0009 0)
(0.000135815 0.0009 0)
(0.000135815 0.0009 0)
(0.000135815 0.0009 0)
(0.000135815 0.0009 0)
(0.000135815 0.0009 0)
(0.000135815 0.0009 0)
(0.000135815 0.0009 0)
(0.000135815 0.0009 0)
(0.000135815 0.0009 0)
(0.000135815 0.0009 0)
)
;
    }
    frontAndBack
    {
        type            empty;
    }
}


// ************************************************************************* //
