/*--------------------------------*- C++ -*----------------------------------*\
| =========                 |                                                 |
| \\      /  F ield         | foam-extend: Open Source CFD                    |
|  \\    /   O peration     | Version:  3.0                                   |
|   \\  /    A nd           | Web:         http://www.extend-project.de       |
|    \\/     M anipulation  |                                                 |
\*---------------------------------------------------------------------------*/
FoamFile
{
    version     2.0;
    format      ascii;
    class       volVectorField;
    location    "0.2";
    object      u;
}
// * * * * * * * * * * * * * * * * * * * * * * * * * * * * * * * * * * * * * //

dimensions      [0 0 0 0 0 0 0];

internalField   nonuniform List<vector> 
400
(
(1.53452e-05 8.23558e-05 1.02554e-316)
(1.49963e-05 0.000112809 9.76743e-317)
(1.07943e-05 0.000126971 1.60654e-317)
(2.39176e-06 0.000130578 7.20301e-317)
(-3.7546e-06 0.000126705 3.71845e-318)
(-8.23258e-06 0.000118937 6.69292e-317)
(-1.04216e-05 0.000109016 1.51621e-318)
(-1.15557e-05 9.88284e-05 6.594e-317)
(-1.23349e-05 8.8527e-05 1.02316e-318)
(-1.37416e-05 7.85072e-05 6.56352e-317)
(-1.58315e-05 6.7838e-05 7.38623e-319)
(-1.90901e-05 5.67035e-05 6.52263e-317)
(-2.24069e-05 4.36341e-05 1.44613e-320)
(-2.60322e-05 2.98768e-05 6.38442e-317)
(-2.75717e-05 1.37357e-05 -2.68895e-318)
(-2.77251e-05 -1.08527e-06 5.85819e-317)
(-2.34943e-05 -1.64075e-05 -1.2751e-317)
(-1.72994e-05 -2.51915e-05 4.04284e-317)
(-7.97498e-06 -3.02246e-05 -4.45916e-317)
(-4.11004e-07 -2.27702e-05 2.20602e-318)
(1.31996e-05 0.000192734 -8.14819e-318)
(1.19122e-05 0.00023416 1.59561e-317)
(7.23097e-06 0.000252212 2.26263e-317)
(-6.75463e-07 0.000253441 1.81765e-317)
(-5.72148e-06 0.000242746 2.01196e-317)
(-8.50348e-06 0.000226059 1.52567e-317)
(-8.94922e-06 0.00020635 1.79729e-317)
(-8.54354e-06 0.000186437 1.38705e-317)
(-8.30622e-06 0.000166965 1.71051e-317)
(-9.4822e-06 0.000147805 1.32859e-317)
(-1.19828e-05 0.000128127 1.66111e-317)
(-1.66535e-05 0.000106917 1.27186e-317)
(-2.16978e-05 8.30118e-05 1.57787e-317)
(-2.79125e-05 5.65663e-05 1.13793e-317)
(-3.14946e-05 2.67284e-05 1.36301e-317)
(-3.3938e-05 -2.39468e-06 8.14113e-318)
(-3.01663e-05 -3.17765e-05 9.40405e-318)
(-2.37773e-05 -5.02312e-05 4.60208e-318)
(-1.20125e-05 -6.20752e-05 1.124e-317)
(-1.40924e-06 -4.95823e-05 3.61368e-317)
(2.87414e-05 0.000444894 1.05133e-316)
(2.12977e-05 0.000529195 4.98668e-317)
(8.03262e-06 0.000560225 2.87457e-317)
(-7.65244e-06 0.000555866 1.92195e-317)
(-1.58743e-05 0.000525494 1.33024e-317)
(-1.68683e-05 0.000484664 1.13856e-317)
(-1.33546e-05 0.000438419 9.1283e-318)
(-8.10746e-06 0.000394023 9.08848e-318)
(-4.63069e-06 0.000351172 7.81421e-318)
(-4.91185e-06 0.000310467 8.25948e-318)
(-9.75624e-06 0.000268013 7.15958e-318)
(-1.99479e-05 0.000223248 7.5589e-318)
(-3.29309e-05 0.000170357 6.16208e-318)
(-4.91162e-05 0.000112902 5.91698e-318)
(-6.10553e-05 4.37468e-05 3.33185e-318)
(-7.10203e-05 -2.23504e-05 9.01497e-319)
(-6.60642e-05 -9.44803e-05 -5.79109e-318)
(-5.53387e-05 -0.000138955 -1.64794e-317)
(-2.77554e-05 -0.000171942 -3.95091e-317)
(-3.35674e-06 -0.000142978 -9.71604e-317)
(5.25076e-05 0.00098377 -1.8351e-317)
(3.33925e-05 0.0011426 1.04084e-317)
(7.81848e-06 0.00117309 1.28909e-317)
(-1.61179e-05 0.00113894 1.12222e-317)
(-2.37965e-05 0.00105421 8.84654e-318)
(-1.52824e-05 0.000956899 6.97706e-318)
(4.71352e-07 0.000856338 5.70636e-318)
(1.81413e-05 0.000764534 4.90003e-318)
(3.01863e-05 0.000681581 4.37401e-318)
(3.23913e-05 0.000603793 4.00724e-318)
(2.42065e-05 0.000526509 3.66584e-318)
(2.33201e-06 0.000441243 3.26675e-318)
(-2.60446e-05 0.000343196 2.66932e-318)
(-6.48924e-05 0.000226825 1.74532e-318)
(-9.5843e-05 8.99701e-05 2.89824e-319)
(-0.000126338 -5.58904e-05 -1.84527e-318)
(-0.000125328 -0.000211676 -4.5814e-318)
(-0.000111493 -0.000323162 -6.71589e-318)
(-5.8917e-05 -0.000408004 -4.8697e-318)
(-6.30091e-06 -0.00035194 2.18e-317)
(8.34469e-05 0.00187052 1.04652e-316)
(3.06505e-05 0.00215269 4.45777e-317)
(-2.53527e-05 0.00216604 2.40613e-317)
(-5.20157e-05 0.00207006 1.37581e-317)
(-4.67988e-05 0.00188058 8.52916e-318)
(-3.23381e-06 0.0016835 5.68089e-318)
(4.81567e-05 0.00148766 4.0512e-318)
(0.000100422 0.00131887 3.10607e-318)
(0.000134998 0.00116973 2.51307e-318)
(0.000147758 0.00103581 2.11595e-318)
(0.000133319 0.000901325 1.75253e-318)
(9.12645e-05 0.000755648 1.3356e-318)
(2.68531e-05 0.000578813 6.95422e-319)
(-5.92761e-05 0.000370194 -3.25989e-319)
(-0.000140599 0.000106532 -2.08836e-318)
(-0.000224118 -0.000173319 -5.14883e-318)
(-0.000244046 -0.000497612 -1.07322e-317)
(-0.000242261 -0.000732151 -2.16278e-317)
(-0.000132978 -0.000934515 -4.31929e-317)
(-2.68452e-05 -0.00083117 -1.03944e-316)
(0.000129128 0.00387177 -1.93561e-317)
(2.59021e-05 0.0043329 1.10169e-317)
(-5.99754e-05 0.00420734 1.22092e-317)
(-6.60415e-05 0.00391887 9.63757e-318)
(-1.52342e-05 0.00347809 6.71448e-318)
(0.000106729 0.00305947 4.53273e-318)
(0.000231146 0.00267818 3.08417e-318)
(0.00034934 0.00236291 2.16896e-318)
(0.000427214 0.00210505 1.58023e-318)
(0.000458051 0.00187599 1.1666e-318)
(0.00043675 0.00166089 8.03524e-319)
(0.000355861 0.00141244 3.79852e-319)
(0.000232472 0.00112386 -2.32581e-319)
(5.35209e-05 0.000739904 -1.19275e-318)
(-0.000120911 0.000273923 -2.69856e-318)
(-0.000318924 -0.000295095 -4.95905e-318)
(-0.000399657 -0.00093171 -7.95818e-318)
(-0.000444566 -0.0014803 -1.05693e-317)
(-0.000265106 -0.00196033 -9.23527e-318)
(-6.29108e-05 -0.00181796 2.06497e-317)
(0.000132674 0.00662801 1.04875e-316)
(-9.93084e-05 0.00732139 4.21511e-317)
(-0.000263491 0.00692466 2.22335e-317)
(-0.000164357 0.00632096 1.22935e-317)
(1.95813e-05 0.00548142 7.21258e-318)
(0.000343345 0.00474263 4.37192e-318)
(0.000639282 0.00409235 2.72247e-318)
(0.000905829 0.0035843 1.739e-318)
(0.00107784 0.00317859 1.12556e-318)
(0.00115829 0.00283501 6.95926e-319)
(0.0011253 0.0025095 3.30199e-319)
(0.000990105 0.00213996 -1.03205e-319)
(0.000743303 0.00168463 -7.28371e-319)
(0.000400959 0.00107883 -1.73905e-318)
(1.23468e-05 0.000286465 -3.43646e-318)
(-0.000429788 -0.000686907 -6.35782e-318)
(-0.000680391 -0.0018679 -1.15878e-317)
(-0.000896199 -0.00291606 -2.18419e-317)
(-0.000565302 -0.00393991 -4.24376e-317)
(-0.000219386 -0.00377814 -1.05464e-316)
(0.000123274 0.0128389 -1.97065e-317)
(-0.00022701 0.0137055 1.26853e-317)
(-0.000389813 0.0124442 1.28306e-317)
(-2.9311e-05 0.0110119 9.59328e-318)
(0.000432883 0.009324 6.33107e-318)
(0.00110595 0.00792155 3.98544e-318)
(0.0016783 0.00679864 2.45735e-318)
(0.00217243 0.00594727 1.49728e-318)
(0.00248649 0.00532781 8.86433e-319)
(0.00263354 0.00480581 4.60025e-319)
(0.00259307 0.00435625 8.82204e-320)
(0.00236466 0.00379692 -3.35189e-319)
(0.00195288 0.00315715 -9.53542e-319)
(0.00133784 0.00215447 -1.9155e-318)
(0.00062519 0.000930276 -3.45132e-318)
(-0.000254155 -0.000867723 -5.80757e-318)
(-0.000845099 -0.00293274 -9.05038e-318)
(-0.00143592 -0.00516768 -1.21787e-317)
(-0.00101308 -0.00734291 -1.16417e-317)
(-0.000490351 -0.00742581 2.08581e-317)
(-0.000246693 0.0198505 1.05015e-316)
(-0.000868008 0.0207553 4.01814e-317)
(-0.00110748 0.0182055 2.11717e-317)
(-4.80258e-05 0.0156837 1.17156e-317)
(0.00105193 0.0129096 6.82774e-318)
(0.00247405 0.0107534 4.03575e-318)
(0.0036164 0.00908693 2.38673e-318)
(0.00454913 0.00789103 1.39424e-318)
(0.00513476 0.00704472 7.73415e-319)
(0.00542957 0.00636589 3.40579e-319)
(0.00537546 0.0057804 -3.28356e-320)
(0.00504839 0.00505964 -4.56932e-319)
(0.00431924 0.00418842 -1.07275e-318)
(0.00330452 0.0028031 -2.06263e-318)
(0.001921 0.000992744 -3.71239e-318)
(0.000254349 -0.00173262 -6.52083e-318)
(-0.00111474 -0.00509623 -1.1471e-317)
(-0.00262835 -0.00893749 -2.11325e-317)
(-0.00199693 -0.013023 -4.0736e-317)
(-0.0013914 -0.0137502 -1.06032e-316)
(-0.000755783 0.0359355 -1.97028e-317)
(-0.00126072 0.0359805 1.45809e-317)
(-0.00109742 0.0301883 1.36795e-317)
(0.00120374 0.0250406 9.86312e-318)
(0.00332314 0.0201922 6.34318e-318)
(0.00578386 0.0165397 3.8841e-318)
(0.00764858 0.0140205 2.30828e-318)
(0.00911784 0.0122368 1.32721e-318)
(0.0100204 0.0111131 7.10382e-319)
(0.0104697 0.010205 2.83678e-319)
(0.0104178 0.00952488 -8.45742e-320)
(0.00993792 0.00856514 -5.08878e-319)
(0.00887857 0.00754793 -1.10775e-318)
(0.00730839 0.00550396 -2.0646e-318)
(0.00511535 0.00312979 -3.60616e-318)
(0.00228903 -0.00139638 -6.02043e-318)
(-0.000302956 -0.00652038 -9.48022e-318)
(-0.00341098 -0.0139032 -1.3144e-317)
(-0.00308021 -0.0215617 -1.36125e-317)
(-0.00280547 -0.024553 2.10508e-317)
(-0.00301743 0.0502273 1.05066e-316)
(-0.00323346 0.0484832 3.85064e-317)
(-0.00260046 0.0388928 2.0485e-317)
(0.00243005 0.0310694 1.14688e-317)
(0.00663839 0.0242311 6.72165e-318)
(0.0110536 0.0193785 3.95923e-318)
(0.0142951 0.0161807 2.30085e-318)
(0.0166732 0.0140258 1.29933e-318)
(0.0181331 0.0127208 6.79652e-319)
(0.0188803 0.0117111 2.50052e-319)
(0.0188223 0.0109721 -1.06081e-319)
(0.0182517 0.00991362 -5.19688e-319)
(0.016587 0.00876352 -1.11111e-318)
(0.0143817 0.00631769 -2.0667e-318)
(0.0106289 0.00336855 -3.66181e-318)
(0.00605932 -0.00264533 -6.35513e-318)
(0.000977256 -0.0097748 -1.10692e-317)
(-0.00531249 -0.021073 -2.01977e-317)
(-0.00545466 -0.0335369 -3.87928e-317)
(-0.00676164 -0.0407547 -1.06191e-316)
(-0.00542107 0.0846214 -1.92837e-317)
(-0.00317623 0.0767256 1.66723e-317)
(-0.000340183 0.0588086 1.46523e-317)
(0.0084313 0.0447839 1.02559e-317)
(0.0151817 0.0345609 6.46586e-318)
(0.0216727 0.0273269 3.89444e-318)
(0.026195 0.0232278 2.27574e-318)
(0.0293974 0.0204289 1.27512e-318)
(0.0313173 0.0189797 6.58921e-319)
(0.0322872 0.0178185 2.448e-319)
(0.0322503 0.0171461 -1.10132e-319)
(0.0315417 0.0159319 -5.03883e-319)
(0.029438 0.0149277 -1.07142e-318)
(0.0265483 0.0117706 -1.98242e-318)
(0.0213986 0.00873413 -3.49232e-318)
(0.0148479 -9.05304e-05 -5.89347e-318)
(0.00672474 -0.00910449 -9.48864e-318)
(-0.00390006 -0.0284479 -1.36445e-317)
(-0.00653828 -0.0485983 -1.5247e-317)
(-0.0119641 -0.0666035 2.10778e-317)
(-0.0142004 0.106899 1.05406e-316)
(-0.00688729 0.0903798 3.74325e-317)
(-0.00070237 0.0655117 2.02545e-317)
(0.015337 0.0471404 1.14845e-317)
(0.0270666 0.0350905 6.74774e-318)
(0.0370559 0.0269365 3.94412e-318)
(0.0439682 0.02266 2.26622e-318)
(0.0484088 0.0198231 1.26158e-318)
(0.0511198 0.0184653 6.44993e-319)
(0.0524823 0.0173902 2.36208e-319)
(0.0524494 0.0168391 -1.01259e-319)
(0.0518114 0.0157166 -4.73132e-319)
(0.0488798 0.0149026 -1.00859e-318)
(0.0455634 0.0116858 -1.88501e-318)
(0.0377766 0.0088362 -3.36967e-318)
(0.0289511 -0.00127211 -5.89887e-318)
(0.0150434 -0.0113056 -1.03272e-317)
(-0.00276767 -0.0372682 -1.89249e-317)
(-0.00969463 -0.0647271 -3.65629e-317)
(-0.0248402 -0.0991232 -1.06026e-316)
(-0.0196741 0.166358 -1.7814e-317)
(-0.000987189 0.126136 1.94345e-317)
(0.0124786 0.0875993 1.59445e-317)
(0.0355551 0.0590058 1.07672e-317)
(0.0513505 0.0444384 6.61546e-318)
(0.0636876 0.0341728 3.89672e-318)
(0.0718852 0.0299161 2.23128e-318)
(0.0769385 0.0268878 1.22968e-318)
(0.0799776 0.0257726 6.28288e-319)
(0.0814867 0.0247795 2.34434e-319)
(0.0814812 0.0245062 -8.07649e-320)
(0.0808689 0.0234559 -4.27298e-319)
(0.0776464 0.0232368 -9.19935e-319)
(0.0741569 0.0197565 -1.72063e-318)
(0.0649446 0.0182274 -3.07715e-318)
(0.0547065 0.00556375 -5.31644e-318)
(0.035813 -0.00336711 -8.83487e-318)
(0.0112922 -0.0421516 -1.32932e-317)
(-0.00475161 -0.0782157 -1.60876e-317)
(-0.0363862 -0.148541 2.10546e-317)
(-0.0424293 0.188069 1.07432e-316)
(-0.00247982 0.124384 3.78135e-317)
(0.0236823 0.0811593 2.07126e-317)
(0.0592551 0.0496916 1.17086e-317)
(0.0834414 0.0363892 6.76887e-318)
(0.099364 0.0269392 3.86968e-318)
(0.110281 0.0237032 2.17203e-318)
(0.116139 0.0212536 1.18494e-318)
(0.119853 0.0205653 6.01308e-319)
(0.121635 0.019845 2.29133e-319)
(0.121622 0.0198163 -5.78798e-320)
(0.121399 0.0190315 -3.66844e-319)
(0.117435 0.0192823 -8.03613e-319)
(0.114632 0.0163337 -1.51772e-318)
(0.102394 0.0162116 -2.75929e-318)
(0.0919424 0.00402128 -4.93024e-318)
(0.0635391 -0.00178169 -8.83594e-318)
(0.0304858 -0.0462342 -1.6681e-317)
(-0.00140399 -0.0833397 -3.3264e-317)
(-0.0636043 -0.195553 -1.05239e-316)
(-0.0362893 0.266585 -1.26909e-317)
(0.0289594 0.139942 2.39401e-317)
(0.0701559 0.0882909 1.77096e-317)
(0.110573 0.0482974 1.12308e-317)
(0.13714 0.0378958 6.57995e-318)
(0.152851 0.0290805 3.72977e-318)
(0.163614 0.0275318 2.06728e-318)
(0.169043 0.0257799 1.11319e-318)
(0.172563 0.0256814 5.63892e-319)
(0.174235 0.0252798 2.20245e-319)
(0.174217 0.0255665 -3.37644e-320)
(0.174249 0.0250729 -2.93233e-319)
(0.170423 0.0260407 -6.65709e-319)
(0.168643 0.0236666 -1.26586e-318)
(0.156218 0.0261356 -2.30194e-318)
(0.148102 0.014149 -4.08135e-318)
(0.115751 0.0159209 -7.03251e-318)
(0.0823361 -0.0392834 -1.11575e-317)
(0.030544 -0.0697307 -1.46407e-317)
(-0.0627852 -0.265787 2.2039e-317)
(-0.0643632 0.255009 1.16106e-316)
(0.0464686 0.102687 4.07645e-317)
(0.120363 0.0616467 2.16083e-317)
(0.169991 0.027291 1.16596e-317)
(0.204868 0.0222281 6.4215e-318)
(0.220446 0.0161211 3.51178e-318)
(0.232466 0.0160932 1.90228e-318)
(0.237338 0.0150936 1.01673e-318)
(0.240957 0.0153755 5.13226e-319)
(0.242576 0.0151963 2.05393e-319)
(0.242509 0.0156192 -9.50088e-321)
(0.243175 0.0153395 -2.21564e-319)
(0.239054 0.0165727 -5.12796e-319)
(0.239502 0.014919 -9.80216e-319)
(0.225238 0.0186922 -1.79342e-318)
(0.222655 0.00928796 -3.26355e-318)
(0.180494 0.0173404 -6.03605e-318)
(0.151202 -0.0339627 -1.21922e-317)
(0.0614016 -0.0435469 -2.65559e-317)
(-0.0788366 -0.292452 -1.01519e-316)
(0.0399719 0.317782 4.54321e-318)
(0.149187 0.0593615 3.05441e-317)
(0.229069 0.0358584 1.89887e-317)
(0.265336 0.00970239 1.07917e-317)
(0.293667 0.0137444 5.8674e-318)
(0.303822 0.0122695 3.14493e-318)
(0.31322 0.0143868 1.67745e-318)
(0.316492 0.0145966 8.75608e-319)
(0.319365 0.0153031 4.38627e-319)
(0.320633 0.0154502 1.85462e-319)
(0.320504 0.0159476 1.38635e-320)
(0.321466 0.0159759 -1.42153e-319)
(0.317835 0.0173468 -3.50075e-319)
(0.320012 0.0168031 -6.77206e-319)
(0.30743 0.0219899 -1.21287e-318)
(0.31181 0.0167737 -2.12578e-318)
(0.272754 0.0344977 -3.67212e-318)
(0.266158 -0.0098125 -5.83269e-318)
(0.159846 0.0209309 -7.33918e-318)
(0.041057 -0.343643 2.93483e-317)
(0.106053 0.184425 1.38485e-316)
(0.256826 0.0195381 4.28893e-317)
(0.388465 0.0127607 2.02302e-317)
(0.413482 -0.00131178 9.83434e-318)
(0.441276 0.00359001 5.02351e-318)
(0.445828 0.00262822 2.60601e-318)
(0.453743 0.00433127 1.35351e-318)
(0.455423 0.00435139 7.0104e-319)
(0.457797 0.00486493 3.50134e-319)
(0.458777 0.00491708 1.51174e-319)
(0.458594 0.00529099 2.47082e-320)
(0.460034 0.00526784 -7.88479e-320)
(0.456681 0.00631603 -1.99504e-319)
(0.461201 0.0058222 -3.7758e-319)
(0.449287 0.00982535 -6.44153e-319)
(0.462901 0.00604188 -1.0837e-318)
(0.421634 0.0212931 -1.89713e-318)
(0.444505 -0.00898419 -4.43769e-318)
(0.279341 0.0412319 -1.23696e-317)
(0.169812 -0.240281 -8.48962e-317)
(0.351728 0.126228 7.70373e-317)
(0.303613 -0.0750131 4.00332e-317)
(0.313783 -0.0374838 1.91841e-317)
(0.292933 -0.0140573 9.31111e-318)
(0.302971 -0.00384486 4.62739e-318)
(0.300145 -1.00368e-05 2.33512e-318)
(0.305467 0.00176253 1.18915e-318)
(0.305818 0.0023924 5.99806e-319)
(0.307734 0.0027568 3.03885e-319)
(0.308506 0.00289223 1.45863e-319)
(0.308241 0.00306001 4.47179e-320)
(0.309944 0.00313181 -1.58842e-320)
(0.306692 0.00357821 -6.3611e-320)
(0.312694 0.00378465 -9.29733e-320)
(0.301733 0.00592909 -3.67684e-320)
(0.322951 0.00716499 2.36796e-319)
(0.28958 0.0204786 1.16506e-318)
(0.364293 0.0276581 4.18774e-318)
(0.255648 0.122528 1.35617e-317)
(0.56878 -0.143198 6.438e-317)
)
;

boundaryField
{
    cavity
    {
        type            myImplicitVelocity;
    }
    lid
    {
        type            fixedValue;
        value           uniform (1 0 0);
    }
    frontAndBack
    {
        type            empty;
    }
}


// ************************************************************************* //
