/*--------------------------------*- C++ -*----------------------------------*\
| =========                 |                                                 |
| \\      /  F ield         | foam-extend: Open Source CFD                    |
|  \\    /   O peration     | Version:  3.0                                   |
|   \\  /    A nd           | Web:         http://www.extend-project.de       |
|    \\/     M anipulation  |                                                 |
\*---------------------------------------------------------------------------*/
FoamFile
{
    version     2.0;
    format      ascii;
    class       volVectorField;
    location    "38";
    object      u;
}
// * * * * * * * * * * * * * * * * * * * * * * * * * * * * * * * * * * * * * //

dimensions      [0 0 0 0 0 0 0];

internalField   nonuniform List<vector> 
2688
(
(0.2225481822 -0.05366457643 6.084664712e-17)
(0.2148039552 -0.04176770763 -5.656276792e-17)
(0.5132095621 -0.03739257445 1.327768044e-16)
(0.4690712252 -0.02816131307 -2.59285743e-17)
(0.6854571621 -0.02677399957 6.134652789e-17)
(0.6315358961 -0.01996608746 -5.951995031e-18)
(0.7956414996 -0.01946777663 -4.056022177e-18)
(0.7392724549 -0.01466882455 4.826241697e-17)
(0.8702866222 -0.01426334017 -5.306404792e-17)
(0.8127225557 -0.01100142742 5.820085537e-17)
(0.9229378165 -0.01043269344 -1.393652314e-17)
(0.8637395951 -0.008314545773 3.224251465e-17)
(0.9611058001 -0.007506935171 2.695695123e-17)
(0.8994123198 -0.006257667435 -7.915990638e-17)
(0.9892536462 -0.005180999191 8.466133271e-17)
(0.9241000034 -0.004616806974 -8.696609424e-17)
(1.010142663 -0.003260631106 8.542200829e-17)
(0.9405808586 -0.003237130527 -5.403508611e-17)
(1.025472525 -0.001641281943 1.150648456e-17)
(0.9507367837 -0.001974357025 1.963102549e-17)
(1.036175822 -0.000299094987 -2.163447834e-17)
(0.9560134111 -0.0006965333727 1.219940543e-18)
(1.042523468 0.0005832735894 -2.099175502e-17)
(0.9576521417 0.002998634448 -2.604584458e-18)
(0.2344319335 -0.158496375 -1.945151079e-16)
(0.2240020032 -0.1233691558 -8.45095227e-18)
(0.5214956139 -0.1106381496 -3.255695671e-16)
(0.4752776896 -0.08328106497 3.05148788e-17)
(0.6913983907 -0.07940857663 -1.494495967e-16)
(0.6359478563 -0.05922421956 -2.195248715e-17)
(0.7999736174 -0.05796944567 -1.089714311e-17)
(0.7425294891 -0.0437656999 -1.146305422e-16)
(0.8734775039 -0.04276334993 5.527972611e-17)
(0.8151852191 -0.0331417589 -8.658199188e-17)
(0.9252917306 -0.03163375681 -2.675094893e-17)
(0.8656237753 -0.02542112934 -7.598669696e-17)
(0.9628214442 -0.0231800441 9.992947818e-18)
(0.9008552018 -0.01955399558 2.735225141e-17)
(0.9904613814 -0.01649017822 -4.412266612e-17)
(0.9251928913 -0.01489708407 7.694800621e-17)
(1.010930164 -0.01098733991 -7.995722941e-17)
(0.941385536 -0.01098587683 1.78819242e-17)
(1.0259027 -0.006353166318 7.327545525e-17)
(0.9512908123 -0.007401527767 -1.060630642e-16)
(1.036306905 -0.002505919293 8.520138349e-17)
(0.9563160753 -0.003711185014 -3.892474834e-18)
(1.042449862 0.0003162555093 3.031073274e-17)
(0.9575008153 0.002782189474 3.651919686e-17)
(0.2579596739 -0.2613350368 3.642786615e-16)
(0.2422998037 -0.2034024908 1.013814737e-16)
(0.5379198073 -0.1824504907 4.045429744e-16)
(0.4876151683 -0.1373107659 -1.279830413e-17)
(0.7031778787 -0.1309834388 1.720529497e-16)
(0.6447119407 -0.09768144789 1.025073922e-16)
(0.8085707977 -0.09568405221 -3.032941083e-17)
(0.7490057633 -0.07224662845 2.055975234e-16)
(0.8798232109 -0.07067187836 -6.071660139e-17)
(0.820096537 -0.05479767154 1.785448229e-16)
(0.9299961728 -0.05238638105 4.449591929e-17)
(0.8694048288 -0.04214391108 1.004933814e-16)
(0.9662867332 -0.03851498429 -1.405383706e-17)
(0.9037839745 -0.03254652183 -6.081595463e-17)
(0.9929525108 -0.02755191053 7.088453149e-17)
(0.9274504613 -0.0249417638 -1.830826028e-16)
(1.012621708 -0.01854779215 2.148009047e-16)
(0.943084202 -0.01856562759 -1.573810225e-16)
(1.026909211 -0.01097185729 -1.625150075e-17)
(0.9524917509 -0.01273920611 6.44748072e-17)
(1.036702381 -0.004648769954 -5.216164185e-17)
(0.9570460707 -0.006766180948 -4.615159742e-17)
(1.042304871 0.0001951509633 -6.585064772e-17)
(0.9576143428 0.002305021359 4.060290732e-17)
(0.2928561876 -0.3608978165 -3.979526833e-16)
(0.2694415922 -0.2809044803 -2.345914721e-16)
(0.5622817663 -0.2520130563 -5.312104161e-16)
(0.5059318192 -0.1896563083 4.828615229e-17)
(0.7206715455 -0.1809711958 -2.900219522e-16)
(0.657747322 -0.1349644861 -3.703267958e-17)
(0.8213554992 -0.1322526394 -7.075186312e-17)
(0.7586545881 -0.09988125059 -1.437613899e-16)
(0.8892731891 -0.09774337353 -9.034327629e-17)
(0.8274233458 -0.07582864575 -1.245872973e-16)
(0.9370089355 -0.07252790369 -1.172585674e-16)
(0.8750485385 -0.05839825702 -1.05885059e-16)
(0.9714492581 -0.05340930727 8.164518909e-17)
(0.908151077 -0.04518535573 8.8766391e-19)
(0.9966491636 -0.03830426169 4.069226245e-17)
(0.9308063704 -0.03471443299 1.039871906e-16)
(1.015109221 -0.02590092088 -1.26882172e-16)
(0.9455971956 -0.02591849431 1.000324268e-16)
(1.028375838 -0.01547525407 2.00785817e-17)
(0.9542426291 -0.01784384706 -8.66280233e-17)
(1.037333389 -0.006816257925 8.829564754e-17)
(0.957989916 -0.009518002867 8.985971723e-17)
(1.042351994 -0.0001880433974 -4.144762863e-17)
(0.9574360234 0.00216252994 1.321408203e-16)
(0.3386761506 -0.4559212733 4.352608453e-16)
(0.3050877713 -0.3548562693 1.967011505e-16)
(0.5942687563 -0.3183708152 6.419700977e-16)
(0.5299847766 -0.2395834114 -8.224780869e-17)
(0.7436316894 -0.2286331543 2.731747059e-16)
(0.6748510107 -0.1705028279 1.114540328e-16)
(0.8381282386 -0.1671066641 1.53639778e-17)
(0.7713050289 -0.1262014306 1.648135961e-16)
(0.9016666516 -0.1235351922 1.589351063e-16)
(0.8370268245 -0.09584110323 1.437884545e-16)
(0.9462076669 -0.09170642568 -1.065161634e-17)
(0.8824500295 -0.07384978669 1.962186815e-16)
(0.9782320629 -0.06758045876 -1.765174907e-16)
(0.9138890966 -0.05718612231 1.149035273e-16)
(1.001529368 -0.04852727438 -1.894138705e-16)
(0.9352317688 -0.04398605747 -1.103487508e-16)
(1.018429328 -0.03289685258 7.975201341e-17)
(0.9489281237 -0.03290708115 -8.777649578e-17)
(1.030368204 -0.01977111398 9.209901134e-18)
(0.9565939675 -0.02276876156 4.219253248e-17)
(1.038154934 -0.008816420112 -1.325137472e-16)
(0.9593907154 -0.01238979272 4.329413927e-17)
(1.042162713 -0.0002333600902 -2.196045684e-16)
(0.957639682 0.001609060374 1.571490973e-16)
(0.3948530122 -0.5452196629 -3.440069581e-16)
(0.3487916913 -0.4243715194 -1.527283193e-16)
(0.6335009201 -0.380762837 -4.980754386e-16)
(0.5594880425 -0.2865331752 3.087337279e-17)
(0.7718100786 -0.2734671777 -1.789517114e-16)
(0.6958537219 -0.2039426526 -2.092332384e-16)
(0.8587308862 -0.1999062975 5.488731621e-17)
(0.7868607681 -0.1509880628 -2.231204574e-16)
(0.9169072837 -0.1478185045 -3.184799253e-16)
(0.8488518573 -0.1147069213 8.450085501e-17)
(0.9575330947 -0.1097758764 -6.061310248e-17)
(0.891574064 -0.08843449565 -6.738595121e-17)
(0.9865897639 -0.08094560375 1.316118897e-17)
(0.9209668381 -0.06853027752 8.570544213e-17)
(1.007541546 -0.05817923031 1.426666443e-17)
(0.9406875128 -0.05275576537 2.091033632e-16)
(1.022515105 -0.0395027182 5.570266001e-17)
(0.9530181046 -0.03948429324 1.283251769e-17)
(1.032843572 -0.02383430686 5.189648383e-17)
(0.9594146096 -0.02727329261 -4.350017504e-17)
(1.039334863 -0.01082324612 1.809433769e-16)
(0.9608606082 -0.01473102138 -5.457766843e-18)
(1.042402447 -0.0006570350705 2.042067663e-16)
(0.9574723395 0.001449165009 -1.057235462e-16)
(0.4606640086 -0.6276650911 -6.918207249e-17)
(0.40000323 -0.4885343436 2.945229181e-17)
(0.6794462214 -0.4383414707 5.251630117e-16)
(0.5940478913 -0.3298540092 -1.243724901e-16)
(0.8047957301 -0.3148282113 6.098202616e-17)
(0.7204352749 -0.234781257 2.548700727e-16)
(0.8828330939 -0.2301553055 1.540197893e-17)
(0.8050473222 -0.17383002 -4.706888184e-17)
(0.934721534 -0.1702043587 4.659948088e-16)
(0.8626612867 -0.1320761726 -2.568525782e-16)
(0.9707585932 -0.1264232432 -6.247382414e-17)
(0.9022181593 -0.1018455864 2.436051335e-16)
(0.9963425045 -0.09324815433 -1.853010519e-16)
(0.9292168779 -0.07894598637 1.610667243e-16)
(1.014558175 -0.06705772806 -2.789332621e-16)
(0.9470453984 -0.0608025575 6.279616142e-17)
(1.027294937 -0.04558620796 -2.635552247e-16)
(0.9577949954 -0.04555475746 9.779307218e-17)
(1.035745446 -0.02757255647 -1.151107993e-16)
(0.9627655857 -0.03158815891 8.709311822e-18)
(1.04063511 -0.01251315164 -1.708586641e-16)
(0.9627771008 -0.01735258714 -1.505310208e-16)
(1.042390849 -0.0005409207719 6.251964069e-17)
(0.9575495643 0.0008321388004 -3.949349914e-16)
(0.5353003294 -0.7022217813 5.919875454e-16)
(0.4580776544 -0.5465753322 -3.085044208e-16)
(0.7315764241 -0.4904332917 3.04454494e-17)
(0.6332590364 -0.3690531091 -2.827492471e-16)
(0.842243884 -0.3522592286 2.038331217e-16)
(0.7483531337 -0.2627000145 -3.594761924e-16)
(0.9102201402 -0.2575387555 1.42997682e-16)
(0.8257301255 -0.1945243865 -1.342160452e-18)
(0.9549886612 -0.1904781799 -1.255008941e-16)
(0.8783912607 -0.1478284453 1.551814825e-16)
(0.9858290702 -0.1415096474 1.432081409e-16)
(0.9143647579 -0.1140253708 -2.064842535e-16)
(1.007477518 -0.1044069429 6.095475424e-17)
(0.9386499344 -0.08842191061 -1.40165007e-16)
(1.022588564 -0.07511513625 2.786039431e-16)
(0.9543234747 -0.06812988868 -2.400777138e-16)
(1.032785082 -0.05109719877 3.647790671e-16)
(0.9632406156 -0.05105062698 -2.723874123e-16)
(1.039121113 -0.03095632363 2.493651116e-16)
(0.9664893833 -0.03534921129 -2.215334674e-16)
(1.042273213 -0.01417696018 4.707740235e-16)
(0.9647387015 -0.01930376099 -2.098986257e-16)
(1.042622942 -0.0008729884496 1.7382728e-16)
(0.9575694711 0.0006568893542 2.796599625e-17)
(0.6178062615 -0.7679544774 -9.041424441e-16)
(0.5222843505 -0.5977341854 3.435126417e-16)
(0.7891807518 -0.5363473036 -3.722483265e-16)
(0.6765904131 -0.4035982344 3.703237725e-16)
(0.8836022525 -0.385246959 -3.470449252e-17)
(0.7791772029 -0.2872957217 3.641096368e-17)
(0.9404424667 -0.2816686651 -1.415800753e-16)
(0.8485384355 -0.2127461492 -2.099514313e-17)
(0.9773285333 -0.2083395136 -1.249998631e-16)
(0.8957120963 -0.1616879634 -4.162089967e-17)
(1.002415741 -0.1547961843 -3.201673364e-16)
(0.9277159909 -0.1247303509 4.188891434e-16)
(1.019708723 -0.1142297415 -3.031215285e-16)
(0.9489970266 -0.09674180127 3.841840416e-16)
(1.031388272 -0.08220599955 -3.294462631e-16)
(0.9622922813 -0.07456987338 4.066917856e-16)
(1.038790386 -0.05594555454 -3.894176075e-16)
(0.969205937 -0.05593883524 3.96642965e-16)
(1.042831053 -0.03388785525 -1.382141683e-16)
(0.9705916465 -0.03888547924 5.997615403e-17)
(1.0441493 -0.01538909484 -1.315883276e-16)
(0.9668944095 -0.02153793986 -1.78956421e-16)
(1.043070774 -0.0005750092154 3.390578745e-16)
(0.9574329074 -3.899833898e-06 -7.222866371e-16)
(0.7071568651 -0.8240326799 9.457796593e-16)
(0.5918157358 -0.6413884289 -9.459114417e-16)
(0.851590977 -0.5755262327 1.09727432e-15)
(0.7235405636 -0.4330791235 -7.270351431e-16)
(0.9284392587 -0.4133972964 3.822391479e-16)
(0.8126079451 -0.3082917905 -1.503484737e-16)
(0.973237812 -0.3022613068 2.47379787e-16)
(0.8733088177 -0.2283090595 1.423360027e-16)
(1.001602805 -0.2235847456 3.014209501e-16)
(0.9145552249 -0.1735349369 3.854024831e-17)
(1.020471155 -0.1661396361 2.609038592e-16)
(0.9422718713 -0.133892077 -2.108200896e-16)
(1.033054813 -0.1226180088 7.937865042e-17)
(0.9603077865 -0.1038737937 -3.551961561e-16)
(1.041018357 -0.08825686177 1.874087048e-16)
(0.9710306475 -0.0801010083 -5.612328535e-16)
(1.045374683 -0.06006146124 4.130284263e-16)
(0.9757720449 -0.06014536074 -6.08814644e-16)
(1.046864645 -0.03634430563 3.053949089e-16)
(0.9751409276 -0.04189880559 -3.024773282e-16)
(1.046073309 -0.01647271029 4.069965615e-16)
(0.9693605952 -0.023230015 -1.936423113e-16)
(1.043325668 -0.0007431616732 1.760825973e-16)
(0.9574940687 -2.29466441e-05 2.307955755e-16)
(0.8022212438 -0.8697561996 -4.657092309e-16)
(0.665798195 -0.6769803733 5.814013459e-16)
(0.9179678669 -0.6074747365 -4.19894213e-16)
(0.7734715791 -0.457119209 7.377955505e-17)
(0.9760977638 -0.4363593352 1.431579331e-17)
(0.8481292147 -0.3254143147 -2.355151642e-16)
(1.008065351 -0.3190645465 -1.557529215e-16)
(0.89959508 -0.2409999609 -4.130372229e-16)
(1.027348065 -0.2360290889 -2.87132469e-16)
(0.9345190578 -0.1831928702 -2.366841462e-16)
(1.039587037 -0.1754027568 -2.693510586e-16)
(0.9576622726 -0.1413572295 3.38649378e-16)
(1.04715043 -0.1294723223 -2.989483322e-16)
(0.9722387711 -0.1096831993 5.921061236e-16)
(1.051152553 -0.09320909953 -2.206822276e-16)
(0.9802305001 -0.08461185883 7.183606399e-16)
(1.05225933 -0.06344384248 -4.080614955e-16)
(0.9826974028 -0.06359596162 6.724623673e-16)
(1.051018409 -0.03837811726 -2.434996054e-16)
(0.9799992842 -0.04441516635 1.445060546e-16)
(1.047969931 -0.01735144813 -7.004320817e-17)
(0.9720500926 -0.02476270358 -3.556852023e-16)
(1.043511991 -0.0007137068978 2.95204036e-16)
(0.9575007429 -0.0004234478314 -5.705486636e-16)
(0.9018055896 -0.9045450477 3.42244673e-16)
(0.7432960079 -0.7040577037 -4.586811934e-16)
(0.9875260796 -0.6317757362 4.291863774e-16)
(0.8258017887 -0.475402498 -1.942656384e-16)
(1.026072233 -0.4538167345 1.600314881e-16)
(0.8853923979 -0.3384339714 2.417760612e-16)
(1.044621139 -0.3318327986 1.01779234e-16)
(0.9272073118 -0.2506501722 5.588829884e-16)
(1.054408547 -0.2454799936 2.768303084e-16)
(0.9555266187 -0.1905395799 2.778355572e-16)
(1.059717128 -0.1824335388 7.940263168e-17)
(0.9738926266 -0.1470403392 -1.401129298e-16)
(1.062030003 -0.1346708118 1.782455805e-16)
(0.9848536084 -0.1141100562 -4.30517973e-16)
(1.061882108 -0.09696003046 1.235780261e-16)
(0.9899864438 -0.08805017583 -7.186075181e-16)
(1.059567662 -0.06600042024 2.202065285e-16)
(0.9900695176 -0.06621971943 -4.290025271e-16)
(1.055414652 -0.0399179703 8.15283719e-17)
(0.9852160771 -0.04630613972 -2.884617964e-16)
(1.049903783 -0.01805727962 3.303256634e-16)
(0.9750255905 -0.02583598138 -1.215035285e-16)
(1.043554751 -0.0008538685707 2.190344304e-16)
(0.9576829366 -0.0004728707341 8.137147066e-17)
(1.004660928 -0.9279668293 -5.602414667e-17)
(0.8233463615 -0.7222997237 7.839255308e-18)
(1.059348604 -0.6481579268 6.756423467e-17)
(0.8798309527 -0.4877341666 -2.387921938e-16)
(1.077642756 -0.465603432 6.174645085e-18)
(0.9238312857 -0.3472270348 -1.026422072e-16)
(1.082308732 -0.3404690619 -1.676880766e-16)
(0.9556542978 -0.2571762807 -4.439835288e-16)
(1.08226883 -0.2518860407 -1.524630027e-16)
(0.977132645 -0.1955136046 -1.258461282e-16)
(1.080403823 -0.1872113258 -1.681346301e-16)
(0.9905500382 -0.1508910264 2.965415657e-16)
(1.077283838 -0.13821505 -5.281005313e-16)
(0.9977682533 -0.1171105148 7.260298605e-16)
(1.072846798 -0.09953097566 -4.572560656e-16)
(0.9999482078 -0.09037967191 7.543435529e-16)
(1.067003574 -0.0677755039 -2.50701346e-16)
(0.9975812126 -0.06799001825 3.690580403e-16)
(1.059850689 -0.04103437705 6.806643492e-17)
(0.9905313377 -0.0475612046 2.469385383e-17)
(1.05179365 -0.01865147922 -1.36107282e-17)
(0.9780757043 -0.02654825949 -9.502329728e-17)
(1.043479945 -0.001027738506 8.14590702e-17)
(0.9579044369 -0.000711582803 -3.33940992e-16)
(1.109485656 -0.939722625 1.379428976e-17)
(0.9049197656 -0.7314422133 1.974098587e-17)
(1.132564089 -0.6563625166 -1.209840457e-16)
(0.934912161 -0.4939029987 1.153097034e-16)
(1.130245142 -0.471492265 4.422972782e-17)
(0.9630539268 -0.3516173286 -8.482059038e-17)
(1.120788266 -0.3447721051 1.908120721e-16)
(0.9847199887 -0.2604295168 1.585949307e-16)
(1.110755503 -0.2550677513 1.224157965e-16)
(0.9992481603 -0.1979910665 -5.294959305e-17)
(1.101597325 -0.1895758638 2.4657295e-16)
(1.007638602 -0.1528098773 -2.813376773e-16)
(1.092951444 -0.1399629671 3.722552568e-16)
(1.011050901 -0.1186083611 -4.524361771e-16)
(1.084145149 -0.1007972289 3.430677515e-16)
(1.010216929 -0.09154236865 -4.424720004e-16)
(1.074698496 -0.0686593026 9.357207663e-17)
(1.005329076 -0.0688591925 -1.000113021e-16)
(1.064473956 -0.04162312976 -1.739772619e-16)
(0.9960043705 -0.04814093229 1.04163382e-16)
(1.053787145 -0.01901588393 -2.798549296e-18)
(0.9812391423 -0.02685421526 1.488087264e-17)
(1.043381023 -0.001152907038 7.373673015e-17)
(0.9582748468 -0.0009239687596 2.742025729e-18)
(1.214973507 -0.9396686923 2.479573005e-17)
(0.9870264183 -0.7314207113 -6.094669322e-17)
(1.206232628 -0.6563576916 -5.178499684e-17)
(0.990332836 -0.4939093027 1.725923564e-16)
(1.183144015 -0.4715139955 -6.354706899e-17)
(1.002485098 -0.3516418627 2.244067206e-16)
(1.159447924 -0.3448105728 -1.832890986e-16)
(1.013902744 -0.2604661164 1.616616171e-16)
(1.139334726 -0.2551173982 -3.711765385e-17)
(1.021413283 -0.1980348157 7.448331926e-17)
(1.122817308 -0.1896323501 -2.953909471e-16)
(1.024725583 -0.1528557357 2.036240298e-16)
(1.108597806 -0.1400222914 -1.787534553e-16)
(1.02429372 -0.1186500396 1.936778853e-16)
(1.095394486 -0.1008577225 -3.2217641e-16)
(1.020417607 -0.09157045758 2.8511924e-16)
(1.082344179 -0.06872874185 -1.360721228e-16)
(1.012982453 -0.06885793733 2.691953216e-17)
(1.069085261 -0.04172467876 5.686349856e-17)
(1.001350329 -0.04810316319 -1.287627579e-16)
(1.055826697 -0.0191507089 -1.49539332e-17)
(0.9842680986 -0.02685833422 4.561184374e-17)
(1.043336542 -0.001192571753 -2.118563452e-16)
(0.9585861421 -0.001277201013 2.625190244e-16)
(1.319782398 -0.9278023431 -1.332176263e-16)
(1.068580283 -0.7221707368 2.313436572e-16)
(1.279430786 -0.6480553183 -1.707733527e-16)
(1.045398078 -0.4876552666 -1.608858693e-16)
(1.235732367 -0.4655396361 2.620997908e-17)
(1.04169568 -0.347183322 -3.255039739e-16)
(1.197917472 -0.3404327423 1.596404393e-16)
(1.042960178 -0.2571592634 -4.044538269e-16)
(1.167815793 -0.2518693994 -4.786076835e-17)
(1.043524787 -0.1955179307 -2.52824346e-16)
(1.144010542 -0.1872092342 3.719317265e-16)
(1.041815052 -0.15091254 -2.282266432e-16)
(1.124272312 -0.1382256053 2.314190099e-16)
(1.03758141 -0.1171430246 -1.662785338e-16)
(1.106711126 -0.09956043168 2.66999662e-16)
(1.030687669 -0.09040658582 -8.230603931e-18)
(1.090081649 -0.06785228062 4.922565782e-17)
(1.020701707 -0.06797034093 1.765507392e-16)
(1.073803358 -0.04121381118 -1.248341296e-16)
(1.006728811 -0.04746840993 2.640182128e-16)
(1.05797216 -0.01890932081 -1.047355094e-16)
(0.987321562 -0.02658554536 7.842544093e-17)
(1.043326848 -0.001010659557 3.890545793e-17)
(0.9590699529 -0.001726364246 -1.992862846e-16)
(1.422612596 -0.904275968 7.469969552e-17)
(1.148628635 -0.7038871389 -1.713873923e-16)
(1.351253426 -0.6316638681 1.023134346e-16)
(1.09943403 -0.4753365448 1.537900444e-16)
(1.287309754 -0.4537960538 -7.784662011e-18)
(1.080144632 -0.3384393875 3.166431209e-16)
(1.235613199 -0.3318734039 -3.056062766e-17)
(1.071418014 -0.2507071393 4.09274781e-16)
(1.195682861 -0.2455638997 1.041074113e-16)
(1.06513978 -0.1906340862 3.270550701e-16)
(1.164700423 -0.1825477415 -1.778603105e-16)
(1.058475707 -0.1471596716 6.113156931e-17)
(1.139524796 -0.1348051671 -9.711387094e-17)
(1.050486893 -0.1142385302 6.548274715e-17)
(1.117675557 -0.09711213445 -2.963828058e-16)
(1.040612244 -0.08816285728 -7.740209842e-17)
(1.097545049 -0.06619082545 -5.798908764e-17)
(1.028110524 -0.06627734269 -2.618322038e-16)
(1.078355288 -0.04018912526 1.443528715e-16)
(1.011831251 -0.04632183043 -2.252403064e-16)
(1.060095029 -0.01833453412 4.567686508e-17)
(0.9901254147 -0.02613826874 9.932413522e-17)
(1.043441416 -0.0006333649595 -2.317198084e-16)
(0.9592844663 -0.002289514465 4.864484521e-16)
(1.522149679 -0.8693830463 -1.877701862e-16)
(1.226069081 -0.6767103351 3.951124503e-16)
(1.420760297 -0.6072726042 -3.14604307e-16)
(1.151717253 -0.4569752443 4.18406996e-17)
(1.337242468 -0.4362600275 -3.012021753e-17)
(1.117371833 -0.3253573617 -3.453426026e-16)
(1.272138648 -0.3190357009 1.028603717e-16)
(1.09900471 -0.2410069649 -4.491958297e-16)
(1.222724973 -0.2360491641 2.43614988e-17)
(1.086133436 -0.1832484438 -4.470853992e-16)
(1.18482635 -0.1754557307 2.570568467e-16)
(1.074706367 -0.1414492115 -2.064348465e-16)
(1.154418503 -0.1295456294 2.07738022e-16)
(1.063117573 -0.1097992178 -2.394025289e-16)
(1.128444254 -0.09329562054 4.756469123e-16)
(1.050391738 -0.08473830616 -2.866492693e-17)
(1.104931531 -0.06354450278 1.842497927e-16)
(1.035482803 -0.06373010695 1.272286696e-16)
(1.08288984 -0.03847303441 -5.595332281e-17)
(1.016988742 -0.04464959352 1.487600445e-16)
(1.062192887 -0.01727109339 -1.711854503e-16)
(0.9930817482 -0.02547347303 6.940866535e-17)
(1.043456473 1.912103675e-05 -1.614136527e-16)
(0.959879545 -0.002858220256 -5.593655228e-17)
(1.617165363 -0.8235644627 2.480122557e-16)
(1.300047574 -0.6410812155 -3.356333177e-16)
(1.487137642 -0.5753159369 4.126439149e-16)
(1.201661641 -0.4329489126 -1.752557764e-16)
(1.384914947 -0.413339684 6.951865581e-17)
(1.152913747 -0.3082835531 1.2724302e-16)
(1.30698354 -0.3023085264 8.9441166e-18)
(1.125314684 -0.2283911895 3.121556294e-16)
(1.248486241 -0.2237077992 -1.088281781e-16)
(1.106119766 -0.1736865217 3.972106065e-16)
(1.203952117 -0.1663174488 -1.148801474e-16)
(1.090112233 -0.134096269 -2.817474774e-17)
(1.168512867 -0.1228312625 4.842142905e-17)
(1.075048855 -0.1041149062 7.481492951e-17)
(1.138563228 -0.08848305934 -3.016453648e-16)
(1.059566267 -0.08037413989 2.549128605e-17)
(1.111790921 -0.06025620392 -1.233186812e-16)
(1.04234811 -0.06050154432 -1.913731976e-16)
(1.087018835 -0.03637276588 9.289542914e-17)
(1.021761069 -0.04255789673 -1.005821853e-16)
(1.064061275 -0.01600429588 1.176736535e-16)
(0.9956985805 -0.02465443514 6.055524012e-17)
(1.043594492 0.0007107516131 3.206575348e-17)
(0.9598221352 -0.003449946224 8.881858865e-17)
(1.706438963 -0.767395081 -3.663465376e-16)
(1.369487655 -0.5973428251 3.246681353e-16)
(1.549464618 -0.5360615387 -3.998111788e-16)
(1.248536765 -0.4034041872 2.773210644e-16)
(1.429683762 -0.3851248435 -1.620256879e-16)
(1.18628558 -0.287237413 -4.34033233e-19)
(1.339727692 -0.281658428 4.743510075e-17)
(1.150040529 -0.2127871209 -2.986185349e-16)
(1.272725882 -0.20840664 1.490604525e-16)
(1.124934028 -0.1618039752 -2.667752631e-16)
(1.22199159 -0.1549134865 6.550149477e-17)
(1.104659925 -0.1249030928 -3.047262233e-17)
(1.181866022 -0.1143701319 5.717840339e-17)
(1.086381834 -0.09695908843 -1.534158384e-16)
(1.148224682 -0.08233119083 2.078926614e-16)
(1.068377307 -0.07484902264 -1.70877763e-17)
(1.118410371 -0.05596438179 7.4248711e-17)
(1.049083871 -0.05640672728 1.194042631e-16)
(1.091010733 -0.03355219806 -1.097347356e-16)
(1.026661234 -0.03989234059 1.052298087e-16)
(1.065721954 -0.01427765143 -1.89849733e-16)
(0.9987572292 -0.02348514413 5.856984963e-17)
(1.04327138 0.001518259616 -1.489368355e-16)
(0.9607305947 -0.003752247291 5.295134798e-18)
(1.788875129 -0.7015825645 2.468938923e-16)
(1.433688608 -0.5461538897 -1.955366504e-16)
(1.607069826 -0.4901409052 1.641811533e-16)
(1.29188741 -0.3688736164 -1.536761749e-16)
(1.47106326 -0.3521753344 1.143364939e-16)
(1.217141126 -0.2626881871 -9.056442067e-17)
(1.369977947 -0.257600639 -1.014265364e-17)
(1.172887889 -0.1946389397 2.030799397e-16)
(1.295094847 -0.1906479933 -1.913010041e-16)
(1.142297099 -0.1480438346 2.016156087e-16)
(1.238601828 -0.1417602259 -8.750651564e-18)
(1.118050844 -0.1143235054 -7.743588122e-17)
(1.194104091 -0.1047110498 6.827243435e-17)
(1.096759937 -0.08879180584 4.232398589e-17)
(1.156992074 -0.07542683423 -3.559867103e-17)
(1.076374238 -0.06859813241 -5.170599767e-17)
(1.124289783 -0.05128541425 6.070176186e-17)
(1.055128131 -0.05179064055 -9.349604919e-17)
(1.094396658 -0.03064547342 9.130946709e-17)
(1.030989883 -0.0368358029 -7.349958144e-17)
(1.067053702 -0.01271893835 1.59439428e-16)
(1.001149701 -0.02204151215 2.124455456e-17)
(1.043372997 0.002013026501 1.174492102e-16)
(0.9601970607 -0.004069473457 4.508387216e-17)
(1.86340796 -0.6269539003 -1.136336205e-16)
(1.491643454 -0.4880502136 2.217783727e-16)
(1.659089111 -0.4379952009 -1.184959761e-16)
(1.33100058 -0.3296311398 1.33057644e-16)
(1.508419919 -0.3147015479 -1.040826182e-16)
(1.244979788 -0.2347385683 1.287394902e-16)
(1.397293956 -0.2301801453 -2.0549997e-18)
(1.193506152 -0.1739197733 -8.3142437e-17)
(1.31530847 -0.1703357834 1.927186954e-16)
(1.157976995 -0.1322669536 -1.650997975e-16)
(1.253636699 -0.126625849 8.070105039e-17)
(1.130167087 -0.1021137592 4.907891517e-18)
(1.20522555 -0.09348441597 -7.183263673e-17)
(1.106198778 -0.07927732352 -6.272415273e-18)
(1.165031294 -0.067268245 -3.919749863e-17)
(1.083741885 -0.06123016988 6.309910126e-17)
(1.129770801 -0.04562261474 -1.138224844e-16)
(1.060872249 -0.04627878346 7.242655149e-17)
(1.097580718 -0.02705046284 -7.541825037e-17)
(1.035442921 -0.03309976698 3.453221857e-17)
(1.068018659 -0.01086304912 -1.031560558e-16)
(1.004385859 -0.02002106515 -3.594654233e-17)
(1.042321965 0.002262332826 -6.474906703e-17)
(0.9617370865 -0.003622410571 -6.999826869e-17)
(1.929130486 -0.5444484168 -2.345797462e-17)
(1.542848764 -0.423867036 -1.537958117e-16)
(1.705034333 -0.3804116529 -4.465787451e-17)
(1.365584802 -0.2863255353 -2.369243934e-17)
(1.541432619 -0.2733720619 -2.257407171e-17)
(1.269603106 -0.2039413008 -7.324775555e-17)
(1.42143481 -0.1999935611 1.82049967e-17)
(1.211748044 -0.1511437998 8.420711942e-19)
(1.333168076 -0.1480439817 -1.4059006e-16)
(1.171852379 -0.1149909631 6.439366395e-17)
(1.266908037 -0.1101091981 -2.61422177e-17)
(1.140883793 -0.08882784303 -3.283202532e-17)
(1.215010724 -0.08135760825 1.088614923e-16)
(1.114522186 -0.06902172808 -4.224156371e-17)
(1.172033205 -0.05862021569 6.712431466e-17)
(1.090175763 -0.05337226079 -3.170728502e-17)
(1.134412099 -0.03982852707 5.662128667e-17)
(1.065764284 -0.04040042316 -1.709612992e-17)
(1.100129002 -0.02363674312 1.18733594e-17)
(1.038951348 -0.0289565047 2.759860866e-17)
(1.068958626 -0.009422354539 -4.147855681e-18)
(1.006085469 -0.01762293989 1.211624335e-16)
(1.042792209 0.002187474373 -3.601142802e-17)
(0.9605490193 -0.003552603846 1.358151753e-16)
(1.985184437 -0.4551033754 5.829828864e-17)
(1.586410553 -0.3543148033 1.961017855e-16)
(1.744136214 -0.3179932584 2.744345131e-17)
(1.394973095 -0.2393577689 6.417440924e-17)
(1.569502598 -0.2285243406 2.243722555e-17)
(1.290510644 -0.1704964295 7.341845035e-17)
(1.4419509 -0.1671862713 -1.37255342e-17)
(1.227221048 -0.1263582256 -5.305897348e-18)
(1.348337703 -0.1237521756 1.245502881e-16)
(1.183603289 -0.09612499605 -6.368027543e-17)
(1.278174964 -0.09202321484 8.555990028e-17)
(1.149943104 -0.0742335658 -3.743392341e-17)
(1.223325926 -0.06796001304 -2.203864644e-17)
(1.121558022 -0.05765023553 -1.426773425e-17)
(1.178028237 -0.04891804618 -3.358010793e-17)
(1.095663419 -0.04454916962 3.089418237e-17)
(1.138490864 -0.03318635587 -3.876110539e-17)
(1.070108504 -0.03371914201 1.27551485e-17)
(1.102436708 -0.01968402447 -1.653464932e-17)
(1.042585615 -0.0241859786 -5.456769212e-18)
(1.069265436 -0.007979533627 -1.504416128e-17)
(1.009347863 -0.01457613919 -6.241711757e-17)
(1.040867769 0.001316417349 1.55668433e-17)
(0.9627790723 -0.002236391732 -5.694541864e-17)
(2.030897413 -0.3600432241 -6.02132119e-17)
(1.6220529 -0.2803545552 -1.457509621e-16)
(1.776117194 -0.2516327267 -6.158693523e-17)
(1.419056231 -0.1894461621 -3.480457662e-17)
(1.59249217 -0.1808837963 -2.026294393e-17)
(1.307665678 -0.1349909318 -7.281411767e-17)
(1.458770631 -0.1323781342 1.247206214e-17)
(1.239940979 -0.1000883896 -2.250548458e-17)
(1.360791985 -0.09803318286 -4.916074395e-17)
(1.193293916 -0.07618466283 5.063516031e-19)
(1.287444622 -0.07294980569 -3.703650863e-17)
(1.157448333 -0.05888137386 -3.908004725e-19)
(1.2301779 -0.05393586231 3.841237861e-17)
(1.127407633 -0.0457766405 -2.736932453e-17)
(1.182942107 -0.03890004962 5.444184021e-17)
(1.100181786 -0.03540979102 -3.179939789e-17)
(1.141743478 -0.02648716447 1.088876375e-17)
(1.073447759 -0.02677716357 1.330740315e-17)
(1.104261733 -0.01584649488 -5.995899705e-18)
(1.044632872 -0.0190577109 2.997927751e-17)
(1.070301494 -0.006625523134 -1.966571017e-17)
(1.009570441 -0.01128880148 6.710378176e-17)
(1.04221854 0.0008302500509 -3.864003248e-17)
(0.9611822315 -0.001794115281 5.123126064e-17)
(2.065661056 -0.2604627772 7.322061591e-17)
(1.649036714 -0.2028443172 1.067998955e-16)
(1.800341088 -0.1820750424 4.309443111e-17)
(1.437246379 -0.1371125796 4.647031668e-17)
(1.609869221 -0.1309164346 1.91553901e-17)
(1.320595229 -0.09773438461 4.628739828e-17)
(1.47146058 -0.09583741303 1.411026317e-17)
(1.249495451 -0.07248969632 1.0855144e-19)
(1.370160718 -0.07099337448 5.410397455e-17)
(1.200529805 -0.05519321995 -2.571165614e-17)
(1.294383525 -0.05284209844 5.81152497e-17)
(1.162998562 -0.04266430426 -2.389421453e-17)
(1.235276615 -0.03907733493 1.966653212e-20)
(1.131683422 -0.03316642876 3.221909038e-18)
(1.186608533 -0.02819670005 -1.467602161e-17)
(1.103487496 -0.02564179206 7.335471208e-18)
(1.144273426 -0.01925441963 -8.579566287e-18)
(1.07608909 -0.01934466186 -5.525428128e-18)
(1.105742101 -0.01171427315 -4.079676521e-19)
(1.047100137 -0.01361806408 -1.394236562e-17)
(1.070235934 -0.005393699299 2.341445442e-19)
(1.012474152 -0.007711374081 -3.382826103e-17)
(1.0399423 -0.0003851183253 2.16622873e-17)
(0.9635207876 -0.0005149567717 -4.23949545e-17)
(2.089072257 -0.1576158377 -6.038986005e-17)
(1.667328413 -0.1228148566 -6.02110693e-17)
(1.816752834 -0.1102643454 -6.196093422e-17)
(1.449618852 -0.0830961269 -2.539477658e-17)
(1.621679814 -0.07935138088 -2.123777133e-17)
(1.329417574 -0.05929792719 -3.664447254e-17)
(1.48011046 -0.05814816675 -6.210248169e-19)
(1.256048184 -0.04403693681 -2.442490683e-17)
(1.376576681 -0.04312635686 -1.026189545e-17)
(1.205537408 -0.03357565305 -1.142075865e-17)
(1.299174056 -0.03214665501 -1.351396197e-17)
(1.166896028 -0.0259916347 -5.006826512e-18)
(1.238835796 -0.02381618613 1.346116529e-17)
(1.134733963 -0.02023277784 -1.345469663e-17)
(1.189178209 -0.01723114116 1.967150542e-17)
(1.105807859 -0.01564736732 -7.456139565e-18)
(1.146006633 -0.0118430024 3.507988519e-18)
(1.077593911 -0.01173880277 3.963688678e-18)
(1.106886093 -0.00740919311 1.536838381e-18)