/*--------------------------------*- C++ -*----------------------------------*\
| =========                 |                                                 |
| \\      /  F ield         | foam-extend: Open Source CFD                    |
|  \\    /   O peration     | Version:  3.0                                   |
|   \\  /    A nd           | Web:         http://www.extend-project.de       |
|    \\/     M anipulation  |                                                 |
\*---------------------------------------------------------------------------*/
FoamFile
{
    version     2.0;
    format      ascii;
    class       regIOobject;
    location    "69/uniform";
    object      profilingInfo;
}
// * * * * * * * * * * * * * * * * * * * * * * * * * * * * * * * * * * * * * //

profilingInfo
(

    {
        id              6;
        parentId        4;
        description     "Foam::Time::writeObject - outputTime";
        calls           4;
        totalTime       0.315865;
        childTime       0;
        onStack         1;
    }

    {
        id              4;
        parentId        1;
        description     "Foam::Time::writeObject";
        calls           80;
        totalTime       0.317437;
        childTime       0.315865;
        onStack         1;
    }

    {
        id              1;
        description     "application::main";
        calls           1;
        totalTime       287.388;
        childTime       0.317935;
        onStack         1;
    }

    {
        id              3;
        parentId        2;
        description     "functionObjectList::read";
        calls           1;
        totalTime       2.5e-05;
        childTime       0;
        onStack         0;
    }

    {
        id              5;
        parentId        1;
        description     "functionObjects_.execute()";
        calls           79;
        totalTime       0.00043;
        childTime       0;
        onStack         0;
    }

    {
        id              2;
        parentId        1;
        description     "functionObjects_.start()";
        calls           1;
        totalTime       6.8e-05;
        childTime       2.5e-05;
        onStack         0;
    }
);


// ************************************************************************* //
