/*--------------------------------*- C++ -*----------------------------------*\
| =========                 |                                                 |
| \\      /  F ield         | foam-extend: Open Source CFD                    |
|  \\    /   O peration     | Version:  3.0                                   |
|   \\  /    A nd           | Web:         http://www.extend-project.de       |
|    \\/     M anipulation  |                                                 |
\*---------------------------------------------------------------------------*/
FoamFile
{
    version     2.0;
    format      ascii;
    class       volScalarField;
    location    "2";
    object      p;
}
// * * * * * * * * * * * * * * * * * * * * * * * * * * * * * * * * * * * * * //

dimensions      [0 0 0 0 0 0 0];

internalField   nonuniform List<scalar> 
400
(
1.04647
1.0067
0.997094
0.975089
0.983476
0.970693
0.988852
0.979832
1.00263
0.994734
1.01906
1.0111
1.03442
1.02515
1.044
1.03066
1.03929
1.01641
1.0062
0.965767
1.0761
1.03724
1.03156
1.01085
1.01854
1.00272
1.01565
1.00001
1.0147
0.998273
1.01339
0.996696
1.0115
0.99513
1.00819
0.991358
0.998952
0.977205
0.970964
0.931381
1.05596
1.01646
1.01072
0.989758
0.999688
0.985728
1.0023
0.990222
1.00942
0.997482
1.01764
1.00554
1.02554
1.01296
1.03074
1.01588
1.02667
1.00437
0.998328
0.957551
1.04751
1.00529
1.00126
0.980609
0.992223
0.979189
0.99633
0.984988
1.00377
0.992362
1.01173
1.00023
1.01984
1.00816
1.02656
1.01273
1.02516
1.00294
0.998148
0.954
1.02075
0.974091
0.97241
0.952868
0.968898
0.95951
0.981595
0.975174
0.999233
0.993386
1.01854
1.01276
1.03884
1.03247
1.05792
1.04801
1.06714
1.04549
1.04406
0.993307
0.999849
0.948403
0.9494
0.931368
0.950494
0.943945
0.96769
0.963997
0.988467
0.985168
1.01026
1.0072
1.03368
1.03052
1.0578
1.05128
1.07386
1.05345
1.05435
0.995978
0.971577
0.913486
0.919739
0.904372
0.929165
0.92729
0.955592
0.956917
0.985429
0.987281
1.0168
1.01915
1.0514
1.05398
1.08923
1.08823
1.12099
1.10282
1.11203
1.04141
0.946344
0.883773
0.894726
0.882986
0.910931
0.912972
0.941978
0.946339
0.973891
0.978256
1.00606
1.01111
1.04195
1.04821
1.08381
1.08778
1.12412
1.10976
1.12403
1.04272
0.917378
0.852302
0.870058
0.863364
0.895729
0.902856
0.934253
0.942982
0.972158
0.980552
1.01032
1.01968
1.054
1.06556
1.10771
1.11832
1.16579
1.15697
1.18461
1.09177
0.890467
0.830858
0.852781
0.852419
0.885269
0.89639
0.926003
0.936947
0.962886
0.972604
0.998096
1.00882
1.03834
1.05246
1.09041
1.10615
1.15246
1.15121
1.183
1.08875
0.857281
0.81056
0.837608
0.845268
0.878852
0.894876
0.923734
0.937855
0.962628
0.974753
0.999319
1.01259
1.04225
1.06022
1.10092
1.12336
1.17761
1.18673
1.23391
1.14554
0.82479
0.803377
0.831657
0.84856
0.879168
0.898654
0.923374
0.93835
0.958023
0.969793
0.987953
1.00058
1.02207
1.04033
1.07102
1.09715
1.1413
1.16218
1.20609
1.14379
0.781899
0.793257
0.824651
0.852764
0.881107
0.905222
0.926803
0.943624
0.95998
0.972403
0.987236
1.00038
1.0188
1.03885
1.06789
1.09996
1.14719
1.18419
1.24439
1.21983
0.742066
0.795709
0.828094
0.867559
0.89205
0.918755
0.935353
0.951536
0.962086
0.972543
0.980124
0.99066
0.999125
1.0168
1.03172
1.06476
1.09352
1.14481
1.19087
1.22616
0.696666
0.792167
0.828004
0.88049
0.902115
0.932796
0.945177
0.961753
0.967818
0.977308
0.980143
0.989298
0.992476
1.0096
1.01935
1.05661
1.08452
1.15619
1.22129
1.32466
0.665388
0.803034
0.843779
0.90607
0.925037
0.956225
0.963704
0.977985
0.978505
0.984836
0.980979
0.986158
0.979757
0.992033
0.986855
1.02091
1.02607
1.10869
1.14743
1.32939
0.647185
0.815519
0.857906
0.930678
0.94627
0.979136
0.981675
0.994567
0.990201
0.994302
0.985364
0.987765
0.975102
0.984426
0.971573
1.0061
1.00611
1.10717
1.16318
1.42852
0.668955
0.851038
0.899676
0.973215
0.985053
1.01407
1.01133
1.02015
1.01106
1.01149
0.997571
0.995627
0.975701
0.978469
0.953141
0.978713
0.956702
1.0545
1.07049
1.39414
0.721643
0.899409
0.941839
1.01645
1.02191
1.0479
1.03925
1.04471
1.03104
1.02857
1.01035
1.00506
0.979364
0.977144
0.942831
0.962521
0.928915
1.03097
1.04367
1.43629
0.885884
0.994204
1.02727
1.08389
1.07927
1.09491
1.08038
1.08022
1.06341
1.05748
1.03707
1.02808
0.999255
0.989957
0.948933
0.952741
0.904414
0.974121
0.943497
1.28338
)
;

boundaryField
{
    cavity
    {
        type            implicitExtrapolation;
    }
    lid
    {
        type            implicitExtrapolation;
    }
    frontAndBack
    {
        type            empty;
    }
}


// ************************************************************************* //
