/*--------------------------------*- C++ -*----------------------------------*\
| =========                 |                                                 |
| \\      /  F ield         | foam-extend: Open Source CFD                    |
|  \\    /   O peration     | Version:  3.0                                   |
|   \\  /    A nd           | Web:         http://www.extend-project.de       |
|    \\/     M anipulation  |                                                 |
\*---------------------------------------------------------------------------*/
FoamFile
{
    version     2.0;
    format      ascii;
    class       volVectorField;
    location    "7";
    object      s;
}
// * * * * * * * * * * * * * * * * * * * * * * * * * * * * * * * * * * * * * //

dimensions      [0 1 -1 0 0 0 0];

internalField   nonuniform List<vector> 
3012
(
(-2.12387 0.14693 0)
(-1.75178 -0.17261 0)
(-2.48739 0.198695 0)
(-1.66758 0.20939 0)
(-3.07511 0.461528 0)
(-2.04005 0.254643 0)
(-2.97558 -0.223821 0)
(-2.74227 0.142709 0)
(-1.92722 0.26356 0)
(-2.10997 -0.328799 0)
(-1.80517 -0.0197438 0)
(-2.16629 0.501873 0)
(-1.19851 -0.0772709 0)
(-1.89609 0.0991079 0)
(-2.15413 0.0991057 0)
(-1.15929 0.183085 0)
(-3.06224 0.401367 0)
(-2.06158 0.313325 0)
(-2.90267 -0.267029 0)
(-2.75449 0.145666 0)
(-1.22248 0.476625 0)
(-1.57554 -0.197724 0)
(-1.78999 -0.312992 0)
(-1.15819 0.325263 0)
(-2.57753 0.0794691 0)
(-1.89614 -0.0744623 0)
(-1.87189 0.34121 0)
(-2.15844 0.0826356 0)
(-1.78182 0.350343 0)
(-1.98942 0.451155 0)
(-1.29729 -0.104836 0)
(-1.4543 -0.372284 0)
(-1.23725 -0.08094 0)
(-2.00596 0.410113 0)
(-1.79469 0.326207 0)
(-1.37397 -0.345767 0)
(-2.01459 -0.112119 0)
(-2.61982 0.0961739 0)
(-2.17118 0.0847601 0)
(-1.979 0.336594 0)
(-1.09235 -0.063946 0)
(-2.06695 0.0915133 0)
(-1.05377 0.174877 0)
(-1.8303 0.093113 0)
(-1.22134 -0.0376419 0)
(-1.34097 -0.305872 0)
(-1.83216 0.292735 0)
(-2.05581 0.363772 0)
(-1.18549 -0.304498 0)
(-1.93265 0.357734 0)
(-1.73622 0.300453 0)
(-1.08023 -0.0644767 0)
(-2.112 0.146562 0)
(-1.68542 -0.160802 0)
(-1.60631 0.209627 0)
(-2.46554 0.190822 0)
(-2.6361 -0.274182 0)
(-2.1419 0.478764 0)
(-2.98518 0.309265 0)
(-2.7615 0.130717 0)
(-2.67426 -0.302571 0)
(-2.11799 0.438542 0)
(-2.98767 0.332215 0)
(-2.78483 0.127267 0)
(-1.22766 -0.0295896 0)
(-1.91266 0.0578086 0)
(-2.18217 0.0412284 0)
(-1.2044 0.231364 0)
(-2.03165 -0.111853 0)
(-1.13359 0.334254 0)
(-1.12515 0.12649 0)
(-1.78966 -0.0579284 0)
(-1.72147 0.511035 0)
(-1.4739 -0.426526 0)
(-1.29554 -0.197901 0)
(-1.56709 0.397803 0)
(-1.61015 0.380307 0)
(-1.77381 0.468096 0)
(-1.32755 -0.405293 0)
(-1.17798 -0.174806 0)
(-1.31812 -0.0235215 0)
(-1.95954 0.0528206 0)
(-1.2989 0.255633 0)
(-2.24944 0.0320306 0)
(-2.01418 -0.0108183 0)
(-1.0411 0.252641 0)
(-1.05797 0.0391969 0)
(-1.78306 0.0139502 0)
(-1.14744 -0.117167 0)
(-1.90772 0.421325 0)
(-1.71641 0.344965 0)
(-1.27718 -0.362267 0)
(-2.1643 -0.323592 0)
(-1.9304 0.251298 0)
(-1.84152 -0.0165902 0)
(-2.16824 0.506395 0)
(-2.09423 0.0729195 0)
(-2.2466 0.445591 0)
(-2.08224 0.0270076 0)
(-2.56997 -0.12473 0)
(-2.00558 -0.128048 0)
(-1.11525 0.341845 0)
(-1.1047 0.141062 0)
(-1.7688 -0.0713196 0)
(-1.68321 0.516396 0)
(-1.2857 -0.206835 0)
(-1.46476 -0.430793 0)
(-1.53536 0.403463 0)
(-1.71323 -0.353302 0)
(-1.18434 0.349284 0)
(-1.5102 -0.223286 0)
(-1.26292 0.491842 0)
(-1.85999 0.240809 0)
(-2.0944 0.290286 0)
(-1.26667 -0.245273 0)
(-1.17382 0.0226328 0)
(-1.42957 -0.432322 0)
(-1.2582 -0.246607 0)
(-1.46248 0.540617 0)
(-1.34486 0.422829 0)
(-1.6472 -0.151461 0)
(-1.01838 0.231646 0)
(-1.04171 0.375804 0)
(-1.85183 -0.225437 0)
(-2.4028 -0.128063 0)
(-2.22116 0.03854 0)
(-2.70532 0.196638 0)
(-2.21934 0.398483 0)
(-2.95 0.128803 0)
(-2.56443 0.76085 0)
(-2.92133 0.0866921 0)
(-2.34091 -0.297349 0)
(-2.48211 -0.120254 0)
(-2.20143 0.0313945 0)
(-2.33021 0.449947 0)
(-2.73902 0.160634 0)
(-2.93926 0.169635 0)
(-2.98352 0.125465 0)
(-2.47855 0.786155 0)
(-2.40751 -0.344524 0)
(-2.56605 0.112852 0)
(-1.7964 0.309347 0)
(-2.1526 0.0963558 0)
(-1.84076 -0.10248 0)
(-2.94147 0.24036 0)
(-2.28244 0.565988 0)
(-2.4694 -0.28041 0)
(-2.81055 0.0717063 0)
(-2.88055 0.250114 0)
(-2.2752 0.57634 0)
(-2.39367 -0.210352 0)
(-2.74797 0.0476393 0)
(-1.00167 -0.0194994 0)
(-1.72942 0.252906 0)
(-1.08336 -0.250412 0)
(-1.92932 0.294455 0)
(-1.22577 -0.320224 0)
(-1.94434 0.378216 0)
(-1.74528 0.313938 0)
(-1.11184 -0.0749549 0)
(-1.65979 -0.375801 0)
(-1.46335 -0.233446 0)
(-1.30886 0.509891 0)
(-1.22033 0.371187 0)
(-2.18049 0.0840144 0)
(-2.29342 -0.10978 0)
(-2.69557 0.0736555 0)
(-2.28613 0.39755 0)
(-1.25079 -0.0998532 0)
(-1.9818 0.432131 0)
(-1.77582 0.342018 0)
(-1.39594 -0.363331 0)
(-2.81331 0.342372 0)
(-2.6963 0.00104418 0)
(-2.40385 -0.170597 0)
(-2.15358 0.434754 0)
(-2.3256 -0.0600791 0)
(-2.76926 0.317458 0)
(-2.21256 0.424468 0)
(-2.61598 -0.0698322 0)
(-2.17358 0.0876174 0)
(-2.32129 -0.140597 0)
(-2.70897 0.0969297 0)
(-2.29083 0.397698 0)
(-1.55722 0.515183 0)
(-1.74618 -0.162102 0)
(-1.45317 0.302548 0)
(-2.02343 -0.325154 0)
(-1.50358 0.334479 0)
(-1.95401 -0.364932 0)
(-1.62906 0.533288 0)
(-1.68874 -0.176225 0)
(-1.69537 -0.36548 0)
(-1.49311 -0.227186 0)
(-1.29984 0.507299 0)
(-1.21457 0.364361 0)
(-1.55599 -0.36899 0)
(-2.05472 0.453198 0)
(-1.83212 0.339352 0)
(-1.38651 -0.0853322 0)
(-1.21836 -0.00407742 0)
(-1.8984 0.0416175 0)
(-1.19993 0.249484 0)
(-2.16439 0.0192144 0)
(-1.22585 -0.0973369 0)
(-2.17016 0.12164 0)
(-1.90917 0.115101 0)
(-1.18034 0.168978 0)
(-1.02407 -0.198046 0)
(-1.91972 0.235505 0)
(-0.960328 0.0271981 0)
(-1.71969 0.206632 0)
(-1.03704 0.247683 0)
(-1.64751 -0.155479 0)
(-1.85928 -0.23275 0)
(-1.06195 0.402507 0)
(-2.24567 0.00230208 0)
(-1.30905 0.279266 0)
(-1.31914 0.00500082 0)
(-1.95384 0.0323979 0)
(-1.46221 -0.443281 0)
(-1.3468 0.421253 0)
(-1.2859 -0.256159 0)
(-1.46552 0.542338 0)
(-1.30224 -0.119745 0)
(-1.75354 0.356386 0)
(-1.46245 -0.382063 0)
(-1.95259 0.459502 0)
(-1.08463 0.245474 0)
(-1.65829 -0.146259 0)
(-1.11776 0.40623 0)
(-1.87471 -0.229377 0)
(-1.32754 -0.240703 0)
(-1.49119 0.531056 0)
(-1.37126 0.407676 0)
(-1.50778 -0.429652 0)
(-2.0237 0.469683 0)
(-1.5814 -0.379597 0)
(-1.40295 -0.100673 0)
(-1.80883 0.349147 0)
(-1.22666 0.471416 0)
(-1.60465 -0.187892 0)
(-1.82397 -0.301129 0)
(-1.16501 0.313805 0)
(-1.19003 0.341003 0)
(-1.76114 -0.336904 0)
(-1.26485 0.490829 0)
(-1.54968 -0.210726 0)
(-1.6 0.521192 0)
(-1.75339 -0.157761 0)
(-1.48884 0.304926 0)
(-2.03493 -0.328924 0)
(-1.51891 0.320008 0)
(-1.64359 0.528723 0)
(-2.00069 -0.354548 0)
(-1.72505 -0.167415 0)
(-2.43431 -0.220296 0)
(-1.93113 0.146014 0)
(-2.00922 0.00773351 0)
(-2.10846 0.503754 0)
(-1.0817 -0.134736 0)
(-1.65071 0.350012 0)
(-1.20437 -0.364013 0)
(-1.82355 0.4193 0)
(-1.01905 -0.0521814 0)
(-1.98802 0.0858937 0)
(-0.982608 0.168113 0)
(-1.76913 0.0875691 0)
(-1.69595 0.52427 0)
(-1.56484 0.304857 0)
(-1.75488 -0.151974 0)
(-2.04275 -0.34539 0)
(-1.12834 -0.0655847 0)
(-2.08498 0.0935684 0)
(-1.08905 0.17644 0)
(-1.84445 0.0947819 0)
(-1.19492 -0.0512198 0)
(-1.8945 0.0790887 0)
(-2.15478 0.0726437 0)
(-1.16186 0.205237 0)
(-2.14746 0.115522 0)
(-1.81028 -0.156834 0)
(-1.74836 0.250681 0)
(-2.54182 0.148087 0)
(-0.988972 -0.0047876 0)
(-1.93064 0.277345 0)
(-1.7294 0.23896 0)
(-1.0653 -0.234046 0)
(-2.68982 -0.0983601 0)
(-2.15941 0.0413677 0)
(-2.62776 0.504405 0)
(-2.75186 0.0858797 0)
(-2.81086 -0.125565 0)
(-2.78565 0.511332 0)
(-2.13193 0.0715299 0)
(-2.76692 0.0799568 0)
(-1.18895 -0.0390798 0)
(-1.82302 0.291118 0)
(-1.30373 -0.304012 0)
(-2.04427 0.357972 0)
(-1.74579 0.534228 0)
(-1.60542 0.313151 0)
(-1.75184 -0.146184 0)
(-2.04218 -0.350361 0)
(-1.25536 -0.261408 0)
(-1.83678 0.259017 0)
(-2.06376 0.31337 0)
(-1.15681 0.00139492 0)
(-2.14219 0.110843 0)
(-1.8152 -0.129246 0)
(-1.75521 0.270215 0)
(-2.53633 0.143272 0)
(-2.4352 -0.203446 0)
(-1.89322 0.133428 0)
(-2.01571 -0.00482917 0)
(-2.0439 0.48602 0)
(-1.78574 -0.403345 0)
(-1.58412 0.541928 0)
(-1.45701 0.375601 0)
(-1.55541 -0.210296 0)
(-1.05877 0.0111717 0)
(-2.02631 0.0158288 0)
(-1.79421 0.0345487 0)
(-1.03677 0.23054 0)
(-1.3111 0.288812 0)
(-1.72417 -0.163792 0)
(-1.38643 0.485763 0)
(-1.98104 -0.293505 0)
(-2.08836 0.0323857 0)
(-2.11503 0.444119 0)
(-1.97665 0.0478771 0)
(-2.5439 -0.142575 0)
(-2.03645 -0.0328684 0)
(-1.08686 0.0522622 0)
(-1.07513 0.269566 0)
(-1.79889 -0.00159607 0)
(-1.78176 0.480727 0)
(-1.61674 0.385362 0)
(-1.37325 -0.407803 0)
(-1.21497 -0.174843 0)
(-1.80543 0.45866 0)
(-1.63615 0.374075 0)
(-1.30646 -0.395593 0)
(-1.16136 -0.16185 0)
(-1.19852 -0.205136 0)
(-1.68485 0.494296 0)
(-1.53651 0.398249 0)
(-1.36032 -0.427257 0)
(-1.0392 0.100574 0)
(-1.97501 -0.075864 0)
(-1.03523 0.299876 0)
(-1.74835 -0.0363454 0)
(-1.01571 -0.175372 0)
(-1.9268 0.21706 0)
(-0.95194 0.0508145 0)
(-1.72551 0.191164 0)
(-0.985392 -0.0544495 0)
(-1.68618 0.276216 0)
(-1.87307 0.321436 0)
(-1.07263 -0.277115 0)
(-1.22483 -0.199533 0)
(-1.69681 0.496288 0)
(-1.39025 -0.422825 0)
(-1.54724 0.396461 0)
(-1.06524 0.103872 0)
(-1.98926 -0.0835281 0)
(-1.75947 -0.040742 0)
(-1.06392 0.305028 0)
(-1.77284 0.350279 0)
(-1.79001 -0.392144 0)
(-1.5629 -0.120162 0)
(-1.97388 0.513731 0)
(-1.82672 0.3415 0)
(-1.78705 -0.387602 0)
(-2.04531 0.500919 0)
(-1.56551 -0.0990584 0)
(-2.07713 -0.244357 0)
(-1.40097 0.45656 0)
(-1.8021 -0.128706 0)
(-1.33704 0.236834 0)
(-1.5519 -0.18979 0)
(-1.55853 0.375839 0)
(-1.70704 0.543576 0)
(-1.78506 -0.408227 0)
(-1.24257 -0.0223345 0)
(-1.85655 0.279513 0)
(-2.08818 0.349163 0)
(-1.35985 -0.297006 0)
(-1.79642 0.533818 0)
(-1.83164 -0.116416 0)
(-1.65493 0.28281 0)
(-2.15214 -0.319342 0)
(-1.8442 0.51918 0)
(-1.86942 -0.0944135 0)
(-1.69923 0.252706 0)
(-2.20583 -0.300681 0)
(-1.57372 -0.212311 0)
(-1.39162 0.513523 0)
(-1.29783 0.351635 0)
(-1.79737 -0.36312 0)
(-1.46651 0.386027 0)
(-1.43167 0.113024 0)
(-1.95072 -0.0410563 0)
(-2.2641 -0.119137 0)
(-1.22549 -0.146198 0)
(-1.89259 0.155889 0)
(-1.16444 0.120354 0)
(-2.14414 0.176281 0)
(-2.2171 -0.22118 0)
(-2.1936 0.12159 0)
(-2.59842 0.309379 0)
(-1.9931 0.238215 0)
(-1.47979 0.369263 0)
(-1.98597 -0.0158093 0)
(-1.45647 0.0814142 0)
(-2.30923 -0.0801047 0)
(-2.44581 0.531921 0)
(-2.78476 0.157521 0)
(-2.25444 -0.0910078 0)
(-2.70944 -0.0503075 0)
(-1.33972 -0.21913 0)
(-1.49022 0.408639 0)
(-1.52762 -0.435142 0)
(-1.63035 0.533587 0)
(-1.13157 -0.352361 0)
(-1.63193 0.351505 0)
(-1.01712 -0.128976 0)
(-1.79819 0.414924 0)
(-1.7383 0.100888 0)
(-1.94954 0.103695 0)
(-0.927825 0.135051 0)
(-0.96503 -0.0800153 0)
(-1.7485 -0.108043 0)
(-1.12891 0.190529 0)
(-1.15368 0.382425 0)
(-1.98572 -0.181673 0)
(-1.95721 -0.0732205 0)
(-1.69957 0.463431 0)
(-2.30995 -0.21148 0)
(-1.60903 0.17001 0)
(-1.98311 -0.0552992 0)
(-1.68999 0.452136 0)
(-2.3418 -0.180789 0)
(-1.61031 0.148342 0)
(-1.42122 -0.42991 0)
(-1.24298 -0.238432 0)
(-1.49986 0.532581 0)
(-1.37837 0.422396 0)
(-2.41485 -0.162153 0)
(-1.80812 0.454139 0)
(-2.02783 -0.0307971 0)
(-1.71727 0.120502 0)
(-1.04394 0.362919 0)
(-1.01751 0.205836 0)
(-1.66255 -0.13268 0)
(-1.87062 -0.202381 0)
(-2.10913 0.991455 0)
(-3.06609 -0.877952 0)
(-3.66127 0.0385476 0)
(-2.94672 0.510325 0)
(-2.06307 -0.236843 0)
(-1.35465 0.449671 0)
(-1.29772 0.234889 0)
(-1.79319 -0.128542 0)
(-1.8837 0.309255 0)
(-0.977489 -0.0369065 0)
(-1.06107 -0.259394 0)
(-1.69341 0.265879 0)
(-2.11832 0.303443 0)
(-2.65518 0.317319 0)
(-2.22912 0.0483435 0)
(-2.42247 -0.181412 0)
(-1.72829 0.435475 0)
(-2.39529 -0.151527 0)
(-2.02001 -0.0357729 0)
(-1.65515 0.113552 0)
(-1.43625 0.525796 0)
(-1.5669 -0.215572 0)
(-1.33419 0.362234 0)
(-1.79271 -0.376805 0)
(-1.51718 -0.200966 0)
(-1.54258 0.385581 0)
(-1.6904 0.545231 0)
(-1.74152 -0.418963 0)
(-1.27778 -0.0409162 0)
(-1.93719 0.0692846 0)
(-1.25139 0.23027 0)
(-2.21501 0.0560477 0)
(-2.10354 0.624256 0)
(-2.95689 -0.405971 0)
(-3.30502 0.293199 0)
(-2.81874 0.300373 0)
(-1.74973 -0.408954 0)
(-1.59758 0.544345 0)
(-1.46701 0.383543 0)
(-1.52536 -0.211087 0)
(-1.28406 0.272626 0)
(-1.73242 -0.158044 0)
(-1.35281 0.469425 0)
(-1.98764 -0.278866 0)
(-1.45876 0.021029 0)
(-2.247 0.363709 0)
(-1.60181 -0.300826 0)
(-1.97307 0.267722 0)
(-1.17869 -0.104846 0)
(-1.93164 0.415284 0)
(-1.73625 0.33736 0)
(-1.3107 -0.354628 0)
(-2.10579 0.133959 0)
(-2.75686 0.49231 0)
(-2.71908 -0.128008 0)
(-2.73808 0.0821106 0)
(-1.12766 0.323364 0)
(-1.77466 -0.305591 0)
(-1.18655 0.470293 0)
(-1.5646 -0.196106 0)
(-2.25152 0.385628 0)
(-1.49167 0.0120964 0)
(-1.64868 -0.314975 0)
(-1.97597 0.277555 0)
(-1.26452 0.39029 0)
(-1.5971 -0.411791 0)
(-1.40811 -0.251754 0)
(-1.36648 0.522951 0)
(-1.27958 0.387169 0)
(-1.62761 -0.404953 0)
(-1.43293 -0.244138 0)
(-1.38194 0.524408 0)
(-2.21064 0.235817 0)
(-1.2676 0.0904476 0)
(-1.94324 0.195419 0)
(-1.34845 -0.201394 0)
(-3.21274 0.134296 0)
(-2.94121 0.844259 0)
(-2.18719 -0.258071 0)
(-2.85141 -0.0016675 0)
(-1.73646 0.54344 0)
(-1.67379 -0.422337 0)
(-1.5797 0.395022 0)
(-1.46054 -0.193385 0)
(-2.14818 0.355709 0)
(-1.30945 -0.00589005 0)
(-1.43462 -0.297539 0)
(-1.90149 0.278419 0)
(-1.2943 0.0822552 0)
(-1.38365 -0.213995 0)
(-1.95358 0.20698 0)
(-2.22312 0.255149 0)
(-1.02447 -0.0218059 0)
(-1.73711 0.258641 0)
(-1.93778 0.302505 0)
(-1.10979 -0.254729 0)
(-1.77886 0.537968 0)
(-1.68423 -0.418907 0)
(-1.47057 -0.182586 0)
(-1.61516 0.388947 0)
(-1.26055 0.189481 0)
(-1.30188 0.410145 0)
(-1.82085 -0.104949 0)
(-2.08887 -0.19547 0)
(-1.28322 0.172806 0)
(-1.32145 0.401809 0)
(-1.84447 -0.0911148 0)
(-2.11934 -0.177899 0)
(-1.34165 0.0969933 0)
(-1.97596 0.201986 0)
(-1.43287 -0.208364 0)
(-2.25449 0.252885 0)
(-1.49077 -0.433238 0)
(-1.49464 0.408697 0)
(-1.3072 -0.215865 0)
(-1.63461 0.527442 0)
(-2.15889 0.361379 0)
(-1.47402 -0.304601 0)
(-1.34347 -0.00931775 0)
(-1.90981 0.279486 0)
(-1.20678 -0.121861 0)
(-1.8877 0.140067 0)
(-1.15152 0.14032 0)
(-2.13854 0.154963 0)
(-1.74658 -0.0975439 0)
(-1.10647 0.172815 0)
(-1.12527 0.364075 0)
(-1.98006 -0.164234 0)
(-1.87097 -0.33396 0)
(-3.73469 0.0345805 0)
(-3.53409 0.861865 0)
(-2.67423 -0.156968 0)
(-1.36233 0.123045 0)
(-1.44588 -0.189273 0)
(-1.99897 0.18419 0)
(-2.28869 0.228018 0)
(-2.14827 0.414141 0)
(-1.58545 -0.345197 0)
(-1.90152 0.306693 0)
(-1.42543 -0.0426556 0)
(-1.75303 -0.0551242 0)
(-2.1129 0.516278 0)
(-1.88313 0.296301 0)
(-2.0394 -0.356017 0)
(-3.04662 0.0418531 0)
(-2.81206 0.717431 0)
(-2.1932 -0.166955 0)
(-2.8261 0.0501201 0)
(-2.16758 0.124092 0)
(-2.49463 -0.0975039 0)
(-2.74405 0.0504709 0)
(-2.55275 0.459629 0)
(-1.95549 0.293495 0)
(-1.73593 -0.339238 0)
(-2.22257 0.424651 0)
(-1.55204 -0.0119982 0)
(-1.25097 -0.0599599 0)
(-2.03999 0.398097 0)
(-1.38472 -0.329888 0)
(-1.8213 0.31584 0)
(-2.12176 0.193836 0)
(-1.9703 -0.262619 0)
(-1.78682 0.138133 0)
(-2.47103 0.33637 0)
(-1.06339 -0.212793 0)
(-1.74284 0.223937 0)
(-0.990743 0.0177541 0)
(-1.94815 0.258878 0)
(-1.13076 -0.336459 0)
(-1.65054 0.34209 0)
(-1.82335 0.405284 0)
(-1.01899 -0.112045 0)
(-2.11287 0.19739 0)
(-2.00982 -0.277911 0)
(-2.46265 0.356412 0)
(-1.80806 0.128957 0)
(-1.0783 -0.20197 0)
(-1.96682 0.245158 0)
(-1.75849 0.212688 0)
(-1.00743 0.0320406 0)
(-1.74519 0.116376 0)
(-0.939656 0.120196 0)
(-1.95651 0.122984 0)
(-0.981376 -0.101159 0)
(-2.15013 0.404184 0)
(-1.39851 -0.0288011 0)
(-1.55145 -0.327839 0)
(-1.90369 0.302745 0)
(-2.56697 0.416231 0)
(-2.69296 -0.0369223 0)
(-2.12881 0.194066 0)
(-2.35557 -0.0980362 0)
(-1.93767 0.304422 0)
(-1.68963 -0.345135 0)
(-1.51093 -0.0248852 0)
(-2.19781 0.430107 0)
(-2.11326 0.426853 0)
(-2.15348 0.06763 0)
(-2.06234 -0.0313988 0)
(-2.63886 -0.00573993 0)
(-2.09664 0.566772 0)
(-2.61421 -0.304253 0)
(-3.02726 0.327033 0)
(-2.74771 0.153992 0)
(-2.66051 0.285023 0)
(-2.11075 0.324526 0)
(-2.37344 -0.169593 0)
(-2.22324 0.0539159 0)
(-2.25248 0.419501 0)
(-2.24795 0.0129337 0)
(-2.73132 0.223147 0)
(-2.4866 -0.115751 0)
(-2.03208 -0.0489296 0)
(-2.05775 0.399345 0)
(-2.62529 0.0211965 0)
(-2.15775 0.070133 0)
(-1.06158 -0.101532 0)
(-1.6855 0.332399 0)
(-1.17542 -0.333946 0)
(-1.86862 0.395888 0)
(-1.08208 -0.115298 0)
(-1.86757 0.406731 0)
(-1.68496 0.339335 0)
(-1.20115 -0.350362 0)
(-3.17598 -0.757572 0)
(-1.99939 0.997665 0)
(-3.66132 0.0781298 0)
(-2.82944 0.563381 0)
(-1.81986 0.332881 0)
(-2.03821 0.433843 0)
(-1.33597 -0.0844004 0)
(-1.49215 -0.361373 0)
(-2.29566 0.331506 0)
(-2.00736 0.244477 0)
(-1.60401 -0.277543 0)
(-1.47246 0.0522055 0)
(-1.09411 0.373878 0)
(-1.07097 0.200977 0)
(-1.6976 -0.122445 0)
(-1.91755 -0.194036 0)
(-1.91281 -0.213972 0)
(-1.11937 0.394806 0)
(-1.69043 -0.134627 0)
(-1.08967 0.224115 0)
(-1.55132 0.530637 0)
(-1.47117 -0.432753 0)
(-1.42466 0.413506 0)
(-1.28941 -0.227274 0)
(-3.6804 0.247343 0)
(-1.91741 -0.40471 0)
(-3.42017 1.08808 0)
(-2.71591 -0.168854 0)
(-1.16908 -0.314305 0)
(-1.90528 0.372623 0)
(-1.71412 0.313884 0)
(-1.06151 -0.0785383 0)
(-1.53594 0.535884 0)
(-1.41031 0.412394 0)
(-1.32178 -0.233887 0)
(-1.50526 -0.43439 0)
(-1.88968 0.24982 0)
(-0.946712 0.00823693 0)
(-1.01437 -0.209818 0)
(-1.69379 0.21755 0)
(-1.53579 0.529003 0)
(-1.43879 -0.432393 0)
(-1.41178 0.416883 0)
(-1.25837 -0.228621 0)
(-1.06376 0.361089 0)
(-1.68643 -0.122252 0)
(-1.043 0.194232 0)
(-1.9004 -0.190102 0)
(-1.22531 0.342804 0)
(-1.78417 -0.343397 0)
(-1.30548 0.498678 0)
(-1.56695 -0.209917 0)
(-2.16122 0.0909738 0)
(-2.31152 -0.0762519 0)
(-2.70556 0.0446557 0)
(-2.34014 0.45028 0)
(-1.5292 0.136513 0)
(-2.38436 0.249428 0)
(-1.62965 -0.211885 0)
(-2.06489 0.186305 0)
(-2.17071 0.122212 0)
(-1.92198 -0.168966 0)
(-2.57479 0.18623 0)
(-1.82949 0.256074 0)
(-1.9172 -0.0119798 0)
(-1.91335 0.213707 0)
(-2.28245 -0.289957 0)
(-2.12844 0.509168 0)
(-2.00344 -0.154405 0)
(-2.18252 0.10547 0)
(-2.60517 0.165872 0)
(-1.9157 0.286741 0)
(-2.06002 -0.140755 0)
(-2.18595 0.0936982 0)
(-2.63372 0.123818 0)
(-2.00516 0.316081 0)
(-1.8561 0.128086 0)
(-2.08083 -0.285617 0)
(-2.47631 0.362578 0)
(-2.12067 0.181596 0)
(-1.72798 0.520931 0)
(-1.57152 0.39929 0)
(-1.52302 -0.431764 0)
(-1.33646 -0.20074 0)
(-2.15648 -0.229383 0)
(-1.48072 0.455407 0)
(-1.41183 0.21328 0)
(-1.85914 -0.110071 0)
(-1.9639 0.00521853 0)
(-1.94708 0.177551 0)
(-2.35852 -0.263315 0)
(-2.15677 0.502635 0)
(-1.80207 0.543016 0)
(-1.63774 0.363173 0)
(-1.59984 -0.166188 0)
(-1.84681 -0.401436 0)
(-1.88706 -0.106716 0)
(-1.68906 0.497875 0)
(-2.21648 -0.269953 0)
(-1.58167 0.232967 0)
(-2.05136 -0.131538 0)
(-1.15618 0.144599 0)
(-1.17118 0.356714 0)
(-1.80181 -0.0698285 0)
(-2.39747 0.279788 0)
(-1.56404 0.121266 0)
(-1.68226 -0.235432 0)
(-2.07453 0.201159 0)
(-2.28738 0.313501 0)
(-1.55573 -0.265038 0)
(-2.00062 0.23682 0)
(-1.43556 0.0605319 0)
(-1.41808 0.183961 0)
(-1.47826 0.440543 0)
(-1.89795 -0.0913357 0)
(-2.2056 -0.199804 0)
(-1.66187 0.290495 0)
(-0.97407 -0.0680507 0)
(-1.84202 0.338997 0)
(-1.06483 -0.285372 0)
(-0.989214 -0.162769 0)
(-0.930292 0.0695047 0)
(-1.91062 0.195473 0)
(-1.71236 0.175031 0)
(-1.83475 -0.407406 0)
(-1.68384 0.365885 0)
(-1.58957 -0.157423 0)
(-1.86228 0.544093 0)
(-1.68611 0.507779 0)
(-1.8538 -0.119407 0)
(-2.17201 -0.290795 0)
(-1.57246 0.255199 0)
(-1.30036 0.0397085 0)
(-2.19602 0.309168 0)
(-1.40852 -0.257164 0)
(-1.93519 0.245383 0)
(-1.87864 0.245002 0)
(-2.11893 0.300206 0)
(-1.31554 -0.2507 0)
(-1.2165 0.023874 0)
(-2.19535 0.119796 0)
(-1.9272 0.113179 0)
(-1.26623 -0.095966 0)
(-1.22168 0.176339 0)
(-1.62862 0.356171 0)
(-1.88335 -0.400748 0)
(-1.79112 0.543738 0)
(-1.62869 -0.168145 0)
(-1.22417 0.258473 0)
(-1.27949 0.4478 0)
(-1.96779 -0.255315 0)
(-1.72239 -0.149494 0)
(-1.4267 0.408475 0)
(-1.15867 -0.217573 0)
(-1.54894 0.499299 0)
(-1.32255 -0.426126 0)
(-2.6535 0.366429 0)
(-2.26049 -0.00134657 0)
(-2.10835 0.314298 0)
(-2.52083 -0.131982 0)
(-1.46484 -0.219288 0)
(-1.58308 0.540646 0)
(-1.67431 -0.418906 0)
(-1.45232 0.393137 0)
(-2.09795 0.263682 0)
(-2.61599 -0.0938108 0)
(-2.61691 0.401894 0)
(-2.29536 -0.0586764 0)
(-2.58998 0.358407 0)
(-2.05048 0.244256 0)
(-2.20062 0.0853346 0)
(-2.36505 -0.207861 0)
(-1.87153 -0.12319 0)
(-0.976893 0.139531 0)
(-1.66781 -0.0765422 0)
(-0.980695 0.309039 0)
(-2.43606 0.399784 0)
(-2.18877 0.0566981 0)
(-2.50318 -0.164884 0)
(-2.74619 0.103962 0)
(-2.68798 0.397025 0)
(-2.12382 0.325159 0)
(-2.31485 -0.0657552 0)
(-2.63048 -0.084677 0)
(-2.09351 0.272748 0)
(-2.60679 0.418058 0)
(-2.63405 -0.0716604 0)
(-2.29649 -0.0647802 0)
(-2.02215 0.261543 0)
(-1.83683 -0.324915 0)
(-2.31903 0.405524 0)
(-1.64336 0.0303832 0)
(-1.54518 0.390129 0)
(-1.15975 -0.197923 0)
(-1.69452 0.477837 0)
(-1.31138 -0.418413 0)
(-1.00533 0.273996 0)
(-1.73947 -0.0129423 0)
(-1.96123 -0.0436825 0)
(-1.01638 0.0744842 0)
(-2.19733 0.108931 0)
(-2.15542 -0.163874 0)
(-2.64364 0.211322 0)
(-2.02377 0.317747 0)
(-1.90963 -0.293884 0)
(-1.29812 0.470015 0)
(-1.67248 -0.174951 0)
(-1.23164 0.292811 0)
(-1.51006 0.537932 0)
(-1.48891 -0.222924 0)
(-1.39261 0.386777 0)
(-1.70134 -0.404824 0)
(-2.21633 0.0875782 0)
(-2.26251 -0.169481 0)
(-2.08833 0.324932 0)
(-2.66969 0.232095 0)
(-1.37725 0.118278 0)
(-1.93474 -0.0462509 0)
(-1.40752 0.383318 0)
(-2.23949 -0.120878 0)
(-1.92052 -0.087442 0)
(-1.61737 0.458184 0)
(-2.25011 -0.220518 0)
(-1.53428 0.186229 0)
(-1.74347 0.366824 0)
(-1.93904 0.522553 0)
(-1.52049 -0.140855 0)
(-1.74011 -0.407821 0)
(-1.94814 -0.278013 0)
(-1.30494 0.459836 0)
(-1.24114 0.274539 0)
(-1.70434 -0.162637 0)
(-1.48937 -0.217976 0)
(-1.70391 -0.408946 0)
(-1.43117 0.389568 0)
(-1.55544 0.542117 0)
(-1.85839 0.47986 0)
(-1.98316 -0.0447644 0)
(-1.74458 0.161757 0)
(-2.36557 -0.209273 0)
(-1.67438 0.530107 0)
(-1.35776 -0.210212 0)
(-1.52727 0.403375 0)
(-1.54822 -0.432084 0)
(-1.08469 -0.00560617 0)
(-1.81979 0.0490754 0)
(-2.05816 0.0344406 0)
(-1.05926 0.223045 0)
(-2.26617 0.103801 0)
(-1.97608 0.102244 0)
(-1.30377 0.203616 0)
(-1.34478 -0.086905 0)
(-1.89016 -0.0987048 0)
(-1.61508 0.473772 0)
(-1.52713 0.213017 0)
(-2.21088 -0.238425 0)
(-1.67727 0.534962 0)
(-1.39469 -0.208639 0)
(-1.52979 0.401056 0)
(-1.59238 -0.429885 0)
(-1.17431 -0.270947 0)
(-1.07962 -0.0253967 0)
(-1.98164 0.320014 0)
(-1.77275 0.270109 0)
(-1.51793 0.346024 0)
(-1.66233 -0.179317 0)
(-1.92312 -0.373664 0)
(-1.64775 0.539531 0)
(-1.06849 -0.040955 0)
(-1.16775 -0.281303 0)
(-1.95143 0.339983 0)
(-1.74974 0.286141 0)
(-1.1809 0.378806 0)
(-1.77431 -0.0962958 0)
(-1.15717 0.177598 0)
(-2.01936 -0.168482 0)
(-2.0537 0.24172 0)
(-1.86971 -0.302961 0)
(-1.67979 0.0649607 0)
(-2.36438 0.383652 0)
(-2.15257 -0.242311 0)
(-1.50641 0.477445 0)
(-1.43134 0.233902 0)
(-1.85049 -0.115065 0)
(-1.3842 -0.121772 0)
(-1.56294 -0.388783 0)
(-1.96707 0.477441 0)
(-1.76547 0.358004 0)
(-1.52314 0.507801 0)
(-1.76315 -0.154008 0)
(-1.42853 0.29193 0)
(-2.04218 -0.305538 0)
(-1.57341 0.390694 0)
(-1.72844 0.477375 0)
(-1.15119 -0.186842 0)
(-1.30071 -0.41045 0)
(-1.85358 -0.398798 0)
(-1.71773 0.354292 0)
(-1.60659 -0.141822 0)
(-1.90333 0.534624 0)
(-1.5077 0.4286 0)
(-1.91933 -0.0758027 0)
(-1.4499 0.164102 0)
(-2.23477 -0.181074 0)
(-1.21935 0.395399 0)
(-1.77966 -0.105174 0)
(-1.18818 0.191528 0)
(-2.02995 -0.18543 0)
(-1.85041 0.451934 0)
(-1.31975 -0.390685 0)
(-1.17583 -0.15017 0)
(-1.67142 0.36663 0)
(-1.7562 0.00107029 0)
(-1.98044 -0.026335 0)
(-1.00626 0.255418 0)
(-1.02046 0.0497271 0)
(-2.20506 -0.0200728 0)
(-1.27842 0.291098 0)
(-1.28315 0.0301368 0)
(-1.92413 0.0161242 0)
(-2.47002 -0.173937 0)
(-2.1913 0.0673027 0)
(-2.05173 0.211945 0)
(-2.5219 0.428886 0)
(-2.54775 -0.114736 0)
(-2.11136 0.308409 0)
(-2.25903 0.00305688 0)
(-2.63026 0.392306 0)
(-2.23797 -0.0709778 0)
(-1.33819 0.0673305 0)
(-1.35099 0.334387 0)
(-1.94215 -0.0162563 0)
(-1.18012 -0.233168 0)
(-2.03421 0.275612 0)
(-1.09602 0.019573 0)
(-1.81238 0.233901 0)
(-1.33606 0.401563 0)
(-1.3786 -0.248735 0)
(-1.56636 -0.427226 0)
(-1.45068 0.532503 0)
(-1.24866 -0.306048 0)
(-1.76882 0.302191 0)
(-1.97326 0.365869 0)
(-1.13604 -0.0570135 0)
(-2.19554 0.0990932 0)
(-2.64497 0.193788 0)
(-2.14938 -0.149855 0)
(-2.02723 0.325285 0)
(-2.42256 -0.134266 0)
(-2.30916 0.414876 0)
(-2.19516 0.0568449 0)
(-2.72191 0.148008 0)
(-1.29444 -0.32052 0)
(-1.98946 0.382566 0)
(-1.17317 -0.0651253 0)
(-1.78103 0.311905 0)
(-1.15255 0.431037 0)
(-1.65941 -0.155106 0)
(-1.11181 0.2662 0)
(-1.88189 -0.245734 0)
(-1.63017 -0.168253 0)
(-1.1625 0.442499 0)
(-1.84825 -0.26508 0)
(-1.11582 0.284225 0)
(-1.36906 0.405358 0)
(-1.55335 -0.434142 0)
(-1.49005 0.534876 0)
(-1.36611 -0.246291 0)
(-1.2769 0.054071 0)
(-2.18967 0.285964 0)
(-1.37561 -0.237692 0)
(-1.93031 0.230148 0)
(-1.62529 0.36958 0)
(-1.79203 0.448008 0)
(-1.12188 -0.161048 0)
(-1.25885 -0.389527 0)
(-2.39291 0.527424 0)
(-2.72468 -0.0544229 0)
(-2.27798 -0.121387 0)
(-2.8049 0.194671 0)
(-1.65347 0.35595 0)
(-1.11151 -0.14602 0)
(-1.8275 0.429557 0)
(-1.24136 -0.379215 0)
(-1.76717 -0.363176 0)
(-1.2588 0.35607 0)
(-1.55018 -0.21876 0)
(-1.34824 0.511697 0)
(-1.76006 0.514537 0)
(-1.59885 0.392571 0)
(-1.53607 -0.423781 0)
(-1.34986 -0.189194 0)
(-1.70367 -0.346192 0)
(-1.15237 0.348516 0)
(-1.22551 0.488139 0)
(-1.50305 -0.223096 0)
(-1.99863 0.034597 0)
(-1.00197 0.212134 0)
(-1.77433 0.0484412 0)
(-1.02808 -0.00381248 0)
(-1.00339 0.191044 0)
(-2.00914 0.0679989 0)
(-1.03676 -0.0309171 0)
(-1.78423 0.0738278 0)
(-2.07256 -0.119108 0)
(-1.81857 -0.0593579 0)
(-1.18036 0.13144 0)
(-1.19379 0.348826 0)
(-1.63593 -0.383337 0)
(-1.44354 -0.2417 0)
(-1.29317 0.512521 0)
(-1.20504 0.376916 0)
(-1.77629 0.120401 0)
(-1.03219 -0.100277 0)
(-0.985596 0.128457 0)
(-1.99522 0.127809 0)
(-1.03704 -0.0786172 0)
(-2.00811 0.106025 0)
(-0.995721 0.149433 0)
(-1.78529 0.103461 0)
(-2.27466 0.133944 0)
(-1.98398 0.12202 0)
(-1.31303 0.186936 0)
(-1.36356 -0.110122 0)
(-1.65836 -0.396577 0)
(-1.45766 -0.126022 0)
(-1.96945 0.505166 0)
(-1.76744 0.366018 0)
(-2.04184 0.205995 0)
(-1.88484 0.0665118 0)
(-2.20526 -0.289952 0)
(-2.32908 0.465161 0)
(-1.33883 0.331989 0)
(-1.88104 -0.347816 0)
(-1.43294 0.510113 0)
(-1.64051 -0.195729 0)
(-1.60317 0.373125 0)
(-1.76519 0.449907 0)
(-1.24025 -0.395991 0)
(-1.10562 -0.171142 0)
(-1.75736 0.0442411 0)
(-1.97746 0.0302846 0)
(-1.00382 0.00554791 0)
(-0.978579 0.215948 0)
(-2.07774 0.196999 0)
(-2.39077 0.450741 0)
(-1.89532 0.0956863 0)
(-2.20598 -0.285643 0)
(-1.34208 0.319784 0)
(-1.92551 -0.333848 0)
(-1.43275 0.506875 0)
(-1.67593 -0.186035 0)
(-1.70592 -0.396969 0)
(-1.49647 -0.232148 0)
(-1.42329 0.528576 0)
(-1.3183 0.379344 0)
(-2.45179 -0.131387 0)
(-1.84974 0.44558 0)
(-2.05317 -0.00775372 0)
(-1.76443 0.0964894 0)
(-2.10813 0.440037 0)
(-1.59554 -0.356545 0)
(-1.8727 0.32381 0)
(-1.42451 -0.0615272 0)
(-2.5659 0.407504 0)
(-2.66378 -0.048489 0)
(-2.10816 0.204574 0)
(-2.33478 -0.0925044 0)
(-2.02836 0.226284 0)
(-1.12351 -0.188523 0)
(-1.0536 0.0577497 0)
(-1.80625 0.196688 0)
(-1.33992 0.092108 0)
(-2.22305 -0.0909795 0)
(-1.35753 0.352886 0)
(-1.92802 -0.0304225 0)
(-1.08347 0.114564 0)
(-1.8373 0.150877 0)
(-1.14033 -0.133688 0)
(-2.07106 0.167854 0)
(-1.67645 -0.403211 0)
(-1.47215 -0.136699 0)
(-1.94067 0.509135 0)
(-1.74456 0.367303 0)
(-1.11027 0.137859 0)
(-1.8572 0.132794 0)
(-1.16216 -0.113539 0)
(-2.09797 0.144726 0)
(-1.98916 -0.00310725 0)
(-1.45157 0.342826 0)
(-1.43752 0.05441 0)
(-2.30727 -0.0575682 0)
(-2.05875 0.493105 0)
(-1.53446 -0.089176 0)
(-1.83707 0.342277 0)
(-1.7459 -0.379596 0)
(-1.31527 -0.338685 0)
(-1.18829 -0.0827634 0)
(-1.97414 0.39427 0)
(-1.76954 0.320085 0)
(-1.9231 0.180806 0)
(-2.52732 0.350314 0)
(-2.16465 -0.248447 0)
(-2.15662 0.150867 0)
(-2.48113 -0.178316 0)
(-2.04534 0.1708 0)
(-2.45338 0.443118 0)
(-2.15773 0.0696113 0)
(-2.09941 0.117078 0)
(-1.11044 0.160728 0)
(-1.15532 -0.0874254 0)
(-1.85708 0.112765 0)
(-2.51341 0.379636 0)
(-1.98639 0.166741 0)
(-2.27998 -0.260414 0)
(-2.14901 0.131157 0)
(-1.15366 -0.214957 0)
(-1.58927 0.497485 0)
(-1.45945 0.406297 0)
(-1.31202 -0.425242 0)
(-1.02234 -0.0582329 0)
(-1.8969 0.340842 0)
(-1.11778 -0.287364 0)
(-1.7065 0.289727 0)
(-1.03238 -0.0733155 0)
(-1.89284 0.35806 0)
(-1.70374 0.303703 0)
(-1.13339 -0.304802 0)
(-1.96701 0.201353 0)
(-1.04415 -0.166305 0)
(-0.982551 0.0683256 0)
(-1.75732 0.178713 0)
(-1.98016 0.180486 0)
(-0.98156 0.086311 0)
(-1.76661 0.162009 0)
(-1.03852 -0.148064 0)
(-1.06321 -0.146914 0)
(-1.63972 0.360733 0)
(-1.18629 -0.375302 0)
(-1.81103 0.430291 0)
(-1.98186 -0.234848 0)
(-2.14894 0.181756 0)
(-2.51548 0.316943 0)
(-1.80801 0.179362 0)
(-1.89593 -0.101807 0)
(-0.979291 0.119279 0)
(-1.6872 -0.0592505 0)
(-0.98114 0.298737 0)
(-0.957658 0.17113 0)
(-1.98446 0.0808654 0)
(-0.99274 -0.0482931 0)
(-1.76608 0.0833309 0)
(-1.44489 0.529339 0)
(-1.52921 -0.220748 0)
(-1.33968 0.3728 0)
(-1.74717 -0.386174 0)
(-1.92592 0.491999 0)
(-1.97792 -0.0427398 0)
(-1.7876 0.171214 0)
(-2.36675 -0.233032 0)
(-2.13183 0.0823711 0)
(-2.1441 -0.0398377 0)
(-2.28999 0.410175 0)
(-2.63519 -0.0901766 0)
(-1.7408 0.0623739 0)
(-1.95534 0.0542609 0)
(-0.972781 -0.00592831 0)
(-0.942188 0.202173 0)
(-1.75667 0.436694 0)
(-1.06727 -0.173688 0)
(-1.1934 -0.396627 0)
(-1.59505 0.36657 0)
(-2.52473 -0.164899 0)
(-2.0616 0.174777 0)
(-2.46662 0.437489 0)
(-2.17429 0.0365087 0)
(-2.60533 0.284375 0)
(-2.18717 -0.205712 0)
(-2.19036 0.116577 0)
(-1.9864 0.25617 0)
(-2.12624 0.401449 0)
(-1.88695 0.305901 0)
(-1.50543 -0.32571 0)
(-1.35846 -0.0348364 0)
(-1.34201 0.495075 0)
(-1.62461 -0.196072 0)
(-1.26168 0.325548 0)
(-1.85578 -0.330964 0)
(-2.00017 0.274835 0)
(-1.05799 0.0125466 0)
(-1.13969 -0.232264 0)
(-1.78525 0.235241 0)
(-2.01955 0.202437 0)
(-1.03292 0.0687936 0)
(-1.0958 -0.17474 0)
(-1.79857 0.178633 0)
(-1.38628 0.50771 0)
(-1.61408 -0.201771 0)
(-1.29713 0.337582 0)
(-1.84649 -0.347063 0)
(-1.65686 -0.178326 0)
(-1.26481 0.467997 0)
(-1.88889 -0.29344 0)
(-1.20189 0.296027 0)
(-2.13954 0.151987 0)
(-2.7223 0.0213231 0)
(-2.44378 -0.113596 0)
(-2.56033 0.438541 0)
(-1.98861 0.53128 0)
(-1.7486 -0.0929411 0)
(-1.79187 0.308305 0)
(-2.04068 -0.360185 0)
(-2.02805 0.532248 0)
(-1.72981 -0.0867655 0)
(-1.81969 0.313098 0)
(-2.01754 -0.365953 0)
(-1.71564 0.332156 0)
(-1.11579 -0.102943 0)
(-1.90577 0.401056 0)
(-1.23653 -0.344003 0)