/*--------------------------------*- C++ -*----------------------------------*\
| =========                 |                                                 |
| \\      /  F ield         | foam-extend: Open Source CFD                    |
|  \\    /   O peration     | Version:  3.0                                   |
|   \\  /    A nd           | Web:         http://www.extend-project.de       |
|    \\/     M anipulation  |                                                 |
\*---------------------------------------------------------------------------*/
FoamFile
{
    version     2.0;
    format      ascii;
    class       volVectorField;
    location    "27";
    object      u;
}
// * * * * * * * * * * * * * * * * * * * * * * * * * * * * * * * * * * * * * //

dimensions      [0 0 0 0 0 0 0];

internalField   nonuniform List<vector> 
7680
(
(0.108221 -0.0334727 3.56609e-17)
(0.167834 -0.0284275 3.90148e-17)
(0.32274 -0.0265543 -2.70617e-17)
(0.361059 -0.0225522 2.62754e-17)
(0.477435 -0.021336 -9.29001e-18)
(0.502403 -0.0183821 1.40095e-17)
(0.592641 -0.0174507 -3.40139e-18)
(0.608233 -0.0152728 -1.02897e-17)
(0.680445 -0.014526 -1.48163e-17)
(0.689189 -0.0128781 -1.4836e-17)
(0.748569 -0.0122814 -1.15394e-17)
(0.752245 -0.0110026 1.74077e-17)
(0.802214 -0.0105235 -2.48142e-17)
(0.802073 -0.00951944 1.64743e-17)
(0.844991 -0.009123 -5.61274e-18)
(0.841889 -0.00833428 2.94496e-17)
(0.879454 -0.00799033 -2.60748e-17)
(0.873971 -0.00737461 4.37536e-17)
(0.907441 -0.00706043 -2.59617e-17)
(0.899965 -0.00658521 2.66568e-17)
(0.930294 -0.00628488 -2.69329e-17)
(0.921084 -0.00592465 2.60298e-17)
(0.949012 -0.00562739 -2.32619e-17)
(0.93823 -0.00536217 3.99067e-17)
(0.964344 -0.00506054 -3.07682e-17)
(0.952087 -0.00487529 3.00368e-17)
(0.976859 -0.0045628 -1.29428e-17)
(0.963171 -0.00444832 2.06069e-17)
(0.986996 -0.00411487 -1.55066e-17)
(0.971869 -0.00407261 8.20907e-18)
(0.995108 -0.00369467 -7.5907e-18)
(0.978452 -0.00374858 5.14789e-18)
(1.00151 -0.00327367 -6.75088e-18)
(0.983061 -0.00347765 3.16942e-18)
(1.00653 -0.00286181 5.03894e-18)
(0.985732 -0.00312194 -3.32623e-18)
(1.01044 -0.00268788 1.12265e-17)
(0.986565 -0.00297711 -1.30201e-17)
(1.01319 0.000825392 1.19003e-17)
(0.98615 -0.01399 -1.49931e-17)
(0.112565 -0.0990052 -4.88137e-17)
(0.171449 -0.0835743 -6.34849e-17)
(0.326151 -0.0779217 2.34976e-17)
(0.363922 -0.0659633 -3.31794e-17)
(0.480157 -0.0621327 -1.92843e-17)
(0.504726 -0.0533041 6.01658e-18)
(0.594849 -0.0503063 6.36158e-18)
(0.610148 -0.0437779 3.082e-17)
(0.682264 -0.0413545 4.33706e-17)
(0.690785 -0.0364113 4.60232e-17)
(0.750085 -0.0344537 1.10769e-17)
(0.753588 -0.0306168 2.08446e-19)
(0.80349 -0.029021 1.63068e-17)
(0.803212 -0.0259941 2.74238e-20)
(0.846071 -0.0246594 -2.8939e-17)
(0.842862 -0.0222543 -3.17313e-17)
(0.880373 -0.0210961 3.85177e-17)
(0.874806 -0.0191859 -8.08313e-17)
(0.908226 -0.0181376 6.39199e-17)
(0.900686 -0.0166311 -6.72345e-17)
(0.930968 -0.0156423 4.64685e-17)
(0.921707 -0.0144711 -5.26606e-17)
(0.94959 -0.0135039 3.6284e-17)
(0.93877 -0.0126156 -7.53291e-17)
(0.964839 -0.0116416 3.92555e-17)
(0.952553 -0.0109967 -4.36178e-17)
(0.97728 -0.00999177 3.00389e-18)
(0.96357 -0.00956453 -2.48734e-17)
(0.98735 -0.00849878 -1.36184e-18)
(0.972209 -0.00828981 1.32103e-18)
(0.995399 -0.00710051 1.09707e-18)
(0.97874 -0.00717241 4.74302e-18)
(1.00174 -0.00571498 7.7213e-18)
(0.983307 -0.00623256 -1.08289e-17)
(1.0067 -0.00430318 3.41338e-18)
(0.98594 -0.00532079 -1.50421e-17)
(1.01055 -0.00313065 2.34631e-17)
(0.98674 -0.00459207 -4.43945e-18)
(1.01314 0.00118652 -6.28239e-18)
(0.986643 -0.0147293 3.60886e-17)
(0.121121 -0.164122 5.90736e-17)
(0.178733 -0.13846 5.61071e-17)
(0.332884 -0.128923 -5.19401e-17)
(0.369643 -0.109076 8.4131e-17)
(0.485506 -0.102629 6.71275e-18)
(0.509321 -0.0879699 -2.07713e-17)
(0.599157 -0.0829431 -4.0811e-17)
(0.613898 -0.0721012 -1.85537e-17)
(0.685785 -0.0680331 -8.22643e-17)
(0.693883 -0.0598103 -7.04547e-17)
(0.753 -0.0565162 -2.04543e-17)
(0.756175 -0.05012 -7.74842e-18)
(0.805927 -0.0474263 -6.82655e-18)
(0.805392 -0.042375 -1.38854e-17)
(0.848126 -0.0401118 6.78202e-17)
(0.844713 -0.0360987 5.03463e-17)
(0.882117 -0.0341245 -3.96817e-17)
(0.876389 -0.0309378 1.15164e-16)
(0.909712 -0.0291451 -1.05984e-16)
(0.902043 -0.0266294 8.57621e-17)
(0.932235 -0.0249384 -5.45995e-17)
(0.922873 -0.0229773 8.80832e-17)
(0.950669 -0.0213282 -6.63944e-17)
(0.939771 -0.0198332 1.15384e-16)
(0.965752 -0.0181799 -4.12928e-17)
(0.953409 -0.0170849 8.13178e-17)
(0.978046 -0.0153873 -1.36976e-17)
(0.964299 -0.0146497 4.43347e-17)
(0.987983 -0.0128581 5.91045e-18)
(0.972825 -0.0124782 -2.31069e-18)
(0.995907 -0.0104898 -5.33196e-18)
(0.979256 -0.0105706 1.01538e-17)
(1.00212 -0.00814739 -5.27532e-18)
(0.983739 -0.00896582 5.7465e-18)
(1.00695 -0.0057428 -1.19116e-18)
(0.986297 -0.00750246 -6.57661e-18)
(1.01069 -0.00357688 4.28106e-18)
(0.987025 -0.00619351 -1.56022e-17)
(1.01307 0.00153771 1.80699e-17)
(0.987189 -0.0154459 -2.8557e-17)
(0.133992 -0.228531 -3.75715e-17)
(0.189507 -0.192678 -1.14565e-16)
(0.342953 -0.179401 1.99013e-16)
(0.378135 -0.151742 -2.27639e-16)
(0.493516 -0.142716 5.02887e-17)
(0.516174 -0.122288 3.48683e-17)
(0.605629 -0.115227 6.98718e-17)
(0.619513 -0.100113 3.20798e-17)
(0.691088 -0.0943949 3.98369e-17)
(0.698536 -0.082936 5.58503e-17)
(0.757399 -0.0783037 7.88662e-17)
(0.760066 -0.0693956 -2.51579e-17)
(0.80961 -0.0656035 5.20137e-18)
(0.808672 -0.0585663 1.7686e-17)
(0.851231 -0.0553795 -8.81923e-17)
(0.847496 -0.04978 4.32636e-18)
(0.884746 -0.0470037 -1.06842e-17)
(0.87876 -0.0425465 -1.14509e-16)
(0.911942 -0.0400303 1.38485e-16)
(0.904071 -0.0365023 -1.18458e-16)
(0.934128 -0.0341328 6.50009e-17)
(0.924608 -0.0313752 -1.1056e-16)
(0.952272 -0.0290668 6.79846e-17)
(0.941254 -0.0269593 -8.31724e-17)
(0.967103 -0.0246452 -1.26927e-17)
(0.954671 -0.0230977 -5.71126e-17)
(0.979173 -0.0207206 -2.48301e-17)
(0.965365 -0.0196743 -1.61765e-17)
(0.988907 -0.0171645 -3.75331e-17)
(0.973716 -0.0166192 2.10458e-17)
(0.996642 -0.0138346 7.85444e-18)
(0.979993 -0.0139317 -1.19924e-17)
(1.00267 -0.0105435 -3.77187e-17)
(0.984346 -0.0116694 1.00653e-16)
(1.00731 -0.00715516 -7.33289e-17)
(0.986791 -0.00965957 3.75725e-17)
(1.01086 -0.00400652 2.94873e-17)
(0.98741 -0.00777589 -2.61321e-17)
(1.01298 0.00189141 1.50046e-17)
(0.987778 -0.0161426 -2.09496e-17)
(0.150971 -0.291972 1.90237e-17)
(0.203888 -0.246131 3.5474e-17)
(0.356294 -0.229096 -3.37675e-16)
(0.389437 -0.193744 3.34883e-16)
(0.504113 -0.182178 -5.95284e-17)
(0.525256 -0.156066 -1.01885e-16)
(0.614163 -0.14703 -1.15254e-16)
(0.626928 -0.127709 5.43331e-19)
(0.698062 -0.12039 -1.39667e-17)
(0.704662 -0.105733 -3.54904e-17)
(0.763167 -0.0997991 -9.38178e-17)
(0.765178 -0.0883955 8.39046e-18)
(0.814427 -0.0835342 5.59947e-17)
(0.812973 -0.0745227 -4.4998e-17)
(0.855282 -0.0704322 1.15668e-16)
(0.851139 -0.0632638 -8.25941e-17)
(0.88817 -0.059694 7.36951e-17)
(0.881861 -0.0539906 1.42452e-17)
(0.914846 -0.0507511 -3.7662e-17)
(0.906718 -0.0462376 3.38935e-17)
(0.936592 -0.043186 2.15975e-17)
(0.926871 -0.0396571 1.23257e-16)
(0.954358 -0.0366856 -6.79122e-17)
(0.943186 -0.0339862 5.11223e-17)
(0.968859 -0.0310105 5.20951e-17)
(0.956314 -0.0290247 5.85745e-17)
(0.980636 -0.025972 4.07456e-18)
(0.966751 -0.0246243 1.31477e-17)
(0.990103 -0.0214059 8.99239e-17)
(0.974872 -0.0206955 -3.41395e-17)
(0.997588 -0.0171311 2.57624e-17)
(0.980947 -0.017238 1.95622e-17)
(1.00337 -0.012908 -4.85487e-17)
(0.98513 -0.0143277 3.34555e-17)
(1.00775 -0.00855255 -4.80328e-18)
(0.98743 -0.0117803 -2.34931e-17)
(1.01105 -0.00443554 -9.81518e-18)
(0.987902 -0.00933069 -3.18268e-17)
(1.01287 0.00223222 3.25589e-17)
(0.988417 -0.0168102 3.52334e-17)
(0.172137 -0.354154 2.57763e-17)
(0.221658 -0.298493 9.48543e-17)
(0.37286 -0.277822 3.7753e-16)
(0.403427 -0.234934 -2.68512e-16)
(0.517281 -0.220869 3.80512e-17)
(0.536529 -0.189191 1.33026e-16)
(0.624791 -0.178188 1.69097e-16)
(0.636151 -0.154747 -4.43142e-17)
(0.70676 -0.145835 -1.80413e-17)
(0.712292 -0.128056 1.32586e-17)
(0.770371 -0.12083 2.31522e-16)
(0.771549 -0.107002 -1.03417e-16)
(0.82045 -0.10108 6.29077e-17)
(0.818335 -0.0901525 -9.67748e-17)
(0.860353 -0.0851695 -4.83866e-17)
(0.855681 -0.0764709 -6.54522e-17)
(0.892459 -0.0721252 1.29471e-16)
(0.885728 -0.0651972 -1.17352e-16)
(0.918481 -0.0612571 1.15265e-16)
(0.910019 -0.0557686 -5.24628e-17)
(0.939673 -0.0520597 -2.00546e-18)
(0.92969 -0.047764 -1.41129e-16)
(0.956962 -0.0441539 3.74875e-17)
(0.945589 -0.0408647 2.81767e-17)
(0.971046 -0.0372499 -1.23741e-16)
(0.958352 -0.0348276 2.18365e-17)
(0.982452 -0.0311187 -5.35548e-17)
(0.968466 -0.0294722 -6.48381e-18)
(0.991584 -0.025561 -1.05912e-16)
(0.976297 -0.0246893 -1.06432e-17)
(0.998755 -0.0203574 -1.00363e-16)
(0.982118 -0.0204783 4.94286e-17)
(1.00423 -0.0152178 -8.37906e-17)
(0.986086 -0.0169331 8.38647e-17)
(1.00829 -0.009912 -1.51793e-16)
(0.988203 -0.0138588 7.52206e-17)
(1.01128 -0.00484512 2.72106e-17)
(0.988491 -0.0108543 -4.38848e-17)
(1.01273 0.00257199 -1.89843e-17)
(0.989097 -0.0174524 -3.09505e-17)
(0.197259 -0.414833 -1.63796e-17)
(0.242881 -0.349599 -2.17976e-16)
(0.392581 -0.325358 -2.49931e-16)
(0.420115 -0.275108 1.06861e-16)
(0.532945 -0.25862 -1.08994e-18)
(0.549947 -0.221503 9.26116e-18)
(0.637409 -0.208612 -1.90281e-16)
(0.647109 -0.181144 1.11095e-16)
(0.717072 -0.1707 5.41178e-17)
(0.721347 -0.14986 -9.40258e-17)
(0.778902 -0.141388 -2.0034e-16)
(0.779104 -0.125173 4.70793e-17)
(0.827572 -0.118228 3.32236e-17)
(0.824689 -0.105411 1.61851e-16)
(0.86634 -0.0995646 3.73777e-17)
(0.861059 -0.0893636 -1.21256e-18)
(0.897515 -0.0842606 -5.57476e-17)
(0.8903 -0.0761381 -4.32591e-18)
(0.922762 -0.0715082 -7.29967e-17)
(0.913917 -0.0650744 -1.24326e-17)
(0.943298 -0.060715 -2.08845e-17)
(0.933017 -0.0556792 5.98137e-17)
(0.960025 -0.0514365 2.93116e-17)
(0.948422 -0.0475795 -3.67581e-17)
(0.973618 -0.0433328 7.3264e-17)
(0.960755 -0.0404907 -7.19859e-17)
(0.984588 -0.0361358 9.74724e-17)
(0.970486 -0.0342013 -6.75261e-17)
(0.993323 -0.029612 2.00583e-16)
(0.977976 -0.0285833 -4.21026e-17)
(1.00012 -0.0235047 2.4324e-16)
(0.983496 -0.0236361 -5.86088e-17)
(1.00523 -0.0174738 4.12475e-17)
(0.987211 -0.0194709 7.30945e-18)
(1.00891 -0.0112428 8.01409e-17)
(0.989114 -0.0158823 -5.20702e-17)
(1.01153 -0.00524911 3.78418e-17)
(0.989183 -0.0123356 -6.71546e-17)
(1.01257 0.00289666 1.72556e-16)
(0.989825 -0.0180584 -2.93965e-17)
(0.226351 -0.473726 1.22191e-16)
(0.267347 -0.399207 7.78336e-17)
(0.415361 -0.371501 3.03603e-16)
(0.439362 -0.314117 1.04011e-16)
(0.551045 -0.295256 -4.22845e-17)
(0.565442 -0.252869 -2.45669e-16)
(0.652007 -0.238115 1.957e-16)
(0.659777 -0.206748 -2.17476e-16)
(0.729011 -0.194795 2.31499e-17)
(0.731819 -0.171 -2.08814e-17)
(0.788783 -0.161305 2.53343e-16)
(0.787842 -0.142794 -2.73135e-16)
(0.835828 -0.134845 9.64337e-17)
(0.832038 -0.120212 -3.2961e-16)
(0.873285 -0.11352 4.00352e-17)
(0.867281 -0.101871 -8.89905e-17)
(0.903384 -0.0960312 1.29654e-16)
(0.895592 -0.0867507 -1.23244e-16)
(0.927734 -0.0814553 1.29408e-16)
(0.918431 -0.0741002 1.47437e-17)
(0.947509 -0.0691162 -2.66405e-17)
(0.936868 -0.0633563 -2.7071e-18)
(0.96358 -0.0585069 -5.06957e-17)
(0.951702 -0.0540928 8.57588e-17)
(0.9766 -0.0492395 -4.85745e-17)
(0.963534 -0.0459845 1.02828e-17)
(0.987061 -0.0410075 -5.92001e-17)
(0.97282 -0.0387896 9.76482e-17)
(0.995335 -0.0335443 -3.2444e-16)
(0.979912 -0.0323618 1.55438e-17)
(1.0017 -0.026557 -1.95893e-16)
(0.985081 -0.0267003 3.89505e-17)
(1.00638 -0.0196577 2.37972e-17)
(0.9885 -0.0219337 -3.42869e-17)
(1.00962 -0.0125262 -4.96077e-17)
(0.990153 -0.0178465 6.33378e-17)
(1.01181 -0.00563175 3.33516e-17)
(0.989967 -0.0137741 -3.06124e-17)
(1.0124 0.00321669 -3.27393e-19)
(0.99059 -0.0186343 -1.88308e-16)
(0.259188 -0.530603 -1.2326e-16)
(0.295047 -0.447098 -1.12595e-16)
(0.441119 -0.416061 -2.65916e-16)
(0.461151 -0.351775 -4.90517e-16)
(0.571507 -0.330647 -1.90094e-17)
(0.582968 -0.283161 4.18403e-16)
(0.668495 -0.266636 -1.33476e-16)
(0.674094 -0.231491 2.66849e-16)
(0.742488 -0.218102 7.08747e-17)
(0.743651 -0.191435 -1.17706e-16)
(0.799932 -0.180573 -6.83513e-17)
(0.797713 -0.159822 2.19947e-16)
(0.845136 -0.150915 -9.37625e-18)
(0.840338 -0.134511 2.44501e-16)
(0.881107 -0.12701 1.80915e-16)
(0.874303 -0.113951 -1.03989e-16)
(0.909988 -0.107403 1.35675e-16)
(0.90156 -0.0970012 -7.85433e-17)
(0.933323 -0.0910609 9.12114e-17)
(0.923516 -0.0828175 -3.42951e-17)
(0.952239 -0.0772254 -2.33121e-17)
(0.941204 -0.0707697 4.39625e-17)
(0.967572 -0.0653287 -5.67405e-17)
(0.955392 -0.0603809 -3.51938e-17)
(0.979947 -0.0549362 2.08756e-17)
(0.966658 -0.051287 2.66607e-17)
(0.989835 -0.0457047 -7.63771e-17)
(0.975442 -0.0432169 2.55114e-16)
(0.99759 -0.0373357 3.11762e-18)
(0.982087 -0.0360066 1.88929e-16)
(1.00347 -0.0295011 4.93423e-17)
(0.986861 -0.029655 -4.69898e-17)
(1.00767 -0.0217662 3.7786e-17)
(0.989948 -0.0243071 -6.91958e-17)
(1.01041 -0.0137672 4.35623e-17)
(0.991321 -0.0197378 -4.80717e-17)
(1.01211 -0.00600343 2.18846e-17)
(0.990848 -0.0151566 -1.74934e-16)
(1.01219 0.00351965 3.2082e-16)
(0.991399 -0.0191676 -1.0902e-16)
(0.29571 -0.5852 3.89887e-16)
(0.32579 -0.493097 1.52352e-16)
(0.469729 -0.458835 3.83952e-16)
(0.485327 -0.387935 7.35605e-16)
(0.594234 -0.364604 2.30497e-16)
(0.602423 -0.312233 -4.53827e-16)
(0.686815 -0.293982 5.22455e-17)
(0.689991 -0.255224 -3.54705e-16)
(0.757465 -0.240436 -1.81133e-16)
(0.756788 -0.211032 3.0162e-16)
(0.812323 -0.199035 2.28074e-17)
(0.808671 -0.176157 -1.3091e-16)
(0.855484 -0.166318 8.15588e-17)
(0.849551 -0.148231 -3.33789e-16)
(0.889809 -0.139945 -6.07053e-17)
(0.882098 -0.125544 1.56212e-17)
(0.917338 -0.118312 -1.28345e-16)
(0.908187 -0.106838 -3.16804e-17)
(0.939545 -0.100279 -6.67248e-17)
(0.929165 -0.0911831 5.61054e-17)
(0.957506 -0.08501 4.91639e-17)
(0.946022 -0.0778847 1.555e-17)
(0.972017 -0.0718795 3.73509e-17)
(0.959492 -0.0664165 9.1703e-17)
(0.983673 -0.0604082 -1.68473e-16)
(0.97013 -0.0563768 2.46366e-16)
(0.992922 -0.0502172 -1.45711e-16)
(0.978356 -0.0474666 -5.72763e-18)
(1.0001 -0.0409773 -2.53744e-16)
(0.9845 -0.0395049 1.21241e-16)
(1.00544 -0.0323268 -1.91661e-16)
(0.988833 -0.0324907 2.04332e-16)
(1.0091 -0.0237866 -2.48265e-16)
(0.991549 -0.0265851 3.22954e-16)
(1.01129 -0.0149524 -2.75065e-16)
(0.992609 -0.0215539 1.87124e-16)
(1.01244 -0.00635235 -9.92525e-17)
(0.991814 -0.016485 5.53002e-17)
(1.01198 0.0038144 -5.44573e-17)
(0.992242 -0.0196658 -2.44596e-16)
(0.335696 -0.637302 -7.47793e-16)
(0.359496 -0.536958 -4.1713e-16)
(0.501081 -0.499656 -3.16044e-16)
(0.511843 -0.422433 -8.86525e-16)
(0.619141 -0.397027 -2.74768e-16)
(0.623755 -0.339983 2.44662e-16)
(0.706888 -0.32011 -3.28452e-17)
(0.70742 -0.277889 4.52181e-16)
(0.773873 -0.261785 2.79593e-16)
(0.771191 -0.229748 -3.37418e-16)
(0.825897 -0.216682 -1.17281e-16)
(0.820685 -0.191752 -8.12958e-17)
(0.866816 -0.181036 4.75187e-18)
(0.859652 -0.161326 1.20723e-16)
(0.899332 -0.152299 9.73277e-17)
(0.890644 -0.136606 -1.69875e-17)
(0.925378 -0.128726 1.60294e-16)
(0.915448 -0.116223 2.53561e-17)
(0.946348 -0.109074 2.2008e-16)
(0.935351 -0.0991631 -2.2384e-16)
(0.963261 -0.0924344 1.72463e-17)
(0.951293 -0.08467 -8.53573e-17)
(0.976871 -0.0781242 -4.05795e-17)
(0.963975 -0.0721709 -8.15418e-18)
(0.98774 -0.0656216 -1.15392e-16)
(0.973922 -0.0612284 9.87615e-17)
(0.996289 -0.0545146 -2.13291e-16)
(0.981536 -0.0515166 3.33092e-16)
(1.00283 -0.0444445 -1.47073e-16)
(0.987134 -0.042838 -1.26086e-17)
(1.00758 -0.0350174 3.10099e-17)
(0.990986 -0.0351915 -1.8126e-18)
(1.01066 -0.0257114 -3.65486e-17)
(0.993296 -0.0287532 1.55819e-17)
(1.01224 -0.0160823 -2.68391e-17)
(0.994015 -0.0232807 3.79916e-17)
(1.01279 -0.00668514 7.30103e-17)
(0.992869 -0.0177451 -1.34959e-16)
(1.01174 0.00409043 2.91407e-16)
(0.993124 -0.0201161 -4.10387e-17)
(0.379029 -0.686668 6.46192e-16)
(0.395987 -0.578557 4.09714e-16)
(0.535034 -0.538328 2.86447e-16)
(0.540536 -0.455126 7.17588e-16)
(0.646107 -0.427725 1.38918e-16)
(0.646838 -0.366267 1.75302e-16)
(0.728621 -0.344831 -9.3658e-17)
(0.726277 -0.299346 -2.26061e-16)
(0.791636 -0.281976 -3.79279e-16)
(0.786772 -0.247466 3.55869e-16)
(0.84059 -0.233373 -1.09247e-17)
(0.833679 -0.20652 3.80427e-16)
(0.879083 -0.19496 -6.50356e-17)
(0.870574 -0.173729 5.20704e-17)
(0.909644 -0.163992 5.20675e-17)
(0.899883 -0.147086 8.17557e-17)
(0.934085 -0.138586 -2.08143e-16)
(0.9233 -0.125115 4.10925e-17)
(0.953717 -0.117405 -1.9327e-16)
(0.942041 -0.106724 3.0528e-16)
(0.969496 -0.0994687 -6.89871e-17)
(0.956996 -0.0911002 7.36258e-17)
(0.982131 -0.0840427 4.40938e-17)
(0.968827 -0.0776247 1.82082e-16)
(0.992147 -0.0705647 -1.74123e-16)
(0.978028 -0.0658264 1.96552e-16)
(0.999939 -0.0585901 -1.2799e-16)
(0.984979 -0.0553543 2.5033e-18)
(1.00579 -0.0477325 -1.18345e-16)
(0.989984 -0.0459959 1.7789e-16)
(1.00989 -0.0375676 -1.32651e-16)
(0.993313 -0.0377499 1.64563e-17)
(1.01234 -0.0275334 1.43346e-17)
(0.995183 -0.0308072 1.84575e-16)
(1.01326 -0.0171486 -2.98151e-16)
(0.995531 -0.0249173 1.80619e-16)
(1.01316 -0.00699398 -1.54705e-16)
(0.994003 -0.0189402 9.69793e-17)
(1.01148 0.00435475 -2.43475e-16)
(0.994036 -0.0205263 -1.3981e-16)
(0.425477 -0.733104 -1.08341e-16)
(0.435127 -0.617641 -1.95153e-16)
(0.571442 -0.574711 -2.48476e-16)
(0.571325 -0.485871 -4.40748e-16)
(0.675031 -0.456625 -2.87325e-16)
(0.67161 -0.390998 -3.80136e-16)
(0.751933 -0.368118 1.06558e-16)
(0.746517 -0.319544 1.31454e-16)
(0.810693 -0.301002 9.45884e-17)
(0.803497 -0.264144 1.21885e-17)
(0.856354 -0.249098 -6.55479e-17)
(0.847629 -0.220415 -4.66634e-16)
(0.892243 -0.208074 -5.98143e-17)
(0.882301 -0.185395 -2.91354e-16)
(0.920703 -0.174999 -5.91389e-17)
(0.909803 -0.15694 -3.33448e-16)
(0.94342 -0.147864 2.94942e-16)
(0.931728 -0.133474 -2.90396e-16)
(0.961614 -0.12524 2.62174e-16)
(0.949219 -0.113831 -4.61835e-16)
(0.976176 -0.106081 1.30258e-16)
(0.963112 -0.0971419 -1.16145e-16)
(0.987763 -0.0896034 -6.56314e-17)
(0.974026 -0.0827473 -5.9145e-18)
(0.996863 -0.0752059 -8.50464e-17)
(0.982425 -0.0701442 2.53454e-16)
(1.00384 -0.0624142 -1.97735e-16)
(0.988664 -0.0589576 2.0216e-16)
(1.00896 -0.0508161 5.00895e-17)
(0.993033 -0.0489602 -7.20091e-17)
(1.01237 -0.0399587 1.16589e-16)
(0.995801 -0.0401505 -3.62234e-18)
(1.01413 -0.0292415 -5.45003e-17)
(0.9972 -0.0327328 -8.23001e-17)
(1.01435 -0.0181479 2.86207e-16)
(0.997153 -0.0264498 -2.82585e-16)
(1.01355 -0.00728196 2.62002e-16)
(0.995215 -0.0200562 -2.43503e-16)
(1.01121 0.00459906 3.34315e-16)
(0.99498 -0.0208841 3.29068e-17)
(0.474882 -0.776394 -2.28339e-17)
(0.476737 -0.654124 1.37647e-16)
(0.610158 -0.608619 1.72517e-16)
(0.604045 -0.51454 3.03582e-16)
(0.705779 -0.483538 4.49426e-16)
(0.69793 -0.414045 3.20432e-16)
(0.77671 -0.389792 -1.04728e-17)
(0.768015 -0.338359 1.60822e-16)
(0.830941 -0.318705 -6.45363e-17)
(0.821258 -0.279679 -3.93117e-18)
(0.873101 -0.263732 6.21082e-17)
(0.86244 -0.233363 4.36686e-16)
(0.906223 -0.220281 3.23446e-16)
(0.89475 -0.19627 4.23241e-16)
(0.932453 -0.185249 4.13923e-17)
(0.920331 -0.166127 5.16906e-16)
(0.953339 -0.156506 -4.39817e-16)
(0.940672 -0.141268 5.42897e-16)
(0.970006 -0.13254 -2.06507e-16)
(0.956838 -0.120458 3.93233e-16)
(0.983275 -0.112245 -9.30794e-17)
(0.969605 -0.102776 1.1829e-16)
(0.993749 -0.0947878 -8.72499e-17)
(0.979548 -0.0875251 9.30851e-17)
(1.00188 -0.0795346 1.75154e-17)
(0.987096 -0.0741711 -2.64378e-16)
(1.00799 -0.0659821 2.36807e-16)
(0.992579 -0.0623173 -2.57787e-16)
(1.01233 -0.0536936 5.59351e-17)
(0.996272 -0.0517232 -1.62605e-16)
(1.015 -0.0421891 8.13595e-17)
(0.998444 -0.0423874 -2.03158e-16)
(1.01604 -0.0308333 1.60641e-16)
(0.99934 -0.0345271 1.24422e-17)
(1.01551 -0.0190765 -1.39757e-16)
(0.998872 -0.0278784 2.71406e-16)
(1.01397 -0.00754497 -2.20172e-16)
(0.996498 -0.021097 1.92208e-16)
(1.01092 0.00482829 -1.3359e-16)
(0.995951 -0.0211971 -2.22016e-16)
(0.526994 -0.81637 -4.10036e-16)
(0.520645 -0.687766 5.49129e-17)
(0.650999 -0.639944 -2.81279e-16)
(0.638581 -0.541006 -1.96912e-16)
(0.738224 -0.50842 -3.80215e-16)
(0.725716 -0.435334 -2.93482e-16)
(0.80286 -0.409839 -1.86421e-16)
(0.790718 -0.355743 -1.147e-16)
(0.852317 -0.335082 -4.66349e-16)
(0.840017 -0.294032 2.85598e-16)
(0.890783 -0.277266 -2.97384e-16)
(0.878086 -0.245321 -2.28242e-16)
(0.920984 -0.231567 -6.99898e-16)
(0.9079 -0.206308 -3.99378e-16)
(0.944856 -0.19472 -2.18269e-16)
(0.931454 -0.174605 -2.21312e-16)
(0.963809 -0.164488 3.37711e-16)
(0.950122 -0.148458 -4.823e-16)
(0.978863 -0.13928 3.48858e-16)
(0.964886 -0.12657 -4.6831e-16)
(0.990765 -0.117932 2.42796e-16)
(0.976461 -0.107971 -2.08573e-16)
(1.00006 -0.0995694 1.56075e-16)
(0.985375 -0.0919283 -8.69583e-17)
(1.00716 -0.0835241 6.78371e-17)
(0.992022 -0.0778812 8.01835e-17)
(1.01236 -0.0692677 1.43788e-17)
(0.996706 -0.065412 5.45533e-18)
(1.01587 -0.056341 1.83022e-16)
(0.999684 -0.0542676 -2.75553e-17)
(1.01777 -0.0442397 1.37036e-16)
(1.00123 -0.0444464 -8.51539e-17)
(1.01805 -0.0322954 1.60221e-16)
(1.00159 -0.0361771 -1.54378e-16)
(1.01672 -0.019928 1.35019e-16)
(1.00068 -0.0291902 -1.79301e-16)
(1.01439 -0.00778297 6.57483e-17)
(0.997847 -0.0220497 -1.33831e-16)
(1.01061 0.00503661 7.53755e-18)
(0.996948 -0.0214544 2.27057e-17)
(0.581627 -0.852842 5.69189e-16)
(0.566661 -0.718506 -5.41502e-17)
(0.693814 -0.668506 1.6521e-16)
(0.674766 -0.565159 3.68852e-16)
(0.772226 -0.531089 2.07891e-16)
(0.754822 -0.454749 4.83135e-16)
(0.830258 -0.428095 8.17799e-17)
(0.814491 -0.371593 2.79808e-16)
(0.874706 -0.349993 3.80762e-16)
(0.859656 -0.307119 -1.16728e-16)
(0.909299 -0.289591 1.03361e-16)
(0.894462 -0.256227 3.49518e-16)
(0.936439 -0.241847 6.49229e-16)
(0.921663 -0.215466 5.30985e-16)
(0.957845 -0.203351 2.24655e-16)
(0.943092 -0.182342 5.31589e-17)
(0.974771 -0.171764 -4.00574e-16)
(0.960008 -0.155021 4.37299e-16)
(0.988136 -0.145426 -3.8492e-16)
(0.973306 -0.132148 1.97997e-16)
(0.998607 -0.123118 2.81724e-17)
(0.983634 -0.112713 1.35984e-17)
(1.00668 -0.103931 6.46467e-17)
(0.991473 -0.0959478 -9.26072e-17)
(1.0127 -0.0871639 8.29741e-17)
(0.997179 -0.0812676 -2.75924e-16)
(1.01695 -0.0722664 1.86683e-16)
(1.00103 -0.0682358 -2.79592e-16)
(1.01958 -0.0587579 4.30031e-17)
(1.00326 -0.0565881 -1.6755e-16)
(1.02067 -0.0461115 1.03461e-16)
(1.00414 -0.0463232 -1.61164e-16)
(1.02015 -0.033629 1.22765e-16)
(1.00395 -0.0376806 -3.60825e-16)
(1.01799 -0.0207024 3.09855e-16)
(1.00257 -0.0303859 -1.46003e-16)
(1.01484 -0.00799507 4.20207e-17)
(0.999257 -0.0229177 1.86562e-16)
(1.0103 0.00522671 -7.95596e-17)
(0.997965 -0.0216624 1.80897e-16)
(0.638512 -0.885675 -5.87373e-16)
(0.614586 -0.746131 3.29251e-16)
(0.738394 -0.694237 -4.86876e-16)
(0.71246 -0.586892 -1.5705e-16)
(0.807639 -0.551526 -5.16571e-16)
(0.785148 -0.472231 -2.01103e-16)
(0.8588 -0.444559 -7.64667e-17)
(0.839267 -0.385867 -2.57421e-17)
(0.898036 -0.363441 -6.50262e-16)
(0.880128 -0.318903 4.12874e-16)
(0.928597 -0.300704 -2.30879e-16)
(0.911535 -0.266043 -2.73553e-16)
(0.952547 -0.251112 -5.42207e-16)
(0.936012 -0.223705 -6.53307e-16)
(0.97138 -0.211125 -2.72854e-16)
(0.955228 -0.189298 -1.39598e-19)
(0.986195 -0.178315 3.0944e-16)
(0.970317 -0.16092 -2.76576e-16)
(0.997799 -0.150955 1.94239e-16)
(0.982085 -0.137161 -1.30758e-16)
(1.00678 -0.127783 1.08939e-16)
(0.991113 -0.116972 -1.82711e-16)
(1.01356 -0.107851 3.20042e-17)
(0.997829 -0.0995562 -8.10912e-17)
(1.01847 -0.0904333 1.98578e-16)
(1.00255 -0.0843062 -3.6726e-17)
(1.02171 -0.074957 1.49241e-16)
(1.00553 -0.0707686 1.23462e-17)
(1.02345 -0.0609238 3.04286e-16)
(1.00698 -0.0586687 -2.01474e-16)
(1.02369 -0.0477865 3.68494e-16)
(1.00717 -0.0480049 -2.62497e-16)
(1.02233 -0.0348202 3.24505e-16)
(1.0064 -0.0390262 -4.34283e-17)
(1.0193 -0.0213915 2.20204e-16)
(1.00454 -0.0314542 -4.4569e-16)
(1.0153 -0.00817874 3.53779e-16)
(1.00072 -0.0236904 -4.01212e-16)
(1.00997 0.00539529 6.64151e-17)
(0.999002 -0.0218123 -5.45423e-17)
(0.697439 -0.914706 6.00075e-16)
(0.66422 -0.770602 -1.58203e-17)
(0.784572 -0.716964 9.81686e-17)
(0.751492 -0.606118 5.41822e-16)
(0.844313 -0.569563 5.59709e-16)
(0.816543 -0.487683 2.43604e-16)
(0.888349 -0.459084 -1.75273e-16)
(0.86491 -0.39848 1.18987e-16)
(0.922184 -0.375303 4.50098e-16)
(0.901311 -0.329316 -3.09481e-16)
(0.948567 -0.310508 1.96832e-16)
(0.929197 -0.27472 2.83131e-16)
(0.969216 -0.259289 4.54754e-16)
(0.950855 -0.230991 3.95655e-16)
(0.985386 -0.217989 4.36688e-16)
(0.967779 -0.195452 -5.10789e-17)
(0.998016 -0.1841 -1.75011e-16)
(0.980977 -0.166138 8.33065e-17)
(1.0078 -0.155839 1.3393e-17)
(0.991162 -0.141595 -4.5231e-17)
(1.01523 -0.131903 7.94224e-17)
(0.998845 -0.120739 -8.78138e-17)
(1.02069 -0.111314 2.31136e-16)
(1.0044 -0.102748 -3.35975e-16)
(1.02443 -0.0933217 1.45958e-16)
(1.00811 -0.0869938 -3.10978e-16)
(1.02665 -0.0773347 4.09232e-17)
(1.01018 -0.0730078 -2.05961e-16)
(1.02745 -0.0628382 -2.79378e-17)
(1.01082 -0.0605067 -1.06345e-16)
(1.02681 -0.0492669 -1.90202e-16)
(1.01031 -0.0494892 9.10427e-17)
(1.02459 -0.0358719 -1.64699e-16)
(1.00894 -0.0402128 -1.96648e-16)
(1.02067 -0.0219977 8.68182e-17)
(1.00658 -0.0323961 2.10255e-16)
(1.01577 -0.0083356 -7.07671e-17)
(1.00223 -0.0243705 2.44542e-16)
(1.00963 0.00554297 -1.31976e-16)
(1.00005 -0.0219089 1.96951e-16)
(0.758124 -0.939832 -5.95251e-16)
(0.715344 -0.791739 -3.13029e-16)
(0.83213 -0.736659 -2.07693e-16)
(0.791699 -0.622746 -1.83546e-16)
(0.88209 -0.585205 -9.5773e-16)
(0.84889 -0.501058 -1.07135e-16)
(0.918795 -0.471683 -3.3204e-17)
(0.891336 -0.409399 5.55707e-18)
(0.947068 -0.385593 -3.72359e-16)
(0.923145 -0.338329 2.25368e-16)
(0.969149 -0.319009 2.61045e-17)
(0.947405 -0.282225 -5.08366e-16)
(0.986395 -0.266375 -1.90445e-16)
(0.966158 -0.237288 -2.86478e-16)
(0.999821 -0.223933 -2.3673e-16)
(0.980719 -0.200768 -5.69191e-18)
(1.0102 -0.189106 3.49854e-16)
(0.99197 -0.170644 -2.2612e-16)
(1.0181 -0.160063 2.81914e-16)
(1.00052 -0.145423 -3.6375e-16)
(1.02395 -0.135465 2.20969e-16)
(1.00682 -0.123989 -1.17461e-16)
(1.02803 -0.114305 9.53977e-18)
(1.01118 -0.1055 7.6877e-17)
(1.03058 -0.0958145 1.90128e-16)
(1.01383 -0.0893086 1.01795e-16)
(1.03173 -0.079384 8.9455e-17)
(1.01497 -0.074935 1.04575e-16)
(1.03156 -0.0644852 6.31559e-17)
(1.01478 -0.0620874 1.67471e-16)
(1.03003 -0.0505376 1.47477e-16)
(1.01353 -0.0507641 -4.91588e-17)
(1.02691 -0.0367717 1.42044e-16)
(1.01155 -0.0412304 2.35369e-16)
(1.02206 -0.0225124 2.4301e-17)
(1.00867 -0.0332022 -3.78062e-16)
(1.01625 -0.0084616 3.45614e-16)
(1.00379 -0.0249495 -2.96496e-16)
(1.00928 0.0056686 9.49477e-17)
(1.00112 -0.0219461 -1.40252e-16)
(0.820336 -0.960926 8.24213e-16)
(0.767746 -0.809521 7.74928e-16)
(0.880879 -0.753164 1.57038e-16)
(0.832909 -0.636714 2.1564e-16)
(0.920807 -0.598302 7.63149e-16)
(0.882037 -0.512282 7.34424e-17)
(0.949991 -0.482229 1.33944e-16)
(0.91841 -0.41856 1.27446e-16)
(0.972562 -0.394204 1.35487e-16)
(0.945509 -0.34589 -1.55693e-16)
(0.990232 -0.326125 -7.99585e-17)
(0.966052 -0.288525 3.69781e-16)
(1.00399 -0.272308 2.69224e-16)
(0.981828 -0.242576 1.86332e-16)
(1.01461 -0.228911 3.89233e-17)
(0.993969 -0.205232 -3.91719e-17)
(1.02268 -0.1933 -3.49632e-16)
(1.00322 -0.174427 9.10196e-17)
(1.02865 -0.163603 -2.31311e-17)
(1.0101 -0.148636 9.86829e-17)
(1.03287 -0.138449 2.61263e-17)
(1.01498 -0.126718 -3.31935e-17)
(1.03555 -0.116811 1.27513e-16)
(1.01811 -0.107809 -1.61429e-16)
(1.03687 -0.0979018 -4.62622e-17)
(1.01969 -0.0912509 -2.77138e-16)
(1.03693 -0.0810997 1.25958e-16)
(1.01988 -0.0765508 -2.77791e-16)
(1.03578 -0.0658638 1.33213e-16)
(1.01884 -0.063411 -3.33689e-16)
(1.03332 -0.0516005 -6.45485e-17)
(1.01684 -0.0518301 -1.71153e-17)
(1.02929 -0.0375229 -2.19261e-16)
(1.01422 -0.0420796 -2.12003e-16)
(1.0235 -0.0229392 -1.7809e-16)
(1.01081 -0.0338739 1.70944e-16)
(1.01675 -0.00855968 -1.93507e-16)
(1.00538 -0.0254296 8.11949e-17)
(1.00892 0.00577139 -2.00287e-17)
(1.00219 -0.0219268 2.37887e-16)
(0.883783 -0.977915 -9.72728e-16)
(0.821194 -0.823808 -7.78483e-16)
(0.930605 -0.766485 -4.3554e-16)
(0.874943 -0.647953 9.77684e-17)
(0.960304 -0.608881 -6.55163e-16)
(0.915853 -0.521321 1.47032e-16)
(0.981821 -0.490748 -3.64862e-16)
(0.946034 -0.425938 -1.17118e-16)
(0.998575 -0.40116 3.25041e-17)
(0.968332 -0.351978 2.16158e-16)
(1.01175 -0.331869 1.10139e-16)
(0.985084 -0.293592 -1.65927e-16)
(1.02195 -0.277093 -1.28521e-16)
(0.997822 -0.246825 -4.1744e-16)
(1.02969 -0.232922 9.6084e-17)
(1.00749 -0.208816 5.73774e-17)
(1.03541 -0.196676 3.14437e-16)
(1.01471 -0.177463 -2.37004e-16)
(1.03942 -0.166449 1.24551e-16)
(1.01988 -0.151212 -1.7284e-16)
(1.04197 -0.140847 3.49884e-17)
(1.02331 -0.128902 1.12596e-17)
(1.04322 -0.118822 -1.90505e-16)
(1.02519 -0.109656 4.87188e-18)
(1.04329 -0.099575 2.96683e-16)
(1.02568 -0.0928019 -9.40492e-18)
(1.04224 -0.0824721 5.47832e-17)
(1.02489 -0.077839 1.29874e-16)
(1.04008 -0.0669634 -8.56242e-18)
(1.02298 -0.0644642 1.60117e-16)
(1.03667 -0.0524449 5.39999e-17)
(1.02021 -0.052676 2.17872e-16)
(1.03171 -0.0381157 6.39118e-17)
(1.01694 -0.0427511 3.80315e-16)
(1.02495 -0.0232706 1.95393e-16)
(1.01299 -0.0344032 -4.91147e-17)
(1.01724 -0.00862562 1.4079e-16)
(1.007 -0.0258042 3.31819e-17)
(1.00856 0.0058515 -1.3934e-16)
(1.00327 -0.0218472 -3.08263e-17)
(0.948216 -0.990711 1.00771e-15)
(0.87547 -0.834595 7.21828e-16)
(0.981089 -0.776487 3.63706e-16)
(0.917625 -0.656424 8.41373e-17)
(1.0004 -0.616814 2.4553e-16)
(0.950184 -0.528125 -1.1627e-17)
(1.01413 -0.497133 3.12124e-16)
(0.974075 -0.431489 8.34845e-17)
(1.02498 -0.406371 -1.4617e-16)
(0.991496 -0.356557 -1.76474e-16)
(1.03358 -0.336173 1.00982e-16)
(1.0044 -0.297405 -9.9255e-17)
(1.04017 -0.28068 -6.38513e-17)
(1.01405 -0.250024 6.46596e-16)
(1.045 -0.23593 -3.77774e-16)
(1.02122 -0.211514 8.76644e-17)
(1.04833 -0.199208 -1.23561e-16)
(1.02636 -0.179747 -8.8146e-18)
(1.05035 -0.168583 2.20975e-16)
(1.0298 -0.153149 -1.16656e-16)
(1.05121 -0.142642 8.79725e-17)
(1.03176 -0.130544 8.43962e-17)
(1.05101 -0.120327 8.41628e-17)
(1.03237 -0.111043 -1.54438e-16)
(1.04981 -0.100825 1.09573e-16)
(1.03174 -0.0939651 -2.51129e-16)
(1.04763 -0.0834961 3.85111e-17)
(1.02997 -0.0788033 6.8652e-17)