/*--------------------------------*- C++ -*----------------------------------*\
| =========                 |                                                 |
| \\      /  F ield         | foam-extend: Open Source CFD                    |
|  \\    /   O peration     | Version:  3.0                                   |
|   \\  /    A nd           | Web:         http://www.extend-project.de       |
|    \\/     M anipulation  |                                                 |
\*---------------------------------------------------------------------------*/
FoamFile
{
    version     2.0;
    format      ascii;
    class       volVectorField;
    location    "7";
    object      u;
}
// * * * * * * * * * * * * * * * * * * * * * * * * * * * * * * * * * * * * * //

dimensions      [0 0 0 0 0 0 0];

internalField   nonuniform List<vector> 
7680
(
(0.0726023 -0.0311398 1.92154e-19)
(0.190407 -0.0273482 2.13683e-19)
(0.290047 -0.0241454 1.06235e-19)
(0.374645 -0.0214198 1.69418e-19)
(0.44739 -0.0190894 8.04142e-20)
(0.510003 -0.0170797 1.98408e-19)
(0.56456 -0.0153393 1.21213e-19)
(0.612022 -0.0138209 1.97686e-19)
(0.653833 -0.0124925 3.11209e-19)
(0.690523 -0.0113231 1.38678e-19)
(0.723151 -0.0102919 9.15898e-20)
(0.751985 -0.009378 1.00588e-19)
(0.777841 -0.00856686 6.17549e-20)
(0.80082 -0.0078442 -8.32461e-20)
(0.82158 -0.00719953 2.12222e-19)
(0.84011 -0.00662319 3.03278e-19)
(0.856961 -0.0061072 2.73048e-19)
(0.87205 -0.00564533 1.3452e-19)
(0.885853 -0.00523121 1.65053e-19)
(0.898233 -0.00486124 -2.05842e-19)
(0.90962 -0.00453001 8.58077e-20)
(0.919837 -0.00423603 1.38569e-19)
(0.92928 -0.00397437 2.31065e-19)
(0.937741 -0.00374533 1.70723e-19)
(0.945594 -0.00354414 2.00988e-19)
(0.952609 -0.00337263 3.93493e-19)
(0.959143 -0.00322591 5.17483e-19)
(0.964945 -0.00310709 1.92621e-19)
(0.970364 -0.00301091 5.96075e-20)
(0.975128 -0.00294138 1.77175e-19)
(0.979582 -0.00289243 3.0736e-19)
(0.983436 -0.00286796 2.65188e-19)
(0.987027 -0.00285985 6.65812e-20)
(0.990049 -0.00286871 -3.74915e-19)
(0.992829 -0.00287924 -1.03338e-19)
(0.995044 -0.00287665 7.64808e-20)
(0.996999 -0.0028163 4.93449e-19)
(0.99836 -0.00262017 1.63564e-19)
(0.999403 -0.00212968 7.68106e-20)
(0.999845 -0.00105362 1.00422e-19)
(0.0767184 -0.0942218 1.54322e-19)
(0.19403 -0.0828832 -7.19038e-20)
(0.293254 -0.0733424 1.32474e-19)
(0.377498 -0.0652336 2.39145e-19)
(0.449942 -0.0582966 4.23235e-20)
(0.512295 -0.0523062 2.52901e-20)
(0.566627 -0.0471081 2.72314e-20)
(0.613893 -0.0425629 1.89848e-19)
(0.655532 -0.0385758 6.32545e-20)
(0.692071 -0.0350561 4.31887e-20)
(0.724565 -0.0319415 1.21176e-19)
(0.75328 -0.0291703 1.8607e-19)
(0.779031 -0.0266994 2.31698e-19)
(0.801916 -0.0244858 1.53161e-19)
(0.82259 -0.0224982 3.82492e-19)
(0.841044 -0.0207068 5.09064e-19)
(0.857826 -0.019088 4.41885e-19)
(0.872852 -0.0176214 -5.10642e-20)
(0.886597 -0.0162886 -1.539e-19)
(0.898926 -0.0150759 -2.65689e-19)
(0.910264 -0.0139681 2.19342e-19)
(0.920436 -0.0129571 2.81744e-19)
(0.929837 -0.0120294 2.17174e-19)
(0.93826 -0.0111811 8.47752e-20)
(0.946076 -0.0103996 8.60552e-19)
(0.953056 -0.0096843 4.50027e-19)
(0.959557 -0.00902305 2.29302e-19)
(0.965326 -0.00841753 2.27975e-20)
(0.970713 -0.00785536 1.6402e-19)
(0.975446 -0.00733947 2.71482e-19)
(0.979869 -0.00685656 3.99774e-19)
(0.983692 -0.00640863 7.67827e-19)
(0.987252 -0.00597992 6.43283e-19)
(0.990243 -0.00556642 -4.29421e-19)
(0.992992 -0.0051447 -1.82473e-19)
(0.995177 -0.00468965 -2.08084e-19)
(0.997105 -0.00414962 8.51803e-19)
(0.998437 -0.00343223 2.17663e-19)
(0.999455 -0.002408 2.1432e-19)
(0.999862 -0.000904166 6.25179e-19)
(0.0849536 -0.156898 2.95078e-19)
(0.201277 -0.138062 -1.26683e-19)
(0.299672 -0.122224 4.1874e-19)
(0.383211 -0.108767 5.74477e-20)
(0.455053 -0.0972534 4.13288e-19)
(0.516886 -0.0873084 7.53393e-20)
(0.570767 -0.0786749 9.32276e-20)
(0.617639 -0.0711226 6.89322e-20)
(0.658932 -0.0644938 -6.99987e-19)
(0.695165 -0.0586388 -3.36131e-19)
(0.727389 -0.0534542 3.98415e-19)
(0.755864 -0.0488376 2.97924e-19)
(0.7814 -0.0447174 3.19121e-20)
(0.804092 -0.0410222 2.33315e-19)
(0.824593 -0.0377002 6.80691e-19)
(0.84289 -0.0347012 9.37633e-19)
(0.85953 -0.0319866 -4.01181e-19)
(0.874426 -0.0295213 4.62469e-19)
(0.888053 -0.0272753 -5.14537e-19)
(0.900272 -0.0252249 8.24739e-20)
(0.911509 -0.0233453 1.85646e-19)
(0.921588 -0.0216212 5.93369e-19)
(0.930901 -0.0200313 3.39624e-19)
(0.939241 -0.0185668 1.1507e-18)
(0.94698 -0.017208 3.6146e-19)
(0.953886 -0.0159515 5.79587e-19)
(0.960315 -0.014778 1.12722e-19)
(0.966016 -0.0136878 5.71635e-19)
(0.971336 -0.0126614 3.53984e-19)
(0.976003 -0.0117009 4.28176e-19)
(0.980362 -0.0107856 3.55073e-19)
(0.98412 -0.00991626 1.75417e-19)
(0.987617 -0.00906935 8.29014e-19)
(0.990544 -0.00823758 1.04915e-18)
(0.993233 -0.0073891 4.36073e-21)
(0.995357 -0.00649128 6.02056e-20)
(0.997233 -0.00548416 6.1775e-19)
(0.998515 -0.00426461 -1.26494e-19)
(0.999497 -0.00272289 -8.28487e-20)
(0.999863 -0.000794116 -2.10086e-19)
(0.0972705 -0.2189 3.17111e-19)
(0.212119 -0.192648 -2.06894e-19)
(0.309273 -0.170582 2.65325e-19)
(0.391759 -0.151834 3.58262e-19)
(0.4627 -0.135793 5.65806e-19)
(0.523756 -0.121936 -1.58327e-21)
(0.576962 -0.109904 1.75888e-19)
(0.623243 -0.0993773 2.71508e-19)
(0.664018 -0.0901353 -1.53308e-19)
(0.699794 -0.0819701 4.39311e-19)
(0.731612 -0.0747377 6.52817e-19)
(0.759725 -0.0682954 5.55354e-19)
(0.784938 -0.0625438 5.08463e-19)
(0.80734 -0.0573827 1.76117e-19)
(0.82758 -0.0527405 -7.08687e-19)
(0.845641 -0.0485467 -2.32133e-19)
(0.862066 -0.0447477 -8.99531e-19)
(0.876766 -0.0412942 -5.07127e-19)
(0.890213 -0.0381445 7.55031e-19)
(0.902266 -0.0352649 -1.8291e-19)
(0.913351 -0.032621 8.73947e-19)
(0.923288 -0.030191 6.06748e-19)
(0.932468 -0.027945 5.81819e-19)
(0.940683 -0.0258702 -8.59154e-21)
(0.948304 -0.0239392 8.93991e-20)
(0.955097 -0.0221462 -4.72283e-19)
(0.96142 -0.0204646 -8.82401e-19)
(0.967016 -0.0188935 -7.15735e-20)
(0.972236 -0.0174064 4.09722e-19)
(0.976805 -0.0160047 9.77619e-19)
(0.981066 -0.0146604 6.10725e-19)
(0.984728 -0.0133738 -1.36924e-18)
(0.988132 -0.0121134 -2.46668e-19)
(0.990966 -0.0108706 2.61891e-18)
(0.993567 -0.00960482 -8.46827e-19)
(0.995604 -0.00827962 -3.67748e-19)
(0.997406 -0.006825 2.75051e-19)
(0.998615 -0.00513154 -1.28862e-18)
(0.999546 -0.00309571 -2.32373e-19)
(0.999859 -0.000743455 1.20707e-19)
(0.113616 -0.279964 7.19052e-19)
(0.226506 -0.246408 6.17671e-19)
(0.322016 -0.218207 -2.78486e-20)
(0.403106 -0.194249 1.57851e-18)
(0.472852 -0.17375 5.57775e-19)
(0.532876 -0.15604 1.2545e-19)
(0.585185 -0.140662 2.89726e-19)
(0.630683 -0.127205 2.46039e-19)
(0.670769 -0.11539 -8.47613e-20)
(0.705936 -0.104949 4.72792e-19)
(0.737215 -0.0956998 6.62292e-19)
(0.764848 -0.0874595 8.8226e-19)
(0.789631 -0.0801008 1.23852e-18)
(0.811647 -0.0734959 -4.0633e-19)
(0.831539 -0.0675532 -1.14745e-18)
(0.849284 -0.0621825 -1.6497e-18)
(0.865423 -0.0573152 5.68582e-19)
(0.879861 -0.0528881 -3.8554e-19)
(0.893069 -0.0488479 -7.7207e-20)
(0.904902 -0.0451511 -1.17263e-19)
(0.915782 -0.0417539 8.2968e-19)
(0.925529 -0.038628 6.31543e-19)
(0.934532 -0.035735 -4.54433e-19)
(0.942581 -0.0330582 2.29406e-19)
(0.950045 -0.0305626 5.80752e-19)
(0.956688 -0.02824 3.05403e-19)
(0.962867 -0.0260566 -1.43377e-18)
(0.968327 -0.0240106 -6.19326e-19)
(0.973413 -0.0220682 3.81369e-19)
(0.977852 -0.0202308 -1.19382e-18)
(0.981988 -0.018463 -1.07317e-18)
(0.985526 -0.0167656 -9.02796e-19)
(0.988809 -0.015099 -2.08111e-18)
(0.991523 -0.0134554 4.16636e-19)
(0.994012 -0.011785 -2.10151e-18)
(0.995941 -0.010052 -1.68416e-18)
(0.997647 -0.0081741 -1.56587e-18)
(0.998765 -0.00603999 -2.50154e-18)
(0.999623 -0.00353705 -1.16512e-19)
(0.999861 -0.000761058 1.36595e-18)
(0.133921 -0.339827 9.38429e-19)
(0.24438 -0.299111 9.15704e-19)
(0.337846 -0.264896 1.35825e-18)
(0.417201 -0.235832 4.05295e-19)
(0.485464 -0.210962 4.00037e-19)
(0.544205 -0.189475 1.4525e-18)
(0.595401 -0.170816 9.83019e-19)
(0.639925 -0.154487 3.55878e-19)
(0.679155 -0.140149 -4.37829e-19)
(0.713566 -0.127478 -2.28187e-19)
(0.744174 -0.116251 6.91455e-19)
(0.771209 -0.106248 3.13197e-19)
(0.795458 -0.0973138 1.44171e-18)
(0.816994 -0.0892934 3.84213e-19)
(0.836452 -0.0820756 -1.8969e-18)
(0.853806 -0.0755507 -1.49792e-18)
(0.869588 -0.0696358 3.9428e-19)
(0.883701 -0.0642538 -1.177e-18)
(0.896609 -0.0593401 -7.51768e-19)
(0.908168 -0.0548416 -9.23874e-19)
(0.918794 -0.0507052 -2.07032e-18)
(0.928305 -0.0468961 -2.26672e-18)
(0.937087 -0.043368 7.74432e-19)
(0.944929 -0.0401 6.90762e-19)
(0.952197 -0.0370496 -2.15871e-18)
(0.958656 -0.0342065 -1.22912e-18)
(0.964658 -0.0315297 -9.89894e-19)
(0.969948 -0.0290169 -1.90175e-18)
(0.974871 -0.0266266 -8.46707e-19)
(0.979152 -0.0243612 -1.30146e-18)
(0.983133 -0.0221773 7.11301e-19)
(0.986521 -0.0200777 8.49309e-19)
(0.989659 -0.0180143 -9.44549e-19)
(0.992233 -0.0159826 3.50073e-20)
(0.994589 -0.013923 -3.35223e-18)
(0.996389 -0.0118041 4.22644e-19)
(0.997981 -0.00952905 1.21473e-18)
(0.998987 -0.00698829 -1.61292e-18)
(0.999747 -0.00404566 4.25245e-20)
(0.99988 -0.000844461 1.4861e-18)
(0.158097 -0.398232 1.18299e-18)
(0.265661 -0.350531 -2.98313e-19)
(0.356697 -0.31045 8.43767e-19)
(0.433987 -0.276402 8.20002e-19)
(0.500482 -0.247268 -1.19013e-19)
(0.557697 -0.222097 -2.92162e-19)
(0.607568 -0.200237 -3.04041e-20)
(0.65093 -0.181106 5.86193e-19)
(0.689142 -0.164306 5.69872e-19)
(0.722651 -0.149459 -1.33438e-18)
(0.752461 -0.136303 -1.38037e-18)
(0.778783 -0.12458 -1.03657e-18)
(0.802395 -0.114108 1.20219e-18)
(0.823358 -0.104706 1.21977e-18)
(0.842301 -0.0962443 -7.87749e-19)
(0.859186 -0.0885931 -8.3617e-19)
(0.874543 -0.0816556 -1.24878e-18)
(0.888268 -0.0753415 -1.65542e-18)
(0.900821 -0.069575 -1.25883e-18)
(0.912051 -0.0642938 -1.16104e-18)
(0.922374 -0.0594355 -2.34218e-18)
(0.931604 -0.0549591 -9.77892e-19)
(0.940123 -0.0508103 8.09249e-19)
(0.947719 -0.0469645 2.6314e-19)
(0.954755 -0.0433716 -9.63886e-19)
(0.960994 -0.0400196 -2.65465e-18)
(0.966787 -0.0368602 2.159e-19)
(0.971877 -0.0338906 -1.99886e-18)
(0.976608 -0.0310622 -1.01997e-18)
(0.980704 -0.0283786 -7.07475e-19)
(0.984507 -0.0257885 4.62756e-18)
(0.987722 -0.0232976 1.5051e-18)
(0.990694 -0.0208492 9.99593e-19)
(0.993107 -0.018444 1.00501e-18)
(0.995311 -0.0160125 1.6308e-18)
(0.996966 -0.0135301 1.28979e-18)
(0.998425 -0.0108844 1.25003e-18)
(0.9993 -0.00796875 1.23296e-18)
(0.999931 -0.00461198 4.03801e-18)
(0.999921 -0.000983705 7.85222e-19)
(0.186041 -0.454932 1.38348e-18)
(0.290261 -0.400449 1.3404e-19)
(0.378486 -0.354672 6.74167e-19)
(0.45339 -0.315788 -2.87637e-19)
(0.517843 -0.282514 -9.17743e-19)
(0.573294 -0.253767 -4.0258e-19)
(0.621631 -0.228799 6.41082e-19)
(0.663653 -0.206948 2.16473e-19)
(0.700686 -0.187759 7.05729e-19)
(0.733153 -0.170799 -6.355e-19)
(0.762038 -0.15577 7.51615e-19)
(0.787537 -0.142377 -8.76315e-19)
(0.810412 -0.130412 3.91503e-19)
(0.830713 -0.119669 -1.65898e-19)
(0.849058 -0.109999 9.44528e-19)
(0.865403 -0.101254 -1.10841e-20)
(0.880268 -0.0933235 6.21103e-19)
(0.893544 -0.0861041 -1.09548e-18)
(0.905685 -0.0795091 1.92433e-18)
(0.916537 -0.0734674 1.28302e-18)
(0.926509 -0.0679075 -1.42093e-18)
(0.935414 -0.0627825 -5.76039e-19)
(0.94363 -0.0580303 -9.47388e-19)
(0.950942 -0.0536226 7.51792e-19)
(0.957711 -0.049502 7.02105e-19)
(0.963697 -0.0456549 -1.4508e-18)
(0.96925 -0.0420257 2.5047e-18)
(0.974112 -0.0386119 2.13848e-18)
(0.978624 -0.0353572 -5.38885e-18)
(0.982511 -0.0322673 -2.89663e-18)
(0.986112 -0.0292829 -1.23914e-18)
(0.989133 -0.0264136 4.71574e-19)
(0.991919 -0.0235941 2.8323e-18)
(0.994154 -0.0208315 -2.831e-18)
(0.996189 -0.0180462 2.33927e-19)
(0.997684 -0.0152227 2.48196e-18)
(0.998991 -0.0122312 2.02351e-18)
(0.999714 -0.00896857 8.48879e-19)
(1.00018 -0.00522037 1.849e-18)
(0.999989 -0.00116437 -9.01167e-19)
(0.217634 -0.509681 1.4488e-18)
(0.318072 -0.44865 5.62629e-19)
(0.403121 -0.397374 4.70265e-19)
(0.475327 -0.353819 -5.82111e-19)
(0.537472 -0.316549 6.01353e-19)
(0.590928 -0.284347 1.0626e-18)
(0.637533 -0.25638 9.45674e-20)
(0.678037 -0.231902 3.73122e-19)
(0.713737 -0.210405 8.06489e-19)
(0.745026 -0.191405 5.27554e-19)
(0.772867 -0.174567 8.18736e-19)
(0.797434 -0.159562 1.33145e-18)
(0.819476 -0.146156 6.0388e-19)
(0.839027 -0.134118 1.13885e-18)
(0.856698 -0.12328 2.30704e-18)
(0.87243 -0.113479 -1.34184e-19)
(0.886739 -0.104589 4.93553e-19)
(0.899507 -0.0964947 -4.7879e-19)
(0.911183 -0.0890993 2.43104e-18)
(0.921606 -0.0823226 2.14129e-18)
(0.931183 -0.0760846 3.90229e-19)
(0.93972 -0.0703326 6.72411e-19)
(0.947594 -0.0649969 -1.13286e-18)
(0.954586 -0.0600457 -1.07839e-18)
(0.961054 -0.0554146 8.45356e-19)
(0.966757 -0.0510885 1.17713e-18)
(0.972041 -0.0470048 1.77787e-18)
(0.976648 -0.0431614 3.70652e-18)
(0.980916 -0.0394947 -1.23827e-18)
(0.98457 -0.0360126 2.22286e-18)
(0.987948 -0.032648 -2.96499e-19)
(0.990756 -0.0294151 -1.66473e-18)
(0.993337 -0.02624 -6.34657e-19)
(0.995377 -0.0231374 -1.9168e-18)
(0.997227 -0.0200171 -1.11342e-18)
(0.998545 -0.0168739 -3.89989e-19)
(0.999681 -0.0135596 -3.36985e-18)
(1.00023 -0.0099736 -1.70475e-18)
(1.0005 -0.00585381 6.2168e-18)
(1.00008 -0.00137183 -6.65322e-19)
(0.25274 -0.562247 -4.05606e-20)
(0.348977 -0.494928 -5.81712e-19)
(0.430496 -0.438373 1.01131e-18)
(0.499705 -0.390334 1.13961e-18)
(0.559284 -0.349226 5.49369e-19)
(0.610524 -0.313709 -1.43955e-18)
(0.655203 -0.28286 -5.68227e-20)
(0.694022 -0.255861 4.72968e-19)
(0.728241 -0.232149 1.29924e-18)
(0.758221 -0.21119 1.52295e-18)
(0.7849 -0.192615 -9.78739e-19)
(0.808431 -0.176061 -1.05114e-18)
(0.829547 -0.161271 1.17858e-19)
(0.848266 -0.147989 -1.49324e-18)
(0.865186 -0.136031 7.96277e-19)
(0.880238 -0.125215 1.53672e-18)
(0.893929 -0.115403 -2.86815e-19)
(0.906132 -0.106469 9.55338e-19)
(0.917291 -0.0983046 1.8818e-18)
(0.927239 -0.0908217 1.0688e-18)
(0.936376 -0.083932 9.44791e-19)
(0.944506 -0.0775773 2.31715e-19)
(0.952001 -0.0716806 7.21296e-19)
(0.958639 -0.0662068 -1.38815e-18)
(0.964773 -0.0610848 -1.41092e-18)
(0.970163 -0.0562981 4.00539e-18)
(0.975151 -0.0517773 2.35177e-19)
(0.979477 -0.047521 -2.15448e-18)
(0.983477 -0.0434585 -6.16344e-18)
(0.986877 -0.0396001 -1.93659e-18)
(0.990011 -0.0358714 -5.66681e-19)
(0.992588 -0.0322914 7.0316e-19)
(0.994947 -0.0287778 -1.98724e-18)
(0.996776 -0.0253531 3.92317e-18)
(0.998424 -0.021917 -2.91443e-18)
(0.999549 -0.018474 1.57136e-18)
(1.00049 -0.014858 4.64057e-20)
(1.00085 -0.0109686 1.23323e-18)
(1.00089 -0.00649503 1.07539e-18)
(1.0002 -0.00159258 -2.48818e-18)
(0.291208 -0.612403 -9.31911e-19)
(0.382842 -0.539086 -5.19972e-19)
(0.460495 -0.477493 1.40165e-19)
(0.526419 -0.425175 -2.2921e-18)
(0.583188 -0.380407 -1.72088e-18)
(0.631999 -0.341725 9.67835e-19)
(0.674568 -0.308128 9.77947e-19)
(0.711539 -0.278722 3.1643e-18)
(0.744136 -0.252896 2.20875e-18)
(0.77268 -0.230068 -1.32298e-18)
(0.798087 -0.209836 -2.28876e-18)
(0.820483 -0.191804 -7.15948e-19)
(0.840583 -0.175693 -5.86043e-19)
(0.85839 -0.161224 5.79558e-19)
(0.874487 -0.148196 1.99722e-18)
(0.888794 -0.136412 1.67963e-18)
(0.901807 -0.125721 5.42399e-19)
(0.913392 -0.115984 2.84129e-18)
(0.923985 -0.107086 3.10574e-18)
(0.933412 -0.0989283 -1.66536e-19)
(0.942068 -0.0914161 -1.41245e-18)
(0.949753 -0.0844857 -1.1469e-18)
(0.956832 -0.078053 1.41217e-18)
(0.963083 -0.0720801 -1.17512e-20)
(0.968854 -0.066489 -2.04239e-18)
(0.973904 -0.0612623 1.23801e-18)
(0.978568 -0.0563241 -1.54225e-18)
(0.98259 -0.0516736 1.20214e-18)
(0.9863 -0.0472335 -6.20581e-18)
(0.989425 -0.0430169 -5.2018e-18)
(0.992296 -0.0389418 -1.54175e-18)
(0.994623 -0.0350325 -5.07298e-20)
(0.996743 -0.0311987 1.12187e-18)
(0.998346 -0.0274705 2.74197e-18)
(0.999775 -0.0237378 -3.20193e-18)
(1.00069 -0.020014 2.90397e-18)
(1.00142 -0.0161155 3.13934e-19)
(1.00155 -0.0119404 -1.22884e-18)
(1.00134 -0.00712965 1.62747e-18)
(1.00034 -0.0018163 -1.43705e-18)
(0.332875 -0.659936 3.37539e-18)
(0.419523 -0.580934 2.16914e-18)
(0.492988 -0.514566 1.08966e-18)
(0.555355 -0.458194 3.37521e-19)
(0.609079 -0.409956 -1.32502e-18)
(0.655259 -0.368276 8.26957e-19)
(0.695543 -0.332074 1.19999e-18)
(0.730514 -0.300388 3.46234e-19)
(0.761352 -0.272558 -6.97448e-19)
(0.788342 -0.247958 1.70444e-18)
(0.81237 -0.226156 2.05702e-19)
(0.833537 -0.206724 2.46164e-19)
(0.852538 -0.189361 -2.10415e-18)
(0.869356 -0.173766 -1.07958e-18)
(0.884562 -0.159724 8.59695e-19)
(0.898062 -0.147022 -9.7288e-19)
(0.910341 -0.135497 -1.01402e-18)
(0.921257 -0.125 -8.16326e-19)
(0.931236 -0.115405 4.49306e-19)
(0.9401 -0.106608 1.04895e-18)
(0.948235 -0.0985051 -1.60459e-18)
(0.955438 -0.0910287 -1.26157e-18)
(0.962069 -0.0840874 2.17358e-18)
(0.967903 -0.0776408 2.41098e-18)
(0.973282 -0.0716047 -4.79071e-19)
(0.977964 -0.0659607 4.54002e-18)
(0.982281 -0.0606266 -1.17646e-18)
(0.985975 -0.0556026 3.49034e-19)
(0.989374 -0.0508049 -6.69987e-19)
(0.992204 -0.0462495 1.39443e-18)
(0.994794 -0.0418475 -1.74388e-18)
(0.996855 -0.037628 -8.97814e-19)
(0.998718 -0.0334932 4.48853e-18)
(1.00008 -0.0294804 4.64559e-18)
(1.00127 -0.0254702 -3.52921e-18)
(1.00196 -0.021484 -1.97418e-19)
(1.00246 -0.0173211 7.3904e-19)
(1.00235 -0.0128762 -2.36391e-18)
(1.00184 -0.00774502 -5.99126e-18)
(1.00049 -0.00203495 -1.37499e-18)
(0.377561 -0.704642 3.26696e-18)
(0.458863 -0.620293 2.28651e-18)
(0.527836 -0.549435 1.13295e-18)
(0.586389 -0.489249 6.66164e-19)
(0.636849 -0.437747 3.16897e-19)
(0.680207 -0.393247 -1.27656e-18)
(0.71804 -0.354595 2.03066e-18)
(0.750865 -0.320765 1.16488e-18)
(0.779818 -0.29105 7.46106e-24)
(0.80514 -0.264784 1.48055e-18)
(0.82769 -0.241505 2.42036e-19)
(0.847537 -0.220755 -2.76298e-18)
(0.865359 -0.202214 -5.67953e-19)
(0.881117 -0.185561 -1.86996e-18)
(0.895367 -0.170565 -1.46606e-18)
(0.908002 -0.156999 -1.42764e-18)
(0.919495 -0.144689 7.31681e-19)
(0.929693 -0.133477 1.62806e-18)
(0.939014 -0.123226 1.8713e-18)
(0.947274 -0.113827 -2.05355e-18)
(0.954852 -0.105169 -8.6062e-19)
(0.961539 -0.0971785 -9.46624e-19)
(0.967691 -0.0897586 -1.54193e-18)
(0.973077 -0.0828662 1.11268e-18)
(0.978038 -0.0764111 1.23484e-18)
(0.982327 -0.0703744 4.55197e-18)
(0.986274 -0.0646678 6.62012e-20)
(0.989619 -0.0592928 2.06049e-18)
(0.992687 -0.0541593 1.73254e-18)
(0.995204 -0.049286 -1.10563e-18)
(0.997495 -0.0445777 8.03046e-19)
(0.999272 -0.0400682 -6.0556e-19)
(1.00086 -0.0356525 -2.85932e-19)
(1.00196 -0.0313745 4.83442e-18)
(1.0029 -0.0271061 6.42377e-18)
(1.00335 -0.0228752 -9.2144e-19)
(1.0036 -0.0184654 2.15599e-19)
(1.00322 -0.0137666 -2.40288e-18)
(1.00239 -0.00833221 3.36275e-18)
(1.00066 -0.00224357 -3.07219e-19)
(0.425076 -0.746329 -6.64709e-20)
(0.500692 -0.656994 1.62776e-18)
(0.564891 -0.581949 1.02941e-18)
(0.619387 -0.518207 1.00262e-18)
(0.666376 -0.463662 3.29207e-18)
(0.706735 -0.416533 7.41066e-19)
(0.741961 -0.375596 1.16236e-18)
(0.772504 -0.339765 5.29006e-19)
(0.799452 -0.308293 -2.1963e-18)
(0.823002 -0.280474 -8.21729e-19)
(0.843979 -0.255817 -3.80453e-19)
(0.862425 -0.233838 -2.17231e-19)
(0.878993 -0.214199 -6.31423e-19)
(0.893624 -0.196559 -4.50855e-19)
(0.906858 -0.180673 -4.49062e-19)
(0.918572 -0.166301 3.3542e-18)
(0.929229 -0.153259 -1.65126e-19)
(0.938664 -0.141379 4.92394e-18)
(0.947287 -0.130517 3.65868e-18)
(0.954905 -0.120557 1.57299e-18)
(0.961891 -0.11138 6.10977e-19)
(0.968031 -0.102909 -3.40762e-19)
(0.973673 -0.0950425 -1.47716e-18)
(0.978586 -0.087734 1.95901e-18)
(0.983102 -0.080888 2.27397e-19)
(0.986976 -0.074485 -1.69545e-18)
(0.990531 -0.0684312 3.01835e-18)
(0.993507 -0.062729 -8.42829e-19)
(0.996225 -0.0572828 3.38701e-19)
(0.998411 -0.052114 -1.55125e-18)
(1.00039 -0.0471211 -5.46687e-19)
(1.00186 -0.0423427 -2.47064e-18)
(1.00316 -0.0376668 3.81885e-18)
(1.00399 -0.0331434 3.28632e-18)
(1.00466 -0.0286361 1.87061e-18)
(1.00484 -0.0241783 5.05189e-18)
(1.00482 -0.0195392 -2.80606e-18)
(1.00415 -0.0146024 9.44418e-20)
(1.00298 -0.00888351 -4.70702e-18)
(1.00085 -0.00243841 -5.41811e-18)
(0.475216 -0.78482 4.68799e-19)
(0.544834 -0.690881 1.59489e-18)
(0.603994 -0.61197 7.98966e-19)
(0.65421 -0.544945 1.4807e-18)
(0.697536 -0.48759 2.1354e-18)
(0.734729 -0.438032 1.81057e-18)
(0.767206 -0.394986 7.8387e-19)
(0.795341 -0.357308 -8.25482e-19)
(0.820173 -0.324214 -3.02579e-18)
(0.841851 -0.294959 5.28205e-19)
(0.86117 -0.26903 -9.45497e-19)
(0.878136 -0.245918 -8.01414e-19)
(0.893381 -0.225264 -4.68612e-18)
(0.906822 -0.206712 -2.52551e-18)
(0.918984 -0.190005 -2.15938e-18)
(0.929727 -0.174888 -4.27351e-19)
(0.939502 -0.16117 -1.97355e-19)
(0.948132 -0.148673 -6.24952e-19)
(0.956019 -0.137246 -6.11545e-20)
(0.962961 -0.126767 -2.12053e-18)
(0.969323 -0.11711 2.26843e-18)
(0.974885 -0.108197 5.75713e-19)
(0.979991 -0.0999174 1.45406e-18)
(0.984405 -0.0922245 5.98491e-19)
(0.988454 -0.0850174 -7.72286e-20)
(0.991891 -0.0782761 -7.57177e-19)
(0.995033 -0.0719018 6.25901e-19)
(0.997623 -0.0658979 -1.24127e-18)
(0.999972 -0.0601634 2.50424e-18)
(1.00181 -0.0547225 2.41557e-18)
(1.00345 -0.0494681 1.27282e-18)
(1.00461 -0.0444425 3.99492e-20)
(1.00561 -0.0395279 1.41869e-18)
(1.00615 -0.0347792 -3.19867e-18)
(1.00653 -0.0300528 -2.51058e-20)
(1.00644 -0.0253862 -1.71696e-18)
(1.00613 -0.0205354 -4.8991e-18)
(1.00515 -0.0153777 -2.35183e-18)
(1.00361 -0.00939434 -4.98414e-18)
(1.00104 -0.00261782 -1.41768e-18)
(0.527766 -0.819949 3.17392e-18)
(0.591097 -0.721808 2.10339e-18)
(0.644976 -0.639368 1.58536e-19)
(0.690707 -0.569346 2.03134e-18)
(0.730194 -0.509427 1.40873e-18)
(0.76407 -0.457653 3.37418e-18)
(0.793664 -0.412682 2.4271e-18)
(0.819275 -0.373319 1.40085e-18)
(0.84189 -0.338743 1.58809e-20)
(0.861608 -0.308179 9.08732e-19)
(0.879188 -0.281089 -6.60889e-19)
(0.894602 -0.256941 8.53647e-19)
(0.908461 -0.235361 8.89641e-19)
(0.920656 -0.215977 -5.81572e-19)
(0.931694 -0.198519 -1.84095e-18)
(0.94142 -0.182723 -3.69929e-18)
(0.950271 -0.168388 -3.35771e-18)
(0.958058 -0.155328 -4.01117e-19)
(0.965173 -0.143385 -5.48225e-18)
(0.971406 -0.132431 -1.03365e-18)
(0.977115 -0.122337 2.11727e-18)
(0.982074 -0.113019 -3.41621e-19)
(0.986618 -0.104362 -6.77002e-19)
(0.99051 -0.0963185 -8.42776e-19)
(0.994071 -0.0887816 -5.26677e-19)
(0.997051 -0.0817316 -2.19657e-18)
(0.999763 -0.0750649 1.31096e-18)
(1.00195 -0.0687859 -6.5539e-19)
(1.00391 -0.0627889 1.79064e-18)
(1.00539 -0.0571003 1.79099e-18)
(1.00668 -0.051608 4.49501e-18)
(1.00751 -0.0463578 4.13018e-19)
(1.00819 -0.0412265 -4.88641e-19)
(1.00842 -0.0362733 -5.43586e-18)
(1.00851 -0.0313477 3.68343e-18)
(1.00812 -0.0264908 -6.78191e-18)
(1.0075 -0.0214466 -1.44998e-18)
(1.0062 -0.0160862 7.69082e-19)
(1.00427 -0.00986019 -1.02646e-18)
(1.00124 -0.00278019 2.00468e-18)
(0.582501 -0.851566 2.89287e-18)
(0.639284 -0.749643 2.9395e-18)
(0.687664 -0.664027 -7.99043e-19)
(0.728722 -0.591308 2.59685e-18)
(0.764211 -0.529081 1.48391e-18)
(0.794631 -0.475312 1.26286e-18)
(0.821223 -0.428608 1.04882e-18)
(0.844206 -0.387728 6.13082e-19)
(0.864511 -0.351819 -1.21308e-18)
(0.882187 -0.320077 2.58554e-18)
(0.897955 -0.291941 1.35981e-18)
(0.911755 -0.266861 3.65289e-20)
(0.924169 -0.244448 -2.43878e-18)
(0.935066 -0.224314 -5.3965e-18)
(0.944935 -0.206181 -1.26271e-18)
(0.953601 -0.189773 1.06886e-18)
(0.961489 -0.174882 1.04664e-18)
(0.968399 -0.161315 -1.25327e-18)
(0.974711 -0.148907 -2.23766e-18)
(0.980206 -0.137527 4.78505e-19)
(0.985235 -0.127039 -3.64631e-20)
(0.989566 -0.117356 -2.86948e-18)
(0.993526 -0.108359 -3.31016e-18)
(0.996876 -0.0999994 -3.2654e-18)
(0.999928 -0.0921657 5.64558e-19)
(1.00243 -0.0848379 -2.53071e-18)
(1.0047 -0.0779081 1.74542e-19)
(1.00646 -0.0713818 2.67464e-18)
(1.00803 -0.0651489 4.10855e-18)
(1.00912 -0.0592379 -1.17075e-18)
(1.01006 -0.0535323 3.11885e-18)
(1.01055 -0.0480809 -1.23415e-18)
(1.01089 -0.0427554 3.18683e-18)
(1.0108 -0.0376188 3.25128e-18)
(1.01057 -0.0325147 3.90666e-18)
(1.00988 -0.0274867 -4.5545e-18)
(1.00894 -0.0222683 3.7192e-18)
(1.00729 -0.0167244 -5.90284e-18)
(1.00495 -0.0102791 -4.36084e-18)
(1.00145 -0.00292538 1.67858e-18)
(0.639188 -0.879536 3.43491e-18)
(0.68919 -0.774267 7.67723e-19)
(0.731873 -0.685841 1.94593e-19)
(0.768093 -0.610736 3.86531e-18)
(0.799441 -0.546466 1.37822e-18)
(0.826283 -0.490933 -8.14666e-19)
(0.849765 -0.442696 -1.80893e-18)
(0.870026 -0.400474 5.03725e-19)
(0.88794 -0.363386 1.39125e-18)
(0.9035 -0.3306 3.9283e-19)
(0.917393 -0.30154 2.16414e-18)
(0.92952 -0.275635 6.15541e-21)
(0.940438 -0.252484 8.59505e-19)
(0.949991 -0.231688 1.12925e-18)
(0.958648 -0.212957 3.37797e-18)
(0.966217 -0.196008 1.08141e-18)
(0.973109 -0.180625 8.66073e-19)
(0.97911 -0.166608 1.36755e-19)
(0.984591 -0.153789 1.10794e-18)
(0.989323 -0.142031 -2.27134e-18)
(0.993648 -0.131194 -2.87655e-19)
(0.997329 -0.121188 -9.64605e-19)
(1.00069 -0.111891 -3.65448e-19)
(1.00347 -0.103251 -3.73001e-18)
(1.006 -0.095155 1.08352e-18)
(1.00802 -0.0875813 -2.2162e-18)
(1.00982 -0.0804189 -1.78101e-18)
(1.01115 -0.073674 6.43737e-19)
(1.0123 -0.0672329 1.19497e-18)
(1.013 -0.0611256 -3.90173e-19)
(1.01356 -0.0552318 -2.33245e-18)
(1.01369 -0.049603 9.90826e-19)
(1.01369 -0.0441064 -2.50423e-18)
(1.01328 -0.0388082 -1.11782e-18)
(1.01272 -0.0335467 3.98701e-18)
(1.0117 -0.0283673 5.90882e-18)
(1.01043 -0.0229947 6.03196e-18)
(1.00842 -0.0172879 1.37767e-18)
(1.00567 -0.0106482 -3.37609e-18)
(1.00167 -0.0030526 -1.30779e-19)
(0.697583 -0.90374 3.12562e-18)
(0.7406 -0.795574 1.33186e-18)
(0.777415 -0.704717 1.54566e-18)
(0.808652 -0.627547 1.66721e-18)
(0.835734 -0.56151 -1.86282e-18)
(0.858889 -0.50445 -1.77475e-18)
(0.879169 -0.454886 1.64975e-19)
(0.896625 -0.411502 9.5305e-19)
(0.912075 -0.373394 2.82788e-19)
(0.925456 -0.339706 1.67093e-18)
(0.937417 -0.309845 2.11872e-18)
(0.947821 -0.283226 -1.542e-18)
(0.957199 -0.259437 1.43337e-18)
(0.965367 -0.238067 3.74766e-19)
(0.972776 -0.218818 -1.49669e-18)
(0.979215 -0.2014 -9.45892e-21)
(0.985081 -0.185591 1.2804e-18)
(0.990147 -0.171186 4.7872e-19)
(0.994771 -0.158011 1.717e-18)
(0.998718 -0.145926 -3.15727e-18)
(1.00232 -0.134786 1.2675e-18)
(1.00533 -0.124501 -1.13861e-19)
(1.00806 -0.114943 -3.22799e-19)
(1.01028 -0.106061 1.02859e-18)
(1.01226 -0.0977375 2.47341e-18)
(1.01377 -0.0899511 1.34879e-18)
(1.0151 -0.0825875 2.96276e-19)
(1.01598 -0.0756536 4.0074e-19)
(1.0167 -0.0690325 9.85927e-19)
(1.01701 -0.0627559 1.64447e-18)
(1.01718 -0.0566998 -1.03186e-18)
(1.01695 -0.050918 -2.79003e-18)
(1.01659 -0.045274 -1.03994e-18)
(1.01583 -0.0398365 2.75268e-18)
(1.01493 -0.0344391 -7.0196e-18)
(1.01358 -0.0291289 -7.47082e-18)
(1.01196 -0.0236229 4.074e-18)
(1.00959 -0.017775 -2.39913e-18)
(1.0064 -0.0109669 -8.3094e-19)
(1.00189 -0.0031623 2.39107e-19)
(0.757437 -0.924072 2.58996e-18)
(0.793293 -0.813474 2.2722e-18)
(0.824095 -0.720573 6.12685e-19)
(0.850223 -0.641668 1.47637e-18)
(0.872933 -0.574147 1.43457e-18)
(0.892309 -0.515804 -4.57003e-19)
(0.909306 -0.465125 -5.77856e-19)
(0.923889 -0.420765 5.45509e-19)
(0.936813 -0.3818 1.37551e-18)
(0.947961 -0.347353 2.01677e-18)
(0.957942 -0.31682 1.39299e-18)
(0.96658 -0.289601 2.67882e-18)
(0.974379 -0.265276 1.38807e-18)
(0.981128 -0.243423 -2.82191e-18)
(0.987258 -0.22374 -2.63541e-18)
(0.992539 -0.205928 -1.30114e-18)
(0.997353 -0.189761 -3.17316e-18)
(1.00146 -0.175029 -5.16099e-19)
(1.00521 -0.161554 1.10339e-18)
(1.00835 -0.149193 1.35309e-18)
(1.01121 -0.137799 9.62238e-19)
(1.01353 -0.127279 -1.52635e-20)
(1.01563 -0.117503 -1.84668e-18)
(1.01725 -0.108417 -6.58204e-19)
(1.01869 -0.0999017 -3.45079e-20)
(1.01968 -0.0919365 -1.10204e-18)
(1.02051 -0.0844039 1.53329e-18)
(1.02094 -0.0773114 -5.15647e-19)
(1.02122 -0.0705393 7.65229e-19)
(1.02112 -0.0641207 -5.84558e-18)
(1.02089 -0.0579287 -7.58214e-19)
(1.02028 -0.0520188 1.90854e-18)
(1.01956 -0.0462516 -3.41712e-18)
(1.01845 -0.0406974 -3.064e-18)
(1.0172 -0.0351863 -4.08473e-18)
(1.01551 -0.0297666 -1.67488e-19)
(1.01354 -0.0241487 -2.15931e-18)
(1.01078 -0.0181824 -2.8476e-18)
(1.00714 -0.0112334 1.87426e-18)
(1.00212 -0.00325397 2.61517e-18)
(0.818494 -0.940448 -9.60227e-20)
(0.847046 -0.827889 -9.58284e-19)
(0.871713 -0.733343 -2.60762e-19)
(0.89263 -0.65304 1.60036e-18)
(0.91088 -0.584323 -5.94854e-19)
(0.926402 -0.524947 2.37041e-19)
(0.94005 -0.47337 -1.98194e-18)
(0.951701 -0.428224 -1.34674e-18)
(0.962048 -0.388568 1.13613e-18)
(0.970918 -0.353511 3.25185e-18)
(0.978879 -0.322436 2.88517e-18)
(0.985716 -0.294734 -3.14694e-19)
(0.991905 -0.269976 -2.87774e-18)
(0.997206 -0.247735 -2.91914e-18)
(1.00203 -0.227701 -1.96288e-18)
(1.00613 -0.209572 2.38081e-18)
(1.00987 -0.193116 1.11027e-18)
(1.013 -0.17812 -1.09081e-18)
(1.01586 -0.164404 1.58067e-18)
(1.01818 -0.151821 9.82708e-19)
(1.02028 -0.140222 1.52152e-18)
(1.02191 -0.129512 1.07996e-18)
(1.02336 -0.119559 -6.61405e-18)
(1.02437 -0.110309 -2.31963e-18)
(1.02524 -0.101639 5.65041e-18)
(1.02571 -0.0935301 -9.31774e-19)
(1.02605 -0.0858612 1.3528e-18)
(1.026 -0.078641 1.78471e-18)
(1.02584 -0.0717475 -3.78374e-18)
(1.02532 -0.0652147 -1.64117e-18)
(1.02469 -0.0589137 8.62052e-19)
(1.02369 -0.0529011 4.1424e-18)
(1.02259 -0.0470351 1.47349e-18)
(1.02112 -0.0413876 5.47164e-18)
(1.01952 -0.0357856 5.62563e-18)
(1.01748 -0.0302781 1.73755e-18)
(1.01514 -0.0245708 2.79664e-18)
(1.012 -0.0185097 1.27426e-18)
(1.0079 -0.0114479 -4.21807e-18)
(1.00235 -0.00332829 1.68239e-18)
(0.880491 -0.952796 -2.85984e-19)
(0.901627 -0.838758 -8.95699e-19)
(0.920065 -0.742971 -4.36391e-20)
(0.93569 -0.661614 3.52274e-20)
(0.949411 -0.591995 -2.18816e-18)
(0.96102 -0.531839 -8.6585e-19)
(0.971268 -0.479585 -2.73249e-19)
(0.979941 -0.433847 -1.36506e-18)
(0.987673 -0.393669 -5.44512e-19)
(0.99423 -0.358151 5.84651e-20)
(1.00014 -0.326668 1.99136e-19)
(1.00515 -0.298601 -3.64056e-18)
(1.0097 -0.273518 -3.11427e-18)
(1.01353 -0.250983 2.0103e-18)
(1.01703 -0.230684 -8.64044e-19)
(1.01994 -0.212315 9.67662e-19)
(1.02259 -0.195641 5.6485e-19)
(1.02473 -0.180446 8.07961e-19)
(1.02667 -0.166548 4.80299e-18)
(1.02816 -0.153797 2.41207e-19)
(1.02949 -0.142043 3.63886e-18)
(1.03041 -0.131189 3.16583e-18)
(1.0312 -0.121103 -4.49417e-18)
(1.03161 -0.111728 -3.09552e-18)
(1.0319 -0.102942 8.86354e-19)
(1.03183 -0.094724 -2.61647e-18)
(1.03167 -0.0869523 3.12649e-18)
(1.03115 -0.0796358 5.43321e-18)