/*--------------------------------*- C++ -*----------------------------------*\
| =========                 |                                                 |
| \\      /  F ield         | foam-extend: Open Source CFD                    |
|  \\    /   O peration     | Version:  3.0                                   |
|   \\  /    A nd           | Web:         http://www.extend-project.de       |
|    \\/     M anipulation  |                                                 |
\*---------------------------------------------------------------------------*/
FoamFile
{
    version     2.0;
    format      ascii;
    class       volVectorField;
    location    "25";
    object      s;
}
// * * * * * * * * * * * * * * * * * * * * * * * * * * * * * * * * * * * * * //

dimensions      [0 1 -1 0 0 0 0];

internalField   nonuniform List<vector> 
3012
(
(-2.25018 0.120291 0)
(-1.85141 -0.25581 0)
(-2.60286 0.16016 0)
(-1.75029 0.116894 0)
(-3.13255 0.344401 0)
(-2.19303 0.216336 0)
(-3.04229 -0.321239 0)
(-2.88404 0.0966536 0)
(-2.019 0.227222 0)
(-2.22838 -0.403467 0)
(-1.91064 -0.0833566 0)
(-2.24099 0.445161 0)
(-1.29125 -0.140326 0)
(-2.01758 0.0742865 0)
(-2.26803 0.0625521 0)
(-1.23071 0.107195 0)
(-3.11799 0.29737 0)
(-2.21199 0.266062 0)
(-2.96947 -0.348566 0)
(-2.89464 0.0910542 0)
(-1.27587 0.416095 0)
(-1.68518 -0.224818 0)
(-1.89704 -0.356098 0)
(-1.22868 0.295381 0)
(-2.68948 0.0268545 0)
(-1.98458 -0.148142 0)
(-1.9472 0.256383 0)
(-2.27973 0.0430388 0)
(-1.88622 0.327036 0)
(-2.07934 0.410258 0)
(-1.38446 -0.174601 0)
(-1.56483 -0.448089 0)
(-1.32167 -0.153521 0)
(-2.09868 0.370049 0)
(-1.90141 0.303135 0)
(-1.48166 -0.420467 0)
(-2.10692 -0.197825 0)
(-2.74015 0.0462023 0)
(-2.29983 0.0461272 0)
(-2.05817 0.238941 0)
(-1.17987 -0.123721 0)
(-2.17807 0.0581349 0)
(-1.11915 0.101792 0)
(-1.94934 0.0702241 0)
(-1.30402 -0.113077 0)
(-1.44675 -0.380102 0)
(-1.94125 0.271432 0)
(-2.15237 0.32621 0)
(-1.28734 -0.377846 0)
(-2.02899 0.324662 0)
(-1.84544 0.284649 0)
(-1.15856 -0.139859 0)
(-2.23567 0.118107 0)
(-1.78388 -0.240446 0)
(-1.68739 0.119399 0)
(-2.5762 0.149622 0)
(-2.7316 -0.33193 0)
(-2.2853 0.44245 0)
(-3.07404 0.228639 0)
(-2.90713 0.0820716 0)
(-2.71893 -0.361222 0)
(-2.2641 0.357328 0)
(-3.01751 0.253522 0)
(-2.93027 0.0393792 0)
(-1.31751 -0.0911393 0)
(-2.0339 0.0290529 0)
(-2.29607 0.000445201 0)
(-1.27281 0.154039 0)
(-2.14404 -0.152381 0)
(-1.19307 0.264516 0)
(-1.20769 0.0812542 0)
(-1.90885 -0.0872561 0)
(-1.79315 0.460634 0)
(-1.58422 -0.497392 0)
(-1.37817 -0.247652 0)
(-1.6526 0.366467 0)
(-1.70539 0.35052 0)
(-1.85575 0.42109 0)
(-1.43056 -0.478491 0)
(-1.25338 -0.236874 0)
(-1.40645 -0.0869336 0)
(-2.08242 0.0219877 0)
(-1.36675 0.176506 0)
(-2.36529 -0.0109176 0)
(-2.12286 -0.0419422 0)
(-1.10022 0.184525 0)
(-1.14024 -0.0102672 0)
(-1.89948 -0.00737632 0)
(-1.22567 -0.189587 0)
(-2.00286 0.382454 0)
(-1.82575 0.323462 0)
(-1.37998 -0.438046 0)
(-2.28079 -0.398545 0)
(-2.02242 0.216193 0)
(-1.94692 -0.0790197 0)
(-2.24408 0.449903 0)
(-2.22615 0.00951238 0)
(-2.30995 0.355526 0)
(-2.15908 -0.0394 0)
(-2.70068 -0.198515 0)
(-2.11947 -0.168674 0)
(-1.17269 0.273549 0)
(-1.18567 0.0975446 0)
(-1.88935 -0.100902 0)
(-1.75435 0.466691 0)
(-1.36727 -0.255387 0)
(-1.57532 -0.502373 0)
(-1.61986 0.372785 0)
(-1.81572 -0.401278 0)
(-1.25417 0.319969 0)
(-1.61409 -0.252832 0)
(-1.31731 0.433656 0)
(-1.97237 0.218968 0)
(-2.19622 0.252959 0)
(-1.36765 -0.319499 0)
(-1.25306 -0.0563473 0)
(-1.53392 -0.503586 0)
(-1.34363 -0.28189 0)
(-1.52164 0.50046 0)
(-1.41377 0.397893 0)
(-1.77083 -0.182716 0)
(-1.09226 0.205828 0)
(-1.09187 0.312939 0)
(-1.96747 -0.268147 0)
(-2.50371 -0.213086 0)
(-2.33541 0.000136759 0)
(-2.80491 0.143057 0)
(-2.31254 0.311418 0)
(-3.06875 0.0379701 0)
(-2.68564 0.670734 0)
(-3.00099 0.0558172 0)
(-2.44008 -0.308427 0)
(-2.57873 -0.217993 0)
(-2.32528 0.00222833 0)
(-2.41829 0.346723 0)
(-2.84846 0.117621 0)
(-3.075 0.0650078 0)
(-3.05059 0.0850535 0)
(-2.61276 0.682037 0)
(-2.49325 -0.364593 0)
(-2.68312 0.064834 0)
(-1.87295 0.222228 0)
(-2.27741 0.0599586 0)
(-1.93272 -0.179094 0)
(-3.00896 0.183454 0)
(-2.43163 0.488602 0)
(-2.5533 -0.315842 0)
(-2.96124 -0.0120716 0)
(-2.94318 0.207629 0)
(-2.38511 0.480949 0)
(-2.47289 -0.233026 0)
(-2.86325 -0.0548349 0)
(-1.07681 -0.0939843 0)
(-1.83653 0.239906 0)
(-1.17943 -0.31812 0)
(-2.02807 0.266051 0)
(-1.3291 -0.394335 0)
(-2.04211 0.344786 0)
(-1.85595 0.297453 0)
(-1.19115 -0.149692 0)
(-1.75918 -0.426753 0)
(-1.56194 -0.263451 0)
(-1.36467 0.453716 0)
(-1.29021 0.342193 0)
(-2.31625 0.0479567 0)
(-2.38069 -0.201017 0)
(-2.8188 0.0255144 0)
(-2.36566 0.289031 0)
(-1.33395 -0.170657 0)
(-2.07377 0.390734 0)
(-1.88206 0.318101 0)
(-1.50284 -0.438407 0)
(-2.88236 0.291517 0)
(-2.80615 -0.0934474 0)
(-2.48855 -0.200271 0)
(-2.2546 0.344484 0)
(-2.42477 -0.0791221 0)
(-2.84945 0.272372 0)
(-2.34263 0.318108 0)
(-2.7425 -0.17546 0)
(-2.30325 0.0509973 0)
(-2.40395 -0.234189 0)
(-2.82928 0.0461743 0)
(-2.36621 0.293853 0)
(-1.62059 0.450332 0)
(-1.86147 -0.20295 0)
(-1.53357 0.263358 0)
(-2.14222 -0.383015 0)
(-1.58613 0.297252 0)
(-2.06947 -0.428007 0)
(-1.6956 0.470389 0)
(-1.7987 -0.220816 0)
(-1.79779 -0.415095 0)
(-1.59525 -0.257326 0)
(-1.35466 0.451142 0)
(-1.28402 0.336035 0)
(-1.66799 -0.445224 0)
(-2.14308 0.410605 0)
(-1.93535 0.314541 0)
(-1.47744 -0.155794 0)
(-1.30714 -0.0649033 0)
(-2.01933 0.013225 0)
(-1.2677 0.171679 0)
(-2.27794 -0.0210697 0)
(-1.31931 -0.162195 0)
(-2.28216 0.0853826 0)
(-2.02919 0.0905008 0)
(-1.25192 0.0915648 0)
(-1.11252 -0.260248 0)
(-2.01882 0.204687 0)
(-1.03253 -0.0438379 0)
(-1.8248 0.188471 0)
(-1.10995 0.220108 0)
(-1.77191 -0.181281 0)
(-1.97708 -0.270157 0)
(-1.11209 0.340657 0)
(-2.36123 -0.0396639 0)
(-1.3754 0.200043 0)
(-1.40641 -0.0564505 0)
(-2.07636 0.00242467 0)
(-1.56482 -0.517473 0)
(-1.41898 0.394595 0)
(-1.37228 -0.294893 0)
(-1.52685 0.498097 0)
(-1.38829 -0.185129 0)
(-1.85657 0.331397 0)
(-1.57196 -0.45489 0)
(-2.04063 0.416936 0)
(-1.15977 0.213417 0)
(-1.77751 -0.173182 0)
(-1.17118 0.340541 0)
(-1.98707 -0.268858 0)
(-1.41436 -0.276156 0)
(-1.55225 0.480788 0)
(-1.44339 0.377095 0)
(-1.61019 -0.496763 0)
(-2.10959 0.42457 0)
(-1.69167 -0.454844 0)
(-1.49235 -0.167827 0)
(-1.90986 0.322962 0)
(-1.28061 0.410449 0)
(-1.7159 -0.215127 0)
(-1.93236 -0.344633 0)
(-1.23624 0.283317 0)
(-1.261 0.311715 0)
(-1.86704 -0.382635 0)
(-1.31986 0.432392 0)
(-1.65694 -0.238899 0)
(-1.66336 0.454966 0)
(-1.86838 -0.200173 0)
(-1.56918 0.264512 0)
(-2.15312 -0.388428 0)
(-1.60016 0.282129 0)
(-1.70803 0.464789 0)
(-2.11646 -0.416884 0)
(-1.83616 -0.212244 0)
(-2.56231 -0.298086 0)
(-2.00738 0.10021 0)
(-2.13404 -0.0586933 0)
(-2.16771 0.435592 0)
(-1.1563 -0.205764 0)
(-1.75653 0.331352 0)
(-1.30353 -0.43875 0)
(-1.91392 0.383615 0)
(-1.10208 -0.107577 0)
(-2.09483 0.056237 0)
(-1.04434 0.099177 0)
(-1.88466 0.0673826 0)
(-1.75987 0.459909 0)
(-1.6458 0.265283 0)
(-1.86695 -0.198909 0)
(-2.16088 -0.408698 0)
(-1.21755 -0.125091 0)
(-2.19325 0.0602886 0)
(-1.15592 0.103109 0)
(-1.96078 0.0722555 0)
(-1.28552 -0.113547 0)
(-2.01558 0.0536953 0)
(-2.26826 0.0359555 0)
(-1.2306 0.128304 0)
(-2.2745 0.0775544 0)
(-1.90172 -0.239226 0)
(-1.82406 0.158755 0)
(-2.65775 0.0968362 0)
(-1.06312 -0.0790242 0)
(-2.02993 0.249297 0)
(-1.83561 0.224973 0)
(-1.15886 -0.300209 0)
(-2.76503 -0.194663 0)
(-2.28979 0.00512776 0)
(-2.69429 0.395133 0)
(-2.86763 0.0382973 0)
(-2.89798 -0.229221 0)
(-2.86495 0.392619 0)
(-2.27579 0.0474499 0)
(-2.89675 0.0452323 0)
(-1.26983 -0.114685 0)
(-1.93343 0.269359 0)
(-1.40739 -0.378077 0)
(-2.14222 0.319622 0)
(-1.809 0.47036 0)
(-1.68653 0.274156 0)
(-1.86373 -0.1944 0)
(-2.16025 -0.41372 0)
(-1.357 -0.333748 0)
(-1.94848 0.239057 0)
(-2.16484 0.278044 0)
(-1.23631 -0.0755091 0)
(-2.26713 0.0762145 0)
(-1.90849 -0.207929 0)
(-1.83386 0.181069 0)
(-2.65165 0.0967633 0)
(-2.56509 -0.274015 0)
(-1.9727 0.0768984 0)
(-2.1406 -0.0680176 0)
(-2.10462 0.407226 0)
(-1.89605 -0.466034 0)
(-1.64672 0.484572 0)
(-1.53458 0.342593 0)
(-1.65719 -0.25117 0)
(-1.14207 -0.0412876 0)
(-2.13668 -0.0160227 0)
(-1.91222 0.0125422 0)
(-1.09737 0.160971 0)
(-1.38876 0.25045 0)
(-1.84009 -0.198069 0)
(-1.44618 0.41946 0)
(-2.0958 -0.34426 0)
(-2.22534 -0.0308458 0)
(-2.17518 0.352759 0)
(-2.05413 -0.0197399 0)
(-2.68121 -0.213691 0)
(-2.14771 -0.0689305 0)
(-1.17017 0.000877004 0)
(-1.13506 0.199469 0)
(-1.91719 -0.0274632 0)
(-1.86406 0.434823 0)
(-1.71244 0.35718 0)
(-1.47952 -0.478821 0)
(-1.29305 -0.234518 0)
(-1.89201 0.415903 0)
(-1.73656 0.348159 0)
(-1.40987 -0.4695 0)
(-1.23797 -0.227037 0)
(-1.27416 -0.258829 0)
(-1.7602 0.446416 0)
(-1.62435 0.368185 0)
(-1.4667 -0.498545 0)
(-1.11933 0.0556454 0)
(-2.08602 -0.110917 0)
(-1.09166 0.23362 0)
(-1.86635 -0.0613556 0)
(-1.10327 -0.237489 0)
(-2.02757 0.188932 0)
(-1.02168 -0.0179798 0)
(-1.83312 0.172662 0)
(-1.06056 -0.129697 0)
(-1.79303 0.265407 0)
(-1.9697 0.293359 0)
(-1.16909 -0.347038 0)
(-1.30112 -0.251447 0)
(-1.77021 0.447397 0)
(-1.4968 -0.492973 0)
(-1.63379 0.365834 0)
(-1.14557 0.0580685 0)
(-2.09866 -0.120408 0)
(-1.87604 -0.0673927 0)
(-1.12058 0.237022 0)
(-1.8632 0.318484 0)
(-1.90512 -0.464679 0)
(-1.66112 -0.179787 0)
(-2.0478 0.461447 0)
(-1.92264 0.311881 0)
(-1.90038 -0.462059 0)
(-2.12441 0.450236 0)
(-1.6629 -0.163627 0)
(-2.19581 -0.295235 0)
(-1.46189 0.387568 0)
(-1.92219 -0.164901 0)
(-1.41661 0.193967 0)
(-1.65213 -0.235079 0)
(-1.64069 0.343745 0)
(-1.77497 0.489079 0)
(-1.89888 -0.475209 0)
(-1.32521 -0.0999002 0)
(-1.96701 0.258281 0)
(-2.18643 0.312208 0)
(-1.4651 -0.372745 0)
(-1.86163 0.468244 0)
(-1.94812 -0.168064 0)
(-1.73802 0.242954 0)
(-2.27163 -0.384506 0)
(-1.90719 0.453071 0)
(-1.98523 -0.147308 0)
(-1.77928 0.210816 0)
(-2.3271 -0.36789 0)
(-1.67921 -0.245372 0)
(-1.44988 0.453551 0)
(-1.37164 0.318962 0)
(-1.90442 -0.416038 0)
(-1.53399 0.310245 0)
(-1.51817 0.0593261 0)
(-2.0712 -0.076315 0)
(-2.37991 -0.16648 0)
(-1.32156 -0.214129 0)
(-2.0107 0.131717 0)
(-1.23895 0.0427943 0)
(-2.25393 0.139641 0)
(-2.3267 -0.331887 0)
(-2.30718 0.0884072 0)
(-2.69202 0.25823 0)
(-2.09296 0.120761 0)
(-1.54707 0.292759 0)
(-2.10906 -0.0506487 0)
(-1.54329 0.0264311 0)
(-2.42586 -0.126519 0)
(-2.58711 0.436547 0)
(-2.87689 0.114116 0)
(-2.36481 -0.114723 0)
(-2.8498 -0.144188 0)
(-1.42607 -0.262709 0)
(-1.57027 0.377421 0)
(-1.63575 -0.507749 0)
(-1.69729 0.482384 0)
(-1.23006 -0.430887 0)
(-1.74382 0.340257 0)
(-1.092 -0.203904 0)
(-1.89229 0.385874 0)
(-1.85673 0.0813693 0)
(-2.06061 0.0754794 0)
(-0.988357 0.067401 0)
(-1.04547 -0.13558 0)
(-1.86979 -0.136944 0)
(-1.20775 0.151083 0)
(-1.20925 0.315186 0)
(-2.10106 -0.222372 0)
(-2.08131 -0.119346 0)
(-1.76239 0.384834 0)
(-2.4366 -0.267791 0)
(-1.69069 0.11388 0)
(-2.10926 -0.0995432 0)
(-1.75627 0.372893 0)
(-2.46856 -0.237611 0)
(-1.69361 0.0908485 0)
(-1.53247 -0.49999 0)
(-1.32295 -0.275149 0)
(-1.56017 0.486217 0)
(-1.4499 0.393571 0)
(-2.54246 -0.222273 0)
(-1.87286 0.370593 0)
(-2.15725 -0.0794548 0)
(-1.79925 0.059486 0)
(-1.09559 0.299664 0)
(-1.09196 0.174774 0)
(-1.78318 -0.166323 0)
(-1.98385 -0.24741 0)
(-2.271 0.903768 0)
(-3.12671 -0.912461 0)
(-3.70854 -0.0138382 0)
(-3.1101 0.420051 0)
(-2.18152 -0.284688 0)
(-1.41572 0.381879 0)
(-1.37833 0.193476 0)
(-1.91332 -0.161918 0)
(-1.97899 0.28264 0)
(-1.05291 -0.111006 0)
(-1.15735 -0.326427 0)
(-1.79751 0.255499 0)
(-2.2306 0.185865 0)
(-2.7416 0.265567 0)
(-2.33354 0.0174934 0)
(-2.54057 -0.297139 0)
(-1.79591 0.351679 0)
(-2.52321 -0.204739 0)
(-2.14813 -0.0788851 0)
(-1.74116 0.0514665 0)
(-1.49686 0.467225 0)
(-1.673 -0.251181 0)
(-1.4094 0.330381 0)
(-1.90242 -0.433618 0)
(-1.61605 -0.247157 0)
(-1.62428 0.351888 0)
(-1.75752 0.488467 0)
(-1.85343 -0.486404 0)
(-1.36771 -0.104406 0)
(-2.05836 0.040874 0)
(-1.32042 0.151676 0)
(-2.3286 0.015529 0)
(-2.26041 0.571795 0)
(-3.02492 -0.473393 0)
(-3.36147 0.201509 0)
(-2.9704 0.242865 0)
(-1.86059 -0.47377 0)
(-1.66313 0.489198 0)
(-1.54639 0.351896 0)
(-1.62612 -0.252834 0)
(-1.3621 0.233676 0)
(-1.84992 -0.193062 0)
(-1.41288 0.402634 0)
(-2.10375 -0.329769 0)
(-1.54706 -0.0616499 0)
(-2.34511 0.319843 0)
(-1.70703 -0.384065 0)
(-2.08468 0.241567 0)
(-1.25866 -0.17596 0)
(-2.0223 0.37439 0)
(-1.84125 0.313945 0)
(-1.415 -0.428419 0)
(-2.24094 0.0954043 0)
(-2.8275 0.386844 0)
(-2.79743 -0.216534 0)
(-2.86207 0.0312976 0)
(-1.19718 0.292615 0)
(-1.87947 -0.345358 0)
(-1.23884 0.408769 0)
(-1.67294 -0.220434 0)
(-2.34866 0.341427 0)
(-1.58197 -0.0702658 0)
(-1.75579 -0.398331 0)
(-2.08703 0.251637 0)
(-1.33455 0.360261 0)
(-1.69334 -0.469159 0)
(-1.50073 -0.284995 0)
(-1.42367 0.46763 0)
(-1.34941 0.356917 0)
(-1.72701 -0.462373 0)
(-1.52793 -0.277661 0)
(-1.43867 0.468837 0)
(-2.31982 0.197216 0)
(-1.3457 0.00949958 0)
(-2.06232 0.170834 0)
(-1.44688 -0.275559 0)
(-3.34177 0.0200572 0)
(-3.073 0.72574 0)
(-2.30054 -0.266228 0)
(-2.9479 -0.0292632 0)
(-1.80514 0.491475 0)
(-1.78746 -0.491785 0)
(-1.66277 0.364314 0)
(-1.55687 -0.240841 0)
(-2.24765 0.317162 0)
(-1.39485 -0.0846155 0)
(-1.54155 -0.375518 0)
(-2.01348 0.25585 0)
(-1.37221 0.000956008 0)
(-1.48197 -0.288441 0)
(-2.07116 0.182552 0)
(-2.32973 0.216738 0)
(-1.10032 -0.0957172 0)
(-1.84305 0.245316 0)
(-2.03482 0.273562 0)
(-1.20693 -0.322258 0)
(-1.84942 0.485042 0)
(-1.79795 -0.488777 0)
(-1.56676 -0.232385 0)
(-1.70056 0.357356 0)
(-1.34243 0.145072 0)
(-1.36333 0.339765 0)
(-1.94221 -0.139309 0)
(-2.20608 -0.243221 0)
(-1.36669 0.12624 0)
(-1.38418 0.330287 0)
(-1.96538 -0.125305 0)
(-2.23632 -0.225075 0)
(-1.42042 0.0145189 0)
(-2.09357 0.177017 0)
(-1.53208 -0.284857 0)
(-2.36116 0.214447 0)
(-1.60049 -0.506159 0)
(-1.57474 0.377836 0)
(-1.39121 -0.260443 0)
(-1.7019 0.477318 0)
(-2.25619 0.31992 0)
(-1.57971 -0.382867 0)
(-1.42878 -0.088235 0)
(-2.02022 0.254832 0)
(-1.30187 -0.187628 0)
(-2.00523 0.117324 0)
(-1.22509 0.063763 0)
(-2.24781 0.120059 0)
(-1.86815 -0.127567 0)
(-1.18586 0.13352 0)
(-1.18077 0.297167 0)
(-2.09517 -0.205364 0)
(-2.033 -0.339575 0)
(-3.83752 -0.130158 0)
(-3.63334 0.674497 0)
(-2.80943 -0.179122 0)
(-1.43873 0.0384987 0)
(-1.54249 -0.266273 0)
(-2.11804 0.159737 0)
(-2.39644 0.190364 0)
(-2.24068 0.368922 0)
(-1.69371 -0.424918 0)
(-2.00808 0.279926 0)
(-1.51475 -0.119093 0)
(-1.85815 -0.119435 0)
(-2.1906 0.461049 0)
(-1.97652 0.262868 0)
(-2.15605 -0.433234 0)
(-3.17174 -0.0868927 0)
(-2.94012 0.578567 0)
(-2.3128 -0.16914 0)
(-2.92425 0.0269355 0)
(-2.3235 0.0787644 0)
(-2.56955 -0.194098 0)
(-2.88456 -0.00555279 0)
(-2.61921 0.339662 0)
(-2.06077 0.264368 0)
(-1.84552 -0.423077 0)
(-2.31401 0.375347 0)
(-1.64634 -0.0902938 0)
(-1.33524 -0.134584 0)
(-2.13409 0.357913 0)
(-1.49218 -0.406416 0)
(-1.92897 0.292693 0)
(-2.2343 0.164959 0)
(-2.07617 -0.356283 0)
(-1.88058 0.0402431 0)
(-2.56619 0.289284 0)
(-1.15602 -0.277684 0)
(-1.85021 0.207925 0)
(-1.06362 -0.0554299 0)
(-2.04915 0.229543 0)
(-1.23207 -0.413312 0)
(-1.76149 0.334561 0)
(-1.91841 0.380916 0)
(-1.0965 -0.187434 0)
(-2.22182 0.168431 0)
(-2.1193 -0.371956 0)
(-2.5564 0.309489 0)
(-1.90559 0.0356129 0)
(-1.1704 -0.266868 0)
(-2.06716 0.214617 0)
(-1.86608 0.194878 0)
(-1.07985 -0.0405827 0)
(-1.86231 0.0941843 0)
(-1.00182 0.0518996 0)
(-2.06662 0.0914865 0)
(-1.06349 -0.158626 0)
(-2.24367 0.362634 0)
(-1.48783 -0.105606 0)
(-1.66027 -0.407221 0)
(-2.0111 0.278673 0)
(-2.6219 0.319894 0)
(-2.83607 -0.115068 0)
(-2.27507 0.124324 0)
(-2.42435 -0.170026 0)
(-2.04338 0.275672 0)
(-1.79934 -0.42674 0)
(-1.60505 -0.101931 0)
(-2.28883 0.38116 0)
(-2.1758 0.344374 0)
(-2.28011 0.0160589 0)
(-2.13834 -0.0986217 0)
(-2.75949 -0.0679681 0)
(-2.20283 0.509238 0)
(-2.68101 -0.339335 0)
(-3.08106 0.277397 0)
(-2.86757 0.0844697 0)
(-2.74966 0.233117 0)
(-2.20802 0.230208 0)
(-2.48282 -0.263938 0)
(-2.32929 0.015863 0)
(-2.34898 0.32247 0)
(-2.35989 -0.0130914 0)
(-2.82772 0.179901 0)
(-2.59066 -0.212707 0)
(-2.11798 -0.120535 0)
(-2.13143 0.312683 0)
(-2.74309 -0.033979 0)
(-2.28248 0.0257411 0)
(-1.1382 -0.178065 0)
(-1.79907 0.318459 0)
(-1.27589 -0.41175 0)
(-1.96805 0.364223 0)
(-1.15864 -0.189795 0)
(-1.96376 0.37357 0)
(-1.79581 0.323269 0)
(-1.3021 -0.427126 0)
(-3.2269 -0.7883 0)
(-2.13569 0.938624 0)
(-3.70005 0.0328527 0)
(-2.96825 0.498923 0)
(-1.92336 0.306822 0)
(-2.12754 0.389779 0)
(-1.42386 -0.155206 0)
(-1.60139 -0.437908 0)
(-2.39635 0.29065 0)
(-2.1222 0.220012 0)
(-1.70785 -0.360576 0)
(-1.55862 -0.0344996 0)
(-1.14736 0.308893 0)
(-1.14785 0.166173 0)
(-1.82029 -0.150983 0)
(-2.03334 -0.233724 0)
(-2.0284 -0.256358 0)
(-1.17263 0.330067 0)
(-1.81238 -0.164674 0)
(-1.16547 0.190469 0)
(-1.61455 0.480515 0)
(-1.57978 -0.506648 0)
(-1.4996 0.382471 0)
(-1.37166 -0.26543 0)
(-3.78342 0.136866 0)
(-2.0452 -0.396315 0)
(-3.52032 0.967032 0)
(-2.82499 -0.178078 0)
(-1.2709 -0.388651 0)
(-2.00274 0.342547 0)
(-1.82477 0.301245 0)
(-1.13951 -0.154282 0)
(-1.59759 0.489118 0)
(-1.48412 0.38468 0)
(-1.40945 -0.271421 0)
(-1.61176 -0.506708 0)
(-1.98677 0.221002 0)
(-1.01755 -0.0628342 0)
(-1.10475 -0.270838 0)
(-1.79444 0.201058 0)
(-1.59514 0.479569 0)
(-1.5499 -0.503764 0)
(-1.48351 0.385557 0)
(-1.33709 -0.264583 0)
(-1.11589 0.295755 0)
(-1.80606 -0.155029 0)
(-1.11992 0.15998 0)
(-2.01231 -0.233585 0)
(-1.29728 0.311474 0)
(-1.89054 -0.392545 0)
(-1.36155 0.438508 0)
(-1.67421 -0.240619 0)
(-2.28442 0.0385851 0)
(-2.37669 -0.143334 0)
(-2.82152 -0.0184855 0)
(-2.39337 0.369349 0)
(-1.61168 0.0468552 0)
(-2.49027 0.207964 0)
(-1.72939 -0.294205 0)
(-2.18403 0.15877 0)
(-2.29714 0.0912729 0)
(-2.02061 -0.25284 0)
(-2.68628 0.142938 0)
(-1.91306 0.161499 0)
(-2.02776 -0.0768641 0)
(-1.99485 0.176755 0)
(-2.40029 -0.368131 0)
(-2.19377 0.449401 0)
(-2.10181 -0.243064 0)
(-2.31135 0.0708071 0)
(-2.72108 0.117387 0)
(-2.00143 0.189062 0)
(-2.15536 -0.231876 0)
(-2.31595 0.0583248 0)
(-2.75117 0.0739847 0)
(-2.09113 0.212857 0)
(-1.95384 0.0314104 0)
(-2.1915 -0.381929 0)
(-2.56817 0.312867 0)
(-2.22887 0.148804 0)
(-1.8017 0.471023 0)
(-1.65894 0.368979 0)
(-1.63382 -0.506013 0)
(-1.42324 -0.252537 0)
(-2.27435 -0.280432 0)
(-1.54299 0.382966 0)
(-1.49255 0.166239 0)
(-1.97822 -0.147219 0)
(-2.08028 -0.0627483 0)
(-2.03197 0.140019 0)
(-2.48114 -0.340405 0)
(-2.22305 0.442564 0)
(-1.87068 0.485658 0)
(-1.72188 0.328232 0)
(-1.7006 -0.216435 0)
(-1.96085 -0.47004 0)
(-2.00847 -0.153489 0)
(-1.75203 0.42747 0)
(-2.33993 -0.330347 0)
(-1.66293 0.187394 0)
(-2.16859 -0.172306 0)
(-1.23826 0.100215 0)
(-1.23009 0.288112 0)
(-1.92492 -0.0991576 0)
(-2.50243 0.239065 0)
(-1.64928 0.0291821 0)
(-1.78506 -0.319654 0)
(-2.19396 0.175375 0)
(-2.39116 0.271803 0)
(-1.6582 -0.348189 0)
(-2.11717 0.211356 0)
(-1.52025 -0.0255407 0)
(-1.49959 0.13421 0)
(-1.5412 0.367318 0)
(-2.02033 -0.129549 0)
(-2.32636 -0.251776 0)
(-1.76692 0.281796 0)
(-1.05019 -0.143455 0)
(-1.93609 0.313202 0)
(-1.16246 -0.35529 0)
(-1.07513 -0.222871 0)
(-0.995639 0.00386003 0)
(-2.01084 0.1645 0)
(-1.81673 0.15464 0)
(-1.95121 -0.478501 0)
(-1.77026 0.334205 0)
(-1.69063 -0.212313 0)
(-1.93274 0.491237 0)
(-1.74875 0.438689 0)
(-1.97303 -0.167593 0)
(-2.29359 -0.354873 0)
(-1.65174 0.211345 0)
(-1.38245 -0.0407002 0)
(-2.30087 0.270807 0)
(-1.51154 -0.333983 0)
(-2.05133 0.22216 0)
(-1.99368 0.223823 0)
(-2.22324 0.264127 0)
(-1.41782 -0.324166 0)
(-1.29731 -0.0541674 0)
(-2.30672 0.0806178 0)
(-2.0466 0.08609 0)
(-1.35932 -0.161937 0)
(-1.294 0.098256 0)
(-1.71384 0.322259 0)
(-1.99857 -0.470078 0)
(-1.86122 0.487719 0)
(-1.73106 -0.21868 0)
(-1.30254 0.221303 0)
(-1.33839 0.381739 0)
(-2.08369 -0.3011 0)
(-1.84138 -0.180321 0)
(-1.5023 0.375812 0)
(-1.22647 -0.258853 0)
(-1.61236 0.448298 0)
(-1.42978 -0.492703 0)
(-2.73495 0.312977 0)
(-2.35912 -0.0368262 0)
(-2.19806 0.227312 0)
(-2.62445 -0.223277 0)
(-1.56205 -0.2598 0)
(-1.64939 0.485157 0)
(-1.78343 -0.485512 0)
(-1.53132 0.360604 0)
(-2.21948 0.193869 0)
(-2.74493 -0.171794 0)
(-2.69623 0.339129 0)
(-2.38865 -0.0998758 0)
(-2.68099 0.307843 0)
(-2.15107 0.153539 0)
(-2.30951 0.0514054 0)
(-2.47769 -0.30048 0)
(-1.9751 -0.160414 0)
(-1.0525 0.100459 0)
(-1.77864 -0.104784 0)
(-1.03186 0.245247 0)
(-2.51907 0.264317 0)
(-2.33615 0.0250769 0)
(-2.59419 -0.283108 0)
(-2.87629 0.0599013 0)
(-2.75938 0.336158 0)
(-2.25854 0.230532 0)
(-2.40125 -0.101533 0)
(-2.76563 -0.184898 0)
(-2.21281 0.213129 0)
(-2.67905 0.359754 0)
(-2.75955 -0.147669 0)
(-2.37727 -0.102306 0)
(-2.12876 0.232749 0)
(-1.95062 -0.410594 0)
(-2.40952 0.358669 0)
(-1.74179 -0.0547271 0)
(-1.63513 0.360053 0)
(-1.23256 -0.25421 0)
(-1.77201 0.430877 0)
(-1.41379 -0.487255 0)
(-1.06195 0.207345 0)
(-1.8534 -0.0356805 0)
(-2.06794 -0.0759805 0)
(-1.09619 0.0275309 0)
(-2.3175 0.0802613 0)
(-2.26155 -0.24458 0)
(-2.75242 0.164551 0)
(-2.12262 0.236433 0)
(-2.02231 -0.342489 0)
(-1.35625 0.405682 0)
(-1.78735 -0.207375 0)
(-1.30783 0.258127 0)
(-1.57198 0.48277 0)
(-1.58855 -0.259407 0)
(-1.46789 0.355542 0)
(-1.8097 -0.465801 0)
(-2.33891 0.0578104 0)
(-2.36188 -0.258387 0)
(-2.17721 0.228238 0)
(-2.77298 0.187117 0)
(-1.4625 0.0672142 0)
(-2.059 -0.0795256 0)
(-1.47242 0.31019 0)
(-2.35887 -0.166185 0)
(-2.04344 -0.130129 0)
(-1.68277 0.383204 0)
(-2.37496 -0.277215 0)
(-1.61729 0.134226 0)
(-1.83598 0.336281 0)
(-2.01539 0.470479 0)
(-1.61793 -0.203183 0)
(-1.85398 -0.483206 0)
(-2.06264 -0.328064 0)
(-1.36373 0.39429 0)
(-1.31802 0.238196 0)
(-1.821 -0.196356 0)
(-1.58944 -0.257138 0)
(-1.814 -0.47284 0)
(-1.50716 0.359244 0)
(-1.61762 0.488815 0)
(-1.91858 0.39969 0)
(-2.10796 -0.0972798 0)
(-1.82324 0.104043 0)
(-2.49408 -0.272491 0)
(-1.74484 0.476859 0)
(-1.44453 -0.257064 0)
(-1.61083 0.37076 0)
(-1.65605 -0.504033 0)
(-1.16932 -0.0591204 0)
(-1.93919 0.0268591 0)
(-2.16993 0.00218097 0)
(-1.12105 0.153215 0)
(-2.37991 0.0629645 0)
(-2.09763 0.0738135 0)
(-1.37409 0.121996 0)
(-1.4353 -0.155754 0)
(-2.01089 -0.141869 0)
(-1.67778 0.400051 0)
(-1.60782 0.163614 0)
(-2.33303 -0.295144 0)
(-1.74504 0.481778 0)
(-1.48524 -0.254314 0)
(-1.61102 0.369135 0)
(-1.70168 -0.501426 0)
(-1.27456 -0.342097 0)
(-1.15767 -0.101007 0)
(-2.08098 0.286892 0)
(-1.88265 0.253021 0)
(-1.59771 0.310033 0)
(-1.76978 -0.223791 0)
(-2.0384 -0.43635 0)
(-1.71099 0.478802 0)
(-1.14749 -0.115652 0)
(-1.26997 -0.35208 0)
(-2.04925 0.311039 0)
(-1.85885 0.273323 0)
(-1.23787 0.309923 0)
(-1.89519 -0.124327 0)
(-1.23755 0.135514 0)
(-2.13453 -0.207918 0)
(-2.162 0.212301 0)
(-1.98004 -0.39083 0)
(-1.77539 -0.0221448 0)
(-2.45685 0.335349 0)
(-2.27552 -0.294373 0)
(-1.56844 0.406977 0)
(-1.51169 0.187916 0)
(-1.97245 -0.152589 0)
(-1.47548 -0.186522 0)
(-1.67637 -0.46288 0)
(-2.04867 0.433026 0)
(-1.86271 0.331852 0)
(-1.58456 0.442995 0)
(-1.88044 -0.193035 0)
(-1.5073 0.253082 0)
(-2.16158 -0.360973 0)
(-1.66678 0.363868 0)
(-1.80882 0.433957 0)
(-1.22534 -0.246316 0)
(-1.40332 -0.480185 0)
(-1.97044 -0.471551 0)
(-1.80529 0.322725 0)
(-1.70691 -0.199291 0)
(-1.97481 0.482732 0)
(-1.57205 0.354154 0)
(-2.04192 -0.114283 0)
(-1.53242 0.112584 0)
(-2.35652 -0.233822 0)
(-1.27769 0.326948 0)
(-1.90059 -0.134853 0)
(-1.26822 0.150463 0)
(-2.14557 -0.227622 0)
(-1.93932 0.40861 0)
(-1.424 -0.467219 0)
(-1.25418 -0.218955 0)
(-1.77435 0.340756 0)
(-1.87153 -0.0223846 0)
(-2.0882 -0.0597919 0)
(-1.0634 0.187176 0)
(-1.10057 0.000284098 0)
(-2.31867 -0.0648202 0)
(-1.3456 0.215106 0)
(-1.37084 -0.0269487 0)
(-2.0448 -0.0161916 0)
(-2.58743 -0.25451 0)
(-2.28604 0.0333497 0)
(-2.16219 0.141063 0)
(-2.60116 0.372888 0)
(-2.67409 -0.186969 0)
(-2.23788 0.249396 0)
(-2.35193 -0.0279087 0)
(-2.70889 0.335987 0)
(-2.35416 -0.118183 0)
(-1.42352 0.0123318 0)
(-1.41638 0.258904 0)
(-2.06473 -0.0509687 0)
(-1.27888 -0.303943 0)
(-2.13701 0.242141 0)
(-1.17304 -0.0576199 0)
(-1.92404 0.214829 0)
(-1.40735 0.372095 0)
(-1.47007 -0.285124 0)
(-1.6669 -0.491474 0)
(-1.50979 0.480826 0)
(-1.35155 -0.377621 0)
(-1.87716 0.282666 0)
(-2.06866 0.329222 0)
(-1.21578 -0.130061 0)
(-2.31797 0.0673707 0)
(-2.75328 0.148275 0)
(-2.25303 -0.237083 0)
(-2.1204 0.232094 0)
(-2.5112 -0.226857 0)
(-2.39269 0.317987 0)
(-2.31827 0.0253357 0)
(-2.83473 0.0997356 0)
(-1.39936 -0.396052 0)
(-2.08719 0.344555 0)
(-1.25472 -0.14038 0)
(-1.89171 0.291031 0)
(-1.20448 0.368618 0)
(-1.77953 -0.178689 0)
(-1.18376 0.235979 0)
(-1.99698 -0.282347 0)
(-1.74511 -0.194308 0)
(-1.21561 0.379255 0)
(-1.95853 -0.305542 0)
(-1.18777 0.252897 0)
(-1.44342 0.374574 0)
(-1.65436 -0.505301 0)
(-1.55315 0.482235 0)
(-1.45564 -0.286386 0)
(-1.35801 -0.0263531 0)
(-2.29537 0.248151 0)
(-1.47768 -0.313503 0)
(-2.04686 0.206911 0)
(-1.72535 0.346782 0)
(-1.87775 0.409099 0)
(-1.19706 -0.227973 0)
(-1.36047 -0.463055 0)
(-2.49515 0.388993 0)
(-2.83049 -0.190946 0)
(-2.37405 -0.134877 0)
(-2.88291 0.16131 0)
(-1.76102 0.330946 0)
(-1.18514 -0.21744 0)
(-1.92063 0.38758 0)
(-1.3392 -0.456404 0)
(-1.87538 -0.414677 0)
(-1.33094 0.325906 0)
(-1.65709 -0.250417 0)
(-1.40529 0.45371 0)
(-1.83458 0.462841 0)
(-1.68718 0.361154 0)
(-1.64427 -0.496657 0)
(-1.43522 -0.24162 0)
(-1.80484 -0.391936 0)
(-1.22121 0.319678 0)
(-1.27857 0.42997 0)
(-1.60626 -0.251532 0)
(-2.10701 0.00292828 0)
(-1.06178 0.143984 0)
(-1.89102 0.0265713 0)
(-1.11008 -0.0561824 0)
(-1.06428 0.121906 0)
(-2.11923 0.0427595 0)
(-1.1202 -0.0859972 0)
(-1.90246 0.0579722 0)
(-2.18734 -0.158436 0)
(-1.93942 -0.0874264 0)
(-1.26259 0.0844534 0)
(-1.25286 0.277841 0)
(-1.73443 -0.434295 0)
(-1.54117 -0.27222 0)
(-1.34704 0.457253 0)
(-1.27304 0.348934 0)
(-1.89397 0.101193 0)
(-1.11804 -0.159894 0)
(-1.04997 0.0578667 0)
(-2.1056 0.0993988 0)
(-1.12165 -0.136836 0)
(-2.12022 0.0745654 0)
(-1.0593 0.0792577 0)
(-1.90489 0.081252 0)
(-2.38757 0.093486 0)
(-2.10525 0.0939571 0)
(-1.38515 0.105838 0)
(-1.45633 -0.17971 0)
(-1.77222 -0.470981 0)
(-1.55163 -0.189287 0)
(-2.04781 0.459673 0)
(-1.86186 0.339984 0)
(-2.13887 0.169817 0)
(-1.9927 -0.00293648 0)
(-2.32451 -0.367847 0)
(-2.40874 0.409127 0)
(-1.41401 0.296629 0)
(-1.99227 -0.40205 0)
(-1.49176 0.447341 0)
(-1.74995 -0.231512 0)
(-1.70152 0.347197 0)
(-1.84926 0.407593 0)
(-1.33832 -0.468183 0)
(-1.17847 -0.236462 0)
(-1.87117 0.0257289 0)
(-2.08286 0.00232301 0)
(-1.08472 -0.0458551 0)
(-1.03718 0.147765 0)
(-2.17594 0.165419 0)
(-2.47225 0.399136 0)
(-1.9992 0.0169016 0)
(-2.32056 -0.371474 0)
(-1.41842 0.283866 0)
(-2.03904 -0.386574 0)
(-1.49238 0.443385 0)
(-1.78814 -0.220977 0)
(-1.81094 -0.455186 0)
(-1.59745 -0.267335 0)
(-1.48264 0.471763 0)
(-1.39152 0.348671 0)
(-2.57769 -0.191838 0)
(-1.91327 0.361749 0)
(-2.18249 -0.0553891 0)
(-1.8434 0.0349914 0)
(-2.19857 0.398013 0)
(-1.70696 -0.434512 0)
(-1.97746 0.299516 0)
(-1.51558 -0.134111 0)
(-2.63644 0.321419 0)
(-2.79868 -0.119671 0)
(-2.24064 0.14525 0)
(-2.41504 -0.155879 0)
(-2.13207 0.195353 0)
(-1.21823 -0.254721 0)
(-1.12675 -0.0167261 0)
(-1.91807 0.178494 0)
(-1.42537 0.0381798 0)
(-2.33898 -0.132576 0)
(-1.42153 0.277277 0)
(-2.04958 -0.0614772 0)
(-1.15458 0.0404 0)
(-1.95258 0.130215 0)
(-1.23286 -0.19789 0)
(-2.17856 0.135409 0)
(-1.78701 -0.477475 0)
(-1.56512 -0.197314 0)
(-2.01936 0.456318 0)
(-1.83876 0.336054 0)
(-1.18141 0.0625462 0)
(-1.97494 0.111504 0)
(-1.25571 -0.177825 0)
(-2.20796 0.112324 0)
(-2.11379 -0.0356998 0)
(-1.51978 0.26599 0)
(-1.52586 -0.00312915 0)
(-2.42631 -0.100792 0)
(-2.14392 0.442627 0)
(-1.63178 -0.154705 0)
(-1.93687 0.312511 0)
(-1.85966 -0.456737 0)
(-1.4208 -0.413329 0)
(-1.26963 -0.155803 0)
(-2.06865 0.35494 0)
(-1.87766 0.298155 0)
(-2.00875 0.0823278 0)
(-2.61885 0.303416 0)
(-2.26763 -0.346181 0)
(-2.2653 0.117064 0)
(-2.60633 -0.256197 0)
(-2.16441 0.10436 0)
(-2.52857 0.383488 0)
(-2.24758 0.0320985 0)
(-2.20846 0.0818125 0)
(-1.1811 0.0863458 0)
(-1.24769 -0.149376 0)
(-1.97416 0.0890799 0)
(-2.59778 0.323416 0)
(-2.10117 0.0632822 0)
(-2.40315 -0.363308 0)
(-2.25215 0.0941588 0)
(-1.22409 -0.261599 0)
(-1.65703 0.44923 0)
(-1.53928 0.375579 0)
(-1.41829 -0.492049 0)
(-1.09977 -0.134029 0)
(-1.99279 0.312368 0)
(-1.21768 -0.358652 0)
(-1.81362 0.278404 0)
(-1.10945 -0.149772 0)
(-1.99115 0.329302 0)
(-1.81421 0.292509 0)
(-1.23359 -0.378524 0)
(-2.07 0.169264 0)
(-1.13332 -0.228898 0)
(-1.05134 -0.00156874 0)
(-1.86683 0.15787 0)
(-2.08539 0.149318 0)
(-1.04947 0.0154012 0)
(-1.87856 0.141407 0)
(-1.12613 -0.210529 0)
(-1.13688 -0.219992 0)
(-1.74756 0.340375 0)
(-1.28365 -0.452547 0)
(-1.90303 0.392726 0)
(-2.08649 -0.326919 0)
(-2.2656 0.152607 0)
(-2.6145 0.269701 0)
(-1.90062 0.0821282 0)
(-2.00083 -0.138721 0)
(-1.05605 0.0780678 0)
(-1.79941 -0.0869576 0)
(-1.03415 0.234733 0)
(-1.01803 0.102627 0)
(-2.09374 0.0553301 0)
(-1.07465 -0.103315 0)
(-1.88465 0.0665383 0)
(-1.50428 0.472884 0)
(-1.63209 -0.253775 0)
(-1.41366 0.342081 0)
(-1.85494 -0.441242 0)
(-1.98395 0.418458 0)
(-2.10107 -0.0999609 0)
(-1.86247 0.120164 0)
(-2.49489 -0.30336 0)
(-2.28011 0.0108647 0)
(-2.21137 -0.126876 0)
(-2.33997 0.296048 0)
(-2.77989 -0.167774 0)
(-1.85451 0.0501728 0)
(-2.06014 0.0322259 0)
(-1.0527 -0.0576866 0)
(-0.99924 0.134915 0)
(-1.84464 0.393065 0)
(-1.13632 -0.242133 0)
(-1.28601 -0.470963 0)
(-1.69706 0.339483 0)
(-2.64749 -0.245702 0)
(-2.17776 0.107276 0)
(-2.54005 0.376576 0)
(-2.26053 -0.00252068 0)
(-2.70442 0.23457 0)
(-2.2937 -0.298222 0)
(-2.30501 0.0828965 0)
(-2.08262 0.160841 0)
(-2.21928 0.361016 0)
(-1.99415 0.282578 0)
(-1.61477 -0.403917 0)
(-1.4468 -0.111452 0)
(-1.39999 0.43235 0)
(-1.73426 -0.229002 0)
(-1.33621 0.291548 0)
(-1.96475 -0.381781 0)
(-2.10236 0.243613 0)
(-1.13422 -0.0631328 0)
(-1.23731 -0.301137 0)
(-1.89579 0.218628 0)
(-2.12549 0.168655 0)
(-1.10368 -0.00465151 0)
(-1.18695 -0.240965 0)
(-1.91194 0.157193 0)
(-1.44501 0.447106 0)
(-1.72437 -0.235371 0)
(-1.37176 0.304652 0)
(-1.95813 -0.399325 0)
(-1.77285 -0.208733 0)
(-1.3219 0.403659 0)
(-2.00247 -0.339906 0)
(-1.27718 0.261226 0)
(-2.27291 0.0926398 0)
(-2.84868 -0.0464505 0)
(-2.51468 -0.185048 0)
(-2.61867 0.347392 0)
(-2.06105 0.471648 0)
(-1.85486 -0.149619 0)
(-1.88056 0.271629 0)
(-2.15746 -0.431585 0)
(-2.1015 0.477375 0)
(-1.83504 -0.146452 0)
(-1.90928 0.278661 0)
(-2.1368 -0.439458 0)
(-1.82213 0.311554 0)
(-1.19302 -0.175898 0)