/*--------------------------------*- C++ -*----------------------------------*\
| =========                 |                                                 |
| \\      /  F ield         | OpenFOAM: The Open Source CFD Toolbox           |
|  \\    /   O peration     | Version:  2.2.0                                 |
|   \\  /    A nd           | Web:      www.OpenFOAM.org                      |
|    \\/     M anipulation  |                                                 |
\*---------------------------------------------------------------------------*/
FoamFile
{
    version     2.0;
    format      ascii;
    class       volVectorField;
    location    "10";
    object      s;
}
// * * * * * * * * * * * * * * * * * * * * * * * * * * * * * * * * * * * * * //

dimensions      [0 1 -1 0 0 0 0];

internalField   nonuniform List<vector> 
7920
(
(0.523357 0.458875 0.106256)
(0.496283 0.434826 0.167176)
(0.465994 0.407881 0.231481)
(0.433099 0.378554 0.298026)
(0.397476 0.346912 0.365245)
(0.35796 0.31205 0.43081)
(0.317581 0.278148 0.491932)
(0.265048 0.235192 0.542183)
(0.559435 0.373719 0.147879)
(0.530272 0.353843 0.207399)
(0.497879 0.331724 0.270187)
(0.462665 0.307545 0.335193)
(0.424447 0.281449 0.401007)
(0.382875 0.253249 0.46576)
(0.338735 0.225439 0.527307)
(0.28861 0.193749 0.582574)
(0.575437 0.283738 0.214802)
(0.545442 0.268705 0.270619)
(0.512395 0.252076 0.329427)
(0.476323 0.233845 0.39032)
(0.437247 0.214226 0.452087)
(0.395014 0.193377 0.51327)
(0.350029 0.172746 0.572271)
(0.300567 0.151718 0.627437)
(0.571307 0.193916 0.314357)
(0.542436 0.183963 0.361677)
(0.510576 0.172885 0.41162)
(0.475682 0.160699 0.463481)
(0.437768 0.147534 0.516384)
(0.396889 0.133651 0.569301)
(0.353246 0.119904 0.621147)
(0.306748 0.106931 0.671062)
(0.554658 0.110321 0.434285)
(0.528479 0.105045 0.468125)
(0.499354 0.0990973 0.504375)
(0.467125 0.0924941 0.54274)
(0.431753 0.0852944 0.582764)
(0.393356 0.0776948 0.62393)
(0.352059 0.0701463 0.665642)
(0.308636 0.0633485 0.707557)
(0.539184 0.0353448 0.524683)
(0.515629 0.0337674 0.546704)
(0.488917 0.0319582 0.571234)
(0.459102 0.0299186 0.5983)
(0.42594 0.0276673 0.627816)
(0.389619 0.0252742 0.659622)
(0.350204 0.0228854 0.693437)
(0.308913 0.0207817 0.729167)
(0.539279 -0.0353983 0.524661)
(0.515566 -0.0338518 0.546692)
(0.488939 -0.0321301 0.571224)
(0.459069 -0.0301307 0.598295)
(0.425925 -0.0279358 0.627814)
(0.389598 -0.0255723 0.659624)
(0.35019 -0.0232032 0.693442)
(0.308904 -0.0210967 0.729175)
(0.554948 -0.110438 0.434508)
(0.529092 -0.105273 0.468322)
(0.499712 -0.0993526 0.504573)
(0.467635 -0.0928193 0.542916)
(0.432154 -0.0856359 0.582927)
(0.393765 -0.0780536 0.624072)
(0.352408 -0.0704942 0.665764)
(0.308933 -0.0636732 0.707658)
(0.57166 -0.193995 0.314408)
(0.542896 -0.184073 0.361741)
(0.510975 -0.172933 0.411689)
(0.47612 -0.160767 0.463558)
(0.438165 -0.147588 0.516464)
(0.397266 -0.133725 0.569385)
(0.353574 -0.119989 0.62123)
(0.307028 -0.107042 0.671143)
(0.575618 -0.283806 0.214899)
(0.54572 -0.268807 0.270719)
(0.512625 -0.252125 0.329541)
(0.476608 -0.233911 0.390439)
(0.437518 -0.214275 0.452211)
(0.395299 -0.193436 0.513394)
(0.3503 -0.172805 0.572392)
(0.300828 -0.151794 0.627551)
(0.559506 -0.373718 0.147919)
(0.530381 -0.353834 0.207447)
(0.498016 -0.331668 0.270248)
(0.462831 -0.307484 0.335263)
(0.424637 -0.281374 0.401085)
(0.383087 -0.253184 0.465844)
(0.338953 -0.225386 0.527396)
(0.288848 -0.193729 0.582663)
(0.52333 -0.458855 0.106278)
(0.496202 -0.434746 0.167208)
(0.46597 -0.407843 0.231524)
(0.433068 -0.378491 0.29808)
(0.397488 -0.346867 0.36531)
(0.358 -0.312008 0.430884)
(0.317661 -0.278123 0.492012)
(0.265163 -0.23518 0.542267)
(0.222566 0.195136 0.0289113)
(0.224561 0.196741 0.052422)
(0.225953 0.19786 0.0795225)
(0.226087 0.197896 0.110455)
(0.224681 0.196745 0.145103)
(0.220786 0.193654 0.18299)
(0.214086 0.189317 0.222315)
(0.201531 0.180799 0.260666)
(0.250801 0.167662 0.042113)
(0.252149 0.168769 0.0664002)
(0.25267 0.169423 0.0943054)
(0.251744 0.169275 0.126082)
(0.248942 0.168196 0.161728)
(0.243585 0.165938 0.200981)
(0.23463 0.162734 0.242871)
(0.221519 0.158392 0.28625)
(0.277476 0.136951 0.0659499)
(0.277549 0.137341 0.0906055)
(0.276751 0.137398 0.118837)
(0.274246 0.136861 0.150914)
(0.269712 0.135662 0.186954)
(0.262508 0.133758 0.226911)
(0.251706 0.131262 0.270392)
(0.236949 0.128834 0.316962)
(0.304481 0.103495 0.104315)
(0.302888 0.103289 0.127531)
(0.299896 0.102752 0.154134)
(0.295417 0.101895 0.184446)
(0.288697 0.100594 0.218715)
(0.279521 0.0989596 0.257121)
(0.266964 0.0970769 0.299722)
(0.251302 0.0957179 0.346639)
(0.329591 0.0656815 0.153504)
(0.325335 0.0650502 0.172847)
(0.320102 0.0643681 0.195387)
(0.313023 0.0634005 0.221563)
(0.304041 0.0622724 0.251799)
(0.292693 0.0609739 0.286528)
(0.278414 0.0596249 0.326182)
(0.261644 0.0587465 0.371333)
(0.345989 0.0226927 0.191845)
(0.339874 0.0223551 0.207184)
(0.332798 0.0219831 0.225653)
(0.32393 0.0215496 0.247816)
(0.313278 0.0210702 0.274246)
(0.300455 0.0205658 0.305561)
(0.284999 0.0200712 0.342424)
(0.267467 0.0197744 0.385658)
(0.346107 -0.0227264 0.191895)
(0.340021 -0.0224145 0.207222)
(0.332915 -0.0220808 0.225687)
(0.324048 -0.0216725 0.247841)
(0.313374 -0.0212218 0.274265)
(0.300535 -0.0207401 0.305574)
(0.285058 -0.0202684 0.342431)
(0.267506 -0.0199924 0.38566)
(0.329759 -0.0656895 0.15337)
(0.325559 -0.065086 0.172728)
(0.320275 -0.0643748 0.195268)
(0.313221 -0.0634388 0.221457)
(0.30421 -0.0623237 0.251702)
(0.292857 -0.0610637 0.286445)
(0.278558 -0.0597533 0.326115)
(0.261771 -0.058916 0.371282)
(0.304637 -0.103562 0.10423)
(0.302867 -0.103321 0.12745)
(0.300012 -0.102856 0.154049)
(0.295425 -0.101992 0.184367)
(0.288763 -0.100737 0.218641)
(0.279564 -0.0991214 0.257056)
(0.267028 -0.097272 0.299669)
(0.251367 -0.0959338 0.346599)
(0.277678 -0.137098 0.0659163)
(0.27783 -0.137549 0.090571)
(0.276958 -0.137639 0.118798)
(0.274477 -0.137135 0.150875)
(0.269919 -0.135961 0.186916)
(0.262712 -0.134067 0.226876)
(0.251901 -0.131577 0.270363)
(0.237126 -0.129137 0.316939)
(0.25111 -0.167879 0.0421219)
(0.252489 -0.169019 0.0664081)
(0.252969 -0.169668 0.0943147)
(0.252049 -0.16954 0.12609)
(0.249218 -0.168461 0.161736)
(0.243843 -0.166209 0.200989)
(0.234865 -0.163003 0.24288)
(0.221722 -0.158659 0.286258)
(0.22282 -0.195351 0.0289465)
(0.224905 -0.197038 0.0524578)
(0.22624 -0.1981 0.0795679)
(0.226413 -0.198175 0.1105)
(0.224981 -0.197005 0.145149)
(0.221084 -0.193922 0.183034)
(0.214359 -0.189573 0.222356)
(0.201795 -0.181043 0.260703)
(0.126457 0.110854 0.00412848)
(0.128243 0.112242 0.0139644)
(0.13021 0.113816 0.025443)
(0.131859 0.115077 0.0387439)
(0.133203 0.116151 0.0539754)
(0.133755 0.116668 0.0711006)
(0.132937 0.116692 0.0896336)
(0.129849 0.115508 0.108507)
(0.142794 0.0954541 0.00567439)
(0.14435 0.0966064 0.016172)
(0.146052 0.0979163 0.0284058)
(0.147292 0.0990282 0.0425912)
(0.148078 0.100045 0.058908)
(0.147978 0.10085 0.0774619)
(0.146168 0.101385 0.0981846)
(0.142725 0.102275 0.120794)
(0.158571 0.0782928 0.00949814)
(0.159679 0.0790789 0.0207362)
(0.160855 0.0799875 0.0338125)
(0.161453 0.0807608 0.0489689)
(0.161497 0.081501 0.0664545)
(0.16055 0.0821726 0.0864963)
(0.157949 0.082764 0.109294)
(0.153655 0.0839957 0.135003)
(0.175096 0.0595264 0.0163814)
(0.175413 0.0598707 0.0280198)
(0.175717 0.0602991 0.0415402)
(0.17538 0.0606564 0.0572366)
(0.174454 0.0610302 0.0753973)
(0.172561 0.0614358 0.0963547)
(0.169177 0.061913 0.120486)
(0.164432 0.0630244 0.148228)
(0.190753 0.0379906 0.0258629)
(0.189957 0.0379751 0.0372548)
(0.189077 0.038004 0.0505624)
(0.187538 0.0380058 0.0660925)
(0.185417 0.0380367 0.0841982)
(0.182399 0.0381228 0.105286)
(0.17809 0.0383036 0.129865)
(0.172656 0.0389203 0.15857)
(0.201136 0.0131902 0.0334437)
(0.199427 0.0131176 0.0443246)
(0.197587 0.0130534 0.0571345)
(0.195112 0.0129901 0.0722108)
(0.192084 0.0129409 0.0899433)
(0.18824 0.0129233 0.110792)
(0.18326 0.0129526 0.135338)
(0.17732 0.0131455 0.164323)
(0.201217 -0.0132244 0.0334393)
(0.199523 -0.0131796 0.0443201)
(0.19766 -0.0131627 0.0571299)
(0.195191 -0.0131302 0.0722062)
(0.192148 -0.0131173 0.0899388)
(0.188298 -0.0131278 0.110787)
(0.183307 -0.0131837 0.135333)
(0.177357 -0.013397 0.164318)
(0.19088 -0.0380197 0.0258307)
(0.190174 -0.0380432 0.037224)
(0.189226 -0.0380756 0.0505308)
(0.187731 -0.0381147 0.0660618)
(0.18558 -0.0381678 0.0841679)
(0.182563 -0.0382879 0.105257)
(0.178238 -0.0384989 0.129837)
(0.172787 -0.039144 0.158545)
(0.175221 -0.0595675 0.0163899)
(0.175522 -0.0599243 0.0280194)
(0.175845 -0.0603677 0.0415387)
(0.175501 -0.0607469 0.0572278)
(0.174586 -0.0611473 0.0753849)
(0.172692 -0.0615825 0.0963371)
(0.169312 -0.0620922 0.120465)
(0.164563 -0.0632317 0.148204)
(0.158743 -0.0784009 0.00945485)
(0.159876 -0.0792198 0.0206922)
(0.161026 -0.0801511 0.033763)
(0.161635 -0.0809499 0.0489183)
(0.161673 -0.0817104 0.0664021)
(0.160729 -0.0823988 0.0864444)
(0.158128 -0.0830035 0.109243)
(0.153829 -0.0842391 0.134956)
(0.143051 -0.0956412 0.00566063)
(0.144658 -0.0968383 0.0161544)
(0.146313 -0.0981404 0.0283835)
(0.147572 -0.0992754 0.0425649)
(0.148336 -0.100292 0.0588777)
(0.148229 -0.101102 0.0774282)
(0.146405 -0.101635 0.0981484)
(0.142942 -0.10252 0.120756)
(0.126694 -0.111048 0.00411167)
(0.128556 -0.112496 0.0139437)
(0.130481 -0.114018 0.0254154)
(0.132166 -0.115308 0.0387121)
(0.133488 -0.116361 0.0539389)
(0.134041 -0.116882 0.0710609)
(0.1332 -0.116898 0.0895923)
(0.130104 -0.115705 0.108464)
(0.0659083 0.0577832 -0.00569207)
(0.0668935 0.0585697 -0.00127255)
(0.068049 0.0595188 0.00393949)
(0.0691043 0.0603658 0.0100553)
(0.0700943 0.0611967 0.0171751)
(0.0708163 0.0618711 0.0253412)
(0.0709031 0.062354 0.0344428)
(0.0701 0.0625093 0.0440187)
(0.0744326 0.0497719 -0.00946099)
(0.0753204 0.0504678 -0.00468779)
(0.0763591 0.0512981 0.000970458)
(0.0772295 0.0520888 0.00766024)
(0.0779597 0.0529021 0.0155409)
(0.0783668 0.0537177 0.0247573)
(0.0779942 0.0544649 0.0354325)
(0.0770028 0.0556402 0.0475638)
(0.0826466 0.0408254 -0.0152554)
(0.0833564 0.0413591 -0.00987116)
(0.084153 0.0419865 -0.0034703)
(0.084743 0.04261 0.00412893)
(0.0851283 0.0432687 0.0131358)
(0.0851385 0.0439794 0.0237746)
(0.0844131 0.0447116 0.0363037)
(0.08301 0.0459215 0.0509699)
(0.0911854 0.0310476 -0.0239336)
(0.0915701 0.0313684 -0.0175773)
(0.0919515 0.031766 -0.0100621)
(0.092131 0.0321582 -0.00118715)
(0.0920744 0.0326005 0.00928146)
(0.0916606 0.0331069 0.021607)
(0.0906052 0.033696 0.0361125)
(0.0890162 0.0346844 0.0531661)
(0.0991037 0.0197918 -0.0346755)
(0.0988534 0.0198766 -0.0269807)
(0.0988004 0.0200655 -0.018021)
(0.0983665 0.0202072 -0.00760003)
(0.0978173 0.020412 0.00451061)
(0.0968868 0.0206505 0.0185764)
(0.0954493 0.0209667 0.0349356)
(0.0935655 0.0215311 0.054011)
(0.104306 0.00685297 -0.0429276)
(0.103593 0.00685006 -0.0341044)
(0.103128 0.00687707 -0.0239727)
(0.102252 0.0068997 -0.0123517)
(0.101297 0.00694482 0.000971104)
(0.0999912 0.00701052 0.0162497)
(0.0982571 0.00710894 0.0338199)
(0.0961483 0.00729627 0.0541252)
(0.104367 -0.00686723 -0.0429291)
(0.103684 -0.0068715 -0.0341069)
(0.103192 -0.00691098 -0.0239758)
(0.10232 -0.00693904 -0.0123556)
(0.101348 -0.00699249 0.000966213)
(0.100032 -0.00706461 0.0162438)
(0.098285 -0.00717281 0.0338129)
(0.0961649 -0.00737302 0.0541173)
(0.0991159 -0.0197757 -0.0347045)
(0.0988816 -0.0198611 -0.0270094)
(0.098814 -0.0200304 -0.0180515)
(0.0983932 -0.0201802 -0.00763122)
(0.0978332 -0.0203888 0.00447809)
(0.0969049 -0.0206463 0.0185432)
(0.0954623 -0.0209858 0.0349021)
(0.0935774 -0.0215794 0.0539781)
(0.0911378 -0.0310291 -0.0239598)
(0.091446 -0.031334 -0.0176083)
(0.0918881 -0.0317534 -0.0100959)
(0.0920337 -0.0321475 -0.00122523)
(0.0920072 -0.0326106 0.00924064)
(0.0915961 -0.0331348 0.0215635)
(0.0905613 -0.0337497 0.0360675)
(0.0889876 -0.0347609 0.053121)
(0.0826479 -0.0408542 -0.0153048)
(0.0833292 -0.0413949 -0.00992313)
(0.0841313 -0.042066 -0.00353002)
(0.0847056 -0.0427014 0.00406615)
(0.085098 -0.043387 0.0130691)
(0.0851097 -0.0441102 0.0237068)
(0.0843986 -0.0448583 0.0362362)
(0.0830041 -0.0460701 0.0509053)
(0.0745318 -0.0498627 -0.00949014)
(0.0754379 -0.0505919 -0.00472251)
(0.0764403 -0.0514362 0.000927235)
(0.0773128 -0.0522491 0.00761134)
(0.0780235 -0.0530737 0.0154861)
(0.0784215 -0.0538973 0.0246989)
(0.0780426 -0.0546491 0.0353722)
(0.0770379 -0.0558171 0.0475042)
(0.0660483 -0.0579083 -0.00571704)
(0.0670723 -0.05874 -0.00130346)
(0.0681913 -0.0596673 0.00389877)
(0.0692583 -0.060539 0.0100084)
(0.0702258 -0.0613654 0.0171216)
(0.070937 -0.0620466 0.0252837)
(0.0710062 -0.0625282 0.0343831)
(0.0701848 -0.0626781 0.043959)
(0.032925 0.0289093 -0.0108997)
(0.0333253 0.0292749 -0.00936453)
(0.0339387 0.0298585 -0.00750307)
(0.0344291 0.03031 -0.00524737)
(0.0349593 0.0308233 -0.00252519)
(0.0353521 0.0312496 0.000728358)
(0.0354812 0.0316117 0.00454502)
(0.0351759 0.0318596 0.00883316)
(0.0370716 0.0248118 -0.0175123)
(0.0374263 0.0251413 -0.0158003)
(0.0380095 0.0256491 -0.0136766)
(0.0384162 0.0260764 -0.0110388)
(0.0388374 0.0265765 -0.00776735)
(0.0390874 0.0270725 -0.00372629)
(0.0390013 0.0275701 0.00124227)
(0.0386358 0.0282996 0.00726215)
(0.0411152 0.0203288 -0.0284382)
(0.0413672 0.0205755 -0.0262044)
(0.0418588 0.0209736 -0.0234177)
(0.04213 0.0213123 -0.019943)
(0.0424026 0.0217251 -0.015623)
(0.0424738 0.0221598 -0.0102744)
(0.0422341 0.0226387 -0.00367841)
(0.041689 0.023371 0.00439309)
(0.0453319 0.0154305 -0.0454675)
(0.0454205 0.0155684 -0.0419718)
(0.0457368 0.0158127 -0.0377444)
(0.0458163 0.0160267 -0.0326393)
(0.0458903 0.0163046 -0.0264938)
(0.0457673 0.0166213 -0.019123)
(0.0453777 0.0170055 -0.0103093)
(0.044751 0.0176059 0.000188988)
(0.0493033 0.00983063 -0.0669592)
(0.049156 0.00986879 -0.0613047)
(0.0492122 0.00996526 -0.0547735)
(0.049035 0.0100526 -0.0472499)
(0.048849 0.0101817 -0.0386069)
(0.0484837 0.0103454 -0.0287044)
(0.0478994 0.0105633 -0.0173714)
(0.0471227 0.0109214 -0.00439987)
(0.0519353 0.00340459 -0.083632)
(0.0515908 0.0034017 -0.0759868)
(0.0514255 0.00341087 -0.0674107)
(0.0510451 0.00342688 -0.0578275)
(0.0506522 0.00345669 -0.0471567)
(0.0501028 0.00350533 -0.0353045)
(0.0493675 0.00357687 -0.0221437)
(0.0484728 0.00370049 -0.00749608)
(0.0519855 -0.00342672 -0.0836384)
(0.0516744 -0.0034329 -0.0759931)
(0.0514797 -0.0034621 -0.0674169)
(0.051112 -0.00348131 -0.0578335)
(0.0507024 -0.00351452 -0.0471625)
(0.0501481 -0.00355729 -0.0353101)
(0.0494007 -0.00362027 -0.0221492)
(0.048496 -0.00373293 -0.00750147)
(0.0493976 -0.00984033 -0.066972)
(0.0493186 -0.00988287 -0.0613174)
(0.0493195 -0.00995931 -0.0547871)
(0.0491668 -0.0100465 -0.0472638)
(0.0489479 -0.0101677 -0.0386216)
(0.0485715 -0.0103317 -0.0287196)
(0.0479614 -0.01055 -0.0173872)
(0.0471639 -0.010913 -0.00441596)
(0.0452709 -0.0153808 -0.0454802)
(0.045364 -0.0155091 -0.0419862)
(0.0456845 -0.0157199 -0.0377604)
(0.0457847 -0.0159355 -0.0326571)
(0.0458613 -0.0162061 -0.0265134)
(0.0457505 -0.0165343 -0.0191441)
(0.045365 -0.016933 -0.0103318)
(0.0447458 -0.017555 0.000165523)
(0.0410418 -0.0202964 -0.0284527)
(0.0412174 -0.0205131 -0.0262211)
(0.0417645 -0.0209396 -0.0234373)
(0.0420014 -0.0212659 -0.019965)
(0.0423014 -0.0216918 -0.0156475)
(0.0423768 -0.0221294 -0.010301)
(0.0421578 -0.0226202 -0.00370666)
(0.0416315 -0.0233608 0.00436377)
(0.0370375 -0.0248077 -0.0175253)
(0.0373922 -0.0251452 -0.0158163)
(0.0379626 -0.0256712 -0.0136963)
(0.0383646 -0.0261034 -0.0110618)
(0.0387828 -0.0266144 -0.00779339)
(0.0390319 -0.0271128 -0.00375496)
(0.0389519 -0.0276157 0.00121166)
(0.0385903 -0.028341 0.00723009)
(0.0329266 -0.0289167 -0.0109012)
(0.0333264 -0.0292913 -0.00936976)
(0.0339291 -0.0298794 -0.00751038)
(0.0344196 -0.030342 -0.00525881)
(0.0349409 -0.0308603 -0.00254021)
(0.0353294 -0.0312935 0.000709141)
(0.0354557 -0.0316611 0.00452191)
(0.0351427 -0.0319122 0.00880704)
(0.0154785 0.0136228 -0.0134566)
(0.0156158 0.0138027 -0.0133385)
(0.0158922 0.0141312 -0.0131196)
(0.0160834 0.0143731 -0.0127608)
(0.0163095 0.0146635 -0.0122023)
(0.0164611 0.0149077 -0.0113739)
(0.0165058 0.0151299 -0.0101847)
(0.0163159 0.0152939 -0.00853588)
(0.0173489 0.0116298 -0.0215003)
(0.0174585 0.0117902 -0.0213018)
(0.0177364 0.0120788 -0.020923)
(0.0178913 0.0123128 -0.0202891)
(0.0180727 0.0125989 -0.0193001)
(0.0181608 0.01288 -0.0178311)
(0.0181053 0.0131718 -0.0157186)
(0.0178994 0.0135519 -0.0127803)
(0.0192269 0.00951861 -0.0350232)
(0.0193041 0.00965379 -0.0343578)
(0.0195289 0.0098781 -0.0333672)
(0.0196248 0.0100755 -0.0319456)
(0.0197275 0.0103151 -0.0299616)
(0.0197281 0.0105675 -0.0272596)
(0.0195917 0.010847 -0.0236514)
(0.0193017 0.0112316 -0.0189302)
(0.0210847 0.00721355 -0.0563062)
(0.0211008 0.00731266 -0.0542411)
(0.0212266 0.00748495 -0.0516553)
(0.0212425 0.00762658 -0.0484358)
(0.0212503 0.00780383 -0.0444563)
(0.0211682 0.00798992 -0.0395783)
(0.0209686 0.00820802 -0.0336473)
(0.0206519 0.00851321 -0.0265005)
(0.0227318 0.00457446 -0.0833101)
(0.0225265 0.00460322 -0.0786711)
(0.0226302 0.00473045 -0.0733511)
(0.0224796 0.00479726 -0.0672748)
(0.0224198 0.0049092 -0.060371)
(0.0222345 0.0050136 -0.0525676)
(0.0219798 0.00514586 -0.0437888)
(0.0216269 0.00532946 -0.0339508)
(0.0238207 0.00157305 -0.104304)
(0.0234866 0.00157711 -0.0972363)
(0.023529 0.00161296 -0.0894284)
(0.0232704 0.00163519 -0.0808571)
(0.0231355 0.00167402 -0.0715131)
(0.0228732 0.00171473 -0.061389)
(0.0225632 0.00176641 -0.0504737)
(0.0221756 0.00183615 -0.0387388)
(0.0238247 -0.00157238 -0.104324)
(0.0235192 -0.00156635 -0.0972545)
(0.0235397 -0.00159164 -0.0894463)
(0.0232887 -0.00159824 -0.080874)
(0.0231427 -0.00162093 -0.0715293)
(0.0228755 -0.0016439 -0.0614044)
(0.0225576 -0.00167997 -0.0504881)
(0.0221643 -0.00173796 -0.0387523)
(0.0226586 -0.00453405 -0.0833132)
(0.0224544 -0.00454494 -0.0786786)
(0.0225589 -0.00463727 -0.0733601)
(0.0224107 -0.00468938 -0.0672879)
(0.0223481 -0.0047838 -0.0603869)
(0.0221644 -0.00488246 -0.052587)
(0.0219095 -0.00501376 -0.0438113)
(0.0215624 -0.00520283 -0.0339759)
(0.0208957 -0.00714076 -0.0563448)
(0.0208306 -0.00720685 -0.0542799)
(0.0210224 -0.00738881 -0.0516984)
(0.0210053 -0.00751444 -0.0484804)
(0.0210472 -0.00769617 -0.0445039)
(0.0209725 -0.00788146 -0.0396273)
(0.0208002 -0.00810719 -0.0336976)
(0.0205098 -0.00841718 -0.0265503)
(0.0190485 -0.00945005 -0.0350612)
(0.0190887 -0.00957519 -0.0344003)
(0.0193287 -0.00983335 -0.0334161)
(0.0194111 -0.0100296 -0.031999)
(0.0195279 -0.0102854 -0.0300194)
(0.019538 -0.0105394 -0.0273203)
(0.019426 -0.0108252 -0.0237137)
(0.0191596 -0.0112017 -0.0189921)
(0.0172747 -0.0116136 -0.0215349)
(0.0173772 -0.0117891 -0.0213424)
(0.0176228 -0.0121026 -0.0209731)
(0.0177753 -0.0123511 -0.0203453)
(0.0179391 -0.0126455 -0.0193626)
(0.0180237 -0.0129267 -0.0178975)
(0.0179737 -0.013215 -0.0157869)
(0.0177651 -0.013576 -0.0128477)
(0.0154768 -0.0136269 -0.0134834)
(0.0156788 -0.0138809 -0.0133712)
(0.0158906 -0.0141643 -0.013163)
(0.0161089 -0.0144469 -0.0128108)
(0.0163 -0.0147189 -0.0122598)
(0.0164444 -0.0149674 -0.0114365)
(0.016468 -0.0151759 -0.0102505)
(0.0162667 -0.0153209 -0.00860289)
(0.00663405 0.00588961 -0.0147016)
(0.00661657 0.00597079 -0.0152695)
(0.00671426 0.00619043 -0.0158482)
(0.0067321 0.00632216 -0.0164073)
(0.00679092 0.00650644 -0.0168967)
(0.00679776 0.00664981 -0.0172421)
(0.00678641 0.00679594 -0.0173271)
(0.00662392 0.00689646 -0.0169585)
(0.00731479 0.00493873 -0.023434)
(0.00725001 0.00498755 -0.0239688)
(0.00739146 0.00519899 -0.0244366)
(0.00738215 0.00531648 -0.0247732)
(0.00744306 0.00550383 -0.0248907)
(0.00743043 0.00566368 -0.0246689)
(0.00738486 0.00584795 -0.0239444)
(0.00724639 0.00603142 -0.022507)
(0.00802388 0.00399812 -0.0382184)
(0.00793676 0.00403828 -0.038312)
(0.00807934 0.00421024 -0.0381936)
(0.00804485 0.00430941 -0.0377666)
(0.00808863 0.00447055 -0.0369161)
(0.00804901 0.0046182 -0.035499)
(0.00797656 0.0047964 -0.0333454)
(0.00782038 0.00499847 -0.0302605)
(0.0087256 0.00299501 -0.0615495)
(0.0085863 0.00301393 -0.0601783)
(0.00871866 0.00313928 -0.0583892)
(0.00864577 0.00320778 -0.0560851)
(0.00866399 0.00332613 -0.0531581)
(0.00859569 0.00343944 -0.0494935)
(0.00850124 0.00358184 -0.0449703)
(0.00834179 0.0037563 -0.0394665)
(0.00941517 0.00188889 -0.0911652)
(0.00922454 0.00189092 -0.087025)
(0.00931956 0.00195759 -0.0822964)
(0.00919906 0.00199491 -0.0769302)
(0.00917331 0.00206548 -0.0708789)
(0.00906266 0.00213936 -0.0641071)
(0.00893218 0.00223648 -0.056586)
(0.00875134 0.00236138 -0.0482956)
(0.00987831 0.000656415 -0.114237)
(0.0096586 0.000663991 -0.107456)
(0.00970855 0.000691052 -0.100028)
(0.00955306 0.000712876 -0.0919572)
(0.00948845 0.000745739 -0.0832685)
(0.00934497 0.000783261 -0.0739987)
(0.00918499 0.000829984 -0.0641938)
(0.00898464 0.00088774 -0.0539022)
(0.00990777 -0.000667959 -0.11425)
(0.00967739 -0.000651376 -0.107469)
(0.00972195 -0.000674364 -0.10004)
(0.00956397 -0.000660164 -0.0919694)
(0.00948595 -0.000658767 -0.0832803)
(0.00933431 -0.000645755 -0.0740098)
(0.00916233 -0.000637815 -0.0642043)
(0.00895415 -0.000640079 -0.0539117)
(0.00941591 -0.00186523 -0.0912019)
(0.00936451 -0.00186181 -0.0870598)
(0.00935159 -0.00185965 -0.0823319)
(0.00929435 -0.0018705 -0.076964)
(0.00921278 -0.00188511 -0.0709119)
(0.00909683 -0.00191883 -0.0641382)
(0.00892884 -0.00197024 -0.0566151)
(0.00872507 -0.00206178 -0.0483219)
(0.00848207 -0.00284273 -0.0615883)
(0.00829559 -0.00279416 -0.0602173)
(0.00849626 -0.00284374 -0.0584318)
(0.0084073 -0.00286044 -0.0561283)
(0.00845374 -0.00293493 -0.0532027)
(0.00838725 -0.00302465 -0.0495377)
(0.00830024 -0.00315723 -0.045013)
(0.00815666 -0.00334157 -0.0395065)
(0.00759032 -0.00376828 -0.0382364)
(0.00737237 -0.00372003 -0.0383337)
(0.00762157 -0.00391225 -0.0382194)
(0.00754379 -0.00396261 -0.0377959)
(0.00764314 -0.00412254 -0.0369488)
(0.00762519 -0.00425664 -0.0355341)
(0.00759892 -0.00444074 -0.0333818)
(0.00749738 -0.00465365 -0.0302975)
(0.00689502 -0.00466268 -0.0234848)
(0.00674654 -0.00465678 -0.0240205)
(0.00694308 -0.00490839 -0.0244978)
(0.00689768 -0.00499941 -0.024835)
(0.00698947 -0.00520348 -0.0249543)
(0.00698591 -0.00535987 -0.0247305)
(0.00697449 -0.00555799 -0.0240016)
(0.00687694 -0.00574313 -0.0225615)
(0.00634429 -0.00567004 -0.0146835)
(0.00620858 -0.00567826 -0.0152574)
(0.00634368 -0.00598264 -0.0158327)
(0.00630159 -0.00608919 -0.016398)
(0.00636994 -0.00631005 -0.0168906)
(0.00636518 -0.00645642 -0.0172432)
(0.0063796 -0.0066233 -0.0173346)
(0.00621509 -0.00673593 -0.0169752)
(0.00262956 0.00237355 -0.0152564)
(0.00255487 0.00240665 -0.0161289)
(0.00257796 0.00255804 -0.0170633)
(0.00252719 0.0026326 -0.0180313)
(0.0025149 0.0027552 -0.0189892)
(0.00246299 0.0028457 -0.0198604)
(0.00242369 0.00294661 -0.0205191)
(0.00228003 0.00301293 -0.0207275)
(0.00278392 0.00190692 -0.0242701)
(0.00268476 0.00192647 -0.0251287)
(0.00274553 0.00207542 -0.0259688)
(0.00268731 0.00214996 -0.0267368)
(0.00268678 0.00227966 -0.0273481)
(0.0026333 0.00238346 -0.0276867)
(0.00258272 0.00250747 -0.027591)
(0.00246733 0.00259574 -0.0268367)
(0.00305489 0.00154495 -0.0395937)
(0.00292547 0.00156801 -0.0400225)
(0.00299668 0.00169255 -0.0402859)
(0.00290941 0.00175869 -0.0403006)
(0.00290062 0.00187012 -0.0399551)
(0.00282808 0.00196609 -0.039116)
(0.00276003 0.00208145 -0.0376225)
(0.00263929 0.00218386 -0.0352867)
(0.00312828 0.00109874 -0.0637948)
(0.00300582 0.00112687 -0.0627301)
(0.00305129 0.00122367 -0.0612918)
(0.00299781 0.00129266 -0.0593961)
(0.00297307 0.00138148 -0.056942)
(0.00291645 0.00146738 -0.0538278)
(0.00284837 0.00156303 -0.0499489)
(0.00274312 0.00165759 -0.0452038)
(0.00330708 0.000699049 -0.0945737)
(0.00312235 0.000708335 -0.0906523)
(0.00319632 0.000804792 -0.0861845)
(0.0030818 0.000843732 -0.0811338)
(0.00306281 0.000919301 -0.0754651)
(0.00297741 0.000976257 -0.0691603)
(0.00290276 0.00104399 -0.0622146)
(0.00279636 0.00110789 -0.054639)
(0.0033595 0.000243284 -0.118526)
(0.00306911 0.000254372 -0.111876)
(0.00319966 0.000307573 -0.104616)
(0.00303023 0.000333219 -0.0967732)
(0.00302721 0.000375369 -0.0883828)
(0.00293155 0.000407739 -0.0795048)
(0.00286403 0.000442348 -0.0702128)
(0.00277259 0.000471598 -0.0605924)
(0.00328685 -0.000214829 -0.118526)
(0.00302521 -0.000192335 -0.111874)
(0.00314475 -0.000195349 -0.104615)
(0.00298455 -0.000178873 -0.09677)
(0.00297917 -0.000173909 -0.0883783)
(0.0028829 -0.000166039 -0.0794987)
(0.00281355 -0.000166785 -0.0702052)
(0.00272222 -0.000175239 -0.0605835)
(0.0030929 -0.000610106 -0.0945862)
(0.00283571 -0.000565662 -0.0906593)
(0.00297306 -0.000602447 -0.086189)
(0.00282395 -0.000594535 -0.0811323)
(0.00283374 -0.000629259 -0.0754582)
(0.00275143 -0.000659078 -0.069147)
(0.00269677 -0.000713725 -0.0621952)
(0.00261593 -0.000777341 -0.0546145)
(0.00279231 -0.00098692 -0.0637589)
(0.00251626 -0.000951628 -0.0626928)
(0.00267716 -0.00108036 -0.0612505)
(0.00254286 -0.0011062 -0.0593524)
(0.00257301 -0.00119659 -0.0568949)
(0.00251309 -0.00125994 -0.0537783)
(0.00248798 -0.00135099 -0.0498972)
(0.00242352 -0.00143152 -0.0451519)
(0.0026383 -0.00131487 -0.0395313)
(0.00249434 -0.00131742 -0.0399573)
(0.00260173 -0.001441 -0.0402116)
(0.00251028 -0.00149929 -0.0402232)
(0.00253558 -0.00162814 -0.0398734)
(0.00248259 -0.00173481 -0.0390333)
(0.00245646 -0.00187947 -0.0375403)
(0.0023844 -0.00198046 -0.035208)
(0.00248574 -0.00179476 -0.0242334)
(0.00212637 -0.00167708 -0.0250851)
(0.00228232 -0.00201117 -0.0259138)
(0.00211981 -0.00204487 -0.0266745)
(0.00215349 -0.0022466 -0.0272775)
(0.00209737 -0.00234634 -0.0276111)
(0.00211772 -0.00249737 -0.0275128)
(0.00203257 -0.00254959 -0.0267599)
(0.00254161 -0.00237559 -0.0152139)
(0.00270451 -0.00268051 -0.0160792)
(0.00245914 -0.00269798 -0.0169975)
(0.00252437 -0.00292321 -0.0179578)
(0.00238949 -0.0029813 -0.0189064)
(0.00233855 -0.00307902 -0.019773)
(0.00225466 -0.00312369 -0.0204302)
(0.00210397 -0.00310096 -0.0206405)
(0.000904687 0.000803165 -0.015495)
(0.000825576 0.000751069 -0.0165019)
(0.000887895 0.000841696 -0.0175909)
(0.00083776 0.000831509 -0.0187385)
(0.000856571 0.000897592 -0.0199011)
(0.000827997 0.000929653 -0.0210025)
(0.000822801 0.000985828 -0.0219113)
(0.000759802 0.00104098 -0.0223719)
(0.0010253 0.000685726 -0.0246527)
(0.000989367 0.000678992 -0.0256545)
(0.00103075 0.000721312 -0.0266603)
(0.000989385 0.000721767 -0.0276177)
(0.000997566 0.000761399 -0.0284447)
(0.000962202 0.000783693 -0.0290264)
(0.000932979 0.000825972 -0.0292015)
(0.000880348 0.000862015 -0.028741)
(0.00112468 0.000562999 -0.0402166)
(0.00106393 0.000550086 -0.0407939)
(0.00111566 0.000595494 -0.0412271)
(0.00106831 0.000596611 -0.0414359)
(0.00107914 0.000631668 -0.0413111)
(0.0010452 0.000652483 -0.0407226)
(0.00101823 0.000690193 -0.0395133)
(0.000968182 0.000728972 -0.0374983)
(0.00124682 0.000425823 -0.0648184)
(0.00119406 0.000417555 -0.0638868)
(0.00123296 0.000440703 -0.0626037)
(0.00118194 0.000438877 -0.0608847)
(0.00118413 0.000458629 -0.0586352)
(0.0011442 0.000470989 -0.0557571)
(0.00110961 0.000494899 -0.0521534)
(0.001056 0.000523214 -0.0477309)
(0.00134343 0.000267675 -0.0961018)
(0.00127446 0.000259379 -0.092274)
(0.00131115 0.000270893 -0.0879203)
(0.00125388 0.000268372 -0.0830054)
(0.00125005 0.000278394 -0.0775015)
(0.00120602 0.00028576 -0.0713969)
(0.00116765 0.000300667 -0.0646974)
(0.00111325 0.000321269 -0.0574267)
(0.0014249 9.33054e-05 -0.120399)
(0.00136986 8.93125e-05 -0.113808)
(0.00138741 9.14783e-05 -0.106624)
(0.00132954 8.94455e-05 -0.0988821)
(0.00131557 9.11953e-05 -0.0906235)
(0.00126626 9.23442e-05 -0.0819181)
(0.00122151 9.53726e-05 -0.0728506)
(0.00116318 0.000101021 -0.063522)
(0.00145732 -9.89264e-05 -0.120394)
(0.00137326 -9.25734e-05 -0.113801)
(0.00140113 -0.000103977 -0.106616)
(0.00133003 -0.000102446 -0.0988726)
(0.00131462 -0.000111162 -0.0906126)
(0.00126134 -0.000115644 -0.0819062)
(0.00121584 -0.000123888 -0.072838)
(0.00115778 -0.000131165 -0.0635094)
(0.00132556 -0.000268871 -0.0960328)
(0.00130093 -0.00027222 -0.0922086)
(0.00129884 -0.000284946 -0.0878539)
(0.00127914 -0.000294744 -0.0829422)
(0.00126106 -0.00030867 -0.0774404)
(0.00123203 -0.000323257 -0.0713399)
(0.00119559 -0.000341675 -0.0646453)
(0.00114577 -0.000361613 -0.0573806)
(0.0012629 -0.000435712 -0.0647453)
(0.00120989 -0.000436769 -0.0638136)
(0.00124415 -0.000464773 -0.0625253)
(0.00120103 -0.000473853 -0.0608066)
(0.00120168 -0.000498211 -0.0585566)
(0.0011676 -0.000516811 -0.0556811)
(0.00113855 -0.000543919 -0.0520819)
(0.00108899 -0.000570408 -0.047666)
(0.00117077 -0.000591706 -0.0401811)
(0.00115051 -0.000603356 -0.0407533)
(0.00116653 -0.000642452 -0.0411795)
(0.00114299 -0.00066028 -0.0413837)
(0.00114095 -0.000695586 -0.0412543)
(0.00111459 -0.000721265 -0.040663)
(0.0010888 -0.000756314 -0.0394534)
(0.0010391 -0.000783418 -0.0374391)
(0.00108257 -0.000735133 -0.0245984)
(0.00106497 -0.000746086 -0.0255977)
(0.00108114 -0.00078688 -0.0265927)
(0.00106309 -0.000806578 -0.0275478)
(0.00106134 -0.000844094 -0.0283715)
(0.00103738 -0.000870816 -0.0289536)
(0.00101426 -0.000907271 -0.0291322)
(0.000963202 -0.00092982 -0.0286728)
(0.000995645 -0.000889575 -0.0155189)
(0.000985642 -0.000906054 -0.016519)
(0.000992971 -0.0009484 -0.0176121)
(0.000981029 -0.000971538 -0.0187523)
(0.00097754 -0.00100878 -0.0199104)
(0.00095733 -0.00103451 -0.0210022)
(0.000940888 -0.00106465 -0.0219024)
(0.000881242 -0.00108069 -0.0223501)
(0.000174655 0.000168176 -0.0156003)
(0.000131774 0.000144937 -0.0166675)
(0.000152236 0.000191851 -0.0178233)
(0.000115656 0.000179243 -0.0190498)
(0.000117958 0.00020787 -0.0203001)
(9.2469e-05 0.000211199 -0.0214998)
(8.71772e-05 0.000228851 -0.0225131)
(4.56932e-05 0.000236927 -0.0230787)
(0.000174645 0.00012043 -0.0248368)
(0.000128913 0.000101486 -0.0259039)
(0.000160779 0.000135261 -0.0269857)
(0.000122953 0.000126776 -0.0280274)
(0.00013008 0.000150293 -0.0289489)
(0.000106279 0.000155655 -0.0296346)
(9.68251e-05 0.000174409 -0.0299217)