/*--------------------------------*- C++ -*----------------------------------*\
| =========                 |                                                 |
| \\      /  F ield         | OpenFOAM: The Open Source CFD Toolbox           |
|  \\    /   O peration     | Version:  2.2.0                                 |
|   \\  /    A nd           | Web:      www.OpenFOAM.org                      |
|    \\/     M anipulation  |                                                 |
\*---------------------------------------------------------------------------*/
FoamFile
{
    version     2.0;
    format      ascii;
    class       volScalarField;
    location    "10";
    object      Theta;
}
// * * * * * * * * * * * * * * * * * * * * * * * * * * * * * * * * * * * * * //

dimensions      [0 2 -2 0 0 0 0];

internalField   nonuniform List<scalar> 
7920
(
2.71404
2.96342
3.08845
3.31692
3.47477
3.85117
3.72799
4.94141
2.71927
2.90841
3.03871
3.22295
3.38368
3.62614
3.6844
4.21136
2.7192
2.85277
2.99656
3.15217
3.31501
3.50394
3.63283
3.93477
2.67603
2.79301
2.9235
3.06062
3.20884
3.35913
3.50385
3.66687
2.63958
2.7451
2.86891
2.99775
3.13867
3.27456
3.42482
3.53556
2.58364
2.71126
2.82
2.94947
3.08523
3.2158
3.36698
3.45679
2.61976
2.70914
2.83507
2.95664
3.09394
3.22269
3.37266
3.46124
2.56106
2.76411
2.83522
2.99153
3.12323
3.26493
3.41584
3.52917
2.65372
2.79943
2.91546
3.06036
3.20646
3.35813
3.50321
3.66585
2.69635
2.85798
2.98606
3.14951
3.30941
3.49952
3.62911
3.93011
2.71506
2.90867
3.03663
3.22167
3.38222
3.62438
3.68386
4.20848
2.73412
2.95922
3.09615
3.31811
3.47762
3.85241
3.72899
4.94193
2.34554
2.34656
2.40142
2.44176
2.48434
2.5691
2.55764
2.82104
2.33672
2.34729
2.39394
2.42892
2.47502
2.52112
2.57953
2.62519
2.36125
2.34972
2.39905
2.42347
2.4634
2.49043
2.54296
2.53663
2.3161
2.37416
2.37902
2.41966
2.4477
2.47074
2.52339
2.49831
2.3971
2.36268
2.41464
2.42345
2.45613
2.46778
2.51147
2.47685
2.40524
2.37139
2.41783
2.42541
2.45397
2.46367
2.50302
2.46883
2.3985
2.37297
2.41602
2.42572
2.45412
2.46436
2.5038
2.46986
2.38081
2.36681
2.40719
2.42207
2.45237
2.4653
2.50898
2.47495
2.35981
2.35855
2.39798
2.42012
2.45506
2.47459
2.52701
2.50167
2.34016
2.35173
2.39024
2.41953
2.45818
2.48645
2.53887
2.53443
2.32756
2.35094
2.39082
2.42975
2.47458
2.52169
2.57952
2.6263
2.31848
2.35199
2.38971
2.4387
2.47835
2.56478
2.5538
2.81665
2.21739
2.18549
2.2346
2.24673
2.28162
2.31633
2.35349
2.41429
2.22034
2.18671
2.23276
2.24134
2.27522
2.294
2.35402
2.32891
2.22365
2.18845
2.23049
2.23505
2.26289
2.27497
2.31955
2.29181
2.22891
2.19502
2.23279
2.23612
2.26047
2.27132
2.31114
2.29092
2.23512
2.20315
2.23602
2.23806
2.25842
2.26755
2.29966
2.28461
2.23743
2.20929
2.23797
2.24005
2.2582
2.26717
2.296
2.28619
2.23354
2.21161
2.2367
2.24094
2.25835
2.26776
2.29644
2.28679
2.21373
2.20911
2.22689
2.23681
2.2544
2.26516
2.29727
2.28304
2.23382
2.19364
2.23495
2.23613
2.26124
2.27164
2.31131
2.29135
2.21656
2.18909
2.22712
2.23348
2.26056
2.27314
2.31746
2.2906
2.20621
2.19001
2.22724
2.24042
2.27291
2.29277
2.35263
2.3285
2.19614
2.19095
2.22559
2.24534
2.2775
2.31368
2.35098
2.41134
2.11645
2.0936
2.11677
2.11894
2.13356
2.14386
2.16619
2.17244
2.1166
2.09476
2.11559
2.1168
2.13052
2.13452
2.16518
2.13596
2.11503
2.09793
2.11381
2.11507
2.12492
2.12687
2.14695
2.12227
2.11101
2.10213
2.11304
2.11572
2.12383
2.12662
2.14363
2.1277
2.14592
2.09706
2.12884
2.11853
2.12938
2.12908
2.14186
2.12968
2.15545
2.09981
2.13305
2.12125
2.13118
2.13064
2.14159
2.13244
2.14776
2.10083
2.13033
2.12066
2.13028
2.13027
2.14138
2.1325
2.14135
2.09973
2.12657
2.11914
2.12861
2.12892
2.14149
2.12942
2.12958
2.09724
2.12068
2.11664
2.1269
2.12837
2.1451
2.12909
2.12047
2.09558
2.11586
2.11464
2.12527
2.12695
2.14658
2.12297
2.10963
2.09675
2.11297
2.11666
2.12955
2.13432
2.16433
2.1367
2.10327
2.09665
2.11129
2.11794
2.13104
2.14239
2.16441
2.17147
2.08133
2.04122
2.06819
2.06126
2.07122
2.07489
2.0856
2.08895
2.0814
2.04167
2.06745
2.05989
2.06921
2.06971
2.08398
2.06963
2.08492
2.0425
2.06856
2.05981
2.06787
2.0672
2.07685
2.06475
2.08542
2.04467
2.06907
2.06065
2.0678
2.0673
2.07544
2.067
2.08498
2.04755
2.06936
2.06166
2.06771
2.06726
2.07351
2.0675
2.08371
2.05023
2.06922
2.06271
2.06788
2.06775
2.07315
2.06896
2.07609
2.05261
2.06628
2.06264
2.06688
2.06733
2.07272
2.06873
2.06873
2.05166
2.06304
2.06114
2.06553
2.06635
2.07276
2.06709
2.0849
2.048
2.06827
2.06198
2.06783
2.0675
2.07549
2.06667
2.10331
2.03716
2.07598
2.06067
2.07084
2.06897
2.07844
2.06622
2.08027
2.04103
2.06707
2.05923
2.06875
2.06937
2.08336
2.06992
2.08064
2.04298
2.06799
2.06226
2.07156
2.07561
2.08579
2.08993
2.04617
2.01837
2.03557
2.03031
2.03558
2.03748
2.04153
2.04587
2.04829
2.01876
2.03576
2.02996
2.03471
2.03499
2.0403
2.03597
2.04561
2.0206
2.0351
2.03056
2.03451
2.03471
2.03847
2.03487
2.04161
2.02247
2.03357
2.03054
2.03368
2.03413
2.03732
2.03506
2.06956
2.01614
2.04559
2.03226
2.03863
2.03672
2.03924
2.03686
2.07724
2.01483
2.04856
2.03298
2.03966
2.03731
2.03951
2.03718
2.07077
2.01608
2.04629
2.03257
2.03892
2.03696
2.0393
2.03712
2.0688
2.01688
2.04508
2.03269
2.03852
2.03687
2.03927
2.03678
2.06159
2.01756
2.04176
2.03179
2.03711
2.03619
2.03908
2.03659
2.05352
2.0182
2.03795
2.03056
2.03526
2.03512
2.03835
2.03574
2.04708
2.02115
2.03537
2.0314
2.03523
2.03622
2.04045
2.03817
2.02327
2.02513
2.02587
2.02929
2.03149
2.03517
2.03911
2.044
2.03225
2.00575
2.02111
2.01507
2.01873
2.01974
2.01977
2.0264
2.04334
2.00327
2.02518
2.01546
2.01983
2.01927
2.0197
2.02117
2.04443
2.00303
2.02605
2.01579
2.02059
2.01966
2.02066
2.02109
2.04916
2.00309
2.02788
2.01657
2.02137
2.01983
2.02079
2.02007
2.05045
2.00384
2.0286
2.0173
2.02199
2.02033
2.02132
2.02023
2.04749
2.00401
2.0271
2.01651
2.02088
2.01934
2.02041
2.01935
2.04999
2.00599
2.02857
2.01878
2.02272
2.02129
2.0221
2.0207
2.01707
2.01335
2.01489
2.01618
2.01681
2.0177
2.01914
2.01833
2.06398
2.00036
2.03442
2.01827
2.02483
2.022
2.02329
2.02082
2.07794
1.99592
2.03937
2.01864
2.0265
2.02341
2.02434
2.02363
2.06432
1.99783
2.03375
2.01666
2.02341
2.02151
2.02147
2.02307
2.06128
1.99988
2.03318
2.01833
2.02464
2.02447
2.02312
2.03241
2.02364
2.00012
2.01341
2.0078
2.0105
2.01114
2.00987
2.01644
2.03095
1.99922
2.01598
2.00813
2.01104
2.01061
2.00934
2.01286
2.03341
1.99722
2.01773
2.00863
2.01277
2.0122
2.01212
2.01452
2.02984
2.00565
2.01538
2.01194
2.01274
2.01262
2.01203
2.013
2.04103
1.99805
2.02104
2.01035
2.01474
2.01325
2.01343
2.01376
2.06058
1.99295
2.02871
2.01146
2.0177
2.01474
2.01482
2.01395
2.05528
1.9938
2.02701
2.01097
2.01717
2.01448
2.01478
2.01397
2.057
1.99273
2.02726
2.01066
2.01693
2.0143
2.01442
2.01411
2.06744
1.99504
2.03208
2.0145
2.02053
2.0178
2.01667
2.01756
2.03727
1.99281
2.01831
2.00581
2.01094
2.01031
2.00946
2.01407
2.09576
1.98967
2.04259
2.0174
2.02456
2.02209
2.01623
2.02611
1.93809
2.02672
1.97647
2.00433
1.99467
2.00238
1.99992
2.00994
2.02713
1.99318
2.01292
2.00289
2.00691
2.00593
2.00514
2.00828
2.01208
1.99457
2.00665
2.00024
2.00328
2.00253
2.0023
2.00311
2.01803
1.99554
2.00936
2.00228
2.00547
2.00447
2.00468
2.00524
2.01335
1.99517
2.00706
2.00084
2.00377
2.00278
2.00317
2.00312
2.01566
1.99635
2.00813
2.00207
2.00476
2.00371
2.00409
2.00383
2.01059
1.99646
2.00585
2.00089
2.00326
2.00246
2.00293
2.00282
2.01598
1.99569
2.00809
2.002
2.00468
2.00374
2.00401
2.00384
2.00474
2.00164
2.00283
2.00241
2.00256
2.00264
2.00266
2.003
2.01355
1.99709
2.00721
2.00211
2.00441
2.00371
2.00373
2.00417
2.00697
1.99858
2.0043
2.00144
2.00292
2.00287
2.00273
2.00412
2.00715
1.99927
2.00431
2.00191
2.00303
2.00317
2.00247
2.00437
2.00524
1.99999
2.0035
2.002
2.00284
2.00334
2.00259
2.00556
2.01229
1.99515
2.006
2.00035
2.0028
2.00238
2.00153
2.00424
2.01202
1.99509
2.00553
1.99989
2.00211
2.00138
2.00075
2.00205
2.01035
1.99564
2.00529
2.00046
2.00278
2.00224
2.00221
2.00304
2.00647
1.99849
2.00286
2.00064
2.00147
2.00118
2.00107
2.00144
2.02328
1.99267
2.01033
2.00119
2.00474
2.00305
2.00312
2.00279
2.00641
1.99498
2.0036
1.99879
2.0013
2.00049
2.00097
2.00102
2.01252
1.99592
2.00613
2.00069
2.00305
2.00202
2.00216
2.00199
2.00834
1.99595
2.0042
1.99979
2.00187
2.00118
2.00138
2.0016
2.00751
1.99677
2.00386
2.00011
2.00186
2.00132
2.00131
2.00165
2.00736
1.99715
2.00366
2.0003
2.00182
2.00147
2.0014
2.00205
2.00502
1.99793
2.00274
2.00032
2.00144
2.00126
2.00087
2.00155
2.00574
1.99804
2.00257
2.00026
2.00123
2.001
2.00127
2.00131
2.00971
1.99809
2.00347
2.00075
2.00126
2.00124
1.99985
2.00226
2.0134
1.99181
2.0059
1.9983
2.00147
2.00053
1.99969
2.00127
2.00731
1.99465
2.00345
1.99845
2.00078
2.00006
2
2.00081
2.01033
1.99447
2.00458
1.99903
2.00143
2.00043
2.00041
2.00058
2.00634
1.99467
2.00285
1.9983
2.00049
1.99971
1.99999
2.00011
2.00773
1.99528
2.00332
1.99891
2.00086
2.00003
2.0002
2.00015
2.00317
1.99635
2.00158
1.99874
2.00027
1.99982
2.00001
2.00016
2.0036
1.99631
2.00145
1.9986
1.99997
1.99954
1.99966
1.99994
2.01681
1.99268
2.00721
1.9993
2.00247
2.00102
2.00087
2.00117
2.00132
1.99675
2.00061
1.99841
1.99958
1.99953
1.99924
2.00063
2.00675
1.99668
2.00285
1.99954
2.00074
2.00048
1.9995
2.0011
2.0031
1.9972
2.00123
1.99905
1.99992
2.00003
1.99906
2.00127
2.00313
1.99396
1.99978
1.99612
1.99716
1.99659
1.99503
1.99686
2.00304
1.99383
1.99954
1.9959
1.99685
1.99624
1.9947
1.9965
1.99897
1.99489
1.99835
1.99611
1.997
1.99671
1.99588
1.9973
1.99984
1.99376
1.99831
1.99533
1.99645
1.99589
1.9953
1.99618
2.01752
1.98931
2.00585
1.99662
1.99994
1.99797
1.99754
1.9974
1.99842
1.99326
1.99789
1.99474
1.99622
1.99549
1.99542
1.9956
2.00756
1.99305
2.00172
1.99671
1.99849
1.9973
1.99691
1.99676
2.00247
1.99311
1.99948
1.99558
1.9971
1.99628
1.99595
1.99633
2.00243
1.99384
1.99953
1.996
1.99724
1.99652
1.99584
1.99655
2.00225
1.99429
1.9994
1.99626
1.99726
1.9968
1.99584
1.99736
1.99886
1.99525
1.99783
1.99584
1.99619
1.99595
1.99432
1.99631
2.00016
1.99484
1.9985
1.99607
1.99663
1.99634
1.99477
1.99654
2.00724
1.98925
1.99978
1.99381
1.99564
1.99481
1.99285
1.99569
1.99624
1.99109
1.99511
1.9924
1.99324
1.99315
1.99109
1.99477
2.00277
1.99061
1.99809
1.99396
1.99553
1.9952
1.99415
1.99711
1.99911
1.99006
1.99637
1.99277
1.99434
1.99395
1.99334
1.99517
1.99877
1.99009
1.99624
1.99285
1.9945
1.99413
1.99394
1.99527
1.99868
1.98999
1.99603
1.99276
1.99434
1.99395
1.99385
1.99481
1.99464
1.99104
1.99461
1.99268
1.99395
1.99383
1.99379
1.99482
1.99659
1.99014
1.99527
1.9924
1.99393
1.99369
1.99359
1.99494
2.01232
1.98683
2.00188
1.99369
1.99676
1.99541
1.99464
1.99622
1.9988
1.98962
1.99651
1.99251
1.99434
1.99422
1.99325
1.99678
2.0043
1.98996
1.99854
1.99354
1.99496
1.99453
1.99187
1.99623
2.00057
1.99039
1.997
1.99304
1.99422
1.99401
1.99175
1.99553
1.97622
1.96318
1.96366
1.95494
1.94927
1.94202
1.93106
1.92562
1.97646
1.9625
1.96379
1.95518
1.9496
1.94426
1.93014
1.93608
1.97286
1.96275
1.96325
1.95617
1.9517
1.94743
1.93703
1.94205
1.97243
1.96062
1.96256
1.955
1.9512
1.94662
1.93737
1.93965
1.983
1.9569
1.96666
1.95551
1.95348
1.94813
1.94037
1.94058
1.97289
1.95668
1.9623
1.95345
1.95125
1.94635
1.93949
1.93866
1.97719
1.95685
1.96413
1.95448
1.95237
1.94722
1.9402
1.93916
1.97618
1.95773
1.96398
1.9546
1.95219
1.94725
1.93967
1.94004
1.97675
1.95937
1.96448
1.95516
1.95201
1.94701
1.93779
1.93983
1.9785
1.96091
1.9655
1.95618
1.95246
1.94776
1.93731
1.94237
1.97471
1.96243
1.96325
1.95483
1.94931
1.94406
1.92988
1.93604
1.97421
1.96311
1.96295
1.95456
1.9489
1.94179
1.93086
1.92541
1.98165
1.96796
1.97002
1.96249
1.95837
1.95292
1.94431
1.94133
1.97988
1.96702
1.96947
1.96215
1.95821
1.95455
1.94298
1.95025
1.98157
1.96646
1.97095
1.96359
1.96106
1.95806
1.94995
1.9562
1.98049
1.96491
1.97025
1.96275
1.96079
1.9575
1.95048
1.95392
1.97895
1.96359
1.96949
1.96222
1.96091
1.95774
1.95228
1.95419
1.97892
1.96247
1.96913
1.96172
1.96069
1.95739
1.95249
1.95316
1.97596
1.96316
1.96815
1.96171
1.96049
1.9574
1.95256
1.95322
1.97272
1.96474
1.96691
1.96171
1.95983
1.95709
1.95184
1.95368
1.99075
1.96236
1.9745
1.9634
1.96265
1.95849
1.95156
1.95432
1.98713
1.96307
1.97348
1.96284
1.96181
1.9582
1.95039
1.95652
1.98926
1.96388
1.97356
1.96226
1.95978
1.95532
1.94358
1.95088
1.98837
1.96439
1.9732
1.96203
1.95949
1.95364
1.94465
1.94291
2.74283
3.02665
3.15006
3.3989
3.56807
3.95764
3.85139
5.05954
2.7358
2.99742
3.11307
3.33028
3.50668
3.76407
3.864
4.36038
2.72586
2.97026
3.0798
3.27714
3.4487
3.6492
3.8041
4.06774
2.72884
2.93868
3.04886
3.22295
3.38196
3.54413
3.70776
3.84507
2.698
2.92586
3.01563
3.18758
3.33433
3.48203
3.63995
3.73263
2.69801
2.915
3.00278
3.16817
3.30836
3.44775
3.59874
3.67381
2.69695
2.91007
2.99927
3.1625
3.30236
3.44024
3.59133
3.66295
2.70141
2.91426
3.00742
3.1729
3.31725
3.4591
3.61581
3.69428
2.70621
2.92451
3.02404
3.19658
3.35017
3.50505
3.67134
3.78379
2.71842
2.94184
3.0514
3.23549
3.39966
3.58174
3.73784
3.94196
2.71914
2.95955
3.0771
3.27996
3.45344
3.69055
3.81645
4.22749
2.73884
2.97048
3.10216
3.32272
3.48244
3.8323
3.74541
4.79721
2.26668
2.32382
2.34958
2.40413
2.44031
2.53249
2.50863
2.80998
2.26082
2.31468
2.337
2.38337
2.4206
2.47552
2.50496
2.606
2.25915
2.30606
2.32845
2.36965
2.40574
2.44675
2.48617
2.53548
2.25288
2.29747
2.3179
2.35534
2.38918
2.42032
2.46645
2.47713
2.25134
2.2921
2.31212
2.34683
2.37881
2.40424
2.451
2.44068
2.24919
2.2894
2.30885
2.34243
2.3735
2.39662
2.44356
2.4249
2.25388
2.29142
2.31211
2.34538
2.37657
2.39992
2.44606
2.42903
2.24801
2.29879
2.31487
2.35267
2.38478
2.41279
2.45856
2.4566
2.27243
2.30328
2.33244
2.36652
2.40201
2.43516
2.47573
2.50045
2.26877
2.32099
2.34395
2.38879
2.42689
2.47687
2.51082
2.5976
2.28698
2.33164
2.35941
2.40479
2.4404
2.50302
2.50717
2.66018
2.29341
2.35004
2.38144
2.44027
2.47931
2.59062
2.54712
2.94514
2.14561
2.17774
2.1948
2.22573
2.25551
2.29998
2.329
2.42734
2.14329
2.17178
2.18674
2.21291
2.24002
2.26965
2.30894
2.33459
2.14122
2.16731
2.18134
2.20543
2.23056
2.2568
2.293
2.31404
2.1362
2.16309
2.17495
2.19769
2.22105
2.24444
2.28057
2.29448
2.14225
2.15851
2.17471
2.19379
2.21682
2.23779
2.27288
2.28169
2.1377
2.15869
2.17168
2.19165
2.21365
2.2341
2.26882
2.276
2.1431
2.15944
2.17461
2.19353
2.21569
2.23613
2.26991
2.27869
2.14409
2.16287
2.17796
2.19803
2.22091
2.24341
2.27656
2.29295
2.14906
2.16802
2.18378
2.20463
2.22789
2.2527
2.28265
2.30985
2.15537
2.1762
2.19415
2.21806
2.24415
2.27619
2.30542
2.35874
2.15791
2.18281
2.19916
2.22414
2.2484
2.2828
2.29912
2.36839
2.16598
2.19417
2.21566
2.24755
2.27832
2.33452
2.34733
2.51703
2.0698
2.08726
2.08952
2.10216
2.11289
2.12754
2.1449
2.17035
2.07456
2.08285
2.08804
2.09639
2.10595
2.1141
2.13255
2.1295
2.07177
2.08086
2.08482
2.09269
2.10106
2.10858
2.12356
2.12354
2.07162
2.07912
2.08319
2.0902
2.09794
2.10473
2.11876
2.11868
2.07132
2.07808
2.08213
2.08865
2.09602
2.1023
2.11555
2.11499
2.07201
2.07803
2.08232
2.08859
2.09589
2.10204
2.115
2.11467
2.07185
2.07909
2.083
2.08961
2.09694
2.10341
2.11597
2.1171
2.07541
2.08078
2.08595
2.09243
2.10025
2.10759
2.11981
2.12473
2.08241
2.08187
2.09095
2.09597
2.10467
2.11263
2.12336
2.13287
2.07838
2.08791
2.09329
2.10223
2.11173
2.12348
2.13485
2.15602
2.08654
2.09072
2.0985
2.10612
2.11503
2.12644
2.13218
2.15638
2.08762
2.09705
2.10635
2.11836
2.13152
2.15343
2.16278
2.23117
2.03538
2.04273
2.04456
2.05022
2.05576
2.0622
2.07245
2.08073
2.03512
2.0414
2.0428
2.04734
2.0519
2.05562
2.06564
2.06169
2.03519
2.04025
2.04183
2.04578
2.04981
2.05334
2.06118
2.0599
2.03516
2.03961
2.04113
2.04475
2.04844
2.05178
2.05893
2.05849
2.03413
2.03949
2.04034
2.04415
2.04755
2.05084
2.05748
2.05739
2.03604
2.03908
2.04116
2.04429
2.04788
2.05106
2.05751
2.05778
2.03698
2.03952
2.04191
2.04492
2.04859
2.05187
2.05813
2.05916
2.03786
2.04046
2.04313
2.04626
2.05018
2.05386
2.06003
2.06269
2.03955
2.04179
2.04482
2.048
2.0521
2.05609
2.06183
2.06617
2.04161
2.04378
2.04756
2.05124
2.05613
2.06129
2.06768
2.07602
2.04229
2.0457
2.04922
2.05314
2.05794
2.06286
2.06777
2.0759
2.04553
2.0482
2.05398
2.05907
2.06626
2.07541
2.08333
2.10915
2.0098
2.02212
2.01811
2.02318
2.0249
2.02818
2.0334
2.03625
2.01782
2.01992
2.02059
2.02274
2.02465
2.02632
2.03101
2.02871
2.01425
2.01942
2.01863
2.02118
2.02272
2.02446
2.02817
2.02723
2.01588
2.01917
2.0191
2.02117
2.02266
2.02426
2.02754
2.02718
2.016
2.01881
2.01897
2.02081
2.02229
2.02382
2.02687
2.02676
2.01651
2.01877
2.01926
2.02093
2.02247
2.02399
2.02696
2.0271
2.01738
2.01892
2.01982
2.02131
2.02295
2.02449
2.0274
2.02788
2.01806
2.01921
2.02047
2.02187
2.02369
2.02534
2.02827
2.02933
2.01933
2.01979
2.02154
2.02286
2.02486
2.02662
2.02955
2.03118
2.01881
2.02071
2.02217
2.02395
2.02628
2.02845
2.03183
2.03453
2.02143
2.02161
2.02413
2.02561
2.02823
2.03021
2.03359
2.03562
2.02207
2.02267
2.02585
2.02795
2.03158
2.0353
2.04012
2.04923
2.0052
2.00978
2.00839
2.01048
2.01126
2.01258
2.01516
2.0157
2.00493
2.00936
2.00799
2.0098
2.01042
2.01127
2.01363
2.01207
2.00715
2.00882
2.00854
2.00961
2.01018
2.01087
2.01258
2.01179
2.00604
2.00898
2.00811
2.00948
2.00995
2.01073
2.01225
2.01188
2.00018
2.01073
2.0055
2.00916
2.00874
2.01
2.01137
2.01145
2.00762
2.00847
2.00874
2.0095
2.01016
2.01085
2.01216
2.01221
2.00573
2.00878
2.00798
2.00924
2.00978
2.0106
2.01199
2.01223
2.00738
2.00881
2.00889
2.00979
2.01051
2.01126
2.01267
2.01288
2.00841
2.00894
2.00955
2.01025
2.01118
2.0119
2.01358
2.01375
2.00941
2.00908
2.01026
2.01074
2.01189
2.01246
2.01445
2.01404
2.01013
2.00963
2.01131
2.01188
2.01347
2.01404
2.01697
2.01577
2.01095
2.0097
2.01219
2.01264
2.01469
2.0156
2.01899
2.01939
1.99036
2.00822
1.99846
2.00418
2.0027
2.00411
2.00544
2.00518
2.00273
2.00435
2.00371
2.00469
2.00482
2.00533
2.00624
2.00583
1.99665
2.00485
2.00099
2.00336
2.00302
2.00377
2.00458
2.0044
2.00021
2.00475
2.00254
2.00417
2.004
2.00461
2.00523
2.00533
2.00056
2.0044
2.00259
2.00394
2.00384
2.0044
2.00498
2.00513
2.00116
2.0042
2.00292
2.00403
2.00407
2.00459
2.0052
2.00537
2.0042
2.00382
2.00407
2.00437
2.00459
2.00491
2.00552
2.0056
2.00417
2.00377
2.0042
2.00445
2.00477
2.00507
2.00575
2.00569
1.9992
2.00515
2.00234
2.00437
2.00429
2.00494
2.00601
2.00583
2.00319
2.00421
2.00405
2.00465
2.00507
2.00516
2.00646
2.00502
2.00358
2.00439
2.00478
2.00541
2.00632
2.00645
2.00895
2.00672
2.00495
2.00418
2.00538
2.00554
2.0066
2.00646
2.00905
2.00605
1.9949
2.00278
1.99881
2.00108
2.00057
2.00104
2.00188
2.00111
1.99425
2.00258
1.99861
2.00089
2.00042
2.00092
2.00157
2.00103
1.99865
2.00193
2.00007
2.00112
2.00077
2.00101
2.00134
2.00105
1.99816
2.00178
2.00004
2.0011
2.00086
2.00116
2.00147
2.00134
1.98999
2.00438
1.99658
2.00077
1.9994
2.00032
2.00059
2.00082
1.99766
2.00249
1.99983
2.00139
2.00091
2.0013
2.00149
2.00152
1.99489
2.00249
1.99863
2.00073
2.00017
2.00068
2.00104
2.00108
1.99766
2.00243
1.99986
2.00132
2.00093
2.00119
2.00159
2.00118
1.99806
2.00196
2.00006
2.00122
2.00109
2.00123
2.00202
2.00113
2.00082
2.00193
2.00126
2.00172
2.00176
2.00143
2.00252
2.00034
1.99981
2.00136
2.00135
2.00175
2.00243
2.00205
2.00425
2.00114
2.01012
2.00072
2.00498
2.0029
2.00386
2.00258
2.00505
2.00048
2.00148
2.00033
2.00092
2.00068
2.00079
2.00084
2.00083
2.00118
2.00025
2.00023
2.00041
2.00035
2.00044
2.0005
2.00049
2.00065
2.00201
2.00016
2.00114
2.00069
2.00087
2.00084
2.00083
2.00097
2.00127
1.99992
2.00083
2.00041
2.00064
2.00062
2.00067
2.00076
2.00202
1.99994
2.00116
2.00058
2.00084
2.00078
2.00082
2.00085
2.00191
1.99968
2.00105
2.00038
2.00069
2.00061
2.0007
2.00071
2.00248
1.99986
2.00139
2.00069
2.00103
2.00091
2.00101
2.0009
1.99956
1.99989
2.00014
1.99995
2.00022
2.00018
2.00044
2.00027
2.00738
1.99839
2.00341
2.00091
2.0019
2.00136
2.00166
2.00111
1.99951
1.99982
2.00008
1.99987
2.00019
1.99995
2.00053
1.99963
2.00423
1.99975
2.00231
2.00116
2.00189
2.00141
2.0024
2.00106
2.00229
1.9994
2.00125
2.00025
2.00091
2.00023
2.00147
1.99926
1.99907
1.99986
1.99942
1.9996
1.99951
1.99953
1.99952
1.99947
1.99903
1.99978
1.99943
1.99957
1.99951
1.99955
1.99945
1.99959
1.99899
1.99983
1.99947
1.99963
1.9996
1.99966
1.99961
1.99978
1.99874
1.9997
1.99936
1.99947
1.99948
1.99953
1.9995
1.99968
2.00155
1.99925
2.00045
1.99983
2.00002
1.99991
1.99985
1.99991
1.99962
1.99933
1.99968
1.99946
1.9996
1.99958
1.9996
1.99967
2.00126
1.99928
2.00035
1.99978
1.99998
1.99985
1.99986
1.9998
2.0006
1.99907
2.00006
1.99951
1.99975
1.9996
1.99969
1.99951
2.00063
1.99902
2.0001
1.99952
1.99983
1.99966
1.99992
1.99959
2.00125
1.99897
2.00029
1.99952
1.99983
1.99946
1.99975
1.99888
1.99914
1.99914
1.99968
1.99943
1.99987
1.99961
2.00047
1.99935
2.00108
1.99855
2.00031
1.99934
1.9999
1.99934
2.00003
1.99819
1.997
1.99798
1.99714
1.99709
1.99663
1.99626
1.99559
1.99513
1.99809
1.99792
1.99763
1.99739
1.99701
1.99673
1.99599
1.99618
1.99837
1.99782
1.9978
1.99744
1.99715
1.99687
1.99629
1.99633
1.99831
1.99776
1.99783
1.99744
1.99721
1.99692
1.99639
1.99634
1.99855
1.99772
1.99794
1.99748
1.9973
1.99699
1.99651
1.9964
1.99879
1.99766
1.99803
1.99748
1.99732
1.99697
1.99651
1.99632
1.99807
1.99764
1.99783
1.99741
1.9973
1.99697
1.99659
1.99632
1.99941
1.9973
1.99811
1.99724
1.99714
1.99664
1.99627
1.99576
2.00506
1.99521
2.00071
1.9974
1.99834
1.99736
1.99713
1.99639
1.99475
1.99773
1.99611
1.99642
1.99601
1.99559
1.99543
1.99437
2.00158
1.99701
1.99905
1.99766
1.99785
1.99706
1.99721
1.99587
1.99771
1.99659
1.99705
1.99613
1.99604
1.99499
1.99513
1.99231
1.99511
1.99543
1.99487
1.99474
1.9943
1.99391
1.99326
1.99253
1.99533
1.9956
1.99521
1.99516
1.99483
1.99478
1.99395
1.99487
1.99557
1.99559
1.99538
1.99529
1.99506
1.99504
1.99451
1.99518
1.99581
1.99571
1.99558
1.99549
1.9953
1.99528
1.99479
1.99534
1.99418
1.99626
1.9949
1.9955
1.99509
1.99523
1.99481
1.9954
1.99589
1.99559
1.99563
1.99548
1.99536
1.99534
1.99496
1.99542
1.99631
1.99544
1.99571
1.99542
1.99532
1.99523
1.99491
1.99517
1.99546
1.99518
1.99529
1.99504
1.99496
1.99479
1.99459
1.99446
1.99591
1.99502
1.99538
1.99499
1.99497
1.99468
1.99473
1.9941
1.99572
1.99458
1.99498
1.99438
1.99431
1.99363
1.9938
1.99186
1.99516
1.99455
1.99497
1.99453
1.99475
1.9941
1.99517
1.99275
1.99574
1.99362
1.99439
1.99322
1.9932
1.99156
1.99263
1.98635
1.9685
1.97262
1.96231
1.95922
1.95137
1.94369
1.93561
1.92099
1.97999
1.97024
1.96832
1.9618
1.95592
1.94966
1.94031
1.93652
1.97491
1.97129
1.96676
1.96177
1.9559
1.9502
1.94189
1.93783
1.97756
1.97187
1.9685
1.96328
1.95777
1.95226
1.94411
1.9405
1.97722
1.97191
1.96856
1.96344
1.95809
1.95276
1.94491
1.94157
1.97741
1.97187
1.96872
1.96356
1.95831
1.95299
1.94527
1.94185
1.97736
1.9715
1.96851
1.96323
1.95802
1.9526
1.94507
1.94115
1.9769
1.97071
1.96778
1.96224
1.95695
1.95113
1.94375
1.9384
1.97693
1.96978
1.96731
1.96143
1.95626
1.95005
1.94337
1.93623
1.97399
1.96881
1.96475
1.95891
1.95304
1.94559
1.93895
1.92704
1.97557
1.96775
1.96515
1.95883
1.95368
1.94599
1.94209
1.92781
1.97316
1.9654
1.96166
1.95409
1.94763
1.93622
1.93199
1.90111
1.97835
1.97433
1.97038
1.96566
1.96046
1.95387
1.94842
1.93554
1.97882
1.9751
1.97157
1.96742
1.96263
1.95797
1.95123
1.94812
1.98009
1.97546
1.97254
1.96836
1.96389
1.95956
1.95342
1.95062
1.97956
1.9761
1.97294
1.9692
1.96494
1.96098
1.95497
1.95282
1.97513
1.97764
1.97131
1.96937
1.96466
1.96123
1.95545
1.95391
1.98147
1.97606
1.97399
1.96993
1.96596
1.96215
1.95639
1.95469
1.97882
1.97584
1.9727
1.9691
1.96507
1.9613
1.95582
1.95376
1.97948
1.97521
1.97256
1.96856
1.9645
1.96031
1.95494
1.95143
1.97895
1.97431
1.97182
1.96762
1.96364
1.9591
1.95446
1.9492
1.9784
1.97292
1.97039
1.96553
1.96115
1.9553
1.95076
1.94083
1.9777
1.97216
1.96999
1.96521
1.96146
1.95549
1.95371
1.94139
1.97687
1.96991
1.96737
1.96115
1.95632
1.94688
1.94497
1.91733
2.75209
3.02281
3.15465
3.39868
3.56996
3.95727
3.85327
5.05081
2.74787
2.99535
3.12084
3.33391
3.51388
3.77045
3.87675
4.3645
2.73465
2.97076
3.08721
3.28218
3.45646
3.6563
3.81499
4.07082
2.72569
2.9453
3.05292
3.23051
3.39106
3.5549
3.72275
3.85704
2.7178
2.92896
3.03102
3.19946
3.35064
3.49922
3.66079
3.7523
2.71326
2.9201
3.01877
3.18234
3.32782
3.46957
3.62483
3.70205
2.71494
2.91996
3.01933
3.18252
3.32801
3.46967
3.62486
3.70205
2.71741
2.92941
3.03086
3.19962
3.35063
3.49927
3.66076
3.75232
2.7196
2.94647
3.05039
3.22985
3.38981
3.55407
3.72192
3.85642
2.73655
2.97117
3.08789
3.28277
3.45686
3.6567
3.81511
4.07112
2.74312
2.99591
3.11866
3.33304
3.51248
3.76942
3.87549
4.36366
2.75239
3.02281
3.15462
3.39881
3.56994
3.95762
3.85281
5.05186
2.26361
2.3243
2.34836
2.40404
2.43996
2.53334
2.50818
2.81574
2.25789
2.31433
2.33503
2.38219
2.41875
2.47442
2.50147
2.60755
2.25292
2.30555
2.32494
2.36784
2.40335
2.44542
2.48383
2.53738
2.24325
2.29673
2.31241
2.35226
2.38512
2.41708
2.46222
2.47553
2.24021
2.2902
2.30516
2.34238
2.3733
2.39945
2.44564
2.43719
2.24003
2.28627
2.30177
2.33712
2.36705
2.39035
2.43679
2.41848
2.23803
2.28641
2.301
2.33682
2.36669
2.39011
2.4366
2.41838
2.24088
2.29021
2.30543
2.34254
2.37346
2.3996
2.44575
2.43734
2.24503
2.29688
2.31305
2.35268
2.38549
2.41741
2.46244
2.47583
2.25022
2.30616
2.32388
2.36768
2.40294
2.44523
2.48365
2.5374
2.25698
2.31521
2.33473
2.38253
2.41883
2.4746
2.50164
2.60775
2.26199
2.32482
2.34769
2.40404
2.43971
2.53321
2.50814
2.81546
2.13731
2.181
2.19139
2.22622
2.2546
2.30105
2.32822
2.43407
2.14838
2.17055
2.18863
2.21352
2.24074
2.27119
2.30745
2.33999
2.13729
2.16649
2.17957
2.20468
2.22992
2.25763
2.29292
2.31974
2.13777
2.16171
2.17514
2.1977
2.22134
2.24555
2.28085
2.29845
2.13397
2.15805
2.17046
2.19212
2.21479
2.23713
2.27223
2.28413
2.13284
2.1563
2.1684
2.1895
2.21166
2.23298
2.26809
2.2769
2.13321
2.15634
2.16846
2.18948
2.2116
2.23288
2.26796
2.27676
2.13324
2.15809
2.17031
2.19216
2.21486
2.23727
2.27238
2.2843
2.1322
2.16337
2.17262
2.19736
2.22018
2.2448
2.28016
2.29779
2.14327
2.16597
2.18206
2.20573
2.23132
2.25868
2.29388
2.32042
2.14296
2.1712
2.18631
2.21256
2.23942
2.27002
2.3066
2.33876
2.14706
2.17756
2.19564
2.22647
2.25643
2.30214
2.32927
2.43524
2.0735
2.0859
2.09127
2.10251
2.11393
2.1292
2.14541
2.17667
2.07191
2.08264
2.08663
2.09553
2.10469
2.11349
2.12974
2.13165
2.07152
2.08032
2.08436
2.09241
2.10076
2.10904
2.12308
2.1275
2.06759
2.07837
2.08095
2.08889
2.0964
2.10381
2.11704
2.11973
2.05936
2.07965
2.07595
2.08667
2.09251
2.09997
2.11278
2.11448
2.07285
2.07504
2.08096
2.08645
2.09379
2.09989
2.11253
2.11289
2.06527
2.07569
2.07783
2.08513
2.09208
2.09859
2.11144
2.11207
2.06936
2.0767
2.08031
2.08721
2.09443
2.10111
2.11387
2.11529
2.06943
2.07798
2.08151
2.08889
2.09648
2.10378
2.11693
2.1198
2.07116
2.08033
2.0844
2.0925
2.10093
2.1093
2.12322
2.12797
2.07311
2.08246
2.08703
2.0956
2.10478
2.11359
2.1296
2.13201
2.07439
2.08596
2.09172
2.10279
2.11419
2.12959
2.14528
2.1776
2.02844
2.04534
2.04169
2.05034
2.05485
2.06242
2.07177
2.08419
2.04112
2.04033
2.04502
2.04794
2.05269
2.05651
2.06464
2.06453
2.03248
2.03983
2.04055
2.04505
2.04906
2.05324
2.06048
2.06235
2.03553
2.03904
2.04093
2.04447
2.04815
2.05175
2.05825
2.05968
2.0336
2.03806
2.03949
2.04305
2.04657
2.05003
2.05641
2.05757
2.03352
2.03781
2.03923
2.0427
2.04616
2.04949
2.05581
2.05664
2.0341
2.03766
2.03931
2.04262
2.04606
2.04934
2.05565
2.05647
2.03375
2.03833
2.0397
2.04336
2.04688
2.05036
2.0567
2.05785
2.02735
2.04112
2.03742
2.04384
2.04654
2.05069
2.05732
2.05884
2.03949
2.03943
2.04345
2.04638
2.05071
2.05449
2.06159
2.06316
2.03453
2.04081
2.04224
2.04666
2.05109
2.05515
2.06363
2.06325
2.03773
2.04268
2.04572
2.05091
2.05665
2.06358
2.07282
2.08534
2.01711
2.02021
2.02122
2.02377
2.02642
2.02947
2.03434
2.03902
2.01692
2.01951
2.02019
2.02218
2.02416
2.02586
2.02993
2.02895
2.01699
2.01889
2.01965
2.02142
2.0232
2.02493
2.02834
2.02869
2.01601
2.01872
2.01902
2.02093
2.02249
2.02411
2.02713
2.02747
2.00837
2.02039
2.01548
2.01991
2.0205
2.0226
2.02554
2.02618
2.0204
2.01764
2.02027
2.02087
2.02254
2.02381
2.02651
2.0267
2.01372
2.01788
2.01753
2.01954
2.02098
2.0226
2.02552
2.02597
2.01688
2.01837
2.01906
2.02065
2.02215
2.02367
2.02649
2.02692
2.01609
2.01844
2.01891
2.02066
2.02224
2.02389
2.02684
2.02744
2.01666
2.01904
2.01967
2.02157
2.02334
2.02518
2.02841
2.02919
2.01731
2.01939
2.0202
2.02207
2.02398
2.02577
2.02952
2.02925
2.01741
2.02042
2.02141
2.02401
2.02655
2.02981
2.03403
2.0401
2.00376
2.01013
2.00794
2.01037
2.01114
2.01266
2.01503
2.01679
2.01011
2.00878
2.01002
2.01043
2.0113
2.01189
2.01356
2.01302
2.00609
2.00856
2.0082
2.00932
2.01003
2.01086
2.0124
2.01253
2.00768
2.00861
2.0087
2.00953
2.01013
2.01081
2.01207
2.0122
2.00692
2.00832
2.00824
2.00912
2.00969
2.0104
2.01163
2.01182
2.00688
2.00832
2.0082
2.00909
2.00965
2.01033
2.01155
2.0117
2.00726
2.00822
2.00826
2.00903
2.00958
2.01025
2.01145
2.01161
2.00681
2.00853
2.00828
2.00928
2.00982
2.01055
2.01175
2.01196
2.00234
2.00969
2.00652
2.00895
2.00909
2.01009
2.01143
2.01168
2.00945
2.00876
2.00957
2.01015
2.01086
2.01154
2.01292
2.01297
2.00622
2.00887
2.00837
2.00958
2.01027
2.01106
2.01281
2.01233
2.00789
2.00945
2.00961
2.01087
2.01192
2.01327
2.0154
2.01748
2.0031
2.00414
2.00407
2.0047
2.00518
2.00568
2.00693
2.00717
2.00297
2.00402
2.00381
2.00435
2.00467
2.00492
2.00588
2.00517
2.00323
2.00382
2.00369
2.00411
2.00436
2.00463
2.00539
2.00515
2.00278
2.00405
2.00367
2.0043
2.00449
2.0048
2.0054
2.00525
1.9938
2.00569
1.99991
2.00321
2.00259
2.00352
2.0042
2.00453
2.00779
2.00377
2.00546
2.005
2.00527
2.00533
2.00567
2.00558
2.00037
2.00361
2.00242
2.00338
2.00351
2.00398
2.00459
2.00482
2.00362
2.00408
2.00391
2.00438
2.00453
2.00484
2.00529
2.00539
2.00263
2.00386
2.00345
2.00404
2.00419
2.00457
2.00505
2.00529
2.00275
2.00402
2.00366
2.00429
2.00449
2.00496
2.00542
2.00588
2.00357
2.00393
2.00383
2.00424
2.00439
2.00481
2.00518
2.00559
2.00271
2.00441
2.00398
2.00486
2.00512
2.00607
2.00628
2.00878
1.99623
2.00371
1.99932
2.0018
2.00106
2.00161
2.00211
2.00206
2.00546
2.00082
2.00322
2.00224
2.00266
2.00255
2.00274
2.00253
1.99832
2.00152
2.00026
2.00098
2.00099
2.00122
2.0016
2.00148
2.00224
2.00171
2.00189
2.00194
2.00199
2.00203
2.0022
2.00208
2.00035
2.00141
2.00103
2.00134
2.00138
2.00152
2.00174
2.00174
2.00067
2.00161
2.00122
2.00155
2.00157
2.00171