/*--------------------------------*- C++ -*----------------------------------*\
| =========                 |                                                 |
| \\      /  F ield         | foam-extend: Open Source CFD                    |
|  \\    /   O peration     | Version:  3.0                                   |
|   \\  /    A nd           | Web:         http://www.extend-project.de       |
|    \\/     M anipulation  |                                                 |
\*---------------------------------------------------------------------------*/
FoamFile
{
    version     2.0;
    format      ascii;
    class       volSymmTensorField;
    location    "9";
    object      sigma;
}
// * * * * * * * * * * * * * * * * * * * * * * * * * * * * * * * * * * * * * //

dimensions      [0 0 0 0 0 0 0];

internalField   nonuniform List<symmTensor> 
576
(
(2.01126 -0.0249803 1.87325e-18 -1.68565 1.52627e-18 1.75172e-36)
(1.87936 0.121148 7.14496e-18 -1.52087 -2.22562e-17 -1.18196e-34)
(2.14679 0.197851 2.1853e-18 -1.96705 -1.24784e-17 -1.08701e-35)
(2.07308 0.216603 4.24302e-20 -1.6607 -5.48688e-18 1.06422e-35)
(1.62124 0.197862 7.59262e-18 -1.57312 -1.52746e-18 2.24538e-35)
(1.6769 0.203552 5.18499e-18 -1.33562 -6.29399e-19 6.38531e-36)
(1.2962 0.171314 -8.14757e-18 -1.09785 -1.95144e-18 -1.79727e-35)
(1.08319 0.157462 -1.20773e-17 -0.913319 1.88317e-17 -1.51451e-34)
(0.953989 0.138888 -2.00513e-17 -0.672762 1.10338e-17 -1.05228e-34)
(0.654957 0.116374 -1.3415e-17 -0.488054 3.48074e-18 -4.83762e-36)
(0.534445 0.100338 -1.55651e-19 -0.279132 -1.1051e-17 5.29581e-35)
(0.321887 0.0839801 -1.15167e-17 -0.0947642 -1.07702e-17 -5.26352e-36)
(2.12566 -0.0471203 -1.28648e-17 -1.80407 -7.11096e-18 -6.86078e-35)
(1.83765 0.356929 -3.76093e-17 -1.48578 1.80478e-17 2.9013e-34)
(2.04631 0.574372 -7.43372e-18 -1.87109 1.01945e-17 1.80629e-34)
(1.94266 0.625182 -2.37489e-18 -1.5371 -9.70471e-18 -1.73207e-35)
(1.49947 0.570036 1.29161e-17 -1.45252 -1.32644e-17 -1.61135e-35)
(1.54123 0.586297 -8.64467e-18 -1.20635 1.4528e-17 0)
(1.17991 0.49257 -2.17374e-17 -0.984922 3.39453e-17 -3.72659e-34)
(0.970965 0.45232 3.53105e-17 -0.804279 7.88392e-18 1.66428e-34)
(0.850554 0.398374 2.58027e-17 -0.574121 1.48103e-17 3.1425e-34)
(0.563363 0.332389 1.73384e-17 -0.399303 -1.1382e-18 -4.24197e-34)
(0.449834 0.285733 -2.43924e-17 -0.198847 3.25476e-18 -2.17358e-34)
(0.244316 0.237947 -2.96317e-17 -0.0209461 2.357e-17 3.75325e-34)
(2.33053 0.016715 1.0431e-18 -2.02006 5.23999e-18 -5.73059e-35)
(1.7573 0.581706 1.89712e-17 -1.41796 5.33315e-18 -4.55429e-35)
(1.8589 0.906267 -1.50988e-17 -1.68987 -1.24849e-17 -2.06927e-34)
(1.69941 0.969979 -3.76677e-17 -1.30784 2.92511e-17 -2.44354e-34)
(1.27251 0.879583 -2.15693e-17 -1.22715 7.37524e-18 8.91679e-35)
(1.28993 0.899135 3.20068e-17 -0.966611 8.16096e-18 -4.09786e-35)
(0.963721 0.752468 7.94384e-17 -0.775406 -1.92187e-17 9.07784e-34)
(0.762465 0.686559 6.74162e-18 -0.601729 7.01655e-18 7.03317e-35)
(0.658428 0.601642 7.11113e-17 -0.391648 -7.67315e-18 1.24921e-33)
(0.393674 0.497051 3.43441e-17 -0.235386 4.66895e-18 7.87426e-34)
(0.293743 0.423448 -2.02975e-17 -0.0515837 3.00804e-17 -6.71308e-34)
(0.101345 0.346891 4.81461e-17 0.114123 2.93109e-17 9.97524e-34)
(2.57997 0.206021 2.37528e-18 -2.28598 7.95768e-19 0)
(1.64313 0.789118 -1.31477e-18 -1.3214 -1.80962e-17 0)
(1.60418 1.16992 -3.88733e-17 -1.44383 4.26001e-17 2.80863e-34)
(1.37385 1.21754 7.474e-17 -1.00281 -3.49315e-17 3.07669e-34)
(0.970666 1.09445 -3.19798e-17 -0.927802 1.05367e-17 -3.96289e-34)
(0.956071 1.10603 4.40713e-17 -0.649911 -2.92616e-17 7.14776e-34)
(0.677516 0.919083 -3.96862e-17 -0.499113 6.58213e-18 -9.17973e-34)
(0.487771 0.829222 8.81628e-17 -0.33556 -4.75979e-17 2.49524e-34)
(0.405575 0.720395 3.66641e-17 -0.152899 -5.74655e-17 -1.8066e-33)
(0.171689 0.58491 1.56568e-17 -0.0217951 -1.50475e-17 -4.66361e-34)
(0.0900733 0.490115 3.99636e-17 0.139207 -2.46185e-18 -4.58787e-34)
(-0.0840706 0.388768 1.02258e-16 0.288068 -8.78107e-17 -4.9179e-35)
(2.81421 0.54147 -7.15558e-18 -2.54112 6.3491e-19 0)
(1.49891 0.974307 -3.08208e-17 -1.20063 2.18126e-17 8.08243e-35)
(1.30942 1.35063 4.07204e-17 -1.16123 -1.53736e-17 -3.20787e-34)
(1.00592 1.34997 -4.64006e-17 -0.661937 2.11071e-17 -3.88721e-34)
(0.633722 1.19686 7.18182e-17 -0.594111 -4.70496e-17 -5.97789e-34)
(0.584692 1.18773 -7.58585e-17 -0.300972 -4.70563e-19 2.85146e-34)
(0.360731 0.975918 -1.13925e-17 -0.195388 -3.25343e-17 0)
(0.185752 0.863866 -1.06007e-16 -0.0448144 -1.7182e-17 1.3803e-33)
(0.128078 0.739521 -1.07295e-16 0.106075 1.75689e-17 2.25899e-33)
(-0.0694332 0.582268 -8.21044e-17 0.208314 -1.15193e-17 -5.52528e-35)
(-0.130146 0.47314 2.26549e-17 0.342642 -5.1763e-17 -1.23133e-33)
(-0.282351 0.351973 -1.47429e-16 0.47143 -2.53321e-18 4.9179e-35)
(2.97078 1.01605 3.13786e-18 -2.72442 9.25039e-18 0)
(1.33105 1.13495 2.52675e-17 -1.06134 -1.20416e-17 1.13364e-34)
(1.00477 1.44593 -9.64579e-18 -0.870935 -9.90607e-18 -1.06763e-34)
(0.639242 1.36502 -5.78591e-18 -0.328108 -5.71751e-19 0)
(0.304477 1.185 -5.6945e-17 -0.26873 1.99828e-17 2.33634e-34)
(0.224286 1.1426 2.33332e-17 0.0321219 -1.75454e-17 -1.92227e-34)
(0.0564878 0.921687 -1.1639e-16 0.0929999 5.36032e-17 6.95238e-34)
(-0.100769 0.789728 1.40134e-16 0.228124 -1.67236e-17 -1.96079e-33)
(-0.1343 0.658525 2.47183e-17 0.345958 -1.54979e-17 -1.70153e-33)
(-0.293426 0.489051 -6.12871e-17 0.418955 4.08338e-17 1.06982e-33)
(-0.333284 0.372709 3.88522e-18 0.525339 2.04866e-17 0)
(-0.461601 0.237048 -7.25641e-18 0.632502 3.72459e-17 0)
(2.99181 1.59962 3.85049e-18 -2.7755 4.3118e-18 0)
(1.14497 1.26889 -1.64883e-17 -0.908111 4.09816e-17 -5.09506e-34)
(0.718555 1.46321 9.39746e-17 -0.601291 -3.64546e-17 1.64375e-33)
(0.315144 1.27656 -1.65927e-17 -0.0422607 -1.6086e-17 0)
(0.0233901 1.07338 4.25235e-17 0.00801439 -1.67534e-17 -9.08472e-35)
(-0.0796187 0.987825 -5.25995e-17 0.304333 1.98667e-17 7.46436e-35)
(-0.19532 0.771792 1.23426e-16 0.326403 -1.41498e-17 3.88041e-34)
(-0.332344 0.622398 1.04582e-16 0.443943 -2.42297e-17 1.98958e-34)
(-0.344872 0.492047 -1.62873e-16 0.530399 3.5169e-17 -1.38398e-33)
(-0.466733 0.319013 4.2634e-17 0.576782 1.13161e-17 -1.35344e-34)
(-0.488036 0.201927 -1.54896e-17 0.656392 -1.50193e-17 0)
(-0.592113 0.0568903 -1.55517e-17 0.741944 3.06193e-17 0)
(2.83565 2.24025 3.10657e-18 -2.65371 5.4103e-18 0)
(0.946431 1.37663 5.37789e-17 -0.746916 -2.73644e-18 3.70965e-34)
(0.473152 1.42036 -3.90054e-17 -0.374582 -5.2815e-18 -1.41446e-33)
(0.0656146 1.11291 -5.22064e-17 0.164169 2.61016e-17 2.75167e-35)
(-0.178597 0.890377 1.2854e-17 0.205044 -1.06573e-17 1.58056e-35)
(-0.291961 0.755988 1.85985e-17 0.481069 -3.96027e-17 1.63694e-34)
(-0.363842 0.555376 1.60804e-17 0.474203 7.18041e-18 0)
(-0.478552 0.391284 -7.27305e-17 0.57246 -1.84394e-17 -2.60826e-34)
(-0.475388 0.267664 -1.48969e-16 0.631568 2.7168e-17 2.47731e-33)
(-0.563693 0.0978392 3.41778e-17 0.65635 1.92917e-17 5.23488e-34)
(-0.570563 -0.0150383 -3.70305e-17 0.712309 7.58971e-18 4.42952e-34)
(-0.651404 -0.165146 9.80483e-17 0.777568 -7.36341e-18 -8.93274e-34)
(2.48213 2.87203 1.99016e-17 -2.33723 -1.09542e-18 5.61998e-35)
(0.740182 1.45879 -2.6247e-17 -0.581137 -4.95695e-18 -4.34901e-35)
(0.282368 1.34069 -6.34008e-17 -0.203922 3.28016e-17 -2.09314e-34)
(-0.0904606 0.911358 1.43906e-16 0.273341 -4.00565e-17 7.04769e-34)
(-0.283673 0.673518 -1.38572e-16 0.304815 4.16367e-17 -3.65561e-34)
(-0.392917 0.490148 1.19567e-16 0.54327 -1.07208e-17 8.30345e-34)
(-0.431892 0.310761 6.95844e-17 0.519687 -7.78945e-17 -1.64356e-33)
(-0.522652 0.134851 -1.79383e-16 0.597307 -6.92521e-18 2.1092e-33)
(-0.510326 0.0213534 -2.32272e-17 0.634513 3.35727e-17 -9.55568e-34)
(-0.570357 -0.141032 -3.48344e-18 0.644059 2.05011e-18 -6.83286e-35)
(-0.567929 -0.246739 1.36454e-17 0.68066 3.61538e-17 -7.41024e-35)
(-0.627404 -0.39872 7.40234e-17 0.72776 -1.46422e-17 8.93274e-34)
(1.9373 3.42516 5.80365e-18 -1.8321 1.07258e-17 0)
(0.529697 1.51762 2.0757e-17 -0.414051 -6.21014e-18 4.75799e-35)
(0.149147 1.25067 5.41409e-17 -0.0922965 8.93561e-19 1.40771e-34)
(-0.150636 0.71303 -1.13398e-16 0.2834 2.4892e-17 -8.39757e-34)
(-0.29027 0.463814 1.11187e-16 0.305662 -1.1067e-17 5.08968e-34)
(-0.380929 0.237127 -4.00752e-17 0.489923 3.34949e-17 -2.7127e-34)
(-0.398429 0.0795962 -7.87615e-17 0.462111 -7.70568e-18 -5.19101e-34)
(-0.464018 -0.105172 5.48617e-17 0.518118 -1.15597e-17 -5.30426e-34)
(-0.4492 -0.207889 5.98443e-17 0.539252 2.84414e-17 -7.42163e-34)
(-0.486705 -0.361428 5.01066e-17 0.540172 4.96791e-18 4.30569e-36)
(-0.480246 -0.459212 1.67113e-16 0.562025 -2.2764e-17 -1.80664e-35)
(-0.520567 -0.611144 -8.41495e-17 0.593392 -9.39419e-20 8.06136e-35)
(1.23314 3.83534 6.22245e-18 -1.16934 -1.45958e-18 0)
(0.317502 1.55508 -3.9873e-17 -0.247143 1.2339e-17 -4.65753e-35)
(0.0663677 1.17463 -4.73096e-17 -0.032022 -3.14128e-19 -8.8882e-35)
(-0.128114 0.55593 6.01436e-17 0.208566 -8.04688e-18 -2.5795e-35)
(-0.212446 0.299208 -5.82688e-17 0.221847 1.58947e-17 5.89144e-36)
(-0.272338 0.0402298 1.4256e-17 0.338151 -1.37527e-17 0)
(-0.278316 -0.0996347 -4.0313e-17 0.316817 2.50481e-17 -3.35718e-34)
(-0.317922 -0.290275 2.35547e-17 0.350559 2.52157e-17 1.75534e-34)
(-0.306352 -0.384101 -1.69102e-17 0.360745 9.68034e-18 -4.31899e-34)
(-0.326436 -0.530004 -3.4656e-18 0.358764 2.05559e-17 -7.47378e-34)
(-0.320484 -0.621152 -1.17267e-17 0.369925 -2.67479e-17 2.56054e-34)
(-0.343687 -0.772285 3.48586e-17 0.387746 -2.82051e-17 5.57353e-34)
(0.423472 4.05377 9.85316e-19 -0.402199 -9.43312e-18 0)
(0.104798 1.57311 4.41713e-18 -0.080966 -7.65003e-18 -4.06901e-35)
(0.0177712 1.13151 -8.10839e-18 -0.00657389 1.46518e-17 -2.92724e-35)
(-0.0498948 0.469357 -9.34123e-18 0.0766551 9.34513e-19 7.09605e-36)
(-0.0779042 0.208893 3.70193e-17 0.0811195 -1.01234e-17 4.80714e-36)
(-0.0988986 -0.0672921 -1.07367e-17 0.120402 7.55273e-19 8.45362e-36)
(-0.100075 -0.197383 1.08061e-17 0.112727 3.55435e-18 2.41924e-36)
(-0.11324 -0.390922 -1.80057e-17 0.123847 5.1455e-18 -1.77543e-34)
(-0.108792 -0.479727 2.50196e-17 0.126595 -2.34462e-18 -9.55754e-35)
(-0.114958 -0.62124 -1.17997e-17 0.125591 1.76431e-18 -1.78293e-34)
(-0.112575 -0.708619 -3.78358e-18 0.128835 5.72003e-19 -2.41177e-34)
(-0.120075 -0.859118 7.06829e-18 0.134615 -9.12581e-18 4.03734e-35)
(-0.423166 4.05398 2.04629e-18 0.401537 6.83428e-18 1.44811e-35)
(-0.10788 1.57276 2.00308e-17 0.0847943 1.16699e-17 1.94408e-35)
(-0.0187405 1.13156 3.40999e-18 0.00658833 4.66024e-18 3.03001e-35)
(0.0480138 0.469195 -8.17995e-18 -0.0753789 1.5326e-19 -4.10479e-35)
(0.0766655 0.208713 -8.20476e-18 -0.0796965 -7.06266e-18 7.95778e-35)
(0.0974112 -0.0674083 8.86777e-18 -0.120576 1.54881e-18 1.42141e-35)
(0.0986929 -0.197617 -7.30557e-18 -0.112101 -9.20772e-18 1.11878e-35)
(0.112101 -0.391102 -1.42706e-18 -0.123702 -1.91158e-17 1.19012e-34)
(0.108045 -0.479837 -9.20826e-18 -0.127128 -4.31395e-18 1.74212e-34)
(0.114535 -0.621319 -8.09001e-18 -0.125777 8.72319e-18 1.37637e-34)
(0.11226 -0.708657 -4.78257e-19 -0.129455 1.48388e-17 8.03657e-36)
(0.119966 -0.859178 -1.1917e-18 -0.135188 -1.93138e-18 -1.12506e-35)
(-1.23308 3.83593 1.25528e-17 1.16891 -2.66252e-18 -1.77792e-35)
(-0.320352 1.55411 -4.32565e-17 0.25074 -8.41021e-18 3.22583e-34)
(-0.0674322 1.17477 -4.20238e-17 0.032114 2.45928e-18 4.33032e-35)
(0.126337 0.55548 -2.32963e-17 -0.207355 1.70188e-17 -2.1201e-34)
(0.211327 0.298717 2.30338e-17 -0.220565 2.70069e-18 7.57869e-35)
(0.270957 0.0399198 8.29469e-18 -0.338395 -2.81241e-17 0)
(0.277135 -0.100278 -6.96025e-17 -0.316374 -2.34902e-17 9.32495e-35)
(0.316942 -0.29077 1.99366e-17 -0.350555 -6.54276e-18 -1.28342e-34)
(0.305722 -0.384404 6.05588e-17 -0.361362 -5.93978e-18 -5.65071e-34)
(0.326089 -0.530225 3.97196e-17 -0.359014 1.68037e-17 -6.7157e-35)
(0.320222 -0.621256 -2.11271e-17 -0.370576 -9.82738e-19 5.81761e-35)
(0.343658 -0.77245 -3.5413e-17 -0.388381 1.20208e-17 1.41113e-34)
(-1.93767 3.42597 -9.0677e-18 1.83204 -1.818e-17 1.34815e-34)
(-0.532169 1.5162 6.79866e-17 0.417225 8.15923e-18 -5.56495e-34)
(-0.150444 1.25089 4.76909e-17 0.0925512 1.46828e-18 6.65497e-35)
(0.149003 0.712371 -3.34904e-17 -0.28228 -6.54341e-18 3.01412e-34)
(0.28931 0.463132 -1.01167e-16 -0.304602 4.54313e-18 1.50505e-34)
(0.379697 0.236707 -1.91233e-17 -0.490254 -2.4723e-18 -2.89847e-34)
(0.397571 0.0786831 9.73948e-17 -0.461967 1.07918e-17 1.06489e-34)
(0.463292 -0.10588 -2.79351e-17 -0.518343 -6.94317e-18 1.8702e-34)
(0.448757 -0.208322 4.21601e-17 -0.540002 -6.99966e-19 1.41172e-33)
(0.486483 -0.361752 4.65487e-17 -0.540527 -1.41443e-17 9.48163e-34)
(0.480075 -0.459361 -8.31112e-18 -0.562724 -2.87996e-17 8.15039e-34)
(0.520678 -0.611372 7.98366e-17 -0.594137 2.37264e-17 -8.80937e-34)
(-2.48295 2.87295 1.07325e-18 2.33767 6.60608e-18 0)
(-0.742159 1.45726 -6.1369e-18 0.583849 -1.08067e-17 0)
(-0.283942 1.34099 -6.26527e-17 0.204453 -3.15947e-17 8.97559e-34)
(0.0890303 0.910611 1.41158e-16 -0.272285 1.6939e-17 -1.57096e-34)
(0.282877 0.672791 2.50623e-18 -0.303966 2.0019e-17 4.3142e-34)
(0.391847 0.489703 -3.03506e-17 -0.543632 4.40641e-17 3.75477e-34)
(0.431407 0.309742 -1.36473e-16 -0.519858 -1.96135e-17 -1.66518e-33)
(0.522224 0.134045 3.40633e-17 -0.597774 3.20682e-17 1.03693e-33)
(0.510114 0.0208546 -2.83322e-17 -0.635401 1.33003e-17 4.95229e-34)
(0.570301 -0.141421 1.31081e-17 -0.644539 -5.19223e-17 2.6053e-34)
(0.567886 -0.246913 -4.57546e-18 -0.681417 -2.08203e-17 3.14421e-34)
(0.627708 -0.398957 9.54246e-17 -0.728646 -3.17509e-17 1.24421e-33)
(-2.83687 2.24105 4.648e-18 2.65441 -8.29386e-18 0)
(-0.948055 1.37515 -1.12486e-17 0.74909 -2.57138e-17 4.61222e-34)
(-0.475144 1.42056 7.13639e-17 0.375414 4.79416e-17 -5.30129e-34)
(-0.0669471 1.11208 -1.25273e-16 -0.163147 -2.06471e-17 -2.97701e-34)
(0.177835 0.889645 1.40153e-16 -0.204364 2.90342e-17 -4.04049e-34)
(0.290991 0.755514 -4.87769e-17 -0.481409 5.99422e-18 -9.14546e-35)
(0.363679 0.55434 3.31335e-17 -0.474671 3.04419e-17 0)
(0.478409 0.390432 -7.0882e-17 -0.573165 2.73554e-17 7.21263e-34)
(0.475417 0.267118 -1.60142e-16 -0.632602 -8.83943e-18 -2.86875e-33)
(0.563823 0.0974054 -1.12723e-16 -0.656986 -5.73343e-18 -2.64354e-33)
(0.570671 -0.0152199 3.60317e-17 -0.713143 4.22629e-17 1.22084e-33)
(0.65192 -0.165326 -1.78876e-16 -0.778613 -4.49103e-17 -1.24421e-33)
(-2.99331 1.60033 5.67401e-18 2.77681 -1.09466e-17 0)
(-1.14635 1.26783 3.4109e-17 0.910131 8.11409e-18 -2.65248e-34)
(-0.720759 1.46333 3.21682e-17 0.602489 4.58121e-18 -5.92312e-34)
(-0.316263 1.27573 1.07489e-17 0.0432673 2.20727e-17 0)
(-0.0240391 1.07267 -6.61652e-17 -0.00747537 -2.17903e-17 1.15066e-34)
(0.0788337 0.987296 8.33421e-17 -0.304628 1.19126e-17 -9.46999e-35)
(0.195503 0.770811 -7.21593e-17 -0.327136 -4.2861e-17 1.78455e-33)
(0.332555 0.621563 1.65402e-16 -0.444899 4.87656e-17 -2.21215e-33)
(0.345228 0.491506 6.8636e-17 -0.531622 2.60494e-17 9.61514e-34)
(0.467135 0.318597 -3.92726e-17 -0.57763 8.48041e-19 -1.14702e-34)
(0.488364 0.201792 7.90439e-18 -0.65734 -3.6405e-18 0)
(0.59288 0.0568492 2.46366e-17 -0.743159 4.77266e-17 0)
(-2.97224 1.0165 -2.0383e-18 2.7254 -1.2545e-18 0)
(-1.33233 1.13396 -3.67184e-17 1.06291 -2.74328e-17 3.15806e-35)
(-1.00704 1.4456 6.0059e-17 0.87225 2.00814e-17 5.51791e-34)
(-0.640265 1.36404 7.75145e-18 0.32904 -4.94e-18 0)
(-0.305032 1.18426 6.42006e-17 0.26907 2.24431e-17 -2.68378e-34)
(-0.224824 1.142 -4.15158e-17 -0.0324844 -2.30719e-17 2.20728e-34)
(-0.0559377 0.920808 5.04138e-17 -0.0940842 4.5579e-17 8.04586e-34)
(0.10141 0.788978 -6.48787e-18 -0.229419 1.58562e-17 4.16005e-33)
(0.135045 0.658065 -1.05251e-16 -0.347458 -7.05662e-17 -2.21033e-33)
(0.294135 0.488752 9.47932e-17 -0.42007 -1.64267e-18 1.72008e-33)
(0.333825 0.372719 1.09871e-18 -0.526414 1.81626e-17 0)
(0.462549 0.237263 8.02172e-18 -0.633845 1.86726e-17 0)
(-2.81587 0.541484 4.49938e-18 2.54291 -6.50281e-19 0)
(-1.50042 0.973421 -2.33987e-18 1.2024 2.49692e-17 3.47338e-34)
(-1.31148 1.35008 -5.64534e-17 1.16247 -4.02867e-17 -4.86299e-34)
(-1.00683 1.34892 -1.11824e-17 0.662699 -1.32664e-17 6.07627e-34)
(-0.633963 1.19611 -8.58144e-18 0.594168 -1.89802e-17 3.98712e-34)
(-0.584889 1.18705 5.54444e-17 0.300469 4.50983e-17 -1.4704e-34)
(-0.359864 0.975234 -6.38785e-17 0.194021 1.64865e-17 0)
(-0.184699 0.86339 -5.10376e-17 0.043213 -3.53501e-18 -2.34088e-33)
(-0.126984 0.739353 -6.86803e-17 -0.107814 -9.15682e-18 2.26764e-34)
(0.0704249 0.582285 1.68024e-17 -0.209648 -7.04138e-18 1.88632e-35)
(0.130874 0.473438 -1.05154e-17 -0.34378 4.1039e-18 1.06767e-33)
(0.283422 0.352533 8.3376e-17 -0.472805 3.13215e-17 9.08166e-34)
(-2.5816 0.206113 -4.6406e-19 2.28719 7.95237e-18 6.45725e-35)
(-1.64456 0.787626 -7.66734e-18 1.32305 -9.00825e-18 -4.99494e-35)
(-1.60586 1.16891 -1.52592e-17 1.44519 -1.10953e-17 -5.68563e-34)
(-1.37495 1.21623 8.3589e-17 1.00381 3.0076e-17 -4.18185e-34)
(-0.97074 1.09371 -7.57973e-17 0.927794 -2.77674e-17 2.17245e-34)
(-0.95613 1.10548 7.64986e-17 0.649464 6.24573e-18 -5.83359e-34)
(-0.676463 0.91878 7.75239e-17 0.497636 5.863e-17 1.73998e-34)
(-0.486398 0.829208 -4.24528e-17 0.333857 1.41435e-17 4.03528e-34)
(-0.404282 0.720655 4.14678e-17 0.151116 9.24384e-18 6.34419e-34)
(-0.170567 0.585311 9.93717e-18 0.0204385 1.98252e-17 5.13443e-34)
(-0.0893394 0.490743 -1.09965e-17 -0.140242 1.01075e-17 6.4688e-35)
(0.0850511 0.389694 -1.57214e-17 -0.289281 -3.8443e-17 -9.08166e-34)
(-2.33269 0.0161673 -3.29444e-18 2.02186 -8.89689e-18 0)
(-1.75887 0.579751 8.60311e-18 1.41937 -5.4095e-18 2.24177e-34)
(-1.86028 0.90521 1.1124e-17 1.69069 8.12354e-18 3.11917e-37)
(-1.70075 0.968263 -5.6752e-17 1.30894 -4.10811e-17 7.17034e-35)
(-1.27229 0.878818 6.4368e-17 1.22693 1.90714e-17 -2.38926e-34)
(-1.2899 0.898683 -5.52407e-17 0.966234 -3.43804e-17 4.10834e-34)
(-0.962836 0.752376 1.73433e-17 0.774085 -3.01352e-17 6.35669e-34)
(-0.761194 0.686981 1.05977e-16 0.600207 1.67937e-17 -1.23308e-33)
(-0.657354 0.602265 6.48397e-17 0.390153 -2.03034e-17 -1.72652e-33)
(-0.392671 0.497756 5.52594e-17 0.234205 -4.84345e-18 -1.42259e-33)
(-0.293083 0.424321 1.05883e-16 0.0507535 2.03077e-17 -8.06306e-34)
(-0.100491 0.348086 -7.39853e-17 -0.115091 -3.13383e-18 -5.41013e-34)
(-2.12815 -0.0477399 -1.76581e-17 1.80623 3.7704e-18 0)
(-1.83823 0.354658 -2.33467e-17 1.48655 -1.09846e-17 -2.99969e-34)
(-2.0474 0.573033 -1.72741e-18 1.87179 -1.87264e-17 -2.39681e-35)
(-1.94392 0.62364 2.11401e-17 1.53816 2.12797e-17 3.68028e-35)
(-1.49898 0.56936 -3.60311e-17 1.45198 -2.08294e-17 -4.97746e-35)
(-1.5414 0.586357 1.13745e-17 1.20628 9.3608e-18 0)
(-1.17944 0.493181 -3.70023e-17 0.983998 -1.54581e-17 1.36797e-34)
(-0.969882 0.453399 8.0167e-18 0.803203 -3.4226e-17 -6.04452e-35)
(-0.849757 0.399483 -2.55432e-17 0.573091 -2.42553e-17 2.92175e-35)
(-0.562471 0.333363 -1.72426e-17 0.398379 -3.74938e-17 2.28393e-34)
(-0.44918 0.286762 -6.27219e-18 0.198249 -1.82101e-17 5.13474e-34)
(-0.243526 0.239378 3.00576e-17 0.0202797 3.91626e-17 -4.2346e-34)
(-2.01339 -0.0263829 -7.02325e-19 1.68588 6.89167e-18 0)
(-1.87886 0.118612 5.8669e-18 1.52101 2.02724e-17 1.02202e-34)
(-2.14643 0.195671 9.64786e-19 1.96781 3.52429e-18 7.45858e-36)
(-2.07374 0.214838 9.5747e-18 1.66096 -8.45034e-18 -3.7939e-36)
(-1.62054 0.197006 1.39976e-17 1.5727 1.36405e-17 8.36516e-36)
(-1.67642 0.203748 -6.2566e-18 1.33557 -1.00696e-18 9.39668e-36)
(-1.29605 0.172107 1.29577e-17 1.09726 2.33691e-18 -1.90425e-35)
(-1.08247 0.158832 -2.40373e-17 0.912952 -6.08073e-18 7.63395e-35)
(-0.953608 0.14033 -4.45586e-18 0.672211 9.24933e-19 1.45328e-35)
(-0.654386 0.11759 -3.09672e-17 0.487476 -4.50859e-18 1.84693e-35)
(-0.533761 0.101596 -1.97693e-17 0.278522 -5.61099e-18 8.85453e-35)
(-0.321311 0.0856921 2.69143e-18 0.0942208 -1.27116e-17 -3.05653e-35)
(-2.01309 0.0251498 1.86868e-18 1.68561 1.53762e-18 -1.74301e-36)
(-1.87874 -0.121191 7.14277e-18 1.52086 -2.22623e-17 1.18333e-34)
(-2.14619 -0.197425 2.19369e-18 1.96762 -1.2477e-17 1.08616e-35)
(-2.07359 -0.216422 4.15119e-20 1.66086 -5.48815e-18 -1.06437e-35)
(-1.6206 -0.197408 7.58507e-18 1.57274 -1.53395e-18 -2.24108e-35)
(-1.67646 -0.203528 5.17995e-18 1.33571 -6.32424e-19 -6.36563e-36)
(-1.29629 -0.17074 -8.15243e-18 1.09755 -1.95284e-18 1.79102e-35)
(-1.08272 -0.157203 -1.20742e-17 0.913258 1.88325e-17 1.51427e-34)
(-0.953808 -0.138665 -2.00486e-17 0.672496 1.10302e-17 1.05183e-34)
(-0.654562 -0.116272 -1.34181e-17 0.487689 3.47638e-18 4.80263e-36)
(-0.533896 -0.100331 -1.55224e-19 0.278717 -1.10533e-17 -5.29682e-35)
(-0.321521 -0.0838542 -1.15161e-17 0.0944727 -1.07685e-17 5.25782e-36)
(-2.1273 0.0467295 -1.28692e-17 1.80544 -7.10999e-18 6.86267e-35)
(-1.83787 -0.357225 -3.76275e-17 1.48608 1.80396e-17 -2.90381e-34)
(-2.0467 -0.57465 -7.43861e-18 1.87122 1.02015e-17 -1.80575e-34)
(-1.9435 -0.625178 -2.39436e-18 1.53788 -9.71198e-18 1.71324e-35)
(-1.49914 -0.569828 1.29098e-17 1.45208 -1.32514e-17 1.61789e-35)
(-1.54149 -0.586208 -8.63973e-18 1.20667 1.45348e-17 0)
(-1.18013 -0.492015 -2.1738e-17 0.984837 3.39397e-17 3.72448e-34)
(-0.970584 -0.451967 3.53139e-17 0.804085 7.88372e-18 -1.66363e-34)
(-0.850329 -0.397979 2.58083e-17 0.573914 1.48055e-17 -3.14075e-34)
(-0.562973 -0.332176 1.73453e-17 0.398993 -1.14052e-18 4.24284e-34)
(-0.449569 -0.2856 -2.43849e-17 0.198814 3.25527e-18 2.1716e-34)
(-0.244131 -0.237682 -2.96315e-17 0.0210097 2.35651e-17 -3.75333e-34)
(-2.33141 -0.0167638 1.04884e-18 2.02069 5.23781e-18 5.73733e-35)
(-1.75826 -0.582289 1.89806e-17 1.41858 5.35941e-18 4.54965e-35)
(-1.8592 -0.906572 -1.5095e-17 1.68983 -1.24814e-17 2.06903e-34)
(-1.70007 -0.969715 -3.76722e-17 1.3085 2.925e-17 2.44368e-34)
(-1.27251 -0.879407 -2.15918e-17 1.22706 7.36286e-18 -8.90252e-35)
(-1.28999 -0.898667 3.19934e-17 0.966846 8.16083e-18 4.07817e-35)
(-0.963852 -0.751581 7.94448e-17 0.775357 -1.92094e-17 -9.07289e-34)
(-0.762245 -0.685917 6.74184e-18 0.601554 7.01478e-18 -7.03719e-35)
(-0.658214 -0.601063 7.11154e-17 0.391427 -7.67193e-18 -1.24883e-33)
(-0.393432 -0.496812 3.43496e-17 0.235151 4.67431e-18 -7.87167e-34)
(-0.293673 -0.423353 -2.02953e-17 0.0516344 3.00804e-17 6.71208e-34)
(-0.101421 -0.346655 4.81533e-17 -0.113956 2.93128e-17 -9.97293e-34)
(-2.58008 -0.206164 2.37433e-18 2.28582 7.93765e-19 0)
(-1.64368 -0.790109 -1.31514e-18 1.32192 -1.80953e-17 0)
(-1.60451 -1.16993 -3.88831e-17 1.44414 4.25924e-17 -2.80706e-34)
(-1.37404 -1.21756 7.47507e-17 1.00323 -3.49168e-17 -3.07749e-34)
(-0.970951 -1.09446 -3.19828e-17 0.92789 1.0526e-17 3.96339e-34)
(-0.956182 -1.10564 4.40664e-17 0.650227 -2.92638e-17 -7.1469e-34)
(-0.677648 -0.918473 -3.96969e-17 0.499171 6.57592e-18 9.17628e-34)
(-0.487638 -0.828628 8.81586e-17 0.335505 -4.7586e-17 -2.49449e-34)
(-0.405303 -0.719854 3.66583e-17 0.152708 -5.74547e-17 1.80636e-33)
(-0.171484 -0.584689 1.56563e-17 0.0216099 -1.50372e-17 4.66158e-34)
(-0.0900526 -0.490033 3.99632e-17 -0.139128 -2.45931e-18 4.58726e-34)
(0.0839059 -0.388616 1.02261e-16 -0.287853 -8.78017e-17 4.91762e-35)
(-2.81432 -0.540936 -7.15131e-18 2.54155 6.3876e-19 0)
(-1.49925 -0.975814 -3.08272e-17 1.20092 2.18184e-17 -8.07123e-35)
(-1.30999 -1.35073 4.07249e-17 1.16136 -1.53675e-17 3.20717e-34)
(-1.00572 -1.35011 -4.64143e-17 0.662006 2.10915e-17 3.88752e-34)
(-0.634094 -1.19701 7.18219e-17 0.594155 -4.70255e-17 5.98007e-34)
(-0.58483 -1.1874 -7.58644e-17 0.301304 -4.75624e-19 -2.85255e-34)
(-0.361021 -0.975461 -1.13971e-17 0.195618 -3.25274e-17 0)
(-0.185937 -0.863344 -1.06008e-16 0.0449655 -1.71859e-17 -1.38036e-33)
(-0.128016 -0.738997 -1.07293e-16 -0.106064 1.75648e-17 -2.25928e-33)
(0.0694754 -0.582022 -8.21065e-17 -0.208378 -1.15208e-17 5.52204e-35)
(0.130132 -0.473018 2.26561e-17 -0.342534 -5.17567e-17 1.2312e-33)
(0.282191 -0.351853 -1.47434e-16 -0.471218 -2.5341e-18 -4.91762e-35)
(-2.97088 -1.01539 3.14574e-18 2.72429 9.25406e-18 0)
(-1.33087 -1.13622 2.52732e-17 1.06107 -1.20382e-17 -1.1355e-34)
(-1.00554 -1.44588 -9.63648e-18 0.871195 -9.9039e-18 1.06633e-34)
(-0.639 -1.36508 -5.79195e-18 0.328263 -5.72253e-19 0)
(-0.305005 -1.1853 -5.69479e-17 0.268871 1.99739e-17 -2.33646e-34)
(-0.224584 -1.14253 2.33332e-17 -0.0316621 -1.7532e-17 1.92236e-34)
(-0.0568669 -0.921536 -1.16388e-16 -0.0926322 5.35908e-17 -6.9514e-34)
(0.100366 -0.789438 1.40127e-16 -0.227764 -1.67059e-17 1.96078e-33)
(0.134154 -0.658139 2.47178e-17 -0.345715 -1.54938e-17 1.70164e-33)
(0.293278 -0.488835 -6.12816e-17 -0.418832 4.08305e-17 -1.06979e-33)
(0.33315 -0.372585 3.88588e-18 -0.525138 2.04859e-17 0)
(0.461366 -0.236973 -7.25388e-18 -0.632238 3.72441e-17 0)
(-2.99234 -1.59877 3.85479e-18 2.77614 4.31189e-18 0)
(-1.14457 -1.26989 -1.64809e-17 0.907926 4.09827e-17 5.09627e-34)
(-0.719353 -1.46331 9.39887e-17 0.6016 -3.64616e-17 -1.64397e-33)
(-0.314864 -1.27662 -1.65932e-17 0.0424268 -1.60919e-17 0)
(-0.0237869 -1.07379 4.25217e-17 -0.00792311 -1.67512e-17 9.08431e-35)
(0.079315 -0.987959 -5.25982e-17 -0.303897 1.98625e-17 -7.46428e-35)
(0.194973 -0.77193 1.23417e-16 -0.326011 -1.41449e-17 -3.87871e-34)
(0.331873 -0.622428 1.04576e-16 -0.443518 -2.42241e-17 -1.98749e-34)
(0.344612 -0.491938 -1.62869e-16 -0.530034 3.51628e-17 1.38364e-33)
(0.466483 -0.318967 4.26303e-17 -0.57654 1.13221e-17 1.35426e-34)
(0.487841 -0.201902 -1.54899e-17 -0.65613 -1.50182e-17 0)
(0.591864 -0.0568956 -1.55504e-17 -0.741656 3.062e-17 0)
(-2.83641 -2.23923 3.10812e-18 2.6543 5.41051e-18 0)
(-0.94597 -1.37695 5.37793e-17 0.746529 -2.74208e-18 -3.70961e-34)
(-0.473909 -1.42032 -3.90007e-17 0.374758 -5.28828e-18 1.41467e-33)
(-0.0654348 -1.1128 -5.22032e-17 -0.164041 2.61032e-17 -2.74684e-35)
(0.178359 -0.890762 1.28541e-17 -0.205103 -1.06578e-17 -1.57898e-35)
(0.291754 -0.756243 1.85967e-17 -0.48083 -3.95989e-17 -1.63661e-34)
(0.363665 -0.555678 1.60769e-17 -0.474 7.17925e-18 0)
(0.478204 -0.391543 -7.2729e-17 -0.572185 -1.84405e-17 2.60666e-34)
(0.475169 -0.267785 -1.48958e-16 -0.631279 2.71627e-17 -2.47708e-33)
(0.563452 -0.0979655 3.41748e-17 -0.65613 1.92917e-17 -5.23425e-34)
(0.570359 0.0149358 -3.70293e-17 -0.71207 7.58882e-18 -4.42919e-34)
(0.651157 0.165038 9.80493e-17 -0.777309 -7.36357e-18 8.93261e-34)
(-2.48305 -2.87109 1.99031e-17 2.33816 -1.09942e-18 -5.62025e-35)
(-0.739781 -1.45872 -2.62459e-17 0.580956 -4.95929e-18 4.34913e-35)
(-0.282905 -1.34064 -6.33994e-17 0.204053 3.28068e-17 2.09189e-34)
(0.0906419 -0.911168 1.43899e-16 -0.27323 -4.00678e-17 -7.04761e-34)
(0.283684 -0.6738 -1.3856e-16 -0.305006 4.16379e-17 3.65493e-34)
(0.392902 -0.490406 1.19558e-16 -0.543237 -1.07252e-17 -8.30268e-34)
(0.431948 -0.311089 6.95788e-17 -0.519693 -7.7889e-17 1.64335e-33)
(0.522537 -0.135207 -1.79368e-16 -0.597248 -6.92325e-18 -2.10895e-33)
(0.510267 -0.0216068 -2.3226e-17 -0.634396 3.35719e-17 9.55493e-34)
(0.570242 0.140793 -3.48483e-18 -0.643955 2.05044e-18 6.83446e-35)
(0.567811 0.246544 1.36442e-17 -0.680519 3.61533e-17 7.41103e-35)
(0.627237 0.398547 7.40211e-17 -0.727589 -1.46423e-17 -8.93261e-34)
(-1.93828 -3.4243 5.80356e-18 1.83307 1.0723e-17 0)
(-0.529536 -1.51724 2.07552e-17 0.414044 -6.21652e-18 -4.75663e-35)
(-0.149587 -1.25052 5.41363e-17 0.0923796 8.87179e-19 -1.40665e-34)
(0.150699 -0.712743 -1.13385e-16 -0.283276 2.49031e-17 8.39668e-34)
(0.290373 -0.463927 1.11178e-16 -0.305908 -1.10751e-17 -5.08841e-34)
(0.381014 -0.237289 -4.00701e-17 -0.490037 3.34956e-17 2.71251e-34)
(0.398618 -0.0798235 -7.87519e-17 -0.462273 -7.70321e-18 5.19038e-34)
(0.46408 0.104868 5.48598e-17 -0.518243 -1.15584e-17 5.30396e-34)
(0.449278 0.207641 5.9841e-17 -0.539302 2.84403e-17 7.42058e-34)
(0.486713 0.36118 5.01049e-17 -0.5402 4.9681e-18 -4.35688e-36)
(0.480221 0.459 1.67108e-16 -0.561998 -2.27632e-17 1.79807e-35)
(0.520485 0.61096 -8.41468e-17 -0.593321 -9.56394e-20 -8.05696e-35)
(-1.23405 -3.83464 6.22258e-18 1.17034 -1.46062e-18 0)
(-0.317529 -1.55465 -3.98704e-17 0.247346 1.23454e-17 4.65116e-35)
(-0.0666931 -1.17447 -4.73073e-17 0.0321077 -3.11264e-19 8.88039e-35)
(0.128094 -0.555645 6.01394e-17 -0.208392 -8.04927e-18 2.58311e-35)
(0.212573 -0.299206 -5.82641e-17 -0.222057 1.58996e-17 -5.93595e-36)
(0.272463 -0.0402993 1.42552e-17 -0.338313 -1.37523e-17 0)
(0.278551 0.0995243 -4.031e-17 -0.317028 2.50504e-17 3.35636e-34)
(0.318082 0.290073 2.35548e-17 -0.350771 2.52133e-17 -1.75504e-34)
(0.306513 0.383924 -1.69071e-17 -0.360892 9.6801e-18 4.31868e-34)
(0.326531 0.529811 -3.464e-18 -0.358878 2.05553e-17 7.47359e-34)
(0.320533 0.620978 -1.17254e-17 -0.36998 -2.67467e-17 -2.56009e-34)
(0.343677 0.772141 3.48584e-17 -0.38775 -2.82039e-17 -5.57329e-34)
(-0.424282 -4.05317 9.85855e-19 0.403148 -9.43427e-18 0)
(-0.10497 -1.57276 4.41775e-18 0.0812995 -7.65407e-18 4.06977e-35)
(-0.0180344 -1.13137 -8.10881e-18 0.00665915 1.465e-17 2.92598e-35)
(0.0497903 -0.469136 -9.33985e-18 -0.0764365 9.34042e-19 -7.08245e-36)
(0.0779879 -0.208851 3.70171e-17 -0.0812558 -1.01242e-17 -4.78627e-36)
(0.0990023 0.0672746 -1.07361e-17 -0.120555 7.56136e-19 -8.45886e-36)
(0.100273 0.197356 1.08058e-17 -0.112916 3.55306e-18 -2.40895e-36)
(0.11341 0.390815 -1.80049e-17 -0.124068 5.14652e-18 1.77505e-34)
(0.108959 0.479634 2.50184e-17 -0.126766 -2.34428e-18 9.55724e-35)
(0.115076 0.621121 -1.17998e-17 -0.12573 1.76508e-18 1.7826e-34)
(0.11265 0.708504 -3.78365e-18 -0.128923 5.73032e-19 2.41157e-34)
(0.120096 0.859028 7.06842e-18 -0.13465 -9.12445e-18 -4.03671e-35)
(0.422438 -4.05344 2.046e-18 -0.40064 6.83065e-18 -1.44741e-35)
(0.107661 -1.57256 2.00266e-17 -0.0844131 1.16637e-17 -1.94188e-35)
(0.0185454 -1.13147 3.40922e-18 -0.00652536 4.65832e-18 -3.02874e-35)
(-0.0481531 -0.469081 -8.1787e-18 0.0756093 1.5432e-19 4.10305e-35)
(-0.0766187 -0.208703 -8.20258e-18 0.0796211 -7.06163e-18 -7.95549e-35)
(-0.0973332 0.0673896 8.86755e-18 0.120441 1.54828e-18 -1.42057e-35)
(-0.0985528 0.197615 -7.30496e-18 0.111957 -9.20628e-18 -1.11985e-35)
(-0.111958 0.391047 -1.4276e-18 0.123511 -1.91135e-17 -1.19011e-34)
(-0.107913 0.479801 -9.20951e-18 0.126979 -4.31315e-18 -1.74206e-34)
(-0.114438 0.621257 -8.09127e-18 0.125658 8.72292e-18 -1.37633e-34)
(-0.112196 0.708592 -4.79184e-19 0.129374 1.48385e-17 -8.03408e-36)
(-0.119948 0.85913 -1.19191e-18 0.13516 -1.93065e-18 1.12475e-35)