/*--------------------------------*- C++ -*----------------------------------*\
| =========                 |                                                 |
| \\      /  F ield         | foam-extend: Open Source CFD                    |
|  \\    /   O peration     | Version:  3.0                                   |
|   \\  /    A nd           | Web:         http://www.extend-project.de       |
|    \\/     M anipulation  |                                                 |
\*---------------------------------------------------------------------------*/
FoamFile
{
    version     2.0;
    format      ascii;
    class       volVectorField;
    location    "8";
    object      u;
}
// * * * * * * * * * * * * * * * * * * * * * * * * * * * * * * * * * * * * * //

dimensions      [0 0 0 0 0 0 0];

internalField   nonuniform List<vector> 
120
(
(0.502758 -0.161486 -1.38892e-20)
(0.762235 -0.0909041 6.20738e-18)
(0.956867 -0.0496331 -1.42267e-17)
(0.961944 -0.0302796 7.37025e-18)
(1.04886 -0.00109011 3.50524e-17)
(0.661665 -0.435114 2.50473e-18)
(0.850053 -0.241215 -3.39029e-17)
(1.00281 -0.127165 -9.80988e-18)
(0.988058 -0.0729975 -3.15717e-17)
(1.0462 0.00583625 -2.82743e-17)
(0.936139 -0.592785 4.0588e-18)
(1.00135 -0.327657 6.5887e-18)
(1.08146 -0.171621 1.86218e-17)
(1.03221 -0.0972918 1.09272e-17)
(1.04062 0.0100253 8.75728e-17)
(1.25279 -0.592211 1.86747e-18)
(1.17571 -0.327054 -7.81729e-19)
(1.17198 -0.171001 2.75453e-17)
(1.08282 -0.0965577 -1.35719e-18)
(1.03412 0.0104042 -6.05029e-18)
(1.5268 -0.433469 -2.17515e-18)
(1.32655 -0.239419 3.3804e-18)
(1.25027 -0.125322 -3.24573e-18)
(1.12658 -0.0707373 6.00608e-18)
(1.02896 0.00718449 -2.87796e-17)
(1.68484 -0.158981 -9.18022e-19)
(1.41357 -0.0881115 4.97474e-18)
(1.29552 -0.0465469 -2.74496e-18)
(1.15193 -0.026456 2.19471e-18)
(1.02677 0.00188957 -1.29154e-17)
(1.68458 0.157771 -1.11267e-18)
(1.41351 0.0865439 4.17529e-18)
(1.29565 0.0444595 5.60009e-19)
(1.15216 0.0248066 1.51666e-18)
(1.02799 -0.00351704 -1.15288e-17)
(1.52612 0.432076 -3.11232e-18)
(1.3264 0.237933 1.00943e-17)
(1.2506 0.123621 -1.37592e-18)
(1.12718 0.0696216 8.59838e-18)
(1.03194 -0.00730248 3.89436e-18)
(1.25189 0.590516 -3.01093e-18)
(1.17551 0.325716 -1.33641e-17)
(1.17238 0.169917 -2.08178e-17)
(1.08357 0.0962951 -1.47564e-17)
(1.03743 -0.00850079 -5.75804e-17)
(0.935268 0.590781 2.12523e-18)
(1.00116 0.326492 1.83227e-18)
(1.08181 0.171152 -2.73885e-17)
(1.03289 0.0978935 5.87154e-18)
(1.04309 -0.00668064 4.15167e-17)
(0.66104 0.43285 7.9815e-18)
(0.849926 0.240181 -4.77669e-18)
(1.00306 0.127141 2.50436e-17)
(0.988551 0.0742438 -8.55467e-18)
(1.04757 -0.0019392 6.56309e-17)
(0.502532 0.159091 -3.15028e-19)
(0.762207 0.0899238 -1.20139e-17)
(0.957046 0.0498034 1.85956e-17)
(0.962212 0.0318311 -2.82905e-18)
(1.04942 0.00511488 2.9771e-18)
(0.502154 -0.157125 6.64532e-21)
(0.761366 -0.0839778 -6.20215e-18)
(0.955916 -0.0400494 1.42334e-17)
(0.960626 -0.0178439 -7.37535e-18)
(1.04747 0.0130493 -3.52312e-17)
(0.65987 -0.431077 -2.51706e-18)
(0.847546 -0.234937 3.39357e-17)
(0.999728 -0.118366 9.8381e-18)
(0.983938 -0.061497 3.1705e-17)
(1.04134 0.0197146 2.83545e-17)
(0.933351 -0.589356 -4.08273e-18)
(0.997491 -0.322512 -6.6557e-18)
(1.07656 -0.164213 -1.87223e-17)
(1.02557 -0.0875304 -1.10179e-17)
(1.03206 0.0227965 -8.82101e-17)
(1.24917 -0.589611 -1.87983e-18)
(1.17091 -0.323274 7.68125e-19)
(1.16563 -0.165467 -2.76136e-17)
(1.07418 -0.0891574 1.36807e-18)
(1.02193 0.0208371 6.23068e-18)
(1.52265 -0.431826 2.17714e-18)
(1.32115 -0.237148 -3.40514e-18)
(1.24294 -0.121934 3.30811e-18)
(1.11653 -0.0661838 -6.03799e-18)
(1.01389 0.0140068 2.90444e-17)
(1.68039 -0.158418 9.2544e-19)
(1.40785 -0.0873528 -4.97982e-18)
(1.28766 -0.0455011 2.76085e-18)
(1.14114 -0.0249951 -2.21214e-18)
(1.01017 0.00411427 1.29667e-17)
(1.68014 0.157261 1.13378e-18)
(1.40773 0.0857339 -4.15547e-18)
(1.28773 0.0431445 -5.68754e-19)
(1.14132 0.0230484 -1.49795e-18)
(1.01159 -0.00612387 1.17623e-17)
(1.52194 0.430462 3.14694e-18)
(1.32082 0.235554 -1.01645e-17)
(1.24309 0.119952 1.33947e-18)
(1.11697 0.0647762 -8.75615e-18)
(1.01736 -0.0142447 -3.94381e-18)
(1.24827 0.587931 3.05169e-18)
(1.1705 0.321759 1.34067e-17)
(1.16578 0.1641 2.0931e-17)
(1.0747 0.0886178 1.48502e-17)
(1.02575 -0.0186805 5.83017e-17)
(0.932485 0.587328 -2.10103e-18)
(0.997133 0.321124 -1.83444e-18)
(1.07663 0.163483 2.75171e-17)
(1.02598 0.0878976 -5.89161e-18)
(1.03478 -0.0189617 -4.17079e-17)
(0.659278 0.428802 -7.97709e-18)
(0.847321 0.23373 4.77735e-18)
(0.999718 0.118161 -2.50644e-17)
(0.98414 0.062579 8.59778e-18)
(1.04261 -0.0153278 -6.59089e-17)
(0.501964 0.154708 3.13631e-19)
(0.761272 0.0829169 1.20272e-17)
(0.955818 0.0401511 -1.8604e-17)
(0.960588 0.0193387 2.86399e-18)
(1.04764 -0.00881808 -3.02334e-18)
)
;

boundaryField
{
    out
    {
        type            fixedValue;
        value           uniform (1 0 0);
    }
    in
    {
        type            myVelocity;
    }
    frontAndBack
    {
        type            empty;
    }
}


// ************************************************************************* //
