/*--------------------------------*- C++ -*----------------------------------*\
| =========                 |                                                 |
| \\      /  F ield         | foam-extend: Open Source CFD                    |
|  \\    /   O peration     | Version:  3.0                                   |
|   \\  /    A nd           | Web:         http://www.extend-project.de       |
|    \\/     M anipulation  |                                                 |
\*---------------------------------------------------------------------------*/
FoamFile
{
    version     2.0;
    format      ascii;
    class       volScalarField;
    location    "30";
    object      p;
}
// * * * * * * * * * * * * * * * * * * * * * * * * * * * * * * * * * * * * * //

dimensions      [0 0 0 0 0 0 0];

internalField   nonuniform List<scalar> 
672
(
-0.2397722568
-0.2036131574
-0.1920158847
-0.1737317734
-0.1704370529
-0.1607049309
-0.1608949186
-0.1555630994
-0.1565557285
-0.1528807147
-0.1523261182
-0.1476346594
-0.2367606069
-0.2010544861
-0.1896021124
-0.1715466807
-0.1682926101
-0.1586819816
-0.1588689534
-0.1536035444
-0.1545831783
-0.1509539392
-0.1504059298
-0.1457732122
-0.2307523345
-0.1959520669
-0.1847902469
-0.1671929192
-0.164021482
-0.1546547508
-0.1548370974
-0.1497053603
-0.1506602774
-0.1471231752
-0.1465891704
-0.1420738966
-0.2218617954
-0.1884009828
-0.1776683109
-0.1607479814
-0.1576979681
-0.1486913642
-0.1488660354
-0.1439314534
-0.1448490523
-0.1414478533
-0.1409340427
-0.1365925423
-0.2101616459
-0.1784650992
-0.1682983581
-0.1522702124
-0.1493810809
-0.140849426
-0.1410149827
-0.136340661
-0.1372099972
-0.133988184
-0.1335015486
-0.1293888695
-0.1958381618
-0.1663004718
-0.1568256685
-0.1418888783
-0.1391958514
-0.1312448806
-0.1313984793
-0.127042148
-0.1278516944
-0.1248490739
-0.1243952181
-0.1205626295
-0.1790323357
-0.1520289762
-0.143367128
-0.1297119228
-0.127249982
-0.1199812341
-0.1201217009
-0.1161391874
-0.1168793491
-0.114134384
-0.1137195269
-0.1102156753
-0.159994649
-0.135861182
-0.1281193388
-0.1159150591
-0.1137140492
-0.1072173898
-0.107342203
-0.1037825475
-0.1044434303
-0.1019899346
-0.1016187823
-0.09848728091
-0.138925362
-0.1179693037
-0.1112467086
-0.1006492101
-0.09873792813
-0.09309659822
-0.09320494373
-0.09011395297
-0.09068782811
-0.08855736194
-0.08823509212
-0.08551577384
-0.1161286007
-0.09860945959
-0.09298876291
-0.0841289397
-0.08253030284
-0.07781370882
-0.07790347134
-0.07531897822
-0.07579805108
-0.07401670055
-0.07374686073
-0.07147346998
-0.09185186034
-0.07799397513
-0.07354775356
-0.06653939751
-0.06527463072
-0.06154362377
-0.06161443025
-0.05956997654
-0.0599487998
-0.05853967389
-0.05832615996
-0.05652774082
-0.06643964397
-0.05641325895
-0.05319552974
-0.04812440156
-0.04720828719
-0.04450825181
-0.04455845636
-0.04307871521
-0.04335195083
-0.0423320656
-0.04217706615
-0.04087578068
-0.04017229634
-0.03410752413
-0.03216065096
-0.02909289676
-0.02853808259
-0.02690451062
-0.0269342432
-0.02603886279
-0.02620365306
-0.02558653963
-0.0254925
-0.02470516709
-0.01341939488
-0.01138847611
-0.01073504053
-0.00970686465
-0.00951919866
-0.00897109621
-0.008979220353
-0.008678422627
-0.008732116802
-0.00852483327
-0.008492442239
-0.008228509755
0.01352189885
0.01148939592
0.01083927257
0.009812564122
0.009629588075
0.009083788281
0.009096605543
0.008797996889
0.008855488511
0.008649632033
0.008619469181
0.008356229483
0.04027348954
0.03420715585
0.03226355521
0.02919725099
0.02864706913
0.02701577091
0.02705013825
0.02615691876
0.02632545923
0.0257097534
0.02561791432
0.02483126465
0.06653827214
0.05651036306
0.0532958188
0.04822610063
0.04731449292
0.04461666828
0.04467137886
0.04319373842
0.04347061653
0.0424521008
0.04229923686
0.04099861838
0.0919466226
0.07808728021
0.07364412655
0.06663712852
0.06537669824
0.06164781594
0.06172295583
0.05968051874
0.06006284371
0.05865502935
0.05844356703
0.05664578689
0.1162183635
0.09869783854
0.09308003964
0.08422149794
0.0826269544
0.07791236413
0.07800621211
0.07542361994
0.07590599008
0.0741258772
0.07385796827
0.07158518341
0.1390089002
0.1180515654
0.1113316801
0.1007353774
0.0988279141
0.09318844697
0.0933005982
0.09021137066
0.09078831255
0.0886589905
0.08833851144
0.08561975466
0.1600710058
0.1359363678
0.1281969902
0.1159937992
0.1137962618
0.1073012949
0.1074295632
0.1038715072
0.1045351724
0.102082715
0.1017131876
0.09858219747
0.1791004268
0.1520960376
0.1434364076
0.1297821727
0.1273233383
0.1200560916
0.1201996394
0.1162185408
0.1169611761
0.1142171276
0.1138037073
0.1103003093
0.1958972483
0.166358659
0.1568857637
0.1419498129
0.1392594612
0.1313097832
0.1314660301
0.127110913
0.1279225869
0.1249207524
0.1244681298
0.1206359299
0.2102108484
0.1785135679
0.1683484477
0.1523209912
0.1494340974
0.1409035014
0.1410712587
0.1363979321
0.1372690309
0.1340478636
0.1335622399
0.1294498817
0.2219006181
0.1884392154
0.17770779
0.1607880011
0.1577397279
0.1487339503
0.148910333
0.1439765265
0.1448955027
0.1414948075
0.1409817811
0.1366405284
0.2307801602
0.1959794733
0.1848186101
0.1672216469
0.1640514711
0.1546853068
0.1548688741
0.1497376748
0.1506935671
0.1471568143
0.1466233473
0.1421082456
0.2367772031
0.2010708295
0.1896189698
0.171563743
0.1683103897
0.1587000824
0.15888775
0.1536226448
0.1546028383
0.1509738004
0.1504260919
0.1457934697
0.2397769323
0.2036179425
0.1920210146
0.1737369616
0.1704424871
0.160710435
0.1609006211
0.155568865
0.15656163
0.1528866503
0.1523320999
0.1476406673
0.2397810296
0.2036201009
0.1920220293
0.1737367008
0.1704413931
0.1607084405
0.1608979771
0.1555655781
0.1565578352
0.1528824234
0.1523274947
0.1476357973
0.2367500313
0.2010459521
0.1895945039
0.1715402317
0.1682866751
0.1586767632
0.1588640454
0.1535991053
0.1545789737
0.1509500573
0.1504022409
0.1457697319
0.2307614744
0.1959591993
0.1847964694
0.1671979139
0.1640258815
0.1546583182
0.1548402144
0.1497079008
0.1506624632
0.1471249723
0.1465906474
0.142075131
0.2218512376
0.1883924716
0.1776607528
0.1607416099
0.1576921355
0.148686267
0.1488612679
0.1439271661
0.1448450149
0.1414441421
0.1409305393
0.1365892537
0.2101708133
0.178472273
0.1683046084
0.1522752627
0.149385553
0.1408530909
0.1410182197
0.1363433372
0.1372123357
0.133990144
0.1335032127
0.1293902993
0.1958276387
0.1662919982
0.1568181675
0.1418825815
0.1391901196
0.1312399078
0.1313938649
0.1270380335
0.1278478485
0.1248455641
0.1243919378
0.1205595721
0.1790415462
0.1520361871
0.1433734142
0.1297170276
0.1272545302
0.1199850048
0.1201250784
0.116142034
0.1168818883
0.1141365625
0.1137214369
0.1102173598
0.1599841623
0.1358527389
0.1281118787
0.1159088131
0.1137083905
0.1072125132
0.1073377176
0.1037785911
0.1044397739
0.1019866352
0.1016157399
0.09848447098
0.1389346226
0.1179765545
0.1112530372
0.1006543683
0.09874254912
0.09310046584
0.09320845102
0.09011695893
0.09069056273
0.08855975646
0.08823724653
0.08551770956
0.1161181462
0.09860104216
0.09298133573
0.08412273375
0.08252470318
0.07780891028
0.07789909349
0.07531515492
0.07579455877
0.07401358558
0.07374402591
0.07147087472
0.09186116788
0.07800126441
0.07355412352
0.06654460347
0.06527931392
0.06154757025
0.0616180412
0.05957310793
0.05995168991
0.05854224149
0.05832851213
0.05652987866
0.06642921293
0.05640486121
0.05318812767
0.04811822629
0.04720273251
0.04450351205
0.04455415964
0.04307499042
0.04334858166
0.04232908727
0.04217438469
0.0408733422
0.04018163767
0.03411484206
0.03216705108
0.02909813593
0.02854280646
0.02690850659
0.02693791698
0.02604206893
0.0262066353
0.02558921004
0.02549497021
0.02470742532
0.01340897423
0.01138008814
0.01072765082
0.009700704828
0.009513665898
0.008966385074
0.008974962978
0.008674744908
0.008728807495
0.00852191996
0.008489834148
0.008226145301
-0.01351254389
-0.01148206561
-0.01083286111
-0.009807313546
-0.009624853645
-0.00907978089
-0.009092920004
-0.008794777611
-0.008852491062
-0.008646944518
-0.00861697923
-0.008353951187
-0.04028391506
-0.03421554656
-0.03227094911
-0.02920341557
-0.02865261055
-0.02702049266
-0.02705441091
-0.02616061465
-0.02632879111
-0.02571269197
-0.02562055117
-0.02483365885
-0.06652892588
-0.05650303887
-0.05328941745
-0.04822086281
-0.04730978065
-0.04461268967
-0.04466773457
-0.0431905692
-0.04346768224
-0.04244948371
-0.04229682728
-0.04099642239
-0.09195706704
-0.07809568529
-0.07365154061
-0.0666433175
-0.06538227851
-0.06165258712
-0.06172729731
-0.05968429649
-0.06006627823
-0.05865808061
-0.05844633105
-0.05664831082
-0.1162090458
-0.09869053689
-0.093073668
-0.08421629469
-0.08262229409
-0.0779084509
-0.07800265631
-0.07542055669
-0.07590318727
-0.07412340683
-0.07385572527
-0.07158315819
-0.1390193736
-0.1180599927
-0.1113391261
-0.100741605
-0.09883355583
-0.09319329747
-0.09330504803
-0.09021527769
-0.09079190627
-0.08866221781
-0.08834147182
-0.08562247999
-0.1600617303
-0.1359291002
-0.1281906634
-0.1159886469
-0.1137916762
-0.1072974762
-0.1074261319
-0.1038685919
-0.1045325503
-0.1020804457
-0.1017111715
-0.09858040535
-0.1791109347
-0.1521044905
-0.1434438924
-0.1297884466
-0.127329053
-0.1200610383
-0.1202042178
-0.1162226018
-0.1169649554
-0.1142205619
-0.1138068977
-0.1103032727
-0.1958880203
-0.1663514308
-0.1568794908
-0.1419447216
-0.1392549613
-0.131306074
-0.1314627395
-0.1271081632
-0.1279201635
-0.1249187024
-0.1244663604
-0.120634392
-0.2102213936
-0.178522048
-0.1683559753
-0.1523273171
-0.1494398869
-0.1409085462
-0.1410759637
-0.1364021436
-0.1372729892
-0.1340514973
-0.1335656541
-0.1294530782
-0.2218914348
-0.1884320285
-0.1777015716
-0.1607829775
-0.1577353125
-0.1487303475
-0.1489071722
-0.1439739264
-0.1448932544
-0.1414929489
-0.1409802268
-0.1366392139
-0.2307907441
-0.1959879864
-0.1848261826
-0.1672280368
-0.1640573394
-0.1546904485
-0.1548736941
-0.1497420175
-0.1506976766
-0.1471606135
-0.1466269453
-0.1421116335
-0.236768066
-0.2010636936
-0.1896127929
-0.1715587873
-0.1683060447
-0.1586965653
-0.1588846845
-0.153620151
-0.1546007097
-0.1509720714
-0.1504246847
-0.145792305
-0.2397875438
-0.2036264997
-0.1920286408
-0.1737434329
-0.1704484465
-0.1607156787
-0.1609055502
-0.155573322
-0.1565658624
-0.1528905738
-0.1523358247
-0.1476441745
)
;

boundaryField
{
    out
    {
        type            implicitExtrapolation;
    }
    in
    {
        type            implicitExtrapolation;
    }
    frontAndBack
    {
        type            empty;
    }
}


// ************************************************************************* //
