/*--------------------------------*- C++ -*----------------------------------*\
| =========                 |                                                 |
| \\      /  F ield         | foam-extend: Open Source CFD                    |
|  \\    /   O peration     | Version:  3.0                                   |
|   \\  /    A nd           | Web:         http://www.extend-project.de       |
|    \\/     M anipulation  |                                                 |
\*---------------------------------------------------------------------------*/
FoamFile
{
    version     2.0;
    format      ascii;
    class       volVectorField;
    location    "30";
    object      u;
}
// * * * * * * * * * * * * * * * * * * * * * * * * * * * * * * * * * * * * * //

dimensions      [0 0 0 0 0 0 0];

internalField   nonuniform List<vector> 
672
(
(0.2400807286 -0.09239817923 8.697070052e-19)
(0.4871262679 -0.0652388753 3.802315388e-18)
(0.6613035105 -0.04766964816 1.16200759e-17)
(0.7631288529 -0.03532030751 -4.705434148e-18)
(0.84669181 -0.0266963309 5.699646861e-18)
(0.8925787062 -0.02028917018 2.476632674e-18)
(0.9378478443 -0.01534567026 2.801534282e-18)
(0.9573874276 -0.01155606535 -7.210955281e-19)
(0.983591588 -0.008167492626 6.242854324e-18)
(0.98797689 -0.005587984098 9.409614586e-18)
(1.003139574 -0.002799862943 -2.487779145e-18)
(0.9968249891 -0.0004237584062 2.039219464e-18)
(0.2811444261 -0.2722303861 -5.703180144e-19)
(0.5161055393 -0.1921460172 3.975998642e-18)
(0.6824655882 -0.1403321316 1.306243505e-17)
(0.7787958088 -0.1039124318 -5.803251804e-18)
(0.8585207592 -0.07847150616 -9.232639489e-19)
(0.9015556956 -0.05956909922 -2.602523478e-18)
(0.9446238686 -0.04497767389 -1.784329139e-17)
(0.9624755491 -0.03378954463 1.192971777e-17)
(0.9871700441 -0.02377914781 1.040337936e-17)
(0.9904051857 -0.01615403578 -3.808791764e-18)
(1.004324279 -0.007906678625 -1.018737553e-17)
(0.9969507827 -0.000884488429 2.119520569e-17)
(0.3611944022 -0.4384167468 -5.919366882e-18)
(0.5725984053 -0.30942284 3.175019846e-18)
(0.7237162839 -0.2259629194 4.838022589e-18)
(0.8093335738 -0.1672989643 1.146394101e-17)
(0.8815739822 -0.1263170157 -5.314210679e-18)
(0.9190485735 -0.09586714691 1.513484725e-17)
(0.9578235579 -0.07235969583 1.503135371e-17)
(0.9723839073 -0.0543340795 3.280338072e-17)
(0.9941326043 -0.03820408117 -7.864271419e-18)
(0.9951242515 -0.0259157358 1.233472093e-17)
(1.006615655 -0.01262296805 -4.08525967e-18)
(0.9971765332 -0.001306791599 1.343328923e-17)
(0.4762177105 -0.5826238694 5.21927606e-18)
(0.6537712596 -0.4111889299 -1.972462116e-18)
(0.782987813 -0.3002677908 -2.574667967e-18)
(0.8532104054 -0.2223014773 1.640857756e-18)
(0.9146963281 -0.1678334226 -1.431425709e-17)
(0.9441799351 -0.1273631942 9.699949611e-18)
(0.9767859446 -0.09611841326 -2.372228838e-17)
(0.9866155192 -0.07215941945 2.080358716e-17)
(1.004131084 -0.05071863072 6.870068349e-18)
(1.001897325 -0.0343835233 2.689736205e-17)
(1.009899735 -0.01671197102 3.245492138e-18)
(0.9974908068 -0.001669453767 4.270880026e-17)
(0.62044595 -0.6976206806 1.931805901e-17)
(0.7555543764 -0.4923409562 2.852889957e-18)
(0.8573075334 -0.359521081 7.85578463e-19)
(0.9082267957 -0.2661617207 4.142423162e-18)
(0.9562264351 -0.2009391674 5.451816812e-18)
(0.9756901974 -0.152477741 1.893574089e-17)
(1.000559726 -0.1150627024 -1.528289306e-17)
(1.004457371 -0.08637158299 7.194912833e-18)
(1.016663747 -0.06069546117 1.673129038e-17)
(1.010385505 -0.04113258015 -3.782224243e-17)
(1.014011607 -0.01996876198 -5.022775614e-18)
(0.997878707 -0.0019540138 8.255075458e-18)
(0.7866478027 -0.7776405225 3.091602344e-18)
(0.8728436713 -0.5488099291 4.398491251e-18)
(0.9429495538 -0.4007511788 -1.73108364e-17)
(0.9716237346 -0.2966805322 1.511329816e-18)
(1.004082622 -0.2239737927 -1.400928707e-17)
(1.011999132 -0.1699515524 1.132879425e-17)
(1.027953638 -0.1282422133 -2.724484171e-17)
(1.025014678 -0.09625798719 -1.8174734e-17)
(1.031103019 -0.0676338821 1.13926014e-17)
(1.02016305 -0.04582454439 4.968822075e-17)
(1.018745968 -0.02222962068 -5.043189998e-17)
(0.9983206945 -0.002146257033 3.645571216e-17)
(0.9664885697 -0.8186710836 -8.64558821e-19)
(0.9997581465 -0.5777637878 2.934648764e-18)
(1.035618849 -0.4218909114 -1.330987072e-17)
(1.040222671 -0.3123271706 -1.612745902e-17)
(1.055864682 -0.2357825008 2.300698425e-17)
(1.051286524 -0.1789080453 9.583884716e-18)
(1.057593602 -0.1349962987 1.89147001e-17)
(1.047257132 -0.1013225061 -2.529371845e-18)
(1.046724508 -0.07118615301 -9.959496827e-19)
(1.030740291 -0.04822371099 -2.345519804e-17)
(1.023865178 -0.02338129041 2.848815796e-17)
(0.9987953529 -0.002236040181 1.073279743e-17)
(1.150951017 -0.8186545401 5.658682338e-18)
(1.129933594 -0.5777510525 -3.152558073e-18)
(1.130669336 -0.421879784 -8.441295299e-19)
(1.110583627 -0.3123173177 -7.435377958e-18)
(1.108976796 -0.2357726412 3.287483623e-18)
(1.091582244 -0.1788982796 7.582017421e-18)
(1.08799411 -0.1349857272 2.199724978e-17)
(1.070069335 -0.1013113028 3.131452856e-18)
(1.062745659 -0.07117357465 7.031095601e-18)
(1.041586778 -0.0482098731 2.956072967e-17)
(1.029113322 -0.0233654365 -2.196500022e-17)
(0.9992788206 -0.002218944068 5.357416035e-18)
(1.330784872 -0.777592058 8.769233332e-18)
(1.256842777 -0.5487717951 -4.372933917e-18)
(1.223334281 -0.4007186924 -7.355299826e-18)
(1.179178736 -0.2966509665 8.655802762e-18)
(1.160755267 -0.2239450446 -2.071777884e-17)
(1.130866063 -0.1699222775 5.057294852e-18)
(1.117630394 -0.1282113422 -9.760959291e-18)
(1.092307813 -0.09622445943 1.340081585e-17)
(1.07836282 -0.06759703869 -4.405177259e-18)
(1.052159133 -0.04578318392 -3.522870052e-17)
(1.034227036 -0.02218302882 1.093866381e-17)
(0.9997474787 -0.002095180615 -2.211217472e-17)
(1.496973125 -0.6975421429 6.156413307e-18)
(1.374121813 -0.4922795841 9.759005726e-19)
(1.30896769 -0.3594681552 1.497422745e-17)
(1.242568256 -0.2661139864 3.217020371e-18)
(1.208604297 -0.2008921392 3.764595693e-18)
(1.16716804 -0.1524303174 -2.155273406e-17)
(1.145016943 -0.1150121262 3.679609562e-18)
(1.112857362 -0.08631716431 2.131967553e-19)
(1.092793464 -0.06063513794 -1.438803217e-17)
(1.061927146 -0.04106540796 -1.526428658e-17)
(1.038950499 -0.01989259141 1.401576819e-17)
(1.000177765 -0.001871027115 -5.418743402e-18)
(1.641181964 -0.5825192999 -6.882264891e-19)
(1.475890055 -0.4111065623 -3.631530853e-19)
(1.383275155 -0.3001970881 1.432108635e-18)
(1.297573812 -0.2222370837 -4.831786397e-18)
(1.250124227 -0.1677703231 5.021978612e-18)
(1.198668139 -0.1272989964 -1.050664843e-17)
(1.168780251 -0.09605033624 -7.235697108e-19)
(1.130687895 -0.07208566461 -5.492521439e-18)
(1.105313812 -0.05063730389 -1.701240377e-18)
(1.070401424 -0.0342925 4.79584149e-18)
(1.043046747 -0.01660921254 1.870121696e-18)
(1.000548599 -0.001556980702 -3.534667053e-18)
(1.756180602 -0.4382905624 -6.559295755e-18)
(1.557044343 -0.3093235133 -1.512903793e-18)
(1.442531018 -0.2258768766 3.45818353e-18)
(1.341437122 -0.1672207291 3.961099924e-18)
(1.283233457 -0.1262396973 4.27378731e-18)
(1.223786721 -0.09578870639 -4.567540268e-18)
(1.187729079 -0.0722759838 1.010909144e-17)
(1.144905219 -0.05424371813 -1.088684277e-17)
(1.11529639 -0.03810401345 -5.73838101e-18)
(1.077156941 -0.02580416403 -3.126710217e-18)
(1.046310743 -0.01249664487 1.205960838e-17)
(1.000841307 -0.001168850506 -1.016432403e-17)
(1.836202225 -0.2720887509 -3.850893886e-18)
(1.613515383 -0.1920336388 -1.157385545e-18)
(1.483763703 -0.1402347677 1.830986316e-18)
(1.371958861 -0.1038230864 1.481403203e-18)
(1.306271592 -0.07838325337 4.028714621e-19)
(1.241264456 -0.05947891358 -1.483863727e-18)
(1.20091316 -0.044881625 7.564269068e-19)
(1.154796682 -0.03368536374 -6.246380461e-18)
(1.122240584 -0.02366407803 -6.132543964e-19)
(1.081855253 -0.01602534242 -2.739319174e-18)
(1.048578804 -0.007761355876 4.804434584e-18)
(1.001041558 -0.0007252779843 -3.65640841e-18)
(1.877234483 -0.09224711346 -1.890599664e-18)
(1.64247146 -0.06511876208 -6.516390001e-19)
(1.504905851 -0.04756442203 5.837049945e-19)
(1.387608489 -0.03522349348 1.015483402e-18)
(1.318083571 -0.02659990149 5.437805379e-19)
(1.250224859 -0.02019058311 -7.196938579e-19)
(1.207671528 -0.01524008906 -2.122472799e-19)
(1.159866198 -0.01144166294 -3.131247064e-18)
(1.125798313 -0.00804069814 -1.987280704e-18)
(1.084260681 -0.005446507792 -1.92163827e-18)
(1.049737341 -0.002639866926 1.825789519e-18)
(1.001139234 -0.0002485793855 -2.610058168e-18)
(1.877219701 0.09221568494 -1.453246737e-19)
(1.642460613 0.06505770904 -1.599608393e-20)
(1.504897222 0.04748672777 -5.757888913e-19)
(1.387601336 0.03513880253 1.450118763e-18)
(1.31807707 0.02651325286 6.870850955e-19)
(1.250218723 0.02010685592 -3.322695153e-19)
(1.2076653 0.01516188597 5.725033607e-19)
(1.159859686 0.01137269891 -2.965751136e-18)
(1.125791207 0.007982399606 -2.568294069e-18)
(1.084252745 0.005402648927 -1.907903302e-18)
(1.049728298 0.00261079468 9.94231636e-19)
(1.00112959 0.0002382200095 -3.55763236e-18)
(1.836158676 0.2720507527 1.725273824e-18)
(1.613483422 0.1919677616 7.292493241e-19)
(1.483738256 0.1401532318 -1.208787321e-18)
(1.371937752 0.1037352079 1.411293539e-18)
(1.306252377 0.07829370301 1.637330185e-18)
(1.24124632 0.05939244878 -8.031970329e-19)
(1.200894738 0.0448006409 2.899030878e-18)
(1.154777431 0.03361349504 -5.994654777e-18)
(1.12221957 0.02360260761 -3.025705748e-18)
(1.081831803 0.01597794525 -1.098273592e-18)
(1.048552082 0.007728249894 1.00497506e-18)
(1.00101307 0.00071062144 -7.38505084e-18)
(1.756110413 0.4382397406 3.964363036e-18)
(1.556992833 0.3092482288 1.495919729e-18)
(1.44249002 0.2257878585 7.055568044e-19)
(1.341403123 0.1671266519 -2.597996947e-18)
(1.283202527 0.1261445136 3.216493889e-18)
(1.22375753 0.09569692798 -5.219059704e-18)
(1.187699438 0.07218960748 -2.619667109e-18)
(1.144874236 0.05416621244 -9.396601141e-18)
(1.115262577 0.03803639097 1.764693051e-18)
(1.077119196 0.02574989432 -4.998751202e-18)
(1.046267731 0.01245570306 -1.057584665e-18)
(1.000795446 0.001145824971 -7.111292861e-18)
(1.641088712 0.5824500719 4.144863065e-20)
(1.475821624 0.4110177631 2.903321822e-18)
(1.383220679 0.3000973088 3.264452394e-18)
(1.297528632 0.2221340782 8.030732843e-19)
(1.250083109 0.1676670115 5.654832843e-18)
(1.19862933 0.1271995493 -3.847092952e-18)
(1.168740835 0.0959561689 1.355020405e-17)
(1.130646701 0.07200002119 -3.095135838e-18)
(1.10526885 0.05056079504 -2.259116847e-18)
(1.07035124 0.03422831831 -7.130836849e-18)
(1.042989563 0.01655697102 -4.40094753e-19)
(1.000487628 0.001521917391 -1.572717977e-17)
(1.496861427 0.6974498045 -6.906409781e-18)
(1.374039844 0.4921738319 -1.461161269e-19)
(1.308902448 0.3593548952 1.705591138e-18)
(1.242514149 0.265999814 -6.052957149e-19)
(1.20855507 0.2007786823 -4.059436426e-18)
(1.167121579 0.1523213016 -9.060182323e-18)
(1.144969765 0.1149082501 9.999954097e-18)
(1.112808051 0.08622136974 2.989628449e-18)
(1.092739647 0.06054755028 -6.393507367e-18)
(1.061867074 0.040988846 2.090280137e-17)
(1.038882047 0.01982623478 6.816438126e-18)
(1.000104779 0.001820886848 -7.866344976e-19)
(1.330660386 0.7774731267 1.507953416e-18)
(1.25675144 0.5486465213 -1.789992687e-18)
(1.223261577 0.4005898929 1.277876898e-17)
(1.179118443 0.2965239046 5.420553302e-19)
(1.160700401 0.2238198533 8.124510124e-18)
(1.130814278 0.1698021903 -5.91122609e-18)
(1.117577803 0.1280962162 1.627691491e-17)
(1.092252845 0.09611691335 1.507888901e-17)
(1.078302828 0.06749661842 -3.240822531e-18)
(1.052092168 0.04569230895 -3.265134364e-17)
(1.034150733 0.02210035535 3.324604292e-17)
(0.9996661128 0.002027654298 -2.221425484e-17)
(1.150819928 0.8185067874 3.36390906e-19)
(1.129837404 0.5776046371 -1.891788821e-18)
(1.130592778 0.4217341812 8.246202092e-18)
(1.110520133 0.3121763366 1.301049259e-17)
(1.108919025 0.2356348089 -1.999644029e-17)
(1.091527715 0.1787662684 -6.208186024e-18)
(1.087938739 0.1348585034 -2.105121613e-17)
(1.070011461 0.1011911035 1.172686126e-19)
(1.062682502 0.07105934447 5.175619018e-18)
(1.041516285 0.04810356186 2.794133621e-17)
(1.029032997 0.02326516478 -2.510136481e-17)
(0.9991931768 0.002132619648 -3.537475908e-19)
(0.9663575007 0.8184938248 -9.775148034e-18)
(0.999662001 0.5775957176 2.564970276e-18)
(1.035542322 0.421728078 -4.064194832e-18)
(1.040159205 0.3121719051 3.636904651e-18)
(1.055806932 0.2356316632 1.820076612e-18)
(1.051232012 0.1787637649 -2.548140968e-18)
(1.057538247 0.1348566041 -2.063865068e-17)
(1.047199271 0.101189279 -2.735082916e-18)
(1.046661369 0.07105769659 -1.557871245e-18)
(1.03066981 0.04810153189 -2.313551022e-17)
(1.023784873 0.02326292805 2.79963526e-17)
(0.9987097128 0.002130432149 4.759032016e-18)
(0.7865232738 0.777434446 -1.53004458e-17)
(0.8727523119 0.5486207166 2.233676763e-18)
(0.9428768457 0.4005715584 4.119449471e-18)
(0.9715634219 0.2965113536 -1.590236807e-17)
(1.00402774 0.2238103234 2.727767202e-17)
(1.011947321 0.1697953497 9.2470333e-19)
(1.027901028 0.1280904222 1.699965964e-17)
(1.024959693 0.09611210463 -1.336401547e-17)
(1.031043025 0.06749161668 1.362647667e-17)
(1.020096096 0.04568693089 5.71782734e-17)
(1.018669682 0.02209366454 -2.055631495e-17)
(0.9982393615 0.002021856505 3.233093081e-17)
(0.6203342386 0.6973880374 -1.240130256e-17)
(0.755472457 0.492132243 -5.604878334e-18)
(0.8572423382 0.3593259392 -2.919988928e-17)
(0.9081727143 0.2659796835 -5.869012001e-18)
(0.9561772268 0.2007639839 -1.553293041e-17)
(0.9756437351 0.1523104901 3.845888182e-17)
(1.000512553 0.1148996777 -1.074797857e-17)
(1.00440806 0.08621396993 5.910940202e-18)
(1.016609952 0.06054039084 2.219756605e-17)
(1.010325455 0.04098068726 1.332558578e-17)
(1.013943194 0.01981652511 -2.831174959e-17)
(0.9978057514 0.001812254866 1.527556978e-18)
(0.4761243635 0.5823681333 4.553845527e-19)
(0.6537027875 0.4109632548 -9.910059113e-19)
(0.7829333414 0.3000592166 4.053066839e-19)
(0.8531652149 0.2221082916 8.718924617e-18)
(0.9146552068 0.1676481196 -1.746795512e-17)
(0.9441411035 0.1271863837 1.24004095e-17)
(0.9767465124 0.09594569044 -7.317788755e-18)
(0.9865743086 0.07199166241 1.412061461e-17)
(1.004086129 0.05055249759 -6.456640048e-18)
(1.001847165 0.03421926745 -2.295068092e-17)
(1.009842586 0.01654563925 -8.912134082e-18)
(0.9974298909 0.001512639755 4.804902542e-18)
(0.3611241745 0.4381426551 1.578763716e-17)
(0.5725468532 0.3091836792 1.311690636e-18)
(0.7236752979 0.225743567 -9.046685041e-18)
(0.8092995488 0.1670968601 -1.763362378e-17)
(0.8815430545 0.1261235736 -1.271153205e-17)
(0.9190193577 0.09568266657 3.047814456e-18)
(0.9577939069 0.07217917484 -3.970476077e-17)
(0.9723528994 0.05415818946 2.693463008e-17)
(0.9940987917 0.03802908073 7.197865423e-18)
(0.9950865023 0.0257416001 4.741485229e-18)
(1.006572663 0.01244537394 -4.342271963e-17)
(0.9971306914 0.001137971717 2.91729455e-17)
(0.281100888 0.2719434684 5.431402119e-18)
(0.5160735294 0.191897409 -1.063993126e-18)
(0.6824401549 0.140105348 -5.403303175e-18)
(0.7787746937 0.1037041569 -2.827953319e-18)
(0.8585015567 0.07827247153 3.765928966e-18)
(0.901537548 0.05937935114 -1.265611579e-18)
(0.9446054221 0.04479182549 1.2563398e-18)
(0.9624562502 0.03360809198 6.438857816e-18)
(0.9871489933 0.02359807618 -1.581020768e-17)
(0.9903817175 0.01597309559 1.747049299e-18)
(1.004297566 0.007721305356 -1.5544478e-17)
(0.9969223243 0.0007073528311 4.340071915e-18)
(0.2400663909 0.09210467318 1.197862529e-18)
(0.4871150644 0.06498555731 -2.747236513e-18)
(0.6612948563 0.04743896935 -8.597689682e-18)
(0.7631216612 0.035108842 1.792054866e-18)
(0.8466853652 0.02649439813 -5.315232981e-18)
(0.8925725894 0.02009672616 -1.516946327e-18)
(0.9378416214 0.01515708907 3.784109274e-20)
(0.9573808594 0.01137174314 -6.920599044e-18)
(0.9835844217 0.007983261775 -1.511510804e-18)
(0.9879688943 0.005403517936 -4.089907484e-18)
(1.003130506 0.002610491099 -4.933136693e-18)
(0.9968153171 0.000242340242 1.077163556e-18)
(0.2400789716 -0.09235594061 -8.690242618e-19)
(0.4871228891 -0.06518791279 -3.801537005e-18)
(0.6613002284 -0.04760894103 -1.161920842e-17)
(0.7631246806 -0.03524933598 4.706249687e-18)
(0.8466874009 -0.02661429905 -5.698795111e-18)
(0.8925733109 -0.02019530517 -2.475875632e-18)
(0.9378419916 -0.01523903078 -2.80082329e-18)
(0.957380473 -0.01143571925 7.220251005e-19)
(0.9835840667 -0.008032371411 -6.242147286e-18)
(0.9879682148 -0.005437015689 -9.408822128e-18)
(1.00313018 -0.002630792333 2.488581334e-18)
(0.9968141547 -0.0002336377568 -2.038107873e-18)
(0.2811371668 -0.272188732 5.709634351e-19)
(0.5160970663 -0.1920955457 -3.975232359e-18)
(0.6824552294 -0.1402722764 -1.306137784e-17)
(0.7787839861 -0.1038423268 5.803945452e-18)
(0.8585068086 -0.07839053862 9.2419122e-19)
(0.9015400003 -0.05947634762 2.603135175e-18)
(0.9446057446 -0.0448723646 1.784386614e-17)
(0.9624553659 -0.03367065411 -1.192880972e-17)
(0.9871471302 -0.0236457524 -1.040252942e-17)
(0.99037989 -0.01600493399 3.809551399e-18)
(1.004295716 -0.007739740608 1.018792442e-17)
(0.9969189806 -0.0006967225869 -2.119385609e-17)
(0.3611828011 -0.4383760853 5.919852736e-18)
(0.5725840477 -0.3093737659 -3.174350013e-18)
(0.7236995766 -0.2259044757 -4.836974492e-18)
(0.8093136764 -0.1672306812 -1.146288647e-17)
(0.8815513195 -0.1262380035 5.31518454e-18)
(0.9190223144 -0.09577676475 -1.513423061e-17)
(0.9577940345 -0.07225693134 -1.503028399e-17)
(0.9723503023 -0.05421818476 -3.280300053e-17)
(0.9940951884 -0.03807392275 7.865013228e-18)
(0.9950821783 -0.02577039721 -1.23340258e-17)
(1.006568842 -0.01246014038 4.086299241e-18)
(0.9971236562 -0.001123788438 -1.343230468e-17)
(0.4762012354 -0.5825848271 -5.21875935e-18)
(0.6537517749 -0.411141612 1.973069206e-18)
(0.782964342 -0.3002117176 2.575902246e-18)
(0.8531832325 -0.2222357292 -1.639755177e-18)
(0.9146646448 -0.1677575695 1.431460536e-17)
(0.9441439298 -0.1272762184 -9.699147221e-18)
(0.976744794 -0.09601971987 2.372285581e-17)
(0.9865693587 -0.07204791478 -2.08024449e-17)
(1.004079043 -0.05059357784 -6.8692667e-18)
(1.001839463 -0.03424369005 -2.689623863e-17)
(1.00983471 -0.01655549432 -3.244744942e-18)
(0.9974180027 -0.001493402923 -4.270681953e-17)
(0.6204255911 -0.6975835508 -1.931762724e-17)
(0.7555295432 -0.4922962909 -2.852027596e-18)
(0.8572782515 -0.3594678045 -7.840520461e-19)
(0.9081922248 -0.2660995542 -4.141560208e-18)
(0.9561867453 -0.2008671713 -5.450957127e-18)
(0.975644476 -0.1523954568 -1.893568771e-17)
(1.000508063 -0.1149690776 1.528393412e-17)
(1.004398815 -0.08626605099 -7.194115066e-18)
(1.016598296 -0.06057685621 -1.673088901e-17)
(1.010312136 -0.04100019871 3.782343493e-17)
(1.013929722 -0.01982038857 5.023340549e-18)
(0.997786424 -0.001787329582 -8.253778833e-18)
(0.7866230847 -0.777606058 -3.091084305e-18)
(0.87281417 -0.548768116 -4.397493073e-18)
(0.9429141643 -0.400701669 1.731194016e-17)
(0.9715825865 -0.2966224249 -1.5106615e-18)
(1.004034821 -0.2239068382 1.401012808e-17)
(1.011944653 -0.1698747208 -1.132808047e-17)
(1.027891541 -0.1281551089 2.724550843e-17)
(1.02494485 -0.09615950336 1.817490535e-17)
(1.031024438 -0.06752349099 -1.139173479e-17)
(1.020075501 -0.04570103359 -4.968573098e-17)
(1.018647734 -0.0220914828 5.04314877e-17)
(0.9982105202 -0.001990781915 -3.645368155e-17)
(0.9664604758 -0.8186393836 8.655006102e-19)
(0.999723997 -0.5777257662 -2.933955762e-18)
(1.035578429 -0.4218454564 1.331116749e-17)
(1.040175132 -0.3122742152 1.612839635e-17)
(1.055809963 -0.2357210988 -2.300669772e-17)
(1.051223648 -0.1788379523 -9.583143165e-18)
(1.057522409 -0.1349164786 -1.891384215e-17)
(1.047176573 -0.1012326097 2.530044204e-18)
(1.046634308 -0.07108504412 9.9667735e-19)
(1.030639302 -0.04811093017 2.345690193e-17)
(1.023752324 -0.02325481994 -2.84883286e-17)
(0.9986682834 -0.002094047028 -1.073152707e-17)
(1.150919255 -0.8186264198 -5.657761976e-18)
(1.129895521 -0.5777168472 3.153224877e-18)
(1.130623796 -0.4218393522 8.454685312e-19)
(1.110530576 -0.3122697844 7.436292631e-18)
(1.108915293 -0.2357179536 -3.287185145e-18)
(1.091512046 -0.1788354498 -7.581284887e-18)
(1.087914202 -0.1349145809 -2.199625225e-17)
(1.06997936 -0.1012307871 -3.130748474e-18)
(1.062644495 -0.07108339999 -7.030333198e-18)
(1.041473946 -0.04810890551 -2.955873071e-17)
(1.028986814 -0.02325259281 2.196462648e-17)
(0.9991368108 -0.002091869578 -5.356218606e-18)
(1.330750428 -0.7775673953 -8.768863756e-18)
(1.256801012 -0.5487423276 4.373890613e-18)
(1.223284752 -0.4006833515 7.356359659e-18)
(1.179120609 -0.2966098882 -8.655151527e-18)
(1.160688265 -0.2238973212 2.071858893e-17)
(1.130789184 -0.169867891 -5.056556188e-18)
(1.117543243 -0.1281493252 9.761759063e-18)
(1.092209294 -0.09615470336 -1.340047397e-17)
(1.0782524 -0.06751850097 4.40599993e-18)
(1.052035596 -0.04569566945 3.523069918e-17)
(1.034088878 -0.02208481801 -1.093875896e-17)
(0.9995920056 -0.001985012312 2.21137882e-17)
(1.496935903 -0.6975217947 -6.156048887e-18)
(1.374077083 -0.4922547146 -9.749863275e-19)
(1.308914298 -0.3594388618 -1.497268983e-17)
(1.242505974 -0.2660794365 -3.2161381e-18)
(1.208532189 -0.2008524854 -3.763762534e-18)
(1.167085653 -0.1523846563 2.155261017e-17)
(1.144923243 -0.1149605162 -3.678516727e-18)
(1.112751768 -0.08625866067 -2.124374521e-19)
(1.092674811 -0.06056971144 1.438821839e-17)
(1.061794713 -0.04099205924 1.526504269e-17)
(1.038802086 -0.01981071665 -1.401472123e-17)
(1.000011064 -0.001778738318 5.419971837e-18)
(1.641142887 -0.5825029172 6.887679396e-19)
(1.475842774 -0.4110871326 3.639689453e-19)
(1.383219009 -0.3001736508 -1.431002022e-18)
(1.297508019 -0.2222099624 4.832781813e-18)
(1.25004831 -0.1677386925 -5.02151665e-18)
(1.19858112 -0.1272630625 1.050731211e-17)
(1.168681525 -0.09600924803 7.241623592e-19)
(1.130576369 -0.0720395587 5.493522414e-18)
(1.105188729 -0.05058528816 1.701999661e-18)
(1.070261555 -0.03423465114 -4.794979959e-18)
(1.042890237 -0.01654419877 -1.869395863e-18)
(1.000372538 -0.001484167324 3.535765161e-18)
(1.756139785 -0.4382790098 6.559782796e-18)
(1.556995213 -0.3093092276 1.513628314e-18)
(1.44247247 -0.2258601999 -3.457040133e-18)
(1.341368751 -0.1672009021 -3.960200039e-18)
(1.283154378 -0.1262170741 -4.272757936e-18)
(1.223696296 -0.09576250881 4.568074952e-18)
(1.187626306 -0.07224650076 -1.010795119e-17)
(1.144789321 -0.05421015814 1.088696991e-17)
(1.115166222 -0.03806661255 5.73904195e-18)
(1.077011576 -0.02576210722 3.127311845e-18)
(1.046147897 -0.01244984064 -1.205834531e-17)
(1.000658297 -0.001115971192 1.016505573e-17)
(1.83616047 -0.2720814727 3.851521782e-18)
(1.613464964 -0.1920252204 1.158160242e-18)
(1.483703768 -0.1402244111 -1.829932008e-18)
(1.371888717 -0.103811284 -1.480683818e-18)
(1.306190589 -0.07836930374 -4.019634491e-19)
(1.241171684 -0.05946323632 1.484479668e-18)
(1.200807837 -0.04486352646 -7.557275714e-19)
(1.15467777 -0.03366521959 6.247199676e-18)
(1.122107143 -0.02364119152 6.140536995e-19)
(1.081706099 -0.01600005845 2.740050654e-18)
(1.048411827 -0.00773279767 -4.80371382e-18)
(1.000853764 -0.0006934673535 3.657598406e-18)
(1.877192121 -0.09224493292 1.891265456e-18)
(1.642420402 -0.06511576686 6.524107271e-19)
(1.504845096 -0.04756118821 -5.828470099e-19)
(1.387537472 -0.03521937192 -1.014668334e-18)
(1.318001504 -0.02659543255 -5.429529846e-19)
(1.250130945 -0.02018515167 7.204398422e-19)
(1.207564851 -0.01523419986 2.129211886e-19)
(1.159745825 -0.01143471718 3.132194125e-18)
(1.125663174 -0.008033184315 1.987981456e-18)
(1.084109689 -0.005437836637 1.922371302e-18)
(1.049568246 -0.002630463031 -1.824951156e-18)
(1.000949108 -0.0002377459151 2.611150104e-18)
(1.877177361 0.09221349078 1.459925056e-19)
(1.642409589 0.06505469911 1.676308425e-20)
(1.50483651 0.04748349339 5.766482461e-19)
(1.387530369 0.03513470685 -1.449313466e-18)
(1.317995054 0.02650883719 -6.862400989e-19)
(1.250124863 0.02010150691 3.330212612e-19)
(1.207558678 0.01515610647 -5.718021213e-19)
(1.159739368 0.01136589061 2.966678965e-18)
(1.125656121 0.00797503156 2.568995205e-18)
(1.084101806 0.005394121183 1.908685746e-18)
(1.049559253 0.002601489611 -9.934343748e-19)
(1.000939502 0.0002274522887 3.558727593e-18)
(1.836116897 0.2720434562 -1.724643556e-18)
(1.613433 0.191959328 -7.284956384e-19)
(1.483678344 0.1401428752 1.209835542e-18)
(1.371867653 0.103723434 -1.410609495e-18)
(1.306171438 0.07827981009 -1.63641264e-18)
(1.241153628 0.05937685761 8.038004724e-19)
(1.20078951 0.04478265717 -2.898458114e-18)
(1.154658622 0.03359349349 5.995556869e-18)
(1.122086242 0.02357987457 3.026543498e-18)
(1.081682762 0.01595281258 1.099027972e-18)
(1.048385223 0.007699802704 -1.004427472e-18)
(1.000825365 0.0006788861732 7.386372058e-18)
(1.756069613 0.4382281805 -3.963890227e-18)
(1.556943762 0.3092339453 -1.495264653e-18)
(1.442431573 0.2257712027 -7.045180125e-19)
(1.341334888 0.1671068762 2.599041603e-18)
(1.283123605 0.1261219697 -3.215526567e-18)
(1.223667283 0.0956708389 5.219672328e-18)
(1.187596857 0.07216026153 2.620728025e-18)
(1.14475854 0.05413281633 9.396969946e-18)
(1.115132614 0.03799916525 -1.763954563e-18)
(1.076974035 0.02570800947 4.999431301e-18)
(1.046105089 0.01240903342 1.058615292e-18)
(1.000612591 0.001093044941 7.112251909e-18)
(1.641049612 0.5824336677 -4.095013727e-20)
(1.475774361 0.4109983321 -2.902729017e-18)
(1.383164607 0.3000738897 -3.263229237e-18)
(1.297462958 0.2221070106 -8.01979193e-19)
(1.250007348 0.1676354638 -5.654496713e-18)
(1.198542501 0.1271637283 3.847888695e-18)
(1.168642324 0.0959152263 -1.354963945e-17)
(1.130535405 0.07195408792 3.096272677e-18)
(1.105144008 0.05050896969 2.259912716e-18)
(1.070211614 0.03417065712 7.131947543e-18)
(1.042833298 0.01649211845 4.408374244e-19)
(1.000311752 0.001449224712 1.572912075e-17)
(1.496824217 0.6974294526 6.906818787e-18)
(1.37399518 0.4921489881 1.469655558e-19)
(1.308849185 0.3593256493 -1.704075076e-18)
(1.242452052 0.2659653517 6.06151665e-19)
(1.208483184 0.2007391424 4.060288864e-18)
(1.167039452 0.1522757853 9.060227972e-18)
(1.144876348 0.1148568172 -9.998920269e-18)
(1.112702754 0.0861630707 -2.988834588e-18)
(1.092621297 0.06048234664 6.393892035e-18)
(1.061734942 0.04091571862 -2.090160339e-17)
(1.038733933 0.01974455864 -6.815879636e-18)
(0.9999383041 0.001728756977 7.879135457e-19)
(1.330625925 0.7774484382 -1.507449842e-18)
(1.256709697 0.5486170683 1.79097859e-18)
(1.223212146 0.4005545838 -1.277767612e-17)
(1.179060474 0.2964829029 -5.413968948e-19)
(1.160633603 0.223772232 -8.123675646e-18)
(1.130737651 0.1697479385 5.911933702e-18)
(1.117490932 0.1280343725 -1.627625526e-17)
(1.092154625 0.0960473597 -1.507872027e-17)
(1.078192712 0.06741830835 3.241687848e-18)
(1.051968935 0.04560502208 3.265381477e-17)
(1.034012873 0.02200236172 -3.32464483e-17)
(0.9995108631 0.001917662068 2.221625757e-17)
(1.150788179 0.8184786565 -3.354600331e-19)
(1.129799383 0.5775704671 1.892470735e-18)
(1.130547364 0.4216937963 -8.244914808e-18)
(1.110467275 0.3121289047 -1.300956206e-17)
(1.108857763 0.235580241 1.999672006e-17)
(1.091457809 0.1787035981 6.208924768e-18)
(1.087859148 0.1347875555 2.105206615e-17)
(1.069921818 0.1011108201 -1.166016651e-19)
(1.062581664 0.0709694262 -5.174895426e-18)
(1.041403773 0.04800285443 -2.793962823e-17)
(1.028906798 0.02315257186 2.510118178e-17)
(0.9990513953 0.002005756639 3.550050966e-19)
(0.9663294029 0.8184620859 9.776058871e-18)
(0.9996278615 0.5775577128 -2.564311169e-18)
(1.035502002 0.4216826427 4.065528274e-18)
(1.040111837 0.3121190209 -3.635996301e-18)
(1.055752434 0.2355703474 -1.819780715e-18)
(1.051169417 0.1786938026 2.548868869e-18)
(1.057467358 0.1347769623 2.063964599e-17)
(1.047119033 0.1010995981 2.735781598e-18)
(1.046571474 0.0709568308 1.558629753e-18)
(1.030569119 0.04798899885 2.313750774e-17)
(1.023672295 0.02313670521 -2.799673094e-17)
(0.9985828439 0.001988651836 -4.757843565e-18)
(0.7864985867 0.7773999397 1.530080891e-17)
(0.8727228411 0.5485789212 -2.232724909e-18)
(0.9428415603 0.4005220459 -4.11839607e-18)
(0.9715224517 0.2964533166 1.590301743e-17)
(1.003980168 0.2237434463 -2.727686715e-17)
(1.011893134 0.1697186595 -9.239611946e-19)
(1.027839243 0.1280035096 -1.699886473e-17)
(1.024890186 0.09601385552 1.336435644e-17)
(1.030964739 0.06738148001 -1.362565175e-17)
(1.020008824 0.04556367823 -5.71762773e-17)
(1.0185717 0.02195578012 2.055621506e-17)
(0.9981293584 0.001866602287 -3.232932815e-17)
(0.6203139079 0.6973508298 1.240166639e-17)
(0.7554476268 0.4920875854 5.60579077e-18)
(0.8572131426 0.3592726518 2.920142744e-17)
(0.9081383153 0.2659175648 5.869893145e-18)
(0.9561377518 0.2006920414 1.553376536e-17)
(0.9755982977 0.1522283289 -3.845900702e-17)
(1.000461184 0.1148062331 1.074907191e-17)
(1.004349809 0.08610865814 -5.910178853e-18)
(1.016544769 0.06042201801 -2.219738291e-17)
(1.010252336 0.04084853376 -1.332483594e-17)
(1.013861526 0.01966837879 2.831279494e-17)
(0.9977136049 0.001645768339 -1.526328544e-18)
(0.4761079947 0.5823289793 -4.548403236e-19)
(0.6536833199 0.410915943 9.918243161e-19)
(0.7829099462 0.3000030611 -4.041995972e-19)
(0.8531381887 0.2220425586 -8.71793098e-18)
(0.9146237064 0.167572289 1.746841608e-17)
(0.9441053467 0.1270995246 -1.239973989e-17)
(0.9767056225 0.09584717326 7.318377673e-18)
(0.9865284189 0.07188036999 -1.411961081e-17)
(1.004034322 0.05042765341 6.45739855e-18)
(1.001789515 0.0340796304 2.295154747e-17)
(1.009777744 0.01638935479 8.912855377e-18)
(0.9973571862 0.001336761002 -4.803799401e-18)
(0.3611126429 0.4381018428 -1.578714798e-17)
(0.572532561 0.3091346242 -1.310961041e-18)
(0.72365868 0.2256850722 9.047831072e-18)
(0.8092798601 0.1670286148 1.76345266e-17)
(0.8815205856 0.1260446104 1.271256178e-17)
(0.918993346 0.09559242523 -3.04727937e-18)
(0.957764617 0.07207660708 3.970591005e-17)
(0.9723195435 0.05404251522 -2.693450293e-17)
(0.9940615837 0.03789911938 -7.19720642e-18)
(0.9950446236 0.02559643196 -4.740886379e-18)
(1.006526007 0.01228271873 4.342399511e-17)
(0.9970778979 0.0009551173492 -2.917222374e-17)
(0.2810936523 0.2719016484 -5.43076441e-18)
(0.5160648512 0.1918470035 1.064776102e-18)
(0.6824296542 0.1400453746 5.404362009e-18)