/*--------------------------------*- C++ -*----------------------------------*\
| =========                 |                                                 |
| \\      /  F ield         | foam-extend: Open Source CFD                    |
|  \\    /   O peration     | Version:  3.0                                   |
|   \\  /    A nd           | Web:         http://www.extend-project.de       |
|    \\/     M anipulation  |                                                 |
\*---------------------------------------------------------------------------*/
FoamFile
{
    version     2.0;
    format      ascii;
    class       volSymmTensorField;
    location    "1";
    object      sigma;
}
// * * * * * * * * * * * * * * * * * * * * * * * * * * * * * * * * * * * * * //

dimensions      [0 0 0 0 0 0 0];

internalField   nonuniform List<symmTensor> 
900
(
(-0.150726 -0.00882637 3.36352e-20 0.149587 -7.07855e-20 0.00113831)
(-0.150735 -0.0121503 2.01578e-19 0.147933 1.44502e-19 0.00280128)
(-0.145217 -0.0138967 2.79907e-19 0.141105 6.94929e-21 0.00411237)
(-0.137805 -0.014899 8.48921e-20 0.132642 -1.4727e-19 0.00516292)
(-0.130368 -0.0155518 6.75544e-21 0.12436 1.76301e-19 0.00600715)
(-0.123501 -0.0160116 -1.5124e-20 0.116786 -1.02102e-19 0.00671488)
(-0.117607 -0.0163565 1.55009e-20 0.110294 -2.07793e-19 0.00731337)
(-0.112684 -0.0165488 9.45363e-20 0.104813 -2.38724e-19 0.00787017)
(-0.108755 -0.0165507 -9.68959e-22 0.100384 -1.79163e-19 0.00837046)
(-0.105567 -0.0161917 -2.14788e-20 0.0967643 -1.51395e-19 0.00880254)
(-0.10279 -0.0153821 1.9694e-19 0.0938023 -9.67385e-20 0.00898809)
(-0.0998285 -0.0138638 2.37992e-19 0.0910587 -5.78168e-20 0.00876974)
(-0.0956811 -0.0116919 2.78127e-19 0.0879627 1.24577e-19 0.00771841)
(-0.0894614 -0.00885196 3.12463e-19 0.0837884 6.63793e-20 0.00567299)
(-0.0795246 -0.00615727 9.42965e-20 0.0773012 8.12323e-20 0.0022234)
(-0.149116 -0.0240752 2.67514e-20 0.148038 4.27867e-19 0.00107757)
(-0.147322 -0.0307725 1.70833e-19 0.144678 5.44836e-19 0.00264359)
(-0.141 -0.0332854 1.724e-19 0.13713 -4.1164e-19 0.00386986)
(-0.133266 -0.0338413 1.17961e-19 0.128421 -1.85578e-19 0.00484438)
(-0.125742 -0.0335039 1.00755e-19 0.120122 -2.20035e-20 0.00561956)
(-0.118901 -0.0327192 -4.21128e-19 0.112637 -1.28385e-19 0.00626403)
(-0.113052 -0.0317322 -3.68603e-19 0.106247 7.67349e-20 0.00680544)
(-0.108152 -0.0305531 -2.11918e-19 0.10084 1.04459e-19 0.00731159)
(-0.10415 -0.0291834 -1.24157e-19 0.0963793 4.16658e-21 0.00777085)
(-0.100784 -0.027454 -2.32255e-19 0.0926089 2.85576e-20 0.00817533)
(-0.0976651 -0.025297 -1.78096e-19 0.0893091 -1.0767e-19 0.00835599)
(-0.0942683 -0.0225253 -6.71914e-20 0.0861023 4.14287e-20 0.00816602)
(-0.0897096 -0.0192283 5.77825e-19 0.0825149 -5.87304e-20 0.00719477)
(-0.0833476 -0.0155833 3.64231e-19 0.0780526 -1.50937e-19 0.00529497)
(-0.0741354 -0.0122742 1.79867e-19 0.0720612 4.13711e-20 0.0020742)
(-0.145875 -0.0389987 1.60491e-20 0.144874 2.62349e-19 0.00100017)
(-0.140872 -0.0482638 -6.66072e-19 0.138426 6.79139e-19 0.00244584)
(-0.133192 -0.0511697 -4.52803e-19 0.129623 -2.619e-19 0.00356904)
(-0.124993 -0.0511241 1.78533e-19 0.12054 1.24646e-19 0.00445334)
(-0.117443 -0.0497522 8.71094e-20 0.112294 -1.68144e-19 0.00514864)
(-0.110786 -0.0477475 3.96447e-21 0.105064 -2.21664e-19 0.00572221)
(-0.105185 -0.0454936 1.5296e-19 0.0989833 8.09459e-20 0.00620136)
(-0.100525 -0.0430581 -5.59849e-22 0.0938702 -4.35263e-20 0.00665446)
(-0.0966803 -0.0404729 -1.3681e-19 0.0896083 -2.20996e-19 0.00707201)
(-0.0933796 -0.0375968 -1.7001e-19 0.0859283 1.08287e-19 0.00745131)
(-0.0902196 -0.034356 -1.54346e-19 0.0825876 1.31594e-19 0.00763201)
(-0.0867676 -0.0306149 3.17286e-19 0.0792873 6.81702e-20 0.0074803)
(-0.082316 -0.0264524 -1.17558e-19 0.0757116 -3.25631e-19 0.00660445)
(-0.0764375 -0.0220711 -7.72014e-20 0.071565 -2.5021e-19 0.00487247)
(-0.0682947 -0.0185558 1.3146e-19 0.0663853 -2.32174e-19 0.00190932)
(-0.14107 -0.0534387 4.96275e-19 0.140161 -4.14139e-20 0.000909259)
(-0.131783 -0.0640168 4.45733e-20 0.129569 -1.3445e-19 0.00221402)
(-0.122332 -0.0667648 -6.77509e-19 0.119113 -5.38182e-20 0.00321833)
(-0.113577 -0.0659085 -1.27721e-19 0.109576 2.70717e-19 0.00400031)
(-0.106066 -0.0634719 -1.79291e-19 0.101459 -5.05824e-19 0.00460735)
(-0.0997398 -0.0603208 -4.55969e-19 0.0946355 -3.64522e-19 0.00510422)
(-0.0945692 -0.0569419 7.48484e-20 0.0890506 -7.8369e-19 0.00551862)
(-0.0903471 -0.0534544 -3.8958e-19 0.0844296 -6.44302e-19 0.00591751)
(-0.0868671 -0.0499242 -3.11983e-19 0.0805722 -2.07274e-19 0.0062949)
(-0.0838357 -0.0462397 4.6205e-19 0.0771853 -2.68e-19 0.00665045)
(-0.0808339 -0.0423229 1.73243e-19 0.0739987 -2.29129e-19 0.0068352)
(-0.0775223 -0.0380087 6.31316e-20 0.0707973 -4.94516e-19 0.00672503)
(-0.0733161 -0.0332995 -4.02548e-19 0.0673636 -3.26697e-19 0.00595253)
(-0.0682359 -0.0281245 -5.63503e-19 0.0638361 -2.79825e-19 0.00439975)
(-0.0613841 -0.0237743 -3.65639e-19 0.0596631 -2.07938e-19 0.00172104)
(-0.134836 -0.0671792 1.47982e-19 0.134031 1.19507e-20 0.000804947)
(-0.120586 -0.0775366 7.87375e-20 0.118635 -7.09234e-19 0.00195061)
(-0.109131 -0.0794472 -1.7742e-19 0.106308 -5.5892e-20 0.0028226)
(-0.0997963 -0.0775274 -3.76923e-19 0.0963033 2.74298e-19 0.00349294)
(-0.0924066 -0.0739927 -5.3846e-19 0.0884005 -5.36221e-19 0.00400608)
(-0.0865477 -0.0697866 -9.39009e-19 0.0821233 1.25542e-19 0.00442435)
(-0.0819857 -0.0654428 -8.33795e-19 0.0772104 -5.85737e-19 0.00477534)
(-0.0784176 -0.0611199 -4.16289e-19 0.0732926 3.03201e-19 0.00512499)
(-0.0755687 -0.0569009 -3.09141e-19 0.070099 -2.93983e-19 0.00546965)
(-0.0731271 -0.0527265 -7.65558e-19 0.0673152 -1.61869e-19 0.00581193)
(-0.0706423 -0.0484692 -1.85628e-19 0.0646301 -3.80105e-19 0.00601221)
(-0.0677931 -0.043991 -4.35416e-19 0.0618372 -3.89996e-19 0.00595585)
(-0.0638885 -0.0389567 -3.05432e-19 0.0585915 -5.02559e-19 0.00529702)
(-0.0590915 -0.0332502 -8.0554e-19 0.0551624 -5.78384e-19 0.00392902)
(-0.0513139 -0.027447 -5.97562e-19 0.0497744 1.68438e-19 0.00153954)
(-0.127261 -0.0801552 2.43581e-19 0.126571 -2.56207e-19 0.000690772)
(-0.107916 -0.0885541 -7.59679e-20 0.106253 -2.26235e-19 0.00166254)
(-0.0944518 -0.0888763 3.1971e-19 0.0920603 -2.18643e-19 0.00239152)
(-0.0845949 -0.0856184 8.10768e-20 0.081652 -4.29934e-19 0.00294289)
(-0.0774118 -0.0809538 -5.99001e-19 0.0740535 -1.83513e-19 0.00335821)
(-0.0721192 -0.075782 -5.37982e-19 0.0684227 -6.02178e-20 0.00369649)
(-0.0682811 -0.0706171 -1.36919e-18 0.0642953 3.83294e-19 0.00398583)
(-0.0654922 -0.0656142 -3.63555e-19 0.0612028 3.95608e-19 0.00428942)
(-0.0634366 -0.0608536 -1.04899e-18 0.0588294 -1.21721e-19 0.0046072)
(-0.0617462 -0.0563095 -4.10112e-21 0.0568038 5.08886e-19 0.00494237)
(-0.0599929 -0.0518498 -7.80303e-19 0.054826 -1.91652e-19 0.00516692)
(-0.0576619 -0.0474413 -6.93379e-19 0.0524891 -2.17895e-19 0.00517274)
(-0.0540927 -0.0426911 -1.51192e-18 0.0494552 -6.56138e-19 0.00463744)
(-0.0486964 -0.0378527 -1.39048e-18 0.0452352 5.56828e-20 0.00346122)
(-0.0408614 -0.0322397 -6.8294e-20 0.0395037 4.0758e-19 0.00135768)
(-0.118533 -0.0922542 -4.41367e-19 0.117966 7.72274e-19 0.00056722)
(-0.0944514 -0.0969658 -1.6693e-19 0.0930984 -2.21799e-19 0.00135298)
(-0.0792051 -0.0949489 -4.98188e-19 0.0772746 -1.04195e-19 0.00193051)
(-0.0689683 -0.0900839 -4.35792e-20 0.0666106 6.36632e-20 0.00235771)
(-0.0620809 -0.0842648 -4.16982e-19 0.059408 2.98659e-19 0.00267288)
(-0.057407 -0.0782274 6.39055e-21 0.0544754 3.88647e-20 0.00293163)
(-0.0543182 -0.072401 -6.10087e-19 0.0511561 6.65325e-19 0.00316208)
(-0.0523121 -0.0668931 -2.03609e-19 0.0488873 -7.3055e-20 0.00342487)
(-0.0510291 -0.0617762 -1.0149e-18 0.0473065 6.43377e-19 0.00372258)
(-0.0500642 -0.057013 5.88745e-19 0.0460044 4.29292e-20 0.00405981)
(-0.0490254 -0.0525436 -4.40124e-19 0.0447061 -3.57804e-20 0.00431932)
(-0.047352 -0.0483263 -3.45155e-19 0.0429512 -4.55345e-19 0.0044008)
(-0.0445649 -0.0442543 -1.69759e-18 0.0405625 9.88242e-20 0.0040024)
(-0.0399497 -0.0404576 -7.05142e-19 0.0369206 6.30667e-19 0.00302911)
(-0.0329591 -0.0371403 5.03444e-19 0.0317604 8.70578e-20 0.00119869)
(-0.10868 -0.103476 -1.72392e-19 0.108242 -4.17583e-19 0.000437822)
(-0.080824 -0.102902 -4.91331e-19 0.0797951 -8.83789e-19 0.00102891)
(-0.0642696 -0.0978691 -2.64337e-19 0.0628205 3.56702e-19 0.00144913)
(-0.0538893 -0.0911672 1.08438e-20 0.0521408 1.20735e-19 0.0017485)
(-0.0474028 -0.0841928 -5.52867e-19 0.0454409 -2.54601e-21 0.00196195)
(-0.0433806 -0.0774087 -1.14794e-19 0.0412398 2.16922e-19 0.00214079)
(-0.041032 -0.0711025 -3.12378e-19 0.0387188 4.65653e-19 0.00231327)
(-0.0397829 -0.0653081 2.54964e-19 0.0372469 1.93386e-20 0.002536)
(-0.0392349 -0.0600786 -5.61626e-20 0.0364203 1.62771e-19 0.00281468)
(-0.0389858 -0.0553685 -3.07853e-19 0.0358321 -1.61678e-19 0.00315369)
(-0.0386562 -0.051172 -5.17502e-21 0.0352084 -4.24293e-20 0.00344784)
(-0.0377678 -0.047421 -9.53663e-19 0.0341649 1.46109e-19 0.00360289)
(-0.0358914 -0.0441012 1.54171e-19 0.032551 3.35429e-19 0.00334042)
(-0.0326265 -0.0410521 -1.00206e-18 0.0300582 5.98414e-19 0.00256834)
(-0.0271001 -0.0383175 9.62472e-19 0.026077 -2.37242e-19 0.00102312)
(-0.0978546 -0.113786 4.98982e-19 0.0975513 -5.00341e-19 0.000303311)
(-0.0676062 -0.106639 -1.99295e-19 0.0669125 -2.5691e-20 0.000693737)
(-0.0504308 -0.098055 -6.23899e-19 0.049478 5.06332e-19 0.000952797)
(-0.0402335 -0.0893445 4.95837e-19 0.0391114 -1.84605e-19 0.00112215)
(-0.034281 -0.0812259 -3.5094e-19 0.0330481 3.42684e-19 0.00123284)
(-0.030937 -0.0737985 4.67264e-19 0.0296055 4.12554e-19 0.00133148)
(-0.029303 -0.0671568 2.89556e-19 0.0278573 7.20505e-20 0.00144568)
(-0.0287668 -0.0612349 -2.25609e-19 0.0271393 -4.31859e-19 0.00162756)
(-0.0289179 -0.0560449 1.65718e-19 0.0270329 1.21111e-19 0.001885)
(-0.0293896 -0.0515277 -7.41926e-20 0.0271674 2.25577e-19 0.00222225)
(-0.0298347 -0.0477038 2.35189e-19 0.0272884 2.34383e-19 0.00254636)
(-0.0298828 -0.0445021 3.0925e-19 0.0271121 1.06962e-19 0.00277067)
(-0.0291177 -0.0419214 4.50231e-19 0.0264739 2.53526e-19 0.0026438)
(-0.0273035 -0.0397065 1.1271e-18 0.0252242 1.94939e-19 0.00207926)
(-0.0229387 -0.0374145 -1.32682e-19 0.0221007 -3.71195e-19 0.000838041)
(-0.085999 -0.123144 -3.07384e-19 0.085832 1.97715e-19 0.000167028)
(-0.0551979 -0.108596 -1.52002e-19 0.0548437 4.23021e-19 0.000354206)
(-0.0382711 -0.0961345 -4.56739e-19 0.0378204 1.55671e-19 0.000450725)
(-0.0286552 -0.0853331 -3.47722e-19 0.0281658 -8.69116e-20 0.000489388)
(-0.0233842 -0.0761086 1.5395e-19 0.0228872 2.48848e-19 0.000496994)
(-0.0207316 -0.068136 3.35575e-20 0.0202171 8.77337e-20 0.000514548)
(-0.0197532 -0.061278 8.97487e-19 0.0191846 -4.51205e-19 0.000568587)
(-0.0198357 -0.0553517 -7.09862e-19 0.01913 -1.6495e-19 0.000705615)
(-0.0205764 -0.0502987 4.5828e-19 0.0196409 1.88008e-19 0.000935486)
(-0.0216627 -0.0460433 3.82156e-19 0.0204007 2.78888e-20 0.00126201)
(-0.0227839 -0.0425847 7.7935e-19 0.0211777 -3.20114e-19 0.00160615)
(-0.0236884 -0.0398779 -5.8387e-19 0.0217975 -1.15623e-19 0.00189087)
(-0.0239689 -0.0378897 3.92686e-19 0.0220715 5.79553e-19 0.00189746)
(-0.0235213 -0.0364285 1.2247e-18 0.0219728 -4.47673e-19 0.00154843)
(-0.0205234 -0.03461 -1.09282e-18 0.0198873 2.16267e-19 0.000636035)
(-0.0732094 -0.131508 -7.0241e-20 0.0731795 7.77259e-20 2.99068e-05)
(-0.0438718 -0.109267 1.03785e-20 0.0438579 2.30006e-19 1.38903e-05)
(-0.0281729 -0.0928555 1.34988e-19 0.0282245 -1.50775e-19 -5.16234e-05)
(-0.0195931 -0.0799884 -6.12905e-19 0.0197361 3.41412e-20 -0.000143053)
(-0.0151836 -0.069727 -9.10515e-20 0.0154221 8.77224e-20 -0.000238438)
(-0.0132533 -0.0612942 -3.3877e-19 0.0135562 5.18485e-20 -0.000302913)
(-0.0128889 -0.0543049 -2.57373e-20 0.0132007 -1.54158e-19 -0.000311769)
(-0.0135056 -0.0484466 -3.03982e-19 0.0137303 1.14633e-19 -0.000224667)
(-0.0147405 -0.0435722 -5.87436e-19 0.0147707 -2.76966e-19 -3.0197e-05)
(-0.0163225 -0.0395797 -8.75227e-19 0.016047 -2.66345e-20 0.000275467)
(-0.0179996 -0.0364132 -5.10689e-19 0.0173709 5.46374e-19 0.000628659)
(-0.0195825 -0.0340618 8.64184e-19 0.0186178 6.22959e-19 0.000964791)
(-0.0206926 -0.0324291 6.9735e-19 0.0195897 -2.72171e-20 0.00110295)
(-0.021226 -0.0314939 7.36685e-19 0.0202476 -2.49959e-19 0.000978359)
(-0.0190694 -0.0299089 1.1486e-19 0.0186503 -3.90397e-20 0.000419137)
(-0.0594189 -0.138718 -5.51186e-20 0.0595239 6.74322e-20 -0.000105028)
(-0.033689 -0.109141 9.53449e-20 0.0340099 2.064e-19 -0.000320897)
(-0.020237 -0.0889959 3.52388e-19 0.0207824 -7.63552e-20 -0.000545345)
(-0.0131663 -0.0742055 -2.74395e-19 0.0139306 4.15816e-20 -0.00076431)
(-0.00980564 -0.0630042 2.13702e-20 0.0107667 1.18617e-19 -0.000961059)
(-0.00863303 -0.0541748 -1.2795e-19 0.00974049 -8.60994e-20 -0.00110746)
(-0.00883852 -0.0470906 -5.4846e-19 0.0100197 5.99718e-20 -0.00118121)
(-0.00989657 -0.041304 -1.30522e-19 0.0110453 1.28427e-19 -0.0011487)
(-0.0115027 -0.0365738 -2.80848e-19 0.0125 1.07745e-19 -0.000997365)
(-0.0134115 -0.0327535 -3.44519e-19 0.0141345 2.93377e-19 -0.000723005)
(-0.0154327 -0.0297145 1.53539e-19 0.0158056 2.63764e-19 -0.000372867)
(-0.0173905 -0.0274676 2.40158e-19 0.0173873 -1.06265e-19 3.23053e-06)
(-0.0189916 -0.0258316 2.85599e-19 0.0187248 -7.70504e-20 0.00026682)
(-0.0200848 -0.0250727 6.07632e-20 0.0197148 -2.99476e-19 0.000369993)
(-0.0188264 -0.023533 -3.09304e-19 0.0186411 -6.28197e-20 0.000185281)
(-0.0447227 -0.144669 8.81199e-20 0.0449594 -1.45762e-20 -0.00023667)
(-0.0245671 -0.108697 3.2916e-21 0.0252136 1.96484e-20 -0.000646504)
(-0.0143219 -0.0853196 5.40263e-20 0.0153469 5.73558e-20 -0.00102496)
(-0.00921729 -0.0688769 -2.2198e-20 0.0105849 9.41163e-20 -0.00136766)
(-0.00709965 -0.0568795 -5.84291e-20 0.00876314 6.05597e-20 -0.00166349)
(-0.00673889 -0.0477201 1.38665e-19 0.0086304 2.15149e-19 -0.00189151)
(-0.00749743 -0.0405645 3.00814e-19 0.00952964 3.84778e-20 -0.00203221)
(-0.00893639 -0.034838 4.52604e-20 0.0109955 -7.55237e-20 -0.00205912)
(-0.0108321 -0.0302235 1.86278e-19 0.0127905 5.81043e-20 -0.00195838)
(-0.0129434 -0.0265152 2.39276e-19 0.0146687 6.35451e-20 -0.00172526)
(-0.0151626 -0.0235247 4.55321e-19 0.0165516 -1.45616e-19 -0.00138905)
(-0.0172458 -0.0212014 -1.16542e-19 0.0182298 -2.53437e-19 -0.000984013)
(-0.0191183 -0.0192411 -1.58788e-19 0.019721 -2.41343e-19 -0.000602701)
(-0.020376 -0.0178298 -6.28781e-19 0.0206506 -2.98309e-19 -0.000274665)
(-0.0201438 -0.0148552 -7.85616e-19 0.0202142 1.70593e-19 -7.04407e-05)
(-0.0291592 -0.149098 -1.02259e-19 0.0295216 7.00776e-20 -0.000362478)
(-0.0162683 -0.108283 -1.21976e-19 0.0172257 2.03948e-19 -0.000957355)
(-0.010053 -0.0824437 -2.29062e-20 0.0115353 1.58651e-19 -0.00148229)
(-0.00731694 -0.064733 4.8962e-20 0.00925948 5.07368e-20 -0.00194254)
(-0.00662681 -0.052114 -1.72684e-20 0.00895962 4.42131e-20 -0.00233282)
(-0.00715333 -0.0426778 -1.03533e-20 0.00979272 -6.73719e-21 -0.00263939)
(-0.00848736 -0.0354344 -3.86901e-20 0.0113333 -8.60054e-20 -0.00284594)
(-0.0103163 -0.0296962 -2.83085e-19 0.013249 2.35149e-21 -0.00293273)
(-0.0125111 -0.0250984 -8.13702e-20 0.0153959 3.34216e-20 -0.00288489)
(-0.0148547 -0.0213489 -7.29754e-20 0.0175503 -8.38294e-21 -0.00269566)
(-0.0172801 -0.0182522 6.30654e-20 0.0196563 -7.19048e-20 -0.00237621)
(-0.0194515 -0.0155738 -9.46437e-20 0.0213941 -1.82467e-19 -0.00194253)
(-0.0212538 -0.0130377 -3.55657e-19 0.0226963 -9.61353e-20 -0.00144252)
(-0.0219225 -0.0102101 -1.18711e-19 0.0228093 6.21621e-20 -0.000886862)
(-0.0212782 -0.00654122 -2.83646e-20 0.0215847 3.74092e-20 -0.000306454)
(-0.0128935 -0.151861 -1.81968e-19 0.0133747 4.42205e-20 -0.000481222)
(-0.00844868 -0.108156 -2.20709e-19 0.00969861 1.26315e-19 -0.00124993)
(-0.00685677 -0.0808363 -2.00972e-20 0.00876897 1.22204e-19 -0.0019122)
(-0.00679238 -0.0623428 -1.86531e-20 0.00927519 5.36641e-20 -0.00248282)
(-0.00767835 -0.0493186 -5.72806e-20 0.0106408 4.62184e-20 -0.00296245)
(-0.00916251 -0.0396654 -9.17523e-20 0.0125074 4.4262e-20 -0.00334491)
(-0.011097 -0.0322995 -1.59862e-19 0.0147141 1.72455e-20 -0.00361711)
(-0.0133264 -0.0264426 -1.3752e-19 0.0170929 3.62045e-20 -0.00376651)
(-0.0158148 -0.021693 -1.47727e-20 0.0195914 2.12342e-20 -0.00377663)
(-0.018408 -0.0176838 8.91366e-21 0.0220471 -1.39323e-20 -0.00363911)
(-0.0210413 -0.0142263 6.6434e-20 0.0243864 -7.37297e-20 -0.00334516)
(-0.0233905 -0.011043 -8.71996e-21 0.0262834 -1.11288e-19 -0.00289292)
(-0.0251228 -0.00798317 -3.8422e-20 0.0274059 -1.70026e-20 -0.00228313)
(-0.0254859 -0.0046461 1.85603e-19 0.0269932 3.0223e-20 -0.00150732)
(-0.0235627 -0.000616521 7.10255e-20 0.0241179 3.32492e-21 -0.000555148)
(0.00386814 -0.152694 -1.45471e-19 -0.00327707 1.98607e-20 -0.000591066)
(-0.00072333 -0.108389 -1.98252e-19 0.00224323 8.38098e-20 -0.0015199)
(-0.00406779 -0.0807184 -8.05777e-20 0.00637588 9.34766e-20 -0.00230809)
(-0.00685304 -0.0619993 -8.88718e-20 0.00983263 5.05292e-20 -0.00297959)
(-0.00941922 -0.04882 -8.43792e-20 0.0129603 6.08497e-20 -0.00354106)
(-0.0119241 -0.0390333 -1.467e-19 0.0159176 7.49126e-20 -0.00399351)
(-0.0144872 -0.0315342 -1.91572e-19 0.0188145 4.95932e-20 -0.00432736)
(-0.0171158 -0.0254952 -8.86483e-20 0.0216523 3.72463e-20 -0.00453647)
(-0.0198598 -0.0204942 -2.76166e-20 0.0244631 4.61279e-22 -0.00460332)
(-0.0226284 -0.0161095 -1.01519e-19 0.027145 -5.23252e-21 -0.0045166)
(-0.0253981 -0.0121495 6.49471e-20 0.0296472 8.85797e-21 -0.00424909)
(-0.0278915 -0.00835542 1.7848e-19 0.0316717 -4.02899e-20 -0.00378015)
(-0.0298455 -0.00465073 1.49418e-19 0.0329119 -2.40248e-20 -0.00306633)
(-0.0305896 -0.000927157 3.01335e-19 0.0326711 1.10805e-20 -0.0020815)
(-0.0294299 0.0029878 1.10799e-19 0.0302065 5.95858e-23 -0.000776627)
(0.0208552 -0.151489 -3.86181e-20 -0.0201645 -6.58253e-21 -0.000690705)
(0.00731777 -0.108923 -2.8992e-20 -0.00555369 6.09242e-20 -0.00176407)
(-0.00094944 -0.0820778 -1.68022e-19 0.00361494 7.10228e-20 -0.0026655)
(-0.00661128 -0.0637256 -1.49284e-19 0.0100391 4.30024e-20 -0.00342778)
(-0.0109022 -0.0506733 2.81091e-20 0.0149657 8.11235e-20 -0.00406351)
(-0.0144825 -0.0408744 -2.05804e-19 0.0190637 8.91942e-20 -0.00458114)
(-0.0177241 -0.0332871 -3.53643e-19 0.0226987 1.23316e-20 -0.00497461)
(-0.0207976 -0.0270858 -3.89733e-19 0.0260423 -6.73049e-21 -0.00524468)
(-0.0238251 -0.0218635 -2.90534e-19 0.0291976 -1.21759e-20 -0.00537249)
(-0.0267974 -0.0171516 -3.10865e-19 0.0321422 -7.4321e-21 -0.00534482)
(-0.0297443 -0.0127722 -2.42578e-19 0.0348594 -6.24874e-21 -0.00511517)
(-0.0324995 -0.00840555 -3.54303e-19 0.0371452 6.92369e-20 -0.00464574)
(-0.0349749 -0.00405331 2.43698e-19 0.038821 1.54841e-19 -0.00384605)
(-0.0366109 0.000447163 2.98856e-19 0.0392813 2.83321e-20 -0.00267048)
(-0.0370339 0.00490428 2.77131e-19 0.0380499 -1.11497e-20 -0.00101601)
(0.0377133 -0.1481 7.75562e-20 -0.0369341 -8.12279e-21 -0.000779218)
(0.0160065 -0.109538 2.60289e-19 -0.0140266 2.53778e-19 -0.00197984)
(0.00315651 -0.0846548 -3.20277e-19 -0.00017627 1.15607e-19 -0.00298024)
(-0.00525922 -0.0672516 -1.35546e-19 0.00908071 6.93989e-23 -0.00382149)
(-0.0112674 -0.0546136 -1.11017e-19 0.0157896 9.79675e-20 -0.00452215)
(-0.0159812 -0.0449412 -2.84149e-19 0.0210789 5.94507e-20 -0.00509769)
(-0.0199898 -0.0373306 -1.40072e-19 0.0255357 1.32612e-20 -0.00554592)
(-0.0236151 -0.031016 -4.7636e-20 0.0294888 4.69949e-20 -0.00587374)
(-0.027026 -0.0256216 -1.61737e-19 0.0330875 -9.95105e-21 -0.00606153)
(-0.0302963 -0.0206541 -1.05118e-20 0.0363893 -1.0634e-20 -0.00609295)
(-0.0334799 -0.015915 -1.98232e-19 0.0393833 6.82676e-20 -0.00590344)
(-0.0365585 -0.0109788 2.31513e-19 0.0419957 2.02881e-19 -0.0054372)
(-0.0396056 -0.005884 -2.13643e-20 0.0441653 1.73856e-19 -0.00455974)
(-0.0423527 -0.000255963 -2.98053e-19 0.0455596 2.33689e-20 -0.00320693)
(-0.0444502 0.0045663 2.73042e-20 0.0456802 -4.34431e-20 -0.00122996)
(0.0540909 -0.142544 -4.74748e-21 -0.0532356 -1.79842e-19 -0.00085525)
(0.0256078 -0.109897 2.03139e-19 -0.0234433 7.87053e-20 -0.00216447)
(0.00882484 -0.0879593 -1.60212e-19 -0.00557622 1.67671e-19 -0.00324862)
(-0.00206715 -0.0720226 6.4995e-20 0.0062237 1.03102e-19 -0.00415655)
(-0.00971202 -0.0600658 -2.54873e-19 0.0146246 1.75499e-19 -0.00491261)
(-0.0155862 -0.0506625 -4.96468e-19 0.0211256 1.99451e-19 -0.00553943)
(-0.0204451 -0.0431155 -6.69274e-19 0.0264838 -4.20524e-20 -0.00603869)
(-0.0247321 -0.0367793 -5.65811e-19 0.0311557 1.72189e-20 -0.00642359)
(-0.0286336 -0.0313451 -7.06333e-19 0.0353069 -1.08107e-19 -0.00667336)
(-0.0322861 -0.0263403 -5.78396e-20 0.0390545 -6.66453e-20 -0.00676845)
(-0.0356992 -0.0215534 1.28404e-19 0.0423247 1.71091e-19 -0.00662555)
(-0.0390364 -0.0164292 1.30302e-19 0.0452072 2.71086e-19 -0.00617076)
(-0.0423644 -0.0109284 -1.79378e-19 0.0475915 2.09329e-19 -0.00522711)
(-0.0462724 -0.00419524 -5.05435e-19 0.0499859 1.19154e-19 -0.00371341)
(-0.049951 0.00172884 -5.49694e-19 0.0513901 -1.06052e-19 -0.0014391)
(0.0695809 -0.134885 -4.09155e-23 -0.068662 -6.05623e-20 -0.000918919)
(0.0362355 -0.109592 -1.85605e-19 -0.0339181 4.07206e-21 -0.00231735)
(0.0164256 -0.0913574 -1.2838e-19 -0.0129563 -8.49828e-20 -0.00346929)
(0.00346492 -0.0773078 2.62123e-19 0.000965796 2.28663e-19 -0.00443072)
(-0.00567678 -0.0662684 -5.20028e-19 0.0109086 1.43693e-19 -0.00523184)
(-0.0127231 -0.0572781 -2.07738e-19 0.0186252 4.18145e-19 -0.00590207)
(-0.0185403 -0.0498919 -1.24178e-18 0.0249879 -2.01756e-20 -0.00644762)
(-0.0236705 -0.0436371 -4.13466e-19 0.0305579 -7.23904e-20 -0.00688745)
(-0.0283115 -0.0382842 -6.22186e-19 0.0355121 -3.0982e-20 -0.00720051)
(-0.0326537 -0.0334635 -6.23339e-19 0.0400166 1.82897e-19 -0.00736289)
(-0.0366152 -0.0288833 -4.10834e-19 0.0438882 1.52599e-19 -0.00727297)
(-0.0404104 -0.0240373 -4.58788e-19 0.0472463 2.62603e-19 -0.00683589)
(-0.0437408 -0.0183182 -4.84807e-19 0.0495741 2.10549e-19 -0.00583331)
(-0.0475373 -0.0109309 -9.00955e-19 0.0517014 9.50462e-20 -0.00416419)
(-0.0487182 -0.00273311 -3.80881e-19 0.0503395 -2.3096e-20 -0.00162125)
(0.0838435 -0.125326 -2.15527e-19 -0.0828746 -1.81473e-19 -0.000968863)
(0.0478687 -0.10817 -3.73911e-20 -0.0454324 5.47475e-20 -0.00243629)
(0.0261114 -0.0940886 -2.90687e-19 -0.0224721 -4.16749e-19 -0.00363935)
(0.0115891 -0.0821997 -1.6218e-20 -0.00694863 -2.20736e-20 -0.00464051)
(0.00115271 -0.0722422 -3.17309e-19 0.00432277 8.49771e-20 -0.00547548)
(-0.00702562 -0.0637596 1.29396e-19 0.0132062 3.48285e-19 -0.0061806)
(-0.0138601 -0.0565689 -4.8781e-19 0.0206267 3.11605e-19 -0.00676663)
(-0.0199386 -0.0503794 2.90354e-19 0.0271974 2.86827e-19 -0.0072588)
(-0.0254855 -0.0450419 -1.039e-18 0.0331216 6.15242e-20 -0.0076361)
(-0.0306556 -0.040314 6.26704e-19 0.0385269 1.54329e-19 -0.00787131)
(-0.0353629 -0.0359118 -2.36083e-19 0.0432081 5.16132e-19 -0.00784516)
(-0.0394785 -0.0315919 -1.51893e-19 0.0469217 5.82963e-19 -0.00744326)
(-0.0426204 -0.0266705 -1.30601e-18 0.0490244 5.94229e-19 -0.00640402)
(-0.0444034 -0.0212386 -1.38155e-18 0.049009 -8.7657e-20 -0.00460561)
(-0.044448 -0.01394 3.87357e-19 0.0462503 1.13911e-19 -0.00180226)
(0.0965587 -0.114147 6.68662e-19 -0.0955525 4.01318e-19 -0.00100624)
(0.0603298 -0.105212 -9.65195e-20 -0.0578071 1.16692e-19 -0.0025227)
(0.0377897 -0.0953994 -4.2855e-19 -0.0340294 2.80417e-20 -0.00376037)
(0.022281 -0.0857955 9.00512e-20 -0.0174937 -1.42962e-19 -0.00478736)
(0.0108228 -0.0770371 1.07523e-20 -0.00517797 -1.00223e-19 -0.00564482)
(0.00163898 -0.0691639 1.00927e-19 0.00473659 -2.15869e-19 -0.00637557)
(-0.00614365 -0.0622547 4.67104e-19 0.0131393 2.89088e-19 -0.0069956)
(-0.0131039 -0.0561858 5.35826e-20 0.02064 2.29076e-19 -0.00753611)
(-0.0194527 -0.0509193 1.42786e-20 0.0274304 3.99638e-19 -0.00797767)
(-0.0253152 -0.0462913 4.98333e-19 0.0336052 -1.66134e-19 -0.00828998)
(-0.0306337 -0.0421824 3.3426e-19 0.0389726 5.13491e-19 -0.00833891)
(-0.0351875 -0.0384297 -6.08043e-20 0.0431789 3.61938e-19 -0.00799136)
(-0.0388524 -0.0348975 -4.71849e-19 0.0457947 7.2685e-19 -0.00694227)
(-0.0410396 -0.0316567 -3.23871e-19 0.0460861 -9.41477e-20 -0.00504654)
(-0.0416845 -0.0290601 6.83319e-19 0.043675 2.24057e-19 -0.0019905)
(0.107533 -0.101712 -2.1253e-19 -0.106503 3.69698e-19 -0.00102978)
(0.0732977 -0.100356 -8.49453e-19 -0.0707225 3.77705e-19 -0.00257514)
(0.0510958 -0.0945859 1.35555e-19 -0.0472653 -1.13869e-19 -0.00383054)
(0.0351679 -0.0872411 3.30596e-19 -0.030299 3.73816e-21 -0.00486891)
(0.022967 -0.0797532 -1.21323e-19 -0.0172308 2.06434e-19 -0.00573613)
(0.012912 -0.0726156 3.20713e-19 -0.00643068 -9.94961e-20 -0.00648133)
(0.00424775 -0.0661446 6.4612e-19 0.00287758 4.6589e-19 -0.00712533)
(-0.00355845 -0.0603909 -5.02583e-21 0.011264 -2.85715e-19 -0.00770558)
(-0.0106738 -0.0554314 4.85139e-19 0.0188779 3.39022e-19 -0.00820409)
(-0.0172322 -0.0512148 -3.75481e-19 0.0258207 -3.40095e-21 -0.00858854)
(-0.0231631 -0.0477586 4.90045e-19 0.0318734 2.00774e-19 -0.00871031)
(-0.0283728 -0.0449575 -2.99241e-19 0.0367915 3.07508e-20 -0.00841872)
(-0.0327795 -0.0428563 1.07991e-18 0.0401469 9.12257e-20 -0.00736731)
(-0.0363638 -0.0411725 4.4865e-20 0.0417533 6.06132e-19 -0.00538945)
(-0.0386041 -0.0400926 2.64667e-19 0.0407331 -2.6568e-19 -0.002129)
(0.11665 -0.0884132 -5.87756e-19 -0.115608 -6.77528e-19 -0.00104159)
(0.0863352 -0.0933428 -7.19708e-22 -0.0837382 -3.74926e-21 -0.00259694)
(0.0654472 -0.0910725 4.07989e-19 -0.0615929 4.88971e-19 -0.00385428)
(0.0496121 -0.0858075 -4.05788e-19 -0.0447218 -9.04421e-19 -0.00489029)
(0.0369375 -0.0795923 2.86959e-19 -0.0311822 4.87269e-20 -0.00575526)
(0.0261553 -0.0732828 5.90433e-19 -0.0196516 -7.66929e-19 -0.00650373)
(0.0166838 -0.0673831 6.82525e-19 -0.00952225 4.34371e-19 -0.00716154)
(0.00806078 -0.0620933 -9.72496e-19 -0.000289297 -1.02941e-19 -0.00777148)
(0.000159577 -0.0575849 1.41047e-19 0.00815835 -3.88486e-19 -0.00831793)
(-0.00719162 -0.053916 2.70887e-19 0.0159578 -1.121e-19 -0.0087662)
(-0.0139452 -0.0512003 6.65438e-19 0.0229014 -1.30014e-19 -0.00895619)
(-0.0201644 -0.049422 5.80611e-19 0.0288854 -1.20376e-19 -0.00872105)
(-0.0257692 -0.0486582 6.30367e-19 0.0334499 -6.73987e-19 -0.00768075)
(-0.0310122 -0.0485885 1.68028e-18 0.0366626 4.56117e-19 -0.00565037)
(-0.0343916 -0.0486693 -1.01339e-18 0.0366321 -3.94838e-19 -0.00224046)
(0.123943 -0.0746288 2.91228e-19 -0.122902 3.12964e-19 -0.00104058)
(0.0989267 -0.0840404 7.35889e-19 -0.0963391 6.93094e-20 -0.0025876)
(0.0800802 -0.0844812 4.00832e-19 -0.0762488 1.00316e-18 -0.00383138)
(0.0647444 -0.0810018 -5.72105e-19 -0.059893 -5.50701e-21 -0.00485139)
(0.0518317 -0.0760169 4.08207e-19 -0.0461305 -2.29635e-19 -0.00570127)
(0.0404726 -0.0706242 -1.0514e-19 -0.0340322 -3.72147e-19 -0.00644044)
(0.0302981 -0.0654397 -2.93836e-19 -0.0231993 -7.85527e-19 -0.00709878)
(0.0209423 -0.0607803 -8.17804e-19 -0.013218 2.6698e-19 -0.00772424)
(0.0123247 -0.0568585 1.17445e-19 -0.00402171 -7.60998e-19 -0.00830297)
(0.00423521 -0.0538355 -1.82853e-19 0.00456422 -8.41896e-19 -0.00879943)
(-0.00330454 -0.0518353 2.61923e-20 0.0123486 -6.09533e-19 -0.00904405)
(-0.0105177 -0.0509684 -5.02862e-19 0.0193766 1.08196e-19 -0.00885895)
(-0.01732 -0.0512576 9.76297e-19 0.0251587 -5.89392e-19 -0.00783863)
(-0.024148 -0.052584 3.64669e-19 0.0299359 -2.9082e-19 -0.0057879)
(-0.02898 -0.0537729 -5.53157e-19 0.0312782 2.52435e-19 -0.00229823)
(0.129513 -0.0606932 1.39317e-19 -0.128483 2.21151e-20 -0.00102957)
(0.110511 -0.0724635 4.63817e-19 -0.107959 -1.17607e-19 -0.002552)
(0.0941141 -0.0746657 -2.65072e-20 -0.0903454 6.25938e-20 -0.00376868)
(0.0795329 -0.0725916 -1.93729e-19 -0.0747721 7.33399e-19 -0.00476076)
(0.0665479 -0.0687492 1.82307e-20 -0.0609632 -1.14436e-19 -0.00558471)
(0.0547307 -0.0643308 -4.59155e-20 -0.0484269 4.14285e-19 -0.00630374)
(0.0439351 -0.0599854 -5.72303e-19 -0.0369835 -6.28112e-19 -0.00695162)
(0.0339176 -0.0560938 1.99175e-19 -0.026337 3.37476e-19 -0.00758054)
(0.0246319 -0.0528668 -1.14785e-18 -0.0164527 2.43093e-19 -0.00817918)
(0.0158757 -0.0505367 -1.09309e-18 -0.00716403 -1.82733e-20 -0.0087117)
(0.00761579 -0.0491818 7.86084e-20 0.00138695 -6.88503e-19 -0.00900274)
(-0.000419103 -0.0490378 1.61611e-18 0.00928637 -5.1847e-19 -0.00886727)
(-0.00817581 -0.0500248 2.12271e-19 0.0160584 -1.44662e-19 -0.00788256)
(-0.0160285 -0.0523793 -7.74778e-21 0.0218755 -6.02923e-19 -0.00584693)
(-0.0214723 -0.0542782 1.94564e-19 0.0238062 1.50645e-19 -0.00233391)
(0.133563 -0.0468327 1.55901e-19 -0.132555 3.5566e-20 -0.00100772)
(0.120539 -0.0587647 4.4846e-19 -0.118048 -3.63382e-19 -0.00249053)
(0.106648 -0.0617275 4.83012e-20 -0.102981 -6.29122e-19 -0.00366764)
(0.0929175 -0.0606402 7.9377e-20 -0.0882964 4.35742e-19 -0.00462103)
(0.0799653 -0.057819 3.62742e-19 -0.0745564 -9.54597e-21 -0.00540887)
(0.0677994 -0.0543978 1.14421e-20 -0.0617018 3.91889e-19 -0.00609764)
(0.0564872 -0.0509747 1.0816e-19 -0.0497633 9.59926e-19 -0.00672388)
(0.0459225 -0.0479342 3.09396e-19 -0.0385788 3.69043e-20 -0.00734375)
(0.036093 -0.0454461 3.65483e-19 -0.0281452 6.05409e-19 -0.00794775)
(0.0268531 -0.0437657 5.2618e-19 -0.0183522 6.88634e-19 -0.00850095)
(0.0181156 -0.0428883 4.7337e-19 -0.0092916 7.67005e-19 -0.00882397)
(0.00965305 -0.0431416 -8.95589e-19 -0.000924305 -3.91263e-19 -0.00872875)
(0.00139907 -0.044315 -4.58211e-19 0.00638427 -4.73239e-19 -0.00778334)
(-0.0068613 -0.0471631 -8.7417e-19 0.0126485 -3.97649e-19 -0.0057872)
(-0.0129813 -0.0494549 -4.7123e-19 0.0152959 -6.0381e-19 -0.00231464)
(0.136307 -0.0331998 -1.13925e-19 -0.135329 -5.6567e-19 -0.000978189)
(0.128507 -0.0432519 -1.60374e-19 -0.126099 -4.43388e-19 -0.0024089)
(0.116833 -0.0460422 1.4149e-19 -0.113297 -5.24248e-19 -0.00353638)
(0.103881 -0.0455442 3.3742e-19 -0.0994384 -5.26293e-20 -0.00444251)
(0.0909917 -0.0436239 4.48941e-20 -0.085805 -2.40686e-19 -0.00518669)
(0.0785552 -0.0412123 7.99785e-19 -0.0727176 -4.52555e-19 -0.00583753)
(0.0668187 -0.0387915 4.65409e-19 -0.0603844 -1.00038e-19 -0.00643433)
(0.0558135 -0.0366923 -2.19265e-19 -0.0487773 -2.38252e-19 -0.00703616)
(0.0455493 -0.0350367 3.51124e-19 -0.0379131 -2.41823e-19 -0.00763622)
(0.035988 -0.0340518 2.80209e-19 -0.0277874 -1.55595e-19 -0.00820051)