/*--------------------------------*- C++ -*----------------------------------*\
| =========                 |                                                 |
| \\      /  F ield         | foam-extend: Open Source CFD                    |
|  \\    /   O peration     | Version:  3.0                                   |
|   \\  /    A nd           | Web:         http://www.extend-project.de       |
|    \\/     M anipulation  |                                                 |
\*---------------------------------------------------------------------------*/
FoamFile
{
    version     2.0;
    format      ascii;
    class       volVectorField;
    location    "1";
    object      u;
}
// * * * * * * * * * * * * * * * * * * * * * * * * * * * * * * * * * * * * * //

dimensions      [0 0 0 0 0 0 0];

internalField   nonuniform List<vector> 
900
(
(0.190999 -0.0828492 2.43019e-18)
(0.377104 -0.0555028 2.27225e-17)
(0.527719 -0.0389693 2.13992e-18)
(0.613222 -0.02415 1.78334e-18)
(0.68938 -0.013396 1.15591e-17)
(0.732927 -0.0025076 2.42016e-19)
(0.775361 0.00606365 -1.34667e-18)
(0.799811 0.0158534 -8.5337e-18)
(0.826429 0.0232321 -5.3343e-18)
(0.844239 0.0325576 2.87527e-18)
(0.867466 0.0371143 -5.35307e-18)
(0.887761 0.0436269 -5.98796e-18)
(0.919682 0.039563 -3.70668e-19)
(0.944835 0.0360109 -3.61392e-18)
(0.99219 0.0140127 2.9671e-18)
(0.225839 -0.242124 6.823e-17)
(0.401947 -0.166433 2.37509e-17)
(0.547954 -0.123349 -4.52795e-17)
(0.629179 -0.0862924 1.26646e-17)
(0.703525 -0.0622565 -4.16427e-17)
(0.74507 -0.0394143 4.97288e-18)
(0.787468 -0.02421 2.21192e-17)
(0.811085 -0.00787764 2.2057e-17)
(0.839006 0.00226701 6.28598e-18)
(0.85616 0.0147633 8.13432e-18)
(0.881172 0.0196863 2.83003e-18)
(0.899339 0.0270557 1.49875e-17)
(0.930656 0.0229278 -1.31024e-17)
(0.951236 0.0194233 -4.43065e-18)
(0.99037 -0.00290264 -7.21217e-18)
(0.29291 -0.39288 -7.26346e-17)
(0.448964 -0.27223 -2.34489e-17)
(0.583962 -0.204491 8.32643e-17)
(0.656223 -0.146689 2.01767e-17)
(0.725427 -0.110465 3.41898e-18)
(0.762504 -0.0769387 4.49792e-19)
(0.80292 -0.0558979 -2.21407e-17)
(0.824321 -0.0345085 -2.95528e-17)
(0.852165 -0.0222467 -1.18626e-17)
(0.868009 -0.00871472 -6.39876e-18)
(0.893655 -0.00393405 1.16407e-17)
(0.910151 0.00122577 -1.64335e-17)
(0.940616 -0.00374175 2.89393e-18)
(0.95909 -0.00964184 8.65096e-18)
(0.995637 -0.0407133 -1.54369e-17)
(0.38997 -0.524805 4.69005e-17)
(0.517704 -0.364049 -1.31887e-16)
(0.63806 -0.274405 3.67905e-18)
(0.697668 -0.198486 -5.32471e-18)
(0.760034 -0.151376 -3.93559e-17)
(0.790481 -0.108439 2.48139e-17)
(0.827823 -0.0819937 -2.45996e-17)
(0.845354 -0.0557682 -7.85917e-19)
(0.871755 -0.0409262 2.92671e-17)
(0.884437 -0.0247864 -2.58788e-17)
(0.908415 -0.018411 -1.50867e-17)
(0.920482 -0.0102813 -1.06874e-17)
(0.947698 -0.0141158 3.18544e-18)
(0.959931 -0.0134226 1.17238e-18)
(1.00177 -0.0609004 1.54735e-17)
(0.51314 -0.636813 2.50173e-18)
(0.604658 -0.443201 3.56339e-18)
(0.705273 -0.335515 4.68119e-17)
(0.748493 -0.244437 -2.08886e-17)
(0.801324 -0.188389 4.54392e-17)
(0.823332 -0.13777 2.91964e-18)
(0.856361 -0.106804 5.61345e-17)
(0.869656 -0.0767642 2.24539e-17)
(0.895243 -0.0591977 -2.55131e-17)
(0.906472 -0.0410366 3.28521e-17)
(0.933506 -0.0312248 -2.73721e-18)
(0.946081 -0.0214627 1.10596e-17)
(0.983109 -0.0193651 -1.23397e-17)
(0.992279 -0.0205968 -2.49552e-18)
(1.06848 -0.0846473 2.02515e-17)
(0.655996 -0.718563 -1.42308e-17)
(0.705739 -0.500162 -8.04853e-18)
(0.784219 -0.378884 -7.58689e-18)
(0.808652 -0.276783 -1.0719e-16)
(0.850732 -0.214019 3.96515e-17)
(0.862829 -0.158086 -7.84957e-17)
(0.890544 -0.124118 8.03188e-17)
(0.898549 -0.092424 -5.87073e-17)
(0.921617 -0.0741838 6.62814e-17)
(0.930698 -0.0576051 -3.57245e-17)
(0.956331 -0.047776 1.86248e-17)
(0.969383 -0.0423278 -7.29003e-18)
(1.00184 -0.0329485 1.45404e-17)
(1.01093 -0.0363611 3.8605e-17)
(1.04138 -0.0129062 -2.59017e-17)
(0.814696 -0.772147 1.62888e-16)
(0.818455 -0.538771 -4.36129e-17)
(0.871637 -0.409061 1.11912e-16)
(0.87489 -0.299908 4.42577e-17)
(0.904187 -0.23302 3.99308e-17)
(0.904762 -0.173805 -2.39399e-19)
(0.925225 -0.138157 2.35756e-18)
(0.926096 -0.105473 -2.57453e-17)
(0.943694 -0.0874359 4.5116e-17)
(0.947441 -0.0715798 -3.99645e-17)
(0.966197 -0.0642034 6.75864e-18)
(0.97504 -0.0607651 -1.99129e-17)
(0.996047 -0.0577252 2.86736e-17)
(1.00847 -0.0615796 1.69977e-17)
(1.03331 -0.0630657 -3.69812e-17)
(0.979138 -0.789161 -2.6971e-16)
(0.935132 -0.550606 -4.96267e-18)
(0.962545 -0.41779 -1.57203e-17)
(0.944048 -0.306298 -8.9718e-17)
(0.960389 -0.237636 1.46231e-18)
(0.949036 -0.177239 -2.49823e-18)
(0.962391 -0.140612 7.91681e-18)
(0.955939 -0.107362 -5.96689e-19)
(0.969031 -0.0888461 -3.57161e-17)
(0.967609 -0.0723366 3.14205e-17)
(0.982749 -0.0647935 -2.5238e-17)
(0.98739 -0.0591316 4.52798e-17)
(1.00549 -0.057095 -3.83338e-17)
(1.01478 -0.0549141 4.70695e-17)
(1.04858 -0.0704882 -4.16205e-17)
(1.14667 -0.774486 1.39846e-16)
(1.05515 -0.541304 3.46013e-17)
(1.05617 -0.410934 8.49736e-17)
(1.01552 -0.301521 -6.37318e-18)
(1.01837 -0.233937 3.25739e-17)
(0.994863 -0.17482 -2.88506e-18)
(1.00057 -0.138806 -5.42385e-17)
(0.986635 -0.106555 2.62338e-17)
(0.994742 -0.0887018 -1.72593e-18)
(0.988266 -0.0730425 9.45382e-19)
(0.999981 -0.0667897 7.42824e-19)
(1.00175 -0.0617857 -2.07997e-17)
(1.01948 -0.0625657 1.50371e-17)
(1.02938 -0.0606137 -4.57474e-17)
(1.08143 -0.0861337 3.3049e-17)
(1.30478 -0.723281 -1.50721e-17)
(1.16804 -0.505264 2.13912e-18)
(1.1443 -0.382794 -9.54123e-17)
(1.08283 -0.280132 6.95759e-17)
(1.07294 -0.216043 -6.33418e-17)
(1.03776 -0.160247 3.80994e-17)
(1.03623 -0.125533 -6.45931e-17)
(1.01474 -0.094725 4.98828e-17)
(1.01829 -0.0769444 -2.71857e-17)
(1.00602 -0.0614424 -4.57111e-18)
(1.01498 -0.0548759 -4.2617e-17)
(1.01196 -0.0494043 3.38639e-17)
(1.03018 -0.0513597 6.23536e-18)
(1.03764 -0.0504832 -3.5827e-17)
(1.10595 -0.0829821 5.33168e-17)
(1.45275 -0.642311 2.01192e-18)
(1.27533 -0.448779 5.68075e-18)
(1.22877 -0.339086 -9.39251e-18)
(1.14818 -0.247188 2.03595e-17)
(1.12658 -0.189064 2.26335e-17)
(1.08101 -0.138856 2.74364e-18)
(1.07298 -0.106633 3.55682e-17)
(1.04528 -0.0787392 -1.73346e-17)
(1.04505 -0.0613154 2.04883e-17)
(1.0287 -0.0472659 2.62057e-17)
(1.03583 -0.0397602 4.11294e-17)
(1.02999 -0.0355917 -3.33453e-17)
(1.04901 -0.0369826 -7.42387e-18)
(1.05438 -0.0397556 -4.78995e-18)
(1.13596 -0.0748154 -1.12034e-17)
(1.57761 -0.531194 6.12542e-19)
(1.36548 -0.370322 2.4262e-18)
(1.29968 -0.278277 -3.90967e-17)
(1.20306 -0.201205 5.63934e-18)
(1.17138 -0.151532 -2.31231e-17)
(1.11683 -0.108998 -1.06914e-17)
(1.10293 -0.0805958 1.52416e-17)
(1.06947 -0.0567128 1.27038e-18)
(1.06533 -0.0403555 -3.69788e-18)
(1.04442 -0.0282871 5.86801e-18)
(1.0485 -0.0199556 -1.60916e-17)
(1.0376 -0.0170018 8.06314e-18)
(1.05459 -0.0163196 -3.44858e-18)
(1.05288 -0.0219614 -4.24793e-18)
(1.14103 -0.0499965 8.42293e-18)
(1.68069 -0.397483 -1.84934e-17)
(1.44171 -0.27573 2.99558e-18)
(1.36062 -0.204637 2.3989e-17)
(1.25126 -0.145224 -7.53799e-18)
(1.21158 -0.105655 1.4841e-17)
(1.15022 -0.0723439 -1.33247e-18)
(1.13173 -0.0484554 -2.8416e-17)
(1.09439 -0.0293961 -2.61721e-19)
(1.08728 -0.0138144 -9.17462e-18)
(1.06403 -0.00390487 -5.26531e-18)
(1.06595 0.00743422 -1.14776e-17)
(1.05359 0.00947679 6.21829e-18)
(1.06887 0.0183512 -1.20352e-18)
(1.06623 0.0069132 7.70665e-18)
(1.15506 -0.00222779 1.89459e-17)
(1.75076 -0.245109 2.23688e-17)
(1.49365 -0.167698 6.92182e-18)
(1.40239 -0.121082 -1.24768e-17)
(1.28472 -0.0821145 -3.43517e-18)
(1.23954 -0.0548492 -6.29553e-18)
(1.17369 -0.0325165 -1.3067e-18)
(1.15181 -0.0150336 5.32805e-18)
(1.1121 -0.00235569 9.10339e-18)
(1.1025 0.009864 1.16337e-18)
(1.07855 0.0154832 4.82666e-18)
(1.07744 0.0248786 8.08948e-19)
(1.06571 0.023139 -7.75576e-19)
(1.07098 0.0310585 8.45949e-18)
(1.0675 0.0168033 -1.37003e-18)
(1.07151 0.0240221 -1.69874e-18)
(1.79103 -0.0814978 -2.18247e-18)
(1.52548 -0.051013 2.88263e-18)
(1.42905 -0.0300501 -7.21582e-19)
(1.30719 -0.0127098 -1.49316e-18)
(1.25903 0.00156695 1.2727e-18)
(1.19094 0.0121807 -1.19571e-18)
(1.16682 0.0225613 -8.51606e-19)
(1.12563 0.0281432 -1.54204e-18)
(1.1134 0.0355601 -2.11358e-18)
(1.08768 0.0358486 -2.07837e-18)
(1.08231 0.0395777 -1.73837e-18)
(1.0675 0.0326266 9.89962e-19)
(1.06672 0.0299607 2.27875e-18)
(1.06101 0.014209 -1.3968e-18)
(1.06982 0.00324016 5.42049e-19)
(1.79381 0.0862739 9.15586e-19)
(1.52993 0.068494 -3.9089e-19)
(1.43428 0.0623242 -1.384e-18)
(1.31325 0.057136 -1.58935e-18)
(1.26511 0.0572538 5.70438e-19)
(1.19733 0.05557 -1.13201e-18)
(1.17248 0.0579847 -1.9584e-18)
(1.13094 0.0564463 -3.40831e-18)
(1.11673 0.0592376 -3.37131e-18)
(1.08915 0.055456 -1.07455e-18)
(1.07963 0.0568777 -3.17643e-18)
(1.05958 0.0479243 -4.72345e-18)
(1.05249 0.045007 1.31443e-18)
(1.03751 0.0277301 -1.08527e-18)
(1.04051 0.0175804 9.26219e-19)
(1.76396 0.251563 -1.34621e-17)
(1.51157 0.187139 -3.57627e-18)
(1.42181 0.155015 5.62885e-18)
(1.30586 0.128027 -2.63839e-18)
(1.26041 0.114621 4.61019e-18)
(1.19544 0.101072 -1.47787e-18)
(1.17157 0.095833 -1.57207e-18)
(1.13175 0.0874238 1.01074e-18)
(1.11722 0.0854972 4.22647e-19)
(1.09078 0.0776824 1.3445e-18)
(1.0793 0.076099 -9.85769e-19)
(1.05967 0.0647484 6.33142e-18)
(1.04765 0.0604416 -2.86703e-18)
(1.03173 0.0397884 -1.76297e-18)
(1.01722 0.0300447 -2.77368e-19)
(1.69836 0.405957 1.56059e-17)
(1.46723 0.297729 4.51519e-18)
(1.38926 0.240519 -2.22795e-17)
(1.28327 0.192795 -4.02434e-18)
(1.2437 0.165746 -1.18797e-18)
(1.18414 0.140563 -2.4067e-18)
(1.16308 0.126751 3.82537e-18)
(1.12619 0.111127 2.62498e-18)
(1.11242 0.102741 -5.57902e-19)
(1.087 0.0902135 7.29746e-19)
(1.07389 0.0832025 3.14091e-18)
(1.05276 0.0691264 2.13826e-18)
(1.03386 0.0614264 -2.33836e-18)
(1.01362 0.0391577 -1.54567e-18)
(0.961876 0.0267538 5.68042e-19)
(1.60327 0.544125 -1.79624e-17)
(1.40163 0.397496 4.75172e-17)
(1.33967 0.318475 -3.85143e-18)
(1.24712 0.252466 4.64061e-18)
(1.21552 0.213627 1.29106e-17)
(1.16306 0.178283 -9.86293e-18)
(1.14601 0.157314 3.14768e-18)
(1.11315 0.135684 -5.86926e-18)
(1.10145 0.12237 -1.00757e-17)
(1.07922 0.106685 3.97771e-18)
(1.0674 0.0960081 4.31171e-18)
(1.05145 0.0822676 -2.46526e-18)
(1.031 0.0708074 -2.9437e-18)
(1.02119 0.0538115 -2.51477e-18)
(0.930228 0.0187861 -1.03501e-17)
(1.48004 0.658302 -3.39761e-18)
(1.31557 0.479882 -5.075e-18)
(1.27449 0.382298 -2.53307e-17)
(1.19938 0.30105 1.36393e-17)
(1.17866 0.251759 -2.41228e-17)
(1.1358 0.207655 3.34725e-18)
(1.12495 0.179344 -3.51715e-17)
(1.09795 0.151537 -7.41151e-18)
(1.09079 0.130429 8.47712e-18)
(1.07304 0.10865 -1.4368e-17)
(1.067 0.085035 -2.33684e-18)
(1.05486 0.0641623 -6.63586e-18)
(1.04242 0.0265663 2.49881e-18)
(1.02691 0.0114481 -4.87602e-18)
(0.900357 -0.0948064 -1.2549e-17)
(1.33616 0.744998 1.19506e-17)
(1.21418 0.542925 2.5329e-18)
(1.19667 0.43149 7.64891e-18)
(1.14114 0.338603 7.01955e-17)
(1.13239 0.281367 -2.37389e-17)
(1.09948 0.230344 5.62329e-17)
(1.09454 0.196483 -5.32861e-17)
(1.07147 0.163403 4.74416e-17)
(1.06648 0.137112 -4.74929e-17)
(1.04708 0.109358 3.11691e-17)
(1.0421 0.0800489 -1.11056e-17)
(1.0229 0.0511395 1.01075e-17)
(1.02438 0.0129839 -1.17855e-17)
(1.00418 -0.0059065 -3.12057e-17)
(1.04007 -0.0352538 2.41386e-17)
(1.17633 0.798638 -1.44395e-16)
(1.10094 0.582108 3.4554e-17)
(1.10986 0.461979 -8.87254e-17)
(1.0762 0.362212 -4.3054e-17)
(1.08118 0.300247 -2.77109e-17)
(1.0599 0.245814 -7.78493e-19)
(1.06201 0.209638 6.66793e-18)
(1.04479 0.175416 2.37816e-17)
(1.04219 0.149404 -3.10394e-17)
(1.02442 0.122525 3.23791e-17)
(1.01682 0.0983542 5.77016e-19)
(0.9956 0.0712026 1.7317e-17)
(0.986677 0.0470022 -1.78062e-17)
(0.965284 0.0186954 -7.85176e-18)
(0.959506 -0.00333353 3.36602e-17)
(1.00895 0.818247 2.79935e-16)
(0.981867 0.596804 2.26969e-18)
(1.01818 0.473392 2.07219e-17)
(1.00736 0.370951 9.35523e-17)
(1.02697 0.306842 2.67263e-18)
(1.01826 0.250979 3.3662e-18)
(1.02883 0.213306 3.65717e-18)
(1.01907 0.178586 -3.71127e-18)
(1.02182 0.151616 4.80738e-17)
(1.00941 0.125234 -3.91695e-17)
(1.00566 0.100703 3.14286e-17)
(0.991129 0.0752998 -4.95312e-17)
(0.98395 0.0503329 5.0885e-17)
(0.974865 0.0247789 -3.63817e-17)
(0.949348 -0.0147713 4.11365e-17)
(0.840353 0.801113 -1.66004e-16)
(0.861432 0.584693 -4.43351e-17)
(0.925466 0.463689 -1.05578e-16)
(0.937508 0.363588 4.36078e-18)
(0.971928 0.300633 -4.10725e-17)
(0.975668 0.24644 1.34291e-19)
(0.9946 0.209651 8.2965e-17)
(0.991875 0.176638 -4.29944e-17)
(0.999193 0.150644 4.49757e-18)
(0.99076 0.125995 9.1459e-19)
(0.988716 0.101841 9.12148e-19)
(0.976491 0.0767267 2.99578e-17)
(0.968075 0.0475756 -2.38857e-17)
(0.960533 0.0180543 7.69821e-17)
(0.922683 -0.0544735 -5.33533e-17)
(0.678944 0.749431 2.21308e-17)
(0.745979 0.547611 1.05001e-18)
(0.83653 0.43451 1.57312e-16)
(0.870741 0.341129 -1.13428e-16)
(0.919916 0.282184 9.94961e-17)
(0.93643 0.232094 -6.47872e-17)
(0.964822 0.197653 9.85691e-17)
(0.970492 0.168099 -8.02736e-17)
(0.984938 0.143639 3.95543e-17)
(0.982953 0.122896 -1.69511e-18)
(0.986713 0.0989686 5.98753e-17)
(0.979663 0.0781432 -5.78397e-17)
(0.974149 0.0444921 -9.48938e-18)
(0.967504 0.0170656 5.18816e-17)
(0.922701 -0.0833636 -8.30055e-17)
(0.531334 0.663544 1.15461e-18)
(0.64012 0.485176 -8.34318e-18)
(0.755168 0.384956 1.95221e-17)
(0.809506 0.302457 -3.08627e-17)
(0.872396 0.250046 -5.05394e-17)
(0.900323 0.20595 2.15092e-18)
(0.937689 0.175031 -8.0607e-17)
(0.950575 0.149208 4.34299e-17)
(0.972284 0.126459 -4.15082e-17)
(0.975273 0.108316 -5.22108e-17)
(0.986069 0.0840837 -8.55069e-17)
(0.981709 0.065049 6.92985e-17)
(0.982235 0.0272046 1.31521e-17)
(0.972716 0.00131496 -4.02611e-18)
(0.928566 -0.121559 3.13077e-17)
(0.40447 0.548753 -4.11628e-18)
(0.549015 0.401931 -6.18356e-19)
(0.684893 0.319337 9.67789e-17)
(0.756642 0.251526 -3.99147e-18)
(0.831424 0.208392 5.41703e-17)
(0.86948 0.172576 3.31955e-17)
(0.914973 0.147138 -2.83095e-17)
(0.934511 0.126851 4.68305e-19)
(0.963232 0.107879 1.99857e-17)
(0.971064 0.0946847 2.01748e-18)
(0.989373 0.0735209 5.52751e-17)
(0.988258 0.0610355 -2.90685e-17)
(0.997656 0.0249334 -1.59108e-18)
(0.986717 0.00942988 -1.98295e-18)
(0.958185 -0.12398 -3.19642e-17)
(0.304139 0.408504 7.52706e-17)
(0.477053 0.299547 2.26302e-18)
(0.629939 0.238067 -9.64222e-17)
(0.715552 0.187762 2.96211e-17)
(0.800269 0.155575 -5.76486e-17)
(0.846425 0.129058 3.38963e-19)
(0.899193 0.109801 8.82749e-17)
(0.924281 0.0947164 -3.32687e-18)
(0.960515 0.0795927 2.13074e-17)
(0.973039 0.0693758 1.47828e-17)
(1.00234 0.0509002 2.33426e-17)
(1.00516 0.0401037 -1.61455e-17)
(1.03329 0.00614446 -1.55619e-18)
(1.01669 -0.00829046 -2.17099e-17)
(1.02273 -0.142439 -5.15891e-17)
(0.234556 0.250172 -1.22017e-16)
(0.426881 0.184166 -2.67139e-17)
(0.591042 0.146858 5.30669e-17)
(0.686122 0.11648 1.18251e-17)
(0.777279 0.0970918 2.63165e-17)
(0.828791 0.0812283 -1.90699e-18)
(0.885885 0.0694783 -3.58597e-17)
(0.914058 0.0600696 -3.66342e-17)
(0.953741 0.0500711 -1.01387e-17)
(0.967518 0.0419856 -1.82671e-17)
(0.9999 0.0290605 -8.25205e-18)
(1.00199 0.0178216 6.15047e-18)
(1.03417 0.000432001 -2.22471e-17)
(1.01649 -0.0123088 1.42452e-17)
(1.05262 -0.0117001 1.97786e-17)
(0.199581 0.0800368 1.66657e-17)
(0.402039 0.0597726 -2.63527e-17)
(0.572582 0.048192 -2.12222e-18)
(0.672688 0.0390104 -3.05747e-18)
(0.767595 0.0332721 -1.42654e-17)
(0.821853 0.0287684 8.87598e-19)
(0.881221 0.0253907 2.58085e-18)
(0.910518 0.0227709 1.39039e-17)
(0.950785 0.019668 1.12139e-17)
(0.963742 0.0169666 9.38855e-18)
(0.992981 0.0125281 7.75926e-18)
(0.991978 0.00762932 -1.07825e-18)
(1.01282 0.00139834 1.13901e-18)
(0.996399 -0.00708325 1.01397e-17)
(1.00814 -0.012203 -2.83249e-18)
(0.200079 -0.0941104 -2.62383e-18)
(0.402301 -0.0676137 -2.55925e-17)
(0.572508 -0.0527501 -2.34821e-18)
(0.672529 -0.0401058 -1.87981e-18)
(0.767156 -0.0316418 -1.4576e-17)
(0.821285 -0.0241949 -8.20999e-21)
(0.880416 -0.018604 1.86314e-18)
(0.909645 -0.0135788 1.4194e-17)
(0.950068 -0.00899664 1.06844e-17)
(0.963394 -0.00460366 -7.64679e-18)
(0.994099 0.000496076 9.97165e-18)
(0.994379 0.00627834 1.51551e-17)
(1.01914 0.0124667 -4.45156e-19)
(1.00346 0.0198651 9.40732e-18)
(1.01944 0.0248567 -3.0384e-18)
(0.236956 -0.264028 -7.3376e-17)
(0.429351 -0.191933 -2.64219e-17)
(0.594212 -0.151269 5.18463e-17)
(0.689657 -0.117407 -1.58071e-17)
(0.781432 -0.0951671 5.26114e-17)
(0.833034 -0.0763428 -5.70498e-18)
(0.890398 -0.0623741 -3.23776e-17)
(0.918171 -0.0509304 -3.78213e-17)
(0.957395 -0.0399592 -1.17638e-17)
(0.970112 -0.031741 -1.73311e-17)
(1.00046 -0.0195922 -5.64975e-18)
(1.00084 -0.0107783 -4.31038e-17)
(1.02736 0.00625932 2.76212e-17)
(1.00943 0.0172679 8.28236e-18)
(1.02953 0.0492397 1.55886e-17)
(0.307896 -0.423208 7.70749e-17)
(0.480559 -0.308808 2.62426e-17)
(0.633575 -0.244212 -9.45972e-17)
(0.719419 -0.190566 -2.55807e-17)
(0.80418 -0.155627 -4.35657e-18)
(0.850038 -0.126101 -1.61595e-19)
(0.90213 -0.104403 3.07484e-17)
(0.925904 -0.0864594 4.8582e-17)
(0.960156 -0.0694016 2.02893e-17)
(0.970032 -0.0560636 1.60733e-17)
(0.995693 -0.0364777 -2.81087e-17)
(0.994812 -0.0211437 3.83636e-17)
(1.01935 0.0102354 -3.98249e-18)
(1.00082 0.0301559 -2.03057e-17)
(1.01954 0.117824 2.10313e-17)
(0.410221 -0.562836 -5.03761e-17)
(0.554766 -0.410957 1.45225e-16)
(0.691634 -0.3251 -2.73876e-18)
(0.76401 -0.253844 5.64016e-18)
(0.83976 -0.207474 4.8363e-17)
(0.877999 -0.168159 -3.3879e-17)
(0.924252 -0.139493 3.13132e-17)
(0.943472 -0.115775 1.51394e-18)
(0.973391 -0.0939678 -5.36885e-17)
(0.981296 -0.078136 3.91722e-17)
(1.00375 -0.0549105 2.49208e-17)
(1.00515 -0.0423229 2.15681e-17)
(1.02636 -0.0037441 -3.63169e-18)
(1.01658 0.00430916 -2.39268e-19)
(1.00522 0.151147 -2.64078e-17)
(0.539311 -0.678919 -2.67066e-18)
(0.648125 -0.49646 -3.80706e-18)
(0.763949 -0.393444 -5.2068e-17)
(0.819092 -0.307923 2.41112e-17)
(0.8828 -0.25273 -5.44575e-17)
(0.910988 -0.205873 -2.48432e-18)
(0.948384 -0.172471 -7.45632e-17)
(0.960203 -0.144817 -3.5126e-17)
(0.98002 -0.12125 3.87803e-17)
(0.980151 -0.104286 -5.56783e-17)
(0.984989 -0.08348 2.82515e-18)
(0.976976 -0.0714413 -2.14174e-17)
(0.961908 -0.039015 1.79154e-17)
(0.955372 -0.0199211 1.77981e-18)
(0.84402 0.181148 -2.31244e-17)
(0.688958 -0.763866 1.41807e-17)
(0.756137 -0.55858 8.60257e-18)
(0.84793 -0.442808 5.96086e-18)
(0.883032 -0.346486 1.1937e-16)
(0.933256 -0.284333 -4.66298e-17)
(0.949731 -0.230646 9.5771e-17)
(0.978035 -0.192263 -9.73859e-17)
(0.98128 -0.158037 7.96709e-17)
(0.99303 -0.129444 -9.20586e-17)
(0.984063 -0.102756 5.47569e-17)
(0.980376 -0.0777863 -2.44462e-17)
(0.960704 -0.0509956 1.27e-17)
(0.944463 -0.0332017 -1.97105e-17)
(0.932662 -0.00441791 -4.97952e-17)
(0.930088 -0.0295046 2.95135e-17)
(0.853345 -0.816596 -1.65931e-16)
(0.874825 -0.597571 4.58948e-17)
(0.940279 -0.474389 -1.18726e-16)
(0.953875 -0.371668 -4.65141e-17)
(0.990175 -0.305644 -4.46657e-17)
(0.995414 -0.248113 2.72901e-19)
(1.0164 -0.20668 -1.86166e-18)
(1.01425 -0.16897 3.16996e-17)
(1.02391 -0.135872 -5.41051e-17)
(1.01383 -0.104323 5.06693e-17)
(1.01564 -0.0701784 -7.56061e-18)
(0.996963 -0.0358845 2.71329e-17)
(0.998944 0.00127377 -3.38378e-17)
(0.973118 0.0346641 -2.48791e-17)
(0.981035 0.0705645 5.21603e-17)
(1.02374 -0.832456 2.72158e-16)
(0.997205 -0.609371 4.96129e-18)
(1.03525 -0.484603 1.551e-17)
(1.02618 -0.380483 9.24721e-17)
(1.04769 -0.314156 -1.73065e-18)
(1.04065 -0.256032 3.02687e-18)
(1.05296 -0.214782 -8.57186e-18)
(1.0441 -0.176908 1.04563e-18)
(1.04843 -0.144157 3.98735e-17)
(1.03531 -0.113602 -3.6245e-17)
(1.03389 -0.0798345 2.98394e-17)
(1.01527 -0.0507204 -5.48232e-17)
(1.01399 -0.0116731 4.86e-17)
(0.990693 0.00694904 -5.52709e-17)
(0.974029 0.0728009 4.73758e-17)
(1.19404 -0.813133 -1.39859e-16)
(1.11931 -0.59569 -3.38298e-17)
(1.12994 -0.474875 -8.1786e-17)
(1.09839 -0.373722 5.16138e-18)
(1.1056 -0.309908 -3.03689e-17)
(1.08689 -0.253394 3.23567e-18)
(1.09156 -0.213558 4.83265e-17)
(1.0769 -0.176337 -2.39431e-17)
(1.07719 -0.143662 -1.88507e-18)
(1.06141 -0.113059 3.32031e-19)
(1.05673 -0.0772546 1.6027e-20)
(1.03515 -0.0478034 2.35965e-17)
(1.02478 -0.00328678 -1.80936e-17)
(0.993822 0.015202 5.19579e-17)
(0.930217 0.100237 -3.94757e-17)
(1.35476 -0.757623 1.48488e-17)
(1.23386 -0.55575 -2.00148e-18)
(1.21856 -0.44484 8.78972e-17)
(1.16563 -0.351927 -6.19102e-17)
(1.1593 -0.294521 5.63546e-17)
(1.1296 -0.243415 -3.03802e-17)
(1.12683 -0.208731 4.72799e-17)
(1.10722 -0.175961 -3.7209e-17)
(1.1031 -0.148213 1.89775e-17)
(1.08664 -0.122148 2.70224e-18)
(1.07768 -0.0908175 2.76412e-17)
(1.05795 -0.0657467 -2.18971e-17)
(1.0374 -0.0221155 -2.05212e-18)
(1.00672 -0.00333627 2.72297e-17)
(0.903034 0.093368 -4.40967e-17)
(1.50063 -0.670383 -2.26571e-18)
(1.33718 -0.492973 -5.34026e-18)
(1.29783 -0.396961 6.79231e-18)
(1.22497 -0.31611 -1.77665e-17)
(1.20599 -0.267625 -1.53346e-17)
(1.16558 -0.223663 -3.23718e-18)
(1.15555 -0.195608 -2.03803e-17)
(1.13 -0.167781 6.47472e-18)
(1.12082 -0.146413 -1.07125e-17)
(1.10104 -0.124185 -1.01095e-17)
(1.08634 -0.0999188 -9.77993e-18)
(1.06441 -0.0767424 1.36472e-17)
(1.03331 -0.0392053 3.87546e-18)
(1.0016 -0.015711 4.18924e-18)
(0.864598 0.0814931 1.74421e-18)
(1.62294 -0.553665 -5.64522e-19)
(1.42314 -0.408848 -2.32883e-18)
(1.3637 -0.332206 3.01863e-17)
(1.27415 -0.267435 -5.54279e-18)
(1.24494 -0.230358 1.59227e-17)
(1.19587 -0.195972 2.81818e-18)
(1.18047 -0.176205 -6.4323e-18)
(1.15082 -0.154979 -6.62096e-19)
(1.13885 -0.141359 -3.07692e-18)
(1.11854 -0.124269 -4.09226e-18)
(1.10225 -0.108846 -6.07237e-18)
(1.08421 -0.0892474 3.15447e-18)
(1.0502 -0.0624498 2.74923e-18)
(1.02907 -0.0367397 2.94092e-18)
(0.874449 0.0407037 5.36078e-20)
(1.71892 -0.414471 1.35378e-17)
(1.48967 -0.308968 -3.90051e-18)
(1.41368 -0.255472 -1.33754e-17)
(1.31013 -0.20964 2.28028e-18)
(1.27229 -0.185882 -4.89394e-18)
(1.21534 -0.162496 1.8572e-18)
(1.19513 -0.152371 1.19027e-18)
(1.16058 -0.138691 -6.48433e-19)
(1.14564 -0.135018 1.24873e-18)
(1.12191 -0.124373 -2.25672e-18)
(1.10326 -0.123577 -3.23121e-18)
(1.08248 -0.109519 4.72421e-19)
(1.04583 -0.107731 1.9927e-19)
(1.02283 -0.0749851 3.58828e-18)
(0.863313 -0.0433974 5.25005e-18)
(1.78128 -0.257432 -1.49272e-17)
(1.53174 -0.195899 -4.57492e-18)
(1.44482 -0.167521 6.60638e-18)
(1.33192 -0.142558 8.95733e-19)
(1.28874 -0.132526 9.44925e-19)
(1.22647 -0.120699 1.7061e-18)
(1.20364 -0.119163 5.08628e-18)
(1.16526 -0.112184 5.69728e-18)
(1.14929 -0.114806 3.77004e-18)
(1.1213 -0.107525 4.83041e-18)
(1.10424 -0.112047 4.30341e-18)
(1.07801 -0.0983227 -3.94494e-18)
(1.05793 -0.103066 5.76549e-18)
(1.03393 -0.0699913 -5.43099e-18)
(1.04859 -0.0789486 -6.87515e-18)
(1.81137 -0.0910228 1.35266e-18)
(1.55066 -0.0768394 -7.58181e-20)
(1.45755 -0.0755187 9.64804e-19)
(1.33911 -0.0728097 1.73991e-18)
(1.29306 -0.0772395 1.57667e-18)
(1.22756 -0.0774786 8.79775e-19)
(1.20399 -0.084198 1.53872e-19)
(1.16395 -0.0836468 -3.90388e-18)
(1.1497 -0.0902548 -2.93708e-18)
(1.12218 -0.085057 -3.15581e-18)
(1.11082 -0.0878047 -3.05237e-18)
(1.08841 -0.0723152 -5.31196e-19)
(1.07791 -0.0644065 -2.48534e-18)
(1.05641 -0.0348864 -4.75672e-18)
(1.05985 -0.0133625 -1.9609e-19)
(1.80336 0.0785218 -7.33086e-19)
(1.54171 0.0449539 3.24989e-18)
(1.44865 0.0198872 1.59611e-18)
(1.32997 0.000537503 1.70758e-18)
(1.28452 -0.017379 2.44055e-18)
(1.21902 -0.0294219 9.20774e-19)
(1.19703 -0.0435689 1.48505e-18)
(1.15785 -0.0499091 -2.2425e-18)
(1.14729 -0.0614699 -1.97926e-18)
(1.12333 -0.0611569 5.92214e-18)
(1.11967 -0.0692229 -1.46803e-18)
(1.10729 -0.0585321 -4.57799e-18)
(1.10845 -0.0587938 -5.26254e-19)
(1.10507 -0.0327312 -4.96227e-18)
(1.11765 -0.0187428 -8.21328e-19)
(1.76344 0.24316 1.85865e-17)
(1.51072 0.162462 6.22835e-18)
(1.42276 0.111166 -1.21943e-17)
(1.30795 0.0699854 5.84176e-18)
(1.26558 0.0386837 -1.56617e-17)
(1.20198 0.0148804 2.24591e-18)
(1.18248 -0.00649762 1.19927e-17)
(1.14415 -0.0197159 1.50405e-17)
(1.1366 -0.0355879 5.18564e-18)
(1.113 -0.0399899 8.21619e-18)
(1.1145 -0.051898 3.88307e-18)
(1.10298 -0.0452152 2.34675e-17)
(1.11424 -0.0518819 -1.26633e-17)
(1.11343 -0.0258909 -2.50997e-18)
(1.15663 -0.0206099 -8.51433e-18)
(1.68715 0.395623 -2.00918e-17)
(1.45277 0.271543 -7.34804e-18)
(1.37557 0.197065 3.36819e-17)
(1.26949 0.13644 9.43953e-18)
(1.23304 0.0942779 2.17925e-18)
(1.17411 0.0606837 2.14443e-18)
(1.15866 0.0349438 -1.26313e-17)
(1.12341 0.0168598 -2.20323e-17)
(1.11998 0.00044689 -8.09038e-18)
(1.0997 -0.00661612 -1.08686e-17)
(1.10793 -0.0176715 1.41e-17)
(1.10259 -0.0137892 -2.54766e-17)
(1.1293 -0.022783 3.65284e-18)
(1.13835 0.000821571 1.44335e-17)
(1.24907 0.00417028 -5.87398e-18)
(1.58507 0.530445 2.14693e-17)
(1.37801 0.367721 -6.09747e-17)
(1.31613 0.272434 2.91838e-18)
(1.22271 0.194303 -4.99531e-18)
(1.19467 0.142235 -2.20179e-17)
(1.14291 0.099573 1.92203e-17)
(1.13281 0.0692933 -9.89691e-18)
(1.10182 0.0460699 5.27967e-18)
(1.10214 0.0277097 3.5712e-17)
(1.08314 0.0162846 -1.76571e-17)
(1.09422 0.0036998 -1.44892e-17)
(1.08419 -7.3081e-05 -9.16547e-18)
(1.11829 -0.0102994 3.42221e-18)
(1.11166 -0.00104744 1.40173e-18)
(1.29522 0.0357385 2.16346e-17)
(1.45428 0.639731 3.56005e-18)
(1.28168 0.44534 5.35328e-18)
(1.23931 0.333699 3.0626e-17)
(1.16205 0.241822 -1.6934e-17)
(1.14403 0.182758 3.3332e-17)
(1.10075 0.133662 -3.90449e-18)
(1.09595 0.102178 5.41811e-17)
(1.0693 0.0772242 2.03427e-17)
(1.07134 0.0639427 -2.20762e-17)
(1.05338 0.055367 3.80669e-17)
(1.06095 0.0592118 2.69625e-18)
(1.04998 0.062355 1.74092e-17)
(1.07589 0.0920945 -7.80404e-18)
(1.08292 0.0937421 6.05449e-18)
(1.33405 0.251508 1.34205e-17)
(1.30789 0.722262 -1.18947e-17)
(1.17616 0.504527 -3.0949e-18)
(1.15633 0.381009 -5.95934e-18)
(1.09817 0.279045 -8.25769e-17)
(1.09229 0.215191 3.08538e-17)
(1.06068 0.161776 -7.40789e-17)
(1.06398 0.129551 7.07653e-17)
(1.04738 0.104335 -6.93564e-17)
(1.05671 0.0935813 7.41965e-17)
(1.05198 0.0894993 -5.11706e-17)
(1.06528 0.0982878 1.66791e-17)
(1.07338 0.111142 -1.58393e-17)
(1.08138 0.136826 1.69884e-17)
(1.10092 0.141434 4.05151e-17)
(1.06991 0.159301 -2.55994e-17)
(1.14524 0.770279 1.47392e-16)
(1.05835 0.538105 -3.68567e-17)
(1.06358 0.407481 9.55994e-17)
(1.02639 0.29936 4.53186e-17)
(1.0336 0.232243 3.24785e-17)
(1.01377 0.17517 7.20148e-19)
(1.02546 0.140639 -7.3991e-18)
(1.01719 0.112051 -3.00249e-17)
(1.03478 0.09693 4.01344e-17)
(1.0385 0.0880264 -4.35781e-17)
(1.06492 0.084807 7.89368e-20)
(1.08395 0.0920517 -2.49716e-17)
(1.11744 0.089964 2.31248e-17)
(1.14391 0.10876 1.62848e-17)
(1.18929 0.109268 -4.98942e-17)
(0.979277 0.787148 -2.82395e-16)
(0.939495 0.551024 -2.25785e-18)
(0.969996 0.419173 -2.0539e-17)
(0.954184 0.309619 -9.63741e-17)
(0.973996 0.24274 -2.45486e-18)
(0.96574 0.185114 -3.97798e-18)
(0.984087 0.151276 -3.19643e-18)
(0.982397 0.122021 3.23945e-18)
(1.0037 0.107204 -5.2674e-17)
(1.01009 0.0965115 4.43274e-17)
(1.0388 0.0923581 -3.64669e-17)
(1.05388 0.0955413 6.00169e-17)
(1.09201 0.0923727 -6.27353e-17)
(1.10162 0.104838 4.52807e-17)
(1.1855 0.13133 -4.7536e-17)
(0.812186 0.7668 1.66048e-16)
(0.819817 0.536348 4.35455e-17)
(0.876388 0.40823 1.02261e-16)
(0.882361 0.301676 -3.07771e-18)
(0.915277 0.236945 3.87493e-17)
(0.918765 0.180564 -4.73256e-19)
(0.94445 0.147638 -7.70402e-17)
(0.949785 0.118183 4.07641e-17)
(0.976404 0.103208 -7.08503e-19)
(0.98748 0.0914198 -2.43962e-18)
(1.02228 0.0874443 -1.8487e-18)
(1.04069 0.0912193 -3.35081e-17)
(1.08854 0.0953492 2.77321e-17)
(1.09993 0.114855 -8.6083e-17)
(1.20932 0.196008 6.196e-17)
(0.654576 0.715956 -2.19317e-17)
(0.707214 0.501703 -1.23968e-18)
(0.787326 0.383205 -1.49727e-16)
(0.813243 0.28422 1.05522e-16)
(0.85704 0.224889 -9.2321e-17)
(0.870435 0.172285 5.6765e-17)
(0.900463 0.142406 -8.03293e-17)
(0.910053 0.113791 6.68656e-17)
(0.937187 0.100459 -3.07361e-17)
(0.94862 0.0864694 3.7811e-18)
(0.982444 0.0846034 -4.38331e-17)
(0.999217 0.0838484 4.52189e-17)
(1.04986 0.0967658 5.08411e-18)
(1.06391 0.11364 -4.29493e-17)
(1.19038 0.240569 7.39732e-17)
(0.510881 0.631782 -9.11553e-19)
(0.605023 0.442557 7.98131e-18)
(0.70761 0.338341 -1.69295e-17)
(0.752167 0.251421 2.81704e-17)
(0.806454 0.199845 4.30641e-17)
(0.829161 0.153953 -1.73383e-18)
(0.863209 0.128862 6.50022e-17)
(0.877023 0.104195 -3.23281e-17)
(0.903667 0.0947725 3.12995e-17)
(0.916329 0.0831815 3.51469e-17)
(0.946241 0.0866474 5.23007e-17)
(0.964134 0.0875 -4.85074e-17)
(1.01089 0.111229 -9.38357e-18)
(1.03281 0.128021 5.04384e-18)
(1.16176 0.293519 -2.14291e-17)
(0.38821 0.522534 4.05892e-18)
(0.517354 0.366918 4.6781e-19)
(0.637941 0.281724 -8.77203e-17)
(0.697951 0.210521 3.83337e-18)
(0.760169 0.169018 -4.68588e-17)
(0.790465 0.131727 -2.51089e-17)
(0.826959 0.112269 1.90538e-17)
(0.844058 0.0921632 -1.15971e-18)
(0.869213 0.0858389 -1.28064e-17)
(0.882517 0.0753221 -4.23246e-18)
(0.907281 0.0802378 -3.16775e-17)
(0.925042 0.0768104 1.69982e-17)
(0.963253 0.10232 2.56991e-18)
(0.990405 0.105378 3.66887e-18)
(1.0979 0.289041 2.33623e-17)
(0.291691 0.389383 -7.02569e-17)
(0.44913 0.273827 -1.34376e-18)
(0.585011 0.211058 8.57439e-17)
(0.657559 0.158945 -2.43485e-17)
(0.726588 0.129249 4.76215e-17)
(0.762833 0.102876 -8.37622e-19)
(0.800937 0.0903104 -6.0371e-17)
(0.819931 0.0773997 4.36647e-18)
(0.841397 0.0757558 -1.29865e-17)
(0.853162 0.0708763 -6.92471e-18)
(0.865767 0.0796127 -7.58463e-18)
(0.879949 0.0810662 8.92619e-18)
(0.891396 0.109582 2.68906e-18)
(0.928098 0.115121 9.12946e-18)
(0.979535 0.30078 2.54634e-17)
(0.224662 0.240417 1.14531e-16)
(0.40097 0.170177 2.43601e-17)
(0.546419 0.132752 -4.71672e-17)
(0.627459 0.101993 -9.22702e-18)
(0.70076 0.0855124 -2.09239e-17)
(0.741503 0.071531 1.5323e-18)
(0.781339 0.0665411 2.53127e-17)
(0.803157 0.0626034 2.14779e-17)
(0.825185 0.0656831 5.14461e-18)
(0.839621 0.0700236 8.19297e-18)
(0.852314 0.0797691 2.99868e-18)
(0.869895 0.0920571 -9.46753e-19)
(0.878798 0.101595 6.84665e-18)
(0.917092 0.111216 -6.48965e-18)
(0.9208 0.0804174 -1.05375e-17)
(0.191135 0.0808289 -1.58503e-17)
(0.377629 0.0588721 2.35386e-17)
(0.528965 0.0480927 1.89257e-18)
(0.614653 0.0399741 2.83739e-18)
(0.691083 0.0370485 1.14199e-17)
(0.734563 0.0355626 -5.41529e-19)
(0.776805 0.0374275 -1.8493e-18)