/*--------------------------------*- C++ -*----------------------------------*\
| =========                 |                                                 |
| \\      /  F ield         | foam-extend: Open Source CFD                    |
|  \\    /   O peration     | Version:  3.0                                   |
|   \\  /    A nd           | Web:         http://www.extend-project.de       |
|    \\/     M anipulation  |                                                 |
\*---------------------------------------------------------------------------*/
FoamFile
{
    version     2.0;
    format      ascii;
    class       volVectorField;
    location    "0.6";
    object      s;
}
// * * * * * * * * * * * * * * * * * * * * * * * * * * * * * * * * * * * * * //

dimensions      [0 0 0 0 0 0 0];

internalField   nonuniform List<vector> 
400
(
(-0.000696654 -0.000153863 3.93324e-318)
(-0.000492175 0.000325839 6.58296e-318)
(-0.000538562 0.000702905 7.00147e-318)
(-0.000791431 0.000910476 6.31225e-318)
(-0.00111923 0.000926797 5.25738e-318)
(-0.00145932 0.000811022 4.31589e-318)
(-0.00176045 0.000599665 3.43328e-318)
(-0.0019974 0.000328095 2.81197e-318)
(-0.00215694 1.81298e-05 2.23529e-318)
(-0.00223176 -0.000313224 1.84927e-318)
(-0.0022185 -0.000653164 1.42802e-318)
(-0.00211338 -0.000991401 1.13034e-318)
(-0.00191276 -0.00131631 7.54369e-319)
(-0.00161447 -0.00161628 4.89051e-319)
(-0.00121723 -0.00187543 1.66569e-319)
(-0.000731849 -0.00207462 1.0988e-320)
(-0.000171366 -0.00218406 -1.26372e-319)
(0.000403657 -0.00215959 -4.7455e-320)
(0.000936248 -0.0018783 7.62146e-320)
(0.00117486 -0.00108846 -6.33886e-320)
(-0.000767994 0.000527139 3.44885e-318)
(-0.000722011 0.00170316 7.35802e-318)
(-0.00103268 0.00252863 8.83817e-318)
(-0.00151381 0.00297541 8.99964e-318)
(-0.00207594 0.00305532 8.22706e-318)
(-0.00263158 0.00284785 7.25373e-318)
(-0.00312425 0.00242222 6.08363e-318)
(-0.00351332 0.00184354 5.11827e-318)
(-0.00377535 0.00116246 4.13136e-318)
(-0.00389446 0.000420433 3.38526e-318)
(-0.0038626 -0.000347504 2.58568e-318)
(-0.0036746 -0.00111014 1.97556e-318)
(-0.00332956 -0.00183399 1.2694e-318)
(-0.00283359 -0.00248256 7.36469e-319)
(-0.00220142 -0.0030102 1.2444e-319)
(-0.00146826 -0.00336134 -2.67462e-319)
(-0.000687659 -0.00346409 -6.80343e-319)
(4.82233e-05 -0.00322778 -8.19235e-319)
(0.000635858 -0.00251801 -9.53221e-319)
(0.00094735 -0.00115422 -7.11909e-319)
(-0.000799402 0.00134964 3.56677e-318)
(-0.000843049 0.00340121 7.52039e-318)
(-0.00130409 0.00471461 9.18594e-318)
(-0.00193836 0.0053659 9.4762e-318)
(-0.00264663 0.00544212 8.89135e-318)
(-0.00332596 0.00506917 7.99614e-318)
(-0.00391898 0.00435795 6.87951e-318)
(-0.00438226 0.00340817 5.84398e-318)
(-0.00469371 0.00229856 4.78284e-318)
(-0.00483684 0.0010932 3.87213e-318)
(-0.0048046 -0.000153545 2.93232e-318)
(-0.00459169 -0.00139253 2.10776e-318)
(-0.00419766 -0.00256957 1.21327e-318)
(-0.00362991 -0.00362261 4.05662e-319)
(-0.00290449 -0.00447195 -4.75252e-319)
(-0.00206125 -0.00501727 -1.2393e-318)
(-0.00115649 -0.0051363 -1.99492e-318)
(-0.000291823 -0.0046802 -2.46684e-318)
(0.00043983 -0.00350492 -2.50854e-318)
(0.000874889 -0.00144695 -1.52356e-318)
(-0.000831569 0.00207029 2.45924e-318)
(-0.000915722 0.00503188 5.81387e-318)
(-0.00146629 0.00681818 7.63245e-318)
(-0.00218385 0.00763688 8.30073e-318)
(-0.00296604 0.00766159 8.13202e-318)
(-0.00369736 0.0070891 7.49287e-318)
(-0.00432519 0.00607981 6.5911e-318)
(-0.00480906 0.00476889 5.61148e-318)
(-0.0051334 0.00325956 4.60436e-318)
(-0.00528494 0.00163193 3.63267e-318)
(-0.00525968 -4.68244e-05 2.66842e-318)
(-0.00505241 -0.0017173 1.73507e-318)
(-0.0046609 -0.00331117 7.93662e-319)
(-0.00408921 -0.00474758 -1.17756e-319)
(-0.00334682 -0.00591797 -1.00034e-318)
(-0.00246868 -0.00668134 -1.75712e-318)
(-0.00150113 -0.00686528 -2.31359e-318)
(-0.000550988 -0.00625971 -2.47703e-318)
(0.000304211 -0.00467977 -2.11437e-318)
(0.000825606 -0.00191827 -9.84811e-319)
(-0.000857461 0.00287497 2.77923e-318)
(-0.0009206 0.0068096 5.92971e-318)
(-0.00150331 0.0090502 7.46029e-318)
(-0.00222323 0.00998091 7.88544e-318)
(-0.0029944 0.00988759 7.63417e-318)
(-0.00369328 0.00906086 6.98492e-318)
(-0.00428114 0.00772103 6.11467e-318)
(-0.00472521 0.00604086 5.15488e-318)
(-0.00502112 0.00414464 4.16099e-318)
(-0.00516087 0.00212132 3.17398e-318)
(-0.00514507 4.20897e-05 2.18582e-318)
(-0.00496844 -0.0020331 1.20465e-318)
(-0.00462513 -0.00403142 2.11727e-319)
(-0.00411283 -0.00586166 -7.74818e-319)
(-0.00342747 -0.00739203 -1.74208e-318)
(-0.00259248 -0.00844039 -2.62036e-318)
(-0.00163274 -0.00877425 -3.31863e-318)
(-0.00066092 -0.00809463 -3.65814e-318)
(0.000269106 -0.00613144 -3.30201e-318)
(0.000803219 -0.00255144 -1.78664e-318)
(-0.000846467 0.00377343 2.10627e-318)
(-0.000800589 0.00872916 4.89431e-318)
(-0.00132452 0.0113728 6.43009e-318)
(-0.00192378 0.0123333 7.01136e-318)
(-0.00255456 0.0120421 6.89634e-318)
(-0.00309388 0.0109083 6.34637e-318)
(-0.00353059 0.00921964 5.54735e-318)
(-0.00384633 0.00718504 4.62725e-318)
(-0.00405209 0.00494305 3.65658e-318)
(-0.00414726 0.00258185 2.67262e-318)
(-0.00413786 0.000165539 1.68224e-318)
(-0.00401928 -0.00225681 6.88634e-319)
(-0.00378197 -0.00462059 -3.10056e-319)
(-0.00341623 -0.00683536 -1.29538e-318)
(-0.00290037 -0.00875694 -2.22713e-318)
(-0.00223971 -0.0101644 -3.01865e-318)
(-0.00142287 -0.0107586 -3.53675e-318)
(-0.000560077 -0.0101187 -3.5761e-318)
(0.000348146 -0.00783782 -2.92667e-318)
(0.000802864 -0.00334822 -1.3291e-318)
(-0.000808208 0.00483863 2.43884e-318)
(-0.000515053 0.0108742 5.15027e-318)
(-0.000844591 0.0138356 6.45098e-318)
(-0.00114664 0.0147076 6.78822e-318)
(-0.00146298 0.0141169 6.54081e-318)
(-0.00167996 0.0126169 5.92768e-318)
(-0.0018297 0.0105665 5.10737e-318)
(-0.0019124 0.00820536 4.18297e-318)
(-0.0019564 0.00567626 3.21431e-318)
(-0.00196794 0.00305475 2.23192e-318)
(-0.0019582 0.000385963 1.2418e-318)
(-0.00192465 -0.0023046 2.45333e-319)
(-0.00185543 -0.00497403 -7.57798e-319)
(-0.00173676 -0.00754707 -1.75337e-318)
(-0.001528 -0.00988103 -2.70407e-318)
(-0.00121356 -0.0117253 -3.53771e-318)
(-0.000727993 -0.0127113 -4.13305e-318)
(-0.000167992 -0.0122652 -4.30776e-318)
(0.000573763 -0.00978309 -3.71309e-318)
(0.000810178 -0.00432534 -1.91267e-318)
(-0.000723601 0.00604535 2.00715e-318)
(-2.80508e-05 0.013157 4.54359e-318)
(1.41257e-05 0.0162967 5.87547e-318)
(0.000229843 0.0169365 6.31546e-318)
(0.000437514 0.0159449 6.12272e-318)
(0.000730826 0.0140377 5.53797e-318)
(0.00101921 0.0116394 4.73113e-318)
(0.00128288 0.00900831 3.81448e-318)
(0.00147782 0.00627775 2.85309e-318)
(0.00159362 0.00349945 1.87749e-318)
(0.00161583 0.000687689 8.96472e-319)
(0.00154339 -0.00216475 -8.92233e-320)
(0.00138668 -0.00505054 -1.07692e-318)
(0.00115751 -0.00792255 -2.04848e-318)
(0.000910888 -0.0106594 -2.95882e-318)
(0.000681779 -0.0129958 -3.71983e-318)
(0.000605516 -0.0145051 -4.18928e-318)
(0.000611738 -0.0144383 -4.15239e-318)
(0.000989746 -0.0119338 -3.36914e-318)
(0.000834697 -0.00550341 -1.54228e-318)
(-0.000636991 0.00741128 2.28304e-318)
(0.000673957 0.0155145 4.80745e-318)
(0.00131115 0.0186413 5.98318e-318)
(0.00230585 0.0188898 6.2407e-318)
(0.0032618 0.0174113 5.94238e-318)
(0.00424957 0.0150834 5.29848e-318)
(0.00511198 0.0123794 4.46427e-318)
(0.0058167 0.00955811 3.53792e-318)
(0.00631236 0.00672953 2.57761e-318)
(0.00659144 0.00391103 1.61089e-318)
(0.00664089 0.00107913 6.43496e-319)
(0.00645446 -0.00181288 -3.25446e-319)
(0.00603621 -0.00480119 -1.2945e-318)
(0.00538455 -0.00787999 -2.24923e-318)
(0.00455778 -0.0109672 -3.15037e-318)
(0.00359835 -0.013809 -3.92344e-318)
(0.00271736 -0.0159419 -4.443e-318)
(0.00187449 -0.01645 -4.52545e-318)
(0.00163512 -0.0141599 -3.83029e-318)
(0.000838308 -0.00686589 -1.93306e-318)
(-0.000543111 0.00882652 2.00486e-318)
(0.00160408 0.0176699 4.45083e-318)
(0.00308918 0.0205466 5.66963e-318)
(0.00511934 0.0202641 6.00044e-318)
(0.00702265 0.0182667 5.72352e-318)
(0.00885074 0.0155606 5.08169e-318)
(0.0103829 0.0126389 4.24426e-318)
(0.0115889 0.00973877 3.31942e-318)
(0.012423 0.00693305 2.36726e-318)
(0.0128902 0.00420019 1.4155e-318)
(0.0129849 0.00147621 4.69896e-319)
(0.0126952 -0.00132344 -4.71749e-319)
(0.0120129 -0.00428157 -1.40851e-318)
(0.0109109 -0.00743894 -2.32685e-318)
(0.00943269 -0.0107693 -3.18416e-318)
(0.0076084 -0.0140587 -3.89888e-318)
(0.00571269 -0.0168427 -4.3354e-318)
(0.0037279 -0.018086 -4.2834e-318)
(0.00257191 -0.0162758 -3.48923e-318)
(0.000837135 -0.00837948 -1.62571e-318)
(-0.000470633 0.0101743 2.2221e-318)
(0.00278921 0.0193134 4.67953e-318)
(0.00538105 0.02171 5.78701e-318)
(0.00866314 0.0208171 5.97725e-318)
(0.0116471 0.0183515 5.61738e-318)
(0.0143848 0.0153744 4.92841e-318)
(0.0166119 0.0123651 4.07011e-318)
(0.018321 0.00951638 3.14366e-318)
(0.0194897 0.00685716 2.20322e-318)
(0.0201473 0.00432727 1.2732e-318)
(0.0203027 0.00182819 3.57664e-319)
(0.0199392 -0.000755824 -5.48052e-319)
(0.0190314 -0.00354689 -1.44587e-318)
(0.0175147 -0.00663213 -2.32482e-318)
(0.0153962 -0.0100456 -3.14962e-318)
(0.0126677 -0.0136433 -3.85183e-318)
(0.00963054 -0.0169935 -4.3136e-318)
(0.0062659 -0.019042 -4.36382e-318)
(0.00387365 -0.0179353 -3.68101e-318)
(0.000819061 -0.00990278 -1.85625e-318)
(-0.000318478 0.0112503 2.05016e-318)
(0.00426977 0.0200779 4.47309e-318)
(0.00819258 0.0218348 5.60329e-318)
(0.012821 0.0203529 5.82715e-318)
(0.0169063 0.0175645 5.45988e-318)
(0.0205154 0.0144837 4.75953e-318)
(0.023378 0.0115471 3.89808e-318)
(0.0255295 0.00888567 2.98073e-318)
(0.026988 0.0064855 2.06241e-318)
(0.0278163 0.00425524 1.16454e-318)
(0.0280442 0.00207278 2.89493e-319)
(0.0276519 -0.00019547 -5.69623e-319)
(0.0265946 -0.00269776 -1.41564e-318)
(0.0247635 -0.00555738 -2.23994e-318)
(0.0221083 -0.00886246 -3.00823e-318)
(0.0185619 -0.0125572 -3.65058e-318)
(0.0143901 -0.0162659 -4.047e-318)
(0.00955645 -0.0190527 -4.01006e-318)
(0.00564048 -0.018754 -3.29579e-318)
(0.000934195 -0.0112312 -1.57645e-318)
(-1.47869e-05 0.0117417 2.22192e-318)
(0.00605302 0.0195946 4.64855e-318)
(0.0114294 0.0207225 5.66752e-318)
(0.0173416 0.0188005 5.76028e-318)
(0.0224172 0.0159237 5.31789e-318)
(0.026746 0.0129464 4.58117e-318)
(0.0301011 0.0102512 3.71408e-318)
(0.0325735 0.00790069 2.81325e-318)
(0.0342369 0.00584752 1.92677e-318)
(0.0351922 0.00398153 1.07293e-318)
(0.0354951 0.00217254 2.4931e-319)
(0.0351251 0.000284775 -5.52286e-319)
(0.0340192 -0.00183763 -1.33756e-318)
(0.0320241 -0.00433823 -2.09981e-318)
(0.0290183 -0.00734015 -2.81076e-318)
(0.0248668 -0.0108796 -3.41162e-318)
(0.0197214 -0.0146329 -3.80152e-318)
(0.0135306 -0.0179275 -3.83471e-318)
(0.007909 -0.0183076 -3.23552e-318)
(0.00129983 -0.0119818 -1.65169e-318)
(0.000690153 0.0114364 2.12727e-318)
(0.00806717 0.0177826 4.50442e-318)
(0.014877 0.0184432 5.48635e-318)
(0.0217982 0.016327 5.55807e-318)
(0.027621 0.0136283 5.08683e-318)
(0.0324146 0.0109574 4.34053e-318)
(0.0360529 0.00864706 3.48664e-318)
(0.0386819 0.0066963 2.61864e-318)
(0.0404384 0.0050395 1.77998e-318)
(0.0414606 0.00356215 9.83349e-319)
(0.0418309 0.00214195 2.23748e-319)
(0.0415305 0.000655703 -5.08715e-319)
(0.0404831 -0.00104105 -1.22155e-318)
(0.0384988 -0.00309369 -1.90949e-318)
(0.0353804 -0.00563456 -2.54625e-318)
(0.030937 -0.00877815 -3.07377e-318)
(0.0251233 -0.0122275 -3.39371e-318)
(0.0179454 -0.0156776 -3.35261e-318)
(0.0106107 -0.0164075 -2.75089e-318)
(0.00226164 -0.0118314 -1.34034e-318)
(0.00171563 0.00992431 2.26674e-318)
(0.010025 0.0146427 4.56965e-318)
(0.0180587 0.0151761 5.38999e-318)
(0.0255749 0.0131795 5.31865e-318)
(0.0318071 0.0109106 4.78318e-318)
(0.0367485 0.00871293 4.02687e-318)
(0.0404239 0.00688633 3.20083e-318)
(0.0430242 0.00538144 2.38338e-318)
(0.0447502 0.00413084 1.60981e-318)
(0.0457685 0.00302986 8.85306e-319)
(0.046187 0.00197727 2.03076e-319)
(0.0459889 0.000874259 -4.49195e-319)
(0.0450939 -0.000396937 -1.0801e-318)
(0.0432872 -0.00196596 -1.68613e-318)
(0.0403063 -0.00394992 -2.24516e-318)
(0.0359274 -0.00651258 -2.70681e-318)
(0.0298443 -0.00934916 -2.98751e-318)
(0.0222262 -0.0125325 -2.97323e-318)
(0.0133898 -0.0130865 -2.45678e-318)
(0.00377164 -0.0103003 -1.23705e-318)
(0.00314471 0.00762206 2.21191e-318)
(0.0115305 0.01087 4.34e-318)
(0.020391 0.0114722 5.02802e-318)
(0.0279425 0.00983446 4.89283e-318)
(0.0341731 0.00814657 4.33636e-318)
(0.0389103 0.00651597 3.60558e-318)
(0.0423651 0.00520857 2.83632e-318)
(0.0447525 0.00414643 2.0949e-318)
(0.0463274 0.00327348 1.40657e-318)
(0.0472695 0.00250501 7.7179e-319)
(0.0477071 0.00177042 1.80522e-319)
(0.0476227 0.00100029 -3.80248e-319)
(0.0469452 0.00011456 -9.19654e-319)
(0.0454482 -0.000989751 -1.43511e-318)
(0.0428297 -0.00239583 -1.90668e-318)
(0.038863 -0.00428417 -2.28641e-318)
(0.032959 -0.00633184 -2.49212e-318)
(0.0255965 -0.00891747 -2.40549e-318)
(0.0157265 -0.00894536 -1.88224e-318)
(0.00600705 -0.00768729 -8.44452e-319)
(0.00409581 0.00421686 2.2564e-318)
(0.0119567 0.00678639 4.10989e-318)
(0.0210902 0.00763 4.56963e-318)
(0.0281639 0.00657138 4.30766e-318)
(0.0339617 0.0055222 3.74019e-318)
(0.0381559 0.00448089 3.06357e-318)
(0.0411472 0.00366697 2.38343e-318)
(0.0431582 0.00300168 1.74607e-318)
(0.0444779 0.00244898 1.16578e-318)
(0.0452769 0.0019498 6.38338e-319)
(0.0456972 0.00146804 1.52049e-319)
(0.0457135 0.000961995 -3.06192e-319)
(0.045281 0.000393174 -7.44987e-319)
(0.0441721 -0.000310471 -1.16351e-318)
(0.0420894 -0.00119091 -1.54526e-318)
(0.0388144 -0.0024061 -1.85021e-318)
(0.0335198 -0.00364285 -2.00848e-318)
(0.0270165 -0.00536283 -1.93203e-318)
(0.0167625 -0.00464495 -1.47199e-318)
(0.00791007 -0.00377446 -6.01436e-319)
(0.00442151 0.0017226 2.0906e-318)
(0.010846 0.00366338 3.51048e-318)
(0.0193506 0.00444942 3.76651e-318)
(0.0253009 0.0039212 3.46705e-318)
(0.0301461 0.00342883 2.95367e-318)
(0.0334613 0.00291044 2.38479e-318)
(0.0357716 0.00251108 1.83516e-318)
(0.0372778 0.00216544 1.33388e-318)
(0.0382649 0.00186203 8.85598e-319)
(0.0388676 0.00156548 4.8373e-319)
(0.039229 0.00127369 1.16604e-319)
(0.0393102 0.000963721 -2.27616e-319)
(0.0391051 0.000638154 -5.57064e-319)
(0.0384013 0.000249126 -8.70761e-319)
(0.0369576 -0.000200219 -1.15688e-318)
(0.0345803 -0.000833003 -1.3815e-318)
(0.0303469 -0.00138649 -1.48331e-318)
(0.0253354 -0.00230288 -1.37285e-318)
(0.0158043 -0.00121347 -9.43814e-319)
(0.0094997 -0.000661101 -2.2103e-319)
(0.00334432 -0.000552211 1.61176e-318)
(0.00833066 0.00133542 2.55454e-318)
(0.0152191 0.00189169 2.63406e-318)
(0.0195216 0.00189165 2.34403e-318)
(0.0229098 0.00180758 1.95611e-318)
(0.0250631 0.00168252 1.55656e-318)
(0.0265132 0.00156933 1.18537e-318)
(0.0274231 0.0014416 8.55213e-319)
(0.0280227 0.00130787 5.64638e-319)
(0.0283867 0.00115085 3.07452e-319)
(0.0286471 0.000992649 7.41889e-320)
(0.028738 0.00081815 -1.44168e-319)
(0.028715 0.000657125 -3.53138e-319)
(0.0283701 0.000481182 -5.53576e-319)
(0.0276099 0.000317204 -7.38001e-319)
(0.0262048 0.000113542 -8.85326e-319)
(0.023418 -7.30988e-06 -9.56447e-319)
(0.0201388 -0.000146872 -8.98365e-319)
(0.012501 0.0008572 -6.13975e-319)
(0.0083859 0.0025797 -8.29684e-320)
(-0.00011733 -0.000374824 1.25841e-318)
(0.00324557 0.000807366 1.4085e-318)
(0.00673477 0.000864461 1.25482e-318)
(0.00855249 0.000975176 1.02802e-318)
(0.00991809 0.0010468 8.14092e-319)
(0.0107052 0.0010861 6.25645e-319)
(0.0112315 0.00110593 4.64782e-319)
(0.0115717 0.00108622 3.29552e-319)
(0.0117848 0.00105644 2.14988e-319)
(0.0119419 0.000996188 1.15957e-319)
(0.0120304 0.000944386 2.75491e-320)
(0.0121015 0.000871442 -5.51624e-320)
(0.0120932 0.000831518 -1.34648e-319)
(0.0120437 0.000776421 -2.1228e-319)
(0.0117853 0.000780844 -2.85264e-319)
(0.0114318 0.000763225 -3.44863e-319)
(0.0103046 0.000851901 -3.72278e-319)
(0.00938715 0.000853023 -3.33391e-319)
(0.00530455 0.00140158 -1.80793e-319)
(0.0054331 0.001685 1.04016e-319)
)
;

boundaryField
{
    cavity
    {
        type            myHeatFlux;
        ThetaWall       uniform 0;
        value           nonuniform List<vector> 
60
(
(0.001 0 0)
(0.001 0 0)
(0.001 0 0)
(0.001 0 0)
(0.001 0 0)
(0.001 0 0)
(0.001 0 0)
(0.001 0 0)
(0.001 0 0)
(0.001 0 0)
(0.001 0 0)
(0.001 0 0)
(0.001 0 0)
(0.001 0 0)
(0.001 0 0)
(0.001 0 0)
(0.001 0 0)
(0.001 0 0)
(0.001 0 0)
(0.001 0 0)
(0 -0.001 0)
(0 -0.001 0)
(0 -0.001 0)
(0 -0.001 0)
(0 -0.001 0)
(0 -0.001 0)
(0 -0.001 0)
(0 -0.001 0)
(0 -0.001 0)
(0 -0.001 0)
(0 -0.001 0)
(0 -0.001 0)
(0 -0.001 0)
(0 -0.001 0)
(0 -0.001 0)
(0 -0.001 0)
(0 -0.001 0)
(0 -0.001 0)
(0 -0.001 0)
(0 -0.001 0)
(-0.001 0 0)
(-0.001 0 0)
(-0.001 0 0)
(-0.001 0 0)
(-0.001 0 0)
(-0.001 0 0)
(-0.001 0 0)
(-0.001 0 0)
(-0.001 0 0)
(-0.001 0 0)
(-0.001 0 0)
(-0.001 0 0)
(-0.001 0 0)
(-0.001 0 0)
(-0.001 0 0)
(-0.001 0 0)
(-0.001 0 0)
(-0.001 0 0)
(-0.001 0 0)
(-0.001 0 0)
)
;
    }
    lid
    {
        type            myHeatFlux;
        ThetaWall       uniform 0;
        value           nonuniform List<vector> 
20
(
(0.000135815 0.0009 0)
(0.000135815 0.0009 0)
(0.000135815 0.0009 0)
(0.000135815 0.0009 0)
(0.000135815 0.0009 0)
(0.000135815 0.0009 0)
(0.000135815 0.0009 0)
(0.000135815 0.0009 0)
(0.000135815 0.0009 0)
(0.000135815 0.0009 0)
(0.000135815 0.0009 0)
(0.000135815 0.0009 0)
(0.000135815 0.0009 0)
(0.000135815 0.0009 0)
(0.000135815 0.0009 0)
(0.000135815 0.0009 0)
(0.000135815 0.0009 0)
(0.000135815 0.0009 0)
(0.000135815 0.0009 0)
(0.000135815 0.0009 0)
)
;
    }
    frontAndBack
    {
        type            empty;
    }
}


// ************************************************************************* //
