/*--------------------------------*- C++ -*----------------------------------*\
| =========                 |                                                 |
| \\      /  F ield         | foam-extend: Open Source CFD                    |
|  \\    /   O peration     | Version:  3.0                                   |
|   \\  /    A nd           | Web:         http://www.extend-project.de       |
|    \\/     M anipulation  |                                                 |
\*---------------------------------------------------------------------------*/
FoamFile
{
    version     2.0;
    format      ascii;
    class       volSymmTensorField;
    location    "29";
    object      sigma;
}
// * * * * * * * * * * * * * * * * * * * * * * * * * * * * * * * * * * * * * //

dimensions      [0 0 0 0 0 0 0];

internalField   nonuniform List<symmTensor> 
7680
(
(-0.179889 -0.00296353 -9.51034e-21 0.179889 2.10656e-20 -4.34363e-07)
(-0.179146 -0.00335975 3.40566e-20 0.179147 1.38548e-19 -1.23241e-06)
(-0.176392 -0.00361881 3.94354e-21 0.176394 -3.60569e-20 -1.98315e-06)
(-0.172182 -0.00377483 -3.72264e-21 0.172185 6.01489e-20 -2.69189e-06)
(-0.167128 -0.00385943 1.12753e-20 0.167131 9.38099e-21 -3.36251e-06)
(-0.16145 -0.0038909 -4.67825e-21 0.161454 1.86267e-20 -3.99741e-06)
(-0.15548 -0.00388501 2.06003e-20 0.155485 -2.8011e-20 -4.59797e-06)
(-0.149301 -0.00385183 9.12964e-21 0.149307 -2.9986e-20 -5.16435e-06)
(-0.143096 -0.00379979 8.02768e-21 0.143102 -5.54366e-20 -5.6961e-06)
(-0.13689 -0.00373439 1.17342e-20 0.136896 -2.15292e-20 -6.19216e-06)
(-0.130786 -0.00366046 -2.69341e-20 0.130793 -7.68097e-20 -6.6513e-06)
(-0.124784 -0.00358099 1.82282e-20 0.124791 2.22797e-20 -7.07216e-06)
(-0.118944 -0.00349884 6.96611e-21 0.118951 -7.21121e-20 -7.45362e-06)
(-0.113253 -0.00341571 -2.61146e-20 0.113261 1.87854e-20 -7.79476e-06)
(-0.107748 -0.00333324 -2.70761e-20 0.107756 1.86106e-20 -8.09501e-06)
(-0.102414 -0.00325251 6.79362e-21 0.102422 6.39217e-20 -8.35422e-06)
(-0.0972707 -0.00317441 -7.9865e-21 0.0972792 -5.66557e-20 -8.57231e-06)
(-0.092305 -0.00309972 -1.16341e-20 0.0923138 1.45765e-19 -8.74972e-06)
(-0.0875282 -0.00302881 2.75515e-20 0.0875371 -6.66745e-20 -8.8863e-06)
(-0.0829288 -0.00296237 -1.31805e-20 0.0829378 1.31528e-19 -8.98246e-06)
(-0.0785119 -0.00290041 -3.0297e-20 0.078521 -2.75611e-20 -9.03728e-06)
(-0.0742701 -0.0028436 -3.00073e-20 0.0742791 1.10143e-19 -9.05051e-06)
(-0.0702037 -0.00279174 -4.47073e-20 0.0702127 -8.78511e-21 -9.02001e-06)
(-0.0663098 -0.0027455 -1.54906e-20 0.0663187 1.57255e-19 -8.94464e-06)
(-0.0625851 -0.00270452 -1.47927e-20 0.062594 -3.19325e-20 -8.82126e-06)
(-0.0590315 -0.00266957 -5.56402e-20 0.0590401 1.25561e-19 -8.64829e-06)
(-0.0556425 -0.00264012 -1.97403e-21 0.0556509 6.45857e-20 -8.42242e-06)
(-0.0524251 -0.0026171 -3.35116e-21 0.0524332 1.05046e-19 -8.14246e-06)
(-0.0493699 -0.00259978 8.06611e-21 0.0493777 4.68646e-20 -7.80593e-06)
(-0.0464894 -0.00258939 -4.04519e-20 0.0464968 3.16383e-20 -7.41279e-06)
(-0.0437708 -0.00258483 -1.74109e-20 0.0437777 4.36152e-21 -6.96198e-06)
(-0.0412337 -0.00258791 -2.1055e-20 0.0412402 -1.63414e-20 -6.45473e-06)
(-0.0388596 -0.00259679 7.7729e-21 0.0388655 -8.06778e-21 -5.89119e-06)
(-0.0366794 -0.00261417 -3.49315e-20 0.0366847 -2.17562e-20 -5.27325e-06)
(-0.0346631 -0.00263771 -8.02586e-21 0.0346677 4.27338e-22 -4.60167e-06)
(-0.0328598 -0.00267006 -5.83157e-20 0.0328637 4.0578e-21 -3.87806e-06)
(-0.0312223 -0.00270668 -5.44604e-21 0.0312254 -9.83648e-20 -3.10331e-06)
(-0.0298209 -0.00276884 6.26367e-22 0.0298232 1.37961e-20 -2.27817e-06)
(-0.028595 -0.00279248 -2.32456e-20 0.0285964 -5.28645e-20 -1.4035e-06)
(-0.0276252 -0.00284618 -6.61616e-21 0.0276256 -8.38965e-20 -4.79595e-07)
(-0.179742 -0.00836526 2.2627e-20 0.179742 -1.6297e-20 -4.34725e-07)
(-0.17889 -0.00957889 -2.42787e-20 0.178891 5.42176e-20 -1.23295e-06)
(-0.176058 -0.0103718 -2.88203e-20 0.17606 -3.06059e-20 -1.98401e-06)
(-0.171792 -0.0108495 3.37255e-20 0.171795 -1.8408e-20 -2.6931e-06)
(-0.166699 -0.0111068 -4.17672e-21 0.166702 -5.14882e-20 -3.36413e-06)
(-0.160995 -0.0111994 -1.14493e-20 0.160999 5.55681e-20 -3.99935e-06)
(-0.155008 -0.011175 -2.44811e-20 0.155013 3.87058e-20 -4.6002e-06)
(-0.148819 -0.0110643 -2.07865e-20 0.148824 2.65559e-20 -5.16675e-06)
(-0.142609 -0.0108928 -3.27436e-21 0.142615 1.31517e-19 -5.69862e-06)
(-0.136402 -0.0106773 1.21399e-20 0.136408 1.11403e-19 -6.19468e-06)
(-0.1303 -0.0104324 3.99562e-20 0.130307 -1.77479e-20 -6.65372e-06)
(-0.124302 -0.0101672 2.14442e-21 0.124309 6.2167e-20 -7.07443e-06)
(-0.118467 -0.00989037 1.28154e-20 0.118475 -5.3998e-20 -7.45558e-06)
(-0.112783 -0.00960704 4.5912e-20 0.112791 5.07728e-20 -7.79647e-06)
(-0.107286 -0.00932219 2.51848e-20 0.107294 -1.19539e-19 -8.09631e-06)
(-0.10196 -0.00903899 -6.15909e-20 0.101968 -2.91747e-20 -8.3553e-06)
(-0.0968251 -0.00876012 6.07812e-20 0.0968337 2.55515e-20 -8.57311e-06)
(-0.0918678 -0.00848779 -1.24742e-20 0.0918765 -5.97628e-20 -8.7505e-06)
(-0.0870993 -0.0082232 -1.70266e-20 0.0871082 1.09839e-19 -8.8871e-06)
(-0.082508 -0.00796817 6.01332e-21 0.082517 -4.67084e-20 -8.98355e-06)
(-0.078099 -0.00772285 -5.88427e-20 0.078108 2.49228e-20 -9.03879e-06)
(-0.0738646 -0.00748904 1.71148e-20 0.0738736 -7.6482e-20 -9.05254e-06)
(-0.0698053 -0.0072661 7.77945e-21 0.0698143 5.87603e-20 -9.02271e-06)
(-0.065918 -0.00705598 -1.69897e-20 0.0659269 -1.25215e-19 -8.94785e-06)
(-0.0621995 -0.00685748 -7.93717e-20 0.0622083 1.24406e-20 -8.8251e-06)
(-0.0586514 -0.00667282 5.99651e-20 0.0586601 -6.5736e-20 -8.6523e-06)
(-0.0552675 -0.00650031 -3.25399e-20 0.0552759 2.69806e-20 -8.42672e-06)
(-0.0520544 -0.00634258 -1.63625e-20 0.0520626 -2.88021e-20 -8.14638e-06)
(-0.0490031 -0.00619739 -7.11013e-20 0.0490109 -3.18456e-20 -7.80969e-06)
(-0.0461257 -0.00606815 -4.75227e-20 0.0461331 3.32522e-20 -7.41573e-06)
(-0.0434096 -0.00595154 -4.68456e-20 0.0434166 4.50635e-21 -6.96448e-06)
(-0.0408742 -0.00585267 -3.95287e-20 0.0408807 8.34031e-21 -6.45629e-06)
(-0.0385013 -0.00576596 2.27018e-20 0.0385072 1.02238e-20 -5.89238e-06)
(-0.0363211 -0.00569957 2.26824e-20 0.0363264 -6.15349e-20 -5.27381e-06)
(-0.0343045 -0.00564487 -4.87068e-21 0.0343091 4.31314e-20 -4.60215e-06)
(-0.0324996 -0.00561283 -1.20095e-19 0.0325034 -2.85794e-21 -3.87833e-06)
(-0.0308601 -0.00559039 -6.70376e-20 0.0308632 8.07283e-21 -3.1037e-06)
(-0.0294545 -0.00560795 4.1066e-20 0.0294568 3.05758e-20 -2.27848e-06)
(-0.0282267 -0.00559509 -1.3833e-19 0.0282281 -2.56542e-20 -1.40394e-06)
(-0.0272527 -0.00562417 4.13562e-20 0.0272532 4.11088e-20 -4.79586e-07)
(-0.179465 -0.0137664 3.60555e-20 0.179466 -7.50784e-21 -4.34392e-07)
(-0.178396 -0.0157799 3.57158e-20 0.178397 7.987e-20 -1.23218e-06)
(-0.175407 -0.0170939 -1.08773e-20 0.175409 -1.61727e-19 -1.98281e-06)
(-0.17103 -0.0178839 -2.22342e-20 0.171033 1.5714e-19 -2.69143e-06)
(-0.16586 -0.0183071 6.99096e-20 0.165863 -9.37122e-20 -3.36189e-06)
(-0.160104 -0.0184558 5.99375e-20 0.160108 -1.77293e-20 -3.99637e-06)
(-0.154083 -0.0184096 1.64032e-20 0.154087 -8.18703e-20 -4.59629e-06)
(-0.147874 -0.018219 7.29607e-20 0.147879 -1.47489e-21 -5.16176e-06)
(-0.141655 -0.0179266 7.76705e-20 0.141661 1.10088e-20 -5.6924e-06)
(-0.135447 -0.0175602 -8.34678e-20 0.135453 -2.29487e-20 -6.18722e-06)
(-0.12935 -0.017144 -5.01811e-20 0.129356 -1.28963e-19 -6.64495e-06)
(-0.123361 -0.0166931 -1.20343e-20 0.123368 4.88303e-20 -7.06451e-06)
(-0.117538 -0.016222 4.01713e-21 0.117546 -3.32896e-20 -7.44459e-06)
(-0.111869 -0.015739 -7.72773e-20 0.111877 2.27736e-20 -7.78467e-06)
(-0.106388 -0.0152524 -9.7336e-20 0.106396 1.02e-19 -8.08391e-06)
(-0.101079 -0.0147675 1.14975e-19 0.101088 6.43137e-20 -8.34262e-06)
(-0.0959627 -0.0142887 -2.67194e-20 0.0959713 9.0956e-20 -8.56039e-06)
(-0.0910236 -0.0138197 4.78614e-20 0.0910323 1.26718e-19 -8.73802e-06)
(-0.0862734 -0.0133623 6.98255e-20 0.0862823 -1.25311e-19 -8.87506e-06)
(-0.0817 -0.0129196 -9.84818e-20 0.081709 1.03661e-19 -8.97207e-06)
(-0.0773087 -0.0124919 -4.68883e-20 0.0773177 -2.42162e-20 -9.02791e-06)
(-0.0730912 -0.0120819 -1.55414e-20 0.0731003 1.14626e-19 -9.04225e-06)
(-0.0690484 -0.0116888 -7.5339e-20 0.0690574 -1.75285e-20 -9.01289e-06)
(-0.0651766 -0.0113156 -6.71422e-20 0.0651855 5.89317e-20 -8.93839e-06)
(-0.0614729 -0.0109603 3.51469e-20 0.0614817 1.67828e-19 -8.81582e-06)
(-0.0579385 -0.0106267 -4.5053e-20 0.0579471 1.09995e-19 -8.64311e-06)
(-0.0545675 -0.0103118 4.64139e-20 0.0545759 1.48281e-19 -8.41747e-06)
(-0.0513661 -0.0100199 -5.56613e-20 0.0513742 5.23795e-20 -8.13714e-06)
(-0.0483255 -0.0097474 7.27984e-20 0.0483333 1.02078e-19 -7.80042e-06)
(-0.0454574 -0.00949976 4.96143e-21 0.0454648 9.89612e-21 -7.40666e-06)
(-0.0427498 -0.00927151 -3.53353e-20 0.0427568 1.84917e-20 -6.95568e-06)
(-0.0402213 -0.00907098 -1.702e-20 0.0402277 1.00458e-19 -6.44807e-06)
(-0.0378543 -0.00888894 -8.56829e-20 0.0378602 1.33795e-19 -5.88483e-06)
(-0.0356782 -0.00873891 1.40333e-20 0.0356834 -2.82635e-19 -5.26718e-06)
(-0.0336649 -0.00860605 4.44678e-20 0.0336695 1.81581e-19 -4.59647e-06)
(-0.0318611 -0.00850955 -8.76935e-20 0.0318649 -1.1252e-19 -3.87375e-06)
(-0.0302222 -0.00842797 1.3554e-20 0.0302253 2.79195e-21 -3.10017e-06)
(-0.0288137 -0.00840061 -5.04653e-20 0.028816 8.76872e-20 -2.2761e-06)
(-0.0275848 -0.00835106 -2.01233e-20 0.0275862 -3.33422e-20 -1.40254e-06)
(-0.0266067 -0.00835513 -3.97256e-20 0.0266071 1.25626e-19 -4.79154e-07)
(-0.179058 -0.0191674 7.23203e-20 0.179059 2.46535e-20 -4.33853e-07)
(-0.177665 -0.0219518 -7.98302e-20 0.177666 -4.52261e-21 -1.23059e-06)
(-0.174442 -0.0237654 -1.13743e-20 0.174444 2.40569e-19 -1.98032e-06)
(-0.169901 -0.0248522 1.18002e-19 0.169904 -2.7239e-19 -2.68801e-06)
(-0.164616 -0.02543 -1.18402e-19 0.164619 4.23158e-20 -3.35744e-06)
(-0.158782 -0.0256269 -7.54968e-22 0.158786 7.46547e-20 -3.99077e-06)
(-0.152711 -0.0255532 -1.67561e-20 0.152715 5.74602e-20 -4.58938e-06)
(-0.146473 -0.0252789 4.53363e-20 0.146478 -1.58429e-20 -5.15341e-06)
(-0.140241 -0.0248633 1.89576e-20 0.140247 -1.13669e-19 -5.68252e-06)
(-0.134032 -0.0243445 -6.60641e-20 0.134038 -5.45985e-20 -6.17577e-06)
(-0.127942 -0.0237565 7.83884e-20 0.127949 4.70301e-20 -6.63197e-06)
(-0.121967 -0.0231201 6.96703e-20 0.121975 1.22116e-20 -7.05006e-06)
(-0.116164 -0.0224552 1.80265e-20 0.116172 -1.5743e-19 -7.42883e-06)
(-0.110518 -0.0217734 1.43631e-19 0.110525 1.17439e-19 -7.76777e-06)
(-0.105062 -0.0210863 5.94761e-20 0.10507 1.47219e-20 -8.06613e-06)
(-0.0997793 -0.0204011 -1.08157e-19 0.0997876 3.15092e-19 -8.32418e-06)
(-0.0946904 -0.0197238 1.65452e-19 0.094699 -1.80008e-19 -8.54158e-06)
(-0.0897793 -0.0190596 -2.20107e-19 0.0897881 2.05992e-19 -8.71905e-06)
(-0.0850573 -0.0184111 -1.649e-20 0.0850662 -1.13921e-19 -8.85617e-06)
(-0.0805117 -0.0177823 9.44643e-20 0.0805206 1.14102e-19 -8.95342e-06)
(-0.0761476 -0.0171737 -4.46554e-20 0.0761566 -1.15868e-19 -9.00964e-06)
(-0.0719566 -0.0165892 2.97904e-20 0.0719656 -1.33072e-20 -9.02439e-06)
(-0.0679393 -0.0160274 -4.37018e-20 0.0679483 4.36143e-20 -8.99551e-06)
(-0.0640919 -0.0154925 1.34512e-19 0.0641008 1.56072e-19 -8.92142e-06)
(-0.0604115 -0.014982 7.45164e-22 0.0604203 -9.07711e-20 -8.79929e-06)
(-0.0568989 -0.0145006 4.98773e-20 0.0569075 8.23283e-20 -8.62695e-06)
(-0.0535485 -0.0140445 -6.43978e-20 0.0535569 4.44037e-20 -8.40172e-06)
(-0.0503659 -0.0136197 -6.57815e-20 0.050374 1.11047e-19 -8.12178e-06)
(-0.0473429 -0.0132209 -9.21716e-20 0.0473507 -1.10732e-19 -7.78557e-06)
(-0.0444904 -0.0128557 -1.34936e-19 0.0444978 1.14492e-19 -7.39238e-06)
(-0.0417972 -0.0125166 5.99937e-20 0.0418041 1.45906e-20 -6.94217e-06)
(-0.0392806 -0.0122151 1.22784e-19 0.039287 5.0085e-20 -6.43542e-06)
(-0.0369245 -0.0119383 -3.84019e-19 0.0369304 1.53267e-19 -5.87324e-06)
(-0.0347562 -0.011705 2.60734e-20 0.0347615 -2.27732e-20 -5.25677e-06)
(-0.0327501 -0.0114943 1.99969e-19 0.0327547 1.38968e-19 -4.5874e-06)
(-0.0309499 -0.0113334 -3.2329e-19 0.0309538 3.979e-20 -3.86612e-06)
(-0.0293141 -0.0111927 1.49665e-19 0.0293172 1.06338e-19 -3.0941e-06)
(-0.0279041 -0.0111202 8.31751e-21 0.0279064 9.37127e-20 -2.27169e-06)
(-0.026675 -0.0110337 -9.03821e-20 0.0266764 -8.42221e-20 -1.39997e-06)
(-0.0256928 -0.0110123 -1.66811e-20 0.0256933 -1.6116e-19 -4.78302e-07)
(-0.178519 -0.0245684 5.52216e-20 0.17852 -8.85518e-20 -4.32774e-07)
(-0.176699 -0.0280833 1.94659e-19 0.1767 -1.94137e-19 -1.22779e-06)
(-0.173169 -0.030367 -1.07506e-19 0.173171 -2.70806e-19 -1.9759e-06)
(-0.168411 -0.0317291 -1.34526e-19 0.168414 9.04612e-21 -2.68205e-06)
(-0.162974 -0.0324459 2.76868e-19 0.162978 5.41088e-20 -3.34986e-06)
(-0.157038 -0.0326798 9.36953e-20 0.157042 -1.67716e-19 -3.98153e-06)
(-0.150902 -0.0325708 -2.25498e-20 0.150907 -1.4491e-19 -4.57836e-06)
(-0.144627 -0.0322076 -5.02942e-20 0.144632 7.78834e-20 -5.14059e-06)
(-0.138378 -0.0316654 5.05176e-20 0.138383 6.18042e-20 -5.66782e-06)
(-0.132167 -0.0309925 -2.85015e-21 0.132173 1.09481e-19 -6.15924e-06)
(-0.126088 -0.0302321 1.24984e-20 0.126095 -1.80642e-19 -6.61366e-06)
(-0.120133 -0.0294103 -1.76528e-19 0.12014 1.1588e-19 -7.03011e-06)
(-0.114356 -0.0285524 8.26921e-20 0.114363 -1.07923e-19 -7.40739e-06)
(-0.108739 -0.0276731 3.78999e-20 0.108747 1.77648e-19 -7.74507e-06)
(-0.103317 -0.0267872 1.09386e-19 0.103325 5.20299e-21 -8.04241e-06)
(-0.0980705 -0.0259035 -3.48805e-20 0.0980788 1.72689e-19 -8.29971e-06)
(-0.0930188 -0.0250299 -6.92336e-20 0.0930273 -2.71336e-19 -8.51662e-06)
(-0.0881454 -0.0241727 1.33367e-19 0.0881541 9.9249e-20 -8.69383e-06)
(-0.0834612 -0.0233352 -6.1912e-20 0.08347 5.78308e-20 -8.83092e-06)
(-0.0789529 -0.0225227 -7.1253e-20 0.0789618 -3.70514e-20 -8.92826e-06)
(-0.0746257 -0.0217355 -1.9442e-19 0.0746346 2.13144e-19 -8.98472e-06)
(-0.0704702 -0.0209786 1.14517e-19 0.0704792 2.02192e-19 -8.99974e-06)
(-0.0664877 -0.0202503 7.50852e-20 0.0664966 8.59559e-20 -8.9712e-06)
(-0.0626732 -0.0195559 -1.43211e-19 0.0626821 -1.56907e-19 -8.89744e-06)
(-0.0590245 -0.0188921 -5.15261e-20 0.0590333 2.5665e-19 -8.77567e-06)
(-0.0555416 -0.0182648 1.27594e-19 0.0555502 -1.50118e-20 -8.60372e-06)
(-0.0522194 -0.0176694 1.16446e-19 0.0522278 1.0562e-19 -8.37894e-06)
(-0.0490628 -0.0171131 -1.83495e-19 0.0490709 8.55534e-20 -8.09958e-06)
(-0.0460641 -0.0165895 6.2343e-20 0.0460718 2.58733e-19 -7.76406e-06)
(-0.0432333 -0.0161082 1.21342e-19 0.0432407 2.42509e-19 -7.37178e-06)
(-0.0405601 -0.0156595 -1.34335e-19 0.040567 2.25112e-19 -6.92259e-06)
(-0.0380605 -0.0152579 2.27458e-19 0.0380669 -3.97665e-20 -6.41714e-06)
(-0.0357201 -0.0148873 -1.16358e-19 0.0357259 1.3497e-19 -5.85634e-06)
(-0.0335636 -0.0145713 -9.91643e-20 0.0335689 1.43294e-19 -5.2415e-06)
(-0.0315684 -0.0142834 1.69167e-19 0.0315729 2.65274e-19 -4.57384e-06)
(-0.0297744 -0.0140583 -8.79637e-20 0.0297782 -7.28871e-20 -3.85449e-06)
(-0.0281441 -0.0138587 5.80174e-20 0.0281472 -2.1078e-21 -3.08456e-06)
(-0.0267339 -0.0137407 -2.22224e-19 0.0267362 3.92034e-20 -2.26451e-06)
(-0.0255055 -0.0136171 -3.58369e-19 0.0255069 -2.50818e-20 -1.39535e-06)
(-0.0245196 -0.0135698 8.08422e-20 0.02452 5.45537e-20 -4.76619e-07)
(-0.177847 -0.0299693 2.96829e-20 0.177847 1.79806e-20 -4.3147e-07)
(-0.175501 -0.0341636 -1.9799e-19 0.175502 2.74003e-19 -1.2241e-06)
(-0.171594 -0.0368799 1.75058e-19 0.171596 -1.04053e-19 -1.97009e-06)
(-0.166569 -0.0384899 1.94663e-19 0.166572 3.11848e-19 -2.67415e-06)
(-0.160947 -0.039326 -2.16967e-19 0.16095 -4.79141e-20 -3.33987e-06)
(-0.154885 -0.0395827 -7.8407e-20 0.154889 -8.8955e-20 -3.96942e-06)
(-0.14867 -0.0394287 1.34479e-19 0.148674 9.51588e-20 -4.56408e-06)
(-0.142349 -0.0389698 1.93828e-19 0.142354 -8.07787e-20 -5.1241e-06)
(-0.136079 -0.038297 5.38277e-20 0.136085 -1.14918e-19 -5.64914e-06)
(-0.129868 -0.0374677 -2.53183e-19 0.129874 1.43455e-19 -6.13839e-06)
(-0.123803 -0.036534 6.4085e-20 0.123809 2.14812e-19 -6.59074e-06)
(-0.117872 -0.0355269 1.07931e-19 0.117879 1.04916e-19 -7.00523e-06)
(-0.112127 -0.0344772 1.64489e-20 0.112134 -3.69177e-21 -7.38076e-06)
(-0.106549 -0.0334021 2.9313e-19 0.106557 -2.25158e-19 -7.71688e-06)
(-0.101169 -0.0323195 7.32352e-20 0.101177 4.23773e-20 -8.01292e-06)
(-0.0959668 -0.0312398 -2.35307e-19 0.0959751 -1.22057e-19 -8.26916e-06)
(-0.0909616 -0.0301726 6.93654e-21 0.0909701 2.26108e-19 -8.48529e-06)
(-0.0861352 -0.0291251 6.04177e-20 0.0861439 1.52572e-19 -8.66195e-06)
(-0.0814984 -0.0281017 -1.13184e-19 0.0815072 9.43944e-20 -8.79874e-06)
(-0.0770368 -0.0271083 2.35018e-19 0.0770457 1.78394e-19 -8.89597e-06)
(-0.0727557 -0.0261455 1.25887e-19 0.0727646 2.58723e-19 -8.9525e-06)
(-0.0686449 -0.0252191 -1.09878e-19 0.0686539 1.45858e-19 -8.96773e-06)
(-0.0647058 -0.0243271 -2.98767e-19 0.0647147 -1.61378e-19 -8.9395e-06)
(-0.0609327 -0.0234759 2.80102e-19 0.0609416 2.21469e-19 -8.86615e-06)
(-0.0573239 -0.0226612 1.17801e-19 0.0573327 1.00714e-19 -8.74488e-06)
(-0.0538785 -0.0218906 -1.53653e-19 0.053887 2.99457e-19 -8.57351e-06)
(-0.0505919 -0.0211581 1.27213e-19 0.0506002 -1.13595e-19 -8.34944e-06)
(-0.0474681 -0.0204726 1.1191e-19 0.0474762 1.44111e-19 -8.07092e-06)
(-0.0445003 -0.0198262 6.02586e-20 0.044508 -8.22332e-20 -7.7364e-06)
(-0.0416972 -0.0192304 -6.79474e-20 0.0417045 -9.317e-20 -7.3453e-06)
(-0.0390497 -0.0186737 -1.26996e-19 0.0390566 -5.52667e-19 -6.89751e-06)
(-0.0365721 -0.0181734 -6.72255e-22 0.0365785 2.79025e-20 -6.39365e-06)
(-0.034252 -0.0177102 -4.52137e-20 0.0342578 -2.98027e-19 -5.83469e-06)
(-0.0321112 -0.0173123 1.50435e-19 0.0321164 6.15647e-20 -5.22189e-06)
(-0.0301303 -0.0169479 8.1189e-20 0.0301349 -2.7889e-19 -4.55654e-06)
(-0.0283452 -0.016659 -5.84879e-19 0.0283491 -1.62507e-19 -3.83972e-06)
(-0.0267229 -0.0164008 3.24367e-19 0.026726 -1.43435e-19 -3.07262e-06)
(-0.025314 -0.0162371 5.51869e-20 0.0253163 -5.00452e-20 -2.25571e-06)
(-0.0240871 -0.0160762 -8.04731e-20 0.0240885 -4.87684e-19 -1.38998e-06)
(-0.0230976 -0.0160024 -1.77979e-19 0.0230981 1.24506e-19 -4.74883e-07)
(-0.177039 -0.0353698 2.12134e-19 0.177039 -4.86624e-20 -4.29712e-07)
(-0.174075 -0.0401823 1.00303e-19 0.174076 1.08298e-19 -1.21933e-06)
(-0.169724 -0.0432859 -1.77772e-19 0.169726 2.53654e-20 -1.96249e-06)
(-0.164386 -0.0451111 1.02762e-20 0.164389 -2.3337e-19 -2.66387e-06)
(-0.158546 -0.0460427 5.27215e-20 0.158549 1.64647e-19 -3.32693e-06)
(-0.152338 -0.0463052 1.53576e-20 0.152342 4.80727e-19 -3.95386e-06)
(-0.146029 -0.0460943 -6.01579e-20 0.146033 2.34897e-20 -4.5459e-06)
(-0.139655 -0.0455319 -2.05916e-19 0.13966 1.60144e-19 -5.10334e-06)
(-0.133363 -0.0447234 2.68572e-19 0.133369 -2.54913e-20 -5.62583e-06)
(-0.127151 -0.043735 2.32676e-19 0.127157 1.23486e-19 -6.11265e-06)
(-0.121103 -0.0426269 -5.94458e-20 0.12111 6.564e-22 -6.56268e-06)
(-0.115202 -0.041435 -3.444e-19 0.115209 1.99512e-19 -6.97504e-06)
(-0.109496 -0.0401947 -1.98501e-19 0.109503 1.62457e-20 -7.34863e-06)
(-0.103963 -0.0389259 -8.40714e-21 0.103971 3.50263e-19 -7.68306e-06)
(-0.0986339 -0.0376492 3.19067e-19 0.0986419 -1.64592e-19 -7.97765e-06)
(-0.0934854 -0.0363764 1.2278e-19 0.0934936 2.12955e-20 -8.23271e-06)
(-0.0885357 -0.0351189 1.03522e-19 0.0885441 -2.99728e-21 -8.44792e-06)
(-0.0837655 -0.0338847 6.2672e-20 0.0837742 1.98154e-20 -8.62392e-06)
(-0.0791853 -0.0326788 -1.25844e-20 0.0791941 -1.52541e-19 -8.76027e-06)
(-0.0747795 -0.0315081 8.35873e-20 0.0747884 -1.75643e-19 -8.85725e-06)
(-0.0705535 -0.0303733 -9.58855e-20 0.0705624 -1.82471e-20 -8.91371e-06)
(-0.0664961 -0.0292809 -7.99068e-20 0.0665051 -2.93688e-19 -8.92899e-06)
(-0.062609 -0.0282286 2.61597e-20 0.0626179 1.88591e-19 -8.90096e-06)
(-0.0588856 -0.0272237 4.82027e-20 0.0588944 -9.65742e-20 -8.82791e-06)
(-0.0553246 -0.0262615 1.89227e-19 0.0553333 -1.42043e-19 -8.70708e-06)
(-0.0519241 -0.0253504 -2.55603e-20 0.0519326 -3.83128e-20 -8.53628e-06)
(-0.0486803 -0.0244837 -8.3179e-20 0.0486886 -3.97245e-20 -8.31295e-06)
(-0.0455961 -0.0236715 -2.17169e-20 0.0456041 -3.07072e-19 -8.03538e-06)
(-0.0426655 -0.0229047 -2.22786e-19 0.0426732 6.0784e-19 -7.70202e-06)
(-0.0398959 -0.0221966 -2.66364e-19 0.0399032 -2.86858e-20 -7.31236e-06)
(-0.0372797 -0.0215339 -1.31885e-19 0.0372865 3.14155e-19 -6.86624e-06)
(-0.0348289 -0.0209366 4.45317e-19 0.0348352 1.71979e-19 -6.36437e-06)
(-0.0325336 -0.0203822 -6.19026e-20 0.0325394 -2.59231e-19 -5.80764e-06)
(-0.0304122 -0.0199036 -1.25181e-19 0.0304174 2.72684e-19 -5.19739e-06)
(-0.0284493 -0.0194638 1.2184e-19 0.0284539 -2.24157e-19 -4.53481e-06)
(-0.0266757 -0.0191114 -1.99967e-20 0.0266795 -3.11618e-20 -3.82111e-06)
(-0.0250636 -0.018795 2.49512e-20 0.0250667 -1.01136e-20 -3.0574e-06)
(-0.0236575 -0.0185855 -5.45494e-19 0.0236597 -1.33695e-19 -2.24429e-06)
(-0.0224331 -0.0183872 -1.9718e-19 0.0224345 -1.34537e-19 -1.38272e-06)
(-0.0214404 -0.0182861 2.0271e-19 0.0214408 5.24344e-19 -4.72248e-07)
(-0.176092 -0.0407695 1.07432e-19 0.176093 9.32991e-20 -4.27693e-07)
(-0.172425 -0.0461288 -1.53692e-20 0.172426 -1.25524e-19 -1.21363e-06)
(-0.167568 -0.0495677 -1.16795e-20 0.16757 6.83696e-20 -1.95342e-06)
(-0.161875 -0.05157 1.28501e-19 0.161878 6.63256e-19 -2.65156e-06)
(-0.155787 -0.0525695 2.02879e-19 0.15579 2.04597e-20 -3.3115e-06)
(-0.149413 -0.0528183 -1.66106e-20 0.149417 -4.66793e-19 -3.93535e-06)
(-0.142999 -0.0525368 -2.17189e-21 0.143004 -9.43915e-20 -4.52436e-06)
(-0.136566 -0.0518617 1.53476e-19 0.136571 -1.57832e-19 -5.07883e-06)
(-0.130249 -0.0509118 -5.60212e-20 0.130254 -3.82816e-20 -5.59846e-06)
(-0.124038 -0.0497612 -1.11553e-19 0.124044 -1.60601e-19 -6.0825e-06)
(-0.11801 -0.0484777 2.79462e-19 0.118017 -1.37943e-19 -6.52993e-06)
(-0.112144 -0.0471014 2.54475e-19 0.112151 -2.8636e-19 -6.93985e-06)
(-0.106483 -0.0456721 5.62152e-20 0.106491 7.78334e-20 -7.31125e-06)
(-0.101004 -0.0442119 7.32961e-20 0.101012 -8.18477e-20 -7.6437e-06)
(-0.095733 -0.0427441 -1.36481e-19 0.0957409 -3.83431e-19 -7.9366e-06)
(-0.0906465 -0.0412819 -1.13212e-19 0.0906547 2.39855e-20 -8.19023e-06)
(-0.0857611 -0.0398377 1.29355e-19 0.0857695 -2.86231e-19 -8.40429e-06)
(-0.081056 -0.0384208 -1.37809e-20 0.0810646 -1.96705e-20 -8.5794e-06)
(-0.0765412 -0.0370367 -1.89671e-19 0.0765499 -4.36149e-19 -8.71513e-06)
(-0.0722001 -0.0356928 3.78566e-19 0.0722089 1.04549e-21 -8.81171e-06)
(-0.0680378 -0.0343901 1.11695e-19 0.0680467 -5.54773e-20 -8.868e-06)
(-0.0640423 -0.0331357 4.77969e-20 0.0640511 2.9859e-21 -8.8833e-06)
(-0.0602153 -0.0319272 -1.89244e-19 0.0602242 1.82717e-19 -8.85547e-06)
(-0.0565495 -0.0307725 -2.75232e-20 0.0565582 4.33527e-20 -8.7828e-06)
(-0.0530439 -0.0296665 1.45551e-19 0.0530525 1.40962e-19 -8.66251e-06)
(-0.0496955 -0.0286184 1.45316e-19 0.049704 -3.16799e-19 -8.49246e-06)
(-0.0465015 -0.0276207 -2.63083e-19 0.0465098 2.33634e-19 -8.27008e-06)
(-0.0434632 -0.0266848 9.17051e-19 0.0434712 -5.49368e-19 -7.99369e-06)
(-0.040576 -0.0258005 3.32788e-19 0.0405837 4.93376e-19 -7.66177e-06)
(-0.0378456 -0.0249827 -2.51462e-19 0.0378529 -5.67224e-19 -7.27383e-06)
(-0.0352659 -0.0242164 -2.70073e-19 0.0352727 5.05466e-19 -6.82974e-06)
(-0.0328466 -0.0235239 -5.84775e-19 0.0328529 -4.31884e-20 -6.33022e-06)
(-0.0305805 -0.0228803 5.12394e-20 0.0305863 2.12785e-19 -5.77617e-06)
(-0.0284822 -0.0223222 1.53682e-19 0.0284873 2.86369e-19 -5.16894e-06)
(-0.0265408 -0.0218082 -4.0934e-19 0.0265453 1.78573e-19 -4.50976e-06)
(-0.0247811 -0.021393 -3.58134e-19 0.0247849 1.08346e-20 -3.79981e-06)
(-0.0231818 -0.021019 2.58158e-19 0.0231848 3.21587e-19 -3.04025e-06)
(-0.0217798 -0.0207635 -1.13586e-19 0.021782 3.02547e-19 -2.23168e-06)
(-0.0205589 -0.0205274 5.12094e-19 0.0205602 -1.94854e-19 -1.37504e-06)
(-0.0195633 -0.0203986 -4.19371e-19 0.0195638 1.52171e-19 -4.6976e-07)
(-0.175005 -0.0461673 1.24147e-19 0.175005 -5.83337e-20 -4.25276e-07)
(-0.170555 -0.0519934 1.15639e-19 0.170557 -3.13815e-20 -1.20693e-06)
(-0.165138 -0.0557086 2.4357e-19 0.16514 -5.07298e-20 -1.9427e-06)
(-0.15905 -0.0578453 1.2568e-19 0.159052 -6.43942e-19 -2.63705e-06)
(-0.152688 -0.0588819 -4.22643e-19 0.152691 -4.71469e-19 -3.2933e-06)
(-0.146131 -0.0590947 -1.31844e-20 0.146135 2.31166e-19 -3.9136e-06)
(-0.139601 -0.0587273 4.93854e-20 0.139606 2.45934e-19 -4.49916e-06)
(-0.133103 -0.0579292 -1.46628e-19 0.133108 7.01067e-20 -5.0503e-06)
(-0.12676 -0.0568316 2.2071e-19 0.126766 3.23043e-19 -5.56671e-06)
(-0.120552 -0.0555152 2.537e-19 0.120558 -4.22073e-19 -6.04773e-06)
(-0.114548 -0.0540552 -3.29714e-19 0.114555 3.14891e-19 -6.4923e-06)
(-0.108722 -0.0524949 -6.54296e-20 0.108729 -2.13376e-19 -6.8996e-06)
(-0.103113 -0.0508783 -1.79734e-20 0.10312 9.05082e-20 -7.26861e-06)
(-0.0976942 -0.0492296 -2.53485e-19 0.0977018 5.26446e-21 -7.59894e-06)
(-0.0924895 -0.0475742 3.03836e-19 0.0924974 2.46938e-19 -7.89001e-06)
(-0.0874732 -0.0459264 1.97867e-19 0.0874813 -1.2584e-19 -8.14207e-06)
(-0.0826605 -0.0443001 -1.05164e-19 0.0826688 4.18137e-19 -8.35486e-06)
(-0.078029 -0.042705 5.46338e-20 0.0780375 -1.74148e-19 -8.52896e-06)
(-0.0735882 -0.0411473 -2.3722e-19 0.0735969 2.25393e-19 -8.66394e-06)
(-0.0693201 -0.039635 2.74671e-19 0.0693288 5.22739e-20 -8.76001e-06)
(-0.0652299 -0.0381691 8.38675e-21 0.0652387 -2.16218e-19 -8.81602e-06)
(-0.0613042 -0.0367574 1.30969e-19 0.061313 -2.82396e-20 -8.83124e-06)
(-0.0575453 -0.0353972 1.89619e-19 0.0575541 -1.46067e-19 -8.80353e-06)
(-0.0539445 -0.0340971 -7.22415e-20 0.0539532 -1.70298e-20 -8.73118e-06)
(-0.0505016 -0.0328514 -3.05722e-19 0.0505102 2.20256e-19 -8.61143e-06)
(-0.0472123 -0.0316703 2.64729e-19 0.0472208 -5.57007e-19 -8.44213e-06)
(-0.0440746 -0.0305455 -5.80701e-19 0.0440829 1.70339e-19 -8.22075e-06)
(-0.0410886 -0.0294894 -9.16527e-20 0.0410965 1.75616e-19 -7.94564e-06)
(-0.0382506 -0.0284909 2.19942e-19 0.0382583 4.66237e-20 -7.61531e-06)
(-0.0355647 -0.0275661 -7.30199e-20 0.035572 -2.9566e-19 -7.22929e-06)
(-0.0330266 -0.0266989 6.05924e-19 0.0330334 1.78608e-19 -6.78747e-06)
(-0.0306433 -0.0259136 2.14281e-19 0.0306496 -2.76553e-19 -6.29062e-06)
(-0.0284107 -0.0251827 -9.24379e-20 0.0284165 5.96129e-19 -5.7396e-06)
(-0.0263389 -0.0245468 3.13296e-19 0.0263441 -7.55915e-19 -5.13584e-06)
(-0.0244224 -0.0239599 -1.96415e-19 0.0244269 5.30349e-19 -4.4805e-06)
(-0.0226792 -0.0234827 5.19546e-20 0.0226829 -1.6725e-19 -3.77484e-06)
(-0.0210949 -0.0230518 2.6697e-19 0.0210979 4.84571e-19 -3.01996e-06)
(-0.0196985 -0.0227501 -1.01081e-18 0.0197007 -3.6281e-19 -2.21655e-06)
(-0.0184821 -0.0224761 -3.01753e-19 0.0184834 1.57081e-19 -1.36549e-06)
(-0.0174841 -0.0223188 3.85494e-19 0.0174845 3.36192e-19 -4.66335e-07)
(-0.173773 -0.051562 -7.62213e-20 0.173773 6.38731e-19 -4.22577e-07)
(-0.168472 -0.0577665 -1.55153e-19 0.168473 2.71828e-19 -1.1993e-06)
(-0.162444 -0.0616931 -3.45964e-19 0.162446 6.59805e-20 -1.93051e-06)
(-0.155927 -0.0639172 -1.07918e-20 0.15593 4.69178e-19 -2.6205e-06)
(-0.149268 -0.0649567 5.31474e-19 0.149271 6.22622e-19 -3.27261e-06)
(-0.142513 -0.0651093 1.76815e-19 0.142517 2.13058e-19 -3.88891e-06)
(-0.135859 -0.0646392 -5.32718e-20 0.135864 -1.37248e-19 -4.47062e-06)
(-0.129292 -0.0637067 2.43273e-19 0.129297 -3.31461e-19 -5.01804e-06)
(-0.122923 -0.0624543 -3.75109e-19 0.122928 -3.069e-19 -5.53093e-06)
(-0.116719 -0.0609685 -1.53149e-19 0.116725 2.09502e-19 -6.00859e-06)
(-0.110743 -0.0593305 3.47918e-19 0.11075 4.65425e-19 -6.45004e-06)
(-0.104962 -0.0575868 -1.67333e-19 0.104969 3.85399e-19 -6.85444e-06)
(-0.0994118 -0.0557852 2.06046e-19 0.099419 2.56921e-19 -7.22082e-06)
(-0.0940602 -0.0539509 4.72434e-20 0.0940678 2.13913e-19 -7.5488e-06)
(-0.0889295 -0.0521119 -4.45988e-19 0.0889374 4.73433e-20 -7.83781e-06)
(-0.0839912 -0.050283 1.54956e-19 0.0839993 -1.65726e-19 -8.0881e-06)
(-0.0792593 -0.0484793 6.71365e-20 0.0792676 2.6294e-20 -8.29944e-06)
(-0.0747095 -0.0467111 -7.60689e-20 0.074718 -3.63287e-19 -8.47237e-06)
(-0.0703508 -0.044985 -9.48366e-20 0.0703594 -1.91848e-19 -8.60647e-06)
(-0.0661637 -0.0433095 -1.71861e-19 0.0661724 3.23023e-19 -8.70194e-06)
(-0.0621534 -0.0416858 2.45838e-20 0.0621621 4.86393e-20 -8.75761e-06)
(-0.0583052 -0.0401219 -3.67142e-20 0.058314 3.09314e-19 -8.77274e-06)
(-0.0546219 -0.038615 -7.45218e-20 0.0546306 -8.23798e-20 -8.74519e-06)
(-0.0510932 -0.0371744 4.62458e-19 0.0511019 8.60674e-20 -8.67325e-06)
(-0.0477199 -0.0357937 -4.86522e-19 0.0477285 2.48749e-19 -8.55415e-06)
(-0.0444962 -0.034484 5.48013e-20 0.0445046 -1.22183e-19 -8.38578e-06)
(-0.0414212 -0.0332363 4.50755e-19 0.0414293 5.99701e-19 -8.16561e-06)
(-0.0384932 -0.0320639 4.71883e-19 0.0385011 1.77338e-19 -7.89202e-06)
(-0.03571 -0.0309547 -1.50285e-19 0.0357176 4.33452e-19 -7.56355e-06)
(-0.0330738 -0.0299264 -5.36542e-19 0.033081 4.89675e-19 -7.17977e-06)
(-0.0305821 -0.0289612 -2.28161e-19 0.0305888 9.70573e-20 -6.74057e-06)
(-0.0282391 -0.0280855 6.0659e-20 0.0282454 -2.55611e-20 -6.24676e-06)
(-0.0260441 -0.0272699 -3.42148e-19 0.0260498 1.84137e-20 -5.69923e-06)
(-0.0240023 -0.0265577 1.64646e-19 0.0240074 -2.34342e-19 -5.09941e-06)
(-0.0221138 -0.0258997 3.50983e-19 0.0221182 3.2571e-19 -4.44847e-06)
(-0.0203894 -0.0253613 -3.84246e-19 0.0203932 -3.75797e-19 -3.74769e-06)
(-0.0188224 -0.0248742 5.79315e-19 0.0188254 4.50406e-20 -2.99817e-06)
(-0.0174332 -0.0245263 -1.19596e-19 0.0174354 -1.20787e-19 -2.20057e-06)
(-0.0162223 -0.0242143 8.56691e-19 0.0162236 5.16556e-19 -1.35576e-06)
(-0.0152224 -0.0240278 -4.81816e-19 0.0152229 -2.97252e-19 -4.6316e-07)
(-0.172393 -0.0569516 6.98564e-20 0.172394 -4.04621e-19 -4.19517e-07)
(-0.16618 -0.0634389 -1.17624e-20 0.166181 -5.07155e-19 -1.19072e-06)
(-0.159499 -0.0675069 2.15011e-19 0.159501 2.10285e-19 -1.91677e-06)
(-0.152524 -0.0697673 1.15861e-19 0.152527 1.57146e-20 -2.60189e-06)
(-0.145549 -0.0707729 -7.07082e-19 0.145552 -7.52369e-20 -3.24935e-06)
(-0.138584 -0.0708391 -1.17427e-20 0.138588 -7.7217e-19 -3.8612e-06)
(-0.1318 -0.0702479 -2.46485e-19 0.131804 -2.51653e-20 -4.43864e-06)
(-0.125161 -0.0691689 -1.23441e-19 0.125166 -2.09686e-19 -4.98202e-06)
(-0.118765 -0.0677542 5.20296e-19 0.11877 6.08828e-19 -5.49105e-06)
(-0.112568 -0.0660949 5.48952e-19 0.112574 3.35825e-20 -5.9651e-06)
(-0.106624 -0.0642777 -8.08691e-20 0.106631 -3.12245e-20 -6.40319e-06)