/*--------------------------------*- C++ -*----------------------------------*\
| =========                 |                                                 |
| \\      /  F ield         | foam-extend: Open Source CFD                    |
|  \\    /   O peration     | Version:  3.0                                   |
|   \\  /    A nd           | Web:         http://www.extend-project.de       |
|    \\/     M anipulation  |                                                 |
\*---------------------------------------------------------------------------*/
FoamFile
{
    version     2.0;
    format      ascii;
    class       volScalarField;
    location    "27";
    object      p;
}
// * * * * * * * * * * * * * * * * * * * * * * * * * * * * * * * * * * * * * //

dimensions      [0 0 0 0 0 0 0];

internalField   nonuniform List<scalar> 
120
(
-0.285305
-0.212528
-0.222116
-0.212262
-0.212413
-0.265917
-0.198078
-0.207007
-0.197816
-0.197954
-0.228301
-0.170067
-0.177739
-0.169854
-0.169976
-0.175237
-0.130532
-0.136415
-0.130357
-0.130447
-0.110124
-0.0820398
-0.0857419
-0.0819406
-0.0819995
-0.0376174
-0.0280233
-0.0292823
-0.0279793
-0.0279971
0.0375595
0.0279657
0.0292255
0.0279234
0.0279421
0.110066
0.0819822
0.0856849
0.0818844
0.0819442
0.175178
0.130474
0.136358
0.1303
0.130391
0.228242
0.170008
0.177681
0.169797
0.169919
0.265858
0.198019
0.206949
0.197758
0.197896
0.285246
0.212469
0.222057
0.212202
0.212354
0.285301
0.212501
0.222084
0.212221
0.212369
0.265802
0.197986
0.20692
0.197738
0.197879
0.228297
0.17004
0.177708
0.169814
0.169932
0.175122
0.13044
0.136328
0.130279
0.130372
0.11012
0.0820133
0.0857103
0.0819
0.0819559
0.0375024
0.0279306
0.0291948
0.0279009
0.0279217
-0.0375641
-0.0279928
-0.0292577
-0.0279649
-0.0279865
-0.110181
-0.0820753
-0.085773
-0.0819636
-0.0820204
-0.175183
-0.130502
-0.13639
-0.130342
-0.130436
-0.228357
-0.170101
-0.177769
-0.169876
-0.169995
-0.265863
-0.198046
-0.206981
-0.197799
-0.19794
-0.285361
-0.212561
-0.222144
-0.212281
-0.212429
)
;

boundaryField
{
    out
    {
        type            implicitExtrapolation;
    }
    in
    {
        type            implicitExtrapolation;
    }
    frontAndBack
    {
        type            empty;
    }
}


// ************************************************************************* //
