/*--------------------------------*- C++ -*----------------------------------*\
| =========                 |                                                 |
| \\      /  F ield         | foam-extend: Open Source CFD                    |
|  \\    /   O peration     | Version:  3.0                                   |
|   \\  /    A nd           | Web:         http://www.extend-project.de       |
|    \\/     M anipulation  |                                                 |
\*---------------------------------------------------------------------------*/
FoamFile
{
    version     2.0;
    format      ascii;
    class       volSymmTensorField;
    location    "27";
    object      sigma;
}
// * * * * * * * * * * * * * * * * * * * * * * * * * * * * * * * * * * * * * //

dimensions      [0 0 0 0 0 0 0];

internalField   nonuniform List<symmTensor> 
120
(
(-0.131167 -0.0230063 1.93022e-19 0.131167 -1.19552e-20 6.45962e-07)
(-0.0936432 -0.0224166 5.30622e-19 0.0936418 4.33967e-19 1.35834e-06)
(-0.0551275 -0.0174727 1.17439e-18 0.0551257 -6.08522e-19 1.73093e-06)
(-0.0241436 -0.0130968 -8.72474e-19 0.024142 5.33997e-20 1.60863e-06)
(-0.00176961 -0.0096631 -9.17305e-19 0.00176885 -7.74074e-21 7.65196e-07)
(-0.111716 -0.0630988 3.37697e-19 0.111715 -1.02648e-19 4.00377e-07)
(-0.0687765 -0.0580707 1.65414e-18 0.0687756 -7.81656e-19 8.39707e-07)
(-0.0326503 -0.0434826 9.83279e-19 0.0326492 -1.61837e-18 1.05371e-06)
(-0.00431736 -0.0308825 1.39399e-18 0.00431641 -1.04746e-18 9.52653e-07)
(0.0156434 -0.0211918 7.42231e-19 -0.0156439 -1.38303e-18 4.23897e-07)
(-0.0802955 -0.0883779 9.30566e-21 0.0802953 -2.9853e-19 1.35975e-07)
(-0.031565 -0.0712816 -3.47423e-19 0.0315647 -1.3054e-18 2.75362e-07)
(-0.000192142 -0.0478074 -1.32476e-18 0.000191815 -1.70939e-18 3.26355e-07)
(0.0233364 -0.0283803 -1.97578e-18 -0.0233367 -1.85108e-18 2.6007e-07)
(0.0391573 -0.0139797 -3.27497e-18 -0.0391574 5.86893e-19 8.04057e-08)
(-0.0477579 -0.0971207 -1.00984e-19 0.047758 -2.12383e-19 -1.49145e-07)
(0.00014089 -0.0611485 -5.66347e-19 -0.000140566 -7.55118e-19 -3.24101e-07)
(0.024525 -0.030152 -3.04149e-18 -0.0245245 1.8669e-19 -4.49043e-07)
(0.0418692 -0.00575997 -1.05387e-18 -0.0418687 9.55091e-19 -4.81241e-07)
(0.0528397 0.0114824 -5.87328e-19 -0.0528394 1.67551e-18 -2.96696e-07)
(-0.0224789 -0.09489 6.19556e-20 0.0224793 -1.80333e-19 -4.11009e-07)
(0.0133515 -0.0391909 -7.59687e-19 -0.0133506 -4.11115e-20 -8.82222e-07)
(0.0288492 -0.00268637 -1.02252e-19 -0.028848 4.29162e-19 -1.16621e-06)
(0.0393657 0.0247854 -3.7797e-19 -0.0393645 1.00978e-18 -1.15938e-06)
(0.0456253 0.0433278 2.87849e-18 -0.0456247 -3.96556e-20 -6.26628e-07)
(-0.00618129 -0.0905473 -2.49748e-19 0.00618195 -8.36936e-20 -6.55726e-07)
(0.00716628 -0.0222192 -1.00745e-18 -0.00716488 2.08427e-19 -1.39577e-06)
(0.0124855 0.0172079 7.73284e-19 -0.0124837 4.08634e-19 -1.82873e-06)
(0.0159961 0.0461107 2.25947e-19 -0.0159943 6.46161e-19 -1.78847e-06)
(0.0180053 0.0650569 6.57865e-19 -0.0180043 -3.24471e-19 -9.41724e-07)
(0.00618273 -0.0905472 -2.44629e-19 -0.00618189 -4.33932e-20 -8.42112e-07)
(-0.00716449 -0.0222191 -5.75199e-19 0.00716628 1.64183e-19 -1.79414e-06)
(-0.012484 0.017208 7.13149e-19 0.0124863 3.61139e-19 -2.33797e-06)
(-0.0159954 0.0461106 1.91626e-19 0.0159976 4.77576e-19 -2.26395e-06)
(-0.0180064 0.0650566 -1.07163e-18 0.0180076 -2.23768e-19 -1.16481e-06)
(0.0224803 -0.0948897 -3.43338e-19 -0.0224793 -7.46617e-21 -9.8191e-07)
(-0.01335 -0.0391905 8.90874e-19 0.0133521 3.46983e-19 -2.08537e-06)
(-0.0288479 -0.00268629 -4.63676e-19 0.0288506 8.66303e-20 -2.71164e-06)
(-0.0393651 0.0247851 5.3858e-19 0.0393677 -5.47018e-20 -2.61345e-06)
(-0.0456263 0.043327 8.68871e-20 0.0456277 -4.00227e-19 -1.33522e-06)
(0.0477591 -0.0971203 -2.11816e-19 -0.047758 3.08934e-19 -1.04111e-06)
(-0.000139915 -0.0611482 -9.47301e-19 0.000142129 5.41655e-19 -2.21394e-06)
(-0.0245242 -0.0301521 -1.86923e-18 0.0245271 3.47005e-19 -2.8706e-06)
(-0.0418689 -0.00576054 -1.22495e-18 0.0418716 7.60392e-19 -2.75117e-06)
(-0.0528405 0.0114812 -3.13803e-18 0.0528419 -1.1946e-19 -1.38542e-06)
(0.0802964 -0.0883772 1.17699e-19 -0.0802954 4.09811e-19 -1.04015e-06)
(0.0315655 -0.0712815 1.33576e-19 -0.0315633 9.36393e-19 -2.20647e-06)
(0.000192447 -0.0478078 -6.68387e-19 -0.00018959 1.07652e-18 -2.85692e-06)
(-0.0233364 -0.0283812 1.80529e-18 0.0233391 1.14678e-19 -2.72857e-06)
(-0.0391578 -0.0139812 2.38341e-18 0.0391592 2.55555e-18 -1.36714e-06)
(0.111716 -0.063098 2.97863e-19 -0.111715 2.25354e-19 -9.54735e-07)
(0.0687766 -0.0580709 5.24857e-19 -0.0687745 2.06509e-19 -2.02822e-06)
(0.0326503 -0.0434834 2.13702e-18 -0.0326476 1.17998e-18 -2.6186e-06)
(0.00431722 -0.0308837 1.20304e-18 -0.00431474 -4.50507e-19 -2.48617e-06)
(-0.0156438 -0.0211933 2.35242e-18 0.015645 -1.9666e-19 -1.2263e-06)
(0.131167 -0.0230054 1.32973e-19 -0.131167 -3.50846e-21 -8.15341e-07)
(0.0936431 -0.022417 4.69303e-19 -0.0936414 4.47039e-20 -1.72729e-06)
(0.0551273 -0.0174737 1.68847e-18 -0.0551251 -1.40596e-19 -2.22587e-06)
(0.0241434 -0.0130982 1.46171e-19 -0.0241413 -6.13757e-19 -2.10269e-06)
(0.0017693 -0.00966462 -1.11961e-19 -0.00176827 -2.12445e-18 -1.02854e-06)
(0.131166 0.0230094 1.92962e-19 -0.131166 -1.19714e-20 -6.07272e-07)
(0.0936416 0.0224214 5.30591e-19 -0.0936403 4.33786e-19 -1.28939e-06)
(0.0551248 0.017481 1.17442e-18 -0.0551232 -6.08273e-19 -1.65327e-06)
(0.0241393 0.0131107 -8.72082e-19 -0.0241377 5.34072e-20 -1.54412e-06)
(0.00176299 0.00968539 -9.17009e-19 -0.00176226 -7.70492e-21 -7.32518e-07)
(0.111713 0.0631009 3.37577e-19 -0.111713 -1.02691e-19 -3.69421e-07)
(0.0687724 0.058074 1.65408e-18 -0.0687716 -7.81487e-19 -7.80491e-07)
(0.0326434 0.0434884 9.83239e-19 -0.0326424 -1.61781e-18 -9.94136e-07)
(0.00430611 0.0308924 1.39393e-18 -0.0043052 -1.04697e-18 -9.11168e-07)
(-0.0156611 0.0212077 7.42537e-19 0.0156615 -1.38228e-18 -4.14755e-07)
(0.0802919 0.0883784 9.30204e-21 -0.0802918 -2.98542e-19 -9.37579e-08)
(0.0315595 0.0712824 -3.47254e-19 -0.0315593 -1.30505e-18 -2.00346e-07)
(0.000182779 0.047809 -1.32454e-18 -0.000182538 -1.70892e-18 -2.40957e-07)
(-0.0233518 0.0283832 -1.97544e-18 0.023352 -1.85068e-18 -1.86555e-07)
(-0.0391814 0.0139848 -3.27469e-18 0.0391814 5.86501e-19 -4.19197e-08)
(0.0477544 0.0971193 -1.00965e-19 -0.0477546 -2.12406e-19 1.76465e-07)
(-0.000146392 0.0611465 -5.66065e-19 0.000146016 -7.54909e-19 3.75947e-07)
(-0.0245343 0.0301487 -3.04084e-18 0.0245338 1.86571e-19 5.01485e-07)
(-0.0418846 0.00575484 -1.05371e-18 0.0418841 9.54483e-19 5.18682e-07)
(-0.0528639 -0.0114902 -5.86013e-19 0.0528636 1.67522e-18 3.04849e-07)
(0.0224763 0.0948871 6.19239e-20 -0.0224768 -1.80353e-19 4.47276e-07)
(-0.0133556 0.0391864 -7.59632e-19 0.0133546 -4.1094e-20 9.44645e-07)
(-0.0288561 0.00267881 -1.01829e-19 0.0288549 4.2903e-19 1.23594e-06)
(-0.0393771 -0.0247977 -3.7796e-19 0.0393759 1.00944e-18 1.21801e-06)
(-0.0456432 -0.0433467 2.87824e-18 0.0456425 -3.87835e-20 6.57529e-07)
(0.00618033 0.0905435 -2.49776e-19 -0.006181 -8.37135e-20 6.76132e-07)
(-0.00716788 0.0222133 -1.00743e-18 0.00716645 2.08371e-19 1.43228e-06)
(-0.0124882 -0.017218 7.73249e-19 0.0124863 4.086e-19 1.86022e-06)
(-0.0160005 -0.0461271 2.25857e-19 0.0159987 6.46288e-19 1.80366e-06)
(-0.0180119 -0.0650822 6.57342e-19 0.018011 -3.23905e-19 9.37387e-07)
(-0.00618198 0.0905434 -2.44617e-19 0.00618111 -4.34512e-20 8.72002e-07)
(0.00716579 0.0222131 -5.75022e-19 -0.00716764 1.64156e-19 1.84155e-06)
(0.0124862 -0.017218 7.12897e-19 -0.0124886 3.61167e-19 2.3857e-06)
(0.0159993 -0.046127 1.91619e-19 -0.0160016 4.77984e-19 2.29788e-06)
(0.0180125 -0.0650819 -1.07166e-18 -0.0180136 -2.23483e-19 1.18121e-06)
(-0.0224779 0.0948868 -3.43296e-19 0.0224769 -7.58574e-21 9.97673e-07)
(0.0133538 0.039186 8.90699e-19 -0.0133559 3.46924e-19 2.11026e-06)
(0.0288545 0.00267876 -4.64251e-19 -0.0288572 8.65908e-20 2.72504e-06)
(0.039376 -0.0247974 5.38071e-19 -0.0393786 -5.47564e-20 2.60761e-06)
(0.0456435 -0.0433458 8.61207e-20 -0.0456449 -3.99934e-19 1.31827e-06)
(-0.0477558 0.0971189 -2.11805e-19 0.0477547 3.08934e-19 1.06905e-06)
(0.000145105 0.0611462 -9.47657e-19 -0.000147361 5.41833e-19 2.25582e-06)
(0.0245331 0.0301488 -1.86971e-18 -0.024536 3.4724e-19 2.90862e-06)
(0.0418838 0.00575543 -1.22537e-18 -0.0418865 7.60751e-19 2.77321e-06)
(0.052864 -0.011489 -3.13761e-18 -0.0528654 -1.1919e-19 1.39451e-06)
(-0.0802931 0.0883777 1.17724e-19 0.080292 4.09836e-19 1.05744e-06)
(-0.0315603 0.0712823 1.33369e-19 0.0315581 9.36688e-19 2.23382e-06)
(-0.000183534 0.0478094 -6.68258e-19 0.000180662 1.07719e-18 2.87197e-06)
(0.0233512 0.0283841 1.80592e-18 -0.0233539 1.14857e-19 2.72343e-06)
(0.0391812 0.0139862 2.38373e-18 -0.0391826 2.55691e-18 1.35024e-06)
(-0.111714 0.0631001 2.97886e-19 0.111713 2.25328e-19 9.88049e-07)
(-0.0687728 0.0580742 5.24845e-19 0.0687708 2.06574e-19 2.08113e-06)
(-0.0326438 0.0434892 2.13716e-18 0.0326411 1.18042e-18 2.67015e-06)
(-0.00430654 0.0308936 1.2034e-18 0.00430401 -4.50491e-19 2.52189e-06)
(0.0156609 0.0212092 2.35154e-18 -0.0156621 -1.96899e-19 1.24298e-06)
(-0.131167 0.0230085 1.32995e-19 0.131166 -3.53094e-21 8.42077e-07)
(-0.0936418 0.0224217 4.69365e-19 0.09364 4.47297e-20 1.77367e-06)
(-0.0551251 0.017482 1.68851e-18 0.0551228 -1.40626e-19 2.26414e-06)
(-0.0241396 0.0131121 1.46056e-19 0.0241375 -6.13843e-19 2.12083e-06)
(-0.0017633 0.00968691 -1.12535e-19 0.00176228 -2.12498e-18 1.02424e-06)
)
;

boundaryField
{
    out
    {
        type            mySigma;
    }
    in
    {
        type            mySigma;
    }
    frontAndBack
    {
        type            empty;
    }
}


// ************************************************************************* //
