/*--------------------------------*- C++ -*----------------------------------*\
| =========                 |                                                 |
| \\      /  F ield         | foam-extend: Open Source CFD                    |
|  \\    /   O peration     | Version:  3.0                                   |
|   \\  /    A nd           | Web:         http://www.extend-project.de       |
|    \\/     M anipulation  |                                                 |
\*---------------------------------------------------------------------------*/
FoamFile
{
    version     2.0;
    format      ascii;
    class       volVectorField;
    location    "27";
    object      u;
}
// * * * * * * * * * * * * * * * * * * * * * * * * * * * * * * * * * * * * * //

dimensions      [0 0 0 0 0 0 0];

internalField   nonuniform List<vector> 
120
(
(0.499935 -0.157182 -8.49809e-20)
(0.75863 -0.0863939 5.95171e-18)
(0.953211 -0.0445322 -1.40727e-17)
(0.959331 -0.0243999 7.44568e-18)
(1.04734 0.00442429 3.51836e-17)
(0.657115 -0.429413 2.40035e-18)
(0.845007 -0.235997 -3.33745e-17)
(0.997723 -0.121604 -9.97542e-18)
(0.983693 -0.0665773 -3.16993e-17)
(1.04287 0.0122006 -2.80595e-17)
(0.929347 -0.586588 4.04055e-18)
(0.994619 -0.322366 6.55637e-18)
(1.0748 -0.1661 1.86036e-17)
(1.02589 -0.0909223 1.12549e-17)
(1.03511 0.0166938 8.85308e-17)
(1.2437 -0.586584 1.8979e-18)
(1.16737 -0.322364 -7.00417e-19)
(1.16381 -0.166091 2.74656e-17)
(1.0746 -0.0909156 -1.4337e-18)
(1.02616 0.0167067 -6.2551e-18)
(1.51593 -0.429411 -2.17879e-18)
(1.31698 -0.235983 3.37131e-18)
(1.24089 -0.121587 -3.16762e-18)
(1.11679 -0.0665492 6.00234e-18)
(1.01839 0.0122319 -2.9673e-17)
(1.67311 -0.157171 -9.08202e-19)
(1.40336 -0.0863752 5.01747e-18)
(1.28539 -0.0444991 -2.77223e-18)
(1.14115 -0.024359 2.2436e-18)
(1.01391 0.0044801 -1.33552e-17)
(1.67312 0.157177 -1.08931e-18)
(1.40336 0.0863825 4.31999e-18)
(1.2854 0.0445068 4.28789e-19)
(1.14115 0.0243637 1.54195e-18)
(1.01392 -0.00447753 -1.14345e-17)
(1.51594 0.429419 -2.98959e-18)
(1.31698 0.235992 9.61709e-18)
(1.24089 0.121596 -1.44392e-18)
(1.11679 0.0665557 8.45518e-18)
(1.0184 -0.0122273 3.49246e-18)
(1.24371 0.586596 -2.96947e-18)
(1.16738 0.322376 -1.31489e-17)
(1.16382 0.166103 -2.07208e-17)
(1.07461 0.0909252 -1.48583e-17)
(1.02616 -0.0166986 -5.65659e-17)
(0.929356 0.586605 2.07837e-18)
(0.994626 0.322382 1.5819e-18)
(1.07481 0.166115 -2.67695e-17)
(1.02589 0.0909354 5.89229e-18)
(1.03512 -0.0166815 4.14925e-17)
(0.657122 0.429435 7.82408e-18)
(0.845012 0.236015 -4.55606e-18)
(0.997727 0.121621 2.46861e-17)
(0.983698 0.0665935 -8.1338e-18)
(1.04288 -0.0121846 6.57027e-17)
(0.499937 0.157206 -2.45605e-19)
(0.758632 0.0864142 -1.15955e-17)
(0.953213 0.044551 1.84341e-17)
(0.959333 0.0244179 -2.83157e-18)
(1.04734 -0.00440592 3.27446e-18)
(0.499933 -0.157141 8.29657e-20)
(0.758619 -0.0863329 -5.95425e-18)
(0.953204 -0.0444469 1.40663e-17)
(0.959313 -0.0242869 -7.44908e-18)
(1.04733 0.00456878 -3.51793e-17)
(0.657095 -0.429377 -2.40132e-18)
(0.844986 -0.235939 3.33579e-17)
(0.997688 -0.121526 9.97196e-18)
(0.983653 -0.0664706 3.16852e-17)
(1.04282 0.0123347 2.80473e-17)
(0.929325 -0.586553 -4.04325e-18)
(0.99458 -0.322319 -6.56154e-18)
(1.07475 -0.16603 -1.85983e-17)
(1.02582 -0.0908336 -1.12561e-17)
(1.03503 0.0168124 -8.85094e-17)
(1.24367 -0.586562 -1.90199e-18)
(1.16732 -0.322325 6.91198e-19)
(1.16374 -0.166042 -2.74569e-17)
(1.07451 -0.0908438 1.42945e-18)
(1.02604 0.0167951 6.23448e-18)
(1.5159 -0.429392 2.17448e-18)
(1.31692 -0.235962 -3.37833e-18)
(1.24081 -0.121551 3.16022e-18)
(1.11668 -0.0665085 -6.00343e-18)
(1.01826 0.0122916 2.96471e-17)
(1.67307 -0.15717 9.0584e-19)
(1.4033 -0.0863645 -5.01854e-18)
(1.28531 -0.0444912 2.76487e-18)
(1.14104 -0.0243412 -2.24694e-18)
(1.01377 0.00449686 1.33473e-17)
(1.67307 0.157175 1.08735e-18)
(1.4033 0.0863719 -4.32251e-18)
(1.28531 0.0444987 -4.35186e-19)
(1.14104 0.0243457 -1.54529e-18)
(1.01377 -0.00449467 1.14394e-17)
(1.5159 0.4294 2.98869e-18)
(1.31693 0.235971 -9.63377e-18)
(1.24082 0.12156 1.44041e-18)
(1.11669 0.0665147 -8.46952e-18)
(1.01826 -0.0122871 -3.50466e-18)
(1.24367 0.586574 2.96686e-18)
(1.16733 0.322337 1.31439e-17)
(1.16375 0.166053 2.07264e-17)
(1.07452 0.0908531 1.48573e-17)
(1.02605 -0.0167867 5.6589e-17)
(0.929334 0.58657 -2.08241e-18)
(0.994586 0.322335 -1.59111e-18)
(1.07476 0.166045 2.67784e-17)
(1.02582 0.0908465 -5.89657e-18)
(1.03504 -0.0167995 -4.15135e-17)
(0.657102 0.429398 -7.8284e-18)
(0.844991 0.235957 4.54905e-18)
(0.997691 0.121543 -2.46936e-17)
(0.983657 0.0664866 8.13278e-18)
(1.04282 -0.0123181 -6.57292e-17)
(0.499936 0.157164 2.43212e-19)
(0.758621 0.0863531 1.15945e-17)
(0.953205 0.0444656 -1.84415e-17)
(0.959315 0.0243048 2.82828e-18)
(1.04733 -0.00455016 -3.2825e-18)
)
;

boundaryField
{
    out
    {
        type            fixedValue;
        value           uniform (1 0 0);
    }
    in
    {
        type            myVelocity;
    }
    frontAndBack
    {
        type            empty;
    }
}


// ************************************************************************* //
