/*--------------------------------*- C++ -*----------------------------------*\
| =========                 |                                                 |
| \\      /  F ield         | foam-extend: Open Source CFD                    |
|  \\    /   O peration     | Version:  3.0                                   |
|   \\  /    A nd           | Web:         http://www.extend-project.de       |
|    \\/     M anipulation  |                                                 |
\*---------------------------------------------------------------------------*/
FoamFile
{
    version     2.0;
    format      ascii;
    class       volSymmTensorField;
    location    "57";
    object      sigma;
}
// * * * * * * * * * * * * * * * * * * * * * * * * * * * * * * * * * * * * * //

dimensions      [0 0 0 0 0 0 0];

internalField   nonuniform List<symmTensor> 
7680
(
(-0.180368 -0.00204306 -1.61694e-20 0.180397 -6.15724e-21 -2.88822e-05)
(-0.179645 -0.00257187 5.31184e-20 0.179726 1.26857e-19 -8.14747e-05)
(-0.176883 -0.0029473 8.83416e-22 0.177014 -8.31102e-20 -0.000130568)
(-0.172655 -0.00320505 -2.08342e-21 0.172832 6.77755e-20 -0.000176572)
(-0.16759 -0.00338228 1.23964e-20 0.16781 -2.50964e-20 -0.000219813)
(-0.161877 -0.00349663 -8.00318e-21 0.162138 2.52852e-20 -0.000260542)
(-0.155893 -0.00356884 2.51182e-20 0.156192 -6.0799e-20 -0.000298957)
(-0.149674 -0.00360791 9.20699e-21 0.150009 -1.80669e-20 -0.000335205)
(-0.143453 -0.00362559 8.31632e-21 0.143823 -8.56509e-20 -0.0003694)
(-0.137209 -0.00362695 1.84647e-20 0.13761 -6.20127e-21 -0.000401615)
(-0.131088 -0.00361879 -3.64476e-20 0.13152 -1.06384e-19 -0.000431901)
(-0.125052 -0.00360412 1.88653e-20 0.125512 4.90522e-20 -0.000460279)
(-0.119195 -0.00358702 2.49202e-21 0.119682 -9.17533e-20 -0.000486753)
(-0.113476 -0.00356941 -3.29215e-20 0.113987 5.64295e-20 -0.000511301)
(-0.107957 -0.00355378 -2.55653e-20 0.108491 -3.1142e-21 -0.00053389)
(-0.1026 -0.00354147 5.42759e-21 0.103154 1.12247e-19 -0.00055446)
(-0.0974454 -0.00353404 -1.05274e-20 0.0980183 -9.37809e-20 -0.000572943)
(-0.0924633 -0.00353256 -3.31726e-21 0.0930525 2.03693e-19 -0.000589245)
(-0.0876787 -0.003538 2.16193e-20 0.0882819 -1.09567e-19 -0.000603268)
(-0.0830693 -0.00355132 -6.12789e-21 0.0836842 1.86462e-19 -0.000614887)
(-0.0786489 -0.00357312 -3.04544e-20 0.0792729 -5.90757e-20 -0.000623972)
(-0.0744038 -0.00360435 -3.23266e-20 0.0750342 1.56607e-19 -0.000630373)
(-0.0703388 -0.00364537 -3.4553e-20 0.0709728 -2.16152e-20 -0.000633932)
(-0.0664488 -0.00369715 -2.6068e-20 0.0670833 1.95392e-19 -0.000634474)
(-0.0627308 -0.00375996 -8.71943e-22 0.0633627 -2.50769e-20 -0.000631817)
(-0.0591886 -0.00383478 -6.38364e-20 0.0598144 1.57503e-19 -0.00062576)
(-0.0558121 -0.0039219 1.02526e-20 0.0564282 9.03206e-20 -0.000616098)
(-0.0526141 -0.00402216 -8.58892e-21 0.0532167 1.28292e-19 -0.000602603)
(-0.0495778 -0.00413652 1.73666e-20 0.0501629 8.78463e-20 -0.000585048)
(-0.0467247 -0.00426443 -4.64359e-20 0.0472879 4.47028e-20 -0.000563179)
(-0.0440334 -0.00441021 -7.66404e-21 0.0445701 4.78735e-20 -0.000536744)
(-0.0415299 -0.00456719 -3.41269e-20 0.0420354 -1.03785e-20 -0.000505462)
(-0.0391963 -0.00475125 2.21959e-20 0.0396654 2.31908e-20 -0.000469056)
(-0.03705 -0.0049385 -5.48756e-20 0.0374772 -1.42932e-20 -0.000427218)
(-0.0350965 -0.00516854 8.69301e-21 0.0354762 1.04506e-20 -0.000379645)
(-0.0333183 -0.00539398 -7.71595e-20 0.0336443 2.27456e-20 -0.000326005)
(-0.0317706 -0.0056726 5.6672e-21 0.0320366 -1.11747e-19 -0.000265972)
(-0.0303864 -0.00595138 -1.66413e-21 0.0305856 4.73775e-20 -0.000199191)
(-0.0292538 -0.00623849 -2.87017e-20 0.0293792 -8.66717e-20 -0.000125318)
(-0.0283042 -0.00689358 2.23264e-20 0.0283482 -4.15032e-20 -4.39781e-05)
(-0.180273 -0.00744096 2.11609e-20 0.180302 1.29219e-20 -2.8908e-05)
(-0.179432 -0.008792 -3.66465e-20 0.179514 6.93758e-20 -8.15391e-05)
(-0.176584 -0.00970749 -3.29559e-20 0.176715 1.40847e-20 -0.00013067)
(-0.172294 -0.0102883 4.50876e-20 0.172471 -1.81997e-20 -0.000176711)
(-0.167183 -0.0106421 -1.41312e-20 0.167403 -2.26969e-20 -0.00021999)
(-0.161438 -0.0108174 -8.87591e-22 0.161699 5.41768e-20 -0.000260757)
(-0.155432 -0.0108732 -3.32955e-20 0.155731 6.02587e-20 -0.000299212)
(-0.149198 -0.0108342 -1.53204e-20 0.149533 2.54432e-20 -0.000335502)
(-0.142967 -0.0107332 -5.87374e-21 0.143337 1.41861e-19 -0.000369739)
(-0.136717 -0.0105837 8.33675e-21 0.137119 1.19239e-19 -0.000401998)
(-0.130594 -0.0104045 5.33339e-20 0.131027 -1.88922e-20 -0.000432329)
(-0.124557 -0.0102034 5.71152e-21 0.125018 7.29226e-20 -0.000460754)
(-0.118702 -0.00999111 2.48902e-20 0.119189 -7.71733e-20 -0.000487276)
(-0.112985 -0.00977242 5.11154e-20 0.113497 6.47819e-20 -0.000511873)
(-0.107468 -0.00955364 3.28056e-20 0.108003 -1.53193e-19 -0.000534511)
(-0.102114 -0.00933792 -6.61212e-20 0.10267 -1.55357e-20 -0.000555132)
(-0.0969636 -0.00912878 7.07626e-20 0.0975373 1.44886e-21 -0.000573666)
(-0.0919848 -0.00892871 -1.92906e-20 0.0925748 -5.40331e-20 -0.000590019)
(-0.0872033 -0.00873939 -1.17802e-20 0.0878074 9.58321e-20 -0.00060409)
(-0.0825966 -0.00856318 1.0856e-20 0.0832124 -4.76003e-20 -0.000615755)
(-0.0781785 -0.00840044 -6.41306e-20 0.0788034 1.46024e-20 -0.000624885)
(-0.0739351 -0.00825373 3.66933e-20 0.0745664 -8.42279e-20 -0.000631325)
(-0.0698711 -0.00812241 -7.82293e-21 0.070506 4.70841e-20 -0.000634921)
(-0.0659812 -0.00800944 1.09325e-20 0.0666167 -1.4031e-19 -0.000635494)
(-0.0622628 -0.00791334 -9.47106e-20 0.0628956 -2.12614e-21 -0.000632863)
(-0.0587189 -0.00783762 8.24339e-20 0.0593457 -8.63636e-20 -0.000626825)
(-0.0553401 -0.00778015 -4.18541e-20 0.0559573 4.74554e-21 -0.000617175)
(-0.0521383 -0.00774481 -2.3181e-21 0.052742 -4.95217e-20 -0.000603684)
(-0.0490979 -0.00772972 -7.29611e-20 0.049684 -6.08292e-20 -0.000586122)
(-0.0462388 -0.00773727 -4.31157e-20 0.046803 1.80617e-20 -0.000564236)
(-0.0435413 -0.00777001 -4.30176e-20 0.0440791 -2.39334e-20 -0.000537773)
(-0.0410298 -0.00782114 -4.01517e-20 0.0415362 2.61989e-21 -0.00050645)
(-0.0386875 -0.00791104 3.152e-20 0.0391575 -9.94982e-21 -0.000469991)
(-0.0365323 -0.00800419 2.05502e-20 0.0369604 -6.10845e-20 -0.000428085)
(-0.0345658 -0.00816262 8.98646e-21 0.0349462 3.20709e-20 -0.00038043)
(-0.0327817 -0.00830267 -1.2569e-19 0.0331084 -7.59399e-22 -0.000326691)
(-0.031212 -0.00853263 -4.48063e-20 0.0314785 5.03873e-21 -0.000266541)
(-0.0298296 -0.00874115 2.23067e-20 0.0300292 3.03365e-20 -0.000199627)
(-0.0286678 -0.0089922 -1.07325e-19 0.0287934 -2.56201e-20 -0.000125601)
(-0.0277019 -0.00961166 7.2699e-21 0.027746 3.63731e-20 -4.40862e-05)
(-0.180051 -0.012841 2.51837e-20 0.18008 -4.38459e-20 -2.88956e-05)
(-0.178983 -0.0149968 6.2309e-20 0.179064 5.65101e-20 -8.15144e-05)
(-0.175969 -0.016439 -1.78297e-20 0.1761 -2.09267e-19 -0.000130636)
(-0.171561 -0.017333 -3.00825e-20 0.171738 1.45851e-19 -0.00017667)
(-0.166366 -0.0178561 7.35561e-20 0.166586 -1.26325e-19 -0.000219946)
(-0.160563 -0.0180872 5.0226e-20 0.160824 -1.1654e-20 -0.000260713)
(-0.154517 -0.0181227 2.44453e-20 0.154816 -1.10047e-19 -0.000299171)
(-0.148258 -0.018003 6.28643e-20 0.148594 1.50164e-20 -0.000335467)
(-0.142014 -0.0177815 8.71913e-20 0.142383 -1.4317e-20 -0.000369714)
(-0.135757 -0.0174801 -8.75196e-20 0.136159 -6.24276e-21 -0.000401985)
(-0.129635 -0.0171292 -5.48173e-20 0.130067 -1.58192e-19 -0.000432333)
(-0.123602 -0.0167413 -3.03152e-20 0.124063 7.52806e-20 -0.000460776)
(-0.117755 -0.0163338 4.3075e-21 0.118242 -5.7338e-20 -0.00048732)
(-0.112048 -0.0159142 -9.51531e-20 0.11256 5.79335e-20 -0.000511942)
(-0.106543 -0.0154926 -9.38418e-20 0.107078 8.1332e-20 -0.000534608)
(-0.101202 -0.0150739 1.17834e-19 0.101757 1.02683e-19 -0.000555258)
(-0.0960645 -0.0146635 -3.27377e-20 0.0966383 6.4944e-20 -0.000573822)
(-0.0910991 -0.0142654 6.13261e-20 0.0916893 1.63782e-19 -0.000590207)
(-0.0863309 -0.0138819 6.07949e-20 0.0869352 -1.50511e-19 -0.000604311)
(-0.0817369 -0.0135167 -9.08961e-20 0.0823529 1.32825e-19 -0.000616008)
(-0.0773311 -0.01317 -5.18685e-20 0.0779562 -3.89259e-20 -0.000625169)
(-0.073099 -0.0128459 -2.06007e-20 0.0737306 1.32906e-19 -0.000631639)
(-0.0690455 -0.0125428 -7.21995e-20 0.0696808 -1.17962e-20 -0.000635264)
(-0.0651651 -0.0122655 -8.12382e-20 0.065801 6.82536e-20 -0.000635864)
(-0.061455 -0.0120111 4.22351e-20 0.0620882 1.94092e-19 -0.000633258)
(-0.0579182 -0.0117851 -6.01146e-20 0.0585454 1.11281e-19 -0.000627241)
(-0.0545451 -0.0115837 5.52529e-20 0.0551627 1.96277e-19 -0.00061761)
(-0.0513476 -0.0114127 -6.60507e-20 0.0519518 4.8134e-20 -0.000604133)
(-0.0483097 -0.0112687 8.28353e-20 0.0488963 1.63431e-19 -0.000586581)
(-0.045452 -0.0111553 2.37866e-21 0.0460167 -4.50603e-22 -0.000564698)
(-0.0427532 -0.0110752 -2.10153e-20 0.0432915 8.29601e-20 -0.000538231)
(-0.04024 -0.0110199 -1.77346e-20 0.0407469 8.76114e-20 -0.000506897)
(-0.0378921 -0.0110139 -6.75176e-20 0.0383625 1.8454e-19 -0.000470418)
(-0.0357323 -0.0110157 7.64948e-21 0.0361608 -2.85785e-19 -0.000428485)
(-0.0337556 -0.0110945 6.30808e-20 0.0341364 2.10729e-19 -0.000380792)
(-0.0319639 -0.0111626 -9.57771e-20 0.0322909 -1.02103e-19 -0.000327007)
(-0.0303809 -0.0113249 2.60933e-20 0.0306477 1.13307e-20 -0.0002668)
(-0.0289892 -0.0114863 -4.77185e-20 0.029189 1.19351e-19 -0.00019982)
(-0.0278139 -0.0116837 -2.24673e-20 0.0279396 -5.46926e-20 -0.00012572)
(-0.0268244 -0.0122708 -7.99719e-21 0.0268685 1.80483e-19 -4.41221e-05)
(-0.179699 -0.0182449 7.29649e-20 0.179728 6.63059e-20 -2.88632e-05)
(-0.178297 -0.0211751 -9.8191e-20 0.178379 2.75311e-20 -8.14157e-05)
(-0.175041 -0.023122 -1.19044e-20 0.175171 2.87839e-19 -0.000130477)
(-0.170461 -0.0243133 1.35738e-19 0.170638 -2.4717e-19 -0.000176457)
(-0.165143 -0.0249941 -1.21687e-19 0.165363 7.36846e-20 -0.000219685)
(-0.159257 -0.0252725 1.4169e-20 0.159517 7.07294e-20 -0.00026041)
(-0.153155 -0.0252819 -2.19567e-20 0.153454 7.87172e-20 -0.000298833)
(-0.146862 -0.0250773 5.54671e-20 0.147197 -2.88961e-20 -0.000335098)
(-0.1406 -0.0247327 1.4493e-20 0.140969 -1.03951e-19 -0.00036932)
(-0.134337 -0.0242778 -7.05775e-20 0.134739 -5.63911e-20 -0.000401571)
(-0.128218 -0.0237544 9.80263e-20 0.12865 5.26515e-20 -0.000431904)
(-0.122195 -0.0231796 7.75218e-20 0.122655 1.40926e-20 -0.000460338)
(-0.116362 -0.0225772 3.60879e-20 0.116849 -1.64391e-19 -0.000486879)
(-0.110673 -0.0219574 1.51293e-19 0.111185 1.2379e-19 -0.000511502)
(-0.105189 -0.0213338 6.92467e-20 0.105724 -6.61159e-21 -0.000534174)
(-0.0998701 -0.0207132 -1.17148e-19 0.100425 3.28321e-19 -0.000554834)
(-0.0947556 -0.0201027 1.75331e-19 0.095329 -2.05016e-19 -0.000573412)
(-0.0898132 -0.0195077 -2.27738e-19 0.090403 2.24083e-19 -0.000589814)
(-0.0850683 -0.0189312 -1.60817e-20 0.0856722 -1.37236e-19 -0.000603937)
(-0.0804969 -0.0183783 1.05784e-19 0.0811126 1.35666e-19 -0.000615657)
(-0.0761132 -0.0178487 -5.73953e-20 0.076738 -1.3665e-19 -0.000624842)
(-0.0719019 -0.0173483 6.47974e-20 0.0725332 6.63335e-21 -0.000631339)
(-0.0678684 -0.0168744 -6.51535e-20 0.0685034 2.20881e-20 -0.000634991)
(-0.0640063 -0.0164338 1.79582e-19 0.0646419 1.65396e-19 -0.000635618)
(-0.0603133 -0.0160217 -1.96747e-20 0.0609463 -1.12949e-19 -0.000633041)
(-0.0567916 -0.0156463 9.18939e-20 0.0574186 8.21203e-20 -0.000627054)
(-0.0534322 -0.0153012 -7.5886e-20 0.0540497 1.6172e-20 -0.000617452)
(-0.0502464 -0.0149954 -3.98024e-20 0.0508504 1.03691e-19 -0.000604003)
(-0.0472182 -0.0147226 -9.6265e-20 0.0478047 -1.41658e-19 -0.000586478)
(-0.0443683 -0.0144895 -1.29276e-19 0.0449329 1.08746e-19 -0.000564621)
(-0.0416741 -0.0142965 6.67792e-20 0.0422122 -1.75575e-20 -0.000538177)
(-0.0391656 -0.0141358 1.05275e-19 0.0396725 5.0197e-20 -0.000506864)
(-0.0368149 -0.0140355 -3.58338e-19 0.0372853 1.21796e-19 -0.000470403)
(-0.0346591 -0.013943 -1.2057e-22 0.0350876 -1.40722e-20 -0.000428485)
(-0.0326688 -0.0139499 2.35828e-19 0.0330496 1.1112e-19 -0.000380805)
(-0.0308831 -0.0139307 -3.50372e-19 0.0312101 4.89494e-20 -0.000327028)
(-0.0292749 -0.0140438 2.01911e-19 0.0295418 8.15391e-20 -0.000266827)
(-0.0278893 -0.0141295 -3.74949e-20 0.0280891 9.47096e-20 -0.000199849)
(-0.0266877 -0.0142875 -2.75427e-20 0.0268134 -9.78104e-20 -0.000125747)
(-0.0256759 -0.014826 -6.91884e-20 0.02572 -1.74599e-19 -4.41388e-05)
(-0.179217 -0.0236517 4.46403e-20 0.179246 -1.39514e-19 -2.879e-05)
(-0.177378 -0.0273162 2.26782e-19 0.177459 -2.3945e-19 -8.12188e-05)
(-0.173804 -0.0297374 -1.1675e-19 0.173934 -3.17888e-19 -0.000130167)
(-0.169 -0.031204 -1.4567e-19 0.169176 -3.72419e-20 -0.000176044)
(-0.163523 -0.0320262 2.66303e-19 0.163742 2.33541e-20 -0.000219177)
(-0.157529 -0.0323405 7.76243e-20 0.157789 -1.72628e-19 -0.000259817)
(-0.151356 -0.0323155 -1.82065e-20 0.151654 -1.63117e-19 -0.000298162)
(-0.14502 -0.0320205 -7.02745e-20 0.145355 9.07319e-20 -0.000334358)
(-0.138736 -0.031549 6.92525e-20 0.139104 5.21562e-20 -0.000368518)
(-0.132468 -0.0309385 -1.27068e-20 0.132868 1.17739e-19 -0.000400715)
(-0.126354 -0.0302417 1.11142e-20 0.126785 -2.00227e-19 -0.000431001)
(-0.120346 -0.0294797 -2.05265e-19 0.120806 1.2904e-19 -0.000459396)
(-0.114535 -0.0286829 8.91635e-20 0.115021 -1.32685e-19 -0.000485904)
(-0.108872 -0.0278638 8.41023e-21 0.109382 1.967e-19 -0.000510502)
(-0.103417 -0.0270397 1.21522e-19 0.10395 -1.19519e-20 -0.000533156)
(-0.0981291 -0.0262187 -3.49913e-20 0.0986829 1.88899e-19 -0.000553804)
(-0.0930472 -0.0254099 -7.21442e-20 0.0936195 -2.79314e-19 -0.000572377)
(-0.0881378 -0.0246199 1.50824e-19 0.0887266 1.05543e-19 -0.000588779)
(-0.0834259 -0.0238523 -7.17076e-20 0.0840288 5.48091e-20 -0.000602908)
(-0.0788869 -0.0231135 -5.65944e-20 0.0795015 -4.31583e-20 -0.000614638)
(-0.0745348 -0.0224031 -2.06119e-19 0.0751587 2.18627e-19 -0.000623838)
(-0.0703539 -0.0217282 1.15118e-19 0.0709842 1.8195e-19 -0.000630354)
(-0.0663495 -0.0210854 6.37134e-20 0.0669836 1.06924e-19 -0.000634029)
(-0.0625146 -0.0204831 -1.51973e-19 0.0631493 -1.83914e-19 -0.000634685)
(-0.0588473 -0.0199151 -5.84304e-20 0.0594794 2.97326e-19 -0.00063214)
(-0.0553491 -0.0193917 1.1244e-19 0.0559753 -4.58113e-20 -0.000626188)
(-0.0520112 -0.0189046 1.13148e-19 0.0526278 1.64606e-19 -0.000616624)
(-0.0488445 -0.018465 -1.91209e-19 0.0494477 5.42396e-20 -0.000603218)
(-0.0458328 -0.0180646 6.864e-20 0.0464185 3.27617e-19 -0.000585738)
(-0.0429977 -0.0177124 1.23179e-19 0.0435616 2.08539e-19 -0.000563929)
(-0.0403136 -0.0174067 -1.17396e-19 0.0408511 2.94126e-19 -0.000537536)
(-0.0378165 -0.0171421 2.32427e-19 0.0383227 -6.90861e-20 -0.000506276)
(-0.0354667 -0.0169438 -9.57794e-20 0.0359366 1.97613e-19 -0.00046987)
(-0.0333211 -0.016765 -9.58916e-20 0.0337491 1.22718e-19 -0.000428009)
(-0.0313186 -0.0166859 1.857e-19 0.031699 3.09088e-19 -0.000380389)
(-0.0295437 -0.0166034 -9.05938e-20 0.0298703 -7.06297e-20 -0.000326675)
(-0.027909 -0.0166382 6.41843e-20 0.0281756 1.81415e-20 -0.000266541)
(-0.0265306 -0.0166859 -2.0685e-19 0.0267302 7.76103e-20 -0.000199633)
(-0.0252984 -0.0167805 -3.72139e-19 0.025424 -4.75751e-20 -0.000125608)
(-0.0242589 -0.0172849 1.28937e-19 0.0243029 1.41542e-19 -4.40843e-05)
(-0.178603 -0.029063 2.56674e-20 0.178632 7.28261e-20 -2.86963e-05)
(-0.176228 -0.0334091 -2.17436e-19 0.176309 3.26201e-19 -8.09475e-05)
(-0.172266 -0.0362665 1.73641e-19 0.172395 -5.45035e-20 -0.000129731)
(-0.167188 -0.0379806 2.14409e-19 0.167363 3.68088e-19 -0.000175457)
(-0.161517 -0.038924 -1.99829e-19 0.161735 -8.29573e-21 -0.000218452)
(-0.155392 -0.0392596 -5.72398e-20 0.155651 -8.22507e-20 -0.000258964)
(-0.149133 -0.0391901 1.37744e-19 0.14943 1.17513e-19 -0.000297192)
(-0.142746 -0.0387977 2.11025e-19 0.143079 -9.56857e-20 -0.000333282)
(-0.136436 -0.038195 4.41842e-20 0.136804 -1.08014e-19 -0.000367345)
(-0.130163 -0.0374262 -2.61676e-19 0.130562 1.40484e-19 -0.000399454)
(-0.124058 -0.0365547 8.6647e-20 0.124488 2.28865e-19 -0.000429663)
(-0.11807 -0.0356057 1.10671e-19 0.118528 1.12586e-19 -0.000457989)
(-0.112287 -0.0346153 3.54737e-20 0.112771 8.66929e-21 -0.000484439)
(-0.106658 -0.0335983 3.04834e-19 0.107167 -2.10452e-19 -0.000508987)
(-0.101241 -0.0325754 7.66495e-20 0.101773 3.43693e-20 -0.000531601)
(-0.0959932 -0.0315561 -2.39208e-19 0.0965454 -9.59432e-20 -0.000552217)
(-0.0909533 -0.0305514 9.70276e-21 0.0915241 1.96954e-19 -0.000570767)
(-0.0860863 -0.0295689 5.09995e-20 0.0866735 1.93417e-19 -0.000587154)
(-0.0814172 -0.0286128 -1.1755e-19 0.0820185 5.74417e-20 -0.000601276)
(-0.07692 -0.0276907 2.45573e-19 0.077533 2.28314e-19 -0.000613006)
(-0.0726092 -0.0268018 1.07536e-19 0.0732314 2.256e-19 -0.000622214)
(-0.0684677 -0.0259549 -6.82078e-20 0.0690964 1.90763e-19 -0.000628745)
(-0.0645016 -0.0251453 -3.2201e-19 0.0651341 -1.8282e-19 -0.000632442)
(-0.0607026 -0.0243835 3.37448e-19 0.0613357 2.49194e-19 -0.000633127)
(-0.0570695 -0.0236615 9.68449e-20 0.0577001 8.53279e-20 -0.000630618)
(-0.0536027 -0.0229921 -9.6432e-20 0.0542274 3.04595e-19 -0.000624709)
(-0.0502942 -0.0223642 1.15225e-19 0.0509094 -1.22915e-19 -0.000615195)
(-0.0471539 -0.0217929 1.44737e-19 0.0477557 1.33757e-19 -0.000601846)
(-0.0441657 -0.0212656 5.33153e-20 0.0447501 -9.28435e-20 -0.00058443)
(-0.0413515 -0.0207966 -6.52574e-20 0.0419142 -1.02748e-19 -0.000562692)
(-0.0386833 -0.0203783 -1.13751e-19 0.0392197 -5.6564e-19 -0.000536376)
(-0.0362024 -0.0200125 -2.65059e-20 0.0367076 2.06292e-20 -0.000505201)
(-0.0338578 -0.0197163 -5.59733e-21 0.0343267 -3.20516e-19 -0.000468888)
(-0.0317256 -0.0194515 1.02425e-19 0.0321528 6.55466e-20 -0.000427128)
(-0.0297143 -0.0192905 1.51194e-19 0.0300939 -3.09805e-19 -0.000379616)
(-0.0279503 -0.0191349 -6.37901e-19 0.0282764 -1.50919e-19 -0.000326021)
(-0.0262953 -0.0191062 4.23252e-19 0.0265613 -1.77758e-19 -0.000266015)
(-0.0249185 -0.0190942 -3.1862e-20 0.0251178 -5.26744e-20 -0.000199248)
(-0.0236679 -0.0191427 4.05935e-20 0.0237933 -5.00676e-19 -0.000125373)
(-0.0225935 -0.0196053 -2.67795e-19 0.0226375 9.36638e-20 -4.40087e-05)
(-0.177854 -0.0344773 2.05679e-19 0.177882 -1.09143e-19 -2.85622e-05)
(-0.17485 -0.0394436 1.33592e-19 0.17493 4.56945e-20 -8.05784e-05)
(-0.170432 -0.042691 -1.87945e-19 0.170561 -1.62926e-20 -0.000129145)
(-0.165034 -0.0446195 2.73455e-21 0.165209 -3.12662e-19 -0.000174671)
(-0.159136 -0.0456595 1.45479e-20 0.159354 1.3348e-19 -0.00021748)
(-0.152859 -0.0459991 -3.7293e-21 0.153117 4.45571e-19 -0.000257821)
(-0.1465 -0.0458726 -6.952e-20 0.146796 1.60891e-20 -0.000295891)
(-0.140056 -0.0453746 -2.31187e-19 0.140388 1.47907e-19 -0.000331834)
(-0.133718 -0.0446352 2.95209e-19 0.134084 -1.51915e-20 -0.000365763)
(-0.12744 -0.0437052 2.28543e-19 0.127838 1.03391e-19 -0.000397751)
(-0.121348 -0.0426578 -5.58963e-20 0.121776 -5.57523e-21 -0.000427849)
(-0.115385 -0.0415216 -3.66394e-19 0.115841 1.68711e-19 -0.000456076)
(-0.109637 -0.0403387 -1.87298e-19 0.110119 -4.75138e-22 -0.000482438)
(-0.104049 -0.0391255 -4.2387e-20 0.104556 3.19199e-19 -0.000506911)
(-0.0986783 -0.0379062 3.41697e-19 0.0992077 -1.7168e-19 -0.00052946)
(-0.0934797 -0.0366914 1.1499e-19 0.0940297 -9.85423e-21 -0.000550023)
(-0.088491 -0.0354936 1.081e-19 0.0890595 8.97711e-21 -0.000568529)
(-0.0836757 -0.0343217 8.61985e-20 0.0842606 -1.93442e-20 -0.000584884)
(-0.0790587 -0.0331802 -2.52772e-20 0.0796577 -1.31975e-19 -0.000598984)
(-0.0746126 -0.0320779 1.15676e-19 0.0752233 -2.20897e-19 -0.000610702)
(-0.0703522 -0.0310139 -1.22484e-19 0.0709721 -9.54029e-22 -0.000619908)
(-0.066259 -0.0299979 -5.98111e-20 0.0668854 -3.36486e-19 -0.000626447)
(-0.0623398 -0.0290247 -7.52431e-21 0.06297 2.04509e-19 -0.000630164)
(-0.058585 -0.0281062 5.18172e-20 0.0592158 -1.36747e-19 -0.000630877)
(-0.0549942 -0.027233 1.59608e-19 0.0556226 -1.17737e-19 -0.000628407)
(-0.0515664 -0.0264199 -3.31176e-20 0.052189 -7.07832e-20 -0.000622547)
(-0.0482948 -0.0256538 -9.63579e-20 0.0489079 -1.12017e-20 -0.000613094)
(-0.0451875 -0.0249526 -3.05623e-20 0.0457873 -3.28971e-19 -0.000599815)
(-0.0422297 -0.0243004 -2.08877e-19 0.0428121 6.41995e-19 -0.000582482)
(-0.0394423 -0.0237161 -2.69561e-19 0.0400032 -5.19569e-20 -0.000560837)
(-0.0367966 -0.0231861 -1.10271e-19 0.0373312 3.64192e-19 -0.000534627)
(-0.0343368 -0.0227216 4.40119e-19 0.0348403 1.42056e-19 -0.00050357)
(-0.0320038 -0.0223253 -3.08928e-20 0.0324712 -1.9655e-19 -0.000467387)
(-0.0298886 -0.0219825 -1.28945e-19 0.0303143 2.41774e-19 -0.000425771)
(-0.0278731 -0.0217297 1.39768e-19 0.0282515 -1.67392e-19 -0.000378418)
(-0.0261241 -0.0215221 -2.79954e-20 0.0264491 -4.26768e-20 -0.000324996)
(-0.0244447 -0.0214079 1.76976e-20 0.0247099 2.08947e-20 -0.000265181)
(-0.0230784 -0.0213684 -5.08409e-19 0.023277 -9.9011e-20 -0.000198623)
(-0.0217915 -0.0213498 -2.46672e-19 0.0219165 -1.47264e-19 -0.000124977)
(-0.0206941 -0.0217822 2.85691e-19 0.020738 6.08653e-19 -4.38645e-05)
(-0.176967 -0.0398955 9.50232e-20 0.176995 1.4933e-19 -2.84072e-05)
(-0.173248 -0.0454094 -2.78472e-20 0.173328 -6.58001e-20 -8.01345e-05)
(-0.168313 -0.0489937 -1.87139e-20 0.168441 1.13478e-19 -0.000128433)
(-0.162551 -0.051098 1.47918e-19 0.162725 7.38163e-19 -0.00017371)
(-0.156398 -0.0522066 2.42949e-19 0.156614 6.9541e-20 -0.000216289)
(-0.149949 -0.0525302 8.7684e-21 0.150205 -4.33959e-19 -0.000256416)
(-0.143478 -0.0523327 1.35006e-20 0.143773 -6.78973e-20 -0.000294287)
(-0.13697 -0.0517197 1.73666e-19 0.1373 -1.50845e-19 -0.000330047)
(-0.130602 -0.0508376 -7.4569e-20 0.130966 -3.11883e-20 -0.000363807)
(-0.12432 -0.0497428 -1.31825e-19 0.124716 -1.48407e-19 -0.00039564)
(-0.118244 -0.0485182 2.95067e-19 0.11867 -1.16908e-19 -0.000425596)
(-0.112312 -0.047195 2.3931e-19 0.112766 -2.48222e-19 -0.000453696)
(-0.106605 -0.0458208 7.2759e-20 0.107085 1.05279e-19 -0.000479944)
(-0.101066 -0.0444136 7.98589e-20 0.10157 -3.03116e-20 -0.000504316)
(-0.0957497 -0.0430006 -1.39269e-19 0.0962764 -3.77865e-19 -0.000526777)
(-0.0906088 -0.0415934 -1.10982e-19 0.091156 8.43597e-20 -0.000547266)
(-0.0856802 -0.0402062 1.24877e-19 0.0862459 -3.15949e-19 -0.000565711)
(-0.0809257 -0.0388484 -2.77071e-20 0.0815077 5.40037e-20 -0.000582018)
(-0.0763698 -0.0375254 -1.92285e-19 0.0769659 -4.83067e-19 -0.000596082)
(-0.0719837 -0.0362468 3.74795e-19 0.0725915 7.80284e-20 -0.000607778)
(-0.0677826 -0.0350112 1.0567e-19 0.0683995 -9.78164e-20 -0.000616975)
(-0.0637463 -0.0338299 7.83118e-20 0.0643698 6.64464e-20 -0.000623518)
(-0.0598827 -0.0326965 -2.03239e-19 0.0605099 1.60021e-19 -0.00062725)
(-0.0561801 -0.0316246 3.04732e-20 0.0568081 8.25546e-20 -0.000627994)
(-0.0526397 -0.0306033 1.34383e-19 0.0532653 1.37669e-19 -0.000625566)
(-0.0492585 -0.0296496 2.01008e-19 0.0498783 -3.10419e-19 -0.000619764)
(-0.046031 -0.0287478 -2.67031e-19 0.0466414 2.4038e-19 -0.000610382)
(-0.0429636 -0.0279195 9.49603e-19 0.0435608 -5.57282e-19 -0.00059719)
(-0.0400427 -0.0271444 3.22793e-19 0.0406227 4.90372e-19 -0.000579957)
(-0.0372879 -0.0264476 -2.36903e-19 0.0378464 -5.78347e-19 -0.00055843)
(-0.0346704 -0.0258069 -2.61575e-19 0.0352027 4.91524e-19 -0.000532353)
(-0.0322354 -0.0252464 -6.01712e-19 0.0327368 -4.97272e-20 -0.000501447)
(-0.0299194 -0.0247505 9.38617e-20 0.0303848 1.92419e-19 -0.000465432)
(-0.0278218 -0.0243305 9.7253e-20 0.0282458 2.85836e-19 -0.000424003)
(-0.0258095 -0.0239886 -3.10756e-19 0.0261864 1.46712e-19 -0.000376858)
(-0.0240699 -0.023723 -4.38969e-19 0.0243936 2.19298e-20 -0.000323665)
(-0.0223812 -0.0235346 4.0282e-19 0.0226453 2.94304e-19 -0.000264103)
(-0.0210104 -0.0234531 -2.39057e-19 0.0212082 2.85751e-19 -0.000197822)
(-0.0197111 -0.0233858 6.82664e-19 0.0198356 -1.89841e-19 -0.00012448)
(-0.0185696 -0.0237816 -5.49161e-19 0.0186133 1.00361e-19 -4.36961e-05)
(-0.175939 -0.0453154 1.19954e-19 0.175967 -1.12636e-19 -2.82122e-05)
(-0.171426 -0.0512966 1.4315e-19 0.171506 -8.93163e-20 -7.95932e-05)
(-0.165918 -0.0551581 2.35252e-19 0.166046 -8.3429e-20 -0.000127571)
(-0.159755 -0.0573949 1.24047e-19 0.159927 -7.33778e-19 -0.00017255)
(-0.153318 -0.0585404 -4.85121e-19 0.153533 -5.08382e-19 -0.000214852)
(-0.146681 -0.0588256 -2.92629e-20 0.146935 1.60913e-19 -0.00025472)
(-0.140088 -0.0585411 2.33923e-20 0.14038 2.39808e-19 -0.000292352)
(-0.13351 -0.0578023 -1.66807e-19 0.133838 1.78973e-20 -0.000327889)
(-0.127111 -0.0567708 2.55232e-19 0.127472 3.37042e-19 -0.000361443)
(-0.120827 -0.0555075 2.64702e-19 0.12122 -4.73827e-19 -0.000393085)
(-0.11477 -0.0541041 -3.11389e-19 0.115193 3.15266e-19 -0.000422867)
(-0.108874 -0.0525941 -6.46352e-20 0.109325 -2.95774e-19 -0.000450809)
(-0.103215 -0.0510301 -2.26627e-21 0.103692 7.88172e-20 -0.000476913)
(-0.0977323 -0.0494313 -2.7865e-19 0.0982335 -9.26094e-20 -0.000501158)
(-0.0924787 -0.0478278 3.29637e-19 0.0930022 2.51067e-19 -0.000523506)
(-0.0874038 -0.0462319 1.8438e-19 0.0879477 -2.20535e-19 -0.000543898)
(-0.082544 -0.0446593 -9.58225e-20 0.0831062 4.47627e-19 -0.000562263)
(-0.0778587 -0.0431199 8.42084e-20 0.0784372 -2.61821e-19 -0.000578503)
(-0.0733728 -0.0416198 -2.60669e-19 0.0739653 2.60838e-19 -0.000592518)
(-0.0690551 -0.040169 3.27749e-19 0.0696593 -1.82492e-20 -0.000604179)
(-0.0649217 -0.0387664 -4.43956e-20 0.065535 -1.9748e-19 -0.000613357)
(-0.0609505 -0.0374239 1.77624e-19 0.0615704 -7.19575e-20 -0.000619897)
(-0.0571503 -0.0361344 1.28804e-19 0.057774 -1.52818e-19 -0.000623642)
(-0.0535077 -0.034913 -5.46896e-20 0.0541321 -3.0598e-20 -0.000624415)
(-0.0500251 -0.0337472 -3.53689e-19 0.0506471 1.91347e-19 -0.000622034)
(-0.0466973 -0.0326562 2.52447e-19 0.0473136 -5.41231e-19 -0.000616296)
(-0.0435208 -0.0316221 -5.88703e-19 0.0441278 1.41584e-19 -0.000606995)
(-0.0404994 -0.0306693 -1.17954e-19 0.0410933 1.96349e-19 -0.000593903)
(-0.037622 -0.0297739 2.47692e-19 0.0381988 3.64423e-20 -0.00057679)
(-0.0349046 -0.0289668 -1.05588e-19 0.03546 -2.74306e-19 -0.000555403)
(-0.0323221 -0.0282175 6.48234e-19 0.0328516 1.82829e-19 -0.000529487)
(-0.0299151 -0.0275633 1.81622e-19 0.0304138 -2.67307e-19 -0.000498764)
(-0.027624 -0.0269685 -3.60905e-20 0.0280869 6.11339e-19 -0.000462956)
(-0.0255444 -0.0264763 2.77526e-19 0.0259661 -7.59861e-19 -0.000421758)
(-0.0235436 -0.0260423 -1.60937e-19 0.0239185 5.58612e-19 -0.00037487)
(-0.0218127 -0.0257308 3.94059e-20 0.0221347 -1.86027e-19 -0.000321962)
(-0.0201172 -0.0254572 2.36664e-19 0.0203799 5.05749e-19 -0.000262715)
(-0.0187474 -0.0253536 -9.40542e-19 0.0189442 -3.49942e-19 -0.000196781)
(-0.0174235 -0.0252213 -3.98784e-19 0.0175473 1.50756e-19 -0.000123821)
(-0.0162608 -0.0255932 5.13192e-19 0.0163042 3.93728e-19 -4.34603e-05)
(-0.174766 -0.0507374 -9.38156e-20 0.174794 6.80871e-19 -2.79959e-05)
(-0.169391 -0.0570959 -1.53402e-19 0.16947 3.16812e-19 -7.89766e-05)
(-0.163259 -0.0611687 -3.64988e-19 0.163386 1.01939e-19 -0.000126583)
(-0.15666 -0.0634905 1.03262e-20 0.156831 5.38507e-19 -0.000171215)
(-0.149917 -0.0646381 5.79781e-19 0.15013 6.84169e-19 -0.000213194)
(-0.143076 -0.0648601 2.04393e-19 0.143329 2.69266e-19 -0.000252763)
(-0.136353 -0.0644714 -2.94094e-20 0.136643 -9.98997e-20 -0.000290114)
(-0.129701 -0.0635952 2.55681e-19 0.130027 -2.96501e-19 -0.000325391)
(-0.12327 -0.0624069 -4.04638e-19 0.123629 -2.829e-19 -0.000358703)
(-0.116987 -0.0609711 -1.86153e-19 0.117377 2.35586e-19 -0.000390122)
(-0.110954 -0.0593873 3.39471e-19 0.111374 5.01325e-19 -0.000419698)
(-0.105099 -0.0576908 -2.03781e-19 0.105547 4.48199e-19 -0.000447452)
(-0.0994942 -0.0559388 2.11388e-19 0.0999675 3.01765e-19 -0.000473386)
(-0.0940748 -0.0541513 4.32613e-20 0.0945723 3.08695e-19 -0.000497477)
(-0.0888914 -0.0523609 -4.48069e-19 0.0894111 5.95693e-20 -0.000519691)
(-0.0838906 -0.0505804 1.58062e-19 0.0844305 -5.77933e-20 -0.000539966)
(-0.0791076 -0.048827 6.82966e-20 0.0796659 -1.10421e-20 -0.00055823)
(-0.0745 -0.0471108 -1.00489e-19 0.0750743 -2.5371e-19 -0.000574389)
(-0.0700921 -0.0454385 -7.58869e-20 0.0706804 -2.49309e-19 -0.00058834)
(-0.0658511 -0.0438206 -2.00079e-19 0.066451 4.17878e-19 -0.000599955)
(-0.0617935 -0.0422557 5.44118e-20 0.0624026 5.93384e-22 -0.000609106)
(-0.0578951 -0.0407568 -3.83829e-20 0.0585108 3.81643e-19 -0.000615637)
(-0.0541662 -0.0393159 -4.58211e-20 0.0547856 -1.11907e-19 -0.000619393)
(-0.0505907 -0.0379494 4.90341e-19 0.0512109 1.30386e-19 -0.000620196)
(-0.0471731 -0.0366435 -4.58889e-19 0.047791 2.37383e-19 -0.000617866)
(-0.0439055 -0.0354192 9.67243e-20 0.0445177 -1.03651e-19 -0.000612198)
(-0.0407868 -0.0342564 4.57746e-19 0.0413898 5.92196e-19 -0.00060299)
(-0.0378174 -0.0331827 5.12418e-19 0.0384074 1.79988e-19 -0.000590013)
(-0.0349894 -0.0321701 -1.53408e-19 0.0355625 4.14044e-19 -0.000573039)
(-0.0323146 -0.0312555 -5.12238e-19 0.0328664 4.84724e-19 -0.000551815)
(-0.0297724 -0.0304002 -2.26333e-19 0.0302985 6.69841e-20 -0.000526089)
(-0.027397 -0.0296542 4.42949e-20 0.0278926 -1.56054e-20 -0.000495582)
(-0.0251363 -0.0289631 -3.04753e-19 0.0255963 -2.22371e-20 -0.000460018)
(-0.0230754 -0.0283983 1.16942e-19 0.0234945 -2.09953e-19 -0.000419095)
(-0.0210942 -0.0278766 4.31995e-19 0.0214667 2.86249e-19 -0.000372513)
(-0.0193675 -0.0275137 -4.63996e-19 0.0196875 -3.50798e-19 -0.000319946)
(-0.0176794 -0.0271654 7.33453e-19 0.0179405 3.48549e-20 -0.000261076)
(-0.0162982 -0.0270274 -2.69202e-19 0.0164938 -1.31996e-19 -0.00019556)
(-0.0149704 -0.026847 1.05721e-18 0.0150934 5.41719e-19 -0.000123059)
(-0.0137643 -0.0271806 -6.46709e-19 0.0138075 -3.40364e-19 -4.31978e-05)
(-0.173446 -0.056158 6.23724e-20 0.173474 -4.4784e-19 -2.77401e-05)
(-0.167147 -0.0627981 5.99368e-21 0.167225 -5.42101e-19 -7.82635e-05)
(-0.16035 -0.067011 2.14304e-19 0.160475 1.83473e-19 -0.000125445)
(-0.153285 -0.0693662 1.17262e-19 0.153455 -5.44551e-20 -0.000169682)
(-0.146216 -0.0704782 -7.73902e-19 0.146428 -1.26148e-19 -0.000211292)
(-0.13916 -0.0706105 -2.5762e-20 0.139411 -8.58035e-19 -0.000250516)
(-0.132299 -0.0700987 -2.79557e-19 0.132587 -4.73673e-20 -0.000287546)
(-0.125572 -0.0690726 -1.2898e-19 0.125894 -2.82679e-19 -0.000322523)
(-0.119109 -0.0677196 5.64118e-19 0.119464 6.02252e-19 -0.000355556)
(-0.112828 -0.0661069 5.7209e-19 0.113215 -2.75737e-20 -0.000386716)
(-0.106823 -0.0643412 -3.19651e-20 0.107239 -4.44762e-20 -0.000416054)