/*--------------------------------*- C++ -*----------------------------------*\
| =========                 |                                                 |
| \\      /  F ield         | foam-extend: Open Source CFD                    |
|  \\    /   O peration     | Version:  3.0                                   |
|   \\  /    A nd           | Web:         http://www.extend-project.de       |
|    \\/     M anipulation  |                                                 |
\*---------------------------------------------------------------------------*/
FoamFile
{
    version     2.0;
    format      ascii;
    class       volSymmTensorField;
    location    "20";
    object      sigma;
}
// * * * * * * * * * * * * * * * * * * * * * * * * * * * * * * * * * * * * * //

dimensions      [0 0 0 0 0 0 0];

internalField   nonuniform List<symmTensor> 
7680
(
(-0.179775 -0.00289045 -7.83989e-21 0.179777 2.44207e-20 -2.24304e-06)
(-0.179026 -0.00326868 2.39135e-20 0.179032 1.31853e-19 -6.31653e-06)
(-0.176265 -0.00350741 5.15172e-21 0.176275 -1.76302e-20 -1.01206e-05)
(-0.172053 -0.00364359 -2.21522e-21 0.172067 4.13609e-20 -1.36992e-05)
(-0.166985 -0.00370663 7.8614e-21 0.167002 1.89924e-20 -1.70875e-05)
(-0.161307 -0.00371621 -3.28373e-21 0.161327 1.9582e-20 -2.03121e-05)
(-0.155321 -0.00368693 1.71642e-20 0.155345 -1.10162e-20 -2.3394e-05)
(-0.149139 -0.00362942 8.3715e-21 0.149165 -3.15982e-20 -2.63486e-05)
(-0.14292 -0.00355164 7.7845e-21 0.142949 -3.57373e-20 -2.91871e-05)
(-0.136708 -0.00345918 7.57467e-21 0.13674 -2.47685e-20 -3.19164e-05)
(-0.130591 -0.00335667 -1.95712e-20 0.130626 -5.67776e-20 -3.45405e-05)
(-0.124582 -0.00324709 1.70745e-20 0.12462 1.37987e-20 -3.70603e-05)
(-0.11873 -0.00313311 9.6467e-21 0.11877 -6.45951e-20 -3.94745e-05)
(-0.113032 -0.0030164 -2.1858e-20 0.113074 7.7508e-21 -4.17794e-05)
(-0.107516 -0.00289848 -2.82329e-20 0.10756 2.27554e-20 -4.39698e-05)
(-0.102175 -0.00278032 5.95063e-21 0.102221 4.55634e-20 -4.60384e-05)
(-0.0970219 -0.00266272 -7.06569e-21 0.0970699 -3.83941e-20 -4.79763e-05)
(-0.092049 -0.00254632 -1.57017e-20 0.0920987 1.16493e-19 -4.97729e-05)
(-0.0872634 -0.00243144 2.71955e-20 0.0873148 -4.21766e-20 -5.14161e-05)
(-0.0826571 -0.00231859 -1.47003e-20 0.0827099 1.02858e-19 -5.28917e-05)
(-0.0782326 -0.00220776 -3.16077e-20 0.0782868 -1.35724e-20 -5.41839e-05)
(-0.0739844 -0.00209942 -2.93089e-20 0.0740397 8.18999e-20 -5.52744e-05)
(-0.0699119 -0.00199335 -4.71676e-20 0.069968 -9.07688e-22 -5.61432e-05)
(-0.0660125 -0.00189002 -1.14305e-20 0.0660692 1.29895e-19 -5.67677e-05)
(-0.0622832 -0.00178906 -2.01114e-20 0.0623403 -2.98037e-20 -5.7123e-05)
(-0.0587252 -0.00169098 -5.3564e-20 0.0587824 1.00229e-19 -5.71813e-05)
(-0.0553335 -0.00159532 -8.25281e-21 0.0553904 5.96545e-20 -5.69129e-05)
(-0.052113 -0.00150263 -1.84566e-21 0.0521693 8.66729e-20 -5.62845e-05)
(-0.0490573 -0.00141234 1.73259e-21 0.0491125 3.35565e-20 -5.52609e-05)
(-0.0461753 -0.00132515 -4.00393e-20 0.0462291 2.14933e-20 -5.38033e-05)
(-0.043459 -0.00124026 -2.12789e-20 0.0435109 -1.03853e-20 -5.18708e-05)
(-0.0409222 -0.00115877 -1.70593e-20 0.0409716 -1.87167e-20 -4.9419e-05)
(-0.0385539 -0.00107927 2.50584e-21 0.0386003 -1.88842e-20 -4.64011e-05)
(-0.0363758 -0.0010038 -2.72305e-20 0.0364185 -1.83141e-20 -4.27664e-05)
(-0.0343689 -0.000929659 -1.55792e-20 0.0344074 -3.01036e-21 -3.8462e-05)
(-0.0325715 -0.000861261 -5.11554e-20 0.0326049 4.64991e-21 -3.343e-05)
(-0.0309451 -0.000790122 -1.22347e-20 0.0309727 -8.9617e-20 -2.7611e-05)
(-0.0295573 -0.000732218 5.41622e-21 0.0295782 8.81499e-21 -2.09393e-05)
(-0.028341 -0.00068154 -2.44151e-20 0.0283544 -4.02466e-20 -1.33476e-05)
(-0.0273951 -0.000526935 -1.28368e-20 0.0273999 -8.37197e-20 -4.76199e-06)
(-0.179632 -0.00828885 2.30708e-20 0.179634 -2.03902e-20 -2.24138e-06)
(-0.178775 -0.00948596 -1.50533e-20 0.178781 5.4949e-20 -6.3121e-06)
(-0.175937 -0.0102578 -2.95105e-20 0.175947 -4.42802e-20 -1.01137e-05)
(-0.171671 -0.0107167 2.62915e-20 0.171685 -8.75515e-21 -1.369e-05)
(-0.166566 -0.0109518 6.07292e-21 0.166583 -5.34084e-20 -1.70761e-05)
(-0.160862 -0.0110228 -1.20323e-20 0.160882 4.97921e-20 -2.02985e-05)
(-0.154861 -0.0109747 -2.05368e-20 0.154884 3.17452e-20 -2.33785e-05)
(-0.14867 -0.0108397 -2.13904e-20 0.148696 2.05452e-20 -2.63313e-05)
(-0.142448 -0.0106422 -1.54544e-21 0.142477 1.28675e-19 -2.91679e-05)
(-0.136237 -0.0103995 1.44414e-20 0.136269 9.88706e-20 -3.18954e-05)
(-0.130124 -0.0101258 3.17275e-20 0.130159 -1.66017e-20 -3.45177e-05)
(-0.124121 -0.00983033 -2.31147e-21 0.124158 4.77811e-20 -3.70357e-05)
(-0.118277 -0.00952147 7.03654e-21 0.118316 -3.41012e-20 -3.94481e-05)
(-0.112588 -0.00920441 4.18108e-20 0.112629 3.35895e-20 -4.17513e-05)
(-0.107082 -0.00888391 1.84614e-20 0.107126 -9.24969e-20 -4.394e-05)
(-0.10175 -0.00856312 -5.25651e-20 0.101796 -4.36082e-20 -4.60068e-05)
(-0.0966085 -0.0082446 5.06893e-20 0.0966565 4.00623e-20 -4.79431e-05)
(-0.0916466 -0.00793043 -5.01825e-21 0.0916964 -6.3273e-20 -4.97382e-05)
(-0.0868722 -0.00762177 -1.89326e-20 0.0869236 1.14075e-19 -5.138e-05)
(-0.082277 -0.00732023 2.42138e-22 0.0823299 -4.38354e-20 -5.28543e-05)
(-0.0778636 -0.00702601 -5.72968e-20 0.0779177 2.9571e-20 -5.41453e-05)
(-0.0736262 -0.00674058 7.50966e-21 0.0736815 -6.59921e-20 -5.52348e-05)
(-0.0695643 -0.00646349 1.27995e-20 0.0696204 6.23864e-20 -5.61028e-05)
(-0.0656752 -0.00619623 -3.04559e-20 0.065732 -1.12949e-19 -5.67264e-05)
(-0.061956 -0.00593791 -7.34428e-20 0.0620131 1.92157e-20 -5.70811e-05)
(-0.0584077 -0.00569012 5.11775e-20 0.0584648 -5.388e-20 -5.71389e-05)
(-0.0550253 -0.00545165 -2.73931e-20 0.0550822 3.90514e-20 -5.68702e-05)
(-0.0518138 -0.0052243 -2.19064e-20 0.05187 -2.11987e-20 -5.62416e-05)
(-0.0487667 -0.00500653 -6.78191e-20 0.0488219 -1.48287e-20 -5.52182e-05)
(-0.0458928 -0.00480054 -4.78949e-20 0.0459466 3.67278e-20 -5.3761e-05)
(-0.0431843 -0.00460423 -4.64019e-20 0.0432361 1.63394e-20 -5.18296e-05)
(-0.0406546 -0.0044208 -4.02919e-20 0.040704 9.74198e-21 -4.9379e-05)
(-0.0382932 -0.00424656 2.31627e-20 0.0383396 1.11468e-20 -4.63631e-05)
(-0.0361212 -0.00408751 2.25143e-20 0.036164 -6.33251e-20 -4.27308e-05)
(-0.0341204 -0.00393576 -9.14724e-21 0.0341588 3.83881e-20 -3.84297e-05)
(-0.0323279 -0.00380401 -1.16983e-19 0.0323613 -5.97324e-21 -3.34017e-05)
(-0.0307067 -0.00367362 -7.24455e-20 0.0307343 1.37792e-21 -2.75877e-05)
(-0.0293224 -0.00357323 4.08138e-20 0.0293433 2.71232e-20 -2.09216e-05)
(-0.0281092 -0.00348563 -1.40008e-19 0.0281225 -2.66969e-20 -1.33366e-05)
(-0.0271727 -0.00330811 4.47615e-20 0.0271774 3.60401e-20 -4.75834e-06)
(-0.179359 -0.013687 3.87447e-20 0.179361 1.25993e-21 -2.23996e-06)
(-0.178286 -0.0156855 2.08226e-20 0.178292 8.02785e-20 -6.30865e-06)
(-0.175292 -0.0169776 -7.5861e-21 0.175303 -1.38249e-19 -1.01082e-05)
(-0.170917 -0.01775 -1.28198e-20 0.17093 1.4761e-19 -1.36824e-05)
(-0.165735 -0.0181503 5.58767e-20 0.165752 -8.28505e-20 -1.70662e-05)
(-0.15998 -0.0182781 5.91984e-20 0.160001 -2.27208e-20 -2.02861e-05)
(-0.153947 -0.0182079 1.12466e-20 0.153971 -6.72379e-20 -2.33632e-05)
(-0.147738 -0.0179931 7.61521e-20 0.147765 -9.55058e-21 -2.63127e-05)
(-0.141508 -0.0176746 7.16824e-20 0.141538 2.39832e-20 -2.91459e-05)
(-0.135298 -0.0172809 -8.35872e-20 0.13533 -2.97543e-20 -3.18696e-05)
(-0.129192 -0.0168358 -4.59034e-20 0.129227 -1.07975e-19 -3.44879e-05)
(-0.1232 -0.0163547 1.90054e-21 0.123237 3.34445e-20 -3.70017e-05)
(-0.11737 -0.0158514 3.81605e-21 0.11741 -2.19723e-20 -3.94099e-05)
(-0.111698 -0.0153346 -6.62201e-20 0.11174 4.17597e-21 -4.17087e-05)
(-0.106211 -0.0148124 -9.70473e-20 0.106255 1.08829e-19 -4.38931e-05)
(-0.100899 -0.0142899 1.0533e-19 0.100945 4.72285e-20 -4.59557e-05)
(-0.0957781 -0.0137715 -1.81543e-20 0.095826 1.05711e-19 -4.78879e-05)
(-0.0908371 -0.0132606 3.67583e-20 0.0908868 1.07667e-19 -4.96791e-05)
(-0.0860839 -0.0127593 7.34736e-20 0.0861352 -1.09259e-19 -5.13171e-05)
(-0.0815096 -0.0122702 -9.79079e-20 0.0815624 8.71006e-20 -5.27878e-05)
(-0.077117 -0.0117937 -4.26212e-20 0.0771711 -1.60679e-20 -5.40754e-05)
(-0.0729 -0.0113323 -1.42291e-20 0.0729551 9.97607e-20 -5.51618e-05)
(-0.0688579 -0.0108853 -7.666e-20 0.068914 -1.86176e-20 -5.60268e-05)
(-0.0649881 -0.0104551 -5.94889e-20 0.0650448 5.18792e-20 -5.66478e-05)
(-0.0612875 -0.0100405 2.96494e-20 0.0613445 1.55422e-19 -5.7e-05)
(-0.057757 -0.00964394 -3.78355e-20 0.0578141 1.0643e-19 -5.70558e-05)
(-0.0543918 -0.00926361 3.71143e-20 0.0544486 1.27656e-19 -5.67855e-05)
(-0.0511965 -0.00890248 -4.97151e-20 0.0512526 4.85287e-20 -5.61558e-05)
(-0.0481648 -0.00855808 6.41457e-20 0.0482199 7.40798e-20 -5.5132e-05)
(-0.0453053 -0.00823406 -1.0647e-21 0.045359 7.19659e-21 -5.36752e-05)
(-0.0426103 -0.00792707 -3.9533e-20 0.0426621 -9.22716e-21 -5.17449e-05)
(-0.0400931 -0.00764236 -2.65906e-20 0.0401424 1.04223e-19 -4.92967e-05)
(-0.0377433 -0.00737399 -9.3575e-20 0.0377896 1.10302e-19 -4.62844e-05)
(-0.0355814 -0.00713188 1.31185e-20 0.035624 -2.74566e-19 -4.2657e-05)
(-0.0335903 -0.00690302 3.49866e-20 0.0336286 1.6233e-19 -3.83623e-05)
(-0.0318052 -0.00670828 -8.55928e-20 0.0318385 -1.07333e-19 -3.33424e-05)
(-0.0301918 -0.00651903 4.17641e-21 0.0302193 -4.06644e-21 -2.75381e-05)
(-0.0288121 -0.00637633 -4.1629e-20 0.028833 7.82991e-20 -2.08836e-05)
(-0.0276028 -0.00625196 -2.7874e-20 0.0276161 -2.59237e-20 -1.33122e-05)
(-0.0266756 -0.00605205 -4.13322e-20 0.0266804 1.01438e-19 -4.74948e-06)
(-0.178956 -0.0190851 7.01532e-20 0.178958 1.23151e-20 -2.23627e-06)
(-0.177559 -0.0218559 -6.32155e-20 0.177565 -1.42183e-20 -6.29856e-06)
(-0.174334 -0.0236472 -1.62982e-20 0.174344 2.21137e-19 -1.00921e-05)
(-0.169794 -0.0247176 1.04362e-19 0.169808 -2.79006e-19 -1.36605e-05)
(-0.1645 -0.0252721 -1.04149e-19 0.164517 3.73448e-20 -1.70385e-05)
(-0.158668 -0.0254486 -8.38802e-22 0.158688 8.02889e-20 -2.02527e-05)
(-0.152587 -0.0253507 -1.39568e-20 0.15261 5.08429e-20 -2.33238e-05)
(-0.14635 -0.0250524 4.19651e-20 0.146377 -7.37899e-21 -2.62673e-05)
(-0.140109 -0.0246107 2.16907e-20 0.140138 -1.12404e-19 -2.90941e-05)
(-0.133899 -0.0240648 -5.9316e-20 0.133931 -5.63185e-20 -3.18114e-05)
(-0.127803 -0.0234479 6.40835e-20 0.127837 4.33072e-20 -3.44231e-05)
(-0.121827 -0.0227813 5.75201e-20 0.121864 1.27108e-20 -3.69303e-05)
(-0.116018 -0.0220843 9.59701e-21 0.116058 -1.47387e-19 -3.93318e-05)
(-0.110371 -0.0213689 1.3558e-19 0.110413 1.16889e-19 -4.16241e-05)
(-0.104911 -0.0206462 5.3692e-20 0.104955 3.45463e-20 -4.38019e-05)
(-0.0996285 -0.0199236 -9.24556e-20 0.0996744 3.06916e-19 -4.58582e-05)
(-0.0945375 -0.0192069 1.52683e-19 0.0945853 -1.65045e-19 -4.77843e-05)
(-0.0896272 -0.0185011 -2.1004e-19 0.0896768 1.94596e-19 -4.95697e-05)
(-0.0849049 -0.0178088 -1.78955e-20 0.0849561 -1.02028e-19 -5.12023e-05)
(-0.0803614 -0.0171339 8.29506e-20 0.0804141 1.01791e-19 -5.26679e-05)
(-0.0759992 -0.016477 -4.22999e-20 0.0760532 -1.05845e-19 -5.39508e-05)
(-0.0718119 -0.0158413 1.30515e-20 0.071867 -2.06024e-20 -5.50329e-05)
(-0.067799 -0.0152262 -3.28759e-20 0.0678549 5.48032e-20 -5.58941e-05)
(-0.0639571 -0.0146348 1.12133e-19 0.0640137 1.47744e-19 -5.65118e-05)
(-0.0602837 -0.0140655 8.26466e-21 0.0603406 -7.53563e-20 -5.68613e-05)
(-0.0567791 -0.0135218 3.47358e-20 0.056836 7.7518e-20 -5.6915e-05)
(-0.0534387 -0.0130011 -6.18575e-20 0.0534953 6.40996e-20 -5.66433e-05)
(-0.0502667 -0.0125076 -7.82515e-20 0.0503227 1.12144e-19 -5.60133e-05)
(-0.0472572 -0.0120379 -9.0147e-20 0.0473122 -8.58256e-20 -5.499e-05)
(-0.0444183 -0.0115971 -1.35328e-19 0.0444718 1.17525e-19 -5.35351e-05)
(-0.0417427 -0.0111806 6.38206e-20 0.0417943 3.63382e-20 -5.16081e-05)
(-0.0392429 -0.0107956 1.26795e-19 0.039292 5.13841e-20 -4.91647e-05)
(-0.0369095 -0.010434 -3.83118e-19 0.0369556 1.64455e-19 -4.6159e-05)
(-0.0347615 -0.0101096 3.00396e-20 0.034804 -2.38741e-20 -4.25403e-05)
(-0.0327838 -0.00980443 1.88473e-19 0.032822 1.44714e-19 -3.82564e-05)
(-0.0310086 -0.00954716 -3.07832e-19 0.0310418 3.64719e-20 -3.32497e-05)
(-0.0294054 -0.00929958 1.22673e-19 0.0294329 1.13395e-19 -2.7461e-05)
(-0.0280314 -0.00911474 2.05448e-20 0.0280522 9.0734e-20 -2.08248e-05)
(-0.026827 -0.00895375 -1.14151e-19 0.0268403 -7.3629e-20 -1.32746e-05)
(-0.025909 -0.00873186 -5.00829e-21 0.0259138 -1.56199e-19 -4.73604e-06)
(-0.178421 -0.0244833 5.60619e-20 0.178424 -7.04028e-20 -2.23031e-06)
(-0.176598 -0.0279863 1.74414e-19 0.176604 -1.78515e-19 -6.28198e-06)
(-0.173067 -0.0302472 -1.02927e-19 0.173078 -2.48647e-19 -1.00657e-05)
(-0.168311 -0.0315941 -1.21447e-19 0.168325 2.87088e-20 -1.36246e-05)
(-0.162867 -0.0322872 2.68021e-19 0.162884 6.3063e-20 -1.69935e-05)
(-0.156934 -0.0325015 9.49775e-20 0.156955 -1.80376e-19 -2.01985e-05)
(-0.150789 -0.0323682 -2.64522e-20 0.150813 -1.37773e-19 -2.32607e-05)
(-0.144517 -0.0319813 -3.90452e-20 0.144543 5.97124e-20 -2.61951e-05)
(-0.13826 -0.0314131 3.75893e-20 0.138289 6.09608e-20 -2.90129e-05)
(-0.132051 -0.0307134 -3.75136e-21 0.132083 9.99541e-20 -3.17211e-05)
(-0.125967 -0.0299241 1.84037e-20 0.126001 -1.65332e-19 -3.43236e-05)
(-0.120012 -0.0290723 -1.50087e-19 0.120049 9.5283e-20 -3.68217e-05)
(-0.114231 -0.0281825 7.93779e-20 0.114271 -9.34198e-20 -3.92141e-05)
(-0.108617 -0.0272699 6.01156e-20 0.108658 1.4794e-19 -4.14975e-05)
(-0.103193 -0.0263487 1.00078e-19 0.103236 1.67908e-20 -4.36667e-05)
(-0.0979484 -0.0254279 -4.58305e-20 0.0979941 1.51446e-19 -4.57146e-05)
(-0.092897 -0.0245152 -6.31703e-20 0.0929447 -2.61125e-19 -4.76326e-05)
(-0.0880271 -0.0236168 1.18489e-19 0.0880765 8.9246e-20 -4.94103e-05)
(-0.0833455 -0.0227361 -5.6476e-20 0.0833965 6.38093e-20 -5.10357e-05)
(-0.0788423 -0.0218779 -7.47004e-20 0.0788948 -3.35833e-20 -5.24947e-05)
(-0.07452 -0.021043 -1.84212e-19 0.0745738 2.13262e-19 -5.37715e-05)
(-0.0703716 -0.0202356 1.1251e-19 0.0704265 2.15136e-19 -5.48481e-05)
(-0.0663967 -0.0194546 7.58148e-20 0.0664524 7.31275e-20 -5.57046e-05)
(-0.0625915 -0.0187044 -1.36189e-19 0.0626478 -1.33548e-19 -5.63183e-05)
(-0.0589535 -0.0179826 -5.06169e-20 0.0590102 2.31407e-19 -5.66647e-05)
(-0.0554826 -0.0172939 1.34246e-19 0.0555393 9.28543e-21 -5.67163e-05)
(-0.0521745 -0.0166349 1.17549e-19 0.052231 6.99713e-20 -5.64436e-05)
(-0.0490329 -0.0160109 -1.76792e-19 0.0490888 1.03271e-19 -5.58138e-05)
(-0.0460523 -0.0154178 5.96871e-20 0.0461071 2.15037e-19 -5.47922e-05)
(-0.04324 -0.0148618 1.07862e-19 0.0432933 2.54828e-19 -5.33405e-05)
(-0.0405894 -0.0143373 -1.36168e-19 0.0406408 1.84404e-19 -5.14187e-05)
(-0.038112 -0.0138534 2.04005e-19 0.038161 -3.21304e-20 -4.89826e-05)
(-0.0357997 -0.0133999 -1.24592e-19 0.0358457 1.04693e-19 -4.59864e-05)
(-0.0336694 -0.0129942 -1.0736e-19 0.0337118 1.50904e-19 -4.23798e-05)
(-0.0317086 -0.0126136 1.56282e-19 0.0317468 2.43552e-19 -3.81109e-05)
(-0.0299458 -0.0122944 -8.5041e-20 0.0299789 -7.37704e-20 -3.31222e-05)
(-0.0283553 -0.0119892 4.8185e-20 0.0283827 -1.58092e-20 -2.7355e-05)
(-0.0269881 -0.0117624 -2.11606e-19 0.0270088 2.14056e-20 -2.07439e-05)
(-0.0257895 -0.0115649 -3.60291e-19 0.0258027 -2.15822e-20 -1.32225e-05)
(-0.0248807 -0.0113214 6.84485e-20 0.0248854 8.62208e-21 -4.71728e-06)
(-0.177753 -0.0298818 3.01059e-20 0.177755 -5.27583e-21 -2.22211e-06)
(-0.175404 -0.0340658 -1.77753e-19 0.175411 2.51562e-19 -6.25902e-06)
(-0.171498 -0.0367588 1.70878e-19 0.171508 -1.23606e-19 -1.00289e-05)
(-0.166476 -0.038355 1.80582e-19 0.16649 2.75496e-19 -1.35749e-05)
(-0.160848 -0.0391671 -2.18942e-19 0.160864 -5.81679e-20 -1.69311e-05)
(-0.154791 -0.0394049 -8.3377e-20 0.154811 -7.30579e-20 -2.0124e-05)
(-0.148568 -0.0392266 1.34142e-19 0.148591 8.98406e-20 -2.31741e-05)
(-0.142251 -0.0387445 1.81438e-19 0.142277 -5.5623e-20 -2.60966e-05)
(-0.135976 -0.0380458 6.29309e-20 0.136005 -1.07972e-19 -2.89025e-05)
(-0.129768 -0.03719 -2.39448e-19 0.129799 1.53659e-19 -3.15989e-05)
(-0.123699 -0.0362277 4.05878e-20 0.123733 2.08029e-19 -3.41898e-05)
(-0.117771 -0.0351911 9.29469e-20 0.117807 1.17005e-19 -3.66763e-05)
(-0.112024 -0.0341097 4.49342e-21 0.112063 -8.19545e-21 -3.90573e-05)
(-0.10645 -0.0330017 2.79495e-19 0.106491 -2.09401e-19 -4.13294e-05)
(-0.10107 -0.0318841 7.97769e-20 0.101114 4.8223e-20 -4.34877e-05)
(-0.0958728 -0.0307678 -2.24026e-19 0.0959184 -1.18769e-19 -4.55251e-05)
(-0.0908704 -0.0296621 3.12433e-21 0.0909178 2.39228e-19 -4.7433e-05)
(-0.0860502 -0.028574 6.79875e-20 0.0860994 1.42801e-19 -4.92012e-05)
(-0.0814186 -0.027508 -1.06445e-19 0.0814694 1.1043e-19 -5.08177e-05)
(-0.0769651 -0.0264696 2.20922e-19 0.0770173 1.56699e-19 -5.22685e-05)
(-0.0726919 -0.0254598 1.35093e-19 0.0727455 2.6921e-19 -5.35379e-05)
(-0.0685914 -0.0244837 -1.33277e-19 0.068646 1.24669e-19 -5.46079e-05)
(-0.0646633 -0.02354 -2.80308e-19 0.0647188 -1.55333e-19 -5.54587e-05)
(-0.0609032 -0.0226338 2.49542e-19 0.0609592 2.02689e-19 -5.60678e-05)
(-0.0573087 -0.0217625 1.26033e-19 0.0573652 1.04308e-19 -5.64107e-05)
(-0.0538792 -0.0209314 -1.77522e-19 0.0539357 2.96092e-19 -5.64601e-05)
(-0.0506108 -0.0201366 1.24025e-19 0.050667 -1.13915e-19 -5.61867e-05)
(-0.0475064 -0.0193846 9.14413e-20 0.047562 1.53732e-19 -5.55577e-05)
(-0.044561 -0.0186702 5.91346e-20 0.0446156 -7.333e-20 -5.45388e-05)
(-0.0417813 -0.0180012 -6.52363e-20 0.0418344 -8.429e-20 -5.3092e-05)
(-0.0391612 -0.0173706 -1.28543e-19 0.0392124 -5.40213e-19 -5.11772e-05)
(-0.0367112 -0.0167894 1.6114e-20 0.03676 2.94976e-20 -4.87508e-05)
(-0.0344244 -0.0162456 -4.98565e-20 0.0344701 -2.86711e-19 -4.57673e-05)
(-0.0323156 -0.0157598 1.65192e-19 0.0323578 5.71191e-20 -4.21765e-05)
(-0.0303753 -0.015305 5.44894e-20 0.0304132 -2.68927e-19 -3.79269e-05)
(-0.0286272 -0.0149246 -5.60739e-19 0.0286601 -1.73186e-19 -3.29614e-05)
(-0.0270518 -0.0145625 2.69765e-19 0.027079 -1.23754e-19 -2.72214e-05)
(-0.0256924 -0.014294 8.4118e-20 0.025713 -6.73126e-20 -2.06421e-05)
(-0.0245004 -0.0140602 -1.45652e-19 0.0245136 -4.59248e-19 -1.31574e-05)
(-0.0236007 -0.0137953 -1.38415e-19 0.0236054 1.19622e-19 -4.69399e-06)
(-0.176949 -0.0352801 2.08605e-19 0.176951 -2.04253e-20 -2.21163e-06)
(-0.173983 -0.0400836 7.89048e-20 0.173989 1.38718e-19 -6.22964e-06)
(-0.169634 -0.0431639 -1.76461e-19 0.169644 4.01593e-20 -9.98196e-06)
(-0.1643 -0.0449765 1.84677e-20 0.164313 -1.7854e-19 -1.35112e-05)
(-0.158455 -0.0458839 7.24162e-20 0.158471 1.76478e-19 -1.68516e-05)
(-0.152253 -0.0461284 1.99275e-20 0.152273 4.74721e-19 -2.0029e-05)
(-0.145938 -0.0458933 -5.64017e-20 0.145961 1.99195e-20 -2.3064e-05)
(-0.139569 -0.0453082 -1.85956e-19 0.139595 1.44732e-19 -2.59717e-05)
(-0.133273 -0.0444741 2.46765e-19 0.133302 -4.76283e-20 -2.8763e-05)
(-0.127066 -0.0434596 2.24594e-19 0.127098 1.25897e-19 -3.14449e-05)
(-0.121016 -0.0423234 -4.6428e-20 0.12105 -8.44828e-22 -3.40215e-05)
(-0.11512 -0.0411024 -3.1972e-19 0.115156 2.00923e-19 -3.64939e-05)
(-0.109414 -0.0398309 -2.00112e-19 0.109453 2.44502e-20 -3.8861e-05)
(-0.103887 -0.0385297 1.89702e-20 0.103928 3.39229e-19 -4.11197e-05)
(-0.0985604 -0.0372186 2.96919e-19 0.0986037 -1.64011e-19 -4.32649e-05)
(-0.0934189 -0.0359099 1.1789e-19 0.0934642 1.43907e-20 -4.52897e-05)
(-0.0884744 -0.0346144 1.02786e-19 0.0885216 -1.078e-20 -4.71856e-05)
(-0.083713 -0.0333403 4.53669e-20 0.083762 2.55309e-20 -4.89424e-05)
(-0.0791407 -0.0320927 -9.58876e-21 0.0791912 -1.64725e-19 -5.05483e-05)
(-0.0747459 -0.0308778 7.01486e-20 0.0747978 -1.56119e-19 -5.19893e-05)
(-0.0705307 -0.029697 -8.16221e-20 0.070584 -2.206e-20 -5.32499e-05)
(-0.0664869 -0.0285558 -9.22895e-20 0.0665412 -2.68115e-19 -5.43121e-05)
(-0.062614 -0.0274531 3.14935e-20 0.0626691 1.80484e-19 -5.51563e-05)
(-0.058907 -0.0263944 4.90742e-20 0.0589628 -6.09351e-20 -5.57601e-05)
(-0.0553639 -0.0253769 2.05695e-19 0.05542 -1.602e-19 -5.60991e-05)
(-0.0519832 -0.0244066 -2.55733e-20 0.0520394 -4.65745e-21 -5.61462e-05)
(-0.0487616 -0.0234793 -6.8147e-20 0.0488174 -6.5691e-20 -5.58723e-05)
(-0.045701 -0.0226021 -9.81342e-21 0.0457563 -2.81943e-19 -5.52448e-05)
(-0.0427971 -0.0217692 -2.28441e-19 0.0428514 5.74612e-19 -5.42297e-05)
(-0.0400557 -0.0209895 -2.80672e-19 0.0401085 -7.25757e-21 -5.27891e-05)
(-0.0374714 -0.0202551 -1.41373e-19 0.0375223 2.79238e-19 -5.08834e-05)
(-0.0350536 -0.0195787 4.16459e-19 0.035102 1.886e-19 -4.84692e-05)
(-0.0327966 -0.0189464 -7.3508e-20 0.0328421 -2.89366e-19 -4.55012e-05)
(-0.0307129 -0.018382 -1.3474e-19 0.0307548 2.86585e-19 -4.19298e-05)
(-0.0287964 -0.0178544 1.02245e-19 0.0288341 -2.49937e-19 -3.77038e-05)
(-0.0270654 -0.0174136 -4.96429e-21 0.0270982 -2.80772e-20 -3.27664e-05)
(-0.0255074 -0.0169956 7.33744e-21 0.0255344 -2.88134e-20 -2.70596e-05)
(-0.0241569 -0.0166855 -5.26241e-19 0.0241775 -1.52701e-19 -2.05187e-05)
(-0.0229726 -0.0164155 -1.89026e-19 0.0229856 -1.30467e-19 -1.30783e-05)
(-0.0220819 -0.0161295 1.71215e-19 0.0220865 4.62777e-19 -4.66552e-06)
(-0.176007 -0.0406777 1.13755e-19 0.176009 6.28157e-20 -2.19891e-06)
(-0.172337 -0.0460296 -5.81742e-22 0.172343 -1.53588e-19 -6.19394e-06)
(-0.167484 -0.049445 -6.6363e-21 0.167494 5.20524e-20 -9.92482e-06)
(-0.161794 -0.0514361 1.19043e-19 0.161808 6.08975e-19 -1.34339e-05)
(-0.155704 -0.0524114 1.70312e-19 0.15572 -5.9653e-21 -1.67549e-05)
(-0.149336 -0.0526429 -2.8462e-20 0.149356 -4.61274e-19 -1.99136e-05)
(-0.142918 -0.0523375 -9.38098e-21 0.142941 -9.91317e-20 -2.29305e-05)
(-0.136491 -0.0516403 1.30714e-19 0.136517 -1.37421e-19 -2.58205e-05)
(-0.130172 -0.0506652 -3.29309e-20 0.130201 -2.3892e-20 -2.85944e-05)
(-0.123968 -0.0494891 -8.77849e-20 0.123999 -1.5495e-19 -3.12592e-05)
(-0.11794 -0.0481778 2.50598e-19 0.117974 -1.45127e-19 -3.38189e-05)
(-0.11208 -0.046773 2.52565e-19 0.112116 -2.9449e-19 -3.62748e-05)
(-0.106422 -0.0453131 3.79685e-20 0.10646 6.30824e-20 -3.86258e-05)
(-0.10095 -0.0438213 5.97266e-20 0.100991 -8.51959e-20 -4.08687e-05)
(-0.095684 -0.0423197 -1.1945e-19 0.095727 -3.83421e-19 -4.29986e-05)
(-0.0906067 -0.0408223 -1.09551e-19 0.0906517 1.58342e-20 -4.50087e-05)
(-0.0857288 -0.0393411 1.34925e-19 0.0857757 -2.66576e-19 -4.68906e-05)
(-0.0810351 -0.0378852 -5.974e-21 0.0810837 -4.00322e-20 -4.86342e-05)
(-0.0765308 -0.0364603 -1.76269e-19 0.0765811 -4.11921e-19 -5.02278e-05)
(-0.0722034 -0.0350733 3.75114e-19 0.0722551 -3.06642e-20 -5.16575e-05)
(-0.0680549 -0.0337257 1.25171e-19 0.0681078 -4.82693e-20 -5.29079e-05)
(-0.064076 -0.0324238 2.56751e-20 0.0641299 -2.24264e-20 -5.39612e-05)
(-0.0602665 -0.0311662 -1.62019e-19 0.0603213 1.76577e-19 -5.47979e-05)
(-0.0566205 -0.0299591 -6.98548e-20 0.0566759 3.32232e-20 -5.53956e-05)
(-0.0531363 -0.0287993 1.58734e-19 0.053192 1.14526e-19 -5.57304e-05)
(-0.0498115 -0.0276936 1.10061e-19 0.0498673 -3.00638e-19 -5.57752e-05)
(-0.0466434 -0.0266372 -2.66766e-19 0.0466989 1.89291e-19 -5.5501e-05)
(-0.043633 -0.0256381 8.86527e-19 0.0436879 -5.13615e-19 -5.48758e-05)
(-0.0407767 -0.0246898 3.4444e-19 0.0408305 4.54713e-19 -5.38655e-05)
(-0.038079 -0.0238023 -2.55566e-19 0.0381314 -5.33995e-19 -5.24326e-05)
(-0.0355357 -0.0229668 -2.66775e-19 0.0355862 4.83671e-19 -5.05379e-05)
(-0.0331545 -0.0221975 -5.66086e-19 0.0332026 -2.10112e-20 -4.81383e-05)
(-0.0309316 -0.0214788 4.20732e-20 0.0309768 2.03731e-19 -4.5189e-05)
(-0.0288765 -0.0208375 1.7369e-19 0.0289181 2.93818e-19 -4.16407e-05)
(-0.0269871 -0.0202387 -4.54393e-19 0.0270245 1.78923e-19 -3.74426e-05)
(-0.0252755 -0.0197385 -3.28317e-19 0.025308 1.05895e-20 -3.25383e-05)
(-0.0237371 -0.0192655 1.74311e-19 0.023764 3.32518e-19 -2.68704e-05)
(-0.0223967 -0.0189141 -7.09084e-20 0.0224171 3.00006e-19 -2.03746e-05)
(-0.0212208 -0.0186082 4.02595e-19 0.0212338 -1.82777e-19 -1.29862e-05)
(-0.0203391 -0.018301 -3.48174e-19 0.0203437 1.67633e-19 -4.63256e-06)
(-0.174923 -0.0460737 1.1976e-19 0.174926 -3.0059e-20 -2.18392e-06)
(-0.170471 -0.0518938 1.00887e-19 0.170477 -9.90854e-22 -6.15186e-06)
(-0.16506 -0.0555855 2.3804e-19 0.165069 -4.67114e-20 -9.8575e-06)
(-0.158975 -0.0577123 1.25317e-19 0.158988 -5.80746e-19 -1.33427e-05)
(-0.152612 -0.0587247 -3.69406e-19 0.152629 -4.50873e-19 -1.6641e-05)
(-0.146062 -0.0589213 -7.91659e-21 0.146082 2.57838e-19 -1.9778e-05)
(-0.13953 -0.0585302 6.75991e-20 0.139553 2.32626e-19 -2.27737e-05)
(-0.13304 -0.0577107 -1.26659e-19 0.133066 8.68719e-20 -2.56431e-05)
(-0.126696 -0.0565883 1.88009e-19 0.126724 2.8418e-19 -2.83968e-05)
(-0.120496 -0.0552471 2.3135e-19 0.120527 -3.9594e-19 -3.10418e-05)
(-0.114494 -0.0537599 -3.15727e-19 0.114527 2.96553e-19 -3.35822e-05)
(-0.108676 -0.0521718 -6.34323e-20 0.108712 -1.60992e-19 -3.60191e-05)
(-0.103071 -0.0505253 -1.124e-20 0.10311 8.8938e-20 -3.83515e-05)
(-0.0976619 -0.0488458 -2.37295e-19 0.0977025 5.39358e-20 -4.05764e-05)
(-0.0924642 -0.0471575 2.78221e-19 0.0925068 2.3429e-19 -4.26888e-05)
(-0.0874593 -0.0454755 1.98166e-19 0.087504 -8.81837e-20 -4.46822e-05)
(-0.0826564 -0.043813 -1.08474e-19 0.0827029 3.88879e-19 -4.65481e-05)
(-0.0780387 -0.04218 2.88412e-20 0.078087 -1.39876e-19 -4.82767e-05)
(-0.0736109 -0.0405826 -2.33886e-19 0.0736608 1.96944e-19 -4.98562e-05)
(-0.0693593 -0.0390284 2.38383e-19 0.0694105 8.643e-20 -5.1273e-05)
(-0.0652856 -0.0375191 3.47648e-20 0.0653381 -2.20626e-19 -5.25118e-05)
(-0.0613796 -0.0360612 1.00157e-19 0.0614331 -2.77512e-21 -5.35551e-05)
(-0.0576412 -0.0346535 2.11864e-19 0.0576956 -1.42097e-19 -5.43833e-05)
(-0.0540636 -0.0333026 -8.64587e-20 0.0541185 6.56415e-21 -5.49744e-05)
(-0.0506454 -0.0320049 -2.71868e-19 0.0507007 2.28816e-19 -5.53045e-05)
(-0.0473834 -0.0307681 2.55822e-19 0.0474388 -5.43963e-19 -5.53469e-05)
(-0.0442753 -0.0295865 -5.56652e-19 0.0443303 1.79058e-19 -5.50727e-05)
(-0.0413211 -0.0284693 -7.46888e-20 0.0413756 1.92043e-19 -5.44502e-05)
(-0.038518 -0.0274092 1.98026e-19 0.0385714 4.05137e-20 -5.34457e-05)
(-0.0358693 -0.0264171 -6.69213e-20 0.0359213 -2.77552e-19 -5.20221e-05)
(-0.0333719 -0.0254835 5.75814e-19 0.033422 1.60384e-19 -5.01404e-05)
(-0.0310317 -0.0246238 1.99625e-19 0.0310795 -2.54368e-19 -4.77578e-05)
(-0.0288469 -0.0238211 -1.18368e-19 0.0288917 5.68408e-19 -4.48302e-05)
(-0.0268238 -0.0231047 3.16447e-19 0.0268651 -7.2146e-19 -4.13085e-05)
(-0.0249646 -0.0224366 -2.19389e-19 0.0250018 4.86261e-19 -3.71425e-05)
(-0.0232746 -0.0218779 7.6306e-20 0.0233069 -1.23574e-19 -3.22764e-05)
(-0.0217581 -0.0213513 2.53682e-19 0.0217847 4.37372e-19 -2.66531e-05)
(-0.0204288 -0.0209587 -9.95507e-19 0.020449 -3.4201e-19 -2.02092e-05)
(-0.0192623 -0.0206169 -2.7233e-19 0.0192752 1.37277e-19 -1.28802e-05)
(-0.0183895 -0.0202888 3.1989e-19 0.0183941 2.98433e-19 -4.59448e-06)
(-0.173696 -0.0514667 -6.9032e-20 0.173698 6.19621e-19 -2.16672e-06)
(-0.168391 -0.0576665 -1.5593e-19 0.168397 2.57281e-19 -6.10353e-06)
(-0.162371 -0.06157 -3.27384e-19 0.162381 5.69514e-20 -9.78014e-06)
(-0.155858 -0.0637853 -2.01014e-20 0.155871 4.3113e-19 -1.3238e-05)
(-0.149199 -0.0648008 4.82306e-19 0.149216 5.80687e-19 -1.65102e-05)
(-0.142453 -0.0649382 1.60254e-19 0.142472 1.86572e-19 -1.96222e-05)
(-0.135798 -0.0644447 -6.82469e-20 0.13582 -1.46127e-19 -2.25937e-05)
(-0.12924 -0.0634917 2.21706e-19 0.129266 -3.42753e-19 -2.54396e-05)
(-0.122871 -0.062215 -3.36649e-19 0.122899 -2.99929e-19 -2.81704e-05)
(-0.116676 -0.0607052 -1.21671e-19 0.116707 2.10469e-19 -3.07931e-05)
(-0.110704 -0.0590407 3.33113e-19 0.110737 4.52408e-19 -3.33115e-05)
(-0.104933 -0.0572701 -1.43855e-19 0.104969 3.48489e-19 -3.5727e-05)
(-0.0993886 -0.0554393 1.87333e-19 0.0994267 2.24124e-19 -3.80385e-05)
(-0.0940487 -0.0535751 4.75633e-20 0.0940889 1.66483e-19 -4.02431e-05)
(-0.0889269 -0.0517041 -4.30263e-19 0.0889693 3.30423e-20 -4.23359e-05)
(-0.0840022 -0.049842 1.51766e-19 0.0840466 -2.03749e-19 -4.43104e-05)
(-0.0792823 -0.0480034 7.28596e-20 0.0793285 4.39549e-20 -4.61585e-05)
(-0.0747487 -0.0461984 -5.90587e-20 0.0747966 -4.02156e-19 -4.78702e-05)
(-0.0704055 -0.0444341 -8.57294e-20 0.0704549 -1.60428e-19 -4.94339e-05)
(-0.0662374 -0.0427181 -1.52198e-19 0.0662883 2.82974e-19 -5.08364e-05)
(-0.0622464 -0.0410524 2.34327e-20 0.0622984 6.58995e-20 -5.20623e-05)
(-0.0584208 -0.0394439 -4.4768e-20 0.0584739 2.76908e-19 -5.30943e-05)
(-0.0547608 -0.0378913 -5.66916e-20 0.0548147 -7.79305e-20 -5.39131e-05)
(-0.0512586 -0.0364016 4.24417e-19 0.0513131 6.82165e-20 -5.44969e-05)
(-0.0479133 -0.034971 -4.86711e-19 0.0479681 2.34286e-19 -5.4822e-05)
(-0.0447204 -0.0336076 2.33412e-20 0.0447752 -1.15884e-19 -5.48619e-05)
(-0.0416784 -0.0323055 4.41243e-19 0.0417329 5.73457e-19 -5.4588e-05)
(-0.0387862 -0.0310742 4.44454e-19 0.0388401 1.87917e-19 -5.3969e-05)
(-0.0360416 -0.0299062 -1.38089e-19 0.0360946 4.21173e-19 -5.29713e-05)
(-0.033447 -0.0288131 -5.43804e-19 0.0334985 4.9513e-19 -5.15584e-05)
(-0.031 -0.0277845 -2.18745e-19 0.0310497 9.46978e-20 -4.96915e-05)
(-0.028705 -0.0268374 7.52756e-20 0.0287523 -2.36792e-20 -4.73285e-05)
(-0.0265621 -0.0259533 -3.47574e-19 0.0266065 2.08839e-20 -4.44255e-05)
(-0.0245741 -0.0251639 1.73876e-19 0.0246151 -2.42305e-19 -4.09341e-05)
(-0.0227482 -0.0244284 3.05202e-19 0.022785 3.30575e-19 -3.68045e-05)
(-0.0210819 -0.0238125 -3.544e-19 0.0211139 -3.80521e-19 -3.19815e-05)
(-0.0195893 -0.0232334 4.7496e-19 0.0196158 3.39041e-20 -2.64087e-05)
(-0.0182723 -0.0228 -6.31097e-20 0.0182923 -1.02848e-19 -2.00232e-05)
(-0.0171162 -0.0224225 7.12553e-19 0.0171289 4.80811e-19 -1.27613e-05)
(-0.0162523 -0.0220734 -3.89099e-19 0.0162569 -2.38223e-19 -4.55195e-06)
(-0.17232 -0.0568549 7.4447e-20 0.172322 -3.94315e-19 -2.14726e-06)
(-0.166103 -0.0633387 -1.62485e-20 0.166109 -4.97966e-19 -6.04889e-06)
(-0.159432 -0.0673839 2.04286e-19 0.159442 2.01807e-19 -9.6927e-06)
(-0.152461 -0.0696367 1.12718e-19 0.152474 5.28559e-20 -1.31197e-05)
(-0.145487 -0.0706186 -6.47097e-19 0.145504 -4.73254e-20 -1.63625e-05)
(-0.138531 -0.0706705 -8.65417e-21 0.138551 -7.10934e-19 -1.94463e-05)
(-0.131747 -0.0700565 -2.16494e-19 0.131769 -3.23634e-20 -2.23907e-05)
(-0.125119 -0.0689578 -1.18697e-19 0.125144 -1.5886e-19 -2.52102e-05)
(-0.118724 -0.0675195 4.8123e-19 0.118752 5.88831e-19 -2.79153e-05)
(-0.112538 -0.065837 5.20035e-19 0.112569 6.22225e-20 -3.05129e-05)
(-0.1066 -0.0639941 -9.14583e-20 0.106633 -4.04173e-20 -3.30068e-05)
(-0.100881 -0.0620418 2.2003e-20 0.100917 -6.37386e-19 -3.53985e-05)