/*--------------------------------*- C++ -*----------------------------------*\
| =========                 |                                                 |
| \\      /  F ield         | foam-extend: Open Source CFD                    |
|  \\    /   O peration     | Version:  3.0                                   |
|   \\  /    A nd           | Web:         http://www.extend-project.de       |
|    \\/     M anipulation  |                                                 |
\*---------------------------------------------------------------------------*/
FoamFile
{
    version     2.0;
    format      ascii;
    class       volVectorField;
    location    "7";
    object      u;
}
// * * * * * * * * * * * * * * * * * * * * * * * * * * * * * * * * * * * * * //

dimensions      [0 0 0 0 0 0 0];

internalField   nonuniform List<vector> 
120
(
(0.49471 -0.145625 -1.06365e-19)
(0.752358 -0.0773197 5.78033e-18)
(0.946503 -0.036235 -1.36391e-17)
(0.95488 -0.0160559 7.25942e-18)
(1.04394 0.0146497 3.32245e-17)
(0.648415 -0.415703 2.4021e-18)
(0.836366 -0.225276 -3.26531e-17)
(0.989026 -0.112022 -9.66723e-18)
(0.976896 -0.0567733 -3.02435e-17)
(1.03646 0.0236844 -2.71199e-17)
(0.91649 -0.572785 3.88402e-18)
(0.983003 -0.31141 6.39576e-18)
(1.06356 -0.156431 1.77266e-17)
(1.01613 -0.0810883 1.05458e-17)
(1.02508 0.0277736 8.35262e-17)
(1.22707 -0.574773 1.78966e-18)
(1.15288 -0.312734 -8.05804e-19)
(1.15008 -0.157675 2.70419e-17)
(1.06197 -0.0826098 -1.28397e-18)
(1.01302 0.025416 -5.24327e-18)
(1.49687 -0.421203 -2.23973e-18)
(1.30048 -0.228894 3.43593e-18)
(1.22539 -0.115453 -3.06421e-18)
(1.10218 -0.0609271 5.98611e-18)
(1.00396 0.0171767 -2.77091e-17)
(1.65358 -0.153259 -8.30877e-19)
(1.38625 -0.0824371 5.17664e-18)
(1.26936 -0.0410422 -2.77299e-18)
(1.12597 -0.0218393 2.07159e-18)
(1.00036 0.00579603 -1.27058e-17)
(1.6552 0.157152 -9.80162e-19)
(1.38724 0.0874237 4.43525e-18)
(1.27016 0.0456218 2.16636e-19)
(1.12695 0.0242316 1.45875e-18)
(1.00268 -0.00546985 -1.06146e-17)
(1.50132 0.426851 -2.85763e-18)
(1.30319 0.235143 8.77793e-18)
(1.22754 0.121339 -1.58452e-18)
(1.10477 0.0648645 7.77021e-18)
(1.00963 -0.0139794 2.8343e-18)
(1.23322 0.583501 -2.88962e-18)
(1.15662 0.321173 -1.27873e-17)
(1.1529 0.165701 -1.99443e-17)
(1.06537 0.0890913 -1.4536e-17)
(1.01932 -0.0183596 -5.33581e-17)
(0.92268 0.585133 1.91051e-18)
(0.986767 0.322401 1.34554e-18)
(1.06627 0.166774 -2.54751e-17)
(1.01938 0.0902895 5.90337e-18)
(1.02979 -0.0179627 3.94466e-17)
(0.652976 0.431249 7.52144e-18)
(0.839139 0.238463 -4.48229e-18)
(0.990996 0.124203 2.36267e-17)
(0.979249 0.0681447 -7.52115e-18)
(1.03904 -0.0128054 6.16911e-17)
(0.496343 0.163033 -3.06923e-19)
(0.753357 0.0917349 -1.11778e-17)
(0.9473 0.0493971 1.76759e-17)
(0.955843 0.0285778 -2.80995e-18)
(1.04489 -0.00355733 2.83126e-18)
(0.494858 -0.147661 9.44388e-20)
(0.752497 -0.0784827 -5.80444e-18)
(0.947028 -0.0375587 1.36483e-17)
(0.955497 -0.0177288 -7.32695e-18)
(1.04545 0.00783491 -3.35272e-17)
(0.648946 -0.41762 -2.41871e-18)
(0.836942 -0.226615 3.27181e-17)
(0.990271 -0.113417 9.77487e-18)
(0.978374 -0.0584202 3.04639e-17)
(1.03985 0.0183175 2.72734e-17)
(0.917402 -0.574415 -3.91742e-18)
(0.984117 -0.312865 -6.44592e-18)
(1.06554 -0.157802 -1.77846e-17)
(1.01837 -0.0825913 -1.05726e-17)
(1.02934 0.024388 -8.42958e-17)
(1.22831 -0.576044 -1.8156e-18)
(1.15467 -0.314079 7.81863e-19)
(1.15276 -0.158907 -2.71848e-17)
(1.06493 -0.0838393 1.29712e-18)
(1.01713 0.0237928 5.3784e-18)
(1.49835 -0.421965 2.23793e-18)
(1.30282 -0.229861 -3.47592e-18)
(1.22862 -0.116327 3.05866e-18)
(1.10563 -0.0617813 -6.07002e-18)
(1.0074 0.0166328 2.80521e-17)
(1.6552 -0.153492 8.38428e-19)
(1.38891 -0.0827743 -5.20187e-18)
(1.27287 -0.0414636 2.76584e-18)
(1.1297 -0.0222482 -2.13645e-18)
(1.00335 0.00549946 1.28694e-17)
(1.65683 0.157511 1.00194e-18)
(1.3898 0.0877365 -4.44391e-18)
(1.27357 0.0457277 -2.27884e-19)
(1.13058 0.024259 -1.49665e-18)
(1.00598 -0.00569958 1.08647e-17)
(1.50284 0.42773 2.90183e-18)
(1.30533 0.236018 -8.84919e-18)
(1.23055 0.121897 1.6005e-18)
(1.10804 0.0653753 -7.95117e-18)
(1.01383 -0.0135471 -2.86291e-18)
(1.2345 0.584858 2.94311e-18)
(1.15815 0.322318 1.28865e-17)
(1.15526 0.166596 2.01755e-17)
(1.06804 0.0899913 1.47652e-17)
(1.0242 -0.016309 5.44486e-17)
(0.923674 0.586829 -1.88498e-18)
(0.987687 0.32361 -1.34999e-18)
(1.06792 0.16785 2.55983e-17)
(1.0213 0.091551 -5.9329e-18)
(1.03444 -0.0138007 -3.98134e-17)
(0.653606 0.433202 -7.5182e-18)
(0.839614 0.23959 4.48101e-18)
(0.991901 0.125377 -2.37421e-17)
(0.980353 0.0696076 7.54092e-18)
(1.04231 -0.00670347 -6.20866e-17)
(0.49661 0.165078 3.06499e-19)
(0.753495 0.0928104 1.1183e-17)
(0.947508 0.0506341 -1.77143e-17)
(0.956069 0.0301907 2.82134e-18)
(1.04589 0.0035669 -2.78957e-18)
)
;

boundaryField
{
    out
    {
        type            fixedValue;
        value           uniform (1 0 0);
    }
    in
    {
        type            myVelocity;
    }
    frontAndBack
    {
        type            empty;
    }
}


// ************************************************************************* //
