/*--------------------------------*- C++ -*----------------------------------*\
| =========                 |                                                 |
| \\      /  F ield         | foam-extend: Open Source CFD                    |
|  \\    /   O peration     | Version:  3.0                                   |
|   \\  /    A nd           | Web:         http://www.extend-project.de       |
|    \\/     M anipulation  |                                                 |
\*---------------------------------------------------------------------------*/
FoamFile
{
    version     2.0;
    format      ascii;
    class       regIOobject;
    location    "30/uniform";
    object      profilingInfo;
}
// * * * * * * * * * * * * * * * * * * * * * * * * * * * * * * * * * * * * * //

profilingInfo
(

    {
        id              11;
        parentId        9;
        description     "Foam::Time::writeObject - outputTime";
        calls           3;
        totalTime       0.006624;
        childTime       0;
        onStack         1;
    }

    {
        id              9;
        parentId        1;
        description     "Foam::Time::writeObject";
        calls           300;
        totalTime       0.007865;
        childTime       0.006624;
        onStack         1;
    }

    {
        id              1;
        description     "application::main";
        calls           1;
        totalTime       0.989646;
        childTime       0.197832;
        onStack         1;
    }

    {
        id              3;
        parentId        2;
        description     "functionObjectList::read";
        calls           1;
        totalTime       1.4e-05;
        childTime       0;
        onStack         0;
    }

    {
        id              10;
        parentId        1;
        description     "functionObjects_.execute()";
        calls           299;
        totalTime       0.001306;
        childTime       0;
        onStack         0;
    }

    {
        id              2;
        parentId        1;
        description     "functionObjects_.start()";
        calls           1;
        totalTime       5.5e-05;
        childTime       1.4e-05;
        onStack         0;
    }

    {
        id              7;
        parentId        1;
        description     "fvMatrix::solve_Theta";
        calls           300;
        totalTime       0.020469;
        childTime       0.003992;
        onStack         0;
    }

    {
        id              4;
        parentId        1;
        description     "fvMatrix::solve_s";
        calls           300;
        totalTime       0.168137;
        childTime       0.121047;
        onStack         0;
    }

    {
        id              8;
        parentId        7;
        description     "lduMatrix::solver_Theta";
        calls           300;
        totalTime       0.003992;
        childTime       0;
        onStack         0;
    }

    {
        id              5;
        parentId        4;
        description     "lduMatrix::solver_sx";
        calls           300;
        totalTime       0.059687;
        childTime       0;
        onStack         0;
    }

    {
        id              6;
        parentId        4;
        description     "lduMatrix::solver_sy";
        calls           300;
        totalTime       0.06136;
        childTime       0;
        onStack         0;
    }
);


// ************************************************************************* //
