/*--------------------------------*- C++ -*----------------------------------*\
| =========                 |                                                 |
| \\      /  F ield         | foam-extend: Open Source CFD                    |
|  \\    /   O peration     | Version:  3.0                                   |
|   \\  /    A nd           | Web:         http://www.extend-project.de       |
|    \\/     M anipulation  |                                                 |
\*---------------------------------------------------------------------------*/
FoamFile
{
    version     2.0;
    format      ascii;
    class       volSymmTensorField;
    location    "6";
    object      sigma;
}
// * * * * * * * * * * * * * * * * * * * * * * * * * * * * * * * * * * * * * //

dimensions      [0 0 0 0 0 0 0];

internalField   nonuniform List<symmTensor> 
2688
(
(-0.1778950781 -0.004938314038 4.246811724e-20 0.1772841941 -5.904680575e-24 0.0006108840282)
(-0.1748574375 -0.005777114001 6.365695834e-20 0.1732025117 4.891393726e-21 0.00165492582)
(-0.1681178155 -0.006144058432 1.212242043e-20 0.165532335 4.848022765e-20 0.002585480485)
(-0.1595412502 -0.006230418347 2.985896368e-22 0.1561232545 6.062579288e-20 0.003417995653)
(-0.1501759211 -0.006149372148 2.157402721e-20 0.1460130061 7.686823148e-20 0.00416291497)
(-0.1406021773 -0.005969278822 3.664732844e-20 0.1357757366 5.869407451e-20 0.004826440658)
(-0.1311507141 -0.00573226949 4.618392391e-20 0.1257382509 7.16603147e-20 0.005412463146)
(-0.1219979917 -0.005464838546 2.060929958e-20 0.1160757257 3.97829544e-20 0.005922265999)
(-0.1132395584 -0.005183700511 -4.254798635e-21 0.1068835346 3.354758322e-20 0.006356023787)
(-0.1049177127 -0.004899598335 6.658271115e-21 0.09820566415 5.310639362e-21 0.006712048591)
(-0.09704896621 -0.004619340775 2.022181677e-20 0.09006077066 4.862604952e-20 0.00698819555)
(-0.08963280497 -0.004347483138 2.936815536e-20 0.08245223394 6.566065259e-20 0.007180571031)
(-0.08266143668 -0.004086758627 5.742470475e-20 0.07537601499 4.871916429e-20 0.007285421687)
(-0.07612421517 -0.003839194715 3.089892911e-20 0.06882722239 6.332075945e-20 0.007296992785)
(-0.07000956112 -0.003605826875 -3.238776232e-20 0.06279923099 8.131783392e-20 0.007210330131)
(-0.06430926153 -0.00338770931 -4.646099469e-21 0.05729126561 8.655502635e-20 0.007017995914)
(-0.05901600077 -0.003185203252 2.259912777e-20 0.05230191629 7.353842106e-20 0.006714084476)
(-0.054129064 -0.002999094494 -9.986936923e-21 0.0478393722 1.128936577e-19 0.006289691801)
(-0.0496485615 -0.002829604709 -2.493833293e-21 0.04391054828 8.280382293e-20 0.005738013216)
(-0.04558395112 -0.002677668405 3.259159147e-20 0.04053489914 9.356082557e-20 0.00504905198)
(-0.04194428903 -0.002543514389 4.125963308e-20 0.03772935822 1.386784353e-20 0.004214930816)
(-0.03875119165 -0.002428227503 1.832845834e-20 0.03552610019 2.688348363e-20 0.003225091458)
(-0.03602338407 -0.002332369604 4.08081511e-21 0.033952978 -5.027144813e-21 0.002070406064)
(-0.03379651546 -0.002252678754 3.215188424e-21 0.03305610263 -5.322053915e-20 0.0007404128334)
(-0.1773553464 -0.01480075656 3.718798505e-20 0.1767463874 -2.30829788e-21 0.000608958959)
(-0.1739087634 -0.01727912631 7.342703548e-20 0.1722590857 2.741627281e-21 0.001649677786)
(-0.1669360013 -0.0183571389 3.696725655e-20 0.1643586349 2.258877689e-20 0.002577366381)
(-0.1582356248 -0.01860322255 5.281841742e-21 0.154828401 4.790252401e-20 0.003407223833)
(-0.1488138856 -0.01835295635 1.470563778e-20 0.144664043 6.665449177e-20 0.00414984256)
(-0.1392267846 -0.01780941729 3.449641912e-20 0.1344155267 4.49955026e-20 0.004811257878)
(-0.1297888475 -0.01709765329 3.778189328e-20 0.1243934228 7.689490824e-20 0.005395424674)
(-0.1206664548 -0.01629614705 -4.856104908e-21 0.1147628443 2.8680289e-20 0.005903610506)
(-0.1119486672 -0.01545455495 -3.362721019e-20 0.1056126753 5.590580369e-20 0.006335991869)
(-0.1036733935 -0.0146047318 9.884871063e-21 0.09698250305 1.360204826e-20 0.006690890465)
(-0.09585425683 -0.01376682242 5.273157893e-20 0.08888808534 2.994243779e-20 0.006966171489)
(-0.08848872523 -0.01295425921 3.465754755e-20 0.08133077025 1.920778923e-20 0.007157954984)
(-0.08156773845 -0.0121751091 5.39718901e-20 0.07430524167 4.428013952e-21 0.007262496775)
(-0.07507968263 -0.01143532746 6.493398239e-20 0.06780562608 4.13369134e-20 0.007274056543)
(-0.06901243406 -0.01073797994 2.999399692e-20 0.06182474509 6.788230726e-20 0.007187688968)
(-0.06335727891 -0.0100861771 2.306463512e-20 0.05636130365 1.268525851e-19 0.006995975267)
(-0.0581067098 -0.009481053756 7.950292109e-20 0.05141368795 2.338695545e-20 0.006693021848)
(-0.05325973593 -0.008924955676 3.138197343e-20 0.04698977926 1.623877497e-19 0.006269956667)
(-0.04881643234 -0.008418502416 1.937010519e-20 0.04309643291 1.72793184e-19 0.005719999425)
(-0.0447859767 -0.007964343708 3.35739258e-20 0.03975277983 3.791176875e-20 0.005033196869)
(-0.04117735207 -0.007563224312 -3.181035092e-20 0.03697565377 3.156163302e-20 0.004201698301)
(-0.03801197599 -0.007218585026 1.581206877e-20 0.03479700768 1.327816612e-19 0.00321496831)
(-0.03530873975 -0.006931978033 -6.637026593e-20 0.03324483481 8.816028915e-20 0.002063904946)
(-0.03310507692 -0.006693579994 3.509991777e-20 0.03236699061 -5.141447349e-20 0.0007380863123)
(-0.1762769987 -0.0246216202 2.615765359e-20 0.1756718969 2.610221548e-20 0.0006051018172)
(-0.1720250732 -0.0286269255 5.991985675e-20 0.1703858831 4.632626315e-21 0.001639190088)
(-0.1645949524 -0.03034902517 3.954799506e-20 0.1620339967 -2.961497532e-20 0.002560955729)
(-0.1556511681 -0.03071603268 2.650845879e-20 0.1522656194 1.515898437e-20 0.003385548776)
(-0.1461196173 -0.03027590085 1.597047581e-20 0.1419961308 5.937257653e-20 0.004123486499)
(-0.1365068154 -0.02935965942 3.963340399e-20 0.1317260832 5.145300635e-20 0.00478073228)
(-0.1270962244 -0.0281712941 4.589470468e-20 0.1217349836 8.768784826e-20 0.005361240775)
(-0.1180343874 -0.02683863348 -6.440581485e-21 0.1121681279 8.531735329e-20 0.005866259516)
(-0.1093974479 -0.02544252102 -1.342725439e-20 0.1031014894 9.397625321e-20 0.006295958506)
(-0.101214616 -0.02403475302 -3.824193634e-20 0.09456595061 9.350285527e-20 0.006648665428)
(-0.09349383155 -0.0226480399 9.455847217e-21 0.08657157605 1.08733505e-19 0.006922255495)
(-0.08622860633 -0.02130415287 1.635583463e-21 0.07911573977 3.77430383e-20 0.007112866554)
(-0.07940739893 -0.0200161454 6.826196509e-20 0.07219062203 -1.117262759e-20 0.007216776905)
(-0.07301670946 -0.01879363844 1.057601119e-19 0.06578843193 1.164636214e-20 0.007228277526)
(-0.0670433557 -0.01764157282 6.701038849e-20 0.05990089828 6.976630658e-20 0.007142457418)
(-0.06147763966 -0.01656497198 1.251401138e-20 0.05452569418 8.933632848e-20 0.006951945488)
(-0.05631165346 -0.01556567224 4.944893059e-20 0.0496607635 5.95730198e-20 0.006650889967)
(-0.05154381583 -0.0146474907 2.578435948e-19 0.0453133344 1.745008306e-20 0.006230481431)
(-0.04717410177 -0.01381143921 -2.121109238e-20 0.04149011756 6.189784678e-20 0.005683984212)
(-0.04321118464 -0.01306184672 -1.028563691e-19 0.03820967254 5.112327014e-20 0.005001512103)
(-0.03966405755 -0.01239996616 1.663732283e-19 0.03548880052 2.457056296e-20 0.004175257036)
(-0.0365537123 -0.01183151949 2.096732061e-19 0.03335896584 -1.81321765e-20 0.00319474646)
(-0.03389911232 -0.01135907512 -1.452029275e-19 0.03184818377 1.289104404e-19 0.002050928552)
(-0.03174131219 -0.01096681523 -2.092451792e-20 0.03100786336 -5.592562226e-20 0.0007334488283)
(-0.1746622851 -0.03437310611 5.061965158e-22 0.1740629662 4.340946861e-20 0.0005993188896)
(-0.1692348022 -0.03972110076 2.675353947e-20 0.1676112701 -3.421920623e-20 0.001623532182)
(-0.1611382398 -0.04197786586 4.138849408e-20 0.1586017471 -8.447233874e-20 0.002536492667)
(-0.151840852 -0.04240277912 5.418212962e-20 0.1484876285 2.571183071e-21 0.003353223477)
(-0.1421508798 -0.04173904538 4.261992023e-20 0.1380667217 3.593898593e-20 0.00408415806)
(-0.1325026447 -0.0404351196 4.882119346e-20 0.1277674741 6.407799631e-20 0.004735170598)
(-0.1231342042 -0.03876726899 8.453635463e-20 0.1178240127 7.602954468e-20 0.005310191542)
(-0.1141629369 -0.03690831295 4.329086214e-21 0.108352485 1.288577912e-19 0.005810451965)
(-0.1056460443 -0.03496745456 2.403993448e-21 0.09940992901 5.96402189e-20 0.006236115281)
(-0.09760006254 -0.03301452406 4.94471285e-20 0.09101454192 4.663012595e-20 0.006585520616)
(-0.09002466195 -0.03109354757 3.863585576e-20 0.08316810248 6.456134674e-20 0.006856559468)
(-0.08290758852 -0.0292337438 -6.902937763e-20 0.07586218791 1.267844884e-20 0.007045400607)
(-0.07623367388 -0.02745258528 -2.346978736e-20 0.06908531783 6.404157109e-20 0.007148356046)
(-0.06998666079 -0.02576291971 1.427994171e-19 0.06282689512 1.431099774e-20 0.007159765664)
(-0.06415182108 -0.02417131287 1.109151093e-19 0.05707705368 1.777702121e-19 0.007074767408)
(-0.05871802098 -0.02268446814 8.43744431e-20 0.05183196124 -6.550660864e-21 0.006886059747)
(-0.05367676707 -0.02130482248 2.457706619e-20 0.04708891586 -6.63706562e-20 0.006587851204)
(-0.04902560421 -0.02003752261 7.102071794e-20 0.04285418237 -1.252543952e-19 0.006171421845)
(-0.04476436321 -0.01888395402 1.7417925e-19 0.03913426039 -9.700841567e-20 0.00563010282)
(-0.04090100316 -0.01785003263 6.477878311e-21 0.03594689696 -4.368044564e-21 0.004954106204)
(-0.03744458607 -0.01693754075 -1.374136897e-19 0.03330889304 1.131844178e-20 0.004135693037)
(-0.03441540702 -0.01615436066 2.116024835e-19 0.03125092004 -2.966258557e-20 0.003164486975)
(-0.031832409 -0.01550408987 6.616243062e-20 0.02980089668 1.255960597e-19 0.002031512326)
(-0.02974209512 -0.01496579965 -1.561163168e-20 0.02901558614 -2.933247898e-20 0.00072650898)
(-0.1725146389 -0.04402757575 -4.405655887e-20 0.1719229905 5.800705518e-20 0.0005916483171)
(-0.1655793358 -0.05046794114 -4.832453732e-20 0.1639765715 -2.197181121e-20 0.001602764315)
(-0.156629972 -0.0531107465 2.947991972e-20 0.1541259136 -5.61564468e-20 0.00250405833)
(-0.14688216 -0.05350801385 8.739506359e-20 0.143571802 2.084465305e-20 0.003310357934)
(-0.1369927238 -0.05257498737 5.569926961e-20 0.1329607381 4.023945247e-20 0.004031985644)
(-0.1273030385 -0.05086316322 7.329208131e-20 0.1226283223 4.746716134e-20 0.004674716148)
(-0.1179927304 -0.04871203556 1.2867804e-19 0.1127502924 3.286116203e-20 0.005242438038)
(-0.1091416065 -0.0463335228 2.286686579e-20 0.1034052429 1.247750108e-19 0.005736363646)
(-0.100782504 -0.04386133811 -6.510912252e-20 0.09462585384 3.830468582e-20 0.006156650186)
(-0.09291568763 -0.04138075372 -2.75403727e-20 0.08641403421 2.91624322e-20 0.006501653423)
(-0.08553022084 -0.03894540304 4.290061201e-20 0.07876093256 -2.094052076e-21 0.00676928828)
(-0.07860645207 -0.03659074612 5.325912833e-21 0.07165068551 1.501167831e-20 0.006955766558)
(-0.07212455606 -0.03433789941 2.748647535e-20 0.06506711069 1.042724433e-19 0.007057445372)
(-0.06606474021 -0.03220234338 1.69312456e-19 0.05899600878 4.593238225e-20 0.00706873143)
(-0.06041029421 -0.03019192232 1.672618779e-19 0.05342546895 6.081643992e-20 0.006984825259)
(-0.05514824999 -0.02831470367 -1.408620821e-19 0.04834973108 -2.466989554e-19 0.00679851891)
(-0.05026936237 -0.02657358675 -8.359992337e-20 0.04376526568 -1.258291238e-19 0.006504096688)
(-0.04577005233 -0.0249748651 8.927110938e-20 0.0396770951 4.049953911e-20 0.006092957232)
(-0.04164995727 -0.02352027615 3.259100255e-20 0.03609143973 6.17904503e-20 0.005558517537)
(-0.03791611845 -0.02221718771 9.609804643e-20 0.03302499836 2.776673355e-20 0.004891120093)
(-0.03457769429 -0.02106792761 8.836778727e-20 0.03049457463 1.576131199e-19 0.004083119664)
(-0.03165407228 -0.0200823945 2.634603012e-19 0.02852980313 1.616328924e-19 0.003124269148)
(-0.0291641597 -0.01926526153 1.152073518e-19 0.02715846186 -8.743625042e-21 0.002005697839)
(-0.02716142319 -0.01859167769 -1.155705789e-19 0.02644414563 2.765686665e-19 0.0007172775534)
(-0.1698387254 -0.0535572698 -5.223739543e-20 0.1692566084 1.590670038e-20 0.0005821169858)
(-0.1611120979 -0.0607810466 -1.048536904e-19 0.1595351424 1.97687867e-20 0.001576955576)
(-0.1511529713 -0.06362657305 1.107004868e-20 0.148689219 -2.486329641e-20 0.002463752273)
(-0.1408752194 -0.06389080458 9.773122665e-20 0.1376181335 3.982387643e-20 0.003257085926)
(-0.1307549352 -0.062632334 7.547266161e-20 0.1267878027 1.387934713e-20 0.003967132543)
(-0.1210225106 -0.06048793914 5.168729993e-20 0.1164229539 6.123688687e-21 0.004599556635)
(-0.1117878235 -0.05784912293 1.668572737e-19 0.1066296335 1.295276648e-20 0.005158189997)
(-0.1030858592 -0.05495963035 1.47699012e-19 0.09744163552 -3.77847441e-20 0.00564422368)
(-0.09492040657 -0.05197293849 1.63917713e-20 0.08886259869 -1.468380364e-19 0.006057807875)
(-0.0872723621 -0.04898655534 -4.884533557e-20 0.0808750403 1.236263809e-19 0.006397321804)
(-0.08011816771 -0.04606161415 -3.382345477e-21 0.07345745801 5.712037213e-20 0.006660709704)
(-0.07342937785 -0.04323832184 1.10033794e-20 0.0665851378 5.714638415e-20 0.006844240046)
(-0.06718063046 -0.04054048565 -4.033452195e-22 0.06023630519 1.101709937e-19 0.006944325269)
(-0.06134793583 -0.03798548267 5.979006405e-20 0.05439247881 1.340713895e-19 0.006955457023)
(-0.05591223241 -0.03558201294 4.849727501e-21 0.04903932024 -2.620186822e-21 0.006872912169)
(-0.05085837658 -0.03333911609 -2.402060935e-19 0.04416877879 7.242417078e-20 0.006689597782)
(-0.0461762328 -0.03125998623 4.214611508e-20 0.0397763411 3.051407828e-19 0.0063998917)
(-0.04186088348 -0.02935183162 1.852436233e-19 0.0358655472 2.08092116e-19 0.00599533628)
(-0.03791173602 -0.02761670969 1.212622267e-19 0.0324422792 2.023302753e-19 0.005469456819)
(-0.03433474274 -0.02606327281 3.143544889e-20 0.02952198643 2.230568204e-19 0.004812756304)
(-0.03113916529 -0.02469442209 1.273145302e-20 0.02712145453 3.043351042e-19 0.004017710761)
(-0.02834327883 -0.02352190948 5.753272667e-20 0.02526904487 4.47281943e-19 0.003074233964)
(-0.0259659654 -0.02255151467 3.710968836e-19 0.02399237722 3.399026041e-19 0.001973588182)
(-0.02406893902 -0.02175592054 -8.276635649e-21 0.02336313641 4.069078989e-19 0.0007058026152)
(-0.1666404354 -0.06293446559 -2.215278455e-20 0.1660696749 -2.888000911e-20 0.0005707604462)
(-0.1558972792 -0.07058315187 -1.118852061e-19 0.1543510818 6.159571038e-21 0.001546197329)
(-0.144806545 -0.07341890948 -2.559915348e-20 0.1423908336 1.146248616e-21 0.002415711395)
(-0.1339400249 -0.0734281519 1.333645026e-19 0.1307464385 -3.457529745e-20 0.003193586361)
(-0.1235690234 -0.07177947237 9.627469624e-20 0.1196792069 -8.058715796e-20 0.00388981656)
(-0.1137981915 -0.06917429323 1.701090981e-20 0.1092882487 7.551794745e-20 0.004509942739)
(-0.1046584157 -0.06604308995 9.335139951e-20 0.09960068806 1.062027287e-20 0.005057727607)
(-0.09613395473 -0.06265298105 4.31959589e-20 0.09059961757 -2.036575243e-19 0.005534337163)
(-0.08819575499 -0.05917169376 3.522346006e-20 0.08225584001 -6.777263066e-20 0.005939914981)
(-0.08080283854 -0.05570525027 2.055384409e-19 0.07452996958 5.15295216e-20 0.006272868961)
(-0.07391740661 -0.05231983417 -4.744563918e-21 0.06738622647 -1.520002243e-21 0.006531180142)
(-0.06750109906 -0.04905866642 2.163042859e-20 0.06078991391 1.339440948e-19 0.006711185149)
(-0.06152231858 -0.04594713569 7.296386186e-20 0.0547129555 2.175307553e-19 0.006809363077)
(-0.05595235361 -0.04300366432 9.879448697e-20 0.04913204604 1.736537512e-19 0.006820307576)
(-0.05076950294 -0.04023731535 1.86163156e-19 0.04403011813 1.549059221e-20 0.006739384812)
(-0.04595618103 -0.03765765059 1.141242033e-20 0.03939654113 2.386481807e-19 0.0065596399)
(-0.04150125486 -0.03526796277 5.252348224e-20 0.03522569638 7.772702074e-20 0.006275558473)
(-0.03739829943 -0.03307610849 6.444197141e-20 0.03151944422 4.808183374e-21 0.005878855215)
(-0.03364645889 -0.0310844191 2.109138774e-19 0.02828327724 -9.058056076e-21 0.005363181649)
(-0.03025045094 -0.02930263898 3.3491082e-19 0.0255312169 5.453763874e-20 0.004719234039)
(-0.02721964249 -0.02773427144 5.670126712e-19 0.02328000777 -4.836351354e-22 0.003939634723)
(-0.0245710243 -0.02639274101 4.311572121e-19 0.02155653286 3.774125259e-19 0.003014491444)
(-0.02232345196 -0.02528496876 4.07637704e-19 0.02038822057 2.770562664e-19 0.001935231381)
(-0.02054789175 -0.02438285768 -9.356635343e-20 0.01985581168 -3.56524023e-20 0.0006920800689)
(-0.1629269825 -0.0721314357 -1.15879688e-20 0.1623693694 -2.264812741e-21 0.0005576131691)
(-0.1500082306 -0.07980761958 -7.940007671e-20 0.1484976445 -1.347969646e-20 0.001510586118)
(-0.1377038718 -0.08239836821 -3.504890902e-20 0.1353437867 -7.074202211e-20 0.002360085076)
(-0.1262131964 -0.0820179166 7.038858724e-20 0.1230931405 -9.639855186e-20 0.003120055975)
(-0.115584641 -0.07990779566 1.721726716e-19 0.1117843636 -5.434629922e-20 0.003800277443)
(-0.1057860773 -0.07681115672 1.095686421e-19 0.1013799256 1.003698986e-19 0.004406151682)
(-0.09676251145 -0.07318295989 -1.809614286e-20 0.09182115102 -3.54502269e-21 0.004941360437)
(-0.08844310831 -0.06930431355 1.374315297e-20 0.08303606661 -1.036243522e-19 0.005407041696)
(-0.0807631731 -0.06535107297 2.449516134e-20 0.07495984087 1.248896425e-19 0.005803332234)
(-0.0736580272 -0.06143364398 7.079960952e-20 0.06752935232 3.575486152e-20 0.006128674877)
(-0.06707445451 -0.05762054345 7.827609539e-20 0.06069336036 8.017801536e-20 0.006381094149)
(-0.06096337984 -0.05395608284 2.210881247e-19 0.05440637237 1.118024715e-19 0.006557007471)
(-0.05528647422 -0.05046600404 1.01748584e-19 0.04863350254 1.569773746e-19 0.006652971679)
(-0.05000993756 -0.04716882912 -5.485747499e-20 0.04334623849 6.378411154e-20 0.006663699072)
(-0.04510923071 -0.04407344151 5.075220039e-20 0.03852457109 5.856198074e-20 0.006584659617)
(-0.04056414139 -0.04118942485 5.042790351e-20 0.03415508549 5.018568662e-20 0.006409055895)
(-0.03636247018 -0.03851995644 -7.151790264e-20 0.03023097094 -3.619797343e-20 0.00613149924)
(-0.03249616344 -0.03607324103 1.128923727e-19 0.0267522637 -7.680369479e-20 0.005743899735)
(-0.02896407967 -0.033851831 1.315298794e-19 0.02372402333 -1.108216367e-19 0.005240056334)
(-0.02576958415 -0.03186634314 -2.409603066e-21 0.02115869689 -1.04457837e-19 0.004610887265)
(-0.0229221407 -0.03012092238 3.374162882e-19 0.01907295518 1.261393631e-21 0.003849185514)
(-0.02043731993 -0.02863046717 8.624641178e-19 0.01749203445 -3.844549658e-20 0.002945285482)
(-0.01833392773 -0.02740307943 6.275189132e-19 0.01644312311 -3.148500151e-19 0.001890804617)
(-0.01669287612 -0.02641175811 3.669925037e-20 0.01601668231 -1.694817454e-19 0.0006761938116)
(-0.1587069326 -0.08112052054 4.692158502e-20 0.1581642154 -8.493958825e-20 0.0005427171805)
(-0.1435256282 -0.0883996682 -7.485443593e-20 0.1420553935 -8.89505606e-20 0.001470234708)
(-0.1299690108 -0.09049455115 -2.322428658e-20 0.1276719619 -1.896678208e-19 0.002297048929)
(-0.1178443084 -0.08958117569 -8.843808828e-21 0.114807582 5.511845604e-20 0.003036726407)
(-0.1069655321 -0.08693429919 1.694078828e-19 0.103266734 3.30380376e-20 0.003698798022)
(-0.09715679244 -0.0833142556 1.975285136e-19 0.09286828091 3.001088598e-20 0.004288511535)
(-0.08827289603 -0.07918497751 -1.476986778e-20 0.08346343928 -3.176481274e-20 0.004809456746)
(-0.08018521179 -0.07483151331 -2.256484151e-20 0.0749224718 9.662302022e-21 0.00526273999)
(-0.07279169899 -0.07043129451 1.357917604e-19 0.06714320721 1.045161391e-19 0.005648491776)
(-0.06600288558 -0.06609469079 6.04097508e-20 0.06003769087 1.699360624e-19 0.005965194718)
(-0.05974945095 -0.06188964584 1.739632795e-20 0.05353852686 5.571433414e-20 0.006210924097)
(-0.05397114687 -0.05785950593 1.479185523e-19 0.04758895773 8.096115687e-20 0.006382189132)
(-0.04862264038 -0.05402905205 2.623577806e-19 0.04214700496 1.193140106e-19 0.006475635418)
(-0.04366484551 -0.0504158981 7.711314943e-20 0.03717873472 8.422676967e-20 0.006486110783)
(-0.03907028656 -0.04702816702 1.090040592e-19 0.03266108462 1.531381633e-19 0.006409201936)
(-0.03481603049 -0.04387493409 3.169464262e-20 0.02857773878 1.171821079e-19 0.006238291714)
(-0.03088878191 -0.04095903109 -1.227941215e-19 0.02492064987 3.848726952e-20 0.005968132041)
(-0.02727879281 -0.03828869254 -2.406781948e-19 0.02168793705 1.273821197e-19 0.005590855752)
(-0.02398462367 -0.0358666307 2.705549516e-20 0.01888419645 2.133231647e-19 0.00510042722)
(-0.02100820653 -0.03370409466 1.736399973e-19 0.0165201898 2.357058865e-19 0.00448801673)
(-0.0183590843 -0.03180590955 9.162956687e-20 0.01461247392 2.304786382e-19 0.003746610389)
(-0.01605130657 -0.03018823505 -4.434728718e-20 0.01318450681 -5.134431313e-20 0.002866799759)
(-0.01410359796 -0.02886039139 4.143643635e-19 0.01226317863 -2.500206182e-19 0.001840419329)
(-0.01260717814 -0.02779846244 2.972741758e-19 0.01194900415 -3.235199313e-19 0.0006581739878)
(-0.1539902807 -0.08987417605 8.829508058e-20 0.1534641636 -7.633982022e-20 0.000526117121)
(-0.1365354568 -0.09631728555 -3.473212461e-21 0.1351101898 -1.73453431e-19 0.001425266997)
(-0.121733638 -0.09765747975 -7.958396021e-20 0.11950684 -3.137429722e-21 0.002226797962)
(-0.1089918771 -0.09606396066 5.082513976e-20 0.1060480209 1.485162435e-19 0.002943856176)
(-0.09788509537 -0.09280348698 8.795696883e-20 0.09429940142 4.215517729e-20 0.003585693951)
(-0.08809093419 -0.0886281063 2.297860642e-19 0.08393354541 -2.945979556e-20 0.004157388783)
(-0.0793723896 -0.08399462754 3.97586074e-20 0.07470996213 -3.825890763e-20 0.004662427467)
(-0.0715420942 -0.07918161927 -2.448707267e-21 0.06644021246 3.59486444e-20 0.005101881743)
(-0.06446010328 -0.07436129519 1.517569678e-19 0.05898422742 1.145032923e-19 0.005475875867)
(-0.05801183933 -0.06963941022 1.281583171e-19 0.0522289014 1.378278014e-19 0.005782937927)
(-0.0521117002 -0.06508032426 -2.112484713e-20 0.04609049964 5.155604405e-20 0.006021200564)
(-0.04668817447 -0.06072429013 1.755925673e-19 0.04050089792 1.12957283e-19 0.006187276547)
(-0.04168888476 -0.05659376914 2.966020846e-19 0.03541097347 -2.457944607e-20 0.006277911285)
(-0.0370694434 -0.05270442365 2.099510994e-19 0.0307813397 -1.520429984e-19 0.006288103705)
(-0.03279944255 -0.04906301819 2.644685107e-19 0.02658587071 -6.853223835e-20 0.006213571832)
(-0.02885322791 -0.04567757007 1.761066057e-19 0.02280533085 -8.044052279e-20 0.006047897055)
(-0.02521641924 -0.04255033138 5.41831052e-20 0.01943042981 -3.121574911e-20 0.005785989432)
(-0.02187756262 -0.03968923512 2.593134972e-19 0.01645733614 -2.309805452e-20 0.005420226477)
(-0.01883491917 -0.03709709242 -6.048220737e-20 0.01389016114 2.331996479e-19 0.004944758031)
(-0.01608894754 -0.03478553096 -1.115197343e-20 0.0117379145 1.821717048e-19 0.004351033043)
(-0.01364924213 -0.03276009334 1.601571677e-19 0.01001698881 3.091213572e-19 0.003632253323)
(-0.01152826395 -0.0310379766 -1.617373971e-19 0.008748965858 2.711001632e-19 0.00277929809)
(-0.009744606187 -0.02962976032 -4.238771517e-19 0.007960362184 -2.070592167e-19 0.001784244003)
(-0.008399786937 -0.0285166809 1.649267462e-19 0.007761704614 -1.060697932e-19 0.0006380823224)
(-0.1487885165 -0.09836503259 3.474931648e-20 0.1482806507 -2.967536098e-21 0.0005078658765)
(-0.1291268871 -0.1035317773 -5.970971397e-21 0.1277510621 -4.676092747e-20 0.00137582505)
(-0.1131335956 -0.1038584359 -6.635291954e-20 0.1109840412 1.786023796e-19 0.002149554379)
(-0.09981912899 -0.101438267 4.518746481e-20 0.09697738979 8.307538322e-20 0.002841739204)
(-0.08852170998 -0.09748847682 1.902432371e-20 0.08506038621 1.08953667e-20 0.003461323779)
(-0.07877417769 -0.09272716302 2.561599391e-19 0.07476097825 -9.985318627e-20 0.004013199442)
(-0.07024887755 -0.08758780029 1.404087696e-19 0.06574813819 -7.325520124e-20 0.004500739361)
(-0.06270056379 -0.08233198488 1.482104645e-19 0.05777558652 -1.13216819e-19 0.004924977273)
(-0.05595200693 -0.0771198771 2.990404728e-19 0.05066597554 -3.047361989e-20 0.005286031386)
(-0.04986400518 -0.07204801163 3.317054181e-19 0.04428152523 -7.862268062e-20 0.005582479951)
(-0.04433502487 -0.06717413898 2.786186156e-20 0.03852250531 -2.344182821e-20 0.005812519554)
(-0.03928257149 -0.06253328083 2.669414432e-20 0.03330969398 2.317247248e-20 0.005972877511)
(-0.03464742423 -0.05814421424 8.560874068e-20 0.02858701459 -6.40582748e-20 0.006060409639)
(-0.03038006108 -0.05401960444 1.638311148e-20 0.02430977794 -7.742837065e-20 0.006070283137)
(-0.02644725452 -0.05016425668 7.468591949e-20 0.02044889409 1.937712527e-19 0.005998360435)
(-0.02282072604 -0.04658458128 5.54415241e-20 0.01698228255 1.846631353e-19 0.005838443492)
(-0.01948506375 -0.04328201457 -9.799675036e-20 0.01389944833 -5.301854766e-20 0.005585615419)
(-0.0164271536 -0.04026385685 9.982390821e-20 0.01119463059 -9.528394818e-21 0.005232523005)
(-0.01364496507 -0.03753295628 4.778312403e-19 0.008871446523 3.597625419e-19 0.004773518542)
(-0.01113748648 -0.03510106305 2.471327168e-19 0.006937130401 2.10700489e-19 0.004200356082)
(-0.008914328816 -0.03297447046 6.036836842e-19 0.005407855581 6.801442602e-20 0.003506473235)
(-0.006986330648 -0.031171183 2.173552978e-19 0.004303266157 -4.218549214e-19 0.002683064491)
(-0.005371894705 -0.02970307596 -4.700252722e-19 0.003649422724 -4.363598516e-19 0.001722471981)
(-0.004182468381 -0.0285586035 -8.471664968e-20 0.003566472459 3.035947277e-20 0.0006159959228)
(-0.1431146598 -0.1065659947 1.955680415e-20 0.1426266401 5.614486145e-20 0.0004880196877)
(-0.1213900864 -0.1100279729 -1.064754383e-20 0.1200680235 7.671042852e-20 0.001322062892)
(-0.1043053511 -0.109090235 -5.411687186e-20 0.1022397912 1.806513965e-19 0.002065559955)
(-0.09048965211 -0.1057023664 3.790013835e-20 0.0877589563 1.830650964e-20 0.002730695817)
(-0.07905392922 -0.1009913292 -6.730897337e-20 0.07572785099 -4.120740163e-20 0.003326078228)
(-0.06939223494 -0.09561615455 1.004508522e-19 0.06553583784 -4.453639543e-20 0.003856397096)
(-0.06109017966 -0.08997112241 1.002499271e-19 0.05676527814 -7.105878798e-20 0.004324901525)
(-0.0538472871 -0.08429060013 -7.003103619e-20 0.04911470274 -5.638997755e-20 0.004732584361)
(-0.04745083004 -0.07871601412 1.269220311e-19 0.04237127227 1.266023834e-20 0.005079557774)
(-0.04173825651 -0.07333018414 2.942719037e-19 0.03637380127 1.362567991e-20 0.005364455247)
(-0.03659297112 -0.0681812989 2.703641664e-19 0.03100742763 -6.984881853e-21 0.005585543495)
(-0.03192214873 -0.0632970662 1.099132222e-19 0.02618247364 9.483802731e-20 0.005739675096)
(-0.02766016194 -0.05869125047 7.186271703e-20 0.02183633505 9.02602664e-20 0.005823826889)
(-0.02375270499 -0.05437250195 2.116345261e-19 0.01791935617 8.94720854e-20 0.005833348818)
(-0.0201639473 -0.05034308423 4.094766968e-19 0.01439968544 2.665558574e-19 0.005764261858)
(-0.01686317845 -0.0466072652 3.087501676e-19 0.01125257233 -1.655285484e-19 0.005610606124)
(-0.01383404886 -0.04316543765 -8.528566479e-20 0.008466394399 -3.012907831e-19 0.005367654464)
(-0.01106188582 -0.04002394452 1.209096754e-19 0.006033541599 3.951293771e-20 0.005028344223)
(-0.008544384351 -0.03718561122 5.485914593e-19 0.003957135562 -9.259623761e-20 0.004587248788)
(-0.006279107831 -0.03466205839 1.391690595e-19 0.002242655502 -3.797133646e-19 0.004036452329)
(-0.004275643007 -0.0324603592 -7.760050772e-21 0.0009059936993 -4.622263076e-19 0.003369649307)
(-0.002543207305 -0.03059909469 1.923673323e-19 -3.516981881e-05 -5.962661663e-19 0.002578377124)
(-0.001099940249 -0.02909146665 -2.520751938e-19 -0.0005553276047 -7.315757785e-20 0.001655267854)
(-6.647622365e-05 -0.027935155 4.426962446e-20 -0.0005254854485 1.809353469e-19 0.0005919616722)
(-0.13698335 -0.1144503143 1.315503961e-20 0.1365167082 8.270069934e-20 0.0004666417574)
(-0.1134140534 -0.1158040509 4.903323323e-20 0.1121499027 7.375992189e-20 0.001264150703)
(-0.09538248149 -0.1133668906 -5.31094982e-20 0.0934074009 1.478508008e-19 0.001975080591)
(-0.08116308346 -0.1088803731 8.777982972e-20 0.0785520058 -1.053268759e-19 0.002611077664)
(-0.06965571672 -0.1033425582 -5.834970969e-20 0.06647533084 -5.949598405e-20 0.003180385876)
(-0.06012586525 -0.09732956373 1.487848443e-20 0.0564383864 5.779966152e-20 0.003687478847)
(-0.05207898001 -0.0911814271 1.502860823e-19 0.04794350852 -1.911416144e-21 0.004135471492)
(-0.04516372886 -0.08509556194 3.480625098e-20 0.04063841614 3.320486376e-20 0.004525312718)
(-0.03913480336 -0.07918833338 2.745069249e-21 0.03427769473 1.328141167e-19 0.00485710863)
(-0.03380833744 -0.07352459243 8.819089662e-20 0.02867878489 1.401036993e-19 0.005129552548)
(-0.02905404866 -0.0681401758 1.787927956e-19 0.02371306135 3.15795889e-20 0.005340987313)
(-0.02476978995 -0.06305351045 2.608826123e-19 0.01928138835 7.936032805e-20 0.005488401603)
(-0.02088419517 -0.05827209557 2.165139997e-19 0.01531529201 -1.863898055e-19 0.005568903155)
(-0.01733870146 -0.0537996081 -4.881256099e-20 0.01176066045 -4.198061299e-20 0.005578041006)
(-0.01409519534 -0.04963522162 3.209160564e-19 0.008583188559 -1.900403461e-19 0.005512006777)
(-0.01112081941 -0.04578055868 9.577937026e-20 0.00575572086 -3.658555661e-19 0.005365098553)
(-0.008398420277 -0.04223475387 1.426771763e-20 0.003265627814 -1.91231323e-19 0.005132792463)
(-0.00591192157 -0.03900288623 -9.500264874e-20 0.001103583312 -5.724516276e-20 0.004808338258)
(-0.003658768522 -0.03608770101 1.239725855e-19 -0.0007277774773 5.237151733e-20 0.004386545999)
(-0.001635183638 -0.03350044908 2.59578604e-19 -0.00222467054 -1.512904274e-19 0.003859854178)
(0.0001493187749 -0.03124900864 -9.327654739e-20 -0.003371552111 5.136733629e-21 0.003222233336)
(0.001687106919 -0.02935231218 -3.53544155e-20 -0.00415269699 4.541755803e-21 0.002465590071)
(0.0029603876 -0.02782491149 -2.51479576e-20 -0.004543256931 3.402643855e-19 0.001582869331)
(0.00384043402 -0.02667559864 6.846201504e-21 -0.004406508926 -7.835050161e-21 0.000566074906)
(-0.1304108425 -0.1219917229 1.129119841e-20 0.1299670437 6.48529001e-20 0.0004437988435)
(-0.1052845006 -0.1208710255 1.110252034e-19 0.1040822305 4.600618273e-20 0.001202270176)