/*--------------------------------*- C++ -*----------------------------------*\
| =========                 |                                                 |
| \\      /  F ield         | OpenFOAM: The Open Source CFD Toolbox           |
|  \\    /   O peration     | Version:  2.2.0                                 |
|   \\  /    A nd           | Web:      www.OpenFOAM.org                      |
|    \\/     M anipulation  |                                                 |
\*---------------------------------------------------------------------------*/
FoamFile
{
    version     2.0;
    format      ascii;
    class       volVectorField;
    location    "40";
    object      s;
}
// * * * * * * * * * * * * * * * * * * * * * * * * * * * * * * * * * * * * * //

dimensions      [0 1 -1 0 0 0 0];

internalField   nonuniform List<vector> 
1280
(
(1.38627 0.0544676 0)
(1.18644 0.0466157 0)
(1.03656 0.0407268 0)
(0.920356 0.036161 0)
(0.827252 0.0325029 0)
(0.751521 0.0295274 0)
(0.688062 0.0270341 0)
(0.634934 0.0249467 0)
(0.588889 0.0231375 0)
(0.549564 0.0215924 0)
(0.514738 0.0202241 0)
(0.484284 0.0190276 0)
(0.457263 0.0179659 0)
(0.432745 0.0170026 0)
(0.41136 0.0161624 0)
(0.391125 0.0153673 0)
(1.37772 0.163066 0)
(1.17913 0.13956 0)
(1.03017 0.121929 0)
(0.914682 0.10826 0)
(0.822151 0.0973081 0)
(0.746887 0.0884 0)
(0.68382 0.0809355 0)
(0.631019 0.0746861 0)
(0.585258 0.0692699 0)
(0.546175 0.0646441 0)
(0.511564 0.0605477 0)
(0.481298 0.0569654 0)
(0.454444 0.053787 0)
(0.430077 0.0509029 0)
(0.408824 0.0483875 0)
(0.388713 0.0460073 0)
(1.36068 0.270658 0)
(1.16455 0.231643 0)
(1.01743 0.20238 0)
(0.903368 0.179691 0)
(0.811982 0.161513 0)
(0.737649 0.146728 0)
(0.675362 0.134338 0)
(0.623214 0.123965 0)
(0.578019 0.114975 0)
(0.53942 0.107297 0)
(0.505237 0.100498 0)
(0.475345 0.094552 0)
(0.448823 0.0892764 0)
(0.424757 0.0844895 0)
(0.403768 0.0803144 0)
(0.383905 0.0763635 0)
(1.33525 0.376582 0)
(1.14278 0.322298 0)
(0.998414 0.281582 0)
(0.886485 0.250015 0)
(0.796807 0.224723 0)
(0.723863 0.204151 0)
(0.66274 0.186912 0)
(0.611567 0.17248 0)
(0.567217 0.159972 0)
(0.529338 0.149289 0)
(0.495794 0.139828 0)
(0.466461 0.131556 0)
(0.440435 0.124215 0)
(0.416819 0.117555 0)
(0.396221 0.111746 0)
(0.376731 0.106249 0)
(1.30159 0.480183 0)
(1.11397 0.410966 0)
(0.973244 0.359049 0)
(0.864136 0.318797 0)
(0.776719 0.286547 0)
(0.705614 0.260315 0)
(0.646032 0.238334 0)
(0.596149 0.219931 0)
(0.552917 0.203982 0)
(0.515994 0.19036 0)
(0.483295 0.178297 0)
(0.454702 0.167748 0)
(0.429331 0.158389 0)
(0.406311 0.149896 0)
(0.386233 0.142489 0)
(0.367233 0.135479 0)
(1.2599 0.580824 0)
(1.07829 0.4971 0)
(0.942073 0.434302 0)
(0.83646 0.385613 0)
(0.751842 0.346604 0)
(0.683015 0.314874 0)
(0.625341 0.288286 0)
(0.577056 0.266026 0)
(0.535208 0.246734 0)
(0.499467 0.230258 0)
(0.467816 0.215666 0)
(0.440138 0.202907 0)
(0.415581 0.191585 0)
(0.393297 0.181313 0)
(0.373862 0.172353 0)
(0.355471 0.163875 0)
(1.21045 0.677884 0)
(1.03597 0.580169 0)
(0.905094 0.506877 0)
(0.803626 0.450053 0)
(0.72233 0.404524 0)
(0.656205 0.367492 0)
(0.600795 0.336461 0)
(0.554405 0.310482 0)
(0.5142 0.287966 0)
(0.479862 0.268736 0)
(0.449453 0.251706 0)
(0.422862 0.236814 0)
(0.399268 0.223601 0)
(0.377859 0.211611 0)
(0.359187 0.201155 0)
(0.341518 0.191259 0)
(1.15353 0.770765 0)
(0.987253 0.659662 0)
(0.862535 0.576327 0)
(0.765838 0.511717 0)
(0.688365 0.459951 0)
(0.625349 0.417845 0)
(0.572544 0.382562 0)
(0.528336 0.353023 0)
(0.490021 0.327422 0)
(0.457298 0.305557 0)
(0.428319 0.286194 0)
(0.402978 0.269261 0)
(0.380494 0.254238 0)
(0.360092 0.240606 0)
(0.342298 0.228716 0)
(0.325459 0.217465 0)
(1.0895 0.858893 0)
(0.932453 0.735087 0)
(0.814658 0.642224 0)
(0.723329 0.570226 0)
(0.650156 0.512541 0)
(0.590637 0.465621 0)
(0.540764 0.426304 0)
(0.499009 0.393387 0)
(0.462821 0.364859 0)
(0.431914 0.340494 0)
(0.404544 0.318917 0)
(0.38061 0.300049 0)
(0.359373 0.283307 0)
(0.340104 0.268116 0)
(0.323298 0.254867 0)
(0.307394 0.24233 0)
(1.01875 0.941727 0)
(0.871904 0.80598 0)
(0.761758 0.704162 0)
(0.676359 0.62522 0)
(0.607938 0.561972 0)
(0.552284 0.510526 0)
(0.505649 0.467417 0)
(0.466606 0.431326 0)
(0.432768 0.400047 0)
(0.403868 0.373332 0)
(0.378275 0.349674 0)
(0.355895 0.328986 0)
(0.336038 0.31063 0)
(0.318019 0.293974 0)
(0.302304 0.279447 0)
(0.287433 0.265701 0)
(0.941727 1.01875 0)
(0.80598 0.871904 0)
(0.704162 0.761758 0)
(0.62522 0.676359 0)
(0.561972 0.607938 0)
(0.510526 0.552284 0)
(0.467417 0.505649 0)
(0.431326 0.466606 0)
(0.400047 0.432768 0)
(0.373332 0.403868 0)
(0.349674 0.378275 0)
(0.328986 0.355895 0)
(0.31063 0.336038 0)
(0.293974 0.318019 0)
(0.279447 0.302304 0)
(0.265701 0.287433 0)
(0.858893 1.0895 0)
(0.735087 0.932453 0)
(0.642224 0.814657 0)
(0.570226 0.723329 0)
(0.512541 0.650155 0)
(0.465621 0.590637 0)
(0.426304 0.540764 0)
(0.393387 0.499009 0)
(0.364859 0.462821 0)
(0.340494 0.431914 0)
(0.318917 0.404544 0)
(0.300049 0.38061 0)
(0.283307 0.359373 0)
(0.268116 0.340104 0)
(0.254867 0.323298 0)
(0.24233 0.307394 0)
(0.770765 1.15353 0)
(0.659662 0.987252 0)
(0.576327 0.862534 0)
(0.511717 0.765838 0)
(0.459951 0.688365 0)
(0.417845 0.625348 0)
(0.382562 0.572544 0)
(0.353023 0.528335 0)
(0.327422 0.490021 0)
(0.305557 0.457298 0)
(0.286194 0.428319 0)
(0.269261 0.402978 0)
(0.254238 0.380494 0)
(0.240606 0.360092 0)
(0.228716 0.342298 0)
(0.217465 0.325459 0)
(0.677884 1.21045 0)
(0.580169 1.03597 0)
(0.506877 0.905094 0)
(0.450053 0.803626 0)
(0.404524 0.72233 0)
(0.367492 0.656204 0)
(0.336461 0.600794 0)
(0.310482 0.554405 0)
(0.287966 0.5142 0)
(0.268736 0.479862 0)
(0.251706 0.449453 0)
(0.236814 0.422862 0)
(0.223601 0.399268 0)
(0.211611 0.377859 0)
(0.201155 0.359187 0)
(0.191259 0.341518 0)
(0.580824 1.2599 0)
(0.4971 1.07829 0)
(0.434302 0.942073 0)
(0.385613 0.83646 0)
(0.346604 0.751842 0)
(0.314874 0.683015 0)
(0.288286 0.625341 0)
(0.266026 0.577056 0)
(0.246734 0.535208 0)
(0.230258 0.499467 0)
(0.215666 0.467816 0)
(0.202907 0.440138 0)
(0.191585 0.415581 0)
(0.181313 0.393297 0)
(0.172353 0.373862 0)
(0.163875 0.355471 0)
(0.480183 1.30159 0)
(0.410966 1.11397 0)
(0.359049 0.973243 0)
(0.318797 0.864136 0)
(0.286547 0.776719 0)
(0.260315 0.705614 0)
(0.238334 0.646032 0)
(0.219931 0.596149 0)
(0.203982 0.552917 0)
(0.19036 0.515993 0)
(0.178297 0.483295 0)
(0.167748 0.454702 0)
(0.158389 0.429331 0)
(0.149896 0.406311 0)
(0.142489 0.386233 0)
(0.135479 0.367233 0)
(0.376582 1.33525 0)
(0.322298 1.14278 0)
(0.281582 0.998414 0)
(0.250015 0.886485 0)
(0.224723 0.796806 0)
(0.20415 0.723863 0)
(0.186912 0.66274 0)
(0.17248 0.611567 0)
(0.159972 0.567216 0)
(0.149289 0.529338 0)
(0.139828 0.495794 0)
(0.131556 0.466461 0)
(0.124215 0.440435 0)
(0.117555 0.416819 0)
(0.111746 0.396221 0)
(0.106249 0.376731 0)
(0.270658 1.36068 0)
(0.231643 1.16454 0)
(0.20238 1.01743 0)
(0.179691 0.903368 0)
(0.161513 0.811982 0)
(0.146728 0.737649 0)
(0.134338 0.675362 0)
(0.123965 0.623214 0)
(0.114975 0.578019 0)
(0.107297 0.53942 0)
(0.100498 0.505237 0)
(0.094552 0.475345 0)
(0.0892764 0.448823 0)
(0.0844895 0.424757 0)
(0.0803144 0.403768 0)
(0.0763636 0.383906 0)
(0.163066 1.37772 0)
(0.13956 1.17913 0)
(0.121929 1.03017 0)
(0.10826 0.914682 0)
(0.097308 0.822151 0)
(0.0883999 0.746887 0)
(0.0809354 0.68382 0)
(0.0746861 0.631019 0)
(0.0692699 0.585258 0)
(0.0646441 0.546175 0)
(0.0605476 0.511564 0)
(0.0569654 0.481298 0)
(0.053787 0.454444 0)
(0.0509029 0.430077 0)
(0.0483875 0.408824 0)
(0.0460073 0.388713 0)
(0.0544676 1.38627 0)
(0.0466157 1.18644 0)
(0.0407267 1.03656 0)
(0.0361609 0.920356 0)
(0.0325028 0.827251 0)
(0.0295273 0.75152 0)
(0.027034 0.688062 0)
(0.0249466 0.634934 0)
(0.0231375 0.588889 0)
(0.0215924 0.549563 0)
(0.0202241 0.514738 0)
(0.0190276 0.484284 0)
(0.0179659 0.457263 0)
(0.0170026 0.432745 0)
(0.0161624 0.41136 0)
(0.0153673 0.391125 0)
(-0.0544675 1.38627 0)
(-0.0466157 1.18644 0)
(-0.0407267 1.03656 0)
(-0.0361609 0.920356 0)
(-0.0325028 0.827251 0)
(-0.0295273 0.75152 0)
(-0.027034 0.688062 0)
(-0.0249466 0.634934 0)
(-0.0231375 0.588889 0)
(-0.0215924 0.549563 0)
(-0.0202241 0.514738 0)
(-0.0190276 0.484284 0)
(-0.0179659 0.457263 0)
(-0.0170026 0.432745 0)
(-0.0161624 0.41136 0)
(-0.0153673 0.391125 0)
(-0.163066 1.37772 0)
(-0.13956 1.17913 0)
(-0.121929 1.03017 0)
(-0.10826 0.914681 0)
(-0.097308 0.822151 0)
(-0.0883999 0.746887 0)
(-0.0809354 0.68382 0)
(-0.0746861 0.631019 0)
(-0.0692699 0.585258 0)
(-0.0646441 0.546175 0)
(-0.0605476 0.511564 0)
(-0.0569654 0.481298 0)
(-0.053787 0.454444 0)
(-0.0509029 0.430077 0)
(-0.0483875 0.408824 0)
(-0.0460073 0.388713 0)
(-0.270658 1.36068 0)
(-0.231643 1.16454 0)
(-0.202379 1.01743 0)
(-0.179691 0.903368 0)
(-0.161513 0.811982 0)
(-0.146728 0.737649 0)
(-0.134338 0.675362 0)
(-0.123965 0.623214 0)
(-0.114975 0.578019 0)
(-0.107297 0.53942 0)
(-0.100498 0.505237 0)
(-0.094552 0.475345 0)
(-0.0892764 0.448823 0)
(-0.0844895 0.424757 0)
(-0.0803144 0.403768 0)
(-0.0763636 0.383905 0)
(-0.376582 1.33525 0)
(-0.322298 1.14278 0)
(-0.281582 0.998414 0)
(-0.250015 0.886485 0)
(-0.224723 0.796806 0)
(-0.20415 0.723863 0)
(-0.186912 0.66274 0)
(-0.17248 0.611567 0)
(-0.159972 0.567216 0)
(-0.149289 0.529338 0)
(-0.139828 0.495794 0)
(-0.131556 0.466461 0)
(-0.124215 0.440435 0)
(-0.117555 0.416819 0)
(-0.111746 0.396221 0)
(-0.106249 0.376731 0)
(-0.480183 1.30159 0)
(-0.410966 1.11397 0)
(-0.359049 0.973243 0)
(-0.318797 0.864136 0)
(-0.286547 0.776719 0)
(-0.260315 0.705614 0)
(-0.238334 0.646032 0)
(-0.219931 0.596149 0)
(-0.203982 0.552917 0)
(-0.19036 0.515993 0)
(-0.178297 0.483295 0)
(-0.167748 0.454701 0)
(-0.158389 0.429331 0)
(-0.149896 0.406311 0)
(-0.142489 0.386233 0)
(-0.135479 0.367233 0)
(-0.580824 1.2599 0)
(-0.4971 1.07829 0)
(-0.434302 0.942072 0)
(-0.385613 0.83646 0)
(-0.346604 0.751842 0)
(-0.314874 0.683015 0)
(-0.288286 0.625341 0)
(-0.266026 0.577056 0)
(-0.246734 0.535208 0)
(-0.230258 0.499467 0)
(-0.215666 0.467816 0)
(-0.202907 0.440138 0)
(-0.191585 0.415581 0)
(-0.181313 0.393297 0)
(-0.172353 0.373862 0)
(-0.163875 0.355471 0)
(-0.677884 1.21045 0)
(-0.580169 1.03597 0)
(-0.506877 0.905093 0)
(-0.450052 0.803626 0)
(-0.404524 0.72233 0)
(-0.367492 0.656204 0)
(-0.336461 0.600794 0)
(-0.310481 0.554405 0)
(-0.287966 0.5142 0)
(-0.268736 0.479862 0)
(-0.251706 0.449453 0)
(-0.236814 0.422862 0)
(-0.223601 0.399268 0)
(-0.211611 0.377859 0)
(-0.201155 0.359187 0)
(-0.191259 0.341518 0)
(-0.770765 1.15353 0)
(-0.659661 0.987252 0)
(-0.576327 0.862534 0)
(-0.511717 0.765838 0)
(-0.459951 0.688365 0)
(-0.417844 0.625348 0)
(-0.382562 0.572544 0)
(-0.353022 0.528335 0)
(-0.327422 0.490021 0)
(-0.305557 0.457298 0)
(-0.286194 0.428319 0)
(-0.269261 0.402978 0)
(-0.254238 0.380494 0)
(-0.240606 0.360092 0)
(-0.228716 0.342298 0)
(-0.217465 0.325459 0)
(-0.858893 1.0895 0)
(-0.735087 0.932453 0)
(-0.642224 0.814657 0)
(-0.570226 0.723328 0)
(-0.512541 0.650155 0)
(-0.465621 0.590637 0)
(-0.426304 0.540763 0)
(-0.393387 0.499009 0)
(-0.364859 0.462821 0)
(-0.340494 0.431914 0)
(-0.318917 0.404544 0)
(-0.300049 0.38061 0)
(-0.283307 0.359373 0)
(-0.268116 0.340104 0)
(-0.254867 0.323297 0)
(-0.24233 0.307394 0)
(-0.941726 1.01875 0)
(-0.80598 0.871904 0)
(-0.704162 0.761758 0)
(-0.62522 0.676359 0)
(-0.561972 0.607938 0)
(-0.510526 0.552284 0)
(-0.467417 0.505649 0)
(-0.431326 0.466606 0)
(-0.400047 0.432768 0)
(-0.373332 0.403868 0)
(-0.349674 0.378275 0)
(-0.328986 0.355895 0)
(-0.31063 0.336037 0)
(-0.293974 0.318019 0)
(-0.279447 0.302304 0)
(-0.265701 0.287433 0)
(-1.01875 0.941726 0)
(-0.871904 0.80598 0)
(-0.761758 0.704162 0)
(-0.676359 0.62522 0)
(-0.607938 0.561972 0)
(-0.552284 0.510526 0)
(-0.505649 0.467417 0)
(-0.466606 0.431326 0)
(-0.432768 0.400047 0)
(-0.403868 0.373332 0)
(-0.378275 0.349674 0)
(-0.355895 0.328986 0)
(-0.336037 0.31063 0)
(-0.318019 0.293974 0)
(-0.302304 0.279447 0)
(-0.287433 0.265701 0)
(-1.0895 0.858893 0)
(-0.932453 0.735087 0)
(-0.814657 0.642224 0)
(-0.723328 0.570226 0)
(-0.650155 0.512541 0)
(-0.590637 0.465621 0)
(-0.540763 0.426304 0)
(-0.499009 0.393387 0)
(-0.462821 0.364859 0)
(-0.431914 0.340494 0)
(-0.404544 0.318917 0)
(-0.38061 0.300048 0)
(-0.359373 0.283307 0)
(-0.340104 0.268116 0)
(-0.323297 0.254867 0)
(-0.307394 0.24233 0)
(-1.15353 0.770765 0)
(-0.987252 0.659661 0)
(-0.862534 0.576327 0)
(-0.765838 0.511717 0)
(-0.688365 0.459951 0)
(-0.625348 0.417844 0)
(-0.572544 0.382562 0)
(-0.528335 0.353022 0)
(-0.490021 0.327421 0)
(-0.457298 0.305557 0)
(-0.428319 0.286194 0)
(-0.402978 0.269261 0)
(-0.380493 0.254238 0)
(-0.360092 0.240605 0)
(-0.342297 0.228716 0)
(-0.325459 0.217465 0)
(-1.21045 0.677884 0)
(-1.03597 0.580169 0)
(-0.905093 0.506877 0)
(-0.803626 0.450052 0)
(-0.72233 0.404524 0)
(-0.656204 0.367492 0)
(-0.600794 0.336461 0)
(-0.554404 0.310481 0)
(-0.514199 0.287966 0)
(-0.479862 0.268735 0)
(-0.449453 0.251706 0)
(-0.422862 0.236814 0)
(-0.399268 0.223601 0)
(-0.377859 0.211611 0)
(-0.359187 0.201154 0)
(-0.341518 0.191259 0)
(-1.2599 0.580824 0)
(-1.07829 0.4971 0)
(-0.942072 0.434302 0)
(-0.836459 0.385613 0)
(-0.751842 0.346604 0)
(-0.683014 0.314874 0)
(-0.625341 0.288286 0)
(-0.577055 0.266026 0)
(-0.535208 0.246734 0)
(-0.499467 0.230258 0)
(-0.467816 0.215666 0)
(-0.440138 0.202907 0)
(-0.41558 0.191585 0)
(-0.393297 0.181312 0)
(-0.373862 0.172353 0)
(-0.355471 0.163874 0)
(-1.30159 0.480183 0)
(-1.11397 0.410966 0)
(-0.973243 0.359049 0)
(-0.864136 0.318797 0)
(-0.776718 0.286547 0)
(-0.705614 0.260315 0)
(-0.646032 0.238334 0)
(-0.596149 0.219931 0)
(-0.552916 0.203982 0)
(-0.515993 0.19036 0)
(-0.483295 0.178297 0)
(-0.454701 0.167748 0)
(-0.429331 0.158389 0)
(-0.40631 0.149896 0)
(-0.386232 0.142489 0)
(-0.367233 0.135479 0)
(-1.33525 0.376582 0)
(-1.14278 0.322298 0)
(-0.998414 0.281582 0)
(-0.886485 0.250015 0)
(-0.796806 0.224723 0)
(-0.723863 0.20415 0)
(-0.662739 0.186912 0)
(-0.611567 0.17248 0)
(-0.567216 0.159972 0)
(-0.529338 0.149289 0)
(-0.495794 0.139828 0)
(-0.466461 0.131556 0)
(-0.440434 0.124215 0)
(-0.416819 0.117555 0)
(-0.396221 0.111746 0)
(-0.37673 0.106249 0)
(-1.36068 0.270658 0)
(-1.16454 0.231643 0)
(-1.01743 0.202379 0)
(-0.903368 0.179691 0)
(-0.811981 0.161513 0)
(-0.737649 0.146727 0)
(-0.675361 0.134338 0)
(-0.623214 0.123965 0)
(-0.578019 0.114975 0)
(-0.539419 0.107297 0)
(-0.505236 0.100498 0)
(-0.475345 0.0945519 0)
(-0.448823 0.0892764 0)
(-0.424757 0.0844894 0)
(-0.403767 0.0803143 0)
(-0.383905 0.0763635 0)
(-1.37772 0.163066 0)
(-1.17913 0.13956 0)
(-1.03017 0.121929 0)
(-0.914681 0.10826 0)
(-0.822151 0.097308 0)
(-0.746887 0.0883999 0)
(-0.68382 0.0809354 0)
(-0.631019 0.074686 0)
(-0.585258 0.0692698 0)
(-0.546175 0.0646441 0)
(-0.511564 0.0605476 0)
(-0.481298 0.0569653 0)
(-0.454444 0.0537869 0)
(-0.430076 0.0509029 0)
(-0.408824 0.0483875 0)
(-0.388713 0.0460072 0)
(-1.38627 0.0544675 0)
(-1.18644 0.0466157 0)
(-1.03656 0.0407267 0)
(-0.920356 0.0361609 0)
(-0.827251 0.0325028 0)
(-0.75152 0.0295273 0)
(-0.688062 0.027034 0)
(-0.634934 0.0249466 0)
(-0.588889 0.0231375 0)
(-0.549563 0.0215924 0)
(-0.514737 0.0202241 0)
(-0.484284 0.0190275 0)
(-0.457263 0.0179659 0)
(-0.432744 0.0170026 0)
(-0.41136 0.0161624 0)
(-0.391125 0.0153673 0)
(-1.38627 -0.0544675 0)
(-1.18644 -0.0466157 0)
(-1.03656 -0.0407267 0)
(-0.920356 -0.0361609 0)
(-0.827251 -0.0325028 0)
(-0.75152 -0.0295273 0)
(-0.688062 -0.0270341 0)
(-0.634934 -0.0249466 0)
(-0.588889 -0.0231375 0)
(-0.549563 -0.0215924 0)
(-0.514737 -0.0202241 0)
(-0.484284 -0.0190276 0)
(-0.457263 -0.0179659 0)
(-0.432744 -0.0170026 0)
(-0.41136 -0.0161624 0)
(-0.391125 -0.0153673 0)
(-1.37772 -0.163066 0)
(-1.17913 -0.13956 0)
(-1.03017 -0.121929 0)
(-0.914681 -0.10826 0)
(-0.822151 -0.097308 0)
(-0.746887 -0.0883999 0)
(-0.68382 -0.0809354 0)
(-0.631019 -0.0746861 0)
(-0.585258 -0.0692699 0)
(-0.546175 -0.0646441 0)
(-0.511564 -0.0605476 0)
(-0.481298 -0.0569654 0)
(-0.454444 -0.053787 0)
(-0.430076 -0.0509029 0)
(-0.408824 -0.0483875 0)
(-0.388713 -0.0460072 0)
(-1.36068 -0.270658 0)
(-1.16454 -0.231643 0)
(-1.01743 -0.202379 0)
(-0.903368 -0.179691 0)
(-0.811981 -0.161513 0)
(-0.737649 -0.146728 0)
(-0.675361 -0.134338 0)
(-0.623214 -0.123965 0)
(-0.578019 -0.114975 0)
(-0.539419 -0.107297 0)
(-0.505236 -0.100498 0)
(-0.475345 -0.094552 0)
(-0.448823 -0.0892764 0)
(-0.424757 -0.0844894 0)
(-0.403767 -0.0803143 0)
(-0.383905 -0.0763635 0)
(-1.33525 -0.376582 0)
(-1.14278 -0.322298 0)
(-0.998414 -0.281582 0)
(-0.886484 -0.250015 0)
(-0.796806 -0.224723 0)
(-0.723863 -0.20415 0)
(-0.662739 -0.186912 0)
(-0.611567 -0.17248 0)
(-0.567216 -0.159972 0)
(-0.529338 -0.149289 0)
(-0.495794 -0.139828 0)
(-0.466461 -0.131556 0)
(-0.440434 -0.124215 0)
(-0.416819 -0.117555 0)
(-0.396221 -0.111746 0)
(-0.37673 -0.106249 0)
(-1.30159 -0.480183 0)
(-1.11397 -0.410966 0)
(-0.973243 -0.359049 0)
(-0.864136 -0.318797 0)
(-0.776718 -0.286547 0)
(-0.705614 -0.260315 0)
(-0.646032 -0.238334 0)
(-0.596149 -0.219931 0)
(-0.552916 -0.203982 0)
(-0.515993 -0.19036 0)
(-0.483295 -0.178297 0)
(-0.454701 -0.167748 0)
(-0.429331 -0.158389 0)
(-0.40631 -0.149896 0)
(-0.386232 -0.142489 0)
(-0.367233 -0.135479 0)
(-1.2599 -0.580824 0)
(-1.07829 -0.4971 0)
(-0.942072 -0.434302 0)
(-0.836459 -0.385613 0)
(-0.751842 -0.346604 0)
(-0.683014 -0.314874 0)
(-0.625341 -0.288286 0)
(-0.577055 -0.266026 0)
(-0.535208 -0.246734 0)
(-0.499467 -0.230258 0)
(-0.467816 -0.215666 0)
(-0.440138 -0.202907 0)
(-0.41558 -0.191585 0)
(-0.393297 -0.181313 0)
(-0.373862 -0.172353 0)
(-0.355471 -0.163874 0)
(-1.21045 -0.677884 0)
(-1.03597 -0.580169 0)
(-0.905093 -0.506877 0)
(-0.803626 -0.450052 0)
(-0.72233 -0.404524 0)
(-0.656204 -0.367492 0)
(-0.600794 -0.336461 0)
(-0.554404 -0.310481 0)
(-0.514199 -0.287966 0)
(-0.479862 -0.268735 0)
(-0.449453 -0.251706 0)
(-0.422862 -0.236814 0)
(-0.399268 -0.223601 0)
(-0.377859 -0.211611 0)
(-0.359187 -0.201154 0)
(-0.341518 -0.191259 0)
(-1.15353 -0.770765 0)
(-0.987252 -0.659661 0)
(-0.862534 -0.576327 0)
(-0.765838 -0.511717 0)
(-0.688365 -0.459951 0)
(-0.625348 -0.417844 0)
(-0.572544 -0.382562 0)
(-0.528335 -0.353022 0)
(-0.490021 -0.327421 0)
(-0.457298 -0.305557 0)
(-0.428319 -0.286194 0)
(-0.402978 -0.269261 0)
(-0.380493 -0.254238 0)
(-0.360092 -0.240606 0)
(-0.342297 -0.228716 0)
(-0.325459 -0.217465 0)
(-1.0895 -0.858893 0)
(-0.932453 -0.735087 0)
(-0.814657 -0.642224 0)
(-0.723328 -0.570226 0)
(-0.650155 -0.512541 0)
(-0.590637 -0.465621 0)
(-0.540763 -0.426304 0)
(-0.499009 -0.393387 0)
(-0.462821 -0.364859 0)
(-0.431914 -0.340494 0)
(-0.404544 -0.318917 0)
(-0.38061 -0.300048 0)
(-0.359373 -0.283307 0)
(-0.340104 -0.268116 0)
(-0.323297 -0.254867 0)
(-0.307394 -0.24233 0)
(-1.01875 -0.941726 0)
(-0.871904 -0.80598 0)
(-0.761758 -0.704162 0)
(-0.676359 -0.62522 0)
(-0.607938 -0.561972 0)
(-0.552284 -0.510526 0)
(-0.505649 -0.467417 0)
(-0.466606 -0.431326 0)
(-0.432768 -0.400047 0)
(-0.403868 -0.373332 0)
(-0.378275 -0.349674 0)
(-0.355895 -0.328986 0)
(-0.336037 -0.31063 0)
(-0.318019 -0.293974 0)
(-0.302304 -0.279447 0)
(-0.287433 -0.265701 0)
(-0.941726 -1.01875 0)
(-0.80598 -0.871904 0)
(-0.704162 -0.761758 0)
(-0.62522 -0.676359 0)
(-0.561972 -0.607938 0)
(-0.510526 -0.552284 0)
(-0.467417 -0.505649 0)
(-0.431326 -0.466606 0)
(-0.400047 -0.432768 0)
(-0.373332 -0.403868 0)
(-0.349674 -0.378275 0)
(-0.328986 -0.355895 0)
(-0.31063 -0.336038 0)
(-0.293974 -0.318019 0)
(-0.279447 -0.302304 0)
(-0.265701 -0.287433 0)
(-0.858893 -1.0895 0)
(-0.735087 -0.932453 0)
(-0.642224 -0.814657 0)
(-0.570226 -0.723328 0)
(-0.512541 -0.650155 0)
(-0.465621 -0.590637 0)
(-0.426304 -0.540763 0)
(-0.393387 -0.499009 0)
(-0.364859 -0.462821 0)
(-0.340494 -0.431914 0)
(-0.318917 -0.404544 0)
(-0.300048 -0.38061 0)
(-0.283307 -0.359373 0)
(-0.268116 -0.340104 0)
(-0.254867 -0.323297 0)
(-0.24233 -0.307394 0)
(-0.770765 -1.15353 0)
(-0.659661 -0.987252 0)
(-0.576327 -0.862534 0)
(-0.511717 -0.765838 0)
(-0.459951 -0.688365 0)
(-0.417844 -0.625348 0)
(-0.382562 -0.572544 0)
(-0.353022 -0.528335 0)
(-0.327421 -0.490021 0)
(-0.305557 -0.457298 0)
(-0.286194 -0.428319 0)
(-0.269261 -0.402978 0)
(-0.254238 -0.380494 0)
(-0.240606 -0.360092 0)
(-0.228716 -0.342298 0)
(-0.217465 -0.325459 0)
(-0.677884 -1.21045 0)
(-0.580169 -1.03597 0)
(-0.506877 -0.905093 0)
(-0.450052 -0.803626 0)
(-0.404524 -0.72233 0)
(-0.367492 -0.656204 0)
(-0.336461 -0.600794 0)
(-0.310481 -0.554405 0)
(-0.287966 -0.5142 0)
(-0.268736 -0.479862 0)
(-0.251706 -0.449453 0)
(-0.236814 -0.422862 0)
(-0.223601 -0.399268 0)
(-0.211611 -0.377859 0)
(-0.201154 -0.359187 0)
(-0.191259 -0.341518 0)
(-0.580824 -1.2599 0)
(-0.4971 -1.07829 0)
(-0.434302 -0.942073 0)
(-0.385613 -0.83646 0)
(-0.346604 -0.751842 0)
(-0.314874 -0.683015 0)
(-0.288286 -0.625341 0)
(-0.266026 -0.577056 0)
(-0.246734 -0.535208 0)
(-0.230258 -0.499467 0)
(-0.215666 -0.467816 0)
(-0.202907 -0.440138 0)
(-0.191585 -0.415581 0)
(-0.181313 -0.393297 0)
(-0.172353 -0.373862 0)
(-0.163875 -0.355471 0)
(-0.480183 -1.30159 0)
(-0.410966 -1.11397 0)
(-0.359049 -0.973243 0)
(-0.318797 -0.864136 0)
(-0.286547 -0.776719 0)
(-0.260315 -0.705614 0)
(-0.238334 -0.646032 0)
(-0.219931 -0.596149 0)
(-0.203982 -0.552917 0)
(-0.19036 -0.515993 0)
(-0.178297 -0.483295 0)
(-0.167748 -0.454702 0)
(-0.158389 -0.429331 0)
(-0.149896 -0.406311 0)
(-0.142489 -0.386233 0)
(-0.135479 -0.367233 0)
(-0.376582 -1.33525 0)
(-0.322298 -1.14278 0)
(-0.281582 -0.998414 0)
(-0.250015 -0.886485 0)
(-0.224723 -0.796806 0)
(-0.20415 -0.723863 0)
(-0.186912 -0.66274 0)
(-0.17248 -0.611567 0)
(-0.159972 -0.567216 0)
(-0.149289 -0.529338 0)
(-0.139828 -0.495794 0)
(-0.131556 -0.466461 0)
(-0.124215 -0.440435 0)
(-0.117555 -0.416819 0)
(-0.111746 -0.396221 0)
(-0.106249 -0.376731 0)
(-0.270658 -1.36068 0)
(-0.231643 -1.16454 0)
(-0.202379 -1.01743 0)
(-0.179691 -0.903368 0)
(-0.161513 -0.811982 0)
(-0.146727 -0.737649 0)
(-0.134338 -0.675362 0)
(-0.123965 -0.623214 0)
(-0.114975 -0.578019 0)
(-0.107297 -0.53942 0)
(-0.100498 -0.505237 0)
(-0.094552 -0.475345 0)
(-0.0892764 -0.448823 0)
(-0.0844894 -0.424757 0)
(-0.0803144 -0.403768 0)
(-0.0763635 -0.383905 0)
(-0.163066 -1.37772 0)
(-0.13956 -1.17913 0)
(-0.121929 -1.03017 0)
(-0.10826 -0.914681 0)
(-0.097308 -0.822151 0)
(-0.0883999 -0.746887 0)
(-0.0809354 -0.68382 0)
(-0.074686 -0.631019 0)
(-0.0692698 -0.585258 0)
(-0.0646441 -0.546175 0)
(-0.0605476 -0.511564 0)
(-0.0569654 -0.481298 0)
(-0.053787 -0.454444 0)
(-0.0509029 -0.430077 0)
(-0.0483875 -0.408824 0)
(-0.0460073 -0.388713 0)
(-0.0544675 -1.38627 0)
(-0.0466157 -1.18644 0)
(-0.0407266 -1.03656 0)
(-0.0361609 -0.920356 0)
(-0.0325027 -0.827251 0)
(-0.0295273 -0.75152 0)
(-0.027034 -0.688062 0)
(-0.0249466 -0.634934 0)
(-0.0231375 -0.588889 0)
(-0.0215924 -0.549563 0)
(-0.0202241 -0.514738 0)
(-0.0190275 -0.484284 0)
(-0.0179659 -0.457263 0)
(-0.0170026 -0.432745 0)
(-0.0161624 -0.41136 0)
(-0.0153673 -0.391125 0)
(0.0544675 -1.38627 0)
(0.0466157 -1.18644 0)
(0.0407268 -1.03656 0)
(0.036161 -0.920356 0)
(0.0325029 -0.827251 0)
(0.0295274 -0.75152 0)
(0.0270341 -0.688062 0)
(0.0249467 -0.634934 0)
(0.0231376 -0.588889 0)
(0.0215925 -0.549563 0)
(0.0202241 -0.514738 0)
(0.0190276 -0.484284 0)
(0.0179659 -0.457263 0)
(0.0170026 -0.432745 0)
(0.0161624 -0.41136 0)
(0.0153673 -0.391125 0)
(0.163066 -1.37772 0)
(0.13956 -1.17913 0)
(0.121929 -1.03017 0)
(0.10826 -0.914681 0)
(0.0973081 -0.822151 0)
(0.0884 -0.746887 0)
(0.0809355 -0.68382 0)
(0.0746861 -0.631019 0)
(0.0692699 -0.585258 0)
(0.0646441 -0.546175 0)
(0.0605477 -0.511564 0)
(0.0569654 -0.481298 0)
(0.053787 -0.454444 0)
(0.050903 -0.430077 0)
(0.0483876 -0.408824 0)
(0.0460073 -0.388713 0)
(0.270658 -1.36068 0)
(0.231643 -1.16454 0)
(0.20238 -1.01743 0)
(0.179691 -0.903368 0)
(0.161513 -0.811982 0)
(0.146728 -0.737649 0)
(0.134338 -0.675362 0)
(0.123965 -0.623214 0)
(0.114975 -0.578019 0)
(0.107297 -0.53942 0)
(0.100498 -0.505237 0)
(0.094552 -0.475345 0)
(0.0892764 -0.448823 0)
(0.0844895 -0.424757 0)
(0.0803144 -0.403768 0)
(0.0763636 -0.383906 0)
(0.376582 -1.33525 0)
(0.322298 -1.14278 0)
(0.281582 -0.998414 0)
(0.250015 -0.886485 0)
(0.224723 -0.796806 0)
(0.204151 -0.723863 0)
(0.186912 -0.66274 0)
(0.17248 -0.611567 0)
(0.159972 -0.567216 0)
(0.149289 -0.529338 0)
(0.139828 -0.495794 0)
(0.131556 -0.466461 0)
(0.124215 -0.440435 0)
(0.117555 -0.416819 0)
(0.111746 -0.396221 0)
(0.106249 -0.376731 0)
(0.480183 -1.30159 0)
(0.410966 -1.11397 0)
(0.359049 -0.973243 0)
(0.318797 -0.864136 0)
(0.286547 -0.776719 0)
(0.260315 -0.705614 0)
(0.238334 -0.646032 0)
(0.219931 -0.596149 0)
(0.203982 -0.552917 0)
(0.19036 -0.515993 0)
(0.178297 -0.483295 0)
(0.167748 -0.454702 0)
(0.158389 -0.429331 0)
(0.149896 -0.406311 0)
(0.142489 -0.386233 0)
(0.135479 -0.367233 0)
(0.580824 -1.2599 0)
(0.4971 -1.07829 0)
(0.434302 -0.942073 0)
(0.385613 -0.83646 0)
(0.346604 -0.751842 0)
(0.314874 -0.683015 0)
(0.288286 -0.625341 0)
(0.266026 -0.577056 0)
(0.246734 -0.535208 0)
(0.230258 -0.499467 0)
(0.215666 -0.467816 0)
(0.202907 -0.440138 0)
(0.191585 -0.415581 0)
(0.181313 -0.393297 0)
(0.172353 -0.373862 0)
(0.163875 -0.355471 0)
(0.677884 -1.21045 0)
(0.580169 -1.03597 0)
(0.506877 -0.905094 0)
(0.450053 -0.803626 0)
(0.404524 -0.72233 0)
(0.367492 -0.656204 0)
(0.336461 -0.600794 0)
(0.310482 -0.554405 0)
(0.287966 -0.5142 0)
(0.268736 -0.479862 0)
(0.251706 -0.449453 0)
(0.236814 -0.422862 0)
(0.223601 -0.399268 0)
(0.211611 -0.377859 0)
(0.201155 -0.359187 0)
(0.191259 -0.341518 0)
(0.770765 -1.15353 0)
(0.659662 -0.987252 0)
(0.576327 -0.862534 0)
(0.511717 -0.765838 0)
(0.459951 -0.688365 0)
(0.417845 -0.625348 0)
(0.382562 -0.572544 0)
(0.353023 -0.528335 0)
(0.327422 -0.490021 0)
(0.305557 -0.457298 0)
(0.286194 -0.428319 0)
(0.269261 -0.402978 0)
(0.254238 -0.380494 0)
(0.240606 -0.360092 0)
(0.228716 -0.342298 0)
(0.217465 -0.325459 0)
(0.858893 -1.0895 0)
(0.735087 -0.932453 0)
(0.642224 -0.814657 0)
(0.570226 -0.723329 0)
(0.512541 -0.650155 0)
(0.465621 -0.590637 0)
(0.426304 -0.540764 0)
(0.393387 -0.499009 0)
(0.364859 -0.462821 0)
(0.340494 -0.431914 0)
(0.318917 -0.404544 0)
(0.300049 -0.38061 0)
(0.283307 -0.359373 0)
(0.268116 -0.340104 0)
(0.254867 -0.323298 0)
(0.24233 -0.307394 0)
(0.941727 -1.01875 0)
(0.80598 -0.871904 0)
(0.704162 -0.761758 0)
(0.62522 -0.676359 0)
(0.561972 -0.607938 0)
(0.510526 -0.552284 0)
(0.467417 -0.505649 0)
(0.431326 -0.466606 0)
(0.400047 -0.432768 0)
(0.373332 -0.403868 0)
(0.349674 -0.378275 0)
(0.328986 -0.355895 0)
(0.31063 -0.336038 0)
(0.293974 -0.318019 0)
(0.279447 -0.302304 0)
(0.265701 -0.287433 0)
(1.01875 -0.941727 0)
(0.871904 -0.80598 0)
(0.761758 -0.704162 0)
(0.676359 -0.62522 0)
(0.607938 -0.561972 0)
(0.552284 -0.510526 0)
(0.505649 -0.467417 0)
(0.466606 -0.431326 0)
(0.432768 -0.400047 0)
(0.403868 -0.373332 0)
(0.378275 -0.349674 0)
(0.355895 -0.328986 0)
(0.336038 -0.31063 0)
(0.318019 -0.293974 0)
(0.302304 -0.279447 0)
(0.287433 -0.265701 0)
(1.0895 -0.858893 0)
(0.932453 -0.735087 0)
(0.814658 -0.642224 0)
(0.723329 -0.570226 0)
(0.650156 -0.512541 0)
(0.590637 -0.465621 0)
(0.540764 -0.426304 0)
(0.499009 -0.393387 0)
(0.462821 -0.364859 0)
(0.431914 -0.340494 0)
(0.404544 -0.318917 0)
(0.38061 -0.300049 0)
(0.359373 -0.283307 0)
(0.340104 -0.268116 0)
(0.323298 -0.254867 0)
(0.307394 -0.24233 0)
(1.15353 -0.770765 0)
(0.987253 -0.659662 0)
(0.862535 -0.576327 0)
(0.765838 -0.511717 0)
(0.688365 -0.459951 0)
(0.625349 -0.417844 0)
(0.572544 -0.382562 0)
(0.528336 -0.353022 0)
(0.490021 -0.327422 0)
(0.457298 -0.305557 0)
(0.428319 -0.286194 0)
(0.402978 -0.269261 0)
(0.380494 -0.254238 0)
(0.360092 -0.240606 0)
(0.342298 -0.228716 0)
(0.325459 -0.217465 0)
(1.21045 -0.677884 0)
(1.03597 -0.580169 0)
(0.905094 -0.506877 0)
(0.803626 -0.450052 0)
(0.72233 -0.404524 0)
(0.656205 -0.367492 0)
(0.600795 -0.336461 0)
(0.554405 -0.310481 0)
(0.5142 -0.287966 0)
(0.479862 -0.268736 0)
(0.449453 -0.251706 0)
(0.422862 -0.236814 0)
(0.399268 -0.223601 0)
(0.377859 -0.211611 0)
(0.359187 -0.201154 0)
(0.341518 -0.191259 0)
(1.2599 -0.580824 0)
(1.07829 -0.4971 0)
(0.942073 -0.434302 0)
(0.83646 -0.385613 0)
(0.751842 -0.346604 0)
(0.683015 -0.314874 0)
(0.625341 -0.288286 0)
(0.577056 -0.266026 0)
(0.535208 -0.246734 0)
(0.499467 -0.230258 0)
(0.467816 -0.215666 0)
(0.440138 -0.202907 0)
(0.415581 -0.191585 0)
(0.393297 -0.181313 0)
(0.373862 -0.172353 0)
(0.355471 -0.163875 0)
(1.30159 -0.480183 0)
(1.11397 -0.410966 0)
(0.973244 -0.359049 0)
(0.864136 -0.318797 0)
(0.776719 -0.286547 0)
(0.705614 -0.260315 0)
(0.646032 -0.238334 0)
(0.596149 -0.219931 0)
(0.552917 -0.203982 0)
(0.515994 -0.19036 0)
(0.483295 -0.178297 0)
(0.454702 -0.167748 0)
(0.429331 -0.158389 0)
(0.406311 -0.149896 0)
(0.386232 -0.142489 0)
(0.367233 -0.135479 0)
(1.33525 -0.376582 0)
(1.14278 -0.322298 0)
(0.998414 -0.281582 0)
(0.886485 -0.250015 0)
(0.796807 -0.224723 0)
(0.723863 -0.20415 0)
(0.66274 -0.186912 0)
(0.611567 -0.17248 0)
(0.567217 -0.159972 0)
(0.529338 -0.149289 0)
(0.495794 -0.139828 0)
(0.466461 -0.131556 0)
(0.440435 -0.124215 0)
(0.416819 -0.117555 0)
(0.396221 -0.111746 0)
(0.376731 -0.106249 0)
(1.36068 -0.270658 0)
(1.16454 -0.231643 0)
(1.01743 -0.20238 0)
(0.903368 -0.179691 0)
(0.811982 -0.161513 0)
(0.737649 -0.146728 0)
(0.675362 -0.134338 0)
(0.623214 -0.123965 0)
(0.578019 -0.114975 0)
(0.53942 -0.107297 0)
(0.505237 -0.100498 0)
(0.475345 -0.094552 0)
(0.448823 -0.0892764 0)
(0.424757 -0.0844894 0)
(0.403767 -0.0803143 0)
(0.383905 -0.0763635 0)
(1.37772 -0.163066 0)
(1.17913 -0.13956 0)
(1.03017 -0.121929 0)
(0.914682 -0.10826 0)
(0.822151 -0.097308 0)
(0.746887 -0.0883999 0)
(0.68382 -0.0809354 0)
(0.631019 -0.0746861 0)
(0.585258 -0.0692699 0)
(0.546175 -0.0646441 0)
(0.511564 -0.0605476 0)
(0.481298 -0.0569654 0)
(0.454444 -0.053787 0)
(0.430077 -0.0509029 0)
(0.408824 -0.0483875 0)
(0.388713 -0.0460073 0)
(1.38627 -0.0544675 0)
(1.18644 -0.0466157 0)
(1.03656 -0.0407267 0)
(0.920356 -0.0361609 0)
(0.827252 -0.0325028 0)
(0.751521 -0.0295273 0)
(0.688062 -0.027034 0)
(0.634934 -0.0249466 0)