/*--------------------------------*- C++ -*----------------------------------*\
| =========                 |                                                 |
| \\      /  F ield         | foam-extend: Open Source CFD                    |
|  \\    /   O peration     | Version:  3.0                                   |
|   \\  /    A nd           | Web:         http://www.extend-project.de       |
|    \\/     M anipulation  |                                                 |
\*---------------------------------------------------------------------------*/
FoamFile
{
    version     2.0;
    format      ascii;
    class       volScalarField;
    location    "82";
    object      p;
}
// * * * * * * * * * * * * * * * * * * * * * * * * * * * * * * * * * * * * * //

dimensions      [0 0 0 0 0 0 0];

internalField   nonuniform List<scalar> 
2688
(
-0.2322720334
-0.2130278583
-0.2014945166
-0.188338828
-0.1810692998
-0.1717373089
-0.1672035765
-0.1604414212
-0.1577299701
-0.1527685978
-0.1512791182
-0.1476023401
-0.14690297
-0.1441318177
-0.143880784
-0.1417093984
-0.1416077083
-0.1397636074
-0.1395229981
-0.1377390473
-0.137057355
-0.1350488883
-0.1335882329
-0.1310312708
-0.231526802
-0.2123438405
-0.2008471856
-0.1877332117
-0.1804866597
-0.1711840872
-0.1666645674
-0.1599235591
-0.1572204983
-0.1522744577
-0.150789462
-0.1471238495
-0.1464264385
-0.1436635033
-0.1434129937
-0.141247868
-0.141146222
-0.1393073148
-0.1390671871
-0.1372882278
-0.1366084067
-0.1346056814
-0.1331494016
-0.130600042
-0.2300618477
-0.2109994969
-0.1995749933
-0.1865433805
-0.1793422029
-0.1700979715
-0.1656066183
-0.1589078066
-0.1562214257
-0.1513062523
-0.1498302113
-0.1461873701
-0.1454938998
-0.1427480056
-0.1424985705
-0.1403466611
-0.1402451129
-0.1384173053
-0.1381781219
-0.1364098302
-0.1357336788
-0.1337430268
-0.1322952794
-0.1297616568
-0.227864034
-0.2089833103
-0.1976675045
-0.1847599255
-0.1776271232
-0.1684707113
-0.1640218788
-0.1573865331
-0.1547254717
-0.1498566785
-0.1483944235
-0.1447857578
-0.1440986189
-0.1413782868
-0.1411309527
-0.1389988934
-0.1388980311
-0.1370869482
-0.1368497501
-0.1350976002
-0.1344275894
-0.1324552305
-0.1310209478
-0.1285109417
-0.2249586236
-0.2063178535
-0.1951457448
-0.1824021317
-0.1753598017
-0.1663196245
-0.1619270933
-0.1553759
-0.1527483609
-0.1479412259
-0.1464971955
-0.1429341257
-0.1422553004
-0.139569219
-0.1393245529
-0.1372192005
-0.1371190944
-0.1353305615
-0.1350958051
-0.1333653831
-0.1327032621
-0.1307553821
-0.1293386326
-0.1268599203
-0.2213357457
-0.2029946977
-0.1920020726
-0.1794632088
-0.1725338734
-0.1636387717
-0.159316592
-0.1528703556
-0.1502847825
-0.1455544741
-0.144133382
-0.1406270587
-0.1399588738
-0.1373153751
-0.1370743699
-0.1350022162
-0.1349034337
-0.1331429793
-0.1329116805
-0.1312084067
-0.1305565696
-0.1286393777
-0.1272449672
-0.1248055986
-0.217026428
-0.1990416537
-0.1882624533
-0.175967091
-0.1691721895
-0.1604497544
-0.1562113071
-0.1498901255
-0.1473544981
-0.1427158698
-0.1413220476
-0.1378835824
-0.1372279865
-0.1346355326
-0.1343987625
-0.1323664931
-0.1322691261
-0.1305424319
-0.1303150691
-0.128644374
-0.1280046043
-0.1261240558
-0.124756105
-0.1223633019
-0.212024062
-0.1944533338
-0.1839221397
-0.1719096718
-0.16527096
-0.1567490352
-0.152607884
-0.1464318321
-0.1439542913
-0.1394219711
-0.1380599536
-0.1347000922
-0.1340593143
-0.1315259273
-0.1312943317
-0.1293081911
-0.1292127598
-0.1275251481
-0.1273026384
-0.1256697703
-0.1250442214
-0.1232063898
-0.12186926
-0.1195309625
-0.2063649979
-0.1892623908
-0.1790116649
-0.1673191735
-0.1608571668
-0.1525621711
-0.1485311313
-0.1425194679
-0.1401076697
-0.1356959045
-0.1343698619
-0.1310992749
-0.1304752075
-0.1280090237
-0.1277831834
-0.1258496017
-0.1257562373
-0.1241131529
-0.1238960385
-0.1223061442
-0.121696709
-0.1199071768
-0.1186051522
-0.1163281797
-0.2000460795
-0.1834666299
-0.1735293089
-0.1621943007
-0.1559297111
-0.1478881392
-0.1439801141
-0.1381519281
-0.1358136062
-0.1315362931
-0.1302505225
-0.127079406
-0.1264741505
-0.124082768
-0.1238635569
-0.1219884324
-0.1218976028
-0.1203040579
-0.1200931498
-0.1185511743
-0.1179597396
-0.1162242769
-0.1149611823
-0.1127532783
-0.1931083965
-0.1771030342
-0.167509699
-0.1565671201
-0.1505192841
-0.1427560506
-0.1389831294
-0.1333566001
-0.1310989886
-0.1269695928
-0.1257280481
-0.1226665042
-0.1220818726
-0.1197730086
-0.1195610096
-0.1177504442
-0.1176623226
-0.1161234577
-0.1159193383
-0.1144300606
-0.1138585004
-0.1121821426
-0.1109620708
-0.1088290943
-0.1855524203
-0.1701727426
-0.1609542661
-0.1504392617
-0.144627584
-0.1371674989
-0.1335417603
-0.1281347471
-0.1259650741
-0.1219965822
-0.1208032672
-0.117860809
-0.1172987461
-0.1150794765
-0.1148754847
-0.1131349639
-0.113049967
-0.1115704477
-0.1113738573
-0.1099419085
-0.1093919637
-0.1077802101
-0.1066066955
-0.1045564833
-0.1774233205
-0.1627164826
-0.1539011843
-0.1438461287
-0.1382885248
-0.1311546859
-0.1276873398
-0.1225167142
-0.1204416973
-0.1166466253
-0.115505223
-0.1126912628
-0.1121534724
-0.1100310125
-0.109835602
-0.1081708542
-0.1080891893
-0.1066738513
-0.1064853898
-0.1051152372
-0.1045887165
-0.1030461455
-0.1019230503
-0.0999603754
-0.1687253412
-0.1547388419
-0.1463551375
-0.136792368
-0.1315066895
-0.1247219086
-0.121424057
-0.1165062227
-0.114532494
-0.1109227518
-0.1098369219
-0.1071601667
-0.1066484084
-0.1046292236
-0.1044430912
-0.1028591389
-0.1027811532
-0.1014343209
-0.1012546411
-0.09995068558
-0.09944918031
-0.09798116504
-0.09691175677
-0.09504457756
-0.1595070098
-0.1462836458
-0.1383572419
-0.1293161566
-0.1243186727
-0.1179039407
-0.1147857697
-0.1101360768
-0.1082697468
-0.1048567427
-0.1038298426
-0.1012988974
-0.1008147356
-0.09890545619
-0.09872914696
-0.09723129595
-0.09715721247
-0.09588340858
-0.09571311542
-0.09447955536
-0.09400484258
-0.09261559191
-0.09160364726
-0.08983571201
-0.1497764436
-0.1373590098
-0.1299155037
-0.1214252225
-0.1167320068
-0.1107078494
-0.1077793471
-0.1034125374
-0.1016595621
-0.09845397764
-0.09748927936
-0.09511192904
-0.09465691552
-0.0928633022
-0.0926974016
-0.0912901284
-0.09122021133
-0.09002334558
-0.08986297459
-0.0887039275
-0.08825738111
-0.08695212809
-0.08600053139
-0.08433993751
-0.1395847639
-0.1280111686
-0.1210733339
-0.1131599114
-0.108785382
-0.1031704181
-0.1004406152
-0.09637032074
-0.0947361201
-0.09174810648
-0.09084859028
-0.08863251702
-0.08820804303
-0.08653604672
-0.08638104297
-0.08506914608
-0.08500360325
-0.08388779667
-0.0837379269
-0.08265721175
-0.08224056129
-0.08102300291
-0.08013545579
-0.0785847724
-0.1289440153
-0.1182518022
-0.1118420925
-0.1045310627
-0.1004893139
-0.09530152657
-0.09277917517
-0.08901829271
-0.08750807771
-0.08474695457
-0.08391547042
-0.08186743282
-0.08147483061
-0.0799294106
-0.07978577894
-0.07857307207
-0.07851208558
-0.07748066221
-0.07734168781
-0.07634289622
-0.07595720331
-0.07483217571
-0.07401097988
-0.07257845619
-0.1179071157
-0.1081288358
-0.1022668087
-0.09558055726
-0.09188397439
-0.08713937428
-0.08483223366
-0.08139250087
-0.08001092794
-0.0774854537
-0.07672455979
-0.07485120661
-0.07449166496
-0.07307799289
-0.07294614009
-0.07183680662
-0.07178054361
-0.07083708008
-0.07070952412
-0.06979588501
-0.06944278499
-0.06841319932
-0.06766188574
-0.06634875051
-0.1064900326
-0.09765750034
-0.09236218186
-0.08632233441
-0.08298285743
-0.0786966618
-0.0766121434
-0.07350445566
-0.07225593324
-0.06997395509
-0.0692860549
-0.06759303702
-0.06726766724
-0.06598982908
-0.0658701323
-0.06486722989
-0.06481580015
-0.06396287729
-0.06384696988
-0.0630212883
-0.06270142331
-0.06177137279
-0.06109143213
-0.05990578668
-0.09474667618
-0.08688668159
-0.08217416983
-0.07679916297
-0.07382698904
-0.07001239721
-0.0681568898
-0.06539093818
-0.06427929858
-0.06224806398
-0.06163525858
-0.06012809466
-0.05983786409
-0.05870016572
-0.05859294223
-0.05769995179
-0.05765348393
-0.05689403204
-0.05679025295
-0.05605503972
-0.05576996025
-0.05494145592
-0.05433620392
-0.05327821538
-0.08269686933
-0.07583509119
-0.07172074384
-0.06702802318
-0.06443279012
-0.06110206651
-0.05948155349
-0.0570661038
-0.05609490671
-0.05432070651
-0.05378493612
-0.05246812098
-0.05221392451
-0.05121955868
-0.05112510345
-0.05034432464
-0.05030286885
-0.04963872068
-0.04954712129
-0.04890434425
-0.04865419779
-0.04793037984
-0.04740033722
-0.04647706523
-0.07039471029
-0.06455184654
-0.06104810288
-0.05705192482
-0.0548415143
-0.05200487921
-0.0506242986
-0.0485668697
-0.04773907561
-0.04622754926
-0.04577043337
-0.044648278
-0.04443085478
-0.0435831992
-0.04350174923
-0.04283591656
-0.04279958822
-0.04223301851
-0.04215407779
-0.04160559139
-0.04139190095
-0.04077410615
-0.04032242959
-0.03953389983
-0.05786374271
-0.05305900937
-0.05017736462
-0.04689077621
-0.04507240478
-0.04273902064
-0.04160285775
-0.03990998645
-0.03922827002
-0.03798409338
-0.03760709736
-0.03668292264
-0.03650295693
-0.03580434268
-0.03573612788
-0.03518688106
-0.0351556966
-0.0346879697
-0.03462160431
-0.03416876686
-0.03399127883
-0.03348173964
-0.03310811554
-0.03245918352
-0.04515747174
-0.04140521727
-0.03915429723
-0.03658719591
-0.03516633152
-0.03334330944
-0.03245499015
-0.03113192508
-0.03059833928
-0.02962546798
-0.02932971321
-0.02860656236
-0.02846456397
-0.02791739489
-0.02786257997
-0.02743188551
-0.02740594592
-0.02703871785
-0.02698535314
-0.02662953229
-0.02648957533
-0.02608935189
-0.02579651151
-0.02528784367
-0.03230295227
-0.02961568593
-0.02800297846
-0.02616384924
-0.02514519832
-0.02383848814
-0.0232009472
-0.02225192374
-0.0218682315
-0.02116968675
-0.02095615573
-0.02043617131
-0.02033262039
-0.01993840961
-0.01989718287
-0.01958613656
-0.01956548991
-0.0192996664
-0.01925927598
-0.01900149459
-0.0188989153
-0.01860953386
-0.01839724446
-0.01803137052
-0.01935234831
-0.01773789185
-0.01676810216
-0.01566235952
-0.01504890753
-0.01426241975
-0.01387752748
-0.01330545448
-0.01307277528
-0.01265077321
-0.01252007616
-0.01220498664
-0.01214015925
-0.01190029439
-0.01187274
-0.0116825039
-0.01166718082
-0.01150379237
-0.01147652557
-0.01131774609
-0.01125306427
-0.0110754349
-0.01094485187
-0.01072243147
-0.006335948336
-0.00579994366
-0.005476457385
-0.005107917833
-0.004901803017
-0.004638203077
-0.004507309628
-0.004314073715
-0.004233241479
-0.004089120947
-0.004041752603
-0.003932511983
-0.003906690096
-0.003821873731
-0.003808161877
-0.00373931141
-0.003729466545
-0.003669082528
-0.003655198882
-0.003596089903
-0.003569852451
-0.003504824997
-0.00345697381
-0.00337918475
0.006696128984
0.006152482754
0.00582893963
0.005459412911
0.005257725986
0.004997779545
0.004874385231
0.004688255924
0.004617072876
0.004482870021
0.004446822858
0.004349834088
0.004336616831
0.004266052394
0.00426592637
0.004213093263
0.004217519937
0.004174598616
0.004175303633
0.004134361778
0.004122701331
0.004074671376
0.004040820293
0.003973952132
0.01971071126
0.01808871263
0.01711890005
0.01601220714
0.01540317491
0.01462033357
0.01424290156
0.01367789154
0.01345479659
0.01304263148
0.01292316525
0.01262020198
0.01256786315
0.01234206247
0.01232795147
0.01215345593
0.01215223192
0.01200591972
0.01199301997
0.01185196012
0.01180153239
0.01164066882
0.0115236832
0.01131312671
0.0326603714
0.02996545671
0.02835263717
0.02651247771
0.0254981645
0.02419503229
0.0235648627
0.02262283527
0.02224862009
0.02155983629
0.02135739877
0.0208494403
0.020758201
0.02037790163
0.02034990269
0.02005433843
0.02004756885
0.01979836835
0.0197722128
0.01953140887
0.01944322144
0.01916965753
0.01897153859
0.0186168345
0.04550947154
0.0417498653
0.03949893548
0.03693091521
0.03551436657
0.03369490437
0.03281384482
0.03149765209
0.03097335725
0.03001001966
0.02972510139
0.02901363041
0.02888361676
0.0283498584
0.02830787505
0.02789195464
0.02787941824
0.02752787193
0.02748813549
0.02714826529
0.02702179676
0.02663692579
0.02635702537
0.02586178507
0.05821385264
0.05340155773
0.05051972881
0.04723206477
0.04541785071
0.04308789443
0.04195882243
0.04027269826
0.03960007307
0.0383652955
0.03799888519
0.03708622622
0.03691792855
0.03623249686
0.03617673468
0.03564190489
0.0356237414
0.03517109874
0.03511815318
0.03468030002
0.03451661168
0.03402116818
0.0336616529
0.03302497526
0.07073589972
0.06488596329
0.06138220703
0.05738514033
0.05517885799
0.05234562975
0.05097196937
0.04892110228
0.04810211576
0.04659965187
0.04615273551
0.04504160272
0.04483536626
0.04400022346
0.04393065884
0.04327837658
0.0432544207
0.0427019123
0.04263562703
0.04210121012
0.0419003072
0.04129661831
0.04085783831
0.04008506171
0.08303521767
0.07616605877
0.07205144649
0.06735760983
0.06476628026
0.06143877594
0.0598249496
0.05741589125
0.05645323374
0.05468792635
0.05416202966
0.05285605534
0.05261264708
0.05163058343
0.05154754857
0.05078005107
0.05075050285
0.05010003161
0.05002082172
0.0493915227
0.04915450018
0.04844390552
0.04792809878
0.04701874758
0.09507276763
0.08720606468
0.08249352941
0.07711767005
0.07414937225
0.07033798599
0.06848895439
0.0657291697
0.06462572023
0.06260297445
0.06199957644
0.06050268782
0.06022268051
0.05909657625
0.05900013187
0.05811961835
0.05808436688
0.0573378274
0.05724570941
0.05652359391
0.05625083821
0.05543630931
0.05484454872
0.05380457333
0.1068123227
0.09797268402
0.09267702145
0.08663603129
0.0833001515
0.07901692706
0.07693860349
0.07383687847
0.07259623601
0.07032255868
0.06964370441
0.06796078736
0.06764521798
0.06637881828
0.06626942715
0.06527887537
0.06523820249
0.06439809784
0.06429359105
0.06348088908
0.0631736666
0.06225719216
0.06159200621
0.06042214215
0.1182140373
0.1084294938
0.1025674329
0.09588037779
0.09218737567
0.08744574939
0.08514457216
0.0817105582
0.0803364821
0.07781886907
0.07706652171
0.07520267625
0.07485234939
0.07344942295
0.07332723642
0.07222955659
0.07218339343
0.07125223445
0.07113543118
0.07023477721
0.06989366614
0.06887869913
0.06814155252
0.06684769537
0.1292461618
0.1185472085
0.1121370872
0.1048249095
0.10078642
0.09560133297
0.09308463156
0.08932923676
0.08782618697
0.08507272269
0.08424941645
0.08221071392
0.08182691644
0.08029211045
0.08015770733
0.07895658154
0.07890528302
0.07788615967
0.07775769387
0.07677188317
0.07639838657
0.07528763419
0.07448150165
0.07306587641
0.1398687096
0.1282893696
0.1213514988
0.1134373389
0.1090660702
0.1034538314
0.1007294429
0.09666438595
0.09503695959
0.09205614686
0.09116431135
0.08895696486
0.08854073164
0.08687865731
0.08673228664
0.08543129409
0.08537484169
0.08427083653
0.08413088229
0.08306307469
0.08265797527
0.08145535864
0.08058214833
0.07905069302
0.1500546228
0.137630904
0.1301869379
0.1216955306
0.1170052214
0.1109834824
0.1080600587
0.1036982307
0.1019516881
0.098753083
0.0977957019
0.09542688644
0.09497972639
0.09319587068
0.09303820245
0.09164168687
0.09158047605
0.09039524614
0.09024449389
0.08909805297
0.08866297723
0.08737189849
0.08643483223
0.0847909303
0.1597644817
0.1465359588
0.1386095289
0.1295677919
0.1245732373
0.118160972
0.1150476511
0.1104026902
0.1085424108
0.1051359167
0.1041158587
0.1015928226
0.1011159918
0.09921574912
0.09904713385
0.09755929382
0.09749337398
0.09623052644
0.09606927592
0.09484783811
0.0943838685
0.09300869255
0.09201027565
0.09026012423
0.1689760357
0.154983791
0.1465996017
0.1370357576
0.1317526277
0.1249699786
0.1216766229
0.1167632402
0.1147952126
0.1111917337
0.1101123858
0.1074433125
0.1069385115
0.1049281339
0.1047493091
0.10317509
0.103104871
0.1017685792
0.1015975346
0.1003049857
0.09981379114
0.09835856016
0.09730213258
0.09545010755
0.1776511658
0.1629398138
0.1541245125
0.1440689097
0.1385138979
0.1313822606
0.1279191936
0.1227527725
0.1206830904
0.1168938035
0.1157584367
0.1129515152
0.1124202037
0.1103057963
0.1101172078
0.10846137
0.1083869707
0.1069813178
0.1068009132
0.1054413194
0.1049242962
0.103393764
0.1022824275
0.1003349233
0.1857724584
0.170387654
0.1611686913
0.150652693
0.1448432047
0.1373849622
0.1337631295
0.1283600157
0.1261953146
0.1222323326
0.1210446859
0.1181090017
0.1175530396
0.115341536
0.1151439684
0.1134119888
0.1133338187
0.1118634303
0.1116743717
0.1102520795
0.1097109298
0.1081097349
0.1069469459
0.1049093872
0.1933038378
0.1772946564
0.1677013517
0.1567583461
0.150712759
0.1429514539
0.1391822332
0.1335593572
0.1313063674
0.1271819949
0.1259456972
0.1228902701
0.1223112967
0.1200094275
0.1198034072
0.1180005402
0.1179187741
0.116388154
0.1161909902
0.114710449
0.1141468478
0.1124800833
0.1112694822
0.1091483437
0.2002326701
0.1836487848
0.1737109976
0.1623751028
0.1561123396
0.1480723172
0.1441675964
0.1383427338
0.1360086472
0.131736053
0.1304551394
0.1272898412
0.1266898423
0.1243051333
0.1240914718
0.1222236535
0.1221386881
0.1205528507
0.1203482829
0.1188142416
0.118229928
0.116502783
0.1152479606
0.1130497276
0.2065256589
0.1894199693
0.1791693135
0.1674765271
0.1610164155
0.1527230633
0.14869513
0.1426865404
0.1402786386
0.1358710935
0.1345495033
0.1312840618
0.1306648302
0.1282045399
0.1279838281
0.1260567259
0.1259687763
0.1243325778
0.1241212461
0.1225384835
0.1219353749
0.1201532521
0.1188583371
0.1165895916
0.2121748257
0.1946004173
0.1840687929
0.1720555685
0.1654183108
0.1568976346
0.1527591649
0.1465858321
0.1441117658
0.1395833298
0.138225334
0.1348702847
0.1342338964
0.1317060505
0.131479105
0.1294990422
0.1294084761
0.1277272579
0.1275098428
0.1258834467
0.1252633039
0.1234318606
0.1221005699
0.1197686677
0.2171503559
0.199163268
0.1883841769
0.1760886583
0.1692952807
0.1605741873
0.1563382255
0.1500195036
0.1474870159
0.1428517533
0.1414615532
0.1380271993
0.1373755774
0.1347878549
0.1345553207
0.1325282828
0.1324353473
0.1307142298
0.1304914489
0.1288264518
0.1281914068
0.1263163309
0.1249532341
0.1225650883
0.2214487432
0.203104826
0.1921118159
0.1795723431
0.1726440733
0.1637499062
0.1594297531
0.1529855966
0.150402694
0.1456753805
0.1442574204
0.140754832
0.1400901061
0.1374509383
0.1372136155
0.1351462436
0.1350512611
0.133295853
0.133068347
0.131370103
0.130721912
0.1288091923
0.1274180957
0.1249815127
0.2250443094
0.2064020174
0.1952300484
0.1824864224
0.1754452196
0.1664060622
0.1620153572
0.1554659693
0.1528407638
0.1480360774
0.1465947737
0.1430346931
0.1423588991
0.1396762738
0.1394348592
0.137333354
0.1372366041
0.1354521844
0.1352207345
0.1334944258
0.1328353843
0.1308909476
0.1294767599
0.1269992815
0.2279377947
0.2090550593
0.1977389118
0.1848308856
0.177698736
0.1685429287
0.1640954258
0.1574614819
0.1548022278
0.1499354755
0.1484753815
0.1448692787
0.1441845642
0.141467223
0.1412224833
0.1390937372
0.1389954934
0.1371878859
0.1369531047
0.1352042796
0.134536174
0.1325661835
0.1311328407
0.1286223018
0.2301082361
0.2110451747
0.1996208215
0.186589345
0.1793888649
0.1701453126
0.1656550798
0.1589573787
0.1562724637
0.151358754
0.1498844569
0.1462433781
0.1455518795
0.1428080129
0.1425607011
0.1404110362
0.1403116104
0.1384861575
0.138248848
0.1364827424
0.1358078814
0.133818425
0.1323708657
0.1298354198
0.2315603722
0.2123762849
0.2008793075
0.1877650537
0.180518711
0.1712163968
0.1666974635
0.1599571419
0.1572549574
0.1523099364
0.1508260334
0.1471617073
0.1464655567
0.143704117
0.1434549552
0.1412914502
0.1411910808
0.1393537773
0.1391145846
0.1373368878
0.1366572467
0.1346545711
0.1331971394
0.1306446264
0.2322784407
0.2130343367
0.2015012631
0.18834581
0.181076596
0.1717448825
0.1672115755
0.1604497699
0.1577388845
0.1527779084
0.1512891148
0.1476127624
0.1469141875
0.1441434765
0.1438932822
0.1417223149
0.1416213468
0.1397775538
0.1395372491
0.137753225
0.1370709326
0.1350612279
0.1335984708
0.1310372601
0.2322709184
0.2130267342
0.2014935043
0.1883379389
0.1810685191
0.1717366684
0.167203112
0.1604411522
0.157729983
0.1527688372
0.151279729
0.1476031892
0.1469042727
0.1441333454
0.143882783
0.1417115454
0.1416101823
0.1397660247
0.1395253038
0.1377407675
0.1370580503
0.1350476489
0.1335844589
0.1310224324
0.2315276165
0.2123444752
0.2008477099
0.1877337126
0.1804871671
0.1711846324
0.1666652393
0.1599243409
0.1572215412
0.1522756481
0.1507910255
0.14712557
0.146428624
0.1436658147
0.1434157806
0.1412506651
0.1411493122
0.1393101592
0.1390698003
0.1372900541
0.1366089315
0.1346041479
0.1331448131
0.1305906226
0.2300604984
0.2109982274
0.1995737759
0.1865423332
0.1793412392
0.1700971923
0.1656059998
0.1589074135
0.1562213137
0.1513063933
0.149830746
0.1461881668
0.14549519
0.1427495327
0.1425006145
0.1403488272
0.1402476277
0.1384196577
0.1381803321
0.1364112645
0.1357340104
0.1337411842
0.1322907322
0.1297518729
0.2278651923
0.2089842536
0.1976683683
0.184760738
0.1776279774
0.1684715956
0.1640229282
0.1573876897
0.1547269304
0.1498582904
0.1483964582
0.1447879567
0.1441013357
0.1413811231
0.1411343114
0.1390022204
0.1389016774
0.1370902481
0.1368528189
0.1350997373
0.134428424
0.1324539177
0.1310166377
0.1285020463
0.2249569142
0.2063162777
0.1951442671
0.1824008201
0.1753585958
0.1663185909
0.1619262185
0.1553752262
0.1527479406
0.1479410278
0.1464973505
0.1429345072
0.142256123
0.1395702297
0.1393260161
0.1372207141
0.1371208868
0.1353321025
0.1350971541
0.1333658948
0.132702682
0.1307527362
0.129333488
0.1268502024
0.2213372129
0.2029959182
0.1920032115
0.1794642658
0.1725349773
0.163639888
0.1593178728
0.1528717257
0.1502864417
0.1455562692
0.1441355771
0.1406294005
0.1399616996
0.1373182971
0.1370777727
0.1350055546
0.1349070621
0.1331462304
0.1329147353
0.131210547
0.1305575899
0.1286384621
0.1272415461
0.124798396
0.2170243531
0.199039769
0.1882606885
0.1759654896
0.1691706843
0.1604483976
0.1562100656
0.1498890406
0.1473535867
0.1427151227
0.1413215433
0.1378832389
0.1372279502
0.1346356135
0.134399154
0.1323668662
0.1322696657
0.1305426803
0.1303151061
0.1286436357
0.1280029195
0.1261206644
0.124750672
0.122354455
0.2120257635
0.1944547681
0.1839234766
0.1719108988
0.1652722145
0.1567502756
0.1526092533
0.1464332598
0.1439559491
0.1394237325
0.1380620334
0.1347022911
0.1340618992
0.1315285923
0.1312973853
0.1293111867
0.1292160127
0.1275280743
0.1273054905
0.1256718503
0.1250455726
0.1232061983
0.1218673605
0.119526408
0.2063625819
0.1892602163
0.1790096153
0.1673172813
0.1608553377
0.1525604544
0.1485294546
0.1425178873
0.1401061419
0.1356944648
0.1343685031
0.1310979972
0.1304740474
0.1280079143
0.1277822012
0.1258485732
0.1257552652
0.1241119426
0.1238946796
0.1223042199
0.1216941622
0.119903468
0.1186000633
0.1163210677
0.2000479338
0.1834682076
0.1735307677
0.1621956236
0.1559310258
0.1478894064
0.1439814488
0.1381532803
0.1358150946
0.1315378428
0.1302522652
0.1270812377
0.1264762244
0.1240849274
0.12386598
0.121990873
0.1219002722
0.1203065929
0.1200957986
0.1185534213
0.1179617824
0.1162254275
0.1149615499
0.1127521504
0.1931056893
0.1771006122
0.1675073966
0.156564964
0.1505171439
0.1427539785
0.1389810036
0.1333544999
0.1310967964
0.1269674019
0.1257257445
0.1226641973
0.122079457
0.1197705956
0.1195585081
0.1177479423
0.1176597593
0.1161208832
0.115916735
0.1144274182
0.1138557531
0.1121792165
0.1109587983
0.1088255545
0.1855543486
0.1701743952
0.1609557781
0.1504406155
0.1446288856
0.1371687171
0.1335429706
0.1281359279
0.1259662769
0.121997796
0.1208045206
0.1178621168
0.117300117
0.1150809524
0.1148770606
0.1131366983
0.1130518671
0.1115725793
0.1113762856
0.1099446554
0.1093951313
0.1077836616
0.1066106042
0.1045604113
0.1774203981
0.1627138793
0.1538986897
0.1438437657
0.1382861273
0.1311523103
0.1276848146
0.1225141419
0.120438885
0.1166437227
0.1155020058
0.1126879506
0.1121498065
0.1100272999
0.1098315507
0.1081668784
0.1080849831
0.1066699748
0.1064815573
0.1051121648
0.1045860989
0.1030447888
0.1019226534
0.09996181575
0.1687272713
0.1547405066
0.1463566449
0.1367937006
0.1315079277
0.1247230299
0.121425095
0.116507183
0.1145333602
0.1109235711
0.10983762
0.1071608663
0.1066489728
0.1046298812
0.1044436435
0.1028599521
0.1027819956
0.1014357398
0.1012564434
0.09995357991
0.0994530735
0.09798671645
0.0969191561
0.09505382366
0.1595039701
0.1462809469
0.1383546408
0.1293136717
0.1243161116
0.1179013602
0.1147829603
0.1101331545
0.1082664587
0.1048532743
0.1038258802
0.1012947328
0.100809985
0.09890055876
0.09872364825
0.09722583889
0.09715129875
0.09587797789
0.09570768329
0.09447543168
0.09400156667
0.09261480407
0.09160498998
0.08984106285
0.1497783123
0.1373606314
0.1299169613
0.121426497
0.1167331567
0.110708857
0.1077802124
0.1034132829
0.1016601182
0.0984544258
0.09748946759
0.09511203869
0.09465670529
0.0928630922
0.09269686897
0.09128977427
0.09121968685
0.09002338959
0.08986334297
0.08870560132
0.08826037117
0.08695750011
0.08600877841
0.08435166322
0.1395817191
0.1280084729
0.1210707302
0.1131574114
0.1087827841
0.1031677729
0.1004376964
0.09636724227
0.0947325995
0.09174433175
0.09084420316
0.08862781362
0.08820258527
0.08653027099
0.08637445169
0.08506235373
0.08499612728
0.08388050238
0.0837304752
0.08265082724
0.08223509351
0.08102024434
0.0801353804
0.07859043116
0.1289457682
0.1182533334
0.1118434668
0.1045322567
0.1004903741
0.09530243351
0.09277991248
0.08901888486
0.08750843032
0.08474715146
0.08391532682
0.08186712253
0.08147408074
0.07992849969
0.07978438342
0.07857156851
0.07851022478
0.07747890207
0.0773400949
0.07634198511
0.07595758293
0.07483451297
0.07401648694
0.07258836007
0.1179041825
0.1081262464
0.1022643148
0.09557816042
0.09188148619
0.08713683155
0.08482942195
0.08138951635
0.08000749834
0.07748173767
0.07672021248
0.07484646493
0.07448612308
0.07307195905
0.07293920761
0.07182931955
0.07177224819
0.07082832994
0.07070044935
0.06978694022
0.06943453509
0.06840681117
0.06765796923
0.06635134957
0.1064916234
0.09765890052
0.0923634483
0.08632343586
0.08298384225
0.07869750242
0.076612829
0.07350500002
0.07225625148
0.0699741087
0.06928587771
0.06759264928
0.06726683788
0.06598871208
0.06586850499
0.0648651973
0.06481334869
0.06395993145
0.0638440762
0.0630180976
0.06269930992
0.06177010554
0.06109300516
0.0599117851
0.09474396551
0.08688429635
0.08217189403
0.07679698545
0.07382475772
0.07001012957
0.06815441274
0.06538832018
0.06427631809
0.062244834
0.06163150188
0.06012396476
0.05983305343
0.05869482338
0.0585868181
0.05769308759
0.05764589008
0.0568855252
0.0567813885
0.05604546688
0.05576079625
0.05493307085
0.05432962867
0.05327772156
0.0826982582
0.07583632478
0.07172188159
0.06702902359
0.06443371707
0.06110288007
0.05948226989
0.05706671937
0.05609537851
0.05432106489
0.05378507744
0.05246810677
0.05221361333
0.05121899681
0.051124194
0.05034298158
0.05030125486
0.04963643562
0.04954495488
0.04890144776
0.04865224236
0.04792854388
0.04740084296
0.04648136131
0.07039231665
0.0645497485
0.06104613647
0.05705006522
0.05483966507
0.05200303619
0.05062235479
0.04856486331
0.04773686869
0.0462252106
0.04576779227
0.04464542346
0.04442760743
0.04357961976
0.04349772173
0.04283137451
0.04279464142
0.04222736869
0.04214827484
0.04159916301
0.0413857878
0.04076843316
0.04031795371
0.03953395744
0.05786489406
0.05306004372
0.05017835129
0.0468916627
0.04507327997
0.04273983102
0.04160366213
0.03991076267
0.03922904065
0.03798486112
0.03760785033
0.0366836857
0.03650369879
0.03580507914
0.0357368551
0.03518753393
0.03515642951
0.03468853364
0.03462254803
0.034169567
0.03399304581
0.0334839216
0.03311222833
0.03246603508
0.04515546484
0.04140346632
0.03915270325
0.03658572111
0.03516494687
0.03334198975
0.03245370946
0.0311306934
0.03059712204
0.02962429871
0.0293285492
0.02860545901
0.02846347841
0.02791638842
0.02786162559
0.02743102678
0.02740521414
0.02703814652
0.02698508016
0.02662965804
0.02649024783
0.02609100143
0.02579913336
0.02529288814
0.03230383387
0.02961649001
0.02800378608
0.02616459808
0.02514600453
0.02383928587
0.02320184333
0.02225287936
0.0218693445
0.02117093721
0.02095763681
0.02043788751
0.02033465952
0.01994080432
0.01990000162
0.01958945624
0.0195693457
0.01930422953
0.01926454656
0.0190077598
0.01890612049
0.01861795015
0.01840692059
0.01804213316
0.01935076746
0.0177365193
0.01676690792
0.01566129519
0.01504801311
0.01426165163
0.0138769427
0.01330503784
0.01307259901
0.01265084029
0.01252047687
0.01220575174
0.0121413881
0.01190206528
0.01187511983
0.01168566989
0.01167109322
0.01150882866
0.01148244628
0.01132516367
0.01126146004
0.01108532417
0.01095572629
0.01073358608
0.006336531725
0.005800488335
0.005477051501
0.005108492143
0.004902494607
0.004638936924
0.004508233751
0.004315134928
0.004234606045
0.004090747019
0.004043833115
0.003935025273
0.003909845681
0.00382569438
0.003812814775
0.003744933652
0.003736056229
0.003677034709
0.00366413884
0.003606756739
0.003581263698
0.003517655605
0.003469932159
0.003391130046
-0.006697276726
-0.006153475896
-0.005829744572
-0.005460084831
-0.005258165003
-0.004998043595
-0.004874346335
-0.004687951588
-0.004616339015
-0.004481735368
-0.004445079317
-0.004347490433
-0.004333436094
-0.004261993833
-0.004260793944
-0.00420672685
-0.004209897089
-0.00416533392
-0.004164713917
-0.004121894619
-0.004109102796
-0.004059926143
-0.004025634056
-0.003960883788
-0.01971044844
-0.01808845226
-0.01711855747
-0.01601185406
-0.01540266775
-0.01461975154
-0.01424207447
-0.01367688281
-0.01345339635
-0.01304090289
-0.01292084469
-0.01261734952
-0.01256416981
-0.01233756742
-0.01232236912
-0.01214674224
-0.01214428309
-0.01199647845
-0.01198243324
-0.01183969974
-0.01178873352
-0.01162698932
-0.01151081376
-0.01130264803
-0.03266110945
-0.02996609758
-0.02835309715
-0.02651281382
-0.02549823525
-0.02419490433
-0.02356436157
-0.02262201618
-0.0222472596
-0.02155799419
-0.02135478888
-0.02084612388
-0.02075384028
-0.02037254445
-0.0203432289
-0.02004633946
-0.02003807967
-0.01978726427
-0.01975966577
-0.01951729632
-0.01942818369
-0.01915432267
-0.01895658161
-0.01860576029
-0.04550954152
-0.04174990573
-0.03949887952
-0.03693083137
-0.03551412458
-0.03369458082
-0.03281327492
-0.03149690212
-0.03097221263
-0.03000855697
-0.02972303867
-0.02901106092
-0.0288801934
-0.02834569131
-0.02830260947
-0.02788568785
-0.02787192653
-0.0275191593
-0.02747835289
-0.02713730392
-0.02701052275
-0.02662546682
-0.02634685824
-0.02585435195
-0.05821422977
-0.05340189607
-0.05051991325
-0.04723214854