/*--------------------------------*- C++ -*----------------------------------*\
| =========                 |                                                 |
| \\      /  F ield         | foam-extend: Open Source CFD                    |
|  \\    /   O peration     | Version:  3.0                                   |
|   \\  /    A nd           | Web:         http://www.extend-project.de       |
|    \\/     M anipulation  |                                                 |
\*---------------------------------------------------------------------------*/
FoamFile
{
    version     2.0;
    format      ascii;
    class       volScalarField;
    location    "6";
    object      p;
}
// * * * * * * * * * * * * * * * * * * * * * * * * * * * * * * * * * * * * * //

dimensions      [0 0 0 0 0 0 0];

internalField   nonuniform List<scalar> 
400
(
1.45751
1.307
1.28308
1.08623
1.08321
0.8844
0.871867
0.711533
0.683456
0.657113
3.34905
-0.364408
-0.402887
-0.530559
-0.393843
-0.255762
-0.028362
0.190643
0.375789
0.440011
1.46863
1.31435
1.28969
1.09034
1.08734
0.886895
0.8746
0.713266
0.685178
0.658401
-0.457771
-0.898939
-0.75186
-0.566985
-0.440972
-0.256253
-0.0422521
0.219881
0.396334
0.468257
1.87837
1.48633
1.41556
1.17991
1.15455
0.934487
0.899259
0.733102
0.691035
0.663571
-1.46749
-0.992939
-0.883845
-0.649802
-0.514556
-0.221082
-0.0108499
0.292786
0.450495
0.524109
2.17637
1.70401
1.59155
1.31689
1.25068
1.01088
0.940961
0.782947
0.72698
0.699297
-1.64356
-1.10202
-0.982584
-0.67751
-0.4869
-0.138589
0.0598082
0.325262
0.446572
0.507848
2.43643
1.92312
1.76418
1.44896
1.3407
1.10366
1.01485
0.881298
0.82387
0.794543
-1.71191
-1.17668
-0.973117
-0.610146
-0.391578
-0.0787677
0.0758531
0.262287
0.339903
0.388375
2.6606
2.09887
1.89855
1.56125
1.4371
1.2222
1.14111
1.03201
0.982747
0.947409
-1.70155
-1.14885
-0.889959
-0.526343
-0.33732
-0.0973467
-0.000883848
0.12058
0.165283
0.209653
2.83402
2.23139
2.01505
1.67612
1.56676
1.37384
1.31568
1.21736
1.17716
1.13127
-1.64514
-1.08333
-0.832539
-0.503636
-0.373274
-0.191616
-0.140957
-0.0506675
-0.0209695
0.0276929
2.97898
2.34987
2.14444
1.81115
1.7316
1.54724
1.51162
1.40916
1.37349
1.31487
-1.61228
-1.05562
-0.849445
-0.555966
-0.478242
-0.323281
-0.295819
-0.209322
-0.179863
-0.122736
3.11538
2.46913
2.28765
1.95655
1.90509
1.71587
1.69447
1.57948
1.54309
1.47254
-1.62952
-1.08113
-0.921155
-0.647586
-0.60194
-0.449587
-0.427584
-0.331596
-0.294637
-0.228883
3.232
2.57409
2.41499
2.08147
2.04849
1.84897
1.83357
1.70551
1.66559
1.58614
-1.67206
-1.12734
-0.996912
-0.729138
-0.697672
-0.538546
-0.514407
-0.407573
-0.36256
-0.290598
3.29683
2.63406
2.48787
2.1522
2.12763
1.92119
1.90717
1.77154
1.72866
1.64468
-1.70049
-1.15375
-1.03234
-0.763563
-0.735742
-0.571861
-0.546209
-0.434313
-0.385999
-0.311556
3.28454
2.62627
2.48112
2.14802
2.1234
1.91863
1.90432
1.76969
1.72677
1.64321
-1.69639
-1.14281
-1.01023
-0.737372
-0.706017
-0.543575
-0.520038
-0.411235
-0.366332
-0.29355
3.19634
2.55148
2.39541
2.06934
2.03622
1.84155
1.82533
1.70014
1.66011
1.58186
-1.6758
-1.11055
-0.946509
-0.663264
-0.617826
-0.459169
-0.438299
-0.338567
-0.301808
-0.234493
3.05981
2.4339
2.25715
1.93769
1.88601
1.70434
1.68167
1.57114
1.53458
1.46589
-1.67596
-1.09608
-0.884352
-0.577563
-0.500122
-0.336494
-0.310564
-0.21892
-0.189715
-0.130435
2.90891
2.30545
2.10601
1.7874
1.7076
1.53276
1.49555
1.39871
1.36282
1.30656
-1.71994
-1.13082
-0.873564
-0.529025
-0.398997
-0.207162
-0.158264
-0.0619311
-0.0324944
0.0187009
2.75628
2.18209
1.97241
1.6498
1.54017
1.35784
1.29794
1.20586
1.16545
1.12216
-1.7801
-1.19864
-0.933042
-0.552994
-0.36435
-0.113693
-0.0190327
0.108772
0.153252
0.200283
2.58277
2.04954
1.85584
1.53487
1.41045
1.20619
1.1234
1.02059
0.971135
0.938417
-1.78648
-1.22385
-1.01402
-0.635413
-0.417269
-0.0943315
0.0586053
0.251031
0.328489
0.379477
2.36614
1.87864
1.7256
1.42508
1.31653
1.08911
0.998784
0.870955
0.813384
0.786425
-1.70691
-1.14197
-1.0174
-0.698959
-0.508771
-0.151874
0.0450792
0.31555
0.436745
0.500135
2.12049
1.66873
1.56091
1.29786
1.23141
0.999197
0.928074
0.774602
0.718539
0.692733
-1.51395
-1.02199
-0.909315
-0.66541
-0.530466
-0.230739
-0.0215666
0.285644
0.443261
0.518391
1.84247
1.4637
1.396
1.16774
1.14225
0.926996
0.890994
0.727718
0.685613
0.659359
-0.484599
-0.914651
-0.765377
-0.575123
-0.449224
-0.261243
-0.0477939
0.216182
0.392609
0.465316
)
;

boundaryField
{
    up
    {
        type            implicitExtrapolation;
    }
    hole
    {
        type            implicitExtrapolation;
    }
    frontAndBack
    {
        type            empty;
    }
}


// ************************************************************************* //
