/*--------------------------------*- C++ -*----------------------------------*\
| =========                 |                                                 |
| \\      /  F ield         | foam-extend: Open Source CFD                    |
|  \\    /   O peration     | Version:  3.0                                   |
|   \\  /    A nd           | Web:         http://www.extend-project.de       |
|    \\/     M anipulation  |                                                 |
\*---------------------------------------------------------------------------*/
FoamFile
{
    version     2.0;
    format      ascii;
    class       volSymmTensorField;
    location    "6";
    object      sigma;
}
// * * * * * * * * * * * * * * * * * * * * * * * * * * * * * * * * * * * * * //

dimensions      [0 0 0 0 0 0 0];

internalField   nonuniform List<symmTensor> 
400
(
(0.0904098 -0.0129076 -9.1616e-18 0.344003 -3.28444e-18 5.48302e-34)
(0.0534773 -0.00993366 -2.37047e-18 0.286521 -2.96701e-18 4.99912e-34)
(0.0327237 0.00323065 -8.71746e-19 0.228394 -2.36278e-18 5.62677e-34)
(0.0140376 0.00360174 -2.23925e-18 0.183192 -3.83223e-18 5.25263e-34)
(0.00464657 0.00498565 -1.90918e-18 0.143274 -2.11418e-18 5.46305e-34)
(-0.00178946 0.00511511 -2.54209e-18 0.112742 -1.85092e-18 5.2762e-34)
(-0.00221501 0.00629285 -3.52335e-18 0.0869741 2.31106e-19 5.32508e-34)
(-0.00218772 0.00657041 -5.10964e-18 0.0687565 -1.74758e-19 5.55103e-34)
(0.00209279 0.00684693 -4.76974e-18 0.055026 2.72738e-18 5.72863e-34)
(0.00336459 0.00608354 -7.0302e-18 0.049447 5.82809e-18 6.35002e-34)
(0.128981 -0.0743631 -8.11639e-18 0.382086 -1.16163e-18 5.39334e-34)
(0.0863092 -0.0667708 -8.66294e-19 0.299741 -2.09793e-18 4.48029e-34)
(0.0682712 -0.0540066 -6.91582e-19 0.227434 -3.08254e-18 5.1918e-34)
(0.0424254 -0.0473384 -2.46312e-18 0.172258 -6.99323e-19 5.43753e-34)
(0.0266603 -0.0409963 6.53984e-19 0.130385 -2.87626e-18 7.03407e-34)
(0.0134854 -0.0358114 -1.84271e-19 0.0962639 -5.82066e-18 8.00643e-34)
(0.00390085 -0.0317434 -7.74285e-18 0.0718166 8.70353e-18 9.10614e-34)
(-0.00587263 -0.0286634 -5.31803e-18 0.0521218 -1.48116e-18 1.08078e-33)
(-0.00965467 -0.0256524 -3.07692e-18 0.041207 2.8223e-18 1.07119e-33)
(-0.0119391 -0.0236074 -1.17442e-17 0.0352395 1.96458e-17 1.65112e-33)
(0.147147 -0.103077 -1.06621e-17 0.283858 -2.17378e-18 4.5451e-34)
(0.111592 -0.100248 -4.28167e-18 0.226064 -1.27403e-18 4.99085e-34)
(0.0947453 -0.0948758 2.42158e-18 0.164718 -2.61522e-18 5.8242e-34)
(0.0714127 -0.085995 -3.82616e-18 0.12457 1.97366e-18 7.75739e-34)
(0.0567312 -0.0753926 -9.30666e-18 0.0902062 -2.08327e-18 8.01713e-34)
(0.0451582 -0.0663819 1.09119e-17 0.0649346 1.0296e-17 1.06795e-33)
(0.039727 -0.0568533 -3.73442e-18 0.0442502 2.34053e-18 1.55921e-33)
(0.0352256 -0.0492328 -2.57092e-17 0.0305757 -9.29056e-18 -1.54635e-34)
(0.034327 -0.0408225 1.22336e-17 0.022029 7.65677e-18 4.16671e-34)
(0.0321051 -0.0363058 -1.55853e-17 0.0199211 -1.55808e-18 1.75622e-33)
(0.173038 -0.104576 -1.17868e-18 0.202293 -9.87566e-18 4.06019e-34)
(0.151333 -0.10607 -1.26696e-18 0.142457 -5.18797e-18 5.73698e-34)
(0.134992 -0.101886 5.44936e-19 0.0961283 2.58131e-18 5.47007e-34)
(0.11537 -0.0900187 6.31851e-18 0.0638439 -1.5102e-18 6.39904e-34)
(0.0972945 -0.0812867 3.05578e-18 0.0368144 4.92199e-18 5.46773e-34)
(0.0790764 -0.0718032 -1.00122e-17 0.014536 1.5314e-17 -1.59696e-34)
(0.0654132 -0.0647066 -8.87961e-18 -0.00131478 -9.03263e-18 2.14041e-34)
(0.0518305 -0.0582163 -1.55512e-17 -0.0132617 7.45676e-18 -3.10557e-34)
(0.0443744 -0.0528853 1.35001e-19 -0.0181255 -3.97097e-18 -1.42259e-33)
(0.0391833 -0.0493198 -3.42066e-18 -0.0197989 -1.07673e-17 -1.07956e-33)
(0.17878 -0.0894059 6.09717e-18 0.0961391 -7.0891e-18 7.71952e-34)
(0.179992 -0.090702 6.87827e-18 0.0514454 3.58678e-18 7.61254e-34)
(0.166975 -0.0853088 9.15005e-19 0.0188854 4.91365e-18 7.05758e-34)
(0.148412 -0.0783898 -1.06783e-18 -0.00274139 -1.13069e-19 9.65668e-34)
(0.133378 -0.0696663 1.50264e-17 -0.0221104 1.52343e-17 -2.2098e-34)
(0.119407 -0.0612193 6.04893e-18 -0.0352742 5.98377e-18 8.15313e-34)
(0.109329 -0.051201 1.35845e-18 -0.0439425 9.73907e-19 1.04385e-33)
(0.0993992 -0.0433668 -2.01323e-17 -0.0470534 -1.61491e-17 1.49958e-33)
(0.089867 -0.0349412 -1.17533e-17 -0.0437723 -1.80116e-17 -1.27143e-34)
(0.0813297 -0.0312776 5.4283e-18 -0.0380299 -1.75787e-17 -7.00201e-34)
(0.166331 -0.0537726 -8.68764e-18 0.0408984 7.25426e-18 6.12277e-34)
(0.179768 -0.0457812 -1.49327e-19 -0.000151687 8.62516e-18 8.49168e-34)
(0.177874 -0.0428297 9.72648e-18 -0.0293705 9.70509e-20 7.68046e-34)
(0.163811 -0.0345095 -4.71247e-18 -0.0459246 1.06494e-17 5.92449e-34)
(0.148328 -0.0309149 -1.7909e-18 -0.0621445 9.23467e-18 5.22315e-34)
(0.130043 -0.0258915 2.71668e-18 -0.0726354 -2.6958e-18 9.38056e-34)
(0.116705 -0.0219764 1.68615e-19 -0.0780751 -3.23679e-18 1.30318e-33)
(0.103942 -0.0175989 7.47152e-19 -0.0786679 -8.47035e-18 1.68738e-33)
(0.0958934 -0.0144374 -7.57757e-18 -0.0754437 -1.44319e-17 1.14016e-33)
(0.0906656 -0.0125444 2.65776e-17 -0.0727527 -2.681e-17 1.95628e-33)
(0.154074 -0.019688 -1.34844e-17 -0.0067469 -8.28628e-18 1.73974e-33)
(0.172069 -0.00298511 -8.30231e-18 -0.0407746 -9.53143e-18 1.08496e-33)
(0.170417 0.00265498 3.7978e-18 -0.0622568 4.18172e-18 9.90041e-34)
(0.162762 0.00821948 5.78788e-18 -0.0775933 1.38681e-17 1.28365e-34)
(0.153956 0.0138303 6.37489e-18 -0.0890787 3.45937e-18 5.16627e-34)
(0.143207 0.0181991 3.54965e-18 -0.0941001 -1.70068e-18 1.11268e-33)
(0.132602 0.0230697 1.06275e-17 -0.0927939 4.99654e-18 1.4943e-33)
(0.121918 0.0249504 -4.19899e-18 -0.0882221 -7.77313e-18 2.01764e-33)
(0.109536 0.0250423 -1.80775e-17 -0.077962 -4.16477e-17 -3.37023e-33)
(0.0994099 0.0217356 4.49002e-18 -0.0686477 -1.00248e-17 2.24899e-34)
(0.117133 0.015353 -4.42132e-18 -0.016554 -5.30917e-18 1.59724e-33)
(0.133567 0.0410775 1.34753e-18 -0.0414721 -2.29514e-18 1.05588e-33)
(0.137313 0.0494307 -6.30442e-18 -0.063642 6.83235e-18 1.04327e-33)
(0.129447 0.0555276 1.07126e-17 -0.0758967 -5.27325e-18 1.16343e-33)
(0.1219 0.0562417 3.47352e-18 -0.0876456 -5.145e-18 5.50789e-34)
(0.111486 0.0568308 7.03904e-18 -0.0910793 -5.59309e-18 3.89959e-34)
(0.104452 0.0567847 1.20234e-17 -0.0896316 1.1746e-18 1.3202e-33)
(0.0970605 0.0570205 2.16338e-18 -0.0828468 -2.33777e-18 3.37363e-34)
(0.0921577 0.0561323 -3.35398e-18 -0.0751682 -1.97764e-17 -1.4986e-33)
(0.089183 0.0562336 -1.38255e-17 -0.0706393 4.20245e-18 -1.60549e-33)
(0.0828537 0.0439659 -5.37413e-18 -0.0210743 -1.74729e-17 1.77248e-33)
(0.0949684 0.0731539 -1.32386e-18 -0.0390156 -8.67345e-18 1.11066e-33)
(0.0973057 0.084119 -2.38747e-18 -0.0534819 -5.17449e-18 9.9746e-34)
(0.0954048 0.0918088 4.00401e-18 -0.0638965 -2.73067e-18 1.27253e-33)
(0.0911075 0.0960723 -1.52507e-19 -0.068898 8.81239e-18 6.83144e-34)
(0.0856266 0.0969998 -1.84784e-18 -0.069657 -6.3749e-18 6.07058e-34)
(0.0792882 0.0962222 -7.68523e-19 -0.0652176 1.24137e-17 3.88366e-34)
(0.0739306 0.0927256 -3.83499e-18 -0.0606673 -9.63419e-18 5.51974e-34)
(0.0673595 0.0858263 -1.13427e-17 -0.0534297 -1.91467e-17 -4.47758e-34)
(0.0629278 0.0775735 -1.54736e-17 -0.0485201 2.31351e-18 -4.38194e-34)
(0.0304306 0.0567772 1.11837e-17 -0.00306642 -4.93775e-18 1.33496e-33)
(0.0348113 0.0876119 2.36251e-18 -0.0110123 2.90934e-19 1.26415e-33)
(0.0382504 0.100439 1.17855e-18 -0.0261405 -6.24192e-19 1.31023e-33)
(0.0360198 0.106813 -5.76291e-18 -0.0349471 -3.29985e-19 1.29609e-33)
(0.0363675 0.108552 1.14984e-18 -0.0428103 -1.12545e-18 1.2254e-33)
(0.0344315 0.10825 4.03897e-19 -0.0425459 -2.92512e-18 1.15504e-33)
(0.0344427 0.106748 -6.04266e-18 -0.0388729 -1.21625e-18 1.11945e-33)
(0.0329159 0.104395 3.18446e-18 -0.0311123 -5.04637e-18 1.10063e-33)
(0.0325532 0.100878 -1.37298e-17 -0.0244921 -4.33211e-18 9.64787e-34)
(0.0314382 0.10006 -1.18242e-17 -0.0201074 -6.37347e-18 9.33792e-34)
(-0.0110026 0.0600509 -3.72129e-18 0.0123011 -8.57103e-18 1.19251e-33)
(-0.0111572 0.090938 2.98622e-18 0.0110545 7.72942e-19 1.39985e-33)
(-0.0104792 0.104217 5.70925e-18 0.00513353 2.42966e-18 1.41125e-33)
(-0.0102411 0.112599 8.83345e-19 -1.08401e-05 -2.81191e-18 1.42676e-33)
(-0.0108119 0.115593 4.18914e-18 -0.00152891 -1.63183e-18 1.52718e-33)
(-0.0106177 0.115785 1.40298e-18 -0.00223132 -7.90542e-20 1.697e-33)
(-0.0110355 0.113728 -6.27338e-18 -0.000163563 -2.10354e-18 1.87491e-33)
(-0.0100281 0.110544 7.29687e-19 0.000330315 -3.11399e-18 2.076e-33)
(-0.00918873 0.103935 -1.5154e-17 0.000985146 -2.65766e-18 2.10806e-33)
(-0.00723537 0.0974621 -1.89662e-17 -0.000171823 -9.91298e-18 2.26199e-33)
(-0.0558957 0.040565 8.39557e-18 0.0303231 -9.48285e-18 1.26847e-33)
(-0.0622942 0.0677452 8.59144e-18 0.0356964 -7.43153e-18 1.57526e-33)
(-0.0604546 0.0834887 6.4217e-18 0.0286075 1.0686e-18 1.50372e-33)
(-0.0594357 0.092077 -1.14657e-19 0.0242971 -1.73398e-18 1.48754e-33)
(-0.0550276 0.0973077 8.86162e-18 0.0203283 -3.7764e-18 1.73698e-33)
(-0.0524799 0.0989726 1.06636e-17 0.0219184 1.01045e-17 2.25966e-33)
(-0.0484814 0.0992012 -1.94559e-17 0.024571 -1.77465e-17 2.62983e-33)
(-0.0463196 0.0973409 -2.45345e-18 0.0293659 -7.39252e-19 3.64405e-33)
(-0.0431842 0.0945309 -1.60368e-17 0.0320178 1.53295e-17 2.96705e-33)
(-0.0433083 0.0934279 -5.39038e-17 0.0350665 -1.97472e-17 4.39805e-33)
(-0.0805305 0.0187763 7.53834e-18 0.0386389 -5.72309e-18 7.23907e-34)
(-0.0907069 0.0438496 5.28517e-18 0.0503931 1.47177e-18 1.53223e-33)
(-0.0921013 0.0569727 -4.8388e-18 0.0512628 4.63806e-18 1.47273e-33)
(-0.0909974 0.0668128 1.04988e-17 0.0496907 -5.89786e-19 1.40966e-33)
(-0.0891327 0.0714881 -2.34902e-18 0.0489799 -2.58925e-17 1.57448e-33)
(-0.0862785 0.0751675 -1.43558e-17 0.0475625 3.22181e-17 3.11827e-33)
(-0.0840696 0.0764614 -5.51921e-18 0.047411 8.4426e-18 4.29488e-33)
(-0.0810832 0.077727 1.9956e-17 0.0459099 -4.29592e-17 -8.84408e-35)
(-0.0773947 0.0758998 -2.1337e-17 0.0432687 4.33477e-17 1.11109e-33)
(-0.0737795 0.0744177 -1.37731e-17 0.0401614 -1.49816e-17 4.93173e-33)
(-0.0937384 -0.0173985 3.05996e-17 0.0315406 4.441e-18 4.50805e-34)
(-0.106597 0.00256741 1.09795e-17 0.0462698 7.28637e-19 1.41542e-33)
(-0.108826 0.0199089 2.23985e-18 0.0484663 -5.65323e-18 1.48135e-33)
(-0.109196 0.0311795 5.82024e-18 0.0499965 1.5179e-17 2.56308e-33)
(-0.106447 0.0405508 -1.01386e-17 0.0506319 7.32586e-18 2.48509e-33)
(-0.104593 0.0455153 -2.42945e-17 0.0533027 -2.62716e-17 -6.14074e-34)
(-0.10136 0.04954 2.13261e-17 0.0552729 -1.22428e-17 8.68016e-34)
(-0.099055 0.050564 -1.72365e-17 0.0574273 -1.87312e-17 4.96857e-34)
(-0.0955291 0.0510695 -5.62255e-18 0.0573791 3.88771e-17 -5.81975e-33)
(-0.0953226 0.0503709 2.48528e-17 0.0588693 1.33535e-17 -1.91136e-33)
(-0.0887193 -0.0447447 1.69693e-17 0.016299 2.01321e-17 1.76011e-33)
(-0.103733 -0.0282966 -1.09011e-17 0.0354174 1.59138e-17 1.77598e-33)
(-0.108273 -0.0154062 1.78864e-18 0.0420802 8.85844e-18 1.655e-33)
(-0.110365 -0.00279814 -7.39119e-18 0.0454585 -8.08392e-18 2.30782e-33)
(-0.110812 0.00554684 -1.74161e-17 0.0474857 3.97242e-17 -1.46441e-34)
(-0.111099 0.0137357 -1.62499e-17 0.0488318 1.68391e-17 1.63222e-33)
(-0.111365 0.0189384 -3.56653e-18 0.0501026 1.65692e-17 1.76322e-33)
(-0.111406 0.0240474 3.27055e-17 0.0506227 -2.56169e-17 2.24364e-33)
(-0.109684 0.0263554 4.19657e-17 0.0491421 -1.21038e-17 -2.07769e-33)
(-0.108434 0.0281556 5.87393e-17 0.0479601 4.08818e-17 -3.27469e-33)
(-0.069035 -0.068179 -3.47894e-17 -0.0175371 -2.22959e-17 1.4182e-33)
(-0.0843109 -0.0563822 -1.67496e-17 0.00249765 -5.87618e-19 1.88177e-33)
(-0.0931789 -0.0407041 1.28246e-18 0.0142848 1.67371e-17 1.60651e-33)
(-0.0991697 -0.0290548 -1.65224e-17 0.0226865 -7.48299e-18 1.27678e-33)
(-0.103035 -0.017862 -1.05734e-17 0.0294421 -5.52781e-18 8.90234e-34)
(-0.106139 -0.0108386 3.98653e-18 0.0348678 1.12539e-17 1.51206e-33)
(-0.108044 -0.00403991 1.62638e-17 0.0389887 6.01883e-19 1.85018e-33)
(-0.109072 -0.0003905 1.37517e-17 0.0413763 1.94816e-17 1.88873e-33)
(-0.108668 0.0031154 3.29583e-17 0.0420049 -5.93384e-18 1.8532e-33)
(-0.108939 0.00314029 6.82655e-17 0.0427276 5.70792e-17 3.89366e-33)
(-0.0421198 -0.077249 1.34077e-17 -0.0514828 -1.46555e-17 4.32023e-33)
(-0.0581287 -0.0686402 2.07743e-17 -0.0294005 -1.39151e-17 2.27156e-33)
(-0.0680629 -0.0576134 -6.53856e-18 -0.0163225 2.48216e-18 1.86611e-33)
(-0.0777471 -0.0451704 -2.31817e-17 -0.00526672 1.26641e-17 9.21758e-35)
(-0.0848706 -0.0359459 -1.09199e-17 0.00263038 1.27833e-17 7.59351e-34)
(-0.0921881 -0.0269876 3.83582e-18 0.00985639 8.01502e-18 1.90058e-33)
(-0.0976818 -0.021097 -2.68729e-18 0.0151393 2.51874e-17 2.71148e-33)
(-0.102717 -0.0157132 1.09586e-17 0.019632 -9.9262e-18 4.08719e-33)
(-0.10474 -0.0125193 8.80731e-17 0.0212742 -3.05949e-17 -6.61918e-33)
(-0.106468 -0.0106355 3.1863e-17 0.0227408 -4.375e-19 -8.78982e-34)
(-0.0120514 -0.0698206 -1.85174e-19 -0.0899733 -2.10459e-18 3.5549e-33)
(-0.0268642 -0.0652657 8.50453e-19 -0.0682975 2.91594e-18 1.88547e-33)
(-0.0421545 -0.055541 -1.07488e-17 -0.049104 -9.81885e-18 1.60323e-33)
(-0.05471 -0.0476562 9.43998e-18 -0.0346758 1.71895e-17 1.51439e-33)
(-0.0664996 -0.0394163 1.41399e-17 -0.0217378 7.12828e-18 1.46654e-34)
(-0.0758549 -0.0339338 2.30288e-17 -0.0125775 9.07527e-18 -8.07556e-34)
(-0.0843332 -0.0282689 5.18935e-19 -0.00455655 1.88883e-17 2.10507e-33)
(-0.090055 -0.0248121 -3.63703e-18 0.000121691 9.60595e-18 -9.62954e-34)
(-0.0942521 -0.0213128 5.34316e-17 0.00353759 -1.55898e-17 -5.01814e-33)
(-0.0955669 -0.021125 -6.88501e-18 0.00440038 -3.63158e-17 -4.46182e-33)
(0.0131825 -0.0509276 3.14103e-17 -0.119951 -5.67139e-18 3.20954e-33)
(-0.00238949 -0.0486872 1.94017e-17 -0.0972001 -2.95837e-18 1.64011e-33)
(-0.0175847 -0.0433764 1.10437e-17 -0.0787976 -4.7488e-18 1.23641e-33)
(-0.0346366 -0.0369665 7.62859e-18 -0.0609313 6.68746e-18 1.43349e-33)
(-0.0481722 -0.0322011 -1.0812e-17 -0.0475812 -1.74921e-18 1.95407e-34)
(-0.0616032 -0.0277486 1.41325e-17 -0.0352644 -5.20503e-18 -2.21602e-34)
(-0.0713206 -0.0250874 -1.87789e-17 -0.0266013 -1.09266e-17 -6.9384e-34)
(-0.0799388 -0.0228671 1.80826e-17 -0.0191879 -7.76909e-18 -8.73606e-34)
(-0.0845391 -0.0216706 3.46771e-17 -0.015291 -2.64946e-17 -2.81264e-33)
(-0.0876227 -0.0215045 -5.92558e-18 -0.0126366 -4.45663e-17 -3.0931e-33)
(0.0263362 -0.0193347 9.83715e-18 -0.13622 1.60506e-17 2.03044e-33)
(0.0130496 -0.0202291 2.96271e-18 -0.115173 1.68485e-18 1.66152e-33)
(-0.0052538 -0.0194174 5.21116e-18 -0.0930947 2.99552e-20 1.47788e-33)
(-0.0214254 -0.0187243 3.48524e-18 -0.0760347 -1.0165e-17 1.25297e-33)
(-0.0378234 -0.0177989 5.0798e-18 -0.0600364 -6.33604e-20 9.00823e-34)
(-0.0509303 -0.0174218 8.90111e-18 -0.048876 -1.56422e-18 5.65689e-34)
(-0.0633911 -0.0168629 4.08421e-18 -0.0385584 -1.23232e-17 3.15358e-34)
(-0.0720483 -0.0166853 9.24946e-18 -0.0323447 2.48319e-18 7.73287e-35)
(-0.0791061 -0.0164336 8.42335e-18 -0.0271121 -2.58256e-17 -3.03392e-34)
(-0.0810675 -0.0170218 5.78557e-18 -0.0261135 -2.16009e-17 -4.49945e-34)
(0.0282932 0.0144757 1.31271e-17 -0.140075 -8.19071e-18 1.54479e-33)
(0.0135797 0.0111134 2.69403e-18 -0.11812 1.48257e-18 1.64947e-33)
(-0.00295768 0.00790519 5.03244e-19 -0.0987788 7.36313e-18 1.46122e-33)
(-0.0220057 0.00444756 7.1622e-18 -0.0795121 -1.16029e-18 1.3052e-33)
(-0.0372339 0.00145527 5.01977e-18 -0.0651397 4.91897e-18 1.23112e-33)
(-0.0521019 -0.00149318 3.6036e-18 -0.0519912 -6.85019e-19 1.28547e-33)
(-0.0625647 -0.00395881 4.94195e-18 -0.0430205 -1.21193e-17 1.37975e-33)
(-0.071597 -0.0062767 5.39176e-18 -0.0355076 -1.10095e-18 1.54041e-33)
(-0.0762903 -0.00805376 4.72501e-18 -0.0316462 -2.52187e-17 1.46477e-33)
(-0.0790107 -0.00958792 1.04454e-17 -0.0294181 -2.90962e-17 1.59795e-33)
(0.0133764 0.0451688 1.89577e-17 -0.123573 7.8247e-18 1.44618e-33)
(0.00119393 0.040006 1.59798e-17 -0.104014 8.54407e-18 1.73475e-33)
(-0.0152553 0.0318525 2.62381e-18 -0.0843409 6.76105e-18 1.46067e-33)
(-0.0300255 0.0249035 4.99768e-18 -0.0693519 -8.38751e-19 1.32024e-33)
(-0.0450474 0.0176291 9.50522e-18 -0.0554799 9.63142e-18 1.44037e-33)
(-0.0571921 0.0120795 -1.14351e-17 -0.0459829 1.01719e-17 1.97513e-33)
(-0.0686497 0.00653037 2.68105e-17 -0.0373015 -2.56865e-17 2.33751e-33)
(-0.076564 0.00260637 1.31617e-18 -0.0323131 -8.69889e-18 3.78576e-33)
(-0.0827254 -0.00121466 -2.33175e-17 -0.0283365 -2.33315e-17 2.63274e-33)
(-0.0841478 -0.0027647 2.26817e-17 -0.0280482 -6.84355e-17 4.33203e-33)
(-0.00993975 0.0682085 1.06959e-17 -0.0983682 4.36991e-18 5.23644e-34)
(-0.0233568 0.0595846 2.36894e-18 -0.0787074 4.36447e-18 1.46302e-33)
(-0.0360345 0.0489413 -2.1881e-18 -0.0638571 -8.33964e-18 1.27433e-33)
(-0.0503124 0.0369142 2.65216e-18 -0.0497552 1.37584e-17 1.0857e-33)
(-0.0615458 0.0273668 3.53576e-17 -0.0396574 -5.98054e-18 1.18112e-33)
(-0.0725926 0.0181898 -3.76857e-17 -0.0304916 -2.09948e-17 2.99143e-33)
(-0.0802143 0.0116298 -1.1543e-17 -0.0244866 -7.15216e-18 4.37492e-33)
(-0.0866764 0.00578198 5.30075e-17 -0.0196031 1.86649e-17 -1.14066e-33)
(-0.0893463 0.00200799 -5.45174e-17 -0.0178101 -2.77503e-17 3.63169e-34)
(-0.0908484 -0.000411612 1.30783e-17 -0.0168162 -1.48187e-17 5.16768e-33)
(-0.0402062 0.0746149 3.94753e-18 -0.0628145 2.45822e-17 8.117e-35)
(-0.0517836 0.0649818 1.52438e-18 -0.045449 8.4114e-18 1.18056e-33)
(-0.0624516 0.0506686 8.4473e-18 -0.0322523 1.58986e-18 1.14052e-33)
(-0.0717305 0.0389321 -1.55565e-17 -0.0228644 3.782e-18 2.38378e-33)
(-0.0804003 0.0267478 -7.56047e-18 -0.0151454 -1.22101e-17 2.19149e-33)
(-0.0877145 0.0178486 3.1196e-17 -0.010095 -2.94145e-17 -1.74702e-33)
(-0.0940495 0.00891264 1.39099e-17 -0.00614737 2.3514e-17 -7.7441e-36)
(-0.0982492 0.00298599 2.08799e-17 -0.00450717 -2.36107e-17 -4.15745e-34)
(-0.100516 -0.00263369 -4.99033e-17 -0.00415414 -1.06213e-17 -8.39956e-33)
(-0.100596 -0.00418234 -1.99449e-17 -0.00506955 3.58104e-17 -3.40781e-33)
(-0.0692218 0.0693846 -2.41163e-17 -0.0274612 6.54716e-18 1.70261e-33)
(-0.0807258 0.055702 -1.79537e-17 -0.0116741 -1.728e-17 1.51098e-33)
(-0.086821 0.0420061 -9.36924e-18 -0.00420632 -5.83564e-19 1.2181e-33)
(-0.0926368 0.0269214 9.47859e-18 0.00127559 -1.16371e-17 1.89778e-33)
(-0.0969616 0.0155431 -4.32617e-17 0.00460119 -1.99674e-17 -8.79278e-34)
(-0.101367 0.00440203 -1.95876e-17 0.00742384 -1.95002e-17 6.26421e-34)
(-0.104435 -0.00318886 -1.97023e-17 0.00907656 -5.51935e-18 5.54978e-34)
(-0.10687 -0.0100248 2.58563e-17 0.010136 3.24945e-17 7.15554e-34)
(-0.106762 -0.0137365 1.07244e-17 0.00919605 4.18987e-17 -4.15211e-33)
(-0.106769 -0.0161716 -4.214e-17 0.00872786 6.36524e-17 -5.58903e-33)
(-0.0892219 0.0482922 2.12293e-17 0.000259384 -2.86975e-17 1.08677e-33)
(-0.0993479 0.0333175 1.10825e-18 0.0134984 -1.99019e-17 1.45267e-33)
(-0.102905 0.0169848 -1.56008e-17 0.0185806 -1.43866e-18 1.06991e-33)
(-0.105711 0.00472305 7.35429e-18 0.0217708 -1.92328e-17 6.73157e-34)
(-0.106864 -0.0071961 3.29259e-18 0.0230197 -1.37134e-17 1.21645e-34)
(-0.108621 -0.0154417 -1.50552e-17 0.0239778 2.73094e-18 4.96165e-34)
(-0.109075 -0.0233946 -3.10539e-18 0.0235108 1.50396e-17 5.9382e-34)
(-0.109297 -0.0280501 -2.19086e-17 0.0224713 1.43334e-17 3.70448e-34)
(-0.107571 -0.0319537 3.31045e-18 0.0197984 3.02849e-17 2.56658e-35)
(-0.106785 -0.0323558 -5.1516e-17 0.0185002 6.60231e-17 1.7116e-33)
(-0.0980821 0.0194997 2.19646e-17 0.0202009 1.38784e-17 3.41996e-33)
(-0.106517 0.000752508 1.35399e-17 0.0301982 1.74485e-17 1.66606e-33)
(-0.107361 -0.01176 -2.42865e-18 0.0313185 -8.93355e-18 1.22943e-33)
(-0.106215 -0.0240998 -1.2859e-17 0.0297453 -2.38434e-17 -4.92092e-34)
(-0.105156 -0.0324492 -1.4421e-17 0.028187 -1.12404e-17 -1.45609e-35)
(-0.103932 -0.0409098 -1.15401e-17 0.0261401 1.54717e-18 8.73739e-34)
(-0.103348 -0.04637 -2.41319e-17 0.0247872 -4.35111e-18 1.45882e-33)
(-0.102291 -0.0514644 5.77651e-18 0.0229257 1.16023e-17 2.61186e-33)
(-0.10022 -0.053084 2.66616e-17 0.0202772 7.91536e-17 -7.38433e-33)
(-0.0987427 -0.0544835 7.10494e-18 0.0184699 2.42706e-17 -2.4425e-33)
(-0.0905571 -0.00998114 3.36646e-19 0.0219827 2.83657e-18 2.68478e-33)
(-0.096803 -0.0302711 -3.02491e-18 0.0278243 8.0515e-19 1.26932e-33)
(-0.0946535 -0.0450916 7.72442e-18 0.0253055 -1.22847e-17 9.54454e-34)
(-0.0931397 -0.0548469 -1.76739e-17 0.0241385 6.37144e-18 8.14507e-34)
(-0.0894754 -0.0628872 -8.8614e-18 0.0219066 1.07273e-17 -4.77216e-34)
(-0.087978 -0.0680243 -1.17664e-17 0.0218961 1.54362e-17 -1.2426e-33)
(-0.0851009 -0.072228 -1.71228e-17 0.0206009 -1.43442e-18 8.41453e-34)
(-0.0835873 -0.073871 -1.21191e-17 0.0201521 7.38097e-19 -1.67139e-33)
(-0.0804477 -0.07417 1.1271e-17 0.0178226 4.14619e-17 -5.16711e-33)
(-0.0800471 -0.0734306 3.40993e-17 0.0177947 -9.33816e-18 -4.90763e-33)
(-0.0671115 -0.0388566 6.81694e-18 0.0145243 2.2545e-17 2.31081e-33)
(-0.0699315 -0.06223 1.0926e-18 0.0157604 1.36033e-17 9.99427e-34)
(-0.0688004 -0.0725885 2.41881e-18 0.013119 6.30893e-18 5.85229e-34)
(-0.0656398 -0.0802755 -7.89589e-18 0.00896033 4.07641e-18 6.61886e-34)
(-0.0637187 -0.0841984 -7.50389e-19 0.00700331 -1.03057e-17 -4.49406e-34)
(-0.0608862 -0.0879456 2.01867e-18 0.00430648 1.02937e-17 -8.66381e-34)
(-0.0595288 -0.0899731 5.49897e-18 0.00325416 -1.59421e-17 -1.34288e-33)
(-0.0572414 -0.0917524 2.78574e-18 0.00112299 1.45499e-17 -1.56665e-33)
(-0.0552987 -0.0902656 1.95144e-17 -0.000820934 2.74118e-17 -3.25109e-33)
(-0.0531945 -0.089309 3.1965e-17 -0.00293912 -7.43887e-18 -3.51713e-33)
(-0.0367661 -0.0516278 -1.65669e-17 -0.00424733 4.83572e-18 1.32573e-33)
(-0.0360865 -0.0752567 -3.30918e-18 -0.00913369 3.60694e-19 9.3762e-34)
(-0.0311686 -0.0868647 -2.54366e-18 -0.0179734 1.73693e-18 7.34599e-34)
(-0.0288705 -0.0937179 6.02258e-18 -0.0215606 1.06679e-18 4.57906e-34)
(-0.0246413 -0.097676 -2.42777e-18 -0.0241352 2.50593e-18 7.13429e-35)
(-0.0231052 -0.100298 -6.96132e-19 -0.0221326 6.45162e-18 -3.08116e-34)
(-0.0204109 -0.101448 6.72096e-18 -0.0203665 2.50002e-18 -6.09855e-34)
(-0.0197809 -0.101295 -5.26358e-18 -0.0168776 7.46304e-18 -8.83534e-34)
(-0.018165 -0.0992431 1.66696e-17 -0.0152715 6.85022e-18 -1.24548e-33)
(-0.0187622 -0.0986667 1.30086e-17 -0.0130653 2.29397e-18 -1.39143e-33)
(0.00756483 -0.0561813 6.38019e-19 -0.0274458 8.53528e-18 9.27916e-34)
(0.0139528 -0.0813446 -4.0691e-18 -0.0385767 4.92881e-19 8.58778e-34)
(0.0156742 -0.09117 -6.83771e-18 -0.0448777 -1.08492e-18 6.69728e-34)
(0.017157 -0.0969555 -2.17544e-18 -0.0493838 3.65494e-18 4.53715e-34)
(0.0163907 -0.0994918 -4.43852e-18 -0.0492716 2.63925e-18 2.87524e-34)
(0.0166549 -0.100605 -5.74231e-19 -0.0491267 3.53517e-18 1.69703e-34)
(0.0156935 -0.100851 5.94906e-18 -0.0468816 4.09741e-18 1.02923e-34)
(0.0161264 -0.100016 1.13919e-18 -0.0461803 5.33721e-18 9.48145e-35)
(0.0152256 -0.0963149 1.28501e-17 -0.0444947 5.01601e-18 5.87861e-36)
(0.0155893 -0.0925194 1.60934e-17 -0.0444378 5.95871e-18 5.46071e-35)
(0.0395425 -0.0414881 -9.35203e-18 -0.0428192 8.39538e-18 8.21032e-34)
(0.0495925 -0.0645599 -7.82183e-18 -0.0603065 7.1452e-18 8.15594e-34)
(0.0547956 -0.0729363 -6.41745e-18 -0.0748785 2.00982e-19 5.99485e-34)
(0.0550755 -0.0785045 -1.38599e-18 -0.0810471 2.95086e-18 4.41038e-34)
(0.0565117 -0.0805214 -5.76557e-18 -0.0838822 4.0121e-18 4.45308e-34)
(0.0558728 -0.0830804 -6.76278e-18 -0.080149 -4.51625e-18 5.86023e-34)
(0.0563487 -0.0842482 1.52831e-17 -0.0747564 1.56755e-17 7.02096e-34)
(0.0551344 -0.0853875 4.3771e-18 -0.0669392 3.80168e-18 1.34103e-33)
(0.0542843 -0.0843152 1.00838e-17 -0.0605662 -6.70136e-18 8.07132e-34)
(0.0533523 -0.0852308 3.59973e-17 -0.0567988 1.40174e-17 1.71892e-33)
(0.0777979 -0.0161994 -9.76764e-18 -0.0544782 5.48612e-18 1.96727e-34)
(0.0949187 -0.0369602 -5.56055e-18 -0.0793543 1.69229e-18 6.04828e-34)
(0.0984341 -0.0461141 3.23124e-19 -0.0922033 -3.47476e-18 4.76842e-34)
(0.098775 -0.0528618 -6.27315e-18 -0.100025 3.05907e-18 4.51432e-34)
(0.0959188 -0.0578066 9.34485e-19 -0.101081 1.96973e-17 4.04782e-34)
(0.0925737 -0.0605849 1.64447e-17 -0.0992764 -2.01226e-17 1.05769e-33)
(0.0883099 -0.0628833 3.69791e-18 -0.0941347 -2.12336e-18 1.76738e-33)
(0.0848282 -0.062716 -9.47537e-18 -0.0894984 3.68086e-17 -1.31969e-33)
(0.0792347 -0.0601851 1.40779e-17 -0.0826696 -2.61802e-17 -3.91938e-34)
(0.075076 -0.0557672 -1.61474e-18 -0.0778003 1.35363e-17 2.09358e-33)
(0.0913763 0.0149221 -2.27737e-17 -0.0428138 -1.46101e-18 -7.96279e-35)
(0.111353 -0.00188243 -9.51609e-18 -0.0724988 2.23786e-18 3.6849e-34)
(0.11619 -0.00677507 -1.49021e-18 -0.0929832 3.15072e-18 2.90489e-34)
(0.113612 -0.0127087 -3.16426e-18 -0.103923 -8.06306e-18 6.71928e-34)
(0.110509 -0.0147416 5.58419e-18 -0.110094 -4.29272e-18 4.71139e-34)
(0.106424 -0.0191315 1.96924e-17 -0.108675 1.52115e-17 -1.49212e-33)
(0.104316 -0.0227716 -1.26331e-17 -0.103628 8.41133e-18 -7.71028e-34)
(0.101853 -0.0274735 1.3782e-17 -0.0952653 1.69442e-17 -1.37493e-33)
(0.0998495 -0.029979 -8.95688e-19 -0.0872551 -1.16891e-17 -4.22474e-33)
(0.0994626 -0.0325195 -2.51458e-17 -0.0836828 -3.38013e-18 -2.80053e-33)
(0.104022 0.0509644 -1.31917e-17 -0.0224052 -8.60719e-18 3.90634e-34)
(0.127597 0.0417922 3.40494e-18 -0.057596 -9.71293e-18 4.208e-34)
(0.131779 0.0369675 7.17812e-19 -0.0776459 -2.36567e-18 3.45944e-34)
(0.131794 0.0307641 1.91902e-18 -0.0923018 3.76005e-18 6.51541e-34)
(0.129143 0.0240123 1.45195e-17 -0.100592 -2.07822e-17 -9.39435e-34)
(0.124312 0.0177193 7.82358e-18 -0.102926 -1.00736e-17 -2.01278e-34)
(0.119055 0.0106928 1.35076e-18 -0.100257 -5.97517e-18 -2.00493e-34)
(0.112905 0.00639216 -1.84305e-17 -0.0952211 2.08087e-17 -5.68141e-35)
(0.10424 0.00320334 -2.14063e-17 -0.0861213 1.07869e-17 -2.36698e-33)
(0.0958344 0.00359435 -2.54636e-17 -0.0773149 -6.65046e-18 -3.21206e-33)
(0.0956076 0.0738477 1.13368e-17 0.0229464 1.16392e-17 2.04171e-34)
(0.119375 0.0709184 9.09858e-18 -0.0145931 -6.60302e-19 3.8968e-34)
(0.122524 0.0715234 -8.20279e-19 -0.0395873 -1.00147e-17 2.5693e-34)
(0.117654 0.0648616 1.06214e-17 -0.0569344 4.46242e-18 2.64354e-35)
(0.109556 0.0619572 9.56462e-18 -0.0696042 -1.21008e-18 -2.48946e-34)
(0.101157 0.0552687 -3.82478e-18 -0.0758801 -8.00324e-18 -9.93727e-35)
(0.0963491 0.0491127 -4.51895e-18 -0.0772801 -3.60506e-18 4.40483e-36)
(0.0928967 0.0412659 -1.19465e-17 -0.0747112 -4.43385e-18 1.05034e-34)
(0.0912586 0.0355289 -1.47891e-17 -0.0705093 4.44661e-18 -7.86981e-34)
(0.0911243 0.0321252 -2.87926e-17 -0.068892 -2.2002e-17 -3.40232e-34)
(0.0891829 0.0949229 -4.278e-18 0.073802 9.84055e-18 9.04468e-34)
(0.10613 0.10139 -7.24863e-18 0.0361714 5.5829e-18 4.86928e-34)
(0.104236 0.101752 5.35174e-18 0.0119077 -4.4833e-18 3.52638e-34)
(0.0996965 0.0974262 1.18183e-17 -0.00836253 -6.84385e-18 -4.43698e-34)
(0.0956948 0.0917971 1.30694e-18 -0.0259123 -8.35988e-18 -2.67244e-34)
(0.0906606 0.084089 -1.55427e-18 -0.037349 -7.68174e-18 6.15444e-35)
(0.0877212 0.0743756 4.39723e-18 -0.0442325 -9.69318e-18 1.97455e-34)
(0.0831038 0.0657958 -1.09224e-17 -0.0459589 -1.76205e-19 5.02451e-34)
(0.0773077 0.0561953 -3.57382e-17 -0.0424619 1.3473e-17 -4.20216e-33)
(0.0699444 0.0505201 -6.114e-18 -0.0359705 7.76942e-19 -1.41053e-33)
(0.077261 0.0880306 -8.31065e-18 0.142898 1.56906e-18 7.31532e-34)
(0.0832573 0.10054 -3.88779e-18 0.105421 -2.48464e-19 4.60104e-34)
(0.0783386 0.106351 6.46091e-18 0.0767053 4.59937e-18 3.92945e-34)
(0.0714906 0.0992174 -4.58294e-18 0.0514422 -1.08211e-17 4.55501e-34)
(0.0602117 0.094974 -3.85207e-18 0.0300052 -4.96791e-18 -7.94374e-35)
(0.0490843 0.0869235 5.30133e-20 0.0118097 -9.75724e-18 -4.87779e-35)
(0.0421493 0.0802831 -3.7149e-20 -0.00045007 -9.83075e-18 -4.69029e-35)
(0.0370364 0.0722972 -9.91722e-18 -0.00887529 -5.05297e-18 -4.35974e-34)
(0.0357592 0.0664021 -1.03388e-17 -0.0125699 -1.21096e-18 -1.71024e-33)
(0.0350786 0.0629699 3.96989e-18 -0.0144764 1.11559e-17 -2.10422e-33)
(0.071642 0.0798321 -1.35992e-17 0.213167 6.11962e-20 7.98562e-34)
(0.060902 0.0943608 -4.81562e-18 0.177463 4.0335e-19 4.71733e-34)
(0.0489525 0.0963747 -3.19574e-18 0.141897 1.28208e-18 3.33388e-34)
(0.036674 0.0912138 -1.97482e-18 0.112829 -3.90251e-18 4.50451e-34)
(0.029393 0.0863924 5.03422e-18 0.0849488 -1.66628e-18 2.30296e-35)
(0.0239604 0.0800353 -5.08192e-18 0.0628491 -9.92169e-19 -6.38647e-35)
(0.0238059 0.0732979 6.17946e-18 0.0439591 -4.50734e-18 -2.98699e-34)
(0.023036 0.0662202 -8.54631e-18 0.0315587 -8.46423e-19 -1.97119e-34)
(0.024482 0.0574438 -1.36602e-17 0.0237535 4.11816e-18 -9.30877e-34)
(0.022893 0.0509602 1.14724e-18 0.0225083 2.92558e-18 -9.18766e-34)
(0.0834408 0.0349687 -9.30001e-18 0.298433 -3.05046e-18 5.87834e-34)
(0.052396 0.0465963 -2.42436e-18 0.245994 -6.49042e-19 4.99974e-34)
(0.0341992 0.0541803 -1.24174e-18 0.200262 -2.09137e-18 5.30088e-34)
(0.0228577 0.0506934 -1.5103e-18 0.158959 2.37039e-18 4.57915e-34)
(0.0113299 0.0484784 -1.42734e-18 0.124898 -2.90208e-18 3.59385e-34)
(0.00117038 0.0441367 -3.06754e-18 0.0943144 -2.11046e-18 2.38395e-34)
(-0.00612338 0.0412052 -2.18082e-18 0.0718982 5.94432e-19 1.42972e-34)
(-0.0132108 0.0375686 -5.56104e-18 0.0533666 -5.41941e-18 8.11202e-35)
(-0.0150176 0.0353275 -4.99019e-18 0.042768 4.39579e-18 -3.83041e-35)
(-0.016145 0.0336447 -4.98684e-18 0.036982 3.2185e-18 -7.14882e-35)
)
;

boundaryField
{
    up
    {
        type            zeroGradient;
    }
    hole
    {
        type            mySigma;
    }
    frontAndBack
    {
        type            empty;
    }
}


// ************************************************************************* //
