/*--------------------------------*- C++ -*----------------------------------*\
| =========                 |                                                 |
| \\      /  F ield         | foam-extend: Open Source CFD                    |
|  \\    /   O peration     | Version:  3.0                                   |
|   \\  /    A nd           | Web:         http://www.extend-project.de       |
|    \\/     M anipulation  |                                                 |
\*---------------------------------------------------------------------------*/
FoamFile
{
    version     2.0;
    format      ascii;
    class       volVectorField;
    location    "49";
    object      s;
}
// * * * * * * * * * * * * * * * * * * * * * * * * * * * * * * * * * * * * * //

dimensions      [0 1 -1 0 0 0 0];

internalField   nonuniform List<vector> 
3012
(
(-2.26503 0.115712 0)
(-1.86363 -0.273763 0)
(-2.61288 0.155286 0)
(-1.76162 0.0980744 0)
(-3.12881 0.32236 0)
(-2.21002 0.208677 0)
(-3.04101 -0.341845 0)
(-2.89738 0.0892377 0)
(-2.02688 0.217413 0)
(-2.23944 -0.414848 0)
(-1.92071 -0.0933014 0)
(-2.2456 0.434931 0)
(-1.3031 -0.153948 0)
(-2.03017 0.0707989 0)
(-2.27571 0.0588746 0)
(-1.24053 0.0934376 0)
(-3.11667 0.274397 0)
(-2.23117 0.256925 0)
(-2.9707 -0.368932 0)
(-2.90952 0.0821132 0)
(-1.27933 0.406032 0)
(-1.69581 -0.229988 0)
(-1.90403 -0.362541 0)
(-1.23444 0.287398 0)
(-2.69692 0.0195778 0)
(-1.99586 -0.162478 0)
(-1.95804 0.243612 0)
(-2.29021 0.0369208 0)
(-1.89743 0.320492 0)
(-2.08602 0.404122 0)
(-1.39589 -0.189058 0)
(-1.57776 -0.463714 0)
(-1.3339 -0.169045 0)
(-2.10595 0.364618 0)
(-1.91357 0.297326 0)
(-1.49557 -0.436832 0)
(-2.1206 -0.218616 0)
(-2.75168 0.0399051 0)
(-2.3155 0.0404305 0)
(-2.07103 0.217358 0)
(-1.19142 -0.1365 0)
(-2.18527 0.0557321 0)
(-1.12816 0.0885849 0)
(-1.96194 0.0677927 0)
(-1.3162 -0.129276 0)
(-1.46052 -0.397213 0)
(-1.95423 0.266408 0)
(-2.16049 0.321313 0)
(-1.30086 -0.395616 0)
(-2.0381 0.320585 0)
(-1.86009 0.280929 0)
(-1.17082 -0.157102 0)
(-2.24935 0.11274 0)
(-1.7961 -0.258539 0)
(-1.69852 0.100585 0)
(-2.58472 0.143873 0)
(-2.74065 -0.345984 0)
(-2.30352 0.440435 0)
(-3.08256 0.212018 0)
(-2.92351 0.0772954 0)
(-2.7157 -0.372294 0)
(-2.27794 0.343802 0)
(-3.01079 0.241223 0)
(-2.94231 0.0256238 0)
(-1.32839 -0.104004 0)
(-2.0461 0.0254028 0)
(-2.3032 -0.00353842 0)
(-1.28165 0.140272 0)
(-2.15005 -0.156221 0)
(-1.20113 0.253562 0)
(-1.2175 0.0718122 0)
(-1.91977 -0.090473 0)
(-1.79828 0.452047 0)
(-1.59531 -0.509908 0)
(-1.38682 -0.257143 0)
(-1.65987 0.356654 0)
(-1.7154 0.341642 0)
(-1.86222 0.413754 0)
(-1.44169 -0.494238 0)
(-1.26221 -0.250916 0)
(-1.41694 -0.100103 0)
(-2.0947 0.0169919 0)
(-1.37548 0.162715 0)
(-2.37281 -0.0163724 0)
(-2.12936 -0.0440526 0)
(-1.10822 0.173344 0)
(-1.15058 -0.0197764 0)
(-1.9114 -0.00911884 0)
(-1.23631 -0.206231 0)
(-2.01175 0.376567 0)
(-1.83997 0.317219 0)
(-1.39213 -0.455437 0)
(-2.29005 -0.410796 0)
(-2.0303 0.206871 0)
(-1.95556 -0.088858 0)
(-2.2495 0.439949 0)
(-2.24298 -9.05469e-05 0)
(-2.31459 0.335632 0)
(-2.16588 -0.0572034 0)
(-2.71446 -0.20848 0)
(-2.12509 -0.172551 0)
(-1.18025 0.263021 0)
(-1.19492 0.0884217 0)
(-1.8999 -0.104127 0)
(-1.75892 0.458181 0)
(-1.37533 -0.264553 0)
(-1.58604 -0.51476 0)
(-1.6263 0.362951 0)
(-1.82309 -0.408638 0)
(-1.25951 0.312081 0)
(-1.62485 -0.258337 0)
(-1.32067 0.423395 0)
(-1.98553 0.214985 0)
(-2.20461 0.248683 0)
(-1.38112 -0.336654 0)
(-1.26505 -0.0725158 0)
(-1.54364 -0.514665 0)
(-1.35183 -0.286644 0)
(-1.52555 0.493012 0)
(-1.41664 0.389173 0)
(-1.77923 -0.186227 0)
(-1.09972 0.199696 0)
(-1.09817 0.30807 0)
(-1.97133 -0.27223 0)
(-2.51356 -0.229381 0)
(-2.34609 -0.0107926 0)
(-2.81178 0.130989 0)
(-2.32223 0.296812 0)
(-3.08639 0.0173009 0)
(-2.70535 0.649098 0)
(-3.00202 0.0512725 0)
(-2.44705 -0.309693 0)
(-2.58801 -0.24063 0)
(-2.33908 -0.00410669 0)
(-2.42633 0.324475 0)
(-2.85771 0.110684 0)
(-3.09156 0.0464388 0)
(-3.04833 0.0793763 0)
(-2.63057 0.663269 0)
(-2.49594 -0.36733 0)
(-2.69233 0.0581844 0)
(-1.88479 0.204921 0)
(-2.29001 0.053864 0)
(-1.94562 -0.19713 0)
(-3.00932 0.174044 0)
(-2.45437 0.482686 0)
(-2.55692 -0.322307 0)
(-2.98166 -0.0202772 0)
(-2.94224 0.200639 0)
(-2.39892 0.460262 0)
(-2.47645 -0.237533 0)
(-2.8763 -0.0756213 0)
(-1.08965 -0.109786 0)
(-1.85085 0.23847 0)
(-1.19332 -0.335188 0)
(-2.03732 0.263822 0)
(-1.34293 -0.412146 0)
(-2.05123 0.340841 0)
(-1.87057 0.293569 0)
(-1.20345 -0.166876 0)
(-1.76682 -0.434831 0)
(-1.57247 -0.269024 0)
(-1.36809 0.443492 0)
(-1.29523 0.334186 0)
(-2.33359 0.0440737 0)
(-2.39243 -0.223047 0)
(-2.83123 0.0203836 0)
(-2.37762 0.265205 0)
(-1.34514 -0.185768 0)
(-2.08071 0.384792 0)
(-1.8938 0.311642 0)
(-1.51575 -0.454426 0)
(-2.88996 0.282484 0)
(-2.81336 -0.104386 0)
(-2.49873 -0.206885 0)
(-2.26204 0.3343 0)
(-2.43164 -0.0841966 0)
(-2.85225 0.262887 0)
(-2.36369 0.302375 0)
(-2.75971 -0.191218 0)
(-2.31743 0.0424108 0)
(-2.4091 -0.25503 0)
(-2.84003 0.0364728 0)
(-2.37091 0.273408 0)
(-1.62485 0.438208 0)
(-1.87342 -0.209863 0)
(-1.53966 0.252663 0)
(-2.15171 -0.391615 0)
(-1.59227 0.287014 0)
(-2.07884 -0.437804 0)
(-1.69974 0.458833 0)
(-1.8098 -0.228698 0)
(-1.80557 -0.422788 0)
(-1.60604 -0.262919 0)
(-1.35793 0.440933 0)
(-1.28902 0.328039 0)
(-1.68216 -0.460319 0)
(-2.14919 0.404777 0)
(-1.94587 0.308349 0)
(-1.49014 -0.169754 0)
(-1.31794 -0.0775312 0)
(-2.03114 0.0089573 0)
(-1.27674 0.157982 0)
(-2.28452 -0.0259258 0)
(-1.33118 -0.176259 0)
(-2.29014 0.0818049 0)
(-2.04202 0.0869198 0)
(-1.26152 0.077346 0)
(-1.1256 -0.275226 0)
(-2.02709 0.202517 0)
(-1.0449 -0.0573442 0)
(-1.83745 0.18733 0)
(-1.11714 0.213404 0)
(-1.78168 -0.184179 0)
(-1.98252 -0.273488 0)
(-1.11797 0.333885 0)
(-2.36827 -0.0437101 0)
(-1.38357 0.186577 0)
(-1.41659 -0.0689271 0)
(-2.08827 -0.00131238 0)
(-1.57403 -0.529169 0)
(-1.42227 0.385773 0)
(-1.38084 -0.300441 0)
(-1.5308 0.48962 0)
(-1.39984 -0.198559 0)
(-1.86758 0.324757 0)
(-1.58525 -0.469101 0)
(-2.04696 0.411 0)
(-1.16728 0.20602 0)
(-1.78753 -0.177439 0)
(-1.17655 0.332404 0)
(-1.9928 -0.273834 0)
(-1.42328 -0.281831 0)
(-1.55643 0.471878 0)
(-1.44734 0.367981 0)
(-1.61982 -0.507495 0)
(-2.11566 0.417427 0)
(-1.7041 -0.46948 0)
(-1.50378 -0.181099 0)
(-1.92003 0.31583 0)
(-1.28412 0.400522 0)
(-1.72654 -0.220576 0)
(-1.93936 -0.351394 0)
(-1.2421 0.275167 0)
(-1.26651 0.303501 0)
(-1.87465 -0.389835 0)
(-1.32332 0.422125 0)
(-1.66789 -0.244421 0)
(-1.66748 0.442735 0)
(-1.88021 -0.207555 0)
(-1.5752 0.253783 0)
(-2.16242 -0.39755 0)
(-1.60602 0.27197 0)
(-1.71165 0.453074 0)
(-2.12559 -0.426539 0)
(-1.8474 -0.220206 0)
(-2.57421 -0.311062 0)
(-2.01183 0.0894537 0)
(-2.14874 -0.0710489 0)
(-2.16917 0.423158 0)
(-1.16686 -0.222884 0)
(-1.77057 0.326133 0)
(-1.31564 -0.456386 0)
(-1.92228 0.378644 0)
(-1.11312 -0.118847 0)
(-2.10141 0.0546037 0)
(-1.05275 0.0872226 0)
(-1.89725 0.0655689 0)
(-1.76336 0.448146 0)
(-1.65155 0.254821 0)
(-1.8784 -0.207349 0)
(-2.17054 -0.418698 0)
(-1.22921 -0.137568 0)
(-2.2 0.05746 0)
(-1.16522 0.0901023 0)
(-1.9728 0.0695074 0)
(-1.29686 -0.12674 0)
(-2.02781 0.0500712 0)
(-2.2754 0.0320975 0)
(-1.23975 0.114528 0)
(-2.28921 0.0710363 0)
(-1.91447 -0.258295 0)
(-1.83516 0.139782 0)
(-2.66789 0.0899079 0)
(-1.07587 -0.0941216 0)
(-2.03876 0.247412 0)
(-1.8493 0.223818 0)
(-1.17272 -0.316716 0)
(-2.76891 -0.219089 0)
(-2.30465 -0.00267007 0)
(-2.69645 0.369356 0)
(-2.87768 0.0303627 0)
(-2.90872 -0.253113 0)
(-2.87527 0.36796 0)
(-2.29044 0.0472137 0)
(-2.90745 0.0441546 0)
(-1.28179 -0.130937 0)
(-1.94663 0.26431 0)
(-1.42083 -0.395173 0)
(-2.15048 0.314556 0)
(-1.81219 0.458655 0)
(-1.69226 0.263875 0)
(-1.8751 -0.203037 0)
(-2.16986 -0.423776 0)
(-1.3707 -0.350685 0)
(-1.96186 0.235201 0)
(-2.17335 0.274048 0)
(-1.2484 -0.0915931 0)
(-2.28044 0.0697225 0)
(-1.91981 -0.225393 0)
(-1.84416 0.164084 0)
(-2.661 0.0898336 0)
(-2.57842 -0.285451 0)
(-1.97803 0.0617067 0)
(-2.15564 -0.0805596 0)
(-2.10625 0.390545 0)
(-1.90552 -0.47591 0)
(-1.65006 0.474401 0)
(-1.5395 0.333306 0)
(-1.66758 -0.25802 0)
(-1.15281 -0.0519469 0)
(-2.14331 -0.0181588 0)
(-1.92435 0.0106529 0)
(-1.10568 0.148884 0)
(-1.39533 0.240454 0)
(-1.85109 -0.203889 0)
(-1.45082 0.407963 0)
(-2.10337 -0.3516 0)
(-2.24424 -0.0427497 0)
(-2.17764 0.332079 0)
(-2.06007 -0.037789 0)
(-2.6963 -0.224719 0)
(-2.154 -0.0720121 0)
(-1.18057 -0.00950386 0)
(-1.14326 0.18759 0)
(-1.92871 -0.0301783 0)
(-1.87063 0.427408 0)
(-1.72255 0.348453 0)
(-1.49091 -0.492947 0)
(-1.30194 -0.247697 0)
(-1.89956 0.409322 0)
(-1.74831 0.340265 0)
(-1.42141 -0.485468 0)
(-1.24746 -0.241932 0)
(-1.28184 -0.270145 0)
(-1.76546 0.438522 0)
(-1.63196 0.358624 0)
(-1.47726 -0.512369 0)
(-1.12882 0.047029 0)
(-2.09194 -0.113575 0)
(-1.09923 0.223133 0)
(-1.87741 -0.0634715 0)
(-1.11662 -0.251667 0)
(-2.03574 0.18801 0)
(-1.03266 -0.0303887 0)
(-1.84549 0.171568 0)
(-1.07386 -0.147134 0)
(-1.80864 0.264275 0)
(-1.97982 0.291301 0)
(-1.18321 -0.365118 0)
(-1.30873 -0.262105 0)
(-1.7755 0.439368 0)
(-1.50709 -0.505902 0)
(-1.64151 0.356301 0)
(-1.15503 0.0488095 0)
(-2.10412 -0.123368 0)
(-1.88667 -0.0698621 0)
(-1.12813 0.22593 0)
(-1.87071 0.309788 0)
(-1.91709 -0.476888 0)
(-1.67216 -0.190239 0)
(-2.05197 0.452634 0)
(-1.93119 0.304247 0)
(-1.91245 -0.474434 0)
(-2.12892 0.441916 0)
(-1.67483 -0.17505 0)
(-2.20396 -0.302123 0)
(-1.46766 0.375481 0)
(-1.93392 -0.170456 0)
(-1.42397 0.183232 0)
(-1.66256 -0.242668 0)
(-1.64637 0.334472 0)
(-1.77917 0.479508 0)
(-1.9095 -0.486159 0)
(-1.3375 -0.116524 0)
(-1.98 0.253723 0)
(-2.19458 0.307763 0)
(-1.47895 -0.390181 0)
(-1.86487 0.455929 0)
(-1.96042 -0.177561 0)
(-1.74405 0.232798 0)
(-2.28091 -0.394742 0)
(-1.90978 0.440926 0)
(-1.9972 -0.157221 0)
(-1.7842 0.200083 0)
(-2.33725 -0.379165 0)
(-1.68983 -0.251181 0)
(-1.45328 0.442997 0)
(-1.3769 0.31001 0)
(-1.91235 -0.424034 0)
(-1.54249 0.297407 0)
(-1.52801 0.0473577 0)
(-2.08252 -0.0807035 0)
(-2.38715 -0.171708 0)
(-1.3342 -0.229317 0)
(-2.02383 0.128203 0)
(-1.24943 0.028053 0)
(-2.26229 0.136151 0)
(-2.34016 -0.357258 0)
(-2.31906 0.0800954 0)
(-2.69782 0.248505 0)
(-2.10614 0.0927171 0)
(-1.55587 0.280423 0)
(-2.12112 -0.0558058 0)
(-1.5537 0.0154216 0)
(-2.43308 -0.132234 0)
(-2.61148 0.417889 0)
(-2.88249 0.107518 0)
(-2.37552 -0.118272 0)
(-2.87201 -0.163379 0)
(-1.43459 -0.270067 0)
(-1.57526 0.367537 0)
(-1.6456 -0.519631 0)
(-1.70134 0.47305 0)
(-1.24251 -0.449987 0)
(-1.75978 0.336519 0)
(-1.10294 -0.222369 0)
(-1.90123 0.381364 0)
(-1.86959 0.079752 0)
(-2.06766 0.0742314 0)
(-0.996777 0.0557384 0)
(-1.05639 -0.147059 0)
(-1.87993 -0.140458 0)
(-1.21618 0.142266 0)
(-1.2158 0.305319 0)
(-2.10666 -0.226527 0)
(-2.09558 -0.126911 0)
(-1.76683 0.368268 0)
(-2.44841 -0.275037 0)
(-1.69777 0.0984565 0)
(-2.1239 -0.107239 0)
(-1.76117 0.356036 0)
(-2.4803 -0.246342 0)
(-1.69998 0.0750713 0)
(-1.54342 -0.511007 0)
(-1.32974 -0.280944 0)
(-1.5639 0.478348 0)
(-1.45363 0.383539 0)
(-2.55414 -0.231193 0)
(-1.87677 0.352488 0)
(-2.17299 -0.0882198 0)
(-1.8057 0.043497 0)
(-1.10131 0.292734 0)
(-1.09966 0.167827 0)
(-1.79235 -0.171009 0)
(-1.98846 -0.252894 0)
(-2.28542 0.887182 0)
(-3.12431 -0.915277 0)
(-3.70036 -0.0187154 0)
(-3.1241 0.404445 0)
(-2.18967 -0.290967 0)
(-1.42175 0.37026 0)
(-1.38614 0.182949 0)
(-1.92497 -0.166997 0)
(-1.9881 0.28066 0)
(-1.06614 -0.127246 0)
(-1.17138 -0.343467 0)
(-1.81188 0.254465 0)
(-2.24637 0.161991 0)
(-2.74667 0.254579 0)
(-2.34336 0.00923398 0)
(-2.55537 -0.32027 0)
(-1.80208 0.333898 0)
(-2.53527 -0.211594 0)
(-2.1633 -0.0859531 0)
(-1.74981 0.034763 0)
(-1.50071 0.456718 0)
(-1.68383 -0.257419 0)
(-1.41464 0.321496 0)
(-1.91104 -0.442484 0)
(-1.62629 -0.254962 0)
(-1.62987 0.342301 0)
(-1.76143 0.478353 0)
(-1.86357 -0.497386 0)
(-1.37836 -0.117762 0)
(-2.07121 0.0369781 0)
(-1.32918 0.13802 0)
(-2.33674 0.0113527 0)
(-2.28187 0.560761 0)
(-3.02396 -0.49277 0)
(-3.35704 0.178503 0)
(-2.98839 0.232004 0)
(-1.87054 -0.484293 0)
(-1.66744 0.479454 0)
(-1.55184 0.342897 0)
(-1.63677 -0.259931 0)
(-1.369 0.223708 0)
(-1.86144 -0.198896 0)
(-1.41804 0.39124 0)
(-2.11181 -0.337083 0)
(-1.55974 -0.0790777 0)
(-2.35303 0.313777 0)
(-1.72022 -0.402586 0)
(-2.09693 0.236195 0)
(-1.26986 -0.191842 0)
(-2.0292 0.368183 0)
(-1.85328 0.307398 0)
(-1.42772 -0.444896 0)
(-2.25881 0.0882855 0)
(-2.83145 0.359592 0)
(-2.80278 -0.241902 0)
(-2.8756 0.0234285 0)
(-1.20292 0.284363 0)
(-1.8863 -0.351434 0)
(-1.24219 0.398399 0)
(-1.6836 -0.225381 0)
(-2.35624 0.334949 0)
(-1.59502 -0.0875224 0)
(-1.76923 -0.416477 0)
(-2.09903 0.245987 0)
(-1.33897 0.352029 0)
(-1.70119 -0.478158 0)
(-1.51082 -0.29077 0)
(-1.42714 0.457518 0)
(-1.35375 0.3484 0)
(-1.73519 -0.471321 0)
(-1.53818 -0.283426 0)
(-1.44198 0.458583 0)
(-2.32846 0.192625 0)
(-1.35656 -0.00694027 0)
(-2.07569 0.16638 0)
(-1.45926 -0.292502 0)
(-3.36057 -0.00229975 0)
(-3.09331 0.704828 0)
(-2.31187 -0.267148 0)
(-2.95466 -0.0331054 0)
(-1.8093 0.482365 0)
(-1.79845 -0.503619 0)
(-1.66871 0.355232 0)
(-1.56725 -0.249152 0)
(-2.25584 0.312188 0)
(-1.40724 -0.101327 0)
(-1.55539 -0.39317 0)
(-2.02625 0.250793 0)
(-1.38302 -0.0158741 0)
(-1.49443 -0.305648 0)
(-2.08423 0.178059 0)
(-2.33788 0.212272 0)
(-1.1133 -0.111526 0)
(-1.85732 0.243744 0)
(-2.04396 0.271286 0)
(-1.221 -0.339274 0)
(-1.85341 0.475912 0)
(-1.80913 -0.500244 0)
(-1.57729 -0.240964 0)
(-1.70681 0.348281 0)
(-1.35098 0.134856 0)
(-1.37009 0.328383 0)
(-1.95373 -0.144178 0)
(-2.21348 -0.248987 0)
(-1.37584 0.115484 0)
(-1.39161 0.31834 0)
(-1.97654 -0.130396 0)
(-2.24333 -0.231044 0)
(-1.43104 -0.00262823 0)
(-2.10677 0.172207 0)
(-1.54453 -0.302494 0)
(-2.36963 0.209835 0)
(-1.61076 -0.518392 0)
(-1.5801 0.367664 0)
(-1.39933 -0.268237 0)
(-1.70633 0.468195 0)
(-2.26381 0.314526 0)
(-1.59323 -0.400428 0)
(-1.44107 -0.104852 0)
(-2.03246 0.249483 0)
(-1.31432 -0.202204 0)
(-2.01805 0.113929 0)
(-1.2355 0.0495136 0)
(-2.25578 0.116563 0)
(-1.87854 -0.130755 0)
(-1.19466 0.124986 0)
(-1.1878 0.287487 0)
(-2.10085 -0.209073 0)
(-2.05938 -0.340371 0)
(-3.84543 -0.174234 0)
(-3.64052 0.625747 0)
(-2.82804 -0.180337 0)
(-1.44901 0.0212293 0)
(-1.55452 -0.28371 0)
(-2.13111 0.155187 0)
(-2.40458 0.185971 0)
(-2.24772 0.36258 0)
(-1.70725 -0.441825 0)
(-2.01932 0.273867 0)
(-1.52745 -0.134611 0)
(-1.86888 -0.12986 0)
(-2.19608 0.451249 0)
(-1.9846 0.253935 0)
(-2.16696 -0.445995 0)
(-3.19264 -0.117319 0)
(-2.96383 0.54614 0)
(-2.32544 -0.165892 0)
(-2.93031 0.026525 0)
(-2.34354 0.0716804 0)
(-2.57257 -0.217906 0)
(-2.89862 -0.0132469 0)
(-2.62089 0.312364 0)
(-2.07123 0.257726 0)
(-1.85821 -0.440422 0)
(-2.32096 0.367415 0)
(-1.6592 -0.105603 0)
(-1.34729 -0.150448 0)
(-2.14165 0.352684 0)
(-1.50587 -0.423343 0)
(-1.94126 0.287156 0)
(-2.24601 0.158864 0)
(-2.09034 -0.375727 0)
(-1.89429 0.0198555 0)
(-2.57256 0.281921 0)
(-1.1695 -0.293965 0)
(-1.86392 0.206353 0)
(-1.07568 -0.069881 0)
(-2.05816 0.227461 0)
(-1.2456 -0.432107 0)
(-1.77726 0.331857 0)
(-1.92769 0.377907 0)
(-1.10876 -0.205866 0)
(-2.2321 0.161884 0)
(-2.13368 -0.389966 0)
(-2.56261 0.301974 0)
(-1.91923 0.0184525 0)
(-1.18402 -0.28275 0)
(-2.07596 0.212767 0)
(-1.87959 0.193374 0)
(-1.09176 -0.0549013 0)
(-1.87494 0.0922433 0)
(-1.01057 0.0400127 0)
(-2.07403 0.0900157 0)
(-1.07478 -0.170785 0)
(-2.25112 0.356926 0)
(-1.50076 -0.121668 0)
(-1.67414 -0.424649 0)
(-2.02279 0.273174 0)
(-2.6228 0.296893 0)
(-2.85209 -0.127135 0)
(-2.29465 0.112494 0)
(-2.42783 -0.190026 0)
(-2.05396 0.268772 0)
(-1.81168 -0.443265 0)
(-1.61762 -0.11708 0)
(-2.29533 0.372981 0)
(-2.18011 0.329428 0)
(-2.29033 0.00643315 0)
(-2.14429 -0.11371 0)
(-2.76655 -0.0781472 0)
(-2.21135 0.499403 0)
(-2.67911 -0.344574 0)
(-3.07563 0.271452 0)
(-2.87673 0.0728221 0)
(-2.75495 0.222323 0)
(-2.21741 0.217164 0)
(-2.49406 -0.278543 0)
(-2.33856 0.00543807 0)
(-2.35946 0.301679 0)
(-2.36979 -0.0199205 0)
(-2.83308 0.171619 0)
(-2.60181 -0.234076 0)
(-2.12692 -0.137497 0)
(-2.13926 0.295189 0)
(-2.75182 -0.0416797 0)
(-2.29498 0.0183523 0)
(-1.14984 -0.19669 0)
(-1.81522 0.314335 0)
(-1.28891 -0.430862 0)
(-1.97825 0.359803 0)
(-1.16962 -0.207392 0)
(-1.97253 0.368476 0)
(-1.8104 0.318185 0)
(-1.31448 -0.445143 0)
(-3.21979 -0.788427 0)
(-2.1426 0.921632 0)
(-3.68735 0.0336753 0)
(-2.97614 0.483431 0)
(-1.93487 0.300793 0)
(-2.13505 0.38391 0)
(-1.43622 -0.170265 0)
(-1.61495 -0.454685 0)
(-2.40415 0.28525 0)
(-2.13509 0.215129 0)
(-1.72128 -0.379234 0)
(-1.57124 -0.0531956 0)
(-1.15366 0.300656 0)
(-1.15589 0.158583 0)
(-1.83036 -0.154012 0)
(-2.03887 -0.23729 0)
(-2.03366 -0.260873 0)
(-1.17821 0.321627 0)
(-1.82207 -0.16857 0)
(-1.17303 0.182655 0)
(-1.61883 0.471463 0)
(-1.58967 -0.518867 0)
(-1.50358 0.372181 0)
(-1.37911 -0.27151 0)
(-3.79336 0.109417 0)
(-2.0619 -0.395285 0)
(-3.52898 0.938771 0)
(-2.8364 -0.178284 0)
(-1.28445 -0.406731 0)
(-2.01196 0.338724 0)
(-1.83972 0.297809 0)
(-1.15177 -0.171926 0)
(-1.60129 0.480254 0)
(-1.48777 0.375412 0)
(-1.4182 -0.277165 0)
(-1.62127 -0.51815 0)
(-1.99667 0.219702 0)
(-1.02911 -0.0765847 0)
(-1.1184 -0.287597 0)
(-1.80857 0.200194 0)
(-1.59833 0.470956 0)
(-1.56017 -0.514563 0)
(-1.48673 0.374834 0)
(-1.34349 -0.270079 0)
(-1.12258 0.287802 0)
(-1.81466 -0.158716 0)
(-1.12815 0.152496 0)
(-2.0162 -0.237897 0)
(-1.30271 0.302964 0)
(-1.898 -0.399962 0)
(-1.36494 0.427992 0)
(-1.68491 -0.246235 0)
(-2.29343 0.0271114 0)
(-2.37976 -0.15882 0)
(-2.82783 -0.0305729 0)
(-2.39463 0.354256 0)
(-1.6228 0.0275885 0)
(-2.49867 0.202797 0)
(-1.74195 -0.313099 0)
(-2.19766 0.153636 0)
(-2.31212 0.0867944 0)
(-2.03438 -0.271475 0)
(-2.69628 0.1377 0)
(-1.92597 0.142427 0)
(-2.03785 -0.089443 0)
(-2.00005 0.1679 0)
(-2.40953 -0.382302 0)
(-2.19627 0.439387 0)
(-2.11937 -0.263154 0)
(-2.32739 0.0669473 0)
(-2.73256 0.112008 0)
(-2.01878 0.168868 0)
(-2.16388 -0.254477 0)
(-2.33248 0.0516928 0)
(-2.76304 0.0659971 0)
(-2.09966 0.189847 0)
(-1.96563 0.013282 0)
(-2.20493 -0.400209 0)
(-2.574 0.303975 0)
(-2.23915 0.140372 0)
(-1.80636 0.462294 0)
(-1.66563 0.359553 0)
(-1.64463 -0.519398 0)
(-1.43245 -0.262383 0)
(-2.28264 -0.287371 0)
(-1.54877 0.369768 0)
(-1.49974 0.154369 0)
(-1.99001 -0.152816 0)
(-2.09151 -0.0747995 0)
(-2.03946 0.131648 0)
(-2.49109 -0.352851 0)
(-2.22725 0.432987 0)
(-1.87444 0.47564 0)
(-1.72783 0.318489 0)
(-1.71074 -0.224755 0)
(-1.97139 -0.481066 0)
(-2.02176 -0.161879 0)
(-1.75557 0.413559 0)
(-2.35005 -0.339552 0)
(-1.66886 0.17538 0)
(-2.17511 -0.176287 0)
(-1.24748 0.0909132 0)
(-1.2374 0.27753 0)
(-1.93621 -0.102572 0)
(-2.51102 0.233845 0)
(-1.66179 0.00876847 0)
(-1.79883 -0.339044 0)
(-2.2079 0.17061 0)
(-2.3997 0.266015 0)
(-1.67114 -0.367135 0)
(-2.13038 0.206039 0)
(-1.53223 -0.0439521 0)
(-1.50732 0.121873 0)
(-1.54751 0.353991 0)
(-2.03256 -0.135368 0)
(-2.33509 -0.258863 0)
(-1.78256 0.280313 0)
(-1.06338 -0.161463 0)
(-1.94599 0.310779 0)
(-1.17638 -0.373439 0)
(-1.08752 -0.236253 0)
(-1.00531 -0.00644327 0)
(-2.01953 0.163276 0)
(-1.82778 0.152929 0)
(-1.96278 -0.489866 0)
(-1.77664 0.325186 0)
(-1.70121 -0.221686 0)
(-1.93627 0.482327 0)
(-1.75193 0.425438 0)
(-1.98567 -0.176367 0)
(-2.3032 -0.365282 0)
(-1.65678 0.199907 0)
(-1.39429 -0.05777 0)
(-2.30947 0.266124 0)
(-1.52486 -0.351819 0)
(-2.06457 0.217472 0)
(-2.00715 0.219559 0)
(-2.23178 0.259712 0)
(-1.43134 -0.3413 0)
(-1.30938 -0.0707186 0)
(-2.31469 0.0765342 0)
(-2.05936 0.0821388 0)
(-1.37077 -0.176268 0)
(-1.30353 0.0839263 0)
(-1.72005 0.312682 0)
(-2.00925 -0.481178 0)
(-1.86532 0.478047 0)
(-1.74124 -0.227174 0)
(-1.30996 0.212059 0)
(-1.34385 0.371222 0)
(-2.09117 -0.307599 0)
(-1.85262 -0.185566 0)
(-1.50727 0.365079 0)
(-1.23207 -0.266884 0)
(-1.616 0.44001 0)
(-1.44017 -0.503588 0)
(-2.74111 0.301371 0)
(-2.36884 -0.0475911 0)
(-2.20382 0.214551 0)
(-2.63275 -0.236727 0)
(-1.57235 -0.26668 0)
(-1.65387 0.475402 0)
(-1.79335 -0.496462 0)
(-1.53655 0.351408 0)
(-2.23533 0.184061 0)
(-2.75922 -0.18217 0)
(-2.70374 0.32794 0)
(-2.39862 -0.108903 0)
(-2.68837 0.297596 0)
(-2.15869 0.141176 0)
(-2.32085 0.0416823 0)
(-2.48735 -0.313482 0)
(-1.97912 -0.163951 0)
(-1.06125 0.0929003 0)
(-1.78752 -0.107796 0)
(-1.03908 0.236031 0)
(-2.53205 0.232927 0)
(-2.35651 0.0212184 0)
(-2.60724 -0.311939 0)
(-2.89071 0.0548805 0)
(-2.76348 0.318829 0)
(-2.28254 0.211146 0)
(-2.40865 -0.114755 0)
(-2.78623 -0.203906 0)
(-2.22654 0.208049 0)
(-2.68907 0.349775 0)
(-2.77126 -0.155974 0)
(-2.38755 -0.110288 0)
(-2.13923 0.226181 0)
(-1.96625 -0.427186 0)
(-2.4153 0.351709 0)
(-1.75624 -0.0711043 0)
(-1.64408 0.350798 0)
(-1.24054 -0.266397 0)
(-1.77794 0.423469 0)
(-1.42439 -0.500479 0)
(-1.07006 0.196051 0)
(-1.86411 -0.0376144 0)
(-2.0733 -0.078437 0)
(-1.10637 0.0183639 0)
(-2.32912 0.0753285 0)
(-2.27624 -0.259688 0)
(-2.76089 0.157387 0)
(-2.1381 0.223934 0)
(-2.02979 -0.349445 0)
(-1.36083 0.395149 0)
(-1.79836 -0.212932 0)
(-1.31448 0.249191 0)
(-1.57603 0.47285 0)
(-1.59904 -0.265696 0)
(-1.47289 0.346519 0)
(-1.81923 -0.475778 0)
(-2.35189 0.0500675 0)
(-2.37238 -0.279277 0)
(-2.18687 0.206297 0)
(-2.78013 0.178449 0)
(-1.4721 0.0562464 0)
(-2.07115 -0.0836937 0)
(-1.48024 0.298164 0)
(-2.36654 -0.170954 0)
(-2.05706 -0.137253 0)
(-1.68773 0.368403 0)
(-2.38596 -0.28553 0)
(-1.62388 0.120495 0)
(-1.84394 0.327681 0)
(-2.01967 0.461217 0)
(-1.62904 -0.21471 0)
(-1.86513 -0.49585 0)
(-2.07027 -0.335368 0)
(-1.36847 0.383613 0)
(-1.32478 0.228969 0)
(-1.83216 -0.202249 0)
(-1.60008 -0.263732 0)
(-1.82388 -0.483217 0)
(-1.51192 0.350562 0)
(-1.62134 0.4795 0)
(-1.91981 0.382446 0)
(-2.12278 -0.107885 0)
(-1.82736 0.0881738 0)
(-2.5068 -0.283179 0)
(-1.74966 0.467256 0)
(-1.45326 -0.265518 0)
(-1.61701 0.36078 0)
(-1.66572 -0.516059 0)
(-1.18013 -0.0700618 0)
(-1.9515 0.0248704 0)
(-2.17678 -1.06662e-05 0)
(-1.12938 0.141171 0)
(-2.3882 0.058269 0)
(-2.11046 0.0693172 0)
(-1.38306 0.107227 0)
(-1.44609 -0.170443 0)
(-2.02383 -0.14915 0)
(-1.68225 0.385798 0)
(-1.61412 0.150762 0)
(-2.34301 -0.303484 0)
(-1.74934 0.47202 0)
(-1.49453 -0.2622 0)
(-1.61651 0.359408 0)
(-1.71145 -0.51375 0)
(-1.28808 -0.359232 0)
(-1.16999 -0.117196 0)
(-2.08972 0.283065 0)
(-1.89656 0.249542 0)
(-1.60333 0.300036 0)
(-1.7805 -0.231506 0)
(-2.04821 -0.44609 0)
(-1.71449 0.467902 0)
(-1.16036 -0.132292 0)
(-1.28434 -0.369534 0)
(-2.05835 0.308363 0)
(-1.87329 0.270968 0)
(-1.2447 0.299305 0)
(-1.90574 -0.127533 0)
(-1.24641 0.126073 0)
(-2.1405 -0.211631 0)
(-2.17295 0.205894 0)
(-1.99463 -0.407602 0)
(-1.7894 -0.0387287 0)
(-2.46315 0.327915 0)
(-2.28524 -0.301877 0)
(-1.57391 0.393544 0)
(-1.51871 0.175772 0)
(-1.98524 -0.158674 0)
(-1.48744 -0.199281 0)
(-1.68983 -0.476877 0)
(-2.05416 0.426677 0)
(-1.87237 0.325022 0)
(-1.58898 0.430822 0)
(-1.89249 -0.199763 0)
(-1.51348 0.242403 0)
(-2.17077 -0.369329 0)
(-1.67677 0.355382 0)
(-1.81526 0.427075 0)
(-1.23356 -0.259711 0)
(-1.41351 -0.494426 0)
(-1.98265 -0.482923 0)
(-1.81217 0.31403 0)
(-1.71757 -0.20921 0)
(-1.97851 0.474546 0)
(-1.57884 0.34044 0)
(-2.05461 -0.120472 0)
(-1.54025 0.0997328 0)
(-2.36594 -0.241649 0)
(-1.28407 0.316431 0)
(-1.91151 -0.138425 0)
(-1.27655 0.141176 0)
(-2.15205 -0.231837 0)
(-1.94708 0.401412 0)
(-1.4356 -0.484065 0)
(-1.26393 -0.234548 0)
(-1.78652 0.332692 0)
(-1.88269 -0.0239503 0)
(-2.09388 -0.0618444 0)
(-1.07111 0.175257 0)
(-1.11048 -0.00968931 0)
(-2.32572 -0.0703129 0)
(-1.35433 0.202277 0)
(-1.38125 -0.0386441 0)
(-2.05682 -0.0210238 0)
(-2.59944 -0.265014 0)
(-2.29626 0.0232959 0)
(-2.17427 0.131923 0)
(-2.60864 0.361132 0)
(-2.69096 -0.191926 0)
(-2.25788 0.248098 0)
(-2.36128 -0.0357692 0)
(-2.71654 0.324559 0)
(-2.36156 -0.123744 0)
(-1.43343 0.00115603 0)
(-1.42463 0.246554 0)
(-2.07694 -0.0558309 0)
(-1.2926 -0.320626 0)
(-2.14567 0.239063 0)
(-1.18502 -0.0732773 0)
(-1.93748 0.211963 0)
(-1.41129 0.363624 0)
(-1.48 -0.290934 0)
(-1.67596 -0.501445 0)
(-1.51326 0.471452 0)
(-1.36491 -0.394202 0)
(-1.89029 0.277809 0)
(-2.07648 0.324215 0)
(-1.22786 -0.146105 0)
(-2.33241 0.0614744 0)
(-2.76318 0.141441 0)
(-2.26502 -0.258656 0)
(-2.1318 0.211468 0)
(-2.51652 -0.242578 0)
(-2.39787 0.304785 0)
(-2.32939 0.0147156 0)
(-2.84317 0.0878308 0)
(-1.41287 -0.413869 0)
(-2.09615 0.33919 0)
(-1.26679 -0.157439 0)
(-1.90587 0.285608 0)
(-1.20858 0.359968 0)
(-1.78981 -0.182549 0)
(-1.19038 0.228365 0)
(-2.00319 -0.286868 0)
(-1.7554 -0.19938 0)
(-1.21961 0.369793 0)
(-1.9648 -0.311542 0)
(-1.19428 0.244987 0)
(-1.44745 0.365379 0)
(-1.66296 -0.51666 0)
(-1.5571 0.472441 0)
(-1.46492 -0.292525 0)
(-1.36957 -0.0432496 0)
(-2.30414 0.243666 0)
(-1.49079 -0.331076 0)
(-2.06033 0.202409 0)
(-1.73696 0.339962 0)
(-1.88466 0.403436 0)
(-1.20665 -0.243686 0)
(-1.37195 -0.479605 0)
(-2.50712 0.364788 0)
(-2.84207 -0.215404 0)
(-2.3811 -0.137966 0)
(-2.88538 0.15559 0)
(-1.77453 0.323667 0)
(-1.19502 -0.234216 0)
(-1.92885 0.381144 0)
(-1.35045 -0.473995 0)
(-1.88373 -0.422774 0)
(-1.33611 0.317484 0)
(-1.66819 -0.256276 0)
(-1.40871 0.443387 0)
(-1.83981 0.453623 0)
(-1.69466 0.351639 0)
(-1.65383 -0.509794 0)
(-1.44394 -0.25184 0)
(-1.81197 -0.398964 0)
(-1.22654 0.31163 0)
(-1.28184 0.419489 0)
(-1.61696 -0.256905 0)
(-2.11343 0.000982823 0)
(-1.06956 0.132269 0)
(-1.90325 0.0247722 0)
(-1.12043 -0.066568 0)
(-1.07261 0.109964 0)
(-2.12603 0.0414199 0)
(-1.13127 -0.0971044 0)
(-1.91501 0.0568322 0)
(-2.19348 -0.161455 0)
(-1.95036 -0.0900756 0)
(-1.27168 0.0744407 0)
(-1.25984 0.26651 0)
(-1.742 -0.442158 0)
(-1.55161 -0.277719 0)
(-1.35018 0.447047 0)
(-1.27776 0.34105 0)
(-1.9067 0.0995973 0)
(-1.13 -0.172638 0)
(-1.0592 0.0453736 0)
(-2.11304 0.0982797 0)
(-1.13312 -0.14912 0)
(-2.12751 0.0728684 0)
(-1.06815 0.0668073 0)
(-1.91768 0.0790256 0)
(-2.39586 0.0888022 0)
(-2.1181 0.0892918 0)
(-1.39435 0.0906125 0)
(-1.4675 -0.195028 0)
(-1.78502 -0.484352 0)
(-1.56324 -0.201273 0)
(-2.05266 0.452537 0)
(-1.87057 0.332711 0)
(-2.14794 0.159934 0)
(-2.0035 -0.0136148 0)
(-2.33599 -0.379564 0)
(-2.41418 0.398351 0)
(-1.41962 0.287111 0)
(-2.00067 -0.410289 0)
(-1.49552 0.436307 0)
(-1.76097 -0.237819 0)
(-1.71303 0.339493 0)
(-1.85619 0.401078 0)
(-1.3491 -0.484299 0)
(-1.18761 -0.251837 0)
(-1.88295 0.0244845 0)
(-2.08889 0.000775709 0)
(-1.09517 -0.0560821 0)
(-1.04506 0.1359 0)
(-2.18516 0.157017 0)
(-2.47793 0.390012 0)
(-2.00782 0.00382248 0)
(-2.33017 -0.385764 0)
(-1.42433 0.274097 0)
(-2.04733 -0.394418 0)
(-1.49645 0.432031 0)
(-1.79925 -0.22701 0)
(-1.81959 -0.464364 0)
(-1.60823 -0.27345 0)
(-1.48617 0.461417 0)
(-1.39629 0.339996 0)
(-2.58983 -0.201684 0)
(-1.91588 0.343179 0)
(-2.19892 -0.064005 0)
(-1.8475 0.0184691 0)
(-2.20548 0.391824 0)
(-1.72064 -0.450657 0)
(-1.98837 0.29347 0)
(-1.52823 -0.148646 0)
(-2.64547 0.304033 0)
(-2.81232 -0.127519 0)
(-2.25643 0.140036 0)
(-2.42438 -0.171148 0)
(-2.14021 0.193195 0)
(-1.23182 -0.270139 0)
(-1.13814 -0.0312298 0)
(-1.93097 0.176566 0)
(-1.4356 0.0267894 0)
(-2.34579 -0.136691 0)
(-1.42959 0.264767 0)
(-2.06096 -0.0655314 0)
(-1.1652 0.0267525 0)
(-1.96531 0.127622 0)
(-1.24559 -0.212105 0)
(-2.18651 0.132686 0)
(-1.79822 -0.49034 0)
(-1.57608 -0.208354 0)
(-2.02429 0.447179 0)
(-1.84707 0.327483 0)
(-1.1915 0.0486534 0)
(-1.9879 0.10873 0)
(-1.26829 -0.191871 0)
(-2.21596 0.109653 0)
(-2.12655 -0.0395286 0)
(-1.52866 0.254003 0)
(-1.53661 -0.0146336 0)
(-2.43494 -0.104751 0)
(-2.15064 0.434069 0)
(-1.64392 -0.167028 0)
(-1.94654 0.304631 0)
(-1.87202 -0.47157 0)
(-1.43462 -0.430481 0)
(-1.2817 -0.172125 0)
(-2.07658 0.35008 0)
(-1.89065 0.293067 0)
(-2.01249 0.0639799 0)
(-2.62501 0.294372 0)
(-2.27543 -0.364317 0)
(-2.27606 0.107043 0)
(-2.62111 -0.26748 0)
(-2.18054 0.0945382 0)
(-2.53564 0.372138 0)
(-2.25701 0.0226426 0)
(-2.21585 0.0785703 0)
(-1.19116 0.0728815 0)
(-1.2599 -0.162614 0)
(-1.98675 0.0859817 0)
(-2.60324 0.312008 0)
(-2.11762 0.0416078 0)
(-2.41937 -0.383974 0)
(-2.26254 0.0844266 0)
(-1.23043 -0.27126 0)
(-1.66145 0.441368 0)
(-1.54556 0.365495 0)
(-1.42876 -0.504 0)
(-1.11262 -0.151405 0)
(-2.00225 0.309365 0)
(-1.23156 -0.376466 0)
(-1.82858 0.276123 0)
(-1.12224 -0.167925 0)
(-2.00126 0.326291 0)
(-1.82995 0.290139 0)
(-1.24752 -0.397104 0)
(-2.07807 0.167587 0)
(-1.14611 -0.242943 0)
(-1.06189 -0.0140771 0)
(-1.87881 0.15595 0)
(-2.09326 0.147611 0)
(-1.0598 0.00294279 0)
(-1.89068 0.139467 0)
(-1.1386 -0.224238 0)
(-1.14677 -0.237354 0)
(-1.76148 0.33409 0)
(-1.2949 -0.470429 0)
(-1.91099 0.386618 0)
(-2.10059 -0.346226 0)
(-2.27787 0.146751 0)
(-2.62131 0.262538 0)
(-1.91427 0.0618625 0)
(-2.00549 -0.141743 0)
(-1.06525 0.0702067 0)
(-1.80915 -0.0894163 0)
(-1.04154 0.224855 0)
(-1.02628 0.0908522 0)
(-2.10008 0.054271 0)
(-1.08564 -0.114402 0)
(-1.89734 0.0653472 0)
(-1.508 0.462762 0)
(-1.64274 -0.259622 0)
(-1.41885 0.333361 0)
(-1.86372 -0.450019 0)
(-1.9848 0.403373 0)
(-2.11578 -0.111166 0)
(-1.86593 0.106561 0)
(-2.50757 -0.31542 0)
(-2.30406 -0.00215942 0)
(-2.21494 -0.153596 0)
(-2.34042 0.265124 0)
(-2.79952 -0.180424 0)
(-1.86661 0.0497949 0)
(-2.06625 0.0311293 0)
(-1.06308 -0.0678522 0)
(-1.00675 0.12327 0)
(-1.85236 0.386441 0)
(-1.14512 -0.258557 0)
(-1.29614 -0.487978 0)
(-1.70973 0.331818 0)
(-2.66117 -0.257879 0)
(-2.19254 0.0967256 0)
(-2.54683 0.365655 0)
(-2.26933 -0.0118122 0)
(-2.71089 0.224771 0)
(-2.306 -0.31566 0)
(-2.31587 0.0742963 0)
(-2.09445 0.143788 0)
(-2.22638 0.355632 0)
(-2.00574 0.27715 0)
(-1.6287 -0.420709 0)
(-1.45948 -0.127112 0)
(-1.40374 0.421541 0)
(-1.74507 -0.234812 0)
(-1.34199 0.282463 0)
(-1.97237 -0.38929 0)
(-2.11109 0.240993 0)
(-1.14671 -0.0785792 0)
(-1.25122 -0.317838 0)
(-1.90944 0.216506 0)
(-2.13391 0.166224 0)
(-1.1147 -0.018202 0)
(-1.19989 -0.255959 0)
(-1.92473 0.154915 0)
(-1.44893 0.436379 0)
(-1.73548 -0.241271 0)
(-1.37744 0.295578 0)
(-1.96645 -0.407215 0)
(-1.7843 -0.21388 0)
(-1.32629 0.39328 0)
(-2.01042 -0.346368 0)
(-1.2838 0.252285 0)
(-2.28805 0.0839506 0)
(-2.85989 -0.0557906 0)
(-2.52173 -0.203625 0)
(-2.62407 0.327016 0)
(-2.0657 0.460808 0)
(-1.86527 -0.158908 0)
(-1.88755 0.261843 0)
(-2.16751 -0.443238 0)
(-2.10615 0.467932 0)
(-1.84531 -0.15608 0)
(-1.91648 0.26917 0)
(-2.14841 -0.451437 0)
(-1.83593 0.306192 0)
(-1.20424 -0.192762 0)
(-2.00553 0.357505 0)