/*--------------------------------*- C++ -*----------------------------------*\
| =========                 |                                                 |
| \\      /  F ield         | foam-extend: Open Source CFD                    |
|  \\    /   O peration     | Version:  3.0                                   |
|   \\  /    A nd           | Web:         http://www.extend-project.de       |
|    \\/     M anipulation  |                                                 |
\*---------------------------------------------------------------------------*/
FoamFile
{
    version     2.0;
    format      ascii;
    class       regIOobject;
    location    "40/uniform";
    object      profilingInfo;
}
// * * * * * * * * * * * * * * * * * * * * * * * * * * * * * * * * * * * * * //

profilingInfo
(

    {
        id              9;
        parentId        7;
        description     "Foam::Time::writeObject - outputTime";
        calls           1;
        totalTime       0.00332;
        childTime       0;
        onStack         1;
    }

    {
        id              7;
        parentId        1;
        description     "Foam::Time::writeObject";
        calls           400;
        totalTime       0.005241;
        childTime       0.00332;
        onStack         1;
    }

    {
        id              1;
        description     "application::main";
        calls           1;
        totalTime       2.14277;
        childTime       0.263647;
        onStack         1;
    }

    {
        id              3;
        parentId        2;
        description     "functionObjectList::read";
        calls           1;
        totalTime       1.2e-05;
        childTime       0;
        onStack         0;
    }

    {
        id              8;
        parentId        1;
        description     "functionObjects_.execute()";
        calls           399;
        totalTime       0.002272;
        childTime       0;
        onStack         0;
    }

    {
        id              2;
        parentId        1;
        description     "functionObjects_.start()";
        calls           1;
        totalTime       5e-05;
        childTime       1.2e-05;
        onStack         0;
    }

    {
        id              4;
        parentId        1;
        description     "fvMatrix::solve_s";
        calls           400;
        totalTime       0.256084;
        childTime       0.141631;
        onStack         0;
    }

    {
        id              5;
        parentId        4;
        description     "lduMatrix::solver_sx";
        calls           400;
        totalTime       0.072325;
        childTime       0;
        onStack         0;
    }

    {
        id              6;
        parentId        4;
        description     "lduMatrix::solver_sy";
        calls           400;
        totalTime       0.069306;
        childTime       0;
        onStack         0;
    }
);


// ************************************************************************* //
