/*--------------------------------*- C++ -*----------------------------------*\
| =========                 |                                                 |
| \\      /  F ield         | foam-extend: Open Source CFD                    |
|  \\    /   O peration     | Version:  3.0                                   |
|   \\  /    A nd           | Web:         http://www.extend-project.de       |
|    \\/     M anipulation  |                                                 |
\*---------------------------------------------------------------------------*/
FoamFile
{
    version     2.0;
    format      ascii;
    class       volScalarField;
    location    "3";
    object      p;
}
// * * * * * * * * * * * * * * * * * * * * * * * * * * * * * * * * * * * * * //

dimensions      [0 0 0 0 0 0 0];

internalField   nonuniform List<scalar> 
400
(
0.98255
0.9099
0.900672
0.874391
0.892899
0.890332
0.922848
0.932655
0.972047
0.98716
1.02889
1.04388
1.08395
1.09318
1.12622
1.12226
1.14009
1.11186
1.1008
1.02757
1.0494
0.984841
0.975667
0.949065
0.962031
0.952443
0.974026
0.971588
0.996001
0.995802
1.02071
1.01992
1.04396
1.03988
1.06051
1.04858
1.05981
1.03103
1.01973
0.95539
1.01081
0.950733
0.94355
0.919204
0.936478
0.930246
0.957576
0.959779
0.990991
0.996316
1.02897
1.03391
1.06637
1.06734
1.0963
1.08781
1.10556
1.07825
1.0693
1.00859
1.00683
0.943595
0.93931
0.916024
0.934984
0.929788
0.95627
0.958578
0.986975
0.991846
1.02095
1.02566
1.05527
1.05691
1.08503
1.07805
1.09732
1.0706
1.06339
0.997841
0.96676
0.895331
0.896663
0.875814
0.902746
0.903018
0.9376
0.946388
0.98336
0.99523
1.03414
1.04613
1.08738
1.09613
1.13778
1.13652
1.16968
1.14359
1.14461
1.0645
0.947545
0.867234
0.873314
0.854918
0.885575
0.889541
0.924558
0.936328
0.971298
0.985771
1.02172
1.03682
1.07592
1.08908
1.13135
1.13544
1.17308
1.14897
1.15402
1.05698
0.914399
0.823683
0.837801
0.823222
0.861401
0.871205
0.912212
0.929748
0.970681
0.990858
1.03429
1.05547
1.10507
1.12502
1.18219
1.19311
1.24992
1.22741
1.24841
1.12518
0.891272
0.797633
0.816701
0.807189
0.846841
0.860958
0.899794
0.920184
0.956385
0.978789
1.01603
1.04003
1.08346
1.10816
1.16151
1.17969
1.23784
1.22111
1.24692
1.10554
0.860922
0.771586
0.796662
0.794095
0.835961
0.855542
0.895339
0.919911
0.957563
0.983525
1.02402
1.05183
1.10185
1.13169
1.19705
1.22233
1.29964
1.28871
1.33638
1.17682
0.829792
0.759674
0.786693
0.792864
0.831399
0.854876
0.888859
0.914867
0.944536
0.970859
1.00113
1.02959
1.06742
1.10004
1.15263
1.18506
1.25253
1.25379
1.29967
1.14635
0.792054
0.752073
0.780789
0.798128
0.832606
0.861277
0.89129
0.919853
0.946657
0.974176
1.00317
1.03264
1.07188
1.10699
1.16595
1.20486
1.28739
1.3016
1.37415
1.23481
0.745939
0.749485
0.779035
0.808815
0.837818
0.869973
0.892566
0.920972
0.938095
0.963729
0.979823
1.00702
1.02903
1.0635
1.10031
1.14442
1.20208
1.23562
1.29253
1.20346
0.699423
0.75132
0.780249
0.824957
0.847024
0.884621
0.900684
0.93034
0.941783
0.966441
0.977682
1.00305
1.02161
1.05543
1.09264
1.14182
1.21014
1.26451
1.35637
1.32269
0.644283
0.748628
0.783382
0.842148
0.861293
0.901746
0.911277
0.939235
0.941199
0.961969
0.95991
0.980228
0.979555
1.00878
1.01805
1.0684
1.09896
1.17613
1.23312
1.29281
0.606276
0.75819
0.790691
0.86553
0.877987
0.923612
0.926034
0.953862
0.948837
0.966803
0.95772
0.973769
0.965976
0.991201
0.995396
1.04784
1.0845
1.18705
1.28912
1.43889
0.568168
0.760375
0.806847
0.89247
0.905393
0.95152
0.948621
0.972917
0.959672
0.972361
0.951739
0.960884
0.935501
0.952352
0.928433
0.97539
0.96773
1.08688
1.13
1.39573
0.570503
0.790433
0.829948
0.928049
0.934424
0.983177
0.972885
0.995084
0.974565
0.983175
0.954928
0.958315
0.923742
0.933437
0.899311
0.942649
0.932705
1.07295
1.16051
1.5358
0.604434
0.826531
0.880226
0.97772
0.98238
1.02612
1.00996
1.02641
0.999348
1.00227
0.966013
0.962245
0.915049
0.913806
0.857238
0.885837
0.83447
0.969181
0.974191
1.44021
0.686676
0.894781
0.935606
1.03465
1.03029
1.07066
1.04633
1.05818
1.02455
1.02296
0.980291
0.970704
0.914639
0.904088
0.833732
0.849995
0.782348
0.917767
0.932013
1.49024
0.890169
1.015
1.0448
1.12082
1.10422
1.13019
1.09856
1.10216
1.06479
1.05803
1.01284
0.997471
0.937146
0.9149
0.834109
0.824011
0.731745
0.815889
0.753665
1.25778
)
;

boundaryField
{
    cavity
    {
        type            implicitExtrapolation;
    }
    lid
    {
        type            implicitExtrapolation;
    }
    frontAndBack
    {
        type            empty;
    }
}


// ************************************************************************* //
