/*--------------------------------*- C++ -*----------------------------------*\
| =========                 |                                                 |
| \\      /  F ield         | foam-extend: Open Source CFD                    |
|  \\    /   O peration     | Version:  3.0                                   |
|   \\  /    A nd           | Web:         http://www.extend-project.de       |
|    \\/     M anipulation  |                                                 |
\*---------------------------------------------------------------------------*/
FoamFile
{
    version     2.0;
    format      ascii;
    class       volScalarField;
    location    "3";
    object      Theta;
}
// * * * * * * * * * * * * * * * * * * * * * * * * * * * * * * * * * * * * * //

dimensions      [0 0 0 0 0 0 0];

internalField   nonuniform List<scalar> 
400
(
0.0926672
0.0587407
0.0492286
0.0400126
0.0419522
0.0447465
0.0527819
0.0615297
0.0725803
0.0837961
0.0957672
0.106958
0.117951
0.126424
0.133979
0.135769
0.136289
0.124928
0.112839
0.07566
0.127937
0.0967809
0.0878116
0.0779277
0.0775436
0.0765671
0.0794323
0.0818493
0.0856566
0.0890095
0.0928187
0.0959052
0.0991821
0.100782
0.10255
0.100207
0.098164
0.0866676
0.0758564
0.0443782
0.115448
0.0857337
0.0770691
0.0674267
0.0683394
0.0682048
0.0728654
0.0767879
0.0826941
0.0880069
0.0941449
0.0993477
0.105059
0.108543
0.11261
0.111444
0.111039
0.0997383
0.0890585
0.0586967
0.111633
0.0804731
0.0736931
0.0646922
0.0672792
0.0677558
0.0732102
0.0772544
0.0832956
0.0884437
0.0945729
0.0997364
0.10586
0.109797
0.115132
0.114917
0.116573
0.105811
0.0967532
0.0640477
0.0964038
0.0609939
0.0561133
0.0479347
0.0534632
0.0559738
0.0642531
0.0706403
0.0794096
0.0871036
0.0961105
0.10406
0.11345
0.120359
0.129468
0.131913
0.137427
0.127118
0.119757
0.0796779
0.0847663
0.0450712
0.0430473
0.0361679
0.0447807
0.0490867
0.0594765
0.0672476
0.0774715
0.0863446
0.0967667
0.106152
0.117591
0.126608
0.138997
0.14411
0.154064
0.144844
0.140341
0.0916992
0.0697041
0.0248802
0.0266465
0.0212538
0.0333668
0.039724
0.0525589
0.0620981
0.0742108
0.0847586
0.0971077
0.108465
0.122511
0.134183
0.150575
0.158913
0.174588
0.166603
0.166904
0.105506
0.0555076
0.00939527
0.0149084
0.0116927
0.0264948
0.0345085
0.0487897
0.0592625
0.0721615
0.0833424
0.096436
0.108683
0.124149
0.137591
0.156966
0.168289
0.189133
0.183534
0.188976
0.11838
0.0387592
-0.00513955
0.00450201
0.00386289
0.0208149
0.0302501
0.0454676
0.0565747
0.0698403
0.0813295
0.094728
0.107481
0.123837
0.138658
0.160514
0.17467
0.200842
0.198228
0.211107
0.132065
0.0209225
-0.0132951
-0.000941066
0.00198585
0.0194878
0.0299906
0.0449744
0.0560199
0.0686465
0.079579
0.0921908
0.104428
0.120283
0.135382
0.157809
0.174126
0.203071
0.205131
0.223224
0.147038
-0.000950418
-0.0202586
-0.00491152
0.00227082
0.0197837
0.0312282
0.0454529
0.0560965
0.0675426
0.0774295
0.0885848
0.0996654
0.114129
0.128789
0.150779
0.168856
0.200292
0.208162
0.234862
0.166362
-0.0240653
-0.0216607
-0.00504975
0.0075389
0.0237416
0.0360452
0.0486523
0.0584368
0.0679767
0.0761723
0.0850114
0.0940508
0.10579
0.118828
0.138015
0.156812
0.186449
0.201878
0.230866
0.187123
-0.0507613
-0.024459
-0.00537716
0.0132351
0.0284847
0.0417761
0.0526853
0.0614294
0.0687381
0.0748631
0.080874
0.0873175
0.0956152
0.106363
0.12207
0.141229
0.169941
0.194169
0.233162
0.217501
-0.0754672
-0.0230059
-0.00206235
0.0231938
0.0370204
0.0511789
0.0599503
0.0672915
0.071974
0.0755982
0.0782974
0.0814947
0.085397
0.0926889
0.102638
0.120536
0.142617
0.176003
0.211684
0.242655
-0.0982349
-0.0220139
0.00122046
0.0331435
0.0461913
0.0612791
0.0680225
0.0738309
0.0757573
0.0766767
0.0758342
0.0754759
0.0746591
0.0780248
0.0822056
0.0984584
0.11672
0.159828
0.207424
0.282516
-0.112665
-0.0163165
0.0112891
0.0487273
0.0610155
0.0761459
0.0805396
0.0842957
0.0833409
0.0813271
0.0769318
0.0727027
0.0668515
0.0652401
0.0619187
0.0739565
0.081495
0.13101
0.165721
0.299682
-0.114876
-0.00385853
0.023601
0.0660673
0.0770567
0.0919771
0.0938149
0.0953627
0.091464
0.0865285
0.0786166
0.0705525
0.0597125
0.052957
0.0425424
0.0498594
0.0506394
0.105971
0.151238
0.335665
-0.0945894
0.0181043
0.0503223
0.0927561
0.101865
0.114156
0.112983
0.111522
0.104879
0.0970298
0.0862143
0.0744615
0.0592818
0.0466814
0.0287362
0.0276761
0.0152393
0.0662045
0.0845467
0.315789
-0.0554746
0.0526938
0.0800606
0.122379
0.127682
0.137017
0.132283
0.127766
0.118347
0.107833
0.0943051
0.0792467
0.0599633
0.041782
0.0166464
0.00688547
-0.0158525
0.0295858
0.045756
0.313841
0.0448813
0.115354
0.136696
0.167044
0.165783
0.167336
0.158837
0.150013
0.138854
0.125829
0.111371
0.0935552
0.0726645
0.0485688
0.0189934
-0.00488188
-0.0384303
-0.0216453
-0.0386418
0.197849
)
;

boundaryField
{
    cavity
    {
        type            implicitExtrapolation;
    }
    lid
    {
        type            implicitExtrapolation;
    }
    frontAndBack
    {
        type            empty;
    }
}


// ************************************************************************* //
