/*--------------------------------*- C++ -*----------------------------------*\
| =========                 |                                                 |
| \\      /  F ield         | foam-extend: Open Source CFD                    |
|  \\    /   O peration     | Version:  3.0                                   |
|   \\  /    A nd           | Web:         http://www.extend-project.de       |
|    \\/     M anipulation  |                                                 |
\*---------------------------------------------------------------------------*/
FoamFile
{
    version     2.0;
    format      ascii;
    class       volScalarField;
    location    "35";
    object      Theta;
}
// * * * * * * * * * * * * * * * * * * * * * * * * * * * * * * * * * * * * * //

dimensions      [0 2 -2 0 0 0 0];

internalField   nonuniform List<scalar> 
3012
(
-2.50771
1.78608
4.06386
-0.346672
27.9696
10.3965
-21.7114
-4.73083
-2.63476
3.50131
-2.96578
3.47761
1.01628
-0.700604
2.50864
0.829838
-21.3013
-24.6657
18.666
23.6766
1.08508
0.0379856
1.70868
0.945728
3.80977
-2.01793
4.96681
-1.62792
-1.5201
3.8538
-0.119561
2.34303
0.477518
2.83274
-0.866151
1.43921
1.77178
7.81775
-6.01192
-0.638199
0.976916
3.11803
1.14018
-1.00547
0.993785
1.01822
-1.13858
3.12578
0.52291
1.32343
0.461858
1.15855
-4.1531
1.72673
1.35409
6.86332
-4.04989
-14.5176
1.38496
12.006
-14.8874
13.3717
22.5044
-5.41489
0.950559
-1.70297
4.09791
1.40398
1.8111
0.988279
1.07084
0.197024
2.24487
1.07886
0.120692
-0.418467
-0.725612
2.72806
1.75441
0.269635
0.912438
-1.47288
1.14194
3.51046
2.85574
0.747958
1.0918
-0.804983
-0.317646
3.9788
-1.68366
2.66529
2.98236
-1.67252
-0.038935
4.03506
-5.98502
4.07162
-3.61631
6.17615
4.09415
2.0755
0.300071
-1.77332
3.38514
-0.95097
3.1666
-1.07001
2.14844
0.900897
-0.297914
1.08581
-1.03723
3.29438
1.13416
1.13954
2.45182
0.0899638
2.36149
0.187124
-0.775711
-0.0953726
0.928563
2.60764
5.37467
-9.66529
7.08658
-8.08646
28.756
-31.0194
3.69832
-4.88829
-3.63112
2.42267
11.434
4.60084
-15.9287
12.5641
24.7824
-7.56571
9.38958
-2.20497
-5.40973
5.14653
6.98567
9.25015
-4.56407
-3.06641
5.37004
-25.1778
-5.99687
22.2652
0.236642
-0.651971
1.75544
2.75037
2.44402
3.48021
-1.29904
-0.214939
2.52067
-0.399752
1.9564
0.105991
-1.88354
-7.91487
3.93761
10.1084
0.464881
3.01762
-1.08306
1.43078
9.79662
9.90754
-9.34654
-10.2989
-7.98515
11.4878
16.896
-10.4946
-8.48937
3.86183
8.59109
-3.37459
3.43418
-1.59637
-1.12694
4.12637
-0.162692
2.64383
2.12668
-0.74708
2.32059
-0.211667
2.06185
0.00960504
2.11191
3.09856
-1.01846
0.034218
0.873933
-0.452015
0.7924
2.09196
1.19581
4.50776
-2.11913
1.35333
1.40728
1.18091
1.17405
0.300686
1.13731
1.75587
-0.0677248
1.00156
3.09413
1.36463
0.497108
-1.08433
0.190871
1.05649
0.889205
0.361489
0.158818
-0.258137
1.3843
1.94873
0.925574
1.90167
1.00166
-0.406056
0.984387
-0.106608
1.3378
0.175366
2.90368
2.2906
-0.418567
-1.09918
2.3272
-0.928876
3.15804
-0.102217
-0.267728
3.26074
2.52604
-0.81647
1.60582
-1.72971
0.60528
3.99357
-1.89636
4.16202
3.8228
-1.45061
5.91995
1.97023
-1.80109
1.28581
1.20571
2.15894
-0.0202088
-0.649603
0.710103
-0.0365908
0.631724
1.58403
2.14782
-0.469217
-1.0414
2.77493
1.31529
4.16564
0.995118
-1.83501
1.54397
-1.20847
3.215
0.380489
-5.35981
2.49552
0.316157
8.50094
0.896606
1.49345
0.187755
1.04653
19.1202
-17.7227
-21.9725
15.4164
-19.5583
26.1041
6.81871
-1.15608
-0.445449
-1.94899
2.77609
4.31257
3.02102
-0.698555
-1.70596
4.26653
2.0115
-1.32052
3.42128
-0.121421
-0.902039
-1.24735
1.51512
0.828916
5.57947
-1.36068
-3.89734
2.5976
3.29832
3.6834
-1.10437
-0.781044
0.497046
1.38676
0.388787
1.40282
0.00366886
-0.865415
2.08377
3.05525
-4.3099
-0.399802
3.38724
8.87529
2.4966
0.389019
1.62548
-0.536749
2.0247
0.0499895
2.16157
-0.162669
1.20303
0.626908
1.38009
0.178949
-0.216342
3.50946
-1.26379
2.07846
1.11372
3.49904
1.2475
-1.14024
0.785464
1.89282
-0.191745
0.0501636
0.763585
0.2281
1.84343
1.20091
-0.632175
2.53973
2.81126
-0.373816
0.177425
3.27735
-1.16873
1.91898
0.103492
2.41201
-1.69989
0.852097
-2.96446
3.902
6.27224
-0.237793
1.98659
2.0644
-0.27714
-0.170708
-0.407851
0.493801
0.914218
1.70763
-0.0830497
-1.4646
3.62895
2.11275
4.04451
-1.93555
-1.15004
5.17938
3.21087
-1.95365
-2.16846
2.78187
-1.10522
2.35787
-0.243328
3.22433
2.33955
-0.98942
-0.859561
2.00565
0.906197
-1.15367
1.40643
3.37617
-2.3759
-4.81764
10.0823
9.0623
1.67849
-3.04243
1.38416
6.35911
-12.3112
8.87938
-11.2527
9.51962
-0.931821
-0.52536
3.43387
2.84692
1.56873
-0.293768
0.69184
1.79949
-0.258566
2.49468
0.75444
0.998362
-1.5285
-0.110169
2.33866
3.81118
-2.10005
1.36074
3.85881
0.189676
-2.62349
2.62887
4.55138
-0.489382
-0.0883079
-0.198096
1.81833
-0.10447
5.9968
0.505068
-3.72568
1.44299
1.26762
1.28332
1.32452
0.690922
-33.4185
5.96071
-9.26588
31.0069
5.57091
2.30007
0.34053
-2.62034
1.21172
1.11409
0.565395
0.511141
10.4048
9.15026
-5.17467
-4.62432
2.75693
5.39423
-2.31066
-0.208118
1.83686
0.298164
0.191686
1.59752
-1.47034
-2.23001
4.92399
4.17785
0.974851
-1.53698
0.883427
3.60718
-22.1716
11.7866
-12.5361
23.0584
1.82988
2.06394
-0.418538
-0.238449
0.802347
-0.705997
1.07448
2.62001
-0.646189
2.38246
1.90095
-1.12926
0.246275
3.33249
-1.04025
1.72485
-24.0422
-22.7235
19.0638
21.6384
0.01381
2.9066
2.37937
-0.67556
5.73451
0.0677222
3.18248
-2.81785
-0.317714
2.4764
-0.363
2.48962
-0.0411256
2.16907
-0.177582
1.95063
2.95252
0.556106
-1.11363
1.46793
24.3092
-23.3337
-5.45769
6.36828
4.32678
3.36871
-1.82595
-1.05169
4.4657
0.582653
1.74082
-2.244
0.211163
2.39805
-2.76964
5.50324
0.95773
-1.12898
3.10745
1.32406
2.3767
2.77664
-0.787859
-0.453213
0.533577
1.84003
-2.29747
4.78268
0.024567
2.19571
-0.974825
3.05071
0.150193
-1.06205
1.34584
2.56864
1.07778
-0.282604
0.054426
2.10193
3.59235
2.50967
-0.381237
-1.49884
1.1965
-0.52512
0.345086
2.23763
0.243037
0.975218
1.0434
1.74192
-19.1719
30.108
-32.7321
16.3738
0.684132
1.96827
-2.37485
5.15149
3.91342
2.20344
-1.68819
0.14607
-0.411871
5.72394
-2.18636
4.67169
-15.8884
20.4745
-10.4297
13.7548
5.57645
-19.7125
-0.443684
25.5636
-1.98628
2.13042
3.66498
-0.566804
-0.346217
3.33825
2.30882
-1.13546
-3.9921
3.75609
-1.6879
6.15296
1.4442
-0.82514
0.237975
2.97391
0.201037
1.55163
0.470189
1.13541
-3.01873
2.52445
3.94221
-1.5449
1.59747
2.84515
-0.837945
0.906516
1.11401
0.94657
0.495258
0.910591
2.73091
0.0427144
1.58783
-1.13297
16.7845
-0.127003
7.07116
-10.0387
-2.74711
3.64449
-0.467993
5.56459
-2.67252
-3.90707
5.87432
7.77568
-5.54682
6.5279
-3.57367
11.0681
3.49306
-15.195
12.2332
-5.29524
12.8394
-1.99814
8.51214
-4.76994
-5.20039
5.60287
4.72815
-4.27522
1.28758
1.36556
0.1407
0.230695
-0.404034
5.28996
-2.61182
3.08534
-24.2349
-3.78244
24.0261
4.32427
-1.55975
3.60483
-0.381827
2.45113
5.54566
-2.72803
3.11635
-0.319935
0.709334
1.30968
1.01615
0.743518
4.44995
2.13341
-1.9673
0.308265
1.41606
0.120612
0.217803
0.516776
-17.5235
-20.3927
18.1078
20.5944
2.1123
4.08795
-1.59622
0.189556
3.60047
-1.1322
-0.803304
3.60066
2.89891
0.616765
1.5139
-0.373672
3.43682
2.85682
-1.14914
-0.739375
1.81602
-1.12721
0.59209
3.59478
0.397045
2.21567
1.68671
-0.327811
-11.0758
14.6032
12.2557
-14.2408
0.467177
3.97756
1.11882
-2.72683
-2.86945
2.76467
5.22462
-0.133642
-2.26566
-4.00327
3.01086
4.93843
2.24842
-6.35451
9.08495
0.3597
-0.0058703
-2.84204
4.40144
2.00695
0.693105
3.27113
7.4721
-3.99562
2.13032
-0.0657397
2.51934
-0.302551
2.7052
2.10873
-0.217915
-0.748167
-1.89468
1.55735
6.39846
1.87981
1.84634
-0.330929
-0.559921
2.05191
-2.40885
3.17034
5.78341
-0.226564
2.90187
0.100601
1.67146
-0.940635
4.86521
0.450802
2.26577
-2.27166
3.78693
1.19366
-2.06738
0.767651
0.0737892
2.1616
-1.99376
4.2522
-0.430225
0.617835
2.63438
1.43433
1.47992
1.73754
2.74334
-0.360633
3.90095
-1.00944
-1.43197
3.34898
2.20394
-1.26922
2.61832
-0.724033
0.87821
4.62004
1.50754
-2.15821
-1.30461
3.20968
2.56177
-0.586468
3.14524
-1.24443
1.35846
0.340186
-1.10673
3.07724
3.2829
-0.752635
0.800408
1.54025
3.37355
-1.16843
-0.454991
0.154997
2.40458
2.13773
0.723923
1.24147
-14.1315
15.7939
-0.41234
3.15584
2.27736
-1.07661
-4.50913
5.35713
6.26933
-5.63627
3.58133
-10.2484
-2.72616
10.3033
2.77777
0.651403
-0.549422
1.32935
10.255
2.65767
-3.19591
3.98275
2.53
0.675181
2.48123
6.72948
-0.24009
9.25283
2.43728
-7.60954
-2.83367
3.49214
5.35385
-1.0006
0.866008
0.465924
0.836562
1.18558
1.11864
0.671339
0.992325
0.508668
-5.74015
0.921308
5.91816
-0.391727
2.47756
1.84683
-0.574188
0.324257
1.62837
-0.306381
0.0331288
2.01587
-2.54434
0.231155
6.62625
8.79807
1.48021
-3.84853
1.57217
7.17152
-1.94047
3.12151
4.69937
-0.511554
-3.65786
6.78378
-0.610976
3.95653
3.11912
2.01747
0.0716462
-0.943876
-0.576243
2.93538
-0.669568
3.00444
1.51349
-3.87377
0.208483
5.72127
2.71575
-0.101954
-0.860898
1.64041
1.06979
-1.19754
3.42322
0.876761
4.49719
-2.23191
0.858519
1.33852
-1.33526
0.804091
0.315323
2.39205
2.92818
-0.770208
-0.6945
2.83288
1.52698
0.639803
3.31318
-1.04808
0.0189791
-0.972921
2.60204
1.5391
0.38603
1.54669
2.23193
-0.279376
1.25981
-0.383515
1.06027
2.51082
-2.41111
3.97171
-1.85646
4.50141
2.9884
1.09019
0.534793
-1.16286
-1.30679
3.38082
2.72987
-0.606372
2.04195
-0.823642
-0.24397
2.54939
-0.622868
2.77411
-0.0326177
1.9066
3.69641
-1.59962
-1.45599
3.77835
3.09845
-2.27513
-0.491421
4.89474
1.8692
-1.28319
0.196912
3.50817
3.24517
2.11252
0.0650443
-1.11166
-0.757753
2.90383
1.28651
0.985264
3.74615
2.18231
-0.104846
-1.72967
10.5272
1.88593
-5.19756
2.3179
-0.578545
0.552528
-10.6485
10.5444
5.03373
0.624413
1.70775
-2.75862
1.09441
2.21126
0.588728
-0.487994
0.804219
-0.415087
2.31642
0.956985
1.4332
-0.894341
3.09427
0.646407
-4.32822
5.73725
4.0329
-2.58242
4.25366
-6.22426
-10.8047
8.9052
1.12157
2.11088
0.638159
-0.350386
1.09056
-1.37372
1.23842
3.63506
0.419942
2.50735
1.55303
-0.468221
-1.15976
2.21925
3.49556
-0.0256704
-0.416563
2.8102
2.28182
-1.05801
-0.196492
2.25758
-0.103661
2.06953
18.1511
-10.1576
-4.98268
10.5673
-1.17144
0.173101
3.47545
2.11214
2.67994
-0.24547
-0.432644
2.42389
3.8089
-1.53458
3.23473
-1.25866
3.11313
-0.605148
2.93497
-0.623486
2.63328
1.29792
-0.653243
0.655685
1.10942
3.34113
1.1059
-1.1187
4.18536
-1.70565
0.403019
2.24807
3.34458
-1.00233
2.56282
-0.301944
-0.0169884
1.14021
0.663871
1.81917
1.17157
3.95795
1.19933
-1.63598
3.55108
-1.38895
0.543479
1.59618
3.243
-0.884596
4.298
-1.94517
-3.59797
-2.94382
4.24133
4.91768
-0.578323
3.78594
2.82912
-1.54314
-0.149998
2.18824
1.63777
0.253559
-0.190501
2.26389
0.869447
1.16683
-0.542962
3.60518
-1.77913
5.53188
0.450158
2.18456
1.36004
-0.280649
3.00196
-0.775305
2.5272
-0.210894
5.52457
3.33042
-3.26194
-0.986897
4.31203
3.18806
-2.04842
-0.97826
-4.00995
11.3008
-12.9595
1.77274
3.43355
1.62075
0.546505
-1.17294
0.421303
0.530434
0.655787
0.582569
0.381531
0.291946
0.981195
1.2195
0.626397
0.285222
0.318977
0.656622
1.16004
-1.50469
1.10321
3.82672
-0.925911
0.354553
0.607776
1.92378
1.6148
-0.060859
-0.751581
0.879454
1.58365
0.340482
2.72403
-0.733061
-6.44167
3.0845
7
-2.0981
2.77877
-3.34199
8.25054
-8.26163
1.9281
0.593547
1.13418
-0.110533
5.43515
-0.00906007
3.52971
-2.64351
0.229409
1.6453
0.310603
1.32609
0.46146
3.00929
1.72501
-0.917332
0.801109
1.12967
0.680255
0.931785
2.9621
1.39749
0.822049
-0.98043
1.57436
0.529573
0.269152
0.986484
-0.57914
-2.3754
3.23531
5.14489
3.35305
-2.22543
3.5229
-2.04312
1.50921
0.746082
0.283511
1.06925
1.33415
5.45517
1.31802
-2.77196
1.83589
-0.693332
-0.0109517
2.63469
2.23529
-1.83538
0.675616
5.10876
-1.65266
-0.708681
4.18868
5.7711
-0.516626
2.39989
0.656648
1.46816
2.19609
-0.036332
2.05636
-0.0722917
5.08568
-0.801033
4.35288
-1.29451
2.85192
4.87861
-4.224
-6.6389
4.75895
-2.32333
2.74056
-0.351878
2.00235
-0.756369
0.140455
2.70974
3.08693
0.634506
1.7338
-0.866671
2.51908
0.535561
1.45227
-0.638005
2.1802
0.0801738
-0.174839
1.97701
-1.22761
2.0631
3.63007
0.281246
-17.1552
16.6647
15.7042
-17.6481
3.39797
-0.57624
-1.3501
2.9348
2.01719
-2.37967
-0.78666
3.49032
0.709356
0.89646
1.07377
0.680347
-0.562647
1.06658
-1.4484
2.14743
4.54663
-1.41567
-1.72465
4.54737
-0.0718033
2.72249
-0.650817
2.09302
5.3787
0.363989
2.22426
-2.67099
0.143295
1.64209
0.201735
1.3363
3.02291
-0.647604
-2.04112
1.79043
1.75751
-0.82118
2.70661
0.155762
-1.83362
4.16181
-0.461981
2.76684
0.235635
1.37753
0.127383
1.32267
-1.34973
4.77272
-2.01409
4.20833
1.57824
0.63064
1.23197
0.367553
0.162492
1.9373
2.51557
-0.576755
1.28326
1.86355
0.618883
0.075545
-0.963422
1.02944
0.676026
2.89391
-0.768631
-1.59026
4.00953
3.09494
-0.113666
-0.1177
1.47775
1.59337
0.0462239
1.19109
1.52623
0.352599
2.0224
-0.1983
0.319507
0.968587
-1.76682
0.58072
0.0637573
2.51401
2.72216
5.3207
-2.21905
0.481796
18.9118
-12.2744
11.2722
-6.15796
2.25211
0.86586
-0.373147
0.509447
10.2194
-19.5081
26.2927
-4.23053
-5.14292
-1.01522
9.10908
4.8757
3.01355
-2.55145
-0.136667
5.07436
1.36369
0.296003
-1.00429
2.71098
1.04434
1.03837
-0.459264
2.60906
0.0268251
1.46379
1.96304
-0.279913
0.58816
0.446401
1.43637
1.25404
1.55787
0.846141
0.147818
0.884906
1.91566
0.145966
5.22316
-1.96879
1.62248
1.9509
-0.0555136
-0.26722
3.307
-1.03492
-0.913301
3.38414
8.99797
21.1093
-14.7658
-3.22843
-2.1087
3.59923
3.83943
-2.31768
-22.6444
10.8932
20.3301
-14.8951
5.00736
2.55666
1.8725
7.30563
3.06502
-0.693024
2.76529
-0.807609
0.26482
-2.43491
2.73274
5.25719
1.76432
-1.26413
2.36162
-0.644532
1.70509
-0.76177
2.85485
0.55723
-1.1367
3.4759
0.40111
1.82439
0.12349
1.3087
0.44303
1.19783
-1.49329
4.35822
-1.88423
4.52593
0.0251436
0.495015
1.31716
1.07552
-1.90384
4.01069
-1.46967
4.64747
1.96926
-0.578718
2.56183
0.159795
1.99571
-1.88988
4.32766
0.303067
3.34565
3.76895
-1.1369
-1.5053
-0.395982
0.606249
2.48983
1.4115
0.898002
0.516257
-0.847833
2.30229
4.84828
1.96863
-2.92563
0.238194
3.17588
1.33646
-1.09409
0.720046
2.4981
-1.97889
3.39632
-0.787037
5.71006
-4.37904
0.0978669
1.23628
3.47554
0.605356
1.58791
-1.50795
1.55817
-0.63436
-2.25189
3.38233
0.196769
-0.224632
1.83188
2.30583
-22.6794
-3.88941
20.0201
2.77386
2.63344
-0.476209
2.13066
-0.0698818
1.02268
0.651565
1.82659
-0.0559304
0.320514
0.06052
1.45413
1.69451
0.900065
-0.442398
2.60586
1.14571
1.9537
0.317039
2.5475
-0.452178
0.395493
0.727417
1.28714
1.30842
-21.5065
15.9121
-12.9811
21.9816
0.413883
0.328801
1.32768
1.09616
1.47462
-0.0995451
-0.191191
1.88557
1.44864
0.227909
1.72888
0.732334
0.207777
0.548705
1.30892
0.827756
0.327624
2.01318
1.82957
0.164599
-0.182176
1.39908
2.12517
0.417403
-0.754337
2.35994
3.07624
-0.194599
0.488895
0.322062
0.84076
1.08667
1.07194
0.812714
2.89834
-0.772344
-1.65833
-2.2438
6.28322
6.67384
-0.629951
-0.127661
2.25526
2.74051
0.996202
-2.14385
4.72878
1.16845
-1.3095
0.19154
2.01441
3.36861
-0.073775
1.83792
0.243676
1.10588
-0.965121
3.15553
0.803967
1.54256
1.80329
-0.157328
0.788231
0.658407
-0.402713
2.91868
-1.12748
2.12049
1.7829
-0.00417001
-1.10206
2.99696
-0.473918
3.44406
-0.994276
2.80521
-2.28368
0.857231
1.61545
4.78171
-5.54788
-24.6956
6.01759
26.2695
0.131236
-0.154792
5.14237
4.82216
3.88986
-1.70582
-0.285611
2.14879
5.31026
2.37662
0.673299
-2.68568
3.16581
3.62912
-0.933488
-1.43702
-1.0357
2.83844
2.36177
5.67573
2.97702
-3.42166
5.08917
-1.48595
0.19124
2.60122
-2.16281
5.38459
-0.814763
-0.439963
2.75185
0.76719
1.89311
0.695667
1.30068
0.20143
-1.62044
1.40815
-0.561224
2.3106
-2.63217
1.73466
1.14518
6.02848
-0.62842
2.30703
0.785313
0.877484
3.39015
2.9698
-1.28519
-1.01421
-0.827678
3.10702
1.94993
0.401808
1.89538
-4.12898
-0.54706
5.46047
-1.49381
-0.540038
3.54927
2.88107
2.4371
-0.0929418
2.05805
-0.440939
2.25852
-0.705924
2.85951
-0.486413
-0.586705
1.73399
0.690133
2.91911
1.79285
-0.762181
0.211319
2.74285
3.66563
-1.56742
0.51128
1.53875
5.23801
-1.59005
-1.47384
4.8723
-0.308277
-0.36586
2.30274
2.44313
1.64444
-0.70581
2.85109
0.352186
-1.15036
1.81104
3.57516
0.479552
-1.01541
-2.11173
3.33629
4.51738
-1.0165
1.00089
3.2522
1.14771
1.87689
-1.07287
1.35587
-1.34318
-0.624003
-2.3303
4.46082
5.62083
1.88682
0.929497
-3.02829
5.9339
1.1794
-0.25287
2.37167
-0.21609
3.50081
-1.39942
3.56467
-1.61798
-0.167771
1.14656
2.11854
0.746121
4.19332
-2.13196
1.41005
0.447793
3.54758
-1.44695
1.93521
0.525112
-5.28782
-4.56506
6.98821
6.08261
4.35322
-2.13281
1.53561
0.596089
0.385808
-1.87335
3.2305
1.2901
-3.37581
7.6336
-4.55749
6.301
-0.610835
3.73115
-1.62629
2.31193
2.35188
5.38995
-2.39395
0.427988
-1.73914
4.08968
1.32012
0.791283
-13.0378
7.64448
-8.86147
13.2568
2.48318
0.950409
0.955195
-0.445791
-0.249853
1.68905
2.26767
0.395356
0.437772
0.488981
1.33619
1.20061
0.910033
0.93429
1.79552
0.0250165
3.05112
-1.75945
2.14769
-1.12194
-0.0539263
2.16403
3.11715
-0.858194
-2.03871
4.12132
2.42758
0.0998154
-1.03173
3.13176
2.23932
-0.277253
1.00816
1.91617
-0.166195
0.738793
-0.583404
1.67476
3.35946
-2.16313
2.76934
-0.479496
4.8918
1.95154
2.62297
-0.641083
2.77456
-0.472003
0.171325
3.07339
1.66695
-0.575476
1.65257
1.00531
0.577807
3.50681
-0.890002
1.90284
0.521261
3.15808
2.48533
0.826459
-0.564204
1.50124
-0.117947
2.05334
-0.0223371
2.34351
0.485703
-0.718407
1.5912
2.79323
3.36202
-1.54915
0.609898
0.998785
2.13824
-0.0559133
0.5748
1.33891
-0.425852
-0.783045
2.90324
2.5624
1.96754
0.257195
0.126642
1.84369
4.24386
-2.75304
3.69886
-3.18521
2.2325
3.10234
-0.00893392
-1.06928
6.25951
0.473442
3.1952
-1.33206
2.19386
-0.428358
-5.04652
6.48758
-2.24584
2.83026
-0.65996
4.65615
-0.75213
2.9331
2.716
-1.03136
3.66952
1.30161
0.631471
-1.77594
1.29106
3.13632
-1.30256
0.409728
-6.143
3.28531
-1.9435
7.64689
2.84756
-1.79317
4.89521
-0.301505
5.67667
1.17942
1.59178
-2.76143
-3.90589
1.91053
1.38181
7.12275
1.73621
-0.00646158
5.10696
3.1666
0.206534
2.61346
1.39139
-1.01088
1.42658
-2.03625
3.73139
0.238671
-0.663576
1.08967
2.8177
1.03124
3.20142
-0.309413
2.59063
-0.970337
-1.35136
1.42631
3.61775
0.771451
0.387451
2.59147
-0.505118
1.83381
0.473597
1.94438
-0.0290085
1.83829
-3.17497
10.7017
5.00775
-8.22645
0.556456
1.93815
1.40147
0.0199527
0.487684
0.270168
1.48812
1.70503
0.328788
1.69009
2.56562
-0.508071
-0.139637
2.08329
2.17404
-0.0147853
1.89948
1.84364
-0.134391
-0.147622
1.40596
-0.566631
2.29274
0.348478
-0.316937
2.16246
2.3049
-0.226609
-3.29268
2.84754
0.269849
6.48863
5.85368
-1.3446
5.40506
-2.2693
3.48113
-0.627882
1.01601
-2.83004
1.61285
0.114714
-1.50292
3.47555
0.780256
0.271264
1.51897
0.860583
0.561703
1.42576
1.29189
0.397524
2.50135
1.32726
0.187433
-0.925518
-1.3273
5.958
-2.7302
4.78517
-0.0922829
2.17588
3.23227
-1.24571
0.0195669
0.216937
5.60875
-4.68442
2.71035
1.57241
6.50832
-2.31894
-2.87131
2.69153
0.67776
6.38975
-1.07261
1.58662
3.40428
-2.81971
-13.9473
24.3219
11.6421
-26.7646
-0.995232
4.07333
4.19718
7.39671
-0.970752
3.31892
3.44997
-1.19641
0.661759
4.64788
0.149159
-3.44983
-1.2396
3.22892
1.35218
0.442262
3.01397
-3.46422
5.04351
-1.77197
3.85548
-0.890698
-2.13737
2.19581
2.77198
-0.526119
2.24431
-1.14598
3.05253
1.61714
-0.974746
0.447101
2.57253
-0.621931
-0.983275
3.09142
0.933448
-5.84122
5.91642
-1.07197
1.29857
-0.367016
0.711844
2.22525
-0.222126
1.69373
-0.301487
1.52679
-0.718158
0.952187
0.399676
1.95162
0.0231106
-0.311542
2.32876
2.51943
-0.0394148
1.95215
2.15317
0.0472596
1.67849
2.61322
-0.546665
0.271429
4.81763
-2.49053
1.08398
1.18854
-5.4377
-10.2387
10.3201
5.66527
0.0109993
-1.69924
4.12292
2.35716
0.311999
3.72944
2.50165
-1.40737
-4.89509
5.11229
-4.54245
5.70886
2.0522
1.21454
-0.419384
1.05499
2.16631
-0.100941
0.479639
1.60297
-1.49025
3.27794
-2.14852
2.64209
0.651201
15.0773
3.4291
-10.2253
-20.2738
5.75101
-4.54669
20.6658
-1.46914
-1.00775
2.68469
3.26852
5.06905
0.49755
2.26643
-1.70126
0.860231
-3.34602
6.53495
2.21515
8.20874
-0.761617
1.82357
-7.38772
3.66085
-4.3952
-3.28681
4.98447
-0.907053
1.85324
2.89935
0.031283
0.824782
0.658716
0.17861
1.4678
0.0522506
2.54243
1.8262
-0.483957
4.13909
1.50984
0.356899
-2.42657
-0.329159
2.49937
-0.226749
2.54697
0.899045
-0.535681
1.25231
2.55825
2.4004
-1.42587
3.43965
-0.462624
3.48669
-1.5565
4.0543
-1.10229
0.312877
2.15786
1.51188
-0.300282
-27.8159
9.25089
-11.8077
26.119
2.28621
-0.30912
2.25511
-0.223768
0.314093
3.51642
-1.75336
1.51183
2.70793
-0.523128
1.39691
0.774341
7.26033
3.33818
-3.28311
0.709504
0.870399
-0.177988
2.13757
1.11973
1.9565
0.202809
0.0577097
1.56705
1.9673
-0.923611
2.95584
0.0191467
2.82999
-0.905113
2.15179
-0.248063
-9.67615
12.3183
15.3054
-3.91892
-2.37214
4.04702
-0.893306
2.73379
5.24509
-1.97022
3.75066
-1.02314
5.40963
0.974568
-3.48516
1.56626
2.26669
-3.81885
-0.851373
5.44142
-6.60386
-24.9937
4.9293
21.8758
-2.09128
2.13249
4.17728
0.34366
-3.61862
-3.09303
4.42412
3.94367
-4.57364
-0.519306
3.3786
8.63494
1.61093
0.322121
1.40782
0.389092
-4.3556
4.29286
-4.13679
3.96707
-1.24467
2.61395
2.41345
-0.895877
0.673131
0.300919
1.45502
0.852085
0.429762
-1.93359
4.42667
2.02264
-1.11091
3.96396
3.24342
-1.55232
-2.91023
3.1544
-0.913978
4.96788
2.68463
3.58542
-0.503052
-1.42167
3.08253
3.64722
-0.866814
-1.25629
-0.13359
3.82661
-1.85037
1.96052
1.71383
0.0214272
0.825719
1.1106
0.0851858
-1.5504
3.92148
2.06914
-2.59515
1.3231
1.08985
4.56364
-1.27121
-0.864248
3.56916
3.84666
8.3887
0.300821
3.16347
-3.89074
2.3249
4.17112
-1.87114
0.269293
2.65818
1.86254
0.0415964
-0.699387
0.609928
1.02999
3.08246
-1.30107
-0.620533
2.26268
2.86578
-0.17197
-0.586569
2.63311
2.81117
-0.298295
2.01183
26.3594
4.47106
-19.5682
3.22338
0.0335016
1.89146
-1.34323
3.05125
-2.863
5.79469
-0.838065
0.609855
4.25119
1.50379
-1.82118
-0.759879
5.91011
-2.63098
3.75517
0.454886
1.29939
0.527681
1.45178
1.64598
0.147373
1.08213
0.665114
-1.69401
1.80835
-1.71884
2.10201
5.38584
-1.32264
4.76766
-1.27112
4.14092
-1.86996
-0.215115
2.53095
4.79984
1.3281
-4.04523
-0.955364
4.93647
-0.835765
-2.35713
3.21484
2.61369
6.39724
-1.46091
-4.1847
-1.88508
1.91409
3.85671
-0.0260833
7.0015
-5.06531
-1.78487
3.95328
0.184378
3.64937
-1.64456
1.63601
2.7345
-1.50157
-4.7663
5.96472
-2.60067
1.27043
6.13254
2.07184
12.5072
-17.0301
-11.9814
18.2379
-0.721677
11.1781
5.69096
-1.36085
2.47108
-0.320376
2.03883
-0.650699
2.7642
1.39073
-0.741434
0.529397
1.80401
4.26121
-3.61277
-1.35448
4.36485
4.95574
-0.996993
-0.741007
-0.42179
3.60285
-2.1407
1.76454
2.52831
5.35325
0.582281
-2.39962
5.89545
-0.352067
1.98522
-3.81885
-4.6476
3.1299
6.33617
-1.50573
3.53518
1.74688
0.531118
-1.59849
0.349183
2.59739
1.80288
-0.461365
-0.317204
1.97357
0.16906
2.48274
6.04192
1.13048
2.55616
-2.33752
17.019
-23.9732
21.7629
-19.3804
0.849841
-1.13793
3.49975
1.5241
1.7348
0.165576
2.30804
-0.127607
2.63141
1.40915
0.993366
-0.420429
-0.621605
2.93162
2.89989
-0.693584
1.88185
-1.51593
0.296477
3.65483
0.364737
1.23882
-1.28944
3.28981
-0.90664
0.576237
3.04871
1.57235
1.82937
0.548532
0.0640791
1.82274
1.85432
-0.00128532
1.98023
0.0916142
2.49861
-0.0126706
-0.37384
2.14259
-1.18563
4.32967
3.42656
-1.9006
2.91788
2.11872
-1.12301
-2.26669
-24.585
9.50295
-8.37528
25.2742
2.2012
-2.40174
4.50386
0.0578734
0.527508
1.2789
-1.58472
3.63715
0.372753
-1.28317
3.38275
1.82261
1.67616
0.522932
-1.756
3.98398
-0.491813
1.07625
2.60324
0.52782
-1.00948
3.01963
1.45135
0.52938
3.64654
-1.51853
0.805075
1.54589
1.3856
-0.225565
3.48887
-2.42642
-1.26146
0.455513
1.95051
3.47892
-1.80043
2.84714
-0.583476
4.17356
2.70985
-0.704858
3.15823
-0.997289
2.88042
-0.0303765
-0.754229
2.04163
0.513312
2.14332
-2.88048
5.63894
8.31127
1.68114
-5.82504
1.40873
5.87828
-3.14206
4.82747
-3.98373
-2.3106
-1.18455
4.91194
3.88384
-1.55701
3.65428
2.77498
-0.634964
4.71829
15.0138
-10.289
-0.534821
5.16933
7.70873
-2.57643
-3.8081
-4.89141
4.84874
5.91352
-4.414
0.0316517
0.10285
1.93952
1.86617
-0.462075
2.34028
1.45233
0.448079
0.264616
1.86572
4.10892
-1.83408
-2.53541
1.09489
5.17802
1.64979
-2.8754
-0.350346
3.05505
5.61045
-2.49814
2.62308
4.32195
-0.998422
2.1855
3.86509
-0.102725
-1.79009
4.71158
1.16729
1.22082
-2.32812
2.27359
-3.54249
3.17419
9.0827
-1.02958
0.731816
3.03083
1.23613
2.06417
2.32829
-0.337789
0.0968343
-0.816642
2.8008
1.2429
0.550535
3.88534
-2.30998
-2.87425
3.07819
-1.42155
-0.20506
1.91675
3.30734
1.97616
-0.21875
-0.314669
1.95805
0.418413
2.21802
-0.31136
1.62032
5.15718
1.17747
2.10378
-2.08984
2.00822
0.824754
-0.0801074
1.04112
-0.45577
1.68133
2.44623
0.180462
-19.181
-17.7282
14.5148
17.6199
0.76489
-0.346596
2.06545
0.904313
-1.72744
0.484367
1.70576
4.1674
-1.3372
2.97436
-0.754662
3.44196
-1.57013
3.05807
4.37049
-0.584069
4.53351
-2.66557
-2.75284
4.61212
5.90847
-0.513606
-2.26609
3.45713
6.00334
0.76555
2.34333
-2.2319
3.06926
-1.19066
3.62671
-0.707024
0.49303
1.34733
2.71218
-0.741249
1.43826
-0.428777
0.523275
2.44443
1.69076
2.40851
-0.293184
-0.441671
1.64178
0.296725
0.0665944
1.43525
1.99777
-4.5559
-0.528918
6.83894
0.27361
0.694078
1.02572
1.39091
1.12211
0.733094
0.0850808
0.468956
4.58493
-1.72404
-2.53132
5.43773
0.224008
0.810982
1.08148
0.427699
6.36442
0.173935
2.68744
-3.44792
-27.2698
1.96175
24.2733
-4.52971
-0.0921305
2.38072
2.02937
-0.412252
4.45558
3.50393
-1.70686
-0.149038
2.50565
-0.518147
0.11743
1.86102
2.97372
0.463784
1.33287
-1.03817
0.889832
3.28377
0.679954
-1.56536
4.91251
0.0760324
-2.43642
2.38935
7.88879
1.94095
0.483224
-4.34478
4.08472
-1.57302
3.82297
-1.50946
2.78933
-4.04648
-0.684084
5.89526
2.5143
1.32399
-0.473308
0.851025
2.55904
0.160058
-1.07407
1.34233
1.08549
-1.82694
3.23641
0.508385
-2.64994
3.45782
3.47389
-2.07085
4.32706
-0.994421
3.40272
-1.77886
-1.77826
4.06486
1.93072
0.210172
4.18168
-2.06475
1.40319
0.704785
0.875124
2.04352
-0.461812
0.804562
5.2545
3.63813
-0.635813
-1.7271
-2.01801
0.434349
1.75762
4.32653
3.76175
-1.37679
-0.852974
3.04926
0.0237856
-4.00414
6.99398
2.28319
0.621225
1.32865
2.66606
-0.69895
-3.68382
4.96022
4.15652
-4.37465
0.552154
0.768707
1.19367
0.644012
0.0304482
1.25839
1.77595
0.545105
-0.0336253
2.32977
-2.28856
4.52914
0.752148
1.09817
-0.771568
2.65765
-7.07364
5.11923
9.38877
-1.44688
6.51413
-5.3367
9.03435
-2.33875
2.9741
4.98872
-0.401456
-2.4977
6.13907
-0.121456
1.25327
-4.35834
9.07623
-5.19956
2.30051
1.04473
2.68053
2.4557
-1.38275
-0.82207
-2.57617
6.70795
4.08169
-5.41949
4.74916
-3.15722
-1.24853
7.24871
-1.17928
-1.46264
3.5369
3.85858
4.46178
-1.96458
-1.33936
3.85814
3.25218
-1.93317
-1.29593
3.80024
0.726388
0.712876
1.31126
0.0389131
1.34864
1.00604
0.515101
0.236036
-0.0427787
2.17234
-1.41486
3.73797
-0.887647
3.11781
-0.689738
2.8998
-3.95329
-3.56144
4.78165
4.63179
2.27909
-0.0251274
-0.476262
1.67664
2.55686
0.551878
1.60218
-0.517505
2.27004
-0.373073
1.67171
0.229518
2.05978
-0.250997
2.29532
-0.503483
3.51533
-1.23379
3.06712
-1.59885
5.68513
-1.32808
4.71017
-2.91776
-6.27261
8.05965
-5.59929
6.27978
0.378643
1.87191
-2.68605
5.1393
)
;

boundaryField
{
    insideCircle
    {
        type            myTemperature;
        value           nonuniform List<scalar> 
24
(
5.00737
2.1716
1.24617
7.56865
-2.68624
-0.986411
6.89561
5.53969
0.362484
-0.54809
5.26073
4.80982
-1.09388
2.37006
2.98471
6.05104
3.29742
0.0805509
5.56835
1.96508
1.7182
-0.0933268
5.22458
3.29891
)
;
    }
    outsideCircle
    {
        type            myTemperature;
        value           nonuniform List<scalar> 
124
(
2.45182
0.321582
1.63742
-0.295765
0.660375
1.59527
2.0495
1.74115
1.25873
0.286572
0.434966
2.43273
-0.0912922
1.89077
1.16959
1.20007
2.25892
1.02087
1.29156
-0.728356
-0.449539
0.690138
2.50403
1.51632
1.11579
-0.490319
2.53513
-0.728641
-0.133916
-0.268438
2.45029
1.76909
2.46151
0.797871
-0.438995
1.37316
0.888749
0.0433918
2.21721
1.10984
-0.467231
1.05275
2.49896
1.07521
0.233067
-0.375559
1.89126
2.61666
0.886411
-0.703956
2.75604
1.20929
1.92466
0.0963012
2.25273
-0.190243
0.490083
2.00283
2.01085
-0.245416
-1.90319
-1.58186
4.19238
0.332663
2.64086
0.584413
-0.24101
1.39647
-0.423678
2.17236
-0.0143908
2.55972
2.27917
-0.248052
0.630001
1.569
1.87086
-0.0466304
0.0682823
1.91189
-0.743021
0.826221
2.84795
1.34677
-0.0240234
2.56481
-0.402426
2.15388
-0.0875377
-0.162985
1.88258
2.33014
1.92675
2.58788
-0.320396
0.41723
2.45969
0.68471
0.0656921
1.03503
2.05209
-0.0777753
0.561287
1.44129
2.42017
-0.491998
1.34663
0.716699
0.17378
2.51832
1.91002
-0.341006
-0.273351
2.07316
-0.0189273
2.47314
2.24861
0.144676
2.39248
-0.412043
2.6482
1.09083
0.629963
-0.647724
)
;
    }
    topAndBottom
    {
        type            empty;
    }
}


// ************************************************************************* //
