/*--------------------------------*- C++ -*----------------------------------*\
| =========                 |                                                 |
| \\      /  F ield         | foam-extend: Open Source CFD                    |
|  \\    /   O peration     | Version:  3.0                                   |
|   \\  /    A nd           | Web:         http://www.extend-project.de       |
|    \\/     M anipulation  |                                                 |
\*---------------------------------------------------------------------------*/
FoamFile
{
    version     2.0;
    format      ascii;
    class       volVectorField;
    location    "8.2";
    object      s;
}
// * * * * * * * * * * * * * * * * * * * * * * * * * * * * * * * * * * * * * //

dimensions      [0 0 0 0 0 0 0];

internalField   nonuniform List<vector> 
400
(
(-0.0234417 0.0467637 1.20467e-317)
(-0.0392971 0.0668341 2.13848e-317)
(-0.0867776 0.0687188 2.44609e-317)
(-0.111352 0.0565419 2.47369e-317)
(-0.146521 0.0478197 2.38017e-317)
(-0.166592 0.0352503 2.23498e-317)
(-0.188542 0.0266657 2.07231e-317)
(-0.200994 0.0166771 1.90938e-317)
(-0.21117 0.0088801 1.75153e-317)
(-0.21513 0.000146176 1.60508e-317)
(-0.214291 -0.00782507 1.4676e-317)
(-0.209112 -0.0168542 1.3425e-317)
(-0.197001 -0.025687 1.22579e-317)
(-0.182302 -0.0358085 1.11832e-317)
(-0.158383 -0.0451031 1.01644e-317)
(-0.135198 -0.0557954 9.16925e-318)
(-0.10014 -0.063088 8.13628e-318)
(-0.0732955 -0.0702846 6.94726e-318)
(-0.0316586 -0.0655002 5.32227e-318)
(-0.0152826 -0.0429451 2.68647e-318)
(-0.0256948 0.0271886 1.5999e-317)
(-0.0586647 0.0606857 3.15161e-317)
(-0.111491 0.0741838 3.81155e-317)
(-0.149835 0.0726912 3.99409e-317)
(-0.194206 0.0646 3.93432e-317)
(-0.22577 0.052195 3.75793e-317)
(-0.25622 0.0389541 3.52856e-317)
(-0.276063 0.0248751 3.28527e-317)
(-0.291082 0.0110649 3.04011e-317)
(-0.29736 -0.00290684 2.80747e-317)
(-0.296499 -0.0167732 2.58432e-317)
(-0.288399 -0.0306567 2.37726e-317)
(-0.271392 -0.0443399 2.17887e-317)
(-0.248997 -0.057293 1.99108e-317)
(-0.216455 -0.0687563 1.80437e-317)
(-0.182054 -0.0770845 1.61415e-317)
(-0.137391 -0.0801899 1.40472e-317)
(-0.0979029 -0.0746072 1.15791e-317)
(-0.0497173 -0.055969 8.33194e-318)
(-0.0187685 -0.0215058 3.69246e-318)
(-0.0252747 0.0819896 1.50749e-317)
(-0.0561415 0.145053 3.06056e-317)
(-0.108172 0.163732 3.78777e-317)
(-0.144662 0.154003 4.04576e-317)
(-0.186632 0.135721 4.04944e-317)
(-0.216783 0.109448 3.9211e-317)
(-0.24561 0.083114 3.72551e-317)
(-0.265127 0.054741 3.50435e-317)
(-0.279957 0.0272742 3.27283e-317)
(-0.28699 -0.00103708 3.04671e-317)
(-0.287166 -0.0291215 2.82514e-317)
(-0.280548 -0.0578319 2.61491e-317)
(-0.265253 -0.086258 2.40925e-317)
(-0.244466 -0.114095 2.20922e-317)
(-0.213543 -0.139248 2.00375e-317)
(-0.180126 -0.159951 1.78592e-317)
(-0.136088 -0.171183 1.53651e-317)
(-0.0964591 -0.168775 1.23487e-317)
(-0.0474587 -0.140753 8.47404e-318)
(-0.0169491 -0.0734147 3.33681e-318)
(-0.0162651 0.0797609 1.21665e-317)
(-0.0427325 0.152099 2.52497e-317)
(-0.0784315 0.17769 3.18776e-317)
(-0.107667 0.171498 3.4725e-317)
(-0.139444 0.153073 3.5398e-317)
(-0.164274 0.12533 3.48752e-317)
(-0.187805 0.0956529 3.36648e-317)
(-0.204849 0.0635489 3.2132e-317)
(-0.218182 0.0313631 3.04133e-317)
(-0.22562 -0.00182758 2.86594e-317)
(-0.227453 -0.0354349 2.68754e-317)
(-0.223925 -0.0696218 2.51278e-317)
(-0.213007 -0.103925 2.33637e-317)
(-0.197516 -0.136806 2.15896e-317)
(-0.173196 -0.166741 1.97011e-317)
(-0.146255 -0.189236 1.76161e-317)
(-0.110603 -0.200242 1.5148e-317)
(-0.0770134 -0.190732 1.20659e-317)
(-0.0386202 -0.151643 8.11523e-318)
(-0.0110307 -0.0689052 2.97784e-318)
(-0.0132686 0.098659 8.56204e-318)
(-0.0313615 0.184656 1.84541e-317)
(-0.0587355 0.213512 2.4026e-317)
(-0.0795475 0.20652 2.69678e-317)
(-0.10368 0.184834 2.82427e-317)
(-0.122284 0.152484 2.85202e-317)
(-0.140834 0.117576 2.81398e-317)
(-0.154827 0.0795537 2.73853e-317)
(-0.166579 0.0411291 2.63712e-317)
(-0.17445 0.00103842 2.52337e-317)
(-0.178161 -0.039973 2.3995e-317)
(-0.178405 -0.0823341 2.27228e-317)
(-0.172256 -0.125447 2.13907e-317)
(-0.163133 -0.167596 2.0013e-317)
(-0.145021 -0.206934 1.85137e-317)
(-0.125521 -0.237669 1.68254e-317)
(-0.095126 -0.25515 1.4784e-317)
(-0.0681887 -0.246721 1.21644e-317)
(-0.0319428 -0.202174 8.62642e-318)
(-0.0103404 -0.0975127 3.62731e-318)
(-0.00760119 0.0959827 4.70803e-318)
(-0.0198112 0.183525 1.13019e-317)
(-0.0348905 0.215134 1.57718e-317)
(-0.0480073 0.209845 1.87672e-317)
(-0.063056 0.189454 2.06145e-317)
(-0.0758154 0.157571 2.16737e-317)
(-0.0889922 0.122714 2.21189e-317)
(-0.100075 0.0841732 2.21515e-317)
(-0.11012 0.0447505 2.18615e-317)
(-0.118398 0.00304423 2.1367e-317)
(-0.123982 -0.0403005 2.07064e-317)
(-0.128018 -0.0858117 1.99468e-317)
(-0.126992 -0.133084 1.90867e-317)
(-0.124556 -0.180092 1.81474e-317)
(-0.113715 -0.225127 1.70795e-317)
(-0.102302 -0.260708 1.58278e-317)
(-0.0790695 -0.282119 1.42431e-317)
(-0.0591637 -0.272095 1.20883e-317)
(-0.0272794 -0.221155 8.93101e-318)
(-0.00982827 -0.100519 4.02948e-318)
(-0.00469865 0.0981862 1.41362e-318)
(-0.0107049 0.188303 5.14652e-318)
(-0.0179499 0.221079 8.62097e-318)
(-0.0243195 0.216986 1.16049e-317)
(-0.0325417 0.197183 1.38888e-317)
(-0.0400717 0.165546 1.55663e-317)
(-0.0487022 0.130653 1.66769e-317)
(-0.0569629 0.0915971 1.73488e-317)
(-0.0652901 0.0513705 1.7652e-317)
(-0.0736919 0.00812749 1.76884e-317)
(-0.0806973 -0.0373504 1.75054e-317)
(-0.0881658 -0.0862388 1.71711e-317)
(-0.0916054 -0.137927 1.67022e-317)
(-0.0957904 -0.191122 1.61267e-317)
(-0.0912906 -0.243407 1.54184e-317)
(-0.0884383 -0.287576 1.45344e-317)
(-0.0702722 -0.316908 1.33429e-317)
(-0.0581986 -0.312549 1.16111e-317)
(-0.0253032 -0.260573 8.84486e-318)
(-0.0136116 -0.124894 4.19824e-318)
(-0.000942244 0.0924784 -1.23624e-318)
(-0.00276012 0.178499 1.59307e-319)
(-0.00129698 0.211436 2.77082e-318)
(-0.00194059 0.208607 5.66401e-318)
(-0.00307853 0.191243 8.23529e-318)
(-0.00578587 0.161888 1.03645e-317)
(-0.00963365 0.129504 1.19851e-317)
(-0.0149093 0.0925735 1.31634e-317)
(-0.021019 0.0543217 1.39467e-317)
(-0.0288684 0.0124439 1.4421e-317)
(-0.0365762 -0.0322609 1.46377e-317)
(-0.0464707 -0.081553 1.46609e-317)
(-0.0538384 -0.134942 1.45188e-317)
(-0.0636426 -0.191788 1.42425e-317)
(-0.0658313 -0.249648 1.38165e-317)
(-0.070856 -0.301156 1.32089e-317)
(-0.0596486 -0.338721 1.22965e-317)
(-0.0548408 -0.339832 1.08694e-317)
(-0.0241726 -0.287962 8.42503e-318)
(-0.0161067 -0.13722 4.12593e-318)
(0.00209737 0.0875007 -2.91808e-318)
(0.00398114 0.169791 -3.1965e-318)
(0.0122115 0.201891 -1.31468e-318)
(0.0161716 0.200571 1.37467e-318)
(0.0208328 0.185254 4.03283e-318)
(0.0223007 0.158435 6.39026e-318)
(0.0228317 0.128632 8.30947e-318)
(0.0206078 0.0942012 9.80287e-318)
(0.0171125 0.0584029 1.08997e-317)
(0.0105153 0.0185223 1.16664e-317)
(0.0031239 -0.0244937 1.21513e-317)
(-0.00819609 -0.0733322 1.24114e-317)
(-0.018187 -0.127157 1.24769e-317)
(-0.0330375 -0.18711 1.23754e-317)
(-0.0407974 -0.249484 1.20962e-317)
(-0.0546442 -0.309723 1.1608e-317)
(-0.0494469 -0.356047 1.08008e-317)
(-0.0550332 -0.368802 9.49512e-318)
(-0.0235473 -0.320296 7.25938e-318)
(-0.0236756 -0.161705 3.45105e-318)
(0.00472054 0.0785192 -3.85768e-318)
(0.00945284 0.153713 -5.26107e-318)
(0.0238836 0.184572 -3.9904e-318)
(0.0319964 0.184491 -1.59145e-318)
(0.0422217 0.171957 9.99495e-319)
(0.047825 0.148352 3.41968e-318)
(0.0529093 0.122144 5.48178e-318)
(0.0542099 0.0913201 7.15684e-318)
(0.0540128 0.0592199 8.45176e-318)
(0.0498027 0.0228331 9.41434e-318)
(0.0439206 -0.0169167 1.00856e-317)
(0.0330668 -0.063331 1.05142e-317)
(0.0218025 -0.115759 1.07267e-317)
(0.00445268 -0.176557 1.07452e-317)
(-0.00843451 -0.242176 1.05559e-317)
(-0.0282378 -0.309534 1.01288e-317)
(-0.0315171 -0.36594 9.36007e-318)
(-0.0444961 -0.390511 8.10531e-318)
(-0.0202019 -0.350058 6.03826e-318)
(-0.0236806 -0.182965 2.73035e-318)
(0.00774244 0.0707604 -4.11777e-318)
(0.013957 0.138946 -6.17429e-318)
(0.0336938 0.1674 -5.40537e-318)
(0.0445882 0.16856 -3.35753e-318)
(0.059484 0.158121 -9.58784e-319)
(0.0684561 0.137736 1.37826e-318)
(0.0777449 0.114884 3.4417e-318)
(0.0824869 0.0877913 5.16769e-318)
(0.0859283 0.0595915 6.54574e-318)
(0.0847118 0.0271648 7.60288e-318)
(0.0814583 -0.0084686 8.37084e-318)
(0.0722079 -0.0513722 8.88606e-318)
(0.0614747 -0.100506 9.1693e-318)
(0.0425282 -0.160374 9.23362e-318)
(0.0264852 -0.22596 9.06271e-318)
(-0.000501834 -0.298965 8.62166e-318)
(-0.010666 -0.361176 7.82128e-318)
(-0.0369631 -0.399744 6.54635e-318)
(-0.0159446 -0.364617 4.60081e-318)
(-0.0333976 -0.199244 1.80586e-318)
(0.00907041 0.0593296 -3.88733e-318)
(0.0172628 0.119745 -6.24805e-318)
(0.040652 0.14617 -5.89477e-318)
(0.0545467 0.148493 -4.22858e-318)
(0.0734524 0.140415 -2.1026e-318)
(0.0859344 0.123257 6.00389e-320)
(0.0992768 0.103944 2.0304e-318)
(0.107804 0.0807836 3.72234e-318)
(0.115245 0.0567494 5.10611e-318)
(0.118001 0.0287909 6.19299e-318)
(0.118433 -0.00217196 7.0028e-318)
(0.112938 -0.0404327 7.56192e-318)
(0.104444 -0.0852121 7.8849e-318)
(0.0877701 -0.142041 7.97968e-318)
(0.0698882 -0.206471 7.82645e-318)
(0.0417104 -0.28256 7.39094e-318)
(0.0221676 -0.352309 6.59675e-318)
(-0.0090127 -0.405078 5.35475e-318)
(-0.00532715 -0.385488 3.57359e-318)
(-0.0240253 -0.22632 1.21821e-318)
(0.0112391 0.0513245 -3.59428e-318)
(0.0189446 0.103344 -6.03481e-318)
(0.0454014 0.126323 -5.95848e-318)
(0.0605238 0.129166 -4.61485e-318)
(0.0825366 0.122562 -2.75808e-318)
(0.0974021 0.108311 -7.99981e-319)
(0.114078 0.092082 1.03385e-318)
(0.125723 0.0726603 2.6404e-318)
(0.136877 0.052618 3.97988e-318)
(0.143445 0.029145 5.04934e-318)
(0.148051 0.00316904 5.85939e-318)
(0.146711 -0.0297948 6.42634e-318)
(0.142097 -0.0686754 6.75915e-318)
(0.128152 -0.120412 6.85963e-318)
(0.111377 -0.179479 6.71018e-318)
(0.0802444 -0.254594 6.27672e-318)
(0.0554987 -0.322996 5.50327e-318)
(0.0102837 -0.384967 4.32102e-318)
(0.00589177 -0.367855 2.71806e-318)
(-0.0347132 -0.219232 7.53677e-319)
(0.0110133 0.0392806 -2.8828e-318)
(0.0198115 0.0844117 -5.23491e-318)
(0.0473409 0.104713 -5.41262e-318)
(0.0644166 0.108314 -4.40845e-318)
(0.0887154 0.103203 -2.86245e-318)
(0.106012 0.0916207 -1.15784e-318)
(0.125467 0.0783013 4.83725e-319)
(0.140072 0.0623693 1.95152e-318)
(0.154642 0.0460621 3.19457e-318)
(0.16529 0.0269064 4.20019e-318)
(0.174368 0.00571656 4.9704e-318)
(0.178747 -0.0217103 5.51532e-318)
(0.179233 -0.054509 5.83979e-318)
(0.172245 -0.0998304 5.94462e-318)
(0.158185 -0.152983 5.81356e-318)
(0.133103 -0.224633 5.42044e-318)
(0.101032 -0.294013 4.72488e-318)
(0.0585276 -0.366853 3.67849e-318)
(0.0257469 -0.36959 2.30254e-318)
(-0.00839746 -0.249008 6.53634e-319)
(0.0111485 0.0326415 -2.82368e-318)
(0.0179171 0.0690864 -4.9405e-318)
(0.0455864 0.0853217 -5.14484e-318)
(0.0625248 0.0884319 -4.30224e-318)
(0.0877263 0.0841389 -2.96285e-318)
(0.105839 0.0748274 -1.45721e-318)
(0.12659 0.0640287 1.4234e-320)
(0.142683 0.0512829 1.34604e-318)
(0.159346 0.038304 2.48674e-318)
(0.172673 0.0231046 3.4183e-318)
(0.185389 0.00636871 4.13885e-318)
(0.194178 -0.0155815 4.65332e-318)
(0.200149 -0.0418682 4.96438e-318)
(0.19866 -0.0793833 5.07111e-318)
(0.19034 -0.123428 4.96237e-318)
(0.16765 -0.186149 4.61783e-318)
(0.13637 -0.2457 4.01662e-318)
(0.0830735 -0.314902 3.12503e-318)
(0.0429922 -0.3121 1.97662e-318)
(-0.0211439 -0.202187 6.04628e-319)
(0.00925029 0.0223128 -1.82608e-318)
(0.0161207 0.0531624 -3.76083e-318)
(0.0430538 0.0660752 -4.13458e-318)
(0.0607519 0.0692631 -3.5799e-318)
(0.0865037 0.0656916 -2.52927e-318)
(0.105149 0.0584119 -1.29261e-318)
(0.126584 0.049914 -5.01032e-320)
(0.143463 0.0399667 1.09106e-318)
(0.161465 0.0299819 2.07865e-318)
(0.176988 0.0182616 2.89057e-318)
(0.192754 0.00553857 3.52114e-318)
(0.206524 -0.0114036 3.97312e-318)
(0.217979 -0.0315485 4.24811e-318)
(0.22547 -0.0613521 4.34659e-318)
(0.22354 -0.0964683 4.2606e-318)
(0.213876 -0.150081 3.9792e-318)
(0.180939 -0.202744 3.49117e-318)
(0.143284 -0.275637 2.77745e-318)
(0.0689464 -0.291467 1.85694e-318)
(0.0299283 -0.234756 7.07013e-319)
(0.00644444 0.0178559 -2.24261e-318)
(0.0104464 0.0397729 -3.69615e-318)
(0.0341598 0.0484151 -3.88177e-318)
(0.050112 0.0503364 -3.33164e-318)
(0.0734522 0.0474215 -2.41762e-318)
(0.090462 0.0420716 -1.36013e-318)
(0.109784 0.0357146 -3.06701e-319)
(0.125261 0.0284221 6.62018e-319)
(0.141975 0.0209266 1.50252e-318)
(0.156934 0.0122384 2.19682e-318)
(0.1731 0.00268109 2.73956e-318)
(0.187978 -0.00980542 3.13207e-318)
(0.202755 -0.0247403 3.37546e-318)
(0.213753 -0.0464041 3.47037e-318)
(0.219183 -0.0721661 3.41379e-318)
(0.213864 -0.110981 3.19893e-318)
(0.190912 -0.149008 2.82748e-318)
(0.148121 -0.200057 2.29046e-318)
(0.0819172 -0.201342 1.5945e-318)
(0.00737104 -0.134875 6.85867e-319)
(0.00308853 0.01106 -7.71533e-319)
(0.00702674 0.0282495 -2.19206e-318)
(0.0296272 0.0333998 -2.55166e-318)
(0.0444825 0.0349199 -2.29692e-318)
(0.0666397 0.0324557 -1.66223e-318)
(0.081326 0.0286445 -8.89338e-319)
(0.0989446 0.0242645 -9.31511e-320)
(0.112201 0.0191331 6.44662e-319)
(0.127485 0.0141409 1.28843e-318)
(0.141425 0.0080649 1.82025e-318)
(0.15738 0.00181252 2.2351e-318)
(0.173793 -0.00683378 2.53444e-318)
(0.19085 -0.0163697 2.72014e-318)
(0.208353 -0.0314101 2.79268e-318)
(0.219551 -0.0477006 2.75148e-318)
(0.229579 -0.0765551 2.5944e-318)
(0.211062 -0.102127 2.32398e-318)
(0.198006 -0.153232 1.93834e-318)
(0.102939 -0.165676 1.43092e-318)
(0.0889118 -0.178511 7.13045e-319)
(-0.00131148 0.0082014 -1.5093e-318)
(-0.000430435 0.0152791 -2.12002e-318)
(0.0139173 0.0171086 -2.14492e-318)
(0.0238157 0.0175536 -1.82099e-318)
(0.0376904 0.0162536 -1.34695e-318)
(0.0473583 0.014505 -8.09695e-319)
(0.0579259 0.0120346 -2.81222e-319)
(0.0663814 0.00930983 2.0313e-319)
(0.075681 0.00609945 6.23664e-319)
(0.0844657 0.00243555 9.71536e-319)
(0.0950691 -0.00188497 1.24391e-318)
(0.105572 -0.00716543 1.44283e-318)
(0.118647 -0.0136106 1.56873e-318)
(0.130078 -0.0218128 1.62259e-318)
(0.14244 -0.0319418 1.60524e-318)
(0.147934 -0.0444438 1.51667e-318)
(0.145135 -0.0585856 1.3644e-318)
(0.126132 -0.0704615 1.152e-318)
(0.0783269 -0.0693974 8.70692e-319)
(0.024837 -0.0190529 4.56383e-319)
(-0.00303077 0.00418591 2.5854e-319)
(0.000168671 0.00907387 -4.65929e-319)
(0.0124092 0.00882226 -6.34756e-319)
(0.0180111 0.00895702 -6.08313e-319)
(0.0286377 0.00799364 -4.11433e-319)
(0.0328124 0.00693042 -1.79786e-319)
(0.0402906 0.00618582 6.32799e-320)
(0.044046 0.0049469 2.8346e-319)
(0.0502691 0.00437499 4.74392e-319)
(0.05532 0.00302249 6.29978e-319)
(0.0623399 0.00249895 7.50787e-319)
(0.0703999 0.000644333 8.37871e-319)
(0.0794677 6.64156e-05 8.92352e-319)
(0.0919069 -0.00331121 9.15133e-319)
(0.101568 -0.00391826 9.06151e-319)
(0.118181 -0.0120235 8.65203e-319)
(0.116596 -0.0119299 7.94818e-319)
(0.134539 -0.0371452 6.9811e-319)
(0.0741952 -0.0335566 5.8028e-319)
(0.117342 -0.106787 3.95633e-319)
)
;

boundaryField
{
    cavity
    {
        type            myHeatFlux;
        ThetaWall       uniform 0;
        value           nonuniform List<vector> 
60
(
(0.001 0 0)
(0.001 0 0)
(0.001 0 0)
(0.001 0 0)
(0.001 0 0)
(0.001 0 0)
(0.001 0 0)
(0.001 0 0)
(0.001 0 0)
(0.001 0 0)
(0.001 0 0)
(0.001 0 0)
(0.001 0 0)
(0.001 0 0)
(0.001 0 0)
(0.001 0 0)
(0.001 0 0)
(0.001 0 0)
(0.001 0 0)
(0.001 0 0)
(0 -0.001 0)
(0 -0.001 0)
(0 -0.001 0)
(0 -0.001 0)
(0 -0.001 0)
(0 -0.001 0)
(0 -0.001 0)
(0 -0.001 0)
(0 -0.001 0)
(0 -0.001 0)
(0 -0.001 0)
(0 -0.001 0)
(0 -0.001 0)
(0 -0.001 0)
(0 -0.001 0)
(0 -0.001 0)
(0 -0.001 0)
(0 -0.001 0)
(0 -0.001 0)
(0 -0.001 0)
(-0.001 0 0)
(-0.001 0 0)
(-0.001 0 0)
(-0.001 0 0)
(-0.001 0 0)
(-0.001 0 0)
(-0.001 0 0)
(-0.001 0 0)
(-0.001 0 0)
(-0.001 0 0)
(-0.001 0 0)
(-0.001 0 0)
(-0.001 0 0)
(-0.001 0 0)
(-0.001 0 0)
(-0.001 0 0)
(-0.001 0 0)
(-0.001 0 0)
(-0.001 0 0)
(-0.001 0 0)
)
;
    }
    lid
    {
        type            myHeatFlux;
        ThetaWall       uniform 0;
        value           nonuniform List<vector> 
20
(
(0.000135815 0.0009 0)
(0.000135815 0.0009 0)
(0.000135815 0.0009 0)
(0.000135815 0.0009 0)
(0.000135815 0.0009 0)
(0.000135815 0.0009 0)
(0.000135815 0.0009 0)
(0.000135815 0.0009 0)
(0.000135815 0.0009 0)
(0.000135815 0.0009 0)
(0.000135815 0.0009 0)
(0.000135815 0.0009 0)
(0.000135815 0.0009 0)
(0.000135815 0.0009 0)
(0.000135815 0.0009 0)
(0.000135815 0.0009 0)
(0.000135815 0.0009 0)
(0.000135815 0.0009 0)
(0.000135815 0.0009 0)
(0.000135815 0.0009 0)
)
;
    }
    frontAndBack
    {
        type            empty;
    }
}


// ************************************************************************* //
