/*--------------------------------*- C++ -*----------------------------------*\
| =========                 |                                                 |
| \\      /  F ield         | foam-extend: Open Source CFD                    |
|  \\    /   O peration     | Version:  3.0                                   |
|   \\  /    A nd           | Web:         http://www.extend-project.de       |
|    \\/     M anipulation  |                                                 |
\*---------------------------------------------------------------------------*/
FoamFile
{
    version     2.0;
    format      ascii;
    class       volScalarField;
    location    "8.2";
    object      Theta;
}
// * * * * * * * * * * * * * * * * * * * * * * * * * * * * * * * * * * * * * //

dimensions      [0 0 0 0 0 0 0];

internalField   nonuniform List<scalar> 
400
(
0.3792
-0.207943
-0.250804
-0.349183
-0.252157
-0.21809
-0.104747
-0.0385151
0.0657641
0.138064
0.236383
0.306454
0.403597
0.45872
0.547668
0.554441
0.60054
0.472425
0.375423
-0.146535
1.16933
0.690507
0.573573
0.382744
0.370743
0.28462
0.288723
0.238805
0.237464
0.196738
0.187346
0.141409
0.125026
0.0606816
0.0356847
-0.0687688
-0.118711
-0.313747
-0.453956
-0.867346
0.906466
0.457037
0.389349
0.245323
0.255779
0.204741
0.22357
0.200378
0.214446
0.198154
0.208952
0.190471
0.200778
0.169424
0.175875
0.107738
0.0892907
-0.073501
-0.18206
-0.583451
0.899682
0.615581
0.526553
0.403223
0.382399
0.318497
0.309223
0.265304
0.255231
0.218276
0.209176
0.17345
0.168693
0.125887
0.121792
0.050665
0.0222773
-0.125974
-0.247063
-0.549814
0.643319
0.390499
0.351498
0.259935
0.265408
0.226549
0.236901
0.216231
0.227263
0.215491
0.233515
0.227859
0.259626
0.252246
0.295499
0.258837
0.284861
0.148564
0.0710467
-0.304695
0.545202
0.393146
0.357833
0.293883
0.289631
0.254305
0.253594
0.229228
0.231763
0.216583
0.231292
0.227274
0.264032
0.267215
0.326655
0.310287
0.361643
0.243976
0.181504
-0.218482
0.37008
0.264452
0.259184
0.219074
0.22473
0.202124
0.207057
0.192868
0.203406
0.200271
0.229657
0.243194
0.306944
0.335888
0.441792
0.45539
0.575086
0.460844
0.458322
-0.089325
0.259051
0.241692
0.244336
0.229319
0.226819
0.207662
0.201525
0.183475
0.183706
0.175727
0.197878
0.210782
0.274254
0.313238
0.431416
0.470756
0.61718
0.531386
0.547033
-0.0483843
0.128691
0.185687
0.198773
0.205275
0.19674
0.182482
0.168986
0.150638
0.145295
0.136041
0.156938
0.171651
0.244941
0.294548
0.447113
0.508938
0.731122
0.655875
0.7749
0.0234609
0.0164145
0.160329
0.183266
0.211248
0.194074
0.180668
0.153948
0.128036
0.106677
0.0855581
0.0879
0.0908987
0.145101
0.191948
0.329586
0.411903
0.627076
0.603902
0.709774
0.00819687
-0.0815073
0.149148
0.165767
0.213752
0.181793
0.169964
0.129011
0.0963025
0.0596018
0.0258102
0.0114492
-0.00110559
0.0408679
0.0764735
0.224753
0.312625
0.600085
0.601665
0.883733
0.0943909
-0.180102
0.118854
0.151716
0.215996
0.180086
0.167783
0.114787
0.071751
0.0150466
-0.0378318
-0.0822434
-0.120239
-0.120472
-0.107424
-0.0147595
0.0784994
0.294702
0.378268
0.565257
0.0301516
-0.236341
0.133786
0.149071
0.230996
0.180326
0.169903
0.102317
0.0497635
-0.0269573
-0.100487
-0.173189
-0.242603
-0.276761
-0.300828
-0.228574
-0.158925
0.113107
0.228745
0.688227
0.198285
-0.297375
0.106056
0.145071
0.237209
0.190433
0.179655
0.103843
0.0401289
-0.0571943
-0.154212
-0.263566
-0.369462
-0.463639
-0.531017
-0.553741
-0.502701
-0.381173
-0.162997
0.0573704
0.0904909
-0.291097
0.142677
0.160938
0.267177
0.211545
0.204142
0.116979
0.0434416
-0.0739801
-0.194984
-0.337511
-0.484835
-0.627793
-0.755805
-0.829686
-0.84184
-0.696051
-0.463647
0.125594
0.364808
-0.28146
0.146462
0.189998
0.300096
0.253094
0.244736
0.152283
0.0677585
-0.0678189
-0.21231
-0.390091
-0.57768
-0.784991
-0.971388
-1.16154
-1.22408
-1.2947
-0.976009
-0.820784
0.190644
-0.182797
0.217347
0.244443
0.363201
0.312937
0.307056
0.20578
0.111653
-0.0409734
-0.207569
-0.415288
-0.644478
-0.90317
-1.16279
-1.42587
-1.59308
-1.69046
-1.41793
-0.866115
0.469088
-0.05697
0.303497
0.34579
0.459542
0.412577
0.400073
0.292381
0.186489
0.0208205
-0.16456
-0.396341
-0.659299
-0.967468
-1.28857
-1.65596
-1.91177
-2.23719
-1.9787
-2.0331
0.123693
0.161268
0.435686
0.468689
0.58173
0.529458
0.512304
0.394679
0.278317
0.10058
-0.100548
-0.351294
-0.644917
-0.992005
-1.3802
-1.82338
-2.20948
-2.62925
-2.51846
-2.37465
0.0747441
0.464404
0.681669
0.702251
0.789538
0.719831
0.677487
0.549291
0.415664
0.235478
0.0225189
-0.227503
-0.539472
-0.894655
-1.33402
-1.81889
-2.34114
-2.88932
-3.0589
-3.3971
-0.821021
)
;

boundaryField
{
    cavity
    {
        type            implicitExtrapolation;
    }
    lid
    {
        type            implicitExtrapolation;
    }
    frontAndBack
    {
        type            empty;
    }
}


// ************************************************************************* //
