/*--------------------------------*- C++ -*----------------------------------*\
| =========                 |                                                 |
| \\      /  F ield         | foam-extend: Open Source CFD                    |
|  \\    /   O peration     | Version:  3.0                                   |
|   \\  /    A nd           | Web:         http://www.extend-project.de       |
|    \\/     M anipulation  |                                                 |
\*---------------------------------------------------------------------------*/
FoamFile
{
    version     2.0;
    format      ascii;
    class       volScalarField;
    location    "1.2";
    object      p;
}
// * * * * * * * * * * * * * * * * * * * * * * * * * * * * * * * * * * * * * //

dimensions      [0 0 0 0 0 0 0];

internalField   nonuniform List<scalar> 
300
(
-6.62943e+12
9.21071e+12
-2.44594e+12
1.70189e+12
4.87864e+12
5.79113e+11
-5.15063e+11
1.79824e+11
-1.58918e+11
-4.33422e+10
5.24686e+11
2.05941e+11
-6.35754e+10
-4.82084e+11
6.16325e+11
-2.32757e+11
2.67453e+11
-7.13643e+10
7.49375e+10
1.76368e+10
3.72012e+11
-5.47003e+11
-3.48044e+11
5.38534e+11
-6.66728e+11
2.51539e+11
-3.23112e+11
8.56619e+10
-9.13314e+10
-2.46429e+10
9.63898e+11
2.78156e+11
1.05867e+11
-1.20627e+11
1.76707e+11
-7.03597e+10
8.67881e+10
-2.32124e+10
2.63173e+10
7.11935e+09
-9.68504e+11
-4.68662e+11
-3.1643e+11
9.0883e+10
-2.71435e+11
7.67857e+10
-1.25267e+11
2.80658e+10
-3.71269e+10
-1.19624e+10
5.75093e+11
2.31536e+11
1.21681e+11
1.7475e+09
7.1658e+10
-1.50097e+10
3.19705e+10
-6.17589e+09
9.77818e+09
3.01888e+09
-5.7884e+11
-3.14817e+11
-2.11278e+11
-1.94895e+10
-1.2097e+11
1.44562e+10
-5.16703e+10
6.64753e+09
-1.55848e+10
-6.12135e+09
3.43686e+11
1.67502e+11
9.72916e+10
2.93216e+10
3.85545e+10
2.39268e+09
1.42346e+10
-2.87943e+08
4.16893e+09
1.62462e+09
-3.35387e+11
-1.98606e+11
-1.30946e+11
-3.75508e+10
-5.99196e+10
-3.55872e+09
-2.33072e+10
-6.6726e+07
-7.03056e+09
-3.36218e+09
2.05363e+11
1.1229e+11
6.74831e+10
2.82294e+10
2.33602e+10
5.99415e+09
7.5461e+09
1.27614e+09
2.12138e+09
1.05378e+09
-1.93474e+11
-1.21587e+11
-7.85428e+10
-3.15752e+10
-3.18731e+10
-6.71045e+09
-1.143e+10
-1.59055e+09
-3.42656e+09
-1.93057e+09
1.22105e+11
7.19443e+10
4.36199e+10
2.09451e+10
1.44927e+10
5.35404e+09
4.38757e+09
1.34768e+09
1.21305e+09
7.12251e+08
-1.11458e+11
-7.30684e+10
-4.62679e+10
-2.20036e+10
-1.76212e+10
-5.68909e+09
-5.964e+09
-1.5315e+09
-1.77907e+09
-1.13141e+09
7.22263e+10
4.48012e+10
2.71192e+10
1.40716e+10
8.92807e+09
3.87872e+09
2.63127e+09
1.03407e+09
7.26326e+08
4.70414e+08
-6.41712e+10
-4.33623e+10
-2.69629e+10
-1.41518e+10
-9.9196e+09
-3.98971e+09
-3.23417e+09
-1.12541e+09
-9.63224e+08
-6.66266e+08
4.25362e+10
2.73751e+10
1.64758e+10
8.99384e+09
5.43002e+09
2.57698e+09
1.58456e+09
7.06208e+08
4.39109e+08
3.01189e+08
-3.69374e+10
-2.55075e+10
-1.56104e+10
-8.72647e+09
-5.62747e+09
-2.5757e+09
-1.7916e+09
-7.43704e+08
-5.33965e+08
-3.90951e+08
2.49591e+10
1.6506e+10
9.86513e+09
5.58378e+09
3.26417e+09
1.63724e+09
9.49977e+08
4.55809e+08
2.64686e+08
1.88239e+08
-2.12595e+10
-1.49109e+10
-9.00295e+09
-5.25047e+09
-3.20291e+09
-1.59117e+09
-1.00371e+09
-4.65391e+08
-2.99552e+08
-2.27873e+08
1.45958e+10
9.85365e+09
5.84945e+09
3.4021e+09
1.94391e+09
1.013e+09
5.65941e+08
2.84981e+08
1.58592e+08
1.15666e+08
-1.22334e+10
-8.6764e+09
-5.18058e+09
-3.11118e+09
-1.82579e+09
-9.57864e+08
-5.65791e+08
-2.8219e+08
-1.69022e+08
-1.31932e+08
8.50145e+09
5.83263e+09
3.44258e+09
2.0449e+09
1.14893e+09
6.15836e+08
3.35073e+08
1.74612e+08
9.44331e+07
7.02046e+07
-7.03394e+09
-5.02845e+09
-2.97622e+09
-1.82475e+09
-1.04161e+09
-5.67336e+08
-3.20108e+08
-1.67802e+08
-9.56524e+07
-7.59707e+07
4.91862e+09
3.41761e+09
2.00939e+09
1.21381e+09
6.73878e+08
3.69162e+08
1.97098e+08
1.05394e+08
5.58676e+07
4.21934e+07
-4.03516e+09
-2.89772e+09
-1.70472e+09
-1.06068e+09
-5.93801e+08
-3.32085e+08
-1.81405e+08
-9.84587e+07
-5.41897e+07
-4.35651e+07
2.80418e+09
1.96065e+09
1.15212e+09
7.04821e+08
3.8898e+08
2.16857e+08
1.14416e+08
6.24425e+07
3.26441e+07
2.50578e+07
-2.303e+09
-1.64554e+09
-9.65554e+08
-6.05955e+08
-3.35372e+08
-1.91102e+08
-1.02177e+08
-5.68391e+07
-3.04957e+07
-2.48211e+07
1.54293e+09
1.05117e+09
6.20374e+08
3.77978e+08
2.09455e+08
1.17825e+08
6.21306e+07
3.43813e+07
1.7818e+07
1.40972e+07
-1.30456e+09
-8.88573e+08
-5.2095e+08
-3.2228e+08
-1.77896e+08
-1.01865e+08
-5.39225e+07
-3.03491e+07
-1.58818e+07
-1.33495e+07
7.79765e+08
4.14536e+08
2.44987e+08
1.21162e+08
6.72899e+07
3.21084e+07
1.71793e+07
8.21493e+06
4.23674e+06
2.62814e+06
)
;

boundaryField
{
    frontAndBack
    {
        type            empty;
    }
    symm
    {
        type            symmetryPlane;
    }
    in
    {
        type            implicitExtrapolation;
    }
    out
    {
        type            implicitExtrapolation;
    }
}


// ************************************************************************* //
