/*--------------------------------*- C++ -*----------------------------------*\
| =========                 |                                                 |
| \\      /  F ield         | foam-extend: Open Source CFD                    |
|  \\    /   O peration     | Version:  3.0                                   |
|   \\  /    A nd           | Web:         http://www.extend-project.de       |
|    \\/     M anipulation  |                                                 |
\*---------------------------------------------------------------------------*/
FoamFile
{
    version     2.0;
    format      ascii;
    class       volVectorField;
    location    "1.2";
    object      u;
}
// * * * * * * * * * * * * * * * * * * * * * * * * * * * * * * * * * * * * * //

dimensions      [0 0 0 0 0 0 0];

internalField   nonuniform List<vector> 
300
(
(-1.89643e+13 1.10139e+13 0.00909678)
(-9.49896e+11 -1.40704e+13 0.0139194)
(2.69038e+12 3.14196e+12 0.00443565)
(-4.84069e+12 -1.4477e+12 -0.0311321)
(1.76347e+11 -4.69707e+12 -0.0975479)
(-1.98528e+12 -3.45047e+11 -0.175474)
(4.93193e+11 1.78279e+11 -0.206626)
(-6.08866e+11 -9.17563e+10 -0.0891055)
(2.05603e+11 5.45846e+10 0.301612)
(-2.71509e+11 -3.32165e+09 0.996014)
(6.48302e+11 -1.98555e+12 0.00431179)
(1.20883e+11 8.82303e+11 -0.00109888)
(8.47426e+10 1.21916e+12 -0.0136263)
(-5.88482e+11 1.60124e+12 -0.0342417)
(-1.80766e+11 -1.59692e+12 -0.0522397)
(1.59126e+11 4.53047e+11 -0.0417141)
(-7.86008e+10 -5.26869e+11 0.0326002)
(1.13533e+11 1.51735e+11 0.188463)
(-5.42734e+10 -1.41785e+11 0.374299)
(7.75677e+10 1.55207e+09 0.595053)
(1.53853e+12 -5.16483e+11 0.00515812)
(-3.0202e+12 -9.33483e+11 -0.000371405)
(-8.26622e+11 -4.11313e+11 -0.0139181)
(2.32099e+10 -5.105e+11 -0.0381558)
(1.88968e+11 4.79403e+11 -0.0614415)
(-3.46442e+11 -2.46019e+11 -0.0494256)
(1.18419e+11 1.88434e+11 0.051)
(-1.79895e+11 -9.11841e+10 0.263542)
(7.13302e+10 6.20589e+10 0.437369)
(-1.07956e+11 -2.32986e+10 0.632752)
(9.55631e+11 -1.35855e+12 0.00562868)
(5.17032e+11 -1.92259e+11 0.00055435)
(2.24974e+11 -9.49141e+10 -0.0128586)
(-1.92967e+11 4.71879e+11 -0.0389004)
(7.72871e+10 -5.09911e+11 -0.0674771)
(3.03736e+10 1.96117e+11 -0.0626614)
(1.28669e+10 -1.9889e+11 0.0378185)
(3.01459e+10 6.80624e+10 0.27245)
(-7.0347e+09 -6.13716e+10 0.475102)
(2.90901e+10 3.20261e+09 0.68058)
(-6.07852e+11 6.2498e+11 0.00577175)
(-6.95723e+11 -2.26612e+11 0.00132901)
(-3.84313e+11 -1.61594e+11 -0.0115285)
(-7.1741e+10 -1.89387e+11 -0.0380237)
(-1.29857e+10 1.31435e+11 -0.0695973)
(-1.09683e+11 -1.1439e+11 -0.070769)
(2.02112e+10 6.69105e+10 0.0243133)
(-5.87818e+10 -4.72546e+10 0.263895)
(2.03139e+10 2.70048e+10 0.493153)
(-3.82472e+10 -1.73006e+10 0.714309)
(6.04277e+11 -6.41897e+11 0.00569928)
(4.00041e+11 -1.29176e+11 0.00176175)
(2.14222e+11 -1.08973e+11 -0.010461)
(-2.20559e+10 1.38948e+11 -0.0367792)
(8.53673e+10 -1.64502e+11 -0.0698106)
(2.49775e+09 7.11873e+10 -0.0751315)
(2.46716e+10 -6.88097e+10 0.0140386)
(5.71628e+09 2.61616e+10 0.252197)
(3.86885e+09 -2.32353e+10 0.502609)
(1.01896e+10 2.3721e+09 0.738777)
(-3.96408e+11 3.0552e+11 0.00551098)
(-3.26512e+11 -9.71625e+10 0.00199747)
(-2.10684e+11 -8.10954e+10 -0.00963092)
(-7.18946e+10 -8.84701e+10 -0.0354436)
(-3.8247e+10 2.73528e+10 -0.0690326)
(-4.27974e+10 -5.36561e+10 -0.0773995)
(-3.2749e+09 1.98922e+10 0.00572263)
(-2.02396e+10 -2.28704e+10 0.239198)
(4.21019e+09 1.00633e+10 0.506485)
(-1.29841e+10 -9.69746e+09 0.756161)
(3.80284e+11 -2.97001e+11 0.0052749)
(2.69278e+11 -4.9784e+10 0.00211412)
(1.60105e+11 -4.8518e+10 -0.00887757)
(2.501e+10 4.72888e+10 -0.0339494)
(5.94719e+10 -4.94024e+10 -0.0675513)
(3.89162e+09 2.608e+10 -0.0784106)
(1.81773e+10 -2.16746e+10 -0.00175073)
(1.60233e+09 9.78374e+09 0.224496)
(4.26306e+09 -7.96107e+09 0.505111)
(3.77069e+09 1.33998e+09 0.766852)
(-2.47526e+11 1.39812e+11 0.00502235)
(-1.82365e+11 -5.67791e+10 0.00220876)
(-1.21869e+11 -5.25971e+10 -0.00808483)
(-5.02364e+10 -5.06079e+10 -0.0321762)
(-2.99927e+10 -2.10678e+09 -0.0653902)
(-1.92829e+10 -2.7e+10 -0.078469)
(-6.13719e+09 3.75176e+09 -0.00891329)
(-7.47768e+09 -1.11397e+10 0.207671)
(2.78384e+07 3.17271e+09 0.498253)
(-4.30095e+09 -4.87083e+09 0.770614)
(2.3617e+11 -1.27823e+11 0.0047602)
(1.69323e+11 -6.32291e+09 0.00232038)
(1.05526e+11 -8.13703e+09 -0.00715662)
(2.93078e+10 2.27472e+10 -0.0300297)
(3.62301e+10 -1.07267e+10 -0.0625159)
(5.18419e+09 1.13137e+10 -0.0776721)
(1.09584e+10 -5.40903e+09 -0.0159913)
(1.12469e+09 4.06467e+09 0.188449)
(2.8284e+09 -2.34003e+09 0.485493)
(1.56125e+09 7.56197e+08 0.766741)
(-1.52746e+11 5.75735e+10 0.00448157)
(-1.0593e+11 -4.0961e+10 0.00248856)
(-6.95156e+10 -3.89496e+10 -0.00604839)
(-3.01845e+10 -3.22103e+10 -0.0274561)
(-1.87006e+10 -9.08557e+09 -0.0589063)
(-9.2203e+09 -1.48259e+10 -0.076074)
(-4.4894e+09 -1.14254e+09 -0.0231048)
(-2.92952e+09 -5.68762e+09 0.166624)
(-6.60987e+08 6.5596e+08 0.466166)
(-1.40538e+09 -2.35714e+09 0.753435)
(1.43229e+11 -4.72317e+10 0.00417134)
(1.01876e+11 1.29225e+10 0.00271385)
(6.35705e+10 9.83087e+09 -0.00473014)
(2.18689e+10 1.52302e+10 -0.0244333)
(2.04911e+10 1.57796e+09 -0.0545883)
(4.32235e+09 6.23104e+09 -0.0737506)
(6.01993e+09 -2.22434e+08 -0.0302766)
(8.79682e+08 2.04367e+09 0.142355)
(1.60023e+09 -4.3311e+08 0.439959)
(7.15207e+08 4.61977e+08 0.726816)
(-9.26178e+10 1.83355e+10 0.0038126)
(-6.07582e+10 -3.15222e+10 0.00300603)
(-3.78703e+10 -2.90476e+10 -0.00317937)
(-1.64282e+10 -2.10994e+10 -0.0209531)
(-1.02485e+10 -8.99271e+09 -0.0496474)
(-4.30213e+09 -8.63701e+09 -0.0708919)
(-2.55812e+09 -2.12827e+09 -0.0374379)
(-1.1405e+09 -3.05979e+09 0.117127)
(-5.1316e+08 -1.40375e+08 0.410757)
(-4.45045e+08 -1.14443e+09 0.68523)
(8.44634e+10 -1.13321e+10 0.00338157)
(5.86222e+10 1.84558e+10 0.00334132)
(3.54611e+10 1.44833e+10 -0.00137139)
(1.35782e+10 1.14146e+10 -0.0169761)
(1.08404e+10 4.54945e+09 -0.0442244)
(2.81617e+09 4.02345e+09 -0.0680783)
(3.08196e+09 1.1097e+09 -0.0452911)
(5.72757e+08 1.20997e+09 0.0934696)
(8.28141e+08 1.28153e+08 0.39653)
(3.43697e+08 2.9894e+08 0.67833)
(-5.48094e+10 1.12104e+09 0.00286323)
(-3.36017e+10 -2.38443e+10 0.00366367)
(-1.93295e+10 -2.07722e+10 0.000699854)
(-8.15504e+09 -1.37102e+10 -0.0123262)
(-4.98775e+09 -6.9596e+09 -0.0382505)
(-1.81829e+09 -5.14315e+09 -0.0665139)
(-1.21977e+09 -1.87238e+09 -0.058672)
(-3.87972e+08 -1.70109e+09 0.0620305)
(-2.74632e+08 -3.05441e+08 0.411528)
(-1.24087e+08 -5.66834e+08 1.00128)
(4.83044e+10 2.7721e+09 0.00225723)
(3.20644e+10 1.73085e+10 0.00384558)
(1.83235e+10 1.31404e+10 0.00293117)
(7.42062e+09 8.40135e+09 -0.00661339)
(5.29957e+09 4.34183e+09 -0.0304614)
(1.53337e+09 2.71762e+09 -0.0656649)
(1.45475e+09 1.17986e+09 -0.0871186)
(3.05381e+08 7.71302e+08 -0.0383321)
(3.9528e+08 2.32347e+08 0.145895)
(1.63148e+08 1.96411e+08 0.167065)
(-3.14668e+10 -5.17102e+09 0.00159587)
(-1.76226e+10 -1.72674e+10 0.00369708)
(-9.02047e+09 -1.4111e+10 0.00489465)
(-3.59325e+09 -8.71327e+09 0.000271006)
(-2.07389e+09 -4.7968e+09 -0.0174943)
(-6.10313e+08 -3.05299e+09 -0.0536701)
(-4.61331e+08 -1.34389e+09 -0.0998103)
(-7.40839e+07 -9.54811e+08 -0.114688)
(-1.09973e+08 -2.67733e+08 -0.00470119)
(-1.84771e+07 -2.86423e+08 0.026924)
(2.67053e+10 6.87707e+09 0.00095109)
(1.65066e+10 1.36945e+10 0.00306336)
(8.65196e+09 9.94512e+09 0.00570337)
(3.57275e+09 5.85918e+09 0.00634922)
(2.31752e+09 3.27574e+09 0.000150501)
(6.89033e+08 1.80304e+09 -0.0183159)
(6.07051e+08 9.08729e+08 -0.0486469)
(1.25723e+08 4.94219e+08 -0.0712947)
(1.69078e+08 1.99485e+08 -0.026356)
(7.19128e+07 1.27122e+08 -0.00107145)
(-1.74225e+10 -6.41719e+09 0.000413918)
(-8.58504e+09 -1.19207e+10 0.00204633)
(-3.64592e+09 -9.1277e+09 0.00474495)
(-1.27133e+09 -5.38705e+09 0.00748642)
(-6.23615e+08 -3.06805e+09 0.00759822)
(-7.28803e+07 -1.78266e+09 0.00124895)
(-9.22896e+07 -8.67573e+08 -0.0134051)
(4.29923e+07 -5.31987e+08 -0.0286844)
(-2.31918e+07 -1.87479e+08 -0.0157484)
(1.27169e+07 -1.466e+08 -0.0040281)
(1.42019e+10 6.85375e+09 4.51485e-05)
(7.85308e+09 9.79788e+09 0.00108219)
(3.58261e+09 6.78598e+09 0.003188)
(1.43867e+09 3.86011e+09 0.00596127)
(8.29177e+08 2.19904e+09 0.0080001)
(2.19617e+08 1.14858e+09 0.00693901)
(1.97115e+08 6.10593e+08 0.000958612)
(2.63282e+07 3.0787e+08 -0.00724904)
(5.89254e+07 1.39994e+08 -0.00565925)
(2.67227e+07 7.97209e+07 -0.00224401)
(-9.23662e+09 -5.6408e+09 -0.000161262)
(-3.73566e+09 -7.8636e+09 0.000455893)
(-1.06444e+09 -5.64556e+09 0.00205765)
(-2.01654e+08 -3.23173e+09 0.00439637)
(8.00402e+06 -1.85275e+09 0.00668482)
(1.28268e+08 -1.01646e+09 0.00752137)
(5.66884e+07 -5.20931e+08 0.00560194)
(7.34236e+07 -2.91034e+08 0.0016934)
(1.3244e+07 -1.16993e+08 0.000270649)
(1.83948e+07 -7.53507e+07 -0.000279318)
(7.20537e+09 5.46756e+09 -0.000253045)
(3.31623e+09 6.53124e+09 0.000218515)
(1.13808e+09 4.30827e+09 0.00173644)
(3.82887e+08 2.41199e+09 0.00400781)
(1.578e+08 1.36517e+09 0.00643775)
(-1.68596e+06 6.98152e+08 0.00808815)
(1.94557e+07 3.76433e+08 0.00804858)
(-1.82921e+07 1.83947e+08 0.00638662)
(1.029e+07 8.82419e+07 0.00448523)
(5.91684e+06 4.80641e+07 0.00192234)
(-4.6388e+09 -4.30528e+09 -0.000284388)
(-1.30853e+09 -4.97897e+09 0.000308246)
(3.26759e+07 -3.35129e+09 0.00223705)
(2.15135e+08 -1.87839e+09 0.0050901)
(2.24144e+08 -1.06457e+09 0.00813264)
(1.73581e+08 -5.63075e+08 0.0103818)
(9.68151e+07 -2.94819e+08 0.0109993)
(6.92313e+07 -1.55067e+08 0.00997706)
(2.33638e+07 -6.74277e+07 0.00813627)
(1.60995e+07 -3.85574e+07 0.00540627)
(3.43559e+09 3.91072e+09 -0.000298308)
(1.1051e+09 4.12327e+09 0.000654279)
(8.65636e+07 2.58495e+09 0.00347727)
(-6.70318e+07 1.4358e+09 0.00763003)
(-9.83616e+07 7.96371e+08 0.0118555)
(-8.2916e+07 4.04375e+08 0.0143547)
(-4.33633e+07 2.16853e+08 0.0135983)
(-3.18824e+07 1.04788e+08 0.00976248)
(-7.77141e+06 5.1478e+07 0.00621098)
(-2.36491e+06 2.77602e+07 0.00842365)
(-2.16037e+09 -3.04459e+09 -0.000325548)
(-2.10252e+08 -3.05209e+09 0.00121349)
(3.98166e+08 -1.91993e+09 0.00538878)
(3.18746e+08 -1.06005e+09 0.0115735)
(2.52082e+08 -5.84976e+08 0.0174884)
(1.55536e+08 -3.02279e+08 0.0191272)
(9.07365e+07 -1.58115e+08 0.0121223)
(5.42043e+07 -7.99592e+07 -0.00485117)
(2.20282e+07 -3.63926e+07 -0.0232084)
(1.20664e+07 -1.94878e+07 -0.0171783)
(1.48474e+09 2.61622e+09 -0.000387376)
(1.29648e+08 2.49849e+09 0.00196811)
(-2.83797e+08 1.48192e+09 0.00791976)
(-2.11488e+08 8.19724e+08 0.016844)
(-1.62689e+08 4.40512e+08 0.0249121)
(-9.59395e+07 2.23572e+08 0.0239364)
(-5.48267e+07 1.17621e+08 0.00229662)
(-3.07895e+07 5.67869e+07 -0.0505408)
(-1.19299e+07 2.81306e+07 -0.133316)
(-4.6999e+06 1.53628e+07 -0.248713)
(-8.72228e+08 -2.07259e+09 -0.000491786)
(2.10982e+08 -1.85678e+09 0.00290787)
(4.4191e+08 -1.08312e+09 0.0110063)
(2.91377e+08 -5.94918e+08 0.0232663)
(2.09298e+08 -3.14122e+08 0.0339429)
(1.18373e+08 -1.60395e+08 0.0293276)
(6.97541e+07 -8.18904e+07 -0.0128558)
(3.82951e+07 -4.04751e+07 -0.121043)
(1.69212e+07 -1.88484e+07 -0.321171)
(8.33775e+06 -9.9034e+06 -0.616172)
(4.97722e+08 1.67166e+09 -0.000619971)
(-2.45374e+08 1.48684e+09 0.00401305)
(-3.63626e+08 8.28748e+08 0.0145505)
(-2.26319e+08 4.61441e+08 0.0305165)
(-1.53199e+08 2.37057e+08 0.0438352)
(-8.31595e+07 1.21241e+08 0.0355159)
(-4.75527e+07 6.1575e+07 -0.0199107)
(-2.47499e+07 3.00445e+07 -0.131582)
(-1.07751e+07 1.49173e+07 -0.243152)
(-4.8412e+06 8.50928e+06 -0.368047)
(-1.94969e+08 -1.39815e+09 -0.00076565)
(3.33421e+08 -1.20746e+09 0.0050277)
(3.76499e+08 -6.50676e+08 0.0178951)
(2.27928e+08 -3.75103e+08 0.0373407)
(1.52167e+08 -1.88334e+08 0.0519212)
(8.18746e+07 -9.94771e+07 0.0330507)
(4.76416e+07 -4.86085e+07 -0.0592459)
(2.50111e+07 -2.47065e+07 -0.23187)
(1.14804e+07 -1.16059e+07 -0.324141)
(5.72492e+06 -7.28301e+06 -0.421975)
(-4.58967e+07 1.00937e+09 0.00302745)
(-1.28089e+08 8.955e+08 0.0187518)
(-9.41117e+07 4.55065e+08 0.0399158)
(-6.79756e+07 2.74477e+08 0.0552057)
(-3.70492e+07 1.33361e+08 0.0275872)
(-2.25591e+07 7.32392e+07 -0.110003)
(-1.10665e+07 3.55064e+07 -0.427281)
(-6.18365e+06 1.87319e+07 -0.878157)
(-2.40023e+06 9.41044e+06 -0.972442)
(-1.04086e+06 6.82219e+06 -0.0438518)
)
;

boundaryField
{
    frontAndBack
    {
        type            empty;
    }
    symm
    {
        type            symmetryPlane;
    }
    in
    {
        type            myVelocity;
    }
    out
    {
        type            fixedValue;
        value           uniform (1 0 0);
    }
}


// ************************************************************************* //
