/*--------------------------------*- C++ -*----------------------------------*\
| =========                 |                                                 |
| \\      /  F ield         | foam-extend: Open Source CFD                    |
|  \\    /   O peration     | Version:  3.0                                   |
|   \\  /    A nd           | Web:         http://www.extend-project.de       |
|    \\/     M anipulation  |                                                 |
\*---------------------------------------------------------------------------*/
FoamFile
{
    version     2.0;
    format      ascii;
    class       volScalarField;
    location    "17";
    object      p;
}
// * * * * * * * * * * * * * * * * * * * * * * * * * * * * * * * * * * * * * //

dimensions      [0 0 0 0 0 0 0];

internalField   nonuniform List<scalar> 
672
(
-0.237012353
-0.2008959845
-0.1892122874
-0.1708918065
-0.1674749778
-0.1576868888
-0.1577585627
-0.1523784294
-0.1532799864
-0.1495766871
-0.1489720083
-0.1442704684
-0.2341138274
-0.1984471299
-0.186910718
-0.1688205683
-0.1654496893
-0.1557862956
-0.1558607102
-0.1505504088
-0.151444284
-0.1477897895
-0.1471957018
-0.1425549962
-0.2282466779
-0.193483755
-0.1822433106
-0.1646137971
-0.1613331189
-0.1519176641
-0.1519952672
-0.1468227365
-0.1476987361
-0.1441396697
-0.1435644173
-0.1390434271
-0.2195319254
-0.1861056509
-0.1752998143
-0.1583501832
-0.1551993527
-0.1461487581
-0.1462274567
-0.1412568209
-0.1421030738
-0.1386836659
-0.1381339202
-0.13378914
-0.2080345571
-0.1763696872
-0.1661370042
-0.1500829479
-0.1471032821
-0.1385330075
-0.1386130981
-0.1339079575
-0.1347148641
-0.131478796
-0.1309622537
-0.1268487856
-0.1939429661
-0.1644333235
-0.1549000547
-0.1399409857
-0.1371684257
-0.1291847327
-0.1292641102
-0.1248827195
-0.1256392692
-0.122626718
-0.1221492261
-0.1183184472
-0.1773910837
-0.1504121444
-0.1417005494
-0.1280270885
-0.1254980361
-0.1182029003
-0.1182817304
-0.1142802151
-0.1149778869
-0.1122273817
-0.1117957338
-0.1082962328
-0.1586296504
-0.134516362
-0.1267337362
-0.1145153504
-0.1122601539
-0.1057437659
-0.1058199651
-0.1022476592
-0.102876763
-0.1004222854
-0.1000411374
-0.09691653277
-0.137852334
-0.1169122344
-0.1101586486
-0.0995514508
-0.09759986496
-0.09194569892
-0.09201934816
-0.08892217004
-0.08947569443
-0.08734876688
-0.08702371951
-0.08431370253
-0.1153621758
-0.09785431897
-0.09221253224
-0.0833474257
-0.08172259466
-0.07700017313
-0.07706928338
-0.07448511804
-0.07495518368
-0.07318181516
-0.07291611
-0.07065429756
-0.09140040821
-0.07754919265
-0.0730922351
-0.06608311596
-0.064806749
-0.06107694169
-0.061141551
-0.05910385189
-0.05948528762
-0.05808843611
-0.05788608841
-0.05610131841
-0.066309615
-0.05628497625
-0.05306676915
-0.04799928385
-0.04708606946
-0.04439417054
-0.0444524438
-0.04298573084
-0.04327287707
-0.04226930463
-0.04213208649
-0.04084628489
-0.04036414095
-0.0342963201
-0.03235934156
-0.02929959747
-0.02876221632
-0.02714353191
-0.02719554099
-0.02631917195
-0.02650901507
-0.02591194343
-0.0258420526
-0.02507176601
-0.01393126719
-0.01189233025
-0.01125883109
-0.01024279369
-0.01008665764
-0.009559905862
-0.009604001394
-0.009327872275
-0.009417212978
-0.009233353172
-0.009231001921
-0.008985377962
0.01269758255
0.01067783939
0.009997920045
0.008955097197
0.00872686499
0.008153605525
0.008117222878
0.007788739761
0.007800500094
0.00756828888
0.007502712878
0.007220223976
0.03914658751
0.03309780552
0.03111511506
0.02802907411
0.0274206786
0.02575627762
0.02572904289
0.02480121955
0.0249147145
0.02427013302
0.02413807386
0.0233315639
0.06512407797
0.05511816218
0.05185566655
0.04676282039
0.04578075686
0.04304466179
0.04302616716
0.04150974283
0.04172302876
0.0406736293
0.04047638717
0.03915563085
0.09026234116
0.07642936943
0.07193018
0.06489710869
0.06355504143
0.05978332952
0.0597747589
0.05768995275
0.05800109969
0.05656085803
0.05630152684
0.05448366276
0.1142862724
0.09679601176
0.09111472648
0.0822274438
0.08054107829
0.07577965198
0.07578034158
0.07315238813
0.07355693673
0.07174335313
0.07142477008
0.06913226183
0.1368525439
0.1159292004
0.1091393267
0.09851212305
0.09650394483
0.09081433773
0.0908251851
0.08768826621
0.0881818351
0.08601848635
0.08564525441
0.08290744077
0.1577185685
0.1336210344
0.1258059522
0.1135699977
0.1112640621
0.1047162453
0.104736309
0.1011288322
0.1017046226
0.0992180339
0.09879435333
0.09564522436
0.1765805053
0.1496160796
0.1408761008
0.127187778
0.1246143149
0.1172922541
0.1173221279
0.1132905522
0.1139419652
0.1111641425
0.1106958894
0.1071755265
0.1932425657
0.1637460706
0.1541890705
0.139218003
0.1364081448
0.1284022919
0.1284407562
0.1240346858
0.1247528872
0.1217180223
0.1212105322
0.1173627203
0.207453558
0.1758001851
0.1655483499
0.149485291
0.1464755564
0.1378881732
0.1379355297
0.1332114177
0.1339879532
0.1307349007
0.130195044
0.126068617
0.2190763952
0.1856598988
0.17484009
0.1578844894
0.1547114657
0.1456488717
0.1457036396
0.1407197468
0.1415441538
0.1381130258
0.1375469806
0.1331933027
0.2279230872
0.1931679503
0.181918208
0.1642857539
0.1609904879
0.1515682021
0.151630433
0.1464504429
0.1473128876
0.1437474869
0.1431628172
0.1386370543
0.2339241801
0.1982631391
0.1867228542
0.1686327044
0.165255349
0.1555901536
0.1556581425
0.1503460019
0.1512348887
0.1475792058
0.1469825986
0.1423411051
0.2369622866
0.2008480488
0.1891643053
0.1708464026
0.1674305515
0.157645527
0.1577191368
0.1523426417
0.1532473095
0.149547956
0.1489473437
0.1442488862
0.2370411021
0.2009234842
0.1892411227
0.170923232
0.1675105421
0.1577270137
0.157804375
0.1524299163
0.1533382058
0.1496408288
0.1490430654
0.1443461559
0.234117724
0.1984551726
0.1869230593
0.1688379838
0.1654724895
0.1558150235
0.1558958807
0.1505920389
0.1514930485
0.1478447847
0.1472578194
0.142621917
0.2282708121
0.1935074721
0.1822685466
0.1646411311
0.1613638612
0.1519521857
0.1520345829
0.146866842
0.1477484633
0.1441943244
0.1436248468
0.1391076838
0.2195321082
0.1861093919
0.1753069521
0.1583613215
0.1552146213
0.1461686363
0.1462522718
0.141286624
0.1421383072
0.1387236392
0.138179256
0.1338380422
0.2080532765
0.1763871894
0.1661550183
0.1501017157
0.1471238855
0.138555662
0.1386385761
0.1339362929
0.1347465932
0.1315135128
0.1310004257
0.1268892139
0.1939371231
0.1644301192
0.1548988722
0.1399422386
0.1371718874
0.1291907388
0.1292726568
0.1248938993
0.1256531939
0.1226430323
0.1221681658
0.1183390851
0.1774026816
0.150421571
0.141709075
0.1280346837
0.1255054131
0.1182100696
0.1182891006
0.1142878205
0.1149858909
0.1122357398
0.1118044898
0.1083051931
0.1586166726
0.1345049794
0.1267228032
0.1145050939
0.1122499127
0.1057337093
0.105809675
0.1022372524
0.1028659341
0.100411088
0.1000293953
0.09690434853
0.1378564987
0.1169132395
0.1101572491
0.09954740127
0.09759347032
0.09193676963
0.09200790413
0.08890821311
0.0894589957
0.08732962611
0.08700178191
0.08428983103
0.1153424127
0.09783516598
0.0921923501
0.08332628023
0.08169941675
0.07697497883
0.07704125668
0.07445438095
0.07492100811
0.073144646
0.0728753456
0.07061108668
0.09139828383
0.07754306693
0.0730824222
0.06606920889
0.0647887066
0.06105441209
0.06111423236
0.05907170655
0.0594477615
0.05804610204
0.05783828225
0.0560497812
0.06628480383
0.05626004024
0.05303970783
0.047970047
0.04705329162
0.04435775066
0.04441127764
0.04293992538
0.0432213979
0.04221285319
0.0420697413
0.04078000479
0.0403581043
0.03428576337
0.03234430401
0.02927957341
0.02873695351
0.02711257339
0.02715839622
0.02627576786
0.02645861043
0.02585527036
0.02577827114
0.02500314709
0.01390417647
0.0118647817
0.01122866237
0.01020990008
0.01004954509
0.009518411951
0.009556902504
0.00927525037
0.009357912924
0.009168160247
0.009158867427
0.008908629148
-0.01270439178
-0.01068924985
-0.01001394737
-0.008976274799
-0.008753477388
-0.008186146926
-0.008156200663
-0.007834257514
-0.007853305984
-0.007627640993
-0.007569461969
-0.007292014592
-0.03917272263
-0.03312426004
-0.03114398471
-0.02806044837
-0.02745598986
-0.0257956821
-0.025773695
-0.02485105835
-0.02497081353
-0.02433177893
-0.02420624032
-0.02340407392
-0.06512838167
-0.0551266887
-0.05186825416
-0.04677995876
-0.04580257459
-0.04307162153
-0.04305861501
-0.04154780586
-0.04176727659
-0.04072346569
-0.04053249932
-0.03921604452
-0.09028447515
-0.07645124207
-0.07195360234
-0.06492208996
-0.06358277199
-0.05981389653
-0.05980907187
-0.05772796331
-0.05804361323
-0.05660737065
-0.05635274937
-0.05453805486
-0.1142853071
-0.09679850642
-0.0911201395
-0.08223616126
-0.0805529088
-0.0757949683
-0.07579917962
-0.0731748877
-0.07358333592
-0.0717733307
-0.07145869693
-0.06916894514
-0.1368684368
-0.1159439297
-0.1091542458
-0.09852711507
-0.09651981539
-0.09083106282
-0.09084329932
-0.08770773334
-0.08820305354
-0.0860412858
-0.08566993145
-0.08293344318
-0.1577106348
-0.133615568
-0.1258018928
-0.1135675945
-0.1112626919
-0.1047161502
-0.104737131
-0.1011307123
-0.1017073848
-0.09922170869
-0.09879890787
-0.09565048802
-0.1765891757
-0.1496225525
-0.1408811658
-0.1271911799
-0.1246163954
-0.1172928582
-0.1173213683
-0.1132884125
-0.1139383883
-0.1111593633
-0.1106897476
-0.1071685689
-0.1932273624
-0.1637323151
-0.1541751273
-0.1392039912
-0.1363929803
-0.1283860585
-0.1284227115
-0.1240149637
-0.1247309122
-0.1216941783
-0.1211843924
-0.1173351526
-0.2074554812
-0.1757989693
-0.1655441928
-0.1494778205
-0.1464646726
-0.1378735816
-0.1379169803
-0.1331889167
-0.1339610569
-0.1307042024
-0.1301600143
-0.126030758
-0.2190550721
-0.1856391784
-0.1748178155
-0.1578606622
-0.1546846513
-0.1456189755
-0.1456696395
-0.1406817664
-0.1415013141
-0.1380659921
-0.1374949954
-0.1331380912
-0.2279201089
-0.1931611623
-0.1819073245
-0.164270277
-0.1609700366
-0.151542353
-0.1515987139
-0.1464128725
-0.1472687717
-0.1436976384
-0.1431064357
-0.1385763195
-0.2338990628
-0.1982380782
-0.1866954656
-0.1686027331
-0.1652212835
-0.1555517273
-0.1556142202
-0.1502966906
-0.1511791448
-0.1475178402
-0.1469145934
-0.1422687729
-0.2369573187
-0.2008388645
-0.1891505437
-0.1708273626
-0.1674057913
-0.1576145568
-0.1576814235
-0.1522982051
-0.1531953541
-0.1494893851
-0.1488812404
-0.1441777155
)
;

boundaryField
{
    out
    {
        type            implicitExtrapolation;
    }
    in
    {
        type            implicitExtrapolation;
    }
    frontAndBack
    {
        type            empty;
    }
}


// ************************************************************************* //
