/*--------------------------------*- C++ -*----------------------------------*\
| =========                 |                                                 |
| \\      /  F ield         | foam-extend: Open Source CFD                    |
|  \\    /   O peration     | Version:  3.0                                   |
|   \\  /    A nd           | Web:         http://www.extend-project.de       |
|    \\/     M anipulation  |                                                 |
\*---------------------------------------------------------------------------*/
FoamFile
{
    version     2.0;
    format      ascii;
    class       volSymmTensorField;
    location    "17";
    object      sigma;
}
// * * * * * * * * * * * * * * * * * * * * * * * * * * * * * * * * * * * * * //

dimensions      [0 0 0 0 0 0 0];

internalField   nonuniform List<symmTensor> 
672
(
(-0.1680320637 -0.01038246065 -1.220082789e-19 0.1678804269 -2.494740915e-20 0.0001516367427)
(-0.1548172332 -0.01199021442 -2.819762468e-19 0.1544387989 -1.520368845e-20 0.0003784342527)
(-0.1362061357 -0.01184858253 -1.886916202e-19 0.1356409848 -6.144239579e-21 0.0005651508483)
(-0.1169918843 -0.01104099782 -8.007315393e-20 0.1162736052 -1.74856737e-21 0.0007182790524)
(-0.09889214814 -0.01001715683 -3.076910127e-19 0.09805212735 -3.52234994e-20 0.0008400207813)
(-0.08242572742 -0.008975610022 -2.994585992e-19 0.08149788387 -1.472554583e-19 0.0009278435527)
(-0.06772923344 -0.008004828078 -4.616522507e-19 0.06675188478 -1.544698073e-19 0.0009773486574)
(-0.05482900914 -0.00715600961 -5.668851094e-19 0.05384914242 -4.084698245e-19 0.0009798667283)
(-0.04371187603 -0.006450569735 -5.884447305e-19 0.04278705877 -2.68992545e-19 0.0009248172663)
(-0.03448939502 -0.00592135035 -3.311901641e-19 0.03369315706 -1.284109312e-20 0.0007962379568)
(-0.02725347818 -0.005583791637 -1.011431684e-19 0.02667848129 1.213602749e-19 0.0005749968903)
(-0.02233969878 -0.005480672655 -3.386471982e-20 0.02210523051 -2.018964954e-19 0.0002344682731)
(-0.1651297312 -0.03077403798 -1.009317349e-19 0.1649806462 7.352038205e-21 0.0001490849822)
(-0.1500279623 -0.03519545108 -2.680666465e-19 0.1496557965 6.106567453e-20 0.0003721657769)
(-0.1308698663 -0.03459485211 -2.197202798e-19 0.1303140414 1.44074543e-19 0.0005558249221)
(-0.1116746296 -0.03208833397 -5.001165118e-20 0.1109681624 -4.982953292e-20 0.0007064671054)
(-0.09382909248 -0.02896591272 -2.972678769e-19 0.09300289279 2.021867473e-20 0.0008261996873)
(-0.07769770918 -0.02579386303 -2.953938125e-19 0.07678517974 -2.429247155e-19 0.000912529436)
(-0.06334554517 -0.02282195654 -5.477189092e-19 0.0623844208 -3.666836764e-19 0.0009611243641)
(-0.05075631324 -0.02019271599 -8.846057381e-19 0.04979284364 -5.567471357e-19 0.0009634696012)
(-0.03989916547 -0.0179630512 -4.892439674e-19 0.03898998336 -7.366229506e-20 0.000909182106)
(-0.03086291007 -0.01622269502 -1.068725277e-19 0.03008030437 -1.07582965e-19 0.0007826056964)
(-0.0237314835 -0.01501113551 -3.295002395e-19 0.02316648609 -1.342240054e-19 0.0005649974154)
(-0.0188235233 -0.0144306763 -1.590867701e-19 0.01859322845 -1.651924775e-19 0.0002302948534)
(-0.1594541863 -0.05039436006 -3.094326339e-20 0.1593094366 -5.01074241e-20 0.0001447497626)
(-0.1408357825 -0.05656778541 -2.066648954e-19 0.1404744081 1.350980694e-19 0.0003613743674)
(-0.120682584 -0.05513424537 -2.732334186e-19 0.120142856 2.542544198e-19 0.0005397280369)
(-0.1015555931 -0.0508530892 -2.233197757e-19 0.100869575 7.63143848e-20 0.0006860181088)
(-0.08421892126 -0.04568679202 -3.451235167e-19 0.08341664847 5.38425151e-20 0.0008022727918)
(-0.06874714385 -0.04048975452 -6.867115723e-19 0.067861074 -1.612068563e-19 0.0008860698462)
(-0.05507129907 -0.03563573286 -9.981508253e-19 0.05413810652 -4.713883806e-20 0.0009331925472)
(-0.04309548639 -0.03133612052 -9.35545894e-19 0.04216011365 -7.575379332e-20 0.000935372747)
(-0.03275614488 -0.0276739706 -3.299604723e-19 0.03187360933 8.802212278e-21 0.0008825355525)
(-0.02409974609 -0.02478444586 -5.028910746e-19 0.02334023012 -2.546196277e-19 0.0007595159703)
(-0.01719580924 -0.02272740915 -3.641953997e-19 0.01664763495 -2.420692463e-19 0.0005481742866)
(-0.01233341799 -0.02165791766 -6.873739527e-20 0.01211008003 -1.764751705e-19 0.000223337955)
(-0.1512427782 -0.06878816952 5.24344636e-20 0.1511041542 -5.13102986e-20 0.0001386239852)
(-0.127956537 -0.07508533353 -2.542766328e-20 0.1276104238 1.635786397e-19 0.0003461132036)
(-0.1065372881 -0.07224912106 -1.878934066e-19 0.1060203269 2.614917591e-19 0.0005169612159)
(-0.08757308945 -0.06608245376 -2.137616691e-19 0.0869159814 1.822058074e-19 0.0006571080479)
(-0.07098676155 -0.05896175862 -2.587270529e-19 0.07021828612 -3.335118024e-20 0.0007684754373)
(-0.056462335 -0.05190716794 -4.722285234e-19 0.05561360044 1.074245363e-19 0.0008487345582)
(-0.04375074889 -0.0453591001 -6.300935488e-19 0.04285691447 3.569168764e-19 0.0008938344124)
(-0.03264941284 -0.0395633822 -1.281950416e-18 0.03175356377 3.321518043e-19 0.0008958490765)
(-0.02305118292 -0.03461492201 -7.099976478e-19 0.02220604967 1.209924591e-19 0.0008451332495)
(-0.01494562564 -0.03067675265 -8.820491079e-19 0.01421843723 5.988273762e-19 0.0007271884092)
(-0.008382958864 -0.02782357568 -7.213411392e-19 0.007858257665 2.203801106e-19 0.0005247011985)
(-0.003612629402 -0.02625318521 -1.915598266e-19 0.003398947394 2.719457006e-19 0.0002136820079)
(-0.1408243624 -0.08558209723 -2.959850176e-21 0.1406935891 1.380803566e-19 0.0001307733061)
(-0.1123676118 -0.09000262825 6.356833985e-20 0.1120410609 2.253259513e-19 0.0003265508633)
(-0.08965078224 -0.08507140307 -1.774533473e-19 0.08916300098 3.14700626e-19 0.0004877812572)
(-0.07100442748 -0.07689304425 -3.117666762e-19 0.07038436477 1.570027032e-19 0.0006200627122)
(-0.05539102262 -0.06793832612 -4.315898217e-19 0.05466583819 4.299171375e-21 0.0007251844268)
(-0.04205077589 -0.05924196005 -3.531997079e-19 0.04124984017 2.421010184e-19 0.0008009357207)
(-0.03053072857 -0.05124031237 -1.994337926e-19 0.02968725047 3.145797026e-19 0.0008434780939)
(-0.02050795712 -0.04417121332 -1.002181745e-18 0.0196626329 4.602504079e-19 0.0008453242247)
(-0.01182642995 -0.03812387392 -4.331586788e-19 0.0110290584 4.677423024e-19 0.0007973715483)
(-0.004410981048 -0.03326756421 3.598786619e-19 0.003725018187 4.193846469e-19 0.0006859628616)
(0.001710327084 -0.02968504272 -7.200318961e-19 -0.002205143101 4.492227528e-19 0.0004948160174)
(0.006334238715 -0.02760461437 -2.097681615e-19 -0.006535655411 2.225845253e-19 0.0002014166955)
(-0.1285897759 -0.100505421 1.10210819e-22 0.128468486 1.756699787e-19 0.0001212899493)
(-0.09520401417 -0.1009175523 9.451042785e-20 0.09490109644 3.001173505e-19 0.0003029177327)
(-0.07143169103 -0.09316673674 4.789035934e-20 0.0709791591 2.346343148e-19 0.0004525319346)
(-0.05332616548 -0.08285961102 -3.523148965e-19 0.05275084832 1.555693523e-19 0.0005753171681)
(-0.03888502342 -0.0722171257 -2.276780018e-19 0.03821211814 -1.151088947e-19 0.0006729052856)
(-0.02690584122 -0.06212608844 -2.873072806e-19 0.02616261398 2.300140712e-19 0.0007432272406)
(-0.01673357102 -0.05294291541 3.852320041e-19 0.01595086782 3.484010781e-20 0.0007827031972)
(-0.007926717945 -0.04485196569 -4.251501966e-19 0.007142344072 7.390988745e-20 0.0007843738737)
(-0.0002814598311 -0.03791799493 -9.457537979e-19 -0.0004583330957 1.163030127e-19 0.0007397929269)
(0.006342205826 -0.03229325913 -2.314513488e-19 -0.006978512383 4.457982325e-19 0.0006363065572)
(0.01193889569 -0.02806128061 7.778962941e-19 -0.01239776001 2.184702434e-21 0.0004588643276)
(0.01635412553 -0.02546766177 -3.733740107e-19 -0.01654081515 2.038302073e-20 0.0001866896143)
(-0.1149578096 -0.1134001006 4.890549067e-20 0.1148475257 1.049443478e-19 0.0001102838909)
(-0.07763872555 -0.1078004974 9.03972478e-20 0.07736323639 2.80539743e-19 0.0002754891682)
(-0.0533284795 -0.09657065127 2.240255346e-19 0.05291685743 7.522769879e-20 0.0004116220715)
(-0.03605322393 -0.08405293173 -1.861590008e-19 0.03552983697 -1.042347148e-19 0.0005233869562)
(-0.02295763259 -0.07188918518 -7.112109408e-19 0.02234539685 -9.77203903e-20 0.0006122357391)
(-0.01245325007 -0.06066332225 -4.659841467e-19 0.01177698569 1.493443504e-19 0.0006762643797)
(-0.003710755648 -0.05057957467 -1.566606643e-19 0.002998562311 5.216646438e-21 0.0007121933362)
(0.003812498976 -0.04172565734 2.541117318e-20 -0.004526176017 2.131924127e-19 0.0007136770402)
(0.01036056215 -0.03412411395 -1.659381408e-19 -0.0110335903 4.41228217e-19 0.0006730281537)
(0.01613051707 -0.02788799006 -4.625134134e-20 -0.01670927062 2.926817172e-19 0.0005787535513)
(0.0211378357 -0.02309455106 -4.559492037e-19 -0.0215550523 -1.95919791e-19 0.000417216602)
(0.02527533697 -0.01999382898 -5.764943705e-20 -0.02544497903 4.668368352e-19 0.0001696420671)
(-0.1003401334 -0.124219465 2.39866937e-20 0.1002422433 1.144586934e-19 9.789009625e-05)
(-0.06076051294 -0.1109826439 1.173896168e-19 0.06051591754 1.869049301e-19 0.0002445954009)
(-0.03667439298 -0.09577269871 1.027008954e-19 0.03630885407 4.086190083e-20 0.0003655389029)
(-0.02057476474 -0.08102254892 -2.57649569e-20 0.02010988009 -7.782809435e-20 0.0004648846489)
(-0.008970756473 -0.06751852346 -6.415343428e-19 0.008426871485 2.119984923e-19 0.000543884988)
(5.487206225e-06 -0.05541221172 -7.123901345e-19 -0.0006063100466 2.331584635e-19 0.0006008228404)
(0.00730626858 -0.04469561527 -7.770613487e-19 -0.007939028042 4.811523903e-19 0.0006327594626)
(0.01354387604 -0.03532404854 -1.394806095e-19 -0.01417791724 4.386912597e-19 0.0006340412048)
(0.01898919519 -0.02726322556 -2.580940627e-19 -0.01958703249 4.549163045e-19 0.0005978373002)
(0.02388155931 -0.02056838417 -2.56248849e-19 -0.0243955183 7.052580601e-19 0.0005139589888)
(0.02825333613 -0.01530455687 4.879238184e-19 -0.02862369111 5.29038002e-19 0.000370354984)
(0.03203956449 -0.01171492797 -1.716158773e-19 -0.03219004373 2.403506883e-19 0.0001504792375)
(-0.0851091994 -0.1330158153 -5.707251854e-20 0.08502494482 1.494267108e-19 8.42545846e-05)
(-0.04546283312 -0.1111049239 1.289273682e-19 0.04525223173 1.189351226e-19 0.0002106013847)
(-0.02254659835 -0.09165056016 1.448647448e-19 0.02223177391 -2.533357237e-20 0.0003148244344)
(-0.008005187598 -0.07472652694 -1.499505071e-19 0.00760469312 1.842039192e-19 0.0004004944785)
(0.001988166529 -0.06007225222 6.60130442e-20 -0.002456813698 2.44776206e-19 0.0004686471687)
(0.009435113431 -0.04731849456 -5.682215836e-19 -0.009952886809 3.881944706e-19 0.0005177733777)
(0.01534140831 -0.03620435816 -3.119193063e-19 -0.01588671958 4.32580807e-19 0.0005453112716)
(0.02034652741 -0.02652877103 -3.393010693e-19 -0.0208928987 5.966914361e-19 0.0005463712912)
(0.02473031257 -0.01819091508 3.565324737e-19 -0.02524537901 9.477708188e-19 0.000515066432)
(0.02875400351 -0.01117539712 7.284650996e-19 -0.02919664571 3.954373337e-19 0.0004426421989)
(0.03246124697 -0.005530706019 3.103710707e-19 -0.03278003454 -1.874418292e-19 0.0003187875655)
(0.03582133808 -0.001484559059 3.358296575e-19 -0.03595073832 -5.189323021e-20 0.0001294002453)
(-0.06957234711 -0.1399186115 -1.33675167e-19 0.0695028035 1.232319918e-19 6.954361591e-05)
(-0.03235614515 -0.1090335186 -4.586086198e-20 0.03218222803 6.663055976e-20 0.0001739171152)
(-0.01165525848 -0.08536163099 -2.816942342e-19 0.01139517241 1.528897802e-19 0.0002600860682)
(0.0009331015174 -0.06641615448 -1.519702837e-19 -0.001264083795 3.163776432e-19 0.0003309822781)
(0.009222132471 -0.05080605806 -4.640580822e-21 -0.009609543426 3.780713892e-19 0.0003874109551)
(0.01517823421 -0.03760449001 2.589590473e-19 -0.01560632412 3.15526676e-19 0.0004280899076)
(0.01978017811 -0.02628147361 -1.562874936e-19 -0.02023104559 2.187162996e-19 0.0004508674808)
(0.02364567242 -0.01647037393 1.024048649e-19 -0.0240973545 5.925649493e-19 0.0004516820803)
(0.02704298663 -0.008000330153 8.240359016e-19 -0.02746865466 3.713168581e-19 0.0004256680275)
(0.03023161144 -0.0007797742959 8.474532724e-19 -0.03059723333 -4.030382553e-19 0.0003656218932)
(0.03325985478 0.005161530613 -9.56484009e-20 -0.03352296136 -2.335102623e-19 0.000263106579)
(0.03612152981 0.009616581802 2.02867674e-19 -0.0362281797 -7.666853142e-20 0.0001066498821)
(-0.0539549713 -0.1451058989 -9.235922817e-20 0.05390103811 4.989436502e-20 5.393319101e-05)
(-0.02171330305 -0.1057515934 -9.389206854e-20 0.02157832027 5.415635726e-20 0.0001349827723)
(-0.00427482406 -0.07820439985 -1.557881748e-19 0.004072845032 1.735597456e-19 0.000201979028)
(0.00598213105 -0.05748869125 -2.138995562e-20 -0.006239308067 2.35293755e-19 0.0002571770164)
(0.01249611939 -0.04111802449 -1.443037978e-19 -0.01279725989 3.701477533e-19 0.0003011404944)
(0.01702408484 -0.0276280179 3.097304176e-19 -0.0173569165 2.525055472e-19 0.0003328316543)
(0.02043508656 -0.01623028466 7.250285587e-20 -0.02078562428 2.230145905e-19 0.0003505377211)
(0.02327481272 -0.006399708167 3.38122718e-19 -0.02362589356 2.9313155e-19 0.0003510808356)
(0.02577894708 0.002101371264 4.04225182e-19 -0.02610963044 -6.807268611e-20 0.0003306833554)
(0.0281808468 0.009438227696 4.518372404e-20 -0.02846463813 -2.75855068e-19 0.0002837913379)
(0.03052661459 0.0155996886 -1.308547107e-19 -0.03073057297 -2.830525847e-20 0.0002039583791)
(0.03282430137 0.02040097936 -1.609342068e-20 -0.03290679389 -2.65294895e-20 8.249251388e-05)
(-0.03839431201 -0.1487723261 7.151140417e-20 0.0383566965 -2.831261874e-20 3.76155158e-05)
(-0.01345401337 -0.1022395041 -7.553229155e-20 0.01335973867 -9.947175734e-22 9.427469983e-05)
(-0.0002251598305 -0.07146526949 -2.2787214e-19 8.394849912e-05 1.219168372e-19 0.0001412113314)
(0.007367938306 -0.04932471567 -2.730289648e-19 -0.007547912357 2.31160029e-19 0.0001799740506)
(0.01205621012 -0.03238724456 -1.85829183e-19 -0.01226708782 3.538477584e-19 0.0002108776927)
(0.01522673244 -0.0187266727 1.242918817e-19 -0.01545987596 2.240383641e-19 0.0002331435112)
(0.0175627812 -0.007333161837 -2.900673653e-19 -0.01780830313 3.243386825e-19 0.0002455219255)
(0.01949186862 0.00245392957 4.947822251e-19 -0.019737633 2.870287996e-19 0.0002457643854)
(0.02119784291 0.01092920734 3.08495284e-19 -0.02142907832 -1.16825632e-19 0.0002312354121)
(0.02286548179 0.01832136746 -1.14091214e-19 -0.02306359321 -3.061019199e-19 0.0001981114248)
(0.02453236719 0.0246354197 -6.430508112e-19 -0.02467439446 -2.743150711e-20 0.0001420272701)
(0.02621124317 0.02970671997 1.604754777e-19 -0.02626844529 -6.229764873e-24 5.72021237e-05)
(-0.02294438472 -0.1510975371 5.403565142e-20 0.0229235946 -2.406214281e-20 2.079011205e-05)
(-0.00716986636 -0.09935708319 -6.78266527e-20 0.007117574692 -4.608747755e-21 5.229166753e-05)
(0.001095572011 -0.06626811364 -2.036332102e-19 -0.00117409846 1.002726207e-19 7.852644914e-05)
(0.005765259715 -0.04312843804 -1.748877849e-19 -0.00586557536 2.082779039e-19 0.0001003156458)
(0.008594288183 -0.02581539131 -5.091593381e-20 -0.008712008744 2.935805938e-19 0.0001177205603)
(0.01047080179 -0.01206499356 5.122540491e-21 -0.01060103576 2.588009032e-19 0.0001302339758)
(0.01183113603 -0.0007056887144 -1.383368516e-20 -0.01196822461 3.055150711e-19 0.0001370885855)
(0.01294756628 0.009021965143 2.321123559e-19 -0.01308456725 1.636627575e-19 0.0001370009671)
(0.01393667737 0.01745396678 -8.26955681e-20 -0.01406519685 -7.9465649e-20 0.0001285194724)
(0.01491664007 0.02486536538 -1.8996358e-19 -0.01502625272 -1.903542708e-19 0.0001096126508)
(0.01591145867 0.03127299912 -5.262016852e-19 -0.0159895237 -4.015344775e-20 7.806502597e-05)
(0.01693094938 0.03652713929 -3.72600531e-20 -0.01696204035 -2.036843873e-20 3.109097143e-05)
(-0.007591209605 -0.1522185714 4.893177841e-20 0.007587542411 -9.572179766e-21 3.667194041e-06)
(-0.002186981741 -0.09774128361 -5.31584387e-20 0.00217742555 1.043985849e-20 9.556190643e-06)
(0.0006300781223 -0.06344352992 -2.000566958e-19 -0.0006447810155 8.088270099e-20 1.470289319e-05)
(0.002211360563 -0.03978893788 -6.967942937e-20 -0.002230549491 1.67434311e-19 1.918892777e-05)
(0.003162319594 -0.02228908351 -8.405472237e-20 -0.003185140652 2.481525041e-19 2.282105748e-05)
(0.003788584563 -0.008501707271 -8.703918603e-21 -0.003813957247 2.543850585e-19 2.537268389e-05)
(0.004239987576 0.002829974109 9.711649261e-21 -0.004266560004 2.671054228e-19 2.657242783e-05)
(0.004609609884 0.01251737142 -7.154943759e-20 -0.004635735782 1.616492219e-19 2.612589816e-05)
(0.00493684409 0.02091813417 -1.81116479e-19 -0.004960636469 -1.47698416e-20 2.37923783e-05)
(0.005261619294 0.02833163147 -3.134165362e-19 -0.005280991023 -1.161239765e-19 1.937172893e-05)
(0.005591152929 0.03478075326 -3.645752237e-19 -0.005603993132 -3.96410086e-20 1.28402024e-05)
(0.005927538111 0.04012324107 -1.099083627e-19 -0.005932004897 -3.201967797e-20 4.466786035e-06)
(0.007723632085 -0.1522094838 4.619038517e-20 -0.007710092319 5.603247299e-21 -1.353976606e-05)
(0.002341030353 -0.09773075657 -3.199462687e-20 -0.002307632277 2.808782719e-20 -3.339807619e-05)
(-0.0004575707756 -0.06343251413 -1.797628239e-19 0.0005070335141 6.040909233e-20 -4.946273843e-05)
(-0.00202113049 -0.03977795445 1.239653891e-20 0.002083525062 1.302057414e-19 -6.239457213e-05)
(-0.002954022182 -0.02227851253 -4.36502865e-20 0.003026661569 2.111584269e-19 -7.26393867e-05)
(-0.00356203888 -0.008491971502 -1.422865829e-20 0.003642175931 2.297664107e-19 -8.013705052e-05)
(-0.003995514214 0.002838330265 -2.626557138e-20 0.00408016958 2.620702912e-19 -8.465536618e-05)
(-0.004348794991 0.0125235973 -1.521996224e-19 0.004434282264 1.849271193e-19 -8.548727246e-05)
(-0.004663051958 0.02092119552 -3.324791121e-19 0.004744701499 2.048150725e-20 -8.164954117e-05)
(-0.00498054023 0.02833016537 -3.972358677e-19 0.00505203307 -6.716414958e-20 -7.149283946e-05)
(-0.005311839747 0.03477295504 -2.535943366e-19 0.005364674044 -9.542597804e-21 -5.283429744e-05)
(-0.005663946563 0.04010622216 -1.651992034e-19 0.005686281967 -5.402318463e-20 -2.233540394e-05)
(0.0230740298 -0.1510705349 5.625795791e-20 -0.02304341707 1.540579078e-20 -3.061273826e-05)
(0.007320389955 -0.09932587608 -1.317179453e-22 -0.007244362056 3.558512193e-20 -7.602789852e-05)
(-0.0009265655883 -0.06623541842 -1.199456291e-19 0.001039724896 4.919063901e-20 -0.0001131593075)
(-0.005578036395 -0.04309573306 4.653210152e-20 0.005721440152 9.411483646e-20 -0.0001434037566)
(-0.008388131575 -0.02578374785 6.019238307e-20 0.008555585767 1.823462228e-19 -0.0001674541917)
(-0.01024513729 -0.01203560643 1.404407535e-20 0.01043009867 1.931380968e-19 -0.00018496138)
(-0.01158580561 -0.0006801027204 9.915619739e-20 0.01178099376 2.699217058e-19 -0.0001951881499)
(-0.01268354182 0.009041611726 -3.775239282e-19 0.01287996827 2.005292371e-19 -0.0001964264499)
(-0.01365651291 0.01746471851 -4.086631786e-19 0.01384298512 2.775027833e-20 -0.0001864722177)
(-0.01462499035 0.02486332243 -3.034987037e-19 0.01478682305 -1.964998281e-20 -0.0001618326974)
(-0.01561603291 0.03125298732 -1.961032382e-19 0.01573416363 5.659344877e-20 -0.0001181307228)
(-0.01664351873 0.03648088467 -3.421651483e-19 0.01669249774 -8.777588245e-20 -4.897901403e-05)
(0.03851850639 -0.1487281669 6.421336759e-20 -0.03847117116 1.127037617e-20 -4.733522466e-05)
(0.01359766893 -0.1021887068 4.156318562e-20 -0.01347987716 1.445812779e-20 -0.0001177917637)
(0.0003873301187 -0.07141192081 4.487075318e-20 -0.0002117529804 6.106460648e-20 -0.0001755771383)
(-0.007186638186 -0.04927100663 -4.537989577e-20 0.007409446453 5.80962587e-20 -0.0002228082672)
(-0.0118543684 -0.03233473959 1.495498314e-19 0.01211478519 1.510229996e-19 -0.000260416797)
(-0.01500303723 -0.01867712958 -8.522874784e-20 0.01529080292 1.533905439e-19 -0.0002877656902)
(-0.01731617796 -0.007288870055 -5.529999746e-20 0.01761979586 2.447597009e-19 -0.0003036178987)
(-0.01922217613 0.00248976859 -4.612507606e-19 0.01952745394 1.771224062e-19 -0.0003052778101)
(-0.02090609399 0.01095214445 -2.08536497e-19 0.0211954328 7.839429491e-20 -0.0002893388039)
(-0.02255438443 0.01832550733 -4.369803946e-19 0.02280487918 9.613038718e-20 -0.000250494746)
(-0.02420710537 0.02461291787 -2.897224196e-19 0.0243893206 8.965119956e-20 -0.0001822152316)
(-0.02587948403 0.0296450473 -3.215253972e-19 0.02595460835 -1.140221609e-19 -7.5124322e-05)
(0.05407125575 -0.1450458187 -5.209150862e-20 -0.05400776326 -5.848485202e-20 -6.34924924e-05)
(0.02184710449 -0.1056829439 1.068282808e-19 -0.02168895097 -5.513246364e-20 -0.0001581535133)
(0.004427147064 -0.07813203379 1.749957247e-19 -0.004191233023 3.285795581e-20 -0.000235914041)
(-0.005809490449 -0.05741513804 1.026504892e-19 0.006109076458 4.656993259e-20 -0.0002995860091)
(-0.01230082185 -0.04104503926 1.763226568e-19 0.01265115004 7.205057627e-20 -0.0003503281881)
(-0.01680383295 -0.02755760013 3.194832465e-20 0.01719105392 -4.594635881e-20 -0.000387220974)
(-0.02018762592 -0.01616507805 5.110987068e-19 0.02059616526 1.540834359e-19 -0.0004085393397)
(-0.02299841461 -0.006343477748 -9.83973406e-20 0.02340904132 3.444954171e-19 -0.00041062671)
(-0.02547259884 0.002143336642 -2.193935745e-19 0.02586150776 1.577735463e-19 -0.0003889089206)
(-0.02784463502 0.00945887148 -1.299800395e-19 0.02818095524 1.871852319e-19 -0.0003363202257)
(-0.03016231759 0.0155895685 -8.820051815e-20 0.03040656424 2.7030026e-19 -0.0002442466536)
(-0.03243404911 0.02034505282 -3.805844827e-19 0.0325344747 -7.35392076e-20 -0.0001004255923)
(0.06967856884 -0.1398442605 -1.076906817e-19 -0.06959969242 -1.180303406e-19 -7.887641817e-05)
(0.03247760284 -0.1089492791 9.191733835e-20 -0.03228101063 -1.496455823e-19 -0.000196592212)
(0.01179517079 -0.08527237753 2.339624219e-19 -0.01150178103 -5.457603218e-21 -0.0002933897639)
(-0.0007716074461 -0.06632429657 1.038774417e-19 0.001144349348 5.252642924e-20 -0.0003727419015)
(-0.009035679294 -0.05071317194 -1.160566825e-20 0.009471699388 8.592280625e-21 -0.0004360200941)
(-0.01496341775 -0.03751242422 -3.280949309e-20 0.01544544919 -2.267504991e-19 -0.00048203144)
(-0.01953339494 -0.02619274607 4.796767948e-19 0.02004197639 -1.255506289e-19 -0.0005085814544)
(-0.02336344387 -0.01638870023 2.267878385e-19 0.02387453658 2.640121692e-19 -0.0005110927125)
(-0.0267219828 -0.007931032449 -1.077707346e-19 0.0272058569 -1.947722312e-20 -0.0004838740978)
(-0.02986893961 -0.0007300449476 4.334522595e-19 0.03028711892 -1.54322384e-19 -0.0004181793039)
(-0.03285341561 0.005181970485 3.648757711e-19 0.03315682414 4.097936573e-19 -0.0003034085275)
(-0.03566714949 0.009592312056 -1.051622046e-19 0.03579170066 1.006534487e-19 -0.0001245511711)
(0.08520361129 -0.1329291835 3.030726569e-20 -0.0851103243 -8.422658745e-20 -9.32869824e-05)
(0.04557007167 -0.1110077268 1.06825736e-19 -0.04533746421 -2.276083416e-19 -0.0002326074632)
(0.0226720876 -0.09154690197 3.932836119e-19 -0.02232483334 -6.308472664e-20 -0.0003472542597)
(0.008153365706 -0.07461821058 1.625004409e-19 -0.007712047377 5.239934618e-20 -0.0004413183297)
(-0.001812912789 -0.05996028544 5.377326492e-20 0.002329279515 -5.030452081e-20 -0.0005163667263)
(-0.009228297917 -0.04720415753 -6.564630621e-20 0.009799244438 -2.781608114e-19 -0.0005709465207)
(-0.01509810414 -0.03608953444 2.985135696e-19 0.01570052329 -4.924144914e-19 -0.0006024191467)
(-0.02006152541 -0.02641647123 3.728524419e-19 0.02066686475 3.509048383e-20 -0.0006053393404)
(-0.0243979808 -0.01808563431 -4.057890384e-20 0.02497094654 3.450787304e-19 -0.0005729657328)
(-0.02836847766 -0.01108336294 -2.299700346e-19 0.02886345088 -1.881310942e-19 -0.0004949732229)
(-0.03201654773 -0.00546050189 5.156118168e-19 0.03237544972 -1.821350595e-19 -0.0003589019861)
(-0.03530698833 -0.001449681881 -3.298065549e-19 0.03545416098 8.421459531e-20 -0.0001471726544)
(0.1004214589 -0.1241227742 -2.334276851e-21 -0.100314923 -1.559603554e-19 -0.0001065358365)
(0.06085232388 -0.1108753086 1.006376343e-19 -0.06058659635 -2.65806919e-19 -0.0002657275276)
(0.03678403808 -0.09565730416 2.1161905e-19 -0.03638723824 -2.816919442e-19 -0.0003967998344)
(0.02070780269 -0.0808998369 2.086334297e-19 -0.02020339174 1.947148161e-20 -0.0005044109457)
(0.009132416796 -0.06738857062 -2.808893525e-19 -0.008542112928 2.811955708e-23 -0.0005903038681)
(0.0001901940608 -0.05527533993 -1.162382959e-19 0.0004625888336 -1.254847205e-19 -0.0006527828944)
(-0.007070518002 -0.04455259546 -3.577662956e-19 0.007759315102 -5.468008615e-19 -0.0006887971)
(-0.0132613563 -0.03517656774 2.860725804e-19 0.01395345556 -5.338713753e-19 -0.0006920992523)
(-0.01865227777 -0.02711413686 5.660822646e-19 0.0193072572 -1.718844547e-19 -0.000654979438)
(-0.02348178154 -0.02042190739 6.016338084e-19 0.02404744093 2.961986487e-19 -0.0005656593971)
(-0.02778130257 -0.01516679638 -3.075324366e-19 0.02819127381 2.948041238e-19 -0.0004099712406)
(-0.03147924558 -0.01159528253 2.553137309e-19 0.03164722694 1.063679008e-19 -0.0001679813674)
(0.1150252905 -0.1132956723 -4.833613711e-20 -0.1149068417 -2.328836842e-19 -0.0001184488112)
(0.07771458422 -0.1076858299 8.577512907e-20 -0.07741906836 -2.673544614e-19 -0.0002955158604)
(0.0534214632 -0.09644619815 -2.900495958e-20 -0.0529800921 -3.904257409e-19 -0.0004413711004)
(0.03616967013 -0.08391800466 9.051724127e-20 -0.03560848861 -3.558815324e-19 -0.0005611815217)
(0.02310332636 -0.07174264134 3.393560886e-19 -0.02244648205 1.271007142e-19 -0.0006568443108)
(0.0126342036 -0.06050420942 1.077846745e-19 -0.01190776157 1.776582476e-19 -0.0007264420234)
(0.003933784133 -0.05040716378 7.421490304e-20 -0.003167234694 1.006854132e-20 -0.0007665494382)
(-0.003539642469 -0.04153980287 4.106610234e-19 0.004309837532 -3.949665205e-19 -0.0007701950626)
(-0.01002881327 -0.03392535568 6.165247998e-19 0.01075760979 -1.467573566e-20 -0.000728796519)
(-0.01572951757 -0.02767767601 6.02474224e-19 0.01635878641 1.070440647e-19 -0.0006292688399)
(-0.02065566129 -0.02287519348 9.146063642e-19 0.02111157428 -7.54984255e-20 -0.0004559129883)
(-0.02469186644 -0.01976892191 2.034211429e-19 0.02487855639 4.275120968e-19 -0.0001866899543)
(0.1286431796 -0.1003955346 -1.608041978e-20 -0.1285143115 -1.744949938e-19 -0.0001288681156)
(0.09526401987 -0.1007981596 4.74026765e-21 -0.09494244278 -3.011324312e-19 -0.0003215770902)
(0.07150773944 -0.09303575179 -1.353267999e-19 -0.07102736533 -4.503338175e-19 -0.0004803741162)
(0.05342491963 -0.08271468029 1.421687473e-20 -0.05281404984 -5.790316353e-19 -0.0006108697879)
(0.03901244617 -0.07205570721 6.2081979e-19 -0.03829735452 -4.088279022e-19 -0.0007150916509)
(0.02706816499 -0.06194575423 4.527681717e-19 -0.02627723983 1.427851773e-19 -0.0007909251553)
(0.01693790587 -0.05274118564 4.949840949e-19 -0.01610329145 7.741523498e-21 -0.0008346144183)
(0.00818128536 -0.04462652428 4.669042793e-19 -0.00734273277 -2.367552342e-19 -0.0008385525896)
(0.000596002675 -0.03766662046 1.317461867e-18 0.0001973913737 -4.137464184e-19 -0.0007933940487)
(-0.005956384408 -0.03201384471 9.826561219e-19 0.00664129832 1.222519869e-19 -0.0006849139115)
(-0.01146854692 -0.02775199399 -4.928447111e-19 0.01196462841 -3.910416342e-19 -0.0004960814941)
(-0.01577699212 -0.02512486846 2.195814945e-19 0.01598002503 -3.254424862e-20 -0.000203032918)
(0.1408639279 -0.08546883687 1.84722561e-20 -0.1407262723 7.603054233e-21 -0.000137655558)
(0.1124123831 -0.08988073836 -1.570958101e-19 -0.1120688189 -1.72455742e-19 -0.0003435641492)
(0.08971007721 -0.08493611044 -3.079389813e-19 -0.08919679012 -3.998164703e-19 -0.0005132870888)
(0.07108471653 -0.0767402551 1.0291009e-19 -0.07043190914 -4.38422077e-19 -0.0006528073846)
(0.05549802332 -0.0677640529 2.149746306e-19 -0.0547337657 -9.049915598e-19 -0.0007642576176)
(0.04219049354 -0.05904223711 6.987736317e-19 -0.04134513961 -3.700242503e-19 -0.0008453539285)
(0.03071003578 -0.05101082655 5.028893656e-21 -0.02981797705 -4.484321366e-19 -0.0008920587263)
(0.02073487331 -0.04390735398 6.918984322e-19 -0.0198386449 -3.816559989e-19 -0.0008962284094)
(0.0121105113 -0.03782048877 4.375788734e-19 -0.01126263624 -7.263636422e-19 -0.0008478750568)
(0.004763379304 -0.03291886383 -6.574909614e-19 -0.004031561435 -8.13388021e-19 -0.0007318178692)
(-0.001276422303 -0.02928455041 -6.837996532e-19 0.001806336312 -3.756562292e-19 -0.0005299140089)
(-0.005796710579 -0.02714108291 1.021421411e-20 0.006013492214 -4.065239419e-19 -0.0002167816345)
(0.151269139 -0.06867328305 2.048654875e-20 -0.1511244456 1.492003395e-19 -0.0001446933042)
(0.1279870508 -0.07496267205 -1.57111432e-19 -0.127625869 -4.395668923e-20 -0.0003611817716)
(0.1065803244 -0.07211134124 -1.026670414e-19 -0.1060406584 -1.613810741e-19 -0.000539665964)
(0.08763440802 -0.06592382001 -5.866784192e-20 -0.08694798288 -4.019344095e-19 -0.0006864251454)
(0.07107140921 -0.05877693321 -8.758750577e-21 -0.07026773909 -6.273327359e-19 -0.0008036701205)
(0.05657564201 -0.05169073424 1.546359889e-19 -0.05568666354 -8.291138491e-19 -0.0008889784709)
(0.04389881181 -0.04510501082 1.912982172e-20 -0.04296072769 -7.770730886e-19 -0.0009380841227)
(0.03283936973 -0.03926483747 3.644960382e-19 -0.03189695567 -3.990779502e-19 -0.0009424140638)
(0.02329152241 -0.03426397142 -5.778123689e-19 -0.02240005342 -4.971383732e-19 -0.0008914689863)
(0.01524623759 -0.03026407635 -9.453906646e-19 -0.01447692607 -5.227888211e-19 -0.0007693115151)
(0.008755561943 -0.02733824004 -2.369103195e-19 -0.008198638777 -5.598682098e-19 -0.0005569231658)
(0.004076899113 -0.02567663362 1.155123157e-19 -0.003849163852 1.943959974e-21 -0.0002277352605)
(0.1594682002 -0.05027917077 -5.616049423e-20 -0.1593183128 8.585137246e-20 -0.0001498874768)
(0.1408531746 -0.05644549383 -2.842743459e-19 -0.1404789811 -3.263546834e-20 -0.0003741935179)
(0.1207100123 -0.05499532415 -3.164871092e-19 -0.1201508575 -1.728794042e-19 -0.0005591547821)
(0.1015976356 -0.05069042221 -2.622140664e-19 -0.100886369 -3.11332434e-19 -0.0007112665241)
(0.08427957748 -0.0454939163 -1.335527748e-20 -0.08344678731 -3.073351454e-19 -0.0008327901701)
(0.06883066542 -0.04026003805 -1.969287332e-19 -0.06790946779 -5.520096702e-19 -0.0009211976305)