/*--------------------------------*- C++ -*----------------------------------*\
| =========                 |                                                 |
| \\      /  F ield         | foam-extend: Open Source CFD                    |
|  \\    /   O peration     | Version:  3.0                                   |
|   \\  /    A nd           | Web:         http://www.extend-project.de       |
|    \\/     M anipulation  |                                                 |
\*---------------------------------------------------------------------------*/
FoamFile
{
    version     2.0;
    format      ascii;
    class       volScalarField;
    location    "38";
    object      p;
}
// * * * * * * * * * * * * * * * * * * * * * * * * * * * * * * * * * * * * * //

dimensions      [0 0 0 0 0 0 0];

internalField   nonuniform List<scalar> 
2688
(
-0.2356871021
-0.2163240498
-0.2046966108
-0.191581713
-0.1841770222
-0.1750211852
-0.1703071648
-0.1638213424
-0.1608976852
-0.1562793256
-0.1545626132
-0.1512662925
-0.1503411749
-0.1479624
-0.1475025555
-0.1457122333
-0.1454334946
-0.1439367588
-0.1435657524
-0.1420727464
-0.1413228493
-0.1395250194
-0.1380750653
-0.1356229081
-0.2349467884
-0.2156445188
-0.2040535563
-0.1909798291
-0.1835983589
-0.1744712576
-0.169772017
-0.1633065427
-0.1603920433
-0.1557881707
-0.1540768296
-0.1507908463
-0.1498686164
-0.1474972977
-0.1470388801
-0.1452541644
-0.1449762833
-0.1434842318
-0.1431143767
-0.14162605
-0.1408785025
-0.139086311
-0.1376409065
-0.1351964512
-0.2334647901
-0.2142843084
-0.20276651
-0.1897752772
-0.1824404065
-0.1733709014
-0.168701333
-0.162276663
-0.1593805738
-0.1548057609
-0.1531052391
-0.1498400012
-0.148923612
-0.1465672674
-0.1461117626
-0.1443383181
-0.1440622074
-0.1425795786
-0.1422120725
-0.1407331437
-0.1399903238
-0.1382094387
-0.1367731585
-0.1343441218
-0.2312506663
-0.2122520566
-0.2008434525
-0.1879753981
-0.1807100567
-0.1717265396
-0.1671012287
-0.160737465
-0.1578688155
-0.153337368
-0.1516529509
-0.1484186612
-0.1475109429
-0.1451769285
-0.1447257261
-0.1429690849
-0.1426955774
-0.1412269947
-0.1408629606
-0.1393980449
-0.1386622609
-0.1368982578
-0.1354755979
-0.1330695973
-0.2283065079
-0.2095498144
-0.1982865018
-0.1855823044
-0.1784094977
-0.1695403785
-0.1649739853
-0.158691263
-0.1558591614
-0.151385425
-0.149722477
-0.1465293823
-0.1456332438
-0.1433289615
-0.1428835254
-0.1411492638
-0.1408792577
-0.1394293846
-0.1390700003
-0.1376237432
-0.1368973365
-0.1351557959
-0.1337512554
-0.1313758855
-0.2246464341
-0.2061904068
-0.1951076292
-0.1826070705
-0.175549224
-0.1668222646
-0.1623290503
-0.1561470256
-0.1533603012
-0.1489582639
-0.1473219525
-0.1441800286
-0.1432982364
-0.1410308777
-0.1405925654
-0.1388860912
-0.1386203995
-0.1371937565
-0.1368401217
-0.1354170384
-0.1347022676
-0.1329886394
-0.1316066124
-0.1292693227
-0.2202771301
-0.2021801016
-0.1913129194
-0.1790555213
-0.172134982
-0.1635777843
-0.1591719918
-0.1531102269
-0.150377729
-0.1460613292
-0.1444568673
-0.1413760706
-0.1405114517
-0.1382882088
-0.137858443
-0.1361851742
-0.1359246693
-0.134525787
-0.1341790459
-0.1327836501
-0.1320827914
-0.1304024969
-0.1290473557
-0.1267555244
-0.2152171538
-0.1975358005
-0.186918219
-0.174942358
-0.1681807621
-0.1598201072
-0.1555154943
-0.149592951
-0.1469231965
-0.1427059277
-0.1411382993
-0.1381282524
-0.1372834747
-0.1351112843
-0.1346913734
-0.1330565255
-0.1328019907
-0.131435229
-0.1310964421
-0.1297330896
-0.1290483222
-0.1274066186
-0.1260826027
-0.1238434164
-0.2094776324
-0.1922678494
-0.1819334592
-0.1702770057
-0.1636957641
-0.1555581007
-0.1513683146
-0.1456037383
-0.1430052074
-0.1389004263
-0.1373746278
-0.1344448722
-0.1336226459
-0.1315084008
-0.131099709
-0.1295084743
-0.1292607456
-0.1279304457
-0.1276007092
-0.1262737248
-0.12560723
-0.1240093124
-0.1227206118
-0.1205411401
-0.2030814006
-0.1863970744
-0.1763782095
-0.1650776498
-0.1586973348
-0.1508081245
-0.1467462457
-0.1411576635
-0.1386384528
-0.1346589872
-0.1331797559
-0.1303394389
-0.1295422991
-0.1274925931
-0.1270963634
-0.1255536998
-0.1253135214
-0.1240238277
-0.1237041497
-0.122417674
-0.1217715235
-0.1202223899
-0.1189730352
-0.1168601108
-0.1960438258
-0.1799377108
-0.1702660738
-0.1593571526
-0.1531979721
-0.1455821798
-0.1416610896
-0.1362661957
-0.1338343104
-0.1299927688
-0.1285648223
-0.1258229516
-0.1250534583
-0.1230747988
-0.1226923202
-0.1212031294
-0.120971291
-0.1197263013
-0.1194177155
-0.1181758305
-0.1175520821
-0.1160566367
-0.1148505831
-0.1128108793
-0.1883917906
-0.1729143046
-0.1636201482
-0.1531370008
-0.1472182021
-0.1398996478
-0.1361315831
-0.1309472417
-0.1286102552
-0.124918637
-0.123546405
-0.1209115367
-0.1201720594
-0.1182706139
-0.1179030478
-0.1164719676
-0.1162491649
-0.115052757
-0.1147562074
-0.1135627874
-0.1129633815
-0.1115263006
-0.1103673214
-0.1084072309
-0.1801446447
-0.1653447434
-0.1564574871
-0.1464332851
-0.1407736213
-0.1337754738
-0.1301723897
-0.125215023
-0.1229803661
-0.1194503745
-0.1181382376
-0.1156187332
-0.1149116502
-0.1130934596
-0.1127420043
-0.1113735848
-0.1111605516
-0.1100165278
-0.1097329725
-0.1085918037
-0.1080186455
-0.1066444782
-0.1055362382
-0.1036619531
-0.1713330534
-0.157257045
-0.1488044751
-0.1392705712
-0.13388772
-0.1272318564
-0.1238049908
-0.1190900862
-0.1169647125
-0.1136073661
-0.1123593901
-0.1099631057
-0.1092905904
-0.1075613171
-0.1072270369
-0.1059255362
-0.1057229101
-0.1046348322
-0.1043651385
-0.1032797815
-0.1027346568
-0.1014277018
-0.1003736726
-0.09859106579
-0.1619800355
-0.148672464
-0.1406813503
-0.131667928
-0.1265789544
-0.120286458
-0.117046691
-0.1125891937
-0.1105798678
-0.1074058183
-0.1062259925
-0.1039605393
-0.1033247592
-0.1016899027
-0.1013738911
-0.1001434515
-0.09995190278
-0.09892323139
-0.09866827216
-0.09764217001
-0.09712680978
-0.0958912014
-0.09489471199
-0.09320941597
-0.1521197124
-0.1396221943
-0.132117506
-0.1236527389
-0.1188735267
-0.1129640545
-0.109921482
-0.1057353065
-0.1038482733
-0.1008674192
-0.09975939344
-0.09763182761
-0.09703473198
-0.09549937744
-0.095202587
-0.09404703233
-0.09386713051
-0.09290106457
-0.09266161689
-0.09169796984
-0.09121397854
-0.09005358278
-0.08911775418
-0.08753504807
-0.1417784233
-0.1301305345
-0.1231360569
-0.115246764
-0.1107924775
-0.1052847642
-0.1024490564
-0.09854748462
-0.09678875822
-0.09401056701
-0.09297788977
-0.09099497755
-0.09043849609
-0.08900753338
-0.08873093965
-0.08765395379
-0.08748629848
-0.08658591575
-0.08636275895
-0.08546462757
-0.08501354642
-0.08393203603
-0.08305982903
-0.08158471585
-0.1309933878
-0.1202315214
-0.113769089
-0.1064799069
-0.1023644341
-0.09727566771
-0.09465564979
-0.09105084683
-0.08942588437
-0.08685900855
-0.0859048671
-0.08407277531
-0.08355860822
-0.08223648049
-0.08198091224
-0.0809858353
-0.08083092022
-0.07999901456
-0.07979282389
-0.07896300381
-0.07854623084
-0.07754698448
-0.0767411228
-0.0753782203
-0.1197938597
-0.1099521317
-0.1040422498
-0.09737629893
-0.09361271492
-0.08895904778
-0.08656306
-0.08326647857
-0.08178046908
-0.07943307384
-0.07856053187
-0.07688509724
-0.07641491263
-0.0752058391
-0.07497214168
-0.07406215344
-0.07392049987
-0.07315972882
-0.07297118069
-0.07221231501
-0.07183118548
-0.0709173742
-0.07018041813
-0.06893403857
-0.1082197527
-0.0993288743
-0.09398996575
-0.08796803365
-0.08456805387
-0.08036398692
-0.07819947141
-0.0752213731
-0.07387891598
-0.07175829832
-0.07097003984
-0.06945646169
-0.06903168889
-0.06793941449
-0.06772828222
-0.0669061968
-0.06677821666
-0.06609093318
-0.06592059266
-0.06523503479
-0.06489072183
-0.06406519081
-0.06339943174
-0.06227347225
-0.09630281019
-0.08839101009
-0.08364004472
-0.07828126459
-0.07525571248
-0.07151461451
-0.06958847787
-0.06693834363
-0.06574373863
-0.0638566595
-0.0631552257
-0.06180833839
-0.06143036355
-0.06045838409
-0.06027052189
-0.05953897488
-0.05942510436
-0.05881351206
-0.05866194364
-0.05805188664
-0.0577455015
-0.05701088086
-0.05641844326
-0.05541647153
-0.08408520076
-0.07717711628
-0.07302887045
-0.06834991683
-0.06570818615
-0.0624416867
-0.06075989319
-0.05844595054
-0.05740288064
-0.05575518883
-0.05514272586
-0.05396669518
-0.05363665817
-0.0527879728
-0.05262393135
-0.05198517547
-0.05188573953
-0.05135172113
-0.05121937293
-0.05068669896
-0.05041917717
-0.04977774427
-0.04926046248
-0.04838560597
-0.07160069031
-0.06571831393
-0.0621860116
-0.05820179238
-0.05595232059
-0.05317083867
-0.05173877571
-0.0497684159
-0.0488802385
-0.04747720678
-0.04695570224
-0.04595430017
-0.04567328855
-0.04495062629
-0.04481096191
-0.0442670556
-0.0441824003
-0.04372767754
-0.04361499501
-0.04316141801
-0.04293363029
-0.04238743807
-0.04194696923
-0.04120200582
-0.05889323511
-0.054054818
-0.05114940093
-0.04787226582
-0.04602200498
-0.04373415068
-0.04255622828
-0.0409355401
-0.04020497435
-0.03905092863
-0.03862196299
-0.03779826856
-0.03756711747
-0.03697269336
-0.03685780538
-0.03641041129
-0.03634076974
-0.03596673169
-0.03587404014
-0.0355009492
-0.03531358376
-0.0348643165
-0.03450201837
-0.03388926684
-0.04599814458
-0.04221916606
-0.03994994766
-0.0373903937
-0.03594529093
-0.03415840412
-0.03323842419
-0.03197261748
-0.03140203725
-0.03050069699
-0.03016568017
-0.02952235658
-0.02934184225
-0.02887758505
-0.02878787508
-0.02843844929
-0.02838407405
-0.02809193897
-0.02801955964
-0.02772816622
-0.02758184081
-0.02723094527
-0.0269479847
-0.02646939787
-0.03296066171
-0.0302527562
-0.02862670449
-0.02679259896
-0.02575707565
-0.02447663717
-0.02381739864
-0.02291034553
-0.02250147095
-0.0218555837
-0.02161550963
-0.02115450946
-0.02102515087
-0.02069246278
-0.0206281728
-0.02037776625
-0.02033879464
-0.02012944029
-0.0200775711
-0.01986875508
-0.01976390261
-0.01951245095
-0.0193096926
-0.01896675163
-0.01981713717
-0.01818908128
-0.01721148421
-0.016108784
-0.01548622364
-0.01471640348
-0.01432007613
-0.01377474105
-0.01352893361
-0.01314061983
-0.01299630394
-0.01271914912
-0.0126414023
-0.01244138851
-0.01240276131
-0.01225221022
-0.0122287991
-0.01210292537
-0.01207175975
-0.0119462142
-0.01188319169
-0.01173200541
-0.01161011187
-0.01140392004
-0.006613596326
-0.006070255313
-0.00574401703
-0.005376005479
-0.005168241584
-0.004911320673
-0.004779056028
-0.004597044309
-0.004515002473
-0.004385395714
-0.004337232027
-0.004244723081
-0.00421878359
-0.004152014881
-0.004139131231
-0.004088860824
-0.004081049149
-0.004039010972
-0.004028616506
-0.003986701178
-0.003965680103
-0.003915205649
-0.003874536265
-0.003805718204
0.006613088157
0.006069747628
0.005743429093
0.005375407947
0.005167596493
0.004910668659
0.00477835913
0.004596364369
0.004514307667
0.004384711442
0.004336511392
0.004244011905
0.004218013346
0.004151268318
0.004138326887
0.004088109905
0.004080262438
0.004038291803
0.004027851613
0.003985970382
0.003964897194
0.003914472825
0.003873766255
0.003804970159
0.01981663102
0.01818857553
0.01721089836
0.01610818851
0.01548558061
0.01471575348
0.01431938127
0.01377406305
0.01352824069
0.0131399374
0.01299558523
0.01271843986
0.01264063425
0.01244064411
0.01240195954
0.01225146176
0.01222801528
0.01210220865
0.0120709976
0.01194548533
0.01188241087
0.01173127388
0.01160934338
0.0114031734
0.03296015685
0.0302522519
0.02862612084
0.0267920059
0.02575643563
0.02447599039
0.02381670756
0.02290967134
0.02250078219
0.02185490545
0.02161479545
0.02115380467
0.02102438757
0.0206917229
0.02062737555
0.02037702184
0.02033801446
0.02012872709
0.02007681237
0.01986803084
0.01976312694
0.01951172593
0.01930893118
0.01896601231
0.04599764582
0.04221866762
0.0399493703
0.0373898068
0.03594465714
0.03415776344
0.03323773925
0.03197194913
0.03140135418
0.03050002427
0.03016497177
0.02952165753
0.02934108545
0.02887685157
0.02878708537
0.02843771198
0.02838330217
0.02809123271
0.02801880859
0.0277274472
0.02758107052
0.02723022299
0.02694722617
0.02646866104
0.05889273878
0.05405432234
0.05114882788
0.04787168369
0.04602137711
0.04373351633
0.0425555508
0.04093487929
0.0402042995
0.03905026422
0.03862126362
0.03779757849
0.03756637027
0.03697196913
0.03685702502
0.03640968265
0.03634000588
0.03596603344
0.03587329705
0.0355002406
0.0353128253
0.03486360906
0.03450127653
0.03388854727
0.07160020427
0.06571782816
0.06218544914
0.05820122064
0.05595170323
0.05317021462
0.0517381086
0.04976776497
0.04887957324
0.04747655167
0.04695501252
0.04595361962
0.04567255202
0.04494991246
0.04481019362
0.04426633815
0.04418164931
0.04372698999
0.04361426371
0.04316071748
0.04293287966
0.04238673402
0.04194623
0.04120128811
0.08408471801
0.07717663438
0.07302831419
0.06834935201
0.06570757746
0.06244107191
0.06075923703
0.05844531068
0.0574022275
0.05575454601
0.05514204959
0.05396602812
0.05363593621
0.05278727319
0.05262317767
0.05198447191
0.05188500184
0.0513510469
0.05121865495
0.05068601465
0.0504184448
0.0497770623
0.04925974853
0.0483849143
0.09630234212
0.08839054229
0.08363950355
0.07828071456
0.07525511874
0.07151401441
0.06958783647
0.06693771784
0.0657430991
0.06385602988
0.06315456296
0.06180768461
0.06142965622
0.06045769868
0.06026978435
0.05953828618
0.05942438343
0.05881285211
0.05866124156
0.05805121456
0.05774478124
0.05701020604
0.05641773486
0.05541578445
0.1082192883
0.09932841112
0.09398943235
0.08796749241
0.0845674713
0.08036339875
0.0781988442
0.07522076162
0.07387829222
0.07175768469
0.07096939478
0.06945582574
0.06903100105
0.06793874823
0.06772756472
0.06690552724
0.06677751455
0.0660902915
0.06591990864
0.0652343824
0.06489002261
0.06406453938
0.06339874972
0.06227281202
0.1197934147
0.1099516871
0.1040417362
0.09737577715
0.093612152
0.08895847896
0.0865624522
0.08326588564
0.08177986319
0.07943247752
0.07855990435
0.07688447845
0.07641424337
0.07520519081
0.07497144423
0.07406150245
0.07391981836
0.07315910561
0.07297051763
0.07221168165
0.07183050674
0.07091673997
0.07017975254
0.06893339383
0.1309929462
0.1202310816
0.1137685843
0.1064793954
0.1023638845
0.09727511317
0.09465505915
0.09105027109
0.08942529752
0.08685843143
0.08590426103
0.08407217805
0.08355796284
0.08223585556
0.08198023961
0.08098520763
0.08083026193
0.0799984126
0.07979218129
0.07896238968
0.07854557029
0.07754636698
0.07674047399
0.07537759207
0.1417780061
0.1301301182
0.1231355771
0.1152462769
0.1107919526
0.105284234
0.1024484901
0.09854693227
0.09678819387
0.09401001173
0.0929773056
0.09099440173
0.09043787357
0.0890069306
0.08873029137
0.08765334906
0.08748566548
0.0865853377
0.08636214402
0.08546404173
0.08501291871
0.08393145137
0.08305921564
0.08158412231
0.1521192975
0.1396217822
0.1321170356
0.123652263
0.1188730169
0.1129635405
0.1099209355
0.1057347738
0.1038477307
0.1008668856
0.09975883369
0.097631276
0.0970341366
0.09549880077
0.09520196674
0.09404645303
0.09386652273
0.09290050786
0.0926610215
0.0916973994
0.09121336213
0.09005300415
0.08911714238
0.08753445513
0.1619796507
0.1486720809
0.1406809103
0.131667482
0.1265784747
0.1202859736
0.1170461741
0.1125886896
0.1105793527
0.1074053116
0.1062254595
0.103960014
0.1033241916
0.1016893532
0.1013733003
0.1001429005
0.09995132625
0.09892270537
0.09866771271
0.09764163792
0.09712623963
0.0958906714
0.09489415591
0.09320887809
0.1713326685
0.1572566643
0.1488040441
0.1392701365
0.1338872566
0.1272313898
0.1238044958
0.1190896036
0.1169642215
0.1136068828
0.1123588835
0.1099626061
0.1092900517
0.1075607948
0.1072264754
0.105925011
0.1057223588
0.1046343263
0.1043645967
0.1032792621
0.102734094
0.1014271735
0.1003731119
0.09859052245
0.1801442965
0.1653443979
0.1564570925
0.1464328861
0.1407731935
0.1337750423
0.1301719299
0.1252145744
0.1229799079
0.1194499233
0.1181377629
0.1156182651
0.1149111444
0.1130929696
0.1127414777
0.1113730934
0.1111600377
0.110016059
0.1097324739
0.1085913298
0.1080181374
0.106644006
0.1055357423
0.1036614733
0.1883914383
0.1729139584
0.163619761
0.153136612
0.1472177908
0.1398992344
0.1361311465
0.1309468158
0.1286098223
0.1249182102
0.1235459577
0.1209110947
0.1201715829
0.1182701511
0.1179025506
0.1164715019
0.1162486762
0.1150523087
0.1147557278
0.1135623293
0.1129628864
0.1115258384
0.1103668325
0.1084067578
0.1960435177
0.179937407
0.1702657297
0.1593568058
0.1531976021
0.145581807
0.1416606932
0.1362658087
0.133833915
0.1299923788
0.1285644114
0.1258225456
0.1250530191
0.1230743726
0.1226918621
0.1212027015
0.1209708437
0.1197258932
0.1194172822
0.1181754191
0.1175516409
0.1160562268
0.1148501519
0.1128104619
0.2030810829
0.1863967652
0.1763778698
0.1650773107
0.1586969803
0.150807769
0.1467458727
0.141157299
0.138638083
0.1346586214
0.1331793724
0.1303390585
0.129541889
0.1274921936
0.1270959346
0.1255532977
0.1253131008
0.1240234431
0.1237037406
0.1224172857
0.1217711061
0.1202220023
0.118972627
0.116859716
0.2094773678
0.1922675907
0.1819331696
0.1702767151
0.1636954563
0.1555577909
0.1513679862
0.1456034168
0.1430048785
0.1389001005
0.1373742838
0.1344445306
0.1336222758
0.1315080402
0.1310993215
0.1295081117
0.1292603676
0.1279301016
0.1276003456
0.126273381
0.1256068616
0.1240089707
0.122720252
0.1205407912
0.2152168722
0.1975355303
0.1869179298
0.1749420712
0.1681804676
0.1598198123
0.1555151881
0.1495926507
0.1469228925
0.142705625
0.1411379817
0.1381279353
0.1372831329
0.1351109498
0.1346910154
0.1330561898
0.132801642
0.1314349122
0.1310961084
0.1297327748
0.1290479845
0.1274063056
0.1260822724
0.1238430961
0.2202769117
0.2021798912
0.1913126879
0.1790552898
0.1721347394
0.1635775399
0.1591717338
0.1531099727
0.1503774682
0.1460610685
0.1444565905
0.1413757936
0.1405111508
0.1382879141
0.137858127
0.1361848787
0.135924364
0.1345255116
0.1341787576
0.1327833791
0.1320825006
0.1304022275
0.1290470716
0.1267552483
0.2246461897
0.2061901771
0.1951073938
0.1826068384
0.1755489924
0.1668220328
0.1623288134
0.1561467914
0.1533600644
0.1489580254
0.1473217017
0.1441797756
0.1432979639
0.1410306095
0.1405922805
0.1388858249
0.1386201272
0.1371935125
0.1368398679
0.1354168004
0.1347020108
0.1329884018
0.1316063611
0.1292690783
0.228306338
0.2095496552
0.1982863314
0.1855821342
0.1784093226
0.1695402011
0.1649737995
0.1586910771
0.1558589694
0.1513852295
0.1497222677
0.1465291699
0.1456330126
0.1433287335
0.142883283
0.1411490384
0.1408790292
0.139429182
0.1390697908
0.1376235462
0.1368971227
0.135155598
0.1337510468
0.131375682
0.2312504594
0.2122518693
0.2008432745
0.1879752235
0.1807098911
0.1717263734
0.1671010634
0.1607372988
0.1578686476
0.153337195
0.1516527683
0.148418474
0.1475107421
0.1451767295
0.1447255179
0.1429688919
0.1426953854
0.1412268264
0.140862788
0.1393978825
0.1386620823
0.1368980928
0.1354754244
0.1330694278
0.2334646697
0.2142842027
0.2027664023
0.1897751694
0.1824402992
0.1733707906
0.1687012188
0.1622765444
0.159380449
0.1548056291
0.1531050963
0.1498398531
0.1489234511
0.1465671075
0.1461115953
0.1443381638
0.1440620557
0.1425794466
0.1422119376
0.1407330147
0.1399901811
0.1382093057
0.1367730223
0.1343439877
0.2349466256
0.2156443763
0.2040534397
0.1909797158
0.1835982624
0.1744711591
0.1697719241
0.1633064447
0.160391944
0.1557880632
0.1540767159
0.1507907262
0.1498684891
0.1474971697
0.1470387495
0.1452540436
0.1449761676
0.1434841322
0.1431142779
0.1416259564
0.1408783986
0.1390862118
0.1376408066
0.1351963529
0.2356870412
0.2163239951
0.2046965614
0.1915816655
0.1841769773
0.1750211364
0.1703071174
0.1638212852
0.1608976226
0.156279254
0.1545625355
0.1512662094
0.1503410872
0.1479623117
0.1475024664
0.1457121502
0.1454334154
0.1439366893
0.1435656842
0.1420726813
0.1413227794
0.1395249489
0.1380749954
0.1356228376
0.2356882088
0.2163250362
0.2046975199
0.1915825321
0.1841777834
0.1750218727
0.170307808
0.1638219206
0.1608982216
0.1562798087
0.1545630618
0.1512666997
0.1503415548
0.1479627492
0.1475028851
0.1457125428
0.1454337914
0.1439370428
0.1435660234
0.1420730023
0.1413230877
0.1395252414
0.138075276
0.1356231057
0.2349455024
0.2156433803
0.2040525355
0.1909789048
0.1835975172
0.1744704844
0.1697713
0.1633058737
0.1603914107
0.1557875724
0.1540762573
0.1507903018
0.1498680934
0.1474968009
0.1470384054
0.1452537189
0.1449758629
0.1434838421
0.1431140066
0.1416256994
0.1408781596
0.1390859829
0.1376405935
0.1351961498
0.233465882
0.214285289
0.2027674152
0.1897760917
0.1824411663
0.1733715885
0.168701976
0.1622772439
0.1593811136
0.1548062476
0.1531056899
0.1498404088
0.1489239902
0.146567613
0.1461120877
0.1443386235
0.144062502
0.1425798624
0.1422123434
0.1407333983
0.1399905573
0.1382096604
0.1367733687
0.1343443192
0.2312493799
0.2122509176
0.2008424238
0.1879744673
0.180709206
0.1717257596
0.167100505
0.1607367913
0.1578681793
0.1533367676
0.1516523768
0.1484181151
0.1475104181
0.145176429
0.1447252481
0.1429686351
0.1426951522
0.1412265999
0.1408625851
0.1393976898
0.1386619131
0.1368979281
0.1354752794
0.1330692902
0.2283075945
0.2095507862
0.1982873982
0.1855831116
0.17841025
0.16954106
0.1649746223
0.15869184
0.1558596985
0.1513859108
0.1497229276
0.1465297901
0.1456336219
0.1433293058
0.1428838476
0.1411495637
0.1408795442
0.1394296586
0.1390702617
0.137623991
0.136897565
0.1351560132
0.1337514575
0.1313760753
0.2246451526
0.2061892685
0.1951065951
0.1826061355
0.1755483658
0.1668214783
0.162328319
0.1561463459
0.1533596594
0.1489576598
0.1473213757
0.1441794807
0.1432977101
0.1410303761
0.1405920837
0.1388856347
0.1386199642
0.1371933484
0.136839732
0.1354166708
0.13470191
0.1329882998
0.1316062825
0.1292690047
0.2202782115
0.202181066
0.1913138071
0.1790563209
0.1721357256
0.1635784582
0.1591726206
0.1531107974
0.1503782604
0.1460618111
0.144457315
0.1413764765
0.1405118285
0.1382885513
0.1378587621
0.1361854678
0.1359249459
0.1345260473
0.134179292
0.1327838833
0.1320830077
0.1304027019
0.1290475451
0.126755702
0.2152158757
0.1975346629
0.1869171811
0.1749414195
0.1681798973
0.1598193147
0.1555147552
0.1495922647
0.1469225484
0.1427053188
0.1411377186
0.1381277019
0.1372829465
0.1351107807
0.1346908888
0.1330560636
0.1328015465
0.1314348079
0.1310960368
0.1297327056
0.1290479493
0.1274062635
0.1260822574
0.1238430835
0.2094787094
0.1922688077
0.1819343395
0.1702777979
0.163696499
0.1555587663
0.1513689345
0.145604301
0.1430057314
0.1389009021
0.1373750705
0.1344452741
0.1336230195
0.1315087402
0.1311000245
0.1295087625
0.1292610143
0.1279306946
0.1276009415
0.1262739427
0.1256074313
0.1240095023
0.1227207864
0.1205413036
0.2030801248
0.1863959368
0.1763771682
0.1650767075
0.1586964632
0.1508073253
0.146745498
0.1411569693
0.1386377964
0.1346583712
0.1331791688
0.1303388831
0.1295417663
0.1274920852
0.1270958743
0.1255532318
0.1253130689
0.124023395
0.1237037298
0.1224172732
0.1217711327
0.1202220166
0.1189726719
0.116859761
0.196044899
0.179938664
0.1702669474
0.1593579376
0.1531986984
0.1455828366
0.1416616999
0.1362667494
0.1338348254
0.1299932365
0.1285652574
0.1258233467
0.1250538258
0.1230751324
0.1226926302
0.1212034113
0.1209715523
0.1197265408
0.1194179367
0.1181760355
0.11755227
0.1160568124
0.1148507437
0.1128110293
0.1883905159
0.1729131663
0.1636191035
0.153136054
0.1472173233
0.1398988409
0.136130826
0.1309465385
0.1286095892
0.1249180122
0.1235458093
0.1209109731
0.1201715192
0.118270099
0.1179025516
0.1164714918
0.1162487033
0.1150523128
0.1147557735
0.1135623697
0.1129629709
0.1115259056
0.1103669338
0.108406857
0.1801457146
0.1653456922
0.1564583548
0.1464340634
0.1407743395
0.1337761222
0.1301729908
0.1252155675
0.1229808719
0.1194508333
0.1181386642
0.1156191201
0.1149120099
0.1130937854
0.1127423067
0.1113738586
0.1111608046
0.1100167578
0.1097331835
0.1085919972
0.1080188218
0.1066446417
0.105536387
0.1036620915
0.1713317787
0.1572559054
0.1488034269
0.1392696199
0.1338868345
0.1272310423
0.123804225
0.1190893743
0.1169640373
0.1136067325
0.1123587856
0.1099625336
0.1092900418
0.1075607939
0.1072265323
0.1059250516
0.1057224395
0.1046343778
0.1043646938
0.1032793506
0.1027342315
0.1014272892
0.1003732653
0.09859067178
0.1619811027
0.1486734091
0.1406822132
0.1316687008
0.1265796661
0.1202870994
0.1170472844
0.1125897305
0.1105803656
0.1074062692
0.1062264112
0.1039609182
0.1033251109
0.1016902203
0.1013741851
0.1001437165
0.09995214676
0.09892345158
0.0986684732
0.09764235275
0.0971269753
0.09589135364
0.09489484977
0.09320954343
0.1521184369
0.139621053
0.1321164545
0.1236517835
0.1188726356
0.1129632344
0.1099207092
0.1057345877
0.1038475906
0.1008667782
0.09975878102
0.09763124767
0.09703417501
0.0954988458
0.0952020737
0.09404653897
0.09386665128
0.09290060144
0.0926611641
0.0916975304
0.09121354626
0.09005316246
0.08911734141
0.08753464846
0.1417794881
0.1301314766
0.1231369162
0.1152475326
0.1107931843
0.1052854004
0.1024496442
0.0985480155
0.09678924993
0.0940110115
0.09297830187
0.09099534947
0.09043884065
0.08900784332
0.08873122592
0.08765421047
0.08748653405
0.08658612675
0.08636295079
0.08546480009
0.08501370176
0.08393217707
0.08305995557
0.08158483199
0.1309921112
0.1202303785
0.1137680348
0.1064789484
0.1023635389
0.0972748433
0.09465487212
0.09105012285
0.08942519607
0.08685836165
0.08590424823
0.08407218846
0.08355804372
0.08223594086
0.08198039047
0.08098533317
0.08083043215
0.07999854258
0.07979236294
0.07896255674
0.07854579363
0.07754656064
0.07674071069
0.07537782157
0.1197949226
0.1099530717
0.1040431064
0.09737706456
0.09361341826
0.08895968032
0.08656364379
0.08326700516
0.08178095628
0.07943351339
0.0785609388
0.07688546347
0.07641525132
0.07520614262
0.07497242149
0.07406240302
0.07392072849
0.07315993204
0.07297136501
0.07221247878
0.07183133234
0.07091750534
0.07018053485
0.06893414443
0.1082184749
0.09932773
0.09398890971
0.08796707299
0.08456715604
0.08036315963
0.07819869046
0.07522064558
0.07387822373
0.07175764699
0.070969416
0.0694558692
0.06903111819
0.06793886787
0.067727753
0.0669056865
0.06677772018
0.06609045224
0.06592012299
0.06523457935
0.06489027793
0.06406476143
0.06339901625
0.06227307006
0.09630387148
0.08839194842
0.08364089941
0.07828202817
0.07525641353
0.07151524453
0.06958905894
0.06693886715
0.06574422255
0.0638570953
0.06315562868
0.06180870015
0.06143069766
0.0604586825
0.06027079662
0.05953921884
0.05942532765
0.05881370929
0.05866212238
0.05805204391
0.05774564231
0.05701100487
0.05641855307
0.05541656981
0.08408392204
0.07717597104
0.0730278132
0.06834895485
0.06570728675
0.06244085769
0.06075911029
0.05844522076
0.05740218582
0.0557545344
0.05514209852
0.05396609852
0.05363608289
0.05278742085
0.0526233965
0.05198465876
0.05188523649
0.05135123301
0.05121889619
0.05068623625
0.05041872618
0.04977730751
0.04926003905
0.04838519527
0.0716017504
0.06571925114
0.06218686503
0.05820255461
0.05595302016
0.053171467
0.05173935495
0.04976893727
0.04888072009
0.04747763983
0.0469561023
0.0459546586
0.04567361919
0.04495092085
0.04481123277
0.04426729535
0.04418261951
0.04372787039
0.04361516958
0.04316157081
0.04293376686
0.04238755742
0.04194707446
0.04120209888
0.05889195583
0.05405367228
0.0511483431
0.04787130323
0.04602110486
0.04373332083
0.04255544439
0.04093480907
0.04020427805
0.03905027231
0.03862133346
0.03779766924
0.03756653924
0.036972138
0.03685726694
0.03640989058
0.03634026277
0.03596623943
0.03587355943
0.03550048219
0.03531312769
0.03486387355
0.03450158686
0.03388884734
0.04599920385
0.04222010255
0.03995080033
0.03739115511
0.03594598959
0.03415903139
0.03323900226
0.03197313742
0.03140251728
0.03050112819
0.03016607821
0.02952271273
0.02934217042
0.02887787694
0.02878814308
0.02843868606
0.0283842901
0.0280921287
0.02801973093
0.02772831601
0.02758197411
0.02723106157
0.0269480865
0.02646948712
0.03295938232
0.03025161044
0.0286256466
0.02679163629
0.02575617543
0.02447580713
0.02381661449
0.02290961404
0.02250077403
0.02185492652
0.02161487902
0.02115390881
0.0210245711
0.02069190572
0.02062763251
0.02037724372
0.02033828599
0.02012894668
0.02007708921
0.01986828686
0.01976344435
0.01951200499
0.01930925631
0.01896632682
0.01981819601
0.01819001742
0.01721233652
0.01610954502
0.01548692188
0.01471703021
0.0143206536
0.01377526024
0.01352941277
0.01314105002
0.01299670081
0.012719504
0.012641729
0.01244167891
0.01240302752
0.01225244529
0.01222901306
0.01210311332
0.01207192884
0.01194636241
0.01188332273
0.0117321201
0.01161021136
0.01140400689
0.00661231727
0.006069109922
0.005742959509
0.005375043173
0.005167341723
0.004910490943
0.004778272146
0.004596312996
0.004514305612
0.00438473849
0.004336601204
0.004244122176
0.004218203347
0.004151457408
0.004138590336
0.004088337947
0.004080540167
0.004038517533
0.004028134795
0.003986233454
0.003965221537
0.003914759339
0.003874098439
0.003805291731
-0.006612029365
-0.006068811487
-0.005742576752
-0.005374646931
-0.00516689824
-0.004910041981
-0.004777781736
-0.004595845321
-0.004513828705
-0.004384281469
-0.004336114838
-0.00424365729
-0.004217687087
-0.004150978209
-0.004138061238
-0.004087875118
-0.004080049107
-0.004038103994
-0.004027683096
-0.003985821957
-0.003964766659
-0.003914357793
-0.003873667129
-0.003804883517
-0.01981790932
-0.01818972021
-0.01721195514
-0.01610915011
-0.01548647973
-0.01471658251
-0.01432016444
-0.01377479367
-0.01352893691
-0.01314059395
-0.01299621551
-0.01271904014
-0.01264121407
-0.01244120102
-0.01240250015
-0.01225198412
-0.01222852407
-0.01210270161
-0.01207147918
-0.01194595253
-0.01188286956
-0.01173171976
-0.01160978145
-0.01140359991
-0.03295909769
-0.03025131541
-0.02862526809
-0.02679124449
-0.02575573693
-0.02447536329
-0.02381612971
-0.02290915183
-0.02250030276
-0.02185447492
-0.02161439839
-0.02115344936
-0.02102406073
-0.02069143189
-0.02062710917
-0.02037678586
-0.0203378002
-0.02012853773
-0.02007664262
-0.01986788037
-0.01976299487
-0.01951160844
-0.01930883006
-0.01896592333
-0.04599892296
-0.04221981125
-0.03995042599
-0.03739076737
-0.03594555516
-0.03415859138
-0.03323852129
-0.03197267856
-0.0314020492
-0.03050067948
-0.03016560078
-0.02952225633
-0.02934166399
-0.02887740694
-0.02878762481
-0.02843823298
-0.02838381028
-0.02809172493
-0.02801929016
-0.02772791394
-0.02758152909
-0.02723066768
-0.02694766306
-0.02646908585
-0.05889167885
-0.05405338513
-0.05114797428
-0.04787092146
-0.04602067747
-0.04373288829
-0.04255497192