/*--------------------------------*- C++ -*----------------------------------*\
| =========                 |                                                 |
| \\      /  F ield         | foam-extend: Open Source CFD                    |
|  \\    /   O peration     | Version:  3.0                                   |
|   \\  /    A nd           | Web:         http://www.extend-project.de       |
|    \\/     M anipulation  |                                                 |
\*---------------------------------------------------------------------------*/
FoamFile
{
    version     2.0;
    format      ascii;
    class       volVectorField;
    location    "38";
    object      u;
}
// * * * * * * * * * * * * * * * * * * * * * * * * * * * * * * * * * * * * * //

dimensions      [0 0 0 0 0 0 0];

internalField   nonuniform List<vector> 
2688
(
(0.1241347412 -0.05252783657 9.476545924e-19)
(0.2966806627 -0.04297380652 -4.157234985e-18)
(0.4345176997 -0.03565361332 -1.490872051e-18)
(0.537396902 -0.02982127394 1.992593014e-18)
(0.6236109827 -0.02522933803 -9.385901752e-19)
(0.688680302 -0.02146580013 -4.118239644e-19)
(0.7456919423 -0.0184224814 -1.681130733e-18)
(0.7886210711 -0.0158691025 -4.111079262e-18)
(0.8279526049 -0.01375062406 -3.239282783e-18)
(0.8570692688 -0.01194050388 -1.546683954e-18)
(0.8850766074 -0.01039740918 -1.190426093e-18)
(0.9050896184 -0.009061632053 -1.101278185e-18)
(0.9254827663 -0.007886996614 -7.165048011e-19)
(0.939186031 -0.006862465797 -5.914277231e-18)
(0.9542295538 -0.00592729023 1.540346103e-18)
(0.963341083 -0.005110321125 3.106064081e-18)
(0.9744655322 -0.004330273812 1.649182221e-18)
(0.9800665675 -0.003652124883 7.44443223e-19)
(0.9881979458 -0.002969541197 3.641202325e-18)
(0.9909747926 -0.002382732752 2.328802535e-18)
(0.9967207316 -0.001756325746 -5.78702912e-19)
(0.9971045167 -0.001225061891 -1.68293114e-18)
(1.000859178 -0.0006352917125 -4.262679038e-19)
(0.9991454845 -5.111650148e-05 -2.425419743e-18)
(0.1358973121 -0.1569238093 3.370866543e-18)
(0.3063038145 -0.1283816751 -3.674654742e-19)
(0.4425017223 -0.1065132169 -9.93613105e-18)
(0.5440748146 -0.08908946136 -2.254094999e-18)
(0.6292606197 -0.07537148611 -2.961888617e-18)
(0.6934871092 -0.06412808036 4.941636364e-19)
(0.7498172707 -0.055036462 -2.246683064e-18)
(0.7921746324 -0.04740834346 -1.281837042e-18)
(0.83103181 -0.04107954502 4.172778597e-18)
(0.8597431266 -0.03567185924 4.798132955e-18)
(0.8874049337 -0.03106200247 -2.286875183e-18)
(0.9071188106 -0.02707139536 -4.184668019e-18)
(0.9272489379 -0.0235622709 -7.50250795e-20)
(0.9407227714 -0.02050149128 -2.713684024e-18)
(0.9555569016 -0.01770776289 -2.800919092e-18)
(0.9644854837 -0.01526712497 -1.254267088e-19)
(0.9754352771 -0.01293688535 -4.54785007e-18)
(0.9808844402 -0.01091096327 -4.648232039e-18)
(0.9888629711 -0.008871791679 6.569750439e-18)
(0.991508396 -0.007118643577 -1.292820576e-17)
(0.9971140974 -0.005247354128 6.147813241e-18)
(0.9973789062 -0.003660307643 5.116038618e-19)
(1.001001496 -0.001898411837 5.076287017e-18)
(0.9991569647 -0.0001531622931 5.001196469e-18)
(0.1592745322 -0.2593464292 6.669561672e-18)
(0.3254291497 -0.2121752159 -2.109886092e-18)
(0.4583693258 -0.1760333638 -5.206740236e-18)
(0.5573467043 -0.1472372641 -1.236870767e-18)
(0.6404888831 -0.1245657306 -3.001876612e-18)
(0.7030403654 -0.1059838756 4.717217517e-18)
(0.7580161432 -0.09095835734 -5.475679364e-18)
(0.7992371592 -0.07835142194 6.097088187e-18)
(0.837151529 -0.06789187395 -6.123467868e-18)
(0.8650572555 -0.05895460395 8.36547797e-18)
(0.8920323093 -0.05133596215 5.512542236e-18)
(0.911151702 -0.04474071618 3.215202328e-18)
(0.9307590622 -0.03894124684 4.266325512e-18)
(0.9437769382 -0.03388270989 -6.847438387e-18)
(0.9581948777 -0.02926555775 4.318968285e-18)
(0.9667598804 -0.02523192678 -1.086208518e-17)
(0.9773625186 -0.0213807914 2.101819205e-17)
(0.9825098746 -0.01803257624 -1.770058613e-17)
(0.9901846151 -0.01466248507 -1.394061865e-17)
(0.9925688885 -0.01176505846 1.276577501e-17)
(0.997895828 -0.008672391608 3.092357755e-18)
(0.9979242096 -0.006049490812 -2.040680278e-17)
(1.001284311 -0.003137658736 -8.346313103e-18)
(0.9991798072 -0.0002532959802 1.149904967e-17)
(0.1939724745 -0.3585075098 -2.638124126e-19)
(0.3538160672 -0.2933004322 -6.158138346e-18)
(0.4819208405 -0.2433397484 -6.521656914e-18)
(0.5770455484 -0.2035334324 2.278642967e-19)
(0.6571545085 -0.1721934765 -8.143072406e-18)
(0.7172199156 -0.1465068507 4.174839892e-18)
(0.7701854507 -0.1257363837 -7.021754811e-18)
(0.8097197823 -0.1083091887 -1.533010482e-18)
(0.8462347852 -0.09385042691 -3.396628763e-18)
(0.8729447881 -0.0814959703 -6.116276736e-18)
(0.8989005577 -0.0709643422 -1.650096821e-17)
(0.9171375653 -0.06184739691 -6.102795283e-18)
(0.9359690282 -0.05383050786 1.191715084e-17)
(0.9483101155 -0.0468378336 1.447928947e-18)
(0.9621103405 -0.0404553199 2.313819616e-18)
(0.9701356766 -0.03487942851 -8.993555198e-18)
(0.980223085 -0.02955582344 -1.328776666e-17)
(0.984922474 -0.02492742206 5.704561681e-18)
(0.9921463409 -0.02026878556 -3.52428494e-18)
(0.9941429579 -0.01626352565 -1.981882244e-17)
(0.9990561421 -0.01198837574 1.026892797e-17)
(0.9987335957 -0.008362604843 1.904048433e-17)
(1.001704133 -0.004337442307 -1.998587282e-17)
(0.9992137118 -0.0003502454998 2.290973162e-17)
(0.2395547969 -0.4531602368 -6.19960306e-19)
(0.3911077081 -0.3707373161 6.333473911e-18)
(0.5128602202 -0.3075860198 1.156795336e-17)
(0.6029237461 -0.2572700653 7.133171034e-19)
(0.6790479914 -0.2176557896 -1.13555717e-18)
(0.7358474801 -0.1851874199 9.397485582e-19)
(0.786172169 -0.1589332111 -5.813588544e-18)
(0.8234907296 -0.1369049051 -6.217574048e-18)
(0.8581673683 -0.1186287606 -1.105693675e-18)
(0.8833065694 -0.1030124742 1.472285286e-17)
(0.9079232894 -0.08970030919 -9.420079666e-19)
(0.9250011334 -0.07817631282 6.272024409e-18)
(0.9428132849 -0.06804282898 -5.288827301e-18)
(0.9542652997 -0.05920394899 9.904511421e-18)
(0.9672540147 -0.051136341 -2.85750487e-17)
(0.9745704132 -0.04408830034 -9.290952317e-18)
(0.9839809442 -0.03735917603 2.172933549e-17)
(0.9880918645 -0.03150878888 1.611553797e-18)
(0.9947234027 -0.02562020171 1.125135582e-17)
(0.9962107853 -0.02055747299 9.608704854e-18)
(1.000580398 -0.01515360685 -1.762800922e-18)
(0.9997968673 -0.01057055521 5.78338008e-18)
(1.002255623 -0.005482684727 -3.171067584e-17)
(0.999258265 -0.0004427879475 3.457602877e-17)
(0.2954482552 -0.5421141373 -1.82290552e-17)
(0.436834976 -0.4435118792 -1.365489202e-19)
(0.550798309 -0.3679641762 2.574943201e-18)
(0.6346557764 -0.3077713466 -6.371639804e-19)
(0.7058939618 -0.2603809402 -1.197855456e-17)
(0.7586887528 -0.2215391362 1.27261198e-18)
(0.8057752281 -0.1901313427 2.472365216e-18)
(0.8403767751 -0.1637789525 -2.881150735e-17)
(0.872799215 -0.1419152567 -1.817080301e-17)
(0.8960122706 -0.1232335335 2.775986205e-18)
(0.9189870601 -0.1073082329 -1.65130252e-18)
(0.9346435111 -0.09352211179 2.728833362e-18)
(0.9512057971 -0.08139946109 -5.114259699e-19)
(0.9615676057 -0.07082553702 1.580511151e-17)
(0.9735612633 -0.06117428463 -9.96889788e-18)
(0.9800083404 -0.05274273565 3.710419366e-17)
(0.9885889048 -0.04469270836 1.481226196e-17)
(0.9919782236 -0.03769391233 3.960210627e-20)
(0.997883467 -0.03064942039 -1.011086164e-17)
(0.9987463962 -0.02459289554 1.127543928e-18)
(1.002449496 -0.01812826552 4.388531592e-18)
(1.001100675 -0.0126455777 2.217141292e-17)
(1.002931897 -0.006558973879 1.704463915e-17)
(0.9993128931 -0.0005297667192 -2.979482365e-17)
(0.3609499452 -0.6242507125 -8.796310018e-18)
(0.4904229382 -0.5107090754 -7.784135513e-18)
(0.5952580905 -0.4237149958 1.527949794e-17)
(0.6718426848 -0.3544022468 -1.280043901e-17)
(0.7373548597 -0.2998316582 -9.94084104e-18)
(0.7854565416 -0.2551048726 1.113293708e-17)
(0.8287481261 -0.2189384651 6.055321806e-19)
(0.8601656101 -0.1885933809 -7.176370929e-18)
(0.8899463285 -0.1634170892 3.707529321e-17)
(0.9109021408 -0.141904857 -2.399888073e-17)
(0.9319527263 -0.1235666994 -6.685698075e-18)
(0.9459434572 -0.1076918165 1.205610172e-17)
(0.9610410007 -0.09373245676 -3.42191134e-18)
(0.9701252076 -0.08155645498 -1.85721669e-19)
(0.9809527318 -0.07044293613 -1.762641139e-17)
(0.9863810622 -0.06073390299 -1.608110905e-17)
(0.9939889635 -0.05146421359 -2.394276833e-17)
(0.9965326515 -0.0434050151 -4.665947878e-18)
(1.001586727 -0.03529321386 -5.492627133e-18)
(1.001717876 -0.02831905098 -9.481527396e-18)
(1.004639869 -0.02087496161 -2.673617189e-17)
(1.002628607 -0.01456157906 -2.94222711e-17)
(1.003724403 -0.00755278892 -2.044052752e-17)
(0.9993769243 -0.0006100803359 -4.364357351e-17)
(0.4352361313 -0.6985369106 -1.92519431e-18)
(0.5511975903 -0.5714837577 -9.885245903e-18)
(0.6456804031 -0.4741373203 -7.79306412e-18)
(0.7140167351 -0.3965763123 3.891111533e-18)
(0.7730350011 -0.3355118035 7.003063655e-18)
(0.8158141626 -0.2854625053 -1.68577286e-17)
(0.8548019388 -0.2449922927 -2.807087724e-18)
(0.8826083298 -0.2110361287 7.409234507e-18)
(0.9093930618 -0.1828638436 1.379396779e-18)
(0.927788896 -0.1587916404 8.911481858e-18)
(0.9466572407 -0.1382712317 9.859795052e-18)
(0.9587588451 -0.1205072297 -8.223548125e-18)
(0.9721952289 -0.1048866996 -1.662025017e-17)
(0.9798304792 -0.09126174881 3.335745331e-18)
(0.9893355007 -0.07882571412 2.170933979e-17)
(0.9936084451 -0.06796130204 -6.237158652e-18)
(1.000113262 -0.05758851335 2.24670897e-17)
(1.001697896 -0.04857026764 3.055283606e-18)
(1.005786674 -0.03949315665 2.374065073e-18)
(1.005087884 -0.03168906674 3.595803109e-18)
(1.007124034 -0.02335912589 5.438594293e-17)
(1.004361466 -0.01629445519 -2.329727731e-17)
(1.00462322 -0.008451611828 -1.094903401e-17)
(0.9994495387 -0.0006827236457 -2.475121306e-17)
(0.5173726584 -0.7640386537 -2.26269834e-17)
(0.6183947632 -0.6250717341 -1.825032201e-17)
(0.7014312061 -0.5185971183 3.065485252e-18)
(0.7606476437 -0.433763217 1.743385539e-17)
(0.8124857183 -0.3669727042 1.292662006e-17)
(0.8493799038 -0.312230284 -1.519872915e-17)
(0.8836090403 -0.2679652044 -9.196566545e-18)
(0.907422744 -0.2308249721 1.433903428e-17)
(0.9308948662 -0.2000109839 -4.232270661e-18)
(0.9464602059 -0.1736815251 -4.275572101e-18)
(0.9629156787 -0.151236931 -8.801885919e-18)
(0.9729285334 -0.1318071961 2.241820686e-17)
(0.9845281924 -0.1147219429 -1.633711624e-17)
(0.9905613772 -0.09981937732 -1.636023254e-18)
(0.9986041174 -0.08621722807 -9.828073307e-18)
(1.001599591 -0.07433405649 -6.043337406e-18)
(1.006884732 -0.06298862328 -1.44139054e-17)
(1.007408975 -0.05312473195 2.139905424e-17)
(1.010430428 -0.04319646868 1.971131471e-17)
(1.008814012 -0.03466058164 -3.869772557e-18)
(1.00987069 -0.025549551 -1.232002999e-17)
(1.006277444 -0.01782242385 8.256133248e-18)
(1.005617002 -0.009244161434 3.423684649e-17)
(0.9995298378 -0.0007467777304 -5.214901541e-17)
(0.606326575 -0.8199321223 1.181716197e-17)
(0.6911693125 -0.6707990378 -2.50979939e-17)
(0.761809357 -0.5565352276 4.496765916e-17)
(0.8111489238 -0.4654952834 -1.607349597e-17)
(0.8552108669 -0.3938186949 1.118862511e-17)
(0.8857316036 -0.3350715778 -1.344073515e-17)
(0.9148071494 -0.287568284 -6.472781441e-18)
(0.9342967574 -0.2477110516 2.19897081e-18)
(0.9541813396 -0.2146428573 9.334800905e-18)
(0.9666812384 -0.1863872599 -1.644532251e-17)
(0.9805235878 -0.162300725 7.810401741e-18)
(0.9882743115 -0.1414496055 3.444339466e-18)
(0.9978848148 -0.1231144754 -1.944405438e-17)
(1.002182949 -0.1071217119 -1.176157244e-17)
(1.008642057 -0.09252449233 -4.987469887e-18)
(1.010254016 -0.07977200818 -2.411823881e-17)
(1.014218266 -0.06759659508 1.008610008e-17)
(1.013594093 -0.05701111171 -3.630922857e-17)
(1.01545965 -0.04635653859 -4.20684826e-18)
(1.012849426 -0.03719620673 -3.477672536e-19)
(1.012845352 -0.02741865396 2.346835747e-17)
(1.008352461 -0.01912625692 -3.123843419e-17)
(1.006693293 -0.009920446432 3.096574404e-17)
(0.9996167986 -0.000801443382 2.525349238e-17)
(0.7009792568 -0.8655145016 1.214819866e-17)
(0.7686061465 -0.7080906798 9.650926424e-18)
(0.8260556024 -0.587474608 1.584319929e-17)
(0.8648855603 -0.4913734868 -1.544556211e-17)
(0.9006731764 -0.4157121972 1.028572041e-17)
(0.9244121678 -0.3536991521 -7.474942558e-18)
(0.9480039452 -0.3035550303 -1.419103926e-17)
(0.9628924523 -0.2614820169 -1.161374952e-17)
(0.9789596451 -0.2265754772 -1.330626837e-17)
(0.9881977322 -0.1967490635 -3.093692848e-17)
(0.9992595336 -0.1713235006 -1.427728666e-17)
(1.004603218 -0.1493132031 1.320353493e-17)
(1.012097114 -0.129958783 -3.036537686e-19)
(1.014549055 -0.1130769315 2.821830352e-17)
(1.019323058 -0.09766822307 2.606926294e-17)
(1.019462881 -0.08420678872 2.008180786e-17)
(1.0220216 -0.07135452282 -6.208699016e-18)
(1.02017545 -0.06018055824 5.773698158e-17)
(1.020811041 -0.04893367518 -1.69349583e-17)
(1.017143357 -0.03926408368 -5.879961925e-18)
(1.016010561 -0.02894297637 -1.952097444e-17)
(1.010560409 -0.020189577 -7.432371032e-17)
(1.007838521 -0.01047199312 1.888566815e-17)
(0.9997093416 -0.0008460293103 -1.007886e-17)
(0.8001403987 -0.9002124936 9.760968927e-18)
(0.8497313854 -0.7364776434 -3.29976222e-18)
(0.8933619829 -0.6110261261 7.750553179e-18)
(0.9211817256 -0.5110723725 -1.655666456e-17)
(0.9483009159 -0.4323778615 5.046433061e-18)
(0.9649351227 -0.3678787487 2.14141764e-17)
(0.9827819512 -0.3157243818 -5.846674022e-18)
(0.9928501867 -0.2719646894 3.162902386e-17)
(1.004918181 -0.2356587651 2.97082898e-17)
(1.010739078 -0.2046366296 1.912210356e-17)
(1.018887907 -0.178191769 -1.069647143e-17)
(1.021709888 -0.1552990948 1.257876976e-18)
(1.026986377 -0.1351687653 -8.166255636e-18)
(1.027504175 -0.1176101341 -1.427876504e-20)
(1.030512828 -0.1015836967 -3.327167767e-17)
(1.029110382 -0.0875826067 -6.282450767e-17)
(1.030196641 -0.07421509894 -1.237187279e-17)
(1.027070296 -0.06259318213 -3.298735871e-18)
(1.026417352 -0.05089541174 -2.858668529e-17)
(1.021641825 -0.04083817241 -3.298635389e-17)
(1.019326557 -0.03010329255 3.766815237e-17)
(1.012873532 -0.02099898437 -1.77023679e-18)
(1.009038316 -0.01089182408 4.124208367e-17)
(0.999806286 -0.0008799715573 8.202339455e-19)
(0.9025629882 -0.9235898206 7.442339147e-18)
(0.9335248874 -0.7556029831 -1.03460264e-17)
(0.9628821 -0.6268936537 1.063440424e-18)
(0.9793295139 -0.5243442289 -2.057802705e-17)
(0.997495151 -0.443606132 5.433724189e-19)
(1.00679091 -0.3774320537 9.656342951e-18)
(1.01870382 -0.3239233205 -1.073989902e-17)
(1.023793259 -0.279027242 -1.759292995e-17)
(1.031730504 -0.2417785115 2.318589999e-18)
(1.034021832 -0.2099507652 -2.52797475e-19)
(1.039161865 -0.1828191779 6.884674648e-18)
(1.039379215 -0.1593320061 -3.967638968e-18)
(1.04236535 -0.1386789308 -3.698947265e-17)
(1.040885403 -0.1206643204 3.693043554e-17)
(1.042070627 -0.1042217106 -1.358873082e-17)
(1.039075199 -0.08985702788 3.571184625e-17)
(1.038640552 -0.07614239812 8.315716422e-18)
(1.034191919 -0.06421867311 2.936152143e-17)
(1.032208045 -0.05221713834 3.342729314e-17)
(1.02628825 -0.04189871699 1.227981204e-18)
(1.022751607 -0.03088507625 4.249989601e-18)
(1.01526274 -0.02154433718 6.969681221e-18)
(1.010277568 -0.01117471352 -2.396077248e-19)
(0.9999064378 -0.0009028569157 -3.072961264e-17)
(1.006958982 -0.9353524451 9.861008867e-19)
(1.018932842 -0.7652261665 -5.974844593e-18)
(1.03374168 -0.6348776081 -2.041596996e-17)
(1.038597637 -0.5310221464 9.080438843e-18)
(1.047637228 -0.4492557823 8.800181736e-19)
(1.049453131 -0.3822389291 -2.020369226e-18)
(1.055317809 -0.3280487221 3.353820957e-18)
(1.05533251 -0.2825808627 9.937035532e-18)
(1.059059433 -0.2448577386 -5.846315079e-19)
(1.057753173 -0.2126246459 -1.393555409e-17)
(1.059826454 -0.185147515 -3.556759812e-18)
(1.057388977 -0.1613612209 -9.585957943e-18)
(1.058040645 -0.1404451103 1.26958524e-17)
(1.054524449 -0.1222010755 -1.375726695e-17)
(1.053851125 -0.1055490535 9.728772072e-18)
(1.049232011 -0.09100143292 -1.551295102e-17)
(1.047247169 -0.07711213497 -6.025949675e-18)
(1.041450757 -0.06503655958 -2.992596368e-18)
(1.038110322 -0.05288217005 -3.261448746e-17)
(1.031024197 -0.04243233799 1.257342299e-17)
(1.026242656 -0.03127842298 7.955952822e-19)
(1.017697973 -0.02181873193 1.989867389e-18)
(1.011540697 -0.0113170365 2.021005373e-18)
(1.000008499 -0.0009143699073 1.007487714e-19)
(1.112015548 -0.9353524903 -2.646067955e-18)
(1.104881248 -0.7652261971 -2.452291819e-18)
(1.105049638 -0.6348776263 -2.350636138e-17)
(1.098240804 -0.531022153 1.189767545e-17)
(1.098096587 -0.44925579 1.346827662e-18)
(1.092385318 -0.3822389239 4.180918224e-18)
(1.092163478 -0.328048727 -3.254131986e-18)
(1.087071343 -0.282580859 8.379636579e-18)
(1.086561289 -0.2448577432 -4.450541303e-18)
(1.081634689 -0.2126246411 -1.573557127e-17)
(1.0806218 -0.1851475202 -1.797703352e-17)
(1.075512708 -0.161361219 5.660968584e-18)
(1.073815123 -0.1404451193 1.682554514e-17)
(1.068249806 -0.1222010779 -2.123200056e-17)
(1.065706162 -0.1055490676 -1.656844309e-17)
(1.059453099 -0.09100144222 1.460227065e-17)
(1.055908241 -0.07711215781 -2.400917449e-18)
(1.048755537 -0.06503657887 -9.406430937e-19)
(1.044049946 -0.05288220067 -6.660853038e-18)
(1.035790126 -0.04243236004 -1.658682019e-17)
(1.0297558 -0.0312784553 -5.850222985e-18)
(1.020148637 -0.02181876019 -3.087518256e-18)
(1.012811831 -0.01131707269 -2.77293867e-17)
(1.000111236 -0.0009143988466 2.528228838e-17)
(1.216411571 -0.9235899026 -6.280262989e-18)
(1.190289222 -0.7556030466 6.354319852e-18)
(1.175909228 -0.6268936681 -1.601469269e-17)
(1.157508935 -0.5243442436 -6.422906496e-18)
(1.148238668 -0.4436061302 -1.490300023e-18)
(1.135047542 -0.3774320421 -4.778897657e-18)
(1.12877747 -0.3239233152 2.781070565e-18)
(1.118610598 -0.2790272371 -2.038558915e-17)
(1.113890222 -0.2417785069 -2.113748803e-17)
(1.105366035 -0.2099507589 3.503565952e-19)
(1.101286393 -0.1828191748 2.539712047e-17)
(1.093522474 -0.159332005 9.820164561e-19)
(1.089490422 -0.1386789336 3.667758813e-18)
(1.081888855 -0.1206643277 -2.912494835e-18)
(1.077486664 -0.1042217228 1.039944618e-18)
(1.069609914 -0.0898570506 1.974121664e-17)
(1.064514862 -0.07614242987 4.590282436e-18)
(1.056014379 -0.06421871719 1.718730016e-17)
(1.049952226 -0.05221718234 7.5923601e-18)
(1.040526073 -0.04189875924 2.974613325e-17)
(1.033246849 -0.03088511455 4.117294299e-18)
(1.022583869 -0.02154438997 1.568124958e-17)
(1.014074959 -0.01117475847 -6.151715753e-18)
(1.000213299 -0.0009029120331 -1.628702036e-17)
(1.318834167 -0.9002126571 -4.56035166e-18)
(1.274082727 -0.7364777526 8.348902911e-18)
(1.245429347 -0.6110261731 -6.52054676e-18)
(1.215656725 -0.5110723996 3.295955409e-18)
(1.197432905 -0.4323778769 -6.080602143e-19)
(1.176903329 -0.3678787295 1.569472706e-18)
(1.164699342 -0.3157243885 9.943450664e-18)
(1.149553672 -0.2719646799 1.215149902e-17)
(1.14070255 -0.235658773 1.713623708e-17)
(1.128648792 -0.2046366173 1.916132703e-17)
(1.121560357 -0.1781917799 5.464445783e-18)
(1.111191806 -0.1552990929 -1.089789684e-17)
(1.104869403 -0.1351687889 1.08687864e-19)
(1.09527009 -0.1176101486 -7.909210728e-18)
(1.089044473 -0.101583739 -1.935823383e-17)
(1.079574741 -0.08758264937 -1.88403355e-17)
(1.072958787 -0.07421517641 -8.528122804e-18)
(1.063136018 -0.06259326314 -3.19787823e-17)
(1.055742937 -0.05089551335 7.666812655e-18)
(1.045172516 -0.04083825304 -2.697300859e-17)
(1.036671917 -0.03010338785 -2.210633302e-18)
(1.024973095 -0.02099908411 2.636834547e-18)
(1.015314228 -0.01089193097 -2.195835479e-17)
(1.000313461 -0.0008800748145 4.771713803e-17)
(1.41799533 -0.8655146987 -1.574617803e-18)
(1.355207991 -0.7080908254 1.451891673e-17)
(1.312735744 -0.5874746541 2.872244833e-18)
(1.271952907 -0.4913735244 -3.088088821e-19)
(1.245060655 -0.4157122068 -3.72742501e-18)
(1.217426293 -0.3536991305 -1.547801746e-17)
(1.199477357 -0.3035550319 5.761184713e-18)
(1.179511418 -0.2614820115 -9.568913058e-18)
(1.166661097 -0.2265754812 -1.081714517e-17)
(1.15119015 -0.1967490541 -1.130041325e-17)
(1.141188742 -0.1713235073 5.480706525e-18)
(1.128298488 -0.1493132057 -1.197446756e-17)
(1.119758677 -0.1299588041 2.02286801e-18)
(1.108225222 -0.1130769541 -1.039557147e-17)
(1.100234252 -0.09766826615 4.247856842e-17)
(1.089222253 -0.08420684654 1.965800876e-17)
(1.081133839 -0.0713546103 1.674073414e-17)
(1.070030876 -0.06018066457 -1.408693089e-18)
(1.061349257 -0.04893379177 4.449659492e-18)
(1.049670988 -0.03926418759 -4.685253782e-18)
(1.039987915 -0.02894308398 -1.620841036e-17)
(1.027286222 -0.02018970866 -6.443106842e-18)
(1.016514026 -0.01047211879 -4.187740159e-17)
(1.000410417 -0.0008461693242 -1.394243576e-19)
(1.512648047 -0.8199324008 -2.930323715e-18)
(1.432644842 -0.6707992396 1.277524199e-18)
(1.376981999 -0.5565353128 1.416410293e-17)
(1.325689548 -0.4654953374 -4.710106654e-18)
(1.290522969 -0.3938187256 -7.764071132e-18)
(1.256106856 -0.3350715553 -4.052287677e-18)
(1.232674159 -0.2875683048 6.629195288e-18)
(1.208107119 -0.2477110492 -3.832174632e-18)
(1.191439415 -0.2146428807 -8.09271872e-18)
(1.172706652 -0.1863872515 2.067547203e-17)
(1.159924702 -0.162300752 -6.511018028e-18)
(1.144627405 -0.1414496133 -1.471848361e-17)
(1.133970992 -0.1231145221 2.105223315e-17)
(1.120591341 -0.1071217461 1.020177129e-18)
(1.110915274 -0.09252456783 -2.096194726e-17)
(1.098431138 -0.07977208662 7.924394518e-18)
(1.088937201 -0.06759672546 -1.643613395e-17)
(1.076612261 -0.05701124826 -2.806772742e-17)
(1.066700681 -0.04635670145 1.854171523e-19)
(1.053964947 -0.03719633561 1.50983982e-18)
(1.043153155 -0.02741880159 1.241822311e-17)
(1.029494198 -0.01912641641 2.260772864e-17)
(1.01765928 -0.009920613078 3.36079439e-18)
(1.000502977 -0.000801612017 -1.582169772e-17)
(1.601602025 -0.7640389512 -1.039480796e-17)
(1.505419448 -0.6250719598 2.070803729e-18)
(1.437360184 -0.518597199 -3.449557207e-18)
(1.376190859 -0.4337632777 6.637012876e-18)
(1.333248134 -0.3669727308 -5.651992125e-18)
(1.292458567 -0.3122302638 1.874040867e-18)
(1.263872282 -0.2679652265 5.617793547e-18)
(1.234981149 -0.2308249801 -7.287499351e-18)
(1.214725906 -0.2000110086 -5.740430557e-19)
(1.192927703 -0.1736815241 4.502097123e-18)
(1.177532629 -0.1512369567 -7.022487636e-18)
(1.159973201 -0.1318072115 1.052244826e-18)
(1.147327631 -0.1147219888 2.997731424e-18)
(1.132212929 -0.09981942123 -1.102489698e-17)
(1.120953228 -0.08621730493 3.384161323e-18)
(1.10708558 -0.07433414912 4.420061902e-18)
(1.096270751 -0.06298876048 1.047108437e-17)
(1.082797397 -0.05312488896 6.39316207e-18)
(1.071729916 -0.04319664192 -9.582852298e-18)
(1.058000373 -0.03466073135 -2.187759807e-18)
(1.046127827 -0.02554971107 -1.165356504e-17)
(1.031569232 -0.01782261516 5.462663866e-18)
(1.018735588 -0.009244348385 -7.408010648e-18)
(1.000589965 -0.0007469845215 3.000795281e-18)
(1.683738585 -0.6985372794 1.198025474e-18)
(1.572616635 -0.5714840285 1.427263567e-18)
(1.493110999 -0.4741374348 -4.217293528e-18)
(1.422821772 -0.3965763859 -4.890781532e-19)
(1.372698854 -0.3355118516 -7.906836456e-20)
(1.326024303 -0.2854624898 -4.99239366e-18)
(1.292679389 -0.2449923409 2.521728314e-18)
(1.259795569 -0.2110361473 7.192368418e-18)
(1.236227726 -0.1828638931 -7.538341482e-18)
(1.211599024 -0.158791646 6.790474594e-18)
(1.193791087 -0.138271281 4.035221929e-18)
(1.174142904 -0.1205072537 -1.136482553e-17)
(1.159660617 -0.1048867723 1.661477376e-18)
(1.142943845 -0.09126180509 9.820788802e-18)
(1.130221872 -0.07882582073 6.68969299e-19)
(1.115076751 -0.0679614104 -1.288604433e-18)
(1.103042258 -0.05758868311 1.07169211e-17)
(1.088508511 -0.04857044205 1.471179047e-18)
(1.07637371 -0.03949336134 2.661509393e-19)
(1.061726531 -0.03168923027 -3.340772054e-18)
(1.048874518 -0.02335931422 2.231660334e-17)
(1.033485241 -0.01629466212 1.682019378e-17)
(1.019729401 -0.00845182702 2.596470249e-17)
(1.000670285 -0.0006829464816 -3.863087538e-18)
(1.758024834 -0.6242510839 3.258450288e-19)
(1.633391352 -0.5107093622 2.553062273e-18)
(1.543533353 -0.4237151034 -2.746907854e-18)
(1.464995862 -0.3544023211 -1.501631231e-18)
(1.408379015 -0.2998317025 -3.843690243e-18)
(1.356381936 -0.255104864 5.555169968e-18)
(1.318733215 -0.2189385204 2.710629318e-18)
(1.282238307 -0.188593416 4.886303302e-18)
(1.255674478 -0.1634171439 6.324597784e-18)
(1.2284858 -0.1419048732 -2.175268641e-18)
(1.208495621 -0.1235667483 6.282320249e-18)
(1.186958312 -0.1076918487 1.407450477e-18)
(1.170814862 -0.09373252789 -9.054784927e-18)
(1.152649134 -0.08155651993 -5.922237927e-19)
(1.138604655 -0.07044304076 -6.091288133e-18)
(1.122304151 -0.06073401994 1.431327031e-18)
(1.109166571 -0.05146438151 -1.71880775e-17)
(1.093673774 -0.04340519918 -1.357590731e-18)
(1.080573671 -0.03529341996 -1.600001215e-18)
(1.065096554 -0.02831922947 -2.268874371e-18)
(1.051358698 -0.02087515621 -7.49721358e-18)
(1.035218127 -0.01456180757 -7.312172803e-18)
(1.020628243 -0.007553014767 -7.062858628e-18)
(1.000742937 -0.0006103316023 -2.586662425e-18)
(1.823526573 -0.5421145677 -1.320062688e-18)
(1.686979332 -0.4435122111 7.07476385e-19)
(1.587993151 -0.367964318 -4.013065067e-18)
(1.50218278 -0.3077714313 2.34069513e-18)
(1.439839919 -0.2603810065 -3.024930233e-18)
(1.38314972 -0.2215391399 1.755368145e-18)
(1.341706121 -0.1901314327 2.554554511e-18)
(1.302027149 -0.1637790074 -4.481167915e-18)
(1.27282161 -0.1419153415 -6.068619156e-18)
(1.243375684 -0.1232335596 -9.339268532e-19)
(1.22146131 -0.1073083054 2.176779039e-18)
(1.198258274 -0.09352215209 9.805307035e-19)
(1.180650092 -0.08139955599 7.180194653e-18)
(1.161206755 -0.07082560999 -2.418527706e-18)
(1.145996154 -0.06117441144 3.813644462e-18)
(1.128676899 -0.05274285809 4.95076161e-18)
(1.11456667 -0.04469289589 1.315057128e-18)
(1.098228238 -0.03769410165 -1.475506567e-19)
(1.084276977 -0.03064964993 -3.868270241e-18)
(1.068068067 -0.02459308571 -6.198518525e-21)
(1.053549113 -0.01812848459 -3.552539315e-18)
(1.036746095 -0.012645816 1.648537173e-17)
(1.021420785 -0.006559221475 2.012847755e-18)
(1.000806994 -0.0005300272648 8.112819516e-18)
(1.879420071 -0.4531606351 2.834150504e-18)
(1.73270666 -0.3707376453 3.628634876e-18)
(1.625931285 -0.3075861532 6.302484963e-19)
(1.533914864 -0.2572701419 1.655109959e-18)
(1.466685925 -0.2176558516 3.180791864e-18)
(1.405991017 -0.185187436 4.210767803e-19)
(1.361309204 -0.1589333162 -2.337890022e-18)
(1.318913224 -0.1369049851 -7.863808147e-19)
(1.287453484 -0.1186288554 3.118717616e-18)
(1.256081413 -0.1030125142 6.113239263e-19)
(1.232525105 -0.08970038208 4.498835234e-18)
(1.207900677 -0.07817636121 -1.477128739e-18)
(1.189042624 -0.0680429211 -6.963217678e-19)
(1.168509082 -0.05920402834 -4.435724464e-18)
(1.152303418 -0.05113646259 1.171703594e-18)
(1.134114845 -0.04408842646 3.874932181e-18)
(1.119174647 -0.03735935636 2.28669691e-19)
(1.10211462 -0.03150898242 5.585316922e-19)
(1.08743706 -0.02562042962 2.491686752e-18)
(1.070603699 -0.02055767447 2.359082535e-18)
(1.05541823 -0.01515382478 -1.426135397e-18)
(1.038049935 -0.01057080078 -4.491067963e-18)
(1.022097084 -0.005482931258 2.397061268e-18)
(1.000861661 -0.0004430649176 2.597511227e-18)
(1.925002442 -0.3585079572 2.678221592e-18)
(1.769998304 -0.2933008279 -1.279260633e-18)
(1.656870667 -0.2433399233 -5.810908571e-19)
(1.559793081 -0.2035335221 1.056790067e-18)
(1.488579433 -0.1721935604 2.102635408e-18)
(1.424618601 -0.1465068859 -2.077143073e-18)
(1.37729595 -0.1257365335 1.491749297e-19)
(1.332684194 -0.1083092974 -1.519648262e-19)
(1.299386101 -0.09385055559 8.624737418e-19)
(1.266443218 -0.08149602191 -1.726071105e-18)
(1.241547873 -0.07096443782 -1.409587925e-18)
(1.215764272 -0.06184745272 9.360001531e-19)
(1.19588692 -0.05383062019 3.049345256e-19)
(1.174464294 -0.04683791665 -9.527133908e-19)
(1.157447132 -0.04045545554 4.04899334e-18)
(1.138549615 -0.03487955161 -3.07421773e-18)
(1.122932556 -0.02955601243 -3.475519069e-18)
(1.105284055 -0.02492761258 2.103461184e-18)
(1.090014179 -0.02026902785 2.714332796e-19)
(1.072671566 -0.0162637324 3.821030401e-19)
(1.056942535 -0.01198860791 -1.829497971e-18)
(1.039113247 -0.008362845826 3.629819634e-18)
(1.022648617 -0.004337699002 -3.671443745e-18)
(1.000906245 -0.0003505210632 -3.342535333e-18)
(1.959700467 -0.2593468095 2.813961175e-18)
(1.798385289 -0.2121755834 -8.668449156e-20)
(1.680422209 -0.1760335353 -3.239182823e-19)
(1.579491981 -0.1472373531 7.173017895e-19)
(1.505245112 -0.1245658178 1.206300418e-18)
(1.438798204 -0.1059839297 2.795071984e-19)
(1.38946531 -0.0909585242 8.879066556e-19)
(1.343166867 -0.07835155929 -5.121439794e-19)
(1.308469394 -0.06789201384 5.668325671e-19)
(1.274330782 -0.05895467163 -6.046516406e-19)
(1.248416144 -0.05133605802 2.193244199e-18)
(1.221750159 -0.04474077879 1.931900966e-19)
(1.201096903 -0.03894135201 1.132941161e-19)
(1.17899749 -0.03388279378 1.876775645e-18)
(1.161362606 -0.02926568231 1.496513268e-18)
(1.141925426 -0.02523204946 -4.085520803e-19)
(1.125793135 -0.02138096954 -8.361165483e-19)
(1.107696677 -0.01803276643 -3.891282264e-19)
(1.091975924 -0.01466271564 9.235536465e-19)
(1.074245657 -0.01176526541 -8.878783028e-19)
(1.058102863 -0.008672610737 -1.552593021e-18)
(1.039922658 -0.006049722537 -1.330528132e-18)
(1.023068458 -0.003137903014 1.149180568e-18)
(1.000940185 -0.0002535733813 -2.671871054e-18)
(1.983077789 -0.1569242281 1.607412835e-18)
(1.817510642 -0.1283820915 4.012918789e-19)
(1.696289744 -0.1065134318 -6.934541963e-19)
(1.592763856 -0.08908957804 1.567955543e-19)
(1.516473393 -0.07537159831 8.861586489e-19)
(1.448351526 -0.06412815622 3.876598058e-19)
(1.397664257 -0.05503667055 6.559494082e-19)
(1.350229433 -0.04740849812 -1.351085228e-19)
(1.314589145 -0.04107970269 1.079863437e-18)
(1.279644927 -0.03567192578 1.877995097e-20)
(1.253043554 -0.0310621097 5.447256835e-19)
(1.225783074 -0.02707145722 6.743164855e-19)
(1.204607063 -0.02356238541 3.069818784e-19)
(1.182051674 -0.0205015684 3.006676646e-19)
(1.164000608 -0.01770788749 1.062401392e-18)
(1.14419984 -0.01526723245 -7.699974935e-20)
(1.127720417 -0.01293705949 -9.772253737e-19)
(1.109322156 -0.010911141 -5.347043601e-19)
(1.09329763 -0.008872023231 2.971637482e-19)
(1.075306187 -0.007118839569 -1.40987555e-18)