/*--------------------------------*- C++ -*----------------------------------*\
| =========                 |                                                 |
| \\      /  F ield         | foam-extend: Open Source CFD                    |
|  \\    /   O peration     | Version:  3.0                                   |
|   \\  /    A nd           | Web:         http://www.extend-project.de       |
|    \\/     M anipulation  |                                                 |
\*---------------------------------------------------------------------------*/
FoamFile
{
    version     2.0;
    format      ascii;
    class       volVectorField;
    location    "3.3";
    object      s;
}
// * * * * * * * * * * * * * * * * * * * * * * * * * * * * * * * * * * * * * //

dimensions      [0 0 0 0 0 0 0];

internalField   nonuniform List<vector> 
400
(
(-0.00284588 0.00168949 3.23742e-318)
(-0.00422798 0.00275582 5.58616e-318)
(-0.00699931 0.00314284 6.33433e-318)
(-0.00882132 0.00301284 6.41938e-318)
(-0.0109118 0.00261489 6.22107e-318)
(-0.0124478 0.00215119 5.91251e-318)
(-0.0138541 0.00152348 5.51119e-318)
(-0.0148339 0.000887916 5.11278e-318)
(-0.0155472 0.000158785 4.64573e-318)
(-0.0158914 -0.000585714 4.2101e-318)
(-0.0158846 -0.00138792 3.71407e-318)
(-0.0155296 -0.00218464 3.26366e-318)
(-0.0147328 -0.00302156 2.76787e-318)
(-0.0136054 -0.00378581 2.32793e-318)
(-0.0119408 -0.00457551 1.86793e-318)
(-0.0100506 -0.00518218 1.45724e-318)
(-0.00752264 -0.00571559 1.06668e-318)
(-0.00520182 -0.00592526 6.90225e-319)
(-0.00200449 -0.00536976 3.7214e-319)
(-0.000444708 -0.00348343 6.17681e-320)
(-0.0028122 0.00180299 3.21909e-318)
(-0.00544405 0.00409018 6.58947e-318)
(-0.00931844 0.00525498 8.22837e-318)
(-0.0122726 0.00544904 8.95945e-318)
(-0.0155009 0.00500438 9.11406e-318)
(-0.0179333 0.00420657 9.00128e-318)
(-0.0201494 0.00312957 8.63183e-318)
(-0.0216808 0.00195995 8.18273e-318)
(-0.0227811 0.000674942 7.57396e-318)
(-0.0232725 -0.000634771 6.95433e-318)
(-0.0232086 -0.00200861 6.22215e-318)
(-0.0225765 -0.00337843 5.52043e-318)
(-0.0212731 -0.00477365 4.74357e-318)
(-0.0194638 -0.00606852 4.02881e-318)
(-0.0168855 -0.00726101 3.27472e-318)
(-0.0140267 -0.00810404 2.59447e-318)
(-0.0103946 -0.00848903 1.91155e-318)
(-0.00708669 -0.00805694 1.27996e-318)
(-0.00316599 -0.00633807 6.85042e-319)
(-0.000589257 -0.00297333 1.45838e-319)
(-0.00250779 0.00469269 2.40755e-318)
(-0.00517702 0.00970031 5.54043e-318)
(-0.00910145 0.0118256 7.40888e-318)
(-0.0122266 0.012226 8.47116e-318)
(-0.0156035 0.0113081 8.92509e-318)
(-0.0181537 0.00974341 9.01562e-318)
(-0.0205067 0.0076049 8.78953e-318)
(-0.0221264 0.00523927 8.405e-318)
(-0.0233263 0.00262076 7.8347e-318)
(-0.0238806 -8.89902e-05 7.20663e-318)
(-0.0238599 -0.0029277 6.46536e-318)
(-0.0232494 -0.00576593 5.72695e-318)
(-0.0219123 -0.00861961 4.92926e-318)
(-0.0200633 -0.0112444 4.18167e-318)
(-0.0173618 -0.0136122 3.42494e-318)
(-0.0143781 -0.0152201 2.75431e-318)
(-0.010561 -0.015952 2.12463e-318)
(-0.00702936 -0.0149575 1.58982e-318)
(-0.0030097 -0.011873 1.08479e-318)
(-0.000288287 -0.005479 5.31896e-319)
(-0.00245125 0.00573308 1.30963e-318)
(-0.00462386 0.0123749 3.67037e-318)
(-0.00817175 0.0151485 5.41758e-318)
(-0.0107238 0.0157076 6.62785e-318)
(-0.0136444 0.0144923 7.32998e-318)
(-0.015685 0.012459 7.66764e-318)
(-0.01766 0.00973159 7.67895e-318)
(-0.0189586 0.00673675 7.47923e-318)
(-0.0199843 0.00346355 7.08039e-318)
(-0.020485 7.93102e-05 6.57555e-318)
(-0.0205526 -0.00346087 5.95902e-318)
(-0.0201746 -0.0070308 5.31003e-318)
(-0.0191704 -0.0106458 4.61404e-318)
(-0.0177859 -0.0140211 3.94241e-318)
(-0.0155505 -0.0170945 3.27464e-318)
(-0.0131221 -0.0191938 2.66911e-318)
(-0.00970377 -0.0201586 2.09762e-318)
(-0.00662196 -0.0187129 1.58633e-318)
(-0.00274745 -0.0146559 1.07037e-318)
(-0.000284525 -0.00628606 4.71788e-319)
(-0.00251755 0.00770676 8.54585e-319)
(-0.00408176 0.0162441 2.6692e-318)
(-0.00733939 0.0196172 4.16249e-318)
(-0.0092516 0.02017 5.28947e-318)
(-0.0117022 0.018541 6.0157e-318)
(-0.013202 0.0159286 6.4147e-318)
(-0.0148038 0.0125136 6.51923e-318)
(-0.015795 0.00878342 6.41287e-318)
(-0.0166798 0.00473356 6.11755e-318)
(-0.0171676 0.000533415 5.70597e-318)
(-0.0173697 -0.00387165 5.18661e-318)
(-0.0172784 -0.00835783 4.62056e-318)
(-0.0166539 -0.0129457 4.00658e-318)
(-0.0157972 -0.0173093 3.39666e-318)
(-0.0140577 -0.0213675 2.78465e-318)
(-0.0122452 -0.0242751 2.2106e-318)
(-0.0091759 -0.0258196 1.66364e-318)
(-0.00657502 -0.024266 1.16248e-318)
(-0.00258257 -0.0193591 6.81944e-319)
(-0.000495262 -0.00850435 2.20803e-319)
(-0.00271991 0.00918399 4.08612e-319)
(-0.00358743 0.018915 1.71201e-318)
(-0.00645552 0.0225439 2.95704e-318)
(-0.00752908 0.0228793 3.98524e-318)
(-0.0093391 0.0208629 4.71477e-318)
(-0.0101274 0.0178118 5.16936e-318)
(-0.0112112 0.01399 5.3639e-318)
(-0.0117826 0.00987335 5.35418e-318)
(-0.0124465 0.00546654 5.16844e-318)
(-0.0128866 0.000893586 4.86036e-318)
(-0.0132324 -0.00391837 4.45292e-318)
(-0.0134887 -0.00889412 3.9913e-318)
(-0.0133548 -0.0140732 3.4897e-318)
(-0.0131886 -0.0191504 2.98457e-318)
(-0.012139 -0.0240322 2.48132e-318)
(-0.0111819 -0.0277748 2.00582e-318)
(-0.00865243 -0.0300793 1.55031e-318)
(-0.00676474 -0.0287801 1.12559e-318)
(-0.00263795 -0.0234122 7.0849e-319)
(-0.000975566 -0.0104486 2.74118e-319)
(-0.00284849 0.0109698 4.20741e-319)
(-0.00289355 0.0216004 1.4928e-318)
(-0.00533295 0.0253671 2.5046e-318)
(-0.00555479 0.0253074 3.35044e-318)
(-0.00676035 0.0229364 3.96872e-318)
(-0.00688656 0.0194668 4.36132e-318)
(-0.00750217 0.0153356 4.54318e-318)
(-0.00769442 0.0109165 4.54944e-318)
(-0.00815625 0.00625765 4.40605e-318)
(-0.00854644 0.00140386 4.15207e-318)
(-0.00901196 -0.0037195 3.80992e-318)
(-0.00957676 -0.0091124 3.41352e-318)
(-0.0098862 -0.0148206 2.97801e-318)
(-0.0103758 -0.0206145 2.528e-318)
(-0.00998272 -0.0263569 2.07107e-318)
(-0.0099162 -0.0311319 1.621e-318)
(-0.00791901 -0.0344271 1.18003e-318)
(-0.00690662 -0.0338856 7.53267e-319)
(-0.00257335 -0.0283607 3.53183e-319)
(-0.00162056 -0.0134496 2.97428e-320)
(-0.00270717 0.0122475 3.03994e-319)
(-0.00198828 0.0232175 1.16538e-318)
(-0.00373848 0.0269886 2.01711e-318)
(-0.00313399 0.0264576 2.74867e-318)
(-0.00365899 0.023854 3.29967e-318)
(-0.00314728 0.0200988 3.66552e-318)
(-0.00326308 0.0158766 3.84988e-318)
(-0.00307005 0.011384 3.87955e-318)
(-0.00329043 0.0067427 3.7783e-318)
(-0.00359091 0.0018857 3.57673e-318)
(-0.00412542 -0.00325266 3.29922e-318)
(-0.00494311 -0.00877908 2.97385e-318)
(-0.00566103 -0.0147377 2.61836e-318)
(-0.00677037 -0.0210384 2.25395e-318)
(-0.00706633 -0.0274715 1.88932e-318)
(-0.00791558 -0.033279 1.53483e-318)
(-0.00660819 -0.037625 1.18658e-318)
(-0.00656176 -0.038156 8.44131e-319)
(-0.00232965 -0.0327363 5.0248e-319)
(-0.0020762 -0.0162245 1.60082e-319)
(-0.00228629 0.0130521 4.32194e-319)
(-0.000892001 0.024014 1.23879e-318)
(-0.00176547 0.0277939 1.95151e-318)
(-0.000427485 0.0268223 2.53816e-318)
(-0.000265609 0.024146 2.97522e-318)
(0.000807262 0.0202145 3.258e-318)
(0.00117459 0.0160502 3.3961e-318)
(0.00173163 0.0116047 3.40721e-318)
(0.00177895 0.00711877 3.31139e-318)
(0.00162045 0.00239103 3.13282e-318)
(0.00110137 -0.00261013 2.89166e-318)
(0.000145895 -0.00811777 2.60987e-318)
(-0.000866721 -0.0141488 2.30401e-318)
(-0.00247153 -0.0208122 1.9888e-318)
(-0.00338986 -0.0277675 1.67229e-318)
(-0.00512125 -0.034588 1.35647e-318)
(-0.0045811 -0.039934 1.04212e-318)
(-0.00565027 -0.0418562 7.16356e-319)
(-0.00176316 -0.0367425 3.8257e-319)
(-0.00245528 -0.0192138 6.08887e-320)
(-0.00153349 0.0132014 3.90272e-319)
(0.000252355 0.0238048 1.11671e-318)
(0.000527616 0.02753 1.75417e-318)
(0.00243022 0.0262217 2.27354e-318)
(0.00334744 0.0236053 2.65472e-318)
(0.00489451 0.0196369 2.90123e-318)
(0.00576729 0.0156748 3.01883e-318)
(0.00667427 0.0114207 3.02551e-318)
(0.00703517 0.00724355 2.93941e-318)
(0.00707918 0.0028105 2.78321e-318)
(0.00666942 -0.00186889 2.57675e-318)
(0.00570742 -0.00715507 2.34028e-318)
(0.0045212 -0.0130307 2.09068e-318)
(0.0025942 -0.0198309 1.84289e-318)
(0.0011132 -0.0270729 1.60541e-318)
(-0.00134137 -0.0347485 1.38181e-318)
(-0.00174375 -0.0409921 1.16464e-318)
(-0.00380877 -0.0443826 9.36116e-319)
(-0.000898283 -0.0398391 6.62542e-319)
(-0.00225715 -0.0216729 2.8018e-319)
(-0.000694809 0.0125982 4.86343e-319)
(0.00128983 0.0226833 1.20982e-318)
(0.00278792 0.0263315 1.77538e-318)
(0.00512998 0.0248565 2.20643e-318)
(0.00681472 0.0224218 2.50879e-318)
(0.00877482 0.0185492 2.69023e-318)
(0.0101558 0.0148934 2.76498e-318)
(0.0114055 0.0109289 2.74747e-318)
(0.0121168 0.00715216 2.65473e-318)
(0.0124264 0.00311497 2.5069e-318)
(0.0122252 -0.00112323 2.32067e-318)
(0.0113995 -0.00603694 2.1136e-318)
(0.0101895 -0.0115602 1.90104e-318)
(0.00812505 -0.0182624 1.69465e-318)
(0.00619615 -0.0254924 1.50381e-318)
(0.00312764 -0.0337541 1.32687e-318)
(0.00170896 -0.0405762 1.16011e-318)
(-0.00147341 -0.0453885 9.71234e-319)
(0.000169041 -0.0414219 7.18905e-319)
(-0.00215728 -0.0233905 3.1679e-319)
(0.000158124 0.0116304 4.31552e-319)
(0.00208998 0.020962 1.12391e-318)
(0.00487316 0.0244109 1.66479e-318)
(0.00749939 0.0228976 2.06755e-318)
(0.00997588 0.0206876 2.33522e-318)
(0.0122643 0.017025 2.48749e-318)
(0.014149 0.013738 2.53927e-318)
(0.0157089 0.0101443 2.50939e-318)
(0.0167872 0.00682943 2.41488e-318)
(0.0174024 0.00326696 2.27517e-318)
(0.0174924 -0.000444254 2.10745e-318)
(0.0169437 -0.00485886 1.9282e-318)
(0.0158673 -0.00987385 1.75272e-318)
(0.0139168 -0.016253 1.59392e-318)
(0.011696 -0.0232323 1.46171e-318)
(0.00834854 -0.0317782 1.35856e-318)
(0.00582978 -0.0390271 1.27533e-318)
(0.00191442 -0.0451333 1.17982e-318)
(0.00154725 -0.0422279 9.92005e-319)
(-0.00117742 -0.024896 5.49198e-319)
(0.000878532 0.0102063 4.60444e-319)
(0.00267501 0.0187327 1.16858e-318)
(0.00655309 0.0218336 1.67563e-318)
(0.00937727 0.0204283 2.02472e-318)
(0.012562 0.0184582 2.23833e-318)
(0.0151157 0.0151169 2.34242e-318)
(0.0174488 0.0122392 2.36032e-318)
(0.0192759 0.0090792 2.30947e-318)
(0.0207004 0.00625577 2.20762e-318)
(0.0216305 0.00321354 2.07035e-318)
(0.0220609 7.66809e-05 1.91436e-318)
(0.0218852 -0.00374305 1.75374e-318)
(0.0210814 -0.00811202 1.60233e-318)
(0.0194241 -0.0139254 1.47166e-318)
(0.0170996 -0.0203327 1.37067e-318)
(0.0136221 -0.028708 1.29875e-318)
(0.0101114 -0.0358475 1.24816e-318)
(0.00528684 -0.042769 1.1815e-318)
(0.00297256 -0.040485 1.01225e-318)
(-0.000906 -0.0244723 5.75162e-319)
(0.0011942 0.00863112 4.14076e-319)
(0.00287198 0.0162086 1.12257e-318)
(0.00766723 0.0189493 1.6124e-318)
(0.0106491 0.0176904 1.93378e-318)
(0.014464 0.0159725 2.11118e-318)
(0.0171944 0.0130164 2.18555e-318)
(0.0198854 0.0105667 2.1797e-318)
(0.0218934 0.00787114 2.11553e-318)
(0.0235991 0.00553929 2.00853e-318)
(0.0248131 0.00302373 1.87491e-318)
(0.0255964 0.000461004 1.72931e-318)
(0.0258713 -0.00272785 1.5849e-318)
(0.0254748 -0.00639614 1.45522e-318)
(0.024363 -0.0114909 1.35135e-318)
(0.0221874 -0.0171657 1.28227e-318)
(0.0190768 -0.0250502 1.24887e-318)
(0.0147303 -0.0319644 1.2401e-318)
(0.00978862 -0.0395335 1.22423e-318)
(0.00483245 -0.03864 1.09515e-318)
(0.000986288 -0.0250302 6.67048e-319)
(0.00165479 0.00729402 4.12243e-319)
(0.00293828 0.0136994 1.13591e-318)
(0.00831568 0.0157697 1.58599e-318)
(0.0112867 0.014714 1.85059e-318)
(0.0154958 0.0132044 1.97871e-318)
(0.0182676 0.0107186 2.01423e-318)
(0.021151 0.00869986 1.98469e-318)
(0.0232209 0.00649742 1.9086e-318)
(0.0250933 0.00463613 1.79969e-318)
(0.0265041 0.0026346 1.67164e-318)
(0.0275904 0.000615738 1.53692e-318)
(0.0282883 -0.00193303 1.40702e-318)
(0.0283537 -0.00487347 1.29367e-318)
(0.0278461 -0.0090969 1.20562e-318)
(0.0260337 -0.0138189 1.14964e-318)
(0.0233707 -0.0207228 1.12331e-318)
(0.0185996 -0.0267725 1.11446e-318)
(0.0132322 -0.0340233 1.08847e-318)
(0.0064614 -0.0333269 9.49041e-319)
(0.00112686 -0.0216583 5.54569e-319)
(0.00106743 0.00540356 5.26042e-319)
(0.00259941 0.0109956 1.21681e-318)
(0.00827078 0.0126446 1.58164e-318)
(0.0113675 0.0117662 1.76753e-318)
(0.0158179 0.0105129 1.83635e-318)
(0.0185226 0.00849484 1.83296e-318)
(0.0214225 0.00691116 1.77996e-318)
(0.0234125 0.00518447 1.69264e-318)
(0.0253061 0.00376424 1.58187e-318)
(0.0268088 0.00223133 1.45829e-318)
(0.0281139 0.000707262 1.3329e-318)
(0.0292103 -0.00124736 1.21446e-318)
(0.0297696 -0.00349219 1.11363e-318)
(0.0300283 -0.00682589 1.03818e-318)
(0.0288155 -0.0105566 9.93586e-319)
(0.027173 -0.0163315 9.78047e-319)
(0.0223224 -0.0215042 9.75982e-319)
(0.0178975 -0.0285282 9.60592e-319)
(0.00859367 -0.0291268 8.35796e-319)
(0.00447667 -0.0215911 4.80474e-319)
(0.00134111 0.00482866 4.57658e-319)
(0.00194351 0.00853741 1.08786e-318)
(0.00754995 0.00941032 1.3856e-318)
(0.0102604 0.00871693 1.51341e-318)
(0.0145005 0.00772154 1.55178e-318)
(0.0168809 0.00626332 1.5342e-318)
(0.0195205 0.00510501 1.48136e-318)
(0.0212558 0.00385959 1.40297e-318)
(0.0229868 0.00282479 1.30745e-318)
(0.0243987 0.00171083 1.203e-318)
(0.0257621 0.000595491 1.09848e-318)
(0.0270263 -0.000827492 1.00097e-318)
(0.0279597 -0.00246497 9.19179e-319)
(0.0287207 -0.00489295 8.58563e-319)
(0.0281985 -0.00761835 8.22323e-319)
(0.0272922 -0.0118849 8.05717e-319)
(0.0231 -0.01571 7.91464e-319)
(0.0189104 -0.0209944 7.48613e-319)
(0.00947432 -0.0210348 6.04524e-319)
(0.00372474 -0.0143768 2.89117e-319)
(-4.78911e-05 0.00289256 8.89145e-319)
(0.00149246 0.00629688 1.30151e-318)
(0.00688002 0.00667645 1.3998e-318)
(0.00951547 0.00617209 1.39171e-318)
(0.0134896 0.005421 1.35343e-318)
(0.015414 0.00439852 1.29368e-318)
(0.0176567 0.00363643 1.22076e-318)
(0.018994 0.00279393 1.13522e-318)
(0.0204223 0.00212394 1.0422e-318)
(0.0216456 0.00136795 9.45083e-319)
(0.0229214 0.00064239 8.50252e-319)
(0.0243093 -0.000321737 7.62882e-319)
(0.025484 -0.00137533 6.89345e-319)
(0.02686 -0.00301334 6.34257e-319)
(0.0270005 -0.00475664 6.00156e-319)
(0.0274464 -0.00776016 5.84618e-319)
(0.0239441 -0.0103253 5.7151e-319)
(0.0220468 -0.0148935 5.39292e-319)
(0.0109629 -0.0157077 4.2585e-319)
(0.0092649 -0.0147628 1.80596e-319)
(-1.53931e-05 0.0029994 3.16385e-319)
(-3.88014e-05 0.00353583 6.223e-319)
(0.00397127 0.00363307 7.29705e-319)
(0.00551102 0.003366 7.5762e-319)
(0.0081498 0.00303708 7.60886e-319)
(0.0093336 0.00261921 7.4474e-319)
(0.0107262 0.00222856 7.16983e-319)
(0.0115387 0.00180915 6.77819e-319)
(0.012435 0.00140822 6.31757e-319)
(0.0131987 0.000968393 5.81594e-319)
(0.0141141 0.000498045 5.31941e-319)
(0.015041 -7.68202e-05 4.86605e-319)
(0.0160757 -0.00074298 4.4916e-319)
(0.0170765 -0.00163567 4.22703e-319)
(0.0176706 -0.00265492 4.07881e-319)
(0.0180722 -0.00406188 4.00198e-319)
(0.0164396 -0.00545078 3.86784e-319)
(0.0147333 -0.00696518 3.46468e-319)
(0.00803426 -0.00698968 2.44365e-319)
(0.00438928 -0.00298296 5.63679e-320)
(-0.000775484 0.00133516 9.86051e-319)
(0.000519978 0.00266275 8.28252e-319)
(0.00362406 0.00219514 6.89301e-319)
(0.00439161 0.00205558 5.79139e-319)
(0.00626104 0.00180045 5.14678e-319)
(0.00656248 0.00151779 4.61235e-319)
(0.00737208 0.00140995 4.15346e-319)
(0.00759117 0.00121526 3.70416e-319)
(0.00804 0.00115188 3.26212e-319)
(0.00843841 0.000989348 2.82937e-319)
(0.00893004 0.000930228 2.41717e-319)
(0.0096906 0.000728427 2.04019e-319)
(0.0103316 0.000649202 1.71485e-319)
(0.0115545 0.000300009 1.45952e-319)
(0.0120142 0.00018537 1.28931e-319)
(0.0136232 -0.000583366 1.20419e-319)
(0.0124264 -0.000696876 1.15147e-319)
(0.014088 -0.00267014 1.07558e-319)
(0.00708191 -0.00251613 7.0014e-320)
(0.01079 -0.00726685 -1.31965e-320)
)
;

boundaryField
{
    cavity
    {
        type            myHeatFlux;
        ThetaWall       uniform 0;
        value           nonuniform List<vector> 
60
(
(0.001 0 0)
(0.001 0 0)
(0.001 0 0)
(0.001 0 0)
(0.001 0 0)
(0.001 0 0)
(0.001 0 0)
(0.001 0 0)
(0.001 0 0)
(0.001 0 0)
(0.001 0 0)
(0.001 0 0)
(0.001 0 0)
(0.001 0 0)
(0.001 0 0)
(0.001 0 0)
(0.001 0 0)
(0.001 0 0)
(0.001 0 0)
(0.001 0 0)
(0 -0.001 0)
(0 -0.001 0)
(0 -0.001 0)
(0 -0.001 0)
(0 -0.001 0)
(0 -0.001 0)
(0 -0.001 0)
(0 -0.001 0)
(0 -0.001 0)
(0 -0.001 0)
(0 -0.001 0)
(0 -0.001 0)
(0 -0.001 0)
(0 -0.001 0)
(0 -0.001 0)
(0 -0.001 0)
(0 -0.001 0)
(0 -0.001 0)
(0 -0.001 0)
(0 -0.001 0)
(-0.001 0 0)
(-0.001 0 0)
(-0.001 0 0)
(-0.001 0 0)
(-0.001 0 0)
(-0.001 0 0)
(-0.001 0 0)
(-0.001 0 0)
(-0.001 0 0)
(-0.001 0 0)
(-0.001 0 0)
(-0.001 0 0)
(-0.001 0 0)
(-0.001 0 0)
(-0.001 0 0)
(-0.001 0 0)
(-0.001 0 0)
(-0.001 0 0)
(-0.001 0 0)
(-0.001 0 0)
)
;
    }
    lid
    {
        type            myHeatFlux;
        ThetaWall       uniform 0;
        value           nonuniform List<vector> 
20
(
(0.000135815 0.0009 0)
(0.000135815 0.0009 0)
(0.000135815 0.0009 0)
(0.000135815 0.0009 0)
(0.000135815 0.0009 0)
(0.000135815 0.0009 0)
(0.000135815 0.0009 0)
(0.000135815 0.0009 0)
(0.000135815 0.0009 0)
(0.000135815 0.0009 0)
(0.000135815 0.0009 0)
(0.000135815 0.0009 0)
(0.000135815 0.0009 0)
(0.000135815 0.0009 0)
(0.000135815 0.0009 0)
(0.000135815 0.0009 0)
(0.000135815 0.0009 0)
(0.000135815 0.0009 0)
(0.000135815 0.0009 0)
(0.000135815 0.0009 0)
)
;
    }
    frontAndBack
    {
        type            empty;
    }
}


// ************************************************************************* //
