/*--------------------------------*- C++ -*----------------------------------*\
| =========                 |                                                 |
| \\      /  F ield         | foam-extend: Open Source CFD                    |
|  \\    /   O peration     | Version:  3.0                                   |
|   \\  /    A nd           | Web:         http://www.extend-project.de       |
|    \\/     M anipulation  |                                                 |
\*---------------------------------------------------------------------------*/
FoamFile
{
    version     2.0;
    format      ascii;
    class       volVectorField;
    location    "24";
    object      u;
}
// * * * * * * * * * * * * * * * * * * * * * * * * * * * * * * * * * * * * * //

dimensions      [0 0 0 0 0 0 0];

internalField   nonuniform List<vector> 
576
(
(0.0523782 -0.0281108 2.57266e-20)
(0.138125 -0.0360104 3.81351e-19)
(0.25468 -0.0493483 -5.54858e-19)
(0.38581 -0.0526751 -7.60813e-19)
(0.496476 -0.0550941 -2.04944e-19)
(0.617952 -0.0538697 4.20643e-19)
(0.709036 -0.0513712 3.07937e-19)
(0.808159 -0.0461748 2.50755e-19)
(0.870911 -0.0400528 -1.51148e-19)
(0.942459 -0.030832 -7.09462e-20)
(0.969403 -0.020908 5.18084e-19)
(1.00733 -0.0074617 -7.72443e-20)
(0.0669305 -0.0824288 3.96968e-19)
(0.156761 -0.105582 -4.4243e-18)
(0.280234 -0.144719 -2.79958e-18)
(0.413083 -0.154477 -8.19171e-19)
(0.525011 -0.161595 1.50792e-18)
(0.645845 -0.158014 -1.8857e-19)
(0.735642 -0.150687 -4.47211e-19)
(0.832068 -0.135441 8.06203e-18)
(0.89166 -0.117498 6.33841e-18)
(0.958425 -0.0904306 1.44588e-18)
(0.980242 -0.0613529 -4.2935e-18)
(1.0112 -0.021884 -4.53937e-18)
(0.0950389 -0.131125 -5.61573e-19)
(0.192777 -0.167957 2.285e-18)
(0.329596 -0.230228 -7.55595e-19)
(0.465777 -0.245748 -6.23155e-18)
(0.58013 -0.257081 -2.93472e-18)
(0.699749 -0.251387 3.8582e-18)
(0.787044 -0.239734 8.27728e-18)
(0.878275 -0.21548 1.96228e-18)
(0.931744 -0.186936 1.02125e-17)
(0.989279 -0.143873 4.20255e-18)
(1.00117 -0.0976102 7.21253e-19)
(1.01866 -0.0348194 1.15388e-17)
(0.1348 -0.170887 -4.43892e-19)
(0.243712 -0.218888 1.10696e-18)
(0.399414 -0.300041 -3.11049e-18)
(0.540301 -0.320268 6.38758e-18)
(0.658096 -0.335044 -7.36947e-18)
(0.775988 -0.327624 -4.44106e-19)
(0.859749 -0.312438 -1.09942e-18)
(0.943627 -0.280827 1.11926e-17)
(0.988435 -0.243627 8.14574e-18)
(1.03291 -0.1875 1.12548e-17)
(1.03077 -0.127212 7.04027e-18)
(1.02922 -0.0453769 2.55529e-17)
(0.183495 -0.199001 -1.86176e-19)
(0.306086 -0.254902 -1.38335e-18)
(0.484914 -0.349413 5.50847e-19)
(0.631568 -0.372965 -9.85075e-19)
(0.753574 -0.390178 4.22572e-18)
(0.869354 -0.381537 -1.03145e-17)
(0.948787 -0.363854 -6.0018e-18)
(1.02366 -0.327042 -1.94636e-17)
(1.05786 -0.283719 -1.78659e-17)
(1.08635 -0.218355 -8.59712e-18)
(1.06702 -0.148145 -4.73149e-18)
(1.04216 -0.0528445 -2.9323e-17)
(0.23781 -0.213555 2.27565e-19)
(0.375662 -0.273544 1.77679e-18)
(0.580287 -0.374966 -1.53918e-19)
(0.733371 -0.400241 -3.98196e-18)
(0.860076 -0.418714 -9.93451e-19)
(0.973499 -0.409443 -2.04487e-18)
(1.0481 -0.390467 -7.90005e-18)
(1.11293 -0.350962 2.01775e-18)
(1.13531 -0.304471 -7.69346e-18)
(1.14595 -0.234324 -1.44952e-17)
(1.10746 -0.158981 2.2859e-18)
(1.05658 -0.0567089 -7.19117e-18)
(0.294038 -0.213554 6.1074e-19)
(0.447686 -0.273545 4.44427e-19)
(0.679017 -0.374969 7.89674e-18)
(0.838757 -0.400244 1.59712e-18)
(0.970327 -0.41872 5.61142e-19)
(1.08131 -0.409449 -1.63195e-18)
(1.15092 -0.390473 9.37948e-19)
(1.20534 -0.350968 4.79152e-18)
(1.21548 -0.304475 -2.48252e-18)
(1.20765 -0.234328 3.42816e-18)
(1.14932 -0.158983 -1.14555e-18)
(1.07152 -0.0567097 -4.86705e-18)
(0.348354 -0.198999 3.2854e-19)
(0.517263 -0.254903 1.08037e-18)
(0.774392 -0.349414 4.97935e-18)
(0.940561 -0.372965 -5.1995e-18)
(1.07683 -0.390183 8.37426e-18)
(1.18546 -0.381543 -6.07837e-18)
(1.25024 -0.363862 -4.1291e-18)
(1.29461 -0.327048 7.77893e-19)
(1.29293 -0.283725 -1.31201e-17)
(1.26725 -0.218358 5.98698e-18)
(1.18976 -0.148149 4.6087e-20)
(1.08594 -0.052845 1.24467e-17)
(0.397049 -0.170883 4.95287e-19)
(0.579638 -0.218889 9.11681e-19)
(0.859896 -0.300049 -3.29897e-18)
(1.03183 -0.320272 5.56405e-18)
(1.17231 -0.335059 -5.47915e-18)
(1.27883 -0.327639 8.24798e-18)
(1.33928 -0.312456 -2.47542e-18)
(1.37464 -0.280844 -1.6002e-17)
(1.36236 -0.24364 -1.48697e-17)
(1.32068 -0.187508 -5.23006e-18)
(1.22601 -0.127219 -1.27017e-17)
(1.09887 -0.0453787 1.24474e-17)
(0.436815 -0.131122 8.49254e-19)
(0.630574 -0.167959 2.15398e-18)
(0.92972 -0.230234 5.48409e-20)
(1.10636 -0.245749 3.90206e-18)
(1.25028 -0.257098 3.80997e-19)
(1.35507 -0.251402 5.2799e-18)
(1.41199 -0.239753 8.05477e-18)
(1.44 -0.215495 -2.97623e-18)
(1.41905 -0.186948 3.59903e-18)
(1.36432 -0.143877 6.05936e-18)
(1.25562 -0.0976179 5.48525e-18)
(1.10943 -0.0348195 -5.89815e-18)
(0.464927 -0.0824248 2.45641e-19)
(0.666584 -0.105582 -2.46158e-19)
(0.979085 -0.14473 1.87222e-18)
(1.15905 -0.154482 -3.07793e-18)
(1.30541 -0.161617 2.41476e-18)
(1.40897 -0.158036 -1.71229e-19)
(1.4634 -0.150713 -1.04983e-18)
(1.4862 -0.135463 7.33864e-18)
(1.45914 -0.117517 6.31708e-18)
(1.39516 -0.0904423 9.14752e-18)
(1.27655 -0.0613641 1.39691e-17)
(1.1169 -0.0218871 -2.02332e-18)
(0.479486 -0.02811 -3.74323e-20)
(0.685231 -0.0360093 -2.20535e-18)
(1.00465 -0.0493596 -1.52506e-18)
(1.18633 -0.0526825 2.50098e-18)
(1.33395 -0.0551191 -1.86377e-18)
(1.43689 -0.0538947 5.90032e-19)
(1.49002 -0.0513986 -1.60497e-18)
(1.51012 -0.046196 1.63735e-18)
(1.47989 -0.0400747 1.86378e-19)
(1.41114 -0.0308419 1.23733e-18)
(1.28739 -0.0209273 1.42071e-18)
(1.12076 -0.00746256 2.33664e-18)
(0.479484 0.0281205 -2.59222e-20)
(0.685227 0.0360162 1.73761e-18)
(1.00465 0.0493738 1.88888e-18)
(1.18633 0.0527038 2.08428e-18)
(1.33395 0.0551339 1.9789e-18)
(1.43689 0.0539163 -4.16506e-21)
(1.49002 0.0514168 2.61441e-18)
(1.51012 0.0462171 -3.4268e-18)
(1.47989 0.0400974 -3.42064e-18)
(1.41113 0.0308589 -4.56814e-18)
(1.28739 0.0209353 1.36612e-19)
(1.12076 0.00747045 1.1886e-18)
(0.464935 0.0824363 4.20505e-19)
(0.66659 0.10559 -1.35862e-18)
(0.979101 0.144746 -3.12121e-19)
(1.15906 0.154504 1.56438e-18)
(1.30543 0.161635 3.71791e-18)
(1.40899 0.158059 7.81106e-19)
(1.46341 0.150733 -5.225e-18)
(1.48621 0.135485 -3.04709e-18)
(1.45915 0.117541 -6.65028e-18)
(1.39517 0.0904595 -5.42415e-18)
(1.27656 0.0613731 8.04104e-19)
(1.1169 0.0218953 -4.52573e-18)
(0.436817 0.131133 1.45563e-19)
(0.630572 0.167965 -4.00219e-18)
(0.929732 0.230253 -5.17854e-19)
(1.10636 0.245771 -5.87732e-18)
(1.2503 0.257119 1.41158e-18)
(1.35508 0.251428 -7.01814e-19)
(1.412 0.239776 3.09343e-18)
(1.44 0.215518 8.93835e-19)
(1.41906 0.186973 3.46042e-18)
(1.36431 0.143894 2.33472e-18)
(1.25562 0.0976277 -1.49723e-20)
(1.10943 0.0348277 -1.03741e-17)
(0.397059 0.170896 -9.92174e-19)
(0.579644 0.218897 2.3841e-18)
(0.859922 0.300074 -3.34937e-18)
(1.03184 0.320295 -9.73698e-19)
(1.17234 0.335086 -7.7586e-18)
(1.27885 0.327668 5.8276e-18)
(1.33931 0.312483 1.02968e-17)
(1.37466 0.280869 6.74489e-18)
(1.36237 0.243666 1.76823e-17)
(1.32069 0.187525 1.26714e-17)
(1.22603 0.127231 -3.94474e-18)
(1.09887 0.0453878 4.94986e-18)
(0.34836 0.199011 -6.90344e-19)
(0.517265 0.254909 -1.36636e-18)
(0.774414 0.349443 -6.27778e-18)
(0.940573 0.372989 6.54667e-18)
(1.07686 0.390216 -1.26423e-18)
(1.18548 0.381577 3.35748e-18)
(1.25026 0.363893 2.84636e-18)
(1.29462 0.327078 5.95757e-18)
(1.29294 0.283754 1.16334e-17)
(1.26725 0.218376 1.00601e-17)
(1.18977 0.148164 3.62594e-18)
(1.08594 0.0528544 2.66457e-17)
(0.294047 0.213566 -7.01718e-19)
(0.447694 0.273552 -2.17248e-18)
(0.679045 0.375002 -1.60316e-18)
(0.838777 0.400269 -3.45412e-18)
(0.970363 0.418758 1.9115e-18)
(1.08134 0.409486 -4.28988e-18)
(1.15095 0.39051 -4.11102e-18)
(1.20536 0.351 -1.67706e-17)
(1.2155 0.304508 3.72395e-18)
(1.20765 0.234347 -6.50418e-18)
(1.14934 0.159001 2.11318e-19)
(1.07152 0.0567202 -9.12386e-18)
(0.237814 0.213565 -3.46534e-19)
(0.375665 0.27355 7.05088e-19)
(0.580308 0.375004 -1.3859e-18)
(0.733387 0.40027 -1.38909e-19)
(0.860106 0.418761 -4.27109e-18)
(0.97353 0.40949 5.81028e-19)
(1.04813 0.390513 -7.43469e-18)
(1.11294 0.351003 1.59434e-17)
(1.13533 0.304509 1.78847e-17)
(1.14595 0.234347 -8.80843e-18)
(1.10747 0.159003 5.62333e-18)
(1.05658 0.0567204 -4.88902e-18)
(0.1835 0.199013 -2.09988e-19)
(0.306093 0.254909 -1.17034e-18)
(0.484937 0.349454 7.52765e-18)
(0.63159 0.372996 -2.65169e-18)
(0.753606 0.390231 3.95409e-18)
(0.869389 0.38159 -6.0368e-18)
(0.948819 0.363907 5.29158e-18)
(1.02368 0.327088 1.32265e-17)
(1.05788 0.283762 -7.82508e-19)
(1.08635 0.218379 -6.6725e-18)
(1.06704 0.14817 -5.20891e-18)
(1.04216 0.052856 -2.18996e-17)
(0.134802 0.170897 -7.26524e-19)
(0.243716 0.218894 2.49333e-18)
(0.399427 0.300089 -9.86324e-19)
(0.540319 0.320303 -4.53572e-18)
(0.658119 0.335106 1.29653e-18)
(0.776017 0.327687 -8.58018e-18)
(0.859774 0.312501 6.36353e-20)
(0.943643 0.280882 2.71085e-18)
(0.988451 0.243677 -1.33661e-17)
(1.03291 0.187529 -7.66906e-18)
(1.03078 0.127241 -1.26034e-17)
(1.02922 0.0453895 -3.48706e-18)
(0.0950401 0.131137 1.44728e-19)
(0.192786 0.167964 -2.18164e-19)
(0.329608 0.230276 -1.02054e-18)
(0.465797 0.245784 4.69595e-18)
(0.580154 0.257148 -6.35028e-18)
(0.699779 0.251455 4.9492e-18)
(0.787068 0.239802 -2.15103e-18)
(0.878294 0.215538 -1.58146e-17)
(0.931759 0.186989 -1.24443e-17)
(0.989281 0.1439 -1.61501e-17)
(1.00118 0.0976408 -1.51152e-17)
(1.01866 0.0348304 1.97034e-17)
(0.0669239 0.0824393 7.67258e-19)
(0.156772 0.105586 3.70455e-18)
(0.280237 0.14477 1.7125e-18)
(0.413101 0.154515 -2.21645e-18)
(0.525021 0.161666 3.66626e-18)
(0.645868 0.158088 -1.28783e-18)
(0.735655 0.150761 8.59157e-19)
(0.832084 0.135506 -1.92467e-18)
(0.89167 0.117558 1.23508e-18)
(0.95843 0.0904646 -1.26586e-18)
(0.980246 0.0613876 -1.82267e-18)
(1.0112 0.0218978 -8.64012e-18)
(0.0523696 0.0281246 5.76483e-20)
(0.138131 0.0360141 1.86819e-19)
(0.254679 0.0493999 2.17917e-19)
(0.385822 0.0527184 -1.21908e-19)
(0.49648 0.0551687 -1.90545e-18)
(0.61796 0.0539494 6.54521e-19)
(0.70904 0.0514484 -1.20768e-18)
(0.808162 0.0462409 -4.80663e-19)
(0.870917 0.0401172 -2.34106e-18)
(0.942459 0.0308656 1.40306e-18)
(0.969409 0.0209521 -1.38282e-18)
(1.00733 0.00747323 -1.16885e-18)
(0.0523689 -0.0281065 -2.586e-20)
(0.138131 -0.0360127 -3.81333e-19)
(0.254675 -0.0493356 5.54763e-19)
(0.38582 -0.0526702 7.60712e-19)
(0.496475 -0.0550869 2.04839e-19)
(0.617956 -0.0538639 -4.20499e-19)
(0.709035 -0.051369 -3.07804e-19)
(0.808159 -0.0461738 -2.50564e-19)
(0.870914 -0.040056 1.51229e-19)
(0.942458 -0.0308364 7.08188e-20)
(0.969407 -0.0209104 -5.18191e-19)
(1.00733 -0.00746044 7.71725e-20)
(0.0669218 -0.0824215 -3.97068e-19)
(0.156773 -0.105585 4.42464e-18)
(0.280226 -0.144707 2.79962e-18)
(0.413095 -0.154468 8.19506e-19)
(0.525007 -0.161586 -1.50764e-18)
(0.645855 -0.158004 1.88918e-19)
(0.735642 -0.150684 4.47399e-19)
(0.832074 -0.13544 -8.06199e-18)
(0.891662 -0.117498 -6.33853e-18)
(0.958426 -0.0904359 -1.44587e-18)
(0.98024 -0.0613468 4.29347e-18)
(1.01119 -0.0218854 4.53937e-18)
(0.0950367 -0.131119 5.61412e-19)
(0.192787 -0.167962 -2.2851e-18)
(0.32959 -0.230217 7.55391e-19)
(0.465787 -0.245738 6.23144e-18)
(0.58013 -0.257073 2.93441e-18)
(0.699758 -0.251375 -3.85828e-18)
(0.787047 -0.239729 -8.27735e-18)
(0.878279 -0.215475 -1.96222e-18)
(0.931746 -0.186931 -1.02126e-17)
(0.989276 -0.143872 -4.20255e-18)
(1.00117 -0.0976017 -7.21358e-19)
(1.01866 -0.0348188 -1.15388e-17)
(0.134797 -0.170881 4.4383e-19)
(0.243717 -0.218892 -1.10701e-18)
(0.399403 -0.300035 3.11036e-18)
(0.540307 -0.32026 -6.38772e-18)
(0.658088 -0.335039 7.36947e-18)
(0.77599 -0.327614 4.443e-19)
(0.859746 -0.312434 1.09975e-18)
(0.943623 -0.280824 -1.11926e-17)
(0.988435 -0.243623 -8.14568e-18)
(1.03291 -0.187502 -1.12548e-17)
(1.03077 -0.127204 -7.04032e-18)
(1.02922 -0.0453789 -2.5553e-17)
(0.183494 -0.198997 1.86147e-19)
(0.306094 -0.254905 1.38322e-18)
(0.484909 -0.349406 -5.5087e-19)
(0.631575 -0.372956 9.85084e-19)
(0.75357 -0.390171 -4.2257e-18)
(0.869357 -0.381524 1.03145e-17)
(0.948787 -0.363847 6.00197e-18)
(1.02365 -0.327034 1.94637e-17)
(1.05787 -0.283712 1.78664e-17)
(1.08634 -0.218354 8.59724e-18)
(1.06702 -0.148137 4.73167e-18)
(1.04215 -0.0528466 2.93231e-17)
(0.237809 -0.213551 -2.2756e-19)
(0.375666 -0.273546 -1.77701e-18)
(0.580278 -0.374964 1.54039e-19)
(0.733371 -0.400234 3.98187e-18)
(0.860066 -0.418711 9.93615e-19)
(0.973495 -0.409432 2.04474e-18)
(1.0481 -0.390462 7.90021e-18)
(1.11292 -0.350955 -2.01805e-18)
(1.13531 -0.304464 7.69339e-18)
(1.14594 -0.234325 1.44952e-17)
(1.10746 -0.158973 -2.28583e-18)
(1.05658 -0.0567124 7.19113e-18)
(0.29404 -0.213552 -6.10726e-19)
(0.447693 -0.273546 -4.44539e-19)
(0.679013 -0.374968 -7.89674e-18)
(0.838759 -0.400236 -1.5972e-18)
(0.970321 -0.418717 -5.61116e-19)
(1.08131 -0.409437 1.6319e-18)
(1.15092 -0.390467 -9.37979e-19)
(1.20533 -0.350959 -4.7914e-18)
(1.21548 -0.304467 2.48261e-18)
(1.20764 -0.234326 -3.42825e-18)
(1.14932 -0.158975 1.14563e-18)
(1.07151 -0.0567136 4.867e-18)
(0.348354 -0.198999 -3.28496e-19)
(0.517265 -0.254903 -1.08056e-18)
(0.774384 -0.349417 -4.97911e-18)
(0.940556 -0.372961 5.19942e-18)
(1.07682 -0.390185 -8.37417e-18)
(1.18545 -0.381536 6.07814e-18)
(1.25023 -0.363859 4.12919e-18)
(1.2946 -0.327043 -7.77805e-19)
(1.29292 -0.283719 1.31205e-17)
(1.26724 -0.218357 -5.987e-18)
(1.18976 -0.148142 -4.59524e-20)
(1.08593 -0.0528492 -1.24471e-17)
(0.397052 -0.170884 -4.95249e-19)
(0.579641 -0.21889 -9.11752e-19)
(0.859893 -0.300053 3.2991e-18)
(1.03183 -0.320269 -5.56422e-18)
(1.17231 -0.335062 5.47923e-18)
(1.27882 -0.327634 -8.24802e-18)
(1.33928 -0.312455 2.47535e-18)
(1.37463 -0.280839 1.60019e-17)
(1.36235 -0.243635 1.48695e-17)
(1.32068 -0.187508 5.22994e-18)
(1.22601 -0.127212 1.27016e-17)
(1.09887 -0.0453836 -1.24475e-17)
(0.436813 -0.131124 -8.49253e-19)
(0.630571 -0.167959 -2.15398e-18)
(0.929711 -0.23024 -5.4889e-20)
(1.10635 -0.245749 -3.90192e-18)
(1.25027 -0.257103 -3.81209e-19)
(1.35506 -0.251402 -5.27991e-18)
(1.41198 -0.239755 -8.05469e-18)
(1.43998 -0.215495 2.97596e-18)
(1.41905 -0.186946 -3.59941e-18)
(1.36431 -0.143879 -6.05961e-18)
(1.25561 -0.0976118 -5.48605e-18)
(1.10943 -0.0348245 5.89847e-18)
(0.464929 -0.0824267 -2.45634e-19)
(0.666584 -0.105582 2.46215e-19)
(0.979081 -0.144735 -1.8721e-18)
(1.15904 -0.154481 3.07792e-18)
(1.3054 -0.161622 -2.41467e-18)
(1.40897 -0.158035 1.71234e-19)
(1.46339 -0.150716 1.04995e-18)
(1.48619 -0.135463 -7.3386e-18)
(1.45914 -0.117515 -6.31705e-18)
(1.39516 -0.0904449 -9.14749e-18)
(1.27655 -0.0613588 -1.3969e-17)
(1.1169 -0.0218925 2.02318e-18)
(0.479483 -0.0281126 3.74257e-20)
(0.685225 -0.0360101 2.20536e-18)
(1.00464 -0.0493659 1.52509e-18)
(1.18632 -0.0526852 -2.50094e-18)
(1.33394 -0.0551259 1.8637e-18)
(1.43687 -0.0538978 -5.90031e-19)
(1.49001 -0.0514032 1.60495e-18)
(1.51011 -0.0461989 -1.63734e-18)
(1.47989 -0.0400749 -1.86419e-19)
(1.41113 -0.0308459 -1.2373e-18)
(1.28738 -0.0209229 -1.42068e-18)
(1.12076 -0.00746821 -2.33666e-18)
(0.479482 0.0281181 2.59175e-20)
(0.685223 0.0360166 -1.73758e-18)
(1.00464 0.049369 -1.88882e-18)
(1.18632 0.0527038 -2.08423e-18)
(1.33395 0.0551294 -1.97887e-18)
(1.43688 0.0539161 4.16033e-21)
(1.49001 0.0514144 -2.61437e-18)
(1.51012 0.0462163 3.42678e-18)
(1.47989 0.0400987 3.42064e-18)
(1.41113 0.0308561 4.56813e-18)
(1.28739 0.0209402 -1.36594e-19)
(1.12076 0.00746519 -1.18859e-18)
(0.464932 0.0824324 -4.20551e-19)
(0.666583 0.105588 1.3587e-18)
(0.979092 0.144739 3.12224e-19)
(1.15905 0.1545 -1.56426e-18)
(1.30542 0.161628 -3.71785e-18)
(1.40898 0.158055 -7.81074e-19)
(1.4634 0.150728 5.22511e-18)
(1.4862 0.135481 3.04701e-18)
(1.45914 0.11754 6.65007e-18)
(1.39516 0.0904548 5.42401e-18)
(1.27655 0.0613766 -8.04146e-19)
(1.1169 0.0218896 4.5258e-18)
(0.436814 0.131129 -1.45583e-19)
(0.630566 0.167965 4.00213e-18)
(0.929725 0.230247 5.17826e-19)
(1.10635 0.245771 5.8773e-18)
(1.25029 0.257114 -1.41149e-18)
(1.35508 0.251427 7.01828e-19)
(1.412 0.239773 -3.09361e-18)
(1.44 0.215518 -8.93861e-19)
(1.41906 0.186974 -3.46065e-18)
(1.36431 0.143892 -2.33486e-18)
(1.25562 0.0976321 1.49621e-20)
(1.10943 0.0348231 1.03738e-17)
(0.397057 0.170891 9.92155e-19)
(0.579639 0.218895 -2.3841e-18)
(0.859915 0.300065 3.34947e-18)
(1.03184 0.320292 9.73594e-19)
(1.17234 0.335078 7.75859e-18)
(1.27885 0.327663 -5.82752e-18)
(1.3393 0.312478 -1.02964e-17)
(1.37465 0.280864 -6.74501e-18)
(1.36237 0.243666 -1.76822e-17)
(1.32068 0.18752 -1.26714e-17)
(1.22602 0.127234 3.94475e-18)
(1.09887 0.0453823 -4.95021e-18)
(0.348357 0.199005 6.90302e-19)
(0.517258 0.254907 1.36633e-18)
(0.774406 0.349434 6.27757e-18)
(0.940568 0.372988 -6.54655e-18)
(1.07685 0.390209 1.26394e-18)
(1.18548 0.381574 -3.35733e-18)
(1.25026 0.36389 -2.84625e-18)
(1.29462 0.327076 -5.95719e-18)
(1.29294 0.283754 -1.16325e-17)
(1.26725 0.218374 -1.00593e-17)
(1.18977 0.148167 -3.62594e-18)
(1.08594 0.0528505 -2.66448e-17)
(0.294047 0.213559 7.01698e-19)
(0.447689 0.273549 2.1723e-18)
(0.679042 0.37499 1.60303e-18)
(0.838777 0.400266 3.45396e-18)
(0.97036 0.418748 -1.91137e-18)
(1.08134 0.40948 4.28968e-18)
(1.15095 0.390505 4.11123e-18)
(1.20536 0.350994 1.67702e-17)
(1.2155 0.304507 -3.72415e-18)
(1.20765 0.234342 6.5043e-18)
(1.14933 0.159004 -2.11259e-19)
(1.07152 0.056716 9.12386e-18)
(0.237813 0.213557 3.46492e-19)
(0.375658 0.273547 -7.05104e-19)
(0.580304 0.37499 1.38569e-18)
(0.733383 0.400267 1.38846e-19)
(0.860101 0.418752 4.2709e-18)
(0.973526 0.409484 -5.80959e-19)
(1.04813 0.390508 7.43452e-18)
(1.11295 0.350999 -1.59434e-17)
(1.13533 0.30451 -1.78842e-17)
(1.14595 0.234346 8.80829e-18)
(1.10747 0.159006 -5.62317e-18)
(1.05659 0.0567192 4.889e-18)
(0.183503 0.199005 2.09988e-19)
(0.306089 0.254905 1.17018e-18)
(0.484939 0.349438 -7.52734e-18)
(0.63159 0.372994 2.6515e-18)
(0.753609 0.39022 -3.95397e-18)
(0.869391 0.381583 6.03658e-18)
(0.948823 0.363903 -5.29151e-18)
(1.02368 0.327083 -1.32263e-17)
(1.05789 0.283765 7.8309e-19)
(1.08636 0.218379 6.67252e-18)
(1.06704 0.148177 5.20914e-18)
(1.04217 0.0528575 2.18991e-17)
(0.134803 0.170886 7.26516e-19)
(0.243708 0.218889 -2.4933e-18)
(0.399426 0.300071 9.86445e-19)
(0.540313 0.320297 4.53565e-18)
(0.658117 0.335095 -1.2964e-18)
(0.776012 0.327677 8.58017e-18)
(0.859772 0.312497 -6.35944e-20)
(0.943641 0.28088 -2.71067e-18)
(0.98845 0.24368 1.33662e-17)
(1.03292 0.187532 7.66903e-18)
(1.03078 0.127247 1.26034e-17)
(1.02923 0.0453927 3.48689e-18)
(0.0950456 0.131128 -1.44714e-19)
(0.19278 0.167959 2.18202e-19)
(0.329613 0.230259 1.02043e-18)
(0.465793 0.245782 -4.6958e-18)
(0.580158 0.257139 6.34998e-18)
(0.699779 0.251448 -4.94908e-18)
(0.787071 0.239798 2.15117e-18)
(0.878296 0.215535 1.58145e-17)
(0.931758 0.186989 1.24442e-17)
(0.989287 0.143902 1.615e-17)
(1.00117 0.0976461 1.51148e-17)
(1.01867 0.034831 -1.97033e-17)
(0.0669281 0.0824278 -7.67243e-19)
(0.156764 0.105581 -3.70435e-18)
(0.280238 0.144751 -1.71239e-18)
(0.413091 0.154508 2.21649e-18)
(0.525021 0.161653 -3.66612e-18)
(0.645863 0.158076 1.28796e-18)
(0.735653 0.150754 -8.58902e-19)
(0.83208 0.135503 1.92474e-18)
(0.891667 0.117556 -1.23497e-18)
(0.958433 0.0904704 1.26581e-18)
(0.980242 0.061387 1.82264e-18)
(1.0112 0.0218974 8.63996e-18)
(0.0523786 0.0281178 -5.75669e-20)
(0.138114 0.0360133 -1.86782e-19)
(0.254681 0.0493835 -2.17934e-19)
(0.385805 0.0527161 1.22022e-19)
(0.496483 0.0551622 1.90534e-18)
(0.617948 0.0539471 -6.54556e-19)
(0.709037 0.0514481 1.20754e-18)
(0.808154 0.0462405 4.8067e-19)
(0.870912 0.0401168 2.34107e-18)
(0.94246 0.0308693 -1.40298e-18)
(0.969404 0.020956 1.38296e-18)
(1.00734 0.00747989 1.16882e-18)
)
;

boundaryField
{
    out
    {
        type            fixedValue;
        value           uniform (1 0 0);
    }
    in
    {
        type            fixedValue;
        value           uniform (0 0 0);
    }
    frontAndBack
    {
        type            empty;
    }
}


// ************************************************************************* //
