/*--------------------------------*- C++ -*----------------------------------*\
| =========                 |                                                 |
| \\      /  F ield         | foam-extend: Open Source CFD                    |
|  \\    /   O peration     | Version:  3.0                                   |
|   \\  /    A nd           | Web:         http://www.extend-project.de       |
|    \\/     M anipulation  |                                                 |
\*---------------------------------------------------------------------------*/
FoamFile
{
    version     2.0;
    format      ascii;
    class       volSymmTensorField;
    location    "26";
    object      sigma;
}
// * * * * * * * * * * * * * * * * * * * * * * * * * * * * * * * * * * * * * //

dimensions      [0 0 0 0 0 0 0];

internalField   nonuniform List<symmTensor> 
480
(
(-0.163994 -0.012238 2.36845e-20 0.163996 -3.80608e-21 -1.74311e-06)
(-0.146666 -0.0138147 1.06177e-19 0.14667 -3.40186e-20 -4.20763e-06)
(-0.12421 -0.0131795 1.04904e-19 0.124216 1.7502e-19 -6.13938e-06)
(-0.102107 -0.0118371 -7.19357e-20 0.102114 1.21166e-19 -7.60705e-06)
(-0.0820365 -0.0103448 1.18728e-19 0.0820451 -2.0518e-19 -8.62821e-06)
(-0.0644067 -0.00893303 4.03366e-19 0.0644158 -8.80362e-20 -9.13792e-06)
(-0.0492866 -0.00768859 3.90645e-19 0.0492956 -1.85832e-19 -9.03378e-06)
(-0.0368325 -0.00668464 4.76073e-20 0.0368407 -4.49247e-20 -8.11039e-06)
(-0.0271576 -0.00594396 4.88126e-19 0.0271637 -7.30814e-19 -6.10269e-06)
(-0.020832 -0.00552346 5.43351e-20 0.0208346 -1.84229e-19 -2.59497e-06)
(-0.159707 -0.0361353 1.36561e-21 0.159709 -1.31698e-20 -1.7623e-06)
(-0.13992 -0.0403092 1.58854e-19 0.139925 -1.14774e-19 -4.2558e-06)
(-0.116998 -0.0382529 3.48742e-19 0.117004 -1.86309e-19 -6.21008e-06)
(-0.095164 -0.0342281 -2.60247e-20 0.0951717 -1.63428e-19 -7.69334e-06)
(-0.0756176 -0.0298094 -2.13679e-19 0.0756263 -1.9882e-19 -8.72487e-06)
(-0.0585512 -0.0256441 2.22396e-19 0.0585604 -1.84473e-20 -9.23806e-06)
(-0.0439494 -0.0219756 3.36146e-19 0.0439585 -2.28114e-19 -9.12927e-06)
(-0.0319017 -0.0190105 7.72627e-20 0.0319099 -1.81273e-19 -8.18864e-06)
(-0.0225026 -0.0168161 -5.34063e-19 0.0225088 -5.19018e-19 -6.15577e-06)
(-0.016286 -0.015575 1.48587e-19 0.0162886 2.92258e-19 -2.61322e-06)
(-0.151441 -0.0585788 -5.21742e-20 0.151443 -4.58719e-20 -1.75408e-06)
(-0.127195 -0.0637167 -4.14976e-21 0.127199 -2.46583e-19 -4.23851e-06)
(-0.103476 -0.0597921 2.00101e-20 0.103482 -2.14821e-19 -6.18938e-06)
(-0.0821942 -0.0530924 -1.45635e-19 0.0822019 -2.21586e-20 -7.67263e-06)
(-0.063659 -0.0459251 -1.89508e-19 0.0636677 3.55219e-19 -8.70422e-06)
(-0.0476706 -0.0392262 3.68009e-19 0.0476798 1.39033e-19 -9.2169e-06)
(-0.0340579 -0.0333439 9.26771e-20 0.034067 -3.72689e-20 -9.10524e-06)
(-0.0227876 -0.0285782 -1.77352e-19 0.0227958 -1.30558e-19 -8.16162e-06)
(-0.0139196 -0.0250304 -1.37281e-19 0.0139257 6.14551e-19 -6.13023e-06)
(-0.00791731 -0.0229896 6.46362e-19 0.00791991 -4.76157e-19 -2.59761e-06)
(-0.139751 -0.0787705 -1.61428e-19 0.139753 -1.25312e-20 -1.72235e-06)
(-0.109899 -0.0824469 -4.18829e-19 0.109903 2.30138e-19 -4.16528e-06)
(-0.085307 -0.0759994 2.49581e-20 0.0853131 3.31258e-19 -6.08618e-06)
(-0.0648792 -0.0666476 2.34073e-19 0.0648868 2.92922e-19 -7.54897e-06)
(-0.0477746 -0.0570073 8.33673e-20 0.0477832 4.13005e-19 -8.56712e-06)
(-0.0332866 -0.0481118 1.38002e-19 0.0332957 -1.06066e-19 -9.0734e-06)
(-0.0210438 -0.0403369 2.62317e-19 0.0210527 -8.52823e-20 -8.96229e-06)
(-0.0108539 -0.0340167 3.62273e-19 0.0108619 -1.19496e-20 -8.02949e-06)
(-0.0027318 -0.0292703 1.92181e-19 0.00273783 -6.26288e-19 -6.02653e-06)
(0.00295414 -0.0264642 -8.79203e-19 -0.00295159 9.13959e-20 -2.54943e-06)
(-0.12538 -0.0961415 3.15669e-20 0.125381 -1.56191e-20 -1.66698e-06)
(-0.0898828 -0.0955358 -3.35926e-19 0.0898868 5.59038e-19 -4.03482e-06)
(-0.0646687 -0.0858241 -2.56614e-19 0.0646746 5.99582e-19 -5.89948e-06)
(-0.045423 -0.0738717 -2.36921e-20 0.0454303 4.10569e-19 -7.32178e-06)
(-0.0300777 -0.0621039 4.14544e-19 0.030086 -1.28263e-19 -8.31264e-06)
(-0.0173904 -0.0514262 3.39952e-20 0.0173992 -5.4688e-19 -8.8057e-06)
(-0.00677882 -0.0421522 4.86962e-19 0.00678751 -8.9938e-19 -8.69671e-06)
(0.00211736 -0.0345797 -2.66379e-19 -0.00210957 -7.60334e-19 -7.78798e-06)
(0.00933237 -0.028827 -1.74682e-19 -0.00932653 -7.18835e-19 -5.84042e-06)
(0.0146051 -0.0253027 5.22375e-19 -0.0146026 3.2846e-19 -2.46636e-06)
(-0.109158 -0.110395 6.89439e-20 0.10916 1.68065e-19 -1.58747e-06)
(-0.0691716 -0.10276 3.48052e-19 0.0691755 3.84287e-19 -3.84636e-06)
(-0.0439361 -0.0890983 3.19773e-19 0.0439417 3.08826e-19 -5.62744e-06)
(-0.0262234 -0.0746412 1.98975e-19 0.0262303 -6.15585e-20 -6.98782e-06)
(-0.012864 -0.0611277 -6.34244e-20 0.012872 -7.50526e-19 -7.93604e-06)
(-0.00214244 -0.0491129 -5.56069e-19 0.00215085 -1.10533e-18 -8.40785e-06)
(0.00670785 -0.0387589 -1.13716e-18 -0.00669954 -5.51678e-19 -8.30224e-06)
(0.0141965 -0.0302579 9.41253e-20 -0.0141891 -4.79099e-19 -7.43088e-06)
(0.0204029 -0.0237083 -1.11846e-18 -0.0203974 -2.80265e-19 -5.56725e-06)
(0.0251722 -0.0195251 5.11208e-19 -0.0251698 -3.87934e-19 -2.34603e-06)
(-0.0919052 -0.121512 -3.81935e-20 0.0919067 2.33317e-19 -1.48453e-06)
(-0.0496748 -0.10464 5.93519e-19 0.0496784 5.04335e-20 -3.60054e-06)
(-0.0253317 -0.08654 8.21581e-19 0.025337 -2.8003e-19 -5.27095e-06)
(-0.00951645 -0.0697335 6.41312e-19 0.009523 -7.59458e-19 -6.54808e-06)
(0.00173045 -0.0548584 -4.02269e-19 -0.00172301 -9.05581e-19 -7.43824e-06)
(0.0104514 -0.0419344 -1.02112e-18 -0.0104435 -5.599e-19 -7.8805e-06)
(0.0175363 -0.0308982 -1.25121e-18 -0.0175285 2.28942e-19 -7.77908e-06)
(0.023599 -0.0217788 -6.95081e-19 -0.0235921 -3.67755e-19 -6.95812e-06)
(0.0287534 -0.0146384 -1.60046e-18 -0.0287482 3.25065e-19 -5.20732e-06)
(0.0329373 -0.0098671 2.42772e-19 -0.0329351 -1.21089e-19 -2.18936e-06)
(-0.0743298 -0.129718 9.50615e-20 0.0743311 -1.4373e-20 -1.35798e-06)
(-0.0329157 -0.102334 2.70407e-19 0.032919 -2.06582e-19 -3.29767e-06)
(-0.0106035 -0.0796226 1.93293e-19 0.0106083 -3.96362e-19 -4.83015e-06)
(0.00295181 -0.0606927 -1.14635e-19 -0.0029458 -4.96859e-19 -6.00209e-06)
(0.0120467 -0.0448125 -6.62737e-19 -0.0120399 -2.38372e-19 -6.81783e-06)
(0.01884 -0.0313491 -6.56815e-19 -0.0188328 4.92225e-20 -7.22131e-06)
(0.0242588 -0.0199671 -5.31397e-19 -0.0242517 1.58287e-19 -7.12413e-06)
(0.0289564 -0.0104951 -5.75542e-19 -0.02895 1.77249e-19 -6.36602e-06)
(0.0330645 -0.00294885 -3.40681e-19 -0.0330598 -7.09722e-20 -4.75709e-06)
(0.0365908 0.00232945 -1.10812e-18 -0.0365888 1.41975e-19 -1.99398e-06)
(-0.0569562 -0.135412 -3.15198e-20 0.0569574 -6.47989e-20 -1.20952e-06)
(-0.0198247 -0.0974362 -2.58884e-19 0.0198276 -1.50858e-19 -2.94078e-06)
(-0.000776856 -0.0703326 -4.82693e-19 0.000781165 -1.03055e-19 -4.30911e-06)
(0.0101779 -0.0495813 -4.11059e-19 -0.0101726 4.66894e-20 -5.3546e-06)
(0.0171456 -0.0330036 -2.95997e-20 -0.0171395 3.27455e-20 -6.07993e-06)
(0.022157 -0.0192832 -4.05066e-19 -0.0221506 3.30099e-20 -6.4354e-06)
(0.0260773 -0.00780176 -3.4196e-19 -0.0260709 6.73031e-20 -6.34213e-06)
(0.0295231 0.001822 -3.23895e-19 -0.0295175 1.9485e-19 -5.65884e-06)
(0.0326255 0.00962306 -5.72479e-20 -0.0326213 -8.07431e-20 -4.22009e-06)
(0.035433 0.0153184 -5.72061e-19 -0.0354313 3.18646e-19 -1.76225e-06)
(-0.040081 -0.139085 -5.09201e-20 0.040082 -4.70632e-20 -1.04006e-06)
(-0.0106254 -0.0917142 -1.40432e-19 0.010628 -1.62111e-19 -2.53262e-06)
(0.0039802 -0.0608508 -6.88106e-19 -0.00397649 -2.87014e-20 -3.71164e-06)
(0.0120383 -0.0386544 -6.3148e-19 -0.0120337 1.46811e-19 -4.60983e-06)
(0.0169396 -0.0216268 -4.33404e-19 -0.0169344 2.00869e-19 -5.22866e-06)
(0.0203457 -0.00783199 -6.11479e-20 -0.0203402 1.38201e-19 -5.52637e-06)
(0.0229603 0.00360421 -3.47492e-19 -0.0229549 1.42798e-19 -5.43582e-06)
(0.0252894 0.0132537 -1.4141e-20 -0.0252846 3.34776e-19 -4.8382e-06)
(0.0274437 0.0211983 5.52884e-19 -0.0274401 3.34324e-20 -3.59669e-06)
(0.0294836 0.0272131 -1.10274e-19 -0.0294821 -1.39621e-20 -1.49346e-06)
(-0.023768 -0.141213 -5.86767e-20 0.0237689 -3.08674e-20 -8.52343e-07)
(-0.004831 -0.0868202 -1.03222e-19 0.00483308 -1.07611e-19 -2.07892e-06)
(0.00436014 -0.0532072 -3.67601e-19 -0.00435709 -1.20939e-20 -3.04571e-06)
(0.0092913 -0.0300069 -2.72126e-19 -0.00928752 1.18642e-19 -3.77739e-06)
(0.0121952 -0.0127184 -2.80132e-19 -0.0121909 1.2282e-19 -4.27472e-06)
(0.0141597 0.00106336 -4.48321e-19 -0.0141552 9.96971e-20 -4.50535e-06)
(0.0156444 0.0124061 -4.15113e-19 -0.01564 1.85224e-19 -4.41606e-06)
(0.0169811 0.0220262 -1.13992e-19 -0.0169772 2.98919e-19 -3.91394e-06)
(0.0182442 0.0300412 4.05483e-19 -0.0182413 5.43459e-20 -2.89464e-06)
(0.0194808 0.0362723 -3.75329e-20 -0.0194796 -1.8814e-20 -1.19165e-06)
(-0.00788189 -0.142175 -7.94383e-20 0.00788254 -1.60595e-20 -6.48441e-07)
(-0.00135023 -0.0840279 -1.45653e-19 0.00135182 -7.38204e-20 -1.58519e-06)
(0.00178619 -0.0489622 -2.90371e-19 -0.00178387 -1.2481e-20 -2.31935e-06)
(0.00344422 -0.025247 -3.84677e-19 -0.00344135 1.12386e-19 -2.86705e-06)
(0.00440274 -0.00784057 -3.75998e-19 -0.00439951 1.05993e-19 -3.22886e-06)
(0.00504034 0.00591475 -3.52819e-19 -0.00503695 8.71919e-20 -3.38339e-06)
(0.00551693 0.0171906 -1.6865e-19 -0.00551363 1.6443e-19 -3.29334e-06)
(0.00594815 0.026781 -1.13302e-19 -0.00594526 2.6112e-19 -2.89499e-06)
(0.00636075 0.0348235 2.86153e-19 -0.00635862 9.74033e-20 -2.12007e-06)
(0.00677256 0.0411636 1.55663e-19 -0.0067717 -2.3247e-20 -8.58752e-07)
(0.00784705 -0.142177 -7.69351e-20 -0.00784662 -4.91392e-21 -4.32126e-07)
(0.00131226 -0.0840287 -2.12001e-19 -0.0013112 -6.22942e-20 -1.05984e-06)
(-0.00182962 -0.0489623 -1.79939e-19 0.00183116 -2.35324e-20 -1.54466e-06)
(-0.00349508 -0.0252465 -3.22619e-19 0.00349697 1.08682e-19 -1.89377e-06)
(-0.00446274 -0.00783964 -4.29172e-19 0.00446485 1.03584e-19 -2.10819e-06)
(-0.00511107 0.00591601 -3.09258e-19 0.00511325 6.30052e-20 -2.17875e-06)
(-0.00559929 0.0171921 -2.86436e-20 0.00560138 1.14343e-19 -2.08593e-06)
(-0.00604264 0.0267829 -1.64048e-19 0.00604444 2.15083e-19 -1.79806e-06)
(-0.00646585 0.0348258 6.3915e-20 0.00646714 8.32231e-20 -1.28601e-06)
(-0.0068861 0.0411658 1.70704e-19 0.0068866 -2.58786e-20 -5.00937e-07)
(0.0237353 -0.141219 -9.13109e-20 -0.0237351 9.57197e-21 -2.0654e-07)
(0.00479387 -0.0868225 -2.52201e-19 -0.00479336 -5.4503e-20 -5.11089e-07)
(-0.00440355 -0.0532073 -3.04005e-20 0.00440428 -4.29366e-20 -7.33837e-07)
(-0.00934272 -0.0300056 -5.32172e-20 0.0093436 1.04243e-19 -8.72912e-07)
(-0.0122562 -0.0127159 -5.32793e-19 0.0122571 9.61431e-20 -9.30301e-07)
(-0.0142318 0.00106678 -3.34619e-19 0.0142327 4.83836e-20 -9.10248e-07)
(-0.0157285 0.0124104 -2.49848e-19 0.0157293 3.85404e-20 -8.12521e-07)
(-0.0170776 0.0220311 1.8794e-19 0.0170783 1.67857e-19 -6.39881e-07)
(-0.0183518 0.0300476 -4.1265e-19 0.0183522 7.22105e-20 -4.0479e-07)
(-0.0195967 0.0362783 7.63102e-20 0.0195969 -1.46515e-20 -1.22946e-07)
(0.0400519 -0.139093 -3.85809e-20 -0.0400519 4.34724e-20 2.3689e-08)
(0.0105898 -0.0917173 -2.82823e-19 -0.0105898 -1.67282e-20 5.03527e-08)
(-0.00402359 -0.0608509 -3.9249e-19 0.00402349 -9.33178e-20 9.73695e-08)
(-0.0120907 -0.0386525 -2.88684e-19 0.0120905 1.0477e-20 1.75688e-07)
(-0.0170024 -0.0216233 -3.96255e-19 0.0170021 6.50055e-20 2.81758e-07)
(-0.0204202 -0.00782737 -1.10653e-19 0.0204198 5.53926e-20 3.97116e-07)
(-0.0230474 0.00361 -1.84347e-19 0.0230469 5.26478e-20 5.01542e-07)
(-0.0253894 0.0132604 -5.92033e-20 0.0253888 6.75695e-20 5.56184e-07)
(-0.0275557 0.0212068 -1.78335e-19 0.0275552 -6.26467e-20 5.05404e-07)
(-0.0296036 0.0272211 3.51474e-19 0.0296034 1.14519e-20 2.66907e-07)
(0.0569314 -0.13542 -4.5488e-20 -0.0569316 5.36291e-20 2.546e-07)
(0.0197907 -0.0974393 -4.50189e-19 -0.0197913 -5.37428e-20 6.14201e-07)
(0.000733461 -0.0703327 -1.38409e-19 -0.000734395 -1.12481e-19 9.33466e-07)
(-0.0102315 -0.0495794 1.12517e-19 0.0102303 -2.30936e-20 1.2322e-06)
(-0.0172105 -0.0330001 1.47568e-19 0.017209 2.05428e-19 1.50487e-06)
(-0.0222343 -0.0192787 -2.87675e-19 0.0222326 1.64022e-19 1.71817e-06)
(-0.0261678 -0.00779612 -2.97697e-19 0.026166 -9.53371e-20 1.83081e-06)
(-0.0296271 0.00182849 4.36745e-21 0.0296254 -1.20323e-19 1.76695e-06)
(-0.0327426 0.0096313 1.70798e-20 0.0327412 1.81343e-20 1.42712e-06)
(-0.0355578 0.0153259 -6.89826e-19 0.0355572 8.05802e-20 6.61572e-07)
(0.0743087 -0.129723 4.76829e-20 -0.0743091 -3.43034e-20 4.81054e-07)
(0.0328831 -0.102336 2.21258e-19 -0.0328842 9.62141e-20 1.1683e-06)
(0.01056 -0.0796226 1.6351e-19 -0.0105618 1.11873e-19 1.75636e-06)
(-0.00300646 -0.0606913 3.92397e-20 0.00300419 9.42951e-20 2.27357e-06)
(-0.0121135 -0.0448101 4.2528e-20 0.0121108 1.69606e-19 2.71194e-06)
(-0.0189197 -0.031346 -5.694e-19 0.0189167 2.21108e-19 3.02324e-06)
(-0.0243525 -0.0199632 -8.02404e-19 0.0243493 -3.153e-19 3.14496e-06)
(-0.0290639 -0.0104908 -4.4877e-19 0.0290609 1.90614e-19 2.96432e-06)
(-0.033186 -0.00294339 -1.43764e-18 0.0331836 -6.141e-19 2.33846e-06)
(-0.0367196 0.0023342 9.09281e-19 0.0367186 2.12646e-20 1.05119e-06)
(0.0918862 -0.121514 -1.07979e-19 -0.0918869 -2.98747e-19 6.98718e-07)
(0.0496429 -0.10464 4.91628e-19 -0.0496446 -1.35096e-19 1.7014e-06)
(0.0252882 -0.0865398 5.3801e-19 -0.0252907 5.5047e-20 2.54897e-06)
(0.00946104 -0.069733 3.6834e-19 -0.00946432 3.62885e-19 3.2777e-06)
(-0.00179846 -0.0548577 -4.98348e-19 0.00179459 3.27656e-19 3.87697e-06)
(-0.0105327 -0.0419336 -8.71682e-19 0.0105284 5.08811e-19 4.28377e-06)
(-0.0176318 -0.0308974 -1.50304e-18 0.0176274 -6.03698e-21 4.41487e-06)
(-0.0237087 -0.021778 -1.85741e-19 0.0237046 -7.70357e-20 4.12156e-06)
(-0.0288774 -0.0146375 -1.18095e-18 0.0288742 2.60971e-19 3.21914e-06)
(-0.0330684 -0.00986687 -4.23896e-19 0.033067 -6.4621e-19 1.42742e-06)
(0.109139 -0.110392 -3.38579e-20 -0.10914 -1.95118e-19 9.02441e-07)
(0.0691396 -0.102758 2.35369e-20 -0.0691418 -4.2746e-19 2.20117e-06)
(0.0438922 -0.089098 -6.2262e-20 -0.0438955 -5.03756e-19 3.29282e-06)
(0.0261677 -0.0746418 -1.30968e-19 -0.0261719 -1.85649e-19 4.22088e-06)
(0.0127957 -0.061129 -5.73444e-19 -0.0128007 2.86426e-19 4.97193e-06)
(0.00206085 -0.0491148 -4.67532e-19 -0.00206632 4.43078e-19 5.46888e-06)
(-0.00680361 -0.0387615 1.55378e-19 0.006798 7.7017e-19 5.60881e-06)
(-0.0143063 -0.0302612 -3.86501e-19 0.0143011 4.4649e-19 5.20918e-06)
(-0.0205269 -0.0237126 -4.26907e-19 0.0205229 1.05758e-18 4.04612e-06)
(-0.0253031 -0.01953 -5.04714e-19 0.0253013 -6.3865e-19 1.77997e-06)
(0.125358 -0.096135 -1.34143e-20 -0.12536 2.51631e-20 1.08809e-06)
(0.0898497 -0.0955329 -5.15044e-19 -0.0898523 -3.09939e-19 2.65685e-06)
(0.0646246 -0.0858237 -8.32376e-19 -0.0646285 -6.38004e-19 3.97143e-06)
(0.0453676 -0.0738731 -5.77737e-19 -0.0453727 -5.38572e-19 5.0817e-06)
(0.0300101 -0.0621069 7.68122e-20 -0.030016 1.60029e-19 5.97146e-06)
(0.0173098 -0.0514304 4.80231e-19 -0.0173164 3.45848e-19 6.55058e-06)
(0.00668448 -0.0421578 5.76316e-19 -0.00669118 4.5352e-19 6.69818e-06)
(-0.00222534 -0.0345866 4.03377e-19 0.00221914 3.58541e-19 6.20084e-06)
(-0.00945383 -0.0288359 4.56892e-19 0.00944903 1.19551e-18 4.79939e-06)
(-0.0147333 -0.025312 -9.75421e-19 0.0147312 1.05956e-19 2.10058e-06)
(0.139726 -0.0787618 -1.48014e-19 -0.139727 3.63762e-20 1.25106e-06)
(0.109864 -0.0824431 -5.33765e-19 -0.109867 9.96111e-20 3.05741e-06)
(0.0852626 -0.075999 -5.91455e-19 -0.0852672 -1.38447e-19 4.56825e-06)
(0.0648244 -0.0666496 1.51831e-19 -0.0648303 -2.28981e-19 5.83882e-06)
(0.0477084 -0.0570113 7.66638e-19 -0.0477152 -7.25603e-21 6.85029e-06)
(0.0332081 -0.0481174 3.35829e-19 -0.0332156 2.66888e-19 7.50098e-06)
(0.0209521 -0.0403443 2.8073e-19 -0.0209597 2.3197e-22 7.65423e-06)
(0.0107492 -0.0340256 6.50219e-19 -0.0107563 2.31325e-19 7.06979e-06)
(0.0026147 -0.0292818 3.52755e-19 -0.00262015 4.61546e-19 5.45804e-06)
(-0.00307795 -0.026476 2.73641e-19 0.00307557 6.95542e-19 2.37989e-06)
(0.151411 -0.0585699 -2.53272e-20 -0.151413 1.15665e-19 1.38802e-06)
(0.127159 -0.0637128 -1.57696e-19 -0.127162 4.50367e-19 3.39405e-06)
(0.103432 -0.0597916 -3.05196e-19 -0.103437 4.93273e-19 5.06975e-06)
(0.0821402 -0.0530944 1.16102e-19 -0.0821467 2.56124e-19 6.47464e-06)
(0.0635944 -0.0459292 2.59904e-19 -0.063602 -2.25643e-19 7.58754e-06)
(0.0475944 -0.0392319 4.54208e-19 -0.0476027 -2.40614e-19 8.297e-06)
(0.0339694 -0.0333513 2.42284e-19 -0.0339778 -2.10695e-19 8.45338e-06)
(0.0226867 -0.0285871 1.09267e-18 -0.0226945 -3.04489e-19 7.79435e-06)
(0.0138075 -0.0250419 9.14424e-19 -0.0138135 8.85344e-20 6.00562e-06)
(0.00779859 -0.0230015 -7.56569e-20 -0.0078012 2.1321e-19 2.61122e-06)
(0.159674 -0.0361284 2.17352e-20 -0.159675 8.23608e-20 1.49548e-06)
(0.139882 -0.0403061 1.5719e-20 -0.139886 2.4072e-19 3.65848e-06)
(0.116953 -0.0382525 7.49673e-20 -0.116958 4.83442e-19 5.4635e-06)
(0.0951108 -0.0342296 2.80615e-19 -0.0951177 2.86751e-19 6.97314e-06)
(0.0755546 -0.0298125 1.08677e-19 -0.0755627 1.11651e-19 8.16423e-06)
(0.0584771 -0.0256486 -1.3912e-19 -0.058486 -1.25217e-19 8.91774e-06)
(0.0438636 -0.0219815 2.19101e-19 -0.0438727 2.0196e-20 9.07412e-06)
(0.0318041 -0.0190176 6.38309e-19 -0.0318125 -3.40807e-19 8.35451e-06)
(0.022395 -0.0168252 5.4101e-19 -0.0224014 -3.89524e-19 6.42651e-06)
(0.0161717 -0.0155845 7.37457e-20 -0.0161745 9.03392e-20 2.7875e-06)
(0.163959 -0.0122345 2.96693e-20 -0.16396 3.00561e-20 1.57138e-06)
(0.146627 -0.0138131 5.59875e-20 -0.146631 4.61961e-20 3.84514e-06)
(0.124165 -0.0131793 2.4182e-20 -0.124171 2.29997e-19 5.74094e-06)
(0.102054 -0.0118378 3.10482e-20 -0.102061 9.72946e-21 7.32318e-06)
(0.0819743 -0.0103464 1.59379e-19 -0.0819829 -9.45849e-20 8.56722e-06)
(0.0643338 -0.00893531 2.77437e-19 -0.0643431 1.29672e-19 9.34872e-06)
(0.0492024 -0.00769161 3.92842e-19 -0.0492119 2.20225e-19 9.50179e-06)
(0.0367369 -0.00668836 4.33724e-19 -0.0367457 -1.24704e-19 8.73692e-06)
(0.0270525 -0.00594869 6.07936e-19 -0.0270592 -2.71049e-19 6.71073e-06)
(0.0207204 -0.00552874 7.41921e-20 -0.0207233 1.59404e-19 2.90485e-06)
(0.163968 0.0121627 2.37199e-20 -0.163969 -3.78163e-21 1.61376e-06)
(0.146634 0.0137588 1.06257e-19 -0.146638 -3.39386e-20 3.94953e-06)
(0.124171 0.0131314 1.04991e-19 -0.124177 1.75099e-19 5.8954e-06)
(0.10206 0.0117902 -7.18624e-20 -0.102067 1.21364e-19 7.51628e-06)
(0.0819806 0.0102947 1.18882e-19 -0.0819894 -2.05055e-19 8.78654e-06)
(0.064341 0.00887679 4.03646e-19 -0.0643505 -8.80574e-20 9.57912e-06)
(0.0492106 0.00762427 3.90915e-19 -0.0492203 -1.86443e-19 9.7253e-06)
(0.0367463 0.00661137 4.7796e-20 -0.0367553 -4.49073e-20 8.93135e-06)
(0.0270629 0.00586383 4.88415e-19 -0.0270698 -7.31928e-19 6.85027e-06)
(0.0207292 0.00545573 5.42626e-20 -0.0207321 -1.8508e-19 2.95954e-06)
(0.159701 0.0360613 1.39624e-21 -0.159703 -1.31427e-20 1.62216e-06)
(0.139902 0.0402554 1.58945e-19 -0.139906 -1.14714e-19 3.97015e-06)
(0.11697 0.0382077 3.48877e-19 -0.116976 -1.86536e-19 5.92453e-06)
(0.095128 0.0341851 -2.60026e-20 -0.0951356 -1.637e-19 7.54942e-06)
(0.0755731 0.0297643 -2.13708e-19 -0.075582 -1.98486e-19 8.8188e-06)
(0.0584981 0.0255939 2.22582e-19 -0.0585077 -1.82665e-20 9.60535e-06)
(0.0438877 0.0219185 3.36452e-19 -0.0438975 -2.28213e-19 9.74132e-06)
(0.0318318 0.0189456 7.73605e-20 -0.0318407 -1.82298e-19 8.93503e-06)
(0.0224255 0.0167458 -5.34418e-19 -0.0224323 -5.18278e-19 6.84344e-06)
(0.0161975 0.0155161 1.48824e-19 -0.0162004 2.92497e-19 2.95129e-06)
(0.151455 0.0585121 -5.21536e-20 -0.151456 -4.58699e-20 1.59632e-06)
(0.127191 0.0636691 -4.11034e-21 -0.127195 -2.46549e-19 3.90678e-06)
(0.10346 0.059753 1.99916e-20 -0.103465 -2.14702e-19 5.82822e-06)
(0.0821677 0.0530559 -1.45731e-19 -0.0821751 -2.20141e-20 7.42268e-06)
(0.0636239 0.0458874 -1.89591e-19 -0.0636326 3.55768e-19 8.66428e-06)
(0.0476277 0.0391845 3.68298e-19 -0.0476372 1.38911e-19 9.428e-06)
(0.0340077 0.0332967 9.2855e-20 -0.0340173 -3.73517e-20 9.55062e-06)
(0.0227306 0.0285247 -1.77416e-19 -0.0227394 -1.30727e-19 8.74883e-06)
(0.013856 0.024973 -1.37473e-19 -0.0138627 6.16016e-19 6.69085e-06)
(0.00783959 0.0229419 6.4739e-19 -0.00784247 -4.78725e-19 2.88012e-06)
(0.139783 0.0787172 -1.6145e-19 -0.139784 -1.24996e-20 1.53749e-06)
(0.109906 0.0824092 -4.1898e-19 -0.10991 2.305e-19 3.76217e-06)
(0.085299 0.0759689 2.49364e-20 -0.0853046 3.3142e-19 5.61061e-06)
(0.0648601 0.0666195 2.34199e-19 -0.0648673 2.92716e-19 7.14156e-06)
(0.0477467 0.0569787 8.3607e-20 -0.0477551 4.12753e-19 8.32976e-06)
(0.0332514 0.0480803 1.38251e-19 -0.0332605 -1.06195e-19 9.05486e-06)
(0.021002 0.0403015 2.62531e-19 -0.0210111 -8.53779e-20 9.16164e-06)
(0.0108063 0.0339766 3.6271e-19 -0.0108147 -1.23859e-20 8.38101e-06)
(0.00267776 0.0292277 1.92831e-19 -0.00268416 -6.28259e-19 6.3994e-06)
(-0.00302455 0.0264288 -8.80052e-19 0.0030218 9.33185e-20 2.74947e-06)
(0.125425 0.0961066 3.15796e-20 -0.125426 -1.56408e-20 1.44706e-06)
(0.0898987 0.0955112 -3.35989e-19 -0.0899023 5.59139e-19 3.54022e-06)
(0.0646669 0.0858042 -2.56667e-19 -0.0646722 5.99655e-19 5.27786e-06)
(0.0454091 0.0738534 -2.36568e-20 -0.0454158 4.10571e-19 6.71428e-06)
(0.0300546 0.0620854 4.15041e-19 -0.0300624 -1.28852e-19 7.82526e-06)
(0.0173601 0.0514059 3.41887e-20 -0.0173686 -5.47105e-19 8.49733e-06)
(0.00674241 0.0421294 4.87115e-19 -0.006751 -8.99687e-19 8.58633e-06)
(-0.00215891 0.034554 -2.66476e-19 0.00215107 -7.60567e-19 7.84283e-06)
(-0.0093805 0.0287999 -1.76603e-19 0.00937452 -7.15933e-19 5.97777e-06)
(-0.0146712 0.02528 5.22297e-19 0.0146686 3.2857e-19 2.56285e-06)
(0.10921 0.110382 6.89029e-20 -0.109212 1.6814e-19 1.32776e-06)
(0.0691922 0.10275 3.48218e-19 -0.0691954 3.84113e-19 3.24746e-06)
(0.0439376 0.0890903 3.20051e-19 -0.0439424 3.08437e-19 4.83988e-06)
(0.026212 0.0746337 1.99436e-19 -0.0262182 -6.21629e-20 6.15383e-06)
(0.0128433 0.0611199 -6.32981e-20 -0.0128505 -7.50817e-19 7.16646e-06)
(0.00211467 0.0491042 -5.56433e-19 -0.00212244 -1.10544e-18 7.77308e-06)
(-0.00674161 0.0387492 -1.13926e-18 0.00673376 -5.49512e-19 7.84332e-06)
(-0.0142352 0.0302469 9.3889e-20 0.014228 -4.78988e-19 7.15206e-06)
(-0.0204483 0.0236967 -1.12062e-18 0.0204429 -2.77693e-19 5.44024e-06)
(-0.0252364 0.0195149 5.10803e-19 0.025234 -3.87274e-19 2.32693e-06)
(0.0919574 0.121523 -3.82448e-20 -0.0919586 2.33391e-19 1.18233e-06)
(0.0496955 0.104646 5.9367e-19 -0.0496984 5.03401e-20 2.89113e-06)
(0.0253333 0.0865443 8.21818e-19 -0.0253377 -2.80334e-19 4.30786e-06)
(0.0095052 0.0697369 6.4171e-19 -0.00951068 -7.60074e-19 5.47492e-06)
(-0.00175109 0.0548613 -4.02514e-19 0.00174472 -9.05699e-19 6.37104e-06)
(-0.0104791 0.0419375 -1.02215e-18 0.0104722 -5.59477e-19 6.90193e-06)
(-0.01757 0.0309016 -1.25231e-18 0.017563 2.29753e-19 6.95317e-06)
(-0.0236377 0.0217826 -6.95788e-19 0.0236314 -3.67179e-19 6.32788e-06)
(-0.0287989 0.0146423 -1.60216e-18 0.0287941 3.26782e-19 4.80156e-06)
(-0.0330016 0.00986926 2.42217e-19 0.0329996 -1.20424e-19 2.04779e-06)
(0.0743751 0.12975 9.51028e-20 -0.0743761 -1.43866e-20 1.01465e-06)
(0.0329319 0.102355 2.70402e-19 -0.0329344 -2.06532e-19 2.48055e-06)
(0.0106019 0.0796388 1.92957e-19 -0.0106056 -3.96202e-19 3.69589e-06)
(-0.00296556 0.0607066 -1.1529e-19 0.00296087 -4.96751e-19 4.69588e-06)
(-0.0120697 0.0448261 -6.63413e-19 0.0120642 -2.38235e-19 5.46096e-06)
(-0.01887 0.0313637 -6.57259e-19 0.0188641 4.93291e-20 5.90839e-06)
(-0.0242951 0.0199834 -5.31435e-19 0.0242891 1.58215e-19 5.94149e-06)
(-0.0289979 0.0105136 -5.75732e-19 0.0289925 1.7733e-19 5.3945e-06)
(-0.0331128 0.00296818 -3.3817e-19 0.0331088 -7.25997e-20 4.08102e-06)
(-0.0366572 -0.00231497 -1.10887e-18 0.0366555 1.42517e-19 1.73429e-06)
(0.0569884 0.135463 -3.15416e-20 -0.0569892 -6.47912e-20 8.2831e-07)
(0.0198324 0.0974709 -2.59076e-19 -0.0198344 -1.50722e-19 2.02508e-06)
(0.000769173 0.0703594 -4.83263e-19 -0.000772192 -1.0278e-19 3.01833e-06)
(-0.0101967 0.049605 -4.11704e-19 0.0101928 4.67736e-20 3.83541e-06)
(-0.0171731 0.0330271 -2.94363e-20 0.0171686 3.24953e-20 4.45842e-06)
(-0.0221919 0.0193088 -4.05049e-19 0.0221871 3.30145e-20 4.81713e-06)
(-0.0261188 0.00783048 -3.41954e-19 0.0261139 6.72634e-20 4.83359e-06)
(-0.0295705 -0.00178939 -3.23434e-19 0.0295662 1.94533e-19 4.37532e-06)
(-0.0326797 -0.00958862 -5.59166e-20 0.0326764 -8.15535e-20 3.29643e-06)
(-0.0355039 -0.0152916 -5.7187e-19 0.0355025 3.1838e-19 1.39372e-06)
(0.0400955 0.13915 -5.09113e-20 -0.0400961 -4.70725e-20 6.27799e-07)
(0.0106215 0.0917589 -1.40409e-19 -0.010623 -1.62083e-19 1.5355e-06)
(-0.00399657 0.0608861 -6.88522e-19 0.00399428 -2.8523e-20 2.29138e-06)
(-0.0120644 0.0386864 -6.32002e-19 0.0120614 1.46947e-19 2.91442e-06)
(-0.0169741 0.0216592 -4.33932e-19 0.0169707 2.01035e-19 3.38827e-06)
(-0.020388 0.00786757 -6.09151e-20 0.0203843 1.38116e-19 3.65566e-06)
(-0.02301 -0.00356403 -3.47696e-19 0.0230063 1.42772e-19 3.65801e-06)
(-0.025346 -0.013208 -1.34912e-20 0.0253427 3.34151e-19 3.29718e-06)
(-0.0275073 -0.0211495 5.55802e-19 0.0275048 3.21671e-20 2.46911e-06)
(-0.0295618 -0.0271743 -1.09487e-19 0.0295607 -1.42607e-20 1.03591e-06)
(0.0237624 0.141285 -5.8666e-20 -0.0237628 -3.08749e-20 4.17066e-07)
(0.00481332 0.0868711 -1.03189e-19 -0.00481434 -1.07598e-19 1.02195e-06)
(-0.00438711 0.0532485 -3.67655e-19 0.00438558 -1.20513e-20 1.53038e-06)
(-0.00932674 0.0300453 -2.72112e-19 0.00932478 1.18647e-19 1.95267e-06)
(-0.0122389 0.0127581 -2.80136e-19 0.0122366 1.22933e-19 2.27374e-06)
(-0.0142119 -0.00101945 -4.48772e-19 0.0142095 9.99089e-20 2.44944e-06)
(-0.0157052 -0.0123562 -4.15443e-19 0.0157028 1.85273e-19 2.44059e-06)
(-0.0170504 -0.0219693 -1.14014e-19 0.0170482 2.9865e-19 2.18365e-06)
(-0.018321 -0.0299798 4.06726e-19 0.0183194 5.37232e-20 1.61672e-06)
(-0.0195696 -0.0362226 -3.73254e-20 0.0195689 -1.89419e-20 6.67883e-07)
(0.00785558 0.142248 -7.94409e-20 -0.00785578 -1.60519e-20 2.0065e-07)
(0.00131803 0.0840809 -1.45672e-19 -0.00131852 -7.37995e-20 4.9529e-07)
(-0.00182494 0.0490066 -2.90431e-19 0.00182419 -1.2433e-20 7.51566e-07)
(-0.00349054 0.0252893 -3.84884e-19 0.00348957 1.12442e-19 9.70876e-07)
(-0.00445768 0.00788508 -3.7617e-19 0.00445654 1.06026e-19 1.13916e-06)
(-0.00510497 -0.00586497 -3.52845e-19 0.00510375 8.71785e-20 1.22516e-06)
(-0.00559176 -0.0171336 -1.68297e-19 0.00559055 1.64422e-19 1.20877e-06)
(-0.00603334 -0.026716 -1.1308e-19 0.00603228 2.61014e-19 1.06039e-06)
(-0.00645475 -0.0347525 2.87202e-19 0.00645399 9.70139e-20 7.59634e-07)
(-0.00687537 -0.0411053 1.5656e-19 0.00687507 -2.32235e-20 2.9914e-07)
(-0.00789255 0.142246 -7.69421e-20 0.00789256 -4.89564e-21 -1.76569e-08)
(-0.00135862 0.0840799 -2.12059e-19 0.00135865 -6.22769e-20 -3.49006e-08)
(0.00177874 0.0490064 -1.79925e-19 -0.00177871 -2.34936e-20 -3.07591e-08)
(0.00343696 0.0252897 -3.22742e-19 -0.00343694 1.08742e-19 -1.2806e-08)
(0.00439521 0.007886 -4.29411e-19 -0.00439522 1.03593e-19 5.5362e-09)
(0.00503227 -0.00586366 -3.09294e-19 -0.00503227 6.29572e-20 5.48929e-09)
(0.00550822 -0.0171319 -2.818e-20 -0.00550821 1.1442e-19 -1.48689e-08)
(0.0059389 -0.026714 -1.64075e-19 -0.00593885 2.15176e-19 -5.2361e-08)
(0.00635149 -0.0347498 6.41458e-20 -0.00635141 8.30625e-20 -8.73669e-08)
(0.00676622 -0.0411027 1.7127e-19 -0.00676615 -2.57336e-20 -6.47179e-08)
(-0.0237972 0.14128 -9.13434e-20 0.0237975 9.59308e-21 -2.3373e-07)
(-0.00485301 0.0868685 -2.5229e-19 0.00485357 -5.44918e-20 -5.58838e-07)
(0.00434101 0.0532481 -3.02324e-20 -0.00434021 -4.28899e-20 -8.02182e-07)
(0.0092727 0.0300465 -5.30239e-20 -0.00927172 1.04341e-19 -9.80232e-07)
(0.0121755 0.0127606 -5.33235e-19 -0.0121744 9.61296e-20 -1.10613e-06)
(0.0141379 -0.00101587 -3.34829e-19 -0.0141367 4.83932e-20 -1.18687e-06)
(0.01562 -0.0123515 -2.49973e-19 -0.0156188 3.85577e-20 -1.20723e-06)
(0.016954 -0.0219637 1.8873e-19 -0.0169528 1.68271e-19 -1.13317e-06)
(0.0182152 -0.0299724 -4.14066e-19 -0.0182143 7.20997e-20 -9.07224e-07)
(0.0194579 -0.0362153 7.62868e-20 -0.0194575 -1.46079e-20 -4.15557e-07)
(-0.0401267 0.139141 -3.86068e-20 0.0401272 4.34984e-20 -4.44329e-07)
(-0.0106596 0.0917553 -2.8294e-19 0.0106607 -1.67266e-20 -1.06851e-06)
(0.00395067 0.0608856 -3.92707e-19 -0.00394912 -9.33957e-20 -1.55094e-06)
(0.0120095 0.0386881 -2.88868e-19 -0.0120076 1.04148e-20 -1.91684e-06)
(0.0169091 0.0216627 -3.96612e-19 -0.016907 6.49083e-20 -2.17938e-06)
(0.0203118 0.00787249 -1.10452e-19 -0.0203094 5.55655e-20 -2.33461e-06)
(0.0229219 -0.00355758 -1.84325e-19 -0.0229195 5.28633e-20 -2.35155e-06)
(0.0252461 -0.0132002 -5.93021e-20 -0.025244 6.78577e-20 -2.16746e-06)
(0.027397 -0.0211393 -1.79303e-19 -0.0273953 -6.29517e-20 -1.68975e-06)
(0.0294457 -0.0271642 3.53666e-19 -0.029445 1.24679e-20 -7.49872e-07)
(-0.0570154 0.135455 -4.5542e-20 0.0570161 5.36276e-20 -6.46092e-07)
(-0.0198687 0.0974672 -4.50568e-19 0.0198703 -5.39193e-20 -1.55604e-06)
(-0.000814843 0.0703588 -1.3853e-19 0.000817109 -1.12591e-19 -2.26568e-06)
(0.0101409 0.0496066 1.12788e-19 -0.0101381 -2.30503e-20 -2.8086e-06)
(0.0171062 0.0330306 1.47982e-19 -0.0171031 2.05684e-19 -3.19837e-06)
(0.0221131 0.0193138 -2.87617e-19 -0.0221097 1.64272e-19 -3.42096e-06)
(0.0260273 0.00783705 -2.97679e-19 -0.0260239 -9.51421e-20 -3.43107e-06)
(0.0294666 -0.00178142 4.67944e-21 -0.0294635 -1.19868e-19 -3.13982e-06)
(0.0325642 -0.00957819 1.8574e-20 -0.0325618 1.92952e-20 -2.42264e-06)
(0.0353828 -0.0152811 -6.91984e-19 -0.0353817 7.96008e-20 -1.06157e-06)
(-0.0743985 0.129744 4.7702e-20 0.0743993 -3.42784e-20 -8.36529e-07)
(-0.0329666 0.102352 2.21201e-19 0.0329687 9.61546e-20 -2.01553e-06)
(-0.0106474 0.0796382 1.63482e-19 0.0106503 1.11774e-19 -2.93799e-06)
(0.00290905 0.0607078 3.92455e-20 -0.0029054 9.42136e-20 -3.64558e-06)
(0.0120012 0.0448287 4.29931e-20 -0.0119971 1.69983e-19 -4.15229e-06)
(0.018789 0.0313675 -5.69441e-19 -0.0187845 2.21308e-19 -4.43506e-06)
(0.0242007 0.0199884 -8.02497e-19 -0.0241963 -3.15204e-19 -4.43574e-06)
(0.0288905 0.0105198 -4.4914e-19 -0.0288864 1.90919e-19 -4.04201e-06)
(0.0329927 0.00297631 -1.44099e-18 -0.0329896 -6.16343e-19 -3.1006e-06)
(0.0365316 -0.0023066 9.09667e-19 -0.0365303 2.1523e-20 -1.34926e-06)
(-0.0919786 0.12152 -1.08074e-19 0.0919797 -2.9882e-19 -1.01323e-06)