/*--------------------------------*- C++ -*----------------------------------*\
| =========                 |                                                 |
| \\      /  F ield         | foam-extend: Open Source CFD                    |
|  \\    /   O peration     | Version:  3.0                                   |
|   \\  /    A nd           | Web:         http://www.extend-project.de       |
|    \\/     M anipulation  |                                                 |
\*---------------------------------------------------------------------------*/
FoamFile
{
    version     2.0;
    format      ascii;
    class       volVectorField;
    location    "26";
    object      u;
}
// * * * * * * * * * * * * * * * * * * * * * * * * * * * * * * * * * * * * * //

dimensions      [0 0 0 0 0 0 0];

internalField   nonuniform List<vector> 
480
(
(0.28247 -0.101879 3.53209e-19)
(0.543634 -0.0682347 1.76417e-18)
(0.723059 -0.0474395 -3.60159e-18)
(0.817202 -0.0332744 3.97885e-18)
(0.897308 -0.0235281 2.55298e-18)
(0.932608 -0.0164637 -2.12446e-18)
(0.973842 -0.0107155 -1.29199e-17)
(0.981833 -0.00646217 9.9392e-18)
(1.00429 -0.00203119 -8.10441e-18)
(0.995235 0.00176375 -8.43419e-18)
(0.335386 -0.299606 1.94429e-18)
(0.579176 -0.201164 2.57724e-18)
(0.747882 -0.140437 -1.90242e-17)
(0.834748 -0.0991663 -1.63818e-17)
(0.909864 -0.0708731 1.39683e-17)
(0.941569 -0.0504658 3.9482e-18)
(0.979891 -0.0339432 6.46124e-18)
(0.985754 -0.0218292 -2.0424e-17)
(1.006 -0.00925096 2.7823e-17)
(0.995126 0.00114158 4.83171e-18)
(0.437673 -0.476891 -2.12095e-18)
(0.647906 -0.320358 2.85987e-18)
(0.795928 -0.22383 1.22205e-17)
(0.868743 -0.158259 1.13935e-17)
(0.934242 -0.113339 2.29945e-17)
(0.959018 -0.080972 -7.05177e-18)
(0.991742 -0.0547923 3.13066e-18)
(0.99351 -0.0356345 1.00997e-18)
(1.00951 -0.0157549 2.86563e-17)
(0.995169 0.000546365 -5.22122e-17)
(0.582353 -0.621655 1.1472e-18)
(0.745141 -0.417692 3.44793e-17)
(0.863913 -0.291938 1.23478e-17)
(0.916871 -0.206528 -6.38981e-18)
(0.968771 -0.148036 -8.04436e-18)
(0.983763 -0.105906 -1.53624e-18)
(1.00858 -0.0718453 -3.58914e-19)
(1.00457 -0.0469381 -8.96301e-18)
(1.01457 -0.021103 -4.08655e-17)
(0.99535 1.84813e-05 6.50414e-17)
(0.759566 -0.724031 -8.2654e-18)
(0.864246 -0.486537 6.71553e-18)
(0.947204 -0.340119 1.18866e-17)
(0.975842 -0.240685 1.30447e-17)
(1.0111 -0.172599 -1.72752e-17)
(1.01411 -0.123571 -3.52031e-18)
(1.02924 -0.0839417 -1.2374e-17)
(1.01816 -0.0549749 -1.53762e-17)
(1.02083 -0.0249338 4.77214e-17)
(0.99564 -0.000412869 -6.84708e-17)
(0.95723 -0.777047 1.11685e-17)
(0.997106 -0.5222 -1.75128e-17)
(1.04012 -0.365094 -2.00588e-17)
(1.04164 -0.258405 -2.05339e-17)
(1.05833 -0.185361 -4.0286e-18)
(1.04798 -0.132766 -5.60258e-18)
(1.05232 -0.0902634 5.53255e-17)
(1.03335 -0.0592 -2.73077e-17)
(1.02785 -0.0269935 3.34799e-17)
(0.996007 -0.000723143 -1.01919e-17)
(1.16187 -0.777089 1.12576e-17)
(1.13466 -0.522257 -1.19e-17)
(1.13632 -0.365162 -2.21847e-17)
(1.10977 -0.258486 -2.90477e-17)
(1.10724 -0.185453 -1.83767e-19)
(1.08306 -0.132871 1.33298e-17)
(1.07623 -0.090382 1.2152e-17)
(1.0491 -0.0593337 5.99721e-19)
(1.03514 -0.0271463 2.95344e-17)
(0.996411 -0.000902752 -2.92748e-18)
(1.35955 -0.72416 -5.09826e-18)
(1.26754 -0.486702 -8.92124e-19)
(1.22926 -0.340323 5.35641e-18)
(1.17559 -0.240922 7.90284e-18)
(1.1545 -0.172875 1.25561e-17)
(1.11697 -0.123881 3.32247e-18)
(1.09934 -0.0842983 -6.58884e-18)
(1.06433 -0.0553714 6.76741e-18)
(1.0422 -0.0253927 -2.84124e-17)
(0.996815 -0.000948173 4.80123e-17)
(1.53678 -0.621867 1.82194e-18)
(1.38667 -0.417966 9.30152e-18)
(1.31259 -0.292271 1.41267e-17)
(1.23461 -0.206917 6.38874e-18)
(1.19688 -0.148486 -1.02033e-17)
(1.14737 -0.106417 6.83497e-19)
(1.12007 -0.07243 -4.08701e-19)
(1.07799 -0.0475938 3.46519e-18)
(1.04853 -0.0218582 -3.10573e-18)
(0.99718 -0.000871917 1.07218e-17)
(1.68148 -0.477187 1.62166e-18)
(1.48395 -0.320732 2.44919e-19)
(1.38063 -0.224287 1.10383e-17)
(1.2828 -0.15879 8.167e-18)
(1.23149 -0.113956 5.76388e-18)
(1.1722 -0.0816727 -5.79539e-18)
(1.137 -0.0555968 1.03198e-18)
(1.08915 -0.0365367 -2.12536e-18)
(1.05371 -0.016797 -1.26515e-17)
(0.997477 -0.000690185 2.67356e-18)
(1.7838 -0.29998 9.61905e-19)
(1.55274 -0.201633 -7.3757e-19)
(1.42875 -0.141003 3.13539e-18)
(1.31689 -0.0998278 3.06412e-19)
(1.25597 -0.0716403 5.28048e-20)
(1.18976 -0.0513432 2.41833e-18)
(1.14898 -0.0349496 2.86634e-18)
(1.09705 -0.022966 1.5975e-18)
(1.05738 -0.010561 -5.70481e-18)
(0.997678 -0.000433187 3.0222e-18)
(1.83676 -0.10233 6.06851e-19)
(1.58834 -0.0687851 -8.20701e-19)
(1.45366 -0.0481047 2.33019e-18)
(1.33453 -0.0340506 1.1513e-18)
(1.26865 -0.0244324 -6.59962e-19)
(1.19886 -0.0174994 1.376e-18)
(1.15518 -0.0119076 1.57147e-18)
(1.10113 -0.00781284 1.13482e-18)
(1.05928 -0.00359021 -4.01461e-18)
(0.997769 -0.000129886 5.58367e-19)
(1.83676 0.102296 2.3042e-19)
(1.58834 0.0687501 -1.14607e-18)
(1.45366 0.0480784 2.51314e-18)
(1.33454 0.0340505 1.78859e-18)
(1.26866 0.0244487 -1.68265e-18)
(1.19887 0.0175415 1.32501e-19)
(1.15519 0.0119545 7.48422e-19)
(1.10113 0.00787678 6.986e-19)
(1.05927 0.00363315 -4.02246e-18)
(0.997742 0.000181118 6.12112e-19)
(1.78378 0.299944 -2.2941e-20)
(1.55274 0.2016 -2.01214e-18)
(1.42877 0.140982 2.81215e-18)
(1.31691 0.0998326 3.46823e-18)
(1.256 0.0716611 -4.17501e-18)
(1.18979 0.0513875 -8.55853e-19)
(1.149 0.0349978 -2.12272e-18)
(1.09705 0.0230273 4.28755e-18)
(1.05738 0.0106015 -8.23019e-18)
(0.997602 0.000468266 1.95346e-18)
(1.68145 0.477148 1.17226e-18)
(1.48395 0.320704 -3.40902e-18)
(1.38066 0.224275 -6.64259e-18)
(1.28284 0.158804 -3.25457e-18)
(1.23154 0.113985 -5.56641e-18)
(1.17224 0.081721 3.02177e-18)
(1.13703 0.0556474 -8.94482e-19)
(1.08916 0.036593 -5.606e-19)
(1.05371 0.0168329 -5.25117e-18)
(0.997361 0.000695588 1.66993e-17)
(1.53673 0.621822 7.91148e-19)
(1.38668 0.417946 -1.53074e-17)
(1.31262 0.292271 -5.68327e-18)
(1.23466 0.206942 5.08492e-18)
(1.19694 0.148525 8.26946e-18)
(1.14742 0.106471 7.38603e-19)
(1.12011 0.0724836 -1.24401e-18)
(1.078 0.0476434 4.80074e-18)
(1.04853 0.021888 1.81369e-17)
(0.99704 0.000839068 -2.828e-17)
(1.35949 0.724112 6.18572e-18)
(1.26754 0.48669 2.2758e-18)
(1.22929 0.340337 -4.14106e-18)
(1.17564 0.240959 -5.70547e-18)
(1.15457 0.172925 1.14695e-17)
(1.11702 0.12394 1.62214e-19)
(1.09939 0.0843544 -4.79136e-19)
(1.06435 0.0554133 8.32939e-18)
(1.0422 0.0254159 -3.74633e-17)
(0.996668 0.000874843 4.82224e-17)
(1.16182 0.777037 -1.148e-17)
(1.13466 0.522252 1.77329e-17)
(1.13635 0.365187 1.93671e-17)
(1.10982 0.258534 2.01605e-17)
(1.10731 0.185513 -1.21746e-18)
(1.08312 0.132933 -4.65428e-20)
(1.07628 0.0904397 -5.0777e-17)
(1.04913 0.0593679 1.96549e-17)
(1.03515 0.0271632 -2.43484e-17)
(0.996276 0.000793696 -2.57554e-18)
(0.957178 0.776996 -1.43819e-17)
(0.9971 0.522202 8.63732e-18)
(1.04014 0.365129 1.6261e-17)
(1.04168 0.258461 2.2775e-17)
(1.05839 0.185427 -6.30688e-18)
(1.04804 0.132829 -1.6322e-17)
(1.05237 0.0903207 -3.0235e-18)
(1.03339 0.0592272 -2.7413e-18)
(1.02787 0.0270052 -1.97514e-17)
(0.995899 0.000589442 -7.78782e-18)
(0.759518 0.723983 4.53786e-18)
(0.864233 0.486544 -5.37431e-18)
(0.947215 0.34016 -2.06347e-17)
(0.975878 0.240744 -2.49876e-17)
(1.01115 0.172666 -1.73187e-17)
(1.01416 0.123632 5.13256e-19)
(1.0293 0.0839963 1.51961e-17)
(1.0182 0.0549963 -6.61138e-18)
(1.02086 0.0249421 5.02102e-17)
(0.99557 0.000270413 -6.97358e-17)
(0.582309 0.621615 -6.34269e-18)
(0.74512 0.417704 -1.87503e-17)
(0.863912 0.291979 -3.07503e-17)
(0.916895 0.206583 -1.52205e-17)
(0.96881 0.148098 2.5582e-17)
(0.983816 0.10596 3.86279e-18)
(1.00863 0.0718943 -5.67036e-19)
(1.00462 0.0469554 -2.3487e-18)
(1.0146 0.02111 5.22701e-18)
(0.995321 -0.000151159 -8.89796e-18)
(0.437634 0.476863 -2.12054e-18)
(0.647878 0.320371 7.067e-18)
(0.795915 0.223867 -2.02142e-17)
(0.868756 0.158307 -1.50261e-17)
(0.93427 0.113391 -1.41494e-17)
(0.959067 0.0810175 1.51699e-17)
(0.991794 0.0548332 -6.71361e-18)
(0.993568 0.0356493 5.44064e-18)
(1.00955 0.0157625 3.61239e-17)
(0.995179 -0.000651335 -6.83131e-18)
(0.33535 0.299593 1.4112e-21)
(0.579143 0.201178 8.34556e-18)
(0.74786 0.140466 3.77038e-18)
(0.834751 0.0992007 1.22344e-17)
(0.909884 0.0709106 7.78497e-18)
(0.941613 0.0504985 -1.39726e-17)
(0.97994 0.0339735 -1.09575e-17)
(0.985816 0.0218429 -9.26066e-18)
(1.00604 0.00926095 9.37391e-18)
(0.995164 -0.00120313 -1.27511e-17)
(0.282436 0.101883 -9.48412e-19)
(0.543597 0.0682461 2.99407e-18)
(0.72303 0.0474562 -3.62509e-19)
(0.8172 0.0332929 -4.70887e-18)
(0.897324 0.023548 -2.63475e-20)
(0.932649 0.0164823 1.32556e-20)
(0.973888 0.0107338 6.50866e-18)
(0.981897 0.00647539 -2.54677e-18)
(1.00434 0.00204427 1.19449e-17)
(0.995288 -0.00177269 4.58574e-18)
(0.282494 -0.102793 -3.53793e-19)
(0.543671 -0.0693653 -1.7639e-18)
(0.723119 -0.0488227 3.60174e-18)
(0.817308 -0.0349259 -3.98123e-18)
(0.897449 -0.0254686 -2.55378e-18)
(0.932797 -0.0187146 2.1251e-18)
(0.974056 -0.0133031 1.29257e-17)
(0.982091 -0.00940827 -9.9458e-18)
(1.00456 -0.00539706 8.1127e-18)
(0.995558 -0.00232507 8.44354e-18)
(0.335529 -0.300487 -1.94549e-18)
(0.57936 -0.202278 -2.57737e-18)
(0.748128 -0.141809 1.90307e-17)
(0.83507 -0.100806 1.63872e-17)
(0.910261 -0.0727983 -1.39745e-17)
(0.94205 -0.0526931 -3.9505e-18)
(0.980444 -0.0364989 -6.46452e-18)
(0.98639 -0.024726 2.04375e-17)
(1.0067 -0.0125563 -2.78396e-17)
(0.995965 -0.00282437 -4.8391e-18)
(0.437926 -0.477727 2.11995e-18)
(0.64824 -0.321434 -2.8587e-18)
(0.796354 -0.225165 -1.22205e-17)
(0.869284 -0.159857 -1.1396e-17)
(0.934889 -0.115215 -2.30053e-17)
(0.959789 -0.0831363 7.05337e-18)
(0.992622 -0.0572723 -3.133e-18)
(0.994516 -0.0384326 -1.00784e-18)
(1.01063 -0.0189449 -2.86771e-17)
(0.9965 -0.00323603 5.22413e-17)
(0.582713 -0.622433 -1.14838e-18)
(0.745615 -0.418711 -3.44857e-17)
(0.864519 -0.293208 -1.2349e-17)
(0.91762 -0.208053 6.39233e-18)
(0.969665 -0.149825 8.04083e-18)
(0.984808 -0.107968 1.53754e-18)
(1.00977 -0.0742044 3.59212e-19)
(1.00592 -0.0495926 8.96765e-18)
(1.01609 -0.0241239 4.08921e-17)
(0.997138 -0.00353057 -6.50797e-17)
(0.760023 -0.724743 8.2655e-18)
(0.864857 -0.487478 -6.71926e-18)
(0.947977 -0.341301 -1.18908e-17)
(0.976791 -0.242106 -1.30485e-17)
(1.01222 -0.174269 1.72766e-17)
(1.01541 -0.125493 3.52516e-18)
(1.03073 -0.0861396 1.23851e-17)
(1.01984 -0.0574407 1.53841e-17)
(1.02272 -0.0277377 -4.77274e-17)
(0.997852 -0.00368199 6.84858e-17)
(0.95778 -0.777681 -1.11687e-17)
(0.99784 -0.523048 1.75147e-17)
(1.04105 -0.366161 2.00583e-17)
(1.04277 -0.259695 2.05341e-17)
(1.05966 -0.186876 4.03251e-18)
(1.04952 -0.134514 5.61133e-18)
(1.05408 -0.0922583 -5.53386e-17)
(1.03533 -0.0614391 2.73194e-17)
(1.03009 -0.0295326 -3.34934e-17)
(0.998606 -0.00367472 1.01947e-17)
(1.16251 -0.77764 -1.12574e-17)
(1.13551 -0.522992 1.19039e-17)
(1.13739 -0.366094 2.21901e-17)
(1.11106 -0.259615 2.90518e-17)
(1.10876 -0.186786 1.8714e-19)
(1.08481 -0.13441 -1.33252e-17)
(1.07822 -0.092141 -1.2164e-17)
(1.05135 -0.0613071 -5.96914e-19)
(1.03768 -0.0293817 -2.95474e-17)
(0.999363 -0.00349788 2.93307e-18)
(1.36025 -0.724618 5.09906e-18)
(1.26847 -0.487315 8.9428e-19)
(1.23044 -0.341099 -5.35063e-18)
(1.17701 -0.241872 -7.89665e-18)
(1.15618 -0.173997 -1.25601e-17)
(1.11889 -0.125186 -3.32549e-18)
(1.10154 -0.0857871 6.58241e-18)
(1.0668 -0.0570491 -6.76997e-18)
(1.045 -0.0272845 2.84019e-17)
(1.00008 -0.00315472 -4.8002e-17)
(1.53755 -0.622228 -1.82106e-18)
(1.38769 -0.418442 -9.30316e-18)
(1.31386 -0.29288 -1.41226e-17)
(1.23613 -0.207668 -6.38544e-18)
(1.19868 -0.14938 1.01944e-17)
(1.14944 -0.107462 -6.88117e-19)
(1.12243 -0.0736262 4.07977e-19)
(1.08065 -0.0489448 -3.46689e-18)
(1.05156 -0.0233778 3.10772e-18)
(1.00072 -0.00265299 -1.07191e-17)
(1.68231 -0.47744 -1.62255e-18)
(1.48502 -0.321067 -2.48572e-19)
(1.38196 -0.224715 -1.10385e-17)
(1.2844 -0.159332 -8.16704e-18)
(1.23338 -0.114605 -5.76279e-18)
(1.17437 -0.0824429 5.79174e-18)
(1.13948 -0.0564764 -1.03167e-18)
(1.09195 -0.0375405 2.12432e-18)
(1.0569 -0.0179145 1.26365e-17)
(1.00125 -0.00201582 -2.67362e-18)
(1.78468 -0.300124 -9.63598e-19)
(1.55385 -0.201818 7.33813e-19)
(1.43012 -0.141251 -3.13788e-18)
(1.31853 -0.100151 -3.10986e-19)
(1.2579 -0.0720383 -5.89761e-20)
(1.192 -0.0518238 -2.41341e-18)
(1.15154 -0.0355024 -2.86389e-18)
(1.09995 -0.0236011 -1.58949e-18)
(1.06068 -0.0112599 5.70085e-18)
(1.00163 -0.00126876 -3.01805e-18)
(1.83767 -0.102354 -6.08959e-19)
(1.58947 -0.0688231 8.19101e-19)
(1.45504 -0.0481653 -2.33211e-18)
(1.33619 -0.034157 -1.15163e-18)
(1.2706 -0.0245723 6.5835e-19)
(1.20112 -0.0176879 -1.37852e-18)
(1.15777 -0.0121216 -1.57888e-18)
(1.10408 -0.00807018 -1.13377e-18)
(1.06264 -0.00385261 4.00794e-18)
(1.00184 -0.000451242 -5.65944e-19)
(1.83768 0.10239 -2.33015e-19)
(1.58947 0.0688625 1.14511e-18)
(1.45504 0.0481966 -2.51588e-18)
(1.33618 0.0341621 -1.79074e-18)
(1.27059 0.0245604 1.68231e-18)
(1.20111 0.0176493 -1.34069e-19)
(1.15777 0.0120771 -7.55733e-19)
(1.10408 0.00800715 -6.9738e-19)
(1.06264 0.00380988 4.02142e-18)
(1.00187 0.00039894 -6.20654e-19)
(1.7847 0.300162 1.97572e-20)
(1.55385 0.201856 2.01095e-18)
(1.4301 0.141277 -2.81386e-18)
(1.31851 0.100152 -3.47251e-18)
(1.25788 0.0720225 4.17644e-18)
(1.19198 0.0517836 8.56501e-19)
(1.15152 0.0354573 2.12544e-18)
(1.09995 0.0235417 -4.29819e-18)
(1.06069 0.0112206 8.24652e-18)
(1.00172 0.0012342 -1.95716e-18)
(1.68235 0.477484 -1.17556e-18)
(1.48502 0.3211 3.40944e-18)
(1.38194 0.224734 6.64524e-18)
(1.28437 0.159325 3.25578e-18)
(1.23333 0.114582 5.56645e-18)
(1.17434 0.0823998 -3.026e-18)
(1.13946 0.0564302 8.94163e-19)
(1.09196 0.0374878 5.60119e-19)
(1.05691 0.0178818 5.26122e-18)
(1.00138 0.0020139 -1.67277e-17)
(1.5376 0.622279 -7.93539e-19)
(1.38769 0.418471 1.53064e-17)
(1.31383 0.292888 5.68342e-18)
(1.23609 0.207651 -5.08691e-18)
(1.19863 0.149348 -8.27913e-18)
(1.14939 0.107416 -7.40389e-19)
(1.1224 0.0735792 1.24292e-18)
(1.08065 0.0489012 -4.80445e-18)
(1.05157 0.0233539 -1.81417e-17)
(1.00088 0.00269342 2.83007e-17)
(1.36032 0.724675 -6.1875e-18)
(1.26848 0.487338 -2.27988e-18)
(1.23041 0.341096 4.13642e-18)
(1.17696 0.241845 5.70222e-18)
(1.15612 0.173956 -1.14762e-17)
(1.11884 0.125137 -1.61262e-19)
(1.1015 0.0857399 4.85646e-19)
(1.06679 0.0570161 -8.3307e-18)
(1.04501 0.0272705 3.74985e-17)
(1.00025 0.00324042 -4.82538e-17)
(1.16257 0.777704 1.14787e-17)
(1.13552 0.52301 -1.77334e-17)
(1.13736 0.366081 -1.93713e-17)
(1.11101 0.259579 -2.01642e-17)
(1.10871 0.186738 1.21874e-18)
(1.08476 0.13436 5.30994e-20)
(1.07818 0.092095 5.07787e-17)
(1.05133 0.061285 -1.96508e-17)
(1.03768 0.0293778 2.43549e-17)
(0.999518 0.00362446 2.56948e-18)
(0.957842 0.777747 1.43804e-17)
(0.997855 0.52306 -8.63381e-18)
(1.04103 0.36614 -1.62557e-17)
(1.04273 0.259653 -2.27706e-17)
(1.05961 0.186824 6.30842e-18)
(1.04947 0.134465 1.63233e-17)
(1.05403 0.0922154 3.01127e-18)
(1.03531 0.0614272 2.73684e-18)
(1.03008 0.0295376 1.97371e-17)
(0.998734 0.00383101 7.77681e-18)
(0.760081 0.724808 -4.53779e-18)
(0.864879 0.487487 5.37603e-18)
(0.947972 0.341277 2.06378e-17)
(0.976762 0.242063 2.49883e-17)
(1.01218 0.174218 1.73105e-17)
(1.01536 0.125448 -5.17278e-19)
(1.03068 0.086102 -1.5199e-17)
(1.01981 0.0574378 6.60028e-18)
(1.02271 0.0277499 -5.01976e-17)
(0.997941 0.0038518 6.96973e-17)
(0.582765 0.622493 6.34246e-18)
(0.745643 0.418718 1.87459e-17)
(0.864526 0.293185 3.0748e-17)
(0.917601 0.208014 1.52187e-17)
(0.969632 0.14978 -2.55792e-17)
(0.984762 0.107931 -3.86437e-18)
(1.00973 0.0741747 5.65286e-19)
(1.00588 0.0495966 2.34141e-18)
(1.01607 0.0241407 -5.22172e-18)
(0.997182 0.00369477 8.88191e-18)
(0.437971 0.477778 2.11988e-18)
(0.648273 0.321441 -7.06846e-18)
(0.796372 0.225148 2.02084e-17)
(0.869276 0.159827 1.50197e-17)
(0.934866 0.115181 1.41451e-17)
(0.959746 0.0831104 -1.51615e-17)
(0.992577 0.0572529 6.71072e-18)
(0.994465 0.0384415 -5.43893e-18)
(1.0106 0.0189638 -3.60994e-17)
(0.996503 0.00337579 6.82536e-18)
(0.335569 0.300524 -2.05531e-21)
(0.579397 0.202286 -8.34597e-18)
(0.748154 0.141801 -3.77068e-18)
(0.835069 0.100791 -1.22333e-17)
(0.910244 0.0727803 -7.78589e-18)
(0.942009 0.0526809 1.39685e-17)
(0.9804 0.0364915 1.09496e-17)
(0.986332 0.0247376 9.25536e-18)
(1.00666 0.0125747 -9.3663e-18)
(0.995934 0.00292306 1.27431e-17)
(0.282529 0.102815 9.47803e-19)
(0.543709 0.0693753 -2.99338e-18)
(0.723148 0.0488266 3.61828e-19)
(0.817311 0.0349264 4.70737e-18)
(0.897435 0.0254687 2.5955e-20)
(0.932757 0.0187174 -1.48927e-20)
(0.974011 0.0133087 -6.5093e-18)
(0.982028 0.00942152 2.54493e-18)
(1.00451 0.00541343 -1.1936e-17)
(0.995508 0.00237237 -4.5804e-18)
)
;

boundaryField
{
    out
    {
        type            fixedValue;
        value           uniform (1 0 0);
    }
    in
    {
        type            myVelocity;
    }
    frontAndBack
    {
        type            empty;
    }
}


// ************************************************************************* //
