/*--------------------------------*- C++ -*----------------------------------*\
| =========                 |                                                 |
| \\      /  F ield         | foam-extend: Open Source CFD                    |
|  \\    /   O peration     | Version:  3.0                                   |
|   \\  /    A nd           | Web:         http://www.extend-project.de       |
|    \\/     M anipulation  |                                                 |
\*---------------------------------------------------------------------------*/
FoamFile
{
    version     2.0;
    format      ascii;
    class       volScalarField;
    location    "15";
    object      p;
}
// * * * * * * * * * * * * * * * * * * * * * * * * * * * * * * * * * * * * * //

dimensions      [0 0 0 0 0 0 0];

internalField   nonuniform List<scalar> 
7680
(
-0.233115
-0.220951
-0.211889
-0.20237
-0.195386
-0.187822
-0.182381
-0.176305
-0.172042
-0.167124
-0.163776
-0.159776
-0.157149
-0.153886
-0.151831
-0.149163
-0.147564
-0.145379
-0.144141
-0.142346
-0.141389
-0.139905
-0.139161
-0.137918
-0.137324
-0.136259
-0.135756
-0.13481
-0.134342
-0.133456
-0.132966
-0.132081
-0.131511
-0.130564
-0.129852
-0.128778
-0.127854
-0.12658
-0.125369
-0.123812
-0.232892
-0.220741
-0.211688
-0.202179
-0.195202
-0.187646
-0.182211
-0.176141
-0.171883
-0.16697
-0.163626
-0.15963
-0.157006
-0.153746
-0.151694
-0.149029
-0.147433
-0.14525
-0.144014
-0.142221
-0.141266
-0.139784
-0.139041
-0.1378
-0.137207
-0.136144
-0.135642
-0.134697
-0.13423
-0.133345
-0.132857
-0.131972
-0.131403
-0.130457
-0.129745
-0.128672
-0.127749
-0.126475
-0.125264
-0.123708
-0.232382
-0.220259
-0.211227
-0.20174
-0.194779
-0.187241
-0.181819
-0.175763
-0.171515
-0.166615
-0.163278
-0.159293
-0.156675
-0.153423
-0.151377
-0.148718
-0.147126
-0.144949
-0.143717
-0.141929
-0.140977
-0.139499
-0.138758
-0.137521
-0.13693
-0.13587
-0.135369
-0.134427
-0.133962
-0.133079
-0.132592
-0.13171
-0.131142
-0.130198
-0.129488
-0.128417
-0.127496
-0.126224
-0.125016
-0.123463
-0.231661
-0.219576
-0.210573
-0.201116
-0.194177
-0.186663
-0.181258
-0.175222
-0.170987
-0.166103
-0.162777
-0.158804
-0.156195
-0.152954
-0.150914
-0.148265
-0.146678
-0.144508
-0.14328
-0.141498
-0.14055
-0.139077
-0.138339
-0.137106
-0.136517
-0.13546
-0.134962
-0.134023
-0.13356
-0.13268
-0.132194
-0.131314
-0.130749
-0.129808
-0.1291
-0.128032
-0.127113
-0.125845
-0.124641
-0.123093
-0.230654
-0.218623
-0.20966
-0.200245
-0.193337
-0.185857
-0.180477
-0.174468
-0.170253
-0.16539
-0.16208
-0.158125
-0.155528
-0.152302
-0.150272
-0.147635
-0.146056
-0.143896
-0.142674
-0.140901
-0.139957
-0.138491
-0.137757
-0.13653
-0.135944
-0.134893
-0.134397
-0.133463
-0.133001
-0.132125
-0.131642
-0.130767
-0.130203
-0.129267
-0.128561
-0.127498
-0.126584
-0.125322
-0.124123
-0.122584
-0.229437
-0.21747
-0.208555
-0.199191
-0.19232
-0.184879
-0.179528
-0.173551
-0.169359
-0.164522
-0.16123
-0.157296
-0.154714
-0.151505
-0.149486
-0.146863
-0.145293
-0.143145
-0.14193
-0.140166
-0.139227
-0.137769
-0.13704
-0.135819
-0.135237
-0.134191
-0.133698
-0.132769
-0.13231
-0.131439
-0.130958
-0.130087
-0.129526
-0.128595
-0.127893
-0.126835
-0.125926
-0.124671
-0.12348
-0.12195
-0.227937
-0.216049
-0.207194
-0.197892
-0.191067
-0.183676
-0.17836
-0.172424
-0.168259
-0.163455
-0.160185
-0.156278
-0.153713
-0.150526
-0.148521
-0.145916
-0.144357
-0.142224
-0.141017
-0.139265
-0.138334
-0.136886
-0.136161
-0.134949
-0.134371
-0.133332
-0.132843
-0.13192
-0.131464
-0.130599
-0.130121
-0.129256
-0.128699
-0.127773
-0.127076
-0.126026
-0.125123
-0.123878
-0.122695
-0.121177
-0.22623
-0.214432
-0.205644
-0.196412
-0.189638
-0.182303
-0.177028
-0.171136
-0.167003
-0.162235
-0.15899
-0.155113
-0.152568
-0.149405
-0.147415
-0.14483
-0.143282
-0.141165
-0.139968
-0.13823
-0.137305
-0.135868
-0.135149
-0.133946
-0.133372
-0.132342
-0.131856
-0.13094
-0.130487
-0.129628
-0.129154
-0.128295
-0.127742
-0.126823
-0.126131
-0.125089
-0.124193
-0.122959
-0.121785
-0.120282
-0.224243
-0.21255
-0.20384
-0.19469
-0.187977
-0.180707
-0.175479
-0.16964
-0.165544
-0.160819
-0.157603
-0.153761
-0.151238
-0.148104
-0.146132
-0.14357
-0.142037
-0.139939
-0.138753
-0.13703
-0.136114
-0.13469
-0.133978
-0.132786
-0.132217
-0.131196
-0.130715
-0.129806
-0.129358
-0.128507
-0.128037
-0.127185
-0.126637
-0.125727
-0.125041
-0.124009
-0.12312
-0.121898
-0.120737
-0.11925
-0.222054
-0.210476
-0.201851
-0.192791
-0.186144
-0.178945
-0.173768
-0.167986
-0.163931
-0.159252
-0.156068
-0.152264
-0.149766
-0.146662
-0.14471
-0.142174
-0.140655
-0.138578
-0.137404
-0.135698
-0.134791
-0.133381
-0.132676
-0.131495
-0.130932
-0.129921
-0.129444
-0.128545
-0.1281
-0.127257
-0.126791
-0.125948
-0.125405
-0.124504
-0.123824
-0.122803
-0.121924
-0.120715
-0.119566
-0.118097
-0.219589
-0.20814
-0.199612
-0.190653
-0.184081
-0.176963
-0.171845
-0.166128
-0.162118
-0.157492
-0.154344
-0.150582
-0.148113
-0.145045
-0.143114
-0.140607
-0.139106
-0.137052
-0.135891
-0.134205
-0.133308
-0.131914
-0.131217
-0.13005
-0.129493
-0.128493
-0.128022
-0.127132
-0.126693
-0.125859
-0.125398
-0.124565
-0.124028
-0.123137
-0.122465
-0.121456
-0.120587
-0.119393
-0.118259
-0.116809
-0.216926
-0.205617
-0.197193
-0.188343
-0.181851
-0.174819
-0.169763
-0.164116
-0.160155
-0.155586
-0.152476
-0.14876
-0.146321
-0.14329
-0.141383
-0.138906
-0.137423
-0.135395
-0.134248
-0.132582
-0.131697
-0.13032
-0.129631
-0.128478
-0.127927
-0.126939
-0.126473
-0.125595
-0.12516
-0.124336
-0.123881
-0.123057
-0.122527
-0.121647
-0.120983
-0.119987
-0.119129
-0.117952
-0.116833
-0.115403
-0.213994
-0.202838
-0.194528
-0.185799
-0.179396
-0.17246
-0.167473
-0.161903
-0.157997
-0.153489
-0.150422
-0.146757
-0.144352
-0.141362
-0.139482
-0.137039
-0.135577
-0.133576
-0.132445
-0.130802
-0.129928
-0.12857
-0.127891
-0.126754
-0.126211
-0.125236
-0.124777
-0.12391
-0.123481
-0.122669
-0.122219
-0.121407
-0.120884
-0.120016
-0.119362
-0.11838
-0.117535
-0.116375
-0.115272
-0.113865
-0.210869
-0.199877
-0.191689
-0.183088
-0.176778
-0.169944
-0.16503
-0.159542
-0.155692
-0.151251
-0.148229
-0.144618
-0.142247
-0.139302
-0.137449
-0.135042
-0.133601
-0.13163
-0.130515
-0.128896
-0.128035
-0.126697
-0.126027
-0.124906
-0.124371
-0.123411
-0.122958
-0.122103
-0.121681
-0.12088
-0.120437
-0.119637
-0.119121
-0.118266
-0.117622
-0.116655
-0.115822
-0.114681
-0.113596
-0.112212
-0.207481
-0.196666
-0.188611
-0.180149
-0.173941
-0.167218
-0.162383
-0.156984
-0.153197
-0.148828
-0.145855
-0.142302
-0.13997
-0.137072
-0.13525
-0.132882
-0.131464
-0.129525
-0.128429
-0.126836
-0.125989
-0.124673
-0.124014
-0.122912
-0.122385
-0.12144
-0.120994
-0.120154
-0.119738
-0.11895
-0.118514
-0.117727
-0.11722
-0.116379
-0.115746
-0.114795
-0.113977
-0.112856
-0.11179
-0.110431
-0.203909
-0.193281
-0.185364
-0.177048
-0.170947
-0.16434
-0.159589
-0.154283
-0.150561
-0.146267
-0.143346
-0.139854
-0.137563
-0.134715
-0.132924
-0.130597
-0.129204
-0.127298
-0.12622
-0.124655
-0.123823
-0.122529
-0.121881
-0.120798
-0.12028
-0.119351
-0.118913
-0.118087
-0.117678
-0.116904
-0.116475
-0.115702
-0.115203
-0.114377
-0.113755
-0.112821
-0.112018
-0.110918
-0.109872
-0.108538
-0.20008
-0.189652
-0.181885
-0.173726
-0.16774
-0.161258
-0.156597
-0.151391
-0.14774
-0.143527
-0.140661
-0.137236
-0.134988
-0.132194
-0.130437
-0.128154
-0.126787
-0.124918
-0.123861
-0.122325
-0.121509
-0.120239
-0.119604
-0.118541
-0.118033
-0.117122
-0.116692
-0.115881
-0.11548
-0.114721
-0.1143
-0.113542
-0.113052
-0.112243
-0.111633
-0.110718
-0.109931
-0.108852
-0.107827
-0.106521
-0.196075
-0.185856
-0.178245
-0.170249
-0.164383
-0.158031
-0.153464
-0.148362
-0.144784
-0.140656
-0.137847
-0.134491
-0.132288
-0.12955
-0.127828
-0.12559
-0.124252
-0.122419
-0.121383
-0.119878
-0.119078
-0.117834
-0.117211
-0.11617
-0.115672
-0.114779
-0.114357
-0.113563
-0.113169
-0.112425
-0.112013
-0.11127
-0.11079
-0.109998
-0.1094
-0.108504
-0.107734
-0.106678
-0.105675
-0.104396
-0.191821
-0.181825
-0.174379
-0.166558
-0.16082
-0.154606
-0.150139
-0.145148
-0.141649
-0.137611
-0.134864
-0.13158
-0.129426
-0.126748
-0.125064
-0.122875
-0.121565
-0.119773
-0.11876
-0.117288
-0.116505
-0.115289
-0.114679
-0.11366
-0.113174
-0.1123
-0.111888
-0.111111
-0.110726
-0.109998
-0.109595
-0.108869
-0.1084
-0.107625
-0.107041
-0.106165
-0.105412
-0.104381
-0.103401
-0.102152
-0.1874
-0.177635
-0.170361
-0.16272
-0.157115
-0.151044
-0.14668
-0.141804
-0.138386
-0.134441
-0.131757
-0.12855
-0.126445
-0.123828
-0.122183
-0.120045
-0.118766
-0.117015
-0.116025
-0.114587
-0.113822
-0.112633
-0.112038
-0.111042
-0.110567
-0.109713
-0.10931
-0.108551
-0.108175
-0.107464
-0.107071
-0.106361
-0.105903
-0.105146
-0.104576
-0.103722
-0.102987
-0.10198
-0.101024
-0.0998051
-0.18274
-0.173218
-0.166126
-0.158676
-0.153211
-0.147292
-0.143036
-0.138283
-0.13495
-0.131104
-0.128487
-0.12536
-0.123308
-0.120757
-0.119153
-0.117069
-0.115821
-0.114114
-0.113149
-0.111747
-0.111002
-0.109843
-0.109263
-0.108292
-0.107828
-0.106996
-0.106603
-0.105864
-0.105497
-0.104804
-0.104421
-0.103729
-0.103283
-0.102546
-0.10199
-0.101158
-0.100442
-0.0994614
-0.0985299
-0.097343
-0.177923
-0.168652
-0.161747
-0.154493
-0.149173
-0.14341
-0.139267
-0.134639
-0.131394
-0.127649
-0.125102
-0.122057
-0.120059
-0.117575
-0.116014
-0.113984
-0.11277
-0.111108
-0.110168
-0.108803
-0.108077
-0.106949
-0.106384
-0.105439
-0.104987
-0.104177
-0.103794
-0.103074
-0.102717
-0.102043
-0.101669
-0.100996
-0.100562
-0.0998448
-0.0993044
-0.0984947
-0.0977984
-0.0968446
-0.0959386
-0.0947841
-0.172877
-0.16387
-0.157161
-0.150114
-0.144944
-0.139346
-0.135321
-0.130825
-0.127672
-0.124034
-0.12156
-0.118602
-0.116661
-0.114248
-0.112731
-0.11076
-0.10958
-0.107966
-0.107053
-0.105727
-0.105022
-0.103926
-0.103377
-0.102459
-0.10202
-0.101234
-0.100862
-0.100162
-0.0998161
-0.0991611
-0.0987986
-0.0981449
-0.0977238
-0.0970273
-0.0965028
-0.0957168
-0.095041
-0.0941152
-0.0932358
-0.0921152
-0.167684
-0.158947
-0.15244
-0.145605
-0.140591
-0.135161
-0.131257
-0.126896
-0.123838
-0.12031
-0.117909
-0.11504
-0.113158
-0.110818
-0.109347
-0.107434
-0.10629
-0.104724
-0.103839
-0.102553
-0.101869
-0.100805
-0.100273
-0.0993826
-0.0989571
-0.098194
-0.0978335
-0.0971551
-0.0968193
-0.096184
-0.0958326
-0.0951988
-0.0947906
-0.0941155
-0.0936072
-0.0928454
-0.0921905
-0.0912933
-0.0904412
-0.0893552
-0.162273
-0.153819
-0.147522
-0.140908
-0.136057
-0.130802
-0.127025
-0.122805
-0.119847
-0.116433
-0.11411
-0.111334
-0.109513
-0.107249
-0.105826
-0.103976
-0.102869
-0.101354
-0.100497
-0.0992529
-0.0985915
-0.0975627
-0.0970479
-0.0961865
-0.095775
-0.0950369
-0.0946883
-0.0940322
-0.0937075
-0.0930931
-0.0927534
-0.0921406
-0.091746
-0.0910933
-0.0906019
-0.0898654
-0.0892324
-0.0883649
-0.0875412
-0.0864911
-0.156726
-0.148561
-0.14248
-0.136092
-0.131407
-0.126332
-0.122684
-0.118609
-0.115751
-0.112454
-0.110211
-0.10753
-0.105771
-0.103585
-0.10221
-0.100423
-0.0993543
-0.0978911
-0.097064
-0.0958622
-0.0952233
-0.0942297
-0.0937325
-0.0929006
-0.0925032
-0.0917903
-0.0914537
-0.0908201
-0.0905065
-0.0899134
-0.0895855
-0.0889939
-0.0886131
-0.0879831
-0.087509
-0.0867982
-0.0861874
-0.0853503
-0.0845554
-0.083542
-0.150973
-0.143108
-0.137252
-0.131099
-0.126586
-0.121698
-0.118184
-0.114259
-0.111507
-0.108332
-0.106172
-0.10359
-0.101896
-0.0997902
-0.0984664
-0.0967454
-0.0957161
-0.0943071
-0.0935106
-0.0923534
-0.0917383
-0.0907816
-0.0903029
-0.0895018
-0.0891194
-0.0884331
-0.0881091
-0.0874992
-0.0871975
-0.0866266
-0.0863111
-0.0857417
-0.0853754
-0.0847691
-0.0843129
-0.0836289
-0.0830412
-0.0822355
-0.0814705
-0.080495
-0.145097
-0.137539
-0.13191
-0.125996
-0.121659
-0.116962
-0.113585
-0.109813
-0.107169
-0.104117
-0.102041
-0.0995595
-0.0979316
-0.0959078
-0.0946357
-0.0929818
-0.0919925
-0.0906384
-0.089873
-0.0887608
-0.0881697
-0.0872503
-0.0867903
-0.0860205
-0.085653
-0.0849935
-0.0846822
-0.0840962
-0.0838064
-0.0832579
-0.0829549
-0.082408
-0.0820562
-0.0814739
-0.0810359
-0.080379
-0.0798147
-0.079041
-0.0783064
-0.0773696
-0.139027
-0.131785
-0.126393
-0.120727
-0.116572
-0.112072
-0.108837
-0.105224
-0.10269
-0.0997666
-0.0977782
-0.0954012
-0.0938419
-0.0919033
-0.0906848
-0.0891006
-0.0881532
-0.0868561
-0.0861232
-0.085058
-0.084492
-0.0836114
-0.0831711
-0.0824338
-0.082082
-0.0814505
-0.0811527
-0.0805916
-0.0803143
-0.0797892
-0.0794994
-0.0789758
-0.0786393
-0.0780819
-0.0776628
-0.077034
-0.0764939
-0.0757532
-0.0750499
-0.074153
-0.132846
-0.125927
-0.120774
-0.115361
-0.111391
-0.107091
-0.104
-0.100547
-0.0981264
-0.0953329
-0.093433
-0.0911618
-0.089672
-0.0878197
-0.0866555
-0.0851418
-0.0842366
-0.0829973
-0.082297
-0.0812793
-0.0807385
-0.0798972
-0.0794765
-0.0787721
-0.0784361
-0.0778328
-0.0775483
-0.0770123
-0.0767476
-0.0762461
-0.0759693
-0.0754694
-0.0751481
-0.0746159
-0.0742158
-0.0736154
-0.0730998
-0.0723926
-0.0717213
-0.0708648
-0.126485
-0.119898
-0.114992
-0.109839
-0.10606
-0.101966
-0.0990239
-0.095737
-0.0934329
-0.0907738
-0.0889654
-0.0868036
-0.0853856
-0.0836226
-0.0825146
-0.0810739
-0.0802126
-0.0790331
-0.0783668
-0.0773982
-0.0768838
-0.0760832
-0.0756831
-0.0750129
-0.0746934
-0.0741194
-0.073849
-0.0733391
-0.0730875
-0.0726105
-0.0723475
-0.071872
-0.0715666
-0.0710604
-0.0706801
-0.070109
-0.0696187
-0.0689459
-0.0683073
-0.0674925
-0.120027
-0.113776
-0.109121
-0.104231
-0.100645
-0.0967608
-0.093969
-0.0908501
-0.0886638
-0.0861407
-0.0844248
-0.0823735
-0.0810282
-0.0793553
-0.0783041
-0.0769371
-0.0761199
-0.0750008
-0.0743686
-0.0734496
-0.0729616
-0.072202
-0.0718225
-0.0711867
-0.0708836
-0.0703391
-0.0700827
-0.069599
-0.0693605
-0.0689081
-0.0686588
-0.0682079
-0.0679185
-0.0674385
-0.067078
-0.0665365
-0.0660717
-0.0654339
-0.0648284
-0.0640558
-0.113402
-0.107496
-0.103099
-0.0984798
-0.0950924
-0.0914233
-0.0887863
-0.0858402
-0.0837753
-0.0813921
-0.0797716
-0.0778341
-0.0765636
-0.0749837
-0.073991
-0.0727001
-0.0719284
-0.0708717
-0.0702749
-0.0694071
-0.0689465
-0.0682294
-0.0678713
-0.067271
-0.0669851
-0.0664712
-0.0662294
-0.065773
-0.0655481
-0.0651212
-0.0648861
-0.0644607
-0.0641877
-0.0637348
-0.0633948
-0.0628838
-0.0624452
-0.0618431
-0.0612717
-0.0605423
-0.106693
-0.101138
-0.0970009
-0.092655
-0.0894682
-0.0860163
-0.0835356
-0.0807641
-0.0788215
-0.0765795
-0.0750551
-0.0732325
-0.0720374
-0.0705511
-0.0696174
-0.068403
-0.0676773
-0.0666832
-0.0661219
-0.0653057
-0.0648725
-0.064198
-0.0638612
-0.0632967
-0.0630279
-0.0625447
-0.0623174
-0.0618882
-0.0616768
-0.0612755
-0.0610546
-0.0606547
-0.0603983
-0.0599726
-0.059653
-0.0591728
-0.0587606
-0.0581947
-0.0576576
-0.056972
-0.0998324
-0.0946347
-0.0907647
-0.0866991
-0.083718
-0.0804889
-0.0781684
-0.0755758
-0.0737589
-0.0716618
-0.0702361
-0.0685314
-0.0674138
-0.0660237
-0.0651507
-0.064015
-0.0633365
-0.0624069
-0.0618823
-0.0611191
-0.0607143
-0.0600838
-0.0597692
-0.0592415
-0.0589905
-0.0585389
-0.0583267
-0.0579257
-0.0577285
-0.0573535
-0.0571474
-0.0567737
-0.0565343
-0.0561366
-0.0558382
-0.0553894
-0.0550043
-0.0544754
-0.0539735
-0.0533325
-0.0929031
-0.0880664
-0.0844654
-0.0806822
-0.0779083
-0.0749037
-0.0727446
-0.0703323
-0.0686418
-0.0666906
-0.0653642
-0.0637781
-0.0627383
-0.0614451
-0.0606329
-0.0595763
-0.0589451
-0.0580804
-0.0575924
-0.0568825
-0.056506
-0.0559195
-0.055627
-0.0551363
-0.0549029
-0.0544829
-0.0542858
-0.0539129
-0.0537297
-0.053381
-0.0531896
-0.0528423
-0.0526199
-0.0522502
-0.0519729
-0.0515558
-0.051198
-0.0507064
-0.0502398
-0.049644
-0.0858358
-0.0813679
-0.0780416
-0.0745471
-0.0719851
-0.0692099
-0.0672159
-0.0649879
-0.0634268
-0.0616248
-0.0604
-0.0589354
-0.0579754
-0.0567813
-0.0560316
-0.0550561
-0.0544736
-0.0536753
-0.0532251
-0.0525698
-0.0522226
-0.0516813
-0.0514117
-0.0509589
-0.0507439
-0.0503564
-0.0501749
-0.049831
-0.0496623
-0.0493408
-0.0491645
-0.0488442
-0.0486393
-0.0482984
-0.0480428
-0.0476581
-0.0473281
-0.0468745
-0.0464441
-0.0458942
-0.0787151
-0.0746182
-0.0715683
-0.0683641
-0.0660151
-0.0634705
-0.0616423
-0.0595996
-0.0581684
-0.0565163
-0.0553936
-0.0540508
-0.0531709
-0.0520762
-0.0513891
-0.0504949
-0.0499611
-0.0492293
-0.0488168
-0.0482163
-0.0478982
-0.0474022
-0.0471552
-0.0467403
-0.0465435
-0.0461886
-0.0460224
-0.0457074
-0.0455531
-0.0452587
-0.0450974
-0.0448042
-0.0446167
-0.0443046
-0.0440707
-0.0437184
-0.0434164
-0.0430011
-0.0426071
-0.0421035
-0.0714716
-0.0677527
-0.0649845
-0.0620761
-0.0599442
-0.0576347
-0.0559757
-0.0541219
-0.0528234
-0.0513242
-0.0503056
-0.0490873
-0.0482892
-0.0472961
-0.046673
-0.0458619
-0.0453779
-0.0447143
-0.0443405
-0.043796
-0.0435079
-0.0430582
-0.0428347
-0.0424587
-0.0422807
-0.0419591
-0.0418089
-0.0415236
-0.0413841
-0.0411175
-0.0409717
-0.0407061
-0.0405366
-0.0402539
-0.0400423
-0.0397231
-0.0394496
-0.0390732
-0.0387162
-0.0382597
-0.0641903
-0.0608507
-0.058365
-0.0557535
-0.0538394
-0.0517658
-0.0502764
-0.048612
-0.0474463
-0.0461004
-0.0451862
-0.0440925
-0.0433763
-0.0424848
-0.0419257
-0.0411978
-0.0407636
-0.0401681
-0.0398328
-0.0393442
-0.039086
-0.0386826
-0.0384823
-0.038145
-0.0379856
-0.0376972
-0.0375628
-0.037307
-0.0371822
-0.0369433
-0.0368129
-0.0365749
-0.0364232
-0.0361699
-0.0359804
-0.0356944
-0.0354495
-0.0351122
-0.0347922
-0.0343831
-0.0568016
-0.0538476
-0.0516492
-0.0493395
-0.0476468
-0.0458131
-0.0444962
-0.0430245
-0.0419941
-0.0408042
-0.0399963
-0.0390295
-0.0383967
-0.0376089
-0.0371151
-0.0364719
-0.0360886
-0.0355626
-0.0352668
-0.0348353
-0.0346076
-0.0342515
-0.0340751
-0.0337775
-0.0336372
-0.0333829
-0.0332647
-0.0330392
-0.0329296
-0.0327189
-0.0326043
-0.0323945
-0.0322611
-0.0320378
-0.0318709
-0.0316187
-0.0314028
-0.0311051
-0.0308229
-0.0304618
-0.0493907
-0.0468229
-0.0449121
-0.0429045
-0.0414335
-0.0398398
-0.0386956
-0.0374167
-0.0365215
-0.0354877
-0.0347859
-0.033946
-0.0333965
-0.0327122
-0.0322835
-0.0317249
-0.0313923
-0.0309356
-0.0306791
-0.0303045
-0.0301072
-0.0297982
-0.0296454
-0.0293873
-0.0292659
-0.0290454
-0.0289432
-0.0287478
-0.0286531
-0.0284706
-0.0283716
-0.0281899
-0.0280746
-0.0278811
-0.0277368
-0.0275183
-0.0273314
-0.0270735
-0.0268291
-0.0265161
-0.0418885
-0.0397122
-0.0380931
-0.0363919
-0.0351458
-0.0337956
-0.0328266
-0.0317434
-0.0309855
-0.0301101
-0.0295162
-0.0288052
-0.0283404
-0.0277613
-0.0273989
-0.0269264
-0.0266455
-0.0262593
-0.0260428
-0.0257263
-0.02556
-0.025299
-0.0251705
-0.0249526
-0.0248507
-0.0246647
-0.0245791
-0.0244143
-0.024335
-0.0241812
-0.0240982
-0.0239451
-0.0238483
-0.0236853
-0.0235639
-0.0233797
-0.0232222
-0.0230046
-0.0227984
-0.0225341
-0.03438
-0.0325949
-0.0312673
-0.0298723
-0.0288507
-0.0277438
-0.0269496
-0.0260618
-0.0254409
-0.0247236
-0.0242372
-0.0236548
-0.0232744
-0.0228002
-0.0225038
-0.022117
-0.0218875
-0.0215715
-0.0213948
-0.021136
-0.0210004
-0.0207872
-0.0206826
-0.0205047
-0.0204219
-0.0202702
-0.0202008
-0.0200665
-0.0200023
-0.019877
-0.0198099
-0.0196852
-0.0196067
-0.0194739
-0.0193754
-0.0192253
-0.0190972
-0.0189199
-0.0187519
-0.0185363
-0.0267962
-0.025407
-0.0243742
-0.023289
-0.0224947
-0.021634
-0.0210169
-0.0203269
-0.0198448
-0.0192876
-0.0189103
-0.0184582
-0.0181634
-0.0177956
-0.0175662
-0.0172664
-0.0170891
-0.0168444
-0.0167083
-0.0165081
-0.0164039
-0.0162392
-0.0161591
-0.0160219
-0.0159588
-0.0158419
-0.0157892
-0.0156859
-0.0156373
-0.015541
-0.01549
-0.0153943
-0.0153345
-0.0152324
-0.015157
-0.0150416
-0.0149432
-0.0148066
-0.0146772
-0.0145109
-0.0192223
-0.0182278
-0.017489
-0.0167126
-0.0161449
-0.0155295
-0.0150889
-0.0145959
-0.0142521
-0.0138543
-0.0135856
-0.0132631
-0.0130535
-0.0127914
-0.0126286
-0.0124154
-0.0122898
-0.012116
-0.0120199
-0.011878
-0.0118048
-0.0116882
-0.0116323
-0.0115354
-0.0114916
-0.0114093
-0.011373
-0.0113004
-0.011267
-0.0111995
-0.0111644
-0.0110973
-0.011056
-0.0109845
-0.0109321
-0.010851
-0.0107823
-0.0106862
-0.0105954
-0.0104783
-0.0115894
-0.0109933
-0.0105513
-0.0100867
-0.00974781
-0.0093802
-0.00911784
-0.00882394
-0.00861982
-0.00838321
-0.00822426
-0.00803295
-0.00790951
-0.00775448
-0.00765919
-0.00753344
-0.0074605
-0.00735845
-0.00730315
-0.0072202
-0.00717862
-0.00711089
-0.00707962
-0.00702369
-0.00699969
-0.00695249
-0.00693293
-0.00689158
-0.00687375
-0.00683546
-0.00681667
-0.00677865
-0.00675614
-0.00671552
-0.00668641
-0.00664017
-0.00660135
-0.00654623
-0.0064943
-0.00642671
-0.00398261
-0.00378296
-0.00363627
-0.00348184
-0.00337051
-0.00324935
-0.00316419
-0.00306823
-0.00300292
-0.00292648
-0.00287653
-0.00281548
-0.00277755
-0.0027288
-0.00270037
-0.0026615
-0.00264058
-0.00260969
-0.00259467
-0.0025702
-0.00255975
-0.00254038
-0.00253336
-0.00251794
-0.00251333
-0.00250084
-0.00249772
-0.00248721
-0.00248468
-0.00247525
-0.00247244
-0.0024632
-0.00245923
-0.00244925
-0.0024432
-0.00243154
-0.00242244
-0.00240806
-0.00239483
-0.00237661
0.00366675
0.00346711
0.00331633
0.00315828
0.0030403
0.00291313
0.00281964
0.00271609
0.00264136
0.00255628
0.00249622
0.00242585
0.00237738
0.00231887
0.00227968
0.0022308
0.00219903
0.002158
0.00213214
0.00209748
0.00207625
0.00204668
0.00202897
0.00200336
0.00198815
0.00196546
0.00195177
0.001931
0.00191789
0.00189807
0.00188458
0.0018647
0.00184984
0.00182885
0.00181155
0.00178835
0.00176747
0.00174083
0.00171512
0.00168371
0.0112737
0.0106776
0.0102315
0.00976321
0.00941767
0.00904403
0.00877333
0.00847182
0.00825827
0.008013
0.00784393
0.00764328
0.00750931
0.00734451
0.00723845
0.00710268
0.00701888
0.00690669
0.00684054
0.0067474
0.00669504
0.00661711
0.00657514
0.00650903
0.00647442
0.00641703
0.0063869
0.0063353
0.0063069
0.00625821
0.00622875
0.00618009
0.00614671
0.00609508
0.00605474
0.00599696
0.00594638
0.00587901
0.00581461
0.00573383
0.0189069
0.0179123
0.0171693
0.0163892
0.0158148
0.0151933
0.0147444
0.0142437
0.0138905
0.013484
0.0132051
0.0128733
0.0126532
0.0123813
0.0122078
0.0119844
0.011848
0.0116641
0.0115571
0.011405
0.011321
0.0111942
0.0111276
0.0110206
0.0109662
0.0108737
0.0108268
0.010744
0.0106999
0.0106221
0.0105764
0.0104986
0.0104465
0.010364
0.0103003
0.0102078
0.0101273
0.010019
0.00991573
0.00978545
0.0264814
0.0250919
0.0240549
0.0229659
0.0221649
0.021298
0.0206725
0.0199748
0.0194832
0.0189173
0.0185299
0.0180683
0.017763
0.0173853
0.0171452
0.0168353
0.0166471
0.0163923
0.0162452
0.0160349
0.0159199
0.015745
0.0156542
0.0155068
0.0154331
0.015306
0.0152428
0.0151293
0.01507
0.0149634
0.0149018
0.0147954
0.0147248
0.0146118
0.0145253
0.0143983
0.0142882
0.0141394
0.0139976
0.0138182
0.0340658
0.0322803
0.0309483
0.0295494
0.028521
0.0274078
0.0266052
0.0257096
0.0250792
0.0243531
0.0238566
0.0232648
0.0228737
0.0223897
0.0220825
0.0216856
0.0214452
0.021119
0.0209314
0.0206624
0.020516
0.0202926
0.0201773
0.0199892
0.0198958
0.0197339
0.019654
0.0195095
0.0194347
0.0192991
0.0192214
0.0190861
0.0189969
0.0188532
0.0187435
0.0185819
0.0184422
0.0182527
0.0180723
0.0178437
0.0415753
0.0393983
0.0377748
0.0360695
0.0348165
0.0334599
0.0324824
0.0313914
0.0306239
0.0297396
0.0291355
0.028415
0.0279396
0.0273506
0.0269774
0.0264947
0.0262029
0.0258065
0.0255791
0.0252524
0.0250752
0.024804
0.0246648
0.0244367
0.0243242
0.024128
0.0240319
0.0238569
0.0237671
0.023603
0.0235095
0.0233459
0.0232383
0.0230644
0.022932
0.0227363
0.0225672
0.0223375
0.022119
0.0218417
0.0490785
0.0465097
0.0445943
0.0425825
0.0411044
0.0395043
0.0383514
0.0370646
0.0361598
0.0351171
0.034405
0.0335556
0.0329954
0.0323011
0.0318616
0.0312928
0.0309493
0.0304823
0.0302149
0.0298301
0.0296219
0.0293027
0.0291391
0.0288708
0.0287389
0.0285082
0.0283956
0.0281899
0.0280848
0.027892
0.0277825
0.0275903
0.0274643
0.0272601
0.0271047
0.0268749
0.0266764
0.0264065
0.0261498
0.0258238
0.0564907
0.0535355
0.0513323
0.0490181
0.0473183
0.0454779
0.0441524
0.0426726
0.0416325
0.0404336
0.0396153
0.038639
0.0379954
0.0371976
0.0366929
0.0360395
0.0356452
0.0351089
0.0348022
0.0343604
0.0341218
0.0337555
0.0335683
0.0332606
0.0331097
0.0328452
0.0327166
0.0324809
0.0323609
0.03214
0.0320149
0.0317947
0.0316507
0.0314166
0.0312388
0.0309753
0.0307479
0.0304384
0.030144
0.0297699
0.0638806
0.0605395
0.0580488
0.0554326
0.0535112
0.0514308
0.0499326
0.0482601
0.0470847
0.0457297
0.0448051
0.0437017
0.0429747
0.0420732
0.0415031
0.0407649
0.0403197
0.0397139
0.0393676
0.0388687
0.0385996
0.0381859
0.0379749
0.0376274
0.0374574
0.0371589
0.037014
0.0367482
0.036613
0.0363639
0.0362231
0.0359748
0.0358125
0.0355485
0.0353482
0.0350511
0.0347948
0.0344456
0.0341136
0.0336916
0.0711639
0.067443
0.0646694
0.0617561
0.0596167
0.0573003
0.0556324
0.0537704
0.0524619
0.0509536
0.0499246
0.0486964
0.0478875
0.0468842
0.0462501
0.0454287
0.0449337
0.0442597
0.0438749
0.04332
0.043021
0.042561
0.0423267
0.0419405
0.041752
0.0414202
0.0412596
0.0409642
0.0408144
0.0405377
0.0403816
0.0401058
0.0399258
0.0396325
0.0394101
0.0390799
0.0387952
0.038407
0.038038
0.0375688
0.0784089
0.0743097
0.0712542
0.0680448
0.0656882
0.0631365
0.0612993
0.0592481
0.057807
0.0561456
0.0550123
0.0536597
0.0527689
0.051664
0.0509658
0.0500612
0.0495163
0.0487741
0.0483506
0.0477396
0.0474106
0.0469042
0.0466465
0.0462215
0.0460141
0.045649
0.0454725
0.0451475
0.0449829
0.0446784
0.0445069
0.0442035
0.0440057
0.0436831
0.0434386
0.0430754
0.0427623
0.0423353
0.0419295
0.0414133
0.0855318
0.0810612
0.0777291
0.0742291
0.0716593
0.0688767
0.0668735
0.064637
0.0630658
0.0612544
0.060019
0.0585443
0.0575734
0.056369
0.0556081
0.0546222
0.0540285
0.0532197
0.0527584
0.0520927
0.0517345
0.0511829
0.0509025
0.0504394
0.0502139
0.0498164
0.0496244
0.0492706
0.0490916
0.0487602
0.0485737
0.0482434
0.0480283
0.047677
0.047411
0.0470154
0.0466745
0.0462094
0.0457674
0.045205
0.0926011
0.0877612
0.0841541
0.0803651
0.0775833
0.0745711
0.0724027
0.0699817
0.068281
0.0663203
0.0649831
0.0633869
0.0623361
0.0610325
0.0602091
0.059142
0.0584996
0.0576243
0.0571252
0.0564047
0.0560173
0.0554204
0.0551171
0.0546161
0.0543723
0.0539422
0.0537347
0.0533519
0.0531585
0.0528
0.0525985
0.0522413
0.0520088
0.0516289
0.0513413
0.0509135
0.050545
0.050042
0.049564
0.0489559
0.0995331
0.0943317
0.0904553
0.0863835
0.0833942
0.0801573
0.0778274
0.0752259
0.0733988
0.071292
0.0698555
0.0681405
0.0670118
0.0656112
0.0647269
0.0635806
0.0628907
0.0619506
0.0614147
0.060641
0.0602251
0.0595842
0.0592588
0.0587209
0.0584594
0.0579977
0.0577752
0.0573643
0.057157
0.0567722
0.0565562
0.0561727
0.0559233
0.0555156
0.055207
0.0547478
0.0543522
0.0538121
0.0532989
0.0526458
0.106397
0.100837
0.0966931
0.0923407
0.0891455
0.0856857
0.0831954
0.0804147
0.0784618
0.07621
0.0746747
0.0728418
0.0716354
0.0701386
0.0691935
0.0679684
0.0672312
0.0662265
0.0656539
0.0648271
0.0643828
0.0636978
0.0633502
0.0627755
0.0624961
0.0620028
0.0617653
0.0613263
0.061105
0.0606939
0.0604632
0.0600537
0.0597874
0.0593519
0.0590224
0.0585319
0.0581094
0.0575326
0.0569845
0.0562869
0.113108
0.107198
0.102794
0.0981675
0.0947715
0.091094
0.0884473
0.085492
0.0834166
0.0810233
0.0793918
0.0774439
0.0761621
0.0745715
0.0735674
0.0722656
0.0714825
0.0704149
0.0698068
0.0689283
0.0684566
0.0677289
0.0673599
0.0667495
0.066453
0.0659291
0.065677
0.0652109
0.064976
0.0645396
0.0642948
0.0638598
0.0635773
0.0631147
0.0627649
0.062244
0.0617953
0.0611826
0.0606004
0.0598593
0.119736
0.11348
0.108818
0.10392
0.100325
0.0964327
0.0936311
0.0905027
0.0883059
0.0857726
0.0840457
0.0819838
0.080627
0.0789433
0.0778806
0.0765027
0.0756739
0.0745439
0.0739003
0.0729705
0.0724713
0.0717012
0.0713107
0.0706646
0.070351
0.0697966
0.0695299
0.0690366
0.0687882
0.0683264
0.0680675
0.0676073
0.0673084
0.066819
0.066449
0.0658979
0.0654232
0.0647751
0.0641591
0.0633751
0.126198
0.119604
0.114691
0.109531
0.105742
0.10164
0.0986878
0.0953912
0.0930763
0.0904069
0.0885873
0.0864148
0.0849853
0.0832113
0.0820917
0.08064
0.079767
0.0785765
0.0778987
0.0769193
0.0763935
0.0755824
0.0751713
0.0744908
0.0741607
0.0735768
0.0732961
0.0727767
0.0725153
0.0720289
0.0717565
0.0712719
0.0709573
0.0704419
0.0700524
0.0694719
0.0689721
0.0682893
0.0676406
0.0668147
0.132562
0.125637
0.120476
0.115055
0.111075
0.106766
0.103665
0.100202
0.097771
0.0949671
0.0930559
0.0907738
0.0892724
0.0874091
0.0862331
0.0847083
0.0837913
0.082541
0.0818291
0.0808004
0.0802482
0.0793963
0.0789645
0.0782499
0.0779032
0.07729
0.0769953
0.0764498
0.0761754
0.0756647
0.0753787
0.0748698
0.0745395
0.0739984
0.0735894
0.07298
0.0724552
0.0717384
0.0710573
0.0701902
0.138747
0.131499
0.126097
0.120424
0.11626
0.11175
0.108505
0.104881
0.102337
0.0994025
0.0974026
0.0950146
0.0934437
0.0914939
0.0902635
0.0886681
0.0877088
0.0864006
0.0856559
0.0845796
0.0840022
0.0831109
0.0826594
0.0819118
0.0815494
0.080908
0.0806
0.0800294
0.0797425
0.0792084
0.0789094
0.0783772
0.0780318
0.0774659
0.0770382
0.0764006
0.0758518
0.0751019
0.0743894
0.0734822
0.144821
0.137255
0.131618
0.125696
0.121349
0.116642
0.113255
0.109472
0.106817
0.103754
0.101667
0.0991743
0.0975347
0.0954996
0.0942154
0.0925502
0.091549
0.0901836
0.0894064
0.0882831
0.0876804
0.0867501
0.086279
0.0854988
0.0851205
0.0844511
0.0841297
0.0835343
0.083235
0.0826776
0.0823656
0.0818102
0.0814499
0.0808594
0.0804132
0.079748
0.0791754
0.0783929
0.0776495
0.0767031
0.150702
0.142829
0.136963
0.130801
0.126279
0.121381
0.117857
0.113921
0.111158
0.107972
0.1058
0.103207
0.101501
0.0993837
0.0980479
0.0963154
0.095274
0.0938535
0.0930452
0.0918767
0.0912499
0.0902823
0.0897924
0.0889809
0.0885876
0.0878914
0.0875573
0.086938
0.0866269
0.0860472
0.0857229
0.0851453
0.0847707
0.0841565
0.0836925
0.0830007
0.0824051
0.0815913
0.080818
0.0798335
0.156459
0.148285
0.142195
0.135798
0.131103
0.126018
0.122359
0.118273
0.115404
0.112096
0.109842
0.107149
0.105378
0.10318
0.101793
0.0999948
0.0989137
0.097439
0.0965998
0.0953866
0.094736
0.0937314
0.0932228
0.0923804
0.0919721
0.0912494
0.0909026
0.0902597
0.0899368
0.089335
0.0889984
0.0883989
0.0880101
0.0873726
0.0868911
0.086173
0.0855549
0.0847102
0.0839077
0.0828859
0.162011
0.153548
0.147242
0.140618
0.135756
0.130492
0.126703
0.122473
0.119503
0.116078