/*--------------------------------*- C++ -*----------------------------------*\
| =========                 |                                                 |
| \\      /  F ield         | foam-extend: Open Source CFD                    |
|  \\    /   O peration     | Version:  3.0                                   |
|   \\  /    A nd           | Web:         http://www.extend-project.de       |
|    \\/     M anipulation  |                                                 |
\*---------------------------------------------------------------------------*/
FoamFile
{
    version     2.0;
    format      ascii;
    class       volSymmTensorField;
    location    "15";
    object      sigma;
}
// * * * * * * * * * * * * * * * * * * * * * * * * * * * * * * * * * * * * * //

dimensions      [0 0 0 0 0 0 0];

internalField   nonuniform List<symmTensor> 
7680
(
(-0.179401 -0.00275266 3.80953e-22 0.179384 -1.11755e-21 1.77477e-05)
(-0.178761 -0.0031228 6.22483e-22 0.17871 -2.29212e-21 5.01227e-05)
(-0.176069 -0.00335536 1.34346e-22 0.175988 -5.61016e-21 8.04045e-05)
(-0.172009 -0.00348837 -4.0008e-22 0.1719 -6.27519e-21 0.000108841)
(-0.167054 -0.00354894 -5.63119e-22 0.166918 -5.8497e-21 0.000135626)
(-0.161532 -0.0035566 -1.28169e-21 0.161372 -3.77066e-21 0.00016091)
(-0.155676 -0.00352559 -1.04755e-21 0.155491 -2.45547e-21 0.00018481)
(-0.149646 -0.00346637 -1.4474e-21 0.149438 -1.3801e-21 0.000207411)
(-0.143557 -0.00338667 -1.50176e-21 0.143329 9.62879e-22 0.000228778)
(-0.137491 -0.00329228 -7.31903e-22 0.137242 -4.50933e-22 0.000248953)
(-0.131502 -0.00318751 -9.2629e-22 0.131234 -2.56249e-21 0.000267962)
(-0.12563 -0.00307562 -8.82224e-22 0.125344 -3.27088e-21 0.000285813)
(-0.1199 -0.00295908 -1.58349e-21 0.119598 -3.07795e-21 0.000302506)
(-0.11433 -0.00283973 -3.55577e-21 0.114012 6.7923e-23 0.000318022)
(-0.108931 -0.002719 -7.43203e-21 0.108598 2.17213e-21 0.000332335)
(-0.103708 -0.00259794 -8.1243e-21 0.103362 3.94348e-21 0.000345407)
(-0.098664 -0.00247738 -8.44484e-21 0.0983068 7.24379e-21 0.00035719)
(-0.0938005 -0.00235793 -9.55808e-21 0.0934329 1.01034e-20 0.000367627)
(-0.0891161 -0.00224007 -1.2931e-20 0.0887395 1.16342e-20 0.000376652)
(-0.0846091 -0.00212416 -1.55955e-20 0.0842249 1.24679e-20 0.000384188)
(-0.080277 -0.00201047 -2.22608e-20 0.0798868 1.16035e-20 0.000390152)
(-0.0761171 -0.00189922 -2.35108e-20 0.0757227 1.24323e-20 0.00039445)
(-0.0721269 -0.00179061 -2.40957e-20 0.0717299 1.45867e-20 0.000396981)
(-0.0683037 -0.00168477 -2.34902e-20 0.0679061 1.67475e-20 0.000397634)
(-0.0646455 -0.00158184 -2.32847e-20 0.0642492 1.76005e-20 0.000396289)
(-0.0611503 -0.00148196 -2.30451e-20 0.0607574 2.16689e-20 0.000392819)
(-0.0578168 -0.00138526 -2.10651e-20 0.0574297 2.45506e-20 0.000387088)
(-0.0546442 -0.00129188 -1.67773e-20 0.0542653 2.36599e-20 0.000378948)
(-0.0516324 -0.00120199 -1.73407e-20 0.0512641 1.99726e-20 0.000368245)
(-0.0487817 -0.00111577 -1.96232e-20 0.0484269 1.61012e-20 0.000354815)
(-0.0460934 -0.00103342 -1.91999e-20 0.0457549 1.30769e-20 0.000338486)
(-0.0435694 -0.000955205 -1.37619e-20 0.0432504 1.0282e-20 0.000319075)
(-0.0412125 -0.000881395 -5.70766e-21 0.0409161 7.05215e-21 0.000296391)
(-0.0390263 -0.000812319 -2.43663e-21 0.0387561 8.13812e-21 0.000270232)
(-0.0370154 -0.000748331 -1.09526e-20 0.036775 8.58245e-21 0.000240392)
(-0.0351854 -0.000689814 -1.63843e-20 0.0349787 7.40479e-21 0.00020665)
(-0.033543 -0.000637083 -1.6295e-20 0.0333742 2.94012e-21 0.000168782)
(-0.0320962 -0.000590173 -6.33164e-21 0.0319697 3.27845e-21 0.00012655)
(-0.0308542 -0.000548059 -3.81974e-21 0.0307745 7.86383e-22 7.9714e-05)
(-0.0298273 -0.000506267 -1.02182e-21 0.0297993 -1.44682e-21 2.8019e-05)
(-0.179257 -0.00819431 1.07101e-21 0.179239 -1.66627e-21 1.77201e-05)
(-0.17851 -0.00937147 1.50985e-21 0.17846 -2.89955e-21 5.00448e-05)
(-0.175743 -0.010128 7.1377e-22 0.175662 -5.97744e-21 8.02793e-05)
(-0.171629 -0.0105804 1.04426e-21 0.17152 -6.13587e-21 0.000108671)
(-0.166637 -0.0108116 1.94522e-21 0.166501 -6.26404e-21 0.000135414)
(-0.16109 -0.0108813 1.74444e-21 0.16093 -3.71686e-21 0.000160658)
(-0.155218 -0.010833 1.43988e-21 0.155033 -2.44081e-21 0.00018452)
(-0.149179 -0.0106987 1.26748e-21 0.148972 -3.637e-22 0.000207085)
(-0.143087 -0.010502 9.94124e-22 0.142859 2.99711e-21 0.000228418)
(-0.137021 -0.0102606 -9.27016e-22 0.136772 8.95254e-22 0.00024856)
(-0.131035 -0.00998786 -1.54098e-21 0.130768 -2.11153e-21 0.000267538)
(-0.125169 -0.00969367 -7.72489e-22 0.124883 -2.14066e-21 0.000285361)
(-0.119446 -0.00938562 -7.33367e-22 0.119144 -3.64077e-22 0.000302026)
(-0.113885 -0.00906949 -2.22397e-21 0.113567 2.93012e-21 0.000317516)
(-0.108494 -0.00874965 -5.87805e-21 0.108162 7.06835e-21 0.000331806)
(-0.103281 -0.00842945 -6.45621e-21 0.102936 9.78151e-21 0.000344856)
(-0.0982476 -0.00811143 -6.35706e-21 0.0978909 1.45297e-20 0.000356619)
(-0.0933943 -0.00779756 -5.58657e-21 0.0930273 1.32064e-20 0.000367039)
(-0.0887203 -0.00748933 -9.31822e-21 0.0883443 1.46504e-20 0.000376048)
(-0.0842236 -0.00718791 -1.50342e-20 0.08384 1.29972e-20 0.000383571)
(-0.0799016 -0.00689418 -2.24726e-20 0.0795121 1.32598e-20 0.000389524)
(-0.0757517 -0.00660886 -2.21323e-20 0.0753578 1.41236e-20 0.000393813)
(-0.0717711 -0.0063325 -2.07409e-20 0.0713747 1.71064e-20 0.000396339)
(-0.0679573 -0.00606556 -2.02062e-20 0.0675603 1.83179e-20 0.000396989)
(-0.064308 -0.00580845 -2.38279e-20 0.0639124 2.45543e-20 0.000395646)
(-0.0608215 -0.00556151 -1.62181e-20 0.0604293 2.92672e-20 0.000392181)
(-0.0574962 -0.00532509 -1.47407e-20 0.0571098 3.25935e-20 0.000386458)
(-0.0543315 -0.00509951 -1.54227e-20 0.0539532 2.80176e-20 0.00037833)
(-0.051327 -0.00488513 -1.90094e-20 0.0509594 2.40842e-20 0.000367644)
(-0.0484833 -0.00468232 -2.04955e-20 0.0481291 2.12416e-20 0.000354236)
(-0.0458015 -0.0044915 -2.1006e-20 0.0454636 2.03227e-20 0.000337933)
(-0.0432836 -0.00431312 -2.09973e-20 0.042965 1.90915e-20 0.000318553)
(-0.0409322 -0.00414771 -1.11231e-20 0.0406363 1.10115e-20 0.000295906)
(-0.0387511 -0.00399583 2.1044e-21 0.0384813 3.98836e-21 0.00026979)
(-0.0367447 -0.00385811 -6.25163e-21 0.0365047 1.02623e-20 0.000239999)
(-0.0349187 -0.00373523 -1.35053e-20 0.0347124 1.18139e-20 0.000206312)
(-0.0332799 -0.00362782 -2.02263e-20 0.0331114 1.13927e-20 0.000168507)
(-0.0318361 -0.0035363 -6.72606e-21 0.0317097 1.21863e-20 0.000126344)
(-0.0305965 -0.00346018 -7.53754e-21 0.030517 7.50112e-21 7.95842e-05)
(-0.0295718 -0.00339605 -5.13237e-21 0.0295438 3.258e-21 2.79735e-05)
(-0.178977 -0.0136346 1.70565e-21 0.178959 -2.27856e-21 1.76746e-05)
(-0.178017 -0.0156017 2.40065e-21 0.177967 -4.23491e-21 4.99167e-05)
(-0.175096 -0.0168697 1.23821e-21 0.175016 -5.70103e-21 8.00737e-05)
(-0.170874 -0.0176323 2.82669e-21 0.170766 -6.6941e-21 0.000108392)
(-0.165807 -0.0180276 3.00671e-21 0.165672 -5.87288e-21 0.000135066)
(-0.160209 -0.0181546 4.12097e-21 0.160049 -3.81419e-21 0.000160245)
(-0.154305 -0.0180858 3.64189e-21 0.154121 -2.8336e-21 0.000184045)
(-0.148248 -0.0178742 5.01849e-21 0.148041 -7.12692e-22 0.000206551)
(-0.142148 -0.0175593 5.8973e-21 0.14192 1.17202e-21 0.000227828)
(-0.136082 -0.0171702 -2.53184e-22 0.135834 -3.40576e-22 0.000247917)
(-0.130103 -0.0167292 -3.37978e-21 0.129836 -1.05975e-21 0.000266845)
(-0.124246 -0.0162529 2.32853e-22 0.123962 -6.2523e-22 0.00028462)
(-0.118538 -0.0157538 3.41726e-21 0.118237 1.12338e-21 0.00030124)
(-0.112992 -0.0152415 1.28821e-21 0.112676 7.77564e-21 0.000316689)
(-0.10762 -0.0147234 -4.10875e-21 0.107289 1.67672e-20 0.000330939)
(-0.102426 -0.014205 -5.06449e-21 0.102082 1.97674e-20 0.000343954)
(-0.0974123 -0.0136905 7.28706e-22 0.0970566 1.96256e-20 0.000355685)
(-0.0925792 -0.0131833 -9.5884e-21 0.0922131 1.74224e-20 0.000366075)
(-0.0879255 -0.0126858 -5.75675e-21 0.0875504 1.33409e-20 0.000375059)
(-0.0834489 -0.0121999 -1.68511e-20 0.0830663 1.5359e-20 0.00038256)
(-0.0791467 -0.0117273 -2.04266e-20 0.0787582 1.56775e-20 0.000388496)
(-0.0750163 -0.0112689 -2.20447e-20 0.0746235 1.90293e-20 0.000392773)
(-0.0710546 -0.0108259 -1.89443e-20 0.0706593 2.22353e-20 0.00039529)
(-0.0672591 -0.0103989 -2.18202e-20 0.0668632 2.76889e-20 0.000395937)
(-0.0636274 -0.0099886 -1.0802e-20 0.0632328 3.50464e-20 0.000394596)
(-0.0601577 -0.00959557 -1.14889e-20 0.0597666 4.04965e-20 0.000391139)
(-0.0568485 -0.00922033 -1.16439e-20 0.0564631 4.29588e-20 0.00038543)
(-0.053699 -0.00886342 -2.07268e-20 0.0533217 3.72495e-20 0.000377323)
(-0.0507088 -0.00852535 -1.95143e-20 0.0503422 3.15926e-20 0.000366665)
(-0.0478785 -0.00820671 -1.90237e-20 0.0475253 2.83247e-20 0.000353291)
(-0.0452092 -0.0079081 -1.51854e-20 0.0448721 2.91635e-20 0.000337032)
(-0.0427027 -0.00763019 -1.67197e-20 0.042385 3.42782e-20 0.000317703)
(-0.0403617 -0.00737372 -2.39771e-20 0.0400666 2.49918e-20 0.000295116)
(-0.0381899 -0.00713951 -1.20614e-20 0.0379209 7.76084e-21 0.00026907)
(-0.0361918 -0.00692846 1.02978e-21 0.0359524 1.99592e-20 0.000239359)
(-0.0343729 -0.00674153 -9.23367e-21 0.0341672 1.97666e-20 0.000205762)
(-0.0327399 -0.00657966 -1.19344e-20 0.0325719 2.15536e-20 0.000168057)
(-0.0313007 -0.00644366 -2.15374e-21 0.0311747 2.23381e-20 0.000126007)
(-0.0300645 -0.00633359 -5.27333e-21 0.0299851 1.10638e-20 7.93723e-05)
(-0.0290417 -0.00624707 -1.01494e-21 0.0290138 3.57144e-21 2.7899e-05)
(-0.178559 -0.0190733 2.36289e-21 0.178542 -3.08767e-21 1.76104e-05)
(-0.177281 -0.0218019 3.9495e-21 0.177232 -6.03598e-21 4.97352e-05)
(-0.174133 -0.0235604 2.41496e-21 0.174053 -5.33505e-21 7.97824e-05)
(-0.16975 -0.0246182 3.66023e-21 0.169642 -6.96059e-21 0.000107998)
(-0.164569 -0.0251664 4.72067e-21 0.164435 -3.65115e-21 0.000134574)
(-0.158896 -0.025343 6.14871e-21 0.158737 -3.76189e-21 0.000159661)
(-0.152943 -0.0252482 5.02982e-21 0.15276 -2.91353e-21 0.000183373)
(-0.146859 -0.0249558 5.97206e-21 0.146653 -7.7886e-22 0.000205796)
(-0.140747 -0.0245202 4.81724e-21 0.14052 1.60664e-22 0.000226995)
(-0.134681 -0.0239823 -2.74251e-21 0.134434 1.48596e-21 0.000247009)
(-0.128711 -0.0233727 -3.79737e-21 0.128445 2.96282e-21 0.000265866)
(-0.122871 -0.0227145 -6.45363e-22 0.122587 2.55359e-21 0.000283575)
(-0.117182 -0.022025 5.00047e-21 0.116882 2.1277e-21 0.000300133)
(-0.111661 -0.0213177 1.07057e-20 0.111346 1.16844e-20 0.000315524)
(-0.106315 -0.0206026 1.15845e-20 0.105986 2.11966e-20 0.000329721)
(-0.101149 -0.0198874 2.76041e-21 0.100807 2.42914e-20 0.000342685)
(-0.0961651 -0.0191781 4.32344e-21 0.0958107 1.45631e-20 0.000354372)
(-0.091362 -0.0184792 -5.0879e-21 0.0909972 1.81695e-20 0.000364722)
(-0.0867383 -0.0177942 -1.48494e-20 0.0863646 1.68853e-20 0.000373671)
(-0.0822915 -0.0171257 -1.16137e-20 0.0819104 2.03203e-20 0.000381143)
(-0.0780189 -0.0164759 -2.29422e-20 0.0776318 2.32175e-20 0.000387056)
(-0.0739172 -0.0158464 -1.75943e-20 0.0735259 2.76811e-20 0.000391316)
(-0.0699836 -0.0152384 -1.37765e-20 0.0695898 3.03742e-20 0.000393823)
(-0.0662152 -0.014653 -4.79419e-21 0.0658208 3.39342e-20 0.000394466)
(-0.0626097 -0.0140911 -5.55142e-22 0.0622165 3.77062e-20 0.000393129)
(-0.0591649 -0.0135535 6.83748e-21 0.0587752 4.27401e-20 0.000389684)
(-0.0558795 -0.0130409 1.57914e-21 0.0554955 4.70464e-20 0.000383995)
(-0.0527524 -0.0125541 -1.62578e-20 0.0523765 4.56579e-20 0.000375918)
(-0.0497834 -0.0120936 -2.17318e-20 0.0494181 4.03285e-20 0.000365299)
(-0.0469728 -0.0116603 -2.21049e-20 0.0466209 4.20433e-20 0.000351975)
(-0.0443218 -0.011255 -7.96722e-21 0.043986 3.69515e-20 0.000335776)
(-0.041832 -0.0108785 5.10047e-21 0.0415155 3.26203e-20 0.00031652)
(-0.0395063 -0.0105318 -2.34354e-20 0.0392123 3.45225e-20 0.000294017)
(-0.0373481 -0.0102159 -2.84238e-20 0.0370801 2.80562e-20 0.000268069)
(-0.0353619 -0.00993211 1.88266e-20 0.0351234 3.21931e-20 0.000238468)
(-0.0335531 -0.00968154 -1.32398e-21 0.0333481 2.44037e-20 0.000204997)
(-0.0319283 -0.00946549 -3.41429e-21 0.0317609 2.29174e-20 0.000167433)
(-0.0304953 -0.00928512 6.03368e-21 0.0303698 1.8172e-20 0.000125539)
(-0.0292631 -0.00914102 -1.45326e-20 0.0291841 5.08883e-22 7.90776e-05)
(-0.0282423 -0.00903182 -5.98763e-21 0.0282145 -6.56935e-21 2.77954e-05)
(-0.178004 -0.0245098 2.55039e-21 0.177987 -2.93527e-21 1.75272e-05)
(-0.176307 -0.0279603 4.61017e-21 0.176257 -4.76753e-21 4.95004e-05)
(-0.172858 -0.0301806 4.56886e-21 0.172778 -6.2324e-21 7.94057e-05)
(-0.168261 -0.0315123 2.55585e-21 0.168154 -1.16241e-21 0.000107487)
(-0.162933 -0.0321983 6.46153e-21 0.162799 -6.84752e-23 0.000133938)
(-0.15716 -0.0324135 6.64584e-21 0.157001 -3.62561e-21 0.000158906)
(-0.151144 -0.0322852 6.4058e-21 0.150961 -2.38342e-21 0.000182505)
(-0.145023 -0.0319067 8.28907e-21 0.144818 2.16416e-22 0.000204822)
(-0.138896 -0.0313475 6.97784e-21 0.13867 2.76543e-21 0.000225919)
(-0.13283 -0.0306591 -1.30137e-21 0.132584 8.24137e-21 0.000245838)
(-0.126872 -0.0298803 -3.80258e-21 0.126607 9.46645e-21 0.000264604)
(-0.121052 -0.0290405 -4.04767e-21 0.120769 9.69297e-21 0.000282228)
(-0.115391 -0.0281616 3.48867e-21 0.115092 6.22698e-21 0.000298706)
(-0.109901 -0.0272606 2.18738e-20 0.109587 9.3655e-21 0.000314022)
(-0.10459 -0.0263503 2.13246e-20 0.104262 1.52526e-20 0.000328151)
(-0.099462 -0.0254405 1.10155e-20 0.0991209 1.48384e-20 0.000341053)
(-0.0945164 -0.0245386 -6.04648e-21 0.0941637 1.00033e-20 0.000352682)
(-0.0897527 -0.0236504 7.53714e-22 0.0893898 1.6676e-20 0.000362982)
(-0.0851687 -0.0227803 -5.0462e-21 0.0847968 2.05822e-20 0.000371887)
(-0.0807614 -0.0219317 -7.57496e-21 0.0803821 2.45446e-20 0.000379322)
(-0.0765277 -0.0211071 -1.83325e-20 0.0761425 3.69606e-20 0.000385206)
(-0.0724641 -0.0203088 -1.4957e-20 0.0720746 3.82452e-20 0.000389444)
(-0.0685675 -0.0195382 -3.61323e-21 0.0681755 2.78471e-20 0.000391938)
(-0.0648349 -0.0187967 -3.04565e-21 0.0644423 2.91836e-20 0.000392578)
(-0.0612637 -0.0180855 1.04428e-21 0.0608724 4.19785e-20 0.000391247)
(-0.0578518 -0.0174055 9.22444e-21 0.057464 4.19036e-20 0.000387818)
(-0.0545977 -0.0167575 1.82715e-20 0.0542155 3.78773e-20 0.000382156)
(-0.0515002 -0.0161426 -4.81493e-21 0.0511261 4.4385e-20 0.000374117)
(-0.048559 -0.0155614 -1.40287e-20 0.0481955 4.47654e-20 0.000363549)
(-0.0457745 -0.0150151 4.03125e-22 0.0454242 3.95688e-20 0.00035029)
(-0.0431474 -0.0145045 3.23169e-22 0.0428132 1.77805e-20 0.000334169)
(-0.0406797 -0.0140307 6.88573e-21 0.0403647 6.4588e-21 0.000315005)
(-0.0383739 -0.0135948 8.97299e-21 0.0380813 1.47061e-20 0.000292611)
(-0.0362335 -0.0131983 -4.84644e-21 0.0359667 2.38801e-20 0.000266787)
(-0.0342627 -0.0128424 2.78654e-20 0.0340254 1.65113e-20 0.000237329)
(-0.032467 -0.0125288 1.09801e-20 0.032263 -6.97029e-21 0.000204018)
(-0.0308527 -0.0122589 1.3697e-20 0.0306861 -1.43368e-20 0.000166634)
(-0.0294275 -0.0120342 7.64076e-21 0.0293026 -1.67098e-20 0.00012494)
(-0.0282002 -0.0118559 -3.03959e-20 0.0281215 -2.16837e-20 7.87002e-05)
(-0.0271813 -0.0117235 -1.74165e-20 0.0271536 -1.10561e-20 2.76627e-05)
(-0.17731 -0.0299434 3.14501e-21 0.177292 -1.75147e-21 1.74254e-05)
(-0.175096 -0.0340657 4.49428e-21 0.175047 -1.56777e-22 4.92128e-05)
(-0.171277 -0.036711 4.87399e-21 0.171198 -1.53309e-21 7.89442e-05)
(-0.166419 -0.0382898 7.8159e-21 0.166312 2.86143e-21 0.000106862)
(-0.160908 -0.0390942 5.64959e-21 0.160775 3.72915e-21 0.000133159)
(-0.155013 -0.0393342 1.23461e-21 0.154855 3.2774e-21 0.000157981)
(-0.148918 -0.0391626 5.16823e-21 0.148737 2.27865e-21 0.000181443)
(-0.142753 -0.0386918 1.05082e-20 0.14255 1.4452e-21 0.000203629)
(-0.136608 -0.0380049 1.35371e-20 0.136383 2.46382e-21 0.000224602)
(-0.130542 -0.0371638 5.4614e-21 0.130298 1.2517e-20 0.000244404)
(-0.124599 -0.0362152 -3.22547e-21 0.124336 1.69618e-20 0.00026306)
(-0.118804 -0.0351941 -3.60715e-21 0.118524 1.70212e-20 0.00028058)
(-0.113177 -0.0341271 -2.08691e-21 0.11288 1.14557e-20 0.000296961)
(-0.107727 -0.0330342 1.92461e-20 0.107415 5.76925e-21 0.000312187)
(-0.10246 -0.031931 3.08338e-20 0.102133 2.59644e-21 0.000326231)
(-0.0973775 -0.0308291 1.34442e-20 0.0970384 1.02241e-21 0.000339057)
(-0.0924798 -0.0297375 -6.6588e-22 0.0921292 9.01812e-21 0.000350617)
(-0.087765 -0.028663 1.17282e-20 0.0874041 1.02885e-20 0.000360856)
(-0.08323 -0.0276109 6.74924e-21 0.0828603 1.01533e-20 0.000369708)
(-0.0788715 -0.0265852 1.22171e-20 0.0784944 1.63782e-20 0.000377099)
(-0.0746858 -0.0255891 1.50507e-20 0.0743028 2.89534e-20 0.000382947)
(-0.0706692 -0.024625 2.11616e-21 0.0702821 2.4489e-20 0.00038716)
(-0.0668184 -0.0236948 -1.8681e-20 0.0664287 1.82589e-20 0.000389639)
(-0.06313 -0.0228001 6.11895e-21 0.0627397 2.4849e-20 0.000390275)
(-0.0596013 -0.0219423 3.61565e-20 0.0592123 3.0437e-20 0.000388951)
(-0.0562301 -0.0211225 1.96575e-20 0.0558446 3.12708e-20 0.000385542)
(-0.0530146 -0.0203417 2.17004e-20 0.0526347 1.67908e-20 0.000379914)
(-0.0499537 -0.019601 2.14168e-20 0.0495818 2.8698e-20 0.000371922)
(-0.0470469 -0.0189014 -3.05338e-21 0.0466854 3.5993e-20 0.000361417)
(-0.0442943 -0.018244 -1.40667e-20 0.0439461 1.85284e-20 0.000348236)
(-0.0416969 -0.0176299 -3.00028e-20 0.0413647 -1.04824e-20 0.00033221)
(-0.0392563 -0.0170604 -9.16197e-21 0.0389432 -9.03717e-21 0.000313159)
(-0.0369751 -0.0165369 1.20854e-20 0.0366842 -1.2778e-20 0.000290897)
(-0.0348564 -0.0160608 6.43686e-21 0.0345912 -4.70572e-21 0.000265225)
(-0.0329046 -0.0156338 2.59493e-20 0.0326687 -2.96943e-20 0.00023594)
(-0.0311249 -0.0152577 -3.13836e-20 0.030922 -4.3041e-20 0.000202825)
(-0.0295233 -0.0149343 -1.86672e-20 0.0293577 -4.36873e-20 0.00016566)
(-0.0281076 -0.0146654 4.39721e-21 0.0279833 -5.08561e-20 0.00012421)
(-0.0268861 -0.0144527 -2.51552e-20 0.0268078 -4.71473e-20 7.82405e-05)
(-0.0258691 -0.0142964 -1.51835e-20 0.0258416 -7.96766e-21 2.75009e-05)
(-0.176474 -0.0353733 4.51367e-21 0.176457 -1.31704e-22 1.7305e-05)
(-0.173652 -0.0401071 7.82176e-21 0.173604 -3.72685e-22 4.88725e-05)
(-0.169399 -0.0431331 6.45667e-21 0.16932 1.98835e-21 7.83982e-05)
(-0.164232 -0.0449269 8.94182e-21 0.164126 6.23723e-21 0.000106123)
(-0.158508 -0.0458263 9.15198e-21 0.158375 5.33201e-21 0.000132238)
(-0.152468 -0.0460744 6.41228e-21 0.152312 4.73294e-21 0.000156887)
(-0.146283 -0.045848 6.65126e-21 0.146103 2.56676e-21 0.000180186)
(-0.140067 -0.0452771 8.1957e-21 0.139865 2.84295e-21 0.000202218)
(-0.1339 -0.0444577 1.41765e-20 0.133677 3.20646e-21 0.000223045)
(-0.127835 -0.0434614 1.96435e-20 0.127593 8.7925e-21 0.000242709)
(-0.12191 -0.0423421 1.20099e-20 0.121649 1.16011e-20 0.000261236)
(-0.116146 -0.0411402 2.23191e-21 0.115868 1.48037e-20 0.000278633)
(-0.110559 -0.0398864 -8.18206e-21 0.110264 1.53825e-20 0.0002949)
(-0.105156 -0.038604 6.12516e-21 0.104846 9.02744e-21 0.000310019)
(-0.0999403 -0.0373106 2.35151e-20 0.0996163 -8.00672e-21 0.000323965)
(-0.0949129 -0.0360198 1.62441e-20 0.0945762 -8.46675e-21 0.000336701)
(-0.0900722 -0.0347418 1.63422e-20 0.089724 -4.88005e-21 0.00034818)
(-0.0854152 -0.0334846 1.56156e-20 0.0850569 -7.56394e-21 0.000358347)
(-0.0809384 -0.0322541 1.49231e-20 0.0805713 -1.59808e-20 0.000367137)
(-0.0766377 -0.0310551 2.41339e-20 0.0762632 -9.1822e-21 0.000374476)
(-0.072509 -0.0298911 2.57876e-20 0.0721287 7.89094e-22 0.000380282)
(-0.0685481 -0.028765 -1.56033e-21 0.0681637 2.69321e-21 0.000384466)
(-0.0647514 -0.0276788 -1.47215e-20 0.0643645 1.66454e-20 0.000386927)
(-0.0611154 -0.0266344 8.77915e-21 0.0607278 1.49599e-20 0.000387558)
(-0.0576371 -0.0256334 3.22349e-20 0.0572508 3.00028e-21 0.000386244)
(-0.054314 -0.024677 3.40942e-20 0.0539311 -2.68096e-23 0.000382859)
(-0.0511443 -0.0237664 1.43409e-20 0.050767 -9.85967e-21 0.00037727)
(-0.0481266 -0.0229028 4.35628e-20 0.0477573 4.74116e-22 0.000369335)
(-0.0452605 -0.0220874 4.79692e-21 0.0449016 3.48817e-20 0.000358904)
(-0.0425458 -0.0213213 -3.64101e-20 0.0422 2.16557e-20 0.000345815)
(-0.0399835 -0.0206059 -8.26463e-20 0.0396536 2.03166e-20 0.000329901)
(-0.037575 -0.0199426 -2.39067e-20 0.037264 1.27679e-20 0.000310984)
(-0.0353227 -0.019333 -1.26979e-20 0.0350338 -6.0277e-21 0.000288878)
(-0.0332298 -0.0187787 -2.2274e-20 0.0329664 6.13147e-21 0.000263385)
(-0.0313003 -0.0182816 -3.81433e-20 0.031066 -2.36236e-20 0.000234305)
(-0.0295393 -0.0178438 -4.00728e-20 0.0293379 -2.69131e-20 0.00020142)
(-0.0279528 -0.0174674 -3.96754e-20 0.0277883 -2.30788e-20 0.000164512)
(-0.026548 -0.0171544 -4.82379e-20 0.0264247 -3.41711e-20 0.00012335)
(-0.0253333 -0.016907 -5.57158e-20 0.0252556 -2.51346e-20 7.76986e-05)
(-0.0243185 -0.0167261 3.73121e-21 0.0242912 6.8802e-21 2.73103e-05)
(-0.175495 -0.0407984 4.75761e-21 0.175478 1.71492e-21 1.7166e-05)
(-0.171981 -0.0460736 9.6351e-21 0.171933 -7.68192e-22 4.848e-05)
(-0.167232 -0.0494292 9.94082e-21 0.167155 2.63108e-21 7.77685e-05)
(-0.161715 -0.0514006 1.34262e-20 0.16161 4.84555e-21 0.00010527)
(-0.155747 -0.052368 1.20497e-20 0.155616 9.06963e-23 0.000131175)
(-0.149545 -0.052605 6.94174e-21 0.14939 -2.06092e-22 0.000155626)
(-0.143257 -0.0523104 4.30405e-21 0.143078 2.68794e-21 0.000178737)
(-0.136983 -0.0516304 1.00739e-20 0.136782 2.92019e-21 0.000200591)
(-0.130792 -0.050673 1.41028e-20 0.130571 4.96851e-21 0.000221251)
(-0.12473 -0.0495186 1.95374e-20 0.124489 4.57015e-21 0.000240756)
(-0.118826 -0.0482276 6.26951e-21 0.118567 1.07141e-20 0.000259133)
(-0.113098 -0.0468455 8.26317e-21 0.112822 1.07492e-20 0.00027639)
(-0.107557 -0.0454066 -4.19174e-21 0.107265 1.67997e-20 0.000292524)
(-0.102208 -0.0439371 2.48036e-21 0.101901 9.12591e-21 0.000307521)
(-0.0970526 -0.0424567 2.44519e-21 0.0967312 -7.58964e-21 0.000321354)
(-0.0920885 -0.0409806 8.55151e-21 0.0917545 -9.10425e-21 0.000333986)
(-0.0873133 -0.0395203 2.35301e-21 0.086968 -1.17149e-20 0.000345373)
(-0.082723 -0.0380845 6.22509e-21 0.0823676 -1.99247e-20 0.000355457)
(-0.0783132 -0.03668 -1.28773e-20 0.077949 -2.54711e-20 0.000364175)
(-0.0740789 -0.035312 1.35009e-20 0.0737075 -1.66753e-20 0.000371455)
(-0.0700157 -0.0339845 3.16338e-20 0.0696385 -1.20541e-20 0.000377214)
(-0.066119 -0.0327005 1.00702e-20 0.0657376 -4.13833e-21 0.000381364)
(-0.0623845 -0.0314625 4.70876e-21 0.0620007 1.04326e-20 0.000383805)
(-0.0588087 -0.0302725 -8.01681e-21 0.0584243 1.04301e-20 0.000384432)
(-0.0553882 -0.0291321 6.67652e-21 0.0550051 -5.26681e-21 0.000383128)
(-0.0521205 -0.0280428 2.04151e-20 0.0517407 -2.28541e-20 0.000379771)
(-0.0490033 -0.0270059 -9.60728e-21 0.0486291 -1.05537e-20 0.000374228)
(-0.0460354 -0.0260227 3.82235e-20 0.0456691 1.8306e-21 0.000366358)
(-0.043216 -0.0250944 8.11614e-20 0.0428599 2.27298e-20 0.000356011)
(-0.0405449 -0.0242225 2.11396e-21 0.0402018 8.57502e-21 0.000343029)
(-0.0380228 -0.0234083 -3.18041e-20 0.0376955 3.19756e-20 0.000327245)
(-0.0356511 -0.0226534 -4.31828e-20 0.0353427 2.75504e-20 0.000308481)
(-0.0334321 -0.0219596 -3.47741e-20 0.0331456 2.42817e-20 0.000286554)
(-0.0313688 -0.0213287 1.70909e-20 0.0311075 1.96973e-20 0.000261268)
(-0.0294649 -0.0207629 -5.12886e-20 0.0292325 1.20457e-20 0.000232422)
(-0.0277255 -0.0202643 -6.81486e-20 0.0275257 1.4481e-20 0.000199802)
(-0.0261561 -0.0198353 -5.44881e-20 0.0259929 2.94e-20 0.000163192)
(-0.0247639 -0.0194784 -4.92775e-20 0.0246416 1.50912e-20 0.00012236)
(-0.0235568 -0.0191959 -3.24953e-20 0.0234798 -4.92673e-22 7.7075e-05)
(-0.0225446 -0.0189896 1.09255e-20 0.0225175 1.00309e-20 2.70909e-05)
(-0.174371 -0.0462172 3.8232e-21 0.174354 4.28893e-21 1.70087e-05)
(-0.170087 -0.0519551 9.77022e-21 0.170039 1.01302e-21 4.80357e-05)
(-0.164788 -0.0555826 1.27003e-20 0.164711 9.3906e-22 7.70557e-05)
(-0.158882 -0.0576894 1.5131e-20 0.158778 1.50408e-23 0.000104305)
(-0.152645 -0.0586944 7.29687e-21 0.152515 1.04716e-21 0.000129972)
(-0.146263 -0.0588985 3.42624e-21 0.146109 4.17387e-21 0.000154199)
(-0.139861 -0.0585208 7.30539e-21 0.139684 2.35581e-21 0.000177098)
(-0.133524 -0.0577217 9.38952e-21 0.133325 2.17851e-21 0.000198751)
(-0.127308 -0.0566199 1.3581e-20 0.127089 7.19414e-21 0.00021922)
(-0.12125 -0.0553041 1.6983e-20 0.121011 1.06097e-20 0.000238546)
(-0.115371 -0.0538404 6.62617e-21 0.115114 2.30904e-20 0.000256753)
(-0.109684 -0.0522787 -3.70522e-21 0.10941 2.29091e-20 0.000273851)
(-0.104196 -0.0506567 -6.26293e-21 0.103906 2.2602e-20 0.000289837)
(-0.0989085 -0.049003 -1.57926e-20 0.0986038 1.77238e-20 0.000304696)
(-0.09382 -0.0473392 -1.61127e-20 0.0935015 6.82869e-21 0.000318401)
(-0.0889273 -0.045682 5.80301e-21 0.0885963 -3.88121e-21 0.000330917)
(-0.0842259 -0.0440437 -4.94255e-21 0.0838837 -4.52814e-21 0.000342198)
(-0.0797107 -0.0424341 -5.24354e-21 0.0793585 -1.89351e-20 0.000352189)
(-0.0753761 -0.0408605 -2.33169e-20 0.0750153 -9.81573e-21 0.000360827)
(-0.0712167 -0.0393284 1.34201e-22 0.0708487 2.02708e-21 0.000368039)
(-0.0672271 -0.0378422 1.7086e-20 0.0668534 -1.77839e-21 0.000373746)
(-0.0634024 -0.0364052 8.11887e-21 0.0630246 1.94794e-21 0.000377857)
(-0.059738 -0.0350201 1.92772e-20 0.0593577 4.26676e-23 0.000380277)
(-0.0562298 -0.033689 3.77846e-21 0.0558489 6.78692e-21 0.000380898)
(-0.0528744 -0.0324136 -1.74646e-20 0.0524948 1.31027e-21 0.000379607)
(-0.0496688 -0.0311956 -5.48961e-21 0.0492925 -1.85644e-20 0.000376281)
(-0.0466108 -0.0300363 -1.03243e-21 0.04624 1.70389e-20 0.00037079)
(-0.0436987 -0.0289372 1.25054e-20 0.0433357 4.14946e-20 0.000362993)
(-0.0409317 -0.0278995 4.05761e-20 0.040579 3.19141e-20 0.000352743)
(-0.0383096 -0.0269248 -2.93489e-20 0.0379697 1.61547e-20 0.000339882)
(-0.0358327 -0.0260146 -7.98453e-21 0.0355085 1.5526e-20 0.000324244)
(-0.0335025 -0.0251707 -4.14644e-21 0.0331968 8.99444e-21 0.000305653)
(-0.0313208 -0.0243949 -1.13265e-20 0.0310369 1.32009e-20 0.000283929)
(-0.0292907 -0.0236892 1.49847e-20 0.0290318 -2.06616e-20 0.000258875)
(-0.0274156 -0.023056 -1.47897e-20 0.0271853 1.3773e-20 0.000230295)
(-0.0257003 -0.0224976 -1.49323e-20 0.0255024 1.97568e-20 0.000197974)
(-0.0241503 -0.0220167 5.82625e-21 0.0239886 2.56472e-20 0.000161699)
(-0.0227722 -0.0216161 -5.44219e-20 0.022651 8.81291e-21 0.000121241)
(-0.0215739 -0.0212982 -9.57691e-20 0.0214975 2.25794e-20 7.63701e-05)
(-0.0205647 -0.0210656 1.61274e-20 0.0205378 2.09249e-20 2.6843e-05)
(-0.173097 -0.0516278 5.4513e-21 0.173081 -2.07486e-22 1.68333e-05)
(-0.167975 -0.0577415 1.1819e-20 0.167928 -4.45582e-21 4.75401e-05)
(-0.162078 -0.0615774 1.16867e-20 0.162002 1.25184e-21 7.62606e-05)
(-0.15575 -0.0637733 1.18294e-20 0.155646 6.10742e-21 0.000103229)
(-0.14922 -0.0647823 9.10649e-21 0.149092 6.19776e-21 0.000128631)
(-0.142643 -0.0649298 1.2606e-20 0.142491 -2.63345e-21 0.000152607)
(-0.136119 -0.0644522 6.36054e-21 0.135944 -1.68404e-21 0.000175269)
(-0.129716 -0.0635229 9.94793e-21 0.129519 1.33536e-21 0.000196698)
(-0.123474 -0.0622701 1.29986e-20 0.123257 1.36522e-20 0.000216956)
(-0.117421 -0.0607892 1.74445e-20 0.117185 2.54052e-20 0.000236081)
(-0.111571 -0.0591516 2.36973e-20 0.111317 2.98661e-20 0.0002541)
(-0.10593 -0.0574111 1.00296e-20 0.105659 2.80363e-20 0.000271021)
(-0.100501 -0.0556081 -4.73104e-21 0.100215 2.8913e-20 0.000286841)
(-0.0952821 -0.0537734 -4.189e-21 0.0949805 1.93485e-20 0.000301546)
(-0.0902684 -0.0519303 -2.112e-20 0.0899533 1.30556e-20 0.000315109)
(-0.0854548 -0.0500965 -1.53712e-20 0.0851273 6.94066e-21 0.000327495)
(-0.0808352 -0.0482853 -6.81417e-21 0.0804965 1.67403e-21 0.000338659)
(-0.076403 -0.0465071 -2.05326e-20 0.0760545 -9.58057e-21 0.000348547)
(-0.0721517 -0.0447696 -1.63115e-20 0.0717947 6.26177e-21 0.000357095)
(-0.068075 -0.0430789 3.17554e-21 0.0677108 2.31184e-20 0.000364233)
(-0.0641668 -0.0414394 3.70723e-21 0.063797 2.27782e-20 0.000369881)
(-0.0604217 -0.0398548 2.01104e-21 0.0600477 1.47329e-20 0.00037395)
(-0.0568346 -0.0383278 3.06429e-21 0.0564582 -2.60173e-21 0.000376345)
(-0.0534011 -0.0368606 1.7824e-20 0.0530242 -3.00963e-21 0.00037696)
(-0.0501175 -0.0354551 -7.25944e-21 0.0497418 7.08061e-22 0.000375684)
(-0.0469805 -0.034113 -3.20349e-20 0.0466081 3.8567e-21 0.000372393)
(-0.0439877 -0.0328357 4.14853e-20 0.0436208 3.5611e-20 0.00036696)
(-0.0411374 -0.0316247 8.4986e-20 0.0407782 4.18742e-20 0.000359245)
(-0.0384283 -0.0304814 8.66403e-20 0.0380792 3.24421e-20 0.000349102)
(-0.0358602 -0.0294074 -9.22637e-21 0.0355238 2.19333e-20 0.000336374)
(-0.0334333 -0.0284044 -3.03286e-20 0.0331124 -6.97051e-22 0.000320899)
(-0.0311488 -0.0274742 -3.30162e-20 0.0308463 -1.71782e-20 0.000302502)
(-0.0290084 -0.0266187 -9.10935e-21 0.0287274 -3.28716e-20 0.000281003)
(-0.0270148 -0.0258403 -3.61324e-20 0.0267586 -3.08097e-20 0.000256209)
(-0.0251716 -0.0251413 2.94255e-20 0.0249437 5.20272e-21 0.000227923)
(-0.023483 -0.0245244 -3.08195e-20 0.0232871 -3.13766e-21 0.000195936)
(-0.0219544 -0.0239923 -6.8421e-21 0.0217943 8.74859e-21 0.000160035)
(-0.020592 -0.0235481 -3.62864e-20 0.020472 3.14331e-20 0.000119993)
(-0.0194035 -0.0231947 -1.73286e-20 0.0193279 5.93497e-20 7.55843e-05)
(-0.0183979 -0.0229348 2.02364e-20 0.0183713 1.9699e-20 2.65666e-05)
(-0.171673 -0.0570281 9.70844e-21 0.171657 -1.15128e-20 1.66398e-05)
(-0.165653 -0.0634234 1.59214e-20 0.165606 -1.18068e-20 4.69938e-05)
(-0.159115 -0.0673988 1.86011e-20 0.15904 -2.24188e-21 7.53841e-05)
(-0.152336 -0.0696338 2.55586e-20 0.152234 -5.26615e-21 0.000102042)
(-0.145495 -0.0706106 1.40174e-20 0.145368 -3.8441e-21 0.000127152)
(-0.138711 -0.0706755 1.204e-21 0.13856 -2.79849e-21 0.000150852)
(-0.132058 -0.0700801 2.48468e-21 0.131885 1.27984e-21 0.000173253)
(-0.125585 -0.0690087 -1.41988e-21 0.12539 1.73871e-20 0.000194436)
(-0.119318 -0.0675975 1.32315e-20 0.119103 2.94532e-20 0.00021446)
(-0.113272 -0.0659477 3.86625e-20 0.113039 2.19973e-20 0.000233365)
(-0.107455 -0.0641351 3.62885e-20 0.107204 1.90066e-20 0.000251176)
(-0.101866 -0.0622166 1.38618e-20 0.101598 2.40257e-20 0.000267902)
(-0.0965024 -0.060235 -8.61884e-22 0.0962188 3.01569e-20 0.00028354)
(-0.0913581 -0.0582229 -2.20753e-20 0.09106 2.37651e-20 0.000298075)
(-0.0864263 -0.0562048 -3.32789e-20 0.0861148 2.4464e-20 0.000311482)
(-0.0816993 -0.0541994 -2.56698e-20 0.0813755 2.62159e-20 0.000323725)
(-0.0771689 -0.0522207 -2.28074e-20 0.0768342 1.41629e-20 0.00033476)
(-0.0728273 -0.0502796 -4.16866e-20 0.0724828 1.49947e-20 0.000344534)