/*--------------------------------*- C++ -*----------------------------------*\
| =========                 |                                                 |
| \\      /  F ield         | foam-extend: Open Source CFD                    |
|  \\    /   O peration     | Version:  3.0                                   |
|   \\  /    A nd           | Web:         http://www.extend-project.de       |
|    \\/     M anipulation  |                                                 |
\*---------------------------------------------------------------------------*/
FoamFile
{
    version     2.0;
    format      ascii;
    class       volScalarField;
    location    "27";
    object      p;
}
// * * * * * * * * * * * * * * * * * * * * * * * * * * * * * * * * * * * * * //

dimensions      [0 0 0 0 0 0 0];

internalField   nonuniform List<scalar> 
7680
(
-0.234882
-0.222893
-0.214024
-0.204648
-0.197874
-0.19043
-0.185213
-0.179241
-0.17521
-0.170383
-0.167273
-0.163354
-0.16097
-0.157779
-0.155969
-0.153365
-0.152011
-0.149884
-0.148888
-0.147144
-0.146426
-0.144987
-0.144473
-0.143269
-0.142895
-0.141864
-0.141568
-0.14065
-0.140373
-0.139509
-0.139191
-0.138323
-0.137902
-0.13697
-0.136379
-0.135319
-0.134487
-0.13323
-0.132079
-0.130549
-0.234645
-0.222668
-0.213808
-0.204442
-0.197674
-0.190238
-0.185025
-0.179059
-0.175032
-0.17021
-0.167103
-0.163188
-0.160806
-0.157618
-0.155809
-0.153209
-0.151856
-0.14973
-0.148736
-0.146994
-0.146275
-0.144838
-0.144324
-0.143122
-0.142748
-0.141718
-0.141423
-0.140505
-0.140228
-0.139365
-0.139047
-0.13818
-0.137759
-0.136828
-0.136238
-0.135179
-0.134348
-0.133092
-0.131942
-0.130413
-0.234128
-0.222178
-0.213338
-0.203992
-0.19724
-0.18982
-0.18462
-0.178666
-0.174648
-0.169837
-0.166738
-0.162831
-0.160455
-0.157274
-0.155469
-0.152875
-0.151525
-0.149404
-0.148412
-0.146674
-0.145958
-0.144523
-0.144011
-0.142811
-0.142439
-0.141411
-0.141116
-0.1402
-0.139925
-0.139063
-0.138747
-0.137882
-0.137462
-0.136533
-0.135944
-0.134887
-0.134058
-0.132805
-0.131657
-0.130132
-0.233389
-0.221476
-0.212664
-0.203348
-0.196617
-0.18922
-0.184036
-0.178102
-0.174096
-0.1693
-0.16621
-0.162316
-0.159947
-0.156775
-0.154977
-0.15239
-0.151045
-0.148931
-0.147941
-0.146209
-0.145494
-0.144064
-0.143554
-0.142358
-0.141986
-0.140961
-0.140668
-0.139755
-0.13948
-0.138621
-0.138305
-0.137443
-0.137024
-0.136098
-0.135511
-0.134458
-0.133631
-0.132382
-0.131238
-0.129718
-0.232372
-0.220511
-0.211738
-0.202463
-0.195761
-0.188397
-0.183235
-0.177327
-0.173339
-0.168564
-0.165488
-0.161611
-0.159252
-0.156095
-0.154305
-0.151729
-0.15039
-0.148285
-0.1473
-0.145575
-0.144864
-0.143441
-0.142933
-0.141742
-0.141372
-0.140352
-0.14006
-0.139151
-0.138877
-0.138022
-0.137708
-0.13685
-0.136433
-0.135511
-0.134926
-0.133878
-0.133055
-0.131811
-0.130672
-0.129158
-0.231134
-0.219337
-0.21061
-0.201384
-0.194718
-0.187393
-0.182259
-0.176382
-0.172415
-0.167665
-0.164605
-0.160749
-0.158402
-0.155262
-0.153481
-0.150919
-0.149587
-0.147493
-0.146514
-0.144797
-0.14409
-0.142674
-0.142169
-0.140984
-0.140616
-0.139601
-0.139311
-0.138407
-0.138134
-0.137284
-0.136971
-0.136117
-0.135703
-0.134785
-0.134204
-0.133161
-0.132342
-0.131105
-0.129972
-0.128467
-0.229621
-0.217901
-0.209231
-0.200066
-0.193444
-0.186167
-0.181067
-0.175228
-0.171288
-0.16657
-0.16353
-0.159699
-0.157368
-0.154248
-0.152479
-0.149934
-0.148611
-0.146531
-0.145558
-0.143853
-0.143151
-0.141744
-0.141242
-0.140065
-0.1397
-0.138692
-0.138403
-0.137505
-0.137235
-0.13639
-0.13608
-0.135231
-0.13482
-0.133909
-0.133331
-0.132295
-0.131482
-0.130253
-0.129127
-0.127631
-0.22789
-0.216258
-0.207654
-0.198557
-0.191985
-0.184763
-0.179701
-0.173906
-0.169996
-0.165313
-0.162296
-0.158493
-0.15618
-0.153084
-0.151328
-0.148802
-0.147488
-0.145424
-0.144458
-0.142766
-0.142069
-0.140673
-0.140175
-0.139007
-0.138644
-0.137643
-0.137357
-0.136466
-0.136197
-0.135359
-0.135051
-0.134209
-0.1338
-0.132896
-0.132322
-0.131294
-0.130487
-0.129267
-0.12815
-0.126665
-0.225887
-0.214357
-0.205829
-0.196813
-0.190298
-0.18314
-0.178123
-0.172379
-0.168503
-0.163862
-0.160871
-0.157103
-0.15481
-0.151741
-0.15
-0.147497
-0.146195
-0.144149
-0.143192
-0.141515
-0.140824
-0.139441
-0.138947
-0.137789
-0.13743
-0.136438
-0.136154
-0.135271
-0.135005
-0.134174
-0.133869
-0.133034
-0.132629
-0.131733
-0.131165
-0.130146
-0.129346
-0.128137
-0.127029
-0.125558
-0.22367
-0.212253
-0.203809
-0.194881
-0.18843
-0.181342
-0.176374
-0.170687
-0.166848
-0.162252
-0.159291
-0.155559
-0.153289
-0.15025
-0.148527
-0.146048
-0.144758
-0.142732
-0.141785
-0.140124
-0.13944
-0.13807
-0.13758
-0.136434
-0.136078
-0.135096
-0.134815
-0.13394
-0.133677
-0.132854
-0.132552
-0.131725
-0.131324
-0.130437
-0.129874
-0.128865
-0.128073
-0.126876
-0.125779
-0.124322
-0.221185
-0.209896
-0.201545
-0.192716
-0.186338
-0.179329
-0.174416
-0.168792
-0.164997
-0.160452
-0.157524
-0.153834
-0.151589
-0.148584
-0.14688
-0.144428
-0.143154
-0.14115
-0.140213
-0.138571
-0.137895
-0.13654
-0.136056
-0.134923
-0.134571
-0.1336
-0.133322
-0.132458
-0.132197
-0.131384
-0.131085
-0.130268
-0.129871
-0.128993
-0.128437
-0.127439
-0.126656
-0.125472
-0.124388
-0.122947
-0.218492
-0.20734
-0.199091
-0.190369
-0.184068
-0.177144
-0.172291
-0.166736
-0.162987
-0.158497
-0.155605
-0.151959
-0.149741
-0.146773
-0.145089
-0.142668
-0.141408
-0.13943
-0.138504
-0.136882
-0.136213
-0.134875
-0.134397
-0.133278
-0.13293
-0.131971
-0.131696
-0.130842
-0.130585
-0.129781
-0.129485
-0.128678
-0.128286
-0.127419
-0.12687
-0.125884
-0.12511
-0.123941
-0.12287
-0.121446
-0.215536
-0.204535
-0.196398
-0.187795
-0.181579
-0.174749
-0.169962
-0.164482
-0.160784
-0.156355
-0.153502
-0.149906
-0.147718
-0.14479
-0.14313
-0.140741
-0.139499
-0.137547
-0.136634
-0.135034
-0.134375
-0.133055
-0.132584
-0.131479
-0.131137
-0.13019
-0.12992
-0.129077
-0.128823
-0.128031
-0.127739
-0.126943
-0.126557
-0.125702
-0.125159
-0.124187
-0.123424
-0.12227
-0.121214
-0.119809
-0.212378
-0.201539
-0.19352
-0.185043
-0.178919
-0.172188
-0.167471
-0.162071
-0.158427
-0.154063
-0.151252
-0.147708
-0.145553
-0.142667
-0.141031
-0.138677
-0.137453
-0.13553
-0.13463
-0.133053
-0.132404
-0.131103
-0.130638
-0.12955
-0.129212
-0.12828
-0.128013
-0.127183
-0.126933
-0.126152
-0.125864
-0.12508
-0.124699
-0.123856
-0.123322
-0.122364
-0.121612
-0.120475
-0.119434
-0.11805
-0.208964
-0.198299
-0.19041
-0.18207
-0.176044
-0.169422
-0.164781
-0.159468
-0.155882
-0.151589
-0.148823
-0.145337
-0.143216
-0.140377
-0.138767
-0.136451
-0.135247
-0.133355
-0.13247
-0.130919
-0.13028
-0.129
-0.128543
-0.127472
-0.12714
-0.126223
-0.12596
-0.125143
-0.124898
-0.124129
-0.123847
-0.123075
-0.1227
-0.121871
-0.121346
-0.120403
-0.119663
-0.118545
-0.11752
-0.116159
-0.205355
-0.194874
-0.187121
-0.178925
-0.173003
-0.166495
-0.161934
-0.156713
-0.153189
-0.148969
-0.146251
-0.142825
-0.140741
-0.137951
-0.136369
-0.134093
-0.132909
-0.13105
-0.13018
-0.128655
-0.128027
-0.126769
-0.12632
-0.125268
-0.124941
-0.12404
-0.123782
-0.122979
-0.122737
-0.121982
-0.121704
-0.120946
-0.120578
-0.119763
-0.119247
-0.11832
-0.117593
-0.116494
-0.115487
-0.114149
-0.201498
-0.191214
-0.183607
-0.175565
-0.169754
-0.163369
-0.158894
-0.153771
-0.150313
-0.146173
-0.143506
-0.140145
-0.1381
-0.135362
-0.13381
-0.131577
-0.130416
-0.128592
-0.127738
-0.126242
-0.125626
-0.124392
-0.123952
-0.12292
-0.122599
-0.121715
-0.121462
-0.120674
-0.120437
-0.119696
-0.119424
-0.11868
-0.118318
-0.117519
-0.117012
-0.116103
-0.11539
-0.114311
-0.113324
-0.112011
-0.197453
-0.187376
-0.179921
-0.17204
-0.166346
-0.160089
-0.155703
-0.150683
-0.147295
-0.143238
-0.140624
-0.13733
-0.135326
-0.132644
-0.131122
-0.128934
-0.127796
-0.126008
-0.125172
-0.123706
-0.123102
-0.121893
-0.121461
-0.120449
-0.120135
-0.119269
-0.119021
-0.118249
-0.118016
-0.11729
-0.117023
-0.116294
-0.11594
-0.115157
-0.11466
-0.113769
-0.11307
-0.112013
-0.111045
-0.109759
-0.193169
-0.18331
-0.176017
-0.168308
-0.162737
-0.156616
-0.152326
-0.147415
-0.144101
-0.140132
-0.137575
-0.134353
-0.132392
-0.129768
-0.12828
-0.12614
-0.125027
-0.123277
-0.122459
-0.121026
-0.120435
-0.119252
-0.11883
-0.11784
-0.117533
-0.116686
-0.116443
-0.115688
-0.115461
-0.114751
-0.114489
-0.113776
-0.11343
-0.112664
-0.112178
-0.111306
-0.110622
-0.109588
-0.108642
-0.107383
-0.188706
-0.179075
-0.17195
-0.164419
-0.158977
-0.152997
-0.148806
-0.144008
-0.14077
-0.136893
-0.134395
-0.131247
-0.129332
-0.126768
-0.125315
-0.123223
-0.122136
-0.120427
-0.119628
-0.118227
-0.11765
-0.116494
-0.116082
-0.115115
-0.114815
-0.113987
-0.11375
-0.113012
-0.11279
-0.112096
-0.111841
-0.111144
-0.110806
-0.110057
-0.109583
-0.108731
-0.108063
-0.107053
-0.106128
-0.104898
-0.184012
-0.174621
-0.167674
-0.16033
-0.155024
-0.149193
-0.145106
-0.140428
-0.137271
-0.13349
-0.131055
-0.127985
-0.126118
-0.123618
-0.122201
-0.120162
-0.119102
-0.117435
-0.116656
-0.11529
-0.114728
-0.113601
-0.113199
-0.112257
-0.111964
-0.111156
-0.110925
-0.110206
-0.10999
-0.109313
-0.109065
-0.108385
-0.108055
-0.107325
-0.106863
-0.106033
-0.105381
-0.104396
-0.103494
-0.102295
-0.17915
-0.170007
-0.163244
-0.156093
-0.150927
-0.14525
-0.141272
-0.136717
-0.133643
-0.129962
-0.127591
-0.124602
-0.122784
-0.12035
-0.11897
-0.116985
-0.115953
-0.11433
-0.113572
-0.112242
-0.111694
-0.110597
-0.110205
-0.109288
-0.109003
-0.108217
-0.107992
-0.107291
-0.107081
-0.106422
-0.10618
-0.105518
-0.105197
-0.104486
-0.104036
-0.103227
-0.102593
-0.101634
-0.100756
-0.0995888
-0.174068
-0.165184
-0.158613
-0.151666
-0.146646
-0.141131
-0.137265
-0.13284
-0.129853
-0.126277
-0.123973
-0.12107
-0.119303
-0.116939
-0.115598
-0.11367
-0.112667
-0.111091
-0.110353
-0.109062
-0.10853
-0.107464
-0.107083
-0.106192
-0.105915
-0.105151
-0.104933
-0.104253
-0.104048
-0.103408
-0.103173
-0.10253
-0.102218
-0.101528
-0.10109
-0.100305
-0.0996883
-0.0987568
-0.0979035
-0.0967694
-0.168828
-0.160211
-0.153838
-0.1471
-0.142231
-0.136882
-0.133132
-0.12884
-0.125943
-0.122475
-0.12024
-0.117424
-0.11571
-0.113417
-0.112116
-0.110246
-0.109273
-0.107744
-0.107029
-0.105776
-0.10526
-0.104226
-0.103857
-0.102992
-0.102724
-0.101983
-0.101771
-0.101111
-0.100913
-0.100292
-0.100064
-0.0994401
-0.0991376
-0.0984678
-0.0980433
-0.0972815
-0.0966837
-0.0957801
-0.0949525
-0.0938525
-0.163378
-0.15504
-0.148873
-0.142352
-0.137641
-0.132465
-0.128836
-0.124683
-0.12188
-0.118523
-0.116361
-0.113636
-0.111978
-0.109759
-0.1085
-0.10669
-0.105749
-0.10427
-0.103578
-0.102366
-0.101866
-0.100866
-0.100509
-0.0996723
-0.0994127
-0.0986959
-0.0984909
-0.0978524
-0.0976604
-0.0970598
-0.0968391
-0.0962359
-0.0959431
-0.0952951
-0.0948844
-0.0941472
-0.0935687
-0.0926944
-0.0918935
-0.090829
-0.157782
-0.14973
-0.143773
-0.137476
-0.132926
-0.127927
-0.124423
-0.120412
-0.117704
-0.114463
-0.112374
-0.109742
-0.108141
-0.105998
-0.104782
-0.103034
-0.102125
-0.100696
-0.100028
-0.0988571
-0.0983748
-0.0974085
-0.0970638
-0.0962556
-0.0960049
-0.0953124
-0.0951144
-0.0944977
-0.0943122
-0.0937322
-0.093519
-0.0929363
-0.0926535
-0.0920276
-0.0916309
-0.090919
-0.0903603
-0.0895158
-0.0887424
-0.0877143
-0.151988
-0.144232
-0.138495
-0.132429
-0.128047
-0.123231
-0.119856
-0.115992
-0.113384
-0.110262
-0.10825
-0.105715
-0.104173
-0.102109
-0.100938
-0.0992542
-0.0983785
-0.0970026
-0.096359
-0.0952312
-0.0947667
-0.0938361
-0.0935042
-0.0927259
-0.0924845
-0.0918176
-0.091627
-0.091033
-0.0908545
-0.0902958
-0.0900906
-0.0895294
-0.0892571
-0.0886543
-0.0882722
-0.0875864
-0.0870482
-0.0862348
-0.0854898
-0.0844995
-0.146061
-0.138607
-0.133093
-0.127264
-0.123052
-0.118424
-0.11518
-0.111467
-0.108961
-0.105961
-0.104027
-0.101591
-0.100109
-0.0981247
-0.0969997
-0.0953814
-0.0945398
-0.0932173
-0.0925988
-0.0915148
-0.0910684
-0.0901739
-0.0898549
-0.0891068
-0.0888747
-0.0882338
-0.0880505
-0.0874796
-0.087308
-0.086771
-0.0865737
-0.0860343
-0.0857726
-0.0851932
-0.084826
-0.084167
-0.0836498
-0.082868
-0.082152
-0.0812003
-0.139948
-0.132807
-0.127524
-0.121939
-0.117904
-0.113469
-0.110362
-0.106804
-0.104403
-0.101528
-0.0996762
-0.097342
-0.0959218
-0.0940212
-0.0929434
-0.091393
-0.0905867
-0.0893199
-0.0887274
-0.0876889
-0.0872613
-0.0864045
-0.0860989
-0.0853823
-0.0851601
-0.0845461
-0.0843706
-0.0838237
-0.0836594
-0.0831451
-0.0829561
-0.0824394
-0.0821887
-0.0816336
-0.0812819
-0.0806504
-0.0801549
-0.0794059
-0.0787199
-0.0778079
-0.133715
-0.126891
-0.121843
-0.116507
-0.112651
-0.108414
-0.105445
-0.102046
-0.0997517
-0.0970047
-0.095235
-0.0930046
-0.0916476
-0.0898315
-0.0888016
-0.0873201
-0.0865497
-0.0853391
-0.0847729
-0.0837806
-0.083372
-0.0825531
-0.0822611
-0.0815763
-0.0813639
-0.0807772
-0.0806094
-0.0800868
-0.0799298
-0.0794382
-0.0792576
-0.0787639
-0.0785243
-0.0779939
-0.0776578
-0.0770544
-0.0765809
-0.0758653
-0.0752098
-0.0743384
-0.127309
-0.120812
-0.116007
-0.110926
-0.107256
-0.103222
-0.100395
-0.097159
-0.094975
-0.0923598
-0.0906751
-0.0885518
-0.0872599
-0.085531
-0.0845506
-0.0831403
-0.082407
-0.0812546
-0.0807156
-0.0797711
-0.0793821
-0.0786027
-0.0783248
-0.077673
-0.0774709
-0.0769124
-0.0767528
-0.0762554
-0.0761059
-0.0756381
-0.0754662
-0.0749962
-0.0747682
-0.0742633
-0.0739433
-0.0733689
-0.0729181
-0.0722368
-0.0716127
-0.0707831
-0.120796
-0.114631
-0.110071
-0.105251
-0.101768
-0.0979405
-0.0952581
-0.0921874
-0.090115
-0.0876334
-0.0860348
-0.08402
-0.0827941
-0.0811535
-0.0802232
-0.0788849
-0.078189
-0.0770954
-0.076584
-0.0756876
-0.0753185
-0.0745788
-0.0743151
-0.0736965
-0.0735046
-0.0729746
-0.0728231
-0.072351
-0.0722092
-0.0717651
-0.071602
-0.071156
-0.0709396
-0.0704604
-0.0701568
-0.0696117
-0.069184
-0.0685375
-0.0679453
-0.0671581
-0.114124
-0.108301
-0.103993
-0.0994388
-0.0961484
-0.0925328
-0.0899987
-0.0870978
-0.08514
-0.0827958
-0.0812856
-0.0793823
-0.0782243
-0.0766745
-0.0757958
-0.0745316
-0.0738742
-0.0728413
-0.0723582
-0.0715115
-0.0711629
-0.0704643
-0.0702152
-0.069631
-0.0694498
-0.0689493
-0.0688062
-0.0683604
-0.0682264
-0.0678071
-0.067653
-0.0672317
-0.0670274
-0.0665748
-0.0662879
-0.065773
-0.0653689
-0.0647582
-0.0641987
-0.0634549
-0.107359
-0.101881
-0.0978284
-0.0935441
-0.0904487
-0.0870472
-0.0846632
-0.0819342
-0.0800923
-0.0778869
-0.0764662
-0.0746755
-0.0735861
-0.072128
-0.0713012
-0.0701118
-0.0694934
-0.0685215
-0.068067
-0.0672704
-0.0669424
-0.066285
-0.0660507
-0.0655009
-0.0653304
-0.0648594
-0.0647248
-0.0643053
-0.0641792
-0.0637846
-0.0636397
-0.0632432
-0.0630509
-0.0626251
-0.0623552
-0.0618708
-0.0614906
-0.060916
-0.0603897
-0.05969
-0.100451
-0.0953253
-0.0915338
-0.0875255
-0.0846294
-0.0814472
-0.0792168
-0.0766636
-0.0749405
-0.0728772
-0.071548
-0.0698728
-0.0688537
-0.0674897
-0.0667163
-0.0656036
-0.0650251
-0.064116
-0.0636908
-0.0629457
-0.0626389
-0.062024
-0.0618049
-0.0612907
-0.0611313
-0.0606907
-0.0605649
-0.0601725
-0.0600546
-0.0596856
-0.05955
-0.0591792
-0.0589994
-0.058601
-0.0583486
-0.0578953
-0.0575397
-0.057002
-0.0565096
-0.0558549
-0.0934636
-0.0886945
-0.0851666
-0.0814369
-0.0787423
-0.0757812
-0.0737059
-0.0713301
-0.0697268
-0.0678069
-0.0665701
-0.0650113
-0.0640629
-0.0627936
-0.0620739
-0.0610385
-0.0605002
-0.0596541
-0.0592585
-0.0585651
-0.0582795
-0.0577073
-0.0575033
-0.0570248
-0.0568764
-0.0564664
-0.0563492
-0.055984
-0.0558743
-0.0555308
-0.0554046
-0.0550596
-0.0548922
-0.0545215
-0.0542865
-0.0538648
-0.0535338
-0.0530335
-0.0525753
-0.0519661
-0.0863474
-0.0819417
-0.0786828
-0.0752374
-0.0727481
-0.0700128
-0.0680957
-0.0659011
-0.06442
-0.0626465
-0.0615041
-0.0600642
-0.0591882
-0.0580158
-0.057351
-0.0563947
-0.0558974
-0.055116
-0.0547507
-0.0541102
-0.0538465
-0.0533181
-0.0531297
-0.0526878
-0.0525508
-0.0521722
-0.052064
-0.0517268
-0.0516255
-0.0513083
-0.0511918
-0.0508732
-0.0507186
-0.0503762
-0.0501592
-0.0497696
-0.0494638
-0.0490017
-0.0485783
-0.0480155
-0.0791677
-0.0751282
-0.0721401
-0.0689811
-0.0666987
-0.0641907
-0.0624329
-0.0604207
-0.0590626
-0.0574365
-0.056389
-0.0550686
-0.0542654
-0.0531903
-0.0525808
-0.0517038
-0.0512479
-0.0505313
-0.0501963
-0.0496089
-0.0493671
-0.0488825
-0.0487097
-0.0483044
-0.0481787
-0.0478315
-0.0477323
-0.047423
-0.0473301
-0.0470391
-0.0469323
-0.04664
-0.0464982
-0.0461842
-0.0459852
-0.045628
-0.0453476
-0.0449238
-0.0445356
-0.0440196
-0.0718743
-0.0682073
-0.0654948
-0.0626271
-0.0605552
-0.0582786
-0.0566829
-0.0548563
-0.0536236
-0.0521475
-0.0511967
-0.0499982
-0.0492692
-0.0482934
-0.0477401
-0.0469442
-0.0465304
-0.04588
-0.045576
-0.0450429
-0.0448235
-0.0443837
-0.044227
-0.0438592
-0.0437453
-0.0434302
-0.0433402
-0.0430595
-0.0429753
-0.0427113
-0.0426143
-0.0423491
-0.0422204
-0.0419354
-0.0417548
-0.0414305
-0.041176
-0.0407913
-0.0404389
-0.0399703
-0.0645328
-0.0612403
-0.0588048
-0.0562299
-0.0543696
-0.0523254
-0.0508926
-0.0492525
-0.0481456
-0.0468202
-0.0459664
-0.0448902
-0.0442355
-0.0433593
-0.0428625
-0.0421477
-0.0417761
-0.041192
-0.040919
-0.0404403
-0.0402432
-0.0398482
-0.0397074
-0.0393771
-0.0392747
-0.0389917
-0.0389108
-0.0386587
-0.038583
-0.0383459
-0.0382588
-0.0380206
-0.037905
-0.0376491
-0.0374868
-0.0371956
-0.0369671
-0.0366216
-0.0363051
-0.0358844
-0.0570934
-0.0541808
-0.0520264
-0.0497487
-0.0481031
-0.0462948
-0.0450274
-0.0435767
-0.0425976
-0.0414252
-0.04067
-0.0397182
-0.0391391
-0.0383641
-0.0379248
-0.0372926
-0.036964
-0.0364475
-0.036206
-0.0357827
-0.0356085
-0.0352592
-0.0351348
-0.0348427
-0.0347523
-0.034502
-0.0344306
-0.0342077
-0.0341408
-0.0339312
-0.0338542
-0.0336436
-0.0335414
-0.033315
-0.0331715
-0.0329139
-0.0327117
-0.0324061
-0.0321261
-0.0317538
-0.0496217
-0.0470903
-0.0452177
-0.0432381
-0.0418077
-0.040236
-0.0391345
-0.0378735
-0.0370224
-0.0360034
-0.0353469
-0.0345196
-0.0340162
-0.0333425
-0.0329606
-0.0324111
-0.0321254
-0.0316764
-0.0314665
-0.0310984
-0.0309469
-0.0306433
-0.0305351
-0.0302811
-0.0302024
-0.0299848
-0.0299227
-0.0297289
-0.0296707
-0.0294884
-0.0294214
-0.0292382
-0.0291494
-0.0289526
-0.0288278
-0.0286039
-0.0284281
-0.0281624
-0.027919
-0.0275954
-0.042068
-0.0399223
-0.0383352
-0.0366572
-0.0354449
-0.0341128
-0.0331792
-0.0321104
-0.0313891
-0.0305255
-0.0299692
-0.029268
-0.0288415
-0.0282706
-0.027947
-0.0274813
-0.0272393
-0.0268589
-0.026681
-0.0263692
-0.026241
-0.0259837
-0.0258921
-0.025677
-0.0256104
-0.0254261
-0.0253735
-0.0252094
-0.0251601
-0.0250057
-0.024949
-0.0247938
-0.0247185
-0.0245518
-0.024446
-0.0242562
-0.0241072
-0.023882
-0.0236756
-0.0234012
-0.0344982
-0.0327387
-0.0314371
-0.0300611
-0.0290669
-0.0279744
-0.0272088
-0.0263323
-0.0257408
-0.0250324
-0.0245762
-0.0240011
-0.0236513
-0.023183
-0.0229176
-0.0225356
-0.0223371
-0.022025
-0.0218792
-0.0216234
-0.0215181
-0.0213071
-0.0212319
-0.0210554
-0.0210007
-0.0208495
-0.0208063
-0.0206716
-0.0206312
-0.0205045
-0.0204579
-0.0203306
-0.0202688
-0.020132
-0.0200452
-0.0198895
-0.0197673
-0.0195825
-0.0194132
-0.0191881
-0.0268625
-0.0254929
-0.0244798
-0.0234088
-0.022635
-0.0217847
-0.0211888
-0.0205066
-0.0200463
-0.0194951
-0.01914
-0.0186925
-0.0184203
-0.018056
-0.0178495
-0.0175523
-0.0173979
-0.0171552
-0.0170417
-0.0168428
-0.016761
-0.0165968
-0.0165384
-0.0164012
-0.0163587
-0.0162412
-0.0162077
-0.0161029
-0.0160715
-0.015973
-0.0159368
-0.0158378
-0.0157897
-0.0156833
-0.0156158
-0.0154945
-0.0153993
-0.0152554
-0.0151236
-0.0149482
-0.0192271
-0.0182469
-0.0175219
-0.0167554
-0.0162016
-0.0155931
-0.0151666
-0.0146784
-0.0143489
-0.0139544
-0.0137002
-0.0133799
-0.0131851
-0.0129243
-0.0127765
-0.0125637
-0.0124532
-0.0122794
-0.0121982
-0.0120557
-0.0119971
-0.0118796
-0.0118378
-0.0117395
-0.0117091
-0.0116248
-0.0116008
-0.0115258
-0.0115033
-0.0114327
-0.0114068
-0.0113358
-0.0113014
-0.0112251
-0.0111767
-0.0110899
-0.0110217
-0.0109186
-0.0108241
-0.0106985
-0.011542
-0.0109543
-0.0105197
-0.0100601
-0.00972816
-0.00936336
-0.00910772
-0.00881507
-0.00861762
-0.00838117
-0.00822891
-0.00803698
-0.00792029
-0.00776405
-0.00767556
-0.00754816
-0.00748203
-0.00737798
-0.00732943
-0.00724418
-0.00720919
-0.00713888
-0.00711391
-0.00705514
-0.007037
-0.00698665
-0.00697234
-0.00692749
-0.00691406
-0.00687184
-0.00685635
-0.00681387
-0.00679323
-0.00674751
-0.00671848
-0.00666636
-0.00662539
-0.00656346
-0.00650667
-0.00643111
-0.00387365
-0.00367714
-0.00353178
-0.0033781
-0.00326708
-0.00314507
-0.00305957
-0.00296168
-0.00289564
-0.00281655
-0.00276564
-0.00270144
-0.00266245
-0.00261018
-0.00258064
-0.00253802
-0.00251596
-0.00248114
-0.00246496
-0.00243644
-0.00242479
-0.00240125
-0.00239294
-0.00237326
-0.00236723
-0.00235036
-0.00234559
-0.00233054
-0.00232606
-0.00231188
-0.00230667
-0.00229238
-0.00228543
-0.00227002
-0.00226022
-0.00224262
-0.00222876
-0.00220782
-0.0021886
-0.00216299
0.00382789
0.00363109
0.00348546
0.00333155
0.00322029
0.00309806
0.00301234
0.00291422
0.00284795
0.00276861
0.00271744
0.00265297
0.00261367
0.00256113
0.00253124
0.00248833
0.00246591
0.0024308
0.00241427
0.00238546
0.00237349
0.00234969
0.0023411
0.00232118
0.00231491
0.00229783
0.00229288
0.00227768
0.00227307
0.00225882
0.00225358
0.00223932
0.00223245
0.00221723
0.00220765
0.00219045
0.00217703
0.00215674
0.00213821
0.00211366
0.0114962
0.0109083
0.0104734
0.0100136
0.0096814
0.00931637
0.00906051
0.00876764
0.00856995
0.00833325
0.00818073
0.00798854
0.00787154
0.00771503
0.0076262
0.00749852
0.00743202
0.00732768
0.00727879
0.00719326
0.00715794
0.00708737
0.00706213
0.00700311
0.00698475
0.00693419
0.0069197
0.0068747
0.00686116
0.00681886
0.00680333
0.00676089
0.00674034
0.00669481
0.00666601
0.00661429
0.00657376
0.00651248
0.00645639
0.00638189
0.0191814
0.0182009
0.0174757
0.0167089
0.0161549
0.0155462
0.0151195
0.014631
0.0143013
0.0139065
0.0136521
0.0133315
0.0131364
0.0128753
0.0127272
0.0125142
0.0124033
0.0122292
0.0121476
0.0120049
0.011946
0.0118282
0.0117861
0.0116876
0.0116569
0.0115725
0.0115483
0.0114731
0.0114505
0.0113799
0.0113539
0.011283
0.0112486
0.0111725
0.0111244
0.011038
0.0109702
0.0108678
0.010774
0.0106495
0.0268168
0.0254469
0.0244336
0.0233623
0.0225883
0.0217378
0.0211417
0.0204593
0.0199988
0.0194473
0.019092
0.0186442
0.0183718
0.0180072
0.0178003
0.0175029
0.0173481
0.0171051
0.0169913
0.0167921
0.01671
0.0165456
0.0164869
0.0163495
0.0163068
0.0161891
0.0161554
0.0160505
0.016019
0.0159204
0.0158842
0.0157853
0.0157373
0.015631
0.0155637
0.0154429
0.0153482
0.015205
0.0150738
0.0148995
0.0344526
0.0326928
0.031391
0.0300147
0.0290204
0.0279277
0.0271618
0.0262851
0.0256934
0.0249848
0.0245283
0.023953
0.0236029
0.0231344
0.0228686
0.0224864
0.0222875
0.0219752
0.021829
0.0215729
0.0214674
0.0212561
0.0211806
0.0210039
0.020949
0.0207976
0.0207543
0.0206195
0.020579
0.0204522
0.0204056
0.0202784
0.0202167
0.0200801
0.0199936
0.0198383
0.0197165
0.0195324
0.0193638
0.0191398
0.0420224
0.0398765
0.0382891
0.0366109
0.0353984
0.0340661
0.0331323
0.0320633
0.0313419
0.030478
0.0299214
0.02922
0.0287932
0.0282221
0.0278982
0.0274323
0.0271899
0.0268092
0.0266311
0.026319
0.0261904
0.025933
0.0258411
0.0256258
0.025559
0.0253746
0.0253218
0.0251576
0.0251083
0.0249538
0.0248971
0.024742
0.0246669
0.0245003
0.0243949
0.0242055
0.0240569
0.0238324
0.0236267
0.0233534
0.0495763
0.0470446
0.0451718
0.043192
0.0417615
0.0401896
0.0390878
0.0378266
0.0369754
0.0359561
0.0352994
0.0344718
0.0339682
0.0332943
0.032912
0.0323622
0.0320763
0.031627
0.0314168
0.0310485
0.0308968
0.0305929
0.0304844
0.0302303
0.0301514
0.0299337
0.0298714
0.0296775
0.0296193
0.029437
0.02937
0.029187
0.0290982
0.0289017
0.0287772
0.0285537
0.0283784
0.0281134
0.0278707
0.0275482
0.057048
0.0541352
0.0519806
0.0497027
0.0480569
0.0462484
0.0449809
0.0435299
0.0425507
0.0413781
0.0406227
0.0396706
0.0390913
0.0383161
0.0378764
0.0372441
0.0369151
0.0363984
0.0361567
0.0357332
0.0355587
0.0352092
0.0350846
0.0347924
0.0347017
0.0344514
0.0343798
0.0341569
0.03409
0.0338803
0.0338034
0.0335929
0.0334908
0.0332647
0.0331215
0.0328644
0.0326627
0.0323578
0.0320785
0.0317074
0.0644877
0.061195
0.0587592
0.0561842
0.0543237
0.0522793
0.0508463
0.049206
0.048099
0.0467733
0.0459193
0.044843
0.044188
0.0433116
0.0428145
0.0420995
0.0417276
0.0411433
0.04087
0.0403911
0.0401938
0.0397986
0.0396577
0.0393272
0.0392247
0.0389416
0.0388606
0.0386085
0.0385328
0.0382957
0.0382087
0.0379706
0.0378552
0.0375995
0.0374376
0.0371469
0.0369188
0.0365741
0.0362584
0.0358387
0.0718292
0.068162
0.0654493
0.0625815
0.0605094
0.0582326
0.0566368
0.05481
0.0535771
0.0521009
0.0511498
0.0499512
0.0492219
0.0482459
0.0476924
0.0468963
0.0464822
0.0458317
0.0455274
0.0449942
0.0447746
0.0443346
0.0441777
0.0438099
0.0436958
0.0433806
0.0432906
0.04301
0.0429257
0.0426618
0.0425649
0.0422998
0.0421714
0.0418867
0.0417064
0.0413826
0.0411286
0.0407447
0.040393
0.0399256
0.0791229
0.0750832
0.0720949
0.0689358
0.0666532
0.0641451
0.0623871
0.0603747
0.0590165
0.0573902
0.0563425
0.055022
0.0542186
0.0531433
0.0525335
0.0516564
0.0512002
0.0504834
0.0501481
0.0495607
0.0493187
0.0488339
0.048661
0.0482556
0.0481299
0.0477826
0.0476834
0.0473741
0.0472812
0.0469904
0.0468837
0.0465916
0.04645
0.0461364
0.0459377
0.045581
0.0453012
0.0448782
0.0444908
0.0439758
0.0863026
0.0818968
0.0786376
0.0751921
0.0727027
0.0699673
0.06805
0.0658553
0.0643741
0.0626005
0.0614579
0.0600178
0.0591416
0.0579691
0.0573041
0.0563476
0.0558501
0.0550686
0.054703
0.0540625
0.0537986
0.0532701
0.0530816
0.0526397
0.0525026
0.052124
0.0520159
0.0516787
0.0515775
0.0512605
0.0511441
0.0508257
0.0506713
0.0503293
0.0501127
0.0497236
0.0494184
0.0489571
0.0485345
0.0479729
0.0934192
0.0886498
0.0851218
0.0813921
0.0786972
0.0757361
0.0736606
0.0712848
0.0696813
0.0677613
0.0665243
0.0649654
0.0640168
0.0627474
0.0620275
0.060992
0.0604534
0.0596072
0.0592115
0.0585179
0.0582322
0.05766
0.0574559
0.0569774
0.056829
0.056419
0.0563019
0.0559368
0.0558272
0.0554839
0.0553579
0.0550131
0.0548459
0.0544757
0.0542411
0.0538199
0.0534896
0.0529901
0.0525327
0.0519247
0.100406
0.0952807
0.0914891
0.0874807
0.0845846
0.0814022
0.0791717
0.0766185
0.0748952
0.0728319
0.0715026
0.0698273
0.068808
0.0674438
0.0666702
0.0655575
0.0649788
0.0640696
0.0636443
0.0628991
0.0625922
0.0619773
0.0617581
0.061244
0.0610846
0.0606442
0.0605183
0.0601262
0.0600084
0.0596396
0.0595043
0.0591338
0.0589542
0.0585564
0.0583043
0.0578517
0.0574967
0.0569599
0.0564682
0.0558147
0.107315
0.101837
0.0977842
0.0934998
0.0904042
0.0870027
0.0846186
0.0818895
0.0800476
0.077842
0.0764212
0.0746304
0.0735408
0.0720827
0.0712557
0.0700663
0.0694477
0.0684757
0.0680211
0.0672244
0.0668963
0.066239
0.0660046
0.065455
0.0652846
0.0648137
0.0646792
0.0642599
0.064134
0.0637397
0.063595
0.063199
0.063007
0.0625817
0.0623123
0.0618285
0.061449
0.0608752
0.0603497
0.0596512
0.11408
0.108257
0.103949
0.0993946
0.0961041
0.0924885
0.0899543
0.0870534
0.0850955
0.0827512
0.081241
0.0793376
0.0781795
0.0766296
0.0757507
0.0744865
0.073829
0.072796
0.0723128
0.0714662
0.0711175
0.070419
0.07017
0.0695859
0.0694048
0.0689045
0.0687615
0.068316
0.0681823
0.0677633
0.0676095
0.0671887
0.0669847
0.0665327
0.0662464
0.0657321
0.0653287
0.0647188
0.0641602
0.0634177
0.120752
0.114588
0.110028
0.105207
0.101724
0.0978967
0.0952142
0.0921434
0.090071
0.0875894
0.0859907
0.0839758
0.0827498
0.0811092
0.0801787
0.0788404
0.0781444
0.0770508
0.0765393
0.075643
0.0752738
0.0745343
0.0742706
0.0736522
0.0734605
0.0729308
0.0727795
0.0723077
0.0721662
0.0717226
0.0715598
0.0711143
0.0708983
0.0704198
0.0701167
0.0695723
0.0691453
0.0684997
0.0679084
0.0671224
0.127265
0.120769
0.115963
0.110883
0.107212
0.103179
0.100352
0.0971154
0.0949313
0.0923161
0.0906313
0.088508
0.0872161
0.0854871
0.0845066
0.0830963
0.0823629
0.0812106
0.0806716
0.0797271
0.0793382
0.078559
0.0782812
0.0776296
0.0774276
0.0768695
0.0767102
0.0762132
0.0760641
0.0755967
0.0754253
0.0749559
0.0747284
0.0742242
0.0739048
0.0733311
0.0728811
0.0722007
0.0715775
0.0707492
0.133671
0.126848
0.1218
0.116464
0.112608
0.108371
0.105402
0.102003
0.0997085
0.0969615
0.0951918
0.0929614
0.0916043
0.0897882
0.0887583
0.0872768
0.0865063
0.0852958
0.0847296
0.0837374
0.0833288
0.0825102
0.0822184
0.0815339
0.0813217
0.0807354
0.0805679
0.0800458
0.0798891
0.0793982
0.0792181
0.078725
0.078486
0.0779564
0.0776209
0.0770184
0.0765457
0.075831
0.0751764
0.0743064
0.139905
0.132764
0.127481
0.121896
0.117861
0.113427
0.110319
0.106761
0.10436
0.101485
0.0996334
0.0972992
0.095879
0.0939784
0.0929005
0.0913502
0.0905439
0.0892772
0.0886847
0.0876464
0.0872189
0.0863623
0.0860569
0.0853408
0.0851187
0.0845053
0.0843301
0.0837839
0.08362
0.0831064
0.0829179
0.082402
0.082152
0.0815978
0.0812468
0.0806163
0.0801216
0.0793737
0.0786886
0.0777779
0.146018
0.138565
0.133051
0.127221
0.12301
0.118382
0.115138
0.111425
0.108919
0.105918
0.103985
0.101549
0.100066
0.0980826
0.0969575
0.0953392
0.0944977
0.0931754
0.0925569
0.0914731
0.0910268
0.0901326
0.0898138
0.0890662
0.0888344
0.088194
0.0880112
0.087441
0.0872699
0.0867337
0.086537
0.0859986
0.0857376
0.0851592
0.0847928
0.0841348
0.0836185
0.0828379
0.0821229
0.0811724
0.151946
0.14419
0.138452
0.132387
0.128004
0.123189
0.119814
0.11595
0.113342
0.11022
0.108209
0.105674
0.104131
0.102067
0.100896
0.0992127
0.098337
0.0969612
0.0963178
0.0951902
0.0947259
0.0937956
0.093464
0.0926862
0.0924451
0.0917789
0.0915887
0.0909956
0.0908176
0.0902599
0.0900553
0.0894952
0.0892237
0.0886221
0.0882409
0.0875563
0.0870192
0.086207
0.085463
0.0844739
0.15774
0.149688
0.143732
0.137434
0.132885
0.127885
0.124381
0.12037
0.117663
0.114421
0.112333
0.109701
0.1081
0.105957
0.104741
0.102993
0.102084
0.100656
0.0999876
0.0988169
0.0983348
0.0973689
0.0970245
0.0962169
0.0959665
0.0952748
0.0950773
0.0944614
0.0942767
0.0936976
0.0934853
0.0929037
0.092622
0.0919973
0.0916017
0.0908911
0.0903335
0.0894904
0.0887181
0.0876913
0.163336
0.154998
0.148831
0.142311
0.1376
0.132423
0.128795
0.124642
0.121839
0.118483
0.11632
0.113595
0.111937
0.109718
0.10846
0.10665
0.105709
0.10423
0.103538