/*--------------------------------*- C++ -*----------------------------------*\
| =========                 |                                                 |
| \\      /  F ield         | foam-extend: Open Source CFD                    |
|  \\    /   O peration     | Version:  3.0                                   |
|   \\  /    A nd           | Web:         http://www.extend-project.de       |
|    \\/     M anipulation  |                                                 |
\*---------------------------------------------------------------------------*/
FoamFile
{
    version     2.0;
    format      ascii;
    class       volScalarField;
    location    "1";
    object      Theta;
}
// * * * * * * * * * * * * * * * * * * * * * * * * * * * * * * * * * * * * * //

dimensions      [0 2 -2 0 0 0 0];

internalField   nonuniform List<scalar> 
3012
(
1.06932
1.06889
1.06475
1.07294
1.27568
1.26612
1.28143
1.2886
0.966188
0.971517
0.996883
0.966154
0.904255
0.906843
0.905507
0.904717
0.650071
0.707705
0.655685
0.656624
0.972204
0.997912
0.990095
0.970638
1.19289
1.18995
1.19703
1.20085
1.03032
1.03011
1.04
1.0327
0.955797
0.945531
0.946918
0.94942
0.875739
0.891332
0.892881
0.882847
1.01714
1.02056
1.02274
1.02117
1.04947
1.0419
1.0408
1.03996
0.962484
0.958053
0.957571
0.964014
1.2486
1.23959
1.25275
1.24253
0.324424
0.374082
0.319273
0.337212
1.61899
1.6869
1.62422
1.625
1.02597
1.03131
1.03269
1.03546
0.959949
0.955715
0.952869
0.962196
0.958212
0.963994
0.965477
0.958183
0.988507
0.986217
0.991425
0.995401
0.963823
0.973649
0.964647
0.964447
0.989821
0.989421
0.988273
0.993352
1.01629
1.00845
1.00776
1.00982
0.907792
0.901403
0.928627
0.902206
0.839721
0.811857
0.813146
0.823127
1.05314
1.04998
1.04609
1.05764
1.0489
1.05875
1.05419
1.0505
0.980625
0.968545
0.986752
0.969102
1.02914
1.0299
1.02888
1.03706
0.998762
1.0092
0.921964
1.02435
0.919164
0.917195
0.899468
1.04843
0.74079
0.733556
0.736118
0.746336
0.857244
0.877532
0.84844
0.846468
1.33392
1.33079
1.34783
1.335
1.24031
1.23778
1.34896
1.22785
1.40917
1.40667
1.42262
1.40936
0.810435
0.929005
0.79659
0.819119
0.915332
0.956197
0.909006
0.925383
1.02213
1.00806
1.01381
1.01295
1.00009
0.998428
0.998527
1.00746
1.01263
1.02276
1.00931
1.00929
0.52383
0.522818
0.525835
0.519272
0.964857
0.954344
0.955333
0.957658
1.2062
1.21466
1.20569
1.28786
1.2347
1.24921
1.33155
1.24681
0.75261
0.778341
0.763237
0.773748
1.04103
1.06092
1.03959
1.04713
0.935381
0.941302
0.936912
0.952483
0.948119
0.953761
0.939043
0.939567
0.980873
0.977772
0.978127
0.9897
0.862182
0.868877
0.864056
0.869285
1.09218
1.09013
1.10017
1.09979
0.900837
0.900597
0.910834
0.885622
0.864683
0.869491
0.880634
0.866757
0.960428
0.959037
0.956043
0.965584
0.893894
0.879901
0.875702
0.877887
0.86943
0.865037
0.869619
0.866184
0.949692
0.961866
0.95297
0.961461
0.961606
0.955787
0.960441
0.96575
0.959608
0.962405
0.972455
0.958771
0.990238
1.00898
1.00129
0.989184
1.00146
1.00747
1.00228
1.01713
1.03948
1.05837
1.03579
1.04433
1.08202
1.08121
1.08655
1.10363
1.18518
1.17772
1.22126
1.17792
0.945014
0.940065
0.943237
0.94025
0.949437
0.95058
0.94768
0.955125
0.947246
0.946699
0.965461
0.952766
1.05905
1.06047
1.06748
1.06667
0.965855
0.970854
0.965758
0.966412
0.891404
0.893685
0.893936
0.896998
0.887796
0.883764
0.878283
0.885495
0.780098
0.780002
0.763616
0.78271
1.00974
1.00974
1.00865
1.02135
1.08383
1.0772
1.07515
1.07522
0.974273
0.972553
0.993353
0.982323
0.986462
0.985462
0.984591
0.993774
0.376193
0.376298
0.371211
0.379
0.789068
0.783483
0.810316
0.783684
1.02271
1.01632
1.0161
1.03202
0.913539
0.917859
0.919302
0.915243
1.00161
1.01893
1.00399
1.00962
1.3341
1.28869
1.29056
1.29135
0.963078
0.957324
0.95987
0.965218
0.960561
0.960195
0.962482
0.967073
0.914895
0.912646
0.916387
0.920236
1.05776
1.05123
1.04998
1.05463
1.04278
1.04989
1.04811
1.05452
0.943943
0.941957
0.955989
0.926626
0.949842
0.944458
0.947412
0.946779
1.02449
1.0168
1.01857
1.01586
1.01466
1.01895
1.02298
1.017
0.979085
0.983964
0.996412
0.979698
1.00735
1.01134
1.00849
1.02582
0.995278
0.99042
1.00417
0.987402
0.998267
0.982793
0.983692
0.989544
0.982162
0.976816
0.974531
0.97683
1.12782
1.15359
1.12431
1.13403
0.983674
1.00554
0.980679
0.988969
0.992466
0.976848
0.975892
0.983366
0.987151
0.984332
1.00052
0.99073
0.981845
0.982301
0.98586
0.981222
1.11999
1.11352
1.12086
1.14951
1.0071
1.01708
1.0031
1.00903
0.531134
0.529825
0.521801
0.533042
1.01042
1.00028
1.00637
1.00001
0.993591
0.950344
0.925202
0.921982
0.998049
0.947378
0.952952
0.946588
1.01035
0.996425
0.998776
1.00447
0.895896
0.877269
0.883341
0.87599
1.03705
1.01584
1.02257
1.01816
0.964047
0.952688
0.953439
0.956383
1.13202
1.11035
1.14849
1.12509
0.94843
0.945087
0.95385
0.955446
0.30218
0.103316
0.073187
0.106066
1.1283
1.12294
1.11947
1.14263
0.867732
0.869829
0.870571
0.867854
1.04723
1.01058
1.00236
1.01155
1.1081
1.11493
1.13416
1.10647
0.955785
0.970639
0.955412
0.963906
1.1465
1.12857
1.12669
1.13288
1.01113
1.01911
1.01685
1.0164
1.46529
1.38759
1.35809
1.38955
0.892713
0.885603
0.886772
0.896588
0.887191
0.90107
0.886476
0.896667
0.918911
0.908453
0.909986
0.906854
1.05936
1.05446
1.04906
1.05306
0.810402
0.778501
0.802296
0.819334
1.0054
1.01234
1.00759
1.02235
1.06413
1.08034
1.06649
1.06416
1.00778
1.01061
1.01797
1.00532
0.990097
0.995628
1.00244
0.989564
0.924491
0.92645
0.919887
0.921984
1.08572
1.09039
1.08379
1.09494
0.980743
0.984887
0.980367
0.992905
1.04354
1.05102
1.04434
1.04393
1.12809
1.12134
1.12322
1.11938
1.02655
1.01678
1.01857
1.02244
1.06271
1.06778
1.07927
1.06256
0.978405
0.98077
0.992158
0.985721
1.06048
1.06315
1.07826
1.06814
0.945161
0.938365
0.938068
0.939248
0.968332
0.96132
0.966487
0.960992
1.04435
1.04536
1.05912
1.04515
0.907274
0.908384
0.912209
0.911232
0.962789
0.952962
0.956833
0.961691
0.257587
0.268439
0.190815
0.26294
1.01926
1.01444
1.01506
1.01427
0.933671
0.936008
0.931987
0.946824
1.21062
1.17671
1.17618
1.18186
1.4304
1.46905
1.40217
1.43378
1.36417
1.33963
1.35844
1.35307
1.05311
1.05483
1.05248
1.06943
1.03594
1.02795
1.02595
1.02362
0.822292
0.821275
0.832848
0.822966
1.01534
1.00331
1.02465
1.01305
0.928965
0.922277
0.920186
0.925613
0.801327
0.809446
0.806926
0.823504
1.01183
1.01078
1.00682
1.01755
0.937064
0.932573
0.932888
0.932051
0.919245
0.928603
0.92125
0.920929
1.18507
1.19407
1.22829
1.18576
1.17802
1.17806
1.19845
1.17655
1.15994
1.20286
1.15673
1.17553
1.18579
1.02653
1.01091
1.02907
0.816119
0.830331
0.821165
0.812983
1.40426
1.36287
1.36832
1.36034
0.74496
0.746695
0.747758
0.751984
0.909213
0.905228
0.910719
0.906655
0.989026
0.98405
0.982839
0.985104
-0.245013
-0.285518
-0.23042
-0.218523
1.00165
1.00176
1.01377
1.00384
1.10861
1.10996
1.10298
1.11326
0.946712
0.94138
0.951259
0.950892
0.975109
0.96922
0.980814
0.966631
0.954243
0.96308
0.951652
0.954093
-0.0486483
-0.0982785
-0.0499468
-0.0297973
1.04719
1.0449
1.04557
1.05138
0.973668
0.972134
0.978186
0.980001
0.965111
0.966429
1.01128
0.953795
1.0349
1.05138
1.04707
1.04504
1.03053
1.03799
1.02708
1.04595
0.959001
0.969656
0.960406
0.977981
1.16096
1.1608
1.15152
1.15307
0.892286
0.885609
0.888485
0.883501
1.33249
1.31462
1.32636
1.3365
0.911114
0.88181
0.889251
0.883403
1.22658
1.24466
1.23105
1.25445
0.874895
0.882058
0.879163
0.880128
1.35103
1.31811
1.3188
1.31539
1.00231
1.00161
1.00672
1.01244
0.841454
0.835346
0.834223
0.846591
1.23306
1.1878
1.19353
1.1876
0.855971
0.855726
0.86951
0.861851
1.12409
1.10131
1.10491
1.10223
1.00533
0.999311
1.00236
1.01213
1.04226
1.04682
1.03818
1.03639
0.9613
0.95854
0.963406
0.970525
1.12334
1.1264
1.14435
1.1286
0.991536
0.990333
0.984865
0.984663
1.00633
1.10659
1.00663
0.874793
1.12438
1.11912
1.14361
1.12
0.881577
0.897952
0.886666
0.881353
1.02845
1.02037
1.02031
1.02206
1.0132
1.01429
1.01378
1.02267
0.984765
0.987837
0.980458
0.987223
0.956147
0.96194
0.956544
0.978389
0.989168
0.991163
0.9996
1.00492
1.0131
1.01954
0.977726
1.01357
1.03767
1.04516
1.08917
1.04838
1.00568
0.993
1.00096
0.994736
0.669204
0.628933
0.619675
0.615363
0.964453
0.997641
0.965166
0.970971
0.978503
0.976398
1.00908
0.985636
1.88275
1.89807
1.88082
1.88835
1.63203
1.74791
1.62455
1.63419
0.813536
0.778187
0.783786
0.762088
1.17439
1.17521
1.17247
1.19118
0.894798
0.899432
0.894074
0.898271
0.896181
0.898584
0.89732
0.894776
0.554426
0.562816
0.565587
0.572582
0.998524
0.990476
1.00667
0.986795
0.982683
0.996047
0.983465
0.989087
1.72433
1.71232
1.74328
1.7175
1.11562
1.1348
1.12063
1.12295
0.976725
0.959802
0.965681
0.958553
1.12267
1.12028
1.14128
1.12497
0.986936
0.980807
0.97821
0.994461
1.00068
0.992705
0.986231
0.986506
0.970098
0.981803
0.954106
0.962357
1.00522
1.01597
1.00611
1.01147
1.02305
1.02857
1.02445
1.02452
0.989816
0.989232
0.993381
0.983506
0.908544
0.892315
0.891052
0.89907
0.969657
0.979872
0.96989
0.974965
1.03917
1.04803
1.03973
1.03668
0.88782
0.904126
0.894916
0.888514
0.923116
0.92146
0.919649
0.917745
1.00193
1.01313
0.998091
1.00787
1.11347
1.11468
1.13374
1.113
0.90427
0.897576
0.897486
0.91243
0.998418
0.990311
0.986785
0.986326
0.907808
0.923163
0.907728
0.914366
0.979902
0.978056
0.986201
0.983951
1.10667
1.10118
1.12507
1.10209
1.12305
1.14234
1.1196
1.12624
0.969071
0.97815
0.966734
0.973511
1.01599
1.02324
1.02561
1.0214
0.986296
0.982669
0.981024
0.977297
0.984032
0.982174
0.98148
0.992349
1.40211
1.38983
1.46442
1.39304
0.679138
0.711139
0.676148
0.664039
0.990435
0.988553
0.989663
0.998898
0.947235
0.946977
0.951196
0.94363
0.977732
0.98631
0.982496
0.976182
1.03346
1.03021
1.02952
1.03882
0.694639
0.705856
0.713394
0.693711
0.479469
0.482642
0.480358
0.488113
0.894304
0.89099
0.896263
0.890342
0.958926
0.972807
0.95633
0.971924
0.993598
0.971043
0.985712
0.970859
0.966372
0.973379
0.963884
0.973462
0.926764
0.920513
0.920946
0.919957
0.991353
0.996494
1.00135
0.993873
1.37086
1.30706
1.29466
1.30845
0.972245
0.976993
0.971177
0.97694
1.01578
1.00889
1.02495
1.00911
1.07244
1.07125
1.07938
1.08438
1.05169
1.04344
1.04501
1.06637
0.995347
0.993995
0.999657
0.993015
0.978476
0.978374
0.974934
0.98103
1.0764
1.0838
1.06611
1.07286
1.06204
1.0758
1.06192
1.06219
0.987208
0.984534
0.991554
0.9873
0.957162
0.959451
0.960467
0.959087
0.981573
0.979065
0.978788
0.97916
0.98801
0.997986
0.981866
0.983164
0.845356
0.873375
0.853534
0.847198
0.956999
0.965978
0.95877
0.9732
0.998196
0.999121
1.00031
1.0031
1.00896
1.00357
1.00099
1.00019
1.15691
1.15554
1.19485
1.15787
0.981061
0.988749
0.982211
0.997082
1.02709
1.03626
1.02071
1.02046
1.02449
1.03554
1.04333
1.01125
1.0499
1.0521
1.05023
1.06208
0.317979
0.343196
0.36152
0.326072
1.03957
1.04347
1.04819
1.04031
0.844706
0.849716
0.845669
0.85292
0.989036
0.98625
0.982527
0.984506
0.849932
0.856274
0.845879
0.843843
0.979395
0.975388
0.973846
0.975534
0.825373
0.820929
0.815991
0.823462
0.825919
0.835774
0.823407
0.828025
0.913032
0.912461
0.907189
0.909957
1.022
1.00602
1.00938
1.00969
0.732319
0.753319
0.717131
0.728514
0.91798
0.912896
0.913448
0.916278
1.1906
1.23182
1.19311
1.18907
0.977367
0.97565
0.971894
0.978988
0.968679
0.96504
0.966004
0.963048
0.919237
0.912269
0.91188
0.918138
0.969485
0.970248
0.980518
0.95816
0.952494
0.952237
0.957058
0.95131
1.11967
1.11416
1.11727
1.11055
0.997413
0.998693
0.998498
1.01019
0.969127
0.965702
0.971882
0.96844
1.11611
1.11416
1.11113
1.12645
0.970997
0.984469
0.971586
0.977067
1.04789
1.072
1.04723
1.05403
1.21253
1.17211
1.17084
1.17613
0.917846
0.913831
0.912049
0.908193
0.909655
0.912396
0.911878
0.908171
1.03832
1.09476
1.03691
1.02388
0.544019
0.553569
0.539505
0.54556
1.08635
1.08679
1.0877
1.10286
0.968198
0.984986
0.966266
0.976523
0.968041
0.973438
0.967561
0.965631
0.925995
0.930552
0.924123
0.920219
0.985785
1.00164
0.985542
0.993642
1.0575
1.04024
1.04908
1.03843
0.87872
0.84212
0.828101
0.839392
0.836703
0.852092
0.832513
0.842804
0.942752
0.966301
0.94271
0.947776
0.940258
0.946289
0.938968
0.942722
0.936072
0.923663
0.922199
0.923821
0.977383
0.991685
0.972818
0.973683
1.00129
1.00473
1.00989
1.0047
1.03622
1.02815
1.03004
1.04485
0.942379
0.937085
0.935237
0.942728
0.922847
0.918552
0.93594
0.919477
0.94896
0.957513
0.952305
0.951722
0.988533
0.983733
0.980973
0.982199
0.877425
0.875596
0.871586
0.871418
1.04879
1.0307
1.02823
1.03612
0.937757
0.931129
0.9339
0.940923
1.00058
1.00182
1.00463
1.01045
0.93324
0.93894
0.935034
0.939941
0.94988
0.953289
0.959076
0.951404
0.986313
0.994651
0.984502
0.985398
0.804835
0.802067
0.802011
0.799701
0.874872
0.881743
0.873524
0.875796
0.805311
0.806975
0.799401
0.802094
0.929779
0.918664
0.917382
0.92276
0.999704
1.00161
1.00868
0.997091
1.4444
1.4135
1.4132
1.39662
0.938759
0.941752
0.937124
0.943086
1.25791
1.25444
1.24129
1.2569
1.23788
1.2496
1.25271
1.25184
1.03146
1.0261
1.04917
1.02646
0.943048
0.946194
0.940151
0.942081
0.977205
0.984293
0.977982
0.979823
0.939521
0.939512
0.942915
0.948692
0.938315
0.933308
0.930315
0.936461
0.934789
0.929347
0.93409
0.931271
0.972547
0.975851
0.982242
1.02491
0.906821
0.904433
0.911959
0.904284
1.06147
1.07675
1.06253
1.06828
1.45636
1.43744
1.42792
1.4517
1.022
1.00087
0.995908
0.993497
0.722072
0.674664
0.682843
0.663107
3.4685
2.48285
2.48289
2.49049
1.0455
1.05567
1.04949
1.04827
1.11543
1.13398
1.11828
1.13662
0.83553
0.852122
0.841957
0.835228
0.96551
0.962412
0.961599
0.970124
1.05254
1.04268
1.04038
1.04581
0.820261
0.819788
0.81008
0.808641
1.13749
1.12368
1.13482
1.13976
0.821848
0.813781
0.817958
0.816884
1.15878
1.12827
1.12644
1.13139
0.981388
0.989759
0.986711
0.985084
1.01629
1.02892
1.02002
1.01291
1.02393
1.01845
1.03404
1.01932
1.00074
0.980284
0.998244
0.975225
0.95322
0.943629
0.943241
0.940593
0.962362
0.974727
0.961792
0.958109
0.966235
0.966687
0.965641
0.961716
0.943282
0.95707
0.9477
0.941176
0.769617
0.77188
0.778139
0.767816
0.973517
0.98124
0.976012
0.974397
0.957604
0.965133
0.96881
0.961879
1.00004
1.01463
1.00547
0.977326
0.862827
0.83923
0.84827
0.841429
0.989438
0.997513
0.983025
0.982407
0.928237
0.927359
0.934078
0.938524
0.938465
0.925114
0.932932
0.926132
0.985625
1.00188
0.996787
0.989802
0.959922
0.959983
1.02414
0.955918
0.954493
0.950814
0.948374
0.954624
0.362799
0.479952
0.413787
0.412973
0.957098
0.961508
0.958977
0.955278
0.966161
0.964125
0.959552
0.956743
0.953434
0.961705
0.961482
0.950557
0.837124
0.84827
0.837422
0.844251
0.900158
0.888046
0.900837
0.886629
0.901716
0.894664
0.903432
0.897669
1.01225
0.995097
1.00471
0.995178
0.838252
0.84667
0.838379
0.844002
0.956442
0.96056
0.958861
0.959122
2.57678
2.46143
2.60508
2.47522
1.02992
1.03912
1.03218
1.02722
0.968939
0.982974
0.97251
0.965181
0.986616
0.968674
0.969539
0.977753
0.869805
0.872756
0.877419
0.871895
1.04659
1.03842
1.02249
1.02538
0.873071
0.872488
0.871181
0.869805
0.998442
1.00257
1.01328
0.997071
0.964611
0.964677
0.978758
0.970865
1.01002
1.01902
1.02966
1.01254
1.10053
1.10589
1.09832
1.0991
0.359642
0.478669
0.507134
0.471186
2.5854
2.58052
2.62351
2.57284
0.951444
0.949204
0.956462
0.946858
1.08686
1.09102
1.10479
1.09033
1.00884
1.00269
1.02439
1.00326
2.55777
2.57296
2.57495
2.56719
0.976766
0.980558
0.977566
0.993199
1.0808
1.08762
1.10738
1.08863
0.996876
0.993933
0.99338
0.999771
0.990499
0.984996
0.989898
0.992311
0.915541
0.909268
0.905274
0.90941
1.0676
1.04958
1.04668
1.05373
0.963988
0.963995
0.97342
0.967485
1.02304
1.01615
1.03866
1.01648
0.989652
0.991091
0.989368
0.994847
1.01813
1.02118
1.04285
1.02027
0.954335
0.973543
0.955239
0.960688
0.924845
0.934683
0.928165
0.924088
1.01017
0.999787
1.00345
1.00523
1.00119
0.996557
0.992106
1.00111
1.00179
1.00068
1.00869
1.00332
0.987546
0.993161
0.992666
0.982538
1.1173
1.11329
1.14095
1.11345
0.959719
0.967399
0.966427
0.960433
0.956946
0.967446
0.963414
0.954561
1.05132
1.05774
1.0469
1.05558
1.06963
1.09618
1.07067
1.07521
1.03926
1.0411
1.03369
1.03304
0.910778
0.931235
0.918462
0.910007
1.08038
1.05529
1.0604
1.05689
1.12619
1.13558
1.12831
1.12423
0.990913
0.984645
0.9824
0.9883
0.940762
0.966012
0.944175
0.937984
0.984374
0.978053
0.981436
0.974153
0.987971
0.990308
0.988987
0.990077
1.01333
1.02121
1.01242
1.02133
1.02157
1.0597
1.02289
1.03026
1.01435
1.02444
1.01531
1.01401
0.92448
0.918457
0.920495
0.918175
1.33005
1.33066
1.37875
1.32274
0.902379
0.897029
0.90269
0.894548
1.05834
1.05864
1.06359
1.06644
0.982789
0.980652
0.981419
0.985924
0.911547
0.884528
0.867029
0.873353
0.969121
0.9662
0.963946
0.971096
0.963196
0.965003
0.969126
0.968932
0.932781
0.928353
0.928269
0.93215
0.923687
0.922174
0.924776
0.927783
0.886576
0.885188
0.885978
0.894827
0.981117
0.980546
0.985391
0.990379
0.914545
0.916849
0.916072
0.930704
0.987886
0.984692
0.982613
0.980175
0.877636
0.8731
0.870316
0.874919
0.920733
0.909726
0.90943
0.913123
2.62242
2.53189
2.58799
2.56283
1.01469
1.01
1.0061
1.01554
0.894636
1.09869
0.895291
1.10692
1.01513
0.98306
1.11792
1.12051
1.01412
1.00415
1.00159
1.01293
0.977035
0.974061
0.982256
1.01096
1.01536
0.988755
0.989141
1.00644
0.926908
0.932089
0.932069
0.930706
0.876124
0.881702
0.875799
0.874585
0.967456
0.976946
0.95851
0.970935
0.975057
0.990896
0.982289
0.97659
0.96193
0.971411
0.977982
0.968796
0.944921
0.973537
0.956027
0.948514
0.976145
0.982854
0.974986
0.989223
1.10025
1.09376
1.09271
1.14085
0.843844
0.869347
0.833432
0.840273
1.1426
1.10672
1.11251
1.11226
0.933259
0.924639
0.924579
0.924527
0.927318
0.92492
0.931941
0.930504
0.98938
0.98982
0.991792
0.994257
1.04427
1.0402
1.04457
1.03754
1.01495
1.04537
1.01793
1.01399
1.13972
1.14681
1.1368
1.15031
1.37997
1.37597
1.3879
1.38578
2.57999
2.56028
2.59082
2.57465
0.891292
0.878476
0.880967
0.876737
0.976969
0.976776
0.968103
0.967293
1.00388
0.978347
0.998544
0.981439
1.05282
1.05557
1.0492
1.04823
1.05602
1.05113
1.05048
1.04706
1.00271
0.979841
0.980652
0.996694
0.983517
1.00038
1.00808
0.984906
1.04415
1.03321
1.03756
1.03343
0.96423
0.969741
0.963822
0.978376
0.950757
0.962694
0.951251
0.95486
0.995571
0.998844
1.00641
1.01336
1.0061
0.995114
0.998533
0.99646
0.888752
0.894558
0.9017
0.886512
0.888925
0.896613
0.893532
0.887055
1.01198
0.999251
1.00601
1.00096
1.19554
1.1775
1.17604
1.1774
1.1087
1.1316
1.11092
1.10816
0.921637
0.939548
0.923715
0.92088
0.971192
0.97917
0.972868
0.974686
0.950165
0.956672
0.954015
0.953401
0.959504
0.955036
0.956419
0.95467
0.969373
0.963492
0.962953
0.980676
1.20892
1.18151
1.18688
1.18908
0.984744
0.986415
0.993381
1.00292
0.783519
0.780648
0.784776
0.8
1.20871
1.21398
1.20776
1.22409
1.11446
1.09974
1.09523
1.09985
0.926003
0.928493
0.930525
0.940751
-0.391058
-0.361277
-0.380961
-0.431339
1.93699
2.04666
1.94001
1.93261
1.05002
1.04947
1.05583
1.06938
0.937374
0.941654
0.939682
0.94737
0.983818
0.984804
0.987432
0.991456
0.931665
0.91472
0.929868
0.947212
0.81531
0.807701
0.84927
0.808569
0.864301
0.876687
0.867762
0.862955
0.986789
0.981555
0.990368
0.985723
0.984336
0.985102
1.00163
0.991508
0.691477
0.691825
0.684755
0.710947
0.961286
0.994937
0.959263
0.986112
0.898198
0.899755
0.910464
0.904641
0.911966
0.898883
0.89816
0.90392
0.986104
0.993647
0.971246
1.00353
0.982208
0.969717
0.973893
0.97039
0.972783
0.977122
1.00369
0.976664
1.04468
1.04629
1.04556
1.03563
1.14165
1.12095
1.12847
1.12203
1.00696
1.0045
0.999914
0.996345
1.00403
1.01139
1.01011
1.0162
0.996499
1.00384
1.03492
0.996341
0.993327
0.933406
1.00657
1.00033
0.96618
0.959288
0.962223
0.957644
0.964719
0.969647
0.994172
0.967361
1.31529
1.27484
1.29183
1.2764
1.2686
1.21428
1.21255
1.22289
0.898558
0.905582
0.900113
0.89747
0.995597
0.98967
0.987102
1.01264
1.21812
1.23104
1.22378
1.22626
0.887092
0.879774
0.929164
0.873273
0.884938
0.877306
0.906307
0.878163
1.02612
1.01499
1.02191
1.01622
0.912684
0.918262
0.90487
0.910956
0.96272
0.952514
0.960921
0.953809
1.04918
1.04692
1.05771
1.0508
1.02679
1.02079
1.00833
1.01059
0.947557
0.9611
0.949685
0.957674
0.960801
0.978982
0.967511
0.960084
1.02303
1.04434
1.02742
1.02337
0.934821
0.91684
0.929574
0.917364
-0.388514
-0.345321
-0.387597
-0.341075
0.965328
0.972504
0.958256
0.959488
0.869572
0.868894
0.868282
0.863919
0.984899
0.982777
0.985705
0.981503
1.2993
1.29027
1.30193
1.29202
0.986567
0.991809
0.98875
0.987947
0.9873
0.990243
0.985065
0.985913
0.911273
0.921086
0.915109
0.910511
0.912834
0.916536
0.914291
0.910886
1.90997
2.12479
1.92682
1.93129
1.01843
1.02136
1.04658
1.02571
1.14514
1.1697
1.14007
1.13912
0.89839
0.935459
0.892631
0.902905
1.01091
1.01126
1.019
1.01193
0.558127
0.632277
0.548442
0.567704
1.00432
1.00641
1.00698
1.0163
0.996229
0.979911
0.982876
0.9831
1.30508
1.25643
1.2767
1.27563
0.928222
0.944101
0.938287
0.926055
0.85192
0.822121
0.817383
0.837034
0.905042
0.896661
0.895086
0.892181
0.916366
0.910947
0.912762
0.913992
1.04226
1.05937
1.05087
1.04533
1.06174
1.04724
1.05307
1.04793
1.0143
1.01524
1.03427
1.01348
1.02831
1.03291
1.02562
1.04829
1.00303
1.00891
1.00277
1.02042
0.950053
0.957037
0.978199
0.956458
0.960588
0.95708
0.963955
0.964808
0.988355
1.00572
0.995622
0.990274
0.968386
0.972725
0.986907
0.970409
1.00158
1.01867
1.00759
1.00153
1.3392
1.33426
1.33074
1.38666
0.931013
0.926282
0.926258
0.944252
0.974302
0.966441
0.971596
0.978378
0.974392
0.97855
0.968219
0.966427
1.00309
0.98706
0.995292
0.98705
1.00619
0.991567
0.998442
0.990989
1.55855
1.57421
1.59033
1.57728
0.864391
0.874519
0.867328
0.863405
0.941416
0.9585
0.945262
0.930494
0.913946
0.918143
0.911783
0.92505
1.15933
1.16752
1.18388
1.16254
0.903317
0.928564
0.932038
0.903397
0.922809
0.92501
0.915687
0.917338
0.872589
0.877981
0.892325
0.873298
1.08285
1.08056
1.08203
1.10655
1.02701
1.02426
1.03889
1.02706
0.882062
0.878371
0.893009
0.876807
0.967343
0.955976
0.984913
0.960497
0.881783
0.888561
0.877649
0.923651
0.919782
0.903956
0.908644
0.902107
1.14825
1.14212
1.19023
1.15264
0.960926
0.965991
0.980042
0.963514
0.924161
0.945624
0.917987
0.919781
1.12114
1.10468
1.10641
1.10152
1.24465
1.22826
1.20358
1.24592
1.46032
1.73942
1.46085
1.47239
0.942814
0.950217
0.943322
0.941352
0.943977
0.946478
0.944037
0.95131
0.902642
0.896849
0.893274
0.91888
1.09893
1.10227
1.09631
1.13137
0.939596
0.939427
0.94048
0.935358
1.03959
1.03651
1.03389
1.04124
0.996381
0.997893
0.992962
1.00247
1.05317
1.06188
1.05244
1.06417
1.04394
1.04924
1.04122
1.05158
1.001
0.988589
1.00289
0.997142
1.00976
0.995129
1.00034
0.9943
1.07123
1.07
1.06268
1.08364
0.646588
0.629228
0.645405
0.611361
0.978124
0.972129
0.975159
0.972965
0.983078
1.00761
0.97
0.997511
1.01617
1.01647
1.01857
0.984679
0.999492
0.994844
0.989564
0.990363
0.991925
0.998324
0.988077
0.993762
1.0238
1.01924
1.01349
1.01294
1.02151
1.01487
1.01702
1.01129
0.998683
0.97859
1.00556
0.979976
0.986205
0.997091
0.991127
0.988361
0.978907
0.973076
0.985895
0.973474
0.92994
0.935921
0.934822
0.95415
0.882371
0.876824
0.875893
0.890444
1.17856
1.21966
1.2232
1.21849
0.971859
0.980772
0.974885
0.986515
1.01101
1.00542
1.00221
1.00244
1.0041
1.00946
1.00633
0.99897
1.0701
1.06384
1.07664
1.06984
0.96864
0.984317
0.97448
0.97691
0.994214
0.999445
0.997688
1.00725
1.00479
1.01468
1.00773
1.01013
0.88028
0.891742
0.874655
0.874154
1.02581
1.01008
1.01207
1.02039
1.06675
1.04859
1.04822
1.05424
1.02249
1.02592
1.01541
1.01548
0.947888
0.962433
0.948261
0.955536
1.07351
1.07751
1.09257
1.07992
1.2092
1.23511
1.20386
1.20671
1.15092
1.16219
1.1535
1.15235
1.07851
1.09409
1.07597
1.08026
1.0657
1.0683
1.06964
1.08383
1.14249
1.14665
1.13343
1.12247
1.08355
1.08984
1.08959
1.11191
0.90977
0.897858
0.895882
0.917412
0.973727
0.963949
0.967532
0.965601
0.99474
0.987125
0.983517
0.980736
0.947631
0.939271
0.936539
0.937703
1.06168
1.05507
1.05728
1.06119
1.12448
1.12664
1.1215
1.12161
0.879518
0.873786
0.876718
0.87982
1.03856
1.03969
1.04668
1.04058
0.98684
0.986284
0.993814
0.990545
1.46248
1.4489
1.45193
1.43712
0.922619
0.924856
0.923806
0.929382
0.979663
0.97645
0.976554
0.984258
0.966554
0.971529
0.979237
0.972073
0.879397
0.90239
0.880813
0.887799
0.913841
0.895876
0.895627
0.902183
0.984128
0.996668
0.986357
0.989211
0.954318
0.960566
0.965903
0.954187
1.04431
1.04056
1.04562
1.0554
0.958448
0.959795
0.961085
0.95777
0.975627
0.981245
0.972707
0.983859
-0.371391
-0.518995
-0.505083
-0.489798
0.914673
0.923355
0.920661
0.913899
0.982032
0.965933
0.968115
0.97156
0.961263
0.967141
0.976884
0.961939
1.02201
1.00258
1.00827
1.00147
1.04189
1.07327
1.0416
1.04726
1.19132
1.18865
1.22805
1.18715
1.09872
1.09273
1.09318
1.12753
1.01999
1.01361
1.01435
1.03212
0.938998
0.941306
0.947256
0.954388
0.989023
0.994592
0.984952
0.99007
0.996388
0.991544
0.990865
0.997166
0.919562
0.930759
0.921441
0.927155
0.941189
0.954934
0.947379
0.947684
0.899404
0.902023
0.899945
0.90101
0.863675
0.853312
0.868565
0.858192
1.06867
1.08192
1.06511
1.06617
0.857334
0.863374
0.858531
0.864272
1.0687
1.06341
1.0677
1.07774
-0.533444
-0.468606
-0.456808
-0.501427
0.95939
0.965236
0.959758
0.971793
1.05025
1.0505
1.05825
1.04764
0.964197
0.971824
0.955726
0.958921
0.951398
0.943814
0.945269
0.9599
0.840248
0.841436
0.841603
0.847462
1.03335
1.02883
1.03999
1.03059
1.09816
1.09033
1.084
1.12276
1.02966
1.03073
1.03399
1.04234
0.98101
0.980615
1.00205
0.977708
0.978685
0.966642
0.982696
0.970778
0.918837
0.909608
0.929772
0.913222
0.931397
0.935903
0.933141
0.937236
0.817488
0.805128
0.81375
0.805322
1.07228
1.06443
1.06562
1.08609
1.07575
1.06419
1.06394
1.06666
1.05875
1.05978
1.06237
1.07331
0.876446
0.883519
0.890309
0.877022
1.05579
1.04899
1.04863
1.07773
1.02041
1.00613
1.01001
1.01243
1.00964
1.01039
1.02343
1.01358
0.809156
0.838922
0.808164
0.805304
0.927702
0.933774
0.931007
0.926196
0.870185
0.877745
0.869762
0.885618
0.892252
0.894194
0.892572
0.892991
0.935612
0.922998
0.930097
0.920888
1.08414
1.08039
1.08402
1.07517
0.918803
0.910958
0.913161
0.912613
1.17432
1.2453
1.1873
1.20056
1.4166
1.40199
1.41057
1.46685
1.01207
1.01433
1.00731
1.0205
0.801676
0.798075
0.788301
0.839703
1.37215
1.38591
1.36867
1.38211
0.757286
0.75688
0.755499
0.752943
1.09292
1.09453
1.09712
1.10626
1.11055
1.1318
1.11763
1.11387
1.0522
1.07172
1.05386
1.05878
1.01543
1.02254
1.00965
1.01049
0.917529
0.909256
0.93654
0.912631
0.941344
0.943982
0.932595
0.931514
0.939419
0.931065
0.936059
0.944244
1.02411
1.02779
1.03039
1.02774
1.03605
1.02794
1.02554
1.0246
0.924166
0.907868
0.912115
0.906343
0.911744
0.907277
0.916138
0.907528
0.976354
0.968228
0.970698
0.980391
0.912996
0.917499
0.908039
0.907162
0.978884
0.983215
0.971759
0.972328
0.934558
0.923576
0.926529
0.946462
1.26259
1.30958
1.26715
1.26133
0.797518
0.785405
0.764955
0.761833
1.05609
1.05935
1.05844
1.05827
)
;

boundaryField
{
    insideCircle
    {
        type            myTemperature;
        value           nonuniform List<scalar> 
24
(
3.46701
2.57044
2.57199
2.58392
2.45722
2.56987
2.47466
2.60813
2.61512
2.54907
2.59072
2.60335
2.60687
2.62358
2.62263
2.61878
2.55143
2.60485
2.58006
2.55655
2.5836
2.55548
2.58666
2.57784
)
;
    }
    outsideCircle
    {
        type            myTemperature;
        value           nonuniform List<scalar> 
124
(
0.99688
0.892832
1.03415
0.923314
1.04409
1.02973
1.05603
0.894428
0.944886
0.997231
1.02868
1.02226
0.950368
0.998014
0.997625
0.997082
0.998842
1.00941
0.951334
1.01392
0.986167
0.991058
0.986475
0.987152
0.965048
0.876228
0.965903
1.10356
0.97619
0.982717
1.01407
0.977131
1.00822
1.00632
0.986674
1.00439
0.985974
0.983332
0.97955
0.990218
0.977909
1.00004
0.973139
0.994555
0.973519
0.979075
0.969752
1.00003
0.994086
0.990108
0.98493
0.996871
1.02222
1.03653
0.957487
1.03015
1.0945
0.894221
1.09719
0.902175
0.98769
1.00488
0.873422
0.873341
1.00829
1.00485
1.01222
0.976114
0.995379
1.00495
1.0052
0.986771
0.962039
0.959534
0.960561
0.9531
0.96928
0.95826
0.963843
0.958162
0.982999
0.995472
0.9775
0.998152
0.983194
0.995877
0.99637
0.976675
0.987906
0.996312
1.00105
0.970441
0.995912
0.999899
0.986849
0.988245
0.929862
0.993297
0.925547
0.920369
0.955778
0.967128
0.96877
0.965331
0.969444
0.977314
0.969819
0.982891
0.98389
1.00259
0.984582
1.01138
0.99551
0.992423
0.986494
0.992541
0.998872
0.988707
1.01256
0.986493
0.964927
0.968914
0.959688
1.00564
)
;
    }
    topAndBottom
    {
        type            empty;
    }
}


// ************************************************************************* //
