/*--------------------------------*- C++ -*----------------------------------*\
| =========                 |                                                 |
| \\      /  F ield         | foam-extend: Open Source CFD                    |
|  \\    /   O peration     | Version:  3.0                                   |
|   \\  /    A nd           | Web:         http://www.extend-project.de       |
|    \\/     M anipulation  |                                                 |
\*---------------------------------------------------------------------------*/
FoamFile
{
    version     2.0;
    format      ascii;
    class       volScalarField;
    location    "79";
    object      p;
}
// * * * * * * * * * * * * * * * * * * * * * * * * * * * * * * * * * * * * * //

dimensions      [0 0 0 0 0 0 0];

internalField   nonuniform List<scalar> 
2688
(
-0.23321294
-0.2139513238
-0.2024189651
-0.1892570233
-0.1819973874
-0.1726671866
-0.1681473772
-0.1613930689
-0.1586968407
-0.1537478875
-0.1522734206
-0.1486123922
-0.1479270932
-0.1451739508
-0.1449358984
-0.1427838588
-0.1426943899
-0.1408701791
-0.1406417604
-0.1388776256
-0.1382091941
-0.1362201759
-0.1347752568
-0.1322375466
-0.2324716502
-0.21327137
-0.2017758062
-0.188655695
-0.1814190843
-0.1721184012
-0.1676128169
-0.1608797505
-0.1581918643
-0.1532583401
-0.151788246
-0.1481384781
-0.1474549638
-0.1447101266
-0.1444723711
-0.142326673
-0.142236994
-0.1404180614
-0.1401898903
-0.1384308514
-0.1377641447
-0.1357810224
-0.1343405001
-0.1318105966
-0.2310118055
-0.2119319263
-0.2005083572
-0.1874705059
-0.1802791765
-0.1710368037
-0.1665593409
-0.1598684855
-0.1571972785
-0.1522946743
-0.1508335719
-0.1472066603
-0.146527153
-0.1437994677
-0.1435628739
-0.1414305194
-0.1413410361
-0.1395333298
-0.1393061962
-0.1375579193
-0.1368949446
-0.134923931
-0.1334919704
-0.1309778351
-0.2288128454
-0.2099147249
-0.1985999547
-0.1856862593
-0.1785633603
-0.1694089292
-0.1649740019
-0.1583467257
-0.1557008106
-0.1508446919
-0.1493973091
-0.145804667
-0.1451313845
-0.142429339
-0.1421947007
-0.1400822541
-0.1399932813
-0.138202335
-0.1379770038
-0.1362448822
-0.1355878979
-0.1336351709
-0.1322165959
-0.1297260601
-0.2259057452
-0.2072475386
-0.1960763155
-0.1833265237
-0.1762938995
-0.1672556179
-0.1628767793
-0.1563335451
-0.1537209414
-0.1489263547
-0.1474969997
-0.1439498224
-0.1432846775
-0.1406167571
-0.1403846358
-0.1382987841
-0.1382104426
-0.1364419494
-0.1362189567
-0.134508475
-0.1338592857
-0.1319309543
-0.130529803
-0.1280705009
-0.2222765713
-0.2039182608
-0.1929266077
-0.18038173
-0.1734621427
-0.1645690908
-0.1602606222
-0.153822483
-0.1512518483
-0.1465342122
-0.1451277883
-0.1416374652
-0.1409829392
-0.1383576872
-0.1381291836
-0.1360765855
-0.1359894953
-0.1342490919
-0.1340294517
-0.1323460712
-0.1317070306
-0.1298092597
-0.128430282
-0.1260100886
-0.2179588447
-0.1999569425
-0.1891785597
-0.17687716
-0.1700916991
-0.1613711717
-0.1571460499
-0.1508327275
-0.1483116142
-0.1436853496
-0.1423057595
-0.1388829406
-0.1382405747
-0.1356659949
-0.1354413219
-0.1334282443
-0.1333422061
-0.1316352358
-0.1314192226
-0.1297681572
-0.1291409368
-0.1272796245
-0.1259269146
-0.1235531492
-0.2129450371
-0.1953574003
-0.1848271036
-0.1728088073
-0.1661795656
-0.1576597373
-0.1535319324
-0.1473639068
-0.1449009128
-0.1403811056
-0.1390333732
-0.1356892888
-0.1350618077
-0.1325463988
-0.1323269635
-0.130360078
-0.13027601
-0.1286081239
-0.1283969381
-0.1267836125
-0.1261704905
-0.1243516778
-0.1230295273
-0.120709818
-0.2072710362
-0.1901518215
-0.1799018292
-0.1682035222
-0.1617505705
-0.1534574741
-0.1494392276
-0.1434352289
-0.1410373466
-0.1366376076
-0.1353251818
-0.1320697977
-0.1314583509
-0.1290095246
-0.1287951882
-0.1268802402
-0.1267976321
-0.1251737063
-0.12496739
-0.1233965891
-0.1227991742
-0.1210283866
-0.1197411059
-0.1174825985
-0.2009355719
-0.1843397859
-0.174403277
-0.1630627045
-0.1568071856
-0.1487677336
-0.1448725201
-0.1390521915
-0.1367278401
-0.1324627247
-0.131190675
-0.128034912
-0.1274424218
-0.1250685159
-0.1248609665
-0.1230045414
-0.1229245953
-0.1213501882
-0.1211501172
-0.1196270825
-0.1190475479
-0.117330492
-0.1160817949
-0.1138917411
-0.1939767262
-0.1779554801
-0.1683627821
-0.157414686
-0.1513754058
-0.1436140453
-0.1398532295
-0.1342340819
-0.1319896228
-0.1278717728
-0.1266430706
-0.1235961012
-0.1230233347
-0.1207310932
-0.1205298684
-0.1187371314
-0.1186590541
-0.1171385078
-0.1169444751
-0.1154734498
-0.1149131737
-0.1132547477
-0.1120486543
-0.1099333173
-0.1863991803
-0.1710039499
-0.1617861892
-0.1512659584
-0.1454628336
-0.1380048661
-0.1343912376
-0.1289918134
-0.126835353
-0.1228785874
-0.1216982497
-0.1187705226
-0.1182205249
-0.1160179982
-0.1158250105
-0.1141023718
-0.1140276177
-0.1125663508
-0.1123799299
-0.1109659697
-0.1104271669
-0.1088328052
-0.1076727935
-0.1056393942
-0.1782430939
-0.1635212892
-0.1547065224
-0.1446463188
-0.139096667
-0.1319646579
-0.1285085848
-0.1233449757
-0.1212821952
-0.1174980563
-0.1163685784
-0.1135683947
-0.1130415852
-0.1109348143
-0.1107493309
-0.1091013791
-0.1090289276
-0.1076307974
-0.1074515698
-0.1060984833
-0.1055823091
-0.104056431
-0.1029462386
-0.101000074
-0.1695186449
-0.1555175781
-0.1471344828
-0.1375668915
-0.132289134
-0.1255064398
-0.1222198352
-0.1173092219
-0.115347771
-0.1117491308
-0.1106753607
-0.1080125222
-0.1075119678
-0.1055085737
-0.1053326399
-0.1037655122
-0.1036969866
-0.1023672517
-0.1021969204
-0.1009096805
-0.10041836
-0.0989663405
-0.09790924279
-0.09605752007
-0.1602679943
-0.1470307611
-0.1391047755
-0.1300589772
-0.1250687457
-0.1186557838
-0.1155479211
-0.110904803
-0.1090496548
-0.1056468504
-0.1046308283
-0.1021127104
-0.1016385358
-0.09974384288
-0.09957652521
-0.09809425803
-0.09802848417
-0.09677058616
-0.0966086004
-0.09539070305
-0.09492528903
-0.09355122265
-0.09255089799
-0.09079800807
-0.1505062318
-0.1380754044
-0.13063239
-0.1221377516
-0.1174517168
-0.1114295842
-0.1085113116
-0.1041512569
-0.1024094554
-0.09921420069
-0.09826047875
-0.09589605009
-0.09545122769
-0.09367225557
-0.09351561827
-0.09212391511
-0.09206257017
-0.0908814677
-0.09072953982
-0.08958578736
-0.08914838526
-0.08785759261
-0.08691698386
-0.08527021946
-0.1402774666
-0.1286912664
-0.1217537311
-0.1138360901
-0.1094680266
-0.1038547572
-0.1011341774
-0.09706994503
-0.09544574565
-0.09246708786
-0.0915772879
-0.08937295836
-0.08895738373
-0.08729872879
-0.08715171515
-0.08585405917
-0.08579588868
-0.08469459176
-0.084552098
-0.08348560807
-0.08307721344
-0.08187331474
-0.08099606949
-0.07945866553
-0.1296010241
-0.1188967652
-0.1124874196
-0.1051725504
-0.1011371414
-0.09595128483
-0.09343800203
-0.08968331348
-0.08818300892
-0.08543130213
-0.08460955235
-0.08257327052
-0.08218970062
-0.08065759075
-0.08052216394
-0.07932360582
-0.07927021481
-0.07825310695
-0.07812162459
-0.07713669127
-0.07675909873
-0.07564705768
-0.07483553661
-0.07341504293
-0.1185228983
-0.1087334291
-0.1028715781
-0.09618165572
-0.09249067475
-0.08774767755
-0.08544856652
-0.08201431697
-0.08064145035
-0.07812438565
-0.07737193955
-0.07550912151
-0.07515730118
-0.07375559378
-0.07363066223
-0.0725341097
-0.07248424203
-0.07155382335
-0.07143270292
-0.0705318715
-0.0701860077
-0.06916864063
-0.0684263525
-0.06712455903
-0.1070659151
-0.09822284143
-0.09292775045
-0.08688462722
-0.08355055818
-0.07926616725
-0.07718942528
-0.07408728028
-0.07284725753
-0.07057364847
-0.06989408967
-0.06821149744
-0.06789385436
-0.06662781592
-0.06651512932
-0.06552478081
-0.06547985156
-0.06463966046
-0.06453020349
-0.06371688629
-0.06340403155
-0.06248552749
-0.06181396085
-0.06063853766
-0.09527786033
-0.0874082259
-0.08269576404
-0.07731767949
-0.07435017582
-0.070537079
-0.06868831192
-0.06592720276
-0.06482287124
-0.06279900374
-0.06219327711
-0.06069531888
-0.06041153732
-0.05928429013
-0.05918282949
-0.05830101725
-0.05825987832
-0.05751187209
-0.05741349756
-0.05668956973
-0.05641063051
-0.0555928543
-0.05499532562
-0.05394677319
-0.08318430605
-0.07631362798
-0.07219936451
-0.06750397046
-0.06491313482
-0.06158405926
-0.05996991578
-0.05755927494
-0.05659503535
-0.05482803309
-0.05429907162
-0.05299119567
-0.052743275
-0.05175901713
-0.05167022371
-0.05090020367
-0.05086398622
-0.0502107703
-0.05012440036
-0.04949226897
-0.04924787276
-0.04853398267
-0.04801090837
-0.04709616138
-0.07083467025
-0.06498383152
-0.06148000991
-0.0574813854
-0.05527465629
-0.05243939196
-0.05106418022
-0.04901089629
-0.04818892174
-0.04668363142
-0.04623213343
-0.04511773903
-0.0449053982
-0.04406653956
-0.04398958831
-0.04333315997
-0.04330096274
-0.04274402343
-0.04266929095
-0.04213029229
-0.04192146242
-0.04131264129
-0.04086724386
-0.04008644399
-0.05825653829
-0.05344466228
-0.05056295332
-0.04727432568
-0.04545927698
-0.04312735703
-0.04199606214
-0.04030719399
-0.03963078338
-0.03839252542
-0.0380206873
-0.03710382634
-0.03692855724
-0.03623819151
-0.03617414466
-0.03563366111
-0.03560627837
-0.03514743499
-0.03508486915
-0.03464063906
-0.03446741167
-0.03396585011
-0.03359758912
-0.03295555287
-0.04550071504
-0.041742246
-0.0394911199
-0.03692223322
-0.03550401548
-0.03368222401
-0.03279783534
-0.03147816795
-0.03094883923
-0.02998099584
-0.02968932217
-0.02897238677
-0.02883402487
-0.02829387331
-0.02824220205
-0.02781898048
-0.02779585855
-0.02743623452
-0.02738573215
-0.02703731137
-0.02690075346
-0.02650744567
-0.02621924982
-0.02571676836
-0.03259611732
-0.02990355846
-0.02829063745
-0.02645012802
-0.02543367748
-0.0241282254
-0.02349397995
-0.02254809666
-0.02216797715
-0.02147398638
-0.02126387585
-0.0207494712
-0.02064894741
-0.02026099762
-0.02022234747
-0.01991792286
-0.01989953158
-0.01964037672
-0.01960223567
-0.01935083369
-0.01925091593
-0.01896737765
-0.01875879033
-0.01839821917
-0.01959458269
-0.01797574681
-0.01700562416
-0.01589877876
-0.01528690491
-0.01450149275
-0.01411904317
-0.01354957943
-0.01331954068
-0.01290129686
-0.01277309093
-0.01246259399
-0.01239990729
-0.01216519141
-0.01213937838
-0.01195458757
-0.01194072115
-0.01178281495
-0.01175701032
-0.01160346339
-0.01154064312
-0.01136781879
-0.01124011822
-0.01102226185
-0.006525764964
-0.005986386554
-0.005662539708
-0.005293296864
-0.005088230297
-0.004825666247
-0.004696450954
-0.004505451902
-0.004426410062
-0.004285420517
-0.004239687921
-0.004134222784
-0.004109718188
-0.004029100542
-0.004016345177
-0.003951908929
-0.003942760813
-0.003886800469
-0.003873627642
-0.003818719537
-0.003793605004
-0.003732431733
-0.003686779445
-0.003612752888
0.00655794272
0.006016787706
0.00569370167
0.005324582106
0.005122406643
0.004861552997
0.004737235532
0.004549317024
0.004477143281
0.004340496357
0.004303576608
0.004203669978
0.004189825783
0.004116031979
0.004115566943
0.004059351045
0.004063655963
0.004017361376
0.004017943473
0.003973828984
0.003961728338
0.003910806595
0.003875631015
0.003805842779
0.01962664135
0.01800605422
0.01703674349
0.01593006624
0.01532114942
0.01453750421
0.01416002949
0.01359370877
0.01337062238
0.01295678021
0.01283747189
0.01253257126
0.01248061922
0.01225271211
0.01223923648
0.01206254974
0.0120621309
0.011913622
0.01190147258
0.01175831588
0.01170824775
0.01154543623
0.01142781862
0.01121533616
0.0326279814
0.02993363893
0.02832139634
0.02648094413
0.02546724018
0.02416338124
0.0235338216
0.0225908474
0.02221730416
0.02152741935
0.02132573492
0.0208165646
0.02072620705
0.02034462614
0.02031766535
0.0200207978
0.02001518879
0.01976471867
0.01973970133
0.01949775421
0.01941046815
0.0191359394
0.01893804455
0.0185824129
0.04553219697
0.04177202246
0.03952172695
0.03695303171
0.03553775584
0.03371772598
0.03283825158
0.031521681
0.03099918032
0.03003562617
0.02975263613
0.02904107025
0.02891310923
0.02837933798
0.02833952401
0.02792363609
0.02791332871
0.0275618232
0.02752421426
0.02718439646
0.02705973147
0.02667494593
0.02639609514
0.02590102991
0.05828769325
0.05347404351
0.05059290571
0.04730425356
0.045491742
0.04316125034
0.04203431744
0.04034810275
0.03967780667
0.03844328652
0.03807924548
0.03716709672
0.03700117234
0.03631642417
0.03626304928
0.0357290188
0.0357132602
0.03526149514
0.03521091554
0.03477404379
0.03461261543
0.03411833068
0.03376074201
0.03312548763
0.07086510764
0.06501263186
0.06150963115
0.0575112042
0.05530732911
0.05247376911
0.0511032906
0.0490529712
0.04823752502
0.04673629099
0.0462930248
0.04518362031
0.04498104399
0.04414796212
0.04408203389
0.04343199876
0.04341162733
0.04286142185
0.04279859118
0.04226646986
0.04206882332
0.04146744183
0.0410315221
0.04026121381
0.08321440235
0.07634197637
0.07222816239
0.06753265566
0.06494410471
0.06161626621
0.06000608724
0.05759780042
0.05663910669
0.05487541809
0.05435348357
0.05304974377
0.05281017586
0.05183076681
0.0517514434
0.05098686715
0.05096094758
0.05031355254
0.05023793378
0.04961184971
0.04937848782
0.04867134563
0.04815928819
0.04725383851
0.09530679023
0.08743561166
0.08272394037
0.07734604974
0.07438125566
0.07056977007
0.06872546482
0.06596713423
0.06486890946
0.06284880823
0.06225071384
0.06075733671
0.06048252422
0.05936051321
0.05926909934
0.05839301577
0.05836263984
0.05762065967
0.05753328194
0.05681574368
0.05654769473
0.05573778249
0.0551507379
0.05411560524
0.1070946527
0.09824987224
0.09295510692
0.08691178686
0.08357973226
0.0792963835
0.07722317796
0.07412308414
0.072888001
0.07061729385
0.06994395772
0.06826498592
0.0679546909
0.06669290463
0.06658852119
0.06560300809
0.06556716748
0.06473234749
0.06463264979
0.06382542157
0.0635232709
0.06261256615
0.06195297869
0.06078946221
0.1185498761
0.1087589811
0.102897879
0.09620814508
0.09251969164
0.08777819305
0.08548321551
0.08205153304
0.08068428464
0.07817068362
0.0774252076
0.07556659711
0.07522291362
0.07382604717
0.0737102025
0.07261907086
0.07257899957
0.07165459753
0.07154375733
0.07064990695
0.07031489588
0.06930679401
0.06857614363
0.06728944936
0.1296281506
0.1189222408
0.1125131062
0.1051979691
0.1011643095
0.09597931497
0.09346914783
0.08971623264
0.08822028138
0.08547111452
0.08465483032
0.08262175155
0.08224461734
0.08071634736
0.08058821017
0.079394202
0.07934890614
0.07833723191
0.07821475866
0.07723661763
0.07686955178
0.07576678333
0.07496799964
0.07356101626
0.1403020767
0.1287145945
0.1217777634
0.1138603101
0.1094945716
0.1038826808
0.1011658775
0.09710399189
0.09548489756
0.09250940323
0.09162590571
0.08942543974
0.08901719977
0.08736306337
0.08722425213
0.08593183093
0.08588259838
0.08478744802
0.08465459518
0.08359571005
0.08319801848
0.08200439995
0.08113937641
0.07961731879
0.1505315361
0.1380991281
0.1306562273
0.1221612692
0.1174767402
0.111455315
0.1085397703
0.1041812491
0.1024432699
0.09925024954
0.09830132557
0.09593975931
0.09550059171
0.09372513202
0.09357493669
0.09218754619
0.0921334605
0.09095776017
0.09081412857
0.08967744877
0.08925008155
0.08796906804
0.08704097575
0.08540784466
0.1602898578
0.1470515108
0.1391261877
0.1300805848
0.1250924671
0.1186807633
0.1155763098
0.1109353152
0.109084758
0.1056848152
0.1046744472
0.1021598428
0.1016922457
0.09980170963
0.09964176887
0.09816440336
0.09810673383
0.0968547107
0.0967016006
0.09549106878
0.09503570218
0.0936715119
0.09268283701
0.09094414002
0.1695419472
0.1555393835
0.1471563255
0.1375883841
0.132311918
0.1255298054
0.1222455844
0.1173363038
0.1153782112
0.1117815474
0.1107120047
0.1080517307
0.1075561751
0.105555964
0.1053857535
0.1038225639
0.1037605319
0.1024357318
0.1022728676
0.1009920331
0.1005097281
0.0990664775
0.09802050083
0.09618116177
0.1782618736
0.1635391455
0.1547250048
0.144665014
0.139117262
0.1319863918
0.1285333577
0.1233716461
0.1213129483
0.1175313607
0.116406909
0.1136098614
0.113088905
0.1109858462
0.1108069386
0.1091633376
0.1090981177
0.1077051052
0.1075337761
0.1061869039
0.1056795522
0.1041618019
0.1030615876
0.1011273387
0.1864203202
0.1710236898
0.1618059105
0.1512853193
0.1454832993
0.1380258132
0.1344142646
0.1290160042
0.1268624974
0.1229074858
0.121730886
0.1188054528
0.1182598948
0.1160602114
0.1158723178
0.1141531389
0.1140841433
0.1126270567
0.1124471572
0.111038356
0.110507161
0.1089196464
0.1077685969
0.1057453527
0.1939921289
0.1779701696
0.1683780662
0.1574302086
0.1513926111
0.1436322702
0.1398741188
0.134256637
0.1320157525
0.1279001317
0.126675836
0.1236316021
0.1230639779
0.1207749568
0.1205795097
0.1187904839
0.1187187222
0.1172023849
0.1170151259
0.1155489274
0.1149959318
0.1133435145
0.1121452129
0.1100388246
0.2009543974
0.184357321
0.1744207534
0.1630798265
0.1568252449
0.1487861917
0.1448927808
0.1390734668
0.1367517019
0.1324881398
0.1312193883
0.1280656713
0.1274771213
0.1251057432
0.1249027156
0.1230493079
0.1229744142
0.1214035088
0.121208984
0.1196900055
0.1191165821
0.1174045711
0.1161625659
0.1139799516
0.2072828149
0.1901631132
0.1799136861
0.1682156484
0.1617641551
0.1534719548
0.1494559861
0.1434534106
0.1410585817
0.1366607346
0.1353520835
0.1320990189
0.131491993
0.129045894
0.1288365258
0.1269246979
0.1268474688
0.1252270115
0.1250263058
0.1234593056
0.1228676015
0.1211011543
0.1198195089
0.1175666872
0.2129613954
0.1953725899
0.1848422042
0.1728235691
0.1661951044
0.1576755979
0.1535493243
0.147382167
0.1449213986
0.140402945
0.1390580795
0.1357157974
0.1350917672
0.1325785951
0.1323631223
0.1303988947
0.1303191877
0.1286543332
0.1284477356
0.1268377621
0.1262293098
0.1244142154
0.1230966163
0.1207813201
0.2179668004
0.1999646486
0.1891868006
0.1768857011
0.170101462
0.1613816971
0.1571584439
0.1508462841
0.1483276721
0.143702937
0.1423264514
0.1389055092
0.1382668003
0.135694442
0.1354738883
0.1334633749
0.1333817561
0.1316776491
0.1314661003
0.1298180936
0.1291951201
0.1273368408
0.1259877999
0.1236164717
0.2222903045
0.2039309596
0.1929391884
0.1803939914
0.1734750139
0.1645822003
0.1602749747
0.1538375412
0.151268744
0.146552235
0.145148206
0.141659406
0.1410077898
0.1383844475
0.1381592903
0.1361089713
0.1360254996
0.1342876747
0.1340716284
0.1323909599
0.1317551163
0.1298597544
0.1284830463
0.1260637864
0.2259097307
0.2072515179
0.1960807927
0.1833313301
0.1762996712
0.1672620054
0.1628845923
0.1563422361
0.1537315333
0.1489380766
0.1475110895
0.1439652932
0.1433029569
0.1406366834
0.1404077365
0.1383238079
0.1382388318
0.1364724922
0.1362527459
0.1345444654
0.1338980235
0.1319713287
0.130571829
0.1281118771
0.2288237917
0.2099247868
0.1986098595
0.185695864
0.1785733855
0.1694190951
0.1649850841
0.1583583215
0.1557137962
0.1508585277
0.1494129806
0.1458215042
0.1451504723
0.1424498966
0.1422178444
0.1401071401
0.1400208929
0.1382318565
0.1380090131
0.1362786993
0.1356234354
0.1336716221
0.1322532105
0.1297605247
0.2310117185
0.2119320838
0.2005089609
0.1874714686
0.1802808177
0.1710389045
0.1665623784
0.159872094
0.1572021238
0.1523002093
0.1508406467
0.14721455
0.1465368779
0.14381015
0.1435756257
0.1414443726
0.1413570146
0.1395504873
0.1393251875
0.1375779275
0.1369160221
0.1349450563
0.133512644
0.1309953051
0.2324796755
0.2132786782
0.2017828829
0.1886624861
0.1814260671
0.1721254097
0.1676203562
0.1608875774
0.1582005497
0.1532675384
0.1517985998
0.1481495415
0.1474674519
0.1447234897
0.1444873468
0.1423426241
0.1422545466
0.140436544
0.1402095753
0.1384510689
0.1377845806
0.1358006738
0.134358569
0.1318243425
0.233208603
0.2139474843
0.2024156129
0.1892540428
0.1819948192
0.1726648742
0.1681455149
0.1613914204
0.1586957309
0.1537469706
0.1522731379
0.1486122806
0.1479277161
0.1451747176
0.1449374514
0.1427854988
0.1426967125
0.1408724436
0.1406442675
0.1388796459
0.1382104647
0.1362197417
0.1347723723
0.1322296984
0.2332119652
0.2139504414
0.2024183369
0.1892565292
0.1819971557
0.1726670763
0.1681476053
0.1613934487
0.1586976619
0.1537488917
0.1522749602
0.1486141253
0.1479294468
0.1451764735
0.1449390632
0.1427870925
0.1426981169
0.1408737208
0.1406453044
0.1388803604
0.1382108927
0.1362195875
0.1347718972
0.1322284481
0.2324727556
0.2132723732
0.2017767672
0.1886566298
0.1814201098
0.1721194527
0.1676140712
0.160881084
0.1581935367
0.1532601296
0.1517904997
0.1481408615
0.1474579221
0.1447131806
0.1444760344
0.1423303014
0.1422410652
0.1404217923
0.1401935006
0.1384334716
0.1377654414
0.1357799114
0.1343360614
0.1318007411
0.2310114385
0.2119316162
0.2005082166
0.1874705089
0.1802794523
0.1710372657
0.1665601796
0.1598695535
0.1571988578
0.1522965166
0.1508360524
0.1472094102
0.1465306489
0.143803189
0.143567364
0.1414350802
0.1413461758
0.1395381784
0.1393110509
0.1375617413
0.1368976478
0.134924046
0.1334890926
0.1309689911
0.2288134308
0.2099152407
0.1986004567
0.1856867408
0.178563914
0.1694094966
0.1649747273
0.1583475028
0.1557018583
0.1508458208
0.1493988204
0.145806264
0.1451334627
0.1424314538
0.1421973172
0.1400847463
0.1399960899
0.1382046711
0.1379790859
0.1362458313
0.1355874334
0.1336322764
0.1322104316
0.1297148692
0.2259057604
0.2072475831
0.196076536
0.1833268795
0.1762945536
0.1672564725
0.162878044
0.156335066
0.1537230043
0.1489287133
0.1475000242
0.1439531482
0.1432887663
0.140621087
0.1403897307
0.1383039335
0.1382161445
0.1364473174
0.136224305
0.1345127684
0.1338624778
0.1319317162
0.1305278188
0.128063312
0.2222766479
0.2039183059
0.1929266277
0.1803817268
0.1734621551
0.1645690928
0.160260687
0.153822558
0.1512520602
0.1465344518
0.1451282422
0.1416379445
0.1409837003
0.138358419
0.1381301961
0.1360774083
0.1359904246
0.1342495133
0.1340294985
0.1323450462
0.131704684
0.1298048147
0.1284231189
0.1259989137
0.2179591332
0.1999572432
0.189179025
0.176877751
0.1700925779
0.1613722538
0.1571475236
0.1508344658
0.1483138589
0.1436879012
0.1423089217
0.1388864176
0.1382447381
0.1356704123
0.1354464123
0.1334334038
0.1333478397
0.1316405769
0.131424542
0.1297725577
0.1291443868
0.1272810823
0.1259261236
0.1235484587
0.2129446154
0.1953569873
0.1848266368
0.1728083075
0.1661790007
0.1576591261
0.1535312539
0.1473631831
0.1449001448
0.1403802989
0.1390325522
0.135688428
0.1350609629
0.1325454759
0.1323260467
0.1303589592
0.1302747806
0.1286064436
0.1283948467
0.1267806305
0.1261664843
0.1243460542
0.1230220319
0.1206996631
0.2072714915
0.1901522773
0.1799024276
0.1682042314
0.1617515312
0.1534586256
0.1494407119
0.1434369658
0.1410395012
0.1366400605
0.1353281255
0.1320730603
0.1314621571
0.1290136165
0.1287998146
0.1268850156
0.1268028081
0.1251787492
0.1249725013
0.1234010711
0.1228030397
0.1210308331
0.119741953
0.117480996
0.2009346931
0.1843389525
0.1744023524
0.1630617304
0.156806053
0.1487665088
0.144871078
0.1390506379
0.1367260336
0.1324608055
0.1311884777
0.1280326146
0.1274398399
0.1250658424
0.1248580073
0.1230014582
0.1229212096
0.1213465732
0.1211461431
0.1196226358
0.1190425146
0.1173245389
0.1160748671
0.1138834105
0.1939772425
0.1779559923
0.1683634091
0.1574154039
0.1513763216
0.1436151262
0.1398545557
0.1342356309
0.1319914615
0.1278738833
0.1266455035
0.1235988494
0.1230264324
0.120734533
0.1205336656
0.1187412534
0.1186635058
0.1171432035
0.1169494187
0.1154784397
0.114918134
0.113259376
0.1120527743
0.1099367795
0.1863979188
0.1710027639
0.1617848728
0.1512645717
0.1454611937
0.138003084
0.1343890857
0.12898948
0.1268325521
0.122875597
0.1216947069
0.1187668236
0.1182162256
0.1160136225
0.1158200434
0.1140974507
0.1140222037
0.1125611546
0.1123744742
0.1109609086
0.1104221363
0.1088282239
0.1076685602
0.1056354089
0.1782435739
0.1635217679
0.1547070868
0.1446469534
0.1390974375
0.1319655602
0.1285096303
0.1233462011
0.1212835607
0.117499649
0.1163702941
0.1135704016
0.1130437046
0.1109373215
0.1107519644
0.1091045469
0.1090322957
0.1076349392
0.107456106
0.106104122
0.1055886016
0.1040641183
0.102954901
0.1010102765
0.169517106
0.1555161365
0.1471328756
0.1375651935
0.1322870997
0.1255042172
0.1222171072
0.1173062466
0.1153441332
0.1117452267
0.110670646
0.1080075846
0.1075061188
0.1055026388
0.1053257903
0.1037588493
0.1036895921
0.1023605284
0.1021899726
0.1009041212
0.1004134569
0.0989635891
0.09790842388
0.09605899741
0.1602683538
0.1470311293
0.1391052041
0.1300594583
0.1250693034
0.1186564394
0.1155486202
0.1109056331
0.1090504763
0.1056478371
0.104631733
0.1021138413
0.1016395207
0.09974517783
0.09957770131
0.09809602995
0.09803022164
0.09677340372
0.09661179167
0.09539578994
0.09493151744
0.09356040322
0.09256243545
0.09081347096
0.1505045451
0.1380738271
0.1306306229
0.1221358773
0.1174494483
0.1114270934
0.1085082181
0.104147865
0.1024052541
0.09920966315
0.09825492446
0.09589018478
0.09544418145
0.09366502805
0.09350715971
0.092115576
0.09205319881
0.09087281647
0.09072052908
0.08957851418
0.08914208854
0.08785441207
0.08691692197
0.08527436813
0.1402776359
0.1286914604
0.1217539694
0.1138363705
0.109468338
0.1038551399
0.1011345245
0.09707037947
0.09544605064
0.09246749022
0.09157743503
0.08937322701
0.08895727172
0.08729880895
0.08715134376
0.08585405983
0.08579553926
0.08469505372
0.08455269326
0.0834879225
0.0830807016
0.08188011686
0.08100587327
0.07947444866
0.1295993341
0.118895186
0.1124856426
0.105170658
0.1011348338
0.09594874179
0.09343481594
0.0896798065
0.0881786241
0.08542653733
0.08460366091
0.0825669808
0.08218206338
0.08064960337
0.08051271211
0.07931396535
0.0792592544
0.07824235734
0.07811023646
0.07712635598
0.07674961203
0.0756402383
0.07483213773
0.07341704058
0.1185228216
0.1087333985
0.1028715887
0.09618170808
0.0924907352
0.08774779803
0.08544860876
0.08201442328
0.08064136111
0.07812434658
0.07737154709
0.07550875111
0.07515640627
0.07375468364
0.07362909514
0.072532505
0.07248200985
0.07155166965
0.07143033666
0.07053013763
0.07018505297
0.06917002642
0.06843044361
0.06713574612
0.1070643696
0.09822139721
0.09292611979
0.08688288393
0.08354842182
0.0792638101
0.07718645452
0.07408400969
0.07284314206
0.07056916633
0.0698885088
0.06820549345
0.06788650928
0.06661999796
0.06650580694
0.06551494242
0.06546857764
0.06462790787
0.06451759248
0.06370415802
0.06339179361
0.06247460754
0.06180600521
0.06063611686
0.09527749364
0.08740793107
0.08269552147
0.07731749055
0.07434999836
0.07053697131
0.06868812807
0.065927094
0.0648225727
0.06279876162
0.0621926919
0.06069473542
0.06041043717
0.05928307736
0.05918094524
0.0582988236
0.05825698074
0.05750845577
0.05740965662
0.05668530583
0.05640666518
0.05558990989
0.05499424852
0.05395251828
0.08318304333
0.0763124468
0.0721980266
0.06750253434
0.06491137017
0.0615821187
0.05996746188
0.05755659446
0.05659165129
0.05482437799
0.05429450318
0.05298630681
0.05273726868
0.05175261398
0.05166255528
0.05089200341
0.05085455606
0.05020064348
0.05011349949
0.04948069036
0.04923660296
0.04852309052
0.04800235917
0.04709236607
0.07083397899
0.06498324141
0.06147949498
0.05748094703
0.05527425619
0.05243909239
0.05106384848
0.04901068924
0.0481886016
0.04668344468
0.04623172765
0.04511744482
0.04490476654
0.04406593723
0.04398853894
0.04333196118
0.04329928331
0.04274195956
0.04266691621
0.04212748829
0.04191876978
0.04131052161
0.04086624574
0.04009055998
0.05825567551
0.05344385218
0.05056202984
0.04727332754
0.04545804824
0.04312602257
0.04199437233
0.04030539746
0.03962851602
0.03839016368
0.03801773621
0.03710079927
0.0369248372
0.03623440416
0.03616960409
0.03562902948
0.03560095862
0.03514199379
0.03507909966
0.03463483736
0.03446207486
0.03396117637
0.03359484229
0.03295617232
0.04549967212
0.04174133567
0.03949031401
0.03692153389
0.03550339509
0.0336817488
0.03279739878
0.03147793314
0.03094861624
0.02998103844
0.0296893513
0.02897274805
0.02883435736
0.02829459576
0.02824289322
0.02782009905
0.02779698096
0.02743784474
0.02738748122
0.02703973459
0.0269035422
0.02651142708
0.02622410587
0.02572420626
0.03259574105
0.02990319826
0.02829021291
0.02644965614
0.02543309028
0.0241276156
0.02349320416
0.02254735892
0.02216705215
0.02147318855
0.02126289124
0.02074873589
0.02064805945
0.02026051723
0.02022178401
0.01991796641
0.01989961471
0.01964134713
0.01960348054
0.01935332832
0.01925404862
0.01897204254
0.01876469856
0.01840537206
0.01959316798
0.01797449643
0.01700450623
0.01589779814
0.0152860436
0.01450082221
0.01411848466
0.01354930278
0.01331940889
0.01290157241
0.01277357652
0.01246365569
0.01240128282
0.01216736437
0.01214199402
0.01195828455
0.01194500007
0.01178854973
0.01176348123
0.01161177077
0.01154980043
0.01137873421
0.01125196841
0.01103413355
0.006525925291
0.005986520308
0.00566265431
0.005293388292
0.005088319131
0.004825811782
0.004696617214
0.004505794372
0.004426844539
0.004286191768
0.0042406676
0.004135753676
0.004111625266
0.004031838919
0.004019653418
0.00395640254
0.003947992157
0.003893656983
0.003881284165
0.003828374632
0.003803815991
0.003744236383
0.003698480388
0.003623006468
-0.006559741257
-0.006018391885
-0.005695154626
-0.005325873215
-0.005123553596
-0.004862477316
-0.004737998743
-0.004549743513
-0.004477329594
-0.004340177581
-0.004302881348
-0.004202232699
-0.004187815044
-0.004112961761
-0.004111695389
-0.004054024879
-0.004057325042
-0.004009137656
-0.004008611981
-0.003962392743
-0.003949375351
-0.003897252424
-0.003861877803
-0.003794914093
-0.01962593224
-0.01800541843
-0.01703609438
-0.01592942589
-0.01532042059
-0.01453665927
-0.01415901289
-0.01359241427
-0.01336901516
-0.01295469017
-0.01283487058
-0.01252922684
-0.01247650735
-0.01224753864
-0.01223302863
-0.0120549224
-0.01205329274
-0.01190301781
-0.01188974886
-0.01174475644
-0.01169429263
-0.01153070373
-0.01141430357
-0.01120498508
-0.03263016489
-0.02993560161
-0.02832320452
-0.02648257777
-0.02546873243
-0.02416464412
-0.02353492026
-0.02259160085
-0.02221779697
-0.02152739
-0.02132528016
-0.02081533957
-0.02072432457
-0.02034165517
-0.02031378185
-0.0200154724
-0.02000876135
-0.01975655798
-0.01973045814
-0.01948690417
-0.01939907335
-0.01912442651
-0.01892736318
-0.01857644765
-0.0455309619
-0.04177090928
-0.03952058693
-0.0369519
-0.03553648007
-0.03371630526
-0.03283656777
-0.03151967257
-0.03099673472
-0.03003264276
-0.02974898785
-0.02903663111
-0.02890772961
-0.02837288664
-0.02833186785
-0.02791464592
-0.02790300195
-0.02755000853
-0.02751127001
-0.02717020161
-0.02704535525
-0.02666065994
-0.02638357336
-0.02589210399
-0.05829024801
-0.0534763559
-0.05059507873
-0.04730625386