/*--------------------------------*- C++ -*----------------------------------*\
| =========                 |                                                 |
| \\      /  F ield         | foam-extend: Open Source CFD                    |
|  \\    /   O peration     | Version:  3.0                                   |
|   \\  /    A nd           | Web:         http://www.extend-project.de       |
|    \\/     M anipulation  |                                                 |
\*---------------------------------------------------------------------------*/
FoamFile
{
    version     2.0;
    format      ascii;
    class       volSymmTensorField;
    location    "79";
    object      sigma;
}
// * * * * * * * * * * * * * * * * * * * * * * * * * * * * * * * * * * * * * //

dimensions      [0 0 0 0 0 0 0];

internalField   nonuniform List<symmTensor> 
2688
(
(-0.178239034 -0.004884946628 2.05010271e-19 0.1782801364 4.213719254e-19 -4.110240644e-05)
(-0.1748048722 -0.005745296339 5.326766731e-21 0.1749164166 3.046267116e-19 -0.0001115443616)
(-0.1675728394 -0.006138795203 -8.861406485e-20 0.167747502 7.743248679e-19 -0.0001746626283)
(-0.158255095 -0.006215704891 8.004569293e-20 0.1584866519 3.716936901e-19 -0.0002315569314)
(-0.1483619379 -0.006140114918 -8.111257586e-21 0.1486449494 4.605527478e-19 -0.0002830115002)
(-0.1379960737 -0.005941444411 1.423478521e-19 0.1383255397 2.486729278e-19 -0.0003294659673)
(-0.1280378942 -0.005698429633 -1.026748821e-20 0.1284091127 3.250936982e-19 -0.0003712185006)
(-0.1181523607 -0.005410421251 1.056414651e-19 0.1185607083 1.318451439e-19 -0.0004083476298)
(-0.108925369 -0.005115858611 -2.796095385e-20 0.1093662204 2.721208102e-19 -0.0004408514401)
(-0.09997524935 -0.004811391878 -6.101250276e-20 0.1004438269 -6.560335683e-20 -0.0004685775671)
(-0.09168595966 -0.004512426552 1.062959285e-19 0.09217726757 4.902366243e-19 -0.0004913079026)
(-0.08376531295 -0.004220806918 -7.708093267e-20 0.08427402021 7.139715674e-20 -0.0005087072676)
(-0.07643131273 -0.003937205543 3.960298426e-19 0.07695168847 1.325752328e-19 -0.0005203757355)
(-0.06952309863 -0.003670186875 -9.444005809e-20 0.07004890937 2.873631125e-20 -0.0005258107396)
(-0.06311614554 -0.003410486324 1.240474469e-20 0.06364058224 6.990038331e-20 -0.0005244366948)
(-0.0571857365 -0.003172725668 2.163202356e-20 0.05770131566 2.526305948e-20 -0.0005155791537)
(-0.05168638355 -0.002941116854 -5.638667744e-20 0.05218485924 1.337315659e-19 -0.0004984756919)
(-0.04671825 -0.002734576157 2.394322445e-19 0.04719051247 7.335853439e-20 -0.0004722624649)
(-0.04213930411 -0.002534160484 -2.362027496e-19 0.04257527191 -1.170901354e-19 -0.0004359677955)
(-0.03815243332 -0.00236001345 1.821457398e-19 0.03854094402 1.56897399e-19 -0.0003885107001)
(-0.03455207749 -0.002194509179 6.97701822e-20 0.03488075542 -1.904236377e-19 -0.0003286779347)
(-0.03160779533 -0.00205413276 6.368963832e-20 0.03186292704 -3.935402211e-19 -0.0002551317165)
(-0.02910052351 -0.001928606816 -2.391050118e-20 0.02926689464 1.151813665e-19 -0.0001663711316)
(-0.02730905871 -0.001816449523 -1.002631572e-19 0.02736980415 -7.818130657e-19 -6.074543692e-05)
(-0.1777527438 -0.01452006061 3.695688387e-20 0.1777941394 -5.133853325e-19 -4.13956084e-05)
(-0.1738944046 -0.01711191351 2.897085683e-19 0.1740067826 -3.303894801e-19 -0.0001123779652)
(-0.1664123339 -0.01830926803 9.421199582e-20 0.1665882631 -4.886526494e-19 -0.000175929209)
(-0.1569669337 -0.01856259076 -1.872375043e-19 0.1572001868 -8.417690755e-20 -0.0002332531418)
(-0.1470092759 -0.01836092878 1.280024677e-19 0.1472943605 -1.636836699e-19 -0.0002850845938)
(-0.1366295674 -0.01779316712 -1.378796837e-19 0.1369614465 -3.285836546e-19 -0.0003318790261)
(-0.1266812164 -0.017094219 2.300980964e-19 0.127055155 1.243332107e-19 -0.0003739386143)
(-0.1168261521 -0.01626267857 -8.095757946e-20 0.1172374906 -4.642218403e-19 -0.0004113384924)
(-0.1076385578 -0.01541353216 -7.341698602e-20 0.1080826387 5.517838744e-20 -0.0004440809662)
(-0.0987345309 -0.01453706392 2.4004022e-19 0.09920653902 -4.268922076e-19 -0.0004720081278)
(-0.09049475671 -0.01367964313 7.55793914e-20 0.09098966154 -8.430313467e-20 -0.0004949048306)
(-0.08262330166 -0.01284707904 -1.738483706e-20 0.08313573061 -2.965842466e-19 -0.0005124289458)
(-0.07533998907 -0.01204173452 -2.089860164e-19 0.07586417102 1.630673828e-19 -0.0005241819499)
(-0.06847835331 -0.01128966262 1.788525748e-19 0.06900800683 -8.794807406e-20 -0.0005296535248)
(-0.06211889228 -0.01056345859 -7.619668243e-20 0.06264716019 2.459799146e-19 -0.000528267911)
(-0.05622971453 -0.009907540306 4.731133415e-20 0.05674905684 3.406049844e-19 -0.0005193423072)
(-0.05077225423 -0.009274903013 3.093955698e-19 0.05127436648 -1.801053668e-19 -0.0005021122534)
(-0.04583859709 -0.008723167038 -4.672038468e-19 0.04631430172 4.334237799e-19 -0.0004757046318)
(-0.04129421426 -0.008195694242 3.417248792e-19 0.04173335814 3.786416137e-19 -0.0004391438796)
(-0.03733428928 -0.007754463382 -3.670726008e-20 0.03772562798 2.475119685e-20 -0.0003913387015)
(-0.03375940155 -0.007346224638 -4.746219361e-19 0.03409047163 1.491007226e-19 -0.0003310700744)
(-0.03083404082 -0.007023039041 1.68058812e-19 0.03109102822 4.853211499e-19 -0.0002569873989)
(-0.02834092805 -0.006753677008 -3.792690174e-19 0.02850851224 1.941425452e-19 -0.0001675841871)
(-0.02656066042 -0.006551602537 3.068807958e-19 0.02662185247 9.081966148e-20 -6.11920424e-05)
(-0.1767850897 -0.02412922816 2.257719511e-19 0.1768266579 3.997112509e-19 -4.156821916e-05)
(-0.1720895144 -0.02833505551 -3.855563195e-20 0.1722023544 5.55039458e-19 -0.0001128400075)
(-0.1641137524 -0.03026384518 5.89450668e-20 0.1642904175 2.376244125e-19 -0.0001766650963)
(-0.1544162623 -0.03065320836 2.791618196e-19 0.1546504793 2.25824249e-19 -0.0002342170276)
(-0.1443309827 -0.03030192495 -2.022465466e-19 0.1446172508 3.125917827e-19 -0.0002862681048)
(-0.1339235631 -0.02935499003 3.198604242e-19 0.1342568143 2.002852923e-19 -0.0003332512327)
(-0.123994031 -0.02819671408 -1.018270336e-19 0.1243695164 2.630130496e-19 -0.0003754853333)
(-0.1141984149 -0.02682385738 2.784953099e-20 0.1146114524 2.172043084e-19 -0.0004130375584)
(-0.1050876553 -0.02542515302 -5.638702609e-20 0.1055335691 5.230433573e-19 -0.000445913732)
(-0.09627354783 -0.02398365287 -2.233811323e-19 0.09674750247 1.919957918e-19 -0.0004739546457)
(-0.08813016761 -0.02257603894 1.708676948e-19 0.08862711096 4.933476011e-19 -0.0004969433446)
(-0.08035431283 -0.02121088618 1.55210216e-19 0.08086885091 7.642508228e-20 -0.0005145380753)
(-0.07316920609 -0.01989285122 5.960276246e-19 0.07369554239 -6.554887969e-20 -0.0005263363055)
(-0.06639747904 -0.01866388721 -8.466354727e-21 0.06692930715 -5.029190586e-20 -0.0005318281091)
(-0.06012931734 -0.01747978988 4.898304184e-19 0.06065975006 -1.117750252e-19 -0.0005304327183)
(-0.05431881578 -0.01641291693 -3.32267763e-19 0.05484028297 -5.423588373e-20 -0.0005214671888)
(-0.048940953 -0.01538673033 3.373294325e-20 0.04944511446 7.478717085e-20 -0.0005041614575)
(-0.04407173711 -0.01449567554 9.837170767e-19 0.04454937869 -8.802143972e-20 -0.0004776415778)
(-0.03959190656 -0.01364701234 -5.84807486e-19 0.04003283238 2.643568934e-20 -0.0004409258216)
(-0.03568028155 -0.01294301754 2.094719342e-20 0.03607320277 -1.602196818e-20 -0.0003929212276)
(-0.03215159139 -0.01229584631 5.932382542e-19 0.03248399337 -2.481025386e-20 -0.0003324019829)
(-0.02925703522 -0.01179232925 3.099609383e-19 0.02951505048 -4.198259252e-19 -0.0002580152676)
(-0.02678733546 -0.01138046764 -4.727490126e-19 0.02695558345 2.844964432e-19 -0.0001682479887)
(-0.02502010425 -0.01108873697 -2.710765331e-19 0.02508153374 -6.258116801e-19 -6.142948276e-05)
(-0.1753347203 -0.03369493692 6.942779484e-20 0.17537633 -2.755134947e-21 -4.16097444e-05)
(-0.1694157724 -0.0393224435 1.81314329e-19 0.169528718 -2.337807612e-19 -0.0001129456008)
(-0.160719597 -0.04186416607 -4.731383256e-20 0.1608964396 -7.045869486e-19 -0.0001768425586)
(-0.1506551435 -0.04232349265 -1.847079014e-19 0.1508895854 5.972101583e-20 -0.0002344419057)
(-0.1403849686 -0.04178402283 1.644473756e-19 0.1406715176 -2.018124654e-19 -0.0002865489488)
(-0.1299386679 -0.04044141459 -2.164544021e-19 0.1302722418 4.799248335e-21 -0.000333573816)
(-0.1200381696 -0.03881817209 3.287987289e-19 0.1204140191 -4.394346736e-20 -0.0003758494953)
(-0.1103308465 -0.036907597 4.567807802e-20 0.1107442827 2.441443614e-19 -0.0004134362653)
(-0.1013336217 -0.03496746484 8.148654875e-20 0.1017799646 -4.315750386e-19 -0.0004463429247)
(-0.09265200532 -0.0329722793 1.935041579e-19 0.09312641498 5.225099653e-20 -0.0004744096517)
(-0.08465037978 -0.03102790049 -7.056075269e-20 0.08514779809 2.6667195e-19 -0.0004974183054)
(-0.07701492858 -0.02914374076 -4.756378886e-19 0.07752995734 -4.34153853e-19 -0.0005150287626)
(-0.06997381059 -0.02732775841 -4.844528348e-19 0.07050064614 5.875250865e-19 -0.0005268355521)
(-0.06333377032 -0.0256351151 3.044822634e-19 0.06386610158 -5.792265537e-19 -0.0005323312602)
(-0.0571990163 -0.02400719896 -2.609956586e-19 0.0577299476 1.111667677e-18 -0.0005309312984)
(-0.05150342752 -0.02254088155 4.617522806e-19 0.05202538318 -2.382714349e-19 -0.0005219556636)
(-0.04624122087 -0.02113346519 2.168614598e-20 0.04674585085 5.396001169e-19 -0.0005046299809)
(-0.0414658705 -0.01991212412 -3.166369343e-19 0.04194395401 -4.509905469e-19 -0.0004780835097)
(-0.03707874699 -0.01875206739 6.494618975e-19 0.03752007705 7.9863468e-20 -0.0004413300566)
(-0.03323730701 -0.017791403 -2.365994611e-19 0.03363058693 1.25112092e-19 -0.000393279917)
(-0.02977314251 -0.01691170141 -9.494795599e-19 0.03010584557 1.646207921e-19 -0.0003327030573)
(-0.02692298368 -0.01623094597 7.269105093e-19 0.02718123285 1.461991678e-19 -0.0002582491686)
(-0.02448329068 -0.01567835286 -3.686031383e-19 0.02465169181 3.931655331e-19 -0.000168401126)
(-0.02273287666 -0.01529745508 5.011558646e-19 0.02279436351 2.085210927e-19 -6.148684436e-05)
(-0.1733997072 -0.04319897155 9.373553815e-20 0.1734412282 1.249196339e-19 -4.15210119e-05)
(-0.1659107466 -0.04998682595 -3.972920341e-19 0.1660234423 -1.293390815e-19 -0.0001126956917)
(-0.1562920781 -0.05298043654 3.299793345e-19 0.1564685414 -3.287834689e-19 -0.000176463296)
(-0.1457598808 -0.05342002932 5.04108767e-19 0.1459938104 3.726880623e-19 -0.0002339295257)
(-0.1352559841 -0.0526400444 -1.008525458e-19 0.1355419124 -3.457768099e-19 -0.0002859283382)
(-0.124763683 -0.05087943661 3.159328342e-19 0.1250965304 5.582618524e-19 -0.0003328474064)
(-0.114904161 -0.04878368123 2.018882676e-19 0.115279193 -3.489941695e-19 -0.0003750320005)
(-0.1053139018 -0.04634036205 -2.482021999e-19 0.1057264366 4.510247136e-19 -0.0004125347828)
(-0.09646579669 -0.04386995016 -2.692141541e-19 0.09691116573 3.447505316e-19 -0.0004453690341)
(-0.08795753648 -0.04133656052 5.12020577e-19 0.08843090905 -2.687074404e-19 -0.0004733725761)
(-0.08014078496 -0.03887371263 4.795943102e-20 0.08063711438 -2.521142917e-19 -0.0004963294221)
(-0.07268831819 -0.03648904151 5.130916438e-19 0.07320221731 -3.217068447e-20 -0.0005138991213)
(-0.06583441751 -0.03419510358 3.009083589e-19 0.06636009532 3.494837585e-19 -0.0005256778054)
(-0.05936560146 -0.03205677799 4.196602898e-19 0.05989676011 -1.752369732e-19 -0.0005311586552)
(-0.05340394008 -0.03000397074 9.32805597e-19 0.05393369885 2.44084985e-19 -0.0005297587676)
(-0.0478573953 -0.02815399265 -8.110402877e-19 0.04837819467 -8.016367502e-19 -0.0005207993686)
(-0.04274498265 -0.02638163501 1.790266888e-19 0.04324849082 -7.316568113e-19 -0.0005035081699)
(-0.03809082786 -0.02484271897 1.508089372e-19 0.0385678442 3.286556712e-19 -0.0004770163383)
(-0.03382366957 -0.02338381081 7.069447514e-21 0.03426400993 -2.432736462e-19 -0.0004403403574)
(-0.03007188622 -0.02217562961 4.902302557e-19 0.03046427938 7.687336769e-20 -0.0003923931663)
(-0.02669136474 -0.02107125044 5.78238326e-19 0.02702331304 -2.363595544e-19 -0.0003319483)
(-0.02389652105 -0.02021831802 3.016171722e-19 0.02415418034 5.412227388e-19 -0.0002576592935)
(-0.0214957301 -0.0195272729 3.118118561e-19 0.02166374313 -9.455755819e-19 -0.0001680130312)
(-0.01976471078 -0.01905739655 -9.40553765e-19 0.01982605323 9.169065662e-19 -6.134244591e-05)
(-0.1709777805 -0.05262201097 -2.513519363e-19 0.1710190818 7.289300406e-19 -4.130122487e-05)
(-0.1616231235 -0.06024742309 -4.030236333e-19 0.1617352142 4.680606095e-19 -0.0001120907007)
(-0.1509116693 -0.06349423 -7.390761095e-20 0.1510871964 5.592151198e-20 -0.0001755270578)
(-0.1398290826 -0.06380347216 -2.09345869e-19 0.1400617633 2.770561161e-19 -0.000232680682)
(-0.129053607 -0.06271859862 1.78095314e-19 0.1293380133 3.703599127e-19 -0.0002844063647)
(-0.1185133208 -0.06051263482 -1.624046347e-19 0.1188443936 -2.289244694e-19 -0.0003310727069)
(-0.108709025 -0.05793526388 3.265720996e-19 0.1090820579 7.984571134e-21 -0.0003730329571)
(-0.09926439698 -0.05496555883 6.177880668e-19 0.09967473098 6.08520653e-19 -0.0004103339967)
(-0.09059961633 -0.05197881775 -3.342758415e-19 0.09104260858 -9.746134352e-19 -0.0004429922479)
(-0.08230325634 -0.04892653515 -7.483513322e-19 0.08277410096 9.801620065e-19 -0.0004708446218)
(-0.07471164919 -0.04596797829 4.96556037e-20 0.07520532638 3.234972437e-19 -0.0004936771842)
(-0.06748176076 -0.04310579955 -1.472778826e-20 0.0679929118 -1.797693901e-19 -0.0005111510452)
(-0.06085503612 -0.04035877337 -4.823129462e-19 0.06137790046 1.558468471e-19 -0.0005228643446)
(-0.05459405318 -0.03779710181 5.07557028e-20 0.0551223667 -1.917827026e-19 -0.0005283135216)
(-0.04884196488 -0.03534303114 -3.724041509e-19 0.04936888288 2.610727591e-19 -0.0005269180048)
(-0.04347620475 -0.0331288528 -3.469412867e-19 0.04399420856 -5.460091099e-19 -0.0005180038106)
(-0.03854471642 -0.03101210637 3.587000495e-19 0.03904551804 1.559007787e-18 -0.0005008016203)
(-0.03403773801 -0.02917092221 3.702237487e-19 0.034512187 -2.895397141e-19 -0.0004744489917)
(-0.02991481185 -0.02742938518 1.354552287e-19 0.03035277827 6.952236697e-19 -0.0004379664142)
(-0.02627240094 -0.025983992 -4.485858077e-19 0.02666267558 3.757691382e-19 -0.0003902746415)
(-0.02299144485 -0.02466549827 -2.723966447e-19 0.02332159755 3.028429366e-19 -0.0003301527072)
(-0.02026450792 -0.02364527697 -1.349687202e-19 0.02052077147 1.505448014e-18 -0.0002562635548)
(-0.01790910003 -0.02281868837 9.243076918e-19 0.01807620134 -6.215825753e-19 -0.0001671013121)
(-0.01620073788 -0.02225934028 -1.464279522e-21 0.01626174676 2.912531869e-18 -6.100888073e-05)
(-0.1680665084 -0.06194347998 5.363614239e-19 0.1681074603 -1.28221849e-18 -4.095194657e-05)
(-0.1566112891 -0.07003185526 -9.58784122e-19 0.1567224236 3.630580152e-20 -0.0001111344064)
(-0.1446747485 -0.07330141228 4.724666292e-19 0.1448487868 -9.079681184e-19 -0.0001740383815)
(-0.1329807737 -0.07335228941 4.863404553e-19 0.1332114751 7.071610599e-19 -0.0002307014085)
(-0.1219088929 -0.07188816228 1.819361338e-20 0.1221908831 -1.226153716e-18 -0.0002819901367)
(-0.11132481 -0.06920552269 -9.186924769e-20 0.1116530679 4.749438056e-19 -0.0003282578826)
(-0.1015926491 -0.06613637331 6.510311698e-19 0.1019625108 -1.772773225e-19 -0.0003698616747)
(-0.09232204123 -0.06264807037 -2.926480437e-19 0.09272888534 -1.08983384e-18 -0.0004068441093)
(-0.08387305989 -0.05916157666 4.911316733e-19 0.08431228386 -6.208050814e-19 -0.0004392239768)
(-0.07582445827 -0.05561317467 1.521266108e-18 0.07629129607 2.593064224e-19 -0.0004668378039)
(-0.06849480729 -0.05218565098 -8.290415088e-19 0.06898428215 -9.869305867e-19 -0.0004894748599)
(-0.06152362059 -0.04887297325 2.89066556e-19 0.06203041856 5.855825448e-19 -0.0005067979645)
(-0.05516011779 -0.04570193744 3.562809288e-19 0.05567852757 2.02034883e-19 -0.0005184097723)
(-0.04914010515 -0.0427431365 1.521891711e-19 0.04966391514 9.666599755e-19 -0.0005238099973)
(-0.04363039997 -0.03991523428 1.010588015e-18 0.04415282403 -4.722281475e-19 -0.0005224240599)
(-0.03847397447 -0.03735984889 -6.239712539e-19 0.03898755727 1.506612549e-18 -0.0005135828008)
(-0.03375164246 -0.03492217828 6.339873382e-19 0.034248167 -6.326114237e-19 -0.0004965245412)
(-0.02941481664 -0.03279732174 -8.694638995e-19 0.02988521007 6.786399544e-19 -0.0004703934305)
(-0.02545885736 -0.03079095899 1.268648421e-18 0.02589307691 -3.564866024e-19 -0.0004342195475)
(-0.0219423945 -0.02912194963 6.335765307e-20 0.0223293268 6.772829446e-19 -0.0003869322986)
(-0.01877723917 -0.02760005089 2.185550482e-18 0.01910456174 -5.325979536e-19 -0.0003273225661)
(-0.01612785683 -0.02642041301 -8.653996037e-19 0.01638192153 7.685125518e-19 -0.0002540646978)
(-0.0138256881 -0.02546085388 2.007714624e-18 0.01399135477 6.259606046e-19 -0.0001656666708)
(-0.01214302615 -0.02481297094 -1.391625575e-18 0.01220351134 -7.06638973e-19 -6.048518645e-05)
(-0.1646636661 -0.07114126275 3.324988049e-19 0.1647041391 1.439707623e-18 -4.047298494e-05)
(-0.1509421665 -0.07927721396 1.862346596e-19 0.1510519952 5.146935553e-20 -0.0001098286654)
(-0.1376913149 -0.08231434659 -4.892322739e-19 0.1378633152 1.136555832e-18 -0.0001720003117)
(-0.1253495551 -0.08196536821 2.245999578e-19 0.1255775511 -8.217907752e-19 -0.0002279959967)
(-0.113971256 -0.08004009959 2.229923693e-19 0.1142499409 -6.914363891e-20 -0.0002786849146)
(-0.1033545293 -0.0768466291 5.944596247e-20 0.1036789384 8.127922251e-19 -0.0003244090852)
(-0.09371448522 -0.07327500707 -8.170629393e-19 0.09408000981 1.596753059e-19 -0.0003655245967)
(-0.08464600585 -0.06927730923 3.631928198e-19 0.08504807808 3.609858397e-20 -0.0004020722275)
(-0.07644338547 -0.06530997095 -8.253227725e-19 0.07687745643 1.383801327e-18 -0.0004340709603)
(-0.06867524618 -0.06129122158 -7.602834422e-20 0.06913660546 -4.745283865e-19 -0.0004613592783)
(-0.06164046683 -0.05742486374 3.529910385e-19 0.06212419541 9.374539398e-19 -0.0004837285763)
(-0.054960037 -0.05369209024 8.37734891e-19 0.05546088318 -2.128060284e-19 -0.0005008461788)
(-0.04889133689 -0.05012975336 -1.428593005e-19 0.04940365559 4.107663098e-19 -0.0005123186946)
(-0.0431413985 -0.04680324595 -2.858388706e-19 0.04365905113 -9.441974949e-19 -0.0005176526352)
(-0.0379025268 -0.04363246784 2.914159668e-19 0.03841880599 1.449993811e-19 -0.0005162791908)
(-0.03298055311 -0.04076148712 3.201606467e-19 0.03348809153 -1.164209852e-18 -0.0005075384216)
(-0.02849162432 -0.03802972645 -8.040186733e-20 0.0289823007 1.247623341e-19 -0.0004906763769)
(-0.02434561398 -0.03564134815 8.589268878e-19 0.02481046298 -9.648228087e-19 -0.0004648489977)
(-0.02057577064 -0.03339135818 -5.044750624e-20 0.02100486705 -3.106931531e-19 -0.0004290964057)
(-0.01720116772 -0.03151222023 -5.951086185e-19 0.0175835303 -6.328762739e-19 -0.000382362578)
(-0.01416505501 -0.02980109267 2.868514411e-19 0.01448850659 -4.146803648e-19 -0.0003234515844)
(-0.01160371089 -0.02846810257 1.810565075e-18 0.01185476647 6.235611718e-19 -0.0002510555786)
(-0.009361641133 -0.02738033922 3.045182345e-19 0.009525340963 -1.68617004e-18 -0.0001636998304)
(-0.007708251587 -0.0266427029 4.468272077e-19 0.007768014986 1.410489559e-18 -5.976339934e-05)
(-0.1607674683 -0.0801916751 -6.871447569e-20 0.1608073354 -8.143248697e-19 -3.986716416e-05)
(-0.1446892054 -0.08793137151 -1.295100887e-18 0.1447973846 3.837851264e-19 -0.0001081791321)
(-0.1300817867 -0.09046384011 9.486968009e-19 0.130251208 -2.159131741e-18 -0.0001694213194)
(-0.1170825493 -0.08956452544 -7.716627166e-19 0.1173071242 6.384800627e-19 -0.0002245748719)
(-0.1054038908 -0.08709138236 8.855870692e-19 0.1056783947 -3.004398857e-19 -0.0002745038967)
(-0.09477321402 -0.08335144816 7.76285559e-19 0.09509275539 -1.672171926e-19 -0.0003195413684)
(-0.08524850257 -0.07926676072 1.449033816e-19 0.08560854198 -3.954984775e-19 -0.0003600394146)
(-0.07640994672 -0.07477034516 3.014836296e-19 0.07680598455 -3.893806633e-19 -0.000396037828)
(-0.0684820511 -0.0703431633 6.785561896e-19 0.0689096065 -8.189855671e-19 -0.0004275553957)
(-0.06102367308 -0.06588237038 4.400414015e-19 0.061478106 5.552545234e-19 -0.0004544329241)
(-0.05431235091 -0.06161008876 -8.412688017e-19 0.05478881602 -8.395316192e-19 -0.00047646512)
(-0.04795037385 -0.05749038372 1.83428668e-19 0.04844369784 1.148392344e-19 -0.0004933239912)
(-0.04220318171 -0.05357227875 3.46073221e-19 0.04270780421 1.08733376e-19 -0.0005046224936)
(-0.03674809557 -0.04991013503 -3.539574656e-19 0.0372579696 7.371046465e-19 -0.0005098740311)
(-0.03180394709 -0.04642990901 1.761534201e-19 0.03231246616 6.318329381e-19 -0.0005085190704)
(-0.02713765938 -0.04327145568 -6.077368945e-19 0.0276375664 1.122147229e-18 -0.000499907027)
(-0.02290272193 -0.04027413765 2.67791954e-19 0.0233860182 3.430915441e-19 -0.0004832962642)
(-0.01896480533 -0.03764508875 -1.695094229e-18 0.01942266014 6.914196295e-19 -0.0004578548071)
(-0.01539792972 -0.03517298417 1.67693661e-18 0.01582056803 1.033588098e-18 -0.0004226383109)
(-0.01217815514 -0.03310067333 -3.365203742e-19 0.01255476115 4.077036368e-19 -0.0003766060073)
(-0.009283452698 -0.0312129506 1.650828338e-18 0.009602034076 1.161251991e-18 -0.0003185813779)
(-0.006818552209 -0.02973674241 -1.821711056e-18 0.007065828005 -9.670755186e-19 -0.0002472757956)
(-0.0046430952 -0.02852332988 2.833783128e-18 0.004804332872 8.103887242e-19 -0.0001612376716)
(-0.003022392358 -0.02769711569 -8.925557235e-19 0.003081260243 -1.644326417e-18 -5.886788492e-05)
(-0.1563770527 -0.08906927202 2.018583967e-18 0.1564161873 1.28141237e-19 -3.913463148e-05)
(-0.137930971 -0.0959536952 -1.718383526e-20 0.1380371597 -8.299622689e-19 -0.0001061886748)
(-0.1219741751 -0.09770051745 -2.23345259e-19 0.1221404822 -1.077684118e-19 -0.0001663071487)
(-0.108335967 -0.09609614515 5.137037769e-19 0.1085564127 1.275068259e-18 -0.0002204457358)
(-0.09637994105 -0.09298645756 -6.476704013e-19 0.09664939782 -3.536778554e-19 -0.0002694567718)
(-0.08576193788 -0.08866432647 3.427774319e-19 0.08607560379 5.521927586e-19 -0.000313665908)
(-0.07637921554 -0.08405670827 -7.06268669e-19 0.07673263378 -1.418008868e-19 -0.0003534182331)
(-0.06779798915 -0.0790737184 -5.774722117e-19 0.06818674307 7.799788651e-19 -0.0003887539202)
(-0.06017090293 -0.07420943813 4.437271109e-20 0.06059059307 6.869548011e-19 -0.0004196901416)
(-0.05304790083 -0.06933688016 1.163261107e-19 0.05349397263 7.47838801e-19 -0.0004460718014)
(-0.04668407253 -0.06469364613 3.530406303e-19 0.04715176873 2.804778471e-19 -0.0004676961967)
(-0.04066351008 -0.06022218394 7.763427827e-19 0.04114775255 5.893685418e-19 -0.0004842424785)
(-0.03525933987 -0.05598592862 7.997244402e-19 0.03575466942 1.702975932e-19 -0.0004953295406)
(-0.03011916305 -0.05202199482 5.156389959e-19 0.03061964402 -9.655545496e-19 -0.0005004809613)
(-0.02548860584 -0.04826779332 1.056569614e-18 0.02598775211 -1.937134432e-19 -0.0004991462727)
(-0.02109508304 -0.04485123935 4.020182456e-19 0.0215857715 -1.391982316e-18 -0.0004906884598)
(-0.01713034236 -0.04161906537 9.029061039e-20 0.0176047206 -2.128091265e-19 -0.0004743782416)
(-0.0134145435 -0.03877242337 1.081643019e-18 0.0138639444 -8.683560703e-19 -0.0004494008995)
(-0.01006416517 -0.03610245715 -1.167226321e-18 0.01047899321 -2.277320454e-19 -0.0004148280398)
(-0.007010038009 -0.03385249828 -2.909069472e-19 0.007379678177 -5.641505495e-19 -0.0003696401676)
(-0.004267467181 -0.03180451004 -3.131696051e-19 0.004580148554 -2.4868604e-19 -0.0003126813734)
(-0.001906386737 -0.03019240942 2.405182404e-19 0.002149075798 8.839179913e-19 -0.0002426890611)
(0.0001950805437 -0.02885937986 -2.05880606e-18 -3.684188076e-05 -1.019714317e-18 -0.000158238663)
(0.001779637095 -0.02794431868 1.682107998e-18 -0.001721871253 2.964594659e-20 -5.776584219e-05)
(-0.1514926998 -0.09774696342 -6.003800417e-19 0.1515309795 4.525510948e-19 -3.82796558e-05)
(-0.1307488323 -0.1033155406 2.423262635e-19 0.130852698 -1.018849702e-18 -0.0001038656629)
(-0.1135003843 -0.103995565 -1.694627433e-19 0.1136630548 1.703068402e-18 -0.0001626705347)
(-0.09927038547 -0.1015320849 3.533710819e-19 0.09948601004 -9.096731212e-19 -0.000215624571)
(-0.08707718294 -0.09769824871 2.193539042e-20 0.08734074641 4.894956441e-19 -0.0002635634663)
(-0.0765064683 -0.09275954906 1.381852215e-18 0.07681327403 -6.386683075e-19 -0.0003068057285)
(-0.06729575208 -0.08762056276 3.018001156e-19 0.06764143995 2.174598892e-19 -0.0003456878728)
(-0.05899878834 -0.08216464698 1.036736431e-18 0.05937903867 -7.807960262e-19 -0.0003802503337)
(-0.05169610827 -0.0768874826 2.036600621e-19 0.05210661725 -3.537547717e-19 -0.0004105089795)
(-0.0449303072 -0.07163488459 7.59813226e-19 0.0453666199 -5.680714189e-19 -0.0004363127002)
(-0.03893322906 -0.0666570541 -1.422795759e-18 0.03939069198 -6.776464572e-19 -0.0004574629222)
(-0.03327225169 -0.06187032986 6.813689089e-20 0.03374589754 -1.067641508e-19 -0.0004736458461)
(-0.02822723963 -0.05735478058 -3.97880643e-19 0.02871172851 -7.985034378e-19 -0.0004844888851)
(-0.02341732645 -0.05312410624 -5.417142744e-19 0.02390685213 -2.25586473e-19 -0.0004895256844)
(-0.019114122 -0.04913242512 -1.91054685e-19 0.01960234043 3.946344577e-19 -0.0004882184284)
(-0.01500635206 -0.04548833563 -1.071208471e-19 0.01548629564 6.888875606e-19 -0.0004799435773)
(-0.01132364773 -0.04205264746 3.109877643e-20 0.01178763653 8.680136982e-19 -0.0004639888039)
(-0.007840784518 -0.03901296446 -2.74843328e-19 0.0082803412 -8.238628877e-19 -0.0004395566822)
(-0.004717000134 -0.03616922766 2.164128874e-18 0.005122740449 2.470556072e-18 -0.0004057403149)
(-0.00183730685 -0.033759425 -4.46067174e-19 0.002198848715 -3.342532054e-19 -0.0003615418657)
(0.0007450063636 -0.03156586236 2.588211348e-18 -0.0004391740721 1.882313103e-18 -0.0003058322915)
(0.002995189424 -0.02982849231 -9.746846311e-19 -0.002757813584 -1.567078432e-18 -0.00023737584)
(0.005017042196 -0.02837890386 5.961483004e-19 -0.004862262263 3.543793433e-19 -0.0001547799325)
(0.006559805844 -0.02737757649 -1.501475942e-18 -0.006503295996 -4.239946621e-19 -5.650984715e-05)
(-0.1461163981 -0.106195961 1.01121434e-18 0.146153701 3.031403836e-19 -3.730284214e-05)
(-0.123225391 -0.110000566 -5.709449991e-19 0.1233266057 5.342526596e-19 -0.0001012146704)
(-0.1047931515 -0.1093411632 8.698220507e-20 0.1049516716 -8.398352571e-20 -0.0001585200126)
(-0.09004704143 -0.1058702421 1.389700613e-19 0.09025716443 4.013640939e-19 -0.0002101229947)
(-0.0776739141 -0.1012287454 -8.665128872e-19 0.07793075234 -3.498475046e-19 -0.0002568382452)
(-0.06719300297 -0.09564194835 5.14594265e-19 0.06749198028 -3.393225733e-19 -0.000298977309)
(-0.05818765913 -0.08996523544 -4.085905783e-19 0.05852452524 -4.357822782e-19 -0.0003368661152)
(-0.05020135417 -0.08405155778 -4.136696543e-19 0.05057190021 -3.915939623e-19 -0.0003705460352)
(-0.04324422728 -0.07838682249 7.82198257e-19 0.04364425796 2.710825944e-20 -0.0004000306832)
(-0.03685358568 -0.07278677602 1.073044774e-18 0.03727876001 3.680804705e-20 -0.0004251743321)
(-0.0312377726 -0.06751131329 1.244780341e-18 0.03168355463 2.647142885e-19 -0.0004457820289)
(-0.02594963859 -0.06244634686 1.499978727e-19 0.02641118782 3.773696904e-19 -0.0004615492369)
(-0.02127453688 -0.05769074295 3.915901676e-19 0.02174664844 9.679755269e-19 -0.0004721115636)
(-0.0168053742 -0.05322866987 7.254223803e-19 0.01728239002 2.155285928e-19 -0.0004770158199)
(-0.0128380793 -0.04903636328 7.810651938e-19 0.01331381591 1.299849957e-18 -0.0004757366157)
(-0.009024808681 -0.0451953032 3.405696373e-19 0.00949247662 -2.974352765e-19 -0.0004676679396)
(-0.005631437731 -0.04158804009 -6.680670907e-19 0.00608355207 -1.267906117e-18 -0.0004521143396)
(-0.002389049409 -0.03837931456 -4.400454538e-20 0.002817350144 7.856308515e-19 -0.0004283007358)
(0.0005014471359 -0.03538717973 5.051776137e-19 -0.0001061051591 -1.2091999e-18 -0.0003953419768)
(0.00320017816 -0.03283381048 -7.725289757e-19 -0.002847910231 -1.019687771e-18 -0.0003522679289)
(0.005615612923 -0.03051189899 -7.232915005e-19 -0.005317635488 -1.098675234e-18 -0.0002979774355)
(0.00774946441 -0.02865720398 1.122746879e-18 -0.007518195556 -1.46644923e-18 -0.0002312688542)
(0.009684849833 -0.02709780152 -1.663913207e-18 -0.009534063855 4.98475317e-20 -0.0001507859788)
(0.01118200493 -0.02600940992 1.723502534e-18 -0.01112696389 -2.751201983e-19 -5.504104252e-05)
(-0.1402520114 -0.1143860099 -1.491313806e-19 0.1402882211 5.939492059e-19 -3.620965779e-05)
(-0.115442188 -0.1160043501 5.355979777e-19 0.1155404348 -7.008314765e-19 -9.824673886e-05)
(-0.09598228888 -0.113749904 -6.763073316e-19 0.09613616098 1.424955483e-18 -0.0001538720989)
(-0.08082304501 -0.1091337073 8.301166869e-19 0.0810270071 -7.590090284e-19 -0.0002039620928)
(-0.06834351377 -0.1036080956 -5.677895723e-19 0.06859282086 1.611427954e-19 -0.0002493070934)
(-0.05800236853 -0.09734590688 -3.518709627e-20 0.05829257942 8.407055468e-19 -0.0002902108814)
(-0.04923877272 -0.09112786332 6.561261803e-19 0.04956576069 3.383982234e-19 -0.0003269879714)
(-0.04158886311 -0.08477310464 -5.66069761e-19 0.04194854328 8.582508649e-19 -0.00035968017)
(-0.03499585425 -0.07874692441 -7.903397515e-19 0.03538415368 1.45178997e-19 -0.0003882994321)
(-0.02899451257 -0.07283234867 -4.625134731e-19 0.02940721769 8.93294627e-19 -0.0004127051229)
(-0.02376971234 -0.06729616035 -3.138963651e-19 0.0242024199 -9.87250382e-19 -0.0004327075594)
(-0.01886293227 -0.06198982718 5.619793545e-19 0.01931094354 8.655193106e-19 -0.0004480112707)
(-0.01456315356 -0.05703298561 -1.235809711e-19 0.01502141624 -1.497976576e-18 -0.0004582626743)
(-0.01044061071 -0.05237462091 -4.147663246e-19 0.01090363226 -4.190354368e-19 -0.0004630215523)
(-0.006812668069 -0.04801796689 9.122646531e-19 0.007274446587 -8.26170576e-19 -0.000461778518)
(-0.003298689082 -0.04401045122 9.594452039e-20 0.003752633951 -1.763405486e-18 -0.0004539448693)
(-0.0001974507743 -0.04026281343 9.551693877e-19 0.0006362973407 8.234511923e-19 -0.0004388465663)
(0.002799900885 -0.03690948924 -1.834880121e-19 -0.002384170182 -1.662392226e-18 -0.0004157307033)