/*--------------------------------*- C++ -*----------------------------------*\
| =========                 |                                                 |
| \\      /  F ield         | foam-extend: Open Source CFD                    |
|  \\    /   O peration     | Version:  3.0                                   |
|   \\  /    A nd           | Web:         http://www.extend-project.de       |
|    \\/     M anipulation  |                                                 |
\*---------------------------------------------------------------------------*/
FoamFile
{
    version     2.0;
    format      ascii;
    class       volScalarField;
    location    "37";
    object      p;
}
// * * * * * * * * * * * * * * * * * * * * * * * * * * * * * * * * * * * * * //

dimensions      [0 0 0 0 0 0 0];

internalField   nonuniform List<scalar> 
672
(
-0.2331155215
-0.1978052606
-0.1868226301
-0.1682084467
-0.1658446773
-0.1551242859
-0.1563655885
-0.1498575293
-0.1517376701
-0.1471127029
-0.1469896051
-0.1419913443
-0.230199712
-0.1953332462
-0.1844886097
-0.1661088094
-0.1637748707
-0.1531901231
-0.154415786
-0.1479905338
-0.149847189
-0.1452798834
-0.1451594885
-0.1402175704
-0.2243837616
-0.1904000831
-0.1798306636
-0.1619165823
-0.1596427097
-0.1493257759
-0.1505213105
-0.1442581583
-0.1460675723
-0.1416159213
-0.1414958169
-0.1366823329
-0.2157525007
-0.1830782467
-0.1729162847
-0.1556932995
-0.1535074176
-0.1435894632
-0.1447392352
-0.1387189467
-0.1404591496
-0.1361789868
-0.1360648805
-0.1314313093
-0.2044019045
-0.1734488992
-0.1638229929
-0.147508087
-0.1454383886
-0.1360436067
-0.1371335746
-0.13143102
-0.1330789104
-0.1290249031
-0.1289136028
-0.1245248153
-0.1904879835
-0.1616443933
-0.1526748633
-0.1374728955
-0.135544916
-0.1267920374
-0.1278082491
-0.1224961135
-0.1240318257
-0.1202545984
-0.1201507323
-0.1160564298
-0.1741713072
-0.1478012164
-0.1396016251
-0.1257045524
-0.1239430345
-0.1159423303
-0.1168723783
-0.1120173354
-0.113421416
-0.1099689319
-0.1098723955
-0.1061276785
-0.1556723132
-0.1321057288
-0.1247785508
-0.112360126
-0.1107869471
-0.1036384594
-0.1044703413
-0.1001332671
-0.1013874034
-0.09830287349
-0.09821381381
-0.09486329987
-0.1352071484
-0.1147423267
-0.1083802521
-0.09759802698
-0.09623306106
-0.09002787136
-0.09075130643
-0.08698758495
-0.08807704136
-0.08539944214
-0.08532151514
-0.08240742007
-0.1130504646
-0.09594256904
-0.09062520004
-0.08161291756
-0.08047351647
-0.07528774728
-0.07589386073
-0.07274912788
-0.07365955152
-0.07142220133
-0.07135378267
-0.06891614753
-0.08946249049
-0.07592906901
-0.07172350119
-0.06459652466
-0.06369642834
-0.0595975938
-0.06007789832
-0.05759399723
-0.05831381449
-0.05654543847
-0.05648955927
-0.05455250617
-0.06475885253
-0.05496740875
-0.05192639599
-0.04677174074
-0.04612304796
-0.04315951198
-0.04350924938
-0.04171403466
-0.042235128
-0.04095693607
-0.04091317737
-0.03951152479
-0.03923051335
-0.0333069465
-0.03146869055
-0.02835368589
-0.02796342736
-0.02617556047
-0.0263886475
-0.02530801125
-0.02562273273
-0.02485161669
-0.02482220522
-0.02396189006
-0.01321839811
-0.01123423832
-0.01062190101
-0.009582635637
-0.009456811544
-0.008863155086
-0.008938535229
-0.008581811922
-0.008687120475
-0.008431534675
-0.008414650716
-0.008119698843
0.01297035331
0.01098727301
0.01036615407
0.009313906815
0.009174972674
0.008563565365
0.008628396997
0.008253258305
0.008358768774
0.008095118092
0.008095101633
0.007832946926
0.0389867236
0.03306428952
0.03121743591
0.02809005329
0.02768704765
0.02588227666
0.02608523563
0.02498709408
0.02530240118
0.02452371088
0.02451142951
0.02368340277
0.06452263437
0.05473259437
0.05168338407
0.04651760491
0.04585674638
0.04287808351
0.04321787563
0.04140734097
0.04192786684
0.04064358566
0.04061390537
0.03924062132
0.08923862097
0.07570674155
0.07149348723
0.06435705071
0.06344574636
0.0593341241
0.05980534881
0.0573087434
0.05802806335
0.05625511153
0.05621209218
0.05430043124
0.1128410184
0.09573512972
0.09041085305
0.08139133151
0.08024197995
0.07504643807
0.07564448182
0.07249040727
0.07339998926
0.07115992284
0.07110181362
0.068684518
0.1350169896
0.1145543303
0.1081860916
0.09739898309
0.09602538711
0.08981375318
0.09052993218
0.08676072089
0.08784796476
0.08516989632
0.08509751585
0.08219684896
0.1555020488
0.1319381834
0.1246058806
0.1121853267
0.1106052281
0.1034539236
0.1042801839
0.09994141986
0.1011938123
0.0981106086
0.09802542098
0.09468310293
0.1740255642
0.147658265
0.1394544349
0.1255577888
0.1237909365
0.1157910198
0.116716525
0.1118638834
0.1132650307
0.1098161255
0.1097187363
0.1059749086
0.1903657846
0.161525532
0.1525528606
0.1373541402
0.1354224852
0.126674106
0.1276870037
0.1223812881
0.1239133396
0.1201418037
0.120033274
0.1159331566
0.2043074238
0.1733576392
0.1637295479
0.1474200792
0.1453484448
0.1359612486
0.1370494519
0.1313566162
0.1330011011
0.1289543518
0.1288365621
0.1244373437
0.2156832668
0.1830126711
0.172849498
0.1556343504
0.1534479215
0.1435405789
0.1446894201
0.1386820553
0.1404176048
0.1361463444
0.1360214064
0.1313709539
0.2243433237
0.1903629192
0.1797932479
0.1618882998
0.1596155103
0.1493110716
0.1505070818
0.1442587516
0.1460638013
0.1416216068
0.1414891007
0.1366551306
0.2301843537
0.1953214288
0.1844772764
0.1661081939
0.1637764532
0.153205863
0.1544329906
0.1480238801
0.1498762596
0.1453185108
0.145184251
0.140218321
0.2331280304
0.1978207886
0.1868394035
0.1682360853
0.1658758432
0.1551698291
0.1564135971
0.1499217693
0.151797524
0.1471816275
0.1470427867
0.1420181491
0.2331415291
0.1978341791
0.1868526831
0.1682498589
0.1658894353
0.155184409
0.1564279656
0.1499371296
0.1518132694
0.1471968847
0.1470601004
0.1420293404
0.2302208193
0.1953570479
0.184514439
0.1661448412
0.1638151668
0.1532433994
0.1544723876
0.1480613935
0.1499144353
0.1453555364
0.1452193004
0.1402580734
0.2244064773
0.1904248986
0.1798565854
0.1619519699
0.1596809397
0.1493771256
0.1505745135
0.1443262114
0.1461322134
0.141688168
0.141556626
0.136715749
0.2157676118
0.1830954089
0.172935119
0.1557197131
0.1535370633
0.1436288308
0.1447810128
0.1387715149
0.1405088446
0.1362352497
0.1361091156
0.131461283
0.2044175111
0.173465469
0.1638401922
0.1475308971
0.1454629845
0.1360761242
0.1371673468
0.1314738214
0.1331198819
0.1290704688
0.1289525686
0.1245470595
0.1904936446
0.1616512551
0.1526826759
0.1374842551
0.1355578511
0.126809413
0.1278267449
0.1225195113
0.1240538441
0.1202795909
0.1201699573
0.1160689597
0.1741775107
0.1478069439
0.1396073193
0.1257107541
0.1239495855
0.1159498362
0.1168801919
0.11202633
0.1134301707
0.1099780987
0.1098802892
0.1061320674
0.1556669849
0.1321006686
0.1247735182
0.1123540318
0.110780466
0.1036302838
0.1044618917
0.1001227486
0.1013776851
0.09829179053
0.09820520173
0.0948575298
0.1352035228
0.114736748
0.1083739383
0.09758693076
0.09622077731
0.09000935713
0.09073200951
0.08696144932
0.08805215129
0.08537085113
0.08529706498
0.08239337407
0.1130347785
0.09592630179
0.09060804655
0.08159045093
0.08044871578
0.0752556363
0.07585994445
0.07270688164
0.07361972657
0.0713773353
0.07131857988
0.06889255107
0.08945056802
0.07591396244
0.0717070712
0.06457089931
0.06366834834
0.05955730908
0.06003606331
0.0575386416
0.05826146741
0.05648602071
0.05643992231
0.05452594386
0.06473549898
0.05494286046
0.05190027519
0.04673721699
0.04608470301
0.04310981923
0.0434564637
0.04164851963
0.04217281459
0.04088713931
0.04085759905
0.0394734839
0.03921347274
0.03328597145
0.03144603783
0.02831915797
0.02792568141
0.02612201237
0.02633312308
0.02523496757
0.02555389053
0.02477371752
0.02475771017
0.0239282907
0.01319159522
0.01120597056
0.01059176536
0.009542745338
0.009412455122
0.008805713
0.008877493213
0.008506169758
0.008615227535
0.008351186336
0.008350937402
0.00807651792
-0.01298832848
-0.01100930738
-0.01038992395
-0.00934998014
-0.009214431634
-0.008619319693
-0.008686325246
-0.008329115782
-0.008430507809
-0.008175895899
-0.008162304328
-0.007868173471
-0.03901208258
-0.03309098968
-0.0312458584
-0.02812758726
-0.02772876222
-0.025936158
-0.02614244674
-0.02505780934
-0.02536933896
-0.02459830983
-0.02456978545
-0.0237218209
-0.06453717352
-0.05475067638
-0.05170295164
-0.04654759078
-0.04588963814
-0.0429246178
-0.04326639325
-0.04147066751
-0.04198799521
-0.04071090145
-0.04067010627
-0.03926997728
-0.0892579441
-0.07572691359
-0.07151483666
-0.06438503587
-0.06347680597
-0.05937401486
-0.05984778034
-0.0573608569
-0.05807748962
-0.05630978525
-0.05625475394
-0.05432810414
-0.1128484257
-0.09574503421
-0.09042172571
-0.0814088466
-0.08026130181
-0.0750742829
-0.07567355189
-0.07252859783
-0.07343606375
-0.07120030937
-0.07113494489
-0.06870068246
-0.1350268772
-0.114564307
-0.108196403
-0.09741215098
-0.09603987211
-0.08983210335
-0.09054954666
-0.08678450172
-0.08787087323
-0.08519491601
-0.08511769869
-0.08221065209
-0.1555000444
-0.1319372985
-0.1246052939
-0.1121864701
-0.1106066995
-0.1034573856
-0.1042838175
-0.09994709209
-0.1011988824
-0.09811675458
-0.09802991147
-0.09468433235
-0.1740244744
-0.1476563742
-0.1394519104
-0.1255537531
-0.1237861009
-0.1157844307
-0.1167094282
-0.1118549475
-0.1132566674
-0.1098068036
-0.1097119212
-0.1059712563
-0.1903539637
-0.1615133538
-0.1525403352
-0.137338177
-0.1354053702
-0.1266521487
-0.1276642799
-0.122353176
-0.1238867077
-0.120112836
-0.1200095117
-0.115921265
-0.2042959888
-0.1733445172
-0.1637149531
-0.1473997544
-0.145325369
-0.1359310222
-0.1370170096
-0.1313165786
-0.1329628003
-0.1289120913
-0.1288032774
-0.1244157751
-0.2156631795
-0.1829908847
-0.172826929
-0.15560383
-0.1534150678
-0.1434969526
-0.144644236
-0.1386250059
-0.1403636458
-0.1360868914
-0.1359724838
-0.1313461402
-0.2243242338
-0.1903413812
-0.1797697746
-0.1618557658
-0.1595789234
-0.1492630768
-0.1504558229
-0.1441952155
-0.1460032966
-0.1415544243
-0.141436343
-0.136620731
-0.2301591846
-0.1952935873
-0.1844485156
-0.1660685441
-0.1637337593
-0.1531485511
-0.1543735669
-0.1479483394
-0.1498045446
-0.1452390678
-0.1451180163
-0.1401832885
-0.2331055554
-0.1977953604
-0.1868118898
-0.1681979354
-0.1658330471
-0.1551135771
-0.1563536352
-0.1498471482
-0.1517265919
-0.1471023929
-0.1469804812
-0.1419769429
)
;

boundaryField
{
    out
    {
        type            implicitExtrapolation;
    }
    in
    {
        type            implicitExtrapolation;
    }
    frontAndBack
    {
        type            empty;
    }
}


// ************************************************************************* //
