/*--------------------------------*- C++ -*----------------------------------*\
| =========                 |                                                 |
| \\      /  F ield         | foam-extend: Open Source CFD                    |
|  \\    /   O peration     | Version:  3.0                                   |
|   \\  /    A nd           | Web:         http://www.extend-project.de       |
|    \\/     M anipulation  |                                                 |
\*---------------------------------------------------------------------------*/
FoamFile
{
    version     2.0;
    format      ascii;
    class       volVectorField;
    location    "76";
    object      u;
}
// * * * * * * * * * * * * * * * * * * * * * * * * * * * * * * * * * * * * * //

dimensions      [0 0 0 0 0 0 0];

internalField   nonuniform List<vector> 
2688
(
(0.2810535341 -0.05102048721 7.452955951e-17)
(0.1573741193 -0.04148264215 -1.097669199e-16)
(0.5757440097 -0.03587407164 1.948192331e-16)
(0.4137731562 -0.02732381466 -8.395324515e-17)
(0.7464686952 -0.02606197763 1.115972704e-16)
(0.5808726773 -0.01880130246 -3.197302166e-17)
(0.8526226082 -0.01922383378 9.505334761e-18)
(0.6937436618 -0.01345478238 6.06302196e-17)
(0.9227980292 -0.01420029997 -6.76007715e-17)
(0.7715321518 -0.00995256345 8.641321926e-17)
(0.971657784 -0.01036994192 -2.967570264e-17)
(0.8255299184 -0.007540853822 4.703609458e-17)
(1.007099706 -0.007365096687 3.123705725e-17)
(0.8627728071 -0.005780252097 -9.183729542e-17)
(1.033552788 -0.0049505818 1.084303834e-16)
(0.8878221073 -0.004401637641 -1.143647238e-16)
(1.053561672 -0.002973337458 1.095742111e-16)
(0.9037471188 -0.003220434075 -7.333314385e-17)
(1.068558811 -0.001343583725 1.806250049e-17)
(0.9127256379 -0.002083572924 2.008291127e-17)
(1.079232697 -2.805202052e-05 -3.428427316e-17)
(0.9164443905 -0.0008505187759 1.575686665e-17)
(1.085689439 0.000981733761 -4.183225117e-17)
(0.9163727944 0.0008741235866 1.443176188e-17)
(0.2926287305 -0.154068983 -2.350049883e-16)
(0.166797525 -0.1255785515 3.843048544e-18)
(0.5839256713 -0.1087758219 -3.94745228e-16)
(0.4200260874 -0.08323164333 4.866097422e-17)
(0.7524538558 -0.07946947711 -1.924187738e-16)
(0.5852211453 -0.0577699018 -3.236001273e-17)
(0.8570779419 -0.05907316877 -1.095810006e-17)
(0.6968996435 -0.04182948697 -1.552068699e-16)
(0.9261296216 -0.04411337408 8.302871118e-17)
(0.7739083433 -0.03142259149 -1.369564942e-16)
(0.9741311223 -0.0327256805 6.035171484e-18)
(0.8273707003 -0.02429121766 -1.144974186e-16)
(1.008897747 -0.0238050833 3.077710278e-17)
(0.8642252765 -0.01911743958 1.303458494e-17)
(1.034806383 -0.01664510674 -3.696411821e-17)
(0.8889740128 -0.0150933177 7.694757656e-17)
(1.054369619 -0.01078950834 -7.072142917e-17)
(0.9046446487 -0.01166907219 1.18979942e-17)
(1.06900453 -0.005973421215 9.95758547e-17)
(0.9133766788 -0.008401506682 -1.263095196e-16)
(1.079399499 -0.002095297508 1.238593889e-16)
(0.9168126816 -0.004879494254 -2.666246224e-17)
(1.085669965 0.0008373538695 6.282063013e-17)
(0.9163625354 -0.0004058101618 2.902895677e-17)
(0.3156533553 -0.2551609602 4.28125778e-16)
(0.1855794983 -0.2080199934 1.108985276e-16)
(0.600201174 -0.1802468827 4.970936077e-16)
(0.432497225 -0.1380128754 -2.474584229e-17)
(0.7643643279 -0.1318006525 2.402198462e-16)
(0.5938972036 -0.09593017902 1.066357005e-16)
(0.8659525936 -0.09810599612 -5.061738726e-18)
(0.7032022725 -0.06959576775 2.316687917e-16)
(0.9327803096 -0.07340588609 -6.557606422e-17)
(0.7786646093 -0.0524174998 2.158045334e-16)
(0.9790913261 -0.05461392332 2.443822053e-17)
(0.8310709115 -0.04066418546 1.343123776e-16)
(1.012535308 -0.03990142928 -3.382381195e-17)
(0.8671634779 -0.03215849096 -4.613795579e-17)
(1.037380679 -0.02809656462 6.150731932e-17)
(0.8913255295 -0.02556883968 -1.876819013e-16)
(1.056065005 -0.01843527148 2.105184017e-16)
(0.9065084385 -0.01999590755 -1.696395433e-16)
(1.069953951 -0.01046017927 -2.546859852e-17)
(0.9147969211 -0.01472255236 4.965408339e-17)
(1.079708926 -0.003978866961 -5.619071915e-17)
(0.9177829109 -0.009074200073 -7.942409266e-17)
(1.08545924 0.0009765534745 -4.223109946e-17)
(0.9167798062 -0.002024648589 -3.160847505e-17)
(0.3498725152 -0.3530482117 -4.655135255e-16)
(0.2134730769 -0.287910011 -2.808858702e-16)
(0.6244039115 -0.2494970686 -6.079816758e-16)
(0.4510300014 -0.1911254627 1.838543074e-17)
(0.7820876209 -0.1825328835 -3.345151069e-16)
(0.6068066424 -0.1329511789 -7.574196601e-17)
(0.8791682749 -0.1359611375 -7.525758787e-17)
(0.7125936906 -0.09655433763 -1.908565161e-16)
(0.9426900422 -0.1018244145 -7.286935789e-17)
(0.7857606691 -0.07281839566 -1.746757386e-16)
(0.986483483 -0.07585545883 -8.587353739e-17)
(0.8365955148 -0.05658256921 -1.549678625e-16)
(1.017953632 -0.05552548295 1.205200626e-16)
(0.8715498974 -0.04483292031 -3.753069881e-17)
(1.041213564 -0.03921599689 7.983001468e-17)
(0.8948289688 -0.03572246741 7.528816573e-17)
(1.058602981 -0.0258780821 -8.256008421e-17)
(0.9092616474 -0.02800049926 7.28353698e-17)
(1.071435442 -0.01489330245 7.603447853e-17)
(0.9168291397 -0.02067479321 -1.128816321e-16)
(1.080360336 -0.006005306176 1.405295747e-16)
(0.9190193193 -0.01283571801 8.783609878e-17)
(1.085514889 0.0007614494322 -2.634848797e-17)
(0.9170323539 -0.003225383683 1.835314508e-16)
(0.3948181783 -0.44648008 4.992372263e-16)
(0.250130148 -0.3641047938 2.546895482e-16)
(0.6561749641 -0.3155550777 7.195743738e-16)
(0.4753776208 -0.241756414 -5.047840547e-17)
(0.8053421141 -0.2309036423 3.270709644e-16)
(0.6237545573 -0.1682213325 1.392171008e-16)
(0.8965019544 -0.1720414735 3.251311396e-17)
(0.7249131879 -0.1222181 1.973333559e-16)
(0.9556858746 -0.1289022354 1.487551491e-16)
(0.7950642051 -0.09222328201 1.91098035e-16)
(0.9961819352 -0.09609002708 -5.123460389e-17)
(0.8438393003 -0.07171512752 2.616042114e-16)
(1.02507314 -0.07040789254 -2.387222137e-16)
(0.8773071728 -0.0568865915 1.810583419e-16)
(1.046264085 -0.04980741819 -2.55168152e-16)
(0.8994401931 -0.04540888198 -6.178338379e-17)
(1.061953665 -0.03295356859 2.380455158e-17)
(0.9129144812 -0.03571224157 -6.425138573e-17)
(1.073361964 -0.01904318765 -3.010813441e-17)
(0.9195967501 -0.02655752721 2.871464948e-17)
(1.081089645 -0.007723370343 -1.335233859e-16)
(0.9208630437 -0.01678792279 -3.150646487e-17)
(1.085300054 0.0009509124796 -1.493113112e-16)
(0.9177252742 -0.004791877923 -5.130335004e-18)
(0.449956373 -0.5342992866 -3.844430508e-16)
(0.2950999134 -0.4357798935 -2.392334027e-16)
(0.6951783334 -0.3776813989 -5.292422327e-16)
(0.5052646094 -0.2894086592 -4.389082777e-17)
(0.8339113947 -0.2764161637 -1.867273292e-16)
(0.6445800173 -0.2014370497 -2.702429637e-16)
(0.9178145564 -0.2060024512 7.18270562e-17)
(0.7400713678 -0.1464070278 -2.730173389e-16)
(0.9716785369 -0.1543987107 -2.908171971e-16)
(0.8065269792 -0.1105303629 3.104859782e-17)
(1.008125945 -0.1151490586 -8.561893843e-18)
(0.852773717 -0.0860020401 -1.435582118e-16)
(1.033845836 -0.08442829972 9.124152528e-17)
(0.8844098887 -0.06826281769 -4.475910014e-18)
(1.052492249 -0.05978812884 1.10051196e-16)
(0.9051183825 -0.05451807025 1.17751755e-16)
(1.066105296 -0.03964100666 1.645960749e-16)
(0.9173769606 -0.04287748163 -7.265335588e-17)
(1.075817701 -0.02304484748 1.617282676e-16)
(0.9228927822 -0.03185440426 -1.043317467e-16)
(1.082199538 -0.009588727492 2.645657883e-16)
(0.9229028578 -0.02010817737 -8.926496199e-18)
(1.085403755 0.0007091374145 2.183761648e-16)
(0.9182865621 -0.005892184297 -1.777779395e-17)
(0.5145693717 -0.6153851168 -5.513302608e-17)
(0.3477946691 -0.5019096447 1.159431702e-16)
(0.7408538503 -0.4350143084 5.389401027e-16)
(0.5402678952 -0.3333530564 -5.586183057e-17)
(0.867344393 -0.3184021329 6.503776717e-17)
(0.6689488164 -0.2320509902 2.988453674e-16)
(0.9427365169 -0.2373233864 2.178795939e-18)
(0.7577879425 -0.1686841182 -1.429998549e-17)
(0.9903647971 -0.1779071619 4.329501109e-16)
(0.8199082094 -0.1273755228 -1.988358838e-16)
(1.022072044 -0.1327186122 -1.408431402e-16)
(0.8631935441 -0.0991397734 3.530841596e-16)
(1.044085529 -0.09735277273 -3.055587326e-16)
(0.892691632 -0.0787308069 2.991931616e-16)
(1.059762948 -0.06898739448 -4.175259692e-16)
(0.9117491554 -0.06293863928 1.914775499e-16)
(1.07094922 -0.04578338331 -3.897206213e-16)
(0.9226194329 -0.04960147311 1.809384904e-16)
(1.078654029 -0.02662984473 -1.947345943e-16)
(0.9268351855 -0.03702578461 8.827171368e-18)
(1.083386749 -0.01102259068 -1.656272708e-16)
(0.925459295 -0.0236463094 -2.7007169e-16)
(1.085323668 0.0009698978555 1.934961941e-16)
(0.9191126587 -0.007343735345 -6.584768069e-16)
(0.5878612943 -0.6887342054 6.156571935e-16)
(0.4075840166 -0.5617736529 -4.155134239e-16)
(0.792699968 -0.4869017246 7.6482475e-17)
(0.5800090567 -0.3731527048 -3.90717374e-16)
(0.9053254291 -0.3564118484 2.566089437e-16)
(0.6966454928 -0.259793014 -4.337864631e-16)
(0.9710767424 -0.2656849786 1.980495698e-16)
(0.7779530745 -0.1888875039 -4.886033318e-17)
(1.011638873 -0.1991996466 -6.617198158e-17)
(0.835164009 -0.1426678116 9.014308517e-17)
(1.037970031 -0.148634789 2.349148533e-16)
(0.8750917878 -0.1110767041 -3.2531739e-16)
(1.055773727 -0.1090599902 1.944648165e-16)
(0.9021576433 -0.08823993169 -3.022835262e-16)
(1.06807393 -0.07731869223 4.473262521e-16)
(0.9193219984 -0.07055826084 -4.181308243e-16)
(1.076502137 -0.05136202292 5.478108963e-16)
(0.9285751041 -0.05560061017 -4.330841015e-16)
(1.08194371 -0.02996713459 4.176176444e-16)
(0.9312492814 -0.04146261822 -3.280685604e-16)
(1.08484647 -0.01258687157 5.853738396e-16)
(0.9282521877 -0.02642330225 -2.220303485e-16)
(1.085363463 0.0007454237356 1.829275597e-16)
(0.9200331074 -0.008267045013 1.450367576e-16)
(0.668899799 -0.7534080475 -9.5341241e-16)
(0.4736766389 -0.6145235218 4.377556939e-16)
(0.8499894784 -0.5326357256 -4.338808206e-16)
(0.6239143877 -0.4082096763 4.613278212e-16)
(0.9472604579 -0.3899096404 -8.514602938e-17)
(0.7272134086 -0.2842189684 8.326554472e-17)
(1.002336624 -0.2906790875 -1.932658865e-16)
(0.8001775547 -0.2066646657 1.051281586e-17)
(1.035076944 -0.217963987 -1.952035342e-16)
(0.8519505965 -0.1561129002 3.361618925e-17)
(1.055461688 -0.1626627283 -4.430701694e-16)
(0.8881638028 -0.1215658911 5.756973208e-16)
(1.068615787 -0.11938187 -4.831978832e-16)
(0.9125477384 -0.09660333233 5.958657739e-16)
(1.077193915 -0.08466431143 -5.373269396e-16)
(0.9276388227 -0.07729774222 6.166073181e-16)
(1.082590203 -0.05625562698 -5.776885603e-16)
(0.9351374591 -0.0610057214 5.412421688e-16)
(1.085552368 -0.03279251846 -2.516412243e-16)
(0.936141645 -0.04565925895 8.137972422e-17)
(1.086468403 -0.01365566224 -1.220119048e-16)
(0.9313422372 -0.02935009488 -3.210343299e-16)
(1.085483978 0.001062669326 5.127809038e-16)
(0.9209361062 -0.009556811283 -1.045155133e-15)
(0.7566717323 -0.8086096984 1.02002734e-15)
(0.5452836425 -0.6595738582 -1.050628609e-15)
(0.9120782169 -0.5716815849 1.205757338e-15)
(0.6715133643 -0.4381588857 -8.451645399e-16)
(0.9927477253 -0.4185087549 4.810890337e-16)
(0.7603899794 -0.3050933803 -2.242213017e-16)
(1.036282444 -0.3120162841 3.371954806e-16)
(0.8243369251 -0.2218661591 9.428338472e-17)
(1.060564846 -0.2339811112 3.959438355e-16)
(0.8702338273 -0.1676200574 -4.516759464e-17)
(1.074515085 -0.174633668 3.936154788e-16)
(0.9024302535 -0.1305512418 -3.702325114e-16)
(1.082629724 -0.1281838063 2.631606487e-16)
(0.9239074848 -0.1037684801 -5.78259258e-16)
(1.0871615 -0.09092061296 4.093728016e-16)
(0.9367420655 -0.08305584571 -8.035262175e-16)
(1.089244862 -0.06042788673 6.418981228e-16)
(0.9423239749 -0.06557373137 -8.197801018e-16)
(1.089474456 -0.03525631524 5.000166611e-16)
(0.9415120113 -0.04908994176 -4.34670189e-16)
(1.088170098 -0.01477396301 5.273581216e-16)
(0.9347923323 -0.03152828963 -2.12003283e-16)
(1.085475616 0.0009018830794 1.812463752e-16)
(0.9221184744 -0.01022030922 3.525834767e-16)
(0.8500708801 -0.8536289097 -5.428883674e-16)
(0.6214625711 -0.6962993373 6.610870284e-16)
(0.978109309 -0.6035251029 -5.140927019e-16)
(0.7221214695 -0.4625727541 1.573153433e-16)
(1.041082783 -0.4418413262 -6.460441451e-17)
(0.7956255729 -0.3221098032 -1.927004337e-16)
(1.072313287 -0.3294339259 -2.324358966e-16)
(0.8499554272 -0.2342558114 -3.805977028e-16)
(1.087579324 -0.2470649963 -3.855745151e-16)
(0.8895841692 -0.1769947657 -1.46349205e-16)
(1.094673889 -0.1844218976 -4.250028354e-16)
(0.9174996595 -0.1378689682 5.261683211e-16)
(1.097425939 -0.1353917262 -5.156891215e-16)
(0.9358885484 -0.1096084717 8.470112572e-16)
(1.09766034 -0.09605294194 -4.632068401e-16)
(0.9463410872 -0.08777083588 9.701122957e-16)
(1.096233265 -0.06384462261 -6.212018389e-16)
(0.9499164288 -0.06936943076 8.479099477e-16)
(1.093576478 -0.037223064 -3.693121932e-16)
(0.9472011063 -0.05205234426 1.850198724e-16)
(1.089952127 -0.0155200616 -6.67840368e-17)
(0.9384104054 -0.0336100885 -4.794102025e-16)
(1.08553577 0.001113347792 4.521765984e-16)
(0.9231845397 -0.01121233001 -8.566317222e-16)
(0.9479224224 -0.887915523 4.213740364e-16)
(0.7012925781 -0.7242767937 -5.347431871e-16)
(1.047326136 -0.6277703894 5.388862745e-16)
(0.7751871758 -0.4811683245 -2.927641986e-16)
(1.091793482 -0.4595936289 2.669386829e-16)
(0.8326147513 -0.335067558 1.736128472e-16)
(1.110160664 -0.3426738409 2.073355786e-16)
(0.8768946119 -0.2436901658 5.024005987e-16)
(1.116001421 -0.2570001354 3.963843093e-16)
(0.9099758285 -0.1841361931 1.751240204e-16)
(1.115925781 -0.1918441333 2.390963545e-16)
(0.933417914 -0.1434476129 -3.23788588e-16)
(1.113060416 -0.1408457101 3.873352452e-16)
(0.948573994 -0.114062804 -6.742023004e-16)
(1.108778735 -0.09992462055 3.571846163e-16)
(0.9565262076 -0.09136171143 -9.700874371e-16)
(1.103641599 -0.06641821597 4.393666504e-16)
(0.9579948725 -0.07223754405 -6.297532949e-16)
(1.097904752 -0.03872854462 2.508816092e-16)
(0.9532991946 -0.05423597662 -4.084463562e-16)
(1.091764832 -0.01618016527 4.295914761e-16)
(0.9423927331 -0.0350359985 -1.425279235e-16)
(1.085434063 0.00105357611 2.277468694e-16)
(0.9245953211 -0.01169725156 1.657370505e-16)
(1.048998541 -0.9110227993 -1.177529161e-16)
(0.7837405089 -0.7431367261 5.199851145e-17)
(1.118789299 -0.6441282398 -4.560841502e-18)
(0.8299632459 -0.4937166902 -1.802288085e-16)
(1.144106948 -0.4715936182 -6.583498471e-17)
(0.8707535157 -0.3438241587 -5.85094122e-17)
(1.149157613 -0.3516452307 -2.515737876e-16)
(0.904624016 -0.2500748113 -3.953584598e-16)
(1.145238987 -0.2637520538 -2.652092957e-16)
(0.9309199917 -0.1889743392 -1.733271599e-17)
(1.137741492 -0.1969073393 -3.351286741e-16)
(0.9497278979 -0.1472297138 4.89551857e-16)
(1.129068978 -0.1445852343 -7.48641034e-16)
(0.9615418548 -0.1170858325 9.743414192e-16)
(1.120130362 -0.1025973545 -6.891325068e-16)
(0.9669193189 -0.0938074984 9.884854039e-16)
(1.111181688 -0.06820772334 -4.388954521e-16)
(0.9662255136 -0.07421358868 5.245475636e-16)
(1.102296592 -0.0397718376 -3.69262757e-17)
(0.9594884308 -0.05579203064 7.183181342e-17)
(1.093609719 -0.01659209291 -2.478320928e-17)
(0.9463623788 -0.0361690427 -1.567454287e-16)
(1.085398319 0.001163916481 1.661054378e-16)
(0.925798056 -0.01235393943 -4.963889441e-16)
(1.152023164 -0.9226757183 6.001628969e-17)
(0.8677863671 -0.7526385225 -1.678011978e-17)
(1.191661067 -0.6523564752 -5.744234933e-17)
(0.8858298885 -0.5000254936 4.940708195e-17)
(1.197495091 -0.4776071978 1.274046233e-16)
(0.9096958228 -0.3482139899 -1.587833716e-16)
(1.189005747 -0.3561212267 2.974044707e-16)
(0.932987989 -0.2532666571 7.395756355e-17)
(1.175168049 -0.2671032963 2.547978432e-16)
(0.9523940624 -0.1913890266 -1.82441604e-16)
(1.160126038 -0.1994042291 4.182483913e-16)
(0.9664967981 -0.1491184269 -4.697695321e-16)
(1.145542979 -0.1464132448 5.770571575e-16)
(0.9749130341 -0.1186009385 -6.750126288e-16)
(1.131850527 -0.103887174 5.486047498e-16)
(0.9776661518 -0.09504059926 -6.459483476e-16)
(1.118990676 -0.06905506266 2.589939562e-16)
(0.9747673996 -0.07521461108 -2.421175033e-16)
(1.106845644 -0.04025273493 -6.674048475e-17)
(0.9659708831 -0.05658069636 2.928159368e-17)
(1.09546985 -0.01677079343 5.6185987e-17)
(0.9506666223 -0.0367475899 -8.19736974e-18)
(1.085175802 0.001229530953 9.219019923e-17)
(0.9274672274 -0.012706641 2.334252402e-17)
(1.255707741 -0.9227123501 4.291647287e-18)
(0.9523719081 -0.7526874457 -5.430412904e-17)
(1.264975372 -0.6524093639 -7.137735664e-17)
(0.9420308242 -0.5000803923 2.04749806e-16)
(1.251167083 -0.4776747546 -1.059126868e-16)
(0.9488288066 -0.3482741841 2.790577166e-16)
(1.22901651 -0.3561994958 -2.624755268e-16)
(0.9614406529 -0.2533300432 2.425842627e-16)
(1.205165083 -0.267188841 -1.533749899e-16)
(0.973883183 -0.1914533443 1.997069846e-16)
(1.182506316 -0.1994935045 -4.562755213e-16)
(0.9832280388 -0.1491820431 3.804402583e-16)
(1.161962874 -0.1465014817 -3.671938331e-16)
(0.9882105266 -0.1186640967 3.915973935e-16)
(1.143492082 -0.103967763 -5.049633079e-16)
(0.9883142441 -0.09510737345 4.550285373e-16)
(1.126727197 -0.06911945041 -2.679543898e-16)
(0.9831833933 -0.07529571777 1.296420133e-16)
(1.111365994 -0.04028791913 -1.155251826e-17)
(0.9722758081 -0.0567007495 -8.844671536e-17)
(1.097389798 -0.01674804079 -3.974198882e-17)
(0.9546903089 -0.03695664647 5.176298738e-17)
(1.085165469 0.001360638759 -2.16234571e-16)
(0.9286595602 -0.01306901585 2.528140173e-16)
(1.358739489 -0.9111476346 -1.322644293e-16)
(1.036414887 -0.7432378531 2.342755673e-16)
(1.337844834 -0.6442079914 -1.688326723e-16)
(0.9978916153 -0.493786476 -1.966204234e-16)
(1.304551202 -0.471647366 7.073930141e-17)
(0.9877658515 -0.3438756299 -4.069449775e-16)
(1.268862758 -0.3516851995 2.551552926e-16)
(0.9898016948 -0.2501180855 -5.224696677e-16)
(1.235096631 -0.2637843648 8.525156649e-17)
(0.995358337 -0.1890182919 -4.017567518e-16)
(1.204899354 -0.1969333212 5.385669716e-16)
(1.000003858 -0.1472846722 -4.027635463e-16)
(1.178452233 -0.1446009846 4.087568855e-16)
(1.00159592 -0.1171657988 -3.400729465e-16)
(1.155233841 -0.102592358 4.230811072e-16)
(0.9990828708 -0.09393133171 -1.418973655e-16)
(1.13456099 -0.06816449543 1.498976023e-16)
(0.9917548112 -0.07440696521 1.049600905e-16)
(1.115933669 -0.0396626058 -8.069518283e-17)
(0.9788067604 -0.05610299105 2.361194261e-16)
(1.099231669 -0.01636056602 -8.491870251e-17)
(0.9591108802 -0.03669967833 5.601292949e-17)
(1.084823292 0.001594255258 6.54846809e-17)
(0.9305993931 -0.0132375366 -2.380276601e-16)
(1.459833306 -0.8881117555 9.409448142e-17)
(1.118899765 -0.7244728848 -1.979316345e-16)
(1.409337049 -0.6279532535 1.383552298e-16)
(1.052703564 -0.481345364 1.581953825e-16)
(1.3568946 -0.459779633 -1.480811519e-17)
(1.025935562 -0.3352377776 3.772163218e-16)
(1.30788543 -0.3428680821 -9.441768726e-17)
(1.017555877 -0.2438602429 5.142302369e-16)
(1.264352686 -0.2572024824 -2.349143921e-18)
(1.016319625 -0.1843114535 4.588193515e-16)
(1.226723816 -0.1920488765 -3.133830452e-16)
(1.016321339 -0.1436363815 2.044981257e-16)
(1.194458794 -0.1410379616 -2.404723242e-16)
(1.014558895 -0.1142819306 2.005641639e-16)
(1.16657713 -0.1000756681 -4.191942797e-16)
(1.009452535 -0.09164381573 1.989773226e-17)
(1.142102988 -0.06648178653 -1.311496586e-16)
(0.9999286724 -0.07264069024 -2.143801291e-16)
(1.120368667 -0.03863379669 1.154612497e-16)
(0.9848851309 -0.05486463398 -2.002771035e-16)
(1.101186709 -0.01581246176 2.124567619e-17)
(0.9629082585 -0.03606369109 1.456557628e-16)
(1.084964201 0.001823925698 -2.884731611e-16)
(0.9315562199 -0.01331195199 5.77646296e-16)
(1.557705561 -0.8539097502 -2.183597095e-16)
(1.198721218 -0.6965474228 4.306906639e-16)
(1.478546612 -0.6037346708 -3.615079022e-16)
(1.10575177 -0.4627661989 3.880148734e-17)
(1.407592523 -0.4420146027 -2.335369062e-17)
(1.062908461 -0.3222728388 -4.214339035e-16)
(1.345725498 -0.3295900595 1.769974602e-16)
(1.044485003 -0.2344060464 -5.782658307e-16)
(1.292779045 -0.247211409 1.450743422e-16)
(1.036712787 -0.1771480899 -5.977669519e-16)
(1.247995521 -0.1845555605 3.995432626e-16)
(1.032259793 -0.1380468709 -3.528857276e-16)
(1.210129158 -0.1354955612 3.457217435e-16)
(1.027292423 -0.1098463542 -3.619008454e-16)
(1.177740013 -0.09608865895 5.837536559e-16)
(1.019725601 -0.08812699215 -1.033783972e-16)
(1.149542286 -0.06374620517 2.346907844e-16)
(1.00815431 -0.06993276608 1.052776826e-16)
(1.124667731 -0.03689471535 -5.572402315e-17)
(0.9912342818 -0.05294773854 1.516612756e-16)
(1.102822061 -0.01484859665 -1.814488697e-16)
(0.9673482469 -0.03497783347 5.264653196e-17)
(1.084409442 0.002167824908 -1.414213247e-16)
(0.9337808705 -0.01313897585 -1.20237662e-16)
(1.651139148 -0.8089564573 2.864777164e-16)
(1.274972446 -0.6599083433 -3.879766904e-16)
(1.544634901 -0.5719861876 4.814152631e-16)
(1.156430736 -0.4384515729 -1.985236088e-16)
(1.455987159 -0.4188052317 9.002550237e-17)
(1.098206597 -0.3053692213 1.758734053e-16)
(1.381808659 -0.3123189151 -3.341826526e-17)
(1.070156133 -0.2221411618 4.134175957e-16)
(1.319832462 -0.2342930485 -1.951383376e-16)
(1.056104065 -0.1679085872 5.141704448e-16)
(1.268173299 -0.1749460408 -2.151990873e-16)
(1.047356485 -0.1308747623 7.387363823e-17)
(1.224917682 -0.1284675015 -4.319622669e-17)
(1.039285814 -0.1041678682 1.524053695e-16)
(1.18820306 -0.09111235077 -3.700535095e-16)
(1.029319127 -0.08360980375 6.853200696e-17)
(1.156481933 -0.06041414929 -1.514960062e-16)
(1.015709625 -0.06641905979 -1.80990146e-16)
(1.128753359 -0.03486691753 9.264252976e-17)
(0.9968134199 -0.05042156683 -8.930780754e-17)
(1.104700535 -0.01382524086 1.060506368e-16)
(0.9706950026 -0.03351863579 1.145485873e-16)
(1.08479095 0.002433849016 -3.016053002e-17)
(0.9342539587 -0.01288482979 2.07088272e-16)
(1.738944092 -0.753832379 -4.035185764e-16)
(1.34656598 -0.6149098481 3.81997364e-16)
(1.60671067 -0.5329673017 -4.654715453e-16)
(1.204001149 -0.4085223442 3.040842603e-16)
(1.501451366 -0.3901969368 -1.797638743e-16)
(1.131354923 -0.284491923 -5.073103183e-17)
(1.415737986 -0.290946919 9.6255184e-17)
(1.09429508 -0.2069223526 -4.082850322e-16)
(1.345319042 -0.2182202969 2.439213208e-16)
(1.074383813 -0.1563782142 -3.918260518e-16)
(1.287245369 -0.1628994042 1.713138937e-16)
(1.061651332 -0.1218723952 -1.366796153e-16)
(1.238967625 -0.119567019 1.496244076e-16)
(1.05073102 -0.0970110603 -2.281946969e-16)
(1.198201353 -0.08472661758 2.689342961e-16)
(1.038608552 -0.07791330372 -5.086656072e-17)
(1.163099271 -0.05606701208 8.966650928e-17)
(1.023256261 -0.06199584322 1.235953107e-16)
(1.132452947 -0.03217441458 -1.31504236e-16)
(1.002817916 -0.04721339523 1.191025275e-16)
(1.105850911 -0.01247862269 -2.130591594e-16)
(0.9751372555 -0.03151884926 4.425460606e-17)
(1.083821404 0.002640679697 -1.334672276e-16)
(0.9368003756 -0.01214793505 -6.569926005e-17)
(1.820031987 -0.6892160853 2.777949634e-16)
(1.412762508 -0.56223181 -2.61513883e-16)
(1.664083492 -0.4873146663 2.301520979e-16)
(1.248009673 -0.3735502388 -1.96856821e-16)
(1.543474375 -0.3568059359 1.451452812e-16)
(1.162016703 -0.260166151 -6.772419213e-17)
(1.447077496 -0.2660834052 -3.319984928e-17)
(1.116603202 -0.1892608406 2.773639686e-16)
(1.368819836 -0.1996093219 -2.506704805e-16)
(1.091242681 -0.143064156 2.844219671e-16)
(1.304771767 -0.1490454507 -7.042681075e-17)
(1.074782763 -0.1115292533 -1.799703944e-17)
(1.251801738 -0.1094322741 2.216796519e-17)
(1.061167214 -0.08881004397 7.53380046e-17)
(1.207258929 -0.07756143785 -5.93863088e-17)
(1.046956792 -0.07136390932 -4.402467667e-17)
(1.16907986 -0.05130263549 6.280201045e-17)
(1.029818217 -0.05684645998 -9.936584514e-17)
(1.135976333 -0.02934535286 1.051612548e-16)
(1.007598188 -0.04341038194 -6.661275365e-17)
(1.107591563 -0.01117690013 1.547730128e-16)
(0.9777838021 -0.02917420078 7.358801939e-17)
(1.084556835 0.002786623605 6.120207869e-17)
(0.9366061449 -0.01154052765 1.629906687e-16)
(1.893366394 -0.6159343035 -1.322952882e-16)
(1.472535409 -0.5024200503 2.893512346e-16)
(1.715910279 -0.4354557592 -1.710191871e-16)
(1.287713245 -0.3337768469 1.771602831e-16)
(1.581421204 -0.3187949969 -1.254841891e-16)
(1.189673303 -0.2324300427 1.097932973e-16)
(1.475389049 -0.2376974284 2.710470106e-17)
(1.136734417 -0.1690484346 -1.558403978e-16)
(1.390080597 -0.1782719786 2.588114875e-16)
(1.106482306 -0.1277527726 -2.517491996e-16)
(1.320677232 -0.1330651283 1.501759329e-16)
(1.086704405 -0.09956990978 -6.090787558e-17)
(1.263513788 -0.09764427171 -2.121345533e-17)
(1.070738143 -0.07928505104 -4.376718666e-17)
(1.215574911 -0.06914087662 -1.426219138e-17)
(1.054796088 -0.06374427075 5.370799833e-17)
(1.174515071 -0.04564845884 -1.190703995e-16)
(1.036340311 -0.05085595447 8.17938948e-17)
(1.138823907 -0.02600146993 -9.921039978e-17)
(1.013053911 -0.03893017232 4.111673664e-17)
(1.108048761 -0.009788047755 -1.196541343e-16)
(0.9821702292 -0.02615811522 -6.040712441e-17)
(1.082989612 0.00252090199 -4.246160612e-17)
(0.9394653552 -0.01008545664 -1.482963539e-16)
(1.958042248 -0.5348955477 -1.860870217e-17)
(1.525359227 -0.4363418996 -2.228229997e-16)
(1.761691764 -0.3781849719 -5.267244777e-18)
(1.322846506 -0.2898962562 -7.412328401e-17)
(1.614967161 -0.276890952 -1.585616697e-18)
(1.214163882 -0.2018950209 -7.462234483e-17)
(1.500416363 -0.2064800964 5.840900092e-18)
(1.154564821 -0.1468661792 3.969682494e-17)
(1.40885546 -0.154891094 -1.76428407e-16)
(1.119968568 -0.1110183243 1.109360868e-16)
(1.334682173 -0.1156498512 -5.795271872e-17)
(1.097216403 -0.08655555378 -6.135590399e-18)
(1.273764673 -0.08490252718 9.528311192e-17)
(1.079089677 -0.06894416433 -3.688213706e-17)
(1.222798481 -0.06015023601 6.972265132e-17)
(1.06144986 -0.05544135893 -3.835268054e-17)
(1.179285433 -0.03972528019 7.059698505e-17)
(1.041491994 -0.04423619317 -2.305766017e-17)
(1.141704945 -0.02259974171 2.455474066e-17)
(1.016623399 -0.03388895773 4.15535645e-17)
(1.109733445 -0.00840439211 -1.417293615e-17)
(0.9837755186 -0.02288614056 1.761752944e-16)
(1.084230199 0.002442494646 -9.169210299e-17)
(0.9386123732 -0.009134397296 2.471076075e-16)
(2.013228474 -0.4471309349 6.762718345e-17)
(1.570313053 -0.3647196449 2.640896655e-16)
(1.800669994 -0.3160907947 4.989859312e-18)
(1.352691137 -0.2422789552 1.134425863e-16)
(1.643492846 -0.2313908922 1.292845613e-17)
(1.234940439 -0.1686994077 7.791997328e-17)
(1.521689054 -0.172514665 5.79853078e-18)
(1.169676008 -0.1226853992 -4.140616864e-17)
(1.424822134 -0.1293751146 1.674335384e-16)
(1.13139788 -0.09270852153 -1.131427189e-16)
(1.346621209 -0.09655982799 1.274846814e-16)
(1.106155029 -0.07225499358 -7.374713597e-17)
(1.282552416 -0.07085002128 2.501893257e-18)
(1.086284848 -0.0575404907 -3.129514626e-17)
(1.229027077 -0.05016306955 -2.782684386e-17)
(1.067412121 -0.04627748455 2.894350432e-17)
(1.183300706 -0.03311716424 -4.863497154e-17)
(1.046620504 -0.03694559615 1.60420463e-17)
(1.143614231 -0.01887785815 -3.223737367e-17)
(1.021232891 -0.02829514012 -1.165819945e-17)
(1.109503928 -0.007178001327 -1.875681299e-17)
(0.9879107166 -0.01895482633 -9.613122727e-17)
(1.082103766 0.001623298683 4.553642972e-17)
(0.9415839876 -0.007113192634 -1.34013375e-16)
(2.058248997 -0.3537339888 -8.277053508e-17)
(1.607115252 -0.2885521896 -2.103824792e-16)
(1.832563758 -0.2500704268 -5.602051468e-17)
(1.377186758 -0.1916853154 -8.257093716e-17)
(1.666878227 -0.1830687801 -1.736459156e-17)
(1.25203023 -0.1334784836 -8.88584973e-17)
(1.539147497 -0.1364989512 1.32883594e-18)
(1.182132065 -0.09708296539 -1.083305089e-17)
(1.437928787 -0.1023817478 -7.025666222e-17)
(1.140830949 -0.07337618089 1.879096261e-17)
(1.356405198 -0.07643498701 -5.124516805e-17)
(1.113511209 -0.05720045297 6.617070337e-18)
(1.289718144 -0.05611158597 3.974241826e-17)
(1.092109258 -0.04555350104 -3.228685078e-17)
(1.234087208 -0.03976439393 6.647329667e-17)
(1.071976777 -0.03661256038 -3.994339773e-17)
(1.186696192 -0.02630254712 2.530511441e-17)
(1.049964344 -0.02916350073 1.322366618e-17)
(1.145851944 -0.01506459268 1.62933015e-18)
(1.023168438 -0.02223751317 4.868923129e-17)
(1.111242358 -0.005810353205 -3.203344402e-17)
(0.9881701122 -0.01485443102 1.162117088e-16)
(1.083856977 0.001244112471 -8.57081553e-17)
(0.9403283309 -0.005719873886 1.412042696e-16)
(2.092519407 -0.25588774 1.060244175e-16)
(1.634996275 -0.2087140408 1.689989548e-16)
(1.856740086 -0.1808585222 4.993984269e-17)
(1.395677527 -0.1386170203 9.257227094e-17)
(1.684555037 -0.1323679513 2.471692201e-17)
(1.264888039 -0.09649581552 6.415009026e-17)
(1.552318947 -0.0986674215 3.079623555e-17)
(1.191469884 -0.07015813167 -1.017644528e-17)
(1.447807058 -0.07398115183 8.206051389e-17)
(1.147881264 -0.05300330844 -4.847369e-17)
(1.363788508 -0.05521151998 8.30489684e-17)
(1.119019553 -0.04129993491 -4.191840306e-17)
(1.29515687 -0.04051949791 1.19133628e-17)
(1.096557346 -0.03287560204 -5.113533651e-18)
(1.237948783 -0.02872114793 -1.498223716e-17)
(1.075725635 -0.02640843238 4.82986974e-18)
(1.189162067 -0.01904067922 -1.667182539e-17)
(1.053357029 -0.02100853627 -9.00871748e-18)
(1.146868696 -0.01101747938 -8.882821143e-18)
(1.026559985 -0.01595164323 -2.647698483e-17)
(1.110560971 -0.004480731655 2.112924569e-18)
(0.9916679963 -0.01050939367 -6.560426492e-17)
(1.08156021 0.0004719241064 4.808080055e-17)
(0.9430391357 -0.003762934952 -1.048849487e-16)
(2.115627179 -0.1548165153 -1.010454803e-16)
(1.653930041 -0.1262747142 -1.160159064e-16)
(1.873144555 -0.1093969798 -8.290989436e-17)
(1.408304093 -0.08384376357 -6.50917295e-17)
(1.696602667 -0.08004646257 -3.507414454e-17)
(1.273714426 -0.05834949722 -5.73894101e-17)
(1.561326082 -0.05965192897 -1.379700196e-17)
(1.197917955 -0.04241092701 -2.86967684e-17)
(1.454578956 -0.04471664508 -2.366243203e-17)
(1.152774865 -0.0320311961 -1.000845769e-17)
(1.368850666 -0.03336613047 -1.842613254e-17)
(1.122832871 -0.02494838379 -8.351204639e-18)
(1.298870527 -0.02449065787 2.021452332e-17)
(1.099539487 -0.01984007058 -2.119865585e-17)
(1.240593242 -0.01738409595 3.256702483e-17)
(1.077945758 -0.01589048696 -1.279100679e-17)
(1.191029648 -0.01160080234 1.559255025e-17)
(1.054700831 -0.01253359959 7.328580003e-18)
(1.148374812 -0.006900033099 6.662902462e-18)
(1.026765397 -0.009305814131 2.372350975e-17)