/*--------------------------------*- C++ -*----------------------------------*\
| =========                 |                                                 |
| \\      /  F ield         | foam-extend: Open Source CFD                    |
|  \\    /   O peration     | Version:  3.0                                   |
|   \\  /    A nd           | Web:         http://www.extend-project.de       |
|    \\/     M anipulation  |                                                 |
\*---------------------------------------------------------------------------*/
FoamFile
{
    version     2.0;
    format      ascii;
    class       volScalarField;
    location    "9";
    object      p;
}
// * * * * * * * * * * * * * * * * * * * * * * * * * * * * * * * * * * * * * //

dimensions      [0 0 0 0 0 0 0];

internalField   nonuniform List<scalar> 
672
(
-0.2443230494
-0.2080132017
-0.1966514408
-0.1785552093
-0.175743373
-0.1664109936
-0.1672528542
-0.1624410566
-0.1641674539
-0.1610353129
-0.1611687952
-0.156926593
-0.2413432133
-0.205485585
-0.1942634866
-0.1763923557
-0.1736124596
-0.1643932903
-0.1652196901
-0.1604630876
-0.1621621421
-0.1590641835
-0.1591904129
-0.1549985518
-0.2352892269
-0.2003441822
-0.1894087892
-0.1719902553
-0.1692791676
-0.1602899903
-0.1610903538
-0.1564487845
-0.1580976543
-0.1550726665
-0.1551892193
-0.1511016179
-0.2263058763
-0.1927075166
-0.1821893068
-0.1654387065
-0.1628246056
-0.1541749756
-0.1549341525
-0.1504627509
-0.152036896
-0.1491210124
-0.1492243448
-0.1452922782
-0.2144453993
-0.1826231283
-0.1726588869
-0.1567894442
-0.1543073165
-0.1461069026
-0.1468154369
-0.142570399
-0.1440487241
-0.1412783887
-0.1413660985
-0.1376397751
-0.199914367
-0.170263146
-0.1609726708
-0.1461805802
-0.1438570577
-0.1362064271
-0.1368521472
-0.1328849444
-0.1342468034
-0.1316556883
-0.131725621
-0.1282516726
-0.1828426181
-0.1557412079
-0.147245258
-0.1337191443
-0.1315854547
-0.1245816877
-0.1251566715
-0.1215172471
-0.1227448154
-0.1203655372
-0.1204163134
-0.1172390115
-0.1634958898
-0.1392799803
-0.1316814651
-0.1195886846
-0.1176691464
-0.1113989198
-0.1118947862
-0.1086281428
-0.1097055906
-0.1075674713
-0.1075981144
-0.104756889
-0.1420699235
-0.1210488925
-0.1144468231
-0.1039420113
-0.102262872
-0.09680633617
-0.09721788475
-0.09436592761
-0.09528025183
-0.09341090488
-0.09342152585
-0.09095260797
-0.1188811595
-0.1013141376
-0.09578901974
-0.08700213289
-0.08558379345
-0.08100902878
-0.08133155019
-0.07893015806
-0.07967073552
-0.07809349255
-0.07808432231
-0.07601796096
-0.0941765016
-0.08028839539
-0.07591297023
-0.06895722481
-0.06782022902
-0.06418688311
-0.06441870583
-0.06249993977
-0.06305945732
-0.06179554481
-0.06176796514
-0.06013048754
-0.0683114668
-0.05827153958
-0.05509928327
-0.05006034809
-0.04921943201
-0.04657315438
-0.04671285193
-0.04530139043
-0.04567455203
-0.04474007311
-0.04469542949
-0.04350646321
-0.04156784702
-0.03550576752
-0.03357985629
-0.0305240541
-0.02999316979
-0.02837006435
-0.02841941647
-0.02753563225
-0.02772096044
-0.02712946784
-0.02707030475
-0.02634494348
-0.01432563472
-0.01231212374
-0.01165574225
-0.01061984105
-0.01040671247
-0.009827422039
-0.009787894454
-0.009443832844
-0.009441230971
-0.009200691443
-0.009128996659
-0.008875325387
0.01311561665
0.01105210109
0.01042739774
0.009427282815
0.00931630267
0.008841367023
0.008965294312
0.008762426475
0.008949222125
0.008833894278
0.008914851121
0.00869362262
0.04036788857
0.03425879457
0.03236175137
0.02933984998
0.02890495462
0.02738147836
0.02758596785
0.02683764931
0.02720388737
0.02673346591
0.02682140357
0.02612911097
0.0671313965
0.05705038837
0.05390169508
0.04889295145
0.04813614694
0.04558027842
0.04585908703
0.04457203765
0.04510972836
0.04428839536
0.04437997481
0.04322530049
0.09302716833
0.07910631887
0.07474661346
0.06781579708
0.06674572035
0.06318956295
0.06353726775
0.06172684449
0.06242715475
0.06126470749
0.06135774945
0.05975620209
0.1177725335
0.1001834495
0.09466469218
0.08589605124
0.08452331166
0.080008977
0.0804183606
0.07810511328
0.07895668294
0.07746629599
0.07755791835
0.07552949207
0.1410142002
0.1199830131
0.1133760422
0.1028819065
0.1012236754
0.09580848938
0.09627347984
0.09348634839
0.09447734845
0.09267767981
0.09276621185
0.09033723066
0.1625030132
0.1382902507
0.1306757046
0.1185853383
0.1166604854
0.1104104968
0.1109235055
0.1076959648
0.1088124569
0.1067250923
0.106808401
0.1040090764
0.1819267045
0.1548413322
0.1463169543
0.1327848422
0.1306185863
0.123613776
0.1241688579
0.1205422919
0.1217705275
0.1194222569
0.1194996281
0.1163657172
0.1990842741
0.1694623677
0.1601333738
0.1453272087
0.1429457708
0.1352728002
0.1358624459
0.1318816177
0.1332058232
0.1306255925
0.1306956269
0.1272660107
0.2137178048
0.1819358718
0.1719221511
0.1560309831
0.1534665114
0.1452241533
0.1458430014
0.1415597851
0.1429651355
0.1401865856
0.1402497226
0.1365677763
0.2256865815
0.1921392063
0.1815651373
0.1647865286
0.1620711403
0.153362175
0.1540030222
0.14947108
0.1509406332
0.1479985249
0.1480541947
0.1441654951
0.2347977494
0.1999103894
0.188912016
0.1714601798
0.1686312487
0.1595682748
0.1602264647
0.1555055266
0.157023945
0.1539570576
0.1540065741
0.1499600206
0.2409798696
0.2051857648
0.1939001807
0.1759924649
0.1730861016
0.1637826294
0.1644512947
0.1596009928
0.1611507322
0.1579977662
0.1580413363
0.1538869604
0.2441127586
0.2078653413
0.196437833
0.1783028605
0.1753594709
0.1659360689
0.1666110352
0.1616956824
0.1632612029
0.160063962
0.1601034628
0.1558933628
0.2441996584
0.2079491261
0.1965223638
0.1783861811
0.1754436563
0.1660185972
0.1666932224
0.1617751688
0.1633387811
0.1601378116
0.1601738828
0.1559601052
0.2411972198
0.2054026385
0.19412371
0.1762178197
0.1733171192
0.164012571
0.1646827389
0.1598272337
0.1613733438
0.1582110993
0.1582457861
0.1540811553
0.2351849181
0.2002909421
0.1893006371
0.1718482365
0.1690266443
0.159959368
0.1606184118
0.1558870363
0.1573981349
0.1543147369
0.1543486969
0.1502847307
0.2261967288
0.1926454398
0.1820851141
0.1653089134
0.1626054339
0.1538927548
0.1545362033
0.1499914798
0.151452101
0.1484882854
0.1485233172
0.1446110494
0.2143860551
0.1825943266
0.1725955194
0.1567044447
0.1541533804
0.1459043134
0.1465251792
0.1422244014
0.1436174525
0.1408105862
0.1408469094
0.1371348085
0.1998609025
0.1702320335
0.1609231716
0.1461199487
0.1437560388
0.1360769552
0.136670159
0.132669713
0.1339801738
0.1313670702
0.1314058472
0.1279406907
0.1828426553
0.1557448273
0.1472413365
0.1337099321
0.131562367
0.1245487506
0.1251068306
0.1214564926
0.1226680478
0.1202811925
0.1203219498
0.1171467544
0.16350629
0.1392841046
0.1316950158
0.1196080311
0.1177053404
0.1114471414
0.1119643611
0.1087113647
0.1098098834
0.1076801992
0.1077231906
0.1048782087
0.1421320181
0.1210863818
0.1145050385
0.1040120987
0.1023766864
0.09695091629
0.09741950502
0.09460350123
0.09557407609
0.09372748764
0.09377135988
0.09129202774
0.1189511638
0.1013509338
0.09586158301
0.08709660331
0.08574935374
0.08122502438
0.08163879814
0.07929541236
0.08012541584
0.07858532636
0.07862948455
0.07654753245
0.09429093689
0.08035439919
0.07602353699
0.06909418564
0.0680495858
0.06448135284
0.06483267772
0.06298949419
0.06366625915
0.06245078173
0.06249306908
0.06083455024
0.06842527949
0.05833222262
0.0552152911
0.0502102754
0.04948076959
0.04691346093
0.04719629156
0.04587573295
0.04638899729
0.04551293678
0.04555201693
0.0443385434
0.04171448209
0.03558923802
0.03372255277
0.03070210086
0.03029368885
0.0287569165
0.02896436941
0.02818067386
0.02852091089
0.02799375026
0.02802707122
0.02727394156
0.01445894794
0.01238331247
0.01179103651
0.01079447298
0.0107110016
0.0102235568
0.01035060728
0.01011229113
0.01027266398
0.01010014058
0.01012592607
0.009843523827
-0.01296332847
-0.01096568978
-0.0102791645
-0.009242113351
-0.009003122237
-0.008437996977
-0.008396723201
-0.008089247193
-0.008114226404
-0.007931563279
-0.007915859769
-0.007723841357
-0.04024320269
-0.0341925363
-0.03223517462
-0.02917623344
-0.02861915843
-0.0270091882
-0.02705674432
-0.02620880407
-0.02642154287
-0.02588699442
-0.02588310059
-0.02521809794
-0.06700114044
-0.0569761602
-0.05377559564
-0.04873603317
-0.04787128951
-0.04523952613
-0.04537894952
-0.04400367206
-0.04440477248
-0.04352656356
-0.04353654597
-0.04240680488
-0.09293756399
-0.07905948243
-0.07465502103
-0.0676967132
-0.06653612442
-0.0629159592
-0.06314751073
-0.06126329634
-0.06184999414
-0.06063994734
-0.06066501604
-0.05908379024
-0.1176876506
-0.1001341402
-0.09458397618
-0.08579712624
-0.08435810882
-0.07979749489
-0.08012113391
-0.07775373229
-0.07852112685
-0.07699573162
-0.07703706507
-0.07502429633
-0.140979285
-0.1199663272
-0.1133387302
-0.1028319514
-0.1011326803
-0.09568857646
-0.09610119297
-0.09328067216
-0.0942204007
-0.09239903683
-0.09245686624
-0.09003703706
-0.1624778697
-0.1382736875
-0.1306545811
-0.1185625736
-0.1166263704
-0.1103690958
-0.1108671599
-0.1076304605
-0.1087319988
-0.1066385794
-0.1067129477
-0.1039168358
-0.1819554435
-0.1548597292
-0.1463424991
-0.1328148464
-0.1306648984
-0.1236717953
-0.1242485532
-0.1206355594
-0.1218849174
-0.119545158
-0.1196350345
-0.1164971853
-0.1991213804
-0.1694798927
-0.160174239
-0.1453835985
-0.1430481188
-0.1354084247
-0.1360569928
-0.1321139257
-0.1334954403
-0.1309394122
-0.1310437375
-0.1276042476
-0.2138068103
-0.1819875828
-0.1720069408
-0.1561360708
-0.1536417342
-0.1454491202
-0.1461592039
-0.1419337071
-0.1434283086
-0.1406868163
-0.1408032288
-0.1371050288
-0.225776003
-0.1921852712
-0.1816581524
-0.1649093176
-0.1622883176
-0.1536467904
-0.1544089166
-0.1499542887
-0.1515421244
-0.1486497908
-0.1487762311
-0.1448666667
-0.2349318227
-0.1999870727
-0.1890410104
-0.1716209482
-0.168901956
-0.1599167305
-0.1607174561
-0.1560867129
-0.1577446414
-0.1547359169
-0.1548689163
-0.1507971029
-0.2411007832
-0.2052485701
-0.1940248577
-0.1761555845
-0.1733737544
-0.1641588635
-0.1649874519
-0.1602389222
-0.1619445996
-0.1588572781
-0.1589940198
-0.154812215
-0.2442673615
-0.2079528952
-0.1965863082
-0.1784881553
-0.1756730693
-0.1663402729
-0.1671811167
-0.1623707178
-0.1640983861
-0.1609689209
-0.1611054018
-0.1568661179
)
;

boundaryField
{
    out
    {
        type            implicitExtrapolation;
    }
    in
    {
        type            implicitExtrapolation;
    }
    frontAndBack
    {
        type            empty;
    }
}


// ************************************************************************* //
