/*--------------------------------*- C++ -*----------------------------------*\
| =========                 |                                                 |
| \\      /  F ield         | foam-extend: Open Source CFD                    |
|  \\    /   O peration     | Version:  3.0                                   |
|   \\  /    A nd           | Web:         http://www.extend-project.de       |
|    \\/     M anipulation  |                                                 |
\*---------------------------------------------------------------------------*/
FoamFile
{
    version     2.0;
    format      ascii;
    class       volSymmTensorField;
    location    "9";
    object      sigma;
}
// * * * * * * * * * * * * * * * * * * * * * * * * * * * * * * * * * * * * * //

dimensions      [0 0 0 0 0 0 0];

internalField   nonuniform List<symmTensor> 
672
(
(-0.168001163 -0.01071918042 -1.200213747e-19 0.1672650771 -2.433865407e-20 0.000736085893)
(-0.155326666 -0.01208306637 -2.776175406e-19 0.1534858799 -1.591835801e-20 0.001840786073)
(-0.1373232845 -0.01179270183 -1.873517762e-19 0.1345793692 -8.439920536e-21 0.002743915286)
(-0.118694162 -0.01087824247 -7.951906998e-20 0.115223264 -4.063446914e-21 0.003470898034)
(-0.1011222728 -0.009764105781 -3.028689664e-19 0.09709380506 -3.813970172e-20 0.004028467705)
(-0.08510693035 -0.008635928679 -2.947878288e-19 0.08070377923 -1.474111448e-19 0.004403151119)
(-0.07077535519 -0.00757444125 -4.527053278e-19 0.06619966497 -1.544971351e-19 0.004575690217)
(-0.05814192455 -0.006625219577 -5.544456764e-19 0.05363076256 -3.996830909e-19 0.004511161987)
(-0.04718706842 -0.005805437879 -5.775147206e-19 0.04301483087 -2.620602187e-19 0.00417223755)
(-0.0380089817 -0.00514283583 -3.293159397e-19 0.03450244767 -1.297087145e-20 0.003506534023)
(-0.03069268857 -0.004648722892 -1.036201832e-19 0.02823318531 1.177714795e-19 0.002459503259)
(-0.02555869026 -0.004340019449 -4.535585821e-20 0.02459598009 -1.983630021e-19 0.0009627101698)
(-0.1650019142 -0.03115048945 -9.948637266e-20 0.1642874613 7.135736859e-21 0.0007144529105)
(-0.1505161864 -0.03524341155 -2.641929845e-19 0.1487292336 5.726200372e-20 0.001786952832)
(-0.1320020649 -0.03447369504 -2.175445005e-19 0.1293378732 1.374145451e-19 0.002664191735)
(-0.1134125268 -0.03186814118 -4.993363107e-20 0.1100421633 -5.3296019e-20 0.003370363473)
(-0.09611000739 -0.02867520865 -2.919338883e-19 0.09219774275 1.415297091e-20 0.003912264646)
(-0.08044509775 -0.02544096381 -2.903018648e-19 0.07616846704 -2.417923232e-19 0.004276630708)
(-0.06647661297 -0.02240376534 -5.330676778e-19 0.06203190691 -3.615108543e-19 0.004444706058)
(-0.05417878451 -0.01969795356 -8.663784155e-19 0.04979632943 -5.456110569e-19 0.004382455079)
(-0.04351624613 -0.01737485126 -4.840999667e-19 0.03946271248 -7.665521461e-20 0.004053533653)
(-0.03456701779 -0.01551652357 -1.100605509e-19 0.03116006178 -1.092787168e-19 0.003406956015)
(-0.02741002489 -0.01415689921 -3.257843811e-19 0.02502029263 -1.339702971e-19 0.00238973226)
(-0.0223597348 -0.01335961565 -1.716524882e-19 0.02142436471 -1.65440096e-19 0.0009353700862)
(-0.1591912064 -0.05077593412 -3.025106666e-20 0.1585060111 -5.157019516e-20 0.0006851952595)
(-0.1412967628 -0.05657305017 -2.035629301e-19 0.139582925 1.284431701e-19 0.0017138378)
(-0.1218362137 -0.05496882504 -2.685610733e-19 0.1192805521 2.436030098e-19 0.002555661598)
(-0.1033390429 -0.05060704584 -2.202409954e-19 0.1001051739 6.788492657e-20 0.003233869035)
(-0.08656098833 -0.04539726648 -3.357906671e-19 0.08280597179 4.614318856e-20 0.003755016535)
(-0.07157088007 -0.04016848579 -6.722455105e-19 0.0674647257 -1.633709319e-19 0.004106154372)
(-0.05829806288 -0.0352805839 -9.763562144e-19 0.05402896799 -5.290341384e-20 0.004269094889)
(-0.04664072874 -0.03093508854 -9.217729038e-19 0.04242984541 -8.225499543e-20 0.004210883334)
(-0.03653343804 -0.02720874718 -3.276686001e-19 0.032637088 1.960522678e-22 0.003896350039)
(-0.02801562854 -0.024227424 -4.999656441e-19 0.02473951642 -2.56299866e-19 0.003276112119)
(-0.02115472925 -0.0220447031 -3.636754219e-19 0.01885585312 -2.428393057e-19 0.002298876123)
(-0.01625208637 -0.02076850404 -8.279922879e-20 0.01535189865 -1.779359784e-19 0.0009001877191)
(-0.150821436 -0.06912712802 5.312164481e-20 0.1501732814 -5.496585339e-20 0.0006481546774)
(-0.1283844994 -0.07504827488 -2.340193277e-20 0.1267629428 1.550033521e-19 0.001621556585)
(-0.1077114839 -0.07206409076 -1.825145713e-19 0.1052925082 2.485389548e-19 0.002418975617)
(-0.08940097762 -0.06584877765 -2.082387812e-19 0.08633869547 1.7042671e-19 0.003062282152)
(-0.0733867414 -0.05872049807 -2.493646997e-19 0.06982903006 -3.976256692e-20 0.003557711343)
(-0.05935684967 -0.05167182948 -4.622796102e-19 0.05546412559 9.756742238e-20 0.003892724081)
(-0.04706607259 -0.04512850481 -6.104600246e-19 0.04301625749 3.407016583e-19 0.004049815104)
(-0.03631029096 -0.03932609715 -1.252750482e-18 0.03231298469 3.145517224e-19 0.003997306273)
(-0.02698364219 -0.03435335968 -6.981851641e-19 0.02328227568 1.107783136e-19 0.003701366514)
(-0.01907327587 -0.03036369011 -8.709385178e-19 0.01595884424 5.749829372e-19 0.003114431629)
(-0.01263089391 -0.02742566053 -7.13656928e-19 0.01044379007 2.075771744e-19 0.002187103843)
(-0.007938357497 -0.02568790459 -2.060161512e-19 0.007081184156 2.598745501e-19 0.0008571733409)
(-0.1402402226 -0.08582404359 -1.976797412e-21 0.1396364668 1.332747722e-19 0.0006037557802)
(-0.1127579331 -0.08992316935 6.583966224e-20 0.1112469657 2.148016486e-19 0.001510967459)
(-0.09083695941 -0.08489371647 -1.707231516e-19 0.08858173916 3.011278867e-19 0.002255220247)
(-0.07286296866 -0.07671348158 -3.01089625e-19 0.07000614707 1.450785373e-19 0.002856821591)
(-0.05782976572 -0.06779654722 -4.180152161e-19 0.05450818188 -2.487547999e-21 0.003321583841)
(-0.04499199164 -0.05915134793 -3.448311526e-19 0.04135449728 2.287909666e-19 0.003637494356)
(-0.03390640815 -0.05120068587 -1.904989646e-19 0.03011855241 3.007647499e-19 0.003787855737)
(-0.02425325596 -0.04417319245 -9.738859772e-19 0.02051076756 4.413273186e-19 0.003742488397)
(-0.01588115883 -0.03815312542 -4.255822493e-19 0.01241205125 4.479498504e-19 0.003469107584)
(-0.008717419519 -0.03330138465 3.546838283e-19 0.005795208211 4.04620277e-19 0.002922211308)
(-0.002795490109 -0.02969590949 -7.032014224e-19 0.000740951134 4.34269053e-19 0.002054538975)
(0.00162759233 -0.02752150928 -2.136036536e-19 -0.002433928207 2.113545172e-19 0.0008063358769)
(-0.1278583214 -0.1005962781 5.571766833e-22 0.1273059612 1.709490535e-19 0.0005523601626)
(-0.09555335542 -0.1007955271 9.650829949e-20 0.09417041657 2.883136433e-19 0.001382938847)
(-0.0726131733 -0.09302275296 5.327997408e-20 0.07054755634 2.22737531e-19 0.002065616958)
(-0.05518823991 -0.08277476909 -3.393868651e-19 0.05256933369 1.442299843e-19 0.002618906216)
(-0.04132665038 -0.07222433336 -2.143190873e-19 0.03827853355 -1.197503682e-19 0.003048116836)
(-0.02985016815 -0.0622367647 -2.776607942e-19 0.02650830243 2.158164274e-19 0.003341865727)
(-0.02011906689 -0.05315797675 3.821144551e-19 0.01663466488 2.799417813e-20 0.003484402019)
(-0.01169949793 -0.04516570926 -4.066259704e-19 0.008252200669 6.666322252e-20 0.003447297261)
(-0.004395551376 -0.03832206202 -9.186843394e-19 0.001195498355 1.064276215e-19 0.00320005302)
(0.001925633157 -0.03277382129 -2.327680712e-19 -0.004625191339 4.247448274e-19 0.002699558182)
(0.007249283624 -0.02860222413 7.654961454e-19 -0.009150287731 -1.497172808e-21 0.001901004107)
(0.011347382 -0.02602250007 -3.768113127e-19 -0.01209484872 1.464586771e-20 0.0007474667213)
(-0.1141135415 -0.1132930829 5.055749119e-20 0.1136191696 9.96912811e-20 0.0004943719509)
(-0.07794497646 -0.1076363767 9.286116423e-20 0.07670652347 2.699402298e-19 0.001238452989)
(-0.0544809537 -0.09648362366 2.285673923e-19 0.05262941762 6.610219557e-20 0.001851536072)
(-0.03787920489 -0.08409795814 -1.727562399e-19 0.03552907291 -1.096345163e-19 0.002350131976)
(-0.02535058526 -0.07208772108 -6.899913111e-19 0.02261161087 -1.043322778e-19 0.002738974391)
(-0.01533883237 -0.06102324244 -4.478413136e-19 0.01233140645 1.373656183e-19 0.003007425926)
(-0.00703459667 -0.05110308383 -1.512558043e-19 0.003893760854 -3.536895444e-21 0.003140835816)
(9.332254015e-05 -0.0424122497 2.866325897e-20 -0.003206122968 2.00724775e-19 0.003112800428)
(0.00627828166 -0.03497391902 -1.566323486e-19 -0.009173176468 4.226908346e-19 0.002894894807)
(0.0117063168 -0.02890000674 -3.530623792e-20 -0.01415310636 2.790375631e-19 0.002446789556)
(0.01638005205 -0.02426939605 -4.474301526e-19 -0.01810658103 -1.993302329e-19 0.00172652898)
(0.02010321286 -0.0213215767 -6.09697653e-20 -0.02078371077 4.506710341e-19 0.0006804979126)
(-0.09943279142 -0.1238812675 2.743591109e-20 0.09900251502 1.093676758e-19 0.0004302763941)
(-0.06102236375 -0.1107779585 1.216520638e-19 0.0599436851 1.786104432e-19 0.001078678645)
(-0.03776720602 -0.09576036007 1.090471168e-19 0.03615258093 3.299678853e-20 0.001614625087)
(-0.02231477488 -0.08122313624 -1.356199112e-20 0.02026235378 -8.497985413e-20 0.002052421107)
(-0.01125070378 -0.06793854898 -6.173832299e-19 0.008854540708 1.985349329e-19 0.002396163072)
(-0.002744609337 -0.05605488382 -6.852353924e-19 0.0001085204838 2.179029412e-19 0.002636088853)
(0.004132664404 -0.04556467344 -7.517465992e-19 -0.006891486526 4.596655228e-19 0.002758822122)
(0.009979295949 -0.03642545587 -1.286938341e-19 -0.01271959313 4.199815605e-19 0.002740297182)
(0.01505348904 -0.0286076423 -2.44415489e-19 -0.01760798145 4.370254025e-19 0.002554492415)
(0.01958078834 -0.02217076296 -2.462120932e-19 -0.0217451147 6.814508891e-19 0.00216432636)
(0.02357794284 -0.01718649268 4.866729164e-19 -0.02510911571 5.144143536e-19 0.001531172872)
(0.02688137862 -0.01391227976 -1.672061065e-19 -0.02748671404 2.315567644e-19 0.0006053354192)
(-0.08419846062 -0.132431083 -5.238863225e-20 0.08383784124 1.449534601e-19 0.0003606193743)
(-0.04567923442 -0.110862451 1.362413542e-19 0.04477428725 1.120404753e-19 0.0009049471731)
(-0.02354474047 -0.09172312815 1.540252474e-19 0.02218796275 -3.278104634e-20 0.001356777725)
(-0.009602554958 -0.0750957176 -1.359920611e-19 0.007874532263 1.718930083e-19 0.001728022695)
(-0.0001060651552 -0.06072775982 8.182497777e-20 -0.001916022252 2.309776328e-19 0.002022087407)
(0.006906989036 -0.04825832743 -5.417400074e-19 -0.009137208856 3.70631681e-19 0.002230219821)
(0.0124179183 -0.03743406434 -2.875556743e-19 -0.0147584234 4.161720533e-19 0.0023405051)
(0.01705080277 -0.02806163831 -3.200629233e-19 -0.0193823586 5.765279396e-19 0.002331555834)
(0.02107182198 -0.02004949901 3.629074884e-19 -0.02325194687 9.212641469e-19 0.002180124889)
(0.02472714581 -0.01339256832 7.326140035e-19 -0.02658006423 3.865306067e-19 0.001852918426)
(0.02804330112 -0.008151793916 3.12645236e-19 -0.02935850595 -1.862532564e-19 0.001315204831)
(0.03088889996 -0.004596435996 3.364138904e-19 -0.03141085124 -5.597616733e-20 0.0005219512805)
(-0.06872106871 -0.1390921235 -1.282140055e-19 0.0684350373 1.196690016e-19 0.0002860314097)
(-0.03252575201 -0.108757046 -3.494949203e-20 0.0318069591 6.025353459e-20 0.000718792909)
(-0.01252195897 -0.08552041307 -2.646378721e-19 0.01144177096 1.434549591e-19 0.001080188017)
(-0.0004625298714 -0.06695230781 -1.345545858e-19 -0.0009170324267 3.036209084e-19 0.001379562298)
(0.007389163658 -0.05169243738 1.123867402e-20 -0.009008752461 3.620901906e-19 0.001619588803)
(0.01296185853 -0.03883402869 2.751270555e-19 -0.01475453151 3.027641335e-19 0.001792672982)
(0.01721062959 -0.02786180526 -1.358984623e-19 -0.01909919542 2.081589709e-19 0.00188856583)
(0.02073800988 -0.01842243209 1.186859847e-19 -0.02262692707 5.74590384e-19 0.00188891719)
(0.02379872018 -0.01035896243 8.265303479e-19 -0.02557238317 3.600311084e-19 0.001773662992)
(0.02663740546 -0.003596180819 8.450152013e-19 -0.0281512856 -3.968471125e-19 0.001513880136)
(0.02928505859 0.001817572518 -8.756370185e-20 -0.03036442119 -2.347897127e-19 0.00107936259)
(0.03164067471 0.005606197322 2.005095899e-19 -0.03207123938 -8.172974103e-20 0.0004305646728)
(-0.05322241227 -0.1440624005 -8.694403281e-20 0.05301519404 4.740175725e-20 0.0002072182279)
(-0.02183413799 -0.105445457 -8.110957481e-20 0.02131218741 4.873404679e-20 0.0005219505793)
(-0.004974570587 -0.07844123671 -1.380087059e-19 0.004187206202 1.651251268e-19 0.000787364385)
(0.004844799439 -0.05817490774 -1.667571215e-21 -0.005854884135 2.240514697e-19 0.001010084696)
(0.01099656396 -0.04221144765 -1.235889533e-19 -0.01218858165 3.560646129e-19 0.001192017696)
(0.01520522813 -0.0291172607 3.253033566e-19 -0.01653210366 2.419869597e-19 0.001326875531)
(0.01831891098 -0.01812527776 9.15927128e-20 -0.01972519137 2.129483917e-19 0.001406280395)
(0.02086976938 -0.008728761568 3.527219291e-19 -0.02228506887 2.823935687e-19 0.001415299491)
(0.02308114546 -0.0007082968331 4.145367389e-19 -0.02441861964 -7.166642966e-20 0.001337474184)
(0.02517323001 0.006079585853 5.694130186e-20 -0.02632212642 -2.768591791e-19 0.00114889641)
(0.02717597184 0.01159921467 -1.200582302e-19 -0.02800053815 -3.488684224e-20 0.0008245663025)
(0.02901610342 0.01557171886 -1.359480714e-20 -0.02934748411 -3.219210638e-20 0.0003313806899)
(-0.03782976297 -0.1475538789 7.644956239e-20 0.03770478986 -2.994074057e-20 0.0001249731137)
(-0.01352341628 -0.101907867 -6.167844171e-20 0.01320704242 -5.402823011e-21 0.0003163738619)
(-0.0007268447753 -0.07176283254 -2.069619691e-19 0.0002456928327 1.146255932e-19 0.0004811519426)
(0.006537973916 -0.05012970701 -2.48777829e-19 -0.007161056531 2.218713489e-19 0.0006230826148)
(0.01095263372 -0.03364588625 -1.615130051e-19 -0.01169591834 3.428882848e-19 0.0007432846205)
(0.01387997048 -0.02042451873 1.448834291e-19 -0.01471689686 2.152125205e-19 0.0008369263797)
(0.01598682002 -0.009482522553 -2.642990919e-19 -0.0168845345 3.135402658e-19 0.0008977144821)
(0.01769001518 -0.0001817550239 5.091000698e-19 -0.01860451852 2.783752586e-19 0.0009145033365)
(0.01916321918 0.007750490963 3.229257994e-19 -0.02003810187 -1.197699048e-19 0.000874882682)
(0.02058088325 0.0145167182 -9.647378106e-20 -0.0213414798 -3.066892357e-19 0.0007605965484)
(0.02196682909 0.02009210296 -6.214510196e-19 -0.02251939473 -3.410164136e-20 0.0005525656372)
(0.02327226238 0.02419799518 1.642039008e-19 -0.02349733417 -4.938138588e-21 0.0002250717903)
(-0.02258230889 -0.1497590827 6.006825179e-20 0.02254213871 -2.527920015e-20 4.017017804e-05)
(-0.0071848162 -0.09900327939 -5.306154611e-20 0.007080585205 -7.615067398e-21 0.0001042309955)
(0.000815674856 -0.06660123417 -1.820030649e-19 -0.0009804089694 9.54087929e-20 0.0001647341134)
(0.005279747866 -0.04400899848 -1.513415136e-19 -0.005502249608 2.019988625e-19 0.0002225017423)
(0.007934170009 -0.02718263 -2.641839703e-20 -0.008212020944 2.856874199e-19 0.0002778509345)
(0.009653164855 -0.01390301351 2.916855171e-20 -0.009980716698 2.513571632e-19 0.0003275518424)
(0.0108624213 -0.003029086428 1.058627223e-20 -0.01123001507 2.977645017e-19 0.0003675937689)
(0.01182720832 0.006173297157 2.521770494e-19 -0.01221819462 1.578497497e-19 0.0003909862929)
(0.01265676926 0.01401558705 -6.094045173e-20 -0.01304655659 -8.243977978e-20 0.0003897873253)
(0.01346251151 0.02074372066 -1.701138186e-19 -0.01381456143 -1.918506619e-19 0.0003520499178)
(0.01425814954 0.02634049774 -5.058321962e-19 -0.01452346591 -4.405804877e-20 0.0002653163702)
(0.01501602465 0.03052914439 -3.137197768e-20 -0.01512829889 -2.341215582e-20 0.0001122742329)
(-0.007448209176 -0.1508220351 5.482060749e-20 0.007494439922 -1.02617862e-20 -4.623074657e-05)
(-0.002144778667 -0.09736725222 -3.82698247e-20 0.002256870928 8.651530494e-21 -0.0001120922607)
(0.0005857579543 -0.06378134415 -1.779323672e-19 -0.0004273976036 7.859999501e-20 -0.0001583603507)
(0.002091753134 -0.04069361541 -4.682426734e-20 -0.001904515583 1.641698016e-19 -0.0001872375513)
(0.00297360628 -0.02369816091 -5.861731226e-20 -0.002774397759 2.432264148e-19 -0.0001992085207)
(0.003534392134 -0.01039957753 1.626868727e-20 -0.003338622005 2.496291467e-19 -0.0001957701299)
(0.003919790831 0.0004267358755 3.447546426e-20 -0.003741330115 2.616580411e-19 -0.0001784607161)
(0.004219932061 0.009565662825 -4.634224054e-20 -0.004070144632 1.574159005e-19 -0.0001497874287)
(0.004470072115 0.01734887826 -1.563409518e-19 -0.004357254267 -1.655737974e-20 -0.0001128178476)
(0.00470717288 0.02404539783 -2.906728621e-19 -0.004634578898 -1.16553404e-19 -7.259398262e-05)
(0.004932348501 0.02964127762 -3.475094842e-19 -0.00489807639 -4.082801663e-20 -3.427211125e-05)
(0.005136120452 0.0338620653 -1.03377535e-19 -0.005130277528 -3.282933206e-20 -5.842923556e-06)
(0.007649624493 -0.1508174941 5.194186891e-20 -0.007516424442 5.417246427e-21 -0.0001332000508)
(0.002441900563 -0.09733685154 -1.759102927e-20 -0.002111880051 2.749514133e-20 -0.0003300205116)
(-0.0002641666568 -0.06374138265 -1.583827675e-19 0.0007484667512 6.077002256e-20 -0.0004843000944)
(-0.001771215163 -0.04065171135 3.438228272e-20 0.002372517416 1.302115836e-19 -0.0006013022532)
(-0.002665503614 -0.02365831269 -1.966796411e-20 0.003347810396 2.091300505e-19 -0.0006823067821)
(-0.003244147006 -0.01036413505 1.069536274e-20 0.003971107359 2.277713673e-19 -0.0007269603537)
(-0.003655096702 0.0004557934604 -1.811403766e-21 0.004389266954 2.585620914e-19 -0.0007341702524)
(-0.003991702065 0.009586530947 -1.243443125e-19 0.004693370511 1.818963962e-19 -0.0007016684462)
(-0.004296049907 0.01735935819 -3.046804089e-19 0.004923350638 2.0027532e-20 -0.0006273007315)
(-0.004609852249 0.02404342317 -3.741015635e-19 0.005118507574 -6.489397263e-20 -0.0005086553259)
(-0.004945325492 0.02962336488 -2.389908465e-19 0.005288313417 -8.379534898e-21 -0.0003429879254)
(-0.005295933525 0.0338264936 -1.573639273e-19 0.00542401416 -5.263544268e-20 -0.0001280806348)
(0.02280239142 -0.149740282 6.191318022e-20 -0.0225827551 1.592303177e-20 -0.0002196363192)
(0.007479273702 -0.0989110478 1.312233494e-20 -0.006932476754 3.647360069e-20 -0.0005467969476)
(-0.0005057281539 -0.06648228664 -1.007742765e-19 0.001314686899 5.165216507e-20 -0.0008089587448)
(-0.004973553632 -0.04388509514 6.809224792e-20 0.005987998329 9.761816753e-20 -0.001014444697)
(-0.007639459007 -0.02706513796 8.198850234e-20 0.008804769042 1.833155373e-19 -0.001165310035)
(-0.009373094908 -0.01379860077 3.986168524e-20 0.01063235688 1.944680287e-19 -0.001259261976)
(-0.01060292367 -0.00294338179 1.246207341e-19 0.01189537081 2.669008661e-19 -0.001292447147)
(-0.01159797746 0.006235122969 -3.443789503e-19 0.01285557683 1.978405561e-19 -0.001257599373)
(-0.01247450322 0.0140471942 -3.821967716e-19 0.01362155694 3.122930341e-20 -0.001147053727)
(-0.01334948238 0.02073907475 -2.820859104e-19 0.01429998788 -1.404273674e-20 -0.0009505054987)
(-0.01424738226 0.02628944055 -1.820469525e-19 0.01490418458 5.750219498e-20 -0.0006568023175)
(-0.01514633322 0.03042627898 -3.323261424e-19 0.01539913865 -8.321403126e-20 -0.0002528054285)
(0.03808272035 -0.1475063058 6.948024165e-20 -0.03777832513 1.287620043e-20 -0.0003043952268)
(0.01381097786 -0.101751104 5.311666207e-20 -0.01305143802 1.759095898e-20 -0.0007595398402)
(0.001013324493 -0.07156778173 5.997874352e-20 0.0001146788719 6.453140852e-20 -0.001128003365)
(-0.006260036699 -0.04992912367 -2.508753117e-20 0.007681160342 6.396501063e-20 -0.001421123643)
(-0.01068413139 -0.03345669855 1.692681469e-19 0.01232583619 1.537499857e-19 -0.0016417048)
(-0.0136198119 -0.02025661154 -5.932865495e-20 0.01540526272 1.549673186e-19 -0.001785450816)
(-0.01573763237 -0.009344281185 -3.281792021e-20 0.01758329688 2.420514847e-19 -0.001845664512)
(-0.0174591836 -8.104304601e-05 -4.331520916e-19 0.01926911323 1.790523718e-19 -0.001809929633)
(-0.01896544097 0.007803907673 -1.870392226e-19 0.02063031548 8.436451358e-20 -0.001664874509)
(-0.02043790592 0.01451326744 -4.137868524e-19 0.02182988561 1.009160585e-19 -0.001391979689)
(-0.02191058727 0.02001594817 -2.760562437e-19 0.02288190733 9.369541358e-20 -0.0009713200566)
(-0.02334564304 0.02403946724 -3.167176813e-19 0.0237239169 -1.069174067e-19 -0.0003782738548)
(0.05351429395 -0.1439648281 -4.657737721e-20 -0.05312800345 -5.518452226e-20 -0.0003862905019)
(0.02210781679 -0.1052208561 1.162250276e-19 -0.02114255356 -4.894157665e-20 -0.0009652632271)
(0.005225575784 -0.07817515587 1.865037728e-19 -0.003788652149 3.850788328e-20 -0.001436923635)
(-0.004608092864 -0.05790630357 1.188455498e-19 0.006423629959 5.389375395e-20 -0.001815537094)
(-0.01076586902 -0.04196007011 1.964268926e-19 0.01287048752 7.830607818e-20 -0.002104618496)
(-0.01497371338 -0.02889453104 5.310598376e-20 0.01727155717 -3.644071601e-20 -0.002297843789)
(-0.0180847333 -0.0179409751 5.211284415e-19 0.02047036907 1.5440418e-19 -0.002385635768)
(-0.02063715853 -0.008592386295 -8.078122803e-20 0.02298753017 3.379706382e-19 -0.002350371641)
(-0.02286209035 -0.0006319468448 -1.989228248e-19 0.02503496582 1.607389435e-19 -0.002172875471)
(-0.02498871497 0.006083510641 -1.230588019e-19 0.02681496196 1.88778664e-19 -0.001826246985)
(-0.02705661065 0.01151063109 -8.544110123e-20 0.02833819333 2.701082088e-19 -0.00128158268)
(-0.0290097018 0.01537625101 -3.832516511e-19 0.02951215778 -6.412283944e-20 -0.0005024559845)
(0.06904755768 -0.1389206081 -1.021308641e-19 -0.0685834258 -1.131202032e-19 -0.0004641318851)
(0.03277528278 -0.1084622056 9.956034744e-20 -0.03161432827 -1.406341732e-19 -0.001160954507)
(0.01272552488 -0.08519081828 2.42861813e-19 -0.01099437285 2.135708049e-21 -0.001731152031)
(0.0006464508093 -0.06662730206 1.186674711e-19 0.001545331778 5.917110375e-20 -0.002191782587)
(-0.007206221975 -0.05139129693 9.553875295e-21 0.009753249094 1.621213984e-20 -0.002547027119)
(-0.01276651695 -0.03856769051 -1.403854184e-20 0.01555506131 -2.106171557e-19 -0.002788544362)
(-0.01699593992 -0.02763979168 4.893015048e-19 0.01989984032 -1.139719882e-19 -0.002903900399)
(-0.02050452014 -0.01825455177 2.366819516e-19 0.02337482753 2.575829331e-19 -0.002870307382)
(-0.02355525487 -0.01025819339 -9.59719653e-20 0.02621806454 -1.065414773e-20 -0.002662809673)
(-0.02640388277 -0.003576667451 4.359975282e-19 0.02865001291 -1.410611682e-19 -0.002246130147)
(-0.02909061524 0.001733292371 3.570368559e-19 0.03067298963 4.000436562e-19 -0.001582374386)
(-0.03153789695 0.005398767828 -1.076960454e-19 0.03216112617 1.040010592e-19 -0.0006232292183)
(0.08454440624 -0.1321633943 3.384513776e-20 -0.08400767422 -7.85273837e-20 -0.0005367320119)
(0.0458913753 -0.1104974441 1.124091889e-19 -0.04454776483 -2.153882793e-19 -0.001343610472)
(0.02368949008 -0.09134008893 3.996687112e-19 -0.02168337055 -5.206616251e-20 -0.002006119527)
(0.009724109433 -0.0747282612 1.753115534e-19 -0.007180179315 6.000202381e-20 -0.002543930117)
(0.0002334020364 -0.06039126415 7.555884546e-20 0.002728432604 -3.94887774e-20 -0.002961834641)
(-0.006753901291 -0.04796111347 -4.772434683e-20 0.01000343201 -2.589190377e-19 -0.003249530721)
(-0.01222697487 -0.03718365446 3.162277374e-19 0.01561878417 -4.635110279e-19 -0.0033918093)
(-0.01681872108 -0.02786669434 3.872042374e-19 0.0201795937 3.868047224e-20 -0.003360872617)
(-0.02080411445 -0.0199222919 -2.583304271e-20 0.02393024866 3.353413577e-19 -0.003126134214)
(-0.02444239153 -0.013347688 -2.284679365e-19 0.02708652801 -1.713721238e-19 -0.002644136483)
(-0.02776926478 -0.008212214232 5.095182029e-19 0.02963745332 -1.690571904e-19 -0.001868188545)
(-0.03068209846 -0.004785965383 -3.317145524e-19 0.03142040724 8.639113778e-20 -0.0007383087834)
(0.09977371972 -0.123501172 5.541125113e-22 -0.09917077393 -1.49251682e-19 -0.0006029457875)
(0.06118198267 -0.1103466229 1.061480035e-19 -0.05967166031 -2.51200422e-19 -0.001510322364)
(0.03784311602 -0.09533632501 2.211820327e-19 -0.03558572866 -2.641159262e-19 -0.002257387356)
(0.0223668505 -0.08082866545 2.243315161e-19 -0.01950065285 2.898043986e-20 -0.002866197649)
(0.01131695244 -0.06758201947 -2.578675201e-19 -0.007974855903 7.908206852e-21 -0.003342096537)
(0.002850908544 -0.05574004777 -9.738898568e-20 0.0008220100893 -1.128173537e-19 -0.003672918634)
(-0.003969563576 -0.04529543375 -3.32950425e-19 0.007810391071 -5.159556719e-19 -0.003840827496)
(-0.009752513387 -0.03620789483 2.948791032e-19 0.01356579638 -5.044525883e-19 -0.003813282994)
(-0.01476547287 -0.02845175783 5.61643209e-19 0.01831982777 -1.574548342e-19 -0.003554354899)
(-0.01924869798 -0.02209014576 5.969483371e-19 0.02226149639 2.918933916e-19 -0.003012798414)
(-0.02322839952 -0.01720254037 -2.994910663e-19 0.02536194087 2.918072334e-19 -0.002133541348)
(-0.0265733009 -0.01405180053 2.414968455e-19 0.02741873798 1.109463884e-19 -0.0008454370814)
(0.1144186378 -0.1127935507 -4.551594895e-20 -0.113756952 -2.257407303e-19 -0.0006616858077)
(0.07803673583 -0.1071469356 9.191831532e-20 -0.07637840818 -2.527173115e-19 -0.001658327654)
(0.05448022449 -0.09603283574 -1.626847318e-20 -0.05199949637 -3.692839189e-19 -0.002480728121)
(0.03785749818 -0.08369228454 1.043549477e-19 -0.03470443858 -3.354998933e-19 -0.003153059596)
(0.02535263045 -0.0717261777 3.444281342e-19 -0.02167148239 1.306568616e-19 -0.003681148067)
(0.01539508927 -0.06070349771 1.179496042e-19 -0.01134398041 1.778099895e-19 -0.004051108865)
(0.00716547757 -0.05082415638 7.69106187e-20 -0.002922789653 1.566728655e-20 -0.004242687916)
(0.0001220640475 -0.04217638758 4.087532792e-19 0.004096923649 -3.707067643e-19 -0.004218987697)
(-0.005978308317 -0.03478734491 6.082684598e-19 0.009917462467 -6.731047541e-21 -0.00393915415)
(-0.01133754696 -0.02877367069 5.823510142e-19 0.01468230065 1.103021773e-19 -0.003344753695)
(-0.01596829671 -0.02422090452 8.963697893e-19 0.01834126908 -6.955060414e-20 -0.002372972368)
(-0.01970802721 -0.0213789243 1.977698565e-19 0.02065035222 4.184640486e-19 -0.0009423250061)
(0.1280946099 -0.09998122925 -1.397468198e-20 -0.127382655 -1.686655738e-19 -0.0007119549267)
(0.09556362141 -0.1002604212 1.163100723e-20 -0.09377853422 -2.878779169e-19 -0.001785087189)
(0.07253094483 -0.09256023259 -1.22645406e-19 -0.06985869817 -4.295782565e-19 -0.002672246663)
(0.05509133089 -0.08237276923 2.123652211e-20 -0.0516919214 -5.528039175e-19 -0.00339940949)
(0.04126348922 -0.07187115946 6.198333535e-19 -0.03729067839 -3.869957164e-19 -0.003972810826)
(0.02985402544 -0.0619230917 4.495393253e-19 -0.02547699228 1.422766216e-19 -0.004377033165)
(0.02021266668 -0.05287715399 4.950626598e-19 -0.01562298881 9.794887241e-21 -0.004589677868)
(0.01189486191 -0.04491521899 4.585157537e-19 -0.007324875382 -2.249785176e-19 -0.004569986528)
(0.004694501313 -0.03810321661 1.281585265e-18 -0.0004217659459 -3.944386391e-19 -0.004272735367)
(-0.001537700673 -0.03259344952 9.738743852e-19 0.005170796745 1.1660419e-19 -0.003633096072)
(-0.006798107974 -0.02847229763 -4.671864416e-19 0.009379477789 -3.778163939e-19 -0.002581369815)
(-0.01089152763 -0.02596960299 2.242853232e-19 0.01191837561 -2.751223705e-20 -0.001026847975)
(0.1403768409 -0.08510823344 2.003351212e-20 -0.1396239702 1.058727005e-20 -0.0007528706974)
(0.1126765604 -0.08935793537 -1.493338418e-19 -0.1107882113 -1.633397613e-19 -0.001888349061)
(0.09067179251 -0.08443385788 -2.971459334e-19 -0.08784331313 -3.842846292e-19 -0.002828479379)
(0.07269212815 -0.07632770253 1.066523343e-19 -0.06909143534 -4.189014912e-19 -0.003600692816)
(0.05770207204 -0.06746226464 2.127247375e-19 -0.0534905166 -8.681220033e-19 -0.004211555445)
(0.04494153218 -0.0588520473 6.940823534e-19 -0.04029718909 -3.519647268e-19 -0.004644343086)
(0.03395673794 -0.05092382793 1.60278105e-20 -0.02908189478 -4.301509671e-19 -0.00487484316)
(0.02441748402 -0.04391101482 6.749331194e-19 -0.01955844707 -3.682071011e-19 -0.004859036952)
(0.01616189736 -0.037901386 4.343413996e-19 -0.01161388949 -6.996835967e-19 -0.004548007871)
(0.009100851577 -0.03306166292 -6.177589289e-19 -0.005229339511 -7.814974988e-19 -0.003871512066)
(0.003255247988 -0.02947334427 -6.581735296e-19 -0.0005012196835 -3.60384653e-19 -0.002754028304)
(-0.001147736697 -0.02733812193 9.62587451e-21 0.002244764242 -3.882189043e-19 -0.001097027545)
(0.1508337399 -0.06833429219 2.197472186e-20 -0.1500500555 1.504709696e-19 -0.0007836844304)
(0.1282060528 -0.07446980963 -1.508485344e-19 -0.126239849 -3.787070965e-20 -0.001966203865)
(0.1074652201 -0.07161912154 -9.662502584e-20 -0.1045187372 -1.513028431e-19 -0.002946482873)
(0.08915945968 -0.06548817202 -5.249357997e-20 -0.08540643164 -3.856261232e-19 -0.003753028045)
(0.07319598434 -0.05841179538 -8.681483445e-21 -0.06880333093 -6.022879567e-19 -0.00439265341)
(0.05924983803 -0.05139187444 1.584181383e-19 -0.05440224686 -7.947835982e-19 -0.004847591168)
(0.04706575714 -0.04485928394 2.396016401e-20 -0.0419735613 -7.44871014e-19 -0.005092195846)
(0.03642979457 -0.03905462333 3.594748234e-19 -0.03134991148 -3.826238431e-19 -0.005079883087)
(0.02722536634 -0.03406969892 -5.522033526e-19 -0.02246653725 -4.76084948e-19 -0.004758829092)
(0.01942361398 -0.03006341011 -9.143066393e-19 -0.01536909476 -4.983065527e-19 -0.004054519222)
(0.01306211582 -0.02710658766 -2.288999805e-19 -0.01017526285 -5.3383386e-19 -0.002886852966)
(0.00839720461 -0.02536467421 1.07562796e-19 -0.007246066518 8.943755743e-21 -0.001151138092)
(0.1590633292 -0.04993566739 -5.414586346e-20 -0.1582595167 8.700060858e-20 -0.0008038125)
(0.1410208667 -0.05599731543 -2.775578953e-19 -0.1390037135 -2.755526705e-20 -0.002017153148)
(0.1215133526 -0.05454718379 -3.084043659e-19 -0.1184894134 -1.652454922e-19 -0.003023939178)
(0.1030310677 -0.05027583991 -2.555519272e-19 -0.09917772037 -3.003800875e-19 -0.003853347373)
(0.08630842432 -0.04511618107 -1.417220634e-20 -0.08179606905 -2.960071641e-19 -0.004512355272)
(0.07140394282 -0.03990898869 -1.870193518e-19 -0.06642150028 -5.303781248e-19 -0.00498244254)
(0.0582378874 -0.03502016509 -1.568799556e-19 -0.05300093108 -5.146756666e-19 -0.005236956317)
(0.04669949441 -0.03065613707 4.793715159e-19 -0.04147197866 -6.458044974e-19 -0.00522751575)