/*--------------------------------*- C++ -*----------------------------------*\
| =========                 |                                                 |
| \\      /  F ield         | foam-extend: Open Source CFD                    |
|  \\    /   O peration     | Version:  3.0                                   |
|   \\  /    A nd           | Web:         http://www.extend-project.de       |
|    \\/     M anipulation  |                                                 |
\*---------------------------------------------------------------------------*/
FoamFile
{
    version     2.0;
    format      ascii;
    class       volScalarField;
    location    "59";
    object      p;
}
// * * * * * * * * * * * * * * * * * * * * * * * * * * * * * * * * * * * * * //

dimensions      [0 0 0 0 0 0 0];

internalField   nonuniform List<scalar> 
2688
(
-0.2282983948
-0.2091612287
-0.197692983
-0.1845666674
-0.1773338776
-0.1679943733
-0.1634744126
-0.1566918711
-0.153973512
-0.1489952577
-0.1474781874
-0.1438000651
-0.1430515486
-0.1403015954
-0.1399808488
-0.1378520646
-0.1376662289
-0.1358741795
-0.1355470113
-0.1338032076
-0.1330449603
-0.131040157
-0.1295167831
-0.1269060289
-0.2275880303
-0.2085061732
-0.197071864
-0.1839841829
-0.1767735911
-0.1674622597
-0.1629569426
-0.1561957569
-0.1534869448
-0.1485255929
-0.147014379
-0.1433504091
-0.1426049622
-0.1398676836
-0.1395479498
-0.1374312363
-0.1372452043
-0.1354649755
-0.1351376058
-0.1334050185
-0.1326480988
-0.1306524738
-0.1291328435
-0.1265261731
-0.2260593783
-0.2071047259
-0.1957459609
-0.1827452706
-0.1755817318
-0.1663323202
-0.1618558151
-0.155139943
-0.1524478045
-0.1475204197
-0.1460177423
-0.1423799567
-0.1416377819
-0.1389214095
-0.1386019033
-0.1365025438
-0.1363155111
-0.1345503039
-0.1342223771
-0.1325037626
-0.1317488154
-0.1297679075
-0.1282556524
-0.125666176
-0.2239235583
-0.205143695
-0.1938903353
-0.1810100862
-0.173913947
-0.1647507606
-0.1603174166
-0.153664812
-0.1509998238
-0.1461197613
-0.1446335253
-0.1410319762
-0.1402993211
-0.1376118401
-0.1372979737
-0.1352232504
-0.13504075
-0.133298376
-0.1329765902
-0.1312804288
-0.1305357719
-0.128577039
-0.127081385
-0.1245125373
-0.2209781982
-0.2024443399
-0.1913377507
-0.1786259246
-0.1716215718
-0.1625780718
-0.1582011789
-0.1516354988
-0.1490032823
-0.1441871323
-0.1427175272
-0.1391633324
-0.1384364479
-0.1357843465
-0.1354693542
-0.1334215984
-0.1332343565
-0.1315138132
-0.1311869969
-0.129511282
-0.1287658069
-0.1268312038
-0.1253463646
-0.1228137052
-0.2174428492
-0.1992009534
-0.188269886
-0.1757586583
-0.168865876
-0.1599653474
-0.1556592217
-0.1491976329
-0.1466092803
-0.1418699349
-0.140426443
-0.1369297475
-0.13621789
-0.1336101413
-0.1333044422
-0.1312931082
-0.1311140589
-0.1294264272
-0.1291107635
-0.1274675967
-0.1267396879
-0.1248390267
-0.1233819931
-0.1208858954
-0.2131183892
-0.1952382137
-0.1845233687
-0.1722599226
-0.1655027183
-0.1567782333
-0.1525558342
-0.1462218107
-0.1436824126
-0.1390362537
-0.1376179748
-0.1341893646
-0.1334866861
-0.1309286103
-0.1306218937
-0.1286473536
-0.1284621113
-0.1268038671
-0.1264821172
-0.1248669359
-0.1241395952
-0.122272093
-0.1208308938
-0.1183851604
-0.2082272365
-0.1907525871
-0.1802811021
-0.1682958609
-0.1616928037
-0.1531661672
-0.1490409243
-0.1428503976
-0.1403705341
-0.1358295256
-0.1344459897
-0.1310950973
-0.1304117529
-0.1279122853
-0.1276170103
-0.1256890469
-0.1255137798
-0.1238964545
-0.1235887625
-0.1220142703
-0.121309424
-0.1194861307
-0.1180783477
-0.1156846309
-0.2025784761
-0.1855767107
-0.1753882519
-0.1637271032
-0.1573018863
-0.1490055684
-0.1449905817
-0.138966879
-0.1365520266
-0.1321326744
-0.1307833799
-0.127521061
-0.1268513732
-0.1244162591
-0.1241219306
-0.1222417363
-0.1220618159
-0.120483617
-0.1201738384
-0.1186389857
-0.1179460548
-0.1161724626
-0.11480509
-0.1124694028
-0.1963926168
-0.1799048954
-0.170024551
-0.1587157573
-0.1524852339
-0.1444392093
-0.14054637
-0.1347038505
-0.1323631526
-0.1280760649
-0.1267691957
-0.1236038227
-0.1229566902
-0.1205933598
-0.1203111575
-0.1184861282
-0.1183159666
-0.1167844082
-0.1164893348
-0.1150009408
-0.1143348281
-0.1126159517
-0.1112942351
-0.109026323
-0.1894907765
-0.1735811756
-0.1640471539
-0.1531347514
-0.1471222099
-0.1393580089
-0.1356007821
-0.1299624849
-0.1277023989
-0.1235643311
-0.1223008853
-0.1192441618
-0.118615874
-0.1163317845
-0.1160536207
-0.1142878571
-0.1141155376
-0.1126327784
-0.1123384554
-0.1108987869
-0.1102475375
-0.1085882853
-0.1073088647
-0.1051223643
-0.1820879255
-0.1667944678
-0.1576294726
-0.1471392441
-0.1413595181
-0.1338950873
-0.1302834731
-0.1248620671
-0.1226897967
-0.1187098918
-0.1174959074
-0.1145547236
-0.1139516502
-0.1117522456
-0.1114861808
-0.109783901
-0.109619946
-0.1081886388
-0.1079073098
-0.1065172485
-0.1058919562
-0.1042934832
-0.1030638641
-0.1009689017
-0.1740197442
-0.1594024061
-0.1506426903
-0.1406162064
-0.1350918942
-0.1279573269
-0.1245050464
-0.1193228563
-0.117245923
-0.1134408383
-0.1122791637
-0.1094658626
-0.1088869938
-0.1067814748
-0.1065230537
-0.1048916427
-0.1047286197
-0.1033557855
-0.1030783329
-0.101745681
-0.1011386313
-0.09961023161
-0.09842972064
-0.09643923648
-0.1654932055
-0.1515863989
-0.1432520604
-0.1337123975
-0.1284562188
-0.1216673912
-0.1183825357
-0.1134506679
-0.1114743496
-0.1078520699
-0.1067465844
-0.1040671032
-0.1035161918
-0.1015088876
-0.1012629285
-0.09970489789
-0.09954957117
-0.09823544428
-0.09797056407
-0.09669365593
-0.09611395015
-0.09465470909
-0.09353031917
-0.09164961405
-0.1563598779
-0.1432187203
-0.1353434929
-0.1263291005
-0.1213624979
-0.1149474348
-0.1118435504
-0.107182929
-0.1053153759
-0.1018916376
-0.1008465915
-0.0983128612
-0.09779117267
-0.09589165278
-0.09565703973
-0.09418133698
-0.0940308267
-0.09278538844
-0.09252958118
-0.09131991918
-0.09076567517
-0.08938664457
-0.08832091566
-0.08655493864
-0.1468172726
-0.1344721293
-0.1270733894
-0.1186044839
-0.1139381446
-0.1079107134
-0.1049942377
-0.100614682
-0.09885967592
-0.09564184439
-0.0946595687
-0.09227749025
-0.09178693945
-0.08999990044
-0.08977909629
-0.08838876525
-0.08824691307
-0.08707094589
-0.08682979756
-0.08568620942
-0.08516399249
-0.08386382923
-0.08286158684
-0.08121026741
-0.136733233
-0.1252336647
-0.1183420271
-0.110453283
-0.1061069134
-0.1004923936
-0.09777605843
-0.09369630867
-0.09206185607
-0.08906373797
-0.08814890959
-0.08592858906
-0.08547149463
-0.08380482417
-0.08359861029
-0.08230126732
-0.08216821651
-0.08107092714
-0.08084512666
-0.07977868602
-0.0792911526
-0.07807943824
-0.07714541985
-0.07560735193
-0.1262950328
-0.1156669696
-0.1092970492
-0.1020057094
-0.09798814655
-0.09279847386
-0.09028745342
-0.08651628465
-0.08500528362
-0.08223405303
-0.08138830655
-0.07933629153
-0.0789137983
-0.07737360028
-0.07718321848
-0.07598389315
-0.07586139707
-0.07484586232
-0.07463786071
-0.07364964351
-0.07319964467
-0.07207658651
-0.07121249166
-0.0697872948
-0.1153865989
-0.1056734136
-0.09985211903
-0.09318848207
-0.08951709763
-0.08477420094
-0.08247973662
-0.07903304926
-0.077652539
-0.07511929073
-0.07434668332
-0.07247020671
-0.07208434421
-0.07067529395
-0.0705017433
-0.06940446798
-0.0692937112
-0.06836530789
-0.06817785482
-0.06727515121
-0.06686800067
-0.06584006773
-0.06505270498
-0.06373774384
-0.1041844911
-0.09540735161
-0.09014653563
-0.084124764
-0.08080674245
-0.07652063537
-0.07444700727
-0.07133258718
-0.07008512028
-0.06779688162
-0.06709905822
-0.06540531513
-0.06505729593
-0.06378684591
-0.06363096476
-0.06264260209
-0.06254368559
-0.06170746779
-0.06153939016
-0.06072516474
-0.06035833941
-0.05942808049
-0.05871475208
-0.05751563533
-0.09258836582
-0.08478389609
-0.08010623325
-0.07475174877
-0.07180160438
-0.06799042547
-0.06614683088
-0.06337737837
-0.06226841314
-0.06023330575
-0.05961299633
-0.0581061698
-0.05779688707
-0.05666632255
-0.05652828976
-0.05564894794
-0.05556286138
-0.05481972264
-0.05467454292
-0.0539514596
-0.05363212501
-0.05280285435
-0.05217346239
-0.05108948873
-0.08076350671
-0.07394785256
-0.06986243824
-0.06518620278
-0.06260960905
-0.0592813524
-0.05767141126
-0.05525353495
-0.05428557373
-0.05251008281
-0.05196928386
-0.05065651912
-0.05038764348
-0.04940472895
-0.04928541539
-0.04852244858
-0.04844801476
-0.04780341975
-0.04767627953
-0.04704757913
-0.0467666508
-0.04604244756
-0.04548762317
-0.0445341407
-0.06862514383
-0.06282769774
-0.05935254319
-0.05537472529
-0.0531829576
-0.05035173099
-0.048982261
-0.04692543036
-0.04610207792
-0.04459163414
-0.04413155449
-0.04301467452
-0.04278583484
-0.04194959398
-0.0418482351
-0.04119931012
-0.04113713379
-0.04058910141
-0.04048411623
-0.03994917487
-0.03971610012
-0.03909745864
-0.03863229822
-0.03780702074
-0.05632632234
-0.05155802446
-0.04869945648
-0.04542768598
-0.04362495565
-0.04129654563
-0.04017055778
-0.03847983468
-0.03780354746
-0.03656341368
-0.03618634883
-0.03527137985
-0.03508468753
-0.03440179701
-0.03431957773
-0.03379105231
-0.03373963758
-0.0332927467
-0.03320302434
-0.03276402212
-0.03256380231
-0.03205368538
-0.03165716451
-0.03098459665
-0.04379816781
-0.04008077539
-0.03785183177
-0.03530077036
-0.0338948986
-0.03207931183
-0.03120114201
-0.02988296717
-0.0293555479
-0.02838906217
-0.02809493735
-0.02738245256
-0.02723667075
-0.02670556899
-0.02664121426
-0.02623052636
-0.02619036825
-0.02584243507
-0.025772807
-0.02542880547
-0.02527419436
-0.02487257493
-0.0245704349
-0.02403749526
-0.03117991772
-0.02851906303
-0.02692326951
-0.02509709137
-0.02409078206
-0.02279137574
-0.02216331185
-0.02122077963
-0.02084440277
-0.02015488821
-0.01994593534
-0.01943979962
-0.01933714108
-0.01896219971
-0.01891737626
-0.01862892571
-0.01859990821
-0.01835452252
-0.01830068499
-0.01805322886
-0.01793033991
-0.01763496935
-0.01739330984
-0.01701901365
-0.01841953454
-0.01682902108
-0.01587425664
-0.01478196784
-0.0141795295
-0.01340224346
-0.01302622663
-0.01246302745
-0.01223796088
-0.01182726083
-0.0117025782
-0.01140307465
-0.0113419906
-0.01112233606
-0.01109560676
-0.01092806035
-0.01091009997
-0.01076655721
-0.01073183592
-0.01058239562
-0.01050164145
-0.01031722764
-0.01015785048
-0.009930164454
-0.005640210829
-0.005120342201
-0.004807282998
-0.004449512543
-0.004252025422
-0.003997599716
-0.003874972518
-0.00369189737
-0.003619659735
-0.003488627513
-0.003449837498
-0.003357940172
-0.003340103418
-0.003276962236
-0.003270072192
-0.003225188121
-0.00322043797
-0.003181577372
-0.003170011452
-0.00312339996
-0.003095291833
-0.00302854025
-0.002975646946
-0.002876057309
0.00719168275
0.006635288007
0.006303989294
0.005923958905
0.00571562844
0.005445247164
0.00531472711
0.005116517451
0.005036828414
0.004887476734
0.004841598881
0.004725433121
0.004701353436
0.004607777444
0.004596241166
0.004518684815
0.004512092391
0.004447189114
0.004439463815
0.004385316919
0.004371965374
0.00432532336
0.004302613075
0.004257338494
0.01997184885
0.01834415348
0.01737072222
0.01625584069
0.01564238948
0.01484918025
0.01446537823
0.01388755275
0.01365546995
0.01322755142
0.01309656235
0.01277449753
0.01270819519
0.01246019203
0.01242974653
0.01223147128
0.01221192112
0.01204361718
0.01201202396
0.0118563237
0.01179089004
0.01163173309
0.01151307291
0.01134285241
0.03271341293
0.03001712197
0.02840409403
0.02655680623
0.02554064367
0.0242265799
0.02359164444
0.02263547045
0.02225268708
0.02154654039
0.02133151327
0.0208029426
0.02069495172
0.02029141569
0.02024266048
0.01992306911
0.01989260479
0.01962197653
0.01957224638
0.01931786094
0.01921244626
0.01894215209
0.018745552
0.01843289023
0.04533426485
0.04157946754
0.03933201196
0.03675881429
0.0353425735
0.03351234925
0.03262760009
0.03129715623
0.03076457661
0.02978452155
0.02948659906
0.02875649996
0.02860845849
0.02805475255
0.02798943935
0.02755327712
0.02751262437
0.02714264176
0.02707283327
0.02672086615
0.0265694383
0.02618910807
0.02590476699
0.02545668951
0.0578246107
0.05302237678
0.05014808964
0.04685710012
0.04504623274
0.04270567557
0.04157486473
0.03987385341
0.03919361684
0.03794121076
0.03756092665
0.03662890616
0.03644003232
0.03573463485
0.0356516094
0.0350977841
0.03504714607
0.03457877157
0.03449244511
0.03404595479
0.03385617407
0.03336744582
0.03300378371
0.03241121783
0.07012800952
0.06429334431
0.06080035922
0.05680152712
0.05460074535
0.05175716751
0.05038326945
0.04831796243
0.04749254739
0.04597416404
0.04551441791
0.04438751321
0.04416154656
0.04331184707
0.04321533419
0.04255036399
0.04249324995
0.04193066295
0.04182908278
0.04128949898
0.04105970703
0.04046258217
0.04001626891
0.03927964019
0.08220928932
0.07536156261
0.07126233074
0.06656933137
0.06398685181
0.06064985876
0.05903792525
0.05661451945
0.05564622227
0.05386491978
0.05332544162
0.05200399887
0.05173852497
0.05074323428
0.05062974242
0.04985253797
0.04978618226
0.04913035195
0.04901334788
0.04838401856
0.04811697635
0.04741471573
0.04688842689
0.04600733653
0.09404103302
0.08619989717
0.08150550827
0.07613160183
0.07317432813
0.069353696
0.06750850412
0.06473516697
0.06362814252
0.06159178804
0.06097722569
0.05946945535
0.0591701797
0.05803754943
0.05791356804
0.05703115012
0.05696163035
0.05621682052
0.05608854217
0.0553706674
0.05506839871
0.05426122196
0.0536579679
0.05263161123
0.1055605094
0.09675345891
0.09148095123
0.0854451856
0.08212379852
0.07783279759
0.07576040971
0.07264587684
0.07140234902
0.0691157751
0.0684249134
0.06673240879
0.06639520202
0.06512480494
0.06498438376
0.06399620215
0.06391755893
0.0630849929
0.06294146091
0.06213851001
0.06179977629
0.06089154973
0.06021117803
0.05904428615
0.1167722081
0.1070232272
0.1011866014
0.0945053734
0.09082904062
0.08607973919
0.08378683415
0.08034087969
0.07896672025
0.07643878569
0.07567793462
0.07380934029
0.07344164744
0.07204172093
0.0718933133
0.07080610129
0.07072665718
0.06981017403
0.06965763046
0.06877008323
0.0683969342
0.06738640972
0.06662576636
0.06532308925
0.1275842786
0.1169286914
0.1105492555
0.1032467266
0.09922828925
0.09403745181
0.09153084495
0.08776472019
0.08626191171
0.08349939224
0.08266634807
0.08062485109
0.08022091294
0.07869231437
0.07852769626
0.07734180727
0.07725276142
0.07625419524
0.0760859941
0.07511839647
0.07470979929
0.07360399402
0.0727714758
0.07133574401
0.1380351669
0.1265009452
0.119595523
0.1116910332
0.107341943
0.1017237689
0.09901208722
0.09493695208
0.09331308227
0.09032548842
0.08942811983
0.08722235344
0.08679114923
0.08514168338
0.08497107816
0.0836928288
0.08360486254
0.08252815022
0.08235371483
0.08130751241
0.08086934255
0.07966887657
0.07876478849
0.0772015345
0.1480032976
0.1356331761
0.1282269935
0.1197494844
0.1150844597
0.1090589735
0.1061495824
0.1017790935
0.1000358093
0.09683188692
0.09586704528
0.09350191871
0.09303624339
0.09126816528
0.09108133092
0.08971188352
0.08961346029
0.08846049455
0.0882697656
0.0871490692
0.08667644921
0.08538792198
0.08441598608
0.08273120313
0.1575619688
0.1443875444
0.1365001075
0.1274716559
0.1225043832
0.1160877732
0.1129912222
0.1083377873
0.1064843337
0.1030740803
0.1020510537
0.0995350204
0.09904514873
0.09716575395
0.09697438072
0.09551978298
0.09542367009
0.09419887615
0.09400433443
0.09281182776
0.09231463155
0.09093989481
0.08990511061
0.08810308011
0.1665605055
0.1526313793
0.1442914625
0.1347453876
0.129492224
0.1227074848
0.1194315708
0.1145110658
0.1125487658
0.1089428075
0.1078576664
0.1051973303
0.1046749369
0.102687822
0.102480093
0.1009420743
0.1008344096
0.09953915022
0.09932743543
0.09806594604
0.09753525481
0.09608037068
0.09498292938
0.09307388037
0.1751065382
0.1604575649
0.1516871569
0.1416480519
0.1361247795
0.1289899568
0.1255470249
0.1203730308
0.1183126283
0.1145214151
0.1133846325
0.1105882755
0.1100445724
0.1079566091
0.1077451596
0.1061297206
0.1060246599
0.1046642352
0.1044500439
0.1031239415
0.1025726247
0.1010409092
0.09988888703
0.0978765976
0.1830223578
0.1677093341
0.1585403812
0.1480454809
0.1422699223
0.1348106519
0.1312089227
0.1257992977
0.1236419466
0.1196778269
0.1184850303
0.1155608748
0.1149869733
0.1128030996
0.1125753401
0.1108848005
0.1107671677
0.1093423477
0.1091101174
0.1077207204
0.1071369244
0.1055335565
0.1043248214
0.1022221895
0.1904478293
0.1745085031
0.1649652096
0.1540413841
0.1480311706
0.1402672169
0.1365205744
0.1308900301
0.1286476738
0.1245215892
0.1232840485
0.1202402879
0.1196477916
0.1173745304
0.1171432553
0.115383621
0.1152679165
0.1137849923
0.1135505008
0.112104192
0.1115028863
0.1098331144
0.1085782333
0.1063885706
0.1971817936
0.1806773681
0.1707944799
0.159482371
0.1532566948
0.1452159821
0.1413331891
0.1355012973
0.1331752356
0.1289010528
0.1276144895
0.124460877
0.123841169
0.1214849441
0.1212380391
0.1194127056
0.1192841764
0.1177441092
0.1174916945
0.1159890426
0.1153574285
0.113625645
0.1123211558
0.1100584759
0.2033926486
0.1863634077
0.1761670097
0.1644954948
0.1580734741
0.1497773208
0.1457733953
0.1397559622
0.1373588721
0.1329481124
0.1316240226
0.1283687964
0.1277330991
0.1253000934
0.1250493785
0.1231640448
0.123035878
0.1214452469
0.121189591
0.119638066
0.1189908759
0.1172034093
0.1158605601
0.1135271407
0.2088608423
0.1913724948
0.1808997676
0.1689123545
0.1623145338
0.1537927928
0.1496772822
0.1434952993
0.14102909
0.1364968611
0.1351317603
0.1317860023
0.1311270029
0.1286251968
0.1283605864
0.1264203423
0.1262804871
0.1246417457
0.1243700697
0.1227711597
0.1220977269
0.1202592639
0.118875042
0.1164851105
0.2137781121
0.19587313
0.1851516363
0.1728789001
0.1661254058
0.1574007347
0.1531892372
0.1468595513
0.1443370003
0.1396955457
0.1383004176
0.1348726885
0.1342002983
0.1316357312
0.131366777
0.1293768048
0.1292352852
0.1275544878
0.1272780048
0.1256390819
0.1249515954
0.1230685887
0.121653679
0.1192078869
0.2179128348
0.1996604394
0.1887294392
0.1762171975
0.1693299804
0.1604338172
0.1561370156
0.1496817396
0.1471059474
0.1423712434
0.1409441883
0.1374464292
0.1367556971
0.1341374815
0.1338576225
0.131824619
0.1316742449
0.1299558247
0.1296674553
0.127991833
0.1272845253
0.1253626002
0.1239156271
0.1214282591
0.2214736857
0.2029181899
0.1918062619
0.179086423
0.1720860342
0.1630420799
0.158675457
0.152112357
0.1494954061
0.1446805804
0.143231177
0.1396727542
0.1389712441
0.136305941
0.1360211285
0.1339502612
0.1337960207
0.1320454909
0.1317504944
0.1300450279
0.1293252132
0.1273709769
0.1259018655
0.1233718075
0.2242241998
0.2054372744
0.1941854065
0.1813055471
0.174215452
0.1650564383
0.1606322544
0.1539843282
0.1513311932
0.1464527082
0.1449814901
0.1413745151
0.1406606263
0.1379574582
0.1376658914
0.1355642978
0.1354056345
0.1336284519
0.1333280708
0.1315973914
0.1308673063
0.1288870959
0.1273973831
0.1248402588
0.2263827972
0.2074102429
0.1960475256
0.1830404544
0.175880967
0.1666312182
0.1621640268
0.1554496751
0.1527707927
0.1478426828
0.1463567675
0.1427119161
0.1419897184
0.1392568077
0.1389595034
0.1368336746
0.1366686672
0.1348708785
0.1345614161
0.1328122984
0.1320703868
0.130072102
0.1285699243
0.1259862322
0.2277158219
0.2086306533
0.1971994428
0.1841139688
0.1769102023
0.167603547
0.16310769
0.1563507313
0.1536537297
0.1486927833
0.1471960692
0.1435250979
0.142797273
0.1400428235
0.1397435566
0.1375992822
0.1374347785
0.1356206189
0.1353127383
0.1335486265
0.1328070549
0.1307946954
0.1292878378
0.1266906949
0.228444006
0.2092931365
0.1978225141
0.1846918411
0.1774631795
0.1681239906
0.1636122124
0.1568311187
0.1541237187
0.1491444839
0.1476404159
0.1439553463
0.1432212392
0.1404556963
0.1401494672
0.1379961876
0.137822423
0.1360006025
0.1356799642
0.1339088004
0.1331508385
0.1311312784
0.1296060741
0.1270072873
0.2283439712
0.2092006447
0.197733946
0.1846076151
0.1773809247
0.1680440391
0.1635332695
0.1567528787
0.1540462056
0.1490661342
0.1475630362
0.1438755051
0.1431431022
0.1403734531
0.1400701748
0.1379114181
0.1377423586
0.1359143995
0.1356004276
0.1338235956
0.1330736782
0.131050583
0.129533683
0.1269344738
0.2276317166
0.2085435528
0.1971093514
0.1840204041
0.1768134943
0.167502621
0.1630029585
0.1562409224
0.1535389119
0.1485720219
0.1470683944
0.1433907317
0.1426533857
0.1398917286
0.1395796543
0.137428061
0.137246907
0.1354259894
0.1350976772
0.1333283471
0.1325646164
0.1305505207
0.129026574
0.1264415352
0.2261007934
0.2071401679
0.1957823293
0.1827805422
0.1756220265
0.1663729775
0.1619043187
0.1551869188
0.1525049532
0.1475702721
0.1460799657
0.1424250649
0.1416972925
0.1389510515
0.1386469976
0.1365053466
0.1363323677
0.1345180333
0.1341993854
0.1324358562
0.1316841206
0.1296780218
0.1281684438
0.1255958887
0.2239564496
0.2051712396
0.1939174002
0.1810350933
0.1739407155
0.1647757891
0.1603449712
0.1536879497
0.1510253658
0.1461347585
0.1446502889
0.1410284861
0.1402965198
0.1375765043
0.1372612612
0.1351421681
0.1349542173
0.1331612072
0.1328278126
0.1310862139
0.1303255638
0.1283434561
0.1268385332
0.1242929474
0.221014382
0.2024750455
0.1913690561
0.1786556994
0.1716555981
0.1626114666
0.1582414031
0.1516728867
0.1490496765
0.1442248751
0.1427663337
0.1391939009
0.1384798418
0.1357972066
0.1354955824
0.1334054182
0.1332293933
0.1314600605
0.1311389432
0.1294188978
0.1286730332
0.1267133627
0.1252283028
0.1227083694
0.2174646618
0.199218836
0.1882870791
0.1757737837
0.1688814121
0.1599783628
0.155672454
0.1492053369
0.1466160556
0.1418651462
0.1404188143
0.1369013288
0.1361839634
0.1335438936
0.1332289552
0.1311742468
0.1309808413
0.1292441336
0.1289085859
0.1272218146
0.1264725961
0.1245496366
0.1230807728
0.1206026998
0.2131484315
0.195263682
0.1845493323
0.1722846198
0.165531113
0.1568063049
0.1525899881
0.1462542222
0.1437229876
0.1390709798
0.1376627655
0.1342214294
0.1335302055
0.1309505707
0.1306552247
0.1286506699
0.1284739554
0.1267814011
0.1264624685
0.1248170526
0.1240877842
0.122205435
0.1207648786
0.1183276676
0.2082381369
0.1907613067
0.1802893088
0.1683027311
0.161699361
0.1531708091
0.1490444764
0.1428497644
0.1403671412
0.1358176233
0.1344287502
0.1310628309
0.1303705981
0.12784798
0.1275392147
0.1255802953
0.1253861809
0.1237338996
0.1234030658
0.12179813
0.1210723671
0.1192363683
0.1178237054
0.1154444776
0.2026014881
0.1855963787
0.1754084672
0.1637468335
0.1573248775
0.149029477
0.1450199568
0.1389973052
0.1365899428
0.1321704581
0.1308304567
0.1275655285
0.1269062915
0.1244651937
0.124180922
0.1222914367
0.1221184689
0.1205290948
0.120220123
0.1186751902
0.1179767055
0.1161993727
0.1148261064
0.1125041641
0.1963929491
0.1799049943
0.1700246056
0.1587157164
0.1524846851
0.1444383447
0.140544042
0.1347004786
0.1323567621
0.1280672599
0.1267551005
0.1235852552
0.1229298151
0.1205594434
0.1202653217
0.1184307042
0.1182448821
0.116702081
0.1163884553
0.1148895284
0.1142051456
0.112482247
0.1111501486
0.1089016027
0.1895057885
0.173594282
0.1640609002
0.1531490044
0.1471392338
0.1393774985
0.135625009
0.1299910763
0.1277376752
0.1236060315
0.1223510756
0.1193030962
0.1186846327
0.1164117668
0.116143754
0.1143913238
0.1142277383
0.1127588193
0.1124693682
0.111041089
0.1103891463
0.1087369619
0.1074539279
0.1052783604
0.182078028
0.1667863123
0.1576218478
0.1471329105
0.1413527455
0.1338899112
0.1302770099
0.1248582861
0.1226838005
0.1187085864
0.1174913097
0.1145578365
0.1139504429
0.1117625488
0.1114917236
0.1098046282
0.1096366985
0.1082223221
0.1079389692
0.1065637597
0.1059384669
0.1043492352
0.1031203923
0.1010316383
0.1740256909
0.1594079613
0.1506488847
0.1406237654
0.1351014882
0.1279705511
0.1245218829
0.1193466116
0.117275034
0.1134815741
0.1123270352
0.1095315763
0.1089616137
0.1068810958
0.1066334949
0.1050334826
0.1048834731
0.1035446256
0.1032819661
0.1019785603
0.1013855883
0.09987198386
0.0986981008
0.09669659552
0.1654733304
0.151570088
0.1432367318
0.1336994812
0.1284428306
0.1216570299
0.1183710034
0.1134446874
0.1114670089
0.1078550771
0.1067485971
0.1040867195
0.1035362284
0.1015556711
0.1013135614
0.09979124856
0.09964603095
0.09837249694
0.09812571181
0.09688524066
0.09632844841
0.09488751218
0.09377695253
0.09187355159
0.1563556963
0.1432156087
0.1353408126
0.1263282154
0.1213625148
0.114951297
0.1118492798
0.1071963711
0.1053319673
0.1019220595
0.1008816229
0.09837009681
0.0978548549
0.09598721628
0.09576201392
0.09432672604
0.09419064007
0.09298901029
0.09275412282
0.09158184597
0.09105203808
0.08968848043
0.08863516355
0.08683263177
0.1467876359
0.1344475636
0.1270499221
0.1185839314
0.1139166363
0.1078925034
0.1049742938
0.1006010844
0.09884452154
0.09563918104
0.09465655415
0.09229640885
0.09180836522
0.09005519557
0.08984257517
0.08849782123
0.08837352441
0.08724952687
0.08703725228
0.08594008699
0.08545280496
0.08417346188
0.08319054837
0.08149643021
0.1367180533
0.1252208571
0.1183291727
0.110442049
0.1060949906
0.100483275
0.09776636307
0.09369286501
0.09205834372
0.08907255434
0.08815833037
0.08595894345
0.0855034841
0.08386770245
0.0836653612
0.08240744075
0.08228284057
0.08122786607
0.081017101
0.0799857256
0.07951739792
0.0783180157
0.0773918649
0.0758117548
0.1262559791
0.1156340606
0.1092648856
0.1019761403
0.09795647341
0.09276885294
0.09025447789
0.08648776514
0.08497328294
0.08221219767
0.08136390009
0.07933112968
0.07890853714
0.07739921402
0.07721371769
0.07605665311
0.07594740724
0.07498024195
0.07479576272
0.07385054026
0.07342981354
0.0723262291
0.0714783881
0.07001675365
0.1153599829
0.105650238
0.09982815046
0.09316532093
0.08949125209
0.08474885919
0.08245077821
0.0790066788
0.07762204562
0.07509611086
0.0743189192
0.07245699032
0.07206609461
0.07068019401
0.07050165891
0.06943485748
0.06932045602
0.06842469881
0.06823624623
0.06735988257
0.06695373791
0.06593591187
0.06514535632
0.06380908961
0.1041367255
0.09536631269
0.09010539968
0.08408507292
0.08076312999
0.07647636543
0.07439670976
0.07128233613
0.07002778309
0.06774323889
0.06703800794
0.06535456729
0.06499966873
0.06374829516
0.06358750629
0.06262683285
0.06252713163
0.06172302504
0.06155989052
0.06077385006
0.0604161227
0.05950020517
0.05879279414
0.05758367336
0.09255053808
0.08475030415
0.08007090312
0.07471588272
0.07176081092
0.06794684749
0.06609625632
0.06332402382
0.0622064528
0.06017096589
0.05954042179
0.05803797321
0.05771657611
0.05659671054
0.05644451618
0.05558172212
0.0554795982
0.05475529057
0.05459262266
0.05388498514
0.05354781693
0.05272747814
0.0520843966
0.05100908001
0.08070832713
0.07389949085
0.06981274513
0.06513615686
0.06255335655
0.05922069625
0.05760136321
0.05517743315
0.05419776746
0.05241691078
0.05186248253
0.05054735783
0.05026315784
0.0492826838
0.04914681451
0.0483913291
0.04830012837
0.04766564491
0.04752286336
0.04690247355
0.04660845551
0.04588913282
0.04532761282
0.04438574308
0.06857716361
0.06278447063
0.05930655511
0.0553265491
0.05312759686
0.05028978847
0.04890994353
0.04684406943
0.04600766666
0.04448769126
0.04401194193
0.04288715921
0.04263987765
0.0417992672
0.04167657771
0.04102770935
0.04094146285
0.04039688129
0.04026560884
0.03973500294
0.03947525836
0.03886213579
0.03837747636
0.03757511451
0.0562657845
0.05150395398
0.04864261799
0.04536836405
0.04355701671
0.04122007995
0.04008119781
0.03837780676
0.03768506877
0.03642986945
0.03603305095
0.03510248625
0.03489287263
0.03419573345
0.03408784463
0.03354782259
0.03346917962
0.03301381
0.03289760329
0.03245251374
0.03223067223
0.03171811542
0.03131236127
0.03064846248
0.04374200099
0.04002962132
0.03779697221
0.03524205372
0.03382700129
0.03200112883
0.0311095824
0.02977619772
0.02923175005
0.02824657882
0.02793194604
0.02719908675
0.02702946306
0.02647851577
0.02638746821
0.02595990305
0.02589145929
0.02553170223
0.02543451589
0.02508488656
0.02490666487
0.024505556
0.02418533039
0.02366462729
0.03111688023
0.02846178201
0.02686182264
0.02503107105
0.02401400965
0.02270229627
0.02205827165
0.02109711346
0.02070014657
0.01998697274
0.01975305995
0.0192199525
0.01908835776
0.01868559049
0.01860889307
0.01829500297
0.01823355383
0.01796880089
0.01788657166
0.01762947719
0.01749024516
0.01719697666
0.01695862381
0.01658153279
0.01835800207
0.01677254032
0.01581336834
0.01471584676
0.014102775
0.01331221989
0.0129205858
0.01233714379
0.01209196382
0.01165497466
0.01150583666
0.01117542786
0.01108577815
0.01083300302
0.01077440567
0.01057519334
0.01052425697
0.01035530546
0.01029133055
0.01012801174
0.01003092971
0.009847313136
0.009693674528
0.009461655461
0.005578234376
0.005063148833
0.004744814187
0.004380783834
0.004171077908
0.003901555689
0.003760856544
0.003554801848
0.003458980249
0.003297984998
0.00323019797
0.00310299262
0.003051085745
0.00295027674
0.002905330124
0.002825070615
0.002780751491
0.00271463383
0.002666481401
0.002606055986
0.002550903744
0.002485432349
0.002418514155
0.00233451682
-0.007255082658
-0.00669377534
-0.006367199736
-0.005993213292
-0.005796175767
-0.005540785807
-0.005426997832
-0.005252035816
-0.00519417217
-0.005075800226
-0.005056885037
-0.004978260757
-0.004986351388
-0.004934362135
-0.004959844214
-0.004923568449
-0.004957222381
-0.00492738878
-0.00495892385
-0.00492740605
-0.004943642447
-0.004902066978
-0.004887390281
-0.004826449204
-0.02002874666
-0.01839740225
-0.01742984836
-0.01632220812
-0.01572143096
-0.01494460668
-0.01457955771
-0.01402675887
-0.01381954684
-0.01342482835
-0.01332521405
-0.01304320126
-0.01301513663
-0.01281110469
-0.01282567315
-0.01267025923
-0.01270120848
-0.01256793813
-0.01258838671
-0.0124527626
-0.01243160937
-0.01227028006
-0.01217144105
-0.01196122892
-0.03277479089
-0.0300738664
-0.02846539511
-0.02662421556
-0.02561904116
-0.02432007721
-0.02370158206
-0.02276906525
-0.0224079839
-0.02173376675
-0.02154598339
-0.02105656551
-0.02098184724
-0.02062204232
-0.02061290987
-0.02033681702
-0.02035157988
-0.02011760002
-0.02011503525
-0.01988312202
-0.01981687937
-0.01954625441
-0.01936221205
-0.01900933837
-0.04538197283
-0.04162472634
-0.03938308816
-0.03681720559
-0.0354128333
-0.03359844369
-0.03273128287
-0.03142510828
-0.03091627812
-0.02996893728
-0.0297019076
-0.02901224271
-0.02890354374
-0.02839574246
-0.02837948205
-0.02799023653
-0.02800846912
-0.02767966254
-0.02767490249
-0.02734955873
-0.02725670424
-0.02687600322
-0.02661733599
-0.0261178674