/*--------------------------------*- C++ -*----------------------------------*\
| =========                 |                                                 |
| \\      /  F ield         | foam-extend: Open Source CFD                    |
|  \\    /   O peration     | Version:  3.0                                   |
|   \\  /    A nd           | Web:         http://www.extend-project.de       |
|    \\/     M anipulation  |                                                 |
\*---------------------------------------------------------------------------*/
FoamFile
{
    version     2.0;
    format      ascii;
    class       volSymmTensorField;
    location    "59";
    object      sigma;
}
// * * * * * * * * * * * * * * * * * * * * * * * * * * * * * * * * * * * * * //

dimensions      [0 0 0 0 0 0 0];

internalField   nonuniform List<symmTensor> 
2688
(
(-0.1771667538 -0.004588152113 1.833480834e-19 0.1770906637 3.927190332e-19 7.609004307e-05)
(-0.173641105 -0.005458219462 2.393426336e-20 0.1734352541 2.630270524e-19 0.0002058508986)
(-0.1664297942 -0.005853803208 -9.189339456e-20 0.1661078465 7.527673208e-19 0.0003219477231)
(-0.1570945365 -0.005926974711 8.017021637e-20 0.1566676229 3.315497236e-19 0.0004269136189)
(-0.1472174494 -0.00584074218 4.503313329e-21 0.1466950296 4.433353728e-19 0.000522419855)
(-0.136862802 -0.005629806282 1.285578542e-19 0.1362531186 2.231200425e-19 0.0006096833564)
(-0.1269058698 -0.005368090946 7.376725977e-21 0.1262166297 3.05505132e-19 0.0006892401661)
(-0.1170395632 -0.005061138491 9.318916677e-20 0.1162779517 1.242329823e-19 0.0007616114498)
(-0.1078018887 -0.004742295618 -1.981076405e-20 0.1069752983 2.498764144e-19 0.00082659037)
(-0.09886772929 -0.004413105148 -5.927902029e-20 0.09798347389 -6.209837946e-20 0.0008842553974)
(-0.09056137984 -0.004085631278 9.630336175e-20 0.08962756982 4.71668324e-19 0.0009338100263)
(-0.08264763377 -0.003764343467 -6.280806851e-20 0.08167268597 7.237389718e-20 0.0009749477916)
(-0.07529475378 -0.003448975094 3.73975793e-19 0.07428839928 1.292804609e-19 0.001006354495)
(-0.06838244335 -0.003148504168 -7.994232966e-20 0.06735520667 2.402269267e-20 0.00102723668)
(-0.06195766006 -0.002854918991 -1.526803857e-21 0.06092184444 8.253832682e-20 0.001035815621)
(-0.05601291618 -0.002581740339 2.240340745e-20 0.05498234943 1.801859096e-20 0.001030566744)
(-0.05049825794 -0.002315869571 -5.60270287e-20 0.04948897312 1.578473743e-19 0.001009284814)
(-0.04550770981 -0.002074572454 2.251205555e-19 0.04453832438 7.296013894e-20 0.0009693854324)
(-0.04091615521 -0.00184173208 -2.237986791e-19 0.04000794068 -8.928974817e-20 0.0009082145333)
(-0.03690100484 -0.001636489427 1.647487047e-19 0.03607916131 1.770209005e-19 0.000821843523)
(-0.03328954043 -0.001442633432 7.852535922e-20 0.03258257544 -1.780373756e-19 0.0007069649917)
(-0.03031377269 -0.001277654226 5.5778902e-20 0.02975556181 -3.287047537e-19 0.0005582108802)
(-0.02779446966 -0.001134509921 -2.295230199e-20 0.02742340524 8.407004131e-20 0.0003710644192)
(-0.02597685946 -0.001006143912 -9.511309767e-20 0.02583803438 -6.570779868e-19 0.0001388250753)
(-0.1766985431 -0.01418072338 3.908946408e-20 0.1766218981 -4.891476407e-19 7.664497823e-05)
(-0.1727497334 -0.01675848491 2.82924075e-19 0.1725423613 -2.925688804e-19 0.000207372153)
(-0.165289918 -0.01794387498 8.440187194e-20 0.1649655787 -4.748668248e-19 0.0003243393245)
(-0.1558276373 -0.01818566029 -1.774363256e-19 0.1553975796 -4.789488436e-20 0.0004300577117)
(-0.1458878848 -0.01796537448 1.08466111e-19 0.145361625 -1.571407891e-19 0.0005262597768)
(-0.1355199507 -0.01738468723 -1.197576198e-19 0.1349057839 -3.015034624e-19 0.0006141667361)
(-0.1255746862 -0.01666241116 2.099146974e-19 0.1248803735 1.265439865e-19 0.0006943127376)
(-0.1157395756 -0.01581423955 -6.745928424e-20 0.11497234 -4.471605263e-19 0.0007672356442)
(-0.1065429328 -0.0149392526 -8.046982894e-20 0.1057102115 5.306923204e-20 0.0008327213154)
(-0.0976558273 -0.0140416437 2.383075572e-19 0.09676495999 -4.117031737e-19 0.0008908673019)
(-0.08940030091 -0.01315746197 8.30038589e-20 0.08845944404 -9.758167132e-20 0.0009408568669)
(-0.0815368617 -0.0122998015 -2.873893838e-20 0.08055445418 -2.752062802e-19 0.0009824075231)
(-0.07423560328 -0.01146800782 -1.901184336e-19 0.07322143324 1.31699178e-19 0.001014170037)
(-0.06737097822 -0.01068862809 1.671507137e-19 0.06633560121 -6.137302905e-20 0.001035377008)
(-0.06099425137 -0.009937766084 -6.245765389e-20 0.05995005408 2.018817534e-19 0.001044197286)
(-0.05509165198 -0.009255292748 5.024089799e-20 0.05405252726 3.584241761e-19 0.001039124714)
(-0.04961913102 -0.008602191335 3.074996328e-19 0.0486012485 -2.213487206e-19 0.001017882516)
(-0.04466356719 -0.008028917836 -4.461750524e-19 0.04368568554 4.273361482e-19 0.0009778816526)
(-0.04010646605 -0.007488571696 3.318732827e-19 0.03919008486 3.482907494e-19 0.0009163811893)
(-0.0361178576 -0.007035899964 -1.832513698e-20 0.03528843725 -1.805880022e-20 0.0008294203492)
(-0.03253088444 -0.006626067215 -4.726323204e-19 0.0318172854 1.60370275e-19 0.0007135990418)
(-0.02957163845 -0.006307036137 1.713188801e-19 0.02900814024 3.800214777e-19 0.0005634982159)
(-0.02706349419 -0.00605437286 -3.646956208e-19 0.02668897716 2.638066545e-19 0.0003745170294)
(-0.02525121399 -0.005877443457 2.911505517e-19 0.02511121206 -7.513424192e-20 0.0001400019312)
(-0.1757479597 -0.02374898128 2.130237885e-19 0.1756710023 3.822414683e-19 7.69574421e-05)
(-0.1709663758 -0.02791651324 -2.105570196e-20 0.1707581724 5.205232942e-19 0.00020820341)
(-0.1630165869 -0.02981958845 5.197948479e-20 0.162690949 2.330339251e-19 0.0003256378755)
(-0.1533035028 -0.03018973764 2.813326375e-19 0.1528717108 1.894340174e-19 0.0004317919713)
(-0.143238928 -0.0298121718 -1.979398441e-19 0.14271056 3.105767597e-19 0.0005283679796)
(-0.1328433244 -0.02885161935 3.066328071e-19 0.1322267027 1.747061866e-19 0.000616621693)
(-0.1229189721 -0.02766564497 -9.194251571e-20 0.1222218923 2.577133559e-19 0.0006970798128)
(-0.1131430371 -0.02627842335 1.190005882e-20 0.1123727386 2.05428484e-19 0.000770298526)
(-0.1040244727 -0.02485249325 -4.843827052e-20 0.1031884065 5.131273685e-19 0.000836066262)
(-0.09522704572 -0.02339343074 -2.314859158e-19 0.09433255543 1.857123192e-19 0.0008944902839)
(-0.08706817004 -0.021960885 1.663860751e-19 0.08612341481 4.88250918e-19 0.0009447552309)
(-0.07930006313 -0.02057524106 1.551817599e-19 0.07831347648 6.443227778e-20 0.0009865866493)
(-0.07209621757 -0.01923606728 5.731031261e-19 0.07107758904 -5.249091553e-20 0.001018628534)
(-0.06532093286 -0.01798596129 -4.033264371e-22 0.06428081208 -7.351740618e-20 0.001040120782)
(-0.05903364032 -0.01678631834 4.568191864e-19 0.05798442929 -8.234489303e-20 0.001049211033)
(-0.05320848749 -0.01570163569 -3.193409792e-19 0.05216409198 -8.55622308e-20 0.001044395507)
(-0.04781259268 -0.01466846908 -1.5560093e-21 0.04678923102 1.13623564e-19 0.001023361654)
(-0.04291914452 -0.01376865933 9.862293591e-19 0.04193564264 -1.125991623e-19 0.0009835018772)
(-0.03842242258 -0.0129261104 -6.220841562e-19 0.03750038789 6.549754849e-20 0.0009220346848)
(-0.03447799473 -0.01222969024 4.496573049e-20 0.03364306561 -1.848722204e-20 0.0008349291221)
(-0.03093147543 -0.01160732795 5.296067227e-19 0.03021272338 -3.364095366e-21 0.0007187520482)
(-0.02799527202 -0.01113656813 3.489502162e-19 0.02742733669 -3.758435992e-19 0.0005679353358)
(-0.02550206573 -0.01077671883 -5.369910164e-19 0.02512424265 2.626533443e-19 0.0003778230855)
(-0.02368652489 -0.01055246588 -2.102141278e-19 0.02354504768 -5.240916426e-19 0.0001414772135)
(-0.1743142833 -0.03327309999 6.260280945e-20 0.1742372884 2.928824539e-22 7.699492854e-05)
(-0.1683167609 -0.03883984036 1.784293687e-19 0.1681084487 -2.051993945e-19 0.000208312186)
(-0.1596523493 -0.04134307955 -5.216725296e-20 0.1593265497 -7.095534264e-19 0.0003257996214)
(-0.1495741083 -0.04177567383 -1.795297504e-19 0.1491420955 9.095979803e-20 0.0004320127339)
(-0.1393284001 -0.0412028375 1.581605169e-19 0.1387997806 -2.129741392e-19 0.0005286195126)
(-0.1288933783 -0.03984578585 -2.04605949e-19 0.1282764701 2.695732108e-20 0.0006169081987)
(-0.1190004114 -0.03819081594 3.221789882e-19 0.1183030185 -5.570850322e-20 0.0006973929183)
(-0.109311493 -0.03626795133 5.372949041e-20 0.1085408414 2.56101294e-19 0.0007706515252)
(-0.1003073187 -0.03429933442 8.029472981e-20 0.09947085089 -4.448282071e-19 0.0008364677836)
(-0.09164095287 -0.03228999344 1.934985941e-19 0.09074598245 6.902611786e-20 0.0008949704193)
(-0.08362305325 -0.03032243284 -6.374555914e-20 0.08267771822 2.37136862e-19 0.0009453350329)
(-0.07599369546 -0.02842223857 -4.777405071e-19 0.07500638355 -3.995389934e-19 0.0009873119143)
(-0.06893133267 -0.02659014913 -4.659149136e-19 0.06791180775 5.386935021e-19 0.001019524925)
(-0.06228539791 -0.02488234585 2.94990157e-19 0.06124415766 -5.285059976e-19 0.001041240247)
(-0.05612719677 -0.0232474969 -2.406139471e-19 0.05507662793 1.045463433e-18 0.001050568847)
(-0.0504133152 -0.02177177761 4.588698599e-19 0.04936728563 -1.897953245e-19 0.001046029561)
(-0.04512686417 -0.02037008403 3.941217355e-20 0.04410160952 4.816775263e-19 0.001025254649)
(-0.04032171047 -0.01915209998 -3.091842914e-19 0.03933606254 -4.223728815e-19 0.0009856479361)
(-0.03590954429 -0.01801607031 6.628649213e-19 0.0349851892 5.004554321e-20 0.0009243550922)
(-0.03202720667 -0.01708084337 -2.374348225e-19 0.03118986929 9.880327037e-20 0.0008373373848)
(-0.02853492573 -0.01625129304 -9.061839289e-19 0.02781385493 1.803454294e-19 0.0007210707922)
(-0.02563106077 -0.01563008896 6.907893895e-19 0.02506110425 5.112871874e-20 0.0005699565186)
(-0.02315427553 -0.01516471591 -3.12598064e-19 0.02277503478 4.713358796e-19 0.0003792407524)
(-0.02133468322 -0.01489007136 4.459697054e-19 0.02119269549 4.037266797e-20 0.0001419877294)
(-0.1723951579 -0.04273596623 8.968974319e-20 0.1723183701 1.280534956e-19 7.678775164e-05)
(-0.1648382313 -0.04944146605 -3.823258983e-19 0.1646304982 -1.468341473e-19 0.0002077331768)
(-0.1552590913 -0.05238494544 3.158921439e-19 0.1549342209 -3.098730856e-19 0.0003248704193)
(-0.1447154276 -0.05279062926 5.076568348e-19 0.1442846525 3.44854833e-19 0.0004307750911)
(-0.1342406081 -0.05197088955 -1.112087101e-19 0.1337135264 -3.265779915e-19 0.0005270817337)
(-0.1237585689 -0.05019483846 3.060280312e-19 0.1231434701 5.365352418e-19 0.0006150988085)
(-0.1139091465 -0.04806369999 1.980959272e-19 0.1132138135 -3.333745554e-19 0.0006953329729)
(-0.1043351386 -0.04560981998 -2.635783133e-19 0.1035667656 4.365964285e-19 0.0007683729602)
(-0.09548059935 -0.0431097221 -2.610191956e-19 0.09464659289 3.548549109e-19 0.0008340064656)
(-0.08698511348 -0.04056521607 4.912763363e-19 0.0860927398 -2.806402268e-19 0.000892373682)
(-0.07915039963 -0.03808068807 4.92434359e-20 0.07820774586 -2.310872423e-19 0.0009426537683)
(-0.07170116523 -0.03568405983 5.022475356e-19 0.07071655176 -6.07675451e-20 0.0009846134717)
(-0.06482199475 -0.03337850984 2.810646644e-19 0.06380512288 3.781432653e-19 0.001016871874)
(-0.0583434534 -0.03123052394 4.254426574e-19 0.057304734 -2.210870891e-19 0.001038719406)
(-0.05235181493 -0.02917856327 8.779247621e-19 0.05130356859 2.843418248e-19 0.001048246335)
(-0.04678136998 -0.0273267959 -7.757615088e-19 0.04573736798 -8.48955034e-19 0.001044001998)
(-0.04163548211 -0.02557160065 1.004073863e-19 0.04061190219 -6.773028349e-19 0.001023579922)
(-0.03694336406 -0.02404664219 1.981173099e-19 0.03595895624 2.791475903e-19 0.0009844078195)
(-0.03263921832 -0.02262763086 -9.994483797e-20 0.03171563665 -2.053817587e-19 0.0009235816777)
(-0.02883514735 -0.02146001506 5.6033411e-19 0.0279980965 6.028873233e-20 0.0008370508553)
(-0.02541203739 -0.02042816434 4.386608192e-19 0.02469079915 -2.255602584e-19 0.0007212382422)
(-0.02254669038 -0.01965752323 3.974207469e-19 0.02197622637 5.662498595e-19 0.0005704640059)
(-0.02009121863 -0.01908723783 1.625584759e-19 0.01971131801 -9.6659427e-19 0.000379900618)
(-0.01825635245 -0.01875953534 -8.208687029e-19 0.01811392409 9.850213696e-19 0.0001424283608)
(-0.1699893224 -0.05211661179 -2.641841959e-19 0.1699130291 7.078551568e-19 7.629326121e-05)
(-0.1605797186 -0.05964061828 -3.966497139e-19 0.1603733057 4.80720324e-19 0.0002064128842)
(-0.149917192 -0.06282729313 -7.203939011e-20 0.1495944006 2.795200773e-20 0.0003227914016)
(-0.1388259358 -0.06309581932 -2.08059981e-19 0.1383979209 2.961874165e-19 0.000428014913)
(-0.1280848582 -0.06196569226 1.872823875e-19 0.1275611778 3.419874343e-19 0.0005236803993)
(-0.117553369 -0.05974299175 -1.579416995e-19 0.1169422569 -2.129200433e-19 0.0006111120781)
(-0.1077618943 -0.0571269987 3.342778773e-19 0.1070710895 -1.507371912e-20 0.0006908048105)
(-0.09833054916 -0.05414794356 6.181114173e-19 0.09756718789 6.152947422e-19 0.0007633612785)
(-0.08965950857 -0.0511302908 -3.285764695e-19 0.08883094089 -9.94319907e-19 0.0008285676841)
(-0.08137247962 -0.04806935783 -7.415827524e-19 0.08048589635 9.937228004e-19 0.0008865832728)
(-0.07376038636 -0.04509017264 5.164085715e-20 0.07282380031 2.805720196e-19 0.000936586049)
(-0.06652975425 -0.0422195056 -1.83804306e-20 0.06555138654 -1.365668204e-19 0.0009783677033)
(-0.05987237351 -0.03946450978 -4.694244873e-19 0.05886183251 9.776949195e-20 0.001010540993)
(-0.05359640922 -0.03689796382 4.065091781e-20 0.05256398258 -1.288639745e-19 0.001032426635)
(-0.04780580603 -0.03445125443 -3.465766127e-19 0.04676370819 1.941131353e-19 0.001042097845)
(-0.04240848718 -0.03224192175 -3.555417016e-19 0.0413703486 -4.766381923e-19 0.001038138577)
(-0.03743135736 -0.03015197782 3.916195386e-19 0.03641324737 1.489306874e-18 0.001018109988)
(-0.0328752033 -0.02833373934 3.490677328e-19 0.03189572583 -2.472063942e-19 0.00097947747)
(-0.02869913869 -0.02664534205 1.855271442e-19 0.02777985337 6.663991889e-19 0.0009192853174)
(-0.02498915591 -0.02525266844 -4.784985736e-19 0.02415563874 3.580348467e-19 0.0008335171759)
(-0.02164602123 -0.02402568247 -1.966068492e-19 0.02092750204 3.309144315e-19 0.0007185191938)
(-0.0188295824 -0.02310501987 -1.928804037e-19 0.01826095996 1.401016783e-18 0.0005686224331)
(-0.01639663104 -0.022430838 1.003602904e-18 0.01601773684 -5.228572601e-19 0.000378894193)
(-0.01455795767 -0.02204484432 -7.328398828e-20 0.01441579337 2.72405539e-18 0.0001421642954)
(-0.1670939876 -0.06139510137 5.364851995e-19 0.1670184281 -1.256063421e-18 7.555945068e-05)
(-0.155599389 -0.06936502699 -9.484497038e-19 0.1553949773 3.188434969e-20 0.0002044117094)
(-0.1437226224 -0.07256630267 4.523648957e-19 0.1434029866 -8.766413568e-19 0.0003196358719)
(-0.1320231867 -0.07257013805 4.907728425e-19 0.1315993725 6.922252418e-19 0.0004238142093)
(-0.1209916098 -0.07105627891 -7.196041572e-21 0.1204731005 -1.194348817e-18 0.0005185092388)
(-0.110414498 -0.06835527973 -9.568388452e-20 0.1098094509 4.612030947e-19 0.000605047083)
(-0.1006980011 -0.06524472301 6.342758392e-19 0.1000140852 -1.534556223e-19 0.0006839158735)
(-0.09143704512 -0.06174765666 -3.066475299e-19 0.09068132369 -1.093344291e-18 0.0007557214334)
(-0.08298171058 -0.05822895408 4.926607933e-19 0.08216145522 -5.878006598e-19 0.0008202553639)
(-0.07493821892 -0.05467365412 1.490039183e-18 0.0740605322 2.34866052e-19 0.0008776867188)
(-0.06758490512 -0.05122597651 -8.158472646e-19 0.06665770444 -9.417762445e-19 0.0009272006783)
(-0.06060813404 -0.04790750111 2.75798336e-19 0.05963952554 5.395212323e-19 0.0009686085074)
(-0.05420752975 -0.04473111228 3.374766844e-19 0.05320700531 2.451814041e-19 0.001000524444)
(-0.04816625191 -0.04177132213 1.6587776e-19 0.04714394885 9.020755138e-19 0.001022303058)
(-0.04260793607 -0.03895592233 9.396636314e-19 0.04157593027 -4.251029059e-19 0.001032005801)
(-0.03741092148 -0.0364109095 -5.679102655e-19 0.03638265384 1.436517636e-18 0.001028267648)
(-0.03262846639 -0.03400801989 5.149916788e-19 0.0316198449 -6.014384183e-19 0.00100862149)
(-0.02822918602 -0.03191352805 -7.710631856e-19 0.0272585898 6.371048374e-19 0.0009705962271)
(-0.02420039732 -0.02997120053 1.09428055e-18 0.02328920153 -3.553451104e-19 0.0009111957934)
(-0.02059780613 -0.02836387559 1.908311632e-19 0.01977134495 6.733146499e-19 0.0008264611749)
(-0.01734600289 -0.02694804797 1.962812617e-18 0.01663331054 -5.65545774e-19 0.0007126923537)
(-0.01458342231 -0.02587766331 -7.015717324e-19 0.01401917576 8.04738536e-19 0.0005642465588)
(-0.01218024044 -0.02509611802 1.780692602e-18 0.01180409914 5.450640389e-19 0.0003761413028)
(-0.01032587099 -0.02464691344 -1.221190632e-18 0.0101846748 -6.187959263e-19 0.0001411961901)
(-0.1637080123 -0.07054837667 3.117145683e-19 0.1636334685 1.402743978e-18 7.454385922e-05)
(-0.1499643689 -0.0785519478 1.980611503e-19 0.1497626864 5.538622326e-20 0.0002016824631)
(-0.1367851822 -0.0815148064 -4.81609282e-19 0.1364698288 1.099784383e-18 0.0003153533841)
(-0.1244415241 -0.08111300024 2.246951329e-19 0.1240234039 -8.085875654e-19 0.0004181202338)
(-0.113109836 -0.07913463339 2.421082e-19 0.112598328 -9.33984501e-20 0.000511508006)
(-0.1024979685 -0.07592076719 5.888678218e-20 0.1019011292 8.13086556e-19 0.000596839289)
(-0.09287647589 -0.07230540203 -7.928284942e-19 0.09220188352 1.352398606e-19 0.0006745923759)
(-0.08381347717 -0.06829875393 3.605604131e-19 0.08306810056 4.335814478e-20 0.0007453766109)
(-0.07560416809 -0.0642977369 -8.168586552e-19 0.07479518104 1.344155228e-18 0.0008089870524)
(-0.06783629219 -0.06027293101 -7.485622399e-20 0.06697068737 -4.498574801e-19 0.0008656048197)
(-0.06077417356 -0.05638610315 3.4371485e-19 0.05985974902 8.858877951e-19 0.0009144245418)
(-0.05408266383 -0.05264919418 8.295809567e-19 0.05312738661 -1.677012073e-19 0.0009552772195)
(-0.04796970097 -0.04908273296 -1.41604587e-19 0.04698291208 3.504122913e-19 0.0009867888839)
(-0.04219152521 -0.0457579086 -2.946415159e-19 0.04118318252 -8.760221828e-19 0.001008342694)
(-0.03689304376 -0.04260280626 3.137336419e-19 0.03587503471 8.895460535e-20 0.001018009043)
(-0.0319206806 -0.03974626795 2.942196011e-19 0.03090621558 -1.094648896e-18 0.001014465014)
(-0.02735592903 -0.03705471053 -2.599108607e-20 0.02636068684 8.873720793e-20 0.000995242196)
(-0.02313319346 -0.03470237317 8.111926521e-19 0.02217525966 -9.200185645e-19 0.0009579337959)
(-0.01926851736 -0.03252407707 2.9596815e-20 0.01836899411 -3.0503346e-19 0.0008995232446)
(-0.01578786187 -0.03071299391 -6.532959745e-19 0.01497171888 -6.357624088e-19 0.0008161429946)
(-0.01263435352 -0.02911768223 3.904452856e-19 0.01193030681 -3.620240374e-19 0.0007040467099)
(-0.009938833371 -0.02789543523 1.694341822e-18 0.009381142022 5.52823463e-19 0.0005576913485)
(-0.007554137591 -0.02699866224 4.234390409e-19 0.007182114809 -1.576552068e-18 0.0003720227818)
(-0.005707724679 -0.02645617381 3.406151336e-19 0.005567881405 1.295750375e-18 0.0001398432743)
(-0.1598295282 -0.0795529803 -6.116791559e-20 0.1597562277 -7.850582074e-19 7.330045388e-05)
(-0.1437479366 -0.08714925629 -1.291354845e-18 0.1435496388 3.889818716e-19 0.0001982977705)
(-0.1292247984 -0.0896037932 9.277096335e-19 0.128914766 -2.12552643e-18 0.000310032377)
(-0.1162275055 -0.08864647562 -7.630744932e-19 0.1158164708 6.368209951e-19 0.0004110347068)
(-0.1046019912 -0.08611808492 8.517064635e-19 0.1040991973 -2.821567876e-19 0.0005027938306)
(-0.09397387312 -0.08235529358 7.696734793e-19 0.09338725635 -1.698412345e-19 0.0005866167721)
(-0.08447059462 -0.0782250132 1.262428268e-19 0.08380761954 -3.713103046e-19 0.0006629750773)
(-0.07563297264 -0.07371863565 2.863977361e-19 0.07490050038 -4.003470956e-19 0.0007324722561)
(-0.06769787668 -0.06925611066 6.784151609e-19 0.06690296569 -7.787736515e-19 0.0007949109876)
(-0.06023447977 -0.06478910695 4.153222045e-19 0.0593840027 5.206623947e-19 0.0008504770741)
(-0.05349181422 -0.06049515758 -8.216770124e-19 0.0525934359 -7.864078909e-19 0.0008983783104)
(-0.04711281851 -0.05637180033 1.674249292e-19 0.04617435585 7.058643498e-20 0.0009384626567)
(-0.04131374639 -0.0524492349 3.33440233e-19 0.04034437766 1.523495318e-19 0.0009693687381)
(-0.03582301392 -0.04878994669 -3.324181334e-19 0.03483249915 6.87238728e-19 0.0009905147696)
(-0.03080769001 -0.0453263289 1.137408416e-19 0.02980771316 6.459132648e-19 0.000999976848)
(-0.0260807455 -0.0421844294 -5.389117689e-19 0.0250842523 1.087868438e-18 0.0009964931983)
(-0.02175358454 -0.03922976483 1.431637546e-19 0.02077599363 3.199414483e-19 0.0009775909114)
(-0.01772402869 -0.03664008164 -1.566533531e-18 0.01678307177 6.951517165e-19 0.0009409569216)
(-0.01403933569 -0.03424320957 1.481392808e-18 0.01315577214 9.555677015e-19 0.0008835635488)
(-0.01069225461 -0.03224338661 -1.777535913e-19 0.00989058484 4.510152813e-19 0.0008016697701)
(-0.007647238306 -0.03047317226 1.416211464e-18 0.006955716008 1.042645212e-18 0.0006915222976)
(-0.005022396939 -0.02911385365 -1.620666929e-18 0.004474665077 -8.820091986e-19 0.0005477318616)
(-0.002651049745 -0.02807616522 2.57693026e-18 0.002285775822 6.886172545e-19 0.0003652739227)
(-0.0008088236495 -0.02746496214 -7.188384253e-19 0.0006716301919 -1.548129564e-18 0.0001371934575)
(-0.155458556 -0.0883831842 1.985478298e-18 0.1553867706 9.720135648e-20 7.178535083e-05)
(-0.1370287889 -0.09511658796 1.855210236e-21 0.1368345761 -8.254945712e-19 0.0001942127938)
(-0.1211692092 -0.0967842894 -2.210196436e-19 0.1208655822 -1.271686793e-19 0.0003036270327)
(-0.1075369887 -0.09511739071 5.175350343e-19 0.1071344765 1.266481834e-18 0.0004025121305)
(-0.09564067699 -0.09195154564 -6.254708575e-19 0.09514836084 -3.638843943e-19 0.0004923161512)
(-0.08502283808 -0.0876036205 3.388850867e-19 0.0844485117 5.504889855e-19 0.0005743263806)
(-0.07566435524 -0.08294901397 -6.856238098e-19 0.07501535116 -1.542899114e-19 0.0006490040796)
(-0.06707929895 -0.07795412571 -5.760690984e-19 0.06636235252 7.830299603e-19 0.0007169464326)
(-0.05944436851 -0.07305255718 4.16077374e-20 0.05866640496 6.556084158e-19 0.0007779635513)
(-0.0523108137 -0.06817250158 1.165471797e-19 0.05147856836 7.633540436e-19 0.000832245335)
(-0.04591148094 -0.06350537274 3.351745844e-19 0.04503246117 2.381118638e-19 0.0008790197699)
(-0.03986774019 -0.05902939601 7.722100354e-19 0.03894959324 6.181512593e-19 0.0009181469474)
(-0.03440395544 -0.05478655906 7.848621776e-19 0.03345565816 1.276605989e-19 0.0009482972803)
(-0.02922060448 -0.05082497864 5.01720091e-19 0.02825169303 -9.206078437e-19 0.0009689114477)
(-0.02450735424 -0.04708576756 1.06574736e-18 0.02352924852 -2.148379475e-19 0.0009781057276)
(-0.02004294371 -0.04368577048 3.697742824e-19 0.0190682832 -1.353285627e-18 0.0009746605119)
(-0.01596997373 -0.04049535095 1.435662999e-19 0.01501382998 -2.054932203e-19 0.0009561437492)
(-0.01214761794 -0.03768882486 1.017468038e-18 0.01122729568 -8.509736778e-19 0.0009203222671)
(-0.008657253862 -0.03509334388 -1.065816327e-18 0.007793055111 -1.913298685e-19 0.0008641987508)
(-0.005452953191 -0.03291733119 -3.758780395e-19 0.004668783071 -5.718660417e-19 0.0007841701195)
(-0.002528611976 -0.03098270281 -1.868604339e-19 0.001852112003 -1.919088337e-19 0.0006764999731)
(3.001219667e-05 -0.02949212898 1.179251019e-19 -0.0005660012775 8.476966721e-19 0.0005359890809)
(0.002373700642 -0.02831401011 -1.880876507e-18 -0.002731323352 -9.52193766e-19 0.0003576227098)
(0.004236419637 -0.0276232273 1.515699291e-18 -0.004370943352 1.848452224e-20 0.0001345237153)
(-0.1505957498 -0.09701185719 -5.850231651e-19 0.1505256933 4.690738403e-19 7.005655502e-05)
(-0.1298881995 -0.1024252231 2.337195018e-19 0.129698691 -1.003189025e-18 0.0001895085662)
(-0.1127497981 -0.1030274899 -1.741036425e-19 0.1124535599 1.699543772e-18 0.0002962381638)
(-0.0985299409 -0.1004976684 3.506835388e-19 0.09813726954 -8.949094529e-19 0.0003926713641)
(-0.08640284974 -0.09660804796 2.602599257e-21 0.08592263515 4.880011922e-19 0.0004802145876)
(-0.07582990718 -0.09164017245 1.37150431e-18 0.07526978139 -6.34694427e-19 0.0005601257862)
(-0.06664609237 -0.08645328275 2.863127119e-19 0.06601323507 2.293650146e-19 0.0006328572968)
(-0.05834047798 -0.08098262649 1.020661564e-18 0.05764148531 -7.920974541e-19 0.0006989926694)
(-0.05102922736 -0.0756659638 2.082705799e-19 0.05027087592 -3.169002584e-19 0.0007583514413)
(-0.04424726397 -0.07040344988 7.364567265e-19 0.04343614135 -5.95961841e-19 0.0008111226177)
(-0.03821051538 -0.06539845808 -1.39376091e-18 0.0373539608 -6.279521806e-19 0.0008565545824)
(-0.03252016271 -0.06060494694 5.455948295e-20 0.03162564318 -1.387984114e-19 0.0008945195308)
(-0.02740791501 -0.05607883192 -3.934670222e-19 0.02648419988 -7.634386604e-19 0.0009237151317)
(-0.0225473888 -0.0518480759 -5.255115554e-19 0.02160377517 -2.344206859e-19 0.0009436136334)
(-0.01815030859 -0.04786700886 -2.33171441e-19 0.01719794713 3.731500626e-19 0.0009523614581)
(-0.01396171832 -0.04423666007 -5.461355812e-20 0.0130129158 7.078660838e-19 0.0009488025255)
(-0.01015551678 -0.04083812667 -6.478508213e-20 0.009224981113 7.851594816e-19 0.0009305356681)
(-0.006551571414 -0.0378352466 -1.788021303e-19 0.0056561313 -7.471589412e-19 0.0008954401139)
(-0.003266962569 -0.03506089746 1.995146996e-18 0.002426409334 2.318623369e-18 0.0008405532346)
(-0.0002138638346 -0.03272126865 -3.057144173e-19 -0.0005485871293 -2.3673774e-19 0.0007624509639)
(0.002578983727 -0.0306339699 2.379782073e-18 -0.003236435036 1.711424785e-18 0.0006574513091)
(0.005068523315 -0.0290162505 -8.012128304e-19 -0.005589136233 -1.453218108e-18 0.0005206129185)
(0.007368364641 -0.02770875886 4.06832409e-19 -0.007715412391 2.23018658e-19 0.0003470477499)
(0.009247422217 -0.02692893137 -1.332173589e-18 -0.009377724135 -3.662510007e-19 0.0001303019179)
(-0.1452435456 -0.1054104516 9.80143974e-19 0.1451754758 2.802114833e-19 6.806975995e-05)
(-0.1224088079 -0.1090591739 -5.485013684e-19 0.1222246645 5.287779383e-19 0.0001841433769)
(-0.104098975 -0.1083259155 7.392040796e-20 0.1038111486 -8.991297931e-20 0.0002878264283)
(-0.08936718866 -0.1047855569 1.491537292e-19 0.08898571264 3.942475434e-19 0.0003814760181)
(-0.07706621622 -0.1000899023 -8.580567568e-19 0.07659976597 -3.44135392e-19 0.0004664502489)
(-0.06658079562 -0.0944700918 5.118283617e-19 0.06603682103 -3.34827038e-19 0.0005439745906)
(-0.05760481759 -0.08874500152 -4.024458484e-19 0.05699032888 -4.355842416e-19 0.0006144887055)
(-0.04960516506 -0.082812807 -4.144719885e-19 0.04892660345 -3.772286474e-19 0.0006785616063)
(-0.0426387172 -0.07710605455 7.683020357e-19 0.04190269398 9.13615329e-21 0.0007360232223)
(-0.03622642308 -0.07149249947 1.065212207e-18 0.03543936355 5.420116233e-20 0.0007870595263)
(-0.03056692072 -0.06618552561 1.212333564e-18 0.0297359713 2.377676731e-19 0.000830949417)
(-0.02524335956 -0.06111005173 1.546733022e-19 0.02437579004 3.875972328e-19 0.0008675695226)
(-0.02049371778 -0.05633800048 3.718762707e-19 0.01959804776 9.469295677e-19 0.0008956700222)
(-0.01596674075 -0.05187149895 7.16093805e-19 0.01505200367 2.113981147e-19 0.0009147370786)
(-0.01189489084 -0.04768267056 7.79864729e-19 0.01097189852 1.30572925e-18 0.0009229923183)
(-0.007991276667 -0.04384991555 3.154142101e-19 0.007071962611 -3.146317239e-19 0.0009193140561)
(-0.004459875078 -0.04027163214 -6.222307379e-19 0.003558480323 -1.20416635e-18 0.000901394755)
(-0.001082538816 -0.03709290043 -9.610732903e-20 0.0002153478211 7.494899628e-19 0.000867190995)
(0.001988505652 -0.03416121139 5.70725355e-19 -0.002802348248 -1.133298819e-18 0.0008138425956)
(0.00488267214 -0.03166991701 -8.561596375e-19 -0.005620747633 -1.02439003e-18 0.0007380754938)
(0.007535056148 -0.02944527697 -6.031781476e-19 -0.008171374356 -1.033233908e-18 0.0006363182087)
(0.009947253888 -0.02770128259 9.678188749e-19 -0.01045111535 -1.42772563e-18 0.0005038614659)
(0.01218885265 -0.02627734091 -1.497227633e-18 -0.01252479673 5.93757885e-20 0.0003359440789)
(0.01407608117 -0.0253921822 1.525016474e-18 -0.01420235609 -2.044210576e-19 0.0001262749134)
(-0.1394067571 -0.1135486291 -1.337193184e-19 0.1393408701 5.958823429e-19 6.58869545e-05)
(-0.1146721703 -0.1150138979 5.238417038e-19 0.1144939638 -6.860329269e-19 0.0001782065401)
(-0.09534607074 -0.1126919895 -6.634771979e-19 0.09506756517 1.406240701e-18 0.0002785055713)
(-0.08020525294 -0.1080040125 8.162018557e-19 0.07983619001 -7.410566072e-19 0.0003690629329)
(-0.06780335106 -0.1024270905 -5.656015489e-19 0.06735216416 1.491524996e-19 0.0004511868963)
(-0.05745560662 -0.09612766278 -4.091129348e-20 0.05692954396 8.329061767e-19 0.000526062663)
(-0.04872356805 -0.089861215 6.508171135e-19 0.04812945002 3.406085078e-19 0.0005941180316)
(-0.04105587994 -0.08348331679 -5.684431942e-19 0.04039997789 8.323209166e-19 0.0006559020535)
(-0.03445281347 -0.07741234968 -7.743056966e-19 0.03374155735 1.6993203e-19 0.0007112561243)
(-0.02842460511 -0.07147961066 -4.724766864e-19 0.02766424448 8.582838397e-19 0.0007603606375)
(-0.02315238019 -0.0659065985 -2.917506331e-19 0.02234985686 -9.494479519e-19 0.0008025233266)
(-0.01820443518 -0.06058473143 5.420274832e-19 0.01736680687 8.435024818e-19 0.0008376283077)
(-0.01382335131 -0.0556038602 -1.140222973e-19 0.01295888118 -1.481614577e-18 0.0008644701258)
(-0.009636251918 -0.05093497932 -4.12562275e-19 0.008753690134 -3.939505174e-19 0.0008825617836)
(-0.005893901339 -0.0465722265 8.855291245e-19 0.005003717871 -8.693470064e-19 0.0008901834676)
(-0.002280866961 -0.04256515772 1.173127786e-19 0.001394592242 -1.678358155e-18 0.0008862747186)
(0.0009716747814 -0.03883529937 8.93959467e-19 -0.00184027465 7.076951616e-19 0.0008685998687)
(0.004116251642 -0.03550189425 -1.321472118e-19 -0.004951486248 -1.543951855e-18 0.0008352346063)
(0.006968659015 -0.03243407225 8.7021048e-19 -0.007752064428 1.553166496e-18 0.0007834054129)
(0.009695653902 -0.02980456527 1.243861051e-18 -0.01040569709 -1.030845877e-18 0.0007100431874)
(0.01220036878 -0.02745617622 -1.350071272e-19 -0.01281206195 1.568422735e-18 0.0006116931707)
(0.01452125769 -0.02558910744 3.439090516e-20 -0.0150052164 -6.746416204e-19 0.0004839587079)