/*--------------------------------*- C++ -*----------------------------------*\
| =========                 |                                                 |
| \\      /  F ield         | foam-extend: Open Source CFD                    |
|  \\    /   O peration     | Version:  3.0                                   |
|   \\  /    A nd           | Web:         http://www.extend-project.de       |
|    \\/     M anipulation  |                                                 |
\*---------------------------------------------------------------------------*/
FoamFile
{
    version     2.0;
    format      ascii;
    class       volVectorField;
    location    "59";
    object      u;
}
// * * * * * * * * * * * * * * * * * * * * * * * * * * * * * * * * * * * * * //

dimensions      [0 0 0 0 0 0 0];

internalField   nonuniform List<vector> 
2688
(
(0.2564388154 -0.05427883815 7.210370801e-17)
(0.1808850834 -0.0436710908 -8.869088015e-17)
(0.5485517704 -0.03871719226 1.742021439e-16)
(0.436318541 -0.02978097616 -6.138285143e-17)
(0.7190814816 -0.02870818974 9.410559414e-17)
(0.6016952436 -0.02154570369 -2.160848446e-17)
(0.8262869824 -0.02184192097 4.927009988e-18)
(0.7126375738 -0.01645139974 5.685776321e-17)
(0.8979766043 -0.01693865956 -6.199218295e-17)
(0.7887283285 -0.01316231894 7.637622141e-17)
(0.9483180615 -0.01334672072 -2.334645027e-17)
(0.8415134851 -0.01095174593 4.063463697e-17)
(0.984971499 -0.01066473832 3.141895247e-17)
(0.8781145168 -0.009412502078 -8.989770999e-17)
(1.012310052 -0.008629708352 1.024289536e-16)
(0.9030621441 -0.008304176918 -1.078957229e-16)
(1.032926693 -0.007069784911 1.029927317e-16)
(0.9193393661 -0.007466334386 -6.863329564e-17)
(1.04834778 -0.005877330228 1.658221183e-17)
(0.9290237369 -0.006768038766 1.890671718e-17)
(1.059365731 -0.005003189987 -2.969218523e-17)
(0.9336813219 -0.006079901456 9.918333202e-18)
(1.066219206 -0.004634633122 -3.382811542e-17)
(0.9345283749 -0.004690077283 6.70721002e-18)
(0.2682584902 -0.1578557922 -2.25174552e-16)
(0.1902945274 -0.1264695883 -2.753423281e-18)
(0.5569067329 -0.1117184053 -3.750042171e-16)
(0.4426433129 -0.08504814938 4.151833425e-17)
(0.7251967913 -0.08182375892 -1.803985945e-16)
(0.6061826551 -0.06032773862 -2.901697625e-17)
(0.8308509719 -0.06114411895 -1.353750333e-17)
(0.7159714658 -0.04487249952 -1.401072038e-16)
(0.9014150717 -0.04621155897 6.974580234e-17)
(0.7912972412 -0.03471505181 -1.168441987e-16)
(0.9509129996 -0.03509842 -9.268254323e-18)
(0.8435475414 -0.02768947828 -9.69526645e-17)
(0.986914624 -0.02660627323 1.862594662e-17)
(0.8797547095 -0.02257671082 2.379639272e-17)
(1.013733653 -0.01994265178 -4.517824512e-17)
(0.9043977219 -0.0186482777 8.356263965e-17)
(1.033926027 -0.01459304576 -7.935057196e-17)
(0.920425763 -0.01540937734 1.977063737e-17)
(1.049001106 -0.0102555027 8.564316015e-17)
(0.9298858616 -0.01245004165 -1.145893228e-16)
(1.059753532 -0.00679498014 1.070313679e-16)
(0.9343079846 -0.009387670089 -1.576809482e-17)
(1.06644203 -0.004359280518 4.872392783e-17)
(0.9348454739 -0.005357605924 3.435825508e-17)
(0.2915405332 -0.2593750792 4.109125088e-16)
(0.2089116582 -0.2075256513 1.097359206e-16)
(0.5733032405 -0.1832006632 4.714731991e-16)
(0.4550763645 -0.1391310576 -2.034979286e-17)
(0.7371353319 -0.1338037045 2.206760295e-16)
(0.6149186537 -0.098256244 1.060442555e-16)
(0.839704461 -0.09959252266 -1.130441363e-17)
(0.72239392 -0.07264709254 2.227039578e-16)
(0.9080379728 -0.07484323376 -6.080113355e-17)
(0.7961987905 -0.05576558829 2.013918522e-16)
(0.9558744575 -0.05637333204 3.405730749e-17)
(0.8473953238 -0.04403372439 1.201233091e-16)
(0.9906029801 -0.0422039166 -2.367317741e-17)
(0.8828321472 -0.03543889908 -5.512494767e-17)
(1.01641618 -0.03102605373 6.879913974e-17)
(0.9068809144 -0.02877954858 -1.905113194e-16)
(1.035788194 -0.0219854686 2.148593911e-16)
(0.9224237208 -0.02324268245 -1.679037771e-16)
(1.050173094 -0.01457328863 -2.127624912e-17)
(0.9314617826 -0.01816373919 5.550031564e-17)
(1.060329961 -0.00854316187 -5.858386172e-17)
(0.9354922499 -0.01291754631 -6.138802151e-17)
(1.066494244 -0.003961703371 -5.804731071e-17)
(0.9356237038 -0.006401386856 2.683999008e-18)
(0.3260966602 -0.3577238169 -4.467020883e-16)
(0.2365129969 -0.2861452605 -2.665488556e-16)
(0.597694835 -0.2525090478 -5.88688517e-16)
(0.4735437837 -0.1916064751 2.91722344e-17)
(0.7549213108 -0.1842272284 -3.24285268e-16)
(0.6279252069 -0.1350744005 -6.227862614e-17)
(0.8529052992 -0.1368998504 -7.789024507e-17)
(0.7319704159 -0.09962410449 -1.723019333e-16)
(0.9179117303 -0.1026281511 -8.492874924e-17)
(0.803502726 -0.07622077691 -1.521210174e-16)
(0.9632532416 -0.07701679486 -1.035733067e-16)
(0.8531070174 -0.0599159204 -1.309956312e-16)
(0.9960532504 -0.05732940638 9.864948769e-17)
(0.8873633671 -0.04792386866 -1.532113085e-17)
(1.020327352 -0.04175589392 5.66198328e-17)
(0.9104811874 -0.03857627296 9.4892343e-17)
(1.038433621 -0.02912045862 -1.063659565e-16)
(0.925229296 -0.03073624219 9.001068561e-17)
(1.051762439 -0.01873721715 5.049793936e-17)
(0.9335132026 -0.02346892095 -9.921811112e-17)
(1.061062808 -0.0102893022 1.207030707e-16)
(0.9367513043 -0.01589764946 8.685485307e-17)
(1.066599371 -0.003825331739 -2.840715668e-17)
(0.9360197469 -0.006709607228 1.601986433e-16)
(0.3714069112 -0.4515243535 4.799425427e-16)
(0.2727024843 -0.3610459901 2.359683217e-16)
(0.6296027208 -0.3185653941 6.9980191e-16)
(0.4977030156 -0.241579224 -6.27043576e-17)
(0.7781372805 -0.2322630814 3.142030552e-16)
(0.6448866636 -0.1701161827 1.286236712e-16)
(0.8700984237 -0.1724267719 3.091582046e-17)
(0.7444180776 -0.1252782962 1.834196555e-16)
(0.9307446909 -0.1290767083 1.573838604e-16)
(0.8129718016 -0.09565427605 1.701498651e-16)
(0.9728289889 -0.09665934391 -3.144114795e-17)
(0.860501321 -0.07499092471 2.337869467e-16)
(1.003125063 -0.07171725874 -2.108401323e-16)
(0.8932308065 -0.05976890428 1.518894303e-16)
(1.025415255 -0.05196306984 -2.251051716e-16)
(0.9151587252 -0.0478827198 -8.428835759e-17)
(1.041901646 -0.03590694657 4.814525598e-17)
(0.9289188741 -0.03790568574 -7.534967037e-17)
(1.053874904 -0.02267165699 -1.603007756e-17)
(0.9363243825 -0.02868463649 3.610084479e-17)
(1.062026531 -0.01184936568 -1.393446465e-16)
(0.9387261453 -0.01912553203 4.872687929e-18)
(1.066556192 -0.003493692418 -1.858722216e-16)
(0.9372423596 -0.007726121478 6.649279893e-17)
(0.4269659746 -0.5397170179 -3.702051908e-16)
(0.3171072355 -0.4315395247 -2.114847536e-16)
(0.668799244 -0.3807098942 -5.230576348e-16)
(0.527389823 -0.2886270496 -1.756088169e-17)
(0.80670022 -0.2774683314 -1.887306706e-16)
(0.665766978 -0.2031215515 -2.470309499e-16)
(0.8912794874 -0.2058689647 6.08128967e-17)
(0.7597669072 -0.1494578925 -2.497962894e-16)
(0.9465685174 -0.1539797205 -3.077230826e-16)
(0.8246569187 -0.1139858217 5.800103881e-17)
(0.984636339 -0.1151581057 -3.676427797e-17)
(0.8696197899 -0.08922154059 -1.07171596e-16)
(1.011830438 -0.08526643696 5.296313098e-17)
(0.9004447988 -0.07095014298 3.727171772e-17)
(1.031649788 -0.06156870496 6.461820858e-17)
(0.9208645147 -0.05664422075 1.594036952e-16)
(1.046108872 -0.04229307337 1.155924141e-16)
(0.9333199676 -0.04458239191 -3.494824885e-17)
(1.05638436 -0.02642055318 1.175826682e-16)
(0.9394558191 -0.03336465973 -8.099596523e-17)
(1.063120346 -0.01351228141 2.358890128e-16)
(0.9404915101 -0.02160632516 -1.268085219e-17)
(1.06658829 -0.003747397432 2.193150336e-16)
(0.9374246717 -0.007497681853 -5.676733231e-17)
(0.4920277198 -0.6210950417 -6.267051029e-17)
(0.3690700648 -0.4965301446 8.824102489e-17)
(0.7146207678 -0.4380252155 5.365190226e-16)
(0.5620721836 -0.3319858427 -8.066198626e-17)
(0.8400316517 -0.3191488687 6.840532825e-17)
(0.6901066907 -0.233521335 2.794039131e-16)
(0.9159509139 -0.2366925543 1.155689176e-17)
(0.777615011 -0.1717069243 -3.22421083e-17)
(0.9649657994 -0.1769199686 4.500210779e-16)
(0.8382151963 -0.1308300372 -2.261782686e-16)
(0.9983418439 -0.1321848717 -1.054899379e-16)
(0.8801839372 -0.1022750008 3.074424871e-16)
(1.021925556 -0.09772341802 -2.556677549e-16)
(0.9087988141 -0.08118938105 2.4482533e-16)
(1.03888275 -0.07038202209 -3.607448226e-16)
(0.9274838217 -0.0646631394 1.418757589e-16)
(1.051005239 -0.04810821779 -3.390051854e-16)
(0.9384685272 -0.05071969298 1.498747841e-16)
(1.059323125 -0.029710367 -1.662092075e-16)
(0.9432299824 -0.03778067819 1.260206927e-17)
(1.064380734 -0.01473040016 -1.729196828e-16)
(0.9428824307 -0.0243125308 -2.175456867e-16)
(1.06623996 -0.003459038551 1.353519274e-16)
(0.9388736089 -0.008861361136 -5.497372655e-16)
(0.5658102918 -0.694711922 6.128007227e-16)
(0.4280438216 -0.5553627945 -3.813748215e-16)
(0.766660221 -0.4898888452 6.166579749e-17)
(0.6014877511 -0.3712429429 -3.531093994e-16)
(0.8779433181 -0.3568670732 2.359667869e-16)
(0.7178174089 -0.2610543919 -4.03172826e-16)
(0.9440559924 -0.2645890695 1.7438003e-16)
(0.7979736385 -0.1918722314 -2.260950074e-17)
(0.98595462 -0.1976875176 -9.547357719e-17)
(0.8537054598 -0.1461145832 1.249263489e-16)
(1.013997084 -0.1476055357 1.904084163e-16)
(0.8922655832 -0.1141374663 -2.712822413e-16)
(1.033466139 -0.1090089534 1.347944498e-16)
(0.9183556219 -0.09050555526 -2.345146831e-16)
(1.047158701 -0.07836527071 3.741080622e-16)
(0.9350526514 -0.07195046387 -3.461362549e-16)
(1.056634252 -0.05337862424 4.718582647e-16)
(0.9443426744 -0.05623099724 -3.707400747e-16)
(1.062795153 -0.03272854699 3.535860756e-16)
(0.9474813474 -0.04150686086 -2.903803867e-16)
(1.066142411 -0.01598586163 5.453235761e-16)
(0.945256431 -0.02580853881 -2.227012884e-16)
(1.066888044 -0.003993494858 1.871374108e-16)
(0.9393549728 -0.008419959556 9.497068762e-17)
(0.6473613319 -0.7595871836 -9.43170362e-16)
(0.4931847591 -0.6071826897 4.073118763e-16)
(0.8240993062 -0.5355897913 -4.142008509e-16)
(0.6449606822 -0.4058148855 4.276657099e-16)
(0.9197204289 -0.3901032806 -6.54050153e-17)
(0.7483175993 -0.2852907081 6.006042086e-17)
(0.9749688522 -0.2891660922 -1.700058997e-16)
(0.8203271198 -0.2096045249 -1.243633981e-17)
(1.008991915 -0.2159733408 -1.6203404e-16)
(0.8706710304 -0.1595310225 -4.681574748e-18)
(1.031141217 -0.1611692718 -3.899354759e-16)
(0.9054671198 -0.1245257532 5.111828935e-16)
(1.046072855 -0.1189212433 -4.109847991e-16)
(0.9287765175 -0.09864891677 5.159858461e-16)
(1.056170143 -0.085362998 -4.562692558e-16)
(0.9432880617 -0.07833347576 5.398871336e-16)
(1.062727463 -0.05796835561 -5.054307927e-16)
(0.9507123805 -0.06114101253 4.896397742e-16)
(1.066509202 -0.03525393774 -2.11211002e-16)
(0.9520610088 -0.04507798294 7.744986349e-17)
(1.068043446 -0.01668798174 -1.286410982e-16)
(0.9477601749 -0.02806546678 -2.642699797e-16)
(1.068026882 -0.002942951963 4.42671057e-16)
(0.9388024735 -0.01021084339 -9.204556814e-16)
(0.7356708033 -0.8149387449 1.002563031e-15)
(0.563765773 -0.6514040968 -1.015747146e-15)
(0.8863741765 -0.5745682979 1.170946151e-15)
(0.6921267402 -0.4353087773 -8.024513521e-16)
(0.9650827181 -0.4184378171 4.45861819e-16)
(0.7814708671 -0.305964921 -1.911623308e-16)
(1.008592975 -0.3101113578 3.009221562e-16)
(0.8446789193 -0.2247374565 1.248049462e-16)
(1.034098605 -0.231556269 3.519694847e-16)
(0.8891953729 -0.1709950849 -6.345267736e-20)
(1.04986353 -0.1727308622 3.335731939e-16)
(0.9199117002 -0.1334200613 -3.008011447e-16)
(1.05986726 -0.1273713651 1.851488459e-16)
(0.9402003164 -0.1056352542 -4.89266985e-16)
(1.066049443 -0.09132073157 3.182003742e-16)
(0.9523400586 -0.08380838139 -7.097367208e-16)
(1.069425597 -0.06185530154 5.50052702e-16)
(0.9577665026 -0.06531510054 -7.397291093e-16)
(1.070616192 -0.03736637999 4.263026301e-16)
(0.9572713291 -0.0480126933 -3.878770093e-16)
(1.070096632 -0.01720880327 4.845786139e-16)
(0.9510360301 -0.02986172813 -2.089323144e-16)
(1.068539663 -0.001604508577 1.843086113e-16)
(0.9392057395 -0.01062923071 3.018002928e-16)
(0.8296263566 -0.8600575452 -5.248508242e-16)
(0.6388260382 -0.6874536802 6.34246123e-16)
(0.9525555615 -0.606364436 -4.847017304e-16)
(0.7422161794 -0.4593617487 1.25892703e-16)
(1.013214331 -0.4415655607 -3.523290244e-17)
(0.8166058159 -0.3228258766 -2.167739462e-16)
(1.044199244 -0.327213311 -1.993642321e-16)
(0.870418544 -0.2370686979 -4.061798107e-16)
(1.060620771 -0.2442762854 -3.40774043e-16)
(0.9087174525 -0.1803167649 -1.919450713e-16)
(1.069583841 -0.1821586347 -3.597338972e-16)
(0.9350879993 -0.1406281285 4.500173854e-16)
(1.074345692 -0.1342517871 -4.298152709e-16)
(0.9521689802 -0.1112796075 7.514608168e-16)
(1.076368035 -0.09616942692 -3.705816476e-16)
(0.961802524 -0.08824067278 8.780300383e-16)
(1.076355513 -0.06503164 -5.395442756e-16)
(0.9651283809 -0.06876369165 7.835028038e-16)
(1.074745329 -0.03911818253 -3.219685982e-16)
(0.9626893047 -0.05061448238 1.721566357e-16)
(1.071882109 -0.01763285337 -6.906598972e-17)
(0.9544573207 -0.03176870797 -4.29945793e-16)
(1.06818526 -0.0003830523542 3.919382983e-16)
(0.9398748039 -0.01113016316 -7.496610049e-16)
(0.9280359392 -0.8943694259 4.013305766e-16)
(0.7174708094 -0.7148452429 -5.09248406e-16)
(1.021941742 -0.6304992841 5.03949956e-16)
(0.7947644277 -0.4776092218 -2.563807243e-16)
(1.063752301 -0.4590893165 2.279691284e-16)
(0.8535381927 -0.3355978693 2.056728331e-16)
(1.081657644 -0.3401487283 1.645099289e-16)
(0.8975435255 -0.2464017632 5.360319733e-16)
(1.088588926 -0.2538833371 3.429206074e-16)
(0.9293493531 -0.1873753157 2.269899515e-16)
(1.090436494 -0.1892719787 1.701111847e-16)
(0.9511727387 -0.1460974776 -2.457977142e-16)
(1.08969835 -0.1394396855 2.999914587e-16)
(0.9648827522 -0.1155758847 -5.778080787e-16)
(1.087330415 -0.09982231141 2.623060727e-16)
(0.9718624412 -0.09162079025 -8.717003844e-16)
(1.08370148 -0.06742286633 3.507524038e-16)
(0.9729418855 -0.07137826591 -5.520025849e-16)
(1.079038025 -0.04045190106 1.839186046e-16)
(0.9684149993 -0.05252442518 -3.619176657e-16)
(1.073526445 -0.01803554887 3.903885821e-16)
(0.9581287647 -0.03301049279 -1.35690589e-16)
(1.067241963 0.0003042289963 2.25301284e-16)
(0.9412067645 -0.01109329863 1.319466006e-16)
(1.029690776 -0.9174674328 -1.014020898e-16)
(0.7986945742 -0.7333158718 3.665963484e-17)
(1.093554012 -0.6467967698 1.954080902e-17)
(0.848965806 -0.4899383719 -2.037460286e-16)
(1.115831073 -0.4709513419 -3.674711467e-17)
(0.8915520341 -0.3442413048 -8.350932217e-17)
(1.120176817 -0.3489222815 -2.147598632e-16)
(0.9253829946 -0.252718535 -4.256517704e-16)
(1.117269279 -0.2604055088 -2.151694049e-16)
(0.9504507846 -0.1921398529 -6.952137251e-17)
(1.111744526 -0.1940973383 -2.656227929e-16)
(0.9675590079 -0.1497651262 4.105590573e-16)
(1.105317302 -0.1429482032 -6.594329139e-16)
(0.9777822263 -0.1184266486 8.785196352e-16)
(1.098420937 -0.1022809087 -5.977004113e-16)
(0.9820292718 -0.09383604907 8.993071894e-16)
(1.091074332 -0.06902691351 -3.646394279e-16)
(0.980808611 -0.07307676319 4.650822121e-16)
(1.083282601 -0.0413527571 4.53326569e-18)
(0.9741511869 -0.0537657336 5.336936152e-17)
(1.075087963 -0.01833342186 -1.92199083e-17)
(0.9617416293 -0.03377287774 -1.329028628e-16)
(1.066276181 0.0006068220676 1.331765784e-16)
(0.9426390091 -0.01082971384 -4.321753643e-16)
(1.133266614 -0.9290193915 4.63000656e-17)
(0.8814538783 -0.7425027368 -3.240770479e-18)
(1.166568345 -0.6548743701 -8.020891146e-17)
(0.9042559806 -0.4960206628 7.527996222e-17)
(1.169007249 -0.4767796995 9.425986466e-17)
(0.9304078089 -0.3484642072 -1.250729154e-16)
(1.159589397 -0.3531904496 2.528740933e-16)
(0.9539191897 -0.2557742611 1.156837178e-16)
(1.146697108 -0.2635427453 1.977009586e-16)
(0.9721560971 -0.1944258242 -1.224255266e-16)
(1.133686526 -0.19638947 3.450745877e-16)
(0.9844797687 -0.1515169739 -3.901378704e-16)
(1.121470075 -0.144592404 4.913667523e-16)
(0.9911507034 -0.1197891856 -5.850382059e-16)
(1.109943105 -0.1034172359 4.628501258e-16)
(0.9925889853 -0.09489958191 -5.630663846e-16)
(1.09876405 -0.06976210439 1.8818553e-16)
(0.9889737713 -0.07389241443 -1.819237663e-16)
(1.087715004 -0.04178116456 -1.144326486e-16)
(0.9800802973 -0.05434220957 6.294299075e-17)
(1.076730717 -0.01856002108 2.864666443e-17)
(0.9654194173 -0.03399130525 2.816544973e-18)
(1.065473221 0.0003667030957 8.406407122e-17)
(0.9443114171 -0.01031992267 1.423424668e-17)
(1.237529082 -0.9289355256 1.196735818e-17)
(0.9647772606 -0.7424665673 -5.913280158e-17)
(1.240029123 -0.6548553549 -6.009952482e-17)
(0.9598602933 -0.4960080276 1.889168545e-16)
(1.222430322 -0.4767825967 -8.556268166e-17)
(0.9694031431 -0.3484591394 2.53293924e-16)
(1.19909835 -0.3531992644 -2.2753183e-16)
(0.9824710329 -0.2557646688 2.040695535e-16)
(1.176105502 -0.2635457535 -1.034944096e-16)
(0.9937860452 -0.1944011337 1.440915221e-16)
(1.155521412 -0.1963767767 -3.885623076e-16)
(1.001258019 -0.1514670706 3.074834118e-16)
(1.137455334 -0.1445552456 -2.911090868e-16)
(1.004329666 -0.1197056808 3.134256556e-16)
(1.121268245 -0.1033498652 -4.305165837e-16)
(1.002929291 -0.09477853714 3.863841185e-16)
(1.106265578 -0.06966667785 -2.11670324e-16)
(0.9968989313 -0.07373733664 8.523219417e-17)
(1.092019519 -0.04167511854 2.05877744e-17)
(0.9857398609 -0.05416230448 -1.074900432e-16)
(1.078407234 -0.01851298651 -2.726214406e-17)
(0.9686901519 -0.03369189916 4.994749465e-17)
(1.065194739 2.847085878e-05 -2.162015119e-16)
(0.9454111349 -0.009878213447 2.614688406e-16)
(1.341077902 -0.9171473245 -1.349662297e-16)
(1.047494251 -0.7329875078 2.360955021e-16)
(1.313004791 -0.6464687 -1.749347832e-16)
(1.015112833 -0.4896179644 -1.799649228e-16)
(1.275572283 -0.4706192401 4.952617749e-17)
(1.008227499 -0.3439164487 -3.737703807e-16)
(1.238483578 -0.3485788702 2.149759077e-16)
(1.010982422 -0.2523815718 -4.730994687e-16)
(1.205514373 -0.2600436273 3.045916571e-17)
(1.015474298 -0.1917870963 -3.391677119e-16)
(1.177455199 -0.1937124589 4.686551949e-16)
(1.018170533 -0.1493953755 -3.302362311e-16)
(1.153613788 -0.1425386569 3.359780677e-16)
(1.017697791 -0.1180424331 -2.68750253e-16)
(1.132814347 -0.1018502771 3.57478928e-16)
(1.013490305 -0.0934450003 -8.465403849e-17)
(1.114006328 -0.06859184879 1.030884782e-16)
(1.005052887 -0.07269167042 1.413696168e-16)
(1.096552776 -0.04095894947 -1.077870582e-16)
(0.9916249042 -0.05339120765 2.552943348e-16)
(1.080294178 -0.0181505748 -1.004728004e-16)
(0.9721486458 -0.03310628191 6.903551376e-17)
(1.065238876 -0.0002226706917 5.210939024e-17)
(0.9466954979 -0.009692933206 -2.227756508e-16)
(1.442725008 -0.8938821588 9.14555213e-17)
(1.128748646 -0.7144430965 -1.925058282e-16)
(1.384639816 -0.6301317223 1.325816393e-16)
(1.069342088 -0.4772624377 1.528553861e-16)
(1.327671298 -0.4587620539 -6.790294485e-18)
(1.046260379 -0.335263389 3.53467662e-16)
(1.277012838 -0.3398240828 -6.658594492e-17)
(1.038828255 -0.2460495598 4.723993391e-16)
(1.23418913 -0.2535322666 4.177270051e-17)
(1.036563823 -0.1869828399 4.042237871e-16)
(1.19873624 -0.188870793 -2.562815555e-16)
(1.034518142 -0.1456461156 1.447016488e-16)
(1.169179649 -0.1389666112 -1.813911729e-16)
(1.030519437 -0.1150553929 1.434110835e-16)
(1.143827276 -0.09925863244 -3.666810246e-16)
(1.023520931 -0.09103864655 -2.332290536e-17)
(1.121298247 -0.06676100663 -9.662438208e-17)
(1.012694574 -0.07077158104 -2.396104763e-16)
(1.100781018 -0.03971395461 1.335652581e-16)
(0.997000715 -0.05195368047 -2.155638866e-16)
(1.08213251 -0.01738945942 3.511366114e-17)
(0.9750063151 -0.03219559294 1.265771286e-16)
(1.065746481 -5.160211186e-05 -2.670721822e-16)
(0.9469949623 -0.00989959854 5.462275077e-16)
(1.541053775 -0.8593433602 -2.12401085e-16)
(1.207267904 -0.6867742978 4.219846355e-16)
(1.453910939 -0.6057014988 -3.521681102e-16)
(1.12177829 -0.4587207738 4.344491603e-17)
(1.378106452 -0.4409152953 -3.185756455e-17)
(1.083097834 -0.3221814992 -3.923621287e-16)
(1.31438696 -0.3265437754 1.450451576e-16)
(1.065876043 -0.2363930418 -5.29360145e-16)
(1.262095096 -0.243559232 9.609477582e-17)
(1.05713974 -0.1795916308 -5.377402068e-16)
(1.219554208 -0.1813693997 3.408487787e-16)
(1.050573444 -0.139842246 -2.925981096e-16)
(1.184531167 -0.1333641141 2.89327661e-16)
(1.043234512 -0.1104359414 -3.090228714e-16)
(1.154825601 -0.09515120934 5.370716362e-16)
(1.033610815 -0.08737025612 -6.811610221e-17)
(1.128716661 -0.06384474005 2.084180887e-16)
(1.020555073 -0.06794337683 1.228061681e-16)
(1.105186302 -0.03773343192 -6.5141488e-17)
(1.002771989 -0.04996324793 1.604238303e-16)
(1.084037011 -0.01613268627 -1.85928052e-16)
(0.9785150988 -0.03115560962 6.571846246e-17)
(1.065906763 0.000671903361 -1.535124156e-16)
(0.9481518518 -0.01050608601 -9.344808583e-17)
(1.634992623 -0.8140592403 2.776008903e-16)
(1.282388081 -0.6506464736 -3.732856302e-16)
(1.520137432 -0.5738610353 4.631596402e-16)
(1.171923663 -0.43463727 -1.926457416e-16)
(1.426280115 -0.4177883236 8.766685613e-17)
(1.118273839 -0.3053106247 1.583615683e-16)
(1.350018091 -0.3094617934 -1.40647707e-17)
(1.091636174 -0.2240549194 3.761653729e-16)
(1.288614935 -0.2308613271 -1.585504051e-16)
(1.076653794 -0.1702530616 4.670219796e-16)
(1.239233109 -0.1719503471 -1.723058817e-16)
(1.065701868 -0.1325963434 3.044887769e-17)
(1.198914211 -0.1264572984 -4.389658499e-18)
(1.055101459 -0.1047268337 1.157610719e-16)
(1.164979606 -0.09020249962 -3.383526414e-16)
(1.042900266 -0.08285562397 4.446963019e-17)
(1.135407207 -0.06042167981 -1.346609064e-16)
(1.027645333 -0.06444097795 -1.925908778e-16)
(1.109033629 -0.03545738844 9.966771664e-17)
(1.007767642 -0.04745286749 -1.014958105e-16)
(1.085675218 -0.01464407385 1.166443722e-16)
(0.9812012317 -0.02989687076 8.863336773e-17)
(1.066174878 0.001874803867 -3.782628514e-18)
(0.9480271072 -0.01145284993 1.626730444e-16)
(1.723169208 -0.7584998026 -3.944815361e-16)
(1.352765102 -0.6061776498 3.65782465e-16)
(1.582224093 -0.5346147986 -4.482455418e-16)
(1.218906352 -0.4048769937 2.975369842e-16)
(1.471471321 -0.3891565569 -1.786349671e-16)
(1.151267656 -0.2843487697 -3.168173696e-17)
(1.383496159 -0.288191083 7.381077098e-17)
(1.115851452 -0.2086116649 -3.677354486e-16)
(1.313603585 -0.2149205676 2.046393466e-16)
(1.095069635 -0.1584557324 -3.433727301e-16)
(1.257870688 -0.1599902593 1.279336716e-16)
(1.080078476 -0.1233480135 -9.296782311e-17)
(1.212661286 -0.1175523687 1.11498461e-16)
(1.066519541 -0.09737419804 -1.939882789e-16)
(1.174839126 -0.0837019051 2.425667806e-16)
(1.052042351 -0.07702170079 -3.229163364e-17)
(1.142060943 -0.05584036157 7.979669552e-17)
(1.034932335 -0.05994896671 1.285744725e-16)
(1.112933197 -0.03239135765 -1.292792037e-16)
(1.013406801 -0.04429402035 1.217666785e-16)
(1.087084569 -0.01269994352 -2.11250299e-16)
(0.9852458866 -0.02834336158 5.697763968e-17)
(1.065087901 0.003398294289 -1.457475202e-16)
(0.950000632 -0.0122066132 -3.435298835e-17)
(1.804692268 -0.6934631455 2.703249259e-16)
(1.41799195 -0.5542710591 -2.414184859e-16)
(1.639729069 -0.4888602977 2.113124122e-16)
(1.262462306 -0.3702651687 -1.835352185e-16)
(1.513313765 -0.3559109247 1.374080237e-16)
(1.181834202 -0.2600968535 -7.602355484e-17)
(1.41445521 -0.2636292864 -2.144406615e-17)
(1.138249922 -0.1908763573 2.499059654e-16)
(1.33665589 -0.1966651406 -2.245472356e-16)
(1.112052438 -0.1450428386 2.513347918e-16)
(1.274982539 -0.1464654552 -4.306378982e-17)
(1.093261267 -0.1129657802 -4.482629292e-17)
(1.225163119 -0.1076758179 4.38845641e-17)
(1.076880021 -0.08923625588 5.606362457e-17)
(1.183636967 -0.07670650538 -4.662256168e-17)
(1.060179128 -0.07064357358 -5.295104744e-17)
(1.147790847 -0.05114351422 6.545779027e-17)
(1.041176264 -0.05505714025 -1.032665077e-16)
(1.116107908 -0.02948393379 1.049694703e-16)
(1.017827518 -0.04080811903 -7.555502908e-17)
(1.088181624 -0.01102423126 1.619646919e-16)
(0.987797086 -0.02657907345 4.76001933e-17)
(1.064277725 0.004810337479 8.729785141e-17)
(0.9498451769 -0.01293483007 1.143382697e-16)
(1.878292642 -0.6196673481 -1.288233045e-16)
(1.476691906 -0.4952356109 2.682163641e-16)
(1.691513196 -0.4367704691 -1.563526734e-16)
(1.301629769 -0.3307843608 1.642161786e-16)
(1.550989001 -0.3179371968 -1.213446079e-16)
(1.209322242 -0.2323141485 1.182266279e-16)
(1.442349451 -0.2354452687 1.288532514e-17)
(1.158406018 -0.1704312272 -1.281959461e-16)
(1.357459005 -0.1755709879 2.30586307e-16)
(1.127363803 -0.1294433423 -2.174219874e-16)
(1.290479812 -0.130668513 1.205302201e-16)
(1.105204392 -0.1007480879 -3.259392325e-17)
(1.236576137 -0.09595028044 -4.324845804e-17)
(1.086379188 -0.07952111451 -2.491692077e-17)
(1.191802352 -0.06820241071 -2.564219865e-17)
(1.067857256 -0.06291024205 6.118159318e-17)
(1.153254965 -0.04525485998 -1.186206504e-16)
(1.0474928 -0.04903359758 8.254056473e-17)
(1.119162203 -0.02574937718 -9.388436171e-17)
(1.023132457 -0.03641152534 4.366484056e-17)
(1.088769381 -0.009022534829 -1.181974422e-16)
(0.9925323096 -0.0239966592 -4.519481299e-17)
(1.061417571 0.005790871913 -5.617393327e-17)
(0.9533289807 -0.01227264497 -1.135207537e-16)
(1.943313977 -0.5381352449 -1.798140541e-17)
(1.528760048 -0.4301449142 -1.995621895e-16)
(1.737418291 -0.3793873069 -1.74435053e-17)
(1.336417833 -0.287369123 -5.723445036e-17)
(1.584408006 -0.2762276149 -7.553958034e-18)
(1.233753116 -0.2018828843 -7.497159695e-17)
(1.467091974 -0.2046187397 1.220216332e-17)
(1.176328838 -0.1481684473 2.488133452e-17)
(1.375900162 -0.1526521472 -1.604605693e-16)
(1.140977407 -0.1126025833 9.170748967e-17)
(1.304186322 -0.1136920388 -4.264991589e-17)
(1.115799031 -0.0877169481 -1.995035137e-17)
(1.246600795 -0.08358161455 1.036594988e-16)
(1.094732043 -0.06932293592 -4.347040491e-17)
(1.198849869 -0.0595266074 7.129820672e-17)
(1.074432538 -0.05494457482 -3.992413823e-17)
(1.157809173 -0.03962991034 6.737390782e-17)
(1.052512386 -0.04295050114 -2.463155985e-17)
(1.121621376 -0.02267421209 2.301861959e-17)
(1.026553261 -0.03206693868 3.197678887e-17)
(1.089482008 -0.00794808436 -5.693028269e-18)
(0.9943461254 -0.02152832877 1.494028059e-16)
(1.060108701 0.005757084623 -6.494452643e-17)
(0.9524878343 -0.01166294094 1.989844959e-16)
(1.998644597 -0.4498022732 6.250026958e-17)
(1.572835793 -0.3595070379 2.404616101e-16)
(1.776301096 -0.3170710793 1.172070324e-17)
(1.36580386 -0.2401543548 9.696433053e-17)
(1.612676712 -0.2308252255 1.455721131e-17)
(1.254354663 -0.1686832851 7.827526896e-17)
(1.488001384 -0.1709491742 -3.468649817e-18)
(1.191409687 -0.1237632027 -2.647133571e-17)
(1.391468742 -0.127485082 1.492103513e-16)
(1.152402707 -0.09400715396 -9.278413962e-17)
(1.315752628 -0.0948855789 1.090046512e-16)
(1.124676789 -0.07317381397 -5.693383463e-17)
(1.255080673 -0.0696771534 -9.400787317e-18)
(1.101764093 -0.0577645268 -2.142509101e-17)
(1.204866282 -0.04952673289 -3.187846834e-17)
(1.080120652 -0.04571056689 3.231833482e-17)
(1.161745587 -0.0328527315 -4.620815302e-17)
(1.057304226 -0.03563529593 1.714391964e-17)
(1.123613133 -0.01864801161 -2.82004347e-17)
(1.030954315 -0.02642558983 -6.76925741e-18)
(1.08929853 -0.006337401635 -2.03259115e-17)
(0.9991660398 -0.01740520949 -7.915402078e-17)
(1.056497501 0.005016849726 2.982632234e-17)
(0.9577369039 -0.008187764646 -1.001445419e-16)
(2.043905015 -0.3558596265 -7.382547798e-17)
(1.609136879 -0.2844879568 -1.863499339e-16)
(1.808306147 -0.2509274107 -5.876803368e-17)
(1.390080703 -0.1901013502 -6.44734207e-17)
(1.635996803 -0.1827294242 -1.881130682e-17)
(1.271424091 -0.1335821563 -8.350520684e-17)
(1.505286099 -0.1353830499 5.986974147e-18)
(1.203955869 -0.0980643024 -1.621547242e-17)
(1.404374253 -0.101020041 -6.140029061e-17)
(1.161960627 -0.07454435143 1.055142459e-17)
(1.325371732 -0.07525851371 -4.393386196e-17)
(1.132145047 -0.05808809926 1.454485093e-18)
(1.262146291 -0.0553597564 4.137306501e-17)
(1.107673873 -0.04593110167 -3.284216206e-17)
(1.20987238 -0.0394968361 6.323580106e-17)
(1.084759768 -0.03644305509 -3.855430306e-17)
(1.165058975 -0.02645741905 2.090474055e-17)
(1.060733844 -0.0285489727 1.151261069e-17)
(1.125608841 -0.01549793061 1.744818862e-19)
(1.032943574 -0.02138090348 3.92525701e-17)
(1.090391785 -0.006129079304 -2.433478664e-17)
(0.9992808236 -0.01427459869 9.301691409e-17)
(1.057067693 0.002646397987 -6.27337107e-17)
(0.9539980746 -0.006412542146 1.012225035e-16)
(2.078188421 -0.2574182407 9.351856863e-17)
(1.636376899 -0.2057930521 1.457403899e-16)
(1.832338707 -0.1815138266 4.818607036e-17)
(1.408213749 -0.1375258708 7.52327008e-17)
(1.653445694 -0.132182703 2.263559664e-17)
(1.28411124 -0.09664007054 5.884673332e-17)
(1.518169752 -0.09792889693 2.360247416e-17)
(1.213213091 -0.07093892609 -4.597233728e-18)
(1.413938588 -0.07306252995 7.079394285e-17)
(1.168935573 -0.05391223589 -3.850237548e-17)
(1.332441157 -0.05441736998 7.239345674e-17)
(1.137514853 -0.04199197596 -3.342415946e-17)
(1.267283275 -0.04001879536 6.115617131e-18)
(1.111861994 -0.03317700298 -5.490042163e-19)
(1.21344924 -0.02855730146 -1.566367069e-17)
(1.088067151 -0.0262790275 6.736871144e-18)
(1.167262772 -0.01918018893 -1.40030297e-17)
(1.063460764 -0.02049558421 -6.780361579e-18)
(1.126401116 -0.01140978899 -6.19329519e-18)
(1.035576163 -0.01515663598 -2.032300975e-17)
(1.089576274 -0.005095295213 -1.920057841e-19)
(1.002858015 -0.009547624819 -5.032428648e-17)
(1.053676345 -0.0004408238103 3.433879092e-17)
(0.9613222584 -0.001298731096 -7.5909235e-17)
(2.101419419 -0.1557728743 -8.622331299e-17)
(1.655090745 -0.1246004234 -9.392946584e-17)
(1.84883733 -0.1099187786 -7.745118231e-17)
(1.420758867 -0.08333568058 -4.832754641e-17)
(1.665492184 -0.08010125793 -3.156979972e-17)
(1.292955536 -0.05861602412 -4.960957612e-17)
(1.527119936 -0.05938947432 -9.173963266e-18)
(1.219739522 -0.04307226795 -2.801735153e-17)
(1.420645659 -0.04434965941 -1.875412949e-17)
(1.173935936 -0.03277042487 -1.14515674e-17)
(1.337469291 -0.03307204316 -1.611313316e-17)
(1.141448093 -0.02555299623 -8.074068029e-18)
(1.271013006 -0.02436989096 1.823517303e-17)
(1.114983918 -0.02020557029 -1.879333387e-17)
(1.216153525 -0.0174674148 2.775497125e-17)
(1.090472224 -0.01599457122 -1.099161203e-17)
(1.169205379 -0.01188572424 1.08512986e-17)
(1.065032336 -0.01239545389 5.542706623e-18)
(1.127964926 -0.007407347236 5.123531215e-18)
(1.035787751 -0.00891830107 1.543038715e-17)