/*--------------------------------*- C++ -*----------------------------------*\
| =========                 |                                                 |
| \\      /  F ield         | OpenFOAM: The Open Source CFD Toolbox           |
|  \\    /   O peration     | Version:  2.2.0                                 |
|   \\  /    A nd           | Web:      www.OpenFOAM.org                      |
|    \\/     M anipulation  |                                                 |
\*---------------------------------------------------------------------------*/
FoamFile
{
    version     2.0;
    format      ascii;
    class       volVectorField;
    location    "4";
    object      s;
}
// * * * * * * * * * * * * * * * * * * * * * * * * * * * * * * * * * * * * * //

dimensions      [0 1 -1 0 0 0 0];

internalField   nonuniform List<vector> 
7920
(
(0.489078 0.428899 0.107541)
(0.461502 0.404603 0.169127)
(0.430911 0.377595 0.234187)
(0.397685 0.348221 0.301609)
(0.361804 0.316559 0.369803)
(0.323146 0.282752 0.436539)
(0.282292 0.24812 0.498663)
(0.232479 0.2082 0.550815)
(0.522947 0.34945 0.149474)
(0.49321 0.329465 0.209547)
(0.460386 0.307316 0.272976)
(0.424709 0.283165 0.338736)
(0.386186 0.257152 0.405416)
(0.344833 0.229597 0.471188)
(0.300681 0.201453 0.533791)
(0.251411 0.172132 0.590515)
(0.537703 0.265226 0.216756)
(0.507082 0.250117 0.272981)
(0.473483 0.233455 0.332292)
(0.436909 0.215272 0.39379)
(0.397473 0.195759 0.456287)
(0.355293 0.175296 0.518341)
(0.310379 0.154659 0.578335)
(0.262319 0.135006 0.634748)
(0.534036 0.181334 0.316504)
(0.504486 0.171326 0.364094)
(0.471954 0.160228 0.41439)
(0.436415 0.14807 0.466717)
(0.39797 0.134988 0.520218)
(0.356792 0.121288 0.573892)
(0.313025 0.107555 0.626685)
(0.267278 0.0951234 0.677765)
(0.518518 0.103184 0.436109)
(0.491559 0.0978567 0.470153)
(0.461587 0.0918761 0.506709)
(0.428538 0.0852566 0.545491)
(0.392452 0.0780733 0.586084)
(0.353495 0.0705157 0.627985)
(0.311924 0.0629533 0.670656)
(0.268848 0.0563035 0.713731)
(0.504276 0.0330731 0.525878)
(0.4797 0.0314681 0.54815)
(0.452033 0.0296329 0.573026)
(0.4212 0.0275715 0.600551)
(0.387172 0.0253092 0.630674)
(0.350087 0.0229126 0.663251)
(0.310251 0.0205124 0.698068)
(0.268975 0.0184295 0.734994)
(0.504131 -0.0331476 0.525906)
(0.47953 -0.0316507 0.54818)
(0.451918 -0.0299392 0.573058)
(0.421128 -0.027978 0.600585)
(0.387147 -0.0257944 0.630709)
(0.350106 -0.0234452 0.663286)
(0.310307 -0.0210559 0.698102)
(0.26905 -0.0189458 0.735025)
(0.519034 -0.103347 0.436382)
(0.492425 -0.0981708 0.470412)
(0.462345 -0.0922442 0.50696)
(0.429324 -0.0856889 0.545722)
(0.393193 -0.0785382 0.586291)
(0.354174 -0.0709904 0.628162)
(0.312512 -0.0634121 0.670802)
(0.269323 -0.0567229 0.713847)
(0.534565 -0.181462 0.316545)
(0.50513 -0.171453 0.36415)
(0.472587 -0.160314 0.414458)
(0.437057 -0.14815 0.466798)
(0.398598 -0.135076 0.520309)
(0.357389 -0.121397 0.57399)
(0.31357 -0.107689 0.626787)
(0.267755 -0.0952802 0.677865)
(0.537968 -0.26532 0.216855)
(0.507475 -0.250224 0.273092)
(0.473887 -0.233518 0.332415)
(0.43736 -0.21532 0.393922)
(0.397947 -0.195795 0.456423)
(0.355778 -0.175331 0.518477)
(0.31085 -0.154697 0.578466)
(0.262765 -0.135059 0.634871)
(0.523085 -0.34948 0.149524)
(0.493393 -0.329448 0.209609)
(0.460611 -0.307249 0.273052)
(0.424971 -0.283067 0.338824)
(0.386482 -0.25704 0.405514)
(0.345157 -0.22949 0.471293)
(0.30102 -0.201365 0.533899)
(0.251771 -0.172087 0.590624)
(0.48904 -0.42886 0.107566)
(0.46143 -0.40451 0.169163)
(0.430888 -0.377514 0.234235)
(0.397697 -0.348133 0.30167)
(0.361866 -0.316473 0.369876)
(0.323263 -0.282672 0.436622)
(0.282464 -0.248052 0.498754)
(0.232708 -0.208154 0.55091)
(0.223186 0.195711 0.0262299)
(0.225334 0.197533 0.0483021)
(0.226773 0.198753 0.073752)
(0.227047 0.199001 0.102753)
(0.225681 0.197952 0.135215)
(0.221988 0.195212 0.170582)
(0.215164 0.190655 0.207376)
(0.202492 0.183028 0.242523)
(0.251671 0.168273 0.0381318)
(0.253136 0.16953 0.0610019)
(0.253695 0.17029 0.0872776)
(0.252848 0.1703 0.117156)
(0.250065 0.169352 0.150638)
(0.244663 0.167284 0.187408)
(0.235678 0.164103 0.226634)
(0.222052 0.160223 0.266811)
(0.27914 0.137772 0.0595276)
(0.279426 0.138285 0.0828439)
(0.278647 0.138422 0.10953)
(0.276274 0.138033 0.139812)
(0.271792 0.136999 0.173788)
(0.264581 0.135284 0.211364)
(0.253775 0.132986 0.252186)
(0.238927 0.130907 0.295608)
(0.307152 0.104426 0.0936619)
(0.305763 0.104338 0.11585)
(0.302832 0.103874 0.14125)
(0.298323 0.103076 0.170136)
(0.29163 0.101857 0.20272)
(0.282286 0.100258 0.239121)
(0.269614 0.0984246 0.279356)
(0.253628 0.0971169 0.323393)
(0.333071 0.066413 0.136825)
(0.328846 0.065873 0.155791)
(0.323501 0.065212 0.177799)
(0.316437 0.0643202 0.203226)
(0.307371 0.0632209 0.232436)
(0.295877 0.0619527 0.265771)
(0.281468 0.060644 0.303569)
(0.264392 0.0598008 0.346253)
(0.349956 0.0229597 0.17013)
(0.34385 0.0226363 0.185759)
(0.336613 0.0222741 0.204368)
(0.327722 0.0218586 0.226432)
(0.316937 0.0213946 0.252444)
(0.303915 0.0209 0.282907)
(0.288273 0.0204193 0.318358)
(0.270374 0.0201228 0.359467)
(0.350113 -0.022994 0.170142)
(0.344024 -0.0226968 0.185768)
(0.336766 -0.0223605 0.204373)
(0.327857 -0.0219635 0.226431)
(0.317048 -0.0215147 0.252437)
(0.304001 -0.021033 0.282895)
(0.288336 -0.0205662 0.318342)
(0.270416 -0.0202875 0.35945)
(0.333262 -0.0664017 0.136648)
(0.329108 -0.0658448 0.155621)
(0.323735 -0.0651493 0.177637)
(0.316673 -0.064259 0.203077)
(0.307583 -0.0631782 0.232301)
(0.296061 -0.0619485 0.265654)
(0.281617 -0.0606912 0.303472)
(0.264507 -0.0599045 0.346178)
(0.307271 -0.104476 0.0935401)
(0.305604 -0.104318 0.115726)
(0.302729 -0.103895 0.141124)
(0.298176 -0.103109 0.170013)
(0.291496 -0.10192 0.202603)
(0.282177 -0.100357 0.239013)
(0.269548 -0.0985653 0.279263)
(0.253606 -0.0972951 0.323319)
(0.279506 -0.138033 0.0594752)
(0.279779 -0.138625 0.0827871)
(0.278938 -0.13882 0.109469)
(0.276521 -0.138467 0.139749)
(0.272 -0.137448 0.173725)
(0.264759 -0.135726 0.211305)
(0.253932 -0.133403 0.252135)
(0.239058 -0.131277 0.295567)
(0.252024 -0.168532 0.0381444)
(0.253528 -0.169845 0.0610159)
(0.254057 -0.170622 0.0872932)
(0.253196 -0.170656 0.117172)
(0.250386 -0.169721 0.150653)
(0.244954 -0.167655 0.187421)
(0.235937 -0.164466 0.226646)
(0.222267 -0.160558 0.266821)
(0.223513 -0.195981 0.0262715)
(0.225757 -0.197872 0.0483523)
(0.22718 -0.199067 0.0738111)
(0.227463 -0.199321 0.102816)
(0.226082 -0.198268 0.135278)
(0.222362 -0.195519 0.170642)
(0.2155 -0.190947 0.207431)
(0.202785 -0.183296 0.242571)
(0.116113 0.101834 0.00389964)
(0.117765 0.103242 0.0136538)
(0.119546 0.104764 0.0250437)
(0.121114 0.106102 0.0382502)
(0.122335 0.107197 0.0533866)
(0.122858 0.107862 0.070402)
(0.122124 0.107935 0.0888666)
(0.11911 0.107261 0.107528)
(0.131382 0.0878661 0.00512727)
(0.132836 0.0890366 0.0154953)
(0.13435 0.0903191 0.0275955)
(0.135528 0.0915013 0.0416457)
(0.136205 0.0925594 0.0578332)
(0.136017 0.0934267 0.0762669)
(0.134371 0.0940717 0.0968979)
(0.130876 0.0949771 0.119408)
(0.146532 0.0723786 0.0081454)
(0.147597 0.0731958 0.0192223)
(0.148639 0.0741028 0.0321402)
(0.149247 0.0749519 0.0471545)
(0.149256 0.0757519 0.0645226)
(0.148321 0.0764937 0.0844859)
(0.145924 0.0772181 0.107253)
(0.141831 0.0784106 0.132987)
(0.162178 0.0551499 0.0132811)
(0.162537 0.0555267 0.0248125)
(0.162784 0.0559603 0.0382588)
(0.162531 0.0563683 0.0539132)
(0.161632 0.056773 0.0720857)
(0.159791 0.0571971 0.0931137)
(0.156592 0.0577124 0.117376)
(0.151945 0.0587013 0.145329)
(0.176964 0.0352529 0.0200452)
(0.176312 0.0352744 0.0315791)
(0.175475 0.0353253 0.0450699)
(0.174112 0.0353719 0.0608333)
(0.172105 0.0354368 0.0792268)
(0.169212 0.0355483 0.100662)
(0.165113 0.0357687 0.125636)
(0.159798 0.0363357 0.154802)
(0.186673 0.0122378 0.0251776)
(0.185193 0.0121704 0.036497)
(0.183485 0.0121102 0.0497915)
(0.18126 0.0120545 0.0653978)
(0.178416 0.0120124 0.0837029)
(0.174752 0.0119976 0.105162)
(0.170002 0.012035 0.130336)
(0.164194 0.0122052 0.159979)
(0.186767 -0.0122879 0.0251789)
(0.18532 -0.0122821 0.0364986)
(0.1836 -0.0122848 0.0497936)
(0.181375 -0.0122833 0.0654)
(0.178524 -0.0122872 0.0837049)
(0.17485 -0.0123082 0.105163)
(0.170088 -0.0123709 0.130336)
(0.164265 -0.0125562 0.159977)
(0.177169 -0.0352961 0.02004)
(0.176627 -0.0353594 0.0315751)
(0.175763 -0.0354274 0.0450668)
(0.174411 -0.0355083 0.0608306)
(0.17239 -0.035609 0.0792238)
(0.169478 -0.0357598 0.100657)
(0.16535 -0.0360189 0.12563)
(0.159998 -0.0366193 0.154794)
(0.162326 -0.0551918 0.0133382)
(0.162673 -0.0555705 0.0248647)
(0.16294 -0.0560207 0.0383077)
(0.162692 -0.0564516 0.0539545)
(0.161805 -0.0568913 0.072117)
(0.159972 -0.0573568 0.0931333)
(0.156781 -0.057917 0.117384)
(0.152132 -0.0589456 0.145326)
(0.146757 -0.0725165 0.00811793)
(0.147827 -0.0733699 0.0191931)
(0.148857 -0.0743067 0.0321094)
(0.149465 -0.0751844 0.0471232)
(0.149477 -0.0760091 0.0644915)
(0.148549 -0.0767704 0.0844557)
(0.146158 -0.0775088 0.107225)
(0.142061 -0.0787033 0.13296)
(0.131718 -0.0881126 0.00511408)
(0.133213 -0.0893329 0.0154789)
(0.134703 -0.0906252 0.0275757)
(0.135877 -0.0918213 0.0416227)
(0.136543 -0.0928843 0.0578076)
(0.136344 -0.0937497 0.0762395)
(0.134684 -0.0943873 0.09687)
(0.131166 -0.0952761 0.11938)
(0.116453 -0.102114 0.00388523)
(0.118183 -0.103568 0.0136354)
(0.119951 -0.105057 0.025021)
(0.121531 -0.106393 0.0382244)
(0.122743 -0.107474 0.0533585)
(0.12325 -0.108127 0.0703729)
(0.12249 -0.108185 0.0888378)
(0.119448 -0.107492 0.1075)
(0.0613028 0.0537745 -0.00631734)
(0.0622596 0.0546202 -0.00222826)
(0.0633351 0.0555733 0.00259917)
(0.0643752 0.0565052 0.00827244)
(0.065325 0.0573974 0.0148873)
(0.06603 0.0581809 0.0224881)
(0.0661986 0.0587726 0.030984)
(0.0654043 0.0592169 0.0399412)
(0.0693403 0.0463933 -0.0104495)
(0.0702303 0.0471475 -0.00602222)
(0.0711915 0.0479993 -0.000763918)
(0.0720576 0.0488696 0.0054689)
(0.0727533 0.0497555 0.0128293)
(0.0731144 0.0506403 0.0214644)
(0.0728466 0.0515165 0.0314919)
(0.0717822 0.0526816 0.0429544)
(0.0773386 0.0382293 -0.0169424)
(0.0780872 0.0388269 -0.0119027)
(0.078834 0.0394914 -0.00589498)
(0.0794479 0.040192 0.00125953)
(0.0798385 0.0409302 0.00976341)
(0.0798541 0.0417144 0.0198396)
(0.0792447 0.0425712 0.0317326)
(0.0778926 0.0437543 0.0457111)
(0.0854425 0.0291245 -0.0268836)
(0.0858837 0.0295187 -0.0208103)
(0.0862619 0.0299568 -0.0136176)
(0.0864881 0.0304166 -0.00510892)
(0.0864711 0.030909 0.00494074)
(0.0860843 0.031452 0.0167871)
(0.0851297 0.0320879 0.0307302)
(0.08354 0.0330059 0.0471415)
(0.0928413 0.0185651 -0.0393886)
(0.0926657 0.0187122 -0.0318173)
(0.092608 0.018926 -0.0230122)
(0.0923162 0.0191359 -0.0127853)
(0.0918225 0.019375 -0.000922075)
(0.090992 0.0196534 0.0128272)
(0.0896759 0.0200077 0.0287699)
(0.0878341 0.0205536 0.0473149)
(0.0975976 0.00641722 -0.0490909)
(0.0970318 0.00643295 -0.0402233)
(0.0965923 0.00647117 -0.0300761)
(0.0959209 0.00651633 -0.0184819)
(0.0950565 0.00657654 -0.00524741)
(0.0938878 0.00665687 0.0098594)
(0.0922893 0.00676881 0.0271375)
(0.0902405 0.00694949 0.0470067)
(0.0976739 -0.0064348 -0.049097)
(0.0971275 -0.00646275 -0.0402298)
(0.0966741 -0.0065129 -0.0300831)
(0.0959941 -0.00656541 -0.0184896)
(0.095116 -0.00663139 -0.00525607)
(0.0939323 -0.00671675 0.00984957)
(0.0923191 -0.00683566 0.0271265)
(0.0902574 -0.00702792 0.0469948)
(0.0928455 -0.0185432 -0.0394206)
(0.0927142 -0.0186804 -0.0318498)
(0.0926466 -0.0188762 -0.0230457)
(0.0923655 -0.0190856 -0.0128199)
(0.0918663 -0.0193324 -0.000957902)
(0.0910291 -0.0196302 0.0127903)
(0.0897032 -0.0200129 0.0287322)
(0.0878514 -0.0205937 0.047277)
(0.0853661 -0.0290886 -0.0268955)
(0.085723 -0.0294523 -0.0208281)
(0.0861278 -0.0298973 -0.0136407)
(0.0863486 -0.0303627 -0.0051387)
(0.0863442 -0.0308733 0.00490388)
(0.085975 -0.0314431 0.0167433)
(0.0850453 -0.0321135 0.0306806)
(0.0834816 -0.0330683 0.0470882)
(0.077319 -0.0382562 -0.0169983)
(0.0780168 -0.0388728 -0.0119655)
(0.0787572 -0.0395792 -0.00596515)
(0.0793587 -0.0403071 0.00118384)
(0.0797505 -0.0410696 0.00968381)
(0.0797756 -0.0418709 0.0197582)
(0.0791863 -0.0427403 0.0316518)
(0.0778514 -0.0439246 0.0456334)
(0.0694728 -0.0465156 -0.0104866)
(0.0703676 -0.0473166 -0.00606868)
(0.0712984 -0.0481936 -0.000820337)
(0.0721465 -0.0490879 0.00540378)
(0.072823 -0.0499882 0.0127569)
(0.0731682 -0.0508787 0.021387)
(0.0728914 -0.0517535 0.0314123)
(0.0718117 -0.0529003 0.0428761)
(0.0614751 -0.0539272 -0.00634448)
(0.0624731 -0.0548179 -0.00226492)
(0.0635308 -0.0557681 0.00255213)
(0.0645661 -0.0567124 0.00821639)
(0.0654988 -0.0576093 0.0148235)
(0.0661817 -0.0583941 0.0224185)
(0.0663267 -0.0589833 0.0309113)
(0.0655025 -0.0594136 0.0398686)
(0.0295691 0.0260004 -0.0111405)
(0.0299333 0.026424 -0.00972552)
(0.0304538 0.0269945 -0.00800204)
(0.0309398 0.0275354 -0.00590377)
(0.0314152 0.028082 -0.00335895)
(0.0317971 0.0285909 -0.000300857)
(0.0319591 0.0290296 0.00330533)
(0.0316778 0.0294245 0.00739268)
(0.0333688 0.0223576 -0.017894)
(0.0336987 0.0227172 -0.0163078)
(0.0341834 0.0232131 -0.0143271)
(0.034597 0.0237077 -0.0118519)
(0.0349603 0.0242363 -0.00876301)
(0.0351869 0.024784 -0.00492331)
(0.0351496 0.0253539 -0.000180909)
(0.0347492 0.0260727 0.00561962)
(0.0370943 0.0183562 -0.0290719)
(0.0373606 0.0186361 -0.026961)
(0.037775 0.0190269 -0.0243124)
(0.0380935 0.0194247 -0.0209938)
(0.0383411 0.0198653 -0.0168486)
(0.0384331 0.0203484 -0.0116942)
(0.0382603 0.0208939 -0.00531944)
(0.0377565 0.0216161 0.00252003)
(0.040886 0.0139261 -0.0464927)
(0.0410288 0.0140928 -0.0431008)
(0.0413004 0.0143364 -0.0389907)
(0.0414654 0.014593 -0.03402)
(0.0415486 0.0148904 -0.0280276)
(0.0414758 0.0152357 -0.0208316)
(0.0411589 0.0156532 -0.0122242)
(0.0405592 0.0162297 -0.00195738)
(0.044407 0.00885637 -0.068427)
(0.044363 0.00891464 -0.0628421)
(0.0444223 0.00901565 -0.0563931)
(0.0443751 0.00913062 -0.0489673)
(0.0442449 0.00927669 -0.0404419)
(0.0439701 0.00946266 -0.0306806)
(0.043481 0.00970729 -0.0195239)
(0.0427546 0.0100646 -0.0067645)
(0.0466965 0.00305598 -0.0854074)
(0.046506 0.00305149 -0.0778068)
(0.0463887 0.00305974 -0.069286)
(0.046174 0.00307879 -0.0597731)
(0.0458771 0.00311363 -0.0491919)
(0.0454476 0.00316879 -0.0374547)
(0.0448262 0.00325086 -0.0244464)
(0.0439969 0.00337704 -0.00999412)
(0.046784 -0.00308961 -0.0854123)
(0.0466283 -0.00311826 -0.0778117)
(0.0464958 -0.00315601 -0.069291)
(0.0462787 -0.00319421 -0.0597782)
(0.0459708 -0.003238 -0.0491971)
(0.0455273 -0.00329135 -0.0374599)
(0.0448891 -0.00336229 -0.0244517)
(0.0440414 -0.00347094 -0.0099994)
(0.0445407 -0.00888163 -0.0684456)
(0.0445689 -0.00894995 -0.0628604)
(0.0446028 -0.00904362 -0.0564114)
(0.0445553 -0.00915804 -0.0489854)
(0.0444076 -0.00930194 -0.0404594)
(0.0441102 -0.00948694 -0.0306975)
(0.043593 -0.00973139 -0.0195401)
(0.042836 -0.0100895 -0.00678013)
(0.0407466 -0.0138384 -0.0465012)
(0.0409783 -0.0139938 -0.043111)
(0.0412713 -0.0142061 -0.0390025)
(0.041471 -0.0144544 -0.0340335)
(0.0415758 -0.0147551 -0.0280429)
(0.0415141 -0.0151166 -0.0208485)
(0.0411988 -0.0155604 -0.0122426)
(0.0405958 -0.0161695 -0.0019771)
(0.0369129 -0.0182565 -0.0290817)
(0.0371041 -0.0184914 -0.0269728)
(0.0375501 -0.0188873 -0.0243264)
(0.0378782 -0.0192835 -0.0210099)
(0.0381534 -0.0197355 -0.0168666)
(0.0382799 -0.0202383 -0.011714)
(0.0381477 -0.0208121 -0.00534095)
(0.0376857 -0.0215666 0.0024971)
(0.0333323 -0.022364 -0.0179002)
(0.0336358 -0.0227387 -0.0163162)
(0.0341059 -0.0232557 -0.0143377)
(0.0345068 -0.0237592 -0.0118648)
(0.0348669 -0.0242925 -0.00877827)
(0.0350977 -0.024839 -0.00494093)
(0.0350741 -0.0254064 -0.000200813)
(0.034689 -0.0261177 0.00559761)
(0.0296095 -0.026045 -0.0111359)
(0.0299758 -0.0264837 -0.00972189)
(0.0304806 -0.0270573 -0.00799955)
(0.0309572 -0.0276054 -0.00590388)
(0.0314182 -0.0281537 -0.00336265)
(0.0317878 -0.0286626 -0.000308921)
(0.0319416 -0.0291003 0.00329264)
(0.0316514 -0.0294891 0.00737596)
(0.0134004 0.0118216 -0.0135632)
(0.0135137 0.0120428 -0.0135006)
(0.0137243 0.0123615 -0.0133485)
(0.0139119 0.0126668 -0.0130659)
(0.0140963 0.0129823 -0.0125961)
(0.0142388 0.013286 -0.0118672)
(0.0142876 0.0135634 -0.0107889)
(0.0141259 0.0138132 -0.00924808)
(0.0150003 0.0100733 -0.0216394)
(0.0151183 0.0102723 -0.0214936)
(0.0153283 0.0105567 -0.0211773)
(0.0154962 0.0108464 -0.0206167)
(0.0156387 0.0111609 -0.0197148)
(0.0157141 0.0114895 -0.0183469)
(0.0156708 0.0118321 -0.0163556)
(0.015443 0.0122222 -0.013544)
(0.0166388 0.00825326 -0.0351727)
(0.0167474 0.00842771 -0.0345529)
(0.0169184 0.0086598 -0.0336189)
(0.0170417 0.00890623 -0.0322669)
(0.0171243 0.00917867 -0.030369)
(0.0171303 0.00947497 -0.027772)
(0.0170158 0.00980144 -0.0242952)
(0.0167359 0.0101927 -0.0197261)
(0.0182098 0.00625381 -0.0563433)
(0.0182718 0.00640789 -0.0543274)
(0.0183657 0.00659741 -0.0518045)
(0.0184174 0.00678961 -0.0486656)
(0.0184241 0.00699438 -0.044788)
(0.0183579 0.00721254 -0.0400367)
(0.0181838 0.00745448 -0.0342647)
(0.0178706 0.00775146 -0.0273078)
(0.0194783 0.00394535 -0.0829985)
(0.0193397 0.00403136 -0.0784499)
(0.0193936 0.00417024 -0.0732362)
(0.019348 0.00429197 -0.0672865)
(0.0192907 0.00442104 -0.0605312)
(0.0191704 0.00455345 -0.0529017)
(0.0189646 0.0046995 -0.0443273)
(0.0186499 0.00488155 -0.034725)
(0.0203123 0.00135041 -0.103581)
(0.0200591 0.00137299 -0.0966675)
(0.0200485 0.00141681 -0.089029)
(0.0199349 0.00146031 -0.0806455)
(0.0198142 0.00150903 -0.0715069)
(0.019643 0.00156175 -0.061608)
(0.0194002 0.00161986 -0.0509412)
(0.0190716 0.00168939 -0.0394802)
(0.0203592 -0.00135219 -0.103593)
(0.0201236 -0.00136493 -0.0966804)
(0.0201006 -0.00139548 -0.0890423)
(0.0199769 -0.00142103 -0.080659)
(0.0198419 -0.00145006 -0.0715203)
(0.019655 -0.00148305 -0.0616214)
(0.0193975 -0.00152487 -0.0509545)
(0.0190577 -0.00158491 -0.0394934)
(0.0194039 -0.00390001 -0.0829976)
(0.0192691 -0.00395144 -0.0784534)
(0.0193154 -0.00405482 -0.0732438)
(0.0192717 -0.00415439 -0.0672995)
(0.0192079 -0.0042697 -0.0605498)
(0.019084 -0.00439961 -0.0529259)
(0.0188762 -0.00455289 -0.0443566)
(0.0185645 -0.00475008 -0.0347586)
(0.0179575 -0.00615827 -0.0564011)
(0.0179349 -0.00627455 -0.0543874)
(0.018057 -0.00646343 -0.0518684)
(0.0181063 -0.00665019 -0.0487321)
(0.0181302 -0.0068592 -0.0448562)
(0.0180885 -0.00708766 -0.0401054)
(0.0179492 -0.00734602 -0.0343327)
(0.0176754 -0.00766116 -0.0273744)
(0.016407 -0.00817271 -0.0352159)
(0.016466 -0.0083611 -0.0346041)
(0.0166332 -0.00863099 -0.0336785)
(0.0167494 -0.00890088 -0.032334)
(0.0168397 -0.0091928 -0.0304426)
(0.0168643 -0.00950037 -0.0278506)
(0.0167822 -0.00983176 -0.0243765)
(0.016534 -0.0102138 -0.0198078)
(0.0149069 -0.0100602 -0.0216816)
(0.0150307 -0.0103206 -0.021547)
(0.0152094 -0.0106418 -0.0212422)
(0.0153663 -0.0109637 -0.0206918)
(0.0154982 -0.0112942 -0.0197981)
(0.0155701 -0.0116246 -0.0184359)
(0.0155331 -0.0119564 -0.0164472)
(0.0153044 -0.0123136 -0.0136347)
(0.0134614 -0.0118722 -0.0135975)
(0.0136621 -0.0121773 -0.0135469)
(0.0138426 -0.0124779 -0.0134073)
(0.014029 -0.0127961 -0.0131352)
(0.0141899 -0.0131076 -0.0126742)
(0.0143019 -0.0134013 -0.0119515)
(0.0143149 -0.0136597 -0.0108767)
(0.0141179 -0.0138766 -0.00933593)
(0.005419 0.00484926 -0.014722)
(0.00537487 0.00497715 -0.015302)
(0.00541063 0.00519151 -0.0158959)
(0.00541723 0.00538341 -0.016473)
(0.00542751 0.00558413 -0.0169845)
(0.00541903 0.00577501 -0.0173565)
(0.0053831 0.00595429 -0.0174743)
(0.00523782 0.00609794 -0.0171412)
(0.00588515 0.00400367 -0.0234204)
(0.00581209 0.00409442 -0.0239576)
(0.00587197 0.00429351 -0.0244305)
(0.00588154 0.00447565 -0.0247768)
(0.00589149 0.00467719 -0.0249102)
(0.00587426 0.00488351 -0.024713)
(0.00581905 0.00509777 -0.0240268)
(0.00566656 0.00530186 -0.0226385)
(0.00641502 0.00321481 -0.0380656)
(0.00632884 0.0032811 -0.0381512)
(0.00639305 0.00344038 -0.038029)
(0.00639406 0.00358886 -0.0376073)
(0.00639311 0.00376079 -0.0367731)
(0.00636106 0.00394738 -0.0353884)
(0.0062873 0.00415475 -0.0332894)
(0.00613554 0.00438248 -0.0302829)
(0.00691031 0.00238248 -0.060953)
(0.00680359 0.00242616 -0.059589)
(0.00686102 0.00253953 -0.057819)
(0.0068493 0.0026467 -0.0555504)
(0.00683452 0.00277395 -0.0526795)
(0.00678752 0.00291734 -0.0490953)
(0.00669777 0.00308333 -0.0446819)
(0.00654349 0.00327998 -0.0393184)
(0.00740053 0.0014918 -0.0897468)
(0.00726556 0.00151187 -0.0856966)
(0.00729582 0.0015745 -0.0810766)
(0.00725633 0.0016368 -0.0758385)
(0.00721367 0.00171496 -0.069938)
(0.00714049 0.00180824 -0.0633398)
(0.00702765 0.00192168 -0.0560173)
(0.00686289 0.00206317 -0.0479493)
(0.00773218 0.000511424 -0.111979)
(0.00757625 0.000518336 -0.105406)
(0.00757951 0.000539017 -0.0982009)
(0.00751734 0.00056405 -0.0903712)
(0.00745183 0.000598716 -0.0819384)
(0.00735714 0.0006441 -0.0729378)
(0.0072243 0.000701993 -0.0634144)
(0.00704523 0.000774336 -0.0534142)
(0.00772508 -0.000536327 -0.112)
(0.00760051 -0.000551924 -0.105427)
(0.00760183 -0.000575059 -0.0982221)
(0.00754703 -0.000579716 -0.0903922)
(0.00747962 -0.000573971 -0.0819586)
(0.00737911 -0.000559062 -0.0729566)
(0.00723601 -0.000541407 -0.0634311)
(0.00704434 -0.000531258 -0.0534285)
(0.00744978 -0.00146899 -0.0898058)
(0.00749019 -0.00147197 -0.0857561)
(0.00747565 -0.00146644 -0.0811369)
(0.00744918 -0.00147531 -0.0758977)
(0.00737884 -0.00149378 -0.0699946)
(0.00726502 -0.00153013 -0.063392)
(0.00709746 -0.00159082 -0.0560635)
(0.00687822 -0.0016889 -0.0479885)
(0.0065612 -0.00217398 -0.0610128)
(0.00644668 -0.00210386 -0.059652)
(0.00655839 -0.00212423 -0.0578856)
(0.00656546 -0.00215539 -0.0556185)
(0.00657476 -0.00223411 -0.0527471)
(0.00654275 -0.0023547 -0.0491598)
(0.00646333 -0.00252306 -0.0447407)
(0.00632759 -0.00274633 -0.0393696)
(0.00572938 -0.00284773 -0.0380973)
(0.00555236 -0.00281929 -0.0381887)
(0.00567643 -0.00295627 -0.0380724)
(0.00570461 -0.00306894 -0.0376555)
(0.00575412 -0.00322305 -0.0368245)
(0.00578154 -0.00340618 -0.0354408)
(0.00577621 -0.00362882 -0.0333401)
(0.00570543 -0.00389223 -0.0303295)
(0.00530996 -0.0036245 -0.023469)
(0.00514642 -0.00365968 -0.0240129)
(0.00522005 -0.00387128 -0.0244917)
(0.00521837 -0.00404503 -0.0248395)
(0.00523977 -0.00424926 -0.0249709)
(0.00524779 -0.00446285 -0.0247687)
(0.00523858 -0.00469495 -0.0240755)
(0.00514595 -0.00492066 -0.0226806)
(0.00494645 -0.00448103 -0.0146879)
(0.00478704 -0.00456991 -0.0152655)
(0.0048135 -0.00483923 -0.0158564)
(0.0047925 -0.00505599 -0.0164359)
(0.00479757 -0.00528688 -0.0169531)
(0.00480036 -0.00550463 -0.0173337)
(0.00479948 -0.0057127 -0.0174614)
(0.00468889 -0.00587955 -0.017139)
(0.00184199 0.00170183 -0.0152342)
(0.001745 0.00176917 -0.0160966)
(0.00171662 0.0019136 -0.0170189)
(0.00166165 0.00204001 -0.0179742)
(0.00161017 0.00217598 -0.018918)
(0.00154981 0.00230828 -0.0197762)
(0.00148569 0.00243759 -0.0204243)
(0.00136093 0.0025341 -0.0206297)
(0.00187028 0.00131293 -0.0241809)
(0.00176438 0.0013653 -0.0250139)
(0.00176043 0.00150203 -0.0258301)
(0.0017157 0.00162417 -0.0265734)
(0.00167385 0.00176153 -0.0271628)
(0.00161712 0.00190108 -0.0274846)
(0.00154841 0.00204435 -0.0273813)
(0.00142209 0.00215745 -0.0266338)
(0.00194741 0.00099036 -0.0392824)
(0.00182699 0.00101892 -0.0396728)
(0.00184059 0.00112571 -0.0399026)
(0.00179844 0.00122919 -0.0398883)
(0.00175754 0.00135487 -0.0395238)
(0.00169798 0.00149332 -0.038679)
(0.00162116 0.00164424 -0.0371988)
(0.00149964 0.00178951 -0.0349006)
(0.00189397 0.000682455 -0.0629132)
(0.0018935 0.000767475 -0.0618305)
(0.00189089 0.000866299 -0.0603876)
(0.00187515 0.000973434 -0.0584999)
(0.00183414 0.00108523 -0.0560731)
(0.00176778 0.00119977 -0.0530081)
(0.00167468 0.00131559 -0.0492045)
(0.00153994 0.00142642 -0.0445633)
(0.00195366 0.000460116 -0.0926235)
(0.00180558 0.000533568 -0.0887895)
(0.0018058 0.000646815 -0.0844289)
(0.0017416 0.000737584 -0.079503)
(0.00168632 0.000823785 -0.0739804)
(0.00161591 0.000898312 -0.0678417)
(0.00153503 0.000963758 -0.0610822)
(0.0014311 0.00102121 -0.053711)
(0.00176508 0.000153044 -0.115522)
(0.00152375 0.0001977 -0.1091)
(0.00155112 0.000264114 -0.102088)
(0.00148968 0.000321724 -0.0945067)
(0.00145112 0.00037617 -0.0863913)
(0.00140486 0.000422546 -0.0777965)
(0.00135375 0.000458765 -0.0687925)
(0.00129092 0.000483025 -0.0594605)
(0.00173537 -0.000110961 -0.115526)
(0.00149612 -8.73029e-05 -0.109103)
(0.00151147 -7.92841e-05 -0.10209)
(0.00143528 -6.56882e-05 -0.0945064)
(0.00138134 -5.6385e-05 -0.0863879)
(0.00132079 -5.30952e-05 -0.0777895)
(0.00125997 -6.10599e-05 -0.0687816)
(0.00119623 -8.50902e-05 -0.0594461)
(0.00155682 -0.000320627 -0.0926261)
(0.00133287 -0.000302928 -0.0887884)
(0.00136137 -0.000343344 -0.0844237)
(0.0012996 -0.000374664 -0.0794913)
(0.00125849 -0.000420604 -0.0739603)
(0.00120989 -0.000477235 -0.067812)
(0.00116113 -0.000549337 -0.0610429)
(0.00110273 -0.000637341 -0.0536634)
(0.00138524 -0.000512858 -0.0628564)
(0.00117803 -0.000526068 -0.061769)
(0.00121322 -0.000631674 -0.0603199)
(0.00116379 -0.000718193 -0.0584259)
(0.00113576 -0.000822619 -0.0559925)
(0.00110227 -0.000936154 -0.0529213)
(0.00107318 -0.00106437 -0.0491127)
(0.0010196 -0.00119424 -0.0444689)
(0.00145884 -0.000756119 -0.0391957)
(0.00125738 -0.00076607 -0.0395745)
(0.00126088 -0.000903777 -0.0397918)
(0.00119171 -0.00103529 -0.0397674)
(0.00114584 -0.00120173 -0.0393949)
(0.00109893 -0.0013821 -0.0385451)
(0.00106796 -0.00157548 -0.0370637)
(0.000994872 -0.00173043 -0.0347683)
(0.0011652 -0.000992847 -0.024116)
(0.000865892 -0.00108325 -0.0249323)
(0.000866601 -0.00139657 -0.0257302)
(0.000813117 -0.00162909 -0.0264572)
(0.000812587 -0.00186216 -0.0270326)
(0.000830119 -0.00206285 -0.0273444)
(0.000880292 -0.00224109 -0.0272367)
(0.000837283 -0.00231254 -0.0264914)
(0.0019245 -0.00185555 -0.0151739)
(0.00213198 -0.00230136 -0.0160166)
(0.00195111 -0.0024164 -0.0169178)
(0.00188698 -0.0026141 -0.0178559)
(0.00175875 -0.00273567 -0.018786)
(0.00161383 -0.00281524 -0.0196349)
(0.00145972 -0.00285089 -0.0202794)
(0.00124174 -0.00279212 -0.0204873)
(0.000440482 0.000436176 -0.0154478)
(0.000301836 0.000398535 -0.0164316)
(0.000290547 0.000489735 -0.0174951)
(0.000229241 0.000540929 -0.0186143)
(0.000184954 0.000613967 -0.0197462)
(0.000136655 0.000687847 -0.0208161)
(9.7077e-05 0.000769187 -0.0216951)
(1.6611e-05 0.000836941 -0.0221347)
(0.000567149 0.000391348 -0.0245189)
(0.000453356 0.000355149 -0.0254821)
(0.000445046 0.000399179 -0.0264485)
(0.000383262 0.000422129 -0.0273643)
(0.000328917 0.000464047 -0.0281508)
(0.000262527 0.000511717 -0.0286959)
(0.000193829 0.000570921 -0.0288426)
(9.66018e-05 0.000616989 -0.0283694)
(0.000593104 0.000305317 -0.0398215)
(0.000480513 0.000280009 -0.0403462)
(0.000481165 0.000315512 -0.0407306)
(0.000426672 0.000331696 -0.0408938)
(0.00037928 0.000360484 -0.0407327)
(0.000319064 0.000394213 -0.0401202)
(0.000251471 0.000438973 -0.0389051)
(0.000164947 0.00048814 -0.036909)
(0.00064206 0.000222737 -0.0637809)
(0.00053212 0.000200093 -0.0628211)
(0.000531373 0.000217264 -0.0615209)
(0.000477372 0.000222167 -0.0597977)
(0.000429224 0.000235617 -0.0575617)
(0.00036786 0.000253227 -0.0547186)
(0.000296329 0.000279105 -0.0511751)
(0.000209923 0.000314344 -0.0468418)
(0.000670848 0.000132663 -0.0938528)
(0.000564315 0.000114075 -0.0901139)
(0.000561494 0.000116855 -0.0858673)
(0.000508265 0.000112926 -0.0810779)
(0.000459817 0.000113587 -0.07572)
(0.000398914 0.000117105 -0.0697814)
(0.000328041 0.000126392 -0.0632668)
(0.000246179 0.000144794 -0.0561984)
(0.000721157 4.56075e-05 -0.116963)
(0.000613112 3.35744e-05 -0.110612)
(0.000600246 2.4763e-05 -0.103691)
(0.000543146 1.15761e-05 -0.0962258)
(0.000491426 -2.37835e-06 -0.0882578)
(0.000429648 -1.63287e-05 -0.0798503)
(0.000359709 -2.78913e-05 -0.0710837)
(0.000280632 -3.37809e-05 -0.0620535)
(0.000670451 -6.60469e-05 -0.116938)
(0.000562073 -8.83809e-05 -0.110587)
(0.00055933 -0.000122342 -0.103666)
(0.000515155 -0.000150118 -0.0961997)
(0.000476899 -0.000176546 -0.0882312)
(0.000429513 -0.000199593 -0.0798235)
(0.000373385 -0.000219643 -0.0710576)
(0.000303719 -0.00023677 -0.0620295)
(0.000687264 -0.000155278 -0.093752)
(0.000679951 -0.000189463 -0.0900132)
(0.000663271 -0.000224617 -0.0857669)
(0.000636952 -0.000260784 -0.0809797)
(0.000597293 -0.000296929 -0.0756255)
(0.000542444 -0.000332909 -0.0696926)
(0.000472005 -0.000369249 -0.063186)
(0.000380778 -0.000405571 -0.0561278)
(0.000744884 -0.000263298 -0.063681)
(0.000660336 -0.000268909 -0.0627161)
(0.00066011 -0.000307539 -0.0614105)
(0.000617877 -0.000342339 -0.0596846)
(0.000579405 -0.00038739 -0.0574484)
(0.000528365 -0.000437459 -0.0546085)
(0.000466978 -0.000493145 -0.0510723)
(0.000382266 -0.000548601 -0.0467504)
(0.000762278 -0.000404493 -0.0397648)
(0.000698542 -0.000425396 -0.0402808)
(0.000684553 -0.00047893 -0.040656)
(0.000643022 -0.00052354 -0.0408118)
(0.000601995 -0.000574703 -0.0406451)
(0.000549831 -0.000626571 -0.0400304)
(0.000489049 -0.000681527 -0.0388172)
(0.000399613 -0.000727418 -0.0368274)
(0.000742553 -0.000525214 -0.0244674)
(0.000691771 -0.000548985 -0.0254224)
(0.000674924 -0.000605433 -0.026381)
(0.000635935 -0.000654389 -0.027293)
(0.000594493 -0.000709664 -0.0280787)
(0.000541727 -0.000764094 -0.0286257)
(0.000482452 -0.000819673 -0.0287769)
(0.000387396 -0.000852461 -0.0283086)
(0.000719351 -0.000666812 -0.0154893)
(0.000677223 -0.000696632 -0.0164767)
(0.000654076 -0.000753477 -0.0175438)
(0.000616755 -0.000803614 -0.0186597)
(0.000576168 -0.000857636 -0.0197837)
(0.00052635 -0.000908994 -0.0208418)
(0.00047234 -0.000958729 -0.0217071)
(0.000382909 -0.000986282 -0.0221319)
(7.94563e-07 4.04756e-05 -0.0155172)
(-0.000105481 1.07161e-05 -0.0165456)
(-0.00013323 5.89582e-05 -0.0176602)
(-0.000194076 7.74459e-05 -0.0188401)
(-0.000244254 0.000106351 -0.0200422)
(-0.000296639 0.000132432 -0.0211919)
(-0.000341199 0.000160652 -0.0221582)
(-0.000409724 0.000173985 -0.0226863)
(-5.47137e-05 -2.16907e-05 -0.0246512)
(-0.000153433 -5.20774e-05 -0.0256655)
(-0.000165148 -1.98217e-05 -0.0266901)