/*--------------------------------*- C++ -*----------------------------------*\
| =========                 |                                                 |
| \\      /  F ield         | foam-extend: Open Source CFD                    |
|  \\    /   O peration     | Version:  3.0                                   |
|   \\  /    A nd           | Web:         http://www.extend-project.de       |
|    \\/     M anipulation  |                                                 |
\*---------------------------------------------------------------------------*/
FoamFile
{
    version     2.0;
    format      ascii;
    class       volSymmTensorField;
    location    "7";
    object      sigma;
}
// * * * * * * * * * * * * * * * * * * * * * * * * * * * * * * * * * * * * * //

dimensions      [0 0 0 0 0 0 0];

internalField   nonuniform List<symmTensor> 
224
(
(-0.149478 -0.0180881 -9.21459e-20 0.148488 6.8547e-20 0.000989922)
(-0.123683 -0.0191382 -1.52757e-19 0.121421 1.7977e-19 0.00226189)
(-0.0945095 -0.0168365 1.96241e-21 0.0913251 1.42938e-19 0.0031844)
(-0.0681446 -0.0139906 1.54846e-19 0.0644198 -5.80292e-19 0.00372477)
(-0.0456523 -0.0113347 2.03567e-19 0.0418852 -2.31876e-19 0.00376717)
(-0.0282801 -0.00947582 1.48989e-20 0.02518 -5.13548e-19 0.0031001)
(-0.01592 -0.00835639 -4.78937e-20 0.0145099 6.92147e-21 0.0014101)
(-0.138804 -0.0520182 -4.9282e-20 0.137856 1.48813e-19 0.000948652)
(-0.108667 -0.0535245 -2.68105e-20 0.106499 2.62024e-19 0.00216765)
(-0.0797173 -0.0464304 -2.94167e-19 0.0766655 -7.30882e-21 0.0030517)
(-0.0546979 -0.0380867 -1.24788e-18 0.0511285 -1.55877e-19 0.00356942)
(-0.0337238 -0.0303898 3.3632e-19 0.030114 -3.0018e-19 0.00360977)
(-0.0173062 -0.0249246 5.55494e-19 0.0143361 -1.53023e-18 0.00297017)
(-0.00545577 -0.0215127 -1.93973e-20 0.00410507 -6.34602e-19 0.0013507)
(-0.119531 -0.0799806 9.42021e-21 0.11866 3.6732e-20 0.000870947)
(-0.0826733 -0.0775782 8.71091e-20 0.0806831 1.14158e-19 0.00199019)
(-0.0544702 -0.0652443 8.5986e-20 0.0516684 -1.43273e-19 0.00280187)
(-0.0319862 -0.0519989 -6.03095e-19 0.0287091 1.36678e-19 0.00327708)
(-0.0137809 -0.0400948 -1.01038e-18 0.010467 -9.9325e-19 0.00331385)
(0.000846543 -0.0314766 -3.32333e-18 -0.00357282 -1.02244e-18 0.00272628)
(0.0116837 -0.0259462 -3.72171e-19 -0.0129231 5.84407e-19 0.00123946)
(-0.0951491 -0.0997567 4.32564e-20 0.0943893 -2.93795e-20 0.000759794)
(-0.0524435 -0.0879936 5.15978e-20 0.0507072 -2.97027e-20 0.00173628)
(-0.0259812 -0.0699686 -9.09856e-20 0.0235368 -2.41477e-19 0.00244441)
(-0.0069335 -0.0526877 -6.60458e-19 0.00407464 -1.05212e-19 0.00285887)
(0.0077323 -0.0377291 -1.21712e-18 -0.010623 -1.93398e-19 0.00289065)
(0.0199722 -0.0266061 -2.16913e-18 -0.0223499 1.9901e-18 0.00237769)
(0.0293644 -0.019235 8.87187e-19 -0.030445 4.64813e-19 0.00108064)
(-0.0695219 -0.111163 3.78423e-20 0.0689025 -1.72278e-20 0.000619437)
(-0.0252372 -0.0855803 2.06648e-20 0.0238215 -2.10286e-20 0.00141565)
(-0.0019725 -0.0617397 -1.97754e-19 -2.05234e-05 -6.49759e-20 0.00199303)
(0.0130743 -0.0414065 -6.84131e-19 -0.0154052 1.4409e-19 0.00233083)
(0.0239647 -0.0245878 -8.82431e-19 -0.0263211 9.75428e-19 0.00235642)
(0.0334927 -0.0116724 1.59703e-18 -0.0354305 1.37095e-18 0.0019378)
(0.0411042 -0.00280692 6.26742e-19 -0.0419845 -8.93482e-19 0.000880321)
(-0.0457476 -0.115863 -2.98279e-20 0.0452924 5.47383e-20 0.000455268)
(-0.00649829 -0.0748253 5.5077e-20 0.00545769 1.97043e-20 0.0010406)
(0.0118555 -0.0456519 -1.21905e-19 -0.0133205 3.81247e-20 0.00146504)
(0.0226402 -0.0232221 -1.1663e-19 -0.0243534 9.34375e-20 0.00171322)
(0.0299535 -0.00552424 -8.89079e-19 -0.0316851 9.69643e-19 0.00173165)
(0.036684 0.00852929 2.33119e-18 -0.0381075 -8.0859e-20 0.00142347)
(0.0422798 0.0185114 -1.73235e-18 -0.042926 -1.17474e-19 0.000646194)
(-0.0253306 -0.116603 6.82589e-20 0.025057 1.3836e-20 0.000273579)
(0.00183668 -0.062239 2.39132e-19 -0.00246218 -7.24467e-20 0.000625508)
(0.0136535 -0.0289505 -5.00655e-19 -0.0145342 -2.78456e-20 0.000880684)
(0.0201232 -0.00525653 -1.31769e-18 -0.0211529 2.90391e-19 0.00102969)
(0.0242781 0.0127036 -9.40813e-19 -0.0253183 1.0033e-18 0.00104027)
(0.0282743 0.0273779 1.18198e-18 -0.0291287 3.72166e-19 0.000854393)
(0.0317069 0.0380947 5.58765e-19 -0.0320941 -3.82964e-20 0.000387225)
(-0.00792206 -0.116115 1.41884e-20 0.00784071 6.6144e-21 8.13515e-05)
(0.00182353 -0.0540512 -1.73521e-19 -0.00200984 -1.17911e-20 0.00018631)
(0.00593869 -0.0185192 -2.77492e-19 -0.00620107 1.0788e-19 0.000262387)
(0.00812985 0.00575314 -4.45094e-19 -0.00843632 3.48192e-19 0.000306477)
(0.00951415 0.0237255 -4.64079e-19 -0.00982295 7.23953e-19 0.000308802)
(0.0108791 0.0386534 5.55498e-19 -0.0111315 4.16386e-19 0.000252394)
(0.0120712 0.0497321 2.85611e-19 -0.0121845 -7.27992e-20 0.000113339)
(0.00828663 -0.116086 6.62468e-21 -0.00817259 8.99773e-21 -0.000114038)
(-0.00136901 -0.0540342 -1.76973e-19 0.00162915 1.35564e-20 -0.000260139)
(-0.00537457 -0.0185114 -2.82014e-20 0.00574069 2.59599e-19 -0.000366127)
(-0.00743302 0.00575151 -3.5293e-19 0.0078617 3.66465e-19 -0.00042868)
(-0.00866142 0.0237151 -1.61253e-19 0.00909613 4.81735e-19 -0.000434709)
(-0.00987536 0.0386287 -9.12571e-20 0.0102348 2.76572e-19 -0.000359459)
(-0.0109482 0.0497048 1.6463e-19 0.0111131 -1.47461e-20 -0.000164972)
(0.0256618 -0.116528 2.76851e-20 -0.0253567 5.41195e-21 -0.000305078)
(-0.00139964 -0.0621925 1.13905e-19 0.00209632 3.23077e-20 -0.000696677)
(-0.013096 -0.0289266 4.16972e-19 0.0140767 3.85866e-19 -0.000980701)
(-0.0194226 -0.00525596 -1.19372e-18 0.0205702 3.36684e-19 -0.00114753)
(-0.023413 0.0126817 -2.28903e-19 0.0245747 3.71776e-19 -0.00116168)
(-0.0272422 0.0273204 -4.2008e-19 0.0281998 8.86352e-20 -0.000957646)
(-0.0305555 0.0380281 2.01552e-19 0.0309925 -3.39477e-20 -0.000437004)
(0.0460289 -0.115771 9.94379e-20 -0.0455445 2.21695e-20 -0.000484426)
(0.00690582 -0.0747605 1.46484e-19 -0.00579929 -2.52541e-20 -0.00110652)
(-0.0113129 -0.0456109 4.9467e-19 0.0128707 1.16903e-19 -0.00155771)
(-0.0219405 -0.0232066 3.46169e-19 0.0237629 3.03677e-19 -0.00182242)
(-0.0290772 -0.00553461 3.5342e-19 0.0309213 7.88607e-19 -0.00184417)
(-0.0356179 0.00847935 -2.03423e-18 0.0371371 7.10634e-19 -0.00151917)
(-0.0410903 0.0184452 -2.88703e-19 0.0417826 -8.22265e-20 -0.000692311)
(0.0697601 -0.111083 -9.42068e-21 -0.0691149 -6.6199e-20 -0.000645177)
(0.0256116 -0.0855109 1.85615e-20 -0.0241377 -8.51752e-20 -0.0014739)
(0.00249032 -0.0616827 5.284e-20 -0.000415398 -1.21778e-19 -0.00207492)
(-0.0123907 -0.0413646 1.0283e-19 0.0148181 -9.96921e-20 -0.00242736)
(-0.0230963 -0.0245639 4.03064e-19 0.0255522 -3.33737e-19 -0.00245586)
(-0.032419 -0.0116732 1.61588e-18 0.0344414 8.09696e-19 -0.00202237)
(-0.0398973 -0.00282652 1.29845e-18 0.0408183 5.2511e-19 -0.00092103)
(0.0953679 -0.0997053 -3.0265e-20 -0.0945868 -1.07471e-19 -0.000781146)
(0.0527889 -0.0879295 -2.57637e-20 -0.0510042 -1.12034e-19 -0.00178465)
(0.0264653 -0.0699005 -6.43824e-20 -0.0239529 -2.51068e-19 -0.00251242)
(0.00757966 -0.0526179 5.63728e-20 -0.00464063 -3.35027e-19 -0.00293903)
(-0.0069037 -0.0376619 7.06965e-19 0.00987687 -1.44974e-18 -0.00297317)
(-0.0189398 -0.0265377 3.76097e-18 0.0213877 8.29505e-20 -0.00244784)
(-0.0281864 -0.0191757 -9.7572e-19 0.0293007 -4.82214e-19 -0.00111434)
(0.119755 -0.0799496 -1.01846e-20 -0.118868 -9.7288e-20 -0.000887094)
(0.0829973 -0.0775231 -5.55039e-20 -0.0809705 -9.14542e-20 -0.00202682)
(0.0549153 -0.0651729 -2.56534e-19 -0.052062 -4.11572e-19 -0.00285334)
(0.0325765 -0.0519116 -1.02791e-19 -0.0292388 -7.20484e-19 -0.00333771)
(0.0145389 -0.0399941 3.58417e-19 -0.0111628 -1.24415e-18 -0.00337615)
(9.41533e-05 -0.0313504 1.87523e-18 0.00268499 -8.21765e-19 -0.00277915)
(-0.0105939 -0.0258047 -1.54854e-18 0.0118587 2.83933e-19 -0.00126478)
(0.139044 -0.0519847 -9.5829e-21 -0.138085 -2.5985e-20 -0.00095894)
(0.108976 -0.0534749 -1.53063e-19 -0.106785 -7.751e-20 -0.00219105)
(0.0801236 -0.0463636 -7.96615e-19 -0.0770391 -3.39255e-20 -0.00308454)
(0.0552252 -0.037999 -9.32273e-19 -0.0516171 -3.2938e-19 -0.00360802)
(0.0343946 -0.0302796 6.03352e-19 -0.0307453 -5.78997e-19 -0.00364926)
(0.0181261 -0.0247761 1.52303e-18 -0.0151226 -1.28115e-18 -0.00300353)
(0.00640944 -0.021318 9.06856e-19 -0.00504288 9.18491e-19 -0.00136656)
(0.149722 -0.0180292 -9.00092e-20 -0.148728 -2.30007e-20 -0.000993921)
(0.123978 -0.0190872 -2.29851e-19 -0.121707 -9.63831e-20 -0.00227105)
(0.0948822 -0.0167786 -8.43803e-20 -0.0916851 2.49052e-19 -0.00319714)
(0.0686147 -0.0139178 1.79533e-19 -0.0648751 2.99735e-19 -0.00373958)
(0.0462391 -0.0112397 3.58728e-19 -0.0424571 9.18325e-22 -0.00378203)
(0.0289807 -0.00934479 5.69155e-19 -0.0258683 -8.73957e-19 -0.0031124)
(0.0167201 -0.00815737 6.76003e-22 -0.0153043 -4.15945e-19 -0.00141577)
(0.149711 0.0181194 -9.20869e-20 -0.14872 6.88578e-20 -0.000990691)
(0.12397 0.0191477 -1.52767e-19 -0.121706 1.80281e-19 -0.00226373)
(0.0948709 0.0168312 1.98333e-21 -0.0916841 1.43716e-19 -0.00318682)
(0.0685977 0.0139704 1.54546e-19 -0.0648704 -5.78257e-19 -0.00372735)
(0.0462138 0.0112976 2.03235e-19 -0.0424444 -2.3068e-19 -0.00376937)
(0.0289456 0.00941319 1.46232e-20 -0.025844 -5.11519e-19 -0.00310157)
(0.0166707 0.00825925 -4.75252e-20 -0.0152602 7.47637e-21 -0.00141055)
(0.139011 0.0520726 -4.9233e-20 -0.138061 1.49046e-19 -0.000949382)
(0.108949 0.0535397 -2.67007e-20 -0.10678 2.62473e-19 -0.00216939)
(0.0800882 0.0464213 -2.93104e-19 -0.0770342 -6.11801e-21 -0.00305399)
(0.0551733 0.0380556 -1.24685e-18 -0.0516015 -1.54833e-19 -0.00357185)
(0.0343192 0.0303381 3.35682e-19 -0.0307074 -2.98292e-19 -0.00361184)
(0.0180231 0.0248412 5.54108e-19 -0.0150515 -1.52523e-18 -0.00297155)
(0.00627038 0.0214014 -1.88866e-20 -0.00491926 -6.32296e-19 -0.00135112)
(0.1197 0.0800333 9.47113e-21 -0.118828 3.69297e-20 -0.000871587)
(0.0829484 0.0775941 8.72169e-20 -0.0809567 1.14653e-19 -0.00199168)
(0.0548519 0.0652384 8.66613e-20 -0.0520481 -1.4198e-19 -0.0028038)
(0.0324879 0.0519743 -6.01383e-19 -0.0292088 1.37746e-19 -0.00327909)
(0.0144157 0.0400538 -1.00648e-18 -0.0111002 -9.89073e-19 -0.00331552)
(-7.04889e-05 0.03141 -3.32003e-18 0.00279785 -1.01864e-18 -0.00272737)
(-0.0108004 0.0258628 -3.74164e-19 0.0120402 5.83478e-19 -0.00123979)
(0.095292 0.0997824 4.3376e-20 -0.0945317 -2.92037e-20 -0.000760306)
(0.052713 0.088005 5.19097e-20 -0.0509756 -2.91998e-20 -0.00173744)
(0.0263698 0.0699724 -9.01451e-20 -0.0239239 -2.40294e-19 -0.0024459)
(0.00745288 0.0526857 -6.58727e-19 -0.00459249 -1.0379e-19 -0.00286039)
(-0.00707099 0.0377228 -1.21352e-18 0.00996288 -1.9068e-19 -0.00289189)
(-0.0191562 0.0265919 -2.16712e-18 0.0215347 1.98989e-18 -0.00237847)
(-0.0284362 0.0192173 8.88292e-19 0.0295171 4.64127e-19 -0.00108087)
(0.0696635 0.11115 3.80703e-20 -0.0690437 -1.71182e-20 -0.000619819)
(0.0255061 0.085585 2.12264e-20 -0.0240896 -2.07118e-20 -0.00141647)
(0.00236084 0.061756 -1.96504e-19 -0.000366781 -6.42906e-20 -0.00199406)
(-0.0125549 0.0414341 -6.82009e-19 0.0148867 1.45021e-19 -0.00233184)
(-0.0233029 0.0246262 -8.77705e-19 0.0256601 9.77783e-19 -0.00235722)
(-0.0326758 0.0117256 1.5976e-18 0.0346141 1.37362e-18 -0.00193828)
(-0.0401757 0.00287031 6.27386e-19 0.0410562 -8.9471e-19 -0.000880465)
(0.0459136 0.115823 -2.94979e-20 -0.0454581 5.47744e-20 -0.000455532)
(0.00677159 0.0748251 5.58172e-20 -0.00573048 1.97379e-20 -0.00104112)
(-0.0114747 0.0456781 -1.20256e-19 0.0129403 3.81603e-20 -0.00146566)
(-0.0221385 0.023273 -1.13989e-19 0.0238522 9.3375e-20 -0.00171376)
(-0.0293177 0.00559821 -8.84424e-19 0.0310497 9.71904e-19 -0.00173207)
(-0.0359055 -0.00842239 2.33215e-18 0.0373292 -7.9863e-20 -0.0014237)
(-0.0413945 -0.0183818 -1.7333e-18 0.0420408 -1.16591e-19 -0.000646274)
(0.0255327 0.116559 6.86758e-20 -0.025259 1.38223e-20 -0.000273754)
(-0.00155683 0.062239 2.3993e-19 0.00218261 -7.27319e-20 -0.000625787)
(-0.0132841 0.0289801 -4.99537e-19 0.0141651 -2.85839e-20 -0.00088098)
(-0.0196484 0.00531447 -1.31563e-18 0.0206782 2.90003e-19 -0.00102988)
(-0.0236821 -0.0126178 -9.38117e-19 0.0247225 1.00635e-18 -0.00104039)
(-0.027555 -0.0272525 1.18532e-18 0.0284095 3.75894e-19 -0.000854431)
(-0.0308894 -0.037937 5.56372e-19 0.0312767 -3.80022e-20 -0.000387249)
(0.0081521 0.116092 1.46305e-20 -0.00807062 6.5721e-21 -8.14749e-05)
(-0.00153925 0.0540565 -1.72601e-19 0.00172571 -1.18167e-20 -0.000186452)
(-0.00557959 0.0185452 -2.76859e-19 0.00584209 1.0805e-19 -0.000262495)
(-0.00767857 -0.00570544 -4.44708e-19 0.00798504 3.48732e-19 -0.000306465)
(-0.00895358 -0.0236536 -4.63359e-19 0.00926233 7.25655e-19 -0.00030875)
(-0.0102126 -0.0385478 5.58186e-19 0.0104649 4.18199e-19 -0.000252313)
(-0.0113168 -0.0495878 2.87101e-19 0.0114302 -7.30131e-20 -0.000113328)
(-0.00805187 0.116096 6.99271e-21 0.00793794 8.97428e-21 0.000113923)
(0.00165261 0.0540468 -1.76263e-19 -0.00191262 1.36535e-20 0.000260018)
(0.00572848 0.0185297 -2.72343e-20 -0.00609454 2.59671e-19 0.000366052)
(0.00787409 -0.00572382 -3.50688e-19 -0.00830282 3.66933e-19 0.00042873)
(0.00920557 -0.0236719 -1.59883e-19 -0.00964037 4.8225e-19 0.000434796)
(0.010517 -0.0385656 -8.90677e-20 -0.0108765 2.77283e-19 0.000359568)
(0.0116648 -0.0496003 1.65039e-19 -0.0118298 -1.4452e-20 0.000164996)
(-0.0254465 0.116564 2.79613e-20 0.0251416 5.40319e-21 0.000304926)
(0.00167749 0.0622101 1.14444e-19 -0.00237395 3.22874e-20 0.00069646)
(0.0134508 0.0289375 4.18125e-19 -0.0144313 3.84922e-19 0.000980499)
(0.0198686 0.00526548 -1.19178e-18 -0.0210161 3.3612e-19 0.00114744)
(0.0239624 -0.0126655 -2.26774e-19 -0.0251241 3.72596e-19 0.00116166)
(0.0278907 -0.0272978 -4.15269e-19 -0.0288484 9.04894e-20 0.000957689)
(0.0312642 -0.037967 2.03114e-19 -0.0317012 -3.39133e-20 0.000437017)
(-0.0458443 0.115811 9.96392e-20 0.0453601 2.21485e-20 0.000484197)
(-0.00663568 0.0747779 1.47004e-19 0.00552958 -2.52729e-20 0.0011061)
(0.0116722 0.0456183 4.95788e-19 -0.0132294 1.16327e-19 0.00155723)
(0.0223998 0.0232088 3.47221e-19 -0.0242219 3.0223e-19 0.00182203)
(0.0296441 0.00553859 3.57342e-19 -0.031488 7.84909e-19 0.00184389)
(0.0362916 -0.00847614 -2.02811e-18 -0.0378107 7.09209e-19 0.00151904)
(0.04181 -0.0184143 -2.88538e-19 -0.0425023 -7.8981e-20 0.000692271)
(-0.0695982 0.111104 -9.23115e-21 0.0689533 -6.62723e-20 0.000644842)
(-0.0253468 0.0855226 1.90939e-20 0.0238736 -8.53658e-20 0.00147319)
(-0.0021269 0.061691 5.40112e-20 5.28428e-05 -1.22376e-19 0.00207406)
(0.0128613 0.0413717 1.04319e-19 -0.0152878 -1.00938e-19 0.00242654)
(0.0236782 0.0245726 4.05849e-19 -0.0261335 -3.36464e-19 0.00245521)
(0.0331141 0.0116817 1.61629e-18 -0.0351361 8.08712e-19 0.00202198)
(0.0406298 0.0028453 1.29612e-18 -0.0415507 5.23125e-19 0.000920907)
(-0.0952066 0.0996965 -3.01425e-20 0.0944259 -1.07643e-19 0.000780686)
(-0.0525238 0.0879332 -2.54191e-20 0.0507402 -1.12453e-19 0.00178362)
(-0.0261012 0.0699118 -6.36601e-20 0.0235901 -2.52009e-19 0.00251111)
(-0.00710805 0.0526353 5.74233e-20 0.00417034 -3.36582e-19 0.00293772)
(0.00748684 0.037683 7.09666e-19 -0.0104589 -1.45338e-18 0.00297209)
(0.0196362 0.026563 3.76196e-18 -0.0220833 8.07089e-20 0.00244714)
(0.0289205 0.0191921 -9.77757e-19 -0.0300346 -4.82906e-19 0.00111412)
(-0.119571 0.07992 -1.01324e-20 0.118685 -9.7545e-20 0.000886509)
(-0.0827264 0.0775208 -5.54593e-20 0.0807009 -9.20581e-20 0.00202545)
(-0.054554 0.0651854 -2.56474e-19 0.0517024 -4.12897e-19 0.00285158)
(-0.0321143 0.0519346 -1.02894e-19 0.0287784 -7.22746e-19 0.00333588)
(-0.0139689 0.0400212 3.61043e-19 0.0105943 -1.24768e-18 0.00337463)
(0.000582461 0.0313833 1.87475e-18 -0.00336061 -8.24332e-19 0.00277815)
(0.0113162 0.0258131 -1.54702e-18 -0.0125807 2.87603e-19 0.00126447)
(-0.138829 0.0519571 -9.60661e-21 0.137871 -2.63578e-20 0.000958245)
(-0.108697 0.053472 -1.53397e-19 0.106507 -7.82342e-20 0.00218941)
(-0.0797661 0.046373 -7.97347e-19 0.0766837 -3.45401e-20 0.0030824)
(-0.0547757 0.038016 -9.32486e-19 0.0511699 -3.30288e-19 0.00360576)
(-0.0338418 0.0302965 6.06638e-19 0.0301944 -5.8062e-19 0.00364737)
(-0.0174747 0.0247931 1.52608e-18 0.0144724 -1.28493e-18 0.0030023)
(-0.00569989 0.0213013 9.06069e-19 0.0043337 9.19784e-19 0.00136619)
(-0.149486 0.0180265 -9.00754e-20 0.148493 -2.33808e-20 0.000993147)
(-0.123692 0.0190892 -2.29937e-19 0.121423 -9.70907e-20 0.00226921)
(-0.0945255 0.0167809 -8.42965e-20 0.0913307 2.48741e-19 0.00319472)
(-0.0681706 0.0139175 1.79976e-19 0.0644335 2.99733e-19 0.00373701)
(-0.0456925 0.0112311 3.60414e-19 0.0419126 7.09274e-22 0.00377986)
(-0.0283379 0.00932391 5.70588e-19 0.0252269 -8.76867e-19 0.00311097)
(-0.0160055 0.00810001 -2.90696e-22 0.0145901 -4.17588e-19 0.00141535)
)
;

boundaryField
{
    out
    {
        type            mySigma;
    }
    in
    {
        type            mySigma;
    }
    frontAndBack
    {
        type            empty;
    }
}


// ************************************************************************* //
