/*--------------------------------*- C++ -*----------------------------------*\
| =========                 |                                                 |
| \\      /  F ield         | foam-extend: Open Source CFD                    |
|  \\    /   O peration     | Version:  3.0                                   |
|   \\  /    A nd           | Web:         http://www.extend-project.de       |
|    \\/     M anipulation  |                                                 |
\*---------------------------------------------------------------------------*/
FoamFile
{
    version     2.0;
    format      ascii;
    class       volVectorField;
    location    "4";
    object      u;
}
// * * * * * * * * * * * * * * * * * * * * * * * * * * * * * * * * * * * * * //

dimensions      [0 0 0 0 0 0 0];

internalField   nonuniform List<vector> 
224
(
(0.37436 -0.129731 2.55798e-18)
(0.642288 -0.0780069 7.36064e-18)
(0.826911 -0.0476339 -2.99754e-18)
(0.892661 -0.0292161 -6.17993e-18)
(0.972701 -0.0143509 -5.94869e-18)
(0.971677 -0.00636826 2.31521e-18)
(1.01998 0.00623129 -1.3252e-18)
(0.474979 -0.373511 1.54865e-18)
(0.703296 -0.225924 9.69991e-20)
(0.864725 -0.139428 -1.19345e-17)
(0.916443 -0.0870986 3.42719e-17)
(0.985178 -0.0448519 -5.90268e-18)
(0.978048 -0.0222525 -1.53916e-17)
(1.01648 0.0142305 -1.63142e-17)
(0.661247 -0.560228 -5.57675e-18)
(0.816258 -0.339234 -3.25643e-18)
(0.934721 -0.209793 -1.4712e-17)
(0.960427 -0.131556 -4.2128e-18)
(1.00814 -0.0683673 -1.93984e-17)
(0.989708 -0.0345715 5.76646e-17)
(1.0099 0.0203239 1.38148e-17)
(0.904823 -0.661471 -2.77139e-18)
(0.963969 -0.400668 -1.94336e-18)
(1.02625 -0.247958 -4.22034e-18)
(1.018 -0.155677 4.92946e-19)
(1.0383 -0.0811793 -9.5844e-19)
(1.00531 -0.0414194 2.6516e-17)
(1.00175 0.023197 -3.41111e-17)
(1.16861 -0.661807 -7.95152e-19)
(1.12391 -0.4009 -1.02808e-18)
(1.12537 -0.248233 -1.86279e-18)
(1.08039 -0.15602 3.05803e-19)
(1.07101 -0.0816269 1.1151e-17)
(1.0222 -0.0418139 -3.34432e-17)
(0.992669 0.022917 -2.37047e-18)
(1.41247 -0.561188 1.94333e-18)
(1.27168 -0.339901 -7.56295e-19)
(1.21687 -0.210545 -2.39823e-18)
(1.13786 -0.132481 -8.32198e-18)
(1.10111 -0.069622 1.11494e-17)
(1.03779 -0.0359615 -3.28611e-17)
(0.984829 0.0186481 3.48594e-17)
(1.59924 -0.374921 -3.76546e-19)
(1.38478 -0.226981 -3.20095e-18)
(1.28686 -0.140668 3.31103e-18)
(1.18183 -0.0886425 8.53602e-18)
(1.12423 -0.0468761 7.68163e-18)
(1.04983 -0.0243899 -1.31708e-17)
(0.979403 0.0117058 -3.38369e-18)
(1.70052 -0.131374 6.22176e-20)
(1.44598 -0.0793763 -1.5931e-19)
(1.32466 -0.0492918 3.41307e-18)
(1.20552 -0.0312747 3.10725e-18)
(1.13678 -0.0169735 5.03977e-18)
(1.05646 -0.00909255 -5.65041e-18)
(0.977432 0.00322005 -1.87035e-18)
(1.70086 0.132367 8.24286e-19)
(1.44599 0.0804173 5.24172e-19)
(1.32453 0.0496571 4.00611e-18)
(1.20533 0.0309097 -1.59896e-18)
(1.1368 0.0156476 2.47728e-18)
(1.0566 0.00775245 -3.84458e-18)
(0.979021 -0.00513775 3.11275e-19)
(1.60024 0.376154 1.73122e-18)
(1.38484 0.228075 2.15437e-18)
(1.28653 0.141123 6.61154e-18)
(1.18133 0.0884349 -1.03299e-17)
(1.12429 0.0460155 3.08647e-18)
(1.05023 0.0235582 -4.9317e-18)
(0.983575 -0.0120276 3.89505e-18)
(1.41399 0.562854 3.88323e-18)
(1.27186 0.341112 2.42192e-18)
(1.21643 0.211164 6.75029e-18)
(1.13715 0.132528 4.76527e-18)
(1.10105 0.0694603 8.50966e-18)
(1.03824 0.0358704 -3.19933e-17)
(0.990109 -0.0165971 -3.7683e-18)
(1.17046 0.66406 5.19999e-19)
(1.12427 0.40237 2.28721e-19)
(1.12494 0.249176 -9.42675e-19)
(1.07954 0.156531 -1.717e-18)
(1.07064 0.0824075 -5.74751e-18)
(1.02246 0.0427947 3.72551e-18)
(0.997507 -0.0184809 3.08683e-17)
(0.906735 0.664348 -1.82141e-18)
(0.964533 0.402529 -3.01805e-19)
(1.02596 0.24936 -1.8486e-18)
(1.01725 0.156774 -1.03691e-18)
(1.03768 0.0828048 -1.89453e-17)
(1.00529 0.043205 6.12104e-17)
(1.00478 -0.017745 -9.41407e-18)
(0.662964 0.563671 -4.94161e-18)
(0.816937 0.341595 8.98081e-19)
(0.934543 0.211737 -1.5502e-18)
(0.959767 0.13327 9.49633e-18)
(1.00726 0.0706151 -2.3254e-17)
(0.989426 0.0370386 4.97551e-17)
(1.01115 -0.014704 -6.37242e-17)
(0.476271 0.37735 8.26351e-19)
(0.703933 0.228834 7.53198e-18)
(0.864588 0.142015 -1.13117e-17)
(0.915791 0.0895721 -2.69526e-17)
(0.984012 0.0476805 -1.48139e-17)
(0.977281 0.0252522 1.43684e-17)
(1.01605 -0.00966714 2.65658e-17)
(0.375072 0.133723 -2.04203e-18)
(0.6427 0.0813933 -6.37622e-18)
(0.826723 0.0508268 -3.94565e-19)
(0.892038 0.0323796 6.70284e-18)
(0.971544 0.0176013 -1.01475e-18)
(0.9708 0.00967067 8.75839e-18)
(1.01891 -0.00320579 -7.49633e-19)
(0.374793 -0.130113 -2.55522e-18)
(0.642558 -0.0783068 -7.34562e-18)
(0.826698 -0.0479964 2.96715e-18)
(0.892083 -0.0296825 6.13386e-18)
(0.971691 -0.015093 5.90244e-18)
(0.970912 -0.00730547 -2.29126e-18)
(1.0192 0.00425243 1.30863e-18)
(0.475487 -0.374014 -1.54755e-18)
(0.703538 -0.225981 -9.87051e-20)
(0.864503 -0.139398 1.18772e-17)
(0.915886 -0.0871009 -3.4086e-17)
(0.984338 -0.045308 5.86119e-18)
(0.977489 -0.0230414 1.52844e-17)
(1.01649 0.0114737 1.62102e-17)
(0.661825 -0.560817 5.57294e-18)
(0.816379 -0.33914 3.24581e-18)
(0.93442 -0.209482 1.46457e-17)
(0.959882 -0.131192 4.17205e-18)
(1.0076 -0.0685301 1.92432e-17)
(0.98959 -0.0351787 -5.72529e-17)
(1.01102 0.0172536 -1.36393e-17)
(0.905449 -0.662101 2.76953e-18)
(0.96394 -0.400564 1.93959e-18)
(1.02583 -0.247569 4.20127e-18)
(1.01738 -0.155195 -4.93855e-19)
(1.03791 -0.081182 8.94432e-19)
(1.00533 -0.0418326 -2.64156e-17)
(1.0036 0.0204719 3.38766e-17)
(1.16924 -0.662423 7.94184e-19)
(1.12377 -0.400868 1.02879e-18)
(1.12487 -0.247839 1.85576e-18)
(1.07971 -0.155463 -2.99493e-19)
(1.07077 -0.0813887 -1.12413e-17)
(1.02242 -0.0420469 3.36345e-17)
(0.995513 0.0205035 2.40617e-18)
(1.41306 -0.561754 -1.94527e-18)
(1.27155 -0.339997 7.62916e-19)
(1.21648 -0.21022 2.39738e-18)
(1.13739 -0.13189 8.37585e-18)
(1.10117 -0.0690463 -1.13149e-17)
(1.03826 -0.0357241 3.32052e-17)
(0.988089 0.0173773 -3.53044e-17)
(1.59975 -0.375416 3.75115e-19)
(1.38479 -0.227189 3.21965e-18)
(1.28673 -0.14041 -3.35891e-18)
(1.1817 -0.0880559 -8.69523e-18)
(1.12459 -0.0460339 -7.86226e-18)
(1.05053 -0.0238415 1.32404e-17)
(0.982536 0.0116265 3.62987e-18)
(1.70092 -0.131794 -7.21212e-20)
(1.44624 -0.079609 1.39689e-19)
(1.32493 -0.0490081 -3.41215e-18)
(1.20585 -0.0305858 -3.07089e-18)
(1.13741 -0.015797 -5.08369e-18)
(1.05732 -0.00815167 5.70672e-18)
(0.979675 0.00420176 1.89223e-18)
(1.70114 0.13202 -8.3797e-19)
(1.44653 0.0802811 -5.5076e-19)
(1.32525 0.0500803 -3.98889e-18)
(1.2062 0.0317771 1.63518e-18)
(1.13773 0.0170718 -2.44163e-18)
(1.05765 0.00896812 3.8004e-18)
(0.979923 -0.0037264 -3.01111e-19)
(1.6004 0.375867 -1.74338e-18)
(1.38562 0.22815 -2.16456e-18)
(1.28763 0.141784 -6.56906e-18)
(1.18265 0.0895542 1.01297e-17)
(1.12542 0.0475807 -3.05398e-18)
(1.05138 0.0249246 5.03004e-18)
(0.983193 -0.010937 -3.78637e-18)
(1.41403 0.562629 -3.89013e-18)
(1.27276 0.341471 -2.42242e-18)
(1.21777 0.21212 -6.695e-18)
(1.13879 0.133933 -4.74008e-18)
(1.10241 0.0710786 -8.36806e-18)
(1.03952 0.0372918 3.15309e-17)
(0.988957 -0.0163406 3.59349e-18)
(1.17039 0.663896 -5.28823e-19)
(1.12512 0.403004 -2.35402e-19)
(1.12632 0.250386 9.53031e-19)
(1.08128 0.158153 1.71009e-18)
(1.07214 0.0839714 5.81393e-18)
(1.02381 0.0441726 -3.86241e-18)
(0.996328 -0.0191418 -3.06199e-17)
(0.906587 0.664257 1.8117e-18)
(0.965197 0.403357 2.90274e-19)
(1.0272 0.25072 1.84554e-18)
(1.01891 0.158496 1.01938e-18)
(1.03929 0.0842809 1.9029e-17)
(1.00672 0.0445185 -6.14681e-17)
(1.00422 -0.0189449 9.39259e-18)
(0.662741 0.563672 4.9331e-18)
(0.81731 0.342474 -9.15774e-19)
(0.9355 0.213064 1.5411e-18)
(0.961157 0.134895 -9.55963e-18)
(1.00885 0.071944 2.34214e-17)
(0.990821 0.0382696 -5.01374e-17)
(1.01149 -0.0157509 6.42023e-17)
(0.475981 0.377464 -8.35311e-19)
(0.704009 0.229618 -7.56087e-18)
(0.865236 0.143143 1.135e-17)
(0.916887 0.090935 2.71053e-17)
(0.98553 0.0488601 1.49873e-17)
(0.978608 0.0263944 -1.44595e-17)
(1.01711 -0.00995268 -2.68322e-17)
(0.374713 0.133965 2.04142e-18)
(0.642539 0.0819525 6.38545e-18)
(0.82709 0.0515815 3.81002e-19)
(0.892818 0.0332885 -6.75408e-18)
(0.972825 0.0185314 1.04594e-18)
(0.971874 0.0107055 -8.83202e-18)
(1.02015 -0.00222739 7.25868e-19)
)
;

boundaryField
{
    out
    {
        type            fixedValue;
        value           uniform (1 0 0);
    }
    in
    {
        type            myVelocity;
    }
    frontAndBack
    {
        type            empty;
    }
}


// ************************************************************************* //
