/*--------------------------------*- C++ -*----------------------------------*\
| =========                 |                                                 |
| \\      /  F ield         | foam-extend: Open Source CFD                    |
|  \\    /   O peration     | Version:  3.0                                   |
|   \\  /    A nd           | Web:         http://www.extend-project.de       |
|    \\/     M anipulation  |                                                 |
\*---------------------------------------------------------------------------*/
FoamFile
{
    version     2.0;
    format      ascii;
    class       volSymmTensorField;
    location    "2";
    object      sigma;
}
// * * * * * * * * * * * * * * * * * * * * * * * * * * * * * * * * * * * * * //

dimensions      [0 0 0 0 0 0 0];

internalField   nonuniform List<symmTensor> 
728
(
(-0.0241651 0.0318274 -4.82174e-19 0.0162092 1.35748e-20 0.00795591)
(0.0241846 -0.0318186 7.02096e-19 -0.0162271 1.31255e-19 -0.00795744)
(0.0127373 -0.0420972 -9.25369e-19 -0.0202591 -2.36289e-19 0.00752173)
(-0.0127845 0.0421571 2.72156e-19 0.0203134 -1.30892e-19 -0.00752887)
(-0.00929933 0.0729575 7.48358e-19 0.00744103 1.79449e-20 0.0018583)
(0.00937623 -0.0730527 1.36197e-19 -0.0075129 3.31968e-19 -0.00186332)
(-0.158934 -0.0028385 -2.6808e-19 0.165196 2.76216e-18 -0.00626266)
(0.158606 0.0033047 -4.43743e-19 -0.164868 1.54423e-18 0.0062619)
(0.00987505 0.0398417 7.10565e-19 -0.00672982 1.41947e-20 -0.00314523)
(0.0275342 0.0676677 4.058e-19 -0.0363978 -4.76797e-19 0.00886353)
(-0.00976577 -0.0398615 7.18561e-20 0.0066255 -2.7803e-20 0.00314027)
(-0.0273553 -0.0676784 1.34842e-19 0.0362222 -7.42169e-19 -0.00886697)
(0.0107031 0.0381453 3.03448e-19 -0.00722865 -6.26551e-20 -0.00347441)
(-0.0210922 -0.0646552 -1.88191e-19 0.0301808 -6.11091e-19 -0.0090886)
(-0.0105569 -0.0382076 1.92854e-19 0.00708172 4.08404e-20 0.00347516)
(0.0213124 0.0645556 -1.12598e-19 -0.0304042 -5.03754e-19 0.00909183)
(0.00981591 -0.00210195 4.58569e-19 -0.00638499 -9.08916e-20 -0.00343092)
(0.0665275 -0.00460071 -5.31318e-19 -0.0763995 -3.25804e-20 0.00987198)
(-0.0663602 0.0047764 1.08e-18 0.0762326 -3.92003e-19 -0.00987247)
(-0.00981319 0.00205521 2.64488e-19 0.00638975 -3.10489e-20 0.00342344)
(-0.00940607 -0.0251765 1.02688e-19 0.00948326 -9.24499e-20 -7.71904e-05)
(0.0837446 0.0483503 1.25292e-19 -0.0923592 -8.21966e-20 0.00861461)
(-0.0838566 -0.0483062 -3.33129e-19 0.0924751 2.42125e-19 -0.00861851)
(0.00951012 0.0252052 4.3494e-19 -0.00957906 -2.45563e-19 6.89338e-05)
(-0.00850215 0.110418 8.34827e-19 0.00636807 4.87767e-20 0.00213408)
(0.174815 -0.0171503 -5.74987e-20 -0.18048 3.23025e-18 0.0056651)
(-0.174769 0.0180289 1.67995e-18 0.180437 1.63969e-18 -0.0056681)
(0.00857086 -0.110416 6.02255e-19 -0.0064315 5.31972e-19 -0.00213936)
(0.00745243 -0.00350512 -5.10638e-19 -0.00444477 2.81668e-20 -0.00300766)
(0.0710924 0.000285286 -3.13145e-19 -0.0808257 -9.84983e-20 0.00973322)
(-0.070884 -1.28293e-05 4.13871e-19 0.0806198 -5.30388e-19 -0.00973583)
(-0.00740326 0.00346073 -2.45795e-19 0.0044089 -5.30573e-20 0.00299435)
(-0.00726026 -0.0262049 4.51263e-21 0.00778175 -6.43764e-20 -0.000521499)
(0.0949903 0.0425058 -1.12584e-19 -0.103277 -1.00226e-20 0.00828625)
(-0.0951711 -0.0426901 -3.53995e-19 0.103455 1.79979e-19 -0.00828395)
(0.00735062 0.0261434 4.86449e-19 -0.00786524 -2.73146e-19 0.000514616)
(0.0442385 0.0413993 8.73863e-19 -0.0550827 -2.48444e-20 0.0108442)
(-0.015229 -0.0048216 -3.78402e-19 0.014758 -2.8654e-19 0.000470995)
(-0.0442767 -0.0414263 7.41798e-19 0.0551247 1.7768e-19 -0.010848)
(0.0152683 0.0048406 -1.29864e-19 -0.0147814 1.04977e-19 -0.000486901)
(0.0133056 0.0172242 2.07416e-19 -0.0127869 -1.92262e-19 -0.000518763)
(0.059978 0.0486055 -8.61498e-19 -0.0696095 1.26876e-19 0.00963148)
(-0.0132298 -0.0171986 -5.54343e-19 0.0127207 1.82545e-19 0.00050917)
(-0.0600185 -0.0486854 -1.1969e-18 0.0696531 1.17209e-19 -0.00963455)
(0.0147088 0.0148022 8.75082e-19 -0.0138159 -8.16274e-20 -0.000892946)
(-0.0491595 -0.0490956 -5.62926e-19 0.0592684 1.92473e-19 -0.010109)
(-0.0146683 -0.0148255 -4.31293e-19 0.0137827 -4.52241e-20 0.000885555)
(0.0491072 0.0490439 -7.25918e-19 -0.0592129 2.11655e-19 0.0101057)
(0.00628582 -0.0679424 -5.00346e-19 7.20421e-05 -1.14968e-19 -0.00635786)
(-0.039505 0.0690012 7.88293e-19 0.0448481 -3.8276e-19 -0.00534306)
(0.0398034 -0.069202 -7.0227e-19 -0.0451457 6.47188e-19 0.00534231)
(-0.00625395 0.067941 6.39111e-19 -0.000101622 -5.35933e-19 0.00635557)
(0.169933 -0.051799 -1.34497e-18 -0.175074 1.95497e-18 0.00514019)
(0.00531728 0.14161 1.06032e-18 -0.00835252 8.28342e-20 0.00303524)
(-0.170076 0.0516209 2.89089e-18 0.175228 3.10631e-18 -0.00515211)
(-0.00525655 -0.141611 3.95743e-19 0.00829444 5.68883e-19 -0.00303789)
(0.0229599 -0.0270591 4.8725e-19 -0.0159002 -3.00922e-19 -0.00705965)
(0.0288971 -0.0417419 -8.41597e-19 -0.0368914 -2.08333e-19 0.00799435)
(-0.0288566 0.0417013 6.75053e-20 0.0368586 2.88408e-19 -0.00800201)
(-0.0230257 0.0269596 -2.78535e-19 0.0159679 -1.82953e-19 0.00705786)
(0.00746025 0.00688897 2.32489e-19 -0.00834821 -2.22699e-19 0.000887961)
(-0.0672645 -0.0300545 -2.07276e-19 0.0772258 -1.3045e-19 -0.00996134)
(0.0671494 0.0300871 -3.00807e-19 -0.0771082 -1.13016e-19 0.00995881)
(-0.00744117 -0.00692083 -3.62061e-19 0.00833588 9.58512e-22 -0.000894704)
(0.00762505 -0.042726 -8.46775e-19 -0.0144285 1.88375e-19 0.00680347)
(-0.0183353 0.040312 -2.98171e-19 0.00999891 3.80853e-20 0.00833637)
(-0.00762008 0.0427652 8.48908e-20 0.0144271 -4.14146e-19 -0.00680703)
(0.0184122 -0.0402602 -8.87105e-20 -0.0100756 2.77451e-19 -0.00833659)
(0.00622349 -0.0587935 -3.56251e-20 -0.00514619 2.20073e-19 -0.0010773)
(-0.00613619 0.0587453 1.44646e-18 0.00506271 7.59259e-20 0.00107348)
(0.143405 0.0300785 1.28129e-19 -0.150051 4.0852e-19 0.00664615)
(-0.143373 -0.0296863 2.07728e-19 0.150031 4.68188e-19 -0.00665766)
(0.0388918 0.0448374 1.67796e-19 -0.049756 -5.258e-19 0.0108641)
(-0.017346 -0.00682047 -7.01479e-19 0.0163301 -3.1206e-19 0.00101594)
(0.0173691 0.00683654 9.58666e-20 -0.0163373 -3.92766e-20 -0.00103182)
(-0.0389088 -0.044884 9.10778e-20 0.0497768 -3.08878e-19 -0.0108679)
(0.00301909 0.00521702 1.19511e-19 -0.00461639 -1.55908e-19 0.0015973)
(0.0716754 0.0209705 -3.0868e-19 -0.0815163 -9.62547e-20 0.00984097)
(-0.00301168 -0.00533392 -3.0799e-19 0.00461398 1.97925e-20 -0.0016023)
(-0.0718046 -0.0207831 -5.71898e-20 0.0816451 -4.69376e-20 -0.00984057)
(0.0278499 0.095882 -4.93116e-20 -0.0343866 1.54229e-19 0.00653663)
(-0.027849 -0.0957468 -2.1818e-19 0.0343897 9.15306e-20 -0.00654079)
(-0.026308 0.0774606 8.38282e-19 0.0298851 9.1097e-20 -0.00357708)
(0.0266476 -0.0774822 -5.20195e-19 -0.0302153 3.57234e-19 0.00356768)
(0.0240123 -0.0102738 5.36856e-19 -0.0178731 -2.82649e-19 -0.00613928)
(0.0388042 -0.0318662 4.0553e-20 -0.048013 4.80047e-19 0.00920879)
(-0.0240465 0.01021 -1.83137e-19 0.0179128 2.46601e-19 0.00613376)
(-0.0387327 0.0318732 6.43762e-19 0.0479457 1.29759e-19 -0.00921294)
(0.0394802 0.168872 7.44086e-19 -0.0430017 -1.04472e-19 0.00352147)
(0.169823 -0.0696284 -3.34279e-18 -0.17455 9.08426e-19 0.00472637)
(-0.0394525 -0.168862 2.65137e-19 0.0429772 2.83772e-19 -0.00352469)
(-0.169511 0.0697766 2.11904e-18 0.174244 2.52322e-18 -0.00473279)
(0.0149746 0.0941023 4.46582e-19 -0.0210047 -1.54188e-19 0.00603016)
(-0.0150036 -0.0939751 4.51373e-19 0.0210385 -2.05142e-19 -0.00603492)
(-0.0414834 0.0829466 9.03795e-20 0.0456226 -3.98701e-19 -0.00413917)
(0.0416561 -0.0829158 -1.64546e-19 -0.0457825 2.97605e-19 0.00412647)
(-0.00451302 -0.0469394 -1.72937e-19 0.00124418 1.5952e-19 0.00326884)
(0.0272003 0.0723658 2.29393e-19 -0.0355514 1.29646e-19 0.00835116)
(0.00456356 0.0468698 7.28038e-19 -0.00128163 -1.06175e-19 -0.00328193)
(-0.0273638 -0.0723962 8.50942e-19 0.0357157 -5.99787e-19 -0.00835194)
(0.0245116 -0.0282227 8.98835e-19 -0.016938 2.18498e-20 -0.00757361)
(-0.0244646 0.0283491 -1.28781e-18 0.0168871 9.29057e-21 0.00757749)
(0.0186259 -0.0413199 -1.15139e-18 -0.0264804 1.09623e-19 0.00785452)
(-0.0186673 0.0413668 3.33954e-19 0.0265276 -9.53393e-20 -0.00786033)
(-0.0193688 0.038246 -2.41565e-19 0.0114013 -1.54336e-19 0.00796753)
(-0.013565 0.044044 -1.87861e-19 0.0206239 -2.5586e-19 -0.00705887)
(0.0134374 -0.0439974 -4.8295e-19 -0.0204903 5.64228e-19 0.00705291)
(0.0194249 -0.0380989 5.92267e-19 -0.0114643 2.78623e-19 -0.00796058)
(0.0222845 -0.00671295 4.89982e-19 -0.0166035 -2.89499e-19 -0.00568103)
(0.0439195 -0.0279559 -4.01548e-20 -0.0534177 1.89086e-20 0.0094982)
(-0.022315 0.00665299 -1.50603e-19 0.0166398 2.12926e-19 0.00567525)
(-0.043871 0.0279226 8.16002e-19 0.0533744 4.23797e-20 -0.00950343)
(-0.00412094 -0.00323427 1.81389e-19 0.00145393 1.82115e-20 0.00266702)
(0.0610933 0.00714421 -7.40728e-20 -0.0716014 8.40316e-20 0.0105081)
(0.00411837 0.00315755 -7.46553e-20 -0.0014415 -2.49503e-19 -0.00267687)
(-0.0610046 -0.00702556 2.01737e-19 0.0715157 -3.10453e-19 -0.0105112)
(0.0218857 -0.0364877 6.61687e-19 -0.0135728 3.36198e-19 -0.00831283)
(-0.0218442 0.0365082 -3.88452e-19 0.0135316 1.07881e-19 0.00831258)
(0.00758494 -0.0419892 -4.39169e-19 -0.0146838 -6.62419e-20 0.00709883)
(-0.00757682 0.0420232 2.63504e-19 0.0146812 -2.43866e-19 -0.0071044)
(0.022613 -0.0302032 5.0158e-19 -0.0151496 -9.18942e-20 -0.00746339)
(0.022406 -0.0424495 -3.97267e-19 -0.0301281 1.65004e-19 0.00772211)
(-0.0224083 0.0423926 -4.8838e-20 0.0301455 8.2559e-20 -0.0077372)
(-0.02272 0.0300395 -1.59636e-19 0.0152569 -3.02657e-19 0.00746311)
(0.00841462 0.0406407 5.79144e-20 -0.00430481 -2.73181e-19 -0.0041098)
(-0.0119135 -0.0624376 -5.4953e-19 0.020933 7.89647e-21 -0.00901952)
(-0.00833031 -0.0407403 1.85817e-19 0.00423076 3.66561e-20 0.00409955)
(0.0119934 0.0623138 -2.6709e-19 -0.0210176 -1.80661e-19 0.00902424)
(-0.00466235 -0.0569455 1.45567e-19 0.0141882 2.92513e-19 -0.00952588)
(0.0048359 0.0570164 -4.25357e-19 -0.0143545 3.55416e-20 0.00951862)
(0.0112955 0.0351372 4.59051e-19 -0.00682427 -3.12792e-19 -0.00447121)
(-0.0113449 -0.0351325 -5.45769e-19 0.00687948 1.12975e-19 0.00446538)
(0.0233814 -0.0208175 3.95688e-19 -0.0168103 -2.6986e-19 -0.00657108)
(0.0358566 -0.0382337 -1.1202e-18 -0.0443514 -6.68439e-20 0.00849486)
(-0.0359044 0.0382069 3.06245e-19 0.0444072 5.3418e-19 -0.00850282)
(-0.0234292 0.0207859 -3.84286e-19 0.0168567 -1.38506e-20 0.00657255)
(0.00114557 -0.0543014 1.031e-19 0.0081667 1.7357e-19 -0.00931227)
(0.00817375 0.0375231 3.72875e-19 -0.00319802 -2.15951e-19 -0.00497573)
(-0.000951039 0.0544077 -3.61245e-19 -0.00835781 1.66271e-19 0.00930885)
(-0.00818656 -0.0376191 -5.9118e-19 0.00321337 1.94339e-20 0.00497319)
(-0.00577526 -0.0372362 -2.42081e-20 0.00614329 -7.48204e-20 -0.00036803)
(0.107933 0.0490241 -2.22834e-19 -0.115589 -1.85852e-20 0.00765533)
(-0.108145 -0.0486406 -5.31452e-19 0.115806 -7.24032e-20 -0.00766141)
(0.00582829 0.037202 6.70588e-19 -0.00619486 -2.48568e-19 0.000366571)
(-0.0207821 0.0337711 -3.4128e-19 0.0141624 -8.57251e-20 0.00661967)
(0.0379583 -0.0468855 -5.90258e-19 -0.0454443 -3.19278e-19 0.00748597)
(0.0207389 -0.0338006 6.32094e-19 -0.0141236 2.096e-19 -0.00661535)
(-0.0378413 0.0468443 1.14875e-19 0.0453324 -7.35268e-19 -0.0074911)
(0.013643 0.00496343 5.92136e-19 -0.0134494 2.23704e-19 -0.000193611)
(0.048731 0.039739 8.86961e-20 -0.0594199 2.27053e-19 0.0106888)
(-0.0487858 -0.0397495 -1.94893e-20 0.0594784 3.27073e-19 -0.0106926)
(-0.0136392 -0.00496122 -3.47424e-19 0.0134552 -2.23975e-19 0.000183963)
(-0.0104256 -0.0350463 -6.58266e-19 0.00504154 -4.49777e-20 0.00538404)
(0.0104924 0.034899 2.07243e-19 -0.00510984 -2.49051e-19 -0.00538258)
(-0.00834585 0.0502627 -3.31137e-19 -0.00122555 3.68159e-19 0.0095714)
(0.00844587 -0.0502379 1.93926e-20 0.00112755 3.57166e-19 -0.00957342)
(-0.000456486 -0.00169772 7.29915e-20 -0.00164714 7.17903e-21 0.00210363)
(-0.0621688 -0.013891 1.00102e-19 0.0726468 -2.46323e-19 -0.010478)
(0.000407621 0.00164389 -1.03412e-19 0.00170177 -5.95448e-20 -0.00210939)
(0.0622136 0.0139872 1.609e-19 -0.0726882 -1.24126e-19 0.0104746)
(-0.115936 0.0758409 4.98354e-20 0.121283 6.34548e-20 -0.00534696)
(0.00764099 -0.0840093 2.26925e-19 -0.00349623 5.58842e-20 -0.00414475)
(0.116939 -0.075624 -6.52149e-19 -0.122286 5.34636e-19 0.00534747)
(-0.00781718 0.0837926 1.33538e-18 0.00367764 -5.91491e-19 0.00413953)
(0.0139038 -0.06483 -4.03513e-21 -0.0102534 7.50474e-20 -0.00365043)
(-0.119863 0.0535106 9.21781e-20 0.125886 -9.93385e-19 -0.00602393)
(0.120463 -0.0535764 -1.03342e-18 -0.126472 6.06048e-19 0.00600954)
(-0.0140097 0.064925 1.40023e-18 0.0103556 -5.39973e-19 0.00365412)
(0.0467152 -0.0432173 -1.47562e-19 -0.0546321 -1.45257e-19 0.00791683)
(0.0215314 -0.0278511 5.10333e-19 -0.0154664 1.76351e-19 -0.006065)
(-0.0466314 0.0431925 -5.13573e-19 0.0545534 -1.49161e-19 -0.00792202)
(-0.021552 0.0278581 -7.02153e-19 0.0154888 -6.24793e-20 0.00606312)
(-0.00966424 -0.0590771 -6.75173e-20 0.0191367 2.53229e-19 -0.00947241)
(0.00975551 0.0590699 -3.54645e-19 -0.0192202 2.32363e-20 0.00946474)
(0.0121359 0.0354955 3.32396e-19 -0.0080198 -2.17391e-19 -0.00411611)
(-0.0122076 -0.0354092 -4.11076e-19 0.0081063 3.12587e-19 0.00410131)
(0.00763054 0.0366381 2.29751e-19 -0.00182549 -2.87967e-19 -0.00580505)
(-0.00760725 -0.0367395 -6.47334e-19 0.00180872 -1.16084e-20 0.00579852)
(0.0131401 -0.047597 1.24491e-19 -0.00380217 3.67292e-19 -0.00933792)
(-0.0131074 0.0475605 -3.06802e-19 0.00377341 3.45295e-19 0.00933394)
(0.0502728 -0.0639641 -2.24557e-19 -0.0563105 2.6622e-19 0.00603772)
(-0.0501935 0.0637686 3.78837e-19 0.05624 -3.05737e-19 -0.00604656)
(-0.0133116 0.0566007 4.36132e-19 0.00731648 -6.25069e-19 0.00599513)
(0.0134564 -0.0563673 -1.77889e-19 -0.00746523 4.84456e-20 -0.00599114)
(-0.00138277 -0.107281 4.94444e-19 0.00547559 3.3888e-19 -0.00409282)
(-0.125262 0.0852662 9.69811e-20 0.130152 1.16219e-18 -0.00488989)
(0.125918 -0.0846777 -6.71401e-19 -0.130816 3.20189e-19 0.00489851)
(0.00130432 0.107188 1.60931e-18 -0.00539394 -3.59184e-19 0.00408962)
(-0.0136187 -0.0262015 3.77158e-19 0.0125815 1.24479e-20 0.0010372)
(0.0596524 0.0574959 7.92208e-19 -0.0688111 1.17536e-19 0.00915865)
(0.0137353 0.0261242 5.52874e-19 -0.0127019 -1.10692e-19 -0.0010334)
(-0.0596417 -0.0575551 -1.47549e-19 0.0688037 1.08542e-19 -0.00916202)
(-0.0132866 -0.0318671 1.30055e-19 0.0115434 -2.69187e-19 0.00174323)
(-0.0496779 -0.0639667 3.5178e-19 0.0587179 -2.6104e-19 -0.00904007)
(0.0497001 0.0639284 6.77354e-19 -0.0587387 -4.56485e-19 0.00903853)
(0.0134043 0.0318852 6.914e-19 -0.0116539 -9.48416e-20 -0.00175041)
(-0.00119553 0.00749909 -9.88347e-20 0.00320374 -7.40863e-19 -0.0020082)
(-0.0543108 -0.0151912 2.85688e-20 0.06528 -9.81879e-20 -0.0109692)
(0.0543626 0.0152669 -6.303e-19 -0.0653283 -7.04035e-20 0.0109657)
(0.00117761 -0.00759052 -4.10323e-19 -0.00317766 1.03853e-19 0.00200006)
(0.0134942 -0.0012788 -2.16513e-19 -0.0136002 5.28029e-20 0.000106032)
(-0.0461337 -0.0352747 2.98151e-19 0.0572323 8.51703e-21 -0.0110986)
(0.0461144 0.0352792 3.45941e-19 -0.0572092 -2.48982e-19 0.0110948)
(-0.0134597 0.00128095 -8.18877e-19 0.0135813 -1.72213e-19 -0.000121591)
(-0.0177865 0.0403208 1.12114e-19 0.0100683 -3.88134e-19 0.00771825)
(-0.0176888 0.0464951 2.40993e-19 0.0245778 -2.02525e-19 -0.00688903)
(0.017737 -0.0403349 -2.84777e-19 -0.0100256 2.85743e-19 -0.0077114)
(0.0177961 -0.0465168 -2.52961e-19 -0.0246834 4.17138e-19 0.00688724)
(0.0204647 0.0213211 -6.94906e-19 -0.0170919 -1.7261e-19 -0.00337273)
(-0.01366 -0.0542191 -9.46558e-19 0.0241659 5.49028e-20 -0.0105059)
(0.0137926 0.054194 -1.08926e-18 -0.0242944 -1.12257e-19 0.0105018)
(-0.0205496 -0.0213091 -1.45145e-18 0.0171859 -1.92104e-20 0.00336375)
(-0.052098 -0.0415062 -4.50986e-19 0.0625161 1.21759e-19 -0.010418)
(0.0520358 0.0414789 -3.20469e-19 -0.0624503 -7.01421e-20 0.0104145)
(-0.0129523 -0.00799007 -3.55871e-19 0.0127248 -1.34257e-19 0.000227481)
(0.0129931 0.00800923 6.81896e-19 -0.0127524 6.46892e-20 -0.000240744)
(0.0117019 -0.0566577 -1.23736e-19 -0.00884433 1.92757e-19 -0.00285757)
(-0.13219 0.0281431 -6.34e-19 0.13861 9.94918e-19 -0.00641967)
(0.13221 -0.0275347 -1.10686e-18 -0.138633 2.89412e-19 0.00642285)
(-0.0117332 0.0565749 1.28588e-18 0.00887857 -3.77031e-19 0.00285465)
(0.0129505 -0.00016565 3.38249e-19 -0.0130873 9.21805e-20 0.000136855)
(-0.0476669 -0.0352685 5.28252e-19 0.0586663 3.49839e-19 -0.0109994)
(0.0476355 0.0352739 7.32113e-19 -0.058631 -4.84136e-20 0.0109955)
(-0.0129825 9.78269e-05 -4.22408e-19 0.0131232 -2.26306e-19 -0.000140738)
(-2.67862e-05 0.010072 1.70992e-19 -0.00186107 -1.92608e-19 0.00188786)
(2.85453e-05 -0.0100039 -3.18667e-19 0.0018685 7.83384e-20 -0.00189705)
(0.0821747 0.0163704 -2.68685e-19 -0.0913849 -1.28268e-19 0.00921013)
(-0.0822118 -0.0160685 -1.54022e-19 0.091428 9.21596e-21 -0.00921619)
(0.00113586 -0.0413564 -7.75083e-19 -0.00742556 -1.055e-19 0.0062897)
(0.015199 -0.0449013 1.62807e-19 -0.00643118 1.4381e-19 -0.00876784)
(-0.0151065 0.0448801 -2.96421e-19 0.00633718 1.94536e-19 0.0087693)
(-0.00106728 0.0413069 1.86713e-19 0.0073606 -3.32588e-19 -0.00629332)
(-0.00543975 -0.00526134 -1.46082e-19 0.00256332 3.75689e-20 0.00287643)
(0.0588205 0.0043215 -3.89816e-19 -0.0694435 -7.78487e-20 0.010623)
(0.00547376 0.00518785 1.30702e-19 -0.00258404 -4.13378e-19 -0.00288972)
(-0.058711 -0.00421832 2.37943e-19 0.0693371 -2.6064e-19 -0.0106261)
(0.0349093 -0.0537927 -2.54132e-19 -0.0415542 5.11776e-19 0.00664492)
(-0.016606 0.0456472 -3.22257e-19 0.00985742 -2.64122e-19 0.00674853)
(0.0166205 -0.0455212 1.39937e-19 -0.00987591 1.61551e-19 -0.00674461)
(-0.0346822 0.0537339 5.1153e-19 0.0413331 -3.85144e-19 -0.0066509)
(-0.000270296 -0.039093 3.00719e-21 0.0013705 5.25703e-20 -0.0011002)
(0.00034424 0.0389931 6.37671e-19 -0.00143952 -1.04836e-19 0.00109528)
(0.121161 0.0325854 -6.38064e-19 -0.128489 6.68584e-19 0.00732883)
(-0.121711 -0.0323822 -1.29477e-18 0.129034 6.77846e-19 -0.00732335)
(0.0601169 -0.119319 -1.35947e-18 -0.0620818 8.55209e-19 0.00196481)
(-0.112587 -0.119746 7.46774e-19 0.118277 -2.60955e-19 -0.00568999)
(-0.0597125 0.119366 1.70075e-18 0.0616794 -3.44582e-19 -0.00196695)
(0.112457 0.119678 1.23432e-19 -0.118144 -8.65278e-19 0.0056869)
(-0.0398407 -0.0534008 -9.24827e-19 0.0499625 -4.06554e-19 -0.0101219)
(0.0166126 0.0184309 4.66127e-19 -0.0149249 6.25951e-21 -0.00168767)
(0.0398234 0.0533395 -1.38559e-19 -0.049942 5.45308e-19 0.0101187)
(-0.0165991 -0.0183844 -5.34513e-19 0.0149212 4.45749e-20 0.00167788)
(0.0384742 -0.112398 -9.69726e-19 -0.0390786 8.62217e-19 0.000604316)
(0.148391 0.0878552 -8.47165e-19 -0.154402 -3.25324e-19 0.00601068)
(-0.0382214 0.112361 6.78428e-19 0.0388286 -3.38918e-19 -0.000607196)
(-0.148558 -0.087851 4.81151e-19 0.154573 1.15665e-19 -0.00601484)
(0.0209524 -0.0063099 2.83736e-19 -0.0155341 -3.00658e-19 -0.00541824)
(-0.0478302 0.0256448 4.6088e-19 0.057372 -1.01503e-19 -0.00954185)
(-0.0209732 0.00626185 -3.23061e-19 0.0155609 1.26088e-19 0.0054123)
(0.0479341 -0.0256195 -1.1233e-19 -0.0574737 -1.2129e-19 0.00953956)
(-0.075002 -0.056821 -1.4549e-19 0.0836661 3.20059e-19 -0.00866417)
(-0.011298 -0.0293558 1.99925e-19 0.0107536 -3.15645e-19 0.000544417)
(0.0750204 0.0567421 2.83466e-19 -0.0836808 2.52016e-19 0.00866046)
(0.0114293 0.0292184 4.49518e-19 -0.0108852 -2.26073e-19 -0.00054413)
(-0.0131379 0.048331 2.69017e-19 0.0193398 -4.60045e-19 -0.00620189)
(0.0124848 -0.0482708 -1.04434e-21 -0.00457714 -1.67837e-19 -0.00790765)
(-0.0124536 0.048338 6.35404e-19 0.00454033 -5.42624e-20 0.00791324)
(0.0131412 -0.0482628 -3.57959e-19 -0.0193389 1.11994e-19 0.00619772)
(0.00599359 0.048022 6.85041e-19 -0.0055743 -2.28086e-19 -0.000419289)
(-0.00592256 -0.0479798 -4.55332e-19 0.00550881 -1.41712e-19 0.000413749)
(-0.0990935 -0.0657527 3.59391e-19 0.106626 -6.57674e-20 -0.00753254)
(0.0992594 0.0657066 1.64682e-19 -0.106785 8.09054e-20 0.00752563)
(0.055945 -0.00568919 -1.94803e-19 -0.0664665 -2.6815e-19 0.0105215)
(-0.0112784 -0.00577326 -8.82488e-20 0.00755042 1.83912e-21 0.00372798)
(0.0112809 0.00570352 1.05657e-19 -0.00754456 -4.84574e-19 -0.00373634)
(-0.0558022 0.0057484 1.00383e-18 0.066327 -4.03925e-19 -0.0105248)
(-0.00478217 0.0516802 -3.3097e-19 -0.00480688 3.16504e-19 0.00958905)
(-0.0111267 -0.0348511 -6.60188e-19 0.00597315 -7.76448e-20 0.00515359)
(0.0111723 0.0347108 2.14976e-19 -0.00601595 -2.11075e-19 -0.00515631)
(0.00493785 -0.051638 -2.07511e-20 0.00465331 2.71078e-19 -0.00959116)
(-0.0104261 -0.0140084 -4.66202e-19 0.0106839 1.14106e-19 -0.000257781)
(0.0687597 0.0406475 -4.59457e-19 -0.0783289 -5.87147e-20 0.00956912)
(0.0104168 0.0138761 1.30407e-19 -0.010679 -2.43015e-19 0.000262169)
(-0.0688834 -0.0406541 -6.12596e-19 0.0784555 -3.09915e-19 -0.00957208)
(0.00945854 0.000628748 5.23621e-19 -0.00605234 -2.75601e-19 -0.0034062)
(0.0626441 -0.00346349 -4.27708e-19 -0.0728051 -9.25304e-20 0.010161)
(-0.0624793 0.00357343 4.60443e-19 0.0726431 -4.37149e-19 -0.0101638)
(-0.009447 -0.000659083 -3.08793e-20 0.00604978 -9.41619e-21 0.00339723)
(0.0238994 -0.054333 -7.84166e-19 -0.0300087 4.1508e-19 0.00610922)
(-0.0122597 0.0517003 4.50012e-19 0.00495154 -2.99953e-19 0.00730811)
(0.0123565 -0.0515595 9.24336e-20 -0.00506209 8.86708e-20 -0.00729439)
(-0.0233682 0.0542255 4.7677e-19 0.0294753 -2.14538e-19 -0.00610705)
(0.0197849 0.0240871 -4.25025e-20 -0.0159246 -1.55726e-19 -0.00386027)
(0.00789971 0.0544424 -7.04421e-19 -0.0182497 5.87692e-19 0.01035)
(-0.00775901 -0.0544333 -5.18259e-19 0.0181133 7.16284e-19 -0.0103543)
(-0.0198871 -0.0240404 -8.34625e-19 0.0160393 -4.8371e-20 0.00384777)
(-0.0537247 0.01114 7.70837e-19 0.0641035 1.56227e-19 -0.0103788)
(0.0143312 0.00472321 1.72902e-19 -0.0101251 -4.62326e-19 -0.00420619)
(0.0538785 -0.011101 -1.03853e-19 -0.0642539 -2.53361e-19 0.0103754)
(-0.0143354 -0.00480189 -1.18707e-19 0.0101367 9.00746e-20 0.00419867)
(0.0198125 0.0217395 5.86268e-20 -0.0165537 -1.26824e-19 -0.00325884)
(-0.0159321 -0.0545625 -1.18628e-19 0.0263703 -3.82202e-20 -0.0104382)
(0.016063 0.0545244 -3.18473e-19 -0.0264971 -2.4863e-19 0.0104341)
(-0.0198975 -0.0217115 -7.13507e-19 0.0166521 6.46121e-20 0.00324541)
(0.00406501 -0.0340795 -7.58719e-19 -0.00221642 9.57832e-20 -0.00184859)
(-0.00405758 0.0339431 1.66008e-18 0.00221293 -3.06327e-19 0.00184465)
(0.119184 0.0119584 -1.01447e-18 -0.126577 5.00443e-19 0.00739311)
(-0.119288 -0.0120919 -7.38481e-19 0.126687 9.61963e-19 -0.00739941)
(0.00931217 0.00553009 4.4702e-19 -0.00986659 -1.20004e-19 0.000554426)
(0.0601267 0.0333954 -2.63736e-19 -0.0704165 -1.67707e-19 0.0102898)
(-0.0602127 -0.033358 -2.78425e-19 0.0705068 -2.00666e-20 -0.0102941)
(-0.00931022 -0.00556646 -3.1213e-19 0.00987106 -3.35401e-20 -0.000560838)
(-0.00959279 0.0750969 1.114e-18 0.009812 -1.02388e-19 -0.000219206)
(0.00975786 -0.0750992 -1.09622e-18 -0.00997325 3.63181e-19 0.000215391)
(0.130013 0.0720043 7.46316e-20 -0.136612 -2.85866e-19 0.00659811)
(-0.13039 -0.0719271 5.71518e-19 0.136989 -8.13994e-19 -0.00659846)
(0.013702 0.0323033 6.76722e-19 -0.0114477 4.5792e-20 -0.00225437)
(-0.0135705 -0.0322805 1.83655e-19 0.0113243 -2.97134e-20 0.00224619)
(-0.0403044 -0.0640422 4.30156e-19 0.0494889 -4.56206e-19 -0.00918458)
(0.040281 0.0640639 3.69849e-19 -0.049462 -3.33762e-19 0.00918094)
(-0.0646595 -0.106236 1.07199e-19 0.0710907 -2.23313e-19 -0.00643126)
(-0.0229693 0.0831777 1.64038e-18 0.025479 7.28914e-19 -0.00250969)
(0.0231208 -0.0829741 -1.45616e-18 -0.0256324 -5.32859e-20 0.00251159)
(0.0645417 0.106264 2.45138e-19 -0.0709706 -1.4881e-19 0.00642894)
(-0.00990963 0.0720307 1.39467e-18 0.0117413 5.71893e-19 -0.00183165)
(0.0100346 -0.0719185 -1.36075e-18 -0.0118613 1.5845e-20 0.00182676)
(-0.0772624 -0.0947157 -1.13125e-19 0.0841248 -2.51394e-19 -0.00686245)
(0.0771179 0.0947343 3.10583e-19 -0.0839774 2.87923e-19 0.00685952)
(-0.0203742 -0.00754099 -8.82222e-19 0.0187574 -1.96803e-19 0.00161683)
(0.0305004 0.0475703 -7.16217e-21 -0.0414787 5.05144e-21 0.0109783)
(0.0203199 0.0075395 -2.16303e-19 -0.0186949 -2.51356e-19 -0.00162497)
(-0.0304621 -0.047629 -1.11249e-19 0.0414444 2.17425e-19 -0.0109823)
(-0.0204523 0.0346182 -2.35956e-19 0.0133707 -2.16857e-19 0.00708164)
(0.0204019 -0.0346527 7.54179e-19 -0.0133284 9.08043e-20 -0.00707354)
(0.0290724 -0.0461274 -3.83956e-20 -0.0365017 -1.8388e-19 0.00742929)
(-0.0290661 0.0460322 7.6692e-20 0.0365055 -2.32465e-19 -0.00743936)
(-0.00381712 0.0675744 6.42825e-19 0.00460069 9.50845e-22 -0.000783574)
(0.00396 -0.0675204 -9.91344e-19 -0.00473995 7.94294e-20 0.000779948)
(-0.105658 -0.0796772 4.01241e-19 0.112585 -3.49367e-19 -0.00692721)
(0.105537 0.0795484 2.73453e-19 -0.112464 2.65091e-19 0.00692685)
(-0.00530244 0.0104203 1.10981e-19 0.00271017 -1.2742e-19 0.00259227)
(0.0832234 0.00424933 -3.13556e-19 -0.0922782 -1.13784e-19 0.00905481)
(-0.0830891 -0.00416747 -2.65086e-19 0.0921524 -8.03279e-20 -0.00906327)
(0.00525677 -0.010448 -3.67712e-19 -0.00266266 7.50489e-20 -0.00259411)
(0.00125352 -0.0698003 -4.21447e-19 0.00567117 -4.7065e-20 -0.00692469)
(-0.0268535 0.0649877 6.53955e-19 0.0318491 1.07659e-19 -0.00499555)
(-0.000899054 0.0700574 9.26437e-19 -0.00601817 -3.89925e-19 0.00691722)
(0.0271778 -0.0651441 -1.50295e-18 -0.0321711 -3.75717e-19 0.00499338)
(0.0037983 -0.0537522 -2.1364e-19 -0.00772795 4.55691e-19 0.00392965)
(0.0166439 0.0738159 9.30125e-19 -0.0245611 4.25698e-19 0.00791717)
(-0.00358307 0.0536692 6.96748e-19 0.00751339 -1.3953e-20 -0.00393032)
(-0.0169881 -0.0738096 1.75139e-19 0.0249115 -3.03229e-19 -0.00792334)
(-0.00819724 0.00756847 -1.70542e-19 0.00514187 -9.87896e-20 0.00305537)
(0.00822041 -0.00765304 -5.60455e-19 -0.00515719 8.01323e-20 -0.00306322)
(0.0770954 -0.00229155 -2.75506e-19 -0.0863956 -5.41498e-20 0.00930024)
(-0.0769491 0.00240097 -3.08807e-19 0.0862532 -5.58054e-19 -0.00930417)
(0.017642 0.0260072 -1.31624e-19 -0.014429 -2.5023e-19 -0.00321297)
(-0.0194185 -0.0570813 -6.7787e-19 0.0295158 2.87942e-19 -0.0100973)
(-0.0176552 -0.026017 -7.80248e-19 0.0144519 -1.5818e-19 0.00320324)
(0.0195271 0.057035 5.2534e-19 -0.0296205 -3.00664e-20 0.0100934)
(-0.0207873 0.0282405 1.3205e-19 0.0153107 -2.60996e-19 0.00547659)
(0.0589516 -0.042797 -9.10113e-19 -0.06675 -2.26267e-19 0.00779835)
(0.0207083 -0.0282233 -4.43657e-19 -0.0152358 9.29095e-20 -0.00547253)
(-0.0588118 0.0427505 4.35814e-19 0.0666183 5.45245e-19 -0.00780649)
(-0.0248297 0.0168439 -2.51923e-19 0.0181848 2.86334e-19 0.0066449)
(0.0329236 -0.0362508 -7.68557e-19 -0.0416607 3.86579e-19 0.00873709)
(-0.0328324 0.036256 5.11641e-19 0.0415732 1.7218e-19 -0.00874078)
(0.0248233 -0.0169149 6.24957e-19 -0.0181734 -1.85748e-19 -0.00664989)
(0.0315473 0.0886906 7.03707e-19 -0.0386383 2.01296e-19 0.00709101)
(0.0130714 -0.0673518 -2.69019e-19 -0.0164723 -2.90993e-19 0.00340094)
(-0.0316171 -0.0885475 2.27411e-19 0.038712 1.35407e-19 -0.00709492)
(-0.0128155 0.0673702 4.98479e-19 0.0162189 4.87294e-19 -0.00340341)
(0.0031357 -0.0766896 2.13716e-20 0.00278077 -4.35408e-19 -0.00591647)
(-0.049597 0.0769931 6.29917e-19 0.054617 -4.07605e-19 -0.00502003)
(0.0501388 -0.0770262 -8.97712e-19 -0.0551682 1.43501e-19 0.00502934)
(-0.00310667 0.0767485 8.0461e-19 -0.002807 -5.48715e-19 0.00591367)
(0.0156798 0.0298324 -3.28733e-19 -0.0123218 3.41068e-20 -0.00335792)
(-0.019287 -0.059321 -5.13689e-19 0.0290704 -4.60482e-20 -0.00978341)
(-0.0156746 -0.0298041 -9.50573e-19 0.0123265 1.75395e-19 0.00334812)
(0.0194147 0.0592572 -1.59225e-19 -0.0291951 -3.26252e-19 0.00978036)
(0.0430712 -0.0353982 -1.2761e-18 -0.0518371 -3.42656e-19 0.00876593)
(0.0224758 -0.0170084 1.02757e-18 -0.0164087 -3.13839e-19 -0.00606713)
(-0.0428956 0.035438 8.60166e-19 0.0516681 -1.59361e-21 -0.00877252)
(-0.0225055 0.0169658 2.99804e-19 0.0164412 1.57798e-20 0.00606434)
(0.00351486 0.00721703 -2.78628e-19 -0.00087228 -5.79754e-19 -0.00264258)
(0.0564535 0.00772475 -2.08594e-19 -0.0672692 -2.331e-19 0.0108157)
(-0.0563629 -0.00764159 8.52069e-20 0.0671819 -1.95138e-19 -0.0108191)
(-0.00350118 -0.00728349 -3.65036e-20 0.000869957 4.13228e-20 0.00263122)
(-0.0101457 -0.00476254 -3.74904e-20 0.00657988 -1.51197e-20 0.00356582)
(0.0576892 -0.00403612 -2.41639e-19 -0.068165 -3.74331e-19 0.0104758)
(0.0101448 0.00470172 1.66247e-19 -0.00657065 -4.40459e-19 -0.00357411)
(-0.0575398 0.00410656 6.07866e-19 0.0680188 -4.88404e-19 -0.010479)
(0.0212667 -0.0110553 4.24499e-19 -0.0156907 -3.56425e-19 -0.00557597)
(-0.048048 0.0295383 5.80732e-20 0.0572548 -1.81282e-19 -0.00920686)
(-0.0212783 0.0109785 -2.61572e-19 0.0157085 7.51414e-21 0.00556984)
(0.0482147 -0.0294697 -1.27108e-18 -0.0574168 -7.34042e-20 0.00920211)
(0.000425696 0.057994 7.55196e-19 0.00139529 3.43411e-19 -0.00182099)
(0.0686262 0.0837082 3.72695e-19 -0.0760485 2.09963e-19 0.00742225)
(-0.000350478 -0.0579444 -1.39384e-18 -0.00146548 -2.90979e-19 0.00181596)
(-0.0686301 -0.0837219 3.31673e-19 0.0760556 -1.71552e-19 -0.00742556)
(-0.114376 -0.152207 4.04817e-19 0.119481 -2.01745e-19 -0.0051056)
(0.124993 -0.120363 -1.49982e-18 -0.127928 3.94799e-19 0.00293501)
(-0.124569 0.120386 1.58599e-18 0.127507 3.77889e-19 -0.00293717)
(0.114297 0.152125 9.28297e-19 -0.119399 -9.32273e-19 0.0051023)
(0.0409127 -0.148379 -1.29286e-18 -0.0404544 6.26695e-19 -0.000458323)
(0.180888 0.0457382 9.85765e-19 -0.186792 3.29787e-19 0.00590397)
(-0.0407009 0.148336 2.2975e-18 0.0402452 -2.5003e-19 0.000455713)
(-0.180928 -0.0458487 6.68211e-19 0.186837 -1.52856e-19 -0.00590881)
(0.00613672 -0.0536961 8.27388e-20 0.00233913 -1.53247e-19 -0.00847585)
(-0.00618769 0.0536924 -3.38456e-19 -0.00228303 3.5645e-19 0.00847072)
(0.00334399 -0.0455743 -4.53348e-19 -0.00888532 -1.2104e-20 0.00554133)
(-0.00352714 0.0455436 7.93648e-19 0.00909008 -2.91194e-19 -0.00556293)
(0.0010664 -0.00234481 -1.80023e-19 0.00109178 2.61711e-21 -0.00215818)
(-0.00105282 0.00231179 -8.80614e-20 -0.00109634 -5.54624e-20 0.00214915)
(0.0697047 0.0133575 -2.58366e-19 -0.0797116 -1.72119e-19 0.0100069)
(-0.0696304 -0.0132116 1.48602e-19 0.0796422 -1.15344e-20 -0.0100118)
(0.00641072 0.0496417 6.62662e-19 -0.00522469 6.96321e-20 -0.00118603)