/*--------------------------------*- C++ -*----------------------------------*\
| =========                 |                                                 |
| \\      /  F ield         | foam-extend: Open Source CFD                    |
|  \\    /   O peration     | Version:  3.0                                   |
|   \\  /    A nd           | Web:         http://www.extend-project.de       |
|    \\/     M anipulation  |                                                 |
\*---------------------------------------------------------------------------*/
FoamFile
{
    version     2.0;
    format      ascii;
    class       volScalarField;
    location    "8";
    object      p;
}
// * * * * * * * * * * * * * * * * * * * * * * * * * * * * * * * * * * * * * //

dimensions      [0 0 0 0 0 0 0];

internalField   nonuniform List<scalar> 
480
(
-0.252117
-0.209115
-0.199575
-0.180225
-0.179962
-0.170817
-0.173168
-0.168205
-0.16885
-0.163339
-0.247739
-0.205509
-0.196143
-0.177145
-0.176899
-0.167926
-0.170249
-0.165375
-0.166015
-0.160577
-0.239279
-0.198545
-0.189526
-0.171212
-0.171004
-0.162367
-0.164645
-0.159951
-0.160589
-0.155303
-0.226661
-0.188171
-0.179684
-0.162398
-0.162258
-0.154128
-0.156348
-0.151931
-0.152578
-0.147529
-0.210306
-0.174712
-0.166902
-0.150943
-0.150883
-0.143406
-0.145542
-0.141481
-0.142135
-0.137399
-0.190268
-0.158217
-0.15124
-0.136902
-0.136938
-0.130258
-0.132288
-0.128664
-0.129325
-0.124982
-0.16709
-0.13911
-0.133075
-0.120595
-0.120725
-0.114951
-0.116841
-0.113712
-0.114367
-0.110487
-0.140942
-0.117534
-0.112556
-0.102157
-0.102382
-0.0976191
-0.0993363
-0.0967604
-0.0973978
-0.0940524
-0.112467
-0.0939964
-0.0901414
-0.0819818
-0.0822831
-0.0785975
-0.0801002
-0.0781111
-0.078712
-0.0759587
-0.0819336
-0.0687233
-0.066056
-0.0602743
-0.0606395
-0.0580898
-0.0593412
-0.0579699
-0.0585161
-0.0564108
-0.0500591
-0.0422873
-0.0408265
-0.037491
-0.0378896
-0.0364952
-0.0374498
-0.0367042
-0.0371686
-0.0357524
-0.0171762
-0.014973
-0.0147354
-0.0138948
-0.014304
-0.0140772
-0.0146984
-0.014583
-0.0149424
-0.0142532
0.0159524
0.0126037
0.0116454
0.0100125
0.00962949
0.00871402
0.00846767
0.00796995
0.0077451
0.00768699
0.0489641
0.0401269
0.0379998
0.0339319
0.0336001
0.0315719
0.0317279
0.0306354
0.0305667
0.0297476
0.0810886
0.066967
0.0637377
0.0573395
0.0570937
0.054016
0.054602
0.052952
0.0530634
0.0514896
0.111972
0.0928085
0.0885398
0.0799274
0.0797865
0.0757225
0.0767474
0.0745752
0.0748782
0.072564
0.140875
0.117041
0.11183
0.101179
0.101168
0.0962093
0.0976786
0.0950358
0.0955427
0.0925218
0.167491
0.139385
0.13332
0.12081
0.120935
0.115169
0.117066
0.114
0.114709
0.111022
0.191153
0.159284
0.152483
0.138346
0.138614
0.132152
0.134457
0.131028
0.131937
0.127646
0.211639
0.176527
0.169094
0.153557
0.153958
0.146902
0.149569
0.145831
0.146921
0.142094
0.228387
0.190645
0.182712
0.166045
0.16657
0.159039
0.162019
0.158035
0.159284
0.15401
0.241294
0.201527
0.193207
0.17567
0.176289
0.168394
0.171614
0.167439
0.168809
0.163183
0.249931
0.208821
0.200249
0.182136
0.182826
0.174691
0.178079
0.173779
0.175231
0.169364
0.25434
0.212537
0.20383
0.185417
0.186138
0.177875
0.181343
0.176971
0.178461
0.17246
0.254244
0.212457
0.203753
0.185344
0.186063
0.177798
0.181263
0.176885
0.178368
0.172352
0.249838
0.208728
0.200145
0.182017
0.182691
0.174536
0.177905
0.173576
0.175002
0.169084
0.241008
0.201272
0.192945
0.175399
0.175997
0.168077
0.171268
0.167053
0.16838
0.162678
0.228104
0.190373
0.182417
0.165721
0.166205
0.158629
0.161559
0.157511
0.158695
0.153317
0.211164
0.176087
0.168634
0.15307
0.153422
0.146311
0.148913
0.145097
0.146101
0.141154
0.190684
0.158823
0.151982
0.137793
0.137989
0.131449
0.133662
0.130131
0.130927
0.126499
0.166835
0.138755
0.132648
0.120085
0.120124
0.11427
0.116054
0.112871
0.113445
0.109617
0.140232
0.116394
0.111118
0.100386
0.100264
0.0951897
0.0965152
0.0937317
0.0940739
0.090905
0.111155
0.0919989
0.0876614
0.0789659
0.0786985
0.0745076
0.0753657
0.0730395
0.0731564
0.0706986
0.0803047
0.066154
0.0628323
0.0563235
0.0559256
0.0526956
0.0530846
0.0512595
0.0511563
0.0494413
0.0480291
0.039173
0.0369505
0.0327706
0.032275
0.0300863
0.0300268
0.0287503
0.0284495
0.027499
0.0150787
0.0116746
0.0105996
0.00883067
0.00826405
0.00716811
0.00668441
0.00598791
0.00551196
0.00532608
-0.0181686
-0.0160091
-0.0158868
-0.0151785
-0.0157748
-0.0157289
-0.0165942
-0.0166786
-0.0172946
-0.0167256
-0.0509538
-0.043259
-0.0419296
-0.0387437
-0.0393393
-0.0381364
-0.0393427
-0.0388023
-0.0395278
-0.0382321
-0.0829095
-0.0697596
-0.0672154
-0.061572
-0.0621267
-0.0597589
-0.0612534
-0.0600785
-0.0608754
-0.0588863
-0.113306
-0.0949235
-0.0912005
-0.0831883
-0.083678
-0.0801746
-0.0819127
-0.0801156
-0.0809566
-0.0783208
-0.141825
-0.118482
-0.11362
-0.103349
-0.103744
-0.099144
-0.101075
-0.0986735
-0.0995295
-0.0962951
-0.167799
-0.139905
-0.133989
-0.121638
-0.121927
-0.116308
-0.118393
-0.115427
-0.11628
-0.112508
-0.19099
-0.158995
-0.152112
-0.137876
-0.138047
-0.131495
-0.133691
-0.130205
-0.131034
-0.126788
-0.210824
-0.1753
-0.167582
-0.15172
-0.151778
-0.144415
-0.146692
-0.142751
-0.143548
-0.138899
-0.227167
-0.188714
-0.180288
-0.163068
-0.163016
-0.15497
-0.157297
-0.152971
-0.153726
-0.148748
-0.239559
-0.198873
-0.189909
-0.171653
-0.171514
-0.162943
-0.165301
-0.160677
-0.161395
-0.156167
-0.247995
-0.205775
-0.19643
-0.177457
-0.177246
-0.168309
-0.170678
-0.165842
-0.166527
-0.161122
-0.252135
-0.209154
-0.199623
-0.180292
-0.180043
-0.170918
-0.173287
-0.168341
-0.169004
-0.163506
)
;

boundaryField
{
    out
    {
        type            implicitExtrapolation;
    }
    in
    {
        type            implicitExtrapolation;
    }
    frontAndBack
    {
        type            empty;
    }
}


// ************************************************************************* //
