/*--------------------------------*- C++ -*----------------------------------*\
| =========                 |                                                 |
| \\      /  F ield         | foam-extend: Open Source CFD                    |
|  \\    /   O peration     | Version:  3.0                                   |
|   \\  /    A nd           | Web:         http://www.extend-project.de       |
|    \\/     M anipulation  |                                                 |
\*---------------------------------------------------------------------------*/
FoamFile
{
    version     2.0;
    format      ascii;
    class       volSymmTensorField;
    location    "8";
    object      sigma;
}
// * * * * * * * * * * * * * * * * * * * * * * * * * * * * * * * * * * * * * //

dimensions      [0 0 0 0 0 0 0];

internalField   nonuniform List<symmTensor> 
480
(
(-0.166341 -0.0127761 2.22467e-20 0.166098 -3.98106e-21 0.000243327)
(-0.149588 -0.0141057 1.02993e-19 0.148988 -3.48119e-20 0.000600015)
(-0.127824 -0.0133176 1.01176e-19 0.126935 1.75657e-19 0.000888556)
(-0.106508 -0.0118633 -7.50264e-20 0.105397 1.23462e-19 0.00111147)
(-0.0873072 -0.0102734 1.10497e-19 0.0860443 -1.979e-19 0.00126287)
(-0.0706113 -0.00876663 3.86131e-19 0.0692843 -8.18559e-20 0.00132704)
(-0.0564405 -0.00741415 3.77286e-19 0.0551542 -1.7385e-19 0.00128625)
(-0.0449157 -0.00628736 3.63092e-20 0.0437999 -3.91358e-20 0.0011158)
(-0.036025 -0.00538397 4.61909e-19 0.0352287 -6.87361e-19 0.000796264)
(-0.0303076 -0.00471963 5.16958e-20 0.0299991 -1.70621e-19 0.00030852)
(-0.161832 -0.0369197 4.38297e-23 0.161605 -1.26482e-20 0.00022709)
(-0.14274 -0.0407159 1.56574e-19 0.14218 -1.14766e-19 0.000559885)
(-0.120579 -0.0384333 3.46987e-19 0.119751 -1.85733e-19 0.000828742)
(-0.0995816 -0.0342537 -2.55716e-20 0.0985455 -1.60426e-19 0.0010361)
(-0.0809431 -0.029712 -2.16329e-19 0.0797667 -1.96849e-19 0.0011764)
(-0.064845 -0.0254432 2.12628e-19 0.0636099 -1.5243e-20 0.00123515)
(-0.0512326 -0.0216624 3.21551e-19 0.0500368 -2.16265e-19 0.0011958)
(-0.0401577 -0.0185832 8.65239e-20 0.0391219 -1.66825e-19 0.00103579)
(-0.0316119 -0.0162166 -5.32432e-19 0.0308743 -4.93909e-19 0.000737604)
(-0.0260686 -0.0148041 1.275e-19 0.0257839 2.80801e-19 0.000284791)
(-0.153231 -0.0594879 -5.30195e-20 0.153025 -4.6134e-20 0.0002056)
(-0.129857 -0.0641946 -5.24674e-21 0.12935 -2.51972e-19 0.00050699)
(-0.107006 -0.0600181 1.97441e-20 0.106256 -2.19878e-19 0.000750299)
(-0.0866321 -0.0531543 -1.4143e-19 0.0856946 -2.5913e-20 0.000937487)
(-0.0690624 -0.0458653 -1.87313e-19 0.067999 3.45541e-19 0.00106341)
(-0.0540899 -0.0390755 3.65266e-19 0.052975 1.36075e-19 0.00111494)
(-0.0415204 -0.0330987 9.10687e-20 0.040443 -3.48994e-20 0.00107737)
(-0.0312777 -0.0282479 -1.6614e-19 0.0303469 -1.23187e-19 0.00093086)
(-0.0233553 -0.0245501 -1.49449e-19 0.0226947 5.91616e-19 0.000660603)
(-0.0180878 -0.0224187 6.33631e-19 0.0178342 -4.5713e-19 0.000253621)
(-0.141166 -0.0796422 -1.6286e-19 0.140987 -1.49464e-20 0.00017991)
(-0.112377 -0.0829334 -4.19722e-19 0.111934 2.23321e-19 0.000443625)
(-0.0887678 -0.0762706 2.82964e-20 0.0881117 3.25105e-19 0.000656057)
(-0.069325 -0.0667891 2.38096e-19 0.0685063 2.85566e-19 0.0008187)
(-0.0532466 -0.0570633 8.70124e-20 0.0523196 4.0543e-19 0.000926963)
(-0.0398231 -0.0481168 1.41302e-19 0.0388536 -1.06083e-19 0.000969529)
(-0.0286784 -0.0402935 2.60626e-19 0.0277445 -8.25673e-20 0.000933885)
(-0.0195718 -0.0339416 3.64271e-19 0.0187681 -4.97839e-21 0.000803641)
(-0.0124926 -0.0291087 2.05227e-19 0.0119254 -5.99225e-19 0.000567208)
(-0.00759763 -0.0263027 -8.92201e-19 0.00738176 8.83092e-20 0.000215871)
(-0.126463 -0.0968124 3.42497e-20 0.126312 -2.0233e-20 0.000150605)
(-0.0921852 -0.0959656 -3.37991e-19 0.091814 5.5743e-19 0.000371254)
(-0.068045 -0.0861371 -2.56183e-19 0.0674967 5.93648e-19 0.000548283)
(-0.0498447 -0.0741328 -1.95043e-20 0.049162 4.05549e-19 0.000682685)
(-0.035572 -0.06235 4.20449e-19 0.0348015 -1.25286e-19 0.000770581)
(-0.0239859 -0.0516883 4.13739e-20 0.0231832 -5.34977e-19 0.000802755)
(-0.0145152 -0.0424393 4.89035e-19 0.0137459 -8.8288e-19 0.000769285)
(-0.00674604 -0.0349128 -2.48628e-19 0.00608834 -7.3324e-19 0.000657703)
(-0.00065492 -0.0291765 -1.84577e-19 0.000194795 -7.09915e-19 0.000460125)
(0.0037821 -0.0257549 5.22515e-19 -0.00395476 3.0948e-19 0.000172658)
(-0.110024 -0.11074 7.49658e-20 0.109906 1.64119e-19 0.00011839)
(-0.0713363 -0.103081 3.5409e-19 0.0710446 3.82187e-19 0.000291649)
(-0.0472161 -0.0894471 3.22646e-19 0.0467864 3.06127e-19 0.000429675)
(-0.030573 -0.0750485 2.01093e-19 0.03004 -5.91253e-20 0.000532944)
(-0.0183036 -0.061616 -5.15968e-20 0.0177052 -7.44688e-19 0.000598401)
(-0.00869612 -0.0497039 -5.35323e-19 0.00807693 -1.09186e-18 0.000619185)
(-0.00100495 -0.0394683 -1.11676e-18 0.000416725 -5.54715e-19 0.000588222)
(0.00533545 -0.0311088 1.1366e-19 -0.00583279 -4.65681e-19 0.000497347)
(0.0103708 -0.0247089 -1.09519e-18 -0.0107135 -2.96671e-19 0.00034266)
(0.0142766 -0.0207385 4.89971e-19 -0.0144019 -3.92849e-19 0.000125397)
(-0.0927159 -0.121476 -3.56598e-20 0.0926319 2.32711e-19 8.40503e-05)
(-0.0517593 -0.104826 6.05271e-19 0.0515526 4.38197e-20 0.000206778)
(-0.0285069 -0.0869172 8.35791e-19 0.0282037 -2.87634e-19 0.000303233)
(-0.013738 -0.0702927 6.55689e-19 0.0133646 -7.62384e-19 0.000373366)
(-0.00355978 -0.055605 -3.84805e-19 0.00314475 -9.0495e-19 0.000415029)
(0.00406506 -0.0428781 -9.92091e-19 -0.00448893 -5.57684e-19 0.000423872)
(0.0100043 -0.0320618 -1.22347e-18 -0.0104002 2.22459e-19 0.00039584)
(0.0149262 -0.0231861 -6.71692e-19 -0.0152535 -3.71364e-19 0.000327265)
(0.0189073 -0.0163404 -1.57268e-18 -0.0191257 3.05716e-19 0.000218375)
(0.0222194 -0.0118939 2.45103e-19 -0.0222949 -1.38083e-19 7.55665e-05)
(-0.0752532 -0.129325 9.72576e-20 0.0752048 -1.69497e-20 4.84149e-05)
(-0.0349827 -0.102391 2.81437e-19 0.034864 -2.17595e-19 0.000118717)
(-0.0136688 -0.0800205 2.12925e-19 0.0134967 -4.08835e-19 0.000172115)
(-0.00108822 -0.0613866 -8.87849e-20 0.000880176 -5.01615e-19 0.000208041)
(0.00699853 -0.0457924 -6.40562e-19 -0.00722383 -2.3227e-19 0.000225299)
(0.0127453 -0.0326141 -6.32483e-19 -0.0129674 5.37279e-20 0.000222127)
(0.0170644 -0.0215463 -5.0827e-19 -0.0172619 1.52892e-19 0.000197536)
(0.0206582 -0.0124139 -5.56215e-19 -0.0208106 1.76844e-19 0.000152394)
(0.0236369 -0.00529775 -3.347e-19 -0.0237279 -7.58458e-20 9.09966e-05)
(0.0263013 -0.000453376 -1.10494e-18 -0.026326 1.33222e-19 2.47253e-05)
(-0.0581276 -0.134763 -2.69447e-20 0.0581153 -6.85679e-20 1.23246e-05)
(-0.0219258 -0.097398 -2.50697e-19 0.0218963 -1.58991e-19 2.95728e-05)
(-0.00373048 -0.0707433 -4.65397e-19 0.00369096 -1.09575e-19 3.9528e-05)
(0.00636 -0.0503719 -3.85758e-19 -0.00640112 5.1702e-20 4.1118e-05)
(0.0124114 -0.0341542 -4.57918e-21 -0.0124455 4.01704e-20 3.41097e-05)
(0.0164517 -0.020787 -3.84137e-19 -0.016471 3.04187e-20 1.93108e-05)
(0.0193445 -0.00969372 -3.1593e-19 -0.0193432 6.24311e-20 -1.25396e-06)
(0.0217485 -0.000487069 -3.11026e-19 -0.0217262 1.99586e-19 -2.23309e-05)
(0.0238042 0.00677654 -6.03339e-20 -0.0237685 -7.68571e-20 -3.57578e-05)
(0.0257806 0.0119361 -5.79752e-19 -0.025755 3.18346e-19 -2.55809e-05)
(-0.0415721 -0.138328 -4.54975e-20 0.0415955 -4.84357e-20 -2.34033e-05)
(-0.0127892 -0.0916339 -1.32719e-19 0.0128478 -1.66356e-19 -5.86048e-05)
(0.00113758 -0.0612664 -6.7543e-19 -0.00104616 -3.31142e-20 -9.14218e-05)
(0.00846225 -0.0394904 -6.10681e-19 -0.00833886 1.47461e-19 -0.000123393)
(0.0125564 -0.0228611 -3.98965e-19 -0.0124025 2.0272e-19 -0.000153818)
(0.0150812 -0.0094592 -2.81648e-20 -0.0149018 1.36875e-19 -0.000179417)
(0.0167561 0.00154478 -3.15681e-19 -0.0165608 1.39843e-19 -0.00019532)
(0.0181205 0.010727 1.40358e-20 -0.0179283 3.52951e-19 -0.000192179)
(0.0193345 0.0180702 5.54828e-19 -0.0191761 4.25968e-20 -0.000158347)
(0.0205947 0.0234616 -1.11464e-19 -0.0205208 -2.71802e-20 -7.389e-05)
(-0.0255722 -0.140508 -5.14545e-20 0.0256302 -3.1045e-20 -5.79945e-05)
(-0.00705671 -0.0867553 -8.85231e-20 0.00720059 -1.08964e-19 -0.000143881)
(0.00162542 -0.0536199 -3.50972e-19 -0.00140762 -1.27602e-20 -0.000217801)
(0.00595237 -0.0308333 -2.49527e-19 -0.00567065 1.18621e-19 -0.00028172)
(0.00815737 -0.0139432 -2.53128e-19 -0.00782331 1.17822e-19 -0.000334057)
(0.00933159 -0.000562577 -4.14482e-19 -0.00896235 9.16765e-20 -0.000369243)
(0.00996591 0.0103366 -3.89708e-19 -0.0095861 1.86664e-19 -0.000379809)
(0.0104186 0.01947 -8.46001e-20 -0.0100658 3.1288e-19 -0.000352765)
(0.0108514 0.0268677 4.25585e-19 -0.010578 6.27282e-20 -0.000273475)
(0.0113772 0.0324066 -3.70149e-20 -0.0112584 -2.274e-20 -0.000118834)
(-0.00991977 -0.141654 -7.08521e-20 0.0100105 -1.56351e-20 -9.07467e-05)
(-0.0036106 -0.084025 -1.26849e-19 0.0038351 -7.33056e-20 -0.000224499)
(-0.000846088 -0.0493639 -2.6751e-19 0.00118306 -1.30615e-20 -0.000336968)
(0.000314597 -0.0260159 -3.54499e-19 0.000115886 1.11137e-19 -0.000430483)
(0.000665648 -0.00897503 -3.42105e-19 -0.000162978 1.06575e-19 -0.000502671)
(0.000592197 0.00439837 -3.26692e-19 -4.62868e-05 9.15408e-20 -0.00054591)
(0.000296318 0.0152484 -1.51032e-19 0.000254157 1.68822e-19 -0.000550475)
(-8.39105e-05 0.0243603 -9.11529e-20 0.000584192 2.7004e-19 -0.000500282)
(-0.000406618 0.031813 3.05224e-19 0.000784952 1.10517e-19 -0.000378334)
(-0.000622898 0.0374147 1.52304e-19 0.000782182 -3.15453e-20 -0.000159284)
(0.00570347 -0.141914 -6.75982e-20 -0.00558243 -3.8287e-21 -0.000121039)
(-0.00093815 -0.0841116 -1.91823e-19 0.00123707 -5.90974e-20 -0.000298923)
(-0.00436753 -0.0493447 -1.55997e-19 0.00481415 -2.12572e-20 -0.000446618)
(-0.00645991 -0.0259256 -2.9463e-19 0.00702667 1.07628e-19 -0.000566761)
(-0.00797199 -0.00883088 -3.92625e-19 0.00862828 1.06915e-19 -0.000656285)
(-0.00927282 0.00458059 -2.76695e-19 0.00997864 7.33437e-20 -0.000705816)
(-0.010476 0.0154688 2.46256e-21 0.0111798 1.18824e-19 -0.00070375)
(-0.011674 0.0246094 -1.42635e-19 0.0123056 2.13996e-19 -0.000631568)
(-0.0127664 0.0321197 1.04936e-19 0.0132369 9.69087e-20 -0.000470598)
(-0.01372 0.0376977 1.82977e-19 0.0139143 -3.19789e-20 -0.0001943)
(0.0216273 -0.141213 -8.14225e-20 -0.0214789 1.14946e-20 -0.000148355)
(0.00260135 -0.0869864 -2.31628e-19 -0.00223548 -4.86934e-20 -0.000365872)
(-0.006858 -0.0535622 -3.73651e-21 0.00740286 -3.62809e-20 -0.000544859)
(-0.0121946 -0.0305826 -2.26916e-20 0.0128828 1.0381e-19 -0.000688188)
(-0.0156216 -0.0135465 -4.98426e-19 0.0164138 9.73745e-20 -0.000792219)
(-0.018215 -6.33509e-05 -3.0414e-19 0.0190612 5.67322e-20 -0.000846146)
(-0.0203929 0.0109382 -2.15337e-19 0.0212299 5.09374e-20 -0.000836919)
(-0.0224582 0.0201479 2.13827e-19 0.0232024 1.57287e-19 -0.000744274)
(-0.0243677 0.0277007 -3.73003e-19 0.0249163 6.55024e-20 -0.000548599)
(-0.0260404 0.0331729 7.32912e-20 0.0262637 -5.68367e-21 -0.000223244)
(0.0380961 -0.139274 -2.9413e-20 -0.0379238 4.59138e-20 -0.000172282)
(0.00849163 -0.0919312 -2.65116e-19 -0.00806728 -1.07923e-20 -0.000424344)
(-0.00640839 -0.0611709 -3.67299e-19 0.00703862 -8.51764e-20 -0.00063023)
(-0.0148788 -0.0391344 -2.61622e-19 0.0156717 1.47385e-20 -0.000792979)
(-0.020301 -0.0223097 -3.75893e-19 0.0212095 7.00717e-20 -0.000908499)
(-0.0243232 -0.00877247 -8.71624e-20 0.0252881 6.34296e-20 -0.0009649)
(-0.0276187 0.00236607 -1.57199e-19 0.0285668 5.61338e-20 -0.000948118)
(-0.030654 0.0116463 -3.02743e-20 0.0314909 5.99874e-20 -0.000836861)
(-0.0334482 0.0191936 -1.78783e-19 0.0340595 -5.29907e-20 -0.000611301)
(-0.0358098 0.0244826 3.61563e-19 0.0360556 1.29858e-20 -0.000245742)
(0.0551895 -0.135673 -3.80649e-20 -0.054997 5.74306e-20 -0.000192522)
(0.0178006 -0.0976553 -4.35828e-19 -0.017327 -4.51558e-20 -0.000473626)
(-0.00159789 -0.0706119 -1.21603e-19 0.00229961 -1.02793e-19 -0.000701726)
(-0.0129933 -0.0499871 1.29802e-19 0.0138733 -1.35799e-20 -0.00087996)
(-0.0204969 -0.0335823 1.64868e-19 0.0215008 2.11066e-19 -0.00100391)
(-0.0261255 -0.0200898 -2.59363e-19 0.0271864 1.69132e-19 -0.00106094)
(-0.0307274 -0.00887328 -2.69875e-19 0.0317639 -8.60771e-20 -0.00103641)
(-0.0348675 0.00041773 2.69223e-20 0.0357762 -1.14601e-19 -0.000908677)
(-0.0386189 0.00787043 4.65507e-20 0.0392773 5.01826e-21 -0.000658387)
(-0.0416351 0.012909 -6.70724e-19 0.0418968 9.46351e-20 -0.000261754)
(0.072773 -0.129918 5.13895e-20 -0.0725641 -3.14948e-20 -0.000208886)
(0.030987 -0.102503 2.33716e-19 -0.0304737 1.07781e-19 -0.000513282)
(0.00826442 -0.0798574 1.78623e-19 -0.00750564 1.25564e-19 -0.000758776)
(-0.00576304 -0.0610517 5.90514e-20 0.00671158 1.07586e-19 -0.000948535)
(-0.0154121 -0.0453367 6.96016e-20 0.0164901 1.79965e-19 -0.00107793)
(-0.0228272 -0.032085 -5.32614e-19 0.0239611 2.27697e-19 -0.00113392)
(-0.028932 -0.0209478 -7.62608e-19 0.0300336 -3.02344e-19 -0.00110167)
(-0.0343152 -0.0117783 -4.06947e-19 0.0352751 1.83518e-19 -0.000959826)
(-0.0390825 -0.00455127 -1.39438e-18 0.0397726 -5.87776e-19 -0.000690107)
(-0.042718 0.000172683 8.95836e-19 0.0429894 2.22256e-20 -0.000271468)
(0.0904839 -0.121546 -1.03796e-19 -0.0902626 -2.95746e-19 -0.00022129)
(0.0478016 -0.10472 5.03572e-19 -0.0472584 -1.24796e-19 -0.000543148)
(0.0230103 -0.0867297 5.54439e-19 -0.022209 7.23666e-20 -0.000801225)
(0.00670518 -0.0700698 3.917e-19 -0.00570652 3.8053e-19 -0.000998655)
(-0.00510421 -0.0553692 -4.67211e-19 0.00623492 3.38752e-19 -0.00113071)
(-0.0144462 -0.0426508 -8.342e-19 0.0156305 5.10265e-19 -0.00118423)
(-0.0222153 -0.0318486 -1.47452e-18 0.0233598 4.04834e-21 -0.00114455)
(-0.028952 -0.0230052 -1.62607e-19 0.0299432 -7.49382e-20 -0.000991145)
(-0.0347635 -0.0161694 -1.17242e-18 0.0354708 2.56288e-19 -0.0007073)
(-0.0389842 -0.0118247 -4.19908e-19 0.0392596 -6.23343e-19 -0.000275344)
(0.107754 -0.11021 -2.67839e-20 -0.107524 -1.87871e-19 -0.000229741)
(0.0672983 -0.102734 3.33266e-20 -0.066735 -4.18964e-19 -0.000563286)
(0.0416153 -0.0892452 -4.91235e-20 -0.040786 -4.90657e-19 -0.000829266)
(0.0234203 -0.0749676 -1.13623e-19 -0.0223896 -1.70683e-19 -0.00103073)
(0.00950853 -0.0616442 -5.52177e-19 -0.0083456 2.99563e-19 -0.00116294)
(-0.00182231 -0.0498308 -4.4621e-19 0.00303516 4.47901e-19 -0.00121286)
(-0.0113431 -0.0397013 1.63863e-19 0.0125094 7.70293e-19 -0.00116631)
(-0.019487 -0.0314486 -3.77607e-19 0.020491 4.49281e-19 -0.00100401)
(-0.0263277 -0.0251931 -4.28669e-19 0.0270389 1.05167e-18 -0.000711168)
(-0.0310923 -0.0212958 -5.13129e-19 0.0313662 -6.36487e-19 -0.000273959)
(0.123865 -0.095754 -9.96463e-21 -0.123631 3.18534e-20 -0.000234329)
(0.0879524 -0.0954155 -5.11791e-19 -0.0873784 -3.00929e-19 -0.000573961)
(0.0623343 -0.085933 -8.263e-19 -0.0614909 -6.28419e-19 -0.000843399)
(0.0426411 -0.0741862 -5.65454e-19 -0.0415956 -5.28227e-19 -0.00104555)
(0.026773 -0.0626168 9.64721e-20 -0.0255973 1.74935e-19 -0.00117575)
(0.0135002 -0.0521296 4.95316e-19 -0.0122789 3.56268e-19 -0.0012213)
(0.00224356 -0.0430621 5.81107e-19 -0.00107484 4.61303e-19 -0.00116872)
(-0.00728285 -0.0357009 4.09848e-19 0.00828312 3.66715e-19 -0.00100027)
(-0.0150881 -0.0302185 4.47862e-19 0.0157914 1.19268e-18 -0.000703334)
(-0.0203446 -0.0268343 -9.75034e-19 0.0206127 1.12202e-19 -0.000268102)
(0.138026 -0.0782606 -1.4737e-19 -0.137791 4.10019e-20 -0.0002352)
(0.107868 -0.0822688 -5.30791e-19 -0.107292 1.12911e-19 -0.000575582)
(0.082948 -0.0760766 -5.84975e-19 -0.0821037 -1.27591e-19 -0.000844333)
(0.0621271 -0.0669337 1.67201e-19 -0.0610829 -2.19888e-19 -0.00104418)
(0.0445426 -0.0574812 7.80602e-19 -0.043372 1.75955e-21 -0.00117057)
(0.0294993 -0.04875 3.42431e-19 -0.0282879 2.81969e-19 -0.00121133)
(0.016643 -0.0411472 2.85636e-19 -0.0154892 8.96063e-21 -0.00115382)
(0.00584901 -0.0349861 6.58065e-19 -0.004867 2.45372e-19 -0.00098201)
(-0.00280814 -0.0304595 3.57525e-19 0.00349367 4.80524e-19 -0.000685533)
(-0.00850034 -0.0276509 2.74014e-19 0.00875891 7.12308e-19 -0.00025857)
(0.149459 -0.0580666 -2.31501e-20 -0.149227 1.19588e-19 -0.000232551)
(0.125044 -0.0635326 -1.5538e-19 -0.124475 4.63934e-19 -0.00056867)
(0.101085 -0.0598439 -3.02365e-19 -0.100252 5.09822e-19 -0.000832934)
(0.0794694 -0.0533241 1.24174e-19 -0.0784416 2.70556e-19 -0.00102785)
(0.0604983 -0.0463079 2.6929e-19 -0.0593492 -2.20718e-19 -0.00114903)
(0.0439821 -0.0397282 4.59944e-19 -0.0427972 -2.37066e-19 -0.00118492)
(0.0297838 -0.0339633 2.44316e-19 -0.02866 -2.06246e-19 -0.00112379)
(0.017927 -0.0292884 1.1089e-18 -0.0169756 -3.06034e-19 -0.000951409)
(0.00857348 -0.0258766 9.18911e-19 -0.0079139 9.139e-20 -0.00065958)
(0.00251012 -0.0237045 -9.32783e-20 -0.00226392 2.18806e-19 -0.000246201)
(0.157493 -0.0357474 2.34843e-20 -0.157267 8.43775e-20 -0.000226596)
(0.137658 -0.0401717 1.72996e-20 -0.137104 2.45621e-19 -0.000553796)
(0.11457 -0.0382841 7.76299e-20 -0.11376 4.9464e-19 -0.000810125)
(0.092449 -0.0343777 2.84279e-19 -0.0914511 2.96172e-19 -0.00099784)
(0.0724975 -0.0300484 1.07584e-19 -0.0713848 1.21444e-19 -0.00111276)
(0.0549179 -0.0259401 -1.43247e-19 -0.0537739 -1.2109e-19 -0.00114398)
(0.0397431 -0.0223165 2.22029e-19 -0.0386623 2.81451e-20 -0.00108074)
(0.0271093 -0.0193607 6.49299e-19 -0.0261988 -3.41957e-19 -0.00091053)
(0.0172493 -0.0171897 5.43804e-19 -0.0166221 -3.95713e-19 -0.000627142)
(0.0108901 -0.0157161 6.20091e-20 -0.0106584 9.60786e-20 -0.000231742)
(0.161633 -0.0120712 3.03783e-20 -0.161416 3.1157e-20 -0.000217572)
(0.144328 -0.0137622 5.64449e-20 -0.143796 4.69843e-20 -0.000531557)
(0.121744 -0.0131929 2.33356e-20 -0.120967 2.34974e-19 -0.000776846)
(0.0993697 -0.0118839 3.09841e-20 -0.0984142 1.15917e-20 -0.00095543)
(0.0788999 -0.0104025 1.60644e-19 -0.0778366 -9.23746e-20 -0.00106332)
(0.0607495 -0.00897538 2.79373e-19 -0.0596591 1.37477e-19 -0.00109033)
(0.0450448 -0.00769364 3.94275e-19 -0.0440182 2.31158e-19 -0.00102661)
(0.0319814 -0.00661353 4.38943e-19 -0.0311202 -1.22997e-19 -0.000861228)
(0.0218326 -0.00576892 6.13125e-19 -0.0212429 -2.75815e-19 -0.0005897)
(0.0152717 -0.00504753 5.76041e-20 -0.0150559 1.62502e-19 -0.000215855)
(0.16162 0.0120699 2.34961e-20 -0.161414 -3.36383e-21 -0.000205702)
(0.144308 0.0137127 1.07243e-19 -0.143806 -3.42303e-20 -0.000502522)
(0.121709 0.0131359 1.04473e-19 -0.120975 1.80583e-19 -0.000733972)
(0.0993137 0.011853 -7.43486e-20 -0.0984119 1.27664e-19 -0.000901762)
(0.0788174 0.0104283 1.19861e-19 -0.0778153 -2.06612e-19 -0.0010021)
(0.0606344 0.00909713 4.08021e-19 -0.0596089 -8.73686e-20 -0.00102551)
(0.0448911 0.00796153 3.89959e-19 -0.0439281 -1.87958e-19 -0.000962998)
(0.0317805 0.00710348 4.26611e-20 -0.0309755 -4.05493e-20 -0.000805007)
(0.0215761 0.0065823 4.91886e-19 -0.0210277 -7.51324e-19 -0.000548431)
(0.0149227 0.00651169 3.8462e-20 -0.0147236 -1.94343e-19 -0.000199056)
(0.157456 0.0357419 7.86768e-22 -0.157265 -1.31819e-20 -0.000191208)
(0.137599 0.0401277 1.62061e-19 -0.137132 -1.16992e-19 -0.000467232)
(0.114465 0.038233 3.53226e-19 -0.113783 -1.91583e-19 -0.000682305)
(0.0922803 0.0343472 -3.0874e-20 -0.0914424 -1.67966e-19 -0.000837845)
(0.0722504 0.0300654 -2.18437e-19 -0.0713202 -2.03261e-19 -0.000930255)
(0.0545752 0.0260395 2.24022e-19 -0.0536245 -1.71037e-20 -0.000950752)
(0.0392869 0.0225441 3.41066e-19 -0.0383957 -2.32272e-19 -0.000891125)
(0.0265146 0.0197855 6.57383e-20 -0.0257716 -1.87823e-19 -0.000742951)
(0.0164912 0.0179074 -5.51631e-19 -0.015987 -5.35609e-19 -0.000504133)
(0.00986249 0.0170264 1.42431e-19 -0.00968082 2.9614e-19 -0.000181666)
(0.149406 0.0580565 -5.33643e-20 -0.149232 -4.77206e-20 -0.000174289)
(0.124944 0.0634996 -2.94344e-21 -0.124518 -2.57284e-19 -0.000426163)
(0.100907 0.0598026 2.29464e-20 -0.100284 -2.25773e-19 -0.000622525)
(0.0791862 0.0532924 -1.4495e-19 -0.0784217 -2.78964e-20 -0.000764493)
(0.0600884 0.0463053 -1.88002e-19 -0.0592397 3.60903e-19 -0.000848662)
(0.0434196 0.0397814 3.73156e-19 -0.0425527 1.40631e-19 -0.000866929)
(0.0290403 0.0341097 8.78939e-20 -0.0282286 -3.93053e-20 -0.000811779)
(0.0169639 0.029584 -1.91031e-19 -0.0162882 -1.41852e-19 -0.000675696)
(0.00734942 0.0264057 -1.4461e-19 -0.0068922 6.31766e-19 -0.000457223)
(0.000863502 0.0247153 6.41305e-19 -0.00069967 -4.9438e-19 -0.000163832)
(0.137965 0.0782517 -1.64594e-19 -0.13781 -1.59889e-20 -0.000155131)
(0.107726 0.0822519 -4.1959e-19 -0.107346 2.24688e-19 -0.000379749)
(0.0826912 0.0760463 3.30061e-20 -0.082136 3.29428e-19 -0.00055522)
(0.0617278 0.0668954 2.43235e-19 -0.0610454 2.89671e-19 -0.000682359)
(0.0439745 0.057445 8.58412e-20 -0.0432165 4.15783e-19 -0.000757954)
(0.0287307 0.0487316 1.40893e-19 -0.0279562 -1.10707e-19 -0.000774578)
(0.015638 0.0411727 2.61071e-19 -0.0149126 -8.73307e-20 -0.000725348)
(0.00455974 0.0350941 3.64228e-19 -0.00395629 -1.45659e-20 -0.000603452)
(-0.00443654 0.0307164 1.73442e-19 0.00484428 -6.39847e-19 -0.000407746)
(-0.0106643 0.0282354 -8.87686e-19 0.0108098 8.33364e-20 -0.000145512)
(0.123803 0.0957585 3.30169e-20 -0.123669 -1.99975e-20 -0.000133905)
(0.0877632 0.0954185 -3.39548e-19 -0.0874348 5.61786e-19 -0.000328372)
(0.0619951 0.0859109 -2.54812e-19 -0.0615143 5.98359e-19 -0.00048088)
(0.0421268 0.074132 -1.31806e-20 -0.0415349 4.07658e-19 -0.000591936)
(0.0260566 0.0625305 4.29179e-19 -0.025398 -1.35161e-19 -0.000658532)
(0.0125483 0.0520147 4.00354e-20 -0.0118743 -5.52704e-19 -0.000673936)
(0.00101569 0.0429308 4.91249e-19 -0.000383831 -9.10237e-19 -0.000631862)
(-0.00883777 0.0355712 -2.77277e-19 0.00936384 -7.74305e-19 -0.000526063)
(-0.0170355 0.0301332 -1.75165e-19 0.017391 -7.25752e-19 -0.000355454)
(-0.0228919 0.026897 5.01619e-19 0.0230184 3.42395e-19 -0.000126548)
(0.107689 0.110243 7.5921e-20 -0.107578 1.64025e-19 -0.000110781)
(0.0670567 0.102759 3.564e-19 -0.0667843 3.83149e-19 -0.0002724)
(0.0411916 0.0892246 3.27891e-19 -0.0407916 3.03328e-19 -0.000399954)
(0.0227967 0.0748848 2.09126e-19 -0.0223031 -6.9577e-20 -0.000493635)
(0.00866076 0.0614894 -4.73255e-20 -0.0081101 -7.63049e-19 -0.000550665)
(-0.00292561 0.0495959 -5.45923e-19 0.00349066 -1.1172e-18 -0.000565046)
(-0.0127431 0.0393832 -1.13756e-18 0.0132742 -5.56381e-19 -0.000531102)
(-0.0212326 0.0310453 9.73918e-20 0.0216757 -4.81089e-19 -0.000443088)
(-0.0284872 0.0247195 -1.12809e-18 0.028787 -2.65471e-19 -0.000299814)
(-0.0338596 0.0207823 4.94021e-19 0.0339662 -3.9003e-19 -0.000106627)
(0.0904061 0.121624 -3.42519e-20 -0.0903201 2.32271e-19 -8.59278e-05)
(0.0475009 0.104765 6.08215e-19 -0.0472887 4.35837e-20 -0.000212204)
(0.022503 0.0867008 8.39676e-19 -0.0221901 -2.91642e-19 -0.00031288)
(0.00598367 0.0699441 6.61698e-19 -0.00559583 -7.75336e-19 -0.000387834)
(-0.00605902 0.0551293 -3.83251e-19 0.00649357 -9.20989e-19 -0.00043455)
(-0.0156607 0.0422781 -1.0011e-18 0.0161085 -5.72335e-19 -0.000447841)
(-0.0237266 0.0313254 -1.2352e-18 0.0241493 2.22428e-19 -0.000422702)
(-0.0308016 0.0223108 -6.79158e-19 0.0311555 -3.73407e-19 -0.000353917)
(-0.0370155 0.0152897 -1.58043e-18 0.0372556 3.28848e-19 -0.000240144)
(-0.0418056 0.0107266 2.1322e-19 0.041891 -1.27195e-19 -8.53671e-05)
(0.0726643 0.13005 9.87052e-20 -0.0726048 -1.65471e-20 -5.9538e-05)
(0.030621 0.102562 2.84157e-19 -0.0304728 -2.15853e-19 -0.0001482)
(0.00767906 0.0798085 2.10903e-19 -0.0074589 -4.07958e-19 -0.000220159)
(-0.00656437 0.0608703 -9.44809e-20 0.00683935 -5.11449e-19 -0.00027498)
(-0.0164417 0.0450001 -6.38527e-19 0.0167521 -2.55323e-19 -0.000310457)
(-0.0241042 0.0315667 -6.29335e-19 0.0244265 3.11076e-20 -0.000322322)
(-0.0304863 0.0202166 -5.02298e-19 0.0307926 1.40283e-19 -0.000306349)
(-0.0361767 0.0107975 -5.5252e-19 0.0364347 1.56583e-19 -0.000257981)
(-0.0413016 0.00327788 -2.94197e-19 0.0414774 -6.76121e-20 -0.00017579)
(-0.0454252 -0.00182338 -1.11089e-18 0.0454876 1.19261e-19 -6.23951e-05)
(0.0550267 0.13586 -2.4132e-20 -0.0549949 -6.87935e-20 -3.18302e-05)
(0.0173651 0.0977188 -2.44489e-19 -0.0172842 -1.58251e-19 -8.08738e-05)
(-0.00225087 0.0705306 -4.65287e-19 0.00237327 -1.1229e-19 -0.000122403)
(-0.0138506 0.0497398 -3.9172e-19 0.0140062 3.11079e-20 -0.00015566)
(-0.0215633 0.033144 -3.22509e-21 0.0217421 1.18176e-20 -0.000178816)
(-0.0274121 0.0194287 -3.73524e-19 0.0276008 1.5025e-20 -0.000188655)
(-0.0322536 0.00794751 -3.13055e-19 0.0324355 5.11693e-20 -0.000181891)
(-0.036649 -0.00165668 -2.93667e-19 0.0368039 1.666e-19 -0.000154847)
(-0.0406849 -0.00948948 -9.56254e-21 0.0407911 -9.2301e-20 -0.000106183)
(-0.0440747 -0.0150377 -5.44525e-19 0.044112 2.89549e-19 -3.73524e-05)
(0.0378555 0.139507 -4.18495e-20 -0.0378524 -5.01046e-20 -3.06815e-06)
(0.00798615 0.0919852 -1.2224e-19 -0.00797533 -1.67505e-19 -1.08267e-05)
(-0.00711377 0.0610463 -6.65013e-19 0.00713417 -3.79299e-20 -2.03963e-05)
(-0.015764 0.0388167 -6.05946e-19 0.0157947 1.3123e-19 -3.06958e-05)
(-0.0213641 0.0217742 -4.10052e-19 0.0214045 1.81918e-19 -4.0345e-05)
(-0.0255671 0.00798485 -3.75097e-20 0.0256145 1.22346e-19 -4.73424e-05)
(-0.0290499 -0.00345452 -3.27424e-19 0.0290994 1.2376e-19 -4.95391e-05)
(-0.0322724 -0.0130924 -1.22862e-21 0.0323168 2.91176e-19 -4.44384e-05)
(-0.0352551 -0.0210812 5.77574e-19 0.0352862 1.8073e-20 -3.1069e-05)
(-0.0378491 -0.0269786 -9.0834e-20 0.0378592 -1.35918e-20 -1.00447e-05)
(0.02129 0.141469 -4.86655e-20 -0.0213165 -3.33445e-20 2.64342e-05)
(0.00203065 0.0870147 -8.17704e-20 -0.00209186 -1.12332e-19 6.12077e-05)
(-0.00759645 0.0533861 -3.39355e-19 0.00751159 -2.02154e-20 8.48617e-05)
(-0.0130776 0.0301963 -2.41648e-19 0.0129788 1.06514e-19 9.87977e-05)
(-0.0166418 0.0129278 -2.5085e-19 0.0165379 1.12616e-19 0.000103873)
(-0.0193676 -0.000822235 -4.229e-19 0.0192669 9.23756e-20 0.000100702)
(-0.0216711 -0.0121421 -3.8828e-19 0.021581 1.70087e-19 9.00731e-05)
(-0.0238457 -0.0217309 -1.0251e-19 0.0237728 2.6609e-19 7.29447e-05)
(-0.0258355 -0.0297535 4.08846e-19 0.0257859 3.96927e-20 4.9572e-05)
(-0.0275822 -0.0358918 -2.29869e-20 0.0275625 -2.48929e-20 1.9663e-05)
(0.0052592 0.142164 -6.92797e-20 -0.0053155 -1.7499e-20 5.6303e-05)
(-0.00156341 0.0840978 -1.24505e-19 0.00142907 -7.67059e-20 0.00013434)
(-0.00511693 0.0491125 -2.61786e-19 0.00492482 -1.67647e-20 0.000192118)
(-0.00731118 0.0254786 -3.55702e-19 0.00707982 1.05558e-19 0.000231354)
(-0.00891415 0.00815068 -3.47586e-19 0.00866184 9.71453e-20 0.000252305)
(-0.0102943 -0.00552664 -3.2045e-19 0.0100403 7.51597e-20 0.000254023)
(-0.0115577 -0.0167304 -1.33489e-19 0.011322 1.50648e-19 0.000235708)
(-0.0127846 -0.0262471 -9.24474e-20 0.0125882 2.37785e-19 0.000196394)
(-0.0138488 -0.0342207 2.9211e-19 0.0137136 7.84107e-20 0.000135219)
(-0.0147136 -0.040481 1.72011e-19 0.014662 -1.68455e-20 5.16209e-05)
(-0.0104703 0.141866 -6.72502e-20 0.0103842 -5.02595e-21 8.61042e-05)
(-0.00427424 0.0839547 -1.92103e-19 0.00406672 -6.33236e-20 0.000207518)
(-0.00158325 0.0490759 -1.51632e-19 0.0012834 -2.41156e-20 0.000299854)
(-0.000478488 0.0255216 -2.92496e-19 0.000113353 1.07923e-19 0.000365135)
(-0.000170746 0.00826093 -4.03995e-19 -0.000232199 9.8527e-20 0.000402945)
(-0.000270589 -0.00536165 -2.8319e-19 -0.000140029 5.2644e-20 0.000410618)
(-0.000563226 -0.0165055 -7.34593e-21 0.000177683 1.08111e-19 0.000385542)
(-0.000895938 -0.0259674 -1.44966e-19 0.000571493 2.1008e-19 0.000324445)
(-0.0010921 -0.0338448 4.68771e-20 0.000867167 6.81072e-20 0.000224937)
(-0.00106229 -0.0401014 1.66596e-19 0.000976765 -1.87144e-20 8.55271e-05)
(-0.0262169 0.140649 -8.23028e-20 0.0261015 1.08216e-20 0.000115345)
(-0.00773821 0.0866182 -2.34713e-19 0.00745868 -5.41047e-20 0.000279533)
(0.000922978 0.0532808 -7.88126e-21 -0.00132927 -4.17884e-20 0.000406292)
(0.005239 0.0303096 -2.8367e-20 -0.00573693 1.10218e-19 0.00049793)
(0.00744539 0.0132258 -5.09368e-19 -0.0079987 9.96398e-20 0.000553301)
(0.00864198 -0.000373352 -3.08709e-19 -0.00920987 4.64783e-20 0.000567887)
(0.00933585 -0.0115277 -2.3243e-19 -0.00987292 3.32141e-20 0.000537077)
(0.00990307 -0.0209648 2.01044e-19 -0.010358 1.81452e-19 0.00045495)
(0.0105431 -0.0287229 -4.24955e-19 -0.0108603 8.29941e-20 0.000317199)
(0.0114587 -0.0348516 8.72196e-20 -0.0115795 -1.95497e-20 0.000120784)
(-0.0422893 0.13837 -3.10413e-20 0.0421458 4.63806e-20 0.000143482)
(-0.0134658 0.091425 -2.71225e-19 0.0131168 -1.31829e-20 0.000349037)
(0.000489793 0.0608856 -3.75143e-19 -0.000999212 -8.89346e-20 0.000509418)
(0.0078438 0.0389576 -2.65675e-19 -0.00847099 1.78902e-20 0.000627193)
(0.0119778 0.0221711 -3.65641e-19 -0.0126782 7.02627e-20 0.000700444)
(0.0145662 0.00859242 -8.19142e-20 -0.0152889 5.81659e-20 0.000722713)
(0.0163463 -0.00261558 -1.62222e-19 -0.0170336 6.14394e-20 0.000687255)
(0.017879 -0.0120401 -4.95972e-20 -0.0184642 8.57422e-20 0.000585226)
(0.0193584 -0.0196614 -1.51161e-19 -0.0197685 -5.99603e-20 0.000410084)
(0.0211318 -0.0255396 3.47626e-19 -0.0212884 1.54355e-20 0.000156655)
(-0.0588889 0.134686 -3.93731e-20 0.058719 5.9049e-20 0.000169935)
(-0.0225749 0.0971183 -4.38074e-19 0.0221604 -4.70563e-20 0.000414577)
(-0.00430782 0.0703334 -1.18878e-19 0.00370078 -1.08257e-19 0.000607036)
(0.00584457 0.049851 1.35655e-19 -0.00659468 -1.74181e-20 0.000750104)
(0.0119655 0.0335194 1.77564e-19 -0.0128066 2.15274e-19 0.000841071)
(0.0161003 0.0200248 -2.64264e-19 -0.0169718 1.72552e-19 0.00087151)
(0.0191312 0.00878668 -2.75593e-19 -0.0199636 -8.4479e-20 0.000832472)
(0.0217414 -0.000589739 1.9947e-20 -0.0224534 -1.10278e-19 0.000712028)
(0.0240992 -0.0080395 2.11776e-20 -0.0246004 4.63185e-20 0.000501165)
(0.0266862 -0.0135512 -6.97008e-19 -0.0268783 7.95256e-20 0.000192148)
(-0.076026 0.129117 5.19731e-20 0.0758319 -3.00944e-20 0.0001941)
(-0.0355839 0.102046 2.37466e-19 0.0351092 1.08812e-19 0.000474634)
(-0.0141653 0.0795965 1.82378e-19 0.0134684 1.2356e-19 0.000696829)
(-0.0014998 0.0608975 6.02933e-20 0.000636141 1.01548e-19 0.000863656)
(0.00667599 0.0452367 6.43282e-20 -0.00764762 1.76301e-19 0.000971624)
(0.0125367 0.0319839 -5.4991e-19 -0.013547 2.32062e-19 0.00101037)
(0.0170129 0.0208338 -7.8935e-19 -0.0179816 -3.02985e-19 0.000968762)
(0.0208341 0.011609 -4.47751e-19 -0.0216658 2.13654e-19 0.000831742)
(0.0241297 0.00440137 -1.44027e-18 -0.0247174 -6.17235e-19 0.000587724)
(0.0274632 -0.000632856 9.32068e-19 -0.0276894 4.41567e-20 0.000226146)
(-0.093467 0.121134 -1.04718e-19 0.0932516 -2.97406e-19 0.000215376)