/*--------------------------------*- C++ -*----------------------------------*\
| =========                 |                                                 |
| \\      /  F ield         | foam-extend: Open Source CFD                    |
|  \\    /   O peration     | Version:  3.0                                   |
|   \\  /    A nd           | Web:         http://www.extend-project.de       |
|    \\/     M anipulation  |                                                 |
\*---------------------------------------------------------------------------*/
FoamFile
{
    version     2.0;
    format      ascii;
    class       volVectorField;
    location    "5";
    object      s;
}
// * * * * * * * * * * * * * * * * * * * * * * * * * * * * * * * * * * * * * //

dimensions      [0 1 -1 0 0 0 0];

internalField   nonuniform List<vector> 
400
(
(0.0732263 -0.0178882 5.66719e-20)
(0.223794 -0.029514 5.97527e-19)
(0.370082 -0.0328356 -3.19148e-19)
(0.494427 -0.0327677 -4.44315e-19)
(0.603702 -0.0305413 -5.09543e-19)
(0.698405 -0.0269785 -1.06542e-18)
(0.781545 -0.0223617 -1.05518e-18)
(0.854054 -0.0169377 -1.04186e-18)
(0.919515 -0.0106184 -1.18238e-18)
(0.974879 -0.00380833 3.30068e-20)
(0.0842648 -0.0518946 -1.01486e-19)
(0.241987 -0.0856325 -2.60867e-19)
(0.390336 -0.0952593 -2.3845e-19)
(0.514653 -0.0950774 -8.98175e-19)
(0.622563 -0.0886242 -8.97464e-19)
(0.715077 -0.0783017 -2.33635e-18)
(0.795375 -0.064917 -1.347e-18)
(0.864538 -0.0491865 -1.01569e-18)
(0.926094 -0.0308487 -8.38833e-19)
(0.977242 -0.0110721 -1.47404e-18)
(0.105285 -0.0808137 -4.49999e-19)
(0.2767 -0.133348 1.76673e-19)
(0.428945 -0.14834 3.03019e-19)
(0.553183 -0.148065 -1.90125e-18)
(0.658476 -0.138016 -9.11479e-19)
(0.746804 -0.121942 -1.83252e-18)
(0.821677 -0.101096 -4.90223e-19)
(0.884465 -0.0765959 -6.90392e-19)
(0.93859 -0.0480361 -6.18012e-19)
(0.981725 -0.017239 -1.43258e-18)
(0.134189 -0.10181 -1.8206e-19)
(0.32443 -0.167998 1.75428e-20)
(0.482044 -0.186893 1.12263e-18)
(0.60618 -0.186555 -6.83904e-20)
(0.70788 -0.173895 -2.61074e-19)
(0.790454 -0.153647 1.17602e-19)
(0.857865 -0.127383 -7.94121e-19)
(0.911882 -0.0965135 -1.03433e-18)
(0.955784 -0.060527 -3.00073e-18)
(0.987895 -0.0217213 1.03141e-18)
(0.168172 -0.112864 -3.11392e-20)
(0.38054 -0.186213 1.54178e-18)
(0.544465 -0.207158 1.04985e-18)
(0.668482 -0.20679 1.02045e-18)
(0.765959 -0.192753 2.28598e-18)
(0.841769 -0.170311 8.71764e-19)
(0.900409 -0.141199 9.51488e-19)
(0.944117 -0.106982 -1.0172e-18)
(0.976 -0.0670927 1.81264e-18)
(0.99515 -0.0240778 5.67462e-19)
(0.203904 -0.112879 1.43375e-19)
(0.439531 -0.186199 1.13638e-18)
(0.610091 -0.207143 7.2726e-19)
(0.733985 -0.206784 8.71672e-19)
(0.82702 -0.192743 8.24974e-19)
(0.89572 -0.170304 1.89975e-18)
(0.945138 -0.141192 1.19594e-18)
(0.978007 -0.106977 2.95412e-18)
(0.997254 -0.0670898 4.06876e-19)
(1.00278 -0.0240768 1.36333e-19)
(0.237891 -0.101855 1.0791e-19)
(0.495633 -0.167956 -8.00455e-20)
(0.672502 -0.186849 8.12821e-20)
(0.79628 -0.18654 8.9161e-19)
(0.88509 -0.173866 6.5087e-21)
(0.947028 -0.153627 -1.48532e-19)
(0.987677 -0.127365 9.47572e-19)
(1.01024 -0.0965011 4.3839e-19)
(1.01747 -0.0605199 1.403e-18)
(1.01003 -0.021719 -1.89767e-19)
(0.266807 -0.0808728 1.60102e-19)
(0.543352 -0.13327 -9.0496e-20)
(0.725588 -0.148262 7.02645e-20)
(0.84927 -0.148037 2.21162e-19)
(0.934485 -0.137967 -3.79496e-20)
(0.990672 -0.121912 1.47234e-19)
(1.02386 -0.101071 -2.97463e-19)
(1.03765 -0.0765787 -2.35047e-19)
(1.03466 -0.0480255 -5.11448e-19)
(1.0162 -0.0172351 -4.59831e-19)
(0.287823 -0.0519859 5.80706e-20)
(0.578018 -0.0855342 -4.63053e-20)
(0.764153 -0.0951573 4.62932e-20)
(0.887769 -0.0950444 1.16729e-19)
(0.97037 -0.0885623 1.74032e-19)
(1.02238 -0.0782623 8.00887e-20)
(1.05015 -0.0648819 1.10868e-22)
(1.05757 -0.0491596 -5.33389e-20)
(1.04715 -0.0308297 -1.36137e-19)
(1.02069 -0.0110638 -5.83533e-20)
(0.298884 -0.0180225 4.08456e-21)
(0.596236 -0.0294214 -1.53079e-19)
(0.78442 -0.0327337 2.58934e-20)
(0.908008 -0.0327498 1.57022e-19)
(0.989231 -0.0304861 1.09729e-19)
(1.03905 -0.0269515 2.54668e-19)
(1.06397 -0.0223408 2.59311e-19)
(1.06804 -0.0169276 2.16604e-19)
(1.05372 -0.0106154 1.33254e-19)
(1.02304 -0.00380926 5.81573e-20)
(0.298908 0.0176926 -7.13499e-21)
(0.596222 0.0295761 -3.22187e-19)
(0.784405 0.0328991 1.62154e-20)
(0.908007 0.0327495 1.76934e-19)
(0.989223 0.0305766 2.34839e-19)
(1.03904 0.0269986 6.3835e-19)
(1.06397 0.0223885 6.19903e-19)
(1.06804 0.0169625 6.0521e-19)
(1.05372 0.0106388 6.71582e-19)
(1.02304 0.00381854 3.02567e-20)
(0.287896 0.0516632 6.18818e-20)
(0.577978 0.0856832 -2.26325e-20)
(0.764108 0.0953167 -6.08667e-20)
(0.887765 0.0950421 6.09806e-19)
(0.970346 0.0886488 4.72555e-19)
(1.02237 0.0783072 1.65803e-18)
(1.05014 0.0649278 9.85105e-19)
(1.05757 0.0491934 7.97637e-19)
(1.04715 0.0308525 7.01332e-19)
(1.02069 0.011073 1.03727e-18)
(0.266926 0.0805643 2.61691e-19)
(0.543287 0.133408 -3.48773e-19)
(0.725516 0.148409 -6.1659e-19)
(0.849264 0.148031 1.55594e-18)
(0.934448 0.138046 4.9338e-19)
(0.990655 0.121952 1.50195e-18)
(1.02385 0.101113 4.88763e-19)
(1.03765 0.0766103 8.13643e-19)
(1.03466 0.0480472 9.14331e-19)
(1.0162 0.0172439 1.45489e-18)
(0.238053 0.101567 5.26415e-20)
(0.495545 0.168077 -2.12801e-19)
(0.672405 0.186978 -1.66718e-18)
(0.796274 0.186528 -4.35263e-19)
(0.885041 0.173933 -2.65831e-19)
(0.947006 0.15366 -6.52163e-19)
(0.987658 0.127402 7.72029e-19)
(1.01023 0.0965293 1.34392e-18)
(1.01746 0.0605395 3.99103e-18)
(1.01003 0.0217273 -1.29358e-18)
(0.204106 0.112617 -6.79926e-20)
(0.439426 0.186299 -2.23541e-18)
(0.609974 0.207249 -1.58038e-18)
(0.73398 0.206766 -1.99674e-18)
(0.826962 0.192796 -4.28128e-18)
(0.895695 0.170329 -2.05015e-18)
(0.945116 0.141222 -2.45624e-18)
(0.977994 0.107001 1.06381e-18)
(0.997247 0.0671068 -3.78821e-18)
(1.00278 0.0240843 -1.13279e-18)
(0.168408 0.112633 -2.64423e-19)
(0.380421 0.186287 -1.77249e-18)
(0.544332 0.207237 -8.51059e-19)
(0.668482 0.206763 -1.70744e-18)
(0.765895 0.192789 -1.44507e-18)
(0.841743 0.170325 -4.6667e-18)
(0.900385 0.141219 -3.2764e-18)
(0.944104 0.106999 -8.37677e-18)
(0.975992 0.067106 -1.63478e-18)
(0.995148 0.0240842 -4.56764e-19)
(0.134456 0.101615 -1.58419e-19)
(0.324306 0.168043 1.22712e-18)
(0.481905 0.186941 9.7238e-19)
(0.60619 0.18652 -2.38111e-18)
(0.707819 0.173912 1.4004e-18)
(0.790433 0.15365 1.90901e-18)
(0.857845 0.127394 -2.69019e-18)
(0.911872 0.0965247 -5.94952e-19)
(0.955778 0.0605373 -5.58758e-18)
(0.987893 0.0217269 7.92671e-19)
(0.105575 0.0806432 -4.72664e-19)
(0.276574 0.133351 1.34749e-18)
(0.428804 0.148349 9.16788e-19)
(0.553203 0.148018 1.5933e-19)
(0.658418 0.138013 2.86807e-18)
(0.746787 0.121935 -1.69629e-19)
(0.821658 0.1011 4.46724e-18)
(0.884454 0.0766028 3.57618e-18)
(0.938582 0.0480434 5.22727e-18)
(0.981722 0.0172431 3.60222e-18)
(0.0845909 0.0517715 -1.06825e-19)
(0.241896 0.0856081 1.19831e-18)
(0.390225 0.0952359 1.14104e-18)
(0.514706 0.0950267 2.04789e-18)
(0.622527 0.0886045 2.8697e-18)
(0.715077 0.0782851 9.39515e-19)
(0.795367 0.0649101 1.77891e-18)
(0.864534 0.0491834 1.44833e-18)
(0.926089 0.0308473 4.19277e-19)
(0.977238 0.0110717 -7.4958e-19)
(0.0735602 0.0178283 -1.21833e-19)
(0.223668 0.0294858 -5.1503e-19)
(0.369945 0.0328013 7.20976e-19)
(0.49447 0.0327326 1.37609e-18)
(0.60366 0.0305236 5.36597e-19)
(0.698408 0.0269724 1.14734e-18)
(0.781546 0.0223673 1.39616e-18)
(0.854062 0.0169502 1.23443e-18)
(0.919522 0.0106323 7.87968e-19)
(0.974881 0.0038169 1.42756e-19)
(0.0735623 -0.0178621 -7.67478e-20)
(0.223673 -0.0295227 -8.71672e-19)
(0.36995 -0.0328445 5.47697e-19)
(0.494474 -0.0327661 7.70152e-19)
(0.603664 -0.030545 8.8411e-19)
(0.69841 -0.0269801 1.85661e-18)
(0.781547 -0.0223644 1.8452e-18)
(0.854063 -0.0169414 1.82024e-18)
(0.919522 -0.0106229 2.05017e-18)
(0.974881 -0.00381132 -3.37087e-20)
(0.0845971 -0.051804 1.50065e-19)
(0.241911 -0.0856419 4.02032e-19)
(0.390238 -0.0952765 3.97922e-19)
(0.514718 -0.0950577 1.52783e-18)
(0.622538 -0.0886237 1.51517e-18)
(0.715085 -0.0782913 4.0467e-18)
(0.795372 -0.0649064 2.35124e-18)
(0.864536 -0.0491742 1.78449e-18)
(0.92609 -0.0308378 1.46633e-18)
(0.977238 -0.0110662 2.51322e-18)
(0.105584 -0.0806732 6.23696e-19)
(0.276596 -0.133379 -2.81928e-19)
(0.428824 -0.148384 -5.22032e-19)
(0.553221 -0.148045 3.23269e-18)
(0.658435 -0.138028 1.53464e-18)
(0.746799 -0.121939 3.20891e-18)
(0.821665 -0.101095 8.85097e-19)
(0.884458 -0.0765928 1.27565e-18)
(0.938584 -0.0480336 1.19707e-18)
(0.981721 -0.0172377 2.54488e-18)
(0.134468 -0.101642 2.30608e-19)
(0.324334 -0.168062 -7.41114e-20)
(0.48193 -0.18697 -1.99101e-18)
(0.606214 -0.18654 -2.35421e-20)
(0.70784 -0.173922 3.1287e-19)
(0.790448 -0.15365 -3.7373e-19)
(0.857854 -0.127387 1.38649e-18)
(0.911877 -0.0965136 1.90737e-18)
(0.95578 -0.0605272 5.59498e-18)
(0.987893 -0.0217216 -1.88705e-18)
(0.168422 -0.112656 -5.90375e-22)
(0.380452 -0.186297 -2.59488e-18)
(0.54436 -0.207257 -1.85381e-18)
(0.668508 -0.206776 -2.03423e-18)
(0.765919 -0.192792 -4.6211e-18)
(0.84176 -0.17032 -1.92668e-18)
(0.900396 -0.141209 -2.20051e-18)
(0.944109 -0.106987 1.78682e-18)
(0.975994 -0.0670956 -3.89264e-18)
(0.995147 -0.0240791 -1.19849e-18)
(0.204119 -0.112636 -2.55588e-19)
(0.439457 -0.186299 -1.94318e-18)
(0.610002 -0.207261 -1.18794e-18)
(0.734007 -0.20677 -1.71001e-18)
(0.826986 -0.192792 -1.57858e-18)
(0.895712 -0.170319 -4.257e-18)
(0.945127 -0.141209 -2.81534e-18)
(0.978 -0.106987 -7.13947e-18)
(0.997249 -0.0670959 -1.168e-18)
(1.00278 -0.0240794 -3.57248e-19)
(0.238065 -0.101582 -1.5788e-19)
(0.495574 -0.168069 4.919e-19)
(0.672431 -0.186982 2.49989e-19)
(0.796298 -0.186525 -1.9494e-18)
(0.885063 -0.173922 6.11892e-19)
(0.947022 -0.153646 1.00119e-18)
(0.987668 -0.127386 -2.26384e-18)
(1.01023 -0.096514 -7.6184e-19)
(1.01746 -0.0605282 -3.99285e-18)
(1.01003 -0.0217226 5.56013e-19)
(0.266935 -0.0805754 -2.86901e-19)
(0.54331 -0.133391 5.4764e-19)
(0.725538 -0.148406 2.56178e-19)
(0.849285 -0.148021 -1.74495e-19)
(0.934467 -0.138029 1.23727e-18)
(0.990669 -0.121933 -2.40315e-19)
(1.02386 -0.101094 2.24652e-18)
(1.03765 -0.0765936 1.77986e-18)
(1.03466 -0.0480353 2.77048e-18)
(1.0162 -0.0172392 2.00596e-18)
(0.287901 -0.0516716 -7.49874e-20)
(0.577992 -0.085661 4.70397e-19)
(0.764123 -0.0953082 3.94251e-19)
(0.887779 -0.0950273 7.13849e-19)
(0.97036 -0.0886269 1.01922e-18)
(1.02238 -0.0782855 3.3077e-19)
(1.05015 -0.0649069 7.79231e-19)
(1.05757 -0.0491756 6.93843e-19)
(1.04715 -0.0308402 3.4379e-19)
(1.02069 -0.0110683 -2.34611e-19)
(0.29891 -0.0176994 -3.29994e-20)
(0.596228 -0.0295511 5.92299e-21)
(0.784412 -0.0328875 2.73939e-19)
(0.908014 -0.0327317 4.09092e-19)
(0.989231 -0.0305519 1.31325e-19)
(1.03905 -0.0269747 2.44276e-19)
(1.06397 -0.0223661 3.48699e-19)
(1.06805 -0.0169438 3.25181e-19)
(1.05372 -0.010626 2.2235e-19)
(1.02304 -0.00381384 1.27503e-20)
(0.298882 0.0180163 -1.29614e-20)
(0.596232 0.029446 4.79603e-20)
(0.78442 0.0327463 2.12176e-19)
(0.908007 0.0327683 1.48596e-19)
(0.989232 0.0305115 1.39322e-19)
(1.03905 0.0269762 1.52691e-19)
(1.06397 0.0223638 1.70091e-19)
(1.06805 0.0169468 1.73291e-19)
(1.05372 0.0106285 1.96388e-19)
(1.02304 0.00381407 -3.09791e-20)
(0.287817 0.0519797 -1.35095e-20)
(0.578004 0.0855549 1.63534e-19)
(0.764145 0.0951688 2.20202e-19)
(0.88776 0.0950612 1.97068e-20)
(0.970363 0.088586 1.45092e-19)
(1.02238 0.0782863 5.24191e-20)
(1.05015 0.0649046 1.91697e-20)
(1.05757 0.0491788 -2.88318e-20)
(1.04715 0.0308429 -7.38189e-20)
(1.02069 0.0110688 1.99609e-21)
(0.266797 0.0808663 -8.8124e-20)
(0.543331 0.133283 2.43393e-19)
(0.725575 0.14827 3.97459e-19)
(0.849255 0.14805 -2.2471e-19)
(0.934473 0.137987 1.29714e-19)
(0.990664 0.121933 -1.25612e-19)
(1.02386 0.101092 -9.38793e-20)
(1.03765 0.0765973 -2.28382e-19)
(1.03466 0.0480385 -3.35267e-19)
(1.0162 0.0172401 -3.42593e-19)
(0.237877 0.101848 -4.1556e-21)
(0.495606 0.16796 1.56166e-19)
(0.672483 0.186853 7.98677e-19)
(0.79626 0.186547 3.43198e-19)
(0.885073 0.17388 3.1754e-19)
(0.947016 0.153645 3.95982e-19)
(0.98767 0.127384 -1.79642e-19)
(1.01023 0.0965185 -4.70862e-19)
(1.01747 0.0605323 -1.39676e-18)
(1.01003 0.0217241 4.37953e-19)
(0.203886 0.112872 3.6212e-20)
(0.439502 0.18619 1.18213e-18)
(0.610068 0.20714 7.76301e-19)
(0.733962 0.206786 9.82907e-19)
(0.827001 0.19275 1.94619e-18)
(0.895705 0.170316 9.95227e-19)
(0.945129 0.141208 1.20727e-18)
(0.978003 0.106993 -2.94176e-19)
(0.997253 0.0671015 1.7083e-18)
(1.00278 0.024082 5.01779e-19)
(0.168149 0.112857 1.52167e-19)
(0.380512 0.186192 9.6551e-19)
(0.544439 0.207147 3.9026e-19)
(0.668459 0.206785 8.69059e-19)
(0.765941 0.192754 6.91484e-19)
(0.841755 0.170318 2.30956e-18)
(0.9004 0.141209 1.65714e-18)
(0.944112 0.106994 4.19166e-18)
(0.975998 0.0671033 8.73793e-19)
(0.995151 0.0240832 2.35888e-19)
(0.134165 0.101805 1.08434e-19)
(0.32441 0.167965 -8.1518e-19)
(0.482019 0.186869 -6.41212e-19)
(0.606158 0.186542 1.32327e-18)
(0.707867 0.173888 -7.8206e-19)
(0.790444 0.153646 -1.05633e-18)
(0.85786 0.127386 1.37414e-18)
(0.911879 0.0965181 2.7169e-19)
(0.955781 0.0605306 2.99814e-18)
(0.987893 0.0217225 -4.26437e-19)
(0.105256 0.0807933 3.45854e-19)
(0.276689 0.133298 -8.90265e-19)
(0.428922 0.148299 -5.90355e-19)
(0.553161 0.148043 -1.12607e-19)
(0.658463 0.138008 -1.66872e-18)
(0.746795 0.121949 7.66371e-20)
(0.821673 0.101111 -2.51786e-18)
(0.884465 0.0766154 -2.03102e-18)
(0.938592 0.0480532 -2.96772e-18)
(0.981726 0.0172478 -2.05576e-18)
(0.0842592 0.0518886 8.98606e-20)
(0.242025 0.0855849 -7.74172e-19)
(0.390348 0.0951942 -7.00444e-19)
(0.514653 0.0950309 -1.21716e-18)
(0.622562 0.0885922 -1.67641e-18)
(0.71507 0.0782871 -5.28419e-19)
(0.795365 0.0649134 -9.99281e-19)
(0.864527 0.0491894 -8.07542e-19)
(0.926085 0.0308532 -2.11291e-19)
(0.977237 0.0110747 4.56932e-19)
(0.0732153 0.0178724 9.2817e-20)
(0.223788 0.0294873 3.67951e-19)
(0.370072 0.0327898 -4.21101e-19)
(0.494427 0.0327368 -8.09788e-19)
(0.603713 0.0305197 -2.95265e-19)
(0.698424 0.0269731 -6.48233e-19)
(0.781571 0.0223674 -7.87968e-19)
(0.854079 0.0169509 -6.92531e-19)
(0.919532 0.0106328 -4.32292e-19)
(0.974884 0.00381705 -7.17519e-20)
)
;

boundaryField
{
    up
    {
        type            fixedValue;
        value           uniform (1 0 0);
    }
    hole
    {
        type            fixedValue;
        value           uniform (0 0 0);
    }
    frontAndBack
    {
        type            empty;
    }
}


// ************************************************************************* //
