/*--------------------------------*- C++ -*----------------------------------*\
| =========                 |                                                 |
| \\      /  F ield         | foam-extend: Open Source CFD                    |
|  \\    /   O peration     | Version:  3.0                                   |
|   \\  /    A nd           | Web:         http://www.extend-project.de       |
|    \\/     M anipulation  |                                                 |
\*---------------------------------------------------------------------------*/
FoamFile
{
    version     2.0;
    format      ascii;
    class       regIOobject;
    location    "33/uniform";
    object      profilingInfo;
}
// * * * * * * * * * * * * * * * * * * * * * * * * * * * * * * * * * * * * * //

profilingInfo
(

    {
        id              6;
        parentId        4;
        description     "Foam::Time::writeObject - outputTime";
        calls           33;
        totalTime       0.952054;
        childTime       0;
        onStack         1;
    }

    {
        id              4;
        parentId        1;
        description     "Foam::Time::writeObject";
        calls           3300;
        totalTime       0.999859;
        childTime       0.952054;
        onStack         1;
    }

    {
        id              1;
        description     "application::main";
        calls           1;
        totalTime       1934.837991;
        childTime       1.014149;
        onStack         1;
    }

    {
        id              3;
        parentId        2;
        description     "functionObjectList::read";
        calls           1;
        totalTime       1.4e-05;
        childTime       0;
        onStack         0;
    }

    {
        id              7;
        parentId        1;
        description     "functionObjectList::read";
        calls           1;
        totalTime       1.7e-05;
        childTime       0;
        onStack         0;
    }

    {
        id              5;
        parentId        1;
        description     "functionObjects_.execute()";
        calls           3299;
        totalTime       0.014218;
        childTime       0;
        onStack         0;
    }

    {
        id              2;
        parentId        1;
        description     "functionObjects_.start()";
        calls           1;
        totalTime       5.5e-05;
        childTime       1.4e-05;
        onStack         0;
    }
);


// ************************************************************************* //
