/*--------------------------------*- C++ -*----------------------------------*\
| =========                 |                                                 |
| \\      /  F ield         | foam-extend: Open Source CFD                    |
|  \\    /   O peration     | Version:  3.0                                   |
|   \\  /    A nd           | Web:         http://www.extend-project.de       |
|    \\/     M anipulation  |                                                 |
\*---------------------------------------------------------------------------*/
FoamFile
{
    version     2.0;
    format      ascii;
    class       volSymmTensorField;
    location    "30";
    object      sigma;
}
// * * * * * * * * * * * * * * * * * * * * * * * * * * * * * * * * * * * * * //

dimensions      [0 0 0 0 0 0 0];

internalField   nonuniform List<symmTensor> 
2688
(
(-0.1789397683 -0.005015426072 1.403713693e-19 0.1791752919 2.861545808e-19 -0.0002355236526)
(-0.1751626699 -0.005845704612 6.658935963e-20 0.175803504 1.38730916e-19 -0.0006408341627)
(-0.1677822382 -0.006214664043 -9.486279706e-20 0.1687877111 6.528376497e-19 -0.001005472884)
(-0.1582283384 -0.006279448265 7.288234032e-20 0.1595639343 2.328897122e-19 -0.001335595976)
(-0.1481223642 -0.00618583761 3.588241602e-20 0.149757719 3.713807025e-19 -0.001635354749)
(-0.1375993399 -0.005982918585 9.581429648e-20 0.1395064759 1.377526737e-19 -0.00190713599)
(-0.1274124493 -0.005727922064 5.404169491e-20 0.129564782 2.439025612e-19 -0.00215233274)
(-0.1174146763 -0.005439088368 6.586101927e-20 0.1197859107 8.299753398e-20 -0.002371234407)
(-0.1079768865 -0.005138843004 -3.02486297e-21 0.1105404381 1.625248687e-19 -0.002563551623)
(-0.09893596538 -0.00483573962 -5.481684653e-20 0.101664149 -5.794490868e-20 -0.002728183664)
(-0.09047312345 -0.004537417741 6.578764331e-20 0.09333675429 3.966981115e-19 -0.002863630846)
(-0.08247262738 -0.004249872961 -2.216937029e-20 0.0854403367 9.421515759e-20 -0.002967709317)
(-0.07501109368 -0.00397339925 3.096382103e-19 0.07804899503 9.891134801e-20 -0.003037901358)
(-0.0680325987 -0.00371456484 -4.153584593e-20 0.07110365347 4.46339277e-20 -0.003071054764)
(-0.06154705505 -0.003469118255 -4.463959943e-20 0.06461075432 9.102883441e-20 -0.003063699277)
(-0.05555959744 -0.003245715049 1.214869351e-20 0.05857133593 4.795155055e-20 -0.00301173849)
(-0.0500305705 -0.003036775072 -2.819277934e-20 0.05294132541 1.881127341e-19 -0.002910754907)
(-0.04502477074 -0.002853562732 1.639098736e-19 0.04778046061 1.205599607e-19 -0.002755689867)
(-0.04046298098 -0.002686062263 -1.639671992e-19 0.04300414197 -4.590763981e-20 -0.002541160998)
(-0.03646478123 -0.00254771696 1.08479957e-19 0.03872589264 2.526062245e-19 -0.002261111403)
(-0.03292417468 -0.002427771148 1.160083029e-19 0.03483334653 -1.481643266e-19 -0.00190917185)
(-0.03000109964 -0.00233769306 4.072594136e-20 0.03147934544 -2.031130471e-19 -0.001478245808)
(-0.02759134662 -0.002278355227 -2.892219033e-20 0.02855231256 4.900256468e-20 -0.0009609659362)
(-0.02585165244 -0.002252828188 -6.738727201e-20 0.02620081927 -4.513356463e-19 -0.0003491668383)
(-0.1784397809 -0.01472260601 5.191362766e-20 0.1786758155 -4.057669046e-19 -0.0002360345611)
(-0.1742401531 -0.01728718471 2.685441203e-19 0.1748823604 -2.032482074e-19 -0.0006422072953)
(-0.166613362 -0.01845412445 6.528166002e-20 0.1676209836 -3.723122954e-19 -0.001007621621)
(-0.1569310616 -0.01870069713 -1.444036171e-19 0.1582695072 2.244879481e-20 -0.001338445594)
(-0.1467639311 -0.01846548443 6.059023381e-20 0.1484027786 -8.262429453e-20 -0.001638847488)
(-0.136225846 -0.01789824019 -7.187754926e-20 0.1381370601 -2.343942967e-19 -0.001911214022)
(-0.1260511176 -0.01717105852 1.7003322e-19 0.1282080648 1.71313043e-19 -0.002156947215)
(-0.1160830561 -0.01633962164 -4.72568827e-20 0.11845939 -3.988008504e-19 -0.002376333891)
(-0.1066857924 -0.01547146433 -8.724746559e-20 0.1092548808 8.671887509e-20 -0.002569088383)
(-0.09769079702 -0.01459245262 2.346316707e-19 0.1004249024 -3.744892284e-19 -0.002734105413)
(-0.08927752648 -0.01372558935 1.226473503e-19 0.09214741033 -1.071675553e-19 -0.00286988385)
(-0.08132642742 -0.01288868352 -5.722943028e-20 0.08430066054 -2.219330471e-19 -0.00297423312)
(-0.07391477262 -0.01208254581 -1.181335941e-19 0.0769594027 6.719602534e-20 -0.003044630086)
(-0.06698314688 -0.01132632925 1.418107967e-19 0.07006106066 -9.893929282e-22 -0.00307791378)
(-0.06054360033 -0.0106071339 -1.667916537e-20 0.06361420454 1.14314878e-19 -0.003070604219)
(-0.05459746765 -0.009949807949 6.872800357e-20 0.05761606138 3.998417013e-19 -0.003018593736)
(-0.04910831921 -0.009331608831 2.927949924e-19 0.05202576973 -3.094252208e-19 -0.002917450526)
(-0.04413660128 -0.008784328391 -3.786795174e-19 0.04689870281 4.24932492e-19 -0.002762101533)
(-0.03960706658 -0.008278750999 2.914791605e-19 0.0421542118 2.893633502e-19 -0.002547145215)
(-0.03563438455 -0.007851457771 3.989187758e-20 0.03790089045 -8.128936101e-20 -0.002266505906)
(-0.03211689801 -0.007473202855 -4.747373557e-19 0.03403068712 1.223083427e-19 -0.001913789111)
(-0.02920917887 -0.007174720212 1.661506188e-19 0.03069105181 2.630331481e-19 -0.001481872942)
(-0.02681017422 -0.006951030729 -3.135206344e-19 0.02777353192 3.019046396e-19 -0.0009633576994)
(-0.02507302307 -0.006802482244 2.284721584e-19 0.02542307016 -2.805333509e-19 -0.0003500470876)
(-0.1774502665 -0.02440116092 1.765151419e-19 0.1776860642 3.325948198e-19 -0.000235797759)
(-0.1724130753 -0.02858281555 3.794096843e-20 0.1730546433 4.340084953e-19 -0.0006415679951)
(-0.1642980995 -0.03047617343 3.6584375e-20 0.1653047155 1.909886207e-19 -0.001006616008)
(-0.1543612137 -0.03086361429 2.683585557e-19 0.1556983216 9.738450618e-20 -0.001337107873)
(-0.1440728528 -0.03046411138 -1.706850822e-19 0.1457100605 2.937289367e-19 -0.001637207691)
(-0.1335046718 -0.02952197604 2.608263467e-19 0.1354139765 1.005690579e-19 -0.001909304647)
(-0.1233538896 -0.02831983527 -5.722006696e-20 0.1255086884 2.389713619e-19 -0.002154798869)
(-0.1134443463 -0.02694780679 -2.718384071e-20 0.1158183278 1.848276991e-19 -0.002373981503)
(-0.1041270938 -0.02551707703 -3.253256047e-20 0.106693661 4.656808063e-19 -0.00256656722)
(-0.0952226913 -0.02406918187 -2.726992951e-19 0.09795414396 2.032892097e-19 -0.002731452656)
(-0.08690723496 -0.02264212311 1.559131657e-19 0.08977437265 4.47410669e-19 -0.00286713769)
(-0.07905358785 -0.02126444104 1.436796654e-19 0.08202502068 7.14109957e-20 -0.002971432829)
(-0.07174029163 -0.01993764343 5.108611038e-19 0.07478210835 -7.07116903e-20 -0.00304181672)
(-0.06490112551 -0.0186925156 2.359885903e-20 0.06797625436 -8.673952833e-20 -0.003075128848)
(-0.05855222898 -0.0175080412 3.805527282e-19 0.06162012087 -6.02339446e-20 -0.003067891895)
(-0.05268763203 -0.0164242513 -3.153248799e-19 0.05570362993 -1.043105755e-19 -0.003015997895)
(-0.04727702108 -0.01540401725 -3.644179446e-20 0.05019203882 1.688751792e-19 -0.002915017733)
(-0.04237259447 -0.01449856437 9.658888856e-19 0.04513247081 -1.370681422e-19 -0.002759876339)
(-0.03790654864 -0.01366043303 -6.41463597e-19 0.04045172227 1.430150001e-19 -0.002545173634)
(-0.03398449757 -0.01294816712 5.910180293e-21 0.03624932699 -2.041114412e-20 -0.002264829424)
(-0.03051283081 -0.01231527269 4.995150235e-19 0.03242527876 7.260898405e-20 -0.001912447949)
(-0.02763637553 -0.01181035021 4.021045106e-19 0.02911727407 -3.350419968e-19 -0.00148089854)
(-0.02526120091 -0.01142375116 -6.517591185e-19 0.02622397489 2.990080069e-19 -0.0009627739773)
(-0.02353113567 -0.01115211723 -7.260212919e-20 0.02388099807 -4.001618592e-19 -0.0003498623975)
(-0.1759702037 -0.03403295775 5.622621567e-20 0.1762050362 -2.265342896e-21 -0.0002348325226)
(-0.169707699 -0.03963860197 1.634884253e-19 0.1703466289 -1.558518751e-19 -0.0006389298482)
(-0.1608794251 -0.04214078567 -5.919621492e-20 0.1618818912 -7.138350825e-19 -0.001002466074)
(-0.1505714994 -0.0426023041 -1.41941282e-19 0.1519030873 1.474863623e-19 -0.001331587956)
(-0.1401074431 -0.04200106808 1.321164669e-19 0.1417378878 -2.133189625e-19 -0.001630444677)
(-0.1294969968 -0.04066695189 -1.622281228e-19 0.1313984153 6.569588492e-20 -0.001901418588)
(-0.1193829463 -0.0389851052 3.243964556e-19 0.1215288517 -5.199367299e-20 -0.002145905307)
(-0.1095607241 -0.03707585071 5.64917112e-20 0.111924921 2.628417713e-19 -0.002364196918)
(-0.1003620407 -0.03509121547 1.044111797e-19 0.1029180508 -4.40973189e-19 -0.00255601006)
(-0.09159168058 -0.03308593052 2.008103938e-19 0.09431192737 7.942737617e-20 -0.002720246789)
(-0.08342063862 -0.03111233835 -3.102837565e-20 0.08627605091 2.042920185e-19 -0.002855412287)
(-0.07571082981 -0.02920791807 -4.933900926e-19 0.0786701558 -3.346144567e-19 -0.00295932599)
(-0.06854253922 -0.02737523894 -4.008990364e-19 0.07157201388 4.55158309e-19 -0.003029474656)
(-0.06183966175 -0.02565510261 2.822704756e-19 0.06490237188 -4.185441897e-19 -0.003062710138)
(-0.05562428246 -0.02401935817 -1.734973609e-19 0.05867984852 9.345518104e-19 -0.003055566066)
(-0.04987975968 -0.02252149205 4.745679195e-19 0.05288370952 -6.828563933e-20 -0.003003949844)
(-0.04458477629 -0.02111145651 4.711961387e-20 0.04748822174 3.475632627e-19 -0.002903445455)
(-0.03977945439 -0.01985784745 -2.465813959e-19 0.04252844967 -3.541875285e-19 -0.002748995286)
(-0.03540701146 -0.01869699623 6.661331351e-19 0.03794222519 -5.26538844e-20 -0.002535213739)
(-0.03156005378 -0.01770650221 -1.87321922e-19 0.03381609323 7.827219841e-20 -0.002256039451)
(-0.02815609926 -0.01682602457 -8.798550275e-19 0.03006119054 1.639773235e-19 -0.001905091276)
(-0.02532854587 -0.01611723185 6.736866391e-19 0.02680380271 -1.076215139e-19 -0.001475256834)
(-0.02298702486 -0.01557092098 -2.004398912e-19 0.02394616879 5.865584898e-19 -0.000959143931)
(-0.02127795755 -0.01517769059 3.099613573e-19 0.02162651849 -2.589573144e-19 -0.0003485609337)
(-0.1739985927 -0.0435981944 5.576091084e-20 0.1742317125 1.782459961e-19 -0.0002331197762)
(-0.1661624113 -0.05036566613 -3.207109517e-19 0.1667966819 -1.92625997e-19 -0.0006342705213)
(-0.1564201224 -0.05331688357 2.661444678e-19 0.1574152751 -2.401701904e-19 -0.0009951526276)
(-0.145639024 -0.05376148565 5.112106213e-19 0.1469608943 2.674299829e-19 -0.001321870306)
(-0.1349529719 -0.05290787602 -1.23174841e-19 0.1365715162 -2.532801229e-19 -0.001618544274)
(-0.1242922895 -0.0511584575 2.632221089e-19 0.1261798333 4.900275687e-19 -0.001887543849)
(-0.1142293128 -0.04899073389 1.991042697e-19 0.1163595677 -2.892151057e-19 -0.002130254955)
(-0.1045231435 -0.04654885231 -3.142253986e-19 0.1068701134 4.544611346e-19 -0.002346969927)
(-0.09548043645 -0.04402231325 -2.524435658e-19 0.09801784495 3.746404861e-19 -0.002537408503)
(-0.08688578423 -0.04147537367 4.129567458e-19 0.08958626528 -2.702023526e-19 -0.002700481052)
(-0.07890356695 -0.03897399397 7.731152823e-20 0.08173827101 -2.139750828e-19 -0.002834704058)
(-0.07138167965 -0.03656208177 4.522411795e-19 0.07431959081 -9.592338628e-20 -0.002937911164)
(-0.06440259904 -0.03424377641 2.354236586e-19 0.06741020625 4.162980014e-19 -0.003007607211)
(-0.05787760241 -0.03206772745 4.52879641e-19 0.06091826638 -3.052184998e-19 -0.003040663965)
(-0.05183630005 -0.02999991703 7.742507986e-19 0.05486993952 3.503776227e-19 -0.003033639464)
(-0.0462485055 -0.02810501225 -7.367167382e-19 0.04923097185 -9.936125179e-19 -0.002982466351)
(-0.04110418464 -0.02632188131 -3.648338867e-20 0.04398694319 -5.919619333e-19 -0.002882758551)
(-0.03642828573 -0.02473387495 2.522025139e-19 0.03915777394 1.442535198e-19 -0.002729488204)
(-0.03217758207 -0.0232634826 -2.502639161e-19 0.03469488652 -8.745160796e-20 -0.002517304451)
(-0.02842866932 -0.02200426671 6.417121775e-19 0.03066884879 -4.525403298e-20 -0.002240179472)
(-0.02511286066 -0.02088506302 2.383212335e-19 0.02700463102 -1.138683103e-19 -0.001891770354)
(-0.02234836413 -0.01997760848 5.802874304e-19 0.02381336562 5.522729764e-19 -0.00146500149)
(-0.02005495409 -0.0192749528 -1.058700751e-19 0.0210074755 -9.258303874e-19 -0.0009525214135)
(-0.01837091356 -0.0187604431 -5.571557241e-19 0.01871709088 1.093140287e-18 -0.0003461773195)
(-0.1715337113 -0.05307705577 -3.017805712e-19 0.1717643974 6.050141288e-19 -0.0002306860635)
(-0.1618269456 -0.06068187231 -4.129779783e-19 0.162454578 5.055944773e-19 -0.0006276323641)
(-0.151001563 -0.06388475613 -4.78000578e-20 0.1519862888 -8.435102133e-20 -0.0009847257562)
(-0.1396634568 -0.0642002791 -1.882605347e-19 0.1409714693 3.450422772e-19 -0.001308012469)
(-0.1287198531 -0.06303183422 2.191033871e-19 0.1303214256 2.655962036e-19 -0.001601572486)
(-0.1180062287 -0.06083863458 -1.345032741e-19 0.119873982 -2.176761893e-19 -0.001867753301)
(-0.1080107491 -0.05817751203 4.037076972e-19 0.1101186768 -5.872012466e-20 -0.002107927679)
(-0.09844924259 -0.05520898499 6.192703061e-19 0.1007716293 5.669269456e-19 -0.002322386694)
(-0.08959835754 -0.05215548329 -2.857760175e-19 0.09210921116 -1.052190366e-18 -0.002510853611)
(-0.08121875206 -0.04908654855 -7.417119502e-19 0.08389100343 9.948814998e-19 -0.002672251365)
(-0.0734667987 -0.04608064528 6.072511149e-20 0.07627190961 2.023530265e-19 -0.002805110917)
(-0.06617381346 -0.04318515332 -2.221011132e-20 0.0690811022 -5.250368914e-20 -0.002907288742)
(-0.05942480068 -0.0404063111 -4.366437652e-19 0.06240111415 -1.440101798e-20 -0.002976313469)
(-0.05311608024 -0.03779801662 1.399502106e-20 0.05612516914 5.002719668e-20 -0.003009088905)
(-0.04728618797 -0.03532191332 -2.985126597e-19 0.05028839378 4.334820157e-20 -0.003002205806)
(-0.04188882673 -0.03305114047 -3.867436589e-19 0.04484046406 -2.620650626e-19 -0.002951637325)
(-0.03692738502 -0.03091575543 4.386218269e-19 0.03978042338 1.360359768e-18 -0.002853038365)
(-0.03240882771 -0.02901075043 3.852859763e-19 0.03511025713 -7.043998161e-20 -0.00270142942)
(-0.02830579095 -0.02724777429 2.287714583e-19 0.03079729906 5.9721553e-19 -0.002491508116)
(-0.02467705897 -0.02573216241 -4.501113027e-19 0.02689436104 3.77160023e-19 -0.002217302066)
(-0.02146692696 -0.02438613022 -1.184044048e-19 0.02333944998 4.157158995e-19 -0.001872523018)
(-0.018784552 -0.02328551227 -2.387054655e-19 0.02023470932 1.195779595e-18 -0.001450157318)
(-0.01654333135 -0.02242884234 1.177822546e-18 0.01748624618 -2.324421523e-19 -0.0009429148225)
(-0.01490030891 -0.02179604307 -2.309719387e-19 0.01524301779 2.279632879e-18 -0.0003427088805)
(-0.1685744481 -0.06244773149 5.303506664e-19 0.1688019636 -1.145608692e-18 -0.0002275154329)
(-0.1567609867 -0.07051360995 -8.958867185e-19 0.157379992 3.067581762e-20 -0.0006190053936)
(-0.1447210773 -0.07373917509 3.576195072e-19 0.1456922636 -7.347470384e-19 -0.000971186269)
(-0.1327641675 -0.07379571421 5.257292115e-19 0.1340541922 6.482238487e-19 -0.001290024678)
(-0.1215400341 -0.07224032344 -8.980840715e-20 0.1231195813 -1.088494553e-18 -0.001579547116)
(-0.1107772111 -0.06957065185 -1.305121934e-19 0.1126192828 4.55695812e-19 -0.001842071711)
(-0.1008679729 -0.06640788791 5.825541223e-19 0.1029469268 -6.611732935e-20 -0.002078953884)
(-0.09147962982 -0.06292003585 -3.639248124e-19 0.09377011217 -1.082129679e-18 -0.002290482344)
(-0.0828545068 -0.05935739552 5.114101293e-19 0.08533089229 -5.035986814e-19 -0.002476385486)
(-0.07472650073 -0.05578967146 1.411690632e-18 0.07736210187 2.25090809e-19 -0.002635601138)
(-0.06724272523 -0.0523067029 -7.549086466e-19 0.07000940602 -8.381265334e-19 -0.002766680787)
(-0.06021595527 -0.04895579713 2.161028099e-19 0.06308346408 4.595368621e-19 -0.002867508809)
(-0.05373392471 -0.04574599431 3.368647569e-19 0.05666957188 3.537792371e-19 -0.002935647173)
(-0.0476762098 -0.04273337122 2.052426378e-19 0.05064424934 7.588939317e-19 -0.00296803954)
(-0.04209128671 -0.03987703485 8.253817419e-19 0.04505260867 -3.401816725e-19 -0.002961321956)
(-0.03691486829 -0.03725540469 -4.482254704e-19 0.03982638694 1.258164648e-18 -0.002911518649)
(-0.03216515946 -0.03479231683 2.710554907e-19 0.03497950064 -5.20096333e-19 -0.002814341173)
(-0.02782932592 -0.03259077746 -5.91324252e-19 0.03049419752 4.54707485e-19 -0.002664871598)
(-0.02389692744 -0.0305547509 7.595690991e-19 0.02635480245 -3.159321855e-19 -0.00245787501)
(-0.0204077318 -0.02879757132 4.532412404e-19 0.02259518205 5.810056308e-19 -0.002187450243)
(-0.01731993051 -0.02723738099 1.561446505e-18 0.01916731651 -5.984706905e-19 -0.001847386002)
(-0.01473022004 -0.02595399538 -3.486958437e-19 0.01616096952 8.687512908e-19 -0.001430749483)
(-0.01255432809 -0.02494714079 1.318821747e-18 0.01348466519 4.551250651e-19 -0.000930337097)
(-0.01095873305 -0.02420229226 -8.613177863e-19 0.01129688827 -4.492089682e-19 -0.0003381552197)
(-0.1651192933 -0.0716878267 2.348216841e-19 0.1653429329 1.260557842e-18 -0.0002236395628)
(-0.151032875 -0.07979702274 2.039493393e-19 0.1516413188 6.087266894e-20 -0.0006084437767)
(-0.1376899085 -0.08279164336 -4.395553727e-19 0.1386445135 9.62940332e-19 -0.0009546049918)
(-0.1250772747 -0.08244556134 2.202767216e-19 0.1263452677 -8.073278266e-19 -0.00126799296)
(-0.113564126 -0.08042379079 3.438796145e-19 0.1151166946 -1.804694873e-19 -0.001552568564)
(-0.1027629992 -0.07724198625 6.816397986e-20 0.1045736118 7.854769548e-19 -0.001810612613)
(-0.09296152299 -0.07356897367 -6.910374307e-19 0.0950049823 8.948332173e-20 -0.002043459315)
(-0.08377463786 -0.06957051499 3.501927906e-19 0.08602603189 -3.619019397e-20 -0.002251394028)
(-0.07540709937 -0.06551898859 -7.734547724e-19 0.07784124992 1.284185338e-18 -0.002434150559)
(-0.0675640491 -0.06147873888 -7.348854386e-20 0.07015473487 -4.641713816e-19 -0.002590685764)
(-0.06038237171 -0.05754956653 3.179641854e-19 0.0631019467 7.707820454e-19 -0.002719574983)
(-0.05365494178 -0.05377490098 8.254915781e-19 0.0564736803 -7.651416257e-20 -0.002818738518)
(-0.04747236727 -0.05016724285 -1.640702696e-19 0.05035814518 2.23878355e-19 -0.002885777904)
(-0.0416961893 -0.04678156953 -3.515107473e-19 0.04461387704 -6.918149084e-19 -0.002917687744)
(-0.0363856234 -0.04357632482 3.387856404e-19 0.03929678186 -4.693252693e-20 -0.002911158469)
(-0.0314569396 -0.04063196003 2.467643881e-19 0.03431921895 -8.578305712e-19 -0.002862279349)
(-0.02694419653 -0.03786864602 3.691943729e-20 0.02971102698 -2.374729449e-20 -0.002766830449)
(-0.02281353253 -0.03539427815 7.85301438e-19 0.02543350511 -7.359896924e-19 -0.002619972576)
(-0.01907116124 -0.03310744429 1.508000674e-19 0.02148771403 -3.258899291e-19 -0.002416552792)
(-0.01574031837 -0.03112708387 -7.030077829e-19 0.01789108005 -6.075622455e-19 -0.002150761675)
(-0.01278456341 -0.02936823454 5.861589031e-19 0.01460104552 -2.203707205e-19 -0.001816482107)
(-0.01030626441 -0.02791085533 1.626814525e-18 0.01171314953 3.611681417e-19 -0.001406885115)
(-0.008196503867 -0.02676028439 6.873258354e-19 0.009111376335 -1.28802649e-18 -0.0009148724686)
(-0.006659245151 -0.02589460074 1.307433512e-19 0.006991807804 8.852372429e-19 -0.0003325626533)
(-0.1611679772 -0.08077294911 -2.279499052e-20 0.1613870256 -6.7994681e-19 -0.0002190484458)
(-0.1447176662 -0.0884792492 -1.263683849e-18 0.1453136194 4.258799942e-19 -0.0005959531665)
(-0.1300297128 -0.09097222235 8.359146847e-19 0.1309647175 -2.055896198e-18 -0.0009350046824)
(-0.1167515985 -0.09007073384 -7.323414933e-19 0.1179935539 6.632903871e-19 -0.001241955416)
(-0.1049565132 -0.08749845276 7.447926174e-19 0.1064772014 -2.250791122e-19 -0.001520688209)
(-0.09413583858 -0.08376726161 7.536223664e-19 0.09590927777 -1.388421777e-19 -0.001773439193)
(-0.08446646751 -0.07957567537 4.010723581e-20 0.08646798496 -3.186806229e-19 -0.002001517447)
(-0.07550910368 -0.0750767627 2.244071977e-19 0.07771430743 -3.748494736e-19 -0.002205203749)
(-0.06742851052 -0.07055884632 7.139448385e-19 0.06981274936 -6.609901303e-19 -0.002384238838)
(-0.05990022324 -0.06607491137 3.257606535e-19 0.06243782417 4.914937027e-19 -0.002537600927)
(-0.05305005748 -0.06173329856 -7.154711185e-19 0.05571395223 -6.238162998e-19 -0.002663894751)
(-0.04665040176 -0.05756939557 1.257969442e-19 0.04941148361 -2.947124349e-20 -0.002761081841)
(-0.04079469485 -0.05359994779 3.96068378e-19 0.04362150686 2.919862479e-19 -0.002826812014)
(-0.03532580925 -0.0498752308 -2.80698882e-19 0.03818394825 5.546632051e-19 -0.002858138999)
(-0.03031416678 -0.04635509574 1.716406118e-20 0.03316598594 7.14637334e-19 -0.002851819161)
(-0.02565576412 -0.04311845603 -3.809916256e-19 0.02845978189 9.70044963e-19 -0.002804017765)
(-0.02140139789 -0.04008450237 -1.484198576e-19 0.02411199583 2.708994848e-19 -0.002710597939)
(-0.01749502369 -0.03736307463 -1.332436605e-18 0.02006183654 6.552911981e-19 -0.002566812851)
(-0.01396075523 -0.03484823037 1.046767111e-18 0.01632836468 7.915370707e-19 -0.002367609451)
(-0.01080342411 -0.03266748379 1.736487796e-19 0.01291071052 5.348441965e-19 -0.002107286405)
(-0.007992972376 -0.03072030139 8.640179796e-19 0.009772814466 7.826900946e-19 -0.00177984209)
(-0.005634983639 -0.02911400187 -1.212275086e-18 0.007013554358 -6.954990704e-19 -0.001378570719)
(-0.003593108801 -0.02781283654 2.031950993e-18 0.00448961326 3.546549644e-19 -0.0008965044597)
(-0.002110820303 -0.02683841923 -2.950969824e-19 0.002436722935 -1.336563906e-18 -0.0003259026327)
(-0.1567204918 -0.08967759358 1.876999551e-18 0.1569342703 -2.301274948e-20 -0.0002137785093)
(-0.1378955456 -0.09651925351 3.438830887e-20 0.1384771452 -8.513944061e-19 -0.0005815996133)
(-0.1218699286 -0.09823115252 -1.99800347e-19 0.1227824042 -1.919264567e-19 -0.000912475546)
(-0.1079451463 -0.09661707617 5.137869569e-19 0.1091571705 1.251242056e-18 -0.0012120242)
(-0.0958917365 -0.09340831028 -5.283916956e-19 0.097375775 -3.695754954e-19 -0.001484038506)
(-0.08507844143 -0.0890903075 3.469084242e-19 0.08680914415 5.049201109e-19 -0.001730702721)
(-0.07556859821 -0.08437263427 -5.861787518e-19 0.07752189494 -1.511202734e-19 -0.001953296732)
(-0.06686850512 -0.07938488481 -5.966733962e-19 0.0690206011 7.37881712e-19 -0.002152095979)
(-0.05910169881 -0.07442487898 5.95409135e-20 0.06142854722 6.064379523e-19 -0.002326848416)
(-0.05191421763 -0.06952811867 1.097565866e-19 0.05439077506 7.6972397e-19 -0.002476557433)
(-0.04542030779 -0.06480991766 2.441955628e-19 0.04802016852 1.234010965e-19 -0.00259986073)
(-0.03937194717 -0.0602933945 7.630459796e-19 0.04206671552 6.747880707e-19 -0.002694768345)
(-0.03386531267 -0.05600027982 7.1700125e-19 0.03662429763 8.607285298e-21 -0.00275898496)
(-0.02872451743 -0.0519724749 4.684144538e-19 0.03151415098 -8.315453787e-19 -0.00278963355)
(-0.02403141218 -0.04817333559 1.062922566e-18 0.02681495797 -3.009188663e-19 -0.002783545795)
(-0.019661293 -0.04467653014 3.198949937e-19 0.02239826885 -1.239814673e-18 -0.002736975843)
(-0.01568241812 -0.04140309806 2.206787246e-19 0.01832829994 -2.061919446e-19 -0.002645881823)
(-0.01201505251 -0.03846128637 9.674681765e-19 0.01452067772 -7.684618346e-19 -0.002505625215)
(-0.008704049378 -0.03574289775 -9.219078812e-19 0.01101531668 -8.716718842e-20 -0.002311267298)
(-0.00572940308 -0.03338241241 -4.872526627e-19 0.007786637227 -5.36521563e-19 -0.002057234147)
(-0.003079593515 -0.03126356529 6.469537386e-20 0.004817250172 -1.466720495e-20 -0.001737656657)
(-0.0008414510641 -0.02952144924 -1.332322771e-19 0.002187425272 8.248610452e-19 -0.001345974208)
(0.0011183885 -0.02808434874 -1.577354343e-18 -0.0002430210767 -7.848864533e-19 -0.0008753674228)
(0.002552748853 -0.02700639746 1.184488696e-18 -0.002234496262 -7.331390349e-20 -0.0003182525908)
(-0.1517786124 -0.0983745229 -5.103269751e-19 0.1519864369 5.171131229e-19 -0.0002078245324)
(-0.1306496305 -0.1038881995 2.372914259e-19 0.1312150322 -9.447465524e-19 -0.0005654016928)
(-0.1133438504 -0.1045393226 -2.106003556e-19 0.1142309097 1.691969087e-18 -0.0008870593568)
(-0.09882036317 -0.1020561593 3.630653465e-19 0.09999862526 -8.194759783e-19 -0.001178262086)
(-0.08654893313 -0.09812598008 -7.952757299e-20 0.08799163391 4.44332917e-19 -0.001442700782)
(-0.07577826464 -0.09318511135 1.363411987e-18 0.07746076566 -6.148123085e-19 -0.001682501021)
(-0.06645830375 -0.08793529488 2.373518759e-19 0.06835721331 2.232275767e-19 -0.001898909555)
(-0.05804284046 -0.08247183869 9.875068943e-19 0.06013503589 -8.214309147e-19 -0.002092195432)
(-0.0506138804 -0.07709555511 2.773601385e-19 0.05287599535 -2.200816783e-19 -0.002262114948)
(-0.04378929553 -0.07181828441 6.891434998e-19 0.04619699477 -6.783240511e-19 -0.00240769923)
(-0.03767139383 -0.06676076535 -1.264629461e-18 0.0401990176 -4.559776999e-19 -0.002527623772)
(-0.0319926746 -0.0619295393 1.115774662e-20 0.03461262726 -2.211595988e-19 -0.002619952666)
(-0.02685172262 -0.05735212398 -3.040833514e-19 0.02953417589 -6.324015438e-19 -0.002682453275)
(-0.02205454005 -0.05305824035 -4.984008224e-19 0.02476686619 -2.868307185e-19 -0.00271232614)
(-0.01769418753 -0.04901701542 -2.844810875e-19 0.02040067635 3.842938641e-19 -0.002706488818)
(-0.01362556751 -0.0452928498 6.059140513e-20 0.01628686274 7.766110878e-19 -0.002661295234)
(-0.009934590895 -0.04181212208 -3.056529745e-19 0.01250740285 5.751769368e-19 -0.002572811957)
(-0.006517113524 -0.03867675163 1.874391524e-20 0.008953635696 -5.793293999e-19 -0.002436522172)
(-0.003440823784 -0.03578146541 1.664398883e-18 0.005688441912 1.960529425e-18 -0.002247618128)
(-0.0006560235235 -0.03326073483 -4.991068458e-20 0.002656693035 3.344206955e-20 -0.002000669511)
(0.001821256376 -0.03099219091 1.977720099e-18 -0.0001312966065 1.260286644e-18 -0.00168995977)
(0.003937412122 -0.02912580578 -4.612716156e-19 -0.002628318551 -1.216362003e-18 -0.001309093571)
(0.005806135864 -0.02756653542 -9.612480587e-20 -0.004954710554 -2.262128393e-19 -0.0008514253098)
(0.007185281707 -0.02639936806 -9.677854626e-19 -0.006875718229 -1.80913144e-19 -0.0003095634782)
(-0.1463452589 -0.1068351445 8.520024802e-19 0.1465464857 2.331820757e-19 -0.0002012267678)
(-0.1230641394 -0.110569935 -5.042910461e-19 0.1236115755 5.119997222e-19 -0.000547436067)
(-0.1045856621 -0.1098890266 3.302997231e-20 0.1054445259 -5.660680045e-20 -0.000858863831)
(-0.08954034698 -0.1063859815 1.579516815e-19 0.0906811519 3.612331171e-19 -0.001140804911)
(-0.07710783511 -0.1016535083 -8.273060458e-19 0.07850467199 -2.933420682e-19 -0.001396836883)
(-0.06642320358 -0.09605658131 4.996849971e-19 0.06805222346 -3.355920067e-19 -0.001629019876)
(-0.05732644136 -0.0902706245 -3.485912183e-19 0.05916500495 -3.963795304e-19 -0.001838563585)
(-0.0492224997 -0.08434613395 -4.653530837e-19 0.05124822957 -3.60136214e-19 -0.002025729873)
(-0.04215272909 -0.07858049883 7.483397757e-19 0.04434301291 -2.035857869e-20 -0.002190283821)
(-0.03570914885 -0.07295592889 1.065246176e-18 0.0380404365 8.063522241e-20 -0.002331287647)
(-0.02998209259 -0.06759701973 1.111660389e-18 0.03242955098 1.506886416e-19 -0.002447458392)
(-0.024686179 -0.06248959284 1.585505219e-19 0.02722309974 3.912222681e-19 -0.002536920733)
(-0.0199219809 -0.05766770366 2.558549226e-19 0.02251949227 8.903205294e-19 -0.002597511365)
(-0.01547864609 -0.05314521205 7.304810107e-19 0.01810516374 1.768303202e-19 -0.002626517656)
(-0.01145980939 -0.04889924732 7.605070821e-19 0.01408076168 1.350782976e-18 -0.002620952284)
(-0.007701096253 -0.04498095521 3.071801441e-19 0.01027837717 -4.061467201e-19 -0.002577280913)
(-0.004305327465 -0.04132562179 -5.784799532e-19 0.006797017595 -1.094309654e-18 -0.00249169013)
(-0.00114492524 -0.0380237898 -1.311886369e-19 0.003504724946 6.703989169e-19 -0.002359799705)
(0.001690065496 -0.03497896767 7.287383864e-19 0.0004868812706 -9.603461326e-19 -0.002176946766)
(0.004278940508 -0.03231698599 -9.608877996e-19 -0.002341077708 -1.062760289e-18 -0.001937862799)
(0.006576650908 -0.02992201449 -3.980210065e-19 -0.004939650535 -9.408383423e-19 -0.001637000372)
(0.008566406649 -0.02794044449 7.108497109e-19 -0.007298256051 -1.367465201e-18 -0.001268150599)
(0.01033594793 -0.02627626548 -1.154090823e-18 -0.009511088579 5.162065042e-20 -0.0008248593552)
(0.01165547189 -0.02502299214 1.046797596e-18 -0.01135553154 4.190961102e-20 -0.0002999403553)
(-0.1404255851 -0.1150295541 -5.610051182e-20 0.1406195695 5.828153187e-19 -0.000193984456)
(-0.1152223321 -0.1165603988 5.028401554e-19 0.1157500653 -6.109870504e-19 -0.0005277332021)
(-0.09572656205 -0.1142930344 -6.257605995e-19 0.09655451095 1.325423387e-18 -0.0008279488992)
(-0.08026404168 -0.1096299869 8.020575836e-19 0.08136378106 -6.837256955e-19 -0.001099739383)
(-0.06774319788 -0.1040212219 -5.764971083e-19 0.06908975519 6.031286617e-20 -0.001346557308)
(-0.05719576645 -0.09773940769 -4.91134664e-20 0.05876615754 8.175025746e-19 -0.001570391096)
(-0.04835813324 -0.09141595711 6.501383918e-19 0.05013054267 3.118162051e-19 -0.001772409433)
(-0.04059202422 -0.0850466776 -5.576084918e-19 0.04254489038 7.478068265e-19 -0.001952866164)
(-0.03389993205 -0.07891938222 -7.294849799e-19 0.03601146795 2.530033229e-19 -0.002111535907)
(-0.02785150047 -0.07298104827 -4.901083964e-19 0.03009901514 7.553486209e-19 -0.002247514676)
(-0.02252518106 -0.06735861889 -1.760833818e-19 0.02488474631 -8.015815217e-19 -0.00235956525)
(-0.0176201541 -0.06201329419 5.224146535e-19 0.02006603255 7.948908495e-19 -0.002445878449)
(-0.013238311 -0.05698636983 -4.129360977e-20 0.01574267835 -1.393231277e-18 -0.002504367355)
(-0.009153970959 -0.052272375 -4.391477839e-19 0.01168638524 -3.426240731e-19 -0.002532414281)
(-0.005480208422 -0.04785852958 8.675140781e-19 0.008007345204 -9.413959035e-19 -0.002527136781)
(-0.002035345463 -0.04377899588 1.465331673e-19 0.00452046821 -1.499643581e-18 -0.002485122747)
(0.001062431348 -0.03998125362 7.609650289e-19 0.00134025998 4.270737617e-19 -0.002402691328)
(0.003961841916 -0.03653985932 -9.597010108e-20 -0.001686230219 -1.238149526e-18 -0.002275611697)
(0.006552852691 -0.0333723064 7.146618498e-19 -0.004453471252 1.152399637e-18 -0.002099381438)
(0.008940517948 -0.03058817672 1.318815339e-18 -0.007071608569 -7.349274334e-19 -0.001868909379)
(0.01105573751 -0.02808913386 -3.028884249e-19 -0.009476901473 1.161836604e-18 -0.001578836038)