/*--------------------------------*- C++ -*----------------------------------*\
| =========                 |                                                 |
| \\      /  F ield         | foam-extend: Open Source CFD                    |
|  \\    /   O peration     | Version:  3.0                                   |
|   \\  /    A nd           | Web:         http://www.extend-project.de       |
|    \\/     M anipulation  |                                                 |
\*---------------------------------------------------------------------------*/
FoamFile
{
    version     2.0;
    format      ascii;
    class       volSymmTensorField;
    location    "26";
    object      sigma;
}
// * * * * * * * * * * * * * * * * * * * * * * * * * * * * * * * * * * * * * //

dimensions      [0 0 0 0 0 0 0];

internalField   nonuniform List<symmTensor> 
672
(
(-0.1684896077 -0.01037919914 -1.227928798e-19 0.1684430667 -2.489701468e-20 4.654104678e-05)
(-0.1552401206 -0.01196783716 -2.837697105e-19 0.1551234785 -1.502047832e-20 0.0001166420969)
(-0.1365834629 -0.01179825855 -1.889284992e-19 0.136409026 -5.896541528e-21 0.0001744368446)
(-0.1173289449 -0.01095567768 -7.985089035e-20 0.1171073828 -8.551989171e-22 0.0002215620455)
(-0.09919994164 -0.009889690947 -3.092256826e-19 0.09894154142 -3.425076037e-20 0.0002584002197)
(-0.08271688317 -0.008797699494 -3.006279378e-19 0.08243289786 -1.468852107e-19 0.0002839853046)
(-0.06801682995 -0.007766348229 -4.639875861e-19 0.06771994239 -1.5423064e-19 0.0002968875522)
(-0.05512637861 -0.006844502358 -5.702933918e-19 0.05483176926 -4.108987894e-19 0.0002946093457)
(-0.04403211991 -0.006050646424 -5.920611877e-19 0.04375776871 -2.718572348e-19 0.000274351199)
(-0.03484615599 -0.005414110355 -3.317398245e-19 0.03461390798 -1.309742968e-20 0.00023224801)
(-0.02765997428 -0.00494613771 -1.00293751e-19 0.02749582743 1.222376264e-19 0.0001641468473)
(-0.02281079063 -0.004674172391 -3.116838492e-20 0.02274595507 -2.034248837e-19 6.483555901e-05)
(-0.1655832475 -0.0308267718 -1.016542313e-19 0.1655381585 7.928474194e-21 4.508902952e-05)
(-0.1504461814 -0.03524853784 -2.699111406e-19 0.1503331685 6.216391942e-20 0.000113012859)
(-0.1312472365 -0.03462647458 -2.202964939e-19 0.1310782088 1.462900941e-19 0.0001690277073)
(-0.11201973 -0.03208550756 -4.920451658e-20 0.1118050431 -4.968796141e-20 0.0002146869334)
(-0.09415554789 -0.02891829752 -2.987991521e-19 0.0939051687 2.24525253e-20 0.0002503791961)
(-0.07802090906 -0.02569062393 -2.962989227e-19 0.07774574942 -2.431206697e-19 0.0002751596383)
(-0.06368179548 -0.02265024806 -5.51854693e-19 0.06339415206 -3.683891322e-19 0.0002876434203)
(-0.05112287454 -0.01993657401 -8.906717604e-19 0.0508374637 -5.609240701e-19 0.000285410839)
(-0.04031400626 -0.01760233376 -4.910175458e-19 0.04004825369 -7.331596404e-20 0.0002657525772)
(-0.03134568352 -0.01573211375 -1.05500119e-19 0.03112075085 -1.080202416e-19 0.0002249326676)
(-0.02430287236 -0.01435897202 -3.311747972e-19 0.02414392852 -1.35550551e-19 0.0001589438409)
(-0.01951057424 -0.01356555555 -1.558302383e-19 0.01944781334 -1.661030808e-19 6.276089835e-05)
(-0.1598987274 -0.05050181498 -3.114474308e-20 0.1598556417 -5.022985465e-20 4.308576535e-05)
(-0.1412386357 -0.05669273456 -2.080696326e-19 0.141130654 1.371333197e-19 0.0001079817013)
(-0.1210480008 -0.0552445604 -2.751366643e-19 0.1208865022 2.578969074e-19 0.0001614986248)
(-0.1018975511 -0.05093139461 -2.236152409e-19 0.1016924334 7.816631385e-20 0.0002051176962)
(-0.08455490555 -0.04572066187 -3.469118022e-19 0.08431569182 5.659651305e-20 0.0002392137259)
(-0.06909622454 -0.04046689842 -6.910478526e-19 0.06883334747 -1.612582319e-19 0.0002628770785)
(-0.05545392396 -0.0355418061 -1.004754401e-18 0.05517914138 -4.584975699e-20 0.0002747825748)
(-0.04353394823 -0.03115313874 -9.394654083e-19 0.04326132856 -7.446135279e-20 0.0002726196701)
(-0.03327474334 -0.0273788927 -3.314764048e-19 0.03302093806 1.095650053e-20 0.0002538052842)
(-0.02472606201 -0.02434790716 -5.049656026e-19 0.02451128073 -2.5555409e-19 0.0002147812754)
(-0.01796047643 -0.02211197553 -3.646041739e-19 0.01780874102 -2.429175087e-19 0.0001517354069)
(-0.01327939414 -0.02080389227 -6.434425678e-20 0.0132195013 -1.768552772e-19 5.989283638e-05)
(-0.1516737119 -0.06894866542 5.329694155e-20 0.1516331792 -5.180403038e-20 4.053266367e-05)
(-0.1283349396 -0.07527605624 -2.52040236e-20 0.128233356 1.658136048e-19 0.0001015835511)
(-0.1068804358 -0.07243176368 -1.893817486e-19 0.1067285023 2.650129428e-19 0.0001519335001)
(-0.0879018372 -0.06623749727 -2.149670418e-19 0.0877088706 1.857424267e-19 0.0001929665952)
(-0.07132320815 -0.05907623949 -2.60522843e-19 0.07109816876 -3.243432632e-20 0.0002250393896)
(-0.05682975551 -0.0519687617 -4.744132454e-19 0.05658246586 1.093056905e-19 0.0002472896424)
(-0.04417423775 -0.0453535235 -6.353733397e-19 0.04391576877 3.618034267e-19 0.0002584689782)
(-0.03315689653 -0.0394725117 -1.291061166e-18 0.03290049193 3.366583879e-19 0.0002564046071)
(-0.02367407891 -0.03441518232 -7.138372627e-19 0.0234354076 1.223590141e-19 0.0002386713136)
(-0.01572047228 -0.03033767542 -8.867787572e-19 0.01551853917 6.058056511e-19 0.0002019331033)
(-0.009351690355 -0.02730576278 -7.253775792e-19 0.009209068836 2.236438068e-19 0.0001426215186)
(-0.00483618478 -0.02549452367 -1.872265966e-19 0.004779911025 2.75888116e-19 5.627375446e-05)
(-0.1412372551 -0.08579369431 -2.65709713e-21 0.1411997859 1.394985473e-19 3.746918268e-05)
(-0.1127145392 -0.0902512413 6.459397666e-20 0.1126206325 2.279497514e-19 9.39067036e-05)
(-0.08996368793 -0.08531764286 -1.791056291e-19 0.08982323169 3.189378942e-19 0.0001404562408)
(-0.07131166136 -0.07711796311 -3.144292322e-19 0.07113327408 1.599071483e-19 0.0001783872878)
(-0.05571948704 -0.06813023057 -4.350689269e-19 0.05551145493 5.561624383e-21 0.0002080321064)
(-0.04242797318 -0.05939010836 -3.544075276e-19 0.04219938462 2.450179956e-19 0.000228588565)
(-0.03098636067 -0.05133223063 -2.007478918e-19 0.03074745964 3.181252716e-19 0.0002389010256)
(-0.0210755294 -0.04419073782 -1.011029397e-18 0.02083856718 4.652073649e-19 0.0002369622185)
(-0.01254444706 -0.03804952865 -4.354335461e-19 0.01232391173 4.729097257e-19 0.0002205353356)
(-0.005324939169 -0.03307109317 3.620572548e-19 0.005138392076 4.229477537e-19 0.0001865470933)
(0.0005471377277 -0.02932926981 -7.267252669e-19 -0.0006788549164 4.540958826e-19 0.0001317171887)
(0.004842866079 -0.02703154071 -2.091472978e-19 -0.00489481513 2.256905408e-19 5.194905164e-05)
(-0.1289803324 -0.1007658798 -4.120826302e-22 0.1289463978 1.777934804e-19 3.39346368e-05)
(-0.09551480234 -0.1012150963 9.52889079e-20 0.09542975323 3.035190425e-19 8.504910302e-05)
(-0.07170915912 -0.09346635884 4.713213413e-20 0.07158194565 2.384365419e-19 0.0001272134755)
(-0.05360582046 -0.08314580364 -3.562507838e-19 0.05344425444 1.590126374e-19 0.0001615660215)
(-0.03919813387 -0.07248133028 -2.3051755e-19 0.03900972349 -1.150181879e-19 0.0001884103832)
(-0.02728361357 -0.0623607742 -2.8988633e-19 0.02707659907 2.333519565e-19 0.0002070144975)
(-0.01720969125 -0.05313915773 3.883259427e-19 0.01699336108 3.61347777e-20 0.0002163301686)
(-0.008539522386 -0.04499763946 -4.296990447e-19 0.008324981297 7.544625779e-20 0.000214541089)
(-0.001075634401 -0.03799633506 -9.555540337e-19 0.0008760076577 1.180927086e-19 0.0001996267428)
(0.005313305428 -0.03228151546 -2.312777188e-19 -0.005482120783 4.513989263e-19 0.0001688153543)
(0.01061194808 -0.02792867198 7.815710377e-19 -0.01073110408 3.373206354e-21 0.0001191559943)
(0.0146342772 -0.02516677149 -3.728224945e-19 -0.0146812475 2.192908679e-20 4.697030179e-05)
(-0.1153217984 -0.1137068575 4.883215632e-20 0.1152918254 1.060813003e-19 2.997295131e-05)
(-0.0779111207 -0.1081377111 9.041384078e-20 0.07783599934 2.837382571e-19 7.512135088e-05)
(-0.05356822477 -0.09691291172 2.253189896e-19 0.05345585485 7.710292596e-20 0.0001123699169)
(-0.03630168379 -0.08439086063 -1.898584377e-19 0.03615897185 -1.036498301e-19 0.0001427119436)
(-0.02324939191 -0.07221906476 -7.168986856e-19 0.02308297369 -9.765728625e-20 0.0001664182239)
(-0.01282216873 -0.06098229059 -4.705846123e-19 0.0126393323 1.524556789e-19 0.0001828364324)
(-0.004193326412 -0.05088379623 -1.570333194e-19 0.004002287468 6.053953688e-21 0.0001910389444)
(0.003174515034 -0.04200887885 2.646667168e-20 -0.003363937937 2.162866173e-19 0.0001894229024)
(0.00951802401 -0.0343765854 -1.673457826e-19 -0.009694233389 4.467744265e-19 0.0001762093798)
(0.0150243461 -0.02809538048 -5.077400284e-20 -0.01517330865 2.965396298e-19 0.0001489625579)
(0.01969730699 -0.023236176 -4.596612674e-19 -0.0198024051 -1.965513191e-19 0.0001050981117)
(0.02339384287 -0.02003855128 -5.74606203e-20 -0.0234352449 4.72379424e-19 4.140203695e-05)
(-0.1006733867 -0.1245695601 2.399546079e-20 0.1006477521 1.155219322e-19 2.563463783e-05)
(-0.06099448123 -0.1113507029 1.167439109e-19 0.0609302317 1.893401558e-19 6.424953155e-05)
(-0.03687685934 -0.09614726098 1.02489848e-19 0.03678074526 4.208161319e-20 9.611407597e-05)
(-0.02079080343 -0.08140256406 -2.635680973e-20 0.02066873959 -7.742249313e-20 0.0001220638431)
(-0.009236685468 -0.06790646274 -6.486971275e-19 0.009094352068 2.163989781e-19 0.0001423334004)
(-0.0003453479908 -0.05581100156 -7.194339745e-19 0.0001889894079 2.362236456e-19 0.0001563585829)
(0.006832872016 -0.04510767158 -7.845049709e-19 -0.006996216179 4.870325583e-19 0.0001633441624)
(0.01290468533 -0.03575036902 -1.4087692e-19 -0.01306660653 4.434997692e-19 0.0001619211989)
(0.01813302502 -0.02770281114 -2.614746815e-19 -0.01828359964 4.590703551e-19 0.0001505746258)
(0.02274660082 -0.02101752574 -2.586290226e-19 -0.02287383612 7.119521178e-19 0.0001272352972)
(0.02676517792 -0.01575548005 4.88132368e-19 -0.02685489557 5.343441859e-19 8.971765214e-05)
(0.03008564556 -0.01215705857 -1.740958546e-19 -0.03012095816 2.424821673e-19 3.531260027e-05)
(-0.08540761193 -0.1334058234 -5.792330346e-20 0.08538663778 1.508690973e-19 2.097415103e-05)
(-0.04566014583 -0.1114960632 1.280161725e-19 0.04560757541 1.207155803e-19 5.257042442e-05)
(-0.02271449059 -0.09204830517 1.435925817e-19 0.02263584007 -2.489982753e-20 7.865052572e-05)
(-0.008189652601 -0.07513959984 -1.518988265e-19 0.008089770704 1.869902329e-19 9.988189689e-05)
(0.001751048356 -0.06051014257 6.399828086e-20 -0.001867508227 2.484537868e-19 0.0001164598707)
(0.009110982442 -0.04779056234 -5.753124439e-19 -0.009238897987 3.925196062e-19 0.0001279155457)
(0.01489341094 -0.03671991786 -3.181873878e-19 -0.01502700704 4.365041436e-19 0.000133596099)
(0.01973228726 -0.0270968342 -3.441292768e-19 -0.01986467095 6.011281379e-19 0.0001323836875)
(0.02389947589 -0.01882020079 3.56354163e-19 -0.02402252214 9.564190321e-19 0.0001230462514)
(0.02764561015 -0.01187406015 7.268803212e-19 -0.02774951764 3.98380478e-19 0.0001039074901)
(0.03100165917 -0.006305490281 3.107623605e-19 -0.03107486742 -1.898359569e-19 7.320825019e-05)
(0.03389899049 -0.00234784236 3.35737902e-19 -0.03392776905 -5.181720007e-20 2.877856245e-05)
(-0.06983194232 -0.1403445832 -1.355654412e-19 0.06981589183 1.2449477e-19 1.605048489e-05)
(-0.03251979376 -0.1094414863 -4.84635403e-20 0.03247956224 6.750556337e-20 4.023151573e-05)
(-0.01179284162 -0.08577526565 -2.857318769e-19 0.0117326421 1.545207624e-19 6.019952729e-05)
(0.0007778232906 -0.06685446447 -1.565270745e-19 -0.0008542686887 3.201136818e-19 7.644539814e-05)
(0.009015486146 -0.05128575252 -6.119941944e-21 -0.009104608982 3.819585267e-19 8.912283634e-05)
(0.01488847423 -0.03814144865 2.558998812e-19 -0.01498633862 3.191088692e-19 9.786439013e-05)
(0.01937335473 -0.02689195427 -1.605086467e-19 -0.01947552278 2.198975288e-19 0.0001021680441)
(0.02308274947 -0.0171714514 9.848610128e-20 -0.02318393067 5.977139114e-19 0.0001011812072)
(0.02627751043 -0.008810518668 8.243597408e-19 -0.02637148087 3.739261316e-19 9.397043077e-05)
(0.02920729107 -0.001719222281 8.501022396e-19 -0.02928656421 -4.073621647e-19 7.927313829e-05)
(0.03190859305 0.004071349689 -9.698359704e-20 -0.0319643717 -2.349519265e-19 5.577864736e-05)
(0.03434014121 0.008340127899 2.049066649e-19 -0.03436202435 -7.584260552e-20 2.188313685e-05)
(-0.05417197662 -0.145563311 -9.437526296e-20 0.05416105104 5.062768475e-20 1.092557481e-05)
(-0.0218468188 -0.1061718715 -9.73856915e-20 0.02181943072 5.507699286e-20 2.738808282e-05)
(-0.004387088464 -0.07862878421 -1.610009835e-19 0.004346095025 1.757739522e-19 4.099343909e-05)
(0.005852777393 -0.05794598042 -2.63594811e-20 -0.005904827112 2.376524652e-19 5.204971927e-05)
(0.01232056528 -0.04163168223 -1.495310334e-19 -0.01238123236 3.733358299e-19 6.066707505e-05)
(0.01677511371 -0.02821994387 3.074939292e-19 -0.01684169783 2.546525342e-19 6.658411332e-05)
(0.02008369084 -0.01692310278 6.878098898e-20 -0.02015314679 2.251418308e-19 6.945594982e-05)
(0.02278769764 -0.007217868306 3.34900561e-19 -0.02285640387 2.955132568e-19 6.870622748e-05)
(0.02511652158 0.001130397902 4.022922727e-19 -0.02518023336 -6.910263898e-20 6.371178637e-05)
(0.02729517802 0.008283315794 4.313264498e-20 -0.02734881819 -2.77321356e-19 5.364016782e-05)
(0.029359754 0.01422586492 -1.326715793e-19 -0.02939739956 -2.702835311e-20 3.764556627e-05)
(0.03128855744 0.01875157428 -1.661614238e-20 -0.03130326846 -2.473594086e-20 1.471102322e-05)
(-0.03856526645 -0.1492560685 7.021737408e-20 0.03855960269 -2.817847101e-20 5.663768566e-06)
(-0.01356075764 -0.1026692929 -7.923401808e-20 0.01354655626 -6.124150551e-22 1.420138548e-05)
(-0.0003169323502 -0.07189744533 -2.333959829e-19 0.0002956590806 1.232123924e-19 2.127326962e-05)
(0.007261106719 -0.04979639618 -2.791720678e-19 -0.007288107608 2.330843495e-19 2.700088939e-05)
(0.01191169198 -0.0329275475 -1.924549147e-19 -0.01194314155 3.565255015e-19 3.144956357e-05)
(0.01502352446 -0.01936246848 1.193328223e-19 -0.01505799188 2.254906881e-19 3.446742613e-05)
(0.01727859402 -0.008092283283 -2.96385214e-19 -0.01731446528 3.268380334e-19 3.587125976e-05)
(0.01910123228 0.001541026322 4.919665263e-19 -0.01913660034 2.891882097e-19 3.536805804e-05)
(0.02067059353 0.009827777788 3.051669516e-19 -0.02070324658 -1.172262143e-19 3.265305105e-05)
(0.02216523597 0.01699137977 -1.190954764e-19 -0.02219256984 -3.072118271e-19 2.733386993e-05)
(0.02361530787 0.02303095344 -6.483206612e-19 -0.02363434841 -2.60784407e-20 1.904053659e-05)
(0.02501129505 0.02775405008 1.59509573e-19 -0.02501865012 1.643513072e-21 7.35507771e-06)
(-0.02306625714 -0.1516019217 5.279566434e-20 0.02306592585 -2.404380344e-20 3.312955886e-07)
(-0.007252394942 -0.09979504329 -7.167445384e-20 0.007251557646 -4.363744016e-21 8.372956924e-07)
(0.001020441096 -0.06670702977 -2.095284384e-19 -0.001021728248 1.01254445e-19 1.287152496e-06)
(0.005678094271 -0.04361144158 -1.814483059e-19 -0.005679708423 2.097657091e-19 1.614151768e-06)
(0.008480440881 -0.02637561944 -5.757490669e-20 -0.008482278874 2.951853045e-19 1.837992742e-06)
(0.01031677089 -0.01273278293 -1.187002639e-21 -0.01031868919 2.601969101e-19 1.918296062e-06)
(0.01162269161 -0.001512451721 -2.062460308e-20 -0.01162452741 3.070740862e-19 1.835794961e-06)
(0.01266862561 0.008041688916 2.274630728e-19 -0.0126702104 1.641601242e-19 1.584788623e-06)
(0.01356841755 0.0162605252 -8.795731847e-20 -0.01356960004 -7.935394042e-20 1.182489307e-06)
(0.01443660416 0.0234127444 -1.949718134e-19 -0.0144372863 -1.901414497e-19 6.821418967e-07)
(0.01529292159 0.0295079541 -5.318700136e-19 -0.01529311548 -3.92679071e-20 1.938940083e-07)
(0.01613396397 0.03436461036 -3.844626792e-20 -0.01613386896 -1.9497783e-20 -9.501416509e-08)
(-0.007661514753 -0.1527373765 4.758433244e-20 0.007666519826 -9.553816975e-21 -5.005072676e-06)
(-0.002246536419 -0.09818707687 -5.71276419e-20 0.002259073074 1.061629177e-20 -1.253665539e-05)
(0.0005693801473 -0.06388950751 -2.061674608e-19 -0.0005506658311 8.132613135e-20 -1.871431614e-05)
(0.002142132703 -0.04028133825 -7.578781333e-20 -0.002118340656 1.680838018e-19 -2.379204715e-05)
(0.003078813339 -0.02286305244 -9.083698403e-20 -0.003051017433 2.489481669e-19 -2.779590593e-05)
(0.003685565297 -0.009189231729 -1.537166352e-20 -0.003654911083 2.55147214e-19 -3.065421426e-05)
(0.00411206029 0.001995849369 3.169267247e-21 -0.004079838384 2.678254722e-19 -3.222190613e-05)
(0.004450967921 0.01150031236 -7.801927312e-20 -0.004418750438 1.620232509e-19 -3.221748366e-05)
(0.004741080797 0.01967639657 -1.877175198e-19 -0.004710779081 -1.456806776e-20 -3.03017156e-05)
(0.005021532405 0.02681670061 -3.193999989e-19 -0.004995555502 -1.15917511e-19 -2.597690295e-05)
(0.005298753702 0.03293638186 -3.691900852e-19 -0.00528009999 -3.930678287e-20 -1.865371226e-05)
(0.005571472687 0.03785981634 -1.116091314e-19 -0.00556392984 -3.173290585e-20 -7.542847578e-06)
(0.00770671478 -0.1527360331 4.483090195e-20 -0.007696436631 5.616898722e-21 -1.027814984e-05)
(0.002304817572 -0.09818444408 -3.591993778e-20 -0.002279065328 2.818158163e-20 -2.575224401e-05)
(-0.00050399004 -0.06388652294 -1.857920685e-19 0.0005424695889 6.019305656e-20 -3.847954884e-05)
(-0.002072643222 -0.04027842031 6.632489575e-21 0.002121541369 1.300189944e-19 -4.889814696e-05)
(-0.00300722714 -0.02286040145 -5.01534288e-20 0.003064306614 2.113187562e-19 -5.707947444e-05)
(-0.00361373374 -0.009186968362 -2.08623361e-20 0.003676574379 2.298706543e-19 -6.28406383e-05)
(-0.00404212082 0.001997623434 -3.280533159e-20 0.004107994895 2.623416028e-19 -6.587407468e-05)
(-0.004385711399 0.01150148337 -1.595445534e-19 0.004451325913 1.851122778e-19 -6.561451459e-05)
(-0.004684132607 0.01967682032 -3.400611212e-19 0.004745537769 2.056556748e-20 -6.140516202e-05)
(-0.00497757964 0.02681620111 -4.036064671e-19 0.005029889467 -6.74524258e-20 -5.230982757e-05)
(-0.00527392192 0.03293472396 -2.57661298e-19 0.005311189649 -9.824129836e-21 -3.726772897e-05)
(-0.005573660351 0.03785670375 -1.673493346e-19 0.005588557029 -5.428539315e-20 -1.489667787e-05)
(0.02311155919 -0.1515977938 5.500903929e-20 -0.02309613732 1.538128059e-20 -1.542186893e-05)
(0.007309563708 -0.09978724282 -3.749026815e-21 -0.007270920016 3.555958204e-20 -3.864369109e-05)
(-0.00095667446 -0.06669825029 -1.252269735e-19 0.001014434952 4.846839178e-20 -5.776049167e-05)
(-0.005610399201 -0.04360288165 4.063913981e-20 0.005683788114 9.29606227e-20 -7.338891392e-05)
(-0.008410636615 -0.02636785057 5.450733687e-20 0.00849628141 1.818890034e-19 -8.564479498e-05)
(-0.01024658328 -0.01272614821 7.370873173e-21 0.01034081962 1.924619298e-19 -9.423633506e-05)
(-0.01155414859 -0.001507240891 9.226400094e-20 0.01165284587 2.701305132e-19 -9.869728186e-05)
(-0.01260440104 0.008045150136 -3.863713892e-19 0.01270258686 2.009742892e-19 -9.81858177e-05)
(-0.0135119991 0.01626182158 -4.161651434e-19 0.01360373482 2.718367443e-20 -9.173571897e-05)
(-0.01439251723 0.02341136802 -3.098452561e-19 0.01447050154 -2.083694653e-20 -7.798431966e-05)
(-0.01526709033 0.02950322376 -2.005108098e-19 0.01532250274 5.639405616e-20 -5.541241008e-05)
(-0.01613404446 0.03435566739 -3.448429051e-19 0.01615610725 -8.88910149e-20 -2.206278188e-05)
(0.03861069667 -0.1492488811 6.268900346e-20 -0.03859032519 1.09645479e-20 -2.037147597e-05)
(0.01361575864 -0.1026566105 3.85189828e-20 -0.0135647098 1.404461545e-20 -5.104883603e-05)
(0.0003775627992 -0.07188337568 4.092999542e-20 -0.000301248157 6.038175187e-20 -7.631464221e-05)
(-0.007196874364 -0.04978275448 -5.083822597e-20 0.0072938307 5.637384052e-20 -9.695633523e-05)
(-0.01184533027 -0.03291519157 1.447067455e-19 0.01195846292 1.499228002e-19 -0.00011313265)
(-0.01495652136 -0.01935190935 -9.215964681e-20 0.01508096787 1.529742661e-19 -0.0001244465069)
(-0.01721276915 -0.008083954533 -6.16979775e-20 0.01734304797 2.452811637e-19 -0.0001302788269)
(-0.01903903598 0.001546631041 -4.692857093e-19 0.01916855782 1.764916728e-19 -0.0001295218396)
(-0.0206152501 0.009830022521 -2.148777187e-19 0.02073616222 7.749929293e-20 -0.0001209121205)
(-0.0221209604 0.01698948084 -4.439102494e-19 0.02222363807 9.551688824e-20 -0.0001026776739)
(-0.02358763768 0.02302385266 -2.941507832e-19 0.02366049778 8.872530837e-20 -7.286010209e-05)
(-0.02500741871 0.02774040529 -3.234668833e-19 0.02503637017 -1.162487739e-19 -2.895146916e-05)
(0.05421741693 -0.1455526485 -5.423901923e-20 -0.05419235206 -5.964098347e-20 -2.50648684e-05)
(0.02189870489 -0.1061547556 1.042777078e-19 -0.02183589299 -5.667593521e-20 -6.281190021e-05)
(0.004443279953 -0.07861020933 1.719719342e-19 -0.004349371036 3.165122256e-20 -9.390891703e-05)
(-0.005793436449 -0.05792812661 9.865121993e-20 0.005912740718 4.465212844e-20 -0.0001193042691)
(-0.01225907531 -0.04161556304 1.710824758e-19 0.01239827285 7.029639578e-20 -0.0001391975442)
(-0.01671263701 -0.02820615437 2.600027489e-20 0.01686572842 -4.800896412e-20 -0.0001530914124)
(-0.0200217598 -0.01691215257 5.079063587e-19 0.02018198154 1.542088228e-19 -0.0001602217382)
(-0.02272845294 -0.00721035071 -1.038442003e-19 0.02288768173 3.460541615e-19 -0.0001592287875)
(-0.02506282098 0.001133703556 -2.257981705e-19 0.02521138877 1.573973279e-19 -0.0001485677946)
(-0.02725080365 0.008281437662 -1.32696807e-19 0.02737688341 1.876339711e-19 -0.0001260797528)
(-0.02932970263 0.01421747494 -8.997183208e-20 0.02941909418 2.707017658e-19 -8.939155498e-05)
(-0.03127936334 0.01873497273 -3.800111568e-19 0.03131483955 -7.644202108e-20 -3.547620452e-05)
(0.06987708367 -0.1403299549 -1.090036703e-19 -0.06984764069 -1.192961802e-19 -2.944297583e-05)
(0.03256776714 -0.1094205104 8.990718021e-20 -0.03249398223 -1.522160563e-19 -7.378491807e-05)
(0.01184357861 -0.08575317198 2.324545847e-19 -0.01173325657 -6.872118418e-21 -0.0001103220354)
(-0.0007244755291 -0.0668334875 1.00301738e-19 0.0008646271861 5.094137403e-20 -0.0001401516571)
(-0.008959982088 -0.05126690035 -1.652857379e-20 0.00912349377 6.988837382e-21 -0.0001635116815)
(-0.01483159634 -0.03812529718 -3.78914694e-20 0.01501140709 -2.304311588e-19 -0.0001798107536)
(-0.01931629697 -0.02687900508 4.771636567e-19 0.01950444627 -1.276458082e-19 -0.0001881493012)
(-0.02302728374 -0.01716231339 2.238694522e-19 0.02321421649 2.664207261e-19 -0.0001869327537)
(-0.02622605598 -0.0088060184 -1.112061915e-19 0.02640041045 -2.093425507e-20 -0.0001743544736)
(-0.02916310854 -0.001720411497 4.316971249e-19 0.02931100422 -1.572894204e-19 -0.0001478956795)
(-0.0318760264 0.004063006122 3.667221496e-19 0.03198082482 4.12829166e-19 -0.000104798412)
(-0.03432493001 0.008322728017 -1.04736e-19 0.0343664846 9.904478699e-20 -4.155459487e-05)
(0.0854519266 -0.133386737 2.999491994e-20 -0.08541847579 -8.504756819e-20 -3.34508072e-05)
(0.04570358477 -0.1114718777 1.058376509e-19 -0.04561975478 -2.306685953e-19 -8.382999155e-05)
(0.02275909254 -0.09202378404 3.928955426e-19 -0.02263374486 -6.521387024e-20 -0.0001253476855)
(0.008236286595 -0.07511669742 1.604667546e-19 -0.008077050169 5.157310296e-20 -0.0001592364254)
(-0.001702276286 -0.06048968864 4.829292316e-20 0.001888045681 -5.295671056e-20 -0.0001857693953)
(-0.009060459442 -0.0477730025 -7.010127489e-20 0.009264728127 -2.818447266e-19 -0.0002042686846)
(-0.01484197242 -0.03670565575 2.943150547e-19 0.01505568301 -4.990113568e-19 -0.0002137105868)
(-0.01968130927 -0.0270864036 3.693247085e-19 0.01989359505 3.505316617e-20 -0.0002122857831)
(-0.02385090248 -0.01881437188 -4.460789098e-20 0.02404885096 3.491395074e-19 -0.0001979484756)
(-0.02760213315 -0.01187384709 -2.300915897e-19 0.02776998491 -1.909870092e-19 -0.000167851764)
(-0.03096690691 -0.006312350108 5.170813083e-19 0.03108579439 -1.848884454e-19 -0.0001188874747)
(-0.03387782687 -0.002363709753 -3.289595549e-19 0.03392493744 8.334948667e-20 -4.711056943e-05)
(0.1007161345 -0.124545606 -3.281476106e-21 -0.1006790966 -1.577793252e-19 -3.703792272e-05)
(0.0610329497 -0.1113239839 1.002451875e-19 -0.06094012894 -2.689265051e-19 -9.28207583e-05)
(0.03691499335 -0.09612140297 2.099254601e-19 -0.03677619646 -2.866535289e-19 -0.0001387968846)
(0.02083039807 -0.08137892259 2.052272595e-19 -0.02065407952 1.849598156e-20 -0.0001763185491)
(0.009278361367 -0.06788552443 -2.872005181e-19 -0.009072670602 -1.132851493e-21 -0.0002056907653)
(0.0003890895818 -0.05579297668 -1.203846685e-19 -0.0001629320105 -1.282008839e-19 -0.0002261575713)
(-0.006787554495 -0.04509277984 -3.644893201e-19 0.007024138518 -5.536521064e-19 -0.0002365840235)
(-0.01285877708 -0.03573898228 2.838952225e-19 0.01309374589 -5.402591804e-19 -0.0002349688121)
(-0.0180879959 -0.02769554319 5.673746438e-19 0.01830704866 -1.749747882e-19 -0.0002190527577)
(-0.02270456765 -0.02101523949 6.028215479e-19 0.02289026432 2.980842297e-19 -0.0001856966755)
(-0.02672904173 -0.01575948426 -3.094957006e-19 0.02686052298 2.970103577e-19 -0.0001314812477)
(-0.0300593716 -0.01216915491 2.596622124e-19 0.03011144563 1.05500194e-19 -5.207403327e-05)
(0.1153620527 -0.1136777843 -4.916684274e-20 -0.1153218935 -2.355966424e-19 -4.015925111e-05)
(0.07794436259 -0.1081091091 8.547106547e-20 -0.07784371839 -2.70501846e-19 -0.0001006441997)
(0.05359988553 -0.09688670559 -3.167080255e-20 -0.05344938499 -3.952904265e-19 -0.0001505005435)
(0.0363342841 -0.08436753991 8.641496565e-20 -0.03614310084 -3.618506682e-19 -0.00019118326)
(0.02328396632 -0.07219863612 3.392419905e-19 -0.02306094099 1.283286643e-19 -0.0002230253292)
(0.01285901304 -0.06096464136 1.0442774e-19 -0.01261381078 1.777731539e-19 -0.0002452022586)
(0.004232254826 -0.05086889069 7.384208973e-20 -0.003975772702 9.908951049e-21 -0.0002564821237)
(-0.003134132084 -0.04199685394 4.10938457e-19 0.003388828897 -4.008515691e-19 -0.0002546968131)
(-0.009477216411 -0.03436781358 6.17916535e-19 0.009714618578 -1.552680131e-20 -0.0002374021674)
(-0.014984689 -0.02809047647 6.085554135e-19 0.01518589519 1.070534188e-19 -0.0002012061895)
(-0.01966100973 -0.02323617934 9.208987411e-19 0.01980343116 -7.63788243e-20 -0.0001424214339)
(-0.02336400532 -0.02004498747 2.054819427e-19 0.02342038789 4.306278578e-19 -5.638257462e-05)
(0.129017042 -0.1007316607 -1.602147971e-20 -0.1289742665 -1.764563573e-19 -4.2775491e-05)
(0.09554271812 -0.101185195 4.034304291e-21 -0.09543551625 -3.05119353e-19 -0.000107201872)
(0.07173461321 -0.09344060554 -1.395874788e-19 -0.07157430179 -4.557592462e-19 -0.000160311426)
(0.05363177842 -0.0831236391 1.237165645e-20 -0.05342813485 -5.855688154e-19 -0.0002036435729)
(0.03922590036 -0.07246218803 6.211540554e-19 -0.03898834531 -4.145092019e-19 -0.0002375550521)
(0.0273137084 -0.06234415964 4.535101111e-19 -0.02705254521 1.446679904e-19 -0.0002611631939)
(0.01724216668 -0.05312473102 4.95423963e-19 -0.01696901208 8.127066178e-21 -0.0002731546028)
(0.008574045551 -0.0449852516 4.682212742e-19 -0.00830282393 -2.383966636e-19 -0.0002712216206)
(0.001111552044 -0.03798605724 1.328585619e-18 -0.0008587861536 -4.181017625e-19 -0.0002527658902)
(-0.005277092497 -0.03227364453 9.879102011e-19 0.005491277753 1.250027161e-19 -0.0002141852555)
(-0.01057703266 -0.02792389057 -4.986514959e-19 0.01072860316 -3.938846535e-19 -0.0001515705018)
(-0.01460297275 -0.02516622242 2.180880732e-19 0.01466295482 -3.319842732e-20 -5.998207299e-05)
(0.1412693098 -0.08575456945 1.893282762e-20 -0.141224456 7.703903345e-21 -4.485379017e-05)
(0.1127371529 -0.09022052163 -1.592809231e-19 -0.1126247415 -1.745670049e-19 -0.0001124113645)
(0.08998339994 -0.08529289144 -3.108844592e-19 -0.08981529372 -4.03399616e-19 -0.0001681062177)
(0.07133154992 -0.07709749389 1.033487139e-19 -0.07111800706 -4.414498752e-19 -0.0002135428683)
(0.05574095717 -0.06811286627 2.153393029e-19 -0.05549185986 -9.152290704e-19 -0.0002490973072)
(0.04245166224 -0.05937494946 7.014491634e-19 -0.04217782246 -3.734147558e-19 -0.00027383978)
(0.03101247823 -0.05131861265 1.917061574e-21 -0.0307260863 -4.516887501e-19 -0.0002863919246)
(0.02110396347 -0.04417820363 6.977530505e-19 -0.02081962791 -3.834434225e-19 -0.0002843355584)
(0.012574839 -0.03803781951 4.409262812e-19 -0.0123098882 -7.317663686e-19 -0.0002649508053)
(0.005356577836 -0.03306015438 -6.666491011e-19 -0.005132107188 -8.213097603e-19 -0.0002244706488)
(-0.0005153298492 -0.0293193813 -6.906803244e-19 0.0006741431632 -3.78359664e-19 -0.000158813314)
(-0.004812527556 -0.02702340498 9.966117548e-21 0.004875354713 -4.11598525e-19 -6.282715781e-05)
(0.15170004 -0.06890515727 2.084631366e-20 -0.1516536721 1.506719132e-19 -4.636793956e-05)
(0.1283523567 -0.07524488175 -1.584513378e-19 -0.1282361497 -4.474008375e-20 -0.0001162070702)
(0.1068949711 -0.07240828087 -1.031556961e-19 -0.1067211843 -1.623912771e-19 -0.0001737867876)
(0.08791633881 -0.0662189313 -6.085523652e-20 -0.08769558227 -4.055669167e-19 -0.0002207565429)
(0.0713390035 -0.05906082535 -9.231917862e-21 -0.07108149668 -6.31896055e-19 -0.0002575068245)
(0.05684748937 -0.05195521027 1.54628303e-19 -0.0565644169 -8.375769841e-19 -0.0002830724722)
(0.04419419068 -0.04534085775 1.869906307e-20 -0.04389816319 -7.846794204e-19 -0.0002960274897)
(0.0331790956 -0.03945997487 3.669152213e-19 -0.03288522203 -4.01659028e-19 -0.0002938735659)
(0.02369836976 -0.03440219407 -5.8338593e-19 -0.02342456623 -5.013879413e-19 -0.0002738035313)
(0.01574643464 -0.03032383485 -9.526817476e-19 -0.01551450176 -5.288053366e-19 -0.0002319328776)
(0.009378648508 -0.0272909496 -2.389949187e-19 -0.009214589892 -5.666346287e-19 -0.0001640586162)
(0.00486304905 -0.02547899507 1.176799187e-19 -0.004798167124 1.330683515e-21 -6.488192606e-05)
(0.1599183659 -0.05045472188 -5.68924491e-20 -0.1598710669 8.615116894e-20 -4.729897532e-05)
(0.1412509961 -0.05666134221 -2.869307969e-19 -0.1411324548 -3.336229119e-20 -0.0001185413514)
(0.1210579307 -0.05522232366 -3.193459094e-19 -0.1208806489 -1.745692522e-19 -0.0001772818191)
(0.1019073476 -0.0509146023 -2.64307011e-19 -0.1016821535 -3.14394099e-19 -0.0002251940269)
(0.08456565465 -0.04570704272 -1.206170195e-20 -0.08430297662 -3.087539734e-19 -0.0002626780352)
(0.06910847516 -0.04045483048 -1.992950533e-19 -0.06881972977 -5.566614631e-19 -0.0002887453952)