/*--------------------------------*- C++ -*----------------------------------*\
| =========                 |                                                 |
| \\      /  F ield         | foam-extend: Open Source CFD                    |
|  \\    /   O peration     | Version:  3.0                                   |
|   \\  /    A nd           | Web:         http://www.extend-project.de       |
|    \\/     M anipulation  |                                                 |
\*---------------------------------------------------------------------------*/
FoamFile
{
    version     2.0;
    format      ascii;
    class       volVectorField;
    location    "26";
    object      u;
}
// * * * * * * * * * * * * * * * * * * * * * * * * * * * * * * * * * * * * * //

dimensions      [0 0 0 0 0 0 0];

internalField   nonuniform List<vector> 
672
(
(0.2397826747 -0.09177427703 8.647851402e-19)
(0.4865663174 -0.06470834483 3.787550309e-18)
(0.660607821 -0.04719040488 1.157604464e-17)
(0.7623772362 -0.03487870217 -4.686982444e-18)
(0.8459324741 -0.02627045547 5.67224185e-18)
(0.8918527434 -0.01987506408 2.465254555e-18)
(0.9371770601 -0.01493052637 2.78585316e-18)
(0.9568041083 -0.01113796075 -7.042313229e-19)
(0.9831024502 -0.007737533384 6.22012699e-18)
(0.9876155186 -0.005143441526 9.364915983e-18)
(1.002898452 -0.002332623822 -2.48453675e-18)
(0.9967397228 8.749623854e-05 2.024063873e-18)
(0.2807359106 -0.2713467319 -5.723698559e-19)
(0.5154633092 -0.19141751 3.960390652e-18)
(0.6817016533 -0.1396904109 1.301502584e-17)
(0.7779850073 -0.1033295257 -5.785600815e-18)
(0.8577053916 -0.07791218566 -9.216465433e-19)
(0.9007748279 -0.05902334356 -2.589304206e-18)
(0.9438959768 -0.04442500443 -1.775254898e-17)
(0.9618314724 -0.03322382567 1.188956703e-17)
(0.9866142906 -0.02318648537 1.034767614e-17)
(0.9899695641 -0.01552677332 -3.795550364e-18)
(1.003999639 -0.007232723851 -1.015234725e-17)
(0.9967669065 -0.0001261331656 2.110896777e-17)
(0.3606209425 -0.4373043645 -5.9201083e-18)
(0.5718311157 -0.3085202069 3.162789057e-18)
(0.7228493715 -0.225177598 4.815833676e-18)
(0.8084333436 -0.1665912633 1.141379097e-17)
(0.8806743483 -0.1256397662 -5.286875002e-18)
(0.9181848733 -0.09520501695 1.507984104e-17)
(0.9570095379 -0.07168530447 1.496929767e-17)
(0.9716477732 -0.05363751903 3.266987704e-17)
(0.9934757645 -0.0374670391 -7.825332925e-18)
(0.9945755431 -0.02512632727 1.228078247e-17)
(1.006163601 -0.01176566435 -4.085563743e-18)
(0.9968413748 -0.0003288743498 1.338143094e-17)
(0.4754324465 -0.5813244073 5.199874429e-18)
(0.6528430539 -0.4101437085 -1.973006935e-18)
(0.7819883572 -0.2993651362 -2.566629479e-18)
(0.8521951578 -0.2214916291 1.630912603e-18)
(0.91368807 -0.1670597284 -1.425174443e-17)
(0.9432094348 -0.1266058054 9.662402726e-18)
(0.9758605835 -0.09534443484 -2.36048319e-17)
(0.9857603245 -0.0713557031 2.073954031e-17)
(1.003343317 -0.04986327422 6.856316257e-18)
(1.001202173 -0.03346104189 2.680296626e-17)
(1.00928252 -0.01570410617 3.241334349e-18)
(0.9969591571 -0.000510796488 4.256514266e-17)
(0.6194129119 -0.69618621 1.928002464e-17)
(0.7544379183 -0.4911926492 2.836568126e-18)
(0.8561529839 -0.3585332065 7.866874328e-19)
(0.9070767946 -0.2652776433 4.127278014e-18)
(0.9550909376 -0.2000951602 5.435838819e-18)
(0.9745943739 -0.151650852 1.885284847e-17)
(0.999503656 -0.1142159028 -1.522567097e-17)
(1.00346211 -0.08548944947 7.181890511e-18)
(1.015721872 -0.05975341622 1.664458483e-17)
(1.009517731 -0.04011256467 -3.767388974e-17)
(1.013199719 -0.01885047436 -5.012276654e-18)
(0.9971149509 -0.0006623540977 8.236910606e-18)
(0.785342797 -0.7761291732 3.070940136e-18)
(0.8715201449 -0.5476027095 4.38518938e-18)
(0.941624415 -0.3997146449 -1.726329668e-17)
(0.9703254613 -0.2957538801 1.511749519e-18)
(1.002807095 -0.2230894776 -1.395289702e-17)
(1.010765406 -0.1690846282 1.127604445e-17)
(1.026753662 -0.1273534131 -2.715050062e-17)
(1.023865214 -0.09533040452 -1.808635257e-17)
(1.029991381 -0.06664147617 1.137419744e-17)
(1.019105118 -0.04474763715 4.947763559e-17)
(1.017719514 -0.02104681376 -5.025178107e-17)
(0.9973008022 -0.0007761778671 3.634355647e-17)
(0.9649014226 -0.817145435 -8.745272817e-19)
(0.998219876 -0.5765451604 2.924982885e-18)
(1.034116666 -0.42084465 -1.327358613e-17)
(1.038770427 -0.3113917673 -1.607076754e-17)
(1.054443641 -0.2348896533 2.292392143e-17)
(1.049909344 -0.1780324317 9.553765229e-18)
(1.056243851 -0.1340981389 1.881850281e-17)
(1.045947026 -0.1003845682 -2.532852554e-18)
(1.045435981 -0.0701820421 -9.96646317e-19)
(1.029484089 -0.04713335878 -2.334793888e-17)
(1.022615012 -0.02218303294 2.838294073e-17)
(0.9975079307 -0.0008461267662 1.071587638e-17)
(1.149085305 -0.8171774963 5.643497067e-18)
(1.128182986 -0.5765689439 -3.1568965e-18)
(1.128992069 -0.4208633753 -8.48319352e-19)
(1.108978987 -0.3114075354 -7.423217638e-18)
(1.107411703 -0.2349038053 3.280253037e-18)
(1.090062981 -0.1780459796 7.567231709e-18)
(1.086495953 -0.1341116642 2.192201328e-17)
(1.06860001 -0.1003988276 3.120525895e-18)
(1.06128175 -0.07019725632 7.016875762e-18)
(1.040133998 -0.04715031108 2.94551648e-17)
(1.027641312 -0.02220171828 -2.188284012e-17)
(0.9977257724 -0.0008688483843 5.353630168e-18)
(1.328658416 -0.7762244158 8.751338448e-18)
(1.254893375 -0.5476724463 -4.372796461e-18)
(1.221492928 -0.3997701846 -7.356299359e-18)
(1.177431164 -0.2957998934 8.619291989e-18)
(1.159054931 -0.2231314078 -2.065723887e-17)
(1.129213295 -0.1691240749 5.044867976e-18)
(1.115992711 -0.1273934777 -9.712749738e-18)
(1.09068871 -0.09537195701 1.334613388e-17)
(1.076733899 -0.06668652789 -4.402923347e-18)
(1.050521323 -0.04479714112 -3.510632577e-17)
(1.032546232 -0.02110210351 1.089585401e-17)
(0.9979439131 -0.0008427285015 -2.205497369e-17)
(1.494616532 -0.6963390358 6.143705043e-18)
(1.371996674 -0.4913050862 9.692018943e-19)
(1.306981193 -0.3586223124 1.493724691e-17)
(1.240694075 -0.2653519053 3.194620796e-18)
(1.206784095 -0.2001623909 3.738750613e-18)
(1.165396817 -0.151714506 -2.148906937e-17)
(1.143255396 -0.1142800648 3.66275628e-18)
(1.111105217 -0.0855563746 2.076497211e-19)
(1.091017943 -0.05982543895 -1.435348175e-17)
(1.060124959 -0.04019209019 -1.523545338e-17)
(1.037084224 -0.01893875031 1.397156199e-17)
(0.9981512203 -0.0007692460839 -5.421645168e-18)
(1.638637573 -0.5815278088 -6.918046583e-19)
(1.473621355 -0.4102928065 -3.657407602e-19)
(1.381169894 -0.2994835288 1.417993332e-18)
(1.295595876 -0.2215897948 -4.828403821e-18)
(1.24820563 -0.1671488452 4.999744261e-18)
(1.196799549 -0.1266896701 -1.048951548e-17)
(1.166916779 -0.09542924299 -7.333284986e-19)
(1.128826181 -0.07144366161 -5.482457641e-18)
(1.103417512 -0.04995825082 -1.703616788e-18)
(1.068463769 -0.03356545537 4.770021939e-18)
(1.041027655 -0.01582033423 1.855569473e-18)
(0.9983377076 -0.0006515103225 -3.537672747e-18)
(1.753499951 -0.4375470884 -6.559755237e-18)
(1.554671156 -0.3086983892 -1.513977712e-18)
(1.440339135 -0.2253186879 3.447925049e-18)
(1.339383268 -0.1667084426 3.956591312e-18)
(1.281242738 -0.1257456887 4.261436607e-18)
(1.221846578 -0.09530488274 -4.564731559e-18)
(1.185790616 -0.07178579755 1.008550989e-17)
(1.142962779 -0.05374192229 -1.08737877e-17)
(1.113311085 -0.03757923709 -5.735283861e-18)
(1.075119446 -0.02524984991 -3.123929004e-18)
(1.044179079 -0.01190259336 1.203450013e-17)
(0.9984938953 -0.0004956508113 -1.016056603e-17)
(1.833443845 -0.2716173958 -3.847279099e-18)
(1.611082231 -0.1916156096 -1.15748526e-18)
(1.481521801 -0.1398472668 1.82483747e-18)
(1.369860856 -0.1034592072 1.479637792e-18)
(1.304238672 -0.07802944207 3.972279298e-19)
(1.239282203 -0.05913322375 -1.481898476e-18)
(1.198930381 -0.04453558464 7.538015144e-19)
(1.152806391 -0.03333806578 -6.243441047e-18)
(1.120202454 -0.02330934488 -6.157134482e-19)
(1.079758478 -0.01566151705 -2.741151913e-18)
(1.046380381 -0.007382164819 4.801078571e-18)
(0.9986121762 -0.0003088101038 -3.659654953e-18)
(1.874460625 -0.09205832358 -1.889091451e-18)
(1.640025668 -0.064915997 -6.512611923e-19)
(1.502652909 -0.04735447504 5.858635061e-19)
(1.385500192 -0.03501417355 1.011671907e-18)
(1.316040451 -0.0263922191 5.454988011e-19)
(1.248232012 -0.01998900489 -7.200920927e-19)
(1.205677356 -0.01504451969 -2.148734268e-19)
(1.15786335 -0.01125570538 -3.126099683e-18)
(1.123746255 -0.00786357151 -1.988494107e-18)
(1.082148227 -0.005281623479 -1.920786348e-18)
(1.047521398 -0.002485047229 1.825157232e-18)
(0.9986866075 -0.0001006190016 -2.610433954e-18)
(1.874493542 0.09212553341 -1.463911879e-19)
(1.640050293 0.06504781874 -1.456034068e-20)
(1.50267286 0.04752113242 -5.642573572e-19)
(1.385517178 0.03519519192 1.441438491e-18)
(1.316056229 0.02657624146 6.922408167e-19)
(1.248247287 0.02016562933 -3.313587967e-19)
(1.205693119 0.01520827082 5.744101917e-19)
(1.157880099 0.0113986067 -2.970176575e-18)
(1.12376466 0.007983313364 -2.563038139e-18)
(1.082168859 0.005370104991 -1.897085901e-18)
(1.047544801 0.002542989555 9.91434501e-19)
(0.9987134664 0.0001191968612 -3.555692768e-18)
(1.833540855 0.271699241 1.719834327e-18)
(1.611154774 0.1917583785 7.31698792e-19)
(1.481580589 0.1400227969 -1.189710242e-18)
(1.369910924 0.1036477858 1.401305065e-18)
(1.304285232 0.0782204997 1.634217423e-18)
(1.239327298 0.05931666489 -8.083681049e-19)
(1.198976962 0.04470638109 2.860980401e-18)
(1.152855882 0.03348845045 -5.979316429e-18)
(1.120256863 0.02343731417 -3.003582618e-18)
(1.079819443 0.01575920916 -1.102759561e-18)
(1.046449522 0.007450551527 9.9107775e-19)
(0.9986914904 0.0003393584287 -7.353492309e-18)
(1.753656282 0.4376574916 3.955533722e-18)
(1.554788076 0.3088625143 1.49811729e-18)
(1.440433875 0.225511521 7.156316718e-19)
(1.339463949 0.1669117513 -2.571194199e-18)
(1.281317735 0.1259504288 3.19826794e-18)
(1.22191921 0.09550156778 -5.193045524e-18)
(1.185865615 0.07197026181 -2.591423117e-18)
(1.143042467 0.05390683253 -9.333827125e-18)
(1.113398678 0.03772317403 1.74671443e-18)
(1.075217603 0.02536545134 -4.972692782e-18)
(1.044290407 0.0119912952 -1.051990991e-18)
(0.9986216173 0.0005495223332 -7.085846622e-18)
(1.638845298 0.5816792185 4.97233011e-20)
(1.473776694 0.4104876055 2.899333785e-18)
(1.38129578 0.2997012232 3.258897846e-18)
(1.295703085 0.2218142843 8.084528961e-19)
(1.248305311 0.167373293 5.61458338e-18)
(1.196896088 0.1269054467 -3.823272304e-18)
(1.167016479 0.09563343767 1.347476087e-17)
(1.128932113 0.07162952879 -3.060592786e-18)
(1.103533957 0.05012522924 -2.251289177e-18)
(1.068594256 0.03370685554 -7.069239564e-18)
(1.041175645 0.01593829191 -4.283179605e-19)
(0.99850748 0.0007389156736 -1.56353551e-17)
(1.494865326 0.6965419041 -6.877928403e-18)
(1.372182744 0.491538363 -1.335700335e-19)
(1.30713197 0.3588711775 1.707949989e-18)
(1.240822487 0.2656029386 -5.94052366e-19)
(1.206903471 0.200411498 -4.039934889e-18)
(1.165512437 0.1519541647 -9.000440957e-18)
(1.143374792 0.1145089096 9.95318803e-18)
(1.11123208 0.08576844584 2.992384967e-18)
(1.091157388 0.06002122112 -6.324354286e-18)
(1.060281215 0.04036579091 2.078844666e-17)
(1.037261439 0.01909334074 6.818000328e-18)
(0.9983545103 0.0008986931076 -7.754639045e-19)
(1.328935712 0.7764865288 1.514764215e-18)
(1.255100738 0.5479500463 -1.776956044e-18)
(1.221660988 0.4000549784 1.272847013e-17)
(1.177574302 0.2960815322 5.449299357e-19)
(1.159188017 0.2234089926 8.065554056e-18)
(1.129342196 0.1693913136 -5.867635568e-18)
(1.11612582 0.1276508259 1.617488205e-17)
(1.090830142 0.09561430327 1.498605952e-17)
(1.076889347 0.066915598 -3.230869e-18)
(1.050695516 0.04500811694 -3.243810096e-17)
(1.032743783 0.02129896409 3.306849931e-17)
(0.9981705311 0.001020627891 -2.209989754e-17)
(1.149377305 0.8175037795 3.437563219e-19)
(1.128401377 0.5768945206 -1.882214321e-18)
(1.129169049 0.4211870173 8.206168157e-18)
(1.109129729 0.3117222685 1.293416301e-17)
(1.107551842 0.2352121361 -1.988903902e-17)
(1.090198719 0.178343021 -6.181910576e-18)
(1.08663612 0.1343997823 -2.093547011e-17)
(1.068748942 0.1006739 1.224259991e-19)
(1.061445436 0.07046229375 5.172747394e-18)
(1.040317408 0.04740161015 2.779426154e-17)
(1.027849317 0.02244429533 -2.496522411e-17)
(0.9979643591 0.001099191352 -3.393341535e-19)
(0.9651933662 0.8175374285 -9.741832759e-18)
(0.9984381811 0.5769199159 2.56284612e-18)
(1.034293617 0.4212081783 -4.050683311e-18)
(1.038921162 0.3117404822 3.619623899e-18)
(1.054583801 0.2352296247 1.82093793e-18)
(1.050045121 0.1783601166 -2.529584521e-18)
(1.056384049 0.1344179374 -2.051267661e-17)
(1.046095991 0.1006932869 -2.718280065e-18)
(1.045599676 0.07048406475 -1.543299996e-18)
(1.029667511 0.04742605917 -2.296976125e-17)
(1.022823017 0.0224725479 2.785866219e-17)
(0.9977465194 0.001130257694 4.761230386e-18)
(0.7856202054 0.7765853575 -1.525350736e-17)
(0.8717276412 0.5480254665 2.227279592e-18)
(0.9417925839 0.4001170085 4.107001575e-18)
(0.9704687166 0.2961356975 -1.582153662e-17)
(1.002940276 0.223460194 2.714014144e-17)
(1.010894403 0.1694421442 9.553056402e-19)
(1.02688685 0.1277040169 1.690317018e-17)
(1.02400671 0.09567190193 -1.324993319e-17)
(1.030146867 0.06697950635 1.36195653e-17)
(1.019279328 0.04508069286 5.690827297e-17)
(1.017917092 0.0213820663 -2.04745571e-17)
(0.9975274073 0.001112752458 3.219966403e-17)
(0.6196617099 0.6967014808 -1.236529518e-17)
(0.7546239344 0.4916596638 -5.587541855e-18)
(0.8563037587 0.3589715197 -2.908877863e-17)
(0.9072052507 0.2656901067 -5.831877553e-18)
(0.9552103669 0.2004944638 -1.543779296e-17)
(0.9747100933 0.152036068 3.826590251e-17)
(0.999623125 0.1145951657 -1.068928843e-17)
(1.003589056 0.0858613669 5.912935322e-18)
(1.015861345 0.06012485451 2.209223508e-17)
(1.009674018 0.04048298547 1.32333061e-17)
(1.013376959 0.01922806744 -2.821851994e-17)
(0.997318238 0.001047417255 1.531701589e-18)
(0.4756403821 0.5818912163 4.550202304e-19)
(0.6529986288 0.4106493263 -9.909543875e-19)
(0.7821144322 0.2998346383 4.058521529e-19)
(0.8523025445 0.221930709 8.671451442e-18)
(0.9137878821 0.1674837337 -1.737469848e-17)
(0.9433060904 0.1270149888 1.234615502e-17)
(0.9759603566 0.09574842265 -7.290170537e-18)
(0.9858662948 0.07175390827 1.406061741e-17)
(1.003459747 0.05026356791 -6.445391101e-18)
(1.001332622 0.03386380103 -2.284970419e-17)
(1.009430501 0.01611835583 -8.896844574e-18)
(0.997128874 0.000937874367 4.80944573e-18)
(0.3607773039 0.4379118786 1.575614555e-17)
(0.5719480894 0.3090563508 1.305527652e-18)
(0.7229441034 0.2256720024 -9.015642591e-18)
(0.8085140625 0.1670515696 -1.755852353e-17)
(0.8807492959 0.1260836144 -1.264785238e-17)
(0.9182574948 0.09563342475 3.030604154e-18)
(0.9570844747 0.07210919298 -3.94899852e-17)
(0.971727442 0.05405683523 2.681384697e-17)
(0.9935632948 0.0378905083 7.146791529e-18)
(0.9946736766 0.02555498774 4.698674298e-18)
(1.006274909 0.01220926407 -4.323835823e-17)
(0.9969690638 0.0007895407961 2.907384568e-17)
(0.2808328999 0.2719830522 5.415184611e-18)
(0.5155359596 0.1919753123 -1.061079394e-18)
(0.6817603991 0.1402022863 -5.384226379e-18)
(0.778034979 0.1038047759 -2.816589912e-18)
(0.8577518025 0.07836990105 3.745611073e-18)
(0.9008197813 0.05946515228 -1.254491995e-18)
(0.9439424353 0.0448626533 1.243594702e-18)
(0.9618808884 0.03365771272 6.409201778e-18)
(0.986668611 0.02362592841 -1.574406673e-17)
(0.9900304415 0.01597335744 1.730907298e-18)
(1.004068695 0.007696660536 -1.548794751e-17)
(0.9968461375 0.0006100542754 4.347659525e-18)
(0.2398151329 0.09242517856 1.197230208e-18)
(0.4865914829 0.06527694671 -2.736401336e-18)
(0.6606277339 0.0477113999 -8.565703045e-18)
(0.7623940845 0.0353616514 1.784607789e-18)
(0.8459479039 0.02673530309 -5.290244814e-18)
(0.8918677285 0.02032372003 -1.507444358e-18)
(0.9371925337 0.01537523953 3.175075404e-20)
(0.9568206983 0.01157939564 -6.885775613e-18)
(0.9831206892 0.00818531844 -1.513458717e-18)
(0.9876360027 0.005599353676 -4.070283588e-18)
(1.002921699 0.002807043858 -4.912486253e-18)
(0.9967665162 0.0004083853915 1.08913556e-18)
(0.2397815188 -0.09175794478 -8.638307178e-19)
(0.4865654349 -0.06468540677 -3.786515528e-18)
(0.6606063859 -0.04716277685 -1.157491444e-17)
(0.7623750873 -0.0348456671 4.687993944e-18)
(0.8459300345 -0.02623103725 -5.671195799e-18)
(0.8918496519 -0.01982808212 -2.46428186e-18)
(0.9371737261 -0.01487448312 -2.784936017e-18)
(0.9568000166 -0.01107096155 7.05553403e-19)
(0.9830978598 -0.007657130076 -6.219003771e-18)
(0.9876097732 -0.00504677443 -9.36387057e-18)
(1.002891756 -0.002214455793 2.485439786e-18)
(0.9967334877 0.0001947134677 -2.022478211e-18)
(0.2807329667 -0.2713307014 5.732771392e-19)
(0.5154596603 -0.1913949846 -3.959390684e-18)
(0.6816967155 -0.1396629385 -1.301373839e-17)
(0.7779794016 -0.1032967557 5.786532571e-18)
(0.8576983871 -0.07787321636 9.227339897e-19)
(0.9007668426 -0.05897690724 2.590195461e-18)
(0.943886227 -0.04436968886 1.77534187e-17)
(0.9618201919 -0.03315758699 -1.188816248e-17)
(0.9866004984 -0.02310701665 -1.034656989e-17)
(0.9899533135 -0.01543118737 3.79661165e-18)
(1.003979543 -0.007116041288 1.015312397e-17)
(0.996748963 -2.025156648e-05 -2.11073015e-17)
(0.3606166923 -0.4372883895 5.920856207e-18)
(0.5718246394 -0.3084980153 -3.161910195e-18)
(0.7228417434 -0.2251505828 -4.814631418e-18)
(0.8084239545 -0.1665591803 -1.141248927e-17)
(0.8806633713 -0.1256015518 5.287990519e-18)
(0.9181715685 -0.09515968304 -1.507895554e-17)
(0.956993926 -0.07163126624 -1.496808863e-17)
(0.9716288961 -0.053572998 -3.266930791e-17)
(0.9934533905 -0.03738954226 7.826216843e-18)
(0.9945484563 -0.02503321613 -1.227976422e-17)
(1.006130834 -0.01165186669 4.086861694e-18)
(0.9968114603 -0.0002257847889 -1.338019326e-17)
(0.4754262614 -0.5813094643 -5.199079205e-18)
(0.65283455 -0.410122443 1.973819171e-18)
(0.7819776243 -0.299339262 2.568001415e-18)
(0.8521826076 -0.2214606885 -1.629638709e-18)
(0.9136727703 -0.1670229879 1.425230077e-17)
(0.943191485 -0.1265620403 -9.661363291e-18)
(0.9758388629 -0.09529243265 2.360529298e-17)
(0.9857346053 -0.07129346546 -2.073856793e-17)
(1.003312174 -0.04978874254 -6.855397856e-18)
(1.001165038 -0.03337136486 -2.680216049e-17)
(1.009236967 -0.01559471283 -3.240649256e-18)
(0.9969181044 -0.000411564192 -4.256277818e-17)
(0.6194052696 -0.6961717851 -1.927933594e-17)
(0.7544265737 -0.4911725056 -2.835471584e-18)
(0.8561395493 -0.3585085439 -7.850094145e-19)
(0.9070605056 -0.2652483875 -4.126233356e-18)
(0.955071813 -0.2000602069 -5.43469887e-18)
(0.9745713941 -0.1516094419 -1.885251621e-17)
(0.9994764933 -0.114166478 1.522682675e-17)
(1.003429398 -0.08543053998 -7.181343599e-18)
(1.015682855 -0.05968266447 -1.664421719e-17)
(1.009470626 -0.040027682 3.767524964e-17)
(1.013142463 -0.01874670627 5.012490975e-18)
(0.9970628587 -0.0005684542545 -8.23535814e-18)
(0.7853333534 -0.7761160926 -3.070179907e-18)
(0.8715070051 -0.5475838788 -4.383949502e-18)
(0.9416081616 -0.3996918493 1.726457442e-17)
(0.970306329 -0.2957264833 -1.510904882e-18)
(1.002784023 -0.2230569913 1.395407931e-17)
(1.010738196 -0.1690458296 -1.127501559e-17)
(1.026720946 -0.1273073779 2.715168868e-17)
(1.023826334 -0.09527526672 1.80866596e-17)
(1.029944489 -0.06657558705 -1.137342956e-17)
(1.01904902 -0.04466834773 -4.947503078e-17)
(1.017650794 -0.02095021035 5.025179958e-17)
(0.9972387272 -0.000688536337 -3.634109152e-17)
(0.964890744 -0.8171331993 8.757530638e-19)
(0.9982043424 -0.5765281055 -2.924025326e-18)
(1.034098125 -0.4208236567 1.327522142e-17)
(1.03874807 -0.3113668945 1.607198177e-17)
(1.054417266 -0.234859801 -2.292328376e-17)
(1.049877748 -0.1779970908 -9.552758857e-18)
(1.05620639 -0.1340558501 -1.881699273e-17)
(1.045902031 -0.1003342361 2.534012752e-18)
(1.045382214 -0.07012157721 9.974793929e-19)
(1.029419293 -0.04706094803 2.334957427e-17)
(1.022536103 -0.02209450174 -2.838278524e-17)
(0.9974362485 -0.0007661072336 -1.071423269e-17)
(1.149073111 -0.8171668785 -5.642284484e-18)
(1.12816594 -0.5765535489 3.157861474e-18)
(1.128971152 -0.4208448616 8.500662282e-19)
(1.108954247 -0.311385149 7.424571236e-18)
(1.107382011 -0.2348773198 -3.279924927e-18)
(1.090027853 -0.1780142103 -7.566466888e-18)
(1.086453857 -0.1340740205 -2.192104984e-17)
(1.068549881 -0.1003536339 -3.119526705e-18)
(1.061221428 -0.0701433553 -7.016092145e-18)
(1.040061721 -0.04708540276 -2.945338621e-17)
(1.027552857 -0.02212276185 2.188248737e-17)
(0.9976457694 -0.0007971714343 -5.352147726e-18)
(1.328645256 -0.7762148969 -8.750716909e-18)
(1.254874464 -0.5476593112 4.374078853e-18)
(1.221470226 -0.3997539072 7.357801888e-18)
(1.177403879 -0.2957806777 -8.618245135e-18)
(1.159022623 -0.2231082157 2.065831662e-17)
(1.129174665 -0.1690966755 -5.044238082e-18)
(1.115946817 -0.1273605749 9.713501351e-18)
(1.090633676 -0.09533286235 -1.334576906e-17)
(1.076668067 -0.06663948736 4.403601151e-18)
(1.050442082 -0.04474091157 3.510814741e-17)
(1.032449636 -0.02103330683 -1.089528834e-17)
(0.9978562259 -0.0007806261497 2.205703698e-17)
(1.494602212 -0.6963313943 -6.143129241e-18)
(1.371976624 -0.4912939017 -9.679974379e-19)
(1.306956727 -0.3586089872 -1.493538957e-17)
(1.240665042 -0.2653356483 -3.193468711e-18)
(1.206749349 -0.2001432395 -3.737435396e-18)
(1.165355598 -0.151691391 2.148914051e-17)
(1.14320608 -0.1142527547 -3.661301198e-18)
(1.111046382 -0.08552346433 -2.068701431e-19)
(1.09094723 -0.05978629036 1.435409352e-17)
(1.060040132 -0.04014486376 1.523736117e-17)
(1.036980481 -0.01888143201 -1.396997846e-17)
(0.9980572864 -0.0007171392811 5.42327256e-18)
(1.63862258 -0.5815214514 6.925475783e-19)
(1.473600029 -0.4102842218 3.668021656e-19)
(1.38114421 -0.2994727485 -1.416644523e-18)
(1.295565095 -0.2215771763 4.829702416e-18)
(1.248169085 -0.1671334688 -4.998940927e-18)
(1.196755909 -0.1266715999 1.049072237e-17)
(1.166864839 -0.0954074112 7.344883555e-19)
(1.128763948 -0.07141781906 5.483710901e-18)
(1.103342981 -0.04992704666 1.705002085e-18)
(1.068374111 -0.03352827062 -4.768339284e-18)
(1.040918262 -0.01577475454 -1.854169398e-18)
(0.9982384241 -0.000610461902 3.539122185e-18)
(1.753484227 -0.4375428136 6.560485912e-18)
(1.554649141 -0.3086919588 1.514950912e-18)
(1.440312401 -0.2253111698 -3.446535856e-18)
(1.339351464 -0.1666990814 -3.955443545e-18)
(1.281204746 -0.1257347795 -4.26020867e-18)
(1.221801403 -0.09529154551 4.565679324e-18)
(1.185736616 -0.07177016789 -1.008401501e-17)
(1.142898246 -0.05372294416 1.087439923e-17)
(1.113233573 -0.03755681088 5.736541625e-18)
(1.07502636 -0.02522268336 3.12488666e-18)
(1.044065283 -0.01186979434 -1.203284135e-17)
(0.9983907438 -0.0004657397329 1.016166282e-17)
(1.833427765 -0.2716145244 3.848148945e-18)
(1.611059573 -0.1916119856 1.158504354e-18)
(1.481494463 -0.1398424837 -1.823557779e-18)
(1.369828181 -0.1034537702 -1.478775708e-18)
(1.304199786 -0.07802260076 -3.961404948e-19)
(1.239235817 -0.05912533771 1.482774656e-18)
(1.198875067 -0.04452587299 -7.529788287e-19)
(1.152740147 -0.0333267348 6.244876848e-18)
(1.120123016 -0.02329551479 6.171097712e-19)
(1.079662946 -0.01564522175 2.742315983e-18)
(1.046263715 -0.007362072142 -4.800417658e-18)
(0.9985062847 -0.0002908767212 3.661148765e-18)
(1.874444288 -0.09205764996 1.889986841e-18)
(1.640002809 -0.06491462386 6.522645294e-19)
(1.502625274 -0.04735309299 -5.84781529e-19)
(1.385467243 -0.03501212087 -1.010691772e-18)
(1.316001152 -0.02639003507 -5.444522876e-19)
(1.248185184 -0.0199860534 7.210743868e-19)
(1.205621416 -0.01504129732 2.15811389e-19)
(1.157796393 -0.01125156334 3.127473472e-18)
(1.123665862 -0.007858953966 1.989579042e-18)
(1.082051583 -0.005275848477 1.921896098e-18)
(1.047403282 -0.00247838832 -1.824285477e-18)
(0.9985794142 -9.440577719e-05 2.611803005e-18)
(1.874477183 0.09212475552 1.472683987e-19)
(1.640027448 0.06504632148 1.553571903e-20)
(1.502645259 0.04751972621 5.65320952e-19)
(1.385484272 0.03519323883 -1.44044868e-18)
(1.316016977 0.02657427621 -6.912372464e-19)
(1.248200508 0.020163013 3.323051863e-19)
(1.205637226 0.01520544858 -5.73534504e-19)
(1.157813189 0.01139492784 2.971482143e-18)
(1.123684311 0.007979134811 2.564130617e-18)
(1.082072256 0.005364744437 1.898089979e-18)
(1.04742672 0.002536628146 -9.905582474e-19)
(0.9986062703 0.0001131209207 3.557195703e-18)
(1.833524729 0.2716962577 -1.719008356e-18)
(1.611132219 0.191754646 -7.307670407e-19)
(1.481553438 0.14001802 1.190914118e-18)
(1.369878484 0.1036424874 -1.400390964e-18)
(1.304246595 0.07821391763 -1.633170059e-18)
(1.239281167 0.05930915575 8.092300082e-19)
(1.198921888 0.04469710582 -2.860117097e-18)
(1.152789864 0.03347761686 5.98068768e-18)
(1.120177625 0.02342395044 3.004642199e-18)
(1.079724091 0.01574335358 1.103788825e-18)
(1.046333012 0.007430776213 -9.903215482e-19)
(0.9985856287 0.0003215637612 7.355045109e-18)
(1.75364047 0.4376530882 -3.954852109e-18)
(1.554766188 0.3088559994 -1.497314067e-18)
(1.440407389 0.2255040513 -7.144812238e-19)
(1.339432454 0.1669025768 2.57241455e-18)
(1.281280073 0.1259398316 -3.197172041e-18)
(1.221874369 0.09548865974 5.193894893e-18)
(1.18581193 0.07195511994 2.592580606e-18)
(1.142978231 0.05388839782 9.334355419e-18)
(1.113321433 0.03770125414 -1.74585567e-18)
(1.075124762 0.02533875491 4.97365959e-18)
(1.044176823 0.01195883843 1.053246757e-18)
(0.9985184878 0.0005197430384 7.086974282e-18)
(1.638830197 0.5816727133 -4.902182753e-20)
(1.473755564 0.4104789786 -2.898578171e-18)
(1.381270449 0.2996905716 -3.25756578e-18)
(1.295672752 0.2218019556 -8.072245645e-19)
(1.248269238 0.1673583359 -5.614036905e-18)
(1.196852931 0.1268879168 3.824264919e-18)
(1.166964998 0.09561219069 -1.347430506e-17)
(1.128870311 0.07160432018 3.061531704e-18)
(1.103459818 0.05009460416 2.252177911e-18)
(1.068504951 0.03367020637 7.070004436e-18)
(1.04106656 0.0158931064 4.289779095e-19)
(0.9984082519 0.0006980037798 1.563757175e-17)
(1.494850865 0.6965340957 6.878502097e-18)
(1.372162894 0.4915271925 1.345966248e-19)
(1.307107888 0.3588580701 -1.706327329e-18)
(1.240793935 0.2655870604 5.950556512e-19)
(1.206869235 0.2003928597 4.041027528e-18)
(1.16547173 0.1519316683 9.000727555e-18)
(1.143325962 0.1144822578 -9.952059202e-18)
(1.111173696 0.08573622517 -2.991859587e-18)
(1.091087089 0.05998269799 6.32467334e-18)
(1.060196762 0.04031913093 -2.078711002e-17)
(1.037158024 0.0190364428 -6.817817687e-18)
(0.9982606183 0.0008467030861 7.769263723e-19)
(1.328922402 0.7764768297 -1.514075251e-18)
(1.255082066 0.5479369843 1.77813117e-18)
(1.2216387 0.4000390184 -1.272721306e-17)
(1.17754754 0.2960628212 -5.441251343e-19)
(1.159156256 0.2233864378 -8.064382739e-18)
(1.129304114 0.1693646586 5.868623482e-18)
(1.116080454 0.127618685 -1.617372226e-17)
(1.0907756 0.09557599004 -1.49857703e-17)
(1.07682398 0.06686925185 3.23162067e-18)
(1.050616696 0.04495251368 3.244064815e-17)
(1.032647559 0.02123063477 -3.306848984e-17)
(0.9980829046 0.0009586371584 2.21022515e-17)
(1.149364934 0.8174929828 -3.425910635e-19)
(1.128384528 0.5768792901 1.883120548e-18)
(1.129148516 0.4211689558 -8.20457077e-18)
(1.10910548 0.3117004995 -1.293296681e-17)
(1.107522674 0.2351863988 1.98896342e-17)
(1.090164112 0.1783120558 6.182899311e-18)
(1.086594528 0.134362944 2.093694008e-17)
(1.068699281 0.1006294919 -1.212926208e-19)
(1.061385565 0.07040908464 -5.171936462e-18)
(1.04024554 0.04733731293 -2.779264682e-17)
(1.027761223 0.02236579976 2.496535416e-17)
(0.9978844092 0.001027585136 3.4091114e-19)
(0.9651825228 0.8175250451 9.743002707e-18)
(0.9984228626 0.57690309 -2.561922271e-18)
(1.034275423 0.4211877101 4.052400244e-18)
(1.038899248 0.3117163108 -3.618308642e-18)
(1.054557884 0.2352005745 -1.820618765e-18)
(1.050013968 0.1783256183 2.530331656e-18)
(1.056347032 0.1343764555 2.051363778e-17)
(1.046051411 0.1006437278 2.719256206e-18)
(1.045546337 0.07042426828 1.544066684e-18)
(1.029603111 0.04735424433 2.29715329e-17)
(1.022744462 0.02238446796 -2.785903765e-17)
(0.9976748997 0.00105027746 -4.759797495e-18)
(0.785610545 0.7765721715 1.525411406e-17)
(0.8717146051 0.5480069585 -2.226029723e-18)
(0.9417765692 0.4000948869 -4.105551041e-18)
(0.9704499259 0.2961090902 1.58225928e-17)
(1.002917581 0.2234285869 -2.713911924e-17)
(1.010867579 0.1694041736 -9.546556339e-19)
(1.026854542 0.1276587462 -1.690244297e-17)
(1.02396823 0.09561744441 1.32503028e-17)
(1.030100402 0.06691420605 -1.361888622e-17)
(1.019223631 0.04500192467 -5.690648312e-17)
(1.017848719 0.02128586867 2.047511148e-17)
(0.9974654208 0.001025108369 -3.219765953e-17)
(0.6196538668 0.6966870758 1.236588036e-17)
(0.7546127155 0.4916398891 5.588738763e-18)
(0.8562905182 0.3589475299 2.909068661e-17)
(0.907189229 0.2656616172 5.833024543e-18)
(0.9551915534 0.2004602995 1.543913872e-17)
(0.9746874095 0.1519953592 -3.826588231e-17)
(0.9995963081 0.1145463344 1.069075321e-17)
(1.003556679 0.08580296938 -5.91214917e-18)
(1.015822715 0.06005455004 -2.209163615e-17)
(1.009627275 0.04039852107 -1.323142478e-17)
(1.013320014 0.01912462704 2.822009965e-17)
(0.9972662407 0.0009534652221 -1.530079899e-18)
(0.4756338685 0.5818763754 -4.542610421e-19)
(0.6529901116 0.4106284284 9.920232244e-19)
(0.7821037377 0.2998095361 -4.045229647e-19)
(0.8522901489 0.2219005224 -8.670197701e-18)
(0.913772815 0.1674477535 1.737553359e-17)
(0.9432884135 0.1269718159 -1.234494545e-17)
(0.9759389795 0.09569689579 7.291317301e-18)
(0.9858409386 0.07169205364 -1.405936384e-17)
(1.003429021 0.05018939031 6.446772947e-18)
(1.001295876 0.03377446615 2.285140214e-17)
(1.00938526 0.01600923785 8.898233668e-18)
(0.9970879592 0.0008385758252 -4.807976703e-18)
(0.360772809 0.4378961771 -1.575542656e-17)
(0.5719416072 0.3090345071 -1.304540583e-18)
(0.7229365082 0.2256456646 9.017060055e-18)
(0.8085047116 0.1670200952 1.755973449e-17)
(0.8807385238 0.1260459661 1.264910802e-17)
(0.9182444238 0.09558847822 -3.029669203e-18)
(0.9570692183 0.07205541932 3.949154418e-17)
(0.9717089041 0.05399251319 -2.681324313e-17)
(0.9935413185 0.03781322269 -7.145533979e-18)
(0.9946469398 0.02546211256 -4.69771801e-18)
(1.006242435 0.01209562591 4.324005531e-17)
(0.9969392976 0.0006863353279 -2.907276386e-17)
(0.2808298382 0.2719672789 -5.414270989e-18)
(0.515532689 0.191952966 1.062136512e-18)