/*--------------------------------*- C++ -*----------------------------------*\
| =========                 |                                                 |
| \\      /  F ield         | foam-extend: Open Source CFD                    |
|  \\    /   O peration     | Version:  3.0                                   |
|   \\  /    A nd           | Web:         http://www.extend-project.de       |
|    \\/     M anipulation  |                                                 |
\*---------------------------------------------------------------------------*/
FoamFile
{
    version     2.0;
    format      ascii;
    class       volScalarField;
    location    "3";
    object      p;
}
// * * * * * * * * * * * * * * * * * * * * * * * * * * * * * * * * * * * * * //

dimensions      [0 0 0 0 0 0 0];

internalField   nonuniform List<scalar> 
728
(
0.0285461
-0.0285406
0.0629079
-0.063101
-0.021266
0.0212876
-0.194012
0.193512
-0.0662767
0.0798062
0.0663571
-0.0800236
-0.0689386
-0.082157
0.0692811
0.0821585
0.00348618
0.096814
-0.0966949
-0.00347184
0.0385416
0.113879
-0.114293
-0.038532
0.0290717
0.170395
-0.168897
-0.0293319
0.0010416
0.107296
-0.10688
-0.000996964
0.0382735
0.123874
-0.124466
-0.0382901
0.0866666
0.0352559
-0.0868374
-0.0354788
-0.0420858
0.0957952
0.0420046
-0.0960577
-0.0402476
-0.0982852
0.0401461
0.0981096
-0.0759111
-0.124448
0.125506
0.0761295
0.228061
0.00575939
-0.228263
-0.00568541
-0.0345153
0.0875434
-0.0875196
0.034496
-0.0280375
-0.0980536
0.0977694
0.0279832
0.0713607
0.0418205
-0.0714865
-0.041528
0.0206009
-0.0207437
0.138321
-0.136799
0.0764467
0.0352509
-0.0353816
-0.0765196
-0.0162506
0.108418
0.0163156
-0.108387
0.0922074
-0.0921071
-0.0990838
0.0992343
-0.0114544
0.0711392
0.0115315
-0.0712018
0.086422
0.244513
-0.0864027
-0.245587
0.0934657
-0.0933843
-0.11663
0.116439
0.0723798
0.0853131
-0.072319
-0.0850621
-0.0311202
0.0313102
0.0749759
-0.0754221
0.04427
-0.0789421
0.0788315
-0.0441407
-0.0126075
0.0836439
0.0127075
-0.0836556
-0.0100745
0.091382
0.0100032
-0.0913617
-0.0370208
0.0370594
0.0690831
-0.0691783
-0.0326604
0.0780134
-0.0778817
0.0327415
-0.0667853
-0.0699292
0.0668234
0.0701425
-0.0673474
0.0674537
-0.0649972
0.0648246
-0.0226113
0.0806511
-0.080913
0.0227042
-0.0604459
-0.063005
0.0606163
0.0631457
0.0339859
0.115276
-0.115113
-0.0340488
0.0401725
0.0920173
-0.0401298
-0.0919238
-0.0336881
0.088454
-0.0885981
0.0334637
0.0587432
-0.05856
0.0527301
-0.052725
-0.0141752
-0.0998915
0.0142016
0.0998095
-0.187956
-0.0646771
0.18979
0.0647804
-0.020208
-0.138706
0.139945
0.0204171
0.103776
-0.0294335
-0.103515
0.0294354
-0.0695097
0.0695891
-0.0646214
0.0646506
-0.0542017
0.0543016
-0.0432635
0.0431444
0.107363
-0.106974
0.0532164
-0.0528084
-0.0498567
-0.150605
0.151197
0.0500154
0.0454191
0.100057
-0.0450821
-0.10034
0.0563041
-0.0954619
0.0952812
-0.0563256
0.0150024
-0.0734318
0.0734087
-0.0149855
-0.029319
-0.0832692
0.0831272
0.0291951
0.0460499
-0.0786481
-0.0458759
0.0785904
-0.050503
-0.0689073
0.0689384
0.0505566
-0.0885403
0.0883458
0.0357259
-0.0358387
-0.0243658
-0.163047
0.162385
0.0241804
-0.0276401
-0.0803422
0.0802412
0.0275759
-0.0165525
0.0165312
0.109103
-0.109278
0.0662653
-0.0471663
0.0469523
-0.066024
-0.0102373
0.0883158
0.0101953
-0.0883383
0.103742
0.0465732
-0.0464497
-0.103424
0.0296999
-0.0297501
0.14939
-0.150834
0.0913657
-0.178143
-0.0915297
0.17832
-0.0819095
-0.0465456
0.0817184
0.0464721
0.1101
0.151253
-0.110338
-0.150653
-0.0138063
-0.0858961
0.0138697
0.0859331
-0.106602
0.0438835
0.106272
-0.0436488
-0.0878989
-0.0518855
0.052072
0.087657
-0.0582115
0.0580968
-0.138343
0.138777
0.0871121
-0.00340781
0.0033893
-0.0870601
0.0546557
0.060609
-0.0602141
-0.0545494
0.0310377
0.107638
-0.0307521
-0.107874
0.000908651
0.0997199
-0.0995352
-0.000922877
0.0880226
0.055394
-0.0551158
-0.087273
-0.046736
0.0573297
-0.05729
0.046643
-0.0766472
0.00227389
0.0766661
-0.00227638
-0.0493117
-0.0669332
0.0669917
0.0492516
0.00904974
-0.00905792
0.129681
-0.130017
-0.0252734
0.0978173
-0.0979518
0.0252519
-0.0674859
0.0673274
0.160275
-0.160477
-0.0544996
0.0545997
-0.0892514
0.088991
-0.137543
-0.0992816
0.0993422
0.137735
-0.0795308
0.079337
-0.110066
0.110205
0.0356809
0.0654572
-0.0357019
-0.0654942
0.0362087
-0.0361597
0.0920621
-0.0919094
-0.0736665
0.0736146
-0.142125
0.142258
-0.00532751
0.114319
-0.114022
0.005468
-0.0643336
-0.0950612
0.0645925
0.0950313
0.082801
0.0818612
-0.0829648
-0.0824318
-0.00354975
0.00357942
0.105386
-0.105199
-0.0558147
-0.0765961
0.0557869
0.076634
0.0340173
0.106886
-0.0338899
-0.106773
0.0224503
0.0817158
-0.0815072
-0.0223556
0.0982662
0.0921345
-0.0980744
-0.0922138
-0.0679568
-0.108626
0.10863
0.0682632
-0.0582895
-0.0777025
0.0582326
0.077718
0.0936714
-0.0250776
-0.0935566
0.0250722
0.0109077
0.0874098
-0.0874052
-0.0109969
-0.00271036
0.0870751
0.00267315
-0.0870465
-0.0153285
-0.089432
0.0154261
0.08945
-0.0735316
0.117025
0.0733397
-0.117
-0.175061
0.20151
-0.20198
0.175276
0.0650722
0.252372
-0.0650856
-0.251983
-0.0587139
0.0590666
0.0712928
-0.0716692
0.0153039
-0.0153132
0.0986479
-0.0988667
-0.05677
0.108382
-0.108441
0.056629
0.00693981
-0.0926341
-0.00693569
0.092753
-0.00102029
0.0926044
0.00103285
-0.0925313
0.0181903
-0.0182991
0.0911959
-0.0912726
0.019692
-0.0672808
0.0671703
-0.0196784
0.0199168
0.0861827
-0.0862756
-0.0200428
0.045306
-0.0630417
-0.0453071
0.0631272
-0.0985027
0.0648152
0.0990876
-0.0651561
-0.116432
0.0198287
-0.0197278
0.116296
0.036484
-0.0592069
-0.0365825
0.0592332
0.0220663
-0.0220383
-0.111814
0.111901
-0.0943887
-0.0269716
0.094293
0.0269792
0.0162064
0.130358
-0.016177
-0.131073
-0.104464
0.104388
0.0194913
-0.0195268
0.0826902
0.0712376
-0.0817045
-0.0709237
0.0426091
-0.0722728
0.0721975
-0.0426822
-0.0809426
-0.0701556
0.0710805
0.0807472
-0.0231847
0.0734419
0.0231614
-0.0735274
-0.103932
0.104012
0.00892565
-0.00888368
0.115103
0.0177537
-0.017707
-0.115935
-0.105845
-0.0506146
0.0508723
0.106099
-0.0292539
-0.0704157
0.0292132
0.0703371
0.117739
-0.121198
-0.118313
0.121479
-0.0922657
0.0855709
0.092576
-0.0858188
-0.143045
-0.000248529
0.143343
0.000435647
-0.0779933
0.0780108
0.00783419
-0.00785269
-0.084226
-0.0458475
0.0841074
0.0457185
0.1206
0.0204235
-0.12017
-0.0204308
0.00459101
0.0757358
-0.00453956
-0.0757915
-0.0543786
-0.0705776
0.0544231
0.070812
-0.0560087
0.0625842
0.0561452
-0.0624444
0.0888759
0.0549587
-0.0890141
-0.0549938
-0.0806818
0.0590279
-0.0590692
0.0807237
-0.0113696
0.0114082
0.138738
-0.137742
-0.000505535
0.118198
0.000596648
-0.118022
0.0755573
-0.0356106
0.0354106
-0.0756819
0.0940519
-0.0939672
-0.131478
0.132143
-0.123774
0.124573
-0.0998784
0.10003
0.0434044
-0.0714986
0.0714711
-0.0435917
-0.0426921
-0.0822296
0.0820744
0.0425471
-0.018307
-0.123602
0.0185986
0.124073
0.125451
-0.1252
-0.0236507
0.0239413
0.0627075
-0.0627013
0.0423517
-0.0424058
0.00389015
-0.0850769
0.0851811
-0.00387441
-0.10208
-0.180352
0.180254
0.102388
0.000504946
0.125668
-0.00051982
-0.125888
-0.0556351
0.0555573
-0.0707451
0.0707973
-0.0516903
0.0514823
0.0515562
-0.0514714
0.0359958
0.113594
-0.0360924
-0.113438
-0.0873112
-0.00491903
0.0874328
0.00495825
0.12982
-0.0453554
-0.129487
0.0454088
0.11509
0.0370124
-0.0368813
-0.115011
-0.0753739
-0.0497
0.0495551
0.075352
-0.0587094
-0.0743476
0.058336
0.0747113
-0.0595029
0.129469
-0.12931
0.0597858
-0.0624993
0.141455
-0.140657
0.062645
0.031818
0.108635
-0.109094
-0.031568
0.169954
-0.127669
-0.170206
0.127868
0.0646667
0.0578751
-0.0644901
-0.0578559
0.0362505
0.148798
-0.14758
-0.036068
0.0421008
0.116145
-0.115458
-0.0416485
-0.00701729
0.00702548
-0.0947217
0.0949103
0.112685
0.00927259
-0.112651
-0.00917718
-0.0545727
0.0546556
-0.0606965
0.060835
0.0472995
-0.0736314
-0.0473728
0.073604
0.0568991
0.0620638
-0.0619549
-0.0570035
-0.0153621
0.0154276
0.0960129
-0.0960909
0.0938544
-0.0938321
-0.0736653
0.0735743
-0.0965051
0.0709835
0.0964024
-0.0709954
-0.00868128
-0.10062
0.00850075
0.100818
-0.0980151
0.0981181
0.0604991
-0.0604605
0.00852936
0.109645
-0.109188
-0.00845821
-0.115504
-0.0595593
0.115421
0.0594681
-0.0843645
0.0195325
0.0842898
-0.0197332
0.017002
-0.0997822
0.0997116
-0.0171497
0.087011
0.0264085
-0.0266835
-0.0871374
0.0963774
-0.0260738
0.0260255
-0.096595
0.0277095
0.0903205
-0.0278581
-0.0904508
)
;

boundaryField
{
    insideCircle
    {
        type            zeroGradient;
    }
    outsideCircle
    {
        type            zeroGradient;
    }
    topAndBottom
    {
        type            empty;
    }
}


// ************************************************************************* //
