/*--------------------------------*- C++ -*----------------------------------*\
| =========                 |                                                 |
| \\      /  F ield         | foam-extend: Open Source CFD                    |
|  \\    /   O peration     | Version:  3.0                                   |
|   \\  /    A nd           | Web:         http://www.extend-project.de       |
|    \\/     M anipulation  |                                                 |
\*---------------------------------------------------------------------------*/
FoamFile
{
    version     2.0;
    format      ascii;
    class       volSymmTensorField;
    location    "79";
    object      sigma;
}
// * * * * * * * * * * * * * * * * * * * * * * * * * * * * * * * * * * * * * //

dimensions      [0 0 0 0 0 0 0];

internalField   nonuniform List<symmTensor> 
7680
(
(-0.178527 -0.00400592 -2.06651e-20 0.178186 -3.45727e-20 0.000340627)
(-0.178007 -0.00416231 6.10144e-20 0.177065 1.01852e-19 0.0009422)
(-0.175484 -0.00420257 -1.19782e-21 0.173998 -1.1478e-19 0.00148646)
(-0.171533 -0.00415216 7.69932e-22 0.169553 5.34811e-20 0.00198042)
(-0.166761 -0.00404197 1.17869e-20 0.164331 -5.11742e-20 0.00243029)
(-0.161346 -0.00388085 -8.16935e-21 0.158505 2.01965e-20 0.00284103)
(-0.155671 -0.00368607 2.58766e-20 0.152454 -8.15512e-20 0.00321726)
(-0.149749 -0.0034605 9.85089e-21 0.146187 -1.51351e-20 0.0035626)
(-0.143836 -0.00321376 8.24856e-21 0.139956 -1.03332e-19 0.00388056)
(-0.137882 -0.0029465 2.0152e-20 0.133708 1.22546e-21 0.0041739)
(-0.132061 -0.00266381 -3.83416e-20 0.127616 -1.22261e-19 0.00444536)
(-0.126308 -0.0023655 1.8944e-20 0.121611 6.24221e-20 0.00469707)
(-0.120743 -0.00205402 7.24146e-22 0.115812 -1.06984e-19 0.00493114)
(-0.115303 -0.00172888 -3.45709e-20 0.110154 7.61842e-20 0.00514913)
(-0.11007 -0.00139091 -2.52249e-20 0.104718 -2.17684e-20 0.00535237)
(-0.10499 -0.00103956 4.84983e-21 0.0994483 1.36495e-19 0.00554194)
(-0.10012 -0.000674564 -1.30213e-20 0.0944021 -1.14243e-19 0.00571832)
(-0.0954169 -0.000295427 8.43744e-24 0.0895349 2.28064e-19 0.00588204)
(-0.0909169 9.89477e-05 1.72611e-20 0.0848841 -1.3062e-19 0.00603279)
(-0.0865892 0.000508903 -2.40311e-21 0.0804189 2.08989e-19 0.00617035)
(-0.0824547 0.000936213 -2.9863e-20 0.0761611 -7.43522e-20 0.00629367)
(-0.0784945 0.00138109 -3.13219e-20 0.0720929 1.75542e-19 0.00640163)
(-0.0747158 0.00184571 -2.91276e-20 0.0682236 -2.82368e-20 0.00649222)
(-0.0711117 0.00233043 -2.95934e-20 0.0645482 2.0791e-19 0.00656346)
(-0.0676775 0.00283724 7.31361e-21 0.0610652 -1.94742e-20 0.00661223)
(-0.0644171 0.00336724 -6.72352e-20 0.057782 1.66265e-19 0.00663517)
(-0.0613161 0.0039212 1.74493e-20 0.0546874 1.01798e-19 0.00662868)
(-0.0583872 0.00450202 -1.48168e-20 0.0518005 1.31664e-19 0.00658668)
(-0.0556087 0.00510726 2.3516e-20 0.0491026 1.06802e-19 0.0065061)
(-0.0529992 0.00574385 -5.17477e-20 0.0466219 4.71957e-20 0.00637728)
(-0.0505332 0.00640316 -4.04264e-22 0.0443358 6.92079e-20 0.00619736)
(-0.0482299 0.00709884 -4.34304e-20 0.0422761 -5.62465e-21 0.00595387)
(-0.0460668 0.00781333 2.92072e-20 0.0404234 3.93557e-20 0.00564337)
(-0.0440517 0.00856764 -6.5624e-20 0.0388015 -3.86294e-21 0.00525028)
(-0.0421809 0.00933496 1.77973e-20 0.0374085 1.28142e-20 0.00477239)
(-0.0404246 0.0101432 -8.1629e-20 0.0362363 4.43473e-20 0.00418837)
(-0.0388311 0.0109609 8.94166e-21 0.0353317 -1.23097e-19 0.00349941)
(-0.0372791 0.0118153 2.28504e-21 0.0345999 8.47059e-20 0.00267921)
(-0.0359501 0.0127035 -3.67793e-20 0.0342215 -1.16681e-19 0.00172866)
(-0.0345302 0.0138741 4.28478e-20 0.0339054 1.29476e-20 0.000624845)
(-0.17833 -0.00941161 1.98016e-20 0.17799 4.13509e-20 0.000339139)
(-0.17772 -0.0103515 -3.94835e-20 0.176782 8.97785e-20 0.000937961)
(-0.175135 -0.0109055 -3.52925e-20 0.173656 4.81841e-20 0.00147969)
(-0.171145 -0.0111579 4.91764e-20 0.169173 -6.76204e-21 0.00197126)
(-0.166348 -0.0112113 -1.73693e-20 0.163929 5.5784e-21 0.00241889)
(-0.16092 -0.0111007 6.02249e-21 0.158093 5.5738e-20 0.00282751)
(-0.155242 -0.010884 -3.6299e-20 0.15204 7.99632e-20 0.00320173)
(-0.149323 -0.0105758 -1.06274e-20 0.145778 2.28882e-20 0.00354514)
(-0.143419 -0.0102092 -7.4289e-21 0.139558 1.5131e-19 0.00386127)
(-0.137477 -0.00979048 9.16242e-21 0.133324 1.15982e-19 0.00415286)
(-0.131673 -0.0093383 5.5866e-20 0.12725 -1.20087e-20 0.00442266)
(-0.125938 -0.00885541 7.44587e-21 0.121265 7.2759e-20 0.00467281)
(-0.120394 -0.00835211 2.81462e-20 0.115489 -7.72317e-20 0.00490539)
(-0.114976 -0.00782968 5.39854e-20 0.109854 6.6068e-20 0.00512203)
(-0.109768 -0.00729332 3.56647e-20 0.104443 -1.56125e-19 0.00532402)
(-0.104713 -0.00674377 -6.30487e-20 0.0992004 -1.25245e-20 0.00551249)
(-0.0998696 -0.00618293 7.26587e-20 0.0941817 -6.4131e-21 0.0056879)
(-0.0951937 -0.00561158 -1.92858e-20 0.0893429 -5.2194e-20 0.00585085)
(-0.0907225 -0.00502923 -9.31535e-21 0.0847215 8.7103e-20 0.00600099)
(-0.0864243 -0.00443707 1.51458e-20 0.0802861 -4.78929e-20 0.00613821)
(-0.0823206 -0.00383271 -6.33337e-20 0.0760592 8.05902e-21 0.00626136)
(-0.0783917 -0.00321793 4.61085e-20 0.0720222 -8.70438e-20 0.00636953)
(-0.0746459 -0.00258892 -1.40385e-20 0.0681854 3.83543e-20 0.00646049)
(-0.0710752 -0.00194785 2.6395e-20 0.0645426 -1.44908e-19 0.00653257)
(-0.067676 -0.00129015 -9.95971e-20 0.0610936 -1.26195e-20 0.00658233)
(-0.0644512 -0.000617845 9.35368e-20 0.0578444 -9.70109e-20 0.00660674)
(-0.0613876 7.30638e-05 -4.69702e-20 0.0547857 -1.05085e-20 0.00660187)
(-0.0584967 0.000782296 7.29602e-21 0.0519348 -6.08413e-20 0.00656193)
(-0.0557586 0.0015103 -7.15527e-20 0.0492752 -7.69843e-20 0.00648344)
(-0.0531906 0.00226231 -3.69098e-20 0.0468333 7.58954e-21 0.00635729)
(-0.050769 0.00302969 -3.69314e-20 0.0445892 -4.30132e-20 0.00617978)
(-0.0485125 0.00382949 -3.76504e-20 0.0425731 -4.60544e-21 0.00593944)
(-0.0464004 0.00463556 3.6552e-20 0.0407688 -2.74594e-20 0.00563158)
(-0.044441 0.00548562 1.5255e-20 0.0391994 -6.13585e-20 0.00524158)
(-0.0426323 0.00632329 2.13692e-20 0.037866 1.7353e-20 0.00476627)
(-0.0409456 0.00722393 -1.29977e-19 0.0367611 -6.16129e-21 0.00418451)
(-0.0394303 0.00807927 -2.44238e-20 0.0359331 -3.00687e-21 0.00349728)
(-0.0379615 0.00902667 2.28542e-21 0.0352836 1.75206e-20 0.0026779)
(-0.0367135 0.00991023 -7.90933e-20 0.0349861 -2.39371e-20 0.00172747)
(-0.0354177 0.0111273 -2.27352e-20 0.0347943 1.45516e-20 0.000623483)
(-0.177996 -0.0148118 1.82605e-20 0.177659 -7.41203e-20 0.000337259)
(-0.177191 -0.0165219 7.29168e-20 0.176258 2.99989e-20 0.000932772)
(-0.174469 -0.0175778 -2.25089e-20 0.172997 -2.40489e-19 0.00147145)
(-0.170385 -0.0181249 -2.99496e-20 0.168425 1.26659e-19 0.00196018)
(-0.165526 -0.0183361 6.92327e-20 0.163121 -1.5066e-19 0.00240517)
(-0.160062 -0.0182723 4.4375e-20 0.15725 -1.89718e-20 0.00281129)
(-0.154363 -0.0180312 2.46014e-20 0.15118 -1.29389e-19 0.00318315)
(-0.148439 -0.0176392 5.58206e-20 0.144915 1.54023e-20 0.00352435)
(-0.142539 -0.0171522 8.84311e-20 0.138701 -3.18163e-20 0.00383837)
(-0.13661 -0.0165822 -8.89913e-20 0.132482 -1.57139e-21 0.00412797)
(-0.130825 -0.0159612 -5.28514e-20 0.126429 -1.72568e-19 0.00439589)
(-0.125113 -0.0152948 -3.64689e-20 0.120469 8.21949e-20 0.00464428)
(-0.119597 -0.0146011 5.17455e-21 0.114722 -7.24525e-20 0.00487522)
(-0.114209 -0.0138831 -1.00363e-19 0.109119 6.82969e-20 0.00509036)
(-0.109034 -0.0131501 -9.00532e-20 0.103743 6.27735e-20 0.00529099)
(-0.104014 -0.0124045 1.12094e-19 0.0985353 1.12722e-19 0.00547827)
(-0.0992065 -0.01165 -3.45984e-20 0.0935538 4.64365e-20 0.00565268)
(-0.094568 -0.0108888 6.25664e-20 0.0887531 1.73492e-19 0.00581482)
(-0.0901353 -0.0101209 5.50626e-20 0.084171 -1.59066e-19 0.00596438)
(-0.0858766 -0.00934921 -8.60087e-20 0.0797753 1.42034e-19 0.00610128)
(-0.0818133 -0.0085706 -5.2814e-20 0.075589 -4.42958e-20 0.00622432)
(-0.0779257 -0.00778879 -2.17474e-20 0.0715929 1.38593e-19 0.00633278)
(-0.0742219 -0.00699854 -6.88738e-20 0.0677976 -9.13345e-21 0.00642422)
(-0.070694 -0.00620421 -8.60617e-20 0.0641967 7.02201e-20 0.0064973)
(-0.0673384 -0.00539925 4.44526e-20 0.0607901 2.00356e-19 0.00654827)
(-0.0641584 -0.00458791 -6.79454e-20 0.0575838 1.06889e-19 0.00657451)
(-0.0611401 -0.00376412 5.98483e-20 0.0545684 2.11496e-19 0.00657168)
(-0.0582964 -0.00292989 -7.27367e-20 0.0517619 4.29132e-20 0.00653456)
(-0.0556056 -0.00208333 8.77081e-20 0.0491467 1.88156e-19 0.00645887)
(-0.0530882 -0.00121943 -4.83561e-21 0.0467517 -5.63505e-21 0.00633646)
(-0.0507164 -0.000347141 -1.2647e-20 0.044554 1.11647e-19 0.00616236)
(-0.0485153 0.000553079 -2.31931e-20 0.0425891 7.5873e-20 0.00592623)
(-0.0464577 0.00145183 -5.4949e-20 0.0408354 2.03239e-19 0.00562229)
(-0.0445595 0.00239278 -6.71211e-22 0.0393232 -2.74585e-19 0.0052363)
(-0.042815 0.00331136 6.6531e-20 0.03805 2.19235e-19 0.00476501)
(-0.0411925 0.00429336 -9.24237e-20 0.0370061 -8.80857e-20 0.0041864)
(-0.0397682 0.00521023 2.42139e-20 0.036266 9.04525e-21 0.00350221)
(-0.0383458 0.00622046 -3.48987e-20 0.0356615 1.42846e-19 0.00268431)
(-0.0372598 0.00713189 -3.72484e-20 0.0355257 -7.4614e-20 0.00173415)
(-0.035982 0.00837055 2.45149e-20 0.0353544 2.22373e-19 0.000627642)
(-0.177525 -0.0202096 7.08556e-20 0.17719 9.73075e-20 0.000335143)
(-0.176423 -0.0226606 -1.02031e-19 0.175496 5.5101e-20 0.000926815)
(-0.173488 -0.0241992 -1.21975e-20 0.172026 3.18092e-19 0.00146196)
(-0.16926 -0.0250272 1.41916e-19 0.167312 -2.23015e-19 0.00194742)
(-0.164302 -0.0253864 -1.20064e-19 0.161913 9.99461e-20 0.00238936)
(-0.158776 -0.0253627 2.3848e-20 0.155984 7.78378e-20 0.00279263)
(-0.153043 -0.025093 -2.21877e-20 0.149881 9.78904e-20 0.00316183)
(-0.147104 -0.0246144 6.1533e-20 0.143604 -2.6637e-20 0.0035005)
(-0.141205 -0.0240059 1.33694e-20 0.137393 -8.892e-20 0.00381215)
(-0.135289 -0.0232844 -6.76276e-20 0.131189 -5.10713e-20 0.00409952)
(-0.129525 -0.0224952 1.01635e-19 0.12516 5.98765e-20 0.00436532)
(-0.123842 -0.0216466 7.83007e-20 0.119231 2.1137e-20 0.00461173)
(-0.11836 -0.0207642 4.09172e-20 0.113519 -1.59409e-19 0.00484082)
(-0.11301 -0.0198526 1.50903e-19 0.107956 1.309e-19 0.00505425)
(-0.107876 -0.0189256 7.24436e-20 0.102623 -1.5963e-20 0.00525331)
(-0.1029 -0.0179864 -1.14342e-19 0.0974604 3.32192e-19 0.00543918)
(-0.0981381 -0.0170411 1.76057e-19 0.0925258 -2.11628e-19 0.00561235)
(-0.0935463 -0.0160929 -2.20497e-19 0.0877729 2.34675e-19 0.00577345)
(-0.0891619 -0.0151427 -1.33823e-20 0.0832398 -1.4915e-19 0.00592217)
(-0.0849519 -0.0141945 1.1115e-19 0.0788933 1.48162e-19 0.00605852)
(-0.0809384 -0.0132448 -5.77891e-20 0.0747572 -1.49231e-19 0.00618123)
(-0.0771008 -0.0122993 7.97486e-20 0.070811 1.77557e-20 0.00628976)
(-0.073448 -0.011351 -7.22634e-20 0.0670665 2.51581e-21 0.00638149)
(-0.0699711 -0.010407 1.97893e-19 0.0635157 1.6553e-19 0.00645538)
(-0.0666673 -0.00945797 -2.95396e-20 0.0601599 -1.28731e-19 0.00650742)
(-0.0635392 -0.00851149 1.10063e-19 0.0570039 7.964e-20 0.00653529)
(-0.0605735 -0.007558 -8.00663e-20 0.0540392 -6.99422e-21 0.00653436)
(-0.0577829 -0.00660308 -2.11946e-20 0.0512831 9.5613e-20 0.00649982)
(-0.0551451 -0.00564124 -9.25171e-20 0.0487183 -1.61566e-19 0.00642681)
(-0.0526827 -0.00467005 -1.19582e-19 0.0463747 9.92286e-20 0.00630802)
(-0.0503643 -0.00369701 6.91882e-20 0.0442269 -4.58844e-20 0.00613737)
(-0.048222 -0.00270026 9.50535e-20 0.0423163 4.67581e-20 0.00590564)
(-0.0462192 -0.00171681 -3.23781e-19 0.0406133 8.93141e-20 0.00560589)
(-0.0443876 -0.000683781 -1.58761e-20 0.0391633 -1.53232e-20 0.00522437)
(-0.0427039 0.000296803 2.52726e-19 0.0379465 8.24203e-20 0.00475742)
(-0.0411647 0.0013844 -3.65155e-19 0.0369821 4.47587e-20 0.00418261)
(-0.0398149 0.00232065 2.34861e-19 0.0363133 6.03037e-20 0.00350166)
(-0.0385117 0.00348194 -7.39518e-20 0.0358257 8.11419e-20 0.00268593)
(-0.0374887 0.00437859 2.17604e-20 0.0357523 -9.8163e-20 0.00173636)
(-0.0364155 0.00570398 -1.12497e-19 0.0357868 -1.89025e-19 0.000628747)
(-0.176917 -0.0256008 3.76877e-20 0.176585 -1.72073e-19 0.000332651)
(-0.175417 -0.0287573 2.37002e-19 0.174497 -2.67024e-19 0.000919931)
(-0.172198 -0.0307506 -1.22381e-19 0.170747 -3.46601e-19 0.00145105)
(-0.167775 -0.0318398 -1.45334e-19 0.165842 -6.46221e-20 0.0019328)
(-0.162683 -0.0323327 2.53957e-19 0.160311 -3.33369e-21 0.0023713)
(-0.157072 -0.0323393 6.78598e-20 0.154301 -1.8394e-19 0.00277136)
(-0.151288 -0.0320342 -1.95371e-20 0.14815 -1.79281e-19 0.00313756)
(-0.145327 -0.0314651 -7.95858e-20 0.141854 8.25642e-20 0.00347342)
(-0.139425 -0.0307328 7.4361e-20 0.135643 3.58453e-20 0.00378243)
(-0.133522 -0.0298591 -1.87082e-20 0.129455 1.10028e-19 0.00406731)
(-0.127783 -0.0289021 1.56188e-20 0.123452 -2.13265e-19 0.00433078)
(-0.122134 -0.0278725 -2.12039e-19 0.117559 1.22131e-19 0.00457502)
(-0.116692 -0.0268033 9.1188e-20 0.11189 -1.4518e-19 0.00480208)
(-0.111388 -0.0257007 -6.87576e-21 0.106375 1.89613e-19 0.00501364)
(-0.106303 -0.0245824 1.22434e-19 0.101092 -2.53571e-20 0.005211)
(-0.101379 -0.0234528 -3.73418e-20 0.095984 1.79639e-19 0.00539536)
(-0.0966727 -0.0223201 -7.05277e-20 0.0911055 -2.79019e-19 0.0055672)
(-0.092137 -0.0211887 1.49775e-19 0.0864098 9.62901e-20 0.0057272)
(-0.0878102 -0.0200598 -7.57593e-20 0.0819351 4.91995e-20 0.00587503)
(-0.0836582 -0.018939 -4.9919e-20 0.0776474 -5.09247e-20 0.00601079)
(-0.0797038 -0.0178225 -2.0877e-19 0.0735707 2.11822e-19 0.00613312)
(-0.0759253 -0.0167174 1.11919e-19 0.0696836 1.63532e-19 0.00624169)
(-0.0723322 -0.0156157 5.44885e-20 0.0659985 1.12966e-19 0.00633368)
(-0.0689151 -0.0145263 -1.52633e-19 0.0625067 -1.8746e-19 0.00640836)
(-0.0656715 -0.0134382 -5.98972e-20 0.05921 3.01555e-19 0.00646144)
(-0.0626036 -0.0123613 9.73177e-20 0.0561125 -5.55445e-20 0.00649105)
(-0.0596981 -0.0112837 1.08827e-19 0.0532061 1.83282e-19 0.00649203)
(-0.0569688 -0.0102134 -1.93319e-19 0.0505085 4.17359e-20 0.00646037)
(-0.0543907 -0.00914243 7.19299e-20 0.0480006 3.45309e-19 0.00639009)
(-0.0519916 -0.00807056 1.10317e-19 0.0457163 1.8883e-19 0.00627533)
(-0.049732 -0.0070026 -1.04939e-19 0.0436238 3.17728e-19 0.00610822)
(-0.0476567 -0.00591824 2.18597e-19 0.0417754 -7.34263e-20 0.0058813)
(-0.0457111 -0.00485178 -8.12287e-20 0.0401252 2.22084e-19 0.0055859)
(-0.0439537 -0.00373936 -9.43938e-20 0.0387443 1.09933e-19 0.00520948)
(-0.0423253 -0.00268548 1.81458e-19 0.037578 3.17279e-19 0.00474728)
(-0.0408695 -0.00151629 -8.02762e-20 0.0366922 -5.92498e-20 0.00417732)
(-0.0395884 -0.000521072 5.24458e-20 0.0360881 2.57336e-20 0.00350027)
(-0.0383608 0.000713687 -1.74367e-19 0.0356729 1.04678e-19 0.0026879)
(-0.0374796 0.00166206 -3.8204e-19 0.0357401 -6.16135e-20 0.00173953)
(-0.036532 0.00298672 1.71439e-19 0.035901 1.90322e-19 0.000631009)
(-0.17617 -0.030988 2.24699e-20 0.17584 1.06395e-19 0.000329921)
(-0.174177 -0.0347996 -2.19603e-19 0.173265 3.54394e-19 0.00091229)
(-0.170605 -0.0372126 1.71257e-19 0.169166 -1.95502e-20 0.00143891)
(-0.165939 -0.0385379 2.20617e-19 0.164022 3.93289e-19 0.00191653)
(-0.160679 -0.0391464 -1.90325e-19 0.158328 1.81563e-20 0.0023512)
(-0.154962 -0.039171 -4.35739e-20 0.152214 -6.5145e-20 0.00274771)
(-0.149113 -0.038822 1.38106e-19 0.146002 1.35054e-19 0.00311059)
(-0.143122 -0.0381572 2.15227e-19 0.139679 -8.54384e-20 0.00344336)
(-0.137214 -0.0372982 4.13736e-20 0.133464 -9.22035e-20 0.00374946)
(-0.131324 -0.0362713 -2.56714e-19 0.127293 1.46585e-19 0.00403161)
(-0.125613 -0.0351467 9.08731e-20 0.12132 2.3306e-19 0.00429253)
(-0.120003 -0.0339376 1.10802e-19 0.115468 1.24148e-19 0.00453437)
(-0.114608 -0.0326839 4.08372e-20 0.109849 1.30661e-20 0.00475919)
(-0.109357 -0.031393 2.98554e-19 0.104388 -1.82809e-19 0.00496867)
(-0.10433 -0.0300868 7.62319e-20 0.0991658 2.88578e-20 0.00516411)
(-0.0994667 -0.0287706 -2.31829e-19 0.0941199 -6.29289e-20 0.00534672)
(-0.0948237 -0.0274544 1.51474e-20 0.0893068 1.7409e-19 0.00551698)
(-0.090353 -0.0261438 4.85849e-20 0.0846774 2.21211e-19 0.00567562)
(-0.0860929 -0.0248406 -1.10446e-19 0.0802706 3.10921e-20 0.00582229)
(-0.0820079 -0.0235517 2.45041e-19 0.0760507 2.55788e-19 0.00595717)
(-0.0781214 -0.0222726 1.04428e-19 0.0720426 1.90794e-19 0.00607884)
(-0.0744105 -0.0210123 -4.61339e-20 0.0682233 2.13615e-19 0.00618714)
(-0.0708857 -0.0197614 -3.13983e-19 0.0646066 -1.99903e-19 0.00627912)
(-0.0675362 -0.0185312 3.50548e-19 0.0611819 2.61253e-19 0.00635429)
(-0.0643608 -0.0173082 8.54984e-20 0.0579527 5.96844e-20 0.00640816)
(-0.0613605 -0.0161056 -6.60396e-20 0.0549213 3.01567e-19 0.0064392)
(-0.0585227 -0.0149074 1.05911e-19 0.0520808 -1.37263e-19 0.00644189)
(-0.0558614 -0.0137269 1.59783e-19 0.0494485 1.31153e-19 0.0064129)
(-0.0533498 -0.0125498 5.29731e-20 0.0470045 -1.1419e-19 0.00634535)
(-0.0510202 -0.0113828 -5.60968e-20 0.0447855 -9.81932e-20 0.0062347)
(-0.0488251 -0.0102228 -9.69432e-20 0.0427536 -5.65997e-19 0.0060715)
(-0.0468223 -0.0090574 -3.89341e-20 0.0409724 2.52373e-20 0.00584987)
(-0.0449373 -0.0079138 1.85472e-20 0.0393777 -3.33465e-19 0.0055596)
(-0.0432598 -0.00672946 6.85359e-20 0.0380708 6.86954e-20 0.00518903)
(-0.0416815 -0.00562106 1.90295e-19 0.036949 -3.18407e-19 0.00473249)
(-0.0403294 -0.0043626 -6.54983e-19 0.0361611 -1.37909e-19 0.00416824)
(-0.0390714 -0.00336639 4.70807e-19 0.0355753 -1.87803e-19 0.00349604)
(-0.0380122 -0.00194826 -9.15434e-20 0.0353242 -5.15715e-20 0.00268797)
(-0.0371425 -0.00102661 1.17813e-19 0.0354007 -4.81095e-19 0.00174185)
(-0.036415 0.000495937 -3.266e-19 0.0357816 6.71289e-20 0.000633334)
(-0.175282 -0.0363669 1.97862e-19 0.174955 -1.44644e-19 0.000326833)
(-0.172707 -0.0407776 1.46038e-19 0.171803 8.69442e-21 0.000903756)
(-0.168716 -0.0435671 -1.933e-19 0.167291 -5.00585e-20 0.0014254)
(-0.163763 -0.045098 3.73737e-22 0.161864 -3.4843e-19 0.00189846)
(-0.158303 -0.0457999 -9.96134e-22 0.155974 1.03156e-19 0.00232891)
(-0.152459 -0.0458272 -1.25137e-20 0.149738 4.11345e-19 0.00272152)
(-0.146532 -0.0454237 -7.26161e-20 0.143451 -2.72987e-21 0.00308077)
(-0.140504 -0.0446566 -2.38582e-19 0.137094 1.27399e-19 0.00341015)
(-0.134587 -0.043667 2.97599e-19 0.130874 -2.66804e-20 0.00371308)
(-0.128712 -0.0424853 2.16382e-19 0.124719 8.21497e-20 0.00399227)
(-0.123031 -0.0411934 -4.62337e-20 0.11878 -1.92082e-20 0.00425041)
(-0.117464 -0.0398061 -3.68876e-19 0.112975 1.42262e-19 0.00448965)
(-0.112123 -0.0383703 -1.71363e-19 0.107411 -1.47168e-20 0.00471205)
(-0.106932 -0.0368944 -5.85002e-20 0.102012 2.86113e-19 0.00491928)
(-0.10197 -0.035404 3.4126e-19 0.0968578 -1.7082e-19 0.00511265)
(-0.0971765 -0.0339053 1.03559e-19 0.0918831 -3.49508e-20 0.00529337)
(-0.0926058 -0.0324102 1.04325e-19 0.0871438 1.20651e-20 0.00546195)
(-0.0882088 -0.0309251 8.72205e-20 0.0825897 -4.68203e-20 0.00561911)
(-0.084024 -0.0294526 -3.60228e-20 0.0782594 -1.16661e-19 0.00576452)
(-0.0800144 -0.0280005 1.1986e-19 0.074116 -2.38396e-19 0.00589841)
(-0.0762043 -0.0265641 -1.39117e-19 0.070185 8.36722e-21 0.00601931)
(-0.0725692 -0.0251539 -4.78727e-20 0.0664419 -3.4419e-19 0.00612721)
(-0.0691207 -0.0237594 -2.38327e-20 0.0629016 2.03301e-19 0.00621905)
(-0.0658464 -0.0223937 4.70944e-20 0.0595519 -1.4666e-19 0.00629453)
(-0.0627466 -0.0210414 1.35228e-19 0.0563976 -1.04761e-19 0.00634903)
(-0.0598209 -0.0197185 -3.91723e-20 0.0534396 -7.31596e-20 0.00638132)
(-0.0570574 -0.018406 -9.92048e-20 0.0506719 3.5826e-21 0.00638546)
(-0.0544702 -0.017121 -4.73546e-20 0.0481113 -3.1371e-19 0.00635891)
(-0.0520311 -0.0158442 -1.93902e-19 0.0457375 6.33118e-19 0.00629362)
(-0.0497758 -0.0145892 -2.65211e-19 0.0435891 -5.24199e-20 0.00618667)
(-0.0476505 -0.0133429 -8.8659e-20 0.0416239 3.69137e-19 0.00602668)
(-0.0457244 -0.012106 4.13253e-19 0.0399146 1.30751e-19 0.00580986)
(-0.043905 -0.010886 -1.91221e-20 0.0383812 -1.63435e-19 0.00552384)
(-0.0423138 -0.00964648 -1.25736e-19 0.0371547 2.27575e-19 0.00515911)
(-0.0407889 -0.00846478 1.374e-19 0.0360814 -1.40018e-19 0.00470753)
(-0.0395564 -0.00716974 -1.59701e-20 0.0354064 -3.2315e-20 0.00414997)
(-0.0383024 -0.00608474 -1.51698e-21 0.0348198 2.67204e-20 0.00348261)
(-0.0374377 -0.00468321 -4.50374e-19 0.0347569 -6.70839e-20 0.00268078)
(-0.0364788 -0.0036177 -2.81403e-19 0.0347405 -1.59222e-19 0.00173826)
(-0.0359441 -0.00215347 3.39626e-19 0.0353114 6.3523e-19 0.0006327)
(-0.174251 -0.0417394 8.71902e-20 0.173927 1.82341e-19 0.000323507)
(-0.17101 -0.0466797 -3.21789e-20 0.170116 -2.8258e-20 0.000894478)
(-0.166542 -0.0497965 -1.98912e-20 0.165131 1.43869e-19 0.00141069)
(-0.161259 -0.0514975 1.54748e-19 0.15938 7.66148e-19 0.00187877)
(-0.155571 -0.0522673 2.51412e-19 0.153266 9.92912e-20 0.00230464)
(-0.149581 -0.0522795 2.1993e-20 0.146888 -3.99571e-19 0.002693)
(-0.143564 -0.0518095 2.01216e-20 0.140516 -4.53917e-20 0.00304832)
(-0.137493 -0.0509324 1.78899e-19 0.134119 -1.30821e-19 0.00337403)
(-0.131565 -0.0498078 -7.83146e-20 0.127891 -1.57121e-20 0.00367354)
(-0.125705 -0.0484695 -1.35162e-19 0.121755 -1.23564e-19 0.00394953)
(-0.120057 -0.0470104 2.90496e-19 0.115853 -9.79914e-20 0.00420466)
(-0.11454 -0.0454465 2.30338e-19 0.110099 -2.11297e-19 0.0044411)
(-0.109257 -0.0438314 7.57017e-20 0.104596 1.11554e-19 0.00466086)
(-0.104133 -0.0421739 8.10948e-20 0.0992678 9.14777e-21 0.00486563)
(-0.0992455 -0.0405037 -1.35523e-19 0.0941887 -3.71181e-19 0.00505671)
(-0.0945285 -0.038827 -1.08428e-19 0.0892932 1.31078e-19 0.0052353)
(-0.0900383 -0.0371582 1.26628e-19 0.0846364 -3.28061e-19 0.00540195)
(-0.0857231 -0.0355039 -2.93005e-20 0.0801658 1.07252e-19 0.00555734)
(-0.081622 -0.0338674 -1.75231e-19 0.0759208 -4.97002e-19 0.00570119)
(-0.077696 -0.0322575 3.59716e-19 0.0718622 1.29538e-19 0.00583376)
(-0.0739704 -0.0306694 1.11682e-19 0.0680168 -1.21956e-19 0.00595357)
(-0.0704188 -0.0291148 8.44477e-20 0.0643581 1.08328e-19 0.00606068)
(-0.0670544 -0.0275819 -1.87913e-19 0.0609023 1.28976e-19 0.00615201)
(-0.0638627 -0.0260861 5.25888e-20 0.0576353 1.0515e-19 0.00622737)
(-0.0608458 -0.0246096 1.30857e-19 0.0545637 1.16289e-19 0.0062821)
(-0.0580016 -0.023172 2.203e-19 0.0516864 -2.82804e-19 0.00631519)
(-0.0553195 -0.0217496 -2.52824e-19 0.0489991 2.20948e-19 0.0063204)
(-0.052813 -0.020366 9.29734e-19 0.046517 -5.33557e-19 0.00629596)
(-0.0504534 -0.0189933 3.04631e-19 0.0442206 4.60113e-19 0.00623277)
(-0.0482785 -0.0176564 -2.1772e-19 0.042149 -5.53141e-19 0.00612955)
(-0.0462301 -0.0163271 -2.36342e-19 0.0402572 4.50278e-19 0.00597297)
(-0.0443853 -0.0150259 -5.85524e-19 0.0386238 -4.94107e-20 0.00576148)
(-0.0426375 -0.0137332 1.16316e-19 0.0371572 1.55398e-19 0.00548023)
(-0.0411301 -0.0124475 5.84858e-20 0.0360079 2.78957e-19 0.0051222)
(-0.0396623 -0.0111974 -2.37707e-19 0.0349861 1.15235e-19 0.00467627)
(-0.0385261 -0.00987432 -4.75836e-19 0.0343998 2.17429e-20 0.0041263)
(-0.0372909 -0.00871784 4.71365e-19 0.0338262 2.60232e-19 0.0034647)
(-0.0365611 -0.00729437 -3.07514e-19 0.033891 2.63099e-19 0.00267014)
(-0.0356026 -0.0061829 7.57397e-19 0.0338699 -1.83298e-19 0.00173272)
(-0.0351845 -0.00470505 -6.20257e-19 0.0345526 7.47601e-20 0.00063186)
(-0.173076 -0.0471008 1.15829e-19 0.172756 -1.49367e-19 0.000319839)
(-0.169093 -0.0524964 1.54021e-19 0.168209 -1.24249e-19 0.000884339)
(-0.164092 -0.055884 2.24129e-19 0.162697 -1.14524e-19 0.00139466)
(-0.158442 -0.0577152 1.20719e-19 0.156585 -7.64984e-19 0.00185734)
(-0.152499 -0.0585235 -4.98933e-19 0.150221 -5.2996e-19 0.00227825)
(-0.146347 -0.0585006 -3.75915e-20 0.143685 1.21582e-19 0.00266203)
(-0.14023 -0.05795 1.50201e-20 0.137217 2.15431e-19 0.0030131)
(-0.13411 -0.056954 -1.73309e-19 0.130775 -1.15475e-20 0.00333486)
(-0.128169 -0.0556893 2.64268e-19 0.124538 3.2002e-19 0.00363069)
(-0.122325 -0.0541921 2.56591e-19 0.118422 -4.94566e-19 0.00390324)
(-0.116715 -0.0525656 -2.89265e-19 0.11256 2.95315e-19 0.00415515)
(-0.111251 -0.0508267 -7.19442e-20 0.106862 -3.32573e-19 0.00438858)
(-0.106034 -0.0490351 1.32195e-20 0.101428 6.64695e-20 0.00460552)
(-0.100984 -0.0472 -2.86909e-19 0.0961759 -1.41729e-19 0.00480765)
(-0.0961761 -0.0453543 3.35999e-19 0.0911798 2.44037e-19 0.00499628)
(-0.0915438 -0.0435049 1.66739e-19 0.0863712 -2.653e-19 0.00517259)
(-0.0871417 -0.0416677 -9.43548e-20 0.0818046 4.46484e-19 0.00533716)
(-0.0829162 -0.0398499 8.81821e-20 0.0774255 -2.98745e-19 0.00549066)
(-0.0789063 -0.0380555 -2.69412e-19 0.0732735 2.67703e-19 0.00563281)
(-0.0750714 -0.0362938 3.34239e-19 0.0693075 -5.48061e-20 0.00576392)
(-0.0714376 -0.0345601 -7.89528e-20 0.0655551 -1.85531e-19 0.00588249)
(-0.0679766 -0.032867 1.86792e-19 0.0619879 -8.84734e-20 0.00598864)
(-0.0647031 -0.0312019 8.81245e-20 0.0586237 -1.5214e-19 0.00607932)
(-0.0616003 -0.0295821 -4.58319e-20 0.055446 -3.31244e-20 0.00615434)
(-0.0586726 -0.0279875 -3.65589e-19 0.0524635 1.70004e-19 0.00620912)
(-0.0559151 -0.0264408 2.35809e-19 0.0496724 -5.06705e-19 0.00624271)
(-0.0533199 -0.0249146 -5.74828e-19 0.0470712 1.21229e-19 0.00624873)
(-0.0508977 -0.0234377 -1.38852e-19 0.0446718 1.97956e-19 0.00622592)
(-0.0486224 -0.021975 2.49694e-19 0.042458 2.6265e-20 0.00616441)
(-0.0465293 -0.0205617 -1.27667e-19 0.0404652 -2.4908e-19 0.00606408)
(-0.0445621 -0.0191542 6.47395e-19 0.0386518 1.77039e-19 0.00591034)
(-0.0427964 -0.0177954 1.53884e-19 0.0370932 -2.46856e-19 0.00570319)
(-0.0411257 -0.0164325 -9.08231e-21 0.0356996 5.91427e-19 0.00542613)
(-0.0396961 -0.015113 2.54937e-19 0.0346218 -7.20163e-19 0.00507431)
(-0.038297 -0.0137918 -1.45444e-19 0.0336633 5.46906e-19 0.00463368)
(-0.037245 -0.0124765 5.08131e-20 0.033153 -1.77383e-19 0.00409207)
(-0.0360487 -0.0112258 2.00092e-19 0.032612 4.89666e-19 0.00343668)
(-0.0354424 -0.00989564 -8.42996e-19 0.0327908 -3.17433e-19 0.00265163)
(-0.0344446 -0.00865547 -4.41807e-19 0.0327233 1.26354e-19 0.00172134)
(-0.03426 -0.00733427 5.78619e-19 0.0336314 4.10818e-19 0.00062858)
(-0.171753 -0.0524524 -1.00638e-19 0.171437 7.02428e-19 0.000315934)
(-0.166961 -0.0582172 -1.51781e-19 0.166087 3.46167e-19 0.000873471)
(-0.161378 -0.061814 -3.63327e-19 0.160001 1.30882e-19 0.00137745)
(-0.155328 -0.0637311 2.08663e-20 0.153494 5.68225e-19 0.00183434)
(-0.149108 -0.0645461 5.86268e-19 0.146858 7.04671e-19 0.00224992)
(-0.142778 -0.0644657 2.13465e-19 0.14015 2.99632e-19 0.0026288)
(-0.136552 -0.0638193 -1.98417e-20 0.133577 -7.18487e-20 0.00297532)
(-0.13038 -0.0626948 2.56619e-19 0.127087 -2.62257e-19 0.00329287)
(-0.124425 -0.0612842 -4.05977e-19 0.12084 -2.57791e-19 0.00358476)
(-0.1186 -0.0596258 -1.93237e-19 0.114746 2.53302e-19 0.00385365)
(-0.11303 -0.0578318 3.26637e-19 0.108928 5.06045e-19 0.00410212)
(-0.107624 -0.0559197 -2.06779e-19 0.103291 4.76519e-19 0.00433233)
(-0.102477 -0.0539548 2.06211e-19 0.0979313 3.07286e-19 0.00454624)
(-0.0975078 -0.0519462 4.40413e-20 0.0927623 3.55465e-19 0.00474553)
(-0.0927877 -0.0499303 -4.34378e-19 0.0878562 5.63871e-20 0.00493149)
(-0.0882471 -0.0479137 1.55529e-19 0.0831418 5.97172e-21 0.0051053)
(-0.0839405 -0.0459142 7.76574e-20 0.078673 -3.13333e-20 0.00526754)
(-0.0798118 -0.043939 -1.04155e-19 0.0743929 -1.81157e-19 0.00541887)
(-0.0759005 -0.0419931 -5.03021e-20 0.0703415 -2.73137e-19 0.00555905)
(-0.0721638 -0.0400862 -2.08698e-19 0.0664754 4.59127e-19 0.00568836)
(-0.0686289 -0.0382134 8.49012e-20 0.0628235 -3.19608e-20 0.00580535)
(-0.065265 -0.0363884 -4.31958e-20 0.0593549 4.11624e-19 0.00591011)
(-0.062089 -0.0345976 -1.766e-20 0.0560893 -1.30267e-19 0.00599971)
(-0.0590814 -0.03286 4.80594e-19 0.0530075 1.55993e-19 0.00607386)
(-0.0562489 -0.0311536 -4.153e-19 0.0501208 2.11744e-19 0.00612818)
(-0.0535838 -0.0295041 1.14512e-19 0.0474221 -8.70339e-20 0.00616167)
(-0.0510812 -0.0278801 4.49684e-19 0.0449132 5.50679e-19 0.00616796)
(-0.0487483 -0.0263164 5.07554e-19 0.0426021 1.76645e-19 0.00614618)
(-0.0465625 -0.0247696 -1.45756e-19 0.0404766 3.77147e-19 0.00608591)
(-0.0445551 -0.0232869 -4.75294e-19 0.038567 4.68903e-19 0.00598807)
(-0.042674 -0.0218084 -2.08412e-19 0.0368371 3.85675e-20 0.00583685)
(-0.040989 -0.0203995 3.3726e-20 0.035355 -6.28586e-21 0.00563396)
(-0.0393995 -0.0189767 -2.67185e-19 0.0340387 -4.52341e-20 0.00536079)
(-0.0380429 -0.0176312 8.20658e-20 0.0330274 -1.89119e-19 0.00501541)
(-0.0367176 -0.0162548 4.63902e-19 0.0321377 2.50159e-19 0.00457995)
(-0.0357284 -0.014952 -5.03819e-19 0.0316812 -3.27641e-19 0.00404721)
(-0.0345933 -0.013634 7.92452e-19 0.0311949 2.34019e-20 0.00339845)
(-0.0340528 -0.0123785 -3.49936e-19 0.0314287 -1.29056e-19 0.0026241)
(-0.0330961 -0.0110844 1.12824e-18 0.0313933 5.14909e-19 0.00170274)
(-0.0330188 -0.00984056 -7.31943e-19 0.0323971 -3.35648e-19 0.000621675)
(-0.170281 -0.0577888 5.82311e-20 0.169969 -4.71993e-19 0.000311704)
(-0.164619 -0.0638334 1.51165e-20 0.163757 -5.61454e-19 0.000861775)
(-0.158413 -0.067572 2.04615e-19 0.157054 1.49967e-19 0.00135896)
(-0.151935 -0.069527 1.11963e-19 0.150125 -9.05415e-20 0.00180965)
(-0.145418 -0.0703135 -7.82453e-19 0.143198 -1.5982e-19 0.00221954)
(-0.138899 -0.0701516 -3.30625e-20 0.136306 -8.81044e-19 0.00259319)
(-0.132557 -0.0693925 -2.82899e-19 0.129622 -6.9645e-20 0.00293487)
(-0.126329 -0.0681289 -1.31808e-19 0.123081 -3.12698e-19 0.00324793)
(-0.12036 -0.0665661 5.7052e-19 0.116825 5.71285e-19 0.00353564)
(-0.114555 -0.0647436 5.57194e-19 0.110755 -6.17485e-20 0.00380062)
(-0.10903 -0.0627819 -6.24757e-21 0.104984 -5.57538e-20 0.00404545)
(-0.103686 -0.0606984 5.89545e-20 0.0994142 -8.45219e-19 0.00427222)
(-0.0986166 -0.0585635 -1.6399e-19 0.0941336 1.11222e-19 0.00448293)
(-0.0937333 -0.0563858 -7.06914e-20 0.0890541 -7.74909e-19 0.00467919)
(-0.089107 -0.0542049 1.33796e-19 0.0842447 -9.17049e-20 0.00486233)
(-0.0846648 -0.0520268 -3.36189e-20 0.0796314 -2.39088e-19 0.00503347)
(-0.0804604 -0.0498713 -1.28781e-19 0.0752672 1.78433e-19 0.00519322)
(-0.0764352 -0.0477454 -1.03804e-19 0.071093 -2.56828e-19 0.00534224)
(-0.0726291 -0.0456547 2.20577e-19 0.0671488 3.80695e-19 0.00548029)
(-0.0689968 -0.0436093 6.26241e-19 0.0633892 -1.94997e-19 0.00560764)
(-0.065567 -0.0416044 -2.64105e-19 0.0598441 1.38641e-19 0.00572292)
(-0.0623061 -0.0396541 1.46899e-19 0.05648 -1.52062e-20 0.00582613)
(-0.0592332 -0.0377444 -3.13548e-19 0.0533187 -1.96625e-19 0.00591453)