/*--------------------------------*- C++ -*----------------------------------*\
| =========                 |                                                 |
| \\      /  F ield         | foam-extend: Open Source CFD                    |
|  \\    /   O peration     | Version:  3.0                                   |
|   \\  /    A nd           | Web:         http://www.extend-project.de       |
|    \\/     M anipulation  |                                                 |
\*---------------------------------------------------------------------------*/
FoamFile
{
    version     2.0;
    format      ascii;
    class       volVectorField;
    location    "79";
    object      u;
}
// * * * * * * * * * * * * * * * * * * * * * * * * * * * * * * * * * * * * * //

dimensions      [0 0 0 0 0 0 0];

internalField   nonuniform List<vector> 
7680
(
(0.145542 -0.0173359 4.69368e-17)
(0.126339 -0.0118972 6.66164e-17)
(0.357598 -0.00901646 -7.11392e-17)
(0.318856 -0.00429093 6.00751e-17)
(0.507864 -0.00269991 -5.16098e-17)
(0.461866 0.00152889 4.0273e-17)
(0.617997 0.00250285 -3.08678e-17)
(0.570123 0.00623002 2.78641e-18)
(0.701025 0.00697147 -3.7394e-17)
(0.65334 0.0102013 -2.5254e-18)
(0.765072 0.0109176 -4.48889e-17)
(0.718135 0.0136999 4.76634e-17)
(0.815374 0.0144829 -6.15535e-17)
(0.769135 0.016881 5.54768e-17)
(0.855458 0.0177672 -3.48174e-17)
(0.809648 0.0198422 6.84568e-17)
(0.887781 0.0208435 -5.5104e-17)
(0.842073 0.0226452 9.08261e-17)
(0.914107 0.0237641 -6.78002e-17)
(0.868169 0.0253302 8.67073e-17)
(0.935741 0.0265628 -7.85379e-17)
(0.889247 0.027929 8.95925e-17)
(0.953674 0.0292534 -7.19986e-17)
(0.906298 0.0304694 9.32776e-17)
(0.968666 0.0318192 -6.57985e-17)
(0.920115 0.0329751 6.89956e-17)
(0.9813 0.0341957 -3.66705e-17)
(0.931377 0.0354719 4.80477e-17)
(0.992025 0.0362604 -3.03433e-17)
(0.94067 0.0380013 2.77672e-17)
(1.0012 0.0378808 -1.45987e-17)
(0.948547 0.0405794 1.65539e-17)
(1.009 0.039013 -1.27915e-18)
(0.955655 0.0431453 2.90641e-18)
(1.01529 0.0397453 2.61565e-17)
(0.962848 0.0458373 -1.60562e-17)
(1.01943 0.0405939 4.44104e-17)
(0.971609 0.0490524 -3.06693e-17)
(1.01951 0.0431149 4.29021e-17)
(0.984382 0.0727379 -2.15466e-17)
(0.149219 -0.0803791 -2.39984e-17)
(0.1295 -0.0670922 -6.61357e-17)
(0.360555 -0.0597639 1.02964e-16)
(0.321293 -0.0471604 -5.3147e-17)
(0.510332 -0.0437288 3.65416e-17)
(0.463842 -0.0323993 -3.63374e-18)
(0.620096 -0.030876 3.5604e-17)
(0.571781 -0.0210924 3.42627e-17)
(0.702838 -0.0203483 5.78381e-17)
(0.654761 -0.0121276 5.28413e-17)
(0.766649 -0.0115686 3.15917e-17)
(0.719365 -0.00474535 -1.30482e-17)
(0.816753 -0.00411054 3.28428e-17)
(0.770203 0.00152477 -2.50139e-17)
(0.856655 0.0023413 -1.88186e-17)
(0.810566 0.00699254 -6.16185e-17)
(0.888791 0.00803037 5.51096e-17)
(0.842831 0.0118641 -1.22635e-16)
(0.914905 0.0131403 9.50143e-17)
(0.868746 0.0162805 -1.18916e-16)
(0.936285 0.0178062 8.07707e-17)
(0.889608 0.020346 -1.01451e-16)
(0.953909 0.0221178 5.7657e-17)
(0.906398 0.0241421 -1.06075e-16)
(0.96852 0.0261155 3.7166e-17)
(0.919895 0.0277444 -5.51547e-17)
(0.98066 0.0297778 -1.71492e-17)
(0.930737 0.0312577 -2.0954e-17)
(0.990727 0.0329964 -3.31745e-17)
(0.939447 0.0348642 1.34794e-17)
(0.999034 0.0355764 -3.47587e-17)
(0.946522 0.0388662 2.04196e-17)
(1.00578 0.0372572 -2.90332e-17)
(0.952633 0.0437696 6.46481e-18)
(1.01104 0.0375345 -3.16899e-17)
(0.958841 0.0506532 -1.35037e-18)
(1.01488 0.0352088 -5.70967e-18)
(0.966872 0.0611905 -2.98274e-18)
(1.0171 0.0293371 -1.63023e-17)
(0.976085 0.0931705 1.32839e-17)
(0.157014 -0.143289 -1.06609e-17)
(0.136057 -0.120547 4.37647e-17)
(0.366426 -0.108969 -1.90485e-16)
(0.326079 -0.0882185 1.14655e-16)
(0.514707 -0.0831419 -9.94527e-17)
(0.467295 -0.0648343 1.42073e-17)
(0.623293 -0.0629106 -1.15898e-16)
(0.574217 -0.0473073 8.47952e-18)
(0.705092 -0.0466581 -1.33983e-16)
(0.656406 -0.0336996 -5.13914e-17)
(0.768131 -0.0333488 -7.07533e-17)
(0.720374 -0.0227538 2.70993e-17)
(0.817599 -0.0222564 -3.94741e-17)
(0.770693 -0.0136674 2.70577e-17)
(0.856977 -0.0128397 4.96442e-17)
(0.810628 -0.00591583 9.13379e-17)
(0.888686 -0.00468979 -6.4728e-17)
(0.842545 0.000851439 1.70535e-16)
(0.914464 0.0025019 -1.49662e-16)
(0.868184 0.00688037 1.57444e-16)
(0.935595 0.00896608 -1.08536e-16)
(0.888834 0.0123561 1.64364e-16)
(0.953057 0.0148667 -1.12049e-16)
(0.905469 0.0174251 1.81058e-16)
(0.96759 0.0202982 -6.76549e-17)
(0.918869 0.0222112 1.31749e-16)
(0.97976 0.0252648 -1.98674e-17)
(0.929681 0.0268431 7.84289e-17)
(0.990024 0.0296636 1.57712e-17)
(0.938453 0.031468 1.80292e-17)
(0.99874 0.0333182 1.46119e-17)
(0.945722 0.0361974 1.70295e-17)
(1.00606 0.0360124 2.11085e-17)
(0.952219 0.041027 1.51747e-18)
(1.01172 0.037335 3.19461e-17)
(0.959168 0.046177 -1.73337e-17)
(1.01429 0.0366981 3.87005e-17)
(0.969723 0.0525654 -2.27754e-17)
(1.00947 0.0369164 3.97002e-17)
(0.987301 0.0786747 -1.47788e-17)
(0.168902 -0.205291 7.65492e-17)
(0.146324 -0.174802 -6.28214e-17)
(0.375934 -0.158855 3.69745e-16)
(0.334015 -0.130324 -2.25878e-16)
(0.522438 -0.123442 1.68037e-16)
(0.473603 -0.0981455 1.55675e-17)
(0.629655 -0.0956795 1.48084e-16)
(0.579348 -0.0741267 1.2775e-17)
(0.710373 -0.073471 9.16805e-17)
(0.660652 -0.0556079 4.44178e-17)
(0.77255 -0.0554087 1.31379e-16)
(0.723931 -0.0408448 -6.20143e-17)
(0.821313 -0.0404887 4.45107e-17)
(0.773694 -0.028724 -3.44926e-17)
(0.8601 -0.0279577 -6.09387e-17)
(0.813161 -0.0185133 -5.17999e-17)
(0.891294 -0.0172413 2.61845e-17)
(0.844668 -0.00972275 -1.80055e-16)
(0.916599 -0.0079042 1.85183e-16)
(0.869926 -0.00200978 -1.88323e-16)
(0.937276 0.000380935 1.08213e-16)
(0.890204 0.00487805 -1.69859e-16)
(0.954285 0.00785245 8.35933e-17)
(0.906464 0.0111366 -1.17705e-16)
(0.968352 0.0146623 -3.25948e-17)
(0.919459 0.0169369 -6.35707e-17)
(0.98002 0.0208575 -7.83198e-17)
(0.92978 0.0224704 -4.53696e-19)
(0.989715 0.0263421 -1.12016e-16)
(0.937869 0.0280086 5.12873e-17)
(0.997756 0.0308631 -7.3787e-17)
(0.944134 0.0339881 2.57693e-17)
(1.00426 0.0339696 -1.07865e-16)
(0.949215 0.041294 1.25908e-16)
(1.00902 0.034532 -1.24458e-16)
(0.954492 0.0524468 4.81075e-17)
(1.01141 0.0288016 5.51818e-19)
(0.962936 0.0724114 -4.55758e-17)
(1.01124 0.0135383 2.83833e-17)
(0.972855 0.107233 -8.60598e-17)
(0.184807 -0.266627 -1.50732e-16)
(0.159879 -0.226954 -4.7984e-17)
(0.3882 -0.206877 -5.6348e-16)
(0.344193 -0.170431 3.19927e-16)
(0.531972 -0.161951 -2.25519e-16)
(0.481335 -0.129866 -6.03903e-17)
(0.63707 -0.127016 -2.34064e-16)
(0.585259 -0.0997926 4.75665e-17)
(0.716109 -0.0992376 -9.43947e-17)
(0.665167 -0.0767597 -1.05373e-17)
(0.77693 -0.0767708 -1.62434e-16)
(0.727345 -0.0585319 4.85618e-17)
(0.824589 -0.0583194 1.54124e-17)
(0.776217 -0.0436745 -2.60841e-18)
(0.862467 -0.0429102 1.06035e-16)
(0.814952 -0.0312445 -4.80992e-17)
(0.892907 -0.0298055 6.18308e-17)
(0.845851 -0.0206073 5.54965e-17)
(0.917588 -0.0184449 -6.47701e-17)
(0.870604 -0.0113152 8.77781e-17)
(0.937754 -0.00840266 -1.55623e-17)
(0.890458 -0.00303338 1.80904e-16)
(0.954345 0.000637377 -9.13276e-17)
(0.906358 0.00449928 1.0689e-16)
(0.968078 0.00888793 4.73441e-17)
(0.919043 0.0115053 1.00539e-16)
(0.979514 0.0164415 2.82733e-17)
(0.929085 0.0182151 4.04266e-17)
(0.989125 0.0232516 1.31318e-16)
(0.936897 0.024891 -2.4386e-17)
(0.997297 0.0291316 8.16627e-17)
(0.942832 0.0317974 9.75813e-18)
(1.00423 0.0336138 1.50077e-17)
(0.947413 0.0392331 1.07649e-17)
(1.00977 0.0351888 5.74565e-17)
(0.952006 0.0483573 -4.56055e-17)
(1.01183 0.0307026 4.55744e-17)
(0.961567 0.0599532 -3.78665e-17)
(1.00487 0.0275014 5.65437e-17)
(0.975729 0.0822439 6.7066e-17)
(0.2047 -0.326526 2.50721e-16)
(0.177067 -0.279352 2.34704e-16)
(0.40409 -0.255049 6.3198e-16)
(0.357472 -0.211078 -1.96887e-16)
(0.544823 -0.200847 2.12107e-16)
(0.49185 -0.162012 1.15839e-16)
(0.647567 -0.158633 2.85381e-16)
(0.593758 -0.125669 -8.13818e-17)
(0.724752 -0.1251 6.04451e-17)
(0.672148 -0.0978911 -5.09807e-18)
(0.784097 -0.0980418 3.07912e-16)
(0.733148 -0.0759758 -1.5076e-16)
(0.83056 -0.0758915 1.26574e-16)
(0.78108 -0.0581866 -1.59283e-16)
(0.867452 -0.0574712 -9.34848e-18)
(0.819042 -0.0433804 -1.19501e-16)
(0.897061 -0.0418843 1.58652e-16)
(0.849288 -0.0307897 -1.69598e-16)
(0.921023 -0.0284499 1.50385e-16)
(0.873473 -0.0198757 -1.02349e-16)
(0.940551 -0.016651 2.41482e-17)
(0.89282 -0.0102418 -1.71994e-16)
(0.95657 -0.00609834 2.6021e-17)
(0.908261 -0.00158181 1.71092e-17)
(0.969791 0.00348138 -1.76555e-16)
(0.920512 0.00636379 4.0234e-17)
(0.980784 0.0122318 -1.5223e-16)
(0.930101 0.0138611 3.7463e-17)
(0.990066 0.0201342 -2.29413e-16)
(0.937371 0.0212495 5.3191e-17)
(0.9981 0.0269887 -2.28954e-16)
(0.942568 0.0290688 1.15202e-16)
(1.00518 0.0322443 -1.97718e-16)
(0.945907 0.0386577 1.35419e-16)
(1.01135 0.0336749 -2.30739e-16)
(0.947803 0.054933 9.27291e-17)
(1.01554 0.0231728 -1.35592e-17)
(0.951632 0.0854689 -8.0482e-17)
(1.01337 0.00126537 1.66293e-17)
(0.962074 0.109231 -1.51085e-16)
(0.22845 -0.38524 -3.07467e-16)
(0.197373 -0.329296 -4.0436e-16)
(0.422559 -0.301055 -5.61047e-16)
(0.372868 -0.249526 3.14815e-18)
(0.559364 -0.237777 -2.2325e-16)
(0.503727 -0.192453 3.39783e-17)
(0.659079 -0.188715 -3.44229e-16)
(0.603038 -0.150329 1.68601e-16)
(0.733875 -0.149865 -4.6461e-17)
(0.679453 -0.118244 -7.31077e-17)
(0.791302 -0.118605 -2.83973e-16)
(0.738906 -0.0930258 7.55042e-17)
(0.836207 -0.0930895 -2.09718e-17)
(0.785591 -0.0726314 1.81735e-16)
(0.871817 -0.0719308 3.66296e-17)
(0.822527 -0.0557163 -4.80395e-18)
(0.900356 -0.0540765 -3.04747e-17)
(0.851915 -0.0413739 -1.50442e-17)
(0.923415 -0.0387245 -5.42513e-17)
(0.875369 -0.028964 -1.36384e-17)
(0.942171 -0.0252606 -1.49019e-17)
(0.894083 -0.0180119 7.41392e-17)
(0.957516 -0.0132179 3.38355e-17)
(0.90896 -0.00815395 -7.48015e-18)
(0.970136 -0.0022585 9.3108e-17)
(0.920688 0.000910173 -3.69471e-17)
(0.980598 0.00782227 1.37755e-16)
(0.929749 0.00946709 -4.06788e-17)
(0.989426 0.0170892 2.60084e-16)
(0.936406 0.0178215 -4.06273e-17)
(0.997114 0.0254581 3.17431e-16)
(0.940783 0.0263143 -8.17549e-17)
(1.00416 0.0324541 1.3676e-16)
(0.942888 0.0356734 -3.8706e-17)
(1.01159 0.0357305 1.77737e-16)
(0.942294 0.0492742 -9.78963e-17)
(1.0215 0.0286873 1.272e-16)
(0.939396 0.069368 -8.34696e-17)
(1.03233 0.0235073 2.0467e-16)
(0.93707 0.0771773 2.3744e-17)
(0.255996 -0.442009 4.7203e-16)
(0.221188 -0.378953 3.38542e-16)
(0.444537 -0.346701 6.33054e-16)
(0.391257 -0.288038 2.88292e-16)
(0.577095 -0.274623 1.79264e-16)
(0.518261 -0.222906 -2.15941e-16)
(0.673519 -0.21866 3.35407e-16)
(0.614752 -0.174839 -2.43359e-16)
(0.745722 -0.174355 1.08317e-16)
(0.689042 -0.138255 -1.35487e-17)
(0.801082 -0.138741 3.41675e-16)
(0.746846 -0.10954 -2.84222e-16)
(0.84432 -0.109717 1.7618e-16)
(0.792219 -0.0863641 -3.53652e-16)
(0.878564 -0.0856985 7.53507e-17)
(0.828087 -0.0671911 -9.70809e-17)
(0.905967 -0.0654831 1.27689e-16)
(0.856585 -0.0509891 -1.12543e-16)
(0.928067 -0.0481544 1.1724e-16)
(0.879288 -0.0370322 2.78688e-17)
(0.946004 -0.0330114 -4.24158e-17)
(0.897362 -0.0247877 1.38752e-17)
(0.960651 -0.0195158 -9.2554e-17)
(0.911697 -0.0138492 1.10217e-16)
(0.972692 -0.00726421 -1.34223e-16)
(0.922967 -0.00388717 5.1597e-17)
(0.98272 0.00401566 -1.82713e-16)
(0.931633 0.00540191 1.48752e-16)
(0.991347 0.0144608 -4.63955e-16)
(0.937954 0.0143466 9.51809e-17)
(0.999204 0.0240719 -3.54571e-16)
(0.942029 0.0233945 1.29601e-16)
(1.00697 0.0325002 -1.3645e-16)
(0.943577 0.033615 5.05005e-17)
(1.01587 0.0375349 -1.71593e-16)
(0.940886 0.0494197 9.82766e-17)
(1.02868 0.0309756 -3.01874e-17)
(0.931891 0.0768606 -7.65084e-17)
(1.04301 0.0158877 4.29132e-17)
(0.925721 0.0980621 -3.46659e-16)
(0.287189 -0.497096 -5.39575e-16)
(0.247888 -0.425822 -4.20296e-16)
(0.468899 -0.389891 -6.48445e-16)
(0.411604 -0.324151 -7.08906e-16)
(0.596397 -0.309324 -2.91296e-16)
(0.534075 -0.251527 3.82414e-16)
(0.688929 -0.246955 -3.1486e-16)
(0.627236 -0.198053 3.01729e-16)
(0.758071 -0.197676 -4.1844e-17)
(0.699004 -0.157445 -1.33861e-16)
(0.810984 -0.158137 -1.68262e-16)
(0.754841 -0.125648 1.85642e-16)
(0.852237 -0.125972 -7.4311e-17)
(0.798635 -0.100046 1.97922e-16)
(0.884849 -0.0994052 1.88163e-16)
(0.833205 -0.0789171 -1.83643e-16)
(0.910887 -0.077088 2.07234e-16)
(0.860613 -0.0611005 -1.83044e-16)
(0.931824 -0.0579918 1.74066e-16)
(0.882379 -0.0457771 -1.27663e-16)
(0.948749 -0.0413256 4.11401e-17)
(0.899631 -0.0323465 -6.64244e-18)
(0.962488 -0.0264792 -1.45845e-17)
(0.913225 -0.0203571 -3.60786e-17)
(0.973686 -0.0129896 5.31527e-17)
(0.923804 -0.00945894 5.74197e-17)
(0.982912 -0.000521725 -3.17101e-17)
(0.931784 0.000632285 2.79481e-16)
(0.990744 0.0111501 7.02122e-17)
(0.937357 0.0101565 1.86009e-16)
(0.997777 0.0221605 1.46118e-16)
(0.940536 0.0193064 -7.85349e-17)
(1.00474 0.0323932 1.6191e-16)
(0.94094 0.0285233 -1.35596e-16)
(1.01335 0.0402133 1.86488e-16)
(0.93647 0.0408195 -1.27752e-16)
(1.02822 0.0394397 1.5674e-16)
(0.92269 0.0598695 -2.06305e-16)
(1.05104 0.0372044 3.68182e-16)
(0.90218 0.0715999 -4.28187e-17)
(0.321907 -0.549765 8.54115e-16)
(0.277921 -0.471903 5.25808e-16)
(0.496579 -0.432244 7.73051e-16)
(0.434783 -0.359887 1.0413e-15)
(0.618697 -0.343507 4.87593e-16)
(0.552374 -0.279785 -3.37607e-16)
(0.707056 -0.274733 2.0749e-16)
(0.64196 -0.220796 -3.25606e-16)
(0.772911 -0.220394 -8.70362e-17)
(0.711031 -0.176013 3.63478e-16)
(0.823202 -0.176814 1.21911e-16)
(0.764774 -0.140969 -5.57191e-17)
(0.86234 -0.14139 1.666e-16)
(0.806902 -0.112781 -2.59966e-16)
(0.893224 -0.112162 -4.17121e-17)
(0.840117 -0.0895486 1.07913e-16)
(0.917832 -0.0876426 -1.81251e-16)
(0.866404 -0.0699923 8.75033e-17)
(0.937572 -0.0666941 -1.46121e-16)
(0.887231 -0.0532129 1.65941e-16)
(0.953486 -0.0484433 -2.68559e-17)
(0.903696 -0.0385533 9.30822e-17)
(0.966368 -0.0322116 -3.48439e-17)
(0.916635 -0.0255204 1.36171e-16)
(0.976852 -0.0174695 -2.46259e-16)
(0.926676 -0.0137378 2.62188e-16)
(0.985518 -0.00380437 -2.47889e-16)
(0.93423 -0.00291457 2.50369e-17)
(0.99298 0.00910848 -3.81194e-16)
(0.939504 0.00718423 1.73313e-16)
(0.999878 0.0215379 -3.47145e-16)
(0.942506 0.016764 2.79397e-16)
(1.00695 0.0335768 -4.04565e-16)
(0.942742 0.0262104 3.98224e-16)
(1.01575 0.0440956 -4.12492e-16)
(0.93765 0.0379503 2.39018e-16)
(1.03081 0.0477491 -1.87489e-16)
(0.921226 0.0557124 1.99371e-17)
(1.05457 0.0469027 -2.36218e-17)
(0.894491 0.0772173 -4.09679e-16)
(0.360007 -0.600283 -1.26132e-15)
(0.31055 -0.51488 -8.11942e-16)
(0.526413 -0.471866 -7.61981e-16)
(0.459726 -0.39303 -1.21002e-15)
(0.642424 -0.375369 -5.96282e-16)
(0.571847 -0.306079 1.27654e-16)
(0.726093 -0.300739 -2.43119e-16)
(0.657425 -0.24215 4.26251e-16)
(0.788266 -0.241855 1.33638e-16)
(0.723471 -0.193694 -4.05982e-16)
(0.83562 -0.194691 -2.40166e-16)
(0.774861 -0.155842 -2.03066e-16)
(0.872383 -0.156405 -7.83125e-17)
(0.815108 -0.125451 -3.64795e-17)
(0.901315 -0.124863 1.25796e-16)
(0.84678 -0.100452 -2.23298e-16)
(0.924292 -0.0984444 3.00754e-16)
(0.871772 -0.0794513 -2.15558e-16)
(0.942641 -0.0759127 3.8814e-16)
(0.891487 -0.0614683 -4.25507e-16)
(0.957336 -0.0563159 1.54008e-16)
(0.906974 -0.0457897 -2.06345e-16)
(0.969117 -0.038914 4.16986e-17)
(0.919039 -0.0318896 -4.06387e-17)
(0.978571 -0.023126 -6.60798e-17)
(0.92828 -0.0193862 1.31201e-16)
(0.986234 -0.00848344 -1.68163e-16)
(0.935084 -0.00802205 3.70845e-16)
(0.992658 0.00542331 -7.62872e-17)
(0.939645 0.00234318 6.53265e-18)
(0.998416 0.0190056 1.38267e-16)
(0.941999 0.011706 -4.46849e-17)
(1.00422 0.0326624 1.19304e-16)
(0.941725 0.0199715 -8.45072e-17)
(1.01163 0.0461867 1.62996e-16)
(0.936386 0.0282817 -8.81636e-17)
(1.02531 0.0568801 2.50483e-16)
(0.919139 0.0388186 -2.05395e-16)
(1.04994 0.0674567 3.73714e-16)
(0.884315 0.058499 2.75195e-18)
(0.4013 -0.647951 1.1982e-15)
(0.346285 -0.55661 8.52083e-16)
(0.559318 -0.510218 7.34443e-16)
(0.487295 -0.425397 1.12168e-15)
(0.668907 -0.406323 4.49784e-16)
(0.593595 -0.331678 3.7838e-16)
(0.747596 -0.325896 8.70908e-17)
(0.674905 -0.262757 -1.23195e-16)
(0.805843 -0.262432 -2.4693e-16)
(0.737727 -0.210521 4.83884e-16)
(0.850064 -0.211611 1.18233e-16)
(0.786612 -0.169728 5.50289e-16)
(0.884296 -0.170373 4.3465e-17)
(0.824862 -0.136992 2.45201e-16)
(0.911161 -0.136416 4.78304e-17)
(0.854908 -0.11008 3.04115e-16)
(0.932425 -0.107993 -3.24905e-16)
(0.878552 -0.0874899 2.86275e-16)
(0.949338 -0.0837657 -3.46856e-16)
(0.897136 -0.068165 5.02323e-16)
(0.962816 -0.0627059 -1.91606e-16)
(0.911669 -0.0513383 1.93259e-16)
(0.97355 -0.0440105 -3.66528e-17)
(0.922924 -0.036443 2.08502e-16)
(0.982095 -0.0270375 -2.1994e-16)
(0.931482 -0.0230717 1.5933e-16)
(0.988964 -0.0112463 -1.75811e-16)
(0.937737 -0.0109653 -3.97781e-17)
(0.99468 0.00385924 -1.94239e-16)
(0.941903 -1.65178e-06 1.56772e-16)
(0.999736 0.0188001 -2.41156e-16)
(0.944015 0.00977432 5.05721e-17)
(1.00465 0.0341509 -1.2717e-16)
(0.943659 0.0180623 2.43364e-16)
(1.01053 0.0502592 -4.29633e-16)
(0.938661 0.024972 2.4153e-16)
(1.0211 0.0661161 -2.60728e-16)
(0.922531 0.0313138 9.02683e-17)
(1.04178 0.0823875 -2.3456e-16)
(0.884914 0.0555259 -2.70973e-16)
(0.445649 -0.693037 -7.14879e-16)
(0.384278 -0.594948 -6.41199e-16)
(0.594106 -0.545578 -7.59761e-16)
(0.516399 -0.454986 -8.32723e-16)
(0.696644 -0.434784 -6.79714e-16)
(0.616385 -0.355179 -5.64915e-16)
(0.769922 -0.349151 -1.54867e-16)
(0.693075 -0.281869 5.32826e-17)
(0.823927 -0.281648 -1.14237e-16)
(0.752419 -0.226375 -1.05033e-16)
(0.864771 -0.227645 -2.52617e-16)
(0.798607 -0.183094 -6.62191e-16)
(0.896279 -0.183871 -1.84565e-16)
(0.834708 -0.148413 -5.5074e-16)
(0.92091 -0.14787 -2.2842e-17)
(0.862997 -0.119952 -6.47816e-16)
(0.940313 -0.117777 4.88598e-16)
(0.885172 -0.0961084 -6.42068e-16)
(0.95564 -0.0921718 5.11905e-16)
(0.902501 -0.0757584 -7.57364e-16)
(0.967732 -0.0699581 3.34128e-16)
(0.915942 -0.0580885 -3.03351e-16)
(0.977219 -0.0502827 6.53656e-17)
(0.926233 -0.0425061 -6.59217e-17)
(0.984604 -0.0324617 -1.20914e-17)
(0.93393 -0.0286014 2.74396e-16)
(0.990336 -0.0159099 -1.36987e-16)
(0.93941 -0.0161382 2.48505e-16)
(0.994851 -5.78752e-05 1.2979e-16)
(0.942918 -0.00504913 -5.63249e-17)
(0.998544 0.0157481 2.45699e-16)
(0.944574 0.00452666 -6.28493e-17)
(1.00185 0.0323777 1.35277e-16)
(0.944163 0.0120463 -2.04082e-16)
(1.00563 0.0510396 4.9388e-16)
(0.94006 0.0166672 -4.31703e-16)
(1.01264 0.073117 4.72389e-16)
(0.926444 0.0177994 -3.63582e-16)
(1.0288 0.0989224 4.67902e-16)
(0.887174 0.0428054 -2.31916e-18)
(0.492805 -0.734887 6.14762e-16)
(0.425099 -0.631626 6.17173e-16)
(0.631671 -0.579288 6.82497e-16)
(0.547884 -0.483449 7.51111e-16)
(0.726857 -0.461997 8.24457e-16)
(0.641207 -0.377698 5.92785e-16)
(0.794432 -0.371274 2.20548e-16)
(0.71301 -0.300005 3.09808e-16)
(0.843941 -0.299752 1.35972e-16)
(0.768659 -0.241191 1.59911e-16)
(0.881193 -0.24254 2.58489e-16)
(0.811973 -0.195329 6.74828e-16)
(0.909797 -0.196174 4.68834e-16)
(0.845778 -0.158587 7.01346e-16)
(0.932049 -0.158051 4.86413e-17)
(0.872192 -0.128441 8.14663e-16)
(0.949477 -0.126192 -5.79266e-16)
(0.892807 -0.10319 8.48806e-16)
(0.96314 -0.0990863 -4.01471e-16)
(0.908816 -0.0816431 6.3428e-16)
(0.973803 -0.0755687 -2.31995e-16)
(0.921124 -0.0629361 2.34335e-16)
(0.982036 -0.0547319 -1.42902e-16)
(0.930428 -0.0464391 7.43294e-17)
(0.988292 -0.0358423 1.01966e-17)
(0.937262 -0.0317161 -3.57703e-16)
(0.992976 -0.0182584 2.33954e-16)
(0.942021 -0.0185232 -3.7736e-16)
(0.996448 -0.00135418 3.82236e-17)
(0.944987 -0.00680265 -2.5238e-16)
(0.998966 0.0155811 2.44535e-17)
(0.946309 0.00325846 -2.3426e-16)
(1.00071 0.0335057 6.52299e-17)
(0.945879 0.0109268 2.74982e-17)
(1.00201 0.054012 -2.48089e-16)
(0.942737 0.0145183 3.13759e-16)
(1.00435 0.0799269 -3.26964e-16)
(0.932666 0.0121438 2.22988e-16)
(1.01351 0.110702 -1.881e-16)
(0.895164 0.0392421 -2.45155e-16)
(0.54264 -0.773773 -1.08476e-15)
(0.4678 -0.664658 -4.15304e-16)
(0.670808 -0.60977 -8.55452e-16)
(0.580643 -0.508963 -5.95098e-16)
(0.758116 -0.486555 -8.5353e-16)
(0.666914 -0.39799 -5.19263e-16)
(0.819651 -0.391365 -5.09138e-16)
(0.733563 -0.316535 -2.16226e-16)
(0.864429 -0.316379 -7.49145e-16)
(0.785338 -0.254931 1.6272e-16)
(0.89792 -0.25644 -5.54409e-16)
(0.825654 -0.206942 -4.70029e-16)
(0.923495 -0.207903 -8.58709e-16)
(0.857078 -0.168543 -7.20295e-16)
(0.943274 -0.168034 -1.97845e-16)
(0.881554 -0.137083 -6.00021e-16)
(0.958645 -0.134757 5.4608e-16)
(0.900557 -0.110781 -8.8171e-16)
(0.970561 -0.106487 6.29697e-16)
(0.9152 -0.0883881 -8.05272e-16)
(0.979708 -0.0820065 4.76418e-16)
(0.926332 -0.0690012 -4.15746e-16)
(0.98659 -0.0603665 3.07793e-16)
(0.934613 -0.0519666 -1.54174e-16)
(0.991599 -0.0407989 1.66449e-16)
(0.940546 -0.0368402 1.00979e-16)
(0.995064 -0.0226325 1.04288e-16)
(0.944511 -0.0233825 4.71139e-17)
(0.99724 -0.00519377 3.01411e-16)
(0.946823 -0.0115429 -3.4247e-17)
(0.998277 0.0123171 3.08904e-16)
(0.947727 -0.00150111 -1.5652e-16)
(0.998244 0.0310633 3.7011e-16)
(0.947343 0.00597333 -2.90699e-16)
(0.997111 0.0531997 3.81656e-16)
(0.945435 0.00872257 -3.70796e-16)
(0.995074 0.0830467 3.28442e-16)
(0.939348 0.00394583 -3.32337e-16)
(0.997294 0.119725 2.36905e-16)
(0.904578 0.0324221 -1.35429e-16)
(0.594847 -0.809087 1.26981e-15)
(0.513006 -0.69567 4.48528e-16)
(0.71239 -0.638274 7.31704e-16)
(0.615504 -0.53305 7.96205e-16)
(0.791543 -0.509579 6.67311e-16)
(0.694386 -0.417061 7.61903e-16)
(0.846751 -0.410094 3.78416e-16)
(0.755614 -0.331908 4.35895e-16)
(0.886541 -0.33172 6.48753e-16)
(0.803288 -0.267503 3.20544e-17)
(0.916044 -0.269076 3.62549e-16)
(0.84041 -0.217337 6.02682e-16)
(0.93839 -0.218356 8.30355e-16)
(0.869278 -0.177199 8.34469e-16)
(0.955518 -0.1767 2.56155e-16)
(0.891661 -0.144318 3.799e-16)
(0.96868 -0.141934 -5.21102e-16)
(0.908914 -0.116824 7.3886e-16)
(0.978725 -0.112396 -5.49132e-16)
(0.922065 -0.0934112 4.1635e-16)
(0.986248 -0.0868116 -8.3431e-17)
(0.9319 -0.0731339 8.11048e-17)
(0.991683 -0.0641878 4.40142e-17)
(0.939026 -0.0553051 -1.70581e-16)
(0.995367 -0.0437218 1.16518e-16)
(0.943925 -0.0394557 -4.39356e-16)
(0.997572 -0.0247036 2.24387e-16)
(0.946997 -0.0253245 -4.61257e-16)
(0.998475 -0.00643412 5.62059e-17)
(0.948604 -0.0128481 -3.13634e-16)
(0.998086 0.0118973 7.08631e-17)
(0.949049 -0.00222229 -2.45475e-16)
(0.996267 0.0314488 5.41362e-17)
(0.948609 0.00569085 -3.55471e-16)
(0.99257 0.0544802 1.84933e-16)
(0.947793 0.00833735 -7.06662e-17)
(0.985997 0.0859372 -1.05239e-16)
(0.945859 0.00231558 2.89533e-16)
(0.980853 0.124557 -2.24419e-16)
(0.915514 0.0320997 2.81638e-16)
(0.64931 -0.841112 -1.32936e-15)
(0.559674 -0.72282 -1.69484e-16)
(0.755195 -0.663347 -1.10071e-15)
(0.651346 -0.554041 -5.20524e-16)
(0.825778 -0.529802 -1.05412e-15)
(0.722556 -0.433783 -4.1139e-16)
(0.874418 -0.426666 -4.58029e-16)
(0.778181 -0.345558 -1.26256e-16)
(0.909064 -0.34546 -9.77272e-16)
(0.821649 -0.278879 3.04498e-16)
(0.934483 -0.28059 -5.16623e-16)
(0.855523 -0.226981 -5.16941e-16)
(0.953547 -0.228098 -7.18451e-16)
(0.881817 -0.185498 -9.78315e-16)
(0.968 -0.185019 -2.61117e-16)
(0.902112 -0.151554 -3.78835e-16)
(0.978946 -0.149098 5.01316e-16)
(0.917638 -0.123216 -6.58991e-16)
(0.987117 -0.118616 4.60393e-16)
(0.929336 -0.099131 -4.50072e-16)
(0.993023 -0.0922554 3.32255e-16)
(0.937931 -0.0783184 -3.61642e-16)
(0.997029 -0.0689871 1.86233e-16)
(0.943986 -0.0600682 -1.2971e-16)
(0.999406 -0.0479796 3.05142e-16)
(0.947943 -0.0438947 -7.18074e-18)
(1.00035 -0.0285091 2.62837e-16)
(0.950184 -0.029525 4.62783e-17)
(0.999921 -0.00986083 4.50011e-16)
(0.951087 -0.0168703 -2.02417e-16)
(0.998046 0.00880319 5.55664e-16)
(0.951023 -0.00606411 -3.22838e-16)
(0.994478 0.0287229 5.44231e-16)
(0.950451 0.0021297 -1.88825e-16)
(0.988477 0.0523548 4.76246e-16)
(0.950506 0.00516677 -6.41395e-16)
(0.978005 0.0850767 6.29231e-16)
(0.952127 -0.000503881 -6.52514e-16)
(0.966229 0.125443 3.71827e-16)
(0.926222 0.0307572 -3.48663e-16)
(0.705672 -0.869287 1.35819e-15)
(0.608489 -0.747649 5.09739e-16)
(0.800084 -0.686171 6.91688e-16)
(0.688986 -0.573356 9.11846e-16)
(0.861848 -0.548259 1.06339e-15)
(0.75221 -0.449096 4.76743e-16)
(0.903647 -0.441697 1.75466e-16)
(0.801974 -0.357921 2.50903e-16)
(0.932901 -0.357792 7.42624e-16)
(0.841007 -0.28901 -1.86314e-16)
(0.954006 -0.29077 4.54198e-16)
(0.871424 -0.235379 5.17762e-16)
(0.969573 -0.236545 6.32155e-16)
(0.894949 -0.192513 6.87887e-16)
(0.981152 -0.192049 4.63624e-16)
(0.912972 -0.157438 2.36764e-16)
(0.989696 -0.15495 -2.70071e-16)
(0.92659 -0.128152 3.3282e-16)
(0.995821 -0.123466 -1.13853e-16)
(0.936656 -0.103252 1.08356e-16)
(0.999942 -0.0962338 2.0449e-17)
(0.943819 -0.0817256 -8.39733e-17)
(1.00235 -0.0721943 2.45747e-16)
(0.948589 -0.0628343 -4.55953e-16)
(1.00326 -0.0504946 2.01855e-16)
(0.951382 -0.0460694 -5.07838e-16)
(1.00281 -0.0303882 9.37875e-17)
(0.952595 -0.0311263 -4.11708e-16)
(1.00101 -0.0111575 -1.56333e-17)
(0.952643 -0.0178825 -2.69656e-16)
(0.997676 0.00801678 -2.14997e-16)
(0.951945 -0.00645161 -1.73665e-17)
(0.992458 0.0283008 -2.289e-16)
(0.951119 0.00241676 -1.97911e-16)
(0.984381 0.0519903 -4.59151e-17)
(0.95185 0.00623273 2.97019e-16)
(0.970641 0.0841959 -2.61401e-16)
(0.956567 0.001602 4.35179e-16)
(0.953227 0.123327 -3.7639e-16)
(0.935371 0.0337951 4.60617e-16)
(0.763826 -0.893906 -1.36677e-15)
(0.658318 -0.768444 -8.19835e-16)
(0.845813 -0.705396 -8.17031e-16)
(0.727288 -0.589453 -4.88478e-16)
(0.898458 -0.563788 -1.49615e-15)
(0.782349 -0.461951 -2.60098e-16)
(0.933269 -0.454455 -4.23872e-16)
(0.826154 -0.368448 -7.30566e-17)
(0.957053 -0.368401 -6.79476e-16)
(0.860717 -0.297815 1.33354e-16)
(0.973819 -0.299689 -2.13206e-16)
(0.887686 -0.242876 -7.33019e-16)
(0.985904 -0.24412 -3.16594e-16)
(0.908484 -0.198996 -6.13839e-16)
(0.99465 -0.198543 -1.90934e-16)
(0.924301 -0.163122 -3.45871e-16)
(1.00085 -0.160566 5.24466e-16)
(0.936104 -0.133204 -5.44895e-16)
(1.00501 -0.128365 4.98513e-16)
(0.944648 -0.107803 -6.02279e-16)
(1.00744 -0.100542 3.93751e-16)
(0.950518 -0.0858754 -2.44015e-16)
(1.00836 -0.0760084 1.31077e-16)
(0.95417 -0.0666626 5.77572e-17)
(1.00792 -0.0538871 2.78274e-16)
(0.955977 -0.0496338 1.44705e-16)
(1.00618 -0.033431 1.9659e-16)
(0.956305 -0.0344623 1.51429e-16)
(1.00306 -0.0139312 2.09106e-16)
(0.955566 -0.02099 1.7469e-16)
(0.998331 0.00540844 3.20987e-16)
(0.954194 -0.00925737 -7.91305e-17)
(0.991563 0.0257297 3.38803e-16)
(0.952895 0.000139134 1.12925e-16)
(0.981653 0.0492232 2.64024e-16)
(0.953708 0.00507529 -5.6213e-16)
(0.965329 0.0805759 6.17559e-16)
(0.960233 0.00267084 -5.8945e-16)
(0.943406 0.118214 4.41296e-16)
(0.942922 0.0359551 -5.27373e-16)
(0.823372 -0.914458 1.5654e-15)
(0.709906 -0.786677 1.28004e-15)
(0.893242 -0.722162 7.08756e-16)
(0.767063 -0.60368 5.09556e-16)
(0.936558 -0.577378 1.24887e-15)
(0.813678 -0.47326 2.18878e-16)
(0.964134 -0.465545 4.76887e-16)
(0.851287 -0.377605 2.05471e-16)
(0.982215 -0.377529 4.01546e-16)
(0.881159 -0.305347 -6.99737e-17)
(0.994418 -0.307256 1.25457e-16)
(0.904472 -0.24915 5.6183e-16)
(1.0028 -0.250434 3.82077e-16)
(0.922339 -0.204267 4.51094e-16)
(1.0085 -0.203839 3.74009e-17)
(0.935748 -0.167577 1.98563e-16)
(1.01216 -0.165019 -4.2404e-16)
(0.945526 -0.136975 2.69114e-16)
(1.01413 -0.132106 -1.05532e-16)
(0.952334 -0.110985 1.80219e-16)
(1.01466 -0.103666 6.15088e-18)
(0.956679 -0.0885391 -7.10153e-17)
(1.01388 -0.078591 1.66375e-16)
(0.958961 -0.0688565 -3.01261e-16)
(1.0119 -0.0559936 1.90221e-17)
(0.959524 -0.0513865 -4.59186e-16)
(1.00872 -0.0351149 1.55902e-16)
(0.958734 -0.0357707 -4.49577e-16)
(1.00422 -0.0152556 1.14268e-16)
(0.957011 -0.0218116 -4.5876e-16)
(0.99814 0.00435237 -1.09726e-16)
(0.954819 -0.00951465 -1.06643e-16)
(0.990035 0.024748 -2.87471e-16)
(0.952956 0.000603623 -1.99584e-16)
(0.978763 0.0477959 -3.09035e-16)
(0.953662 0.00676107 2.97315e-16)
(0.960907 0.0773114 -4.19898e-16)
(0.961221 0.00669782 3.69185e-16)
(0.936196 0.111784 -3.65884e-16)
(0.947113 0.0402071 6.48605e-16)
(0.884218 -0.931255 -1.66093e-15)
(0.762031 -0.800755 -1.24209e-15)
(0.9411 -0.735205 -9.42536e-16)
(0.807156 -0.6146 -1.30831e-16)
(0.974901 -0.587941 -1.12402e-15)
(0.845255 -0.48202 6.66096e-17)
(0.995187 -0.474265 -6.94608e-16)
(0.876647 -0.384822 -1.56053e-16)
(1.00756 -0.384818 -2.04636e-16)
(0.901859 -0.311425 1.35204e-16)
(1.01524 -0.313422 -3.3972e-17)
(0.921579 -0.254364 -3.69999e-16)
(1.02 -0.255706 -1.58002e-16)
(0.936607 -0.208815 -7.0406e-16)
(1.02275 -0.208388 1.88679e-16)
(0.947726 -0.1716 -2.34551e-16)
(1.02398 -0.16898 4.78277e-16)
(0.955624 -0.140584 -4.76682e-16)
(1.02392 -0.135584 2.95673e-16)
(0.960862 -0.114266 -3.41879e-16)
(1.0227 -0.106743 1.60633e-16)
(0.963874 -0.0915564 -6.32636e-17)
(1.0204 -0.0813277 -1.08602e-16)
(0.965 -0.0716587 2.70667e-17)
(1.01705 -0.0584316 3.36895e-16)
(0.964538 -0.0540003 5.44047e-17)
(1.01258 -0.0373015 1.32282e-16)
(0.962818 -0.0381987 1.79679e-16)
(1.00682 -0.0172573 1.05656e-16)
(0.960227 -0.0240274 1.87207e-16)
(0.999469 0.00242473 1.76938e-16)
(0.957194 -0.0114403 2.1383e-16)
(0.990076 0.0227051 1.95125e-16)
(0.954517 -0.000812736 2.9868e-16)
(0.977532 0.0451847 3.6381e-16)
(0.954446 0.00658211 -2.31612e-16)
(0.95859 0.0728246 4.06622e-16)
(0.961615 0.00926969 -3.146e-16)
(0.932087 0.104367 2.652e-16)
(0.94944 0.0428202 -5.29822e-16)
(0.945925 -0.943835 1.59901e-15)
(0.815511 -0.812092 1.13923e-15)
(0.99026 -0.745638 7.77955e-16)
(0.848389 -0.623509 2.65565e-16)
(1.01438 -0.596444 6.45589e-16)
(0.877728 -0.489142 2.57404e-17)
(1.02716 -0.481238 6.01779e-16)
(0.902694 -0.390627 8.77488e-17)
(1.03363 -0.390598 6.85856e-17)
(0.923044 -0.31624 -1.37317e-16)
(1.03657 -0.318258 2.27711e-16)
(0.938976 -0.258417 3.88635e-17)
(1.03749 -0.259792 -1.71412e-17)
(0.950966 -0.212266 8.30049e-16)
(1.03709 -0.211873 -4.12297e-16)
(0.959587 -0.174566 2.63611e-16)
(1.03567 -0.171975 -2.02114e-16)
(0.965386 -0.143145 1.12708e-16)
(1.03334 -0.13817 1.51516e-16)
(0.968821 -0.116478 -6.23483e-17)
(1.03016 -0.108979 7.31061e-17)
(0.970253 -0.0934571 4.31362e-17)
(1.02611 -0.0832575 1.12929e-16)
(0.969965 -0.0732682 -2.55006e-16)
(1.02117 -0.0600952 1.39166e-16)
(0.968223 -0.0553252 -3.62982e-16)
(1.01524 -0.0387333 3.24444e-17)
(0.965336 -0.0392231 -3.54716e-17)
(1.00815 -0.0185007 -3.75314e-16)
(0.961668 -0.0247089 2.67339e-17)
(0.999596 0.00130735 -2.29791e-16)