/*--------------------------------*- C++ -*----------------------------------*\
| =========                 |                                                 |
| \\      /  F ield         | foam-extend: Open Source CFD                    |
|  \\    /   O peration     | Version:  3.0                                   |
|   \\  /    A nd           | Web:         http://www.extend-project.de       |
|    \\/     M anipulation  |                                                 |
\*---------------------------------------------------------------------------*/
FoamFile
{
    version     2.0;
    format      ascii;
    class       volVectorField;
    location    "0.2";
    object      u;
}
// * * * * * * * * * * * * * * * * * * * * * * * * * * * * * * * * * * * * * //

dimensions      [0 0 0 0 0 0 0];

internalField   nonuniform List<vector> 
300
(
(-22.6854 14.1856 0.000475912)
(-0.152285 -17.0912 0.00100327)
(4.38987 2.88699 0.00208305)
(-4.35546 -1.58717 0.0038052)
(1.21519 -5.4171 0.0061601)
(-1.16649 -0.425019 0.00880381)
(1.58766 0.0722228 0.0107918)
(0.342981 -0.223549 0.0102258)
(1.28273 -0.107172 0.003495)
(0.7015 -0.14904 0.00139645)
(1.98312 -2.86608 0.000353505)
(1.22427 1.32603 0.000665039)
(1.08406 1.49282 0.00128435)
(0.301335 1.91239 0.00200315)
(0.788262 -1.76175 0.00214398)
(1.17065 0.498151 -0.000132548)
(0.911561 -0.628276 -0.00898577)
(1.12687 0.123854 -0.0328803)
(0.944956 -0.25614 -0.0897524)
(1.12574 -0.0805856 -0.0762019)
(3.11995 -0.449652 0.000343204)
(-3.44459 -1.31675 0.000665716)
(-0.142437 -0.553654 0.00130045)
(0.89702 -0.627015 0.00207381)
(1.22287 0.528318 0.00234181)
(0.595159 -0.285887 0.000264811)
(1.13889 0.204532 -0.00846727)
(0.786732 -0.126193 -0.0329022)
(1.0809 0.0246971 -0.092955)
(0.90375 -0.120408 -0.0629511)
(2.38602 -1.98095 0.000331984)
(1.78038 -0.341207 0.000652884)
(1.34204 -0.221164 0.00128355)
(0.797899 0.558021 0.00206939)
(1.09585 -0.591096 0.00238762)
(1.03328 0.221759 0.000406685)
(1.01329 -0.244582 -0.00823527)
(1.03154 0.0539365 -0.0327704)
(0.996911 -0.121987 -0.0936159)
(1.08505 -0.0739043 -0.0469421)
(0.0279238 1.0345 0.000321692)
(-0.0315205 -0.310972 0.000639719)
(0.458051 -0.215553 0.0012685)
(0.856946 -0.244606 0.00206812)
(0.97766 0.144444 0.00243544)
(0.862654 -0.13756 0.000558744)
(1.02108 0.0728858 -0.00791971)
(0.927784 -0.0670788 -0.0322654)
(1.02786 0.00511628 -0.0930782)
(1.00556 -0.0718121 -0.0297588)
(1.84593 -0.953181 0.000310638)
(1.57536 -0.221104 0.000624508)
(1.31615 -0.174254 0.00125037)
(0.994629 0.163883 0.00206022)
(1.10983 -0.196837 0.00247132)
(1.0041 0.0825792 0.00070655)
(1.0286 -0.0847237 -0.00753588)
(1.00678 0.0241318 -0.0314329)
(1.00969 -0.0434807 -0.0915296)
(1.06166 -0.0241703 -0.0121784)
(0.37378 0.451301 0.000297413)
(0.49829 -0.14731 0.000605188)
(0.700917 -0.111862 0.00122439)
(0.887718 -0.117948 0.00203813)
(0.948312 0.0282355 0.00248753)
(0.944064 -0.0650127 0.000847379)
(0.993212 0.0244428 -0.00707897)
(0.974716 -0.0252114 -0.0302714)
(1.00557 0.012327 -0.0889922)
(1.02188 -0.0121574 0.00553527)
(1.52393 -0.466016 0.000280951)
(1.36653 -0.100353 0.000580131)
(1.22712 -0.0712923 0.00118737)
(1.04181 0.0563763 0.00199749)
(1.07704 -0.0587808 0.00248021)
(1.00533 0.0329829 0.000980354)
(1.01993 -0.0216893 -0.00654687)
(1.00015 0.0206919 -0.0287835)
(1.00007 0.00333099 -0.0854883)
(1.02506 0.0232855 0.023196)
(0.62928 0.166352 0.000260543)
(0.713813 -0.101675 0.000548244)
(0.828349 -0.0753439 0.00113752)
(0.927011 -0.067977 0.00193635)
(0.959975 -0.00385447 0.00244815)
(0.973793 -0.0304002 0.00110544)
(0.98838 0.0115747 -0.00593971)
(0.985978 0.00225939 -0.026976)
(0.98612 0.0282073 -0.0810458)
(0.992635 0.0335263 0.0406332)
(1.33186 -0.223349 0.000235857)
(1.21984 -0.0388665 0.000508842)
(1.14389 -0.0128567 0.00107402)
(1.04036 0.0275819 0.00185463)
(1.0458 -0.0106758 0.00239239)
(1.00518 0.017864 0.00122359)
(1.00814 0.00332982 -0.00525957)
(0.992495 0.0257451 -0.0248586)
(0.979432 0.0298892 -0.0756948)
(0.974201 0.0515602 0.0576931)
(0.79749 0.0425464 0.000206986)
(0.834598 -0.0816107 0.0004615)
(0.903545 -0.056756 0.000996505)
(0.957082 -0.0427348 0.00175383)
(0.974508 -0.010318 0.0023173)
(0.985868 -0.0133053 0.00133808)
(0.987414 0.00995528 -0.00451347)
(0.983143 0.0174935 -0.0224552)
(0.96465 0.0385188 -0.0694741)
(0.944372 0.0515573 0.0742609)
(1.21514 -0.096311 0.000174544)
(1.12946 -0.00999913 0.000405975)
(1.08351 0.0103318 0.00090446)
(1.02771 0.0184176 0.00163649)
(1.02431 0.00462233 0.00223318)
(1.00257 0.0128258 0.00146167)
(0.998801 0.0117435 -0.00371524)
(0.98324 0.0278322 -0.0198443)
(0.957604 0.0381778 -0.0625102)
(0.92202 0.0515197 0.0902714)
(0.903506 0.000570328 0.000139773)
(0.908365 -0.0633769 0.00034232)
(0.948342 -0.0423988 0.000796317)
(0.976417 -0.0272568 0.00150374)
(0.985168 -0.00932117 0.00215885)
(0.991585 -0.00516583 0.00163994)
(0.987855 0.00877939 -0.00285039)
(0.977986 0.0197594 -0.0172255)
(0.948131 0.035169 -0.0553763)
(0.900013 0.0369745 0.105354)
(1.13987 -0.0239487 0.000104585)
(1.07618 0.00395544 0.00027139)
(1.04534 0.0149886 0.000668685)
(1.01636 0.0134778 0.00134818)
(1.01214 0.00753406 0.00211195)
(1.00144 0.00917831 0.00199151)
(0.996975 0.0102487 -0.00168587)
(0.981871 0.0191583 -0.014724)
(0.953402 0.0258001 -0.0500621)
(0.890821 0.0185327 0.115065)
(0.96628 -0.00273816 7.14247e-05)
(0.952012 -0.0432348 0.000195952)
(0.974044 -0.0302069 0.000517913)
(0.987815 -0.0172005 0.0011425)
(0.992481 -0.00723945 0.00205497)
(0.996307 -0.00316595 0.0026651)
(0.994034 0.00254095 0.00068669)
(0.984115 0.00166424 -0.0103674)
(0.956127 0.00356035 -0.0485596)
(0.877691 -0.0471702 0.0789103)
(1.08252 0.0214306 4.27555e-05)
(1.04463 0.0122133 0.000122007)
(1.02356 0.0121123 0.000347988)
(1.00893 0.00952739 0.00084375)
(1.00648 0.00643557 0.00178215)
(1.00332 0.00624987 0.00330128)
(1.00547 0.0066995 0.00525141)
(1.00534 0.00420981 0.00653828)
(1.00629 0.00404161 0.00400837)
(1.00425 -0.0559064 -0.0312265)
(1.00167 0.00846594 2.01246e-05)
(0.974643 -0.0229091 5.83339e-05)
(0.987844 -0.0203478 0.000184274)
(0.99404 -0.0106966 0.00046725)
(0.997043 -0.00533373 0.00101168)
(1.00013 -0.00173196 0.00191978)
(1.00276 0.00110953 0.00318767)
(1.0054 0.00221609 0.00446165)
(1.01161 0.00384236 0.00471188)
(0.997778 -0.0088099 -0.00468443)
(1.02567 0.0489844 3.13501e-06)
(1.02414 0.0184886 1.08908e-05)
(1.0121 0.00703452 6.7448e-05)
(1.00438 0.00569243 0.000202468)
(1.00254 0.00321519 0.000462559)
(1.00116 0.00295034 0.000890878)
(1.002 0.0025439 0.00148077)
(1.00225 0.00292278 0.00207546)
(1.00398 0.00193294 0.00222177)
(1.00135 -0.0032857 -0.000469135)
(1.02576 0.0216508 -1.05662e-05)
(0.982627 -0.00469889 -2.50517e-05)
(0.994222 -0.0126568 -1.15416e-05)
(0.99664 -0.00651601 4.02976e-05)
(0.998341 -0.00422275 0.000149412)
(0.999688 -0.00181121 0.000331744)
(1.0005 -0.000544684 0.000581954)
(1.0014 0.000221267 0.000832337)
(1.00269 0.000732837 0.000883394)
(1.00093 -0.000840968 8.623e-05)
(0.955234 0.0551813 -2.35893e-05)
(1.00779 0.0230164 -5.64041e-05)
(1.00679 0.00223193 -7.24645e-05)
(1.00237 0.00295154 -6.77529e-05)
(1.00112 0.000615588 -3.32402e-05)
(1.00032 0.000589751 3.62299e-05)
(1.00029 0.000369837 0.000137455)
(1.00039 0.00036677 0.000245767)
(1.00072 0.000330406 0.000284261)
(1.00039 -0.000449729 6.76088e-05)
(1.05769 0.0345404 -3.80601e-05)
(0.981539 0.0103497 -8.85237e-05)
(0.996533 -0.00630869 -0.000130732)
(0.997559 -0.00347875 -0.000158822)
(0.999061 -0.00317045 -0.00016315)
(0.999696 -0.00161791 -0.000142333)
(0.99982 -0.00108296 -0.00010309)
(1.00019 -0.000699523 -5.50995e-05)
(1.00033 -0.000259533 -1.41185e-05)
(1.0002 -0.000479131 -2.13098e-05)
(0.858661 0.0230493 -5.55317e-05)
(0.991148 0.0225641 -0.000124823)
(1.00464 -0.0025217 -0.000196023)
(1.00205 0.00133562 -0.000254896)
(1.00152 -0.00100009 -0.000280329)
(1.0007 -0.000583698 -0.000265951)
(1.00024 -0.000698342 -0.000230145)
(1.00031 -0.000764849 -0.000202254)
(1.00012 -0.000412187 -0.000184693)
(1.0002 -0.00078323 -0.000129048)
(1.12077 0.0588732 -7.69936e-05)
(0.976505 0.0244959 -0.000167121)
(0.997039 0.000470962 -0.000273644)
(0.997877 -0.000837864 -0.000367473)
(0.999973 -0.0016991 -0.000398835)
(1.0006 -0.000762533 -0.000329857)
(1.00081 -0.0007053 -0.000181235)
(1.00119 -0.000839928 -5.69173e-05)
(1.00092 -0.00024557 -7.94679e-05)
(1.00055 -0.00125934 -0.000196249)
(0.726222 -0.0841995 -0.000102788)
(0.971962 0.00879696 -0.000215907)
(1.00367 -0.0102394 -0.000365491)
(1.00313 0.000343363 -0.000501095)
(1.00377 -0.00141321 -0.000517718)
(1.00311 -0.000433544 -0.000279784)
(1.00291 -0.000297794 0.000281409)
(1.00376 -0.000795062 0.000992722)
(1.00281 0.000215701 0.00129147)
(1.00266 -0.00259236 0.000467727)
(1.23945 0.130048 -0.000132446)
(0.970626 0.048025 -0.000270391)
(0.997345 0.012802 -0.000470427)
(0.998595 0.00284183 -0.000655161)
(1.00215 0.00176943 -0.000631841)
(1.00393 0.00271747 -4.98652e-05)
(1.00637 0.00387522 0.00153345)
(1.00946 0.00352378 0.00431433)
(1.01068 0.00708165 0.00735075)
(1.00912 -0.000825976 0.00683478)
(0.559163 -0.334883 -0.000164567)
(0.952298 -0.0372008 -0.000328377)
(1.003 -0.0301817 -0.00058436)
(1.00595 -0.00156164 -0.000825151)
(1.00867 -0.000564206 -0.000744436)
(1.01022 0.00256168 0.000352759)
(1.01308 0.00511505 0.00375943)
(1.02199 0.00423941 0.0114807)
(1.02517 0.00834057 0.0259703)
(1.04018 -0.0184894 0.0520314)
(1.4245 0.322541 -0.000196921)
(0.956755 0.108798 -0.000385982)
(0.996031 0.0457891 -0.000699544)
(0.999718 0.0107269 -0.00100195)
(1.00611 0.00975924 -0.000872838)
(1.01031 0.011081 0.000759112)
(1.01739 0.0185634 0.0062254)
(1.03121 0.0260929 0.0200738)
(1.04088 0.0499508 0.049503)
(1.08135 0.0685124 0.204541)
(0.391889 -0.842689 -0.000226852)
(0.948943 -0.156835 -0.000437536)
(1.00614 -0.0884617 -0.000802003)
(1.01141 -0.00992703 -0.00115944)
(1.01571 -0.0022024 -0.00100217)
(1.02158 0.00949554 0.00100973)
(1.02703 0.0192887 0.00793513)
(1.03876 0.0320936 0.0262012)
(1.04393 0.0633195 0.0694217)
(1.03906 0.0937392 0.139194)
(1.63199 0.764107 -0.000253589)
(0.899028 0.266753 -0.000483868)
(0.978252 0.141878 -0.000891739)
(0.996921 0.0310994 -0.00128252)
(1.01058 0.0267066 -0.00104568)
(1.01901 0.0166264 0.00142231)
(1.03212 0.0260925 0.00972924)
(1.04766 0.0347797 0.0312929)
(1.05422 0.0592583 0.0818429)
(1.03989 0.0840464 0.124794)
(0.360605 -1.77605 -0.00021087)
(0.56309 -0.387656 -0.000269495)
(0.894875 -0.240547 -0.000280145)
(0.926322 -0.0332259 0.000230307)
(1.00125 -0.0267574 0.00241483)
(1.01454 0.00896109 0.00882755)
(1.03735 0.0184155 0.0245935)
(1.05543 0.03795 0.0592363)
(1.05382 0.0712012 0.130857)
(1.02009 0.127637 0.181538)
)
;

boundaryField
{
    frontAndBack
    {
        type            empty;
    }
    symm
    {
        type            symmetryPlane;
    }
    in
    {
        type            myVelocity;
    }
    out
    {
        type            fixedValue;
        value           uniform (1 0 0);
    }
}


// ************************************************************************* //
