/*--------------------------------*- C++ -*----------------------------------*\
| =========                 |                                                 |
| \\      /  F ield         | foam-extend: Open Source CFD                    |
|  \\    /   O peration     | Version:  3.0                                   |
|   \\  /    A nd           | Web:         http://www.extend-project.de       |
|    \\/     M anipulation  |                                                 |
\*---------------------------------------------------------------------------*/
FoamFile
{
    version     2.0;
    format      ascii;
    class       volVectorField;
    location    "10";
    object      s;
}
// * * * * * * * * * * * * * * * * * * * * * * * * * * * * * * * * * * * * * //

dimensions      [0 1 -1 0 0 0 0];

internalField   nonuniform List<vector> 
728
(
(-1.19445 -0.404393 0)
(-1.19413 -0.245761 0)
(-1.52129 0.510671 0)
(-1.56026 0.388519 0)
(-2.49392 -0.18912 0)
(-2.53313 0.329142 0)
(-2.40277 0.117452 0)
(-2.72408 0.110809 0)
(-1.61809 0.321061 0)
(-1.96185 -0.356525 0)
(-1.69849 0.618411 0)
(-1.86606 -0.206444 0)
(-1.56428 0.337464 0)
(-1.80887 -0.241955 0)
(-1.63881 0.630466 0)
(-1.89358 -0.394893 0)
(-1.21263 0.133821 0)
(-2.05652 0.144078 0)
(-2.00758 0.140239 0)
(-1.15673 -0.17215 0)
(-1.72662 0.483887 0)
(-2.33995 -0.133758 0)
(-2.18771 -0.0579608 0)
(-1.63059 0.102295 0)
(-3.1844 -0.122034 0)
(-2.61938 0.0431138 0)
(-2.19138 0.0190699 0)
(-3.18383 0.492868 0)
(-1.26436 0.183107 0)
(-2.1294 0.10472 0)
(-2.06124 0.104786 0)
(-1.20378 -0.140856 0)
(-1.80295 0.46493 0)
(-2.42185 -0.0677744 0)
(-2.26315 -0.015002 0)
(-1.72666 0.0834385 0)
(-1.90747 -0.199425 0)
(-1.19105 0.506464 0)
(-1.85366 -0.166149 0)
(-1.09652 0.152479 0)
(-1.39039 0.169815 0)
(-2.12683 -0.184063 0)
(-1.47698 0.522371 0)
(-2.02941 -0.124576 0)
(-1.28828 0.191716 0)
(-1.95314 -0.160965 0)
(-1.37614 0.54367 0)
(-2.03309 -0.21882 0)
(-1.8392 -0.122742 0)
(-2.06124 0.311875 0)
(-2.15755 0.515801 0)
(-1.93109 -0.402291 0)
(-2.48137 0.0337098 0)
(-3.16058 0.00747813 0)
(-1.98356 -0.0643348 0)
(-3.07795 0.71035 0)
(-1.27146 -0.201145 0)
(-1.73278 0.470569 0)
(-1.7756 0.363096 0)
(-1.26898 -0.407071 0)
(-1.23617 0.0495947 0)
(-2.04293 -0.0460638 0)
(-2.12777 -0.0752419 0)
(-1.31988 0.399832 0)
(-1.58435 0.572028 0)
(-1.36979 -0.427346 0)
(-1.59187 0.407229 0)
(-1.35121 -0.266114 0)
(-2.55147 0.399189 0)
(-2.45203 -0.0864836 0)
(-2.66421 0.0949977 0)
(-2.3653 0.166982 0)
(-1.85102 -0.218429 0)
(-1.19847 0.55972 0)
(-1.10238 0.191289 0)
(-1.81318 -0.18494 0)
(-1.23779 -0.0215575 0)
(-2.15934 -0.0107551 0)
(-1.31523 0.321655 0)
(-2.07512 0.00514897 0)
(-2.31046 -0.312931 0)
(-2.13951 -0.0399101 0)
(-2.09597 0.174093 0)
(-2.24656 0.444277 0)
(-1.04717 -0.130363 0)
(-1.61368 0.323739 0)
(-1.01639 -0.31258 0)
(-1.7844 0.326585 0)
(-3.72175 0.0782132 0)
(-2.53545 -0.373359 0)
(-3.48491 0.823498 0)
(-1.99322 -0.611188 0)
(-2.26021 -0.311824 0)
(-2.09445 -0.0110432 0)
(-2.16546 0.18416 0)
(-2.30876 0.43428 0)
(-1.8141 0.596293 0)
(-2.02298 -0.367934 0)
(-1.71585 0.302702 0)
(-1.91001 -0.187986 0)
(-1.18892 -0.22472 0)
(-1.18524 -0.40061 0)
(-1.58822 0.483524 0)
(-1.64192 0.379184 0)
(-1.37388 -0.421634 0)
(-1.66508 0.394052 0)
(-1.65465 0.551979 0)
(-1.35904 -0.241303 0)
(-1.03782 -0.0846868 0)
(-1.7178 0.32406 0)
(-1.01637 -0.295272 0)
(-1.81061 0.278731 0)
(-1.03145 -0.101849 0)
(-1.99995 0.0360359 0)
(-1.10621 0.209356 0)
(-1.94333 0.0477075 0)
(-1.25742 -0.269082 0)
(-1.27256 -0.416596 0)
(-1.5178 0.546528 0)
(-1.54034 0.399737 0)
(-1.25859 -0.22362 0)
(-1.65923 0.493203 0)
(-1.69861 0.374054 0)
(-1.25645 -0.412239 0)
(-1.58101 0.36063 0)
(-1.73086 -0.248326 0)
(-1.63998 0.630942 0)
(-1.80253 -0.409819 0)
(-1.60329 -0.294512 0)
(-1.64913 -0.439384 0)
(-1.46099 0.380471 0)
(-1.50585 0.640175 0)
(-1.20413 -0.159866 0)
(-1.72842 0.414415 0)
(-1.80118 0.34924 0)
(-1.19277 -0.366246 0)
(-1.56664 -0.28227 0)
(-1.48537 0.399294 0)
(-1.6132 -0.429024 0)
(-1.51902 0.639583 0)
(-2.04546 0.457 0)
(-2.49768 -0.0579678 0)
(-2.28826 0.0231185 0)
(-1.94642 0.0422588 0)
(-1.43141 -0.401345 0)
(-1.88348 0.469912 0)
(-1.41826 -0.168253 0)
(-1.88172 0.346267 0)
(-1.13181 0.129957 0)
(-1.96236 -0.175441 0)
(-1.90143 -0.142598 0)
(-1.22428 0.480163 0)
(-1.37094 0.631284 0)
(-1.34616 0.415302 0)
(-1.45461 -0.433458 0)
(-1.42108 -0.311371 0)
(-1.06656 -0.0534309 0)
(-1.97713 0.0105576 0)
(-1.1472 0.27314 0)
(-2.04301 -0.004842 0)
(-2.34097 0.0858932 0)
(-2.26814 0.181115 0)
(-2.59004 0.241781 0)
(-2.37342 -0.270018 0)
(-2.24386 0.297342 0)
(-2.29425 0.143951 0)
(-2.54428 0.229222 0)
(-2.27325 -0.166633 0)
(-1.94049 0.424804 0)
(-1.38301 -0.117044 0)
(-1.942 0.324662 0)
(-1.38647 -0.368154 0)
(-1.67112 -0.266436 0)
(-1.72235 -0.404933 0)
(-1.47595 0.361646 0)
(-1.52394 0.633511 0)
(-1.37112 0.412953 0)
(-1.37877 0.606502 0)
(-1.35505 -0.304879 0)
(-1.38181 -0.427509 0)
(-2.13615 0.482327 0)
(-2.05889 0.3092 0)
(-1.81116 -0.39128 0)
(-1.7421 -0.110046 0)
(-2.49894 0.425469 0)
(-2.29925 0.0441945 0)
(-2.613 0.191765 0)
(-2.62223 -0.0870067 0)
(-1.60083 0.543287 0)
(-2.16389 -0.206275 0)
(-1.51777 0.188914 0)
(-2.04965 -0.127727 0)
(-1.65945 0.575737 0)
(-1.9983 -0.158497 0)
(-2.10758 -0.270991 0)
(-1.56683 0.242752 0)
(-0.981751 0.266946 0)
(-1.83924 -0.00479755 0)
(-1.89279 -0.0157069 0)
(-0.904205 -0.0506673 0)
(-0.961431 0.0971027 0)
(-1.81342 -0.126313 0)
(-1.8654 -0.143681 0)
(-1.05959 0.440287 0)
(-1.45693 -0.43401 0)
(-1.71913 0.388383 0)
(-1.43436 -0.23797 0)
(-1.72139 0.554493 0)
(-1.19812 0.35974 0)
(-1.59363 -0.27265 0)
(-1.61661 -0.342487 0)
(-1.24952 0.662556 0)
(-1.93515 -0.136431 0)
(-2.0025 -0.176554 0)
(-1.29157 0.493262 0)
(-1.20221 0.138618 0)
(-2.14786 0.293444 0)
(-2.30858 0.0645162 0)
(-2.57949 0.153901 0)
(-2.19377 -0.188802 0)
(-1.01658 0.0986717 0)
(-1.84049 -0.123668 0)
(-1.89516 -0.146587 0)
(-1.1117 0.442726 0)
(-1.36503 -0.0540647 0)
(-1.42599 0.298645 0)
(-2.25453 0.0489461 0)
(-2.15318 0.0537733 0)
(-1.53452 0.598304 0)
(-1.39904 -0.284529 0)
(-1.42095 -0.434858 0)
(-1.52528 0.413628 0)
(-0.97518 -0.111454 0)
(-1.94535 0.0382156 0)
(-1.05017 0.189708 0)
(-1.89789 0.0513265 0)
(-1.94974 0.513818 0)
(-1.6061 -0.418911 0)
(-1.56607 -0.176001 0)
(-1.9174 0.355165 0)
(-2.09328 0.422971 0)
(-2.02596 -0.00068057 0)
(-2.62041 0.014755 0)
(-2.40686 0.0510935 0)
(-3.02017 -0.0781601 0)
(-2.52535 0.531423 0)
(-2.80478 -0.547806 0)
(-2.91763 0.212071 0)
(-1.87056 -0.188342 0)
(-1.31852 0.24577 0)
(-1.93356 -0.256825 0)
(-1.40029 0.588978 0)
(-3.12599 0.196146 0)
(-2.75967 0.420749 0)
(-2.87237 -0.316736 0)
(-2.35633 0.69019 0)
(-1.09083 -0.0603907 0)
(-1.85441 0.282327 0)
(-1.06118 -0.289929 0)
(-1.79402 0.299985 0)
(-2.14668 -0.0847783 0)
(-1.75163 0.513538 0)
(-2.30497 -0.165466 0)
(-1.66095 0.136627 0)
(-1.72181 0.391964 0)
(-1.52437 -0.238553 0)
(-1.56413 -0.434719 0)
(-1.74254 0.579479 0)
(-2.0111 0.0957516 0)
(-2.13015 0.523088 0)
(-2.2406 0.0214486 0)
(-2.48371 -0.100351 0)
(-1.86359 0.129223 0)
(-0.931324 -0.168146 0)
(-0.983927 0.0980426 0)
(-1.84213 0.131087 0)
(-1.5168 -0.434179 0)
(-1.41564 0.640935 0)
(-1.38804 0.412498 0)
(-1.47964 -0.30539 0)
(-1.4524 0.462013 0)
(-2.1888 -0.113615 0)
(-1.36686 0.10352 0)
(-2.08646 -0.0715888 0)
(-1.14509 0.141983 0)
(-2.01821 0.116479 0)
(-1.9731 0.119017 0)
(-1.08222 -0.158843 0)
(-1.8834 0.546687 0)
(-1.64639 -0.436104 0)
(-1.60162 -0.207645 0)
(-1.83701 0.365871 0)
(-1.19261 0.385666 0)
(-1.54477 -0.388561 0)
(-1.5222 -0.295583 0)
(-1.2431 0.660967 0)
(-1.81185 0.172046 0)
(-0.969915 0.0393075 0)
(-1.80856 0.166877 0)
(-0.918676 -0.19983 0)
(-1.23577 0.351753 0)
(-1.63026 -0.263666 0)
(-1.65064 -0.341651 0)
(-1.29085 0.65642 0)
(-1.95715 0.337986 0)
(-1.91621 -0.0836225 0)
(-2.54067 0.0684264 0)
(-2.33868 0.0694372 0)
(-1.1816 0.0778287 0)
(-2.06115 -0.111527 0)
(-1.98742 -0.0801214 0)
(-1.26853 0.423899 0)
(-2.43326 -0.0352832 0)
(-2.56353 0.447118 0)
(-2.6428 0.0661368 0)
(-2.31673 0.20477 0)
(-1.53222 0.280222 0)
(-1.61761 0.606822 0)
(-1.93014 -0.184756 0)
(-2.0271 -0.30026 0)
(-2.23962 0.0935476 0)
(-2.22852 0.0605734 0)
(-2.39715 0.421863 0)
(-2.5056 -0.166808 0)
(-2.25955 0.0268394 0)
(-2.42689 0.395861 0)
(-2.29904 0.131261 0)
(-2.54481 -0.0816026 0)
(-1.14642 0.628107 0)
(-1.73474 -0.244769 0)
(-1.04144 0.209774 0)
(-1.73558 -0.222571 0)
(-1.38815 -0.413034 0)
(-1.37806 -0.19837 0)
(-1.79672 0.49864 0)
(-1.80882 0.369317 0)
(-2.19407 -0.0052156 0)
(-2.3585 0.429516 0)
(-2.29864 0.126889 0)
(-2.58313 -0.0600591 0)
(-1.3678 -0.128695 0)
(-2.26509 0.10103 0)
(-2.15961 0.0955587 0)
(-1.42301 0.227714 0)
(-1.83754 -0.152589 0)
(-1.9575 0.310517 0)
(-1.93226 -0.401415 0)
(-2.04514 0.527441 0)
(-1.88532 0.596448 0)
(-1.96669 -0.385168 0)
(-1.79462 0.325531 0)
(-1.86218 -0.181468 0)
(-1.29086 -0.162191 0)
(-1.34607 0.169356 0)
(-2.17784 0.128191 0)
(-2.10112 0.121586 0)
(-1.33311 0.349426 0)
(-1.72133 -0.25454 0)
(-1.3915 0.6599 0)
(-1.76904 -0.351796 0)
(-1.46912 -0.351239 0)
(-2.0684 0.388659 0)
(-1.46163 -0.0700943 0)
(-2.03268 0.291855 0)
(-1.09279 -0.354372 0)
(-1.66001 0.371585 0)
(-1.73699 0.35724 0)
(-1.11741 -0.159412 0)
(-2.20334 -0.319575 0)
(-2.10248 0.523129 0)
(-2.04473 -0.0892577 0)
(-1.98062 0.238255 0)
(-1.94993 -0.084772 0)
(-2.12826 0.245664 0)
(-2.23585 0.463503 0)
(-2.07426 -0.371419 0)
(-1.40402 0.347088 0)
(-1.72915 -0.247995 0)
(-1.46073 0.650948 0)
(-1.78232 -0.35921 0)
(-1.81852 0.384483 0)
(-1.21342 -0.115302 0)
(-1.86595 0.324104 0)
(-1.19727 -0.342847 0)
(-0.99992 0.209912 0)
(-1.91296 0.0162111 0)
(-1.863 0.0326044 0)
(-0.926148 -0.090716 0)
(-0.980567 -0.162421 0)
(-1.91309 0.132943 0)
(-1.03862 0.115643 0)
(-1.8852 0.136083 0)
(-1.15464 -0.0719346 0)
(-1.87103 0.296111 0)
(-1.12807 -0.308919 0)
(-1.82807 0.328163 0)
(-1.99085 0.0969141 0)
(-2.39747 -0.207923 0)
(-2.12765 0.449423 0)
(-2.19536 -0.0217176 0)
(-2.79771 1.11126 0)
(-2.96939 -0.348368 0)
(-2.61512 -0.728324 0)
(-3.23298 0.55658 0)
(-3.48663 0.10647 0)
(-2.54417 0.333558 0)
(-3.34921 -0.58393 0)
(-1.98275 0.501415 0)
(-1.56293 -0.256498 0)
(-1.60336 -0.434318 0)
(-1.66744 0.595383 0)
(-1.63422 0.380141 0)
(-1.24052 0.26681 0)
(-1.16615 -0.064437 0)
(-2.10448 0.0219293 0)
(-2.03266 0.0365582 0)
(-1.8917 0.115444 0)
(-2.39578 -0.163965 0)
(-2.19443 -0.0251968 0)
(-2.01055 0.494965 0)
(-1.05539 -0.236678 0)
(-1.91154 0.196184 0)
(-1.10409 0.0302568 0)
(-1.91804 0.200887 0)
(-1.03591 -0.189986 0)
(-1.95153 0.160054 0)
(-1.09203 0.0911277 0)
(-1.92281 0.16217 0)
(-1.13184 0.327939 0)
(-1.04847 -0.00157681 0)
(-2.0016 -0.040483 0)
(-1.93493 -0.0223236 0)
(-1.09648 -0.373222 0)
(-1.67161 0.364483 0)
(-1.58411 0.43768 0)
(-1.10837 -0.196872 0)
(-1.02226 0.332368 0)
(-1.9211 -0.0495332 0)
(-1.86043 -0.03874 0)
(-0.935753 0.00666567 0)
(-1.35615 -0.436464 0)
(-1.44825 0.414058 0)
(-1.34065 -0.293737 0)
(-1.44922 0.598168 0)
(-1.84621 0.348195 0)
(-1.78336 -0.434931 0)
(-1.90839 0.553974 0)
(-1.7192 -0.208558 0)
(-2.19055 0.0181111 0)
(-1.52314 0.35422 0)
(-1.45767 -0.00301483 0)
(-2.29943 0.00450295 0)
(-1.26791 -0.422159 0)
(-1.46283 0.410348 0)
(-1.26833 -0.299095 0)
(-1.45412 0.572978 0)
(-1.4228 -0.314784 0)
(-1.42581 -0.011824 0)
(-2.06901 0.258253 0)
(-2.11863 0.337172 0)
(-1.92629 0.314521 0)
(-1.30012 -0.0956812 0)
(-1.90771 0.386422 0)
(-1.2913 -0.342078 0)
(-1.73607 0.282318 0)
(-2.43397 0.0653498 0)
(-1.68445 -0.0963768 0)
(-2.28904 0.0701135 0)
(-2.03008 0.249407 0)
(-2.06202 0.303519 0)
(-1.31799 -0.292638 0)
(-1.33999 -3.00862e-05 0)
(-1.70937 0.624195 0)
(-1.75886 -0.435193 0)
(-1.65689 0.377796 0)
(-1.68921 -0.250894 0)
(-1.19044 0.635263 0)
(-1.67763 -0.252404 0)
(-1.6876 -0.298066 0)
(-1.08876 0.29338 0)
(-1.74753 0.354405 0)
(-1.74534 -0.221819 0)
(-1.82366 -0.424536 0)
(-1.81094 0.596315 0)
(-0.912849 0.0484025 0)
(-1.86044 -0.095312 0)
(-1.00307 0.376388 0)
(-1.80433 -0.0822601 0)
(-2.04971 0.212582 0)
(-2.09579 0.251387 0)
(-1.28874 -0.254377 0)
(-1.31952 0.0509518 0)
(-2.39241 0.0172005 0)
(-1.67624 0.362027 0)
(-1.61458 -0.0157957 0)
(-2.24985 0.0332173 0)
(-2.00565 0.328097 0)
(-1.614 -0.137526 0)
(-1.65585 -0.39419 0)
(-2.05046 0.478746 0)
(-0.963903 0.13631 0)
(-1.76488 -0.160143 0)
(-1.06527 0.489139 0)
(-1.80636 -0.17733 0)
(-2.58818 0.209568 0)
(-2.46837 0.198271 0)
(-2.39504 -0.115782 0)
(-2.73571 -0.121201 0)
(-1.90113 0.293556 0)
(-2.04708 -0.39919 0)
(-2.01065 0.549165 0)
(-1.93061 -0.159655 0)
(-2.31827 0.118163 0)
(-1.968 0.257697 0)
(-2.53262 0.152202 0)
(-1.9531 -0.176783 0)
(-1.81559 0.0749156 0)
(-1.85646 0.0630293 0)
(-0.95799 0.151891 0)
(-0.889896 -0.130495 0)
(-1.82124 -0.215024 0)
(-1.25909 0.269501 0)
(-1.86914 -0.279555 0)
(-1.33505 0.618438 0)
(-2.23546 0.287958 0)
(-1.50949 -0.291408 0)
(-2.14129 0.217296 0)
(-1.51576 0.048502 0)
(-0.94792 -0.265089 0)
(-1.73792 0.251276 0)
(-0.984441 -0.0381389 0)
(-1.78512 0.254882 0)
(-1.47003 -0.300901 0)
(-1.52848 0.409145 0)
(-1.50478 -0.45768 0)
(-1.54661 0.616861 0)
(-1.48761 -0.292234 0)
(-1.4704 0.627695 0)
(-1.52397 -0.431128 0)
(-1.44748 0.401697 0)
(-1.95032 -0.2985 0)
(-1.50375 0.637867 0)
(-1.87376 -0.201087 0)
(-1.42972 0.304935 0)
(-1.79987 -0.23054 0)
(-1.51616 0.654865 0)
(-1.44914 0.338465 0)
(-1.87024 -0.345963 0)
(-1.77763 0.224128 0)
(-1.78064 -0.181366 0)
(-2.4271 0.203017 0)
(-2.25469 0.139659 0)
(-1.60193 -0.159953 0)
(-2.36376 0.154194 0)
(-1.62668 0.214212 0)
(-2.2303 0.120111 0)
(-1.79605 -0.206718 0)
(-1.04251 0.182329 0)
(-1.1146 0.555644 0)
(-1.76641 -0.173284 0)
(-2.41356 -0.284227 0)
(-2.24293 0.0558945 0)
(-2.31203 0.127244 0)
(-2.47749 0.360718 0)
(-2.40962 -0.0787333 0)
(-2.62025 0.198462 0)
(-2.41139 0.227724 0)
(-2.64631 -0.139699 0)
(-1.23476 0.637191 0)
(-1.72289 -0.228855 0)
(-1.73858 -0.275317 0)
(-1.15433 0.284109 0)
(-1.16438 0.250548 0)
(-1.80316 -0.202448 0)
(-1.84356 -0.246188 0)
(-1.24991 0.610355 0)
(-1.77766 0.135753 0)
(-2.22924 0.175605 0)
(-1.7948 -0.250884 0)
(-2.38312 0.259334 0)
(-2.27356 0.316924 0)
(-2.17147 0.220159 0)
(-1.62738 0.0578243 0)
(-1.64873 -0.283956 0)
(-1.5731 -0.292643 0)
(-1.59437 -0.248465 0)
(-1.18611 0.67204 0)
(-1.12939 0.358369 0)
(-0.957439 -0.238216 0)
(-1.82382 0.218012 0)
(-1.80356 0.208858 0)
(-1.00839 0.00194976 0)
(-2.55419 0.406043 0)
(-2.4993 -0.099482 0)
(-2.76277 0.151852 0)
(-2.78571 -0.035084 0)
(-1.49008 -0.177585 0)
(-2.31993 0.177214 0)
(-1.51768 0.184428 0)
(-2.20563 0.140661 0)
(-1.30705 0.367149 0)
(-1.3589 0.658276 0)
(-1.63196 -0.276371 0)
(-1.6659 -0.379119 0)
(-1.26367 0.408752 0)
(-1.47355 -0.424928 0)
(-1.29593 0.648426 0)
(-1.44029 -0.312775 0)
(-1.5799 -0.37144 0)
(-2.10775 0.408344 0)
(-1.56185 -0.0879557 0)
(-2.05746 0.293095 0)
(-1.87113 0.22632 0)
(-1.062 -0.0053353 0)
(-1.85393 0.230226 0)
(-1.01859 -0.254657 0)
(-2.25355 0.408407 0)
(-1.78091 -0.0518886 0)
(-2.15802 0.267209 0)
(-1.83587 -0.364933 0)
(-2.22158 0.378004 0)
(-1.69222 -0.359455 0)
(-1.65993 -0.0379086 0)
(-2.13345 0.25811 0)
(-1.75322 -0.244877 0)
(-1.28184 0.3197 0)
(-1.34898 0.648718 0)
(-1.79338 -0.324163 0)
(-1.54612 -0.276494 0)
(-1.56154 0.405826 0)
(-1.58908 -0.437822 0)
(-1.58622 0.625096 0)
(-2.11894 0.0919302 0)
(-2.48471 0.321569 0)
(-2.30064 0.125931 0)
(-2.24936 -0.288662 0)
(-2.00268 0.000346209 0)
(-2.37704 0.369955 0)
(-2.23935 0.200815 0)
(-2.09426 -0.338013 0)
(-1.53881 0.44159 0)
(-2.26493 -0.0862095 0)
(-2.15076 -0.0422102 0)
(-1.4559 0.0783199 0)
(-2.80677 -0.156803 0)
(-2.83975 0.705252 0)
(-2.41992 -0.441538 0)
(-3.1504 0.167003 0)
(-1.63174 -0.400857 0)
(-1.38919 0.661878 0)
(-1.59077 -0.282722 0)
(-1.34745 0.389936 0)
(-1.98003 -0.271241 0)
(-2.43017 0.293497 0)
(-2.25983 0.173177 0)
(-1.92848 0.118961 0)
(-1.97387 -0.308902 0)
(-2.35935 0.356124 0)
(-2.22579 0.209268 0)
(-1.90681 0.0391569 0)
(-1.17751 0.0206134 0)
(-1.13805 -0.252368 0)
(-1.95202 0.226848 0)
(-1.96151 0.246522 0)
(-2.24569 0.240791 0)
(-1.4676 -0.232332 0)
(-2.15347 0.187479 0)
(-1.48371 0.110113 0)
(-1.25761 0.402391 0)
(-1.29747 0.662992 0)
(-1.50545 -0.302257 0)
(-1.5378 -0.41035 0)
(-1.27545 0.642835 0)
(-1.69381 -0.240926 0)
(-1.21047 0.311715 0)
(-1.71395 -0.305562 0)
(-1.36338 0.661981 0)
(-1.56904 -0.412518 0)
(-1.53241 -0.295771 0)
(-1.32615 0.403987 0)
(-1.20435 -0.0345122 0)
(-1.174 -0.296111 0)
(-1.92723 0.293839 0)
(-1.93716 0.265433 0)
(-2.26136 -0.282077 0)
(-2.09615 -0.0797771 0)
(-1.90381 0.202579 0)
(-2.03444 0.517653 0)
(-2.01533 -0.135023 0)
(-1.88555 0.579424 0)
(-2.1556 -0.301997 0)
(-1.77966 0.262603 0)
(-1.23339 0.0608933 0)
(-2.00499 0.196714 0)
(-1.1901 -0.232024 0)
(-2.03743 0.216686 0)
(-2.06387 -0.127839 0)
(-2.21091 -0.2713 0)
(-1.81519 0.558325 0)
(-1.7061 0.216794 0)
(-1.34721 -0.216121 0)
(-2.16243 0.223403 0)
(-2.09549 0.186714 0)
(-1.37934 0.10677 0)
(-2.14908 -0.0865218 0)
(-1.75016 0.174497 0)
(-2.31755 -0.212257 0)
(-1.86097 0.537674 0)
(-1.88521 -0.0468584 0)
(-1.0839 0.34431 0)
(-1.94635 -0.0617822 0)
(-0.996422 0.0158955 0)
(-1.26007 -0.310752 0)
(-1.97523 0.276232 0)
(-1.9806 0.328005 0)
(-1.27954 -0.0412745 0)
(-1.93192 -0.111432 0)
(-1.11603 0.401868 0)
(-1.0233 0.0652034 0)
(-1.87221 -0.0905922 0)
(-2.03501 -0.0790265 0)
(-1.10341 0.0565553 0)
(-1.18829 0.399141 0)
(-1.96304 -0.0553724 0)
(-1.16692 0.426984 0)
(-1.98682 -0.115034 0)
(-1.07605 0.0831002 0)
(-1.92025 -0.0914195 0)
)
;

boundaryField
{
    insideCircle
    {
        type            myHeatFlux;
        alpha           uniform 1;
        Theta_wall      uniform 4;
        value           nonuniform List<vector> 
12
(
(-4.25981 0.300245 -8.50903e-18)
(-2.53784 -0.531709 -2.42309e-17)
(-4.01055 1.09586 -2.14859e-19)
(-1.96138 -0.777312 1.77339e-17)
(-3.19349 1.44889 0)
(-3.34225 -0.725673 0)
(-2.92487 -1.16885 0)
(-3.64058 0.885661 -0)
(-4.24622 -0.0563117 1.09398e-17)
(-2.51675 0.553101 2.39596e-17)
(-4.09422 -0.795441 -3.05094e-18)
(-1.90307 0.734656 -1.72597e-17)
)
;
    }
    outsideCircle
    {
        type            myHeatFlux;
        alpha           uniform 1;
        Theta_wall      uniform 1;
        value           nonuniform List<vector> 
60
(
(-1.1561 -0.394764 0)
(-1.16173 -0.250538 -0)
(-1.48489 0.503359 0)
(-1.53205 0.39173 0)
(-1.00587 -0.114463 -0)
(-1.61843 0.336126 0)
(-0.982723 -0.307211 0)
(-1.7233 0.315788 0)
(-1.33321 0.406054 0)
(-1.34669 0.599362 0)
(-1.33019 -0.314111 -0)
(-1.35021 -0.426853 0)
(-0.94705 0.267521 0)
(-1.80967 -0.00653284 -0)
(-1.86855 -0.0174395 0)
(-0.87206 -0.0423406 0)
(-1.16772 0.389453 0)
(-1.51008 -0.383915 0)
(-1.49762 -0.299792 -0)
(-1.21961 0.661815 0)
(-1.77907 0.170425 0)
(-0.938192 0.0486137 -0)
(-1.78064 0.16616 0)
(-0.89068 -0.196412 0)
(-1.11116 0.60301 0)
(-1.68572 -0.237736 0)
(-1.02261 0.231069 0)
(-1.67988 -0.213607 -0)
(-1.06248 -0.363101 0)
(-1.64983 0.369166 0)
(-1.53686 0.425518 0)
(-1.07558 -0.19652 -0)
(-1.25135 -0.432445 0)
(-1.43946 0.412049 0)
(-1.24194 -0.300374 -0)
(-1.42841 0.568245 0)
(-0.890431 0.0520502 0)
(-1.8397 -0.0971037 0)
(-0.97927 0.380765 0)
(-1.7862 -0.0845638 -0)
(-0.936027 0.123661 -3.74662e-18)
(-1.75378 -0.165438 -1.79904e-17)
(-1.04066 0.489679 7.68918e-18)
(-1.78785 -0.180485 1.83716e-17)
(-1.80162 0.0746768 0)
(-1.83523 0.0627329 0)
(-0.935444 0.146561 0)
(-0.868999 -0.129546 0)
(-0.92596 -0.260925 -5.09298e-18)
(-1.70686 0.248069 -1.77425e-17)
(-0.96349 -0.0465279 3.04851e-18)
(-1.77748 0.258158 1.8476e-17)
(-1.58234 -0.309896 0)
(-1.59179 -0.261061 -0)
(-1.16242 0.666637 0)
(-1.09462 0.335847 0)
(-1.24603 0.412057 0)
(-1.45556 -0.427132 0)
(-1.2776 0.646492 0)
(-1.42349 -0.317831 -0)
)
;
    }
    topAndBottom
    {
        type            empty;
    }
}


// ************************************************************************* //
