/*--------------------------------*- C++ -*----------------------------------*\
| =========                 |                                                 |
| \\      /  F ield         | foam-extend: Open Source CFD                    |
|  \\    /   O peration     | Version:  3.0                                   |
|   \\  /    A nd           | Web:         http://www.extend-project.de       |
|    \\/     M anipulation  |                                                 |
\*---------------------------------------------------------------------------*/
FoamFile
{
    version     2.0;
    format      ascii;
    class       volScalarField;
    location    "10";
    object      Theta;
}
// * * * * * * * * * * * * * * * * * * * * * * * * * * * * * * * * * * * * * //

dimensions      [0 2 -2 0 0 0 0];

internalField   nonuniform List<scalar> 
728
(
1.96075
0.250508
2.60229
-0.338973
-2.74267
10.2283
2.90002
4.28557
0.109293
5.34455
2.26112
-2.38378
-1.47997
-1.04578
4.14611
3.82403
0.413282
2.86283
-0.938753
1.51742
3.94692
4.54507
-2.58076
-1.69024
9.98493
20.394
-22.9547
-12.2254
1.58225
4.44666
-1.58372
0.906269
3.34076
7.04664
-3.18897
0.110998
2.02509
1.08335
0.174711
0.646288
0.664363
4.53264
1.11466
-1.92483
-0.825818
-1.76106
3.41326
4.52391
-1.51435
-1.78381
4.53676
5.05006
11.4006
-16.947
-8.852
20.9053
0.277544
2.7032
-0.353569
1.91739
0.743236
-1.37796
3.60607
0.941555
2.502
2.12161
-0.532734
0.201462
3.13829
-4.91681
12.6709
-15.0733
3.38779
1.77482
0.205691
-0.911255
0.658738
4.0682
1.75544
-1.53809
1.16425
1.42817
-6.41615
8.95493
-0.0689431
0.518366
1.44163
-2.35119
3.18746
5.04443
3.23988
0.298473
7.13052
-5.87018
-0.415686
0.908251
4.90125
2.02248
-2.91903
0.144453
0.0448599
2.37944
2.77881
-0.224629
3.10295
-1.09906
3.46784
-0.416662
0.559288
3.5519
1.8505
0.529381
1.09694
1.96605
0.678658
0.0326981
0.390173
2.34554
2.57822
-0.172547
-0.265168
2.95045
-0.608593
2.60824
0.103602
-0.509283
1.66768
2.57152
-1.07333
3.80943
-0.715506
3.07308
0.286322
3.40896
-0.635832
2.07503
0.896827
0.625977
0.965072
1.2865
5.47268
5.60466
-5.49316
-5.05415
2.22539
3.75637
0.0255018
-1.48247
-0.32801
4.66734
-1.79991
2.17023
2.41012
-0.234063
2.44671
-0.0551656
0.97106
-1.78527
1.44408
4.52064
-1.44336
8.585
6.77151
-2.45993
-1.19321
-5.5203
6.61975
2.25294
3.20504
-0.0121889
-0.828071
2.34916
-0.820489
3.4399
-0.840134
3.21825
-0.430514
2.28159
0.0333964
2.18636
3.67007
-2.18404
2.72033
-1.47201
-11.3763
-8.93213
9.67121
12.0571
3.28336
4.59542
-1.02418
-2.02466
2.52457
-2.02873
4.81586
0.0142238
1.16096
-0.844514
2.75231
1.41857
0.314874
-0.0491888
2.33703
1.30464
1.82865
-0.827896
0.420034
3.19148
1.01608
-0.657986
3.78844
1.212
-0.313476
2.34951
0.403849
1.18195
-7.0041
-5.84168
7.15238
8.4757
0.452527
-1.48909
3.77085
1.71852
1.29419
0.704602
4.76741
-2.63979
2.98226
-0.186868
2.73446
-0.710753
1.05201
4.07301
1.17874
-1.71545
3.56183
3.40404
-1.02157
-1.20256
4.05406
0.790602
6.74138
-1.75834
-6.66006
-25.8162
3.33956
25.9353
-0.146424
0.604056
2.18363
0.740467
24.7054
4.56596
-23.0354
-4.96715
0.272455
-1.10691
2.09514
3.89567
-2.33644
1.57398
4.39914
0.298131
-0.753469
-1.53754
4.35004
3.29361
3.38055
0.0413209
-2.83463
6.51464
2.49103
1.27854
0.933406
-0.158772
2.74339
2.68402
-0.536772
-0.393344
2.79397
4.73045
-0.260686
-2.16442
0.983559
4.64112
-1.91115
1.42991
3.68824
2.27281
-0.0273525
-1.74031
0.0742322
2.57638
-0.324386
2.1153
-0.973198
0.387475
2.75623
1.36105
-0.41888
-1.1719
3.88793
2.65082
-3.29237
3.58972
6.99293
-6.84195
-0.443006
4.18212
-1.72712
2.63365
10.1661
-5.8004
9.46513
-4.39488
-1.63639
3.52651
-1.18682
3.37253
-10.1848
2.99883
-1.25571
12.9299
-0.769473
2.05854
-3.10442
4.52122
3.49511
3.56837
1.48591
-2.30461
3.60745
-0.95666
3.96944
-1.21948
-9.8374
13.0876
-1.73017
4.35539
0.590356
3.49132
-1.24815
1.41043
-1.98534
-1.6821
3.93545
3.27128
2.343
5.15799
-0.0680836
-2.29612
2.0721
0.0481808
4.67856
-2.44355
-0.737776
-1.15878
2.81353
3.93319
2.44084
4.68949
-0.171918
-2.24801
2.18485
4.05189
0.553868
0.52339
8.34826
1.4833
-5.11001
1.06503
-2.12854
-4.70258
6.82992
4.31568
-0.0557628
-1.14185
2.06398
3.80337
3.38299
0.108785
-0.401231
2.4212
0.835959
1.94762
0.11013
0.728336
1.43745
3.44302
0.845416
-1.19213
0.638635
-0.390054
1.67451
3.52468
1.72196
7.82223
1.75348
-3.90352
-1.54222
5.68632
2.80245
5.6596
3.44847
4.49606
1.98747
0.920159
0.464111
1.37477
2.06184
-0.24398
0.780247
1.26886
3.78536
-1.64722
-3.01061
4.69662
-3.11347
4.35355
1.61598
-1.01544
0.843377
3.87508
1.22556
1.95442
0.754365
0.0742622
0.960216
0.686734
1.88874
0.167725
2.00902
-0.763373
3.05524
0.213109
1.0194
2.10118
0.122062
0.593826
2.87706
-0.0773569
-0.0267328
2.41388
-1.53947
4.35762
4.58391
-1.32999
-2.7292
1.44913
0.953861
5.2839
1.58716
-0.426335
-0.363104
2.68472
2.48344
-0.0159564
-1.40213
3.65107
-1.50177
0.356619
4.41108
1.96329
2.46338
5.90785
0.579742
-2.83443
-2.08478
5.13129
1.67596
0.903883
3.95542
5.06043
-1.12102
-2.04748
0.0902767
0.0911384
3.43833
0.643139
-1.35075
-1.06798
3.64481
3.47038
0.965976
2.75387
1.23334
-0.638372
-1.21445
3.19938
2.24507
-0.224286
4.84072
0.251699
1.02924
-3.67767
-2.62639
-1.38813
4.25478
5.1406
0.406279
-0.497948
1.58913
2.70189
11.2531
6.24389
-6.33182
-1.21389
-3.50055
2.82608
6.18408
-0.170696
-3.42003
5.1005
7.15204
-1.25457
-0.54435
2.86164
1.14512
1.26919
-2.15536
-1.1267
5.27885
3.31578
5.91383
1.64455
-3.02103
1.14438
1.59826
3.12036
0.970188
-0.444815
0.303864
-0.0225259
1.88799
2.47291
-0.871491
3.10068
3.44201
-1.00642
4.0218
2.27503
-1.35149
-0.157626
-0.693248
2.44183
-0.340533
3.01799
-1.66571
4.34952
4.74756
-2.2124
1.28421
5.63166
0.900412
-3.39537
2.36117
-0.385102
0.655916
0.547494
2.65784
1.32978
-4.89394
8.11491
-8.1693
6.20239
-12.9089
12.3176
1.84101
-0.899373
3.69276
-0.110543
0.293911
0.329462
2.05364
0.771189
2.76779
-3.63946
-0.636791
5.6046
5.12287
-2.02839
-0.857717
3.96456
0.472316
0.429278
2.68367
-1.23999
1.39537
-0.245966
2.50809
0.780076
3.24981
0.499204
4.3627
2.59526
2.76936
6.86053
0.519469
-3.60972
0.410131
1.56444
-0.152852
2.47243
0.0414875
2.43879
2.29659
-0.289602
2.4252
4.50059
0.0823317
-2.06933
-0.878902
0.671504
3.1111
1.58111
5.57452
-1.72892
-2.46542
5.30041
4.27119
1.99344
-0.410227
-2.7265
-0.139125
0.6001
1.24658
2.38025
-2.21343
-1.77444
5.48107
4.26322
-5.60508
7.0774
-7.06356
6.07434
0.358229
6.4643
-3.31855
3.30866
2.29904
5.31481
-2.68447
-0.115673
18.8125
-13.7517
-21.5048
12.7062
2.53041
2.29948
-0.258754
-0.318717
5.03899
6.10707
-2.33648
-1.02854
3.85493
5.07919
-4.72023
-3.32685
0.194157
1.99299
-0.693832
2.92022
3.13052
1.57319
-1.40952
0.206195
0.0577888
1.75924
-0.032846
2.4139
1.30679
-0.581785
0.808638
3.36405
2.747
3.31101
-0.840229
-0.440005
0.769053
1.56046
3.45148
-0.759859
1.24089
0.231372
-5.15426
6.58616
-3.52947
1.59849
6.93
1.37916
1.45425
-1.5239
0.994164
4.41064
-1.13258
2.74096
3.67288
-2.3264
2.06775
5.54295
-2.408
0.772434
-3.36663
1.0016
7.28924
2.54646
-2.09097
1.83445
4.48961
0.584685
2.7016
-1.19189
3.75206
-0.217141
2.3784
1.13001
0.635584
-0.100662
3.82154
0.765461
1.35208
-1.31584
1.43813
2.94646
0.514423
-0.709972
)
;

boundaryField
{
    insideCircle
    {
        type            myTemperature;
        value           nonuniform List<scalar> 
12
(
3.18749
5.1557
3.27526
0.413004
-0.697087
1.53787
-0.821701
7.07085
3.92773
3.92473
1.65133
1.36671
)
;
    }
    outsideCircle
    {
        type            myTemperature;
        value           nonuniform List<scalar> 
60
(
1.96074
0.157158
2.51948
-0.498239
1.16189
5.44319
2.04337
1.64655
0.0229008
2.49646
-0.302194
2.55378
1.26505
-0.258588
2.52171
0.367731
0.25042
2.6829
-0.468026
1.94563
-0.267645
1.41444
2.65857
1.30691
-0.475447
1.84769
-0.839826
1.58582
1.84409
-0.109694
2.48413
0.430334
2.91215
-0.200156
0.438853
2.26355
0.486987
2.62065
1.64566
-0.529557
0.52793
-0.473217
1.50721
2.63019
-0.694719
2.53037
0.953882
1.00788
1.44661
2.4578
0.43257
-0.681113
5.0942
-1.35399
0.854286
1.91888
-0.236606
2.37632
2.20883
-0.197774
)
;
    }
    topAndBottom
    {
        type            empty;
    }
}


// ************************************************************************* //
