/*--------------------------------*- C++ -*----------------------------------*\
| =========                 |                                                 |
| \\      /  F ield         | foam-extend: Open Source CFD                    |
|  \\    /   O peration     | Version:  3.0                                   |
|   \\  /    A nd           | Web:         http://www.extend-project.de       |
|    \\/     M anipulation  |                                                 |
\*---------------------------------------------------------------------------*/
FoamFile
{
    version     2.0;
    format      ascii;
    class       volSymmTensorField;
    location    "5";
    object      sigma;
}
// * * * * * * * * * * * * * * * * * * * * * * * * * * * * * * * * * * * * * //

dimensions      [0 0 0 0 0 0 0];

internalField   nonuniform List<symmTensor> 
480
(
(-0.171551 -0.0126515 2.08315e-20 0.172333 -4.84775e-21 -0.00078167)
(-0.154205 -0.0144009 1.02973e-19 0.156105 -3.79941e-20 -0.00190014)
(-0.131841 -0.0138582 9.50563e-20 0.134645 1.91883e-19 -0.00280457)
(-0.110117 -0.0125877 -9.42355e-20 0.113639 1.45028e-19 -0.00352213)
(-0.090782 -0.011166 9.82846e-20 0.0948317 -1.97353e-19 -0.00404978)
(-0.0742612 -0.00983457 3.84035e-19 0.0786008 -7.00999e-20 -0.00433961)
(-0.0605812 -0.00866909 3.65485e-19 0.0649111 -1.64746e-19 -0.00432988)
(-0.049895 -0.00775705 1.49347e-20 0.0538019 -9.54415e-21 -0.00390697)
(-0.0421295 -0.00707708 4.50405e-19 0.0450737 -6.70206e-19 -0.00294422)
(-0.0378152 -0.00691643 5.24321e-20 0.0390599 -1.7253e-19 -0.00124463)
(-0.167002 -0.0373527 -2.41178e-21 0.167781 -1.35786e-20 -0.000779293)
(-0.147219 -0.0415441 1.63243e-19 0.149114 -1.22297e-19 -0.00189497)
(-0.124433 -0.0393865 3.6025e-19 0.12723 -1.96768e-19 -0.00279707)
(-0.103023 -0.035243 -4.42176e-20 0.106535 -1.64199e-19 -0.00351204)
(-0.0842501 -0.0307195 -2.41108e-19 0.0882867 -1.96689e-19 -0.00403661)
(-0.0683188 -0.0264793 2.10208e-19 0.0726419 7.32675e-21 -0.00432307)
(-0.0551828 -0.0227277 3.2806e-19 0.0594932 -2.01262e-19 -0.00431038)
(-0.0449113 -0.019686 8.82991e-20 0.0487977 -1.50341e-19 -0.00388636)
(-0.0374541 -0.0172944 -5.6108e-19 0.0403803 -4.77492e-19 -0.00292621)
(-0.0331527 -0.0161266 1.19859e-19 0.0343884 2.85718e-19 -0.00123569)
(-0.158226 -0.0604031 -5.8719e-20 0.15899 -5.02328e-20 -0.000763531)
(-0.134075 -0.0654614 -7.3976e-21 0.135932 -2.7091e-19 -0.0018565)
(-0.110618 -0.0612992 2.32098e-20 0.113357 -2.36554e-19 -0.00273902)
(-0.0898867 -0.0543426 -1.49594e-19 0.0933239 -2.39394e-20 -0.00343717)
(-0.0722429 -0.0469428 -1.9617e-19 0.0761904 3.84444e-19 -0.00394753)
(-0.0574903 -0.0400555 3.78099e-19 0.0617143 1.62103e-19 -0.00422406)
(-0.0454492 -0.0339794 8.29607e-20 0.0496567 -1.99895e-20 -0.00420755)
(-0.0360487 -0.0290268 -1.69677e-19 0.0398384 -1.24466e-19 -0.00378976)
(-0.0292752 -0.025128 -1.74321e-19 0.0321254 6.27951e-19 -0.00285019)
(-0.0252117 -0.0230085 6.42507e-19 0.0264135 -4.79011e-19 -0.00120183)
(-0.145913 -0.0809199 -1.74088e-19 0.146647 -1.80995e-20 -0.000733781)
(-0.116267 -0.0844997 -4.39701e-19 0.118051 2.34158e-19 -0.00178398)
(-0.0921002 -0.0777622 3.67994e-20 0.0947308 3.47036e-19 -0.0026306)
(-0.0723905 -0.0680944 2.54781e-19 0.0756892 3.09494e-19 -0.00329866)
(-0.0563362 -0.0581685 7.92825e-20 0.0601209 4.4676e-19 -0.00378471)
(-0.0432245 -0.0490393 1.36794e-19 0.0472698 -9.76553e-20 -0.00404529)
(-0.0327012 -0.0410389 2.55689e-19 0.0367256 -7.23924e-20 -0.00402435)
(-0.0245287 -0.0345131 3.86037e-19 0.0281487 1.33031e-20 -0.00361998)
(-0.018727 -0.0294217 2.12213e-19 0.0214458 -6.1448e-19 -0.00271873)
(-0.0150837 -0.0265388 -9.22187e-19 0.0162284 1.03506e-19 -0.00114467)
(-0.13096 -0.0983276 3.51759e-20 0.131651 -2.21124e-20 -0.000690729)
(-0.0957449 -0.0976778 -3.58559e-19 0.097424 5.92931e-19 -0.00167908)
(-0.0711065 -0.0877071 -2.69605e-19 0.0735807 6.34528e-19 -0.00247421)
(-0.0527446 -0.0754639 -1.16787e-20 0.0558443 4.43454e-19 -0.00309966)
(-0.0386104 -0.06344 4.42628e-19 0.0421623 -1.1573e-19 -0.00355192)
(-0.0274453 -0.0525631 3.8092e-20 0.0312363 -5.36245e-19 -0.00379097)
(-0.018705 -0.0431186 5.10712e-19 0.02247 -9.09701e-19 -0.00376498)
(-0.0119794 -0.035417 -2.63642e-19 0.01536 -7.28803e-19 -0.00338066)
(-0.00731352 -0.0294597 -2.04812e-19 0.00984732 -7.07515e-19 -0.0025338)
(-0.00421062 -0.0259717 5.19985e-19 0.00527501 3.14079e-19 -0.0010644)
(-0.11433 -0.112403 8.49858e-20 0.114965 1.72388e-19 -0.000635326)
(-0.0746265 -0.104802 3.74593e-19 0.0761706 4.06098e-19 -0.00154415)
(-0.0500628 -0.0909681 3.40561e-19 0.0523363 3.29975e-19 -0.00227353)
(-0.0333574 -0.0763087 2.09088e-19 0.0362023 -4.81778e-20 -0.00284496)
(-0.0213342 -0.0626332 -3.57304e-20 0.0245892 -7.72026e-19 -0.00325497)
(-0.0122497 -0.0505172 -5.46019e-19 0.0157175 -1.13029e-18 -0.00346778)
(-0.00538708 -0.0401224 -1.13325e-18 0.00882399 -5.46591e-19 -0.00343691)
(-0.000182474 -0.0316533 1.52214e-19 0.00326199 -4.37582e-19 -0.00307952)
(0.00329897 -0.0251643 -1.12786e-18 -0.000996164 -2.76738e-19 -0.00230281)
(0.00577827 -0.0212144 4.7481e-19 -0.0048132 -3.88412e-19 -0.000965065)
(-0.0969179 -0.123256 -3.01886e-20 0.0974867 2.4364e-19 -0.000568797)
(-0.0548857 -0.106463 6.47736e-19 0.0562679 4.19332e-20 -0.0013822)
(-0.0312348 -0.0882867 8.98553e-19 0.0332678 -3.07423e-19 -0.00203303)
(-0.016483 -0.0713939 7.12566e-19 0.0190234 -8.06288e-19 -0.00254039)
(-0.00663422 -0.0564865 -3.69358e-19 0.0095351 -9.47301e-19 -0.00290088)
(0.000392211 -0.0435989 -9.87571e-19 0.00269141 -5.64608e-19 -0.00308362)
(0.00543968 -0.0326999 -1.24729e-18 -0.00239132 2.6623e-19 -0.00304836)
(0.00917727 -0.0238221 -6.56647e-19 -0.00645296 -3.65713e-19 -0.00272431)
(0.0115572 -0.0170742 -1.59671e-18 -0.00952541 3.36685e-19 -0.00203175)
(0.0134673 -0.0127638 2.40465e-19 -0.0126182 -1.40581e-19 -0.000849144)
(-0.0794287 -0.13126 1.04397e-19 0.0799212 -1.94084e-20 -0.000492531)
(-0.0380689 -0.103907 3.08589e-19 0.0392656 -2.3682e-19 -0.00119663)
(-0.016401 -0.0811745 2.53791e-19 0.0181589 -4.39274e-19 -0.00175789)
(-0.00389794 -0.0622589 -4.63382e-20 0.00609058 -5.27116e-19 -0.00219264)
(0.00380249 -0.046473 -6.27683e-19 -0.00130489 -2.23782e-19 -0.00249761)
(0.00890545 -0.0331892 -6.16027e-19 -0.00625815 8.03963e-20 -0.0026473)
(0.0123129 -0.0221289 -4.89752e-19 -0.00970454 1.62571e-19 -0.00260833)
(0.0147342 -0.0131129 -5.35941e-19 -0.0124111 1.96386e-19 -0.0023231)
(0.0161739 -0.00628724 -2.99851e-19 -0.0144476 -8.46305e-20 -0.00172627)
(0.0175373 -0.00168256 -1.1249e-18 -0.0168186 1.29182e-19 -0.000718703)
(-0.0623054 -0.136943 -2.43209e-20 0.0627135 -7.36264e-20 -0.000408103)
(-0.0250843 -0.0988134 -2.50547e-19 0.0260756 -1.7213e-19 -0.000991275)
(-0.00659738 -0.0716625 -4.63388e-19 0.00805128 -1.15811e-19 -0.0014539)
(0.00336383 -0.050971 -3.69184e-19 -0.0015546 6.83522e-20 -0.00180923)
(0.00899243 -0.0345708 2.84495e-20 -0.00693828 5.67451e-20 -0.00205415)
(0.0123704 -0.0211385 -3.63734e-19 -0.0102016 3.52571e-20 -0.00216882)
(0.014371 -0.0101268 -2.78979e-19 -0.0122438 6.02029e-20 -0.00212719)
(0.0156695 -0.00114437 -2.86632e-19 -0.0137839 2.10512e-19 -0.00188558)
(0.0163501 0.00564506 -2.17934e-20 -0.0149561 -7.80584e-20 -0.00139401)
(0.0172053 0.0104525 -5.92435e-19 -0.016628 3.13251e-19 -0.000577315)
(-0.0457072 -0.140857 -4.27918e-20 0.0460244 -5.13018e-20 -0.000317152)
(-0.0160951 -0.0930124 -1.31524e-19 0.0168653 -1.76106e-19 -0.000770178)
(-0.00198233 -0.061977 -6.89591e-19 0.00310945 -3.39732e-20 -0.00112712)
(0.00515258 -0.0398095 -6.12292e-19 -0.00375468 1.58944e-19 -0.0013979)
(0.00879502 -0.0229771 -3.71956e-19 -0.00721542 2.16942e-19 -0.0015796)
(0.0106575 -0.0095237 1.41043e-20 -0.0089994 1.4031e-19 -0.00165814)
(0.0114877 0.00135567 -2.82798e-19 -0.00987273 1.3846e-19 -0.00161499)
(0.0118509 0.0102378 5.90831e-20 -0.0104301 3.69468e-19 -0.00142076)
(0.0119145 0.0169777 6.10716e-19 -0.0108732 4.10995e-20 -0.00104135)
(0.0122642 0.0219279 -9.46436e-20 -0.011837 -4.70516e-20 -0.00042717)
(-0.0295432 -0.143468 -4.66758e-20 0.0297647 -3.23403e-20 -0.000221433)
(-0.0105333 -0.088181 -7.90716e-20 0.0110709 -1.14243e-19 -0.000537611)
(-0.00183696 -0.0541855 -3.48349e-19 0.00262093 -1.28835e-20 -0.000783967)
(0.00220966 -0.0309068 -2.3738e-19 -0.00124271 1.22968e-19 -0.000966952)
(0.00392164 -0.0137604 -2.3385e-19 -0.00283779 1.17576e-19 -0.00108385)
(0.00443288 -0.000308586 -3.90627e-19 -0.00330653 8.87835e-20 -0.00112635)
(0.0042784 0.0104625 -3.71948e-19 -0.00319488 1.92199e-19 -0.00108352)
(0.00385182 0.0192633 -5.35346e-20 -0.00291162 3.27008e-19 -0.000940201)
(0.00338533 0.0259958 4.71393e-19 -0.00270703 6.79304e-20 -0.000678301)
(0.00321053 0.0309918 -2.90226e-20 -0.0029372 -2.87018e-20 -0.000273333)
(-0.0135487 -0.145056 -6.4788e-20 0.0136714 -1.59412e-20 -0.00012269)
(-0.00722696 -0.0855753 -1.13698e-19 0.0075248 -7.64249e-20 -0.000297842)
(-0.00469894 -0.0498714 -2.52673e-19 0.00512972 -1.45467e-20 -0.000430781)
(-0.00395473 -0.0259169 -3.365e-19 0.00447909 1.13233e-19 -0.000524362)
(-0.00416641 -0.0085416 -3.20892e-19 0.00474253 1.07845e-19 -0.00057612)
(-0.00492074 0.00495347 -3.07901e-19 0.00550408 9.4434e-20 -0.000583341)
(-0.00596253 0.0157118 -1.28793e-19 0.00650511 1.7272e-19 -0.000542582)
(-0.0071099 0.0245061 -6.85955e-20 0.00756242 2.77081e-19 -0.000452524)
(-0.00809254 0.0313163 3.42156e-19 0.00840338 1.20024e-19 -0.000310841)
(-0.00876558 0.0363296 1.6445e-19 0.00888327 -3.71021e-20 -0.000117691)
(0.00261193 -0.145678 -6.06583e-20 -0.00258924 -2.98793e-21 -2.26907e-05)
(-0.00461993 -0.0858341 -1.79627e-19 0.0046751 -6.07472e-20 -5.51704e-05)
(-0.00861231 -0.049889 -1.34389e-19 0.00868626 -2.25323e-20 -7.39478e-05)
(-0.011309 -0.0257603 -2.72712e-19 0.0113873 1.1059e-19 -7.82471e-05)
(-0.0134921 -0.00824649 -3.74176e-19 0.013558 1.09327e-19 -6.58852e-05)
(-0.015521 0.00535572 -2.53301e-19 0.0155604 7.58831e-20 -3.9478e-05)
(-0.0174575 0.0162229 3.692e-20 0.0174604 1.21636e-19 -2.83882e-06)
(-0.019342 0.0251106 -1.203e-19 0.0193098 2.15046e-19 3.22641e-05)
(-0.0209094 0.0320796 1.4146e-19 0.0208564 1.07047e-19 5.29783e-05)
(-0.0220762 0.0370766 2.00657e-19 0.0220403 -3.31392e-20 3.58509e-05)
(0.0192356 -0.145163 -7.51233e-20 -0.0193125 1.41256e-20 7.68507e-05)
(-0.00104913 -0.0888836 -2.236e-19 0.000862877 -4.95207e-20 0.000186258)
(-0.0114523 -0.0542285 1.62597e-20 0.0111718 -3.9665e-20 0.000280472)
(-0.0176264 -0.0304741 2.4951e-21 0.0172625 1.08497e-19 0.000363897)
(-0.0218721 -0.0129502 -4.88086e-19 0.0214337 1.00862e-19 0.000438424)
(-0.0252749 0.000791905 -2.801e-19 0.0247784 5.61907e-20 0.000496477)
(-0.0282127 0.0118549 -1.87907e-19 0.0276853 5.19864e-20 0.000527394)
(-0.0309288 0.0209043 2.49085e-19 0.0304216 1.52833e-19 0.000507156)
(-0.0332079 0.0280667 -3.63522e-19 0.0327994 6.59885e-20 0.000408521)
(-0.034906 0.0330583 7.70145e-20 0.0347202 2.18496e-21 0.00018579)
(0.0364877 -0.143159 -2.37008e-20 -0.036662 5.17046e-20 0.000174302)
(0.00496721 -0.0939572 -2.65531e-19 -0.00538969 -7.00736e-21 0.000422474)
(-0.0112738 -0.0620203 -3.63619e-19 0.0106472 -8.76686e-20 0.000626667)
(-0.0208415 -0.0392045 -2.44047e-19 0.0200466 1.66517e-20 0.000794842)
(-0.0272611 -0.0218602 -3.53113e-19 0.0263325 7.16431e-20 0.000928601)
(-0.0322064 -0.00801595 -5.52468e-20 0.0311906 6.00089e-20 0.00101585)
(-0.0363289 0.00325957 -1.32458e-19 0.0352894 5.86536e-20 0.00103954)
(-0.040026 0.0124832 -7.45432e-21 0.0390616 5.74781e-20 0.000964423)
(-0.0431599 0.0198115 -1.66769e-19 0.0424101 -4.57032e-20 0.00074971)
(-0.0454272 0.0247453 3.77729e-19 0.0450981 2.30287e-20 0.000329101)
(0.0543376 -0.139213 -3.35886e-20 -0.0546057 6.68847e-20 0.000268091)
(0.0144726 -0.0997245 -4.32155e-19 -0.0151223 -3.37217e-20 0.000649719)
(-0.00663326 -0.0716703 -9.98769e-20 0.00567405 -1.06145e-19 0.000959214)
(-0.0193837 -0.0503316 1.64328e-19 0.0181757 -1.8063e-20 0.00120798)
(-0.0280755 -0.0334244 2.13367e-19 0.0266782 2.25441e-19 0.00139733)
(-0.0347606 -0.0196106 -2.35519e-19 0.0332494 1.78108e-19 0.00151115)
(-0.0402858 -0.00821285 -2.49758e-19 0.0387592 -8.43474e-20 0.00152665)
(-0.0451327 0.00110133 5.89993e-20 0.0437343 -1.25131e-19 0.00139839)
(-0.0492599 0.00848087 5.82775e-20 0.0481868 1.43937e-20 0.0010731)
(-0.0521531 0.0133121 -6.73559e-19 0.0516883 1.06466e-19 0.000464809)
(0.072534 -0.132859 5.75769e-20 -0.0728908 -3.0483e-20 0.000356818)
(0.0278868 -0.104508 2.72997e-19 -0.0287514 1.31123e-19 0.000864587)
(0.00316954 -0.0811117 2.24604e-19 -0.00444274 1.48902e-19 0.0012732)
(-0.012436 -0.0617245 1.07177e-19 0.0108387 1.16435e-19 0.00159729)
(-0.0234504 -0.0455773 1.05241e-19 0.0216125 1.84112e-19 0.00183793)
(-0.032056 -0.0320321 -5.25689e-19 0.0300806 2.39313e-19 0.00197547)
(-0.0391913 -0.0207154 -7.91857e-19 0.0372093 -3.32245e-19 0.00198201)
(-0.0453477 -0.0114855 -4.01235e-19 0.0435446 1.96369e-19 0.00180314)
(-0.0505521 -0.00425659 -1.44866e-18 0.0491777 -6.26292e-19 0.00137437)
(-0.054015 0.000338141 9.00626e-19 0.0534238 3.56685e-20 0.000591186)
(0.0906191 -0.123714 -9.76516e-20 -0.0910582 -3.10654e-19 0.000439125)
(0.0449176 -0.106553 5.47916e-19 -0.0459815 -1.28982e-19 0.00106387)
(0.0179587 -0.0881297 6.08113e-19 -0.0195228 8.51369e-20 0.00156403)
(-8.68292e-05 -0.0710698 4.36841e-19 -0.00187043 4.1539e-19 0.00195726)
(-0.0134052 -0.0560515 -4.82626e-19 0.0111609 3.49934e-19 0.00224429)
(-0.0240583 -0.0431086 -8.80265e-19 0.0216558 5.32281e-19 0.00240245)
(-0.0329573 -0.0321741 -1.52011e-18 0.0305581 -2.51065e-20 0.00239925)
(-0.0405331 -0.0232819 -1.44219e-19 0.0383605 -1.15205e-19 0.00217257)
(-0.0468317 -0.0164409 -1.21628e-18 0.0451837 2.39734e-19 0.00164799)
(-0.0508359 -0.0121772 -4.38766e-19 0.0501305 -6.36426e-19 0.000705375)
(0.107975 -0.111547 -1.64905e-20 -0.108489 -1.95355e-19 0.000513897)
(0.0645825 -0.104308 3.99984e-20 -0.0658274 -4.52363e-19 0.00124484)
(0.0366901 -0.090709 -5.60177e-20 -0.0385179 -5.3848e-19 0.00182786)
(0.0166701 -0.0762315 -1.43173e-19 -0.0189534 -1.99044e-19 0.00228326)
(0.00115706 -0.0627273 -6.00277e-19 -0.00376854 3.0657e-19 0.00261148)
(-0.0115731 -0.0507827 -4.6401e-19 0.00878591 4.48446e-19 0.00278718)
(-0.0222989 -0.0405984 2.08798e-19 0.019525 8.02011e-19 0.00277391)
(-0.0313377 -0.0323583 -3.93322e-19 0.0288347 4.41875e-19 0.002503)
(-0.0387023 -0.0261872 -4.12576e-19 0.0368107 1.08038e-18 0.00189164)
(-0.0432437 -0.0224133 -5.36982e-19 0.0424369 -6.77603e-19 0.000806811)
(0.123895 -0.0963308 -1.10768e-20 -0.124475 3.42875e-20 0.00058003)
(0.0853359 -0.0966765 -5.47894e-19 -0.0867409 -3.24149e-19 0.00140493)
(0.0575892 -0.0873602 -8.8675e-19 -0.0596502 -6.84593e-19 0.00206105)
(0.0360667 -0.0756019 -6.07101e-19 -0.0386377 -5.87967e-19 0.00257103)
(0.0185637 -0.0639937 1.2052e-19 -0.0214986 1.78666e-19 0.00293494)
(0.0038458 -0.0534851 5.44834e-19 -0.00697097 3.64315e-19 0.00312517)
(-0.00865863 -0.0444636 6.1073e-19 0.0055568 4.79038e-19 0.00310183)
(-0.0191229 -0.0372093 4.47941e-19 0.016332 3.70071e-19 0.00279086)
(-0.0274798 -0.0319401 4.71875e-19 0.0253774 1.26018e-18 0.00210239)
(-0.032542 -0.0287707 -9.75329e-19 0.0316482 1.19501e-19 0.000893737)
(0.137654 -0.0782597 -1.57518e-19 -0.138291 4.53909e-20 0.000636696)
(0.105279 -0.0832011 -5.65599e-19 -0.106821 1.28023e-19 0.00154211)
(0.0784 -0.0773603 -6.17462e-19 -0.0806608 -1.36208e-19 0.00226078)
(0.055809 -0.068353 1.99309e-19 -0.0586263 -2.47038e-19 0.0028173)
(0.0366053 -0.0589861 8.3097e-19 -0.0398167 -8.15975e-21 0.00321141)
(0.0201099 -0.050342 3.52178e-19 -0.0235236 3.04861e-19 0.00341363)
(0.00599902 -0.0428945 2.87389e-19 -0.00938028 -1.00414e-20 0.00338126)
(-0.00574655 -0.0369528 6.94066e-19 0.0027107 2.56285e-19 0.00303585)
(-0.0149595 -0.0327938 3.8274e-19 0.0126777 4.97493e-19 0.00228181)
(-0.0205625 -0.0303879 2.94266e-19 0.0195947 7.65802e-19 0.00096782)
(0.14859 -0.0577356 -2.46328e-20 -0.149273 1.27761e-19 0.000683059)
(0.122424 -0.0641508 -1.72093e-19 -0.124079 5.03292e-19 0.00165445)
(0.0967171 -0.0608833 -3.20697e-19 -0.0991415 5.59867e-19 0.00242436)
(0.0734297 -0.0545858 1.4104e-19 -0.0764486 3.00153e-19 0.00301891)
(0.0528931 -0.047745 2.95749e-19 -0.0563306 -2.50171e-19 0.00343755)
(0.0349528 -0.0413439 4.69048e-19 -0.0386021 -2.66069e-19 0.00364925)
(0.0195286 -0.0358341 2.36442e-19 -0.0231377 -2.31637e-19 0.00360915)
(0.00673587 -0.0314908 1.17487e-18 -0.00997119 -3.38274e-19 0.00323532)
(-0.00312863 -0.0285831 9.59274e-19 0.000700904 1.04759e-19 0.00242773)
(-0.00910656 -0.0270134 -1.1849e-19 0.00807884 2.29766e-19 0.00102772)
(0.156159 -0.0353389 2.54625e-20 -0.156877 8.83695e-20 0.000718566)
(0.134974 -0.0405089 1.29589e-20 -0.136715 2.6201e-19 0.00174056)
(0.110333 -0.0389996 7.81446e-20 -0.112883 5.38562e-19 0.00254984)
(0.0866453 -0.0353399 2.94279e-19 -0.089819 3.25974e-19 0.00317364)
(0.0651993 -0.0312376 9.21562e-20 -0.0688103 1.39359e-19 0.00361107)
(0.0462472 -0.0273767 -1.73724e-19 -0.0500772 -1.38238e-19 0.00382993)
(0.0299045 -0.0240818 2.3383e-19 -0.0336882 3.55069e-20 0.00378369)
(0.0163859 -0.0215407 6.9711e-19 -0.0197737 -3.68126e-19 0.00338777)
(0.00609967 -0.019952 5.7484e-19 -0.00863856 -4.23637e-19 0.00253889)
(-9.89794e-05 -0.0192804 5.49557e-20 -0.000974019 9.67704e-20 0.001073)
(0.159981 -0.0117797 3.18299e-20 -0.160723 3.17299e-20 0.000742656)
(0.141571 -0.0138531 5.48675e-20 -0.143371 4.64084e-20 0.00179916)
(0.117565 -0.0135324 1.43487e-20 -0.1202 2.53881e-19 0.00263542)
(0.0937063 -0.0124427 2.17235e-20 -0.0969856 1.06499e-20 0.00327929)
(0.071808 -0.0112033 1.56245e-19 -0.0755375 -1.00429e-19 0.00372957)
(0.0523448 -0.0100657 2.83404e-19 -0.0562979 1.57591e-19 0.00395311)
(0.0355438 -0.0091573 3.99629e-19 -0.039446 2.69385e-19 0.00390221)
(0.0216759 -0.00854683 4.54462e-19 -0.0251664 -1.24475e-19 0.00349056)
(0.0112223 -0.00831489 6.4142e-19 -0.0138353 -2.88064e-19 0.00261295)
(0.00500391 -0.00852989 4.44381e-20 -0.00610639 1.67204e-19 0.00110249)
(0.159867 0.0121543 2.33553e-20 -0.160622 -4.3988e-21 0.000755036)
(0.14149 0.013845 1.11826e-19 -0.143319 -3.9134e-20 0.00182948)
(0.117504 0.0131893 1.00789e-19 -0.120184 2.00137e-19 0.00268)
(0.0936648 0.011743 -9.47628e-20 -0.0969994 1.48952e-19 0.00333456)
(0.0717876 0.0100859 1.15649e-19 -0.0755793 -2.21323e-19 0.00379167)
(0.0523513 0.00844615 4.26408e-19 -0.0563688 -8.46917e-20 0.00401744)
(0.0355894 0.00692161 3.869e-19 -0.039553 -1.87981e-19 0.00396354)
(0.0217762 0.00557273 2.35755e-20 -0.025319 -1.50121e-20 0.00354278)
(0.0114048 0.00445366 5.08616e-19 -0.0140542 -7.92916e-19 0.00264943)
(0.00532325 0.00335817 2.72736e-20 -0.00643952 -2.09792e-19 0.00111627)
(0.155831 0.0356543 -1.0812e-21 -0.156586 -1.53416e-20 0.000755434)
(0.134734 0.0404778 1.74476e-19 -0.136565 -1.28593e-19 0.00183093)
(0.110151 0.0386603 3.70888e-19 -0.112834 -2.06528e-19 0.0026827)
(0.0865163 0.0346678 -5.84232e-20 -0.0898547 -1.77431e-19 0.00333838)
(0.06513 0.030172 -2.45796e-19 -0.0689262 -2.18413e-19 0.00379614)
(0.0462548 0.0258339 2.31443e-19 -0.0502765 -2.18821e-21 0.00402167)
(0.0300245 0.0219519 3.6464e-19 -0.033991 -2.37122e-19 0.00396646)
(0.0166654 0.0187022 3.87403e-20 -0.0202087 -1.80977e-19 0.00354336)
(0.00661572 0.0162681 -5.99213e-19 -0.00926324 -5.81636e-19 0.00264752)
(0.000831009 0.0143323 1.50236e-19 -0.00194491 3.14862e-19 0.0011139)
(0.148084 0.0579453 -5.99175e-20 -0.148828 -5.32585e-20 0.000743824)
(0.122041 0.0640784 -2.74445e-21 -0.123844 -2.83215e-19 0.00180336)
(0.0964161 0.0605513 3.04116e-20 -0.0990594 -2.52104e-19 0.00264329)
(0.0732042 0.0539643 -1.56921e-19 -0.0764947 -3.17015e-20 0.00329043)
(0.0527572 0.046774 -1.97248e-19 -0.0564998 4.06959e-19 0.00374264)
(0.0349358 0.0399417 3.8805e-19 -0.0389013 1.71873e-19 0.00396548)
(0.0196855 0.0338963 7.11474e-20 -0.0235963 -3.12319e-20 0.00391076)
(0.00713935 0.0288984 -2.23531e-19 -0.0106316 -1.64925e-19 0.00349228)
(-0.0023656 0.0252158 -1.62309e-19 -0.000241662 6.88542e-19 0.00260726)
(-0.0076669 0.0224825 6.42597e-19 0.00657156 -5.16699e-19 0.00109534)
(0.13702 0.0783369 -1.78052e-19 -0.13774 -2.01103e-20 0.000720243)
(0.104773 0.0830753 -4.36291e-19 -0.10652 2.31239e-19 0.00174689)
(0.0779801 0.0770358 4.68438e-20 -0.080542 3.54106e-19 0.00256187)
(0.0554708 0.0677947 2.60764e-19 -0.0586615 3.21473e-19 0.00319075)
(0.0363687 0.0581357 6.89687e-20 -0.0399999 4.72256e-19 0.00363115)
(0.020014 0.0491226 1.28436e-19 -0.0238628 -1.07701e-19 0.00384884)
(0.00611361 0.0412159 2.51226e-19 -0.00991023 -8.45456e-20 0.00379661)
(-0.00532467 0.0347095 3.776e-19 0.00193463 -2.42973e-21 0.00339004)
(-0.0140811 0.0298927 1.25395e-19 0.0115513 -6.73789e-19 0.00252978)
(-0.0187507 0.0264934 -8.91646e-19 0.0176893 5.74279e-20 0.00106137)
(0.123183 0.0962726 3.12832e-20 -0.123868 -1.98736e-20 0.000684953)
(0.0847314 0.0964946 -3.62624e-19 -0.0863935 6.0265e-19 0.00166207)
(0.0570524 0.0870444 -2.68177e-19 -0.0594916 6.44032e-19 0.00243916)
(0.0356 0.0751154 -2.4567e-21 -0.0386401 4.47527e-19 0.00304009)
(0.0181934 0.0632843 4.47589e-19 -0.0216557 -1.27168e-19 0.0034623)
(0.00362167 0.0524853 2.62912e-20 -0.00729386 -5.71809e-19 0.00367219)
(-0.00865624 0.0430982 5.09188e-19 0.00503203 -9.65606e-19 0.00362421)
(-0.01878 0.0353833 -3.27244e-19 0.0155433 -8.12587e-19 0.00323671)
(-0.0266478 0.029582 -1.51986e-19 0.0242329 -7.92728e-19 0.00241494)
(-0.0306778 0.0256674 4.77084e-19 0.0296659 3.89551e-19 0.00101185)
(0.107229 0.111367 8.76249e-20 -0.107868 1.71251e-19 0.000638324)
(0.0639005 0.104072 3.74123e-19 -0.0654503 4.13162e-19 0.0015498)
(0.0360418 0.0903987 3.42875e-19 -0.0383181 3.31861e-19 0.00227633)
(0.0160655 0.0758107 2.13038e-19 -0.0189052 -5.94777e-20 0.00283968)
(0.000628853 0.0621507 -3.45e-20 -0.00386604 -8.05137e-19 0.00323719)
(-0.011967 0.0499951 -5.70264e-19 0.00853069 -1.18104e-18 0.00343636)
(-0.0224772 0.039544 -1.14668e-18 0.0190833 -5.83146e-19 0.00339396)
(-0.0311816 0.0309674 1.17229e-19 0.0281493 -4.63016e-19 0.00303228)
(-0.038063 0.024416 -1.17095e-18 0.0358003 -2.48405e-19 0.00226269)
(-0.0414605 0.0201649 4.92113e-19 0.0405135 -3.92037e-19 0.000947022)
(0.0898651 0.123437 -2.66702e-20 -0.090446 2.41524e-19 0.000580942)
(0.0441738 0.106272 6.492e-19 -0.0455853 4.38645e-20 0.00141143)
(0.0172026 0.0878218 8.98617e-19 -0.0192778 -3.09743e-19 0.0020752)
(-0.000840735 0.0707048 7.13658e-19 -0.00175083 -8.21796e-19 0.00259156)
(-0.0141223 0.0555927 -3.66022e-19 0.0111646 -9.76288e-19 0.00295775)
(-0.0246759 0.0425155 -9.94224e-19 0.0215331 -5.97963e-19 0.00314283)
(-0.0333924 0.0314097 -1.26058e-18 0.0302859 2.61144e-19 0.00310653)
(-0.0406567 0.0223108 -6.637e-19 0.0378804 -3.70399e-19 0.00277635)
(-0.046509 0.0152542 -1.59367e-18 0.0444377 3.59887e-19 0.00207125)
(-0.0494234 0.0108283 1.80336e-19 0.048558 -1.28138e-19 0.000865476)
(0.0717841 0.132508 1.05188e-19 -0.0722976 -1.76209e-20 0.000513538)
(0.0270936 0.104188 3.12324e-19 -0.0283423 -2.33757e-19 0.00124869)
(0.00231435 0.0808037 2.51602e-19 -0.00415254 -4.3977e-19 0.00183819)
(-0.0133374 0.0614062 -5.18836e-20 0.0110389 -5.48845e-19 0.00229853)
(-0.0243638 0.0452238 -6.14925e-19 0.0217369 -2.71713e-19 0.00262687)
(-0.0329196 0.0316216 -6.04186e-19 0.0301253 3.62627e-20 0.00279436)
(-0.0399239 0.0202268 -4.79269e-19 0.0371596 1.43664e-19 0.0027643)
(-0.0458192 0.0109112 -5.25518e-19 0.0433485 1.58945e-19 0.00247077)
(-0.0506201 0.00360092 -2.61782e-19 0.0487782 -3.89466e-20 0.00184181)
(-0.053012 -0.000865079 -1.12511e-18 0.0522443 8.87555e-20 0.000767689)
(0.0535934 0.138801 -1.90091e-20 -0.0540304 -7.41568e-20 0.000437047)
(0.0136381 0.0993709 -2.35798e-19 -0.0147019 -1.72896e-19 0.0010638)
(-0.00757834 0.0713563 -4.56482e-19 0.00600993 -1.26179e-19 0.00156841)
(-0.0204269 0.0500433 -3.75102e-19 0.0184627 2.34617e-20 0.00196427)
(-0.0291857 0.0331472 2.51835e-20 0.0269372 4.09977e-21 0.00224852)
(-0.0358808 0.0193391 -3.42688e-19 0.0334858 6.42564e-21 0.002395)
(-0.0413382 0.00794621 -2.73003e-19 0.0389669 4.00701e-20 0.00237137)
(-0.0459934 -0.00133533 -2.55271e-19 0.0438737 1.4845e-19 0.00211964)
(-0.0497833 -0.00864644 6.79631e-20 0.0482048 -1.02196e-19 0.0015785)
(-0.0517163 -0.0130454 -5.19673e-19 0.0510603 2.55519e-19 0.000655965)
(0.0357502 0.142688 -3.59248e-20 -0.0361028 -5.46628e-20 0.000352575)
(0.00409938 0.0935703 -1.11367e-19 -0.0049588 -1.78008e-19 0.000859419)
(-0.0122986 0.0616962 -6.62242e-19 0.011029 -4.7153e-20 0.00126965)
(-0.0220189 0.0389353 -5.95689e-19 0.0204256 1.21433e-19 0.00159335)
(-0.0285685 0.0216412 -3.88717e-19 0.0267408 1.70573e-19 0.00182772)
(-0.0335983 0.00785697 -1.09741e-20 0.0316484 1.13155e-19 0.00194995)
(-0.0377336 -0.0033426 -3.04827e-19 0.0358007 1.05126e-19 0.00193281)
(-0.0413254 -0.0124381 1.56896e-20 0.0395978 2.47485e-19 0.00172761)
(-0.0441999 -0.0195905 6.10727e-19 0.0429151 6.81767e-21 0.00128485)
(-0.0457027 -0.0238842 -6.67388e-20 0.045171 -1.09926e-20 0.000531631)
(0.0185127 0.144626 -4.14164e-20 -0.0187741 -3.7068e-20 0.000261397)
(-0.00193957 0.0884598 -6.66003e-20 0.00130096 -1.20544e-19 0.000638607)
(-0.012543 0.0538884 -3.2364e-19 0.0115967 -2.87764e-20 0.000946291)
(-0.0189225 0.0302123 -2.22051e-19 0.0177314 9.72024e-20 0.00119107)
(-0.0233608 0.01277 -2.30093e-19 0.0219905 1.05472e-19 0.0013703)
(-0.0269252 -0.000869191 -4.0114e-19 0.0254601 8.72212e-20 0.00146517)
(-0.0299648 -0.011801 -3.63376e-19 0.0285104 1.55087e-19 0.00145434)
(-0.0326838 -0.0206532 -9.22633e-20 0.0313841 2.28202e-19 0.00129963)
(-0.0348103 -0.0275525 4.14612e-19 0.0338457 2.65164e-20 0.000964628)
(-0.0359908 -0.0317385 -3.42904e-21 0.0355944 -2.93361e-20 0.000396348)
(0.00192271 0.145067 -6.15607e-20 -0.00208769 -1.98507e-20 0.000164972)
(-0.00551834 0.0853684 -1.09182e-19 0.00511347 -8.32134e-20 0.000404868)
(-0.00975423 0.0495251 -2.39688e-19 0.00915082 -2.28125e-20 0.000603408)
(-0.0127079 0.0254909 -3.35923e-19 0.0119443 9.99577e-20 0.000763638)
(-0.0151462 0.00807928 -3.29973e-19 0.0142631 8.71999e-20 0.000883137)
(-0.0174156 -0.00539303 -2.93474e-19 0.0164679 5.95927e-20 0.000947675)
(-0.0195484 -0.0160912 -9.63555e-20 0.0186059 1.3351e-19 0.000942446)
(-0.0215559 -0.0247359 -7.54861e-20 0.0207148 2.07109e-19 0.00084101)
(-0.0231063 -0.0313786 2.95178e-19 0.0224853 5.59849e-20 0.000620978)
(-0.0240566 -0.0355475 1.89902e-19 0.0238054 -5.36994e-21 0.000251156)
(-0.0141743 0.144369 -5.979e-20 0.0141094 -5.49436e-21 6.48706e-05)
(-0.00811358 0.0850633 -1.795e-19 0.00795156 -6.94294e-20 0.000162017)
(-0.00587401 0.0494749 -1.25185e-19 0.00562746 -2.87342e-20 0.000246548)
(-0.00543684 0.0256239 -2.65705e-19 0.00511896 1.09799e-19 0.000317872)
(-0.00596458 0.00836152 -3.93954e-19 0.00559074 9.06493e-20 0.000373837)
(-0.00703832 -0.00499154 -2.65667e-19 0.00663299 3.1871e-20 0.000405333)
(-0.00837549 -0.0155642 9.32545e-21 0.00797086 9.75331e-20 0.000404626)
(-0.00977494 -0.0241007 -1.2387e-19 0.00941681 2.03264e-19 0.000358127)
(-0.0108933 -0.0305484 1.11304e-20 0.0106348 4.62093e-20 0.000258502)
(-0.0116178 -0.0347582 1.54686e-19 0.0115197 -6.44847e-21 9.80324e-05)
(-0.030071 0.142715 -7.63678e-20 0.0301082 1.27531e-20 -3.71656e-05)
(-0.0113858 0.0876216 -2.28592e-19 0.0114715 -6.06951e-20 -8.57461e-05)
(-0.0030252 0.0537457 4.73799e-21 0.00314332 -5.12439e-20 -0.000118124)
(0.000666679 0.0305692 -1.24988e-20 -0.000528153 1.20908e-19 -0.000138526)
(0.00200554 0.0135349 -5.03258e-19 -0.00185673 1.05096e-19 -0.000148812)
(0.00212307 0.000224231 -2.85261e-19 -0.00197055 3.3328e-20 -0.000152518)
(0.00157478 -0.0103553 -2.2153e-19 -0.00142488 1.29944e-20 -0.000149899)
(0.000766211 -0.018896 2.08645e-19 -0.000625481 1.9868e-19 -0.00014073)
(-2.38291e-06 -0.025251 -4.55034e-19 0.000118934 1.05232e-19 -0.000116551)
(-0.000455489 -0.0295426 1.0955e-19 0.00051571 -2.83795e-20 -6.0222e-05)
(-0.046106 0.140065 -2.66374e-20 0.0462454 5.27343e-20 -0.000139356)
(-0.01689 0.0924099 -2.7656e-19 0.0172241 -1.15371e-20 -0.000334067)
(-0.00316024 0.0614845 -3.76206e-19 0.00364443 -9.42867e-20 -0.000484184)
(0.00357751 0.0394058 -2.4852e-19 -0.00298 2.40314e-20 -0.000597507)
(0.00679823 0.0226724 -3.23195e-19 -0.00612267 7.29284e-20 -0.000675565)
(0.00820573 0.00934502 -4.52323e-20 -0.00748974 4.61186e-20 -0.000715985)
(0.00855572 -0.00135631 -1.41618e-19 -0.00784447 6.74777e-20 -0.000711256)
(0.00841697 -0.0100011 -4.56957e-20 -0.00777027 1.11456e-19 -0.000646708)
(0.00799582 -0.0163795 -8.68656e-20 -0.0074982 -5.5985e-20 -0.000497623)
(0.0078256 -0.020711 3.10988e-19 -0.00760452 1.02125e-20 -0.000221082)
(-0.0625558 0.136148 -3.5261e-20 0.0627956 7.08882e-20 -0.000239795)
(-0.0258012 0.0981769 -4.30345e-19 0.0263795 -3.5018e-20 -0.000578325)
(-0.00773964 0.0711074 -9.04508e-20 0.0085844 -1.15512e-19 -0.000844755)
(0.00179028 0.0504755 1.7471e-19 -0.000739951 -2.64887e-20 -0.00105032)
(0.00695938 0.0341438 2.36772e-19 -0.00576321 2.30822e-19 -0.00119618)
(0.00983504 0.0208046 -2.44045e-19 -0.00856125 1.81589e-19 -0.00127379)
(0.0112828 0.00994049 -2.58888e-19 -0.010015 -8.34312e-20 -0.00126776)
(0.0119765 0.00116329 4.17464e-20 -0.0108278 -1.23243e-19 -0.00114876)
(0.01201 -0.00529899 -1.89327e-20 -0.011134 8.71297e-20 -0.000875953)
(0.0121831 -0.00963564 -6.95107e-19 -0.0118024 9.23329e-20 -0.000380703)
(-0.0795285 0.130507 5.93179e-20 0.0798651 -2.69118e-20 -0.000336624)
(-0.0386928 0.10325 2.83352e-19 0.0395068 1.35441e-19 -0.000813958)
(-0.017482 0.0805521 2.3553e-19 0.0186751 1.47602e-19 -0.00119305)
(-0.0054335 0.0616533 1.12797e-19 0.00692188 1.05744e-19 -0.00148837)
(0.00178175 0.0458924 8.83183e-20 -8.11229e-05 1.7112e-19 -0.00170063)
(0.00635133 0.0326559 -5.6118e-19 -0.00453632 2.45312e-19 -0.00181502)
(0.00915668 0.0216932 -8.47444e-19 -0.00734845 -3.34023e-19 -0.00180823)
(0.0109097 0.0128305 -4.87285e-19 -0.00927336 2.58045e-19 -0.00163637)
(0.0115772 0.00627409 -1.49714e-18 -0.0103342 -6.54492e-19 -0.00124297)
(0.0121007 0.00203287 9.71096e-19 -0.0115653 7.88942e-20 -0.000535349)
(-0.0968825 0.122586 -9.77666e-20 0.0973104 -3.12413e-19 -0.000427934)
(-0.0554077 0.105802 5.52708e-19 0.056444 -1.30655e-19 -0.00103632)
(-0.0322271 0.0875966 6.05954e-19 0.0337492 7.87651e-20 -0.00152212)
(-0.0179346 0.0706659 4.19428e-19 0.0198373 4.04497e-19 -0.00190277)
(-0.00857383 0.0557294 -5.18204e-19 0.0107523 3.45158e-19 -0.00217848)