/*--------------------------------*- C++ -*----------------------------------*\
| =========                 |                                                 |
| \\      /  F ield         | foam-extend: Open Source CFD                    |
|  \\    /   O peration     | Version:  3.0                                   |
|   \\  /    A nd           | Web:         http://www.extend-project.de       |
|    \\/     M anipulation  |                                                 |
\*---------------------------------------------------------------------------*/
FoamFile
{
    version     2.0;
    format      ascii;
    class       volVectorField;
    location    "5";
    object      u;
}
// * * * * * * * * * * * * * * * * * * * * * * * * * * * * * * * * * * * * * //

dimensions      [0 0 0 0 0 0 0];

internalField   nonuniform List<vector> 
480
(
(0.294403 -0.109267 -1.77607e-19)
(0.561957 -0.0740553 1.46513e-18)
(0.743038 -0.0528035 -4.18421e-18)
(0.834453 -0.0387 4.05296e-18)
(0.911782 -0.0294273 2.11156e-18)
(0.942384 -0.0231533 -2.33993e-18)
(0.980595 -0.0182172 -1.3564e-17)
(0.983557 -0.0154527 1.01641e-17)
(1.00504 -0.0118847 -8.23178e-18)
(0.991203 -0.0145476 -7.33445e-18)
(0.349562 -0.314783 1.46933e-18)
(0.598648 -0.21039 2.23073e-18)
(0.768533 -0.146695 -2.10948e-17)
(0.852613 -0.104093 -1.84241e-17)
(0.925072 -0.0757297 1.40053e-17)
(0.952474 -0.0562343 3.75141e-18)
(0.988074 -0.0408015 6.39603e-18)
(0.989712 -0.0315709 -2.09435e-17)
(1.00914 -0.0206103 2.57059e-17)
(0.995878 -0.0230622 4.54179e-18)
(0.455728 -0.498907 -3.08109e-18)
(0.669061 -0.332736 2.14945e-18)
(0.817233 -0.231112 1.27631e-17)
(0.887054 -0.162952 1.18127e-17)
(0.949994 -0.117466 2.38835e-17)
(0.971043 -0.0860404 -8.01509e-18)
(1.00143 -0.0612046 2.32517e-18)
(1.00015 -0.0458694 1.034e-18)
(1.01546 -0.0279894 2.74202e-17)
(1.0022 -0.0287151 -4.97738e-17)
(0.605544 -0.649018 4.50636e-19)
(0.768488 -0.432759 3.6739e-17)
(0.885952 -0.300301 1.27807e-17)
(0.935516 -0.21123 -7.46226e-18)
(0.984855 -0.151724 -9.1696e-18)
(0.996682 -0.110398 -1.60579e-18)
(1.0195 -0.0779119 -7.33815e-19)
(1.01365 -0.0574634 -7.93318e-18)
(1.02313 -0.0341407 -4.30308e-17)
(1.00919 -0.0325024 6.37392e-17)
(0.788696 -0.754929 -9.63445e-18)
(0.89018 -0.503721 6.42631e-18)
(0.970174 -0.349643 1.24886e-17)
(0.994959 -0.245691 1.44454e-17)
(1.02768 -0.17614 -1.88099e-17)
(1.02817 -0.127509 -3.60197e-18)
(1.0418 -0.0893859 -1.40529e-17)
(1.03013 -0.0649876 -1.54303e-17)
(1.0325 -0.0377923 4.64675e-17)
(1.01672 -0.0342526 -6.68426e-17)
(0.9925 -0.809424 1.16658e-17)
(1.02591 -0.540768 -1.96397e-17)
(1.06432 -0.375755 -2.21573e-17)
(1.06151 -0.264007 -2.26489e-17)
(1.07564 -0.189172 -4.4175e-18)
(1.06335 -0.136487 -7.43215e-18)
(1.06649 -0.0952977 5.77214e-17)
(1.04804 -0.0683836 -2.84687e-17)
(1.04211 -0.038904 3.14984e-17)
(1.024 -0.0333436 -1.01803e-17)
(1.20295 -0.808912 1.18117e-17)
(1.16647 -0.541383 -1.30489e-17)
(1.16212 -0.376774 -2.39657e-17)
(1.1308 -0.264737 -3.17541e-17)
(1.12566 -0.189616 -4.65259e-19)
(1.09992 -0.13621 1.41581e-17)
(1.0921 -0.0946973 1.10732e-17)
(1.06648 -0.0668554 6.61444e-19)
(1.05214 -0.0374518 2.93288e-17)
(1.03121 -0.0302056 -3.7503e-18)
(1.40554 -0.753543 -6.00262e-18)
(1.30231 -0.505488 -1.07508e-18)
(1.25707 -0.352526 6.23958e-18)
(1.19835 -0.247733 9.37643e-18)
(1.17468 -0.177377 1.37027e-17)
(1.13591 -0.126754 3.14302e-18)
(1.11755 -0.0876711 -8.08205e-18)
(1.08467 -0.0605868 7.81121e-18)
(1.06183 -0.0330846 -3.13295e-17)
(1.0361 -0.024065 4.97085e-17)
(1.58638 -0.647261 1.50098e-18)
(1.42419 -0.435498 9.82625e-18)
(1.34273 -0.304519 1.53782e-17)
(1.25959 -0.213969 7.04302e-18)
(1.21932 -0.153129 -1.23558e-17)
(1.16861 -0.108707 1.89705e-19)
(1.1406 -0.0748583 -6.99988e-19)
(1.10059 -0.0505349 3.21362e-18)
(1.06992 -0.0271268 -3.02717e-18)
(1.03828 -0.0168148 9.75758e-18)
(1.73308 -0.497468 1.2292e-18)
(1.52378 -0.336125 -5.09926e-19)
(1.4133 -0.235851 1.15267e-17)
(1.31042 -0.165513 8.67868e-18)
(1.25664 -0.118198 6.62376e-18)
(1.19598 -0.0828863 -7.10484e-18)
(1.15996 -0.0564846 1.36841e-18)
(1.11362 -0.036667 -2.37777e-18)
(1.07661 -0.0192071 -1.45656e-17)
(1.0381 -0.00911145 2.29314e-18)
(1.83567 -0.314511 6.33269e-19)
(1.59428 -0.214091 -1.36057e-18)
(1.46394 -0.151052 2.62316e-18)
(1.34737 -0.10551 -5.08623e-19)
(1.28414 -0.0748782 -5.56785e-19)
(1.21625 -0.0511052 3.08631e-18)
(1.17437 -0.0340501 3.37665e-18)
(1.12282 -0.020235 2.17684e-18)
(1.08102 -0.0100424 -6.22795e-18)
(1.03477 -0.00162323 3.12763e-18)
(1.88716 -0.110972 3.96525e-19)
(1.6308 -0.0776651 -1.12506e-18)
(1.49108 -0.0557705 2.13178e-18)
(1.3678 -0.0378737 1.15169e-18)
(1.29977 -0.0258946 -7.77656e-19)
(1.22783 -0.0152705 1.30055e-18)
(1.18271 -0.00879996 1.08599e-18)
(1.12769 -0.00218788 1.28371e-18)
(1.08346 -0.000223313 -4.56044e-18)
(1.02959 0.00445347 -2.71034e-19)
(1.88414 0.0992441 1.44604e-19)
(1.63081 0.0639109 -1.25705e-18)
(1.49276 0.0436143 2.40519e-18)
(1.37024 0.0329142 1.72887e-18)
(1.30249 0.0255508 -1.61965e-18)
(1.23012 0.0222943 2.69686e-20)
(1.18462 0.0177047 2.08006e-19)
(1.12795 0.016355 9.67855e-19)
(1.08318 0.00982883 -4.18212e-18)
(1.02235 0.00850245 -4.06254e-19)
(1.82688 0.301808 2.63634e-20)
(1.59421 0.201002 -1.97021e-18)
(1.4687 0.140339 3.04291e-18)
(1.35435 0.102041 3.57337e-18)
(1.29191 0.0759669 -3.87745e-18)
(1.22275 0.0590355 -7.51979e-19)
(1.17979 0.0436799 -1.76899e-18)
(1.12369 0.034163 3.28938e-18)
(1.08063 0.0194648 -6.27925e-18)
(1.01492 0.0104187 2.02672e-18)
(1.71934 0.483007 1.55103e-18)
(1.5234 0.324293 -3.10352e-18)
(1.4204 0.227823 -6.77352e-18)
(1.32113 0.164786 -3.25971e-18)
(1.26876 0.121879 -5.74287e-18)
(1.2064 0.0923452 3.10803e-18)
(1.16883 0.0671222 -5.08421e-19)
(1.11541 0.0496557 -6.5733e-19)
(1.07572 0.0274669 -3.89101e-18)
(1.00695 0.00993906 1.44469e-17)
(1.5689 0.630613 1.22706e-18)
(1.42315 0.42537 -1.66494e-17)
(1.35102 0.300006 -6.07938e-18)
(1.27266 0.216753 5.52414e-18)
(1.23432 0.160041 8.56194e-18)
(1.18182 0.119879 6.86272e-19)
(1.15208 0.086508 -1.05536e-18)
(1.10369 0.0619799 4.10709e-18)
(1.06972 0.0338768 1.91126e-17)
(1.00103 0.00772448 -2.73435e-17)
(1.38576 0.734747 7.30396e-18)
(1.30018 0.49735 2.41567e-18)
(1.26518 0.351919 -5.04752e-18)
(1.2122 0.254372 -7.10813e-18)
(1.19101 0.1879 1.25261e-17)
(1.15092 0.139976 2.41821e-19)
(1.13085 0.100796 8.73795e-19)
(1.08934 0.0706197 8.61217e-18)
(1.06227 0.0382459 -3.66007e-17)
(0.996598 0.00387694 4.83471e-17)
(1.18238 0.788504 -1.22084e-17)
(1.16287 0.535303 1.97875e-17)
(1.16872 0.379858 2.12368e-17)
(1.14389 0.274841 2.21368e-17)
(1.14177 0.203193 -9.61472e-19)
(1.11575 0.150806 1.71207e-18)
(1.10663 0.108337 -5.39221e-17)
(1.07353 0.0745717 2.1305e-17)
(1.05463 0.0402458 -2.36804e-17)
(0.995429 0.000264282 -2.1061e-18)
(0.972462 0.788402 -1.53068e-17)
(1.0205 0.536627 1.01262e-17)
(1.06818 0.381834 1.8802e-17)
(1.07232 0.276704 2.65441e-17)
(1.08985 0.204952 -6.03574e-18)
(1.07847 0.15198 -1.76781e-17)
(1.0806 0.109396 -2.40577e-18)
(1.05646 0.0748081 -2.62356e-18)
(1.04599 0.0410082 -2.12965e-17)
(0.996036 -0.00182872 -6.57704e-18)
(0.770188 0.734631 6.0129e-18)
(0.882802 0.501246 -4.92201e-18)
(0.970573 0.357629 -2.17049e-17)
(1.00265 0.259722 -2.72194e-17)
(1.03924 0.192903 -1.93034e-17)
(1.04232 0.143234 6.31218e-19)
(1.05562 0.103515 1.71252e-17)
(1.04052 0.0706352 -8.2344e-18)
(1.03788 0.0391721 5.48495e-17)
(0.997576 -0.00329412 -7.48271e-17)
(0.589123 0.630952 -6.06077e-18)
(0.75913 0.43154 -2.00342e-17)
(0.882563 0.308788 -3.31796e-17)
(0.939587 0.224871 -1.6518e-17)
(0.993175 0.167624 2.99777e-17)
(1.00925 0.124805 4.51024e-18)
(1.03258 0.0908746 -1.83712e-19)
(1.02603 0.0623644 -1.87792e-18)
(1.03071 0.035837 4.87018e-18)
(1.00071 -0.00201004 -7.73224e-18)
(0.441436 0.484535 -1.45017e-18)
(0.657962 0.33234 9.03221e-18)
(0.810337 0.238731 -2.17252e-17)
(0.887695 0.174695 -1.64553e-17)
(0.955164 0.131132 -1.63202e-17)
(0.981991 0.0984993 1.81597e-17)
(1.01347 0.0728409 -7.59214e-18)
(1.01416 0.0508287 5.75173e-18)
(1.02449 0.0304352 3.97508e-17)
(1.00356 0.000585025 -6.29302e-18)
(0.336996 0.305346 6.92512e-19)
(0.586205 0.210409 1.01081e-17)
(0.758926 0.152197 5.1376e-18)
(0.850633 0.112455 1.4723e-17)
(0.92791 0.085557 9.72386e-18)
(0.962424 0.0654407 -1.55939e-17)
(0.999762 0.0498091 -1.20021e-17)
(1.00581 0.0362906 -1.01027e-17)
(1.02029 0.0240136 1.0538e-17)
(1.00586 0.00636514 -1.27897e-17)
(0.282779 0.105594 -4.02261e-19)
(0.548753 0.074164 3.93898e-18)
(0.731898 0.0552653 1.38699e-19)
(0.830969 0.0426341 -5.03141e-18)
(0.913252 0.0343597 4.46912e-19)
(0.951696 0.0284062 3.42622e-19)
(0.991945 0.0240191 7.60746e-18)
(1.00069 0.0202021 -2.85177e-18)
(1.01718 0.0168877 1.32433e-17)
(1.00602 0.0132092 5.88815e-18)
(0.282393 -0.10118 3.06247e-19)
(0.54818 -0.0670388 -1.42035e-18)
(0.731176 -0.0453413 4.50769e-18)
(0.830147 -0.0299523 -4.15838e-18)
(0.912311 -0.0190008 -2.25757e-18)
(0.950648 -0.0103123 2.57901e-18)
(0.990722 -0.00307457 1.53374e-17)
(0.99934 0.0033422 -1.13774e-17)
(1.01555 0.00952735 9.4501e-18)
(1.00405 0.0208842 9.49386e-18)
(0.335827 -0.300962 -1.36184e-18)
(0.584483 -0.203482 -2.22777e-18)
(0.756747 -0.142584 2.21768e-17)
(0.84813 -0.100146 1.97407e-17)
(0.925026 -0.0706183 -1.51748e-17)
(0.959191 -0.0477719 -4.22496e-18)
(0.995989 -0.0293247 -7.29484e-18)
(1.00163 -0.0131496 2.43384e-17)
(1.01541 0.00181413 -3.03365e-17)
(0.999767 0.0275694 -5.2945e-18)
(0.439484 -0.480188 3.24352e-18)
(0.65518 -0.325756 -2.16828e-18)
(0.806851 -0.22966 -1.3282e-17)
(0.883705 -0.163035 -1.2435e-17)
(0.950605 -0.116918 -2.54765e-17)
(0.976923 -0.0815548 8.77528e-18)
(1.00766 -0.053119 -2.69294e-18)
(1.00773 -0.0284189 -8.27086e-19)
(1.01697 -0.0056203 -3.17725e-17)
(0.993312 0.032741 5.75189e-17)
(0.586392 -0.626723 -4.35331e-19)
(0.75538 -0.425498 -3.76717e-17)
(0.877894 -0.300571 -1.30521e-17)
(0.934206 -0.214287 8.03604e-18)
(0.986963 -0.154704 1.00029e-17)
(1.00223 -0.109316 1.98266e-18)
(1.02434 -0.0727796 8.73929e-19)
(1.01673 -0.041415 9.02492e-18)
(1.01975 -0.0123907 4.76028e-17)
(0.985633 0.0348373 -7.25977e-17)
(0.766664 -0.730542 9.77108e-18)
(0.878191 -0.495795 -6.43978e-18)
(0.964893 -0.350328 -1.2476e-17)
(0.996072 -0.250246 -1.45905e-17)
(1.03162 -0.181224 1.98845e-17)
(1.03364 -0.128967 4.05163e-18)
(1.04556 -0.0867445 1.45011e-17)
(1.02921 -0.0510211 1.65051e-17)
(1.0249 -0.0176286 -5.24599e-17)
(0.978703 0.0339041 7.30388e-17)
(0.968194 -0.784577 -1.16401e-17)
(1.01519 -0.531916 1.99168e-17)
(1.06174 -0.375671 2.26352e-17)
(1.06485 -0.268719 2.31757e-17)
(1.0812 -0.19512 4.69597e-18)
(1.06856 -0.139915 7.64311e-18)
(1.06908 -0.0951335 -5.99487e-17)
(1.04311 -0.0576325 2.94264e-17)
(1.03018 -0.0214215 -3.41279e-17)
(0.97182 0.0313182 1.08993e-17)
(1.17737 -0.785004 -1.16414e-17)
(1.15693 -0.531325 1.30403e-17)
(1.16159 -0.374801 2.38977e-17)
(1.13552 -0.268282 3.16174e-17)
(1.13198 -0.195082 6.47016e-19)
(1.10425 -0.140736 -1.3738e-17)
(1.0932 -0.0964741 -1.09912e-17)
(1.05777 -0.0602555 2.45868e-19)
(1.03655 -0.0241829 -2.87739e-17)
(0.967603 0.0250518 5.41775e-18)
(1.38011 -0.731703 6.08117e-18)
(1.29378 -0.494169 1.08831e-18)
(1.25761 -0.34801 -5.92734e-18)
(1.20334 -0.249334 -8.66615e-18)
(1.18066 -0.181615 -1.31117e-17)
(1.13872 -0.132079 -2.97181e-18)
(1.11667 -0.0912492 7.651e-18)
(1.07237 -0.0589004 -6.61647e-18)
(1.04265 -0.0247455 2.8432e-17)
(0.965107 0.0176215 -4.34103e-17)
(1.56265 -0.628121 -1.31358e-18)
(1.41631 -0.422993 -9.39646e-18)
(1.34304 -0.297247 -1.44619e-17)
(1.26328 -0.21328 -6.30436e-18)
(1.22332 -0.155751 1.07203e-17)
(1.16873 -0.114532 -5.86177e-19)
(1.13674 -0.0800431 8.53927e-19)
(1.08522 -0.0539703 -2.46518e-18)
(1.04857 -0.0243986 2.79552e-18)
(0.967255 0.00850769 -7.5853e-18)
(1.71265 -0.481167 -1.191e-18)
(1.51627 -0.322728 2.45133e-19)
(1.41217 -0.22614 -1.06526e-17)
(1.31145 -0.16275 -7.71343e-18)
(1.25737 -0.119327 -5.83802e-18)
(1.19281 -0.0891181 5.43985e-18)
(1.15294 -0.063018 -8.60486e-19)
(1.09638 -0.0444759 2.02613e-18)
(1.05435 -0.0211358 9.18628e-18)
(0.972841 0.000827026 -1.61182e-18)
(1.81986 -0.300716 -6.73567e-19)
(1.58682 -0.200285 9.67079e-19)
(1.46024 -0.139766 -2.84989e-18)
(1.34448 -0.101487 -2.33402e-19)
(1.28037 -0.0752709 -1.34924e-19)
(1.20909 -0.0581437 -1.7838e-18)
(1.1639 -0.0422757 -1.86526e-18)
(1.10467 -0.0322023 -3.12204e-19)
(1.05897 -0.0164191 4.59895e-18)
(0.980638 -0.00503729 -1.48482e-18)
(1.87694 -0.0989498 -4.74755e-19)
(1.62327 -0.0640443 9.00522e-19)
(1.48416 -0.0440846 -2.21803e-18)
(1.36025 -0.0337261 -9.17078e-19)
(1.29082 -0.0265375 6.63046e-19)
(1.21639 -0.0235255 -1.35082e-18)
(1.16873 -0.0187953 -1.95184e-18)
(1.10927 -0.0174767 -7.8756e-19)
(1.06206 -0.0101651 2.42998e-18)
(0.990425 -0.00844364 -1.3615e-18)
(1.87995 0.110413 -2.81474e-19)
(1.62321 0.0766359 1.2013e-18)
(1.48244 0.0542129 -2.71451e-18)
(1.35784 0.0356928 -1.60285e-18)
(1.28823 0.0232394 1.74478e-18)
(1.21447 0.011996 -2.77308e-19)
(1.16733 0.00535539 -1.99733e-18)
(1.10983 -0.00173019 2.67871e-19)
(1.06289 -0.00311636 2.85264e-18)
(1.00025 -0.00872393 -1.86327e-18)
(1.82859 0.313108 -1.42949e-19)
(1.58673 0.212174 1.9481e-18)
(1.45533 0.148462 -4.13971e-18)
(1.3375 0.102075 -4.88902e-18)
(1.27273 0.0707353 5.0292e-18)
(1.20318 0.046061 1.23124e-18)
(1.15945 0.0286048 2.63724e-18)
(1.10603 0.014023 -6.70036e-18)
(1.06184 0.00419108 1.08991e-17)
(1.00958 -0.00579838 -1.27165e-18)
(1.72632 0.495236 -1.72149e-18)
(1.51644 0.333316 3.09703e-18)
(1.40489 0.232225 7.25776e-18)
(1.30084 0.160872 3.87914e-18)
(1.24567 0.112632 7.3868e-18)
(1.18367 0.0761927 -3.85229e-18)
(1.14602 0.0490637 8.74559e-19)
(1.09827 0.028179 4.08845e-19)
(1.05879 0.010637 8.48669e-18)
(1.01633 -0.000909881 -2.24418e-17)
(1.58004 0.644257 -1.24273e-18)
(1.41715 0.431833 1.75814e-17)
(1.33459 0.299918 6.36142e-18)
(1.25031 0.208232 -6.07476e-18)
(1.20865 0.146298 -9.328e-18)
(1.15669 0.100634 -1.06959e-18)
(1.12716 0.0658831 8.90632e-19)
(1.08634 0.0405341 -5.24812e-18)
(1.05401 0.0169845 -2.39202e-17)
(1.02148 0.00590114 3.61024e-17)
(1.39978 0.749857 -7.43867e-18)
(1.29576 0.50105 -2.35235e-18)
(1.24943 0.347058 5.08505e-18)
(1.18965 0.241097 7.27645e-18)
(1.16472 0.16961 -1.36306e-17)
(1.1249 0.11786 -7.67945e-19)
(1.10511 0.0778211 -1.55776e-18)
(1.07156 0.0498981 -9.85552e-18)
(1.04691 0.0217201 4.2431e-17)
(1.02201 0.0125733 -5.46305e-17)
(1.19784 0.804624 1.21745e-17)
(1.16053 0.536239 -2.00398e-17)
(1.15512 0.370498 -2.16841e-17)
(1.12279 0.257231 -2.26351e-17)
(1.1165 0.180852 5.9904e-19)
(1.08981 0.126274 -2.01665e-18)
(1.08082 0.0835718 5.59813e-17)
(1.05472 0.055124 -2.23247e-17)
(1.03903 0.0247621 2.63777e-17)
(1.01991 0.0189612 1.30151e-18)
(0.988144 0.804669 1.51252e-17)
(1.02071 0.535059 -1.01553e-17)
(1.05812 0.368846 -1.88113e-17)
(1.05434 0.255868 -2.65072e-17)
(1.06738 0.179813 5.76425e-18)
(1.0541 0.1261 1.72184e-17)
(1.05611 0.0838874 2.48556e-18)
(1.03701 0.0566331 1.69867e-18)
(1.0299 0.0258936 2.10158e-17)
(1.01382 0.0221282 4.84515e-18)
(0.785114 0.749787 -6.10644e-18)
(0.885821 0.497543 4.85116e-18)
(0.964937 0.342206 2.12807e-17)
(0.988878 0.23703 2.63857e-17)
(1.02071 0.166285 1.87062e-17)
(1.0204 0.116691 -7.30028e-19)
(1.03321 0.077524 -1.65809e-17)
(1.02088 0.0526581 7.10489e-18)
(1.02213 0.0235385 -5.16287e-17)
(1.00699 0.021443 6.83426e-17)
(0.60278 0.643624 5.86086e-18)
(0.765035 0.426251 1.95808e-17)
(0.881769 0.292469 3.22268e-17)
(0.930603 0.20213 1.57622e-17)
(0.979198 0.14139 -2.8311e-17)
(0.990302 0.0990005 -4.04757e-18)
(1.01249 0.0654646 4.56838e-20)
(1.00605 0.044421 1.19483e-18)
(1.015 0.0194526 -4.5588e-18)
(1.00061 0.0186721 5.58218e-18)
(0.453765 0.493314 1.40961e-18)
(0.666576 0.325985 -8.75025e-18)
(0.814208 0.222998 2.08821e-17)
(0.883474 0.15359 1.55246e-17)
(0.945853 0.106924 1.55244e-17)
(0.966331 0.0744878 -1.64947e-17)
(0.996201 0.0486536 7.07962e-18)
(0.994341 0.0324644 -5.3822e-18)
(1.0093 0.0129318 -3.4311e-17)
(0.994648 0.0123133 5.59178e-18)
(0.348399 0.3091 -6.55516e-19)
(0.597119 0.203506 -9.70815e-18)
(0.766694 0.138411 -4.86924e-18)
(0.850429 0.0945348 -1.39395e-17)
(0.922572 0.0649501 -9.00818e-18)
(0.949634 0.0443521 1.42753e-17)
(0.984989 0.0278853 1.05035e-17)
(0.986273 0.0176418 8.198e-18)
(1.00567 0.00558779 -8.99866e-18)
(0.990786 0.00487153 1.11018e-17)
(0.294007 0.103552 4.74271e-19)
(0.561434 0.0670992 -3.71983e-18)
(0.742435 0.0444142 -3.73084e-20)
(0.833736 0.0290434 4.79803e-18)
(0.910955 0.0185659 -3.39214e-19)
(0.941411 0.0111997 -2.66895e-19)
(0.979499 0.00524479 -6.69293e-18)
(0.982299 0.00134131 2.35427e-18)
(1.00378 -0.00305323 -1.11403e-17)
(0.989305 -0.0050704 -4.27373e-18)
)
;

boundaryField
{
    out
    {
        type            fixedValue;
        value           uniform (1 0 0);
    }
    in
    {
        type            myVelocity;
    }
    frontAndBack
    {
        type            empty;
    }
}


// ************************************************************************* //
