/*--------------------------------*- C++ -*----------------------------------*\
| =========                 |                                                 |
| \\      /  F ield         | foam-extend: Open Source CFD                    |
|  \\    /   O peration     | Version:  3.0                                   |
|   \\  /    A nd           | Web:         http://www.extend-project.de       |
|    \\/     M anipulation  |                                                 |
\*---------------------------------------------------------------------------*/
FoamFile
{
    version     2.0;
    format      ascii;
    class       volVectorField;
    location    "5.9";
    object      s;
}
// * * * * * * * * * * * * * * * * * * * * * * * * * * * * * * * * * * * * * //

dimensions      [0 0 0 0 0 0 0];

internalField   nonuniform List<vector> 
400
(
(-0.00748152 0.0122805 7.09407e-318)
(-0.0123785 0.0180213 1.22227e-317)
(-0.0259867 0.0189376 1.37148e-317)
(-0.0334798 0.0158293 1.36694e-317)
(-0.0437199 0.0134227 1.30097e-317)
(-0.0499673 0.0100176 1.21209e-317)
(-0.05645 0.00743365 1.11624e-317)
(-0.0604109 0.00467504 1.02425e-317)
(-0.0635259 0.00230552 9.34826e-318)
(-0.0649175 -0.000151243 8.55036e-318)
(-0.0648521 -0.00258608 7.78968e-318)
(-0.0634481 -0.00522125 7.12917e-318)
(-0.06001 -0.00801409 6.50516e-318)
(-0.0555926 -0.0111046 5.96151e-318)
(-0.0484327 -0.0141424 5.453e-318)
(-0.0412263 -0.0175342 4.97843e-318)
(-0.0303842 -0.0198708 4.50476e-318)
(-0.0219393 -0.0222312 3.93576e-318)
(-0.00889248 -0.020514 3.11765e-318)
(-0.0038427 -0.013429 1.61669e-318)
(-0.00804889 0.00760106 8.44444e-318)
(-0.0183263 0.0176905 1.63791e-317)
(-0.033963 0.0220567 1.96564e-317)
(-0.0458287 0.0220509 2.05395e-317)
(-0.0592356 0.0198523 2.02146e-317)
(-0.0690598 0.0162521 1.9349e-317)
(-0.0783893 0.0121825 1.82025e-317)
(-0.0846499 0.00783065 1.70118e-317)
(-0.0893429 0.00340041 1.57786e-317)
(-0.0914274 -0.00106142 1.46325e-317)
(-0.091272 -0.00561668 1.35036e-317)
(-0.0888598 -0.0101584 1.24891e-317)
(-0.0836682 -0.0147307 1.15021e-317)
(-0.0767003 -0.0190496 1.06123e-317)
(-0.0665619 -0.0229065 9.73272e-318)
(-0.055705 -0.0257165 8.87809e-318)
(-0.0417318 -0.0267337 7.93707e-318)
(-0.0292059 -0.0248809 6.79114e-318)
(-0.0144708 -0.0186964 5.13602e-318)
(-0.00466247 -0.00725832 2.44486e-318)
(-0.00802491 0.0230778 6.91152e-318)
(-0.0178736 0.0424532 1.42813e-317)
(-0.0336227 0.0486837 1.79268e-317)
(-0.0451982 0.0469214 1.94525e-317)
(-0.0581206 0.0417201 1.97432e-317)
(-0.067616 0.0342607 1.93814e-317)
(-0.0765681 0.0261265 1.86208e-317)
(-0.0827058 0.0175134 1.77e-317)
(-0.0873619 0.00877498 1.66579e-317)
(-0.0896141 -0.000105623 1.56256e-317)
(-0.0897345 -0.00919103 1.45674e-317)
(-0.0877222 -0.0183719 1.35735e-317)
(-0.0829867 -0.0276921 1.25797e-317)
(-0.0764703 -0.0366553 1.16454e-317)
(-0.0667566 -0.0449413 1.06912e-317)
(-0.0561272 -0.0514332 9.72309e-318)
(-0.0422394 -0.0549797 8.6184e-318)
(-0.0295038 -0.0535455 7.27031e-318)
(-0.0142157 -0.0441662 5.36895e-318)
(-0.00438329 -0.0222441 2.47585e-318)
(-0.00612464 0.0241231 4.41276e-318)
(-0.0142553 0.0471902 9.99821e-318)
(-0.02621 0.0554834 1.33319e-317)
(-0.0354005 0.0545388 1.52169e-317)
(-0.045736 0.0489069 1.60949e-317)
(-0.0534484 0.0405977 1.63592e-317)
(-0.0609312 0.0310889 1.61808e-317)
(-0.0661696 0.0209533 1.57598e-317)
(-0.0703468 0.0104587 1.51453e-317)
(-0.0726045 -0.000270198 1.44543e-317)
(-0.07314 -0.0113508 1.36794e-317)
(-0.0719933 -0.0225627 1.2896e-317)
(-0.0684696 -0.0339982 1.20648e-317)
(-0.0635561 -0.0448682 1.12252e-317)
(-0.0556739 -0.0549492 1.03074e-317)
(-0.0470797 -0.0623152 9.29684e-318)
(-0.0353888 -0.0661048 8.07404e-318)
(-0.024587 -0.0626349 6.53268e-318)
(-0.0118135 -0.0498656 4.48248e-318)
(-0.00301914 -0.022443 1.72263e-318)
(-0.00559938 0.0304489 2.25563e-318)
(-0.0110382 0.05834 6.06154e-318)
(-0.0209352 0.0678613 8.88224e-318)
(-0.0274686 0.0665719 1.08927e-317)
(-0.0356545 0.0597447 1.21643e-317)
(-0.0413604 0.0498001 1.29012e-317)
(-0.0473517 0.0384651 1.31985e-317)
(-0.0515535 0.0263219 1.3205e-317)
(-0.0552269 0.0137262 1.29712e-317)
(-0.0575487 0.000711866 1.2599e-317)
(-0.0586433 -0.012819 1.20988e-317)
(-0.0586446 -0.0267133 1.15369e-317)
(-0.0565919 -0.0410546 1.0892e-317)
(-0.0536901 -0.0549614 1.0194e-317)
(-0.0477203 -0.0681587 9.39006e-318)
(-0.0415122 -0.0782129 8.46055e-318)
(-0.0313206 -0.0841395 7.3085e-318)
(-0.0226693 -0.0808857 5.84472e-318)
(-0.0100752 -0.0661253 3.93965e-318)
(-0.00327974 -0.0312238 1.47327e-318)
(-0.00446807 0.0316125 4.47401e-319)
(-0.00762764 0.0608678 2.66597e-318)
(-0.0144706 0.0712607 4.93551e-318)
(-0.0183204 0.0699516 6.92901e-318)
(-0.023972 0.0630598 8.44833e-318)
(-0.0276477 0.0527143 9.53857e-318)
(-0.0320199 0.0410235 1.02245e-317)
(-0.035169 0.0283495 1.06031e-317)
(-0.0382857 0.015199 1.07207e-317)
(-0.0406582 0.00142651 1.0658e-317)
(-0.0423107 -0.013016 1.04407e-317)
(-0.0434991 -0.0281284 1.01228e-317)
(-0.0430326 -0.043968 9.702e-318)
(-0.0423112 -0.0597059 9.20013e-318)
(-0.0385642 -0.0749723 8.58034e-318)
(-0.035061 -0.0870216 7.81849e-318)
(-0.0268806 -0.0945754 6.8319e-318)
(-0.0206747 -0.0914219 5.53099e-318)
(-0.00880042 -0.0747676 3.79463e-318)
(-0.00365122 -0.0343164 1.47351e-318)
(-0.00361469 0.0334869 -5.49401e-319)
(-0.00465949 0.0640682 5.78131e-319)
(-0.00911861 0.0750384 2.34213e-318)
(-0.0106836 0.0735499 4.17733e-318)
(-0.014216 0.0666132 5.74248e-318)
(-0.0161291 0.0558838 6.97889e-318)
(-0.0190633 0.0439873 7.86574e-318)
(-0.0212442 0.0309005 8.45863e-318)
(-0.0238043 0.0173889 8.79487e-318)
(-0.0261674 0.00300538 8.93861e-318)
(-0.0282628 -0.0121748 8.91784e-318)
(-0.0305161 -0.0284508 8.77928e-318)
(-0.0314745 -0.0457618 8.52956e-318)
(-0.0328597 -0.0636082 8.18692e-318)
(-0.0311492 -0.0812997 7.72917e-318)
(-0.0304123 -0.0963342 7.13053e-318)
(-0.0238627 -0.106543 6.32311e-318)
(-0.0202615 -0.10544 5.20886e-318)
(-0.00805875 -0.0882196 3.65312e-318)
(-0.00489756 -0.0424595 1.46229e-318)
(-0.00228079 0.0332213 -1.15359e-318)
(-0.00191533 0.0631664 -7.9547e-319)
(-0.00348975 0.0742636 5.3822e-319)
(-0.00312419 0.0726242 2.16148e-318)
(-0.00436619 0.0661323 3.67727e-318)
(-0.00466544 0.0556229 4.96183e-318)
(-0.00605576 0.0442706 5.95934e-318)
(-0.00724011 0.0315629 6.6937e-318)
(-0.00908058 0.018545 7.18947e-318)
(-0.0112524 0.00443524 7.49542e-318)
(-0.0135713 -0.010565 7.64102e-318)
(-0.0166171 -0.0270992 7.66635e-318)
(-0.0188404 -0.0450095 7.58568e-318)
(-0.0220825 -0.0642286 7.41676e-318)
(-0.0225233 -0.0837966 7.14749e-318)
(-0.0244268 -0.101576 6.75617e-318)
(-0.0201119 -0.114565 6.17825e-318)
(-0.0190193 -0.115822 5.30728e-318)
(-0.00753527 -0.098609 3.95587e-318)
(-0.00570425 -0.0479008 1.79191e-318)
(-0.000985824 0.0323426 -1.21953e-318)
(0.000550121 0.061534 -1.25666e-318)
(0.00162088 0.0725272 -2.78243e-319)
(0.0035399 0.0709377 1.08022e-318)
(0.00438089 0.0649536 2.43796e-318)
(0.00547285 0.0548676 3.64457e-318)
(0.00556976 0.0442258 4.63163e-318)
(0.00538908 0.0321177 5.39746e-318)
(0.00440709 0.0198422 5.9563e-318)
(0.00265503 0.00629417 6.34173e-318)
(0.000428272 -0.00816884 6.57981e-318)
(-0.00304382 -0.0245987 6.70247e-318)
(-0.00614729 -0.0426566 6.72611e-318)
(-0.0109515 -0.0629512 6.66557e-318)
(-0.0132875 -0.0840186 6.51674e-318)
(-0.0179354 -0.104766 6.25848e-318)
(-0.0158397 -0.120662 5.83526e-318)
(-0.0179707 -0.125821 5.13642e-318)
(-0.00693738 -0.109625 3.94071e-318)
(-0.00750807 -0.056022 1.86537e-318)
(0.000337937 0.0302831 -1.16071e-318)
(0.00260137 0.0575033 -1.42222e-318)
(0.00634913 0.0681334 -7.16e-319)
(0.0095774 0.0666249 3.98617e-319)
(0.0125314 0.0613727 1.58698e-318)
(0.0149378 0.0520254 2.69226e-318)
(0.0166149 0.0424284 3.63511e-318)
(0.0175362 0.0313176 4.3995e-318)
(0.0176335 0.0201955 4.98738e-318)
(0.01661 0.00770142 5.42223e-318)
(0.0148471 -0.00569831 5.72554e-318)
(0.0114816 -0.0213929 5.92409e-318)
(0.00792384 -0.0389624 6.03466e-318)
(0.00225267 -0.0596131 6.07134e-318)
(-0.00181893 -0.0816591 6.03218e-318)
(-0.00849858 -0.104871 5.90085e-318)
(-0.00931452 -0.123886 5.62048e-318)
(-0.0140118 -0.133098 5.08369e-318)
(-0.00561576 -0.119274 4.03847e-318)
(-0.00742541 -0.0630349 2.04139e-318)
(0.00178114 0.0278814 -8.97401e-319)
(0.00442524 0.0531134 -1.21627e-318)
(0.0106012 0.0629582 -7.19854e-319)
(0.0147495 0.0617223 1.62429e-319)
(0.0195823 0.0570659 1.15822e-318)
(0.023081 0.0486002 2.12037e-318)
(0.0262526 0.0400559 2.97126e-318)
(0.0282643 0.030076 3.6836e-318)
(0.029555 0.0202265 4.25334e-318)
(0.0294824 0.00900223 4.6924e-318)
(0.028534 -0.00303682 5.01638e-318)
(0.0257092 -0.0175817 5.24511e-318)
(0.0222409 -0.0340611 5.39229e-318)
(0.0161468 -0.0543981 5.4676e-318)
(0.0108612 -0.0764411 5.4687e-318)
(0.00206591 -0.101468 5.37742e-318)
(-0.00145215 -0.122454 5.14007e-318)
(-0.0100705 -0.136155 4.65817e-318)
(-0.00385156 -0.1243 3.68802e-318)
(-0.00949245 -0.0685611 1.84557e-318)
(0.00248799 0.0242441 -6.86287e-319)
(0.00567877 0.0469522 -1.01106e-318)
(0.0137605 0.0561711 -6.57517e-319)
(0.0188925 0.0552349 4.71981e-320)
(0.0254373 0.0513362 8.83078e-319)
(0.0300392 0.0438628 1.72041e-318)
(0.0346675 0.0364828 2.48121e-318)
(0.0378283 0.0277661 3.13646e-318)
(0.0404185 0.0193065 3.67494e-318)
(0.0415487 0.00954526 4.10289e-318)
(0.0417467 -0.000925082 4.43116e-318)
(0.0400602 -0.0139424 4.67458e-318)
(0.0372474 -0.0289306 4.8432e-318)
(0.0317923 -0.0482577 4.94471e-318)
(0.0258063 -0.0697813 4.9733e-318)
(0.0164475 -0.0957494 4.91073e-318)
(0.00973737 -0.118882 4.69929e-318)
(-0.000797634 -0.137003 4.25276e-318)
(-0.000270598 -0.129748 3.34788e-318)
(-0.00680833 -0.0760232 1.66074e-318)
(0.00376845 0.0215822 -5.30113e-319)
(0.00658697 0.0414591 -8.10144e-319)
(0.0163666 0.0493184 -5.38373e-319)
(0.0218633 0.0486305 3.52219e-320)
(0.0297698 0.0451777 7.35763e-319)
(0.0351025 0.0387242 1.45389e-318)
(0.040927 0.0323936 2.12192e-318)
(0.0450347 0.0249553 2.70877e-318)
(0.0488239 0.0178503 3.20235e-318)
(0.051145 0.00960385 3.60275e-318)
(0.0526435 0.000803041 3.91675e-318)
(0.0523161 -0.0104333 4.1533e-318)
(0.0506588 -0.0234659 4.31907e-318)
(0.0461903 -0.0410597 4.4148e-318)
(0.0403303 -0.0608341 4.43167e-318)
(0.0302731 -0.0863719 4.34634e-318)
(0.0213433 -0.109198 4.10399e-318)
(0.00682892 -0.130254 3.62599e-318)
(0.00355046 -0.124372 2.74063e-318)
(-0.00898896 -0.0745503 1.241e-318)
(0.00353196 0.0169334 -3.63716e-319)
(0.00700772 0.0345123 -5.73635e-319)
(0.0175664 0.0415789 -3.62348e-319)
(0.0238606 0.0412415 1.03872e-319)
(0.032817 0.0384025 6.83189e-319)
(0.0389171 0.0329502 1.29125e-318)
(0.0457197 0.0276849 1.8664e-318)
(0.0506816 0.02149 2.38063e-318)
(0.05554 0.0156881 2.81916e-318)
(0.0590758 0.00892153 3.18022e-318)
(0.0619614 0.00174625 3.46728e-318)
(0.0633959 -0.00762187 3.68562e-318)
(0.063332 -0.0185951 3.83866e-318)
(0.0609966 -0.0340056 3.92548e-318)
(0.0559564 -0.0517123 3.93222e-318)
(0.0476012 -0.0759239 3.83622e-318)
(0.0363035 -0.0987546 3.58141e-318)
(0.0221079 -0.122851 3.10073e-318)
(0.0100584 -0.12285 2.26725e-318)
(-0.00139999 -0.0816681 9.47213e-319)
(0.00423094 0.0149251 -4.85755e-319)
(0.00657004 0.0289875 -6.05314e-319)
(0.0177764 0.0343678 -3.79003e-319)
(0.0238768 0.0340176 4.52465e-320)
(0.0333517 0.0315024 5.52089e-319)
(0.0396047 0.0270356 1.08097e-318)
(0.0468633 0.0227142 1.585e-318)
(0.0522064 0.0177192 2.03931e-318)
(0.0577134 0.0130869 2.43096e-318)
(0.0620662 0.00770441 2.75725e-318)
(0.066095 0.00203448 3.01909e-318)
(0.068983 -0.00547065 3.21921e-318)
(0.0706362 -0.0142746 3.35761e-318)
(0.0702012 -0.0270421 3.42974e-318)
(0.0668413 -0.0417535 3.42024e-318)
(0.0595379 -0.0629558 3.30232e-318)
(0.0480287 -0.0827176 3.0281e-318)
(0.0309883 -0.10579 2.53583e-318)
(0.0155083 -0.104738 1.75078e-318)
(-0.00426159 -0.0681811 6.16446e-319)
(0.00316511 0.010207 -1.2526e-319)
(0.00623241 0.0225844 -2.02389e-319)
(0.0172913 0.0269391 -6.89024e-320)
(0.0238957 0.0268737 2.30249e-319)
(0.0336531 0.0247958 6.13234e-319)
(0.0400274 0.0212311 1.02779e-318)
(0.0474597 0.0178307 1.43216e-318)
(0.0529255 0.0139109 1.8023e-318)
(0.0587718 0.0103536 2.12419e-318)
(0.0637307 0.00619942 2.39389e-318)
(0.0686809 0.00189478 2.61042e-318)
(0.0731151 -0.00389662 2.77517e-318)
(0.0765205 -0.0106384 2.88653e-318)
(0.0789061 -0.02076 2.93985e-318)
(0.0776299 -0.03246 2.91968e-318)
(0.074295 -0.0504265 2.80207e-318)
(0.0624028 -0.0677315 2.54433e-318)
(0.0497631 -0.0913345 2.09658e-318)
(0.0240046 -0.09582 1.41414e-318)
(0.010966 -0.0754379 4.66981e-319)
(0.00269031 0.00909252 -5.20434e-319)
(0.00410675 0.0173081 -4.85074e-319)
(0.0144248 0.0200285 -2.85036e-319)
(0.0201571 0.0197041 2.00344e-320)
(0.0291009 0.0180476 3.70317e-319)
(0.0347703 0.0154563 7.34705e-319)
(0.0414472 0.0129273 1.08545e-318)
(0.0463626 0.0100729 1.40531e-318)
(0.0517673 0.00741007 1.68485e-318)
(0.0565175 0.00433799 1.92019e-318)
(0.0616228 0.0011078 2.11107e-318)
(0.0664573 -0.00316097 2.25743e-318)
(0.0709843 -0.0081516 2.35744e-318)
(0.074628 -0.0155279 2.40496e-318)
(0.075729 -0.0241083 2.38551e-318)
(0.0740642 -0.0372159 2.27723e-318)
(0.0651994 -0.0497977 2.04698e-318)
(0.0515214 -0.0667739 1.65431e-318)
(0.0276996 -0.0672179 1.08425e-318)
(0.004644 -0.0454994 3.29453e-319)
(0.00127165 0.00542477 3.96364e-319)
(0.0033804 0.0124222 2.44686e-319)
(0.0132775 0.0139354 2.2355e-319)
(0.0187527 0.0138541 3.2055e-319)
(0.0272607 0.0125255 5.16012e-319)
(0.0320179 0.0106701 7.44685e-319)
(0.0380171 0.00894557 9.80142e-319)
(0.0420747 0.0069341 1.19871e-318)
(0.0468986 0.00517305 1.3915e-318)
(0.0512542 0.00302716 1.55262e-318)
(0.056222 0.000917414 1.68189e-318)
(0.0615478 -0.00203081 1.77945e-318)
(0.0667949 -0.00522268 1.84306e-318)
(0.0725573 -0.0103109 1.86923e-318)
(0.0755492 -0.0157531 1.84595e-318)
(0.0787779 -0.0253358 1.75853e-318)
(0.0714724 -0.0337933 1.57923e-318)
(0.066956 -0.0500257 1.28075e-318)
(0.0345605 -0.0538087 8.52367e-319)
(0.0296831 -0.0561389 2.86163e-319)
(-0.000344663 0.00462264 -4.75143e-319)
(6.30352e-05 0.00685564 -3.95208e-319)
(0.00667636 0.00738962 -2.63332e-319)
(0.0101632 0.00715569 -9.08933e-320)
(0.0154732 0.00654008 9.6328e-320)
(0.0185395 0.00574651 2.864e-319)
(0.0220985 0.00480109 4.67465e-319)
(0.0246552 0.00377343 6.32093e-319)
(0.0275937 0.00263834 7.76637e-319)
(0.0303286 0.00135505 8.9871e-319)
(0.0336944 -0.000111648 9.98902e-319)
(0.0371135 -0.00190838 1.07686e-318)
(0.04126 -0.00405506 1.13117e-318)
(0.0450617 -0.00683032 1.15852e-318)
(0.0487325 -0.0101712 1.15053e-318)
(0.050602 -0.0144163 1.09689e-318)
(0.0487999 -0.0190556 9.83892e-319)
(0.0427882 -0.0232672 7.95105e-319)
(0.0258395 -0.0230098 5.35241e-319)
(0.00942766 -0.00730053 2.03945e-319)
(-0.000581181 0.00237479 8.56932e-319)
(0.000785449 0.00433473 4.66378e-319)
(0.00643009 0.00399441 3.1929e-319)
(0.00815567 0.0039392 2.51613e-319)
(0.0123265 0.00347524 2.77018e-319)
(0.0133296 0.00293176 3.19947e-319)
(0.0158578 0.00266476 3.74146e-319)
(0.0167974 0.00215051 4.23864e-319)
(0.0186962 0.00197666 4.67524e-319)
(0.0202326 0.00148497 5.02208e-319)
(0.0223591 0.00133068 5.29362e-319)
(0.0250562 0.000687918 5.48685e-319)
(0.0278004 0.000504018 5.60804e-319)
(0.0320638 -0.00064797 5.64845e-319)
(0.0347605 -0.000873652 5.57622e-319)
(0.0404352 -0.00352596 5.35444e-319)
(0.0389855 -0.0036076 4.88512e-319)
(0.0449446 -0.0113712 4.07253e-319)
(0.0243377 -0.0103494 2.90323e-319)
(0.0380773 -0.0324559 1.27889e-319)
)
;

boundaryField
{
    cavity
    {
        type            myHeatFlux;
        ThetaWall       uniform 0;
        value           nonuniform List<vector> 
60
(
(0.001 0 0)
(0.001 0 0)
(0.001 0 0)
(0.001 0 0)
(0.001 0 0)
(0.001 0 0)
(0.001 0 0)
(0.001 0 0)
(0.001 0 0)
(0.001 0 0)
(0.001 0 0)
(0.001 0 0)
(0.001 0 0)
(0.001 0 0)
(0.001 0 0)
(0.001 0 0)
(0.001 0 0)
(0.001 0 0)
(0.001 0 0)
(0.001 0 0)
(0 -0.001 0)
(0 -0.001 0)
(0 -0.001 0)
(0 -0.001 0)
(0 -0.001 0)
(0 -0.001 0)
(0 -0.001 0)
(0 -0.001 0)
(0 -0.001 0)
(0 -0.001 0)
(0 -0.001 0)
(0 -0.001 0)
(0 -0.001 0)
(0 -0.001 0)
(0 -0.001 0)
(0 -0.001 0)
(0 -0.001 0)
(0 -0.001 0)
(0 -0.001 0)
(0 -0.001 0)
(-0.001 0 0)
(-0.001 0 0)
(-0.001 0 0)
(-0.001 0 0)
(-0.001 0 0)
(-0.001 0 0)
(-0.001 0 0)
(-0.001 0 0)
(-0.001 0 0)
(-0.001 0 0)
(-0.001 0 0)
(-0.001 0 0)
(-0.001 0 0)
(-0.001 0 0)
(-0.001 0 0)
(-0.001 0 0)
(-0.001 0 0)
(-0.001 0 0)
(-0.001 0 0)
(-0.001 0 0)
)
;
    }
    lid
    {
        type            myHeatFlux;
        ThetaWall       uniform 0;
        value           nonuniform List<vector> 
20
(
(0.000135815 0.0009 0)
(0.000135815 0.0009 0)
(0.000135815 0.0009 0)
(0.000135815 0.0009 0)
(0.000135815 0.0009 0)
(0.000135815 0.0009 0)
(0.000135815 0.0009 0)
(0.000135815 0.0009 0)
(0.000135815 0.0009 0)
(0.000135815 0.0009 0)
(0.000135815 0.0009 0)
(0.000135815 0.0009 0)
(0.000135815 0.0009 0)
(0.000135815 0.0009 0)
(0.000135815 0.0009 0)
(0.000135815 0.0009 0)
(0.000135815 0.0009 0)
(0.000135815 0.0009 0)
(0.000135815 0.0009 0)
(0.000135815 0.0009 0)
)
;
    }
    frontAndBack
    {
        type            empty;
    }
}


// ************************************************************************* //
