/*--------------------------------*- C++ -*----------------------------------*\
| =========                 |                                                 |
| \\      /  F ield         | foam-extend: Open Source CFD                    |
|  \\    /   O peration     | Version:  3.0                                   |
|   \\  /    A nd           | Web:         http://www.extend-project.de       |
|    \\/     M anipulation  |                                                 |
\*---------------------------------------------------------------------------*/
FoamFile
{
    version     2.0;
    format      ascii;
    class       volSymmTensorField;
    location    "5.9";
    object      sigma;
}
// * * * * * * * * * * * * * * * * * * * * * * * * * * * * * * * * * * * * * //

dimensions      [0 0 0 0 0 0 0];

internalField   nonuniform List<symmTensor> 
400
(
(0.262481 0.0424797 1.41827e-316 -0.356024 1.72619e-316 0.0935431)
(0.489792 -0.0655537 1.4663e-316 -0.326444 1.91698e-316 -0.163348)
(0.59092 -0.200224 1.4134e-316 -0.306206 1.86088e-316 -0.284714)
(0.578646 -0.289083 1.33589e-316 -0.260184 1.71468e-316 -0.318463)
(0.538442 -0.38342 1.22909e-316 -0.227307 1.52393e-316 -0.311135)
(0.458558 -0.448395 1.12804e-316 -0.18305 1.34962e-316 -0.275508)
(0.374765 -0.505043 1.02396e-316 -0.146885 1.16922e-316 -0.22788)
(0.275906 -0.545013 9.30593e-317 -0.105122 1.02794e-316 -0.170784)
(0.177519 -0.572664 8.42884e-317 -0.0676854 8.84269e-317 -0.109834)
(0.0703336 -0.588366 7.64773e-317 -0.0257999 7.80922e-317 -0.0445337)
(-0.0372654 -0.590878 6.9449e-317 0.0146973 6.71719e-317 0.0225681)
(-0.150959 -0.581899 6.31302e-317 0.0591987 5.98902e-317 0.0917602)
(-0.264146 -0.558633 5.7625e-317 0.104038 5.16474e-317 0.160108)
(-0.37668 -0.523428 5.24235e-317 0.151174 4.65567e-317 0.225505)
(-0.478756 -0.470505 4.81609e-317 0.197057 4.03836e-317 0.281699)
(-0.564949 -0.408802 4.35874e-317 0.24267 3.68487e-317 0.322279)
(-0.610347 -0.319127 4.03656e-317 0.278541 3.26047e-317 0.331806)
(-0.610057 -0.23341 3.61546e-317 0.314362 3.0423e-317 0.295696)
(-0.496581 -0.10301 3.3845e-317 0.323613 2.8369e-317 0.172968)
(-0.255857 0.00537397 2.94291e-317 0.334376 2.72338e-317 -0.0785189)
(0.172858 0.0437494 5.90213e-317 -0.413787 1.02255e-316 0.240928)
(0.37015 -0.00546907 7.09961e-317 -0.430985 1.44024e-316 0.0608347)
(0.444732 -0.0749281 7.60701e-317 -0.402507 1.53369e-316 -0.0422244)
(0.460956 -0.130222 7.7738e-317 -0.368502 1.47766e-316 -0.0924544)
(0.430052 -0.18831 7.66257e-317 -0.319193 1.3464e-316 -0.110859)
(0.375618 -0.232765 7.43528e-317 -0.26682 1.20633e-316 -0.108798)
(0.308134 -0.271416 7.10417e-317 -0.212766 1.05359e-316 -0.0953675)
(0.229069 -0.297415 6.74081e-317 -0.15466 9.26765e-317 -0.0744094)
(0.147857 -0.314899 6.34895e-317 -0.0982489 7.9895e-317 -0.0496079)
(0.0589641 -0.320069 5.95747e-317 -0.0370247 7.02342e-317 -0.0219394)
(-0.0297353 -0.316947 5.57331e-317 0.0230804 6.03988e-317 0.00665492)
(-0.123226 -0.302406 5.20103e-317 0.0875656 5.34719e-317 0.03566)
(-0.214919 -0.281325 4.8564e-317 0.15204 4.60924e-317 0.0628788)
(-0.30401 -0.251831 4.51832e-317 0.217304 4.12544e-317 0.0867056)
(-0.385249 -0.217728 4.22784e-317 0.282259 3.57926e-317 0.10299)
(-0.445244 -0.18196 3.92154e-317 0.337989 3.2425e-317 0.107254)
(-0.481734 -0.140271 3.69363e-317 0.391006 2.85393e-317 0.0907287)
(-0.457477 -0.108461 3.42035e-317 0.414642 2.62174e-317 0.0428347)
(-0.375575 -0.0620351 3.26227e-317 0.43014 2.43613e-317 -0.0545652)
(-0.168331 -0.0409841 3.04256e-317 0.389959 2.50041e-317 -0.221627)
(0.16181 0.120096 3.16541e-318 -0.466421 5.13398e-317 0.304611)
(0.322333 0.088692 1.85936e-317 -0.466571 1.0236e-316 0.144238)
(0.378813 0.0525961 3.02483e-317 -0.429086 1.19964e-316 0.0502724)
(0.386042 0.00976508 3.85864e-317 -0.384276 1.2083e-316 -0.0017653)
(0.358624 -0.0320384 4.38386e-317 -0.330276 1.13196e-316 -0.0283483)
(0.31383 -0.070092 4.69879e-317 -0.275373 1.03016e-316 -0.0384574)
(0.261184 -0.100843 4.82847e-317 -0.222143 9.12884e-317 -0.0390405)
(0.199216 -0.12223 4.84516e-317 -0.165913 8.07921e-317 -0.0333027)
(0.137217 -0.133462 4.76925e-317 -0.112855 7.03414e-317 -0.0243623)
(0.0670308 -0.132787 4.63928e-317 -0.0538213 6.18579e-317 -0.0132095)
(-0.0030463 -0.123256 4.47222e-317 0.00473038 5.35626e-317 -0.00168408)
(-0.080115 -0.102352 4.28164e-317 0.0703936 4.71609e-317 0.00972137)
(-0.15853 -0.0779951 4.08347e-317 0.139501 4.07756e-317 0.0190296)
(-0.237256 -0.0465823 3.86593e-317 0.212145 3.60176e-317 0.0251111)
(-0.315476 -0.0203804 3.65139e-317 0.290859 3.11318e-317 0.024617)
(-0.374578 0.00464196 3.38961e-317 0.360173 2.75207e-317 0.0144044)
(-0.42117 0.0164492 3.11402e-317 0.43328 2.37863e-317 -0.0121102)
(-0.407581 0.0181071 2.73239e-317 0.470214 2.07968e-317 -0.062633)
(-0.347049 0.00715532 2.27149e-317 0.497834 1.79004e-317 -0.150785)
(-0.161135 -0.0150381 1.73515e-317 0.456556 1.52912e-317 -0.295421)
(0.115769 0.165673 -4.62939e-317 -0.424904 4.9093e-318 0.309135)
(0.242391 0.152121 -2.81729e-317 -0.413827 6.13032e-317 0.171437)
(0.284584 0.13343 -1.08907e-317 -0.370056 8.49201e-317 0.085472)
(0.290834 0.0957999 2.9712e-318 -0.325402 9.16755e-317 0.0345675)
(0.269869 0.0635611 1.38113e-317 -0.275628 8.93261e-317 0.00575918)
(0.237531 0.0287216 2.16655e-317 -0.22878 8.34092e-317 -0.00875107)
(0.201861 0.00388959 2.71483e-317 -0.187042 7.53166e-317 -0.0148194)
(0.159286 -0.0125276 3.07212e-317 -0.143856 6.7511e-317 -0.0154307)
(0.119444 -0.0184227 3.28295e-317 -0.106191 5.94139e-317 -0.0132526)
(0.0714014 -0.0102732 3.38452e-317 -0.0620298 5.25827e-317 -0.00937161)
(0.0251114 0.00507715 3.40589e-317 -0.0197356 4.58595e-317 -0.00537583)
(-0.0310859 0.0353266 3.36814e-317 0.0330008 4.05544e-317 -0.00191483)
(-0.0883695 0.0643168 3.29039e-317 0.08906 3.53962e-317 -0.000690522)
(-0.152849 0.103938 3.17823e-317 0.155756 3.16424e-317 -0.00290746)
(-0.218986 0.127519 3.0462e-317 0.230482 2.81194e-317 -0.0114963)
(-0.276128 0.151879 2.88231e-317 0.305632 2.60476e-317 -0.0295043)
(-0.32631 0.142031 2.69804e-317 0.389112 2.4474e-317 -0.0628022)
(-0.324072 0.119373 2.46308e-317 0.442519 2.43327e-317 -0.118446)
(-0.284487 0.056048 2.17948e-317 0.491993 2.42442e-317 -0.207506)
(-0.125207 -0.0302881 1.7931e-317 0.467029 2.25207e-317 -0.341822)
(0.118971 0.243589 -5.99978e-317 -0.464885 -1.8736e-317 0.345914)
(0.2171 0.228808 -4.44696e-317 -0.411276 3.11503e-317 0.194175)
(0.247693 0.215326 -2.74329e-317 -0.351829 5.53746e-317 0.104136)
(0.239454 0.170268 -1.27998e-317 -0.290963 6.52547e-317 0.0515092)
(0.224165 0.136931 -7.86908e-319 -0.245306 6.68511e-317 0.0211412)
(0.195647 0.0962964 8.45167e-318 -0.200274 6.4477e-317 0.00462693)
(0.175617 0.0703416 1.52916e-317 -0.171683 5.97602e-317 -0.00393412)
(0.1466 0.0515455 2.01974e-317 -0.139124 5.44982e-317 -0.00747661)
(0.126469 0.0471299 2.35535e-317 -0.117859 4.87681e-317 -0.0086103)
(0.0951235 0.0568237 2.57544e-317 -0.0867807 4.35307e-317 -0.00834276)
(0.0678961 0.077326 2.70996e-317 -0.0595842 3.83517e-317 -0.00831185)
(0.0254974 0.113778 2.78364e-317 -0.0164085 3.3929e-317 -0.00908891)
(-0.0191392 0.151247 2.82043e-317 0.031688 2.96994e-317 -0.0125488)
(-0.0799896 0.201767 2.832e-317 0.0998448 2.62922e-317 -0.0198552)
(-0.14714 0.233272 2.84325e-317 0.181504 2.31928e-317 -0.0343646)
(-0.2183 0.269934 2.85088e-317 0.277722 2.10275e-317 -0.0594215)
(-0.287974 0.256599 2.88769e-317 0.390174 1.94753e-317 -0.102199)
(-0.316881 0.237174 2.92507e-317 0.488594 1.91656e-317 -0.171712)
(-0.303275 0.143123 2.9938e-317 0.587469 2.01362e-317 -0.284195)
(-0.154101 0.0353158 2.96792e-317 0.617148 2.3694e-317 -0.463048)
(0.0966062 0.348258 -6.89487e-317 -0.456841 -3.40416e-317 0.360235)
(0.159015 0.306273 -5.57886e-317 -0.361382 8.81736e-318 0.202368)
(0.18077 0.271138 -3.95948e-317 -0.290872 3.17949e-317 0.110102)
(0.16245 0.209156 -2.49464e-317 -0.219375 4.32935e-317 0.0569246)
(0.154595 0.162741 -1.22689e-317 -0.181181 4.75735e-317 0.0265858)
(0.133227 0.114639 -2.18763e-318 -0.143039 4.7984e-317 0.00981252)
(0.128896 0.0826351 5.65611e-318 -0.12967 4.59022e-317 0.000774214)
(0.116048 0.0628932 1.14999e-317 -0.112324 4.28272e-317 -0.00372333)
(0.11646 0.0578882 1.57407e-317 -0.110453 3.89976e-317 -0.00600745)
(0.105384 0.0723542 1.86984e-317 -0.098075 3.52162e-317 -0.00730935)
(0.101473 0.0981162 2.06739e-317 -0.0924608 3.12868e-317 -0.00901204)
(0.0786106 0.146371 2.19106e-317 -0.0666038 2.77631e-317 -0.0120068)
(0.0564515 0.196006 2.26247e-317 -0.0384321 2.43164e-317 -0.0180194)
(0.00670406 0.266492 2.29906e-317 0.0220582 2.14377e-317 -0.0287622)
(-0.0457675 0.315422 2.31819e-317 0.0935847 1.88306e-317 -0.0478172)
(-0.125389 0.37656 2.33408e-317 0.205183 1.70398e-317 -0.0797944)
(-0.197236 0.376514 2.36149e-317 0.330695 1.59593e-317 -0.133459)
(-0.2615 0.371574 2.40482e-317 0.482961 1.63142e-317 -0.221461)
(-0.266749 0.269032 2.46424e-317 0.63254 1.82606e-317 -0.365791)
(-0.154489 0.143271 2.45539e-317 0.753138 2.22425e-317 -0.598648)
(0.0903716 0.46326 -5.57414e-317 -0.447654 -3.41997e-317 0.357282)
(0.125006 0.386574 -4.75089e-317 -0.320487 -3.64254e-318 0.195481)
(0.141343 0.320117 -3.55147e-317 -0.246253 1.53299e-317 0.10491)
(0.113401 0.238122 -2.38378e-317 -0.167601 2.64498e-317 0.0542001)
(0.114444 0.173437 -1.33698e-317 -0.140311 3.2026e-317 0.025867)
(0.0976496 0.114373 -4.66161e-318 -0.107988 3.42052e-317 0.0103388)
(0.108125 0.0726733 2.2957e-318 -0.110011 3.40771e-317 0.00188549)
(0.10734 0.0460537 7.69635e-318 -0.104789 3.27104e-317 -0.00255127)
(0.125795 0.0369117 1.17625e-317 -0.120589 3.04685e-317 -0.00520604)
(0.130504 0.0476712 1.47603e-317 -0.123327 2.79133e-317 -0.00717692)
(0.146124 0.0755534 1.69225e-317 -0.136202 2.50716e-317 -0.00992217)
(0.138391 0.125817 1.84655e-317 -0.124144 2.22891e-317 -0.0142475)
(0.13286 0.18717 1.96071e-317 -0.110666 1.94616e-317 -0.0221942)
(0.0894717 0.270356 2.051e-317 -0.0539131 1.68638e-317 -0.0355586)
(0.0416572 0.344001 2.14285e-317 0.0171222 1.4399e-317 -0.0587794)
(-0.0529848 0.433668 2.24644e-317 0.150286 1.24031e-317 -0.0973017)
(-0.143372 0.469687 2.39818e-317 0.305839 1.10103e-317 -0.162466)
(-0.250925 0.509707 2.59041e-317 0.521741 1.09691e-317 -0.270816)
(-0.289703 0.443401 2.86223e-317 0.743137 1.34227e-317 -0.453435)
(-0.196942 0.371387 3.11011e-317 0.957704 2.13375e-317 -0.760762)
(0.0611629 0.580739 -4.78158e-317 -0.367609 -3.22414e-317 0.306446)
(0.0680685 0.45613 -4.23292e-317 -0.232726 -1.025e-317 0.164657)
(0.0768368 0.347039 -3.30578e-317 -0.163426 4.84846e-318 0.0865893)
(0.0461339 0.243018 -2.34613e-317 -0.0898831 1.48607e-317 0.0437492)
(0.0524442 0.155131 -1.44144e-317 -0.0729074 2.07599e-317 0.0204632)
(0.0428527 0.086855 -6.69225e-318 -0.050797 2.38673e-317 0.00794431)
(0.0633483 0.0328885 -3.17086e-319 -0.0647162 2.49124e-317 0.00136799)
(0.0753516 0.00200708 4.70648e-318 -0.0732445 2.46839e-317 -0.00210713)
(0.107948 -0.0130088 8.55944e-318 -0.103754 2.35146e-317 -0.00419453)
(0.129788 -0.00232949 1.14091e-317 -0.123702 2.18503e-317 -0.0060864)
(0.164336 0.0270403 1.34416e-317 -0.15544 1.97757e-317 -0.0088965)
(0.176023 0.08534 1.4821e-317 -0.162284 1.75585e-317 -0.0137393)
(0.193411 0.160471 1.56997e-317 -0.170968 1.51638e-317 -0.0224435)
(0.165366 0.266488 1.62176e-317 -0.127959 1.27918e-317 -0.0374074)
(0.139556 0.372312 1.65103e-317 -0.0763263 1.04028e-317 -0.0632298)
(0.0424271 0.504795 1.67333e-317 0.0643247 8.26378e-318 -0.106752)
(-0.037721 0.591729 1.7048e-317 0.218644 6.55648e-318 -0.180923)
(-0.181611 0.688503 1.76431e-317 0.487917 6.02386e-318 -0.306306)
(-0.231163 0.674671 1.87621e-317 0.751371 7.83805e-318 -0.520208)
(-0.188888 0.644079 2.0244e-317 1.071 1.42704e-317 -0.882116)
(0.0350659 0.664927 -2.98208e-317 -0.254114 -2.41258e-317 0.219048)
(0.0197111 0.508171 -2.80502e-317 -0.132499 -1.19051e-317 0.112788)
(0.0256422 0.363324 -2.28575e-317 -0.0822772 -1.23013e-318 0.056635)
(-0.00331463 0.242828 -1.65882e-317 -0.0235184 6.93678e-318 0.0268331)
(0.010295 0.134081 -1.03144e-317 -0.0215687 1.24718e-317 0.0112737)
(0.00752315 0.0555739 -4.59845e-318 -0.0107721 1.5907e-317 0.00324896)
(0.0373316 -0.0112874 2.67467e-319 -0.036624 1.76566e-317 -0.000707627)
(0.0591726 -0.0517553 4.25809e-318 -0.0564986 1.82167e-317 -0.00267403)
(0.104163 -0.0755209 7.39216e-318 -0.100236 1.78631e-317 -0.00392745)
(0.139609 -0.0744686 9.77489e-318 -0.13426 1.69176e-317 -0.0053492)
(0.191006 -0.0484066 1.15125e-317 -0.182992 1.55004e-317 -0.00801356)
(0.219356 0.00344127 1.27164e-317 -0.206497 1.38018e-317 -0.012859)
(0.256523 0.0872934 1.35118e-317 -0.234593 1.18406e-317 -0.0219293)
(0.242621 0.198087 1.39852e-317 -0.205084 9.73778e-318 -0.0375368)
(0.231192 0.336402 1.42978e-317 -0.166305 7.48613e-318 -0.0648863)
(0.131156 0.498839 1.44908e-317 -0.0199943 5.23506e-318 -0.111162)
(0.0421464 0.654423 1.48494e-317 0.149016 3.17163e-318 -0.191163)
(-0.140243 0.824532 1.53803e-317 0.468296 1.87328e-318 -0.328052)
(-0.231314 0.913989 1.66189e-317 0.797995 2.80079e-318 -0.566681)
(-0.226953 1.01256 1.871e-317 1.2112 9.25252e-318 -0.984251)
(-0.00308658 0.718838 -2.185e-317 -0.0919369 -1.83842e-317 0.0950235)
(-0.0372133 0.529524 -2.11876e-317 -0.00625987 -1.12733e-317 0.0434731)
(-0.0425386 0.353845 -1.77234e-317 0.0243971 -3.9226e-318 0.0181415)
(-0.0643908 0.22257 -1.30763e-317 0.0586978 2.4528e-318 0.00569296)
(-0.051074 0.0960565 -8.10767e-318 0.0510347 7.24907e-318 3.93236e-05)
(-0.0456158 0.0117737 -3.50543e-318 0.048016 1.05559e-317 -0.00240016)
(-0.0134873 -0.0673791 5.22717e-319 0.0165326 1.2536e-317 -0.00304528)
(0.0173795 -0.114174 3.82834e-318 -0.0142777 1.34801e-317 -0.00310177)
(0.0676267 -0.147273 6.43349e-318 -0.0645841 1.35875e-317 -0.00304267)
(0.115429 -0.152198 8.37506e-318 -0.111788 1.30914e-317 -0.00364026)
(0.177159 -0.13041 9.72023e-318 -0.171637 1.21038e-317 -0.00552212)
(0.223263 -0.0789054 1.05281e-317 -0.213448 1.07705e-317 -0.00981502)
(0.278393 0.0133958 1.08518e-317 -0.260219 9.12412e-318 -0.018174)
(0.286437 0.14045 1.07285e-317 -0.253159 7.24876e-318 -0.033278)
(0.301028 0.31395 1.01748e-317 -0.241084 5.14719e-318 -0.0599442)
(0.216735 0.524976 9.22554e-318 -0.110724 2.91134e-318 -0.106011)
(0.155271 0.756363 7.88006e-318 0.0309795 6.74745e-319 -0.18625)
(-0.0407717 1.01511 6.33295e-318 0.366265 -1.18553e-318 -0.325493)
(-0.12168 1.20873 4.7721e-318 0.691564 -1.67323e-318 -0.569884)
(-0.176875 1.39688 4.36374e-318 1.17184 8.61932e-319 -0.994962)
(-0.0440467 0.720251 -9.48146e-318 0.0926381 -1.13407e-317 -0.0485914)
(-0.0916635 0.527576 -1.0506e-317 0.126717 -9.61374e-318 -0.0350535)
(-0.0998543 0.339035 -9.37911e-318 0.124403 -5.27478e-318 -0.0245484)
(-0.111602 0.202848 -6.81016e-318 0.128939 -6.46574e-319 -0.0173366)
(-0.0961139 0.0655542 -3.76613e-318 0.108239 3.37751e-318 -0.0121249)
(-0.0830745 -0.02569 -6.80393e-319 0.0916456 6.45737e-318 -0.00857105)
(-0.0487657 -0.114946 2.10138e-318 0.0545837 8.55009e-318 -0.00581809)
(-0.0112569 -0.171454 4.47382e-318 0.0151286 9.76625e-318 -0.0038717)
(0.0437648 -0.214611 6.36642e-318 -0.0412299 1.02322e-317 -0.00253484)
(0.100785 -0.23234 7.78426e-318 -0.0986226 1.0114e-317 -0.00216262)
(0.172969 -0.219135 8.74074e-318 -0.169739 9.51643e-318 -0.00322932)
(0.234198 -0.182119 9.25694e-318 -0.227597 8.55821e-318 -0.00660096)
(0.307995 -0.0898945 9.36158e-318 -0.294056 7.28717e-318 -0.013939)
(0.337545 0.0278124 9.04586e-318 -0.309996 5.76625e-318 -0.0275491)
(0.375762 0.226765 8.34114e-318 -0.323538 4.00777e-318 -0.0522245)
(0.308657 0.450763 7.17247e-318 -0.213568 2.04336e-318 -0.0950888)
(0.255521 0.759762 5.60299e-318 -0.0847459 -5.31022e-320 -0.170775)
(0.0406011 1.08692 3.60688e-318 0.262794 -2.18609e-318 -0.303395)
(-0.0858606 1.42551 1.43461e-318 0.62752 -3.67172e-318 -0.541659)
(-0.20805 1.78496 3.76626e-319 1.18397 -3.3201e-318 -0.975916)
(-0.0780249 0.675888 -7.64919e-318 0.270882 -7.59145e-318 -0.192858)
(-0.14226 0.484563 -7.73469e-318 0.255429 -7.47463e-318 -0.113169)
(-0.166928 0.295465 -6.35124e-318 0.233013 -5.093e-318 -0.0660851)
(-0.167886 0.165393 -4.10242e-318 0.207051 -1.86344e-318 -0.0391641)
(-0.156645 0.0244203 -1.52583e-318 0.17997 1.36624e-318 -0.0233254)
(-0.135351 -0.067573 8.97174e-319 0.149405 4.05589e-318 -0.0140537)
(-0.103664 -0.163977 3.0692e-318 0.111719 6.02572e-318 -0.00805561)
(-0.0608777 -0.226438 4.86126e-318 0.0650995 7.27356e-318 -0.00422183)
(-0.00850899 -0.278391 6.26537e-318 0.010032 7.8725e-318 -0.00152298)
(0.0543469 -0.305331 7.26101e-318 -0.054232 7.94111e-318 -0.000114905)
(0.12575 -0.300803 7.84963e-318 -0.125731 7.57027e-318 -1.86461e-05)
(0.198972 -0.272679 8.01994e-318 -0.196807 6.85616e-318 -0.00216499)
(0.278901 -0.182183 7.75086e-318 -0.271216 5.85425e-318 -0.00768488)
(0.332978 -0.0619274 7.00474e-318 -0.314057 4.61908e-318 -0.0189214)
(0.391109 0.160252 5.6997e-318 -0.351482 3.18224e-318 -0.0396269)
(0.361261 0.422117 3.77582e-318 -0.284814 1.56381e-318 -0.0764467)
(0.346362 0.807512 1.02799e-318 -0.204807 -1.952e-319 -0.141555)
(0.160477 1.23515 -2.40386e-318 0.0962569 -2.16437e-318 -0.256734)
(0.0761883 1.70726 -6.75732e-318 0.387273 -4.32942e-318 -0.463461)
(-0.0899431 2.18891 -1.02719e-317 0.920596 -7.4715e-318 -0.830653)
(-0.124878 0.603607 -2.90761e-318 0.457407 -5.35998e-318 -0.33253)
(-0.188669 0.432177 -2.67986e-318 0.372614 -7.60123e-318 -0.183945)
(-0.217212 0.25633 -1.55768e-318 0.319457 -6.38899e-318 -0.102246)
(-0.205934 0.129159 -1.04297e-320 0.263542 -3.82569e-318 -0.0576081)
(-0.197311 -0.00908939 1.58842e-318 0.229903 -8.52377e-319 -0.032592)
(-0.169431 -0.103782 3.0889e-318 0.187972 1.77684e-318 -0.0185411)
(-0.140489 -0.202943 4.4152e-318 0.150427 3.79648e-318 -0.0099371)
(-0.0945365 -0.270883 5.53441e-318 0.0991014 5.16258e-318 -0.00456494)
(-0.044347 -0.329234 6.40462e-318 0.0451442 5.93016e-318 -0.00079716)
(0.0213089 -0.366262 6.99943e-318 -0.0228735 6.20596e-318 0.00156461)
(0.0940664 -0.372191 7.2906e-318 -0.0967416 6.08151e-318 0.00267514)
(0.175802 -0.361084 7.25069e-318 -0.177675 5.64921e-318 0.00187298)
(0.267103 -0.28164 6.85482e-318 -0.265293 4.97445e-318 -0.00180951)
(0.343441 -0.183926 6.05495e-318 -0.3333 4.11759e-318 -0.0101402)
(0.428635 0.042073 4.8147e-318 -0.402406 3.1244e-318 -0.0262298)
(0.434482 0.286644 3.03736e-318 -0.379518 2.00965e-318 -0.0549637)
(0.449185 0.72564 6.46307e-319 -0.343211 7.87234e-319 -0.105974)
(0.272657 1.17358 -2.39308e-318 -0.0766751 -7.55476e-319 -0.195982)
(0.150015 1.78774 -6.20669e-318 0.211532 -2.96156e-318 -0.361548)
(-0.127134 2.41602 -9.61676e-318 0.810304 -7.06308e-318 -0.683169)
(-0.142117 0.471662 -4.8751e-318 0.577982 -3.62119e-318 -0.435865)
(-0.229764 0.336611 -2.42952e-318 0.467025 -6.05696e-318 -0.237262)
(-0.273537 0.191055 3.24171e-319 0.402061 -5.63658e-318 -0.128525)
(-0.253676 0.082755 2.09948e-318 0.324047 -3.61159e-318 -0.0703709)
(-0.246468 -0.0444145 3.5166e-318 0.285146 -1.06797e-318 -0.0386775)
(-0.210909 -0.134838 4.51025e-318 0.232215 1.23123e-318 -0.0213065)
(-0.184651 -0.232319 5.3412e-318 0.195565 2.99851e-318 -0.0109146)
(-0.136821 -0.30193 5.99164e-318 0.141319 4.19838e-318 -0.00449769)
(-0.0944107 -0.363403 6.47759e-318 0.09429 4.88201e-318 0.0001207)
(-0.0305639 -0.407249 6.75867e-318 0.027298 5.1455e-318 0.00326588)
(0.0305231 -0.421751 6.79881e-318 -0.0359543 5.07222e-318 0.00543128)
(0.113857 -0.423252 6.55471e-318 -0.119811 4.74439e-318 0.00595405)
(0.194897 -0.355815 5.97622e-318 -0.199292 4.22688e-318 0.00439508)
(0.289203 -0.270567 5.01345e-318 -0.288374 3.57995e-318 -0.000829125)
(0.375533 -0.0457036 3.57267e-318 -0.364076 2.86763e-318 -0.0114575)
(0.432059 0.210616 1.61988e-318 -0.40105 2.12416e-318 -0.0310095)
(0.47526 0.696165 -1.07158e-318 -0.410683 1.37454e-318 -0.0645765)
(0.383964 1.22966 -4.34154e-318 -0.261871 4.23399e-319 -0.122094)
(0.330307 1.97472 -8.61602e-318 -0.108504 -1.44802e-318 -0.221803)
(0.0835017 2.7522 -1.28696e-317 0.308052 -6.39324e-318 -0.391554)
(-0.186045 0.372796 -1.16381e-318 0.703494 -7.55749e-318 -0.51745)
(-0.249682 0.252187 1.32231e-318 0.520125 -1.11161e-317 -0.270443)
(-0.29911 0.129518 3.85364e-318 0.441703 -9.65732e-318 -0.142593)
(-0.268319 0.024586 4.9213e-318 0.34471 -6.48487e-318 -0.0763909)
(-0.265673 -0.0905958 5.45815e-318 0.306895 -3.28862e-318 -0.0412215)
(-0.225625 -0.177272 5.72233e-318 0.247953 -6.19296e-319 -0.0223281)
(-0.203622 -0.268102 5.93828e-318 0.214816 1.33488e-318 -0.0111937)
(-0.156198 -0.334494 6.13945e-318 0.160521 2.67298e-318 -0.00432311)
(-0.120619 -0.394559 6.2889e-318 0.119911 3.49448e-318 0.000708752)
(-0.0611951 -0.440319 6.33566e-318 0.0568167 3.92552e-318 0.00437844)
(-0.00782962 -0.46225 6.22165e-318 0.000547129 4.0591e-318 0.00728249)
(0.0731341 -0.476129 5.89836e-318 -0.0820867 3.97862e-318 0.00895258)
(0.153353 -0.427721 5.32705e-318 -0.162507 3.74981e-318 0.00915329)
(0.259834 -0.370468 4.47296e-318 -0.266678 3.43435e-318 0.00684453)
(0.366317 -0.171004 3.31585e-318 -0.367443 3.09272e-318 0.00112615)
(0.462593 0.0378385 1.83881e-318 -0.453129 2.76443e-318 -0.00946424)
(0.553358 0.519757 2.58347e-320 -0.527271 2.45252e-318 -0.0260874)
(0.495932 0.989441 -2.08735e-318 -0.445738 1.96561e-318 -0.0501934)
(0.435747 1.80931 -4.58399e-318 -0.349039 5.5535e-319 -0.0867077)
(0.00897065 2.59489 -7.36335e-318 0.162147 -3.4519e-318 -0.171117)
(-0.182858 0.187292 4.16656e-318 0.718071 -1.04756e-318 -0.535213)
(-0.282827 0.130663 6.28352e-318 0.558295 -6.18161e-318 -0.275468)
(-0.330658 0.0632942 8.07751e-318 0.472962 -5.80241e-318 -0.142304)
(-0.294806 -0.0180621 7.88684e-318 0.369766 -3.30294e-318 -0.0749592)
(-0.283885 -0.108348 7.399e-318 0.323832 -8.86408e-319 -0.039947)
(-0.236753 -0.185754 6.86523e-318 0.2582 1.04385e-318 -0.0214461)
(-0.215219 -0.263373 6.52413e-318 0.225819 2.36345e-318 -0.0106005)
(-0.168997 -0.324038 6.32673e-318 0.172885 3.19677e-318 -0.00388832)
(-0.143903 -0.377615 6.19718e-318 0.142714 3.64408e-318 0.00118834)
(-0.0931867 -0.422304 6.04974e-318 0.0881252 3.80609e-318 0.00506146)
(-0.0590531 -0.446992 5.80529e-318 0.0505708 3.75915e-318 0.00848228)
(0.0114582 -0.468406 5.40327e-318 -0.0224422 3.56624e-318 0.010984)
(0.0662331 -0.436099 4.79222e-318 -0.0789362 3.28282e-318 0.0127031)
(0.174554 -0.397456 3.94221e-318 -0.187343 2.9627e-318 0.0127887)
(0.255473 -0.226278 2.80483e-318 -0.266896 2.66868e-318 0.0114222)
(0.39735 -0.0359352 1.42495e-318 -0.405767 2.45467e-318 0.00841626)
(0.478067 0.432226 -2.90209e-319 -0.485154 2.34131e-318 0.00708765)
(0.56289 0.943717 -2.12148e-318 -0.577468 2.23952e-318 0.0145783)
(0.556457 1.84199 -4.26744e-318 -0.610001 1.40673e-318 0.0535443)
(0.340598 2.8269 -6.77518e-318 -0.526451 -1.71602e-318 0.185853)
(-0.207209 0.111176 1.24833e-317 0.725063 -1.30299e-317 -0.517854)
(-0.246773 0.0287528 1.13834e-317 0.500777 -1.66021e-317 -0.254004)
(-0.302868 -0.033969 1.03512e-317 0.430846 -1.29483e-317 -0.127978)
(-0.259866 -0.112343 8.71934e-318 0.326365 -7.92006e-318 -0.0664988)
(-0.254558 -0.191396 7.32087e-318 0.28976 -4.36717e-318 -0.0352027)
(-0.208803 -0.254791 6.35715e-318 0.227704 -1.81206e-318 -0.0189005)
(-0.191842 -0.31905 5.75199e-318 0.201172 -1.42815e-319 -0.00933036)
(-0.15099 -0.366526 5.41357e-318 0.154346 9.81274e-319 -0.00335662)
(-0.133868 -0.411222 5.19607e-318 0.132556 1.71423e-318 0.00131214)
(-0.0932902 -0.44908 5.00698e-318 0.0882606 2.18603e-318 0.00502955)
(-0.070661 -0.475195 4.76176e-318 0.0621261 2.47333e-318 0.00853484)
(-0.0130718 -0.501316 4.40757e-318 0.00162007 2.63524e-318 0.0114518)
(0.0308717 -0.488843 3.91248e-318 -0.0449132 2.71546e-318 0.0140415)
(0.131172 -0.475704 3.26844e-318 -0.146932 2.75308e-318 0.0157602)
(0.216216 -0.353516 2.49692e-318 -0.233471 2.78464e-318 0.0172547)
(0.371314 -0.228127 1.65882e-318 -0.390774 2.84065e-318 0.0194596)
(0.501693 0.161251 8.62214e-319 -0.529878 2.90472e-318 0.0281853)
(0.606972 0.519125 1.8982e-319 -0.664127 2.89127e-318 0.0571551)
(0.669583 1.34905 -1.65695e-319 -0.81272 2.29344e-318 0.143137)
(0.160741 2.03719 -9.24837e-319 -0.497135 3.69897e-319 0.336394)
(-0.182501 -0.0898933 2.83639e-317 0.605107 1.12552e-317 -0.422606)
(-0.271731 -0.0870566 2.2364e-317 0.475057 1.39182e-318 -0.203327)
(-0.289603 -0.0653396 1.60731e-317 0.390381 3.08569e-319 -0.100778)
(-0.243858 -0.120778 1.16519e-317 0.29585 1.57586e-318 -0.0519921)
(-0.221807 -0.154665 8.59157e-318 0.249323 2.6417e-318 -0.0275151)
(-0.169872 -0.205526 6.8288e-318 0.18477 3.3262e-318 -0.0148981)
(-0.154625 -0.242338 5.7782e-318 0.162028 3.66694e-318 -0.00740249)
(-0.117372 -0.27819 5.19738e-318 0.120045 3.77029e-318 -0.00267259)
(-0.112486 -0.305487 4.83376e-318 0.111293 3.71217e-318 0.00119346)
(-0.0837354 -0.331923 4.56141e-318 0.0793707 3.54239e-318 0.00436465)
(-0.0824998 -0.349928 4.27932e-318 0.0749504 3.29931e-318 0.00754946)
(-0.0428496 -0.366943 3.92751e-318 0.0324784 3.01331e-318 0.0103712)
(-0.0322762 -0.362263 3.46391e-318 0.0190436 2.71494e-318 0.0132326)
(0.0512507 -0.349908 2.87684e-318 -0.0669191 2.43347e-318 0.0156683)
(0.086769 -0.268575 2.15442e-318 -0.105416 2.20561e-318 0.0186471)
(0.260726 -0.165119 1.37716e-318 -0.283985 2.06855e-318 0.0232592)
(0.320921 0.133547 5.59258e-319 -0.35733 2.01694e-318 0.036409)
(0.601341 0.478925 -7.23065e-320 -0.676058 2.03764e-318 0.0747167)
(0.607417 1.24313 -4.93725e-319 -0.802781 1.72399e-318 0.195364)
(0.652182 2.2438 -1.17173e-318 -1.23666 5.78037e-319 0.584473)
(-0.13822 -0.109846 2.12969e-317 0.42365 -1.8458e-317 -0.28543)
(-0.116286 -0.195007 1.50845e-317 0.247411 -1.67554e-317 -0.131124)
(-0.152899 -0.231333 9.43705e-318 0.216981 -1.19506e-317 -0.064082)
(-0.11645 -0.272675 6.3551e-318 0.149525 -7.35642e-318 -0.033075)
(-0.108713 -0.31766 4.49055e-318 0.126342 -4.85675e-318 -0.0176286)
(-0.0771235 -0.341617 3.51783e-318 0.0868502 -3.17558e-318 -0.00972672)
(-0.0678965 -0.371524 2.98121e-318 0.0728077 -2.08648e-318 -0.00491118)
(-0.0454269 -0.388492 2.70948e-318 0.0472635 -1.27303e-318 -0.00183661)
(-0.0428417 -0.40868 2.54895e-318 0.0420239 -6.42557e-319 0.0008178)
(-0.0263643 -0.426841 2.42804e-318 0.0233197 -1.25023e-319 0.00304458)
(-0.0267171 -0.444095 2.29036e-318 0.0213127 3.10703e-319 0.00540442)
(-0.00380609 -0.466588 2.10764e-318 -0.0037711 6.84928e-319 0.00757719)
(0.0031322 -0.476589 1.86679e-318 -0.013074 1.00678e-318 0.00994176)
(0.0553596 -0.494289 1.57611e-318 -0.0675057 1.28223e-318 0.012146)
(0.0875219 -0.464628 1.27038e-318 -0.102532 1.50693e-318 0.0150099)
(0.201652 -0.441194 1.01142e-318 -0.220964 1.6781e-318 0.0193118)
(0.291043 -0.270637 9.31497e-319 -0.321462 1.77701e-318 0.0304186)
(0.450865 -0.137294 1.06379e-318 -0.512225 1.76863e-318 0.0613599)
(0.635543 0.370244 1.68026e-318 -0.793211 1.59335e-318 0.157668)
(0.181639 0.588519 2.08373e-318 -0.604107 1.26117e-318 0.422467)
(-0.0394816 -0.323003 3.17009e-317 0.129642 3.41425e-317 -0.0901599)
(-0.120823 -0.266896 2.19691e-317 0.165367 1.74696e-317 -0.0445446)
(-0.0774019 -0.152091 1.15508e-317 0.099461 1.19514e-317 -0.0220591)
(-0.0416173 -0.17261 7.05631e-318 0.0532002 9.00166e-318 -0.0115829)
(-0.0221773 -0.128933 4.34534e-318 0.0284741 7.80012e-318 -0.00629683)
(0.0144819 -0.148411 3.16688e-318 -0.0108724 6.92261e-318 -0.00360943)
(0.0144626 -0.13008 2.50666e-318 -0.0125844 6.29879e-318 -0.00187823)
(0.0330678 -0.138797 2.18775e-318 -0.032302 5.71172e-318 -0.000765797)
(0.0218881 -0.128241 1.99083e-318 -0.0221687 5.16147e-318 0.000280538)
(0.0293027 -0.124739 1.85745e-318 -0.0304651 4.61696e-318 0.00116245)
(0.0101235 -0.116592 1.73131e-318 -0.0122875 4.08909e-318 0.00216401)
(0.017448 -0.097236 1.58697e-318 -0.0205446 3.58366e-318 0.00309663)
(-0.00777246 -0.0884435 1.40392e-318 0.00359114 3.11909e-318 0.00418131)
(0.0196775 -0.0438766 1.17529e-318 -0.0248961 2.71121e-318 0.00521866)
(-0.0080905 -0.0295426 8.88039e-319 0.00149007 2.37131e-318 0.00660042)
(0.0915198 0.0581138 5.90967e-319 -0.100017 2.11326e-318 0.00849689)
(0.0624807 0.0911299 2.82774e-319 -0.0755488 1.88215e-318 0.0130682)
(0.368336 0.251072 1.31945e-319 -0.393928 1.62922e-318 0.0255918)
(0.280882 0.374239 1.72404e-319 -0.354747 1.15874e-318 0.0738646)
(0.828719 1.0225 1.43412e-319 -1.16392 1.87636e-319 0.335199)
)
;

boundaryField
{
    cavity
    {
        type            mySigma;
    }
    lid
    {
        type            fixedValue;
        value           uniform (0.1 -0.3 0 -0.1 0 0);
    }
    frontAndBack
    {
        type            empty;
    }
}


// ************************************************************************* //
