/*--------------------------------*- C++ -*----------------------------------*\
| =========                 |                                                 |
| \\      /  F ield         | foam-extend: Open Source CFD                    |
|  \\    /   O peration     | Version:  3.0                                   |
|   \\  /    A nd           | Web:         http://www.extend-project.de       |
|    \\/     M anipulation  |                                                 |
\*---------------------------------------------------------------------------*/
FoamFile
{
    version     2.0;
    format      ascii;
    class       volVectorField;
    location    "5.9";
    object      u;
}
// * * * * * * * * * * * * * * * * * * * * * * * * * * * * * * * * * * * * * //

dimensions      [0 0 0 0 0 0 0];

internalField   nonuniform List<vector> 
400
(
(-0.678977 1.82419 1.87543e-315)
(-0.837951 1.29054 1.66691e-315)
(-1.78716 1.41512 1.4564e-315)
(-2.01838 0.973301 1.32298e-315)
(-2.60368 1.00795 1.12807e-315)
(-2.83154 0.748531 1.04798e-315)
(-3.17203 0.728669 8.69885e-316)
(-3.34262 0.551416 8.25037e-316)
(-3.49988 0.522176 6.64571e-316)
(-3.58955 0.361693 6.43182e-316)
(-3.58416 0.321564 4.9937e-316)
(-3.56778 0.145929 4.9366e-316)
(-3.39889 0.0836546 3.65345e-316)
(-3.24545 -0.125329 3.6838e-316)
(-2.8998 -0.192113 2.5731e-316)
(-2.60037 -0.463607 2.60441e-316)
(-2.04704 -0.453585 1.73413e-316)
(-1.67242 -0.849481 1.65678e-316)
(-0.845207 -0.692462 1.11443e-316)
(-0.554017 -1.1342 7.71063e-317)
(-0.0782923 0.681741 1.07445e-315)
(-0.571497 0.560366 1.02065e-315)
(-0.846272 0.557443 9.34665e-316)
(-1.14813 0.400049 8.88283e-316)
(-1.45591 0.353709 7.96976e-316)
(-1.6398 0.209586 7.57293e-316)
(-1.873 0.128123 6.65348e-316)
(-1.98128 0.00401312 6.31392e-316)
(-2.09662 -0.105447 5.42072e-316)
(-2.13698 -0.212487 5.13832e-316)
(-2.12532 -0.351378 4.29645e-316)
(-2.09154 -0.445398 4.06949e-316)
(-1.96018 -0.613174 3.29642e-316)
(-1.83918 -0.696531 3.10831e-316)
(-1.61358 -0.874443 2.42136e-316)
(-1.38231 -0.946737 2.22588e-316)
(-1.12544 -1.08212 1.64558e-316)
(-0.73842 -1.13788 1.3537e-316)
(-0.576089 -1.15063 8.76033e-317)
(0.0104313 -1.15768 3.52112e-317)
(-0.215763 2.6791 8.16296e-316)
(-0.674995 2.36969 8.06574e-316)
(-1.03582 2.20174 7.5559e-316)
(-1.32928 1.83755 7.2397e-316)
(-1.62413 1.68768 6.55311e-316)
(-1.81378 1.33033 6.19608e-316)
(-2.01719 1.19048 5.45255e-316)
(-2.15224 0.845255 5.1231e-316)
(-2.24767 0.707213 4.38756e-316)
(-2.34315 0.364722 4.1017e-316)
(-2.32368 0.205903 3.40182e-316)
(-2.36265 -0.138865 3.15592e-316)
(-2.22995 -0.339651 2.5018e-316)
(-2.16643 -0.676162 2.28137e-316)
(-1.93968 -0.916419 1.68766e-316)
(-1.70219 -1.21495 1.47643e-316)
(-1.43782 -1.44799 9.85749e-317)
(-0.949323 -1.67031 8.11057e-317)
(-0.75412 -1.81912 5.16836e-317)
(-0.0163521 -1.94074 6.19134e-317)
(-0.0722461 2.02068 1.90828e-316)
(-0.36693 1.80813 3.15582e-316)
(-0.553238 1.56024 3.60673e-316)
(-0.693812 1.30556 4.05653e-316)
(-0.881049 1.10214 4.06641e-316)
(-0.937534 0.820948 4.12249e-316)
(-1.07638 0.654777 3.89076e-316)
(-1.11115 0.368891 3.76098e-316)
(-1.17767 0.198095 3.41169e-316)
(-1.21751 -0.0814132 3.20638e-316)
(-1.20345 -0.305225 2.81716e-316)
(-1.24915 -0.569994 2.59706e-316)
(-1.1541 -0.889174 2.21728e-316)
(-1.1803 -1.11559 2.01834e-316)
(-1.01714 -1.54849 1.68396e-316)
(-0.958495 -1.68083 1.5308e-316)
(-0.77817 -2.18185 1.27306e-316)
(-0.519939 -2.13929 1.1908e-316)
(-0.446279 -2.51266 1.03915e-316)
(0.0869371 -2.2771 1.0492e-316)
(-0.306332 3.18925 2.10831e-316)
(-0.437463 2.95366 3.0393e-316)
(-0.883608 2.57726 3.34851e-316)
(-0.926601 2.22707 3.58499e-316)
(-1.22851 1.96136 3.5409e-316)
(-1.27579 1.5483 3.49627e-316)
(-1.45308 1.37761 3.26969e-316)
(-1.5477 0.943245 3.10823e-316)
(-1.61563 0.810204 2.79604e-316)
(-1.76542 0.367683 2.58296e-316)
(-1.72883 0.213107 2.23204e-316)
(-1.91476 -0.231271 1.99012e-316)
(-1.7667 -0.465188 1.61652e-316)
(-1.93653 -0.88216 1.34102e-316)
(-1.66688 -1.24782 9.40665e-317)
(-1.71953 -1.55454 5.98518e-317)
(-1.34214 -2.07056 1.48184e-317)
(-1.12542 -2.12706 -3.30548e-317)
(-0.725236 -2.65367 -8.86847e-317)
(-0.136321 -2.41022 -1.64781e-316)
(-0.410505 3.00064 -1.51061e-316)
(-0.170611 2.58607 9.18798e-318)
(-0.678685 2.21958 9.33863e-317)
(-0.451287 1.78146 1.64732e-316)
(-0.739157 1.5782 1.98839e-316)
(-0.595144 1.13496 2.23456e-316)
(-0.745377 1.02639 2.27733e-316)
(-0.699789 0.596584 2.28019e-316)
(-0.75893 0.495382 2.16139e-316)
(-0.816907 0.0772548 2.04705e-316)
(-0.799483 -0.100041 1.85434e-316)
(-0.96486 -0.513127 1.69642e-316)
(-0.854298 -0.852207 1.48637e-316)
(-1.12236 -1.24021 1.33302e-316)
(-0.871853 -1.82305 1.14562e-316)
(-1.20797 -2.0976 1.03498e-316)
(-0.753971 -2.94539 8.99262e-317)
(-1.06079 -2.93011 8.58202e-317)
(-0.361088 -3.78332 7.90554e-317)
(-0.471017 -3.37078 7.8824e-317)
(-0.595494 3.84866 5.40525e-317)
(-0.151757 3.2346 1.30665e-316)
(-0.871118 2.87531 1.69211e-316)
(-0.555982 2.25998 1.95442e-316)
(-0.934945 2.09818 2.06751e-316)
(-0.818691 1.52142 2.10693e-316)
(-0.991983 1.47263 2.05752e-316)
(-1.05363 0.932127 1.98267e-316)
(-1.1006 0.925368 1.84074e-316)
(-1.32274 0.395102 1.69938e-316)
(-1.26967 0.367792 1.50221e-316)
(-1.64393 -0.184033 1.31437e-316)
(-1.46515 -0.302033 1.0749e-316)
(-1.97186 -0.882798 8.35671e-317)
(-1.58562 -1.1815 5.43596e-317)
(-2.15803 -1.72729 2.1363e-317)
(-1.43298 -2.29935 -1.70611e-317)
(-1.91154 -2.64004 -6.82764e-317)
(-0.716745 -3.41876 -1.24196e-316)
(-0.839325 -3.44055 -2.11305e-316)
(-0.578141 3.87405 -1.6017e-316)
(0.061046 2.91973 -4.41913e-317)
(-0.618876 2.69886 2.5397e-317)
(-0.139388 1.86882 8.3639e-317)
(-0.467892 1.89187 1.16599e-316)
(-0.199523 1.21096 1.3976e-316)
(-0.33529 1.30574 1.48941e-316)
(-0.243808 0.72911 1.52085e-316)
(-0.284263 0.812845 1.47532e-316)
(-0.355893 0.277433 1.40381e-316)
(-0.334604 0.277324 1.29103e-316)
(-0.588287 -0.283707 1.17826e-316)
(-0.470994 -0.465874 1.04732e-316)
(-0.953829 -1.09725 9.38876e-317)
(-0.617929 -1.59719 8.30191e-317)
(-1.38997 -2.26701 7.70595e-317)
(-0.601499 -3.21312 7.21549e-317)
(-1.67633 -3.74156 7.52651e-317)
(-0.119958 -4.9948 7.93995e-317)
(-1.2605 -5.13308 9.02521e-317)
(-0.556738 4.38822 9.7288e-317)
(0.129297 3.2479 1.18987e-316)
(-0.531671 3.06722 1.34995e-316)
(-0.109664 2.06659 1.43073e-316)
(-0.411231 2.14137 1.48843e-316)
(-0.267783 1.35485 1.49214e-316)
(-0.365045 1.50415 1.46572e-316)
(-0.440531 0.861591 1.40985e-316)
(-0.437942 1.03506 1.32321e-316)
(-0.716455 0.440056 1.22116e-316)
(-0.651237 0.608716 1.09271e-316)
(-1.16117 -0.0450506 9.54274e-317)
(-0.99056 0.0762447 7.92731e-317)
(-1.78167 -0.739944 6.14294e-317)
(-1.34932 -0.745447 4.13371e-317)
(-2.44456 -1.77964 1.64159e-317)
(-1.4378 -2.05537 -1.02704e-317)
(-2.71839 -3.21959 -4.91546e-317)
(-0.694723 -3.95619 -8.79482e-317)
(-1.67203 -4.99117 -1.50356e-316)
(-0.337967 4.32403 -6.76253e-317)
(0.210838 2.90216 -4.44189e-318)
(-0.183369 2.94894 3.80342e-317)
(0.223599 1.74843 7.46773e-317)
(0.0720797 2.05519 9.56034e-317)
(0.303026 1.16417 1.1018e-316)
(0.281802 1.48274 1.15647e-316)
(0.366927 0.803487 1.1657e-316)
(0.387136 1.09611 1.12723e-316)
(0.331384 0.495857 1.06566e-316)
(0.356122 0.735868 9.82053e-317)
(0.120544 0.0648875 8.95119e-317)
(0.188365 0.177624 8.05688e-317)
(-0.321898 -0.726396 7.34511e-317)
(-0.0446916 -0.901296 6.81258e-317)
(-0.995867 -2.16759 6.82692e-317)
(-0.133716 -2.90089 7.24533e-317)
(-1.72665 -4.48095 8.91276e-317)
(0.313052 -6.01655 1.11398e-316)
(-1.79184 -7.50683 1.58623e-316)
(-0.0861321 4.50197 1.69944e-316)
(0.319408 3.07352 1.45876e-316)
(0.174135 3.04061 1.4018e-316)
(0.349315 1.7979 1.31948e-316)
(0.344078 2.05488 1.2901e-316)
(0.35314 1.13958 1.23948e-316)
(0.433363 1.43938 1.19167e-316)
(0.311084 0.756504 1.12841e-316)
(0.403904 1.07282 1.05375e-316)
(0.126894 0.474204 9.68359e-317)
(0.198456 0.81912 8.71462e-317)
(-0.310625 0.124005 7.66951e-317)
(-0.220348 0.50517 6.54293e-317)
(-1.09006 -0.5149 5.30274e-317)
(-0.79854 -0.115016 4.02219e-317)
(-2.17577 -1.71758 2.42414e-317)
(-1.23424 -1.41697 9.08876e-318)
(-3.11005 -3.71772 -1.31502e-317)
(-0.713906 -4.01793 -3.18177e-317)
(-2.3773 -6.51968 -5.45507e-317)
(0.149069 4.12454 1.24952e-317)
(0.220168 2.67053 4.66651e-317)
(0.465539 2.91936 6.89846e-317)
(0.563282 1.58979 8.99718e-317)
(0.773863 2.04458 9.88929e-317)
(0.858553 1.07621 1.047e-316)
(1.0408 1.51344 1.04442e-316)
(1.09345 0.82388 1.01606e-316)
(1.21453 1.25773 9.60712e-317)
(1.21772 0.678012 8.92486e-317)
(1.25025 1.13142 8.152e-317)
(1.16326 0.443622 7.38534e-317)
(1.12318 0.891097 6.68118e-317)
(0.852949 -0.198773 6.18163e-317)
(0.870907 0.105171 5.94811e-317)
(0.217222 -1.76099 6.36075e-317)
(0.681021 -2.00265 7.3015e-317)
(-0.735876 -4.92001 1.00062e-316)
(0.913839 -6.58721 1.33866e-316)
(-1.57666 -10.2177 2.12596e-316)
(0.646724 4.17205 1.78991e-316)
(0.394724 2.77799 1.49668e-316)
(1.00272 2.73916 1.37744e-316)
(0.72777 1.51877 1.25585e-316)
(1.13517 1.801 1.18436e-316)
(0.945244 0.906639 1.10813e-316)
(1.25924 1.24489 1.04311e-316)
(1.10219 0.614126 9.72744e-317)
(1.30997 0.982595 9.00447e-317)
(1.11001 0.460961 8.2352e-317)
(1.18812 0.891526 7.43527e-317)
(0.839599 0.258994 6.61039e-317)
(0.794792 0.800716 5.78365e-317)
(0.123 -0.27244 4.91625e-317)
(0.0748197 0.445071 4.0812e-317)
(-1.18951 -1.55014 3.06352e-317)
(-0.785985 -0.64079 2.14076e-317)
(-2.86228 -3.97702 7.9725e-318)
(-0.821737 -3.45405 -3.47982e-318)
(-2.95402 -7.27196 -1.16231e-317)
(0.560526 3.3024 5.41485e-317)
(0.182697 2.38655 1.03953e-316)
(1.10731 2.6385 1.11751e-316)
(0.914699 1.47209 1.2135e-316)
(1.53314 1.85274 1.17706e-316)
(1.47465 0.962765 1.13998e-316)
(1.88618 1.37166 1.06808e-316)
(1.91184 0.771 9.90726e-317)
(2.15037 1.23841 9.04537e-317)
(2.24268 0.766926 8.16408e-317)
(2.29885 1.33951 7.28939e-317)
(2.45007 0.754587 6.46969e-317)
(2.29397 1.4648 5.75523e-317)
(2.48398 0.379849 5.25384e-317)
(2.11108 1.17457 5.01688e-317)
(2.2557 -1.05833 5.42992e-317)
(1.83378 -0.599746 6.2897e-317)
(1.59218 -4.84253 8.97823e-317)
(1.63219 -6.35663 1.20525e-316)
(0.0277934 -13.0562 1.94782e-316)
(1.41558 3.57009 8.4478e-317)
(0.35899 2.34111 1.06394e-316)
(1.62124 2.18053 1.05784e-316)
(0.934403 1.19021 1.02282e-316)
(1.69069 1.38066 9.77243e-317)
(1.36139 0.641479 9.20611e-317)
(1.87657 0.924685 8.69363e-317)
(1.72593 0.426415 8.134e-317)
(2.03634 0.755148 7.57722e-317)
(1.9599 0.374985 6.99493e-317)
(2.05335 0.77447 6.41294e-317)
(1.96261 0.305903 5.82943e-317)
(1.79407 0.833011 5.26659e-317)
(1.5351 -0.0771309 4.69117e-317)
(1.07513 0.682422 4.12459e-317)
(0.316536 -1.29119 3.37666e-317)
(-0.161853 -0.117273 2.5376e-317)
(-2.01399 -3.85653 1.03322e-317)
(-0.990512 -2.42993 -7.24878e-318)
(-3.76869 -6.34002 -3.73344e-317)
(0.677434 2.06639 2.26294e-316)
(0.336002 2.23248 2.55807e-316)
(1.7696 2.20089 2.1953e-316)
(1.51889 1.39957 1.94825e-316)
(2.50258 1.51986 1.67958e-316)
(2.36802 0.808692 1.47175e-316)
(2.98552 1.08793 1.28859e-316)
(2.9938 0.639132 1.12848e-316)
(3.34312 1.05044 9.83261e-317)
(3.52913 0.739992 8.48607e-317)
(3.64 1.31729 7.23916e-317)
(4.06028 0.927389 6.09895e-317)
(3.86226 1.75001 5.0977e-317)
(4.6176 0.883866 4.31934e-317)
(3.89723 2.03121 3.79804e-317)
(5.16851 -0.173566 3.88298e-317)
(3.55073 1.09352 4.34212e-317)
(5.5163 -4.18697 6.37638e-317)
(2.43336 -4.89635 8.5873e-317)
(4.09305 -16.0449 1.35396e-316)
(2.00283 2.81201 -9.42196e-317)
(0.17909 1.6017 -2.28798e-317)
(1.6138 1.38858 5.86154e-318)
(0.763426 0.706583 2.28513e-317)
(1.56828 0.818482 3.33705e-317)
(1.24204 0.32484 3.89258e-317)
(1.79668 0.516558 4.29458e-317)
(1.68939 0.201231 4.50539e-317)
(2.02583 0.421122 4.63429e-317)
(2.0432 0.206526 4.68112e-317)
(2.14959 0.465912 4.68776e-317)
(2.25125 0.211268 4.66409e-317)
(2.0466 0.538655 4.62514e-317)
(2.15449 -0.0174375 4.53527e-317)
(1.46823 0.427256 4.36497e-317)
(1.30289 -0.96086 3.88951e-317)
(0.13876 -0.239041 3.07694e-317)
(-1.31586 -3.09683 1.06651e-317)
(-1.12679 -1.58618 -1.54823e-317)
(-5.95971 -2.52522 -7.53972e-317)
(0.485493 0.736984 9.1512e-316)
(1.03814 2.43509 6.42017e-316)
(3.03087 1.78208 4.78434e-316)
(2.96646 1.38137 3.59247e-316)
(4.43263 1.1743 2.88289e-316)
(4.22766 0.632591 2.35826e-316)
(5.08519 0.77293 1.97813e-316)
(5.05089 0.470378 1.66126e-316)
(5.52675 0.797163 1.39078e-316)
(5.81455 0.639821 1.14606e-316)
(6.04277 1.15181 9.2297e-317)
(6.79848 0.969474 7.18438e-317)
(6.7175 1.76667 5.35326e-317)
(8.17797 1.22574 3.8131e-317)
(7.35508 2.51137 2.62096e-317)
(10.0035 0.655956 2.10334e-317)
(7.13253 2.70498 2.08673e-317)
(12.1082 -3.29568 3.57618e-317)
(3.8075 -1.7675 5.29128e-317)
(12.5905 -19.7389 8.90204e-317)
(2.22693 1.789 -5.97189e-316)
(-0.184373 0.132068 -4.05285e-316)
(0.238159 0.260784 -2.80972e-316)
(-0.395677 -0.0949337 -1.95289e-316)
(-0.316118 0.0848034 -1.42026e-316)
(-0.434433 -0.0506839 -1.04261e-316)
(-0.270638 0.0406599 -7.63367e-317)
(-0.300221 -0.046016 -5.40172e-317)
(-0.166823 -0.00617206 -3.52432e-317)
(-0.207887 -0.0675466 -1.88732e-317)
(-0.183198 -0.0650669 -4.20389e-318)
(-0.278696 -0.127679 9.07365e-318)
(-0.432245 -0.183735 2.09654e-317)
(-0.646732 -0.29355 3.09881e-317)
(-1.05708 -0.496315 3.82849e-317)
(-1.60203 -0.692647 4.00539e-317)
(-2.03763 -1.26662 3.57811e-317)
(-4.10846 -1.08882 1.49212e-317)
(-1.66711 -1.83029 -1.24562e-317)
(-12.0571 6.23783 -7.88453e-317)
(-0.160548 -0.351263 2.3636e-315)
(2.6762 3.40883 1.32915e-315)
(6.51264 1.80642 9.40929e-316)
(6.54529 1.59835 6.71236e-316)
(9.34909 1.12718 5.39961e-316)
(8.81501 0.561278 4.43078e-316)
(10.3049 0.652839 3.75377e-316)
(10.1144 0.381128 3.1746e-316)
(10.9378 0.702866 2.67175e-316)
(11.4368 0.61499 2.20789e-316)
(11.9901 1.13471 1.77885e-316)
(13.4893 1.06374 1.38077e-316)
(13.8055 1.88706 1.0209e-316)
(16.7791 1.52051 7.09903e-317)
(16.2171 2.91634 4.61145e-317)
(21.492 1.1745 3.10517e-317)
(17.2922 3.9377 2.3833e-317)
(26.7979 -3.3272 3.34096e-317)
(9.15 2.72538 4.23476e-317)
(28.8134 -25.9405 6.26694e-317)
)
;

boundaryField
{
    cavity
    {
        type            myImplicitVelocity;
    }
    lid
    {
        type            fixedValue;
        value           uniform (1 0 0);
    }
    frontAndBack
    {
        type            empty;
    }
}


// ************************************************************************* //
