/*--------------------------------*- C++ -*----------------------------------*\
| =========                 |                                                 |
| \\      /  F ield         | foam-extend: Open Source CFD                    |
|  \\    /   O peration     | Version:  3.0                                   |
|   \\  /    A nd           | Web:         http://www.extend-project.de       |
|    \\/     M anipulation  |                                                 |
\*---------------------------------------------------------------------------*/
FoamFile
{
    version     2.0;
    format      ascii;
    class       volSymmTensorField;
    location    "16";
    object      sigma;
}
// * * * * * * * * * * * * * * * * * * * * * * * * * * * * * * * * * * * * * //

dimensions      [0 0 0 0 0 0 0];

internalField   nonuniform List<symmTensor> 
7680
(
(-0.179356 -0.00273034 3.80825e-22 0.179348 -1.11029e-21 7.79964e-06)
(-0.178723 -0.00310662 6.20236e-22 0.178701 -2.27331e-21 2.21008e-05)
(-0.176032 -0.00334422 1.24848e-22 0.175996 -5.60817e-21 3.55259e-05)
(-0.171967 -0.00348146 -4.13885e-22 0.171919 -6.27437e-21 4.81574e-05)
(-0.167003 -0.00354564 -5.79804e-22 0.166943 -5.84443e-21 6.00599e-05)
(-0.161469 -0.00355644 -1.30145e-21 0.161398 -3.74732e-21 7.12812e-05)
(-0.155598 -0.00352818 -1.06567e-21 0.155516 -2.42307e-21 8.18574e-05)
(-0.149552 -0.00347142 -1.46583e-21 0.14946 -1.34128e-21 9.18129e-05)
(-0.143447 -0.00339396 -1.51458e-21 0.143346 1.02309e-21 0.000101165)
(-0.137363 -0.00330163 -7.41417e-22 0.137253 -4.15029e-22 0.000109923)
(-0.131356 -0.00319881 -9.37565e-22 0.131238 -2.5617e-21 0.000118092)
(-0.125466 -0.00308878 -8.88312e-22 0.12534 -3.28888e-21 0.000125668)
(-0.119718 -0.00297402 -1.59584e-21 0.119585 -3.10486e-21 0.000132647)
(-0.11413 -0.00285642 -3.59768e-21 0.113991 7.33356e-23 0.000139019)
(-0.108714 -0.0027374 -7.49308e-21 0.108569 2.19451e-21 0.000144771)
(-0.103474 -0.00261806 -8.16921e-21 0.103324 3.97745e-21 0.000149886)
(-0.0984144 -0.00249923 -8.4763e-21 0.0982601 7.31537e-21 0.000154345)
(-0.0935356 -0.00238152 -9.59977e-21 0.0933775 1.02078e-20 0.000158124)
(-0.0888368 -0.00226542 -1.30028e-20 0.0886756 1.17511e-20 0.000161203)
(-0.0843163 -0.00215131 -1.57361e-20 0.0841528 1.2585e-20 0.000163551)
(-0.0799718 -0.00203947 -2.24656e-20 0.0798067 1.16896e-20 0.000165143)
(-0.0758007 -0.00193012 -2.37169e-20 0.0756347 1.25145e-20 0.000165948)
(-0.0718004 -0.00182345 -2.42937e-20 0.0716345 1.46883e-20 0.000165934)
(-0.0679687 -0.00171962 -2.36866e-20 0.0678036 1.68681e-20 0.000165069)
(-0.0643033 -0.00161876 -2.34767e-20 0.06414 1.77179e-20 0.00016332)
(-0.0608026 -0.001521 -2.32067e-20 0.060642 2.18598e-20 0.000160651)
(-0.0574654 -0.00142649 -2.11661e-20 0.0573084 2.4811e-20 0.00015703)
(-0.054291 -0.00133536 -1.68457e-20 0.0541386 2.39274e-20 0.00015242)
(-0.0512793 -0.00124777 -1.74481e-20 0.0511326 2.01951e-20 0.00014679)
(-0.0484311 -0.0011639 -1.97665e-20 0.048291 1.62736e-20 0.000140104)
(-0.0457475 -0.00108395 -1.9323e-20 0.0456152 1.32145e-20 0.000132332)
(-0.0432308 -0.00100817 -1.37916e-20 0.0431074 1.03887e-20 0.000123443)
(-0.0408839 -0.000936825 -5.62019e-21 0.0407704 7.11308e-21 0.000113412)
(-0.0387104 -0.00087022 -2.39096e-21 0.0386082 8.24326e-21 0.000102211)
(-0.0367153 -0.000808684 -1.10544e-20 0.0366255 8.72244e-21 8.98232e-05)
(-0.0349042 -0.00075255 -1.65768e-20 0.034828 7.54301e-21 7.62296e-05)
(-0.033284 -0.000702021 -1.64006e-20 0.0332226 2.99532e-21 6.14218e-05)
(-0.0318627 -0.000656852 -6.30029e-21 0.0318173 3.35253e-21 4.53928e-05)
(-0.0306495 -0.000615292 -3.79411e-21 0.0306214 8.10965e-22 2.81466e-05)
(-0.0296547 -0.000570965 -9.78506e-22 0.029645 -1.47704e-21 9.69063e-06)
(-0.179215 -0.0081635 1.0744e-21 0.179207 -1.66428e-21 7.79002e-06)
(-0.178475 -0.00934965 1.50759e-21 0.178453 -2.88771e-21 2.20735e-05)
(-0.175707 -0.0101134 7.01606e-22 0.175672 -5.98184e-21 3.54818e-05)
(-0.171588 -0.0105718 1.03427e-21 0.17154 -6.13888e-21 4.80974e-05)
(-0.166586 -0.0108078 1.93978e-21 0.166526 -6.26879e-21 5.99849e-05)
(-0.161027 -0.0108815 1.7376e-21 0.160956 -3.70046e-21 7.11917e-05)
(-0.15514 -0.0108365 1.43178e-21 0.155058 -2.41688e-21 8.1754e-05)
(-0.149085 -0.0107049 1.26511e-21 0.148994 -3.23022e-22 9.16962e-05)
(-0.142976 -0.0105105 9.852e-22 0.142875 3.0705e-21 0.000101036)
(-0.136892 -0.0102712 -9.57244e-22 0.136783 9.36116e-22 0.000109782)
(-0.130889 -0.0100002 -1.57058e-21 0.130771 -2.11759e-21 0.000117938)
(-0.125004 -0.00970763 -7.83692e-22 0.124879 -2.15704e-21 0.000125504)
(-0.119264 -0.00940108 -7.34873e-22 0.119131 -3.67272e-22 0.000132473)
(-0.113684 -0.00908635 -2.24331e-21 0.113545 2.96172e-21 0.000138834)
(-0.108277 -0.00876786 -5.91897e-21 0.108132 7.14762e-21 0.000144577)
(-0.103047 -0.00844898 -6.47534e-21 0.102897 9.88792e-21 0.000149683)
(-0.0979973 -0.00813227 -6.35951e-21 0.0978432 1.46984e-20 0.000154134)
(-0.0931288 -0.00781973 -5.6029e-21 0.0929709 1.3339e-20 0.000157906)
(-0.0884403 -0.00751285 -9.38746e-21 0.0882794 1.47926e-20 0.000160978)
(-0.0839301 -0.00721282 -1.51964e-20 0.0837668 1.30942e-20 0.000163321)
(-0.0795956 -0.00692054 -2.26902e-20 0.0794307 1.33422e-20 0.000164909)
(-0.0754344 -0.00663671 -2.23217e-20 0.0752687 1.41995e-20 0.000165709)
(-0.0714438 -0.00636191 -2.09108e-20 0.0712781 1.72137e-20 0.000165694)
(-0.0676214 -0.00609662 -2.03911e-20 0.0674566 1.84215e-20 0.000164827)
(-0.063965 -0.00584122 -2.39705e-20 0.0638019 2.47596e-20 0.000163078)
(-0.0604729 -0.00559607 -1.62693e-20 0.0603125 2.95585e-20 0.000160411)
(-0.0571438 -0.00536152 -1.47943e-20 0.056987 3.29648e-20 0.000156792)
(-0.0539772 -0.0051379 -1.5522e-20 0.053825 2.83207e-20 0.000152187)
(-0.0509729 -0.00492555 -1.91585e-20 0.0508263 2.43378e-20 0.000146563)
(-0.0481315 -0.00472485 -2.0661e-20 0.0479916 2.14701e-20 0.000139885)
(-0.0454544 -0.0045362 -2.11709e-20 0.0453222 2.05687e-20 0.000132124)
(-0.0429436 -0.00436007 -2.11071e-20 0.0428203 1.93539e-20 0.000123247)
(-0.040602 -0.00419696 -1.10536e-20 0.0404888 1.1132e-20 0.00011323)
(-0.0384336 -0.00404742 2.23039e-21 0.0383315 3.96405e-21 0.000102046)
(-0.0364428 -0.00391207 -6.28078e-21 0.0363531 1.0394e-20 8.96764e-05)
(-0.0346356 -0.00379153 -1.37237e-20 0.0345595 1.2004e-20 7.61039e-05)
(-0.0330188 -0.00368635 -2.03742e-20 0.0329575 1.16008e-20 6.13196e-05)
(-0.0316003 -0.00359671 -6.71323e-21 0.031555 1.24384e-20 4.53165e-05)
(-0.0303895 -0.00352142 -7.58539e-21 0.0303614 7.66833e-21 2.80987e-05)
(-0.0293969 -0.00345512 -5.06645e-21 0.0293872 3.33519e-21 9.67379e-06)
(-0.178938 -0.0135956 1.71268e-21 0.17893 -2.28246e-21 7.76996e-06)
(-0.177984 -0.0155745 2.4e-21 0.177962 -4.2354e-21 2.20157e-05)
(-0.175063 -0.0168519 1.22554e-21 0.175027 -5.70709e-21 3.53888e-05)
(-0.170835 -0.0176221 2.81979e-21 0.170787 -6.70691e-21 4.79715e-05)
(-0.165757 -0.0180233 3.0072e-21 0.165697 -5.88167e-21 5.98279e-05)
(-0.160147 -0.0181552 4.12638e-21 0.160076 -3.80768e-21 7.10055e-05)
(-0.154227 -0.0180901 3.64664e-21 0.154146 -2.82437e-21 8.15403e-05)
(-0.148154 -0.0178816 5.04092e-21 0.148062 -6.87551e-22 9.14567e-05)
(-0.142037 -0.017569 5.8999e-21 0.141936 1.21314e-21 0.000100772)
(-0.135953 -0.0171819 -3.06443e-22 0.135843 -3.27258e-22 0.000109495)
(-0.129956 -0.0167426 -3.4296e-21 0.129838 -1.0671e-21 0.000117631)
(-0.124081 -0.0162676 2.3064e-22 0.123956 -6.36859e-22 0.000125177)
(-0.118354 -0.0157697 3.44758e-21 0.118222 1.12614e-21 0.000132127)
(-0.112791 -0.0152585 1.31025e-21 0.112653 7.86364e-21 0.000138473)
(-0.107402 -0.0147413 -4.12001e-21 0.107258 1.69798e-20 0.0001442)
(-0.102191 -0.0142238 -5.04778e-21 0.102042 2.00172e-20 0.000149292)
(-0.0971611 -0.0137102 7.29579e-22 0.0970074 1.98645e-20 0.000153731)
(-0.0923127 -0.0132039 -9.64493e-21 0.0921552 1.76111e-20 0.000157493)
(-0.0876445 -0.0127073 -5.83155e-21 0.0874839 1.34436e-20 0.000160557)
(-0.0831544 -0.0122224 -1.70314e-20 0.0829915 1.54758e-20 0.000162893)
(-0.0788398 -0.0117508 -2.06406e-20 0.0786753 1.57763e-20 0.000164475)
(-0.074698 -0.0112936 -2.22251e-20 0.0745327 1.91651e-20 0.000165273)
(-0.0707263 -0.0108517 -1.91055e-20 0.070561 2.24053e-20 0.000165257)
(-0.0669221 -0.010426 -2.19274e-20 0.0667577 2.79372e-20 0.000164391)
(-0.0632833 -0.0100171 -1.08158e-20 0.0631206 3.54185e-20 0.000162646)
(-0.059808 -0.00962547 -1.14833e-20 0.059648 4.09724e-20 0.000159984)
(-0.0564949 -0.00925179 -1.17142e-20 0.0563385 4.34995e-20 0.000156375)
(-0.0533434 -0.00889654 -2.08946e-20 0.0531916 3.77013e-20 0.000151781)
(-0.0503533 -0.00856023 -1.96785e-20 0.0502072 3.19592e-20 0.000146171)
(-0.0475253 -0.00824345 -1.9159e-20 0.0473858 2.86612e-20 0.00013951)
(-0.0448605 -0.00794678 -1.5264e-20 0.0447287 2.95595e-20 0.000131768)
(-0.042361 -0.00767092 -1.68977e-20 0.0422381 3.48344e-20 0.000122914)
(-0.0400297 -0.00741658 -2.42128e-20 0.0399168 2.53935e-20 0.000112923)
(-0.0378704 -0.00718459 -1.19849e-20 0.0377687 7.7982e-21 0.000101769)
(-0.0358878 -0.00697581 1.17369e-21 0.0357983 2.02837e-20 8.94322e-05)
(-0.0340875 -0.00679119 -9.34594e-21 0.0340116 2.01197e-20 7.58961e-05)
(-0.0324763 -0.0066316 -1.19935e-20 0.0324151 2.19835e-20 6.11515e-05)
(-0.0310622 -0.00649762 -2.16406e-21 0.031017 2.28274e-20 4.51918e-05)
(-0.0298545 -0.00638867 -5.38089e-21 0.0298265 1.13247e-20 2.8021e-05)
(-0.028864 -0.00630039 -1.07267e-21 0.0288544 3.65869e-21 9.64683e-06)
(-0.178525 -0.0190264 2.37322e-21 0.178517 -3.09836e-21 7.74171e-06)
(-0.177252 -0.0217694 3.95524e-21 0.17723 -6.05215e-21 2.19352e-05)
(-0.174102 -0.0235395 2.40219e-21 0.174066 -5.341e-21 3.52592e-05)
(-0.169711 -0.0246064 3.65532e-21 0.169664 -6.98215e-21 4.77958e-05)
(-0.164521 -0.0251618 4.7287e-21 0.164461 -3.64703e-21 5.96089e-05)
(-0.158834 -0.0253439 6.16056e-21 0.158764 -3.76423e-21 7.07456e-05)
(-0.152866 -0.0252534 5.04013e-21 0.152785 -2.91702e-21 8.12419e-05)
(-0.146765 -0.0249641 6.00047e-21 0.146674 -7.68282e-22 9.11221e-05)
(-0.140636 -0.0245311 4.81741e-21 0.140535 1.74832e-22 0.000100404)
(-0.134552 -0.0239951 -2.8016e-21 0.134443 1.50455e-21 0.000109095)
(-0.128563 -0.0233869 -3.85148e-21 0.128446 2.99018e-21 0.000117201)
(-0.122704 -0.0227298 -6.54707e-22 0.12258 2.56705e-21 0.000124719)
(-0.116998 -0.0220412 5.07666e-21 0.116866 2.1276e-21 0.000131644)
(-0.111459 -0.0213345 1.08476e-20 0.111321 1.18162e-20 0.000137966)
(-0.106096 -0.02062 1.16722e-20 0.105952 2.14708e-20 0.000143673)
(-0.100913 -0.0199053 2.76448e-21 0.100764 2.46095e-20 0.000148746)
(-0.0959128 -0.0191965 4.30562e-21 0.0957596 1.47197e-20 0.000153168)
(-0.0910943 -0.0184981 -5.20349e-21 0.0909374 1.83712e-20 0.000156916)
(-0.0864561 -0.0178136 -1.49702e-20 0.0862961 1.70437e-20 0.000159968)
(-0.0819959 -0.0171457 -1.17695e-20 0.0818336 2.05167e-20 0.000162295)
(-0.0777107 -0.0164965 -2.31523e-20 0.0775469 2.34406e-20 0.000163871)
(-0.0735978 -0.0158676 -1.77318e-20 0.0734331 2.79644e-20 0.000164665)
(-0.0696541 -0.0152604 -1.38542e-20 0.0694894 3.06843e-20 0.000164648)
(-0.065877 -0.0146759 -4.79829e-21 0.0657132 3.42892e-20 0.000163785)
(-0.0622642 -0.014115 -4.70878e-22 0.0621022 3.81179e-20 0.000162046)
(-0.0588138 -0.0135786 6.9776e-21 0.0586544 4.32464e-20 0.000159393)
(-0.0555245 -0.0130672 1.53858e-21 0.0553687 4.76508e-20 0.000155796)
(-0.0523954 -0.0125817 -1.65188e-20 0.0522442 4.62613e-20 0.000151219)
(-0.0494264 -0.0121227 -2.19963e-20 0.0492807 4.08595e-20 0.000145629)
(-0.0466179 -0.011691 -2.22613e-20 0.0464789 4.26651e-20 0.000138991)
(-0.0439713 -0.0112874 -7.89337e-21 0.04384 3.75172e-20 0.000131278)
(-0.0414885 -0.0109127 5.0416e-21 0.041366 3.31307e-20 0.000122457)
(-0.0391722 -0.010568 -2.39599e-20 0.0390597 3.51189e-20 0.000112502)
(-0.0370263 -0.0102543 -2.84627e-20 0.036925 2.85561e-20 0.000101389)
(-0.0350553 -0.00997265 1.91334e-20 0.0349662 3.28232e-20 8.9098e-05)
(-0.0332649 -0.00972438 -1.42892e-21 0.0331893 2.4906e-20 7.56121e-05)
(-0.0316616 -0.00951065 -3.43515e-21 0.0316007 2.34293e-20 6.09223e-05)
(-0.0302536 -0.00933248 5.86778e-21 0.0302085 1.8614e-20 4.50221e-05)
(-0.0290497 -0.00918983 -1.49552e-20 0.0290218 5.63345e-22 2.79154e-05)
(-0.0280612 -0.00907934 -6.09863e-21 0.0280516 -6.70519e-21 9.6103e-06)
(-0.177975 -0.0244555 2.56173e-21 0.177967 -2.94695e-21 7.70532e-06)
(-0.176281 -0.027923 4.62181e-21 0.176259 -4.78032e-21 2.18318e-05)
(-0.172829 -0.0301568 4.56266e-21 0.172794 -6.24787e-21 3.50929e-05)
(-0.168225 -0.0314991 2.55004e-21 0.168177 -1.14482e-21 4.75703e-05)
(-0.162885 -0.0321933 6.47329e-21 0.162826 -3.87994e-23 5.93276e-05)
(-0.157098 -0.0324148 6.65449e-21 0.157028 -3.63725e-21 7.04117e-05)
(-0.151066 -0.0322911 6.42352e-21 0.150985 -2.39438e-21 8.08585e-05)
(-0.144928 -0.0319161 8.33116e-21 0.144838 2.24019e-22 9.06921e-05)
(-0.138784 -0.0313593 6.9949e-21 0.138684 2.79531e-21 9.99298e-05)
(-0.132699 -0.0306727 -1.35301e-21 0.132591 8.32637e-21 0.00010858)
(-0.126723 -0.0298952 -3.86914e-21 0.126606 9.55971e-21 0.000116648)
(-0.120884 -0.0290561 -4.09399e-21 0.12076 9.78319e-21 0.000124131)
(-0.115205 -0.0281778 3.58695e-21 0.115074 6.26371e-21 0.000131023)
(-0.109698 -0.0272772 2.21238e-20 0.10956 9.452e-21 0.000137315)
(-0.10437 -0.026367 2.15054e-20 0.104227 1.54325e-20 0.000142995)
(-0.0992243 -0.0254573 1.09933e-20 0.0990763 1.50149e-20 0.000148044)
(-0.0942627 -0.0245555 -6.11015e-21 0.0941102 1.00903e-20 0.000152445)
(-0.0894837 -0.0236673 7.20215e-22 0.0893275 1.68651e-20 0.000156175)
(-0.0848852 -0.0227973 -5.1297e-21 0.0847259 2.08196e-20 0.000159212)
(-0.0804644 -0.0219488 -7.69323e-21 0.0803028 2.48286e-20 0.000161528)
(-0.0762181 -0.0211245 -1.85144e-20 0.076055 3.7446e-20 0.000163096)
(-0.0721432 -0.0203264 -1.51e-20 0.0719793 3.87402e-20 0.000163886)
(-0.0682365 -0.0195562 -3.70171e-21 0.0680727 2.81278e-20 0.000163869)
(-0.0644952 -0.0188152 -3.04128e-21 0.0643322 2.94662e-20 0.000163009)
(-0.0609168 -0.0181046 1.16363e-21 0.0607555 4.25031e-20 0.000161277)
(-0.0574993 -0.0174254 9.46206e-21 0.0573407 4.24271e-20 0.000158637)
(-0.0542412 -0.0167783 1.84069e-20 0.0540861 3.8318e-20 0.000155057)
(-0.0511416 -0.0161644 -5.00588e-21 0.0509911 4.49751e-20 0.000150501)
(-0.0482003 -0.0155845 -1.41917e-20 0.0480554 4.54109e-20 0.000144937)
(-0.0454177 -0.0150395 2.79356e-22 0.0452794 4.0173e-20 0.000138331)
(-0.042795 -0.0145304 2.0716e-22 0.0426643 1.79721e-20 0.000130654)
(-0.040334 -0.0140583 6.93248e-21 0.0402121 6.43424e-21 0.000121874)
(-0.0380375 -0.0136243 8.78239e-21 0.0379255 1.48914e-20 0.000111967)
(-0.0359091 -0.0132297 -4.84995e-21 0.0358082 2.43349e-20 0.000100906)
(-0.0339533 -0.012876 2.80582e-20 0.0338647 1.68705e-20 8.86739e-05)
(-0.0321757 -0.0125646 1.0843e-20 0.0321004 -7.08608e-21 7.5252e-05)
(-0.0305826 -0.0122971 1.36544e-20 0.030522 -1.45922e-20 6.06319e-05)
(-0.029182 -0.0120748 7.2143e-21 0.0291372 -1.70119e-20 4.48072e-05)
(-0.0279829 -0.0118984 -3.11817e-20 0.0279551 -2.21189e-20 2.77819e-05)
(-0.0269961 -0.0117653 -1.74836e-20 0.0269866 -1.12924e-20 9.56409e-06)
(-0.177287 -0.0298823 3.15964e-21 0.177279 -1.7553e-21 7.66086e-06)
(-0.175074 -0.0340239 4.5023e-21 0.175053 -1.37666e-22 2.17057e-05)
(-0.171251 -0.0366846 4.87954e-21 0.171216 -1.52347e-21 3.489e-05)
(-0.166384 -0.0382754 7.82891e-21 0.166337 2.91569e-21 4.72951e-05)
(-0.160861 -0.0390889 5.64027e-21 0.160802 3.78755e-21 5.89843e-05)
(-0.154951 -0.0393357 1.21314e-21 0.154881 3.31506e-21 7.00043e-05)
(-0.14884 -0.0391692 5.18364e-21 0.14876 2.29794e-21 8.03906e-05)
(-0.142658 -0.038702 1.05693e-20 0.142568 1.4494e-21 9.01673e-05)
(-0.136494 -0.0380175 1.36066e-20 0.136395 2.47607e-21 9.93516e-05)
(-0.13041 -0.0371781 5.44685e-21 0.130302 1.26416e-20 0.000107952)
(-0.124448 -0.0362305 -3.29368e-21 0.124332 1.71332e-20 0.000115973)
(-0.118635 -0.03521 -3.69506e-21 0.118512 1.71952e-20 0.000123413)
(-0.11299 -0.0341431 -2.05862e-21 0.112859 1.15468e-20 0.000130265)
(-0.107522 -0.0330502 1.95183e-20 0.107385 5.78659e-21 0.000136521)
(-0.102237 -0.0319468 3.10918e-20 0.102095 2.58461e-21 0.000142168)
(-0.0971381 -0.0308446 1.34698e-20 0.096991 9.86804e-22 0.000147187)
(-0.0922245 -0.0297526 -6.70622e-22 0.0920729 9.10227e-21 0.000151563)
(-0.0874943 -0.0286777 1.17717e-20 0.087339 1.03944e-20 0.000155271)
(-0.0829449 -0.0276252 6.76155e-21 0.0827866 1.02368e-20 0.00015829)
(-0.0785729 -0.0265992 1.23167e-20 0.0784123 1.65463e-20 0.000160593)
(-0.0743747 -0.0256029 1.5054e-20 0.0742126 2.93326e-20 0.000162152)
(-0.0703469 -0.0246386 1.83639e-21 0.0701839 2.47714e-20 0.000162937)
(-0.0664859 -0.0237084 -1.89317e-20 0.066323 1.83993e-20 0.000162919)
(-0.0627888 -0.0228139 6.33798e-21 0.0626267 2.51044e-20 0.000162065)
(-0.0592529 -0.0219564 3.64963e-20 0.0590925 3.08078e-20 0.000160343)
(-0.055876 -0.021137 1.97786e-20 0.0557182 3.16538e-20 0.000157718)
(-0.0526564 -0.0203568 2.19157e-20 0.0525023 1.68575e-20 0.000154158)
(-0.0495934 -0.0196168 2.14992e-20 0.0494437 2.90011e-20 0.000149628)
(-0.0466863 -0.0189182 -3.25724e-21 0.0465422 3.64918e-20 0.000144097)
(-0.0439356 -0.0182619 -1.45687e-20 0.0437981 1.87241e-20 0.000137529)
(-0.0413423 -0.0176491 -3.04326e-20 0.0412124 -1.08613e-20 0.000129897)
(-0.0389083 -0.017081 -9.07672e-21 0.0387871 -9.3516e-21 0.000121168)
(-0.0366361 -0.0165592 1.22606e-20 0.0365248 -1.31436e-20 0.000111318)
(-0.0345293 -0.016085 6.67255e-21 0.0344289 -4.82839e-21 0.000100322)
(-0.0325921 -0.0156601 2.58942e-20 0.032504 -3.03184e-20 8.81601e-05)
(-0.0308301 -0.0152863 -3.19461e-20 0.0307553 -4.39252e-20 7.48159e-05)
(-0.0292495 -0.0149654 -1.87123e-20 0.0291892 -4.45616e-20 6.02805e-05)
(-0.0278579 -0.0146992 4.22806e-21 0.0278134 -5.19129e-20 4.45472e-05)
(-0.0266642 -0.0144887 -2.56852e-20 0.0266366 -4.8175e-20 2.76204e-05)
(-0.0256793 -0.0143324 -1.51443e-20 0.0256698 -8.13837e-21 9.50827e-06)
(-0.176458 -0.035306 4.53821e-21 0.17645 -1.25563e-22 7.60836e-06)
(-0.173636 -0.0400612 7.84258e-21 0.173614 -3.46954e-22 2.15568e-05)
(-0.169376 -0.0431043 6.46528e-21 0.169342 2.02597e-21 3.46506e-05)
(-0.164199 -0.0449113 8.96521e-21 0.164153 6.30978e-21 4.69705e-05)
(-0.158461 -0.0458207 9.15621e-21 0.158403 5.40025e-21 5.85794e-05)
(-0.152407 -0.0460762 6.3876e-21 0.152337 4.78741e-21 6.95237e-05)
(-0.146204 -0.0458552 6.64222e-21 0.146124 2.58286e-21 7.98387e-05)
(-0.13997 -0.0452879 8.23302e-21 0.139881 2.84418e-21 8.95482e-05)
(-0.133785 -0.0444709 1.42923e-20 0.133686 3.2004e-21 9.86694e-05)
(-0.127702 -0.0434762 1.97376e-20 0.127595 8.86e-21 0.000107211)
(-0.121758 -0.0423576 1.20094e-20 0.121642 1.16994e-20 0.000115177)
(-0.115975 -0.041156 2.12595e-21 0.115853 1.49396e-20 0.000122565)
(-0.11037 -0.039902 -8.26198e-21 0.11024 1.55136e-20 0.000129371)
(-0.104949 -0.0386191 6.27187e-21 0.104813 9.07362e-21 0.000135584)
(-0.0997159 -0.0373251 2.37663e-20 0.0995747 -8.19057e-21 0.000141192)
(-0.0946718 -0.0360335 1.63902e-20 0.0945256 -8.65218e-21 0.000146177)
(-0.089815 -0.0347547 1.64556e-20 0.0896645 -5.00202e-21 0.000150523)
(-0.0851428 -0.0334967 1.56692e-20 0.0849886 -7.73765e-21 0.000154206)
(-0.0806516 -0.0322655 1.50137e-20 0.0804943 -1.63256e-20 0.000157204)
(-0.0763374 -0.0310657 2.44073e-20 0.0761779 -9.44051e-21 0.00015949)
(-0.0721962 -0.0299011 2.593e-20 0.0720352 6.91642e-22 0.000161038)
(-0.0682241 -0.0287743 -1.75138e-21 0.0680623 2.60725e-21 0.000161818)
(-0.0644174 -0.0276878 -1.49136e-20 0.0642556 1.68125e-20 0.000161801)
(-0.0607726 -0.0266432 8.95696e-21 0.0606116 1.51026e-20 0.000160952)
(-0.057287 -0.025642 3.26606e-20 0.0571277 2.91064e-21 0.000159242)
(-0.0539582 -0.0246857 3.42399e-20 0.0538015 -1.94228e-22 0.000156635)
(-0.0507844 -0.0237753 1.45859e-20 0.0506313 -1.02779e-20 0.0001531)
(-0.0477645 -0.0229122 4.40914e-20 0.0476159 2.31701e-22 0.000148601)
(-0.044898 -0.0220974 4.70448e-21 0.0447549 3.53819e-20 0.000143108)
(-0.042185 -0.0213322 -3.73105e-20 0.0420485 2.19291e-20 0.000136586)
(-0.0396266 -0.0206179 -8.34604e-20 0.0394976 2.0614e-20 0.000129006)
(-0.0372245 -0.0199559 -2.39737e-20 0.0371041 1.29527e-20 0.000120338)
(-0.034981 -0.0193478 -1.26102e-20 0.0348705 -6.22784e-21 0.000110556)
(-0.0328996 -0.0187954 -2.24095e-20 0.0328 6.2399e-21 9.96347e-05)
(-0.0309845 -0.0183004 -3.84675e-20 0.0308969 -2.41403e-20 8.75567e-05)
(-0.0292409 -0.017865 -4.04507e-20 0.0291665 -2.74975e-20 7.43039e-05)
(-0.0276748 -0.0174912 -4.00227e-20 0.027615 -2.35557e-20 5.98679e-05)
(-0.0262939 -0.0171812 -4.88437e-20 0.0262496 -3.49071e-20 4.42421e-05)
(-0.0251065 -0.0169365 -5.59104e-20 0.0250791 -2.57025e-20 2.74309e-05)
(-0.0241236 -0.0167563 4.08156e-21 0.0241142 7.03417e-21 9.44278e-06)
(-0.175487 -0.0407256 4.78301e-21 0.175479 1.73103e-21 7.5479e-06)
(-0.17197 -0.0460243 9.66987e-21 0.171948 -7.54392e-22 2.13855e-05)
(-0.167213 -0.0493984 9.97205e-21 0.167179 2.6678e-21 3.4375e-05)
(-0.161685 -0.051384 1.34652e-20 0.161638 4.90714e-21 4.65968e-05)
(-0.155702 -0.0523622 1.20585e-20 0.155644 1.062e-22 5.81133e-05)
(-0.149484 -0.052607 6.91264e-21 0.149415 -2.12817e-22 6.89704e-05)
(-0.143177 -0.052318 4.28479e-21 0.143098 2.68344e-21 7.92032e-05)
(-0.136885 -0.0516417 1.01089e-20 0.136797 2.90788e-21 8.88355e-05)
(-0.130676 -0.0506866 1.42157e-20 0.130578 4.96042e-21 9.78841e-05)
(-0.124595 -0.0495335 1.96565e-20 0.124488 4.55766e-21 0.000106358)
(-0.118672 -0.048243 6.31096e-21 0.118558 1.07599e-20 0.00011426)
(-0.112925 -0.0468608 8.24312e-21 0.112804 1.08107e-20 0.00012159)
(-0.107366 -0.0454214 -4.27636e-21 0.107238 1.69409e-20 0.000128342)
(-0.101999 -0.043951 2.46688e-21 0.101865 9.17307e-21 0.000134505)
(-0.0968261 -0.0424696 2.54696e-21 0.0966861 -7.7864e-21 0.000140068)
(-0.0918454 -0.0409923 8.67629e-21 0.0917003 -9.30728e-21 0.000145014)
(-0.0870541 -0.0395307 2.44946e-21 0.0869048 -1.19612e-20 0.000149325)
(-0.0824486 -0.0380937 6.19381e-21 0.0822957 -2.03052e-20 0.000152979)
(-0.0780244 -0.036688 -1.28743e-20 0.0778685 -2.59926e-20 0.000155953)
(-0.0737768 -0.0353188 1.39135e-20 0.0736186 -1.70638e-20 0.000158222)
(-0.0697012 -0.0339902 3.2025e-20 0.0695414 -1.23594e-20 0.000159758)
(-0.0657932 -0.0327052 1.01727e-20 0.0656327 -4.31296e-21 0.000160531)
(-0.0620487 -0.0314664 4.63433e-21 0.0618882 1.05388e-20 0.000160514)
(-0.0584642 -0.0302758 -8.10767e-21 0.0583045 1.05447e-20 0.000159673)
(-0.0550364 -0.0291349 6.85233e-21 0.0548784 -5.45823e-21 0.000157976)
(-0.0517629 -0.0280453 2.04827e-20 0.0516075 -2.34299e-20 0.00015539)
(-0.0486417 -0.0270084 -9.46527e-21 0.0484898 -1.09477e-20 0.000151884)
(-0.0456714 -0.0260253 3.94018e-20 0.045524 1.65644e-21 0.000147421)
(-0.0428515 -0.0250974 8.19163e-20 0.0427095 2.30237e-20 0.000141972)
(-0.0401819 -0.0242261 1.64862e-21 0.0400464 8.5892e-21 0.000135502)
(-0.0376636 -0.0234128 -3.26515e-20 0.0375356 3.25243e-20 0.000127983)
(-0.0352981 -0.0226591 -4.39216e-20 0.0351787 2.80412e-20 0.000119384)
(-0.0330876 -0.0219667 -3.47977e-20 0.0329779 2.47231e-20 0.00010968)
(-0.0310354 -0.0213376 1.70719e-20 0.0309366 2.00335e-20 9.8846e-05)
(-0.0291455 -0.0207738 -5.21777e-20 0.0290587 1.22068e-20 8.6864e-05)
(-0.027423 -0.0202777 -6.88518e-20 0.0273493 1.46802e-20 7.37161e-05)
(-0.0258738 -0.0198516 -5.49429e-20 0.0258144 2.99471e-20 5.93943e-05)
(-0.0245049 -0.019498 -4.99411e-20 0.024461 1.53316e-20 4.38919e-05)
(-0.0233248 -0.0192187 -3.26024e-20 0.0232976 -5.91239e-22 2.72135e-05)
(-0.0223441 -0.0190139 1.10356e-20 0.0223347 1.02196e-20 9.36769e-06)
(-0.17437 -0.0461396 3.84179e-21 0.174363 4.31964e-21 7.47952e-06)
(-0.170081 -0.0519027 9.80782e-21 0.17006 1.02933e-21 2.11917e-05)
(-0.164773 -0.05555 1.27493e-20 0.164739 9.545e-22 3.40634e-05)
(-0.158854 -0.0576721 1.51753e-20 0.158808 2.68852e-23 4.61744e-05)
(-0.152601 -0.0586884 7.29042e-21 0.152543 1.04191e-21 5.75863e-05)
(-0.146201 -0.0589007 3.39628e-21 0.146133 4.17841e-21 6.8345e-05)
(-0.139781 -0.0585286 7.29152e-21 0.139702 2.33644e-21 7.84849e-05)
(-0.133425 -0.0577332 9.41742e-21 0.133337 2.13849e-21 8.80298e-05)
(-0.12719 -0.0566337 1.36866e-20 0.127093 7.19181e-21 9.69963e-05)
(-0.121113 -0.0553189 1.71258e-20 0.121007 1.0641e-20 0.000105393)
(-0.115215 -0.0538554 6.66653e-21 0.115101 2.32776e-20 0.000113224)
(-0.109509 -0.0522932 -3.74507e-21 0.109389 2.30951e-20 0.000120487)
(-0.104003 -0.0506703 -6.36578e-21 0.103875 2.28064e-20 0.000127178)
(-0.0986972 -0.0490153 -1.59652e-20 0.0985639 1.78708e-20 0.000133286)
(-0.0935913 -0.0473501 -1.6156e-20 0.0934525 6.82502e-21 0.000138799)
(-0.0886819 -0.0456912 5.89489e-21 0.0885382 -4.01195e-21 0.0001437)
(-0.0839646 -0.0440513 -4.95286e-21 0.0838167 -4.66837e-21 0.000147972)
(-0.0794343 -0.04244 -5.36629e-21 0.0792827 -1.93142e-20 0.000151593)
(-0.0750854 -0.0408646 -2.33994e-20 0.0749309 -1.00825e-20 0.00015454)
(-0.0709127 -0.0393309 4.43301e-22 0.0707559 1.9624e-21 0.000156788)
(-0.0669108 -0.0378432 1.74759e-20 0.0667525 -1.89565e-21 0.000158311)
(-0.0630749 -0.0364049 8.38678e-21 0.0629158 1.90365e-21 0.000159078)
(-0.0594005 -0.0350185 1.94889e-20 0.0592414 -1.75334e-23 0.000159061)
(-0.0558836 -0.0336864 3.65736e-21 0.0557254 6.87077e-21 0.000158227)
(-0.0525208 -0.0324102 -1.77433e-20 0.0523643 1.27969e-21 0.000156547)
(-0.0493095 -0.0311916 -5.48213e-21 0.0491555 -1.90376e-20 0.000153985)
(-0.0462473 -0.0300319 -8.38633e-22 0.0460967 1.72402e-20 0.000150511)
(-0.0433328 -0.0289326 1.33579e-20 0.0431867 4.21923e-20 0.000146089)
(-0.0405652 -0.0278951 4.11487e-20 0.0404245 3.24566e-20 0.00014069)
(-0.0379445 -0.0269208 -2.95597e-20 0.0378102 1.63831e-20 0.000134279)
(-0.0354712 -0.0260113 -8.12179e-21 0.0353443 1.57665e-20 0.000126829)
(-0.0331468 -0.0251684 -4.43781e-21 0.0330284 9.108e-21 0.000118308)
(-0.0309734 -0.0243939 -1.15685e-20 0.0308647 1.34012e-20 0.000108692)
(-0.028954 -0.02369 1.5122e-20 0.0288561 -2.12743e-20 9.79559e-05)
(-0.0270926 -0.0230589 -1.51161e-20 0.0270065 1.38569e-20 8.60821e-05)
(-0.0253938 -0.0225031 -1.50429e-20 0.0253207 1.99303e-20 7.30528e-05)
(-0.0238634 -0.0220253 5.52951e-21 0.0238045 2.59251e-20 5.88598e-05)
(-0.0225082 -0.0216283 -5.58272e-20 0.0224647 8.72054e-21 4.34967e-05)
(-0.0213363 -0.0213143 -9.63153e-20 0.0213093 2.28945e-20 2.69682e-05)
(-0.0203581 -0.021084 1.64359e-20 0.0203488 2.13273e-20 9.28298e-06)
(-0.173106 -0.0515464 5.47116e-21 0.173099 -1.97109e-22 7.40334e-06)
(-0.167976 -0.0576867 1.18603e-20 0.167955 -4.47381e-21 2.09757e-05)
(-0.162067 -0.0615434 1.17347e-20 0.162033 1.25255e-21 3.37162e-05)
(-0.155723 -0.0637554 1.18736e-20 0.155678 6.13867e-21 4.57036e-05)
(-0.149177 -0.0647761 9.11142e-21 0.14912 6.22553e-21 5.69992e-05)
(-0.142581 -0.064932 1.25911e-20 0.142514 -2.68144e-21 6.76481e-05)
(-0.136039 -0.0644601 6.33078e-21 0.135961 -1.75964e-21 7.76846e-05)
(-0.129615 -0.0635344 9.9834e-21 0.129528 1.26952e-21 8.71321e-05)
(-0.123354 -0.0622836 1.31157e-20 0.123258 1.37033e-20 9.60072e-05)
(-0.117282 -0.0608035 1.76396e-20 0.117177 2.55896e-20 0.000104318)
(-0.111412 -0.0591658 2.38358e-20 0.1113 3.01474e-20 0.00011207)
(-0.105753 -0.0574244 1.00035e-20 0.105634 2.83062e-20 0.000119259)
(-0.100306 -0.0556202 -4.85095e-21 0.10018 2.91985e-20 0.000125882)
(-0.0950684 -0.0537838 -4.40618e-21 0.0949365 1.9535e-20 0.000131927)
(-0.0900374 -0.0519388 -2.1363e-20 0.0899001 1.31456e-20 0.000137384)
(-0.0852073 -0.0501028 -1.54265e-20 0.085065 6.9432e-21 0.000142235)
(-0.0805718 -0.0482895 -6.91641e-21 0.0804253 1.6196e-21 0.000146464)
(-0.0761245 -0.0465092 -2.07174e-20 0.0759745 -9.84097e-21 0.000150048)
(-0.071859 -0.0447696 -1.63e-20 0.0717061 6.24921e-21 0.000152966)
(-0.067769 -0.0430768 3.42482e-21 0.0676139 2.34148e-20 0.000155192)
(-0.0638486 -0.0414354 3.9412e-21 0.0636919 2.30933e-20 0.000156699)
(-0.0600924 -0.039849 2.11283e-21 0.0599349 1.49333e-20 0.000157459)
(-0.0564953 -0.0383203 3.27939e-21 0.0563379 -2.71354e-21 0.000157442)
(-0.0530532 -0.0368517 1.79841e-20 0.0528965 -3.10609e-21 0.000156618)
(-0.0497622 -0.035445 -7.67461e-21 0.0496072 6.82218e-22 0.000154955)
(-0.0466194 -0.034102 -3.20691e-20 0.046467 3.8314e-21 0.00015242)
(-0.0436224 -0.032824 4.2291e-20 0.0434734 3.62316e-20 0.000148982)
(-0.0407695 -0.0316125 8.62577e-20 0.0406249 4.2664e-20 0.000144606)
(-0.0380598 -0.0304691 8.7205e-20 0.0379205 3.30956e-20 0.000139262)
(-0.0354929 -0.0293954 -9.87416e-21 0.03536 2.23954e-20 0.000132917)
(-0.0330693 -0.0283929 -3.10397e-20 0.0329438 -7.026e-22 0.000125543)
(-0.0307904 -0.0274635 -3.34331e-20 0.0306732 -1.75567e-20 0.000117109)
(-0.0286579 -0.0266094 -9.53785e-21 0.0285503 -3.36576e-20 0.000107592)
(-0.0266749 -0.0258326 -3.58302e-20 0.0265779 -3.1669e-20 9.69647e-05)
(-0.0248448 -0.0251358 2.97416e-20 0.0247596 5.03893e-21 8.52115e-05)
(-0.0231723 -0.0245216 -3.08844e-20 0.0230999 -3.57294e-21 7.23141e-05)
(-0.0216627 -0.0239929 -6.6412e-21 0.0216044 8.50541e-21 5.82647e-05)
(-0.0203227 -0.0235527 -3.65229e-20 0.0202796 3.17199e-20 4.30567e-05)
(-0.01916 -0.0232037 -1.72516e-20 0.0191333 6.04177e-20 2.66951e-05)
(-0.0181849 -0.0229472 2.01507e-20 0.0181757 2.00541e-20 9.18872e-06)
(-0.171691 -0.0569437 9.75039e-21 0.171684 -1.15771e-20 7.31938e-06)
(-0.16566 -0.0633668 1.59952e-20 0.16564 -1.18904e-20 2.07378e-05)
(-0.159108 -0.0673639 1.86944e-20 0.159075 -2.2712e-21 3.33336e-05)
(-0.152312 -0.0696154 2.56552e-20 0.152267 -5.3018e-21 4.51851e-05)
(-0.145453 -0.0706042 1.40127e-20 0.145396 -3.89318e-21 5.63524e-05)
(-0.138649 -0.0706776 1.15221e-21 0.138582 -2.89548e-21 6.68804e-05)
(-0.131977 -0.0700879 2.45164e-21 0.1319 1.20746e-21 7.6803e-05)
(-0.125483 -0.06902 -1.39897e-21 0.125397 1.74475e-20 8.61433e-05)
(-0.119196 -0.0676105 1.33872e-20 0.119101 2.96588e-20 9.49177e-05)
(-0.113131 -0.0659612 3.89517e-20 0.113028 2.2162e-20 0.000103135)
(-0.107294 -0.0641481 3.65001e-20 0.107184 1.91526e-20 0.000110798)
(-0.101686 -0.0622283 1.39026e-20 0.101569 2.4225e-20 0.000117906)
(-0.0963042 -0.0602451 -9.94139e-22 0.0961797 3.04557e-20 0.000124454)
(-0.091142 -0.0582308 -2.23826e-20 0.0910116 2.39755e-20 0.000130431)
(-0.086193 -0.0562104 -3.35913e-20 0.0860572 2.46902e-20 0.000135826)
(-0.0814494 -0.0542024 -2.58698e-20 0.0813088 2.64899e-20 0.000140623)
(-0.0769033 -0.0522211 -2.30752e-20 0.0767585 1.42655e-20 0.000144804)
(-0.0725467 -0.0502774 -4.20007e-20 0.0723984 1.50829e-20 0.000148348)