/*--------------------------------*- C++ -*----------------------------------*\
| =========                 |                                                 |
| \\      /  F ield         | foam-extend: Open Source CFD                    |
|  \\    /   O peration     | Version:  3.0                                   |
|   \\  /    A nd           | Web:         http://www.extend-project.de       |
|    \\/     M anipulation  |                                                 |
\*---------------------------------------------------------------------------*/
FoamFile
{
    version     2.0;
    format      ascii;
    class       volVectorField;
    location    "16";
    object      u;
}
// * * * * * * * * * * * * * * * * * * * * * * * * * * * * * * * * * * * * * //

dimensions      [0 0 0 0 0 0 0];

internalField   nonuniform List<vector> 
7680
(
(0.0732291 -0.0316546 1.90685e-19)
(0.192424 -0.0279273 2.14727e-19)
(0.293411 -0.0247458 9.86795e-20)
(0.379197 -0.0220118 1.6919e-19)
(0.452959 -0.0196557 7.17757e-20)
(0.516408 -0.0176119 2.03796e-19)
(0.571653 -0.0158344 1.18672e-19)
(0.619667 -0.0142785 2.05959e-19)
(0.661927 -0.0129132 3.36052e-19)
(0.698967 -0.011708 1.41519e-19)
(0.731873 -0.0106416 8.89074e-20)
(0.760912 -0.00969279 1.0086e-19)
(0.786916 -0.00884689 5.75292e-20)
(0.809985 -0.00808913 -1.12735e-19)
(0.830788 -0.00740888 2.32383e-19)
(0.849313 -0.00679597 3.41036e-19)
(0.866118 -0.00624244 3.08359e-19)
(0.881116 -0.00574139 1.45088e-19)
(0.894792 -0.00528659 1.82555e-19)
(0.907006 -0.00487357 -2.73683e-19)
(0.91819 -0.00449718 7.03174e-20)
(0.928169 -0.00415487 1.26941e-19)
(0.937335 -0.00384211 2.36395e-19)
(0.945488 -0.00355793 1.58043e-19)
(0.952995 -0.00329808 1.93849e-19)
(0.959632 -0.00306296 4.40078e-19)
(0.96575 -0.00284837 6.08601e-19)
(0.971107 -0.00265594 2.07357e-19)
(0.976043 -0.00248134 3.94468e-20)
(0.980299 -0.00232735 1.87119e-19)
(0.984209 -0.00218933 3.55975e-19)
(0.987501 -0.00207114 3.13924e-19)
(0.990504 -0.0019676 8.05421e-20)
(0.992931 -0.00188332 -4.82427e-19)
(0.995114 -0.00181151 -1.35712e-19)
(0.99675 -0.00175489 8.11456e-20)
(0.998172 -0.00169716 6.27143e-19)
(0.999066 -0.00161599 2.06818e-19)
(0.999772 -0.00141699 1.0002e-19)
(0.999971 -0.000848445 1.41324e-19)
(0.0773988 -0.0954173 1.47958e-19)
(0.196103 -0.0842093 -9.83228e-20)
(0.296673 -0.0746718 1.25639e-19)
(0.382103 -0.0664949 2.4412e-19)
(0.455559 -0.0594579 2.78848e-20)
(0.518741 -0.0533591 9.61861e-21)
(0.573756 -0.048056 1.22878e-20)
(0.621569 -0.0434138 1.96064e-19)
(0.663652 -0.0393382 5.40969e-20)
(0.700537 -0.0357375 3.09034e-20)
(0.733305 -0.032548 1.19393e-19)
(0.762221 -0.0297061 1.95207e-19)
(0.788116 -0.0271677 2.52122e-19)
(0.811087 -0.0248886 1.63873e-19)
(0.831802 -0.022837 4.35188e-19)
(0.850247 -0.0209819 5.90007e-19)
(0.866979 -0.0192998 5.17355e-19)
(0.881912 -0.0177689 -7.03226e-20)
(0.895527 -0.0163712 -1.9778e-19)
(0.907687 -0.0150916 -3.44863e-19)
(0.91882 -0.0139153 2.31987e-19)
(0.928752 -0.0128328 3.00885e-19)
(0.937875 -0.0118312 2.16578e-19)
(0.945988 -0.0109049 4.67843e-20)
(0.953457 -0.0100423 1.02161e-18)
(0.960058 -0.00924124 5.23325e-19)
(0.966143 -0.00849049 2.56131e-19)
(0.971469 -0.00779072 -4.95154e-21)
(0.976374 -0.00713071 1.69072e-19)
(0.980602 -0.0065136 3.01398e-19)
(0.984484 -0.00592774 4.65169e-19)
(0.987749 -0.00537841 9.50608e-19)
(0.990726 -0.00485315 8.16144e-19)
(0.993129 -0.00435881 -5.61581e-19)
(0.995287 -0.0038811 -2.38872e-19)
(0.996899 -0.00342579 -2.97075e-19)
(0.998297 -0.00296969 1.09862e-18)
(0.999167 -0.00249658 2.81883e-19)
(0.999845 -0.0019123 2.78276e-19)
(1.00001 -0.00098914 8.47542e-19)
(0.08573 -0.158771 2.98546e-19)
(0.203456 -0.14013 -1.60073e-19)
(0.303194 -0.124277 4.36674e-19)
(0.387912 -0.110693 4.21942e-20)
(0.460755 -0.0990048 4.3663e-19)
(0.523408 -0.0888773 6.37671e-20)
(0.577962 -0.0800713 8.52005e-20)
(0.625372 -0.0723628 5.89911e-20)
(0.667102 -0.0655944 -8.11943e-19)
(0.703674 -0.0596138 -4.04384e-19)
(0.736165 -0.0543147 4.3322e-19)
(0.764835 -0.0495919 3.20195e-19)
(0.79051 -0.0453719 1.75451e-20)
(0.813283 -0.0415811 2.60116e-19)
(0.83382 -0.038167 7.94107e-19)
(0.852104 -0.0350776 1.11035e-18)
(0.86869 -0.0322741 -4.76405e-19)
(0.88349 -0.02972 5.56768e-19)
(0.896983 -0.0273852 -6.24887e-19)
(0.90903 -0.0252445 8.31502e-20)
(0.92006 -0.0232735 1.92408e-19)
(0.929897 -0.0214553 6.84816e-19)
(0.938931 -0.019769 3.68571e-19)
(0.946961 -0.0182046 1.38276e-18)
(0.954352 -0.016743 4.16371e-19)
(0.960881 -0.0153794 7.09291e-19)
(0.966897 -0.0140956 1.27751e-19)
(0.972157 -0.0128915 7.02988e-19)
(0.977 -0.0117489 4.18694e-19)
(0.981168 -0.0106713 5.10998e-19)
(0.984994 -0.0096402 4.24788e-19)
(0.988204 -0.00866217 1.89354e-19)
(0.991127 -0.00771761 1.03001e-18)
(0.993478 -0.0068156 1.35365e-18)
(0.995585 -0.00593441 2.32376e-20)
(0.997148 -0.00508296 8.42262e-20)
(0.998497 -0.00423114 8.28246e-19)
(0.999319 -0.00336902 -1.43869e-19)
(0.999946 -0.00240254 -1.04359e-19)
(1.00005 -0.00112816 -2.81259e-19)
(0.0981861 -0.221443 3.19613e-19)
(0.21445 -0.195449 -2.50595e-19)
(0.312946 -0.17335 2.6564e-19)
(0.396599 -0.154416 3.7066e-19)
(0.468527 -0.138127 6.03319e-19)
(0.530388 -0.124014 -2.30852e-20)
(0.584253 -0.111743 1.76577e-19)
(0.63106 -0.101002 2.86562e-19)
(0.67226 -0.0915694 -1.93095e-19)
(0.708365 -0.0832343 4.77766e-19)
(0.740442 -0.0758485 7.21588e-19)
(0.768742 -0.069265 6.13989e-19)
(0.794088 -0.0633815 5.71492e-19)
(0.816565 -0.0580952 1.9975e-19)
(0.836834 -0.0533332 -8.29788e-19)
(0.854876 -0.0490227 -2.63267e-19)
(0.871243 -0.0451098 -1.05725e-18)
(0.885842 -0.0415433 -5.97559e-19)
(0.899152 -0.0382815 9.18132e-19)
(0.911031 -0.0352889 -2.28466e-19)
(0.921906 -0.0325314 1.04717e-18)
(0.931598 -0.0299854 7.17902e-19)
(0.940499 -0.0276217 6.88604e-19)
(0.948404 -0.0254258 -3.45746e-20)
(0.955678 -0.0233713 1.1186e-19)
(0.962097 -0.0214509 -5.68434e-19)
(0.968008 -0.0196397 -1.09021e-18)
(0.97317 -0.0179364 -8.96985e-20)
(0.977919 -0.0163162 5.10074e-19)
(0.981997 -0.0147829 1.24467e-18)
(0.985736 -0.013311 8.01657e-19)
(0.988862 -0.0119087 -1.76052e-18)
(0.991705 -0.0105492 -3.58162e-19)
(0.993978 -0.009244 3.42674e-18)
(0.996008 -0.00796381 -1.03459e-18)
(0.997497 -0.00672091 -4.28587e-19)
(0.998773 -0.00547825 4.31369e-19)
(0.999523 -0.00423225 -1.65746e-18)
(1.00008 -0.00288851 -3.13998e-19)
(1.0001 -0.001267 1.60155e-19)
(0.114715 -0.283167 7.52164e-19)
(0.229038 -0.24993 6.43768e-19)
(0.325886 -0.221679 -5.82407e-20)
(0.408127 -0.197476 1.70977e-18)
(0.478841 -0.176658 5.91127e-19)
(0.53965 -0.15862 1.16401e-19)
(0.592601 -0.142936 3.02234e-19)
(0.638608 -0.129207 2.55685e-19)
(0.679106 -0.117152 -1.16449e-19)
(0.71459 -0.106498 5.1519e-19)
(0.746118 -0.0970569 7.30461e-19)
(0.773927 -0.0886409 9.88385e-19)
(0.798834 -0.0811191 1.41768e-18)
(0.820918 -0.07436 -4.78139e-19)
(0.840832 -0.0682704 -1.33566e-18)
(0.858553 -0.0627573 -1.93588e-18)
(0.874627 -0.0577517 7.0218e-19)
(0.88896 -0.0531882 -4.3538e-19)
(0.902026 -0.0490133 -6.98725e-20)
(0.913681 -0.0451814 -1.20776e-19)
(0.924348 -0.0416493 1.02699e-18)
(0.933849 -0.0383863 7.80286e-19)
(0.942572 -0.0353553 -5.66994e-19)
(0.95031 -0.0325373 2.92137e-19)
(0.957429 -0.0298987 7.67519e-19)
(0.963701 -0.0274299 4.62376e-19)
(0.969473 -0.025099 -1.72856e-18)
(0.974503 -0.0229039 -7.30337e-19)
(0.979127 -0.020813 5.34486e-19)
(0.983085 -0.0188307 -1.4947e-18)
(0.986708 -0.0169247 -1.35963e-18)
(0.989724 -0.0151045 -1.1238e-18)
(0.992458 -0.0133365 -2.67538e-18)
(0.994627 -0.0116344 6.05478e-19)
(0.996556 -0.00996172 -2.63738e-18)
(0.997945 -0.00833415 -2.12574e-18)
(0.999124 -0.00670759 -1.97598e-18)
(0.999779 -0.00508495 -3.27985e-18)
(1.00024 -0.00337061 -1.98902e-19)
(1.00016 -0.00140681 1.83687e-18)
(0.135244 -0.343676 9.85486e-19)
(0.247158 -0.30334 9.63876e-19)
(0.341958 -0.269058 1.45436e-18)
(0.422447 -0.239691 4.15481e-19)
(0.491653 -0.214431 4.14847e-19)
(0.551156 -0.192545 1.59043e-18)
(0.602971 -0.173517 1.07451e-18)
(0.647984 -0.156859 3.76961e-19)
(0.68761 -0.142232 -5.16819e-19)
(0.722323 -0.129305 -2.82021e-19)
(0.753167 -0.117849 7.68185e-19)
(0.780367 -0.107637 3.31981e-19)
(0.80473 -0.0985088 1.65132e-18)
(0.826323 -0.0903058 4.48579e-19)
(0.845797 -0.0829146 -2.21369e-18)
(0.863117 -0.0762225 -1.75171e-18)
(0.878829 -0.0701457 4.94954e-19)
(0.89283 -0.0646045 -1.38166e-18)
(0.905593 -0.0595344 -8.75551e-19)
(0.916969 -0.0548798 -1.0776e-18)
(0.927378 -0.0505881 -2.48424e-18)
(0.936641 -0.0466221 -2.76765e-18)
(0.945141 -0.0429367 9.67752e-19)
(0.952673 -0.0395086 9.07059e-19)
(0.959597 -0.0362973 -2.61838e-18)
(0.965686 -0.0332906 -1.4552e-18)
(0.971286 -0.0304501 -1.14292e-18)
(0.976152 -0.0277726 -2.31269e-18)
(0.980619 -0.0252202 -1.00963e-18)
(0.984428 -0.0227976 -1.66235e-18)
(0.987907 -0.0204659 8.79141e-19)
(0.990785 -0.0182363 1.10048e-18)
(0.993385 -0.0160679 -1.1975e-18)
(0.995424 -0.0139773 1.06596e-19)
(0.997226 -0.0119205 -4.34743e-18)
(0.998493 -0.009917 5.30328e-19)
(0.999551 -0.00791547 1.61091e-18)
(1.00009 -0.00592534 -2.15997e-18)
(1.00043 -0.00384874 -3.26722e-20)
(1.00023 -0.00154835 1.9759e-18)
(0.159688 -0.402712 1.24554e-18)
(0.268733 -0.355451 -3.61793e-19)
(0.361096 -0.315284 8.88727e-19)
(0.439497 -0.280879 8.69092e-19)
(0.506908 -0.251285 -1.62256e-19)
(0.564856 -0.225646 -3.54346e-19)
(0.615319 -0.203353 -6.20665e-20)
(0.659149 -0.183839 6.35082e-19)
(0.697735 -0.166702 6.2528e-19)
(0.73153 -0.151558 -1.54109e-18)
(0.76156 -0.138136 -1.60579e-18)
(0.788034 -0.126171 -1.22531e-18)
(0.811748 -0.115476 1.36886e-18)
(0.832759 -0.105864 1.41458e-18)
(0.851706 -0.097203 -9.18354e-19)
(0.868551 -0.0893605 -9.72517e-19)
(0.883829 -0.0822384 -1.47001e-18)
(0.897436 -0.0757434 -1.96968e-18)
(0.909837 -0.0697997 -1.50157e-18)
(0.92088 -0.0643422 -1.36611e-18)
(0.930983 -0.0593094 -2.8027e-18)
(0.939961 -0.0546573 -1.16392e-18)
(0.948196 -0.0503333 1.01879e-18)
(0.955481 -0.0463099 3.69111e-19)
(0.962173 -0.0425396 -1.12152e-18)
(0.968045 -0.039008 -3.26273e-18)
(0.973438 -0.0356699 3.6088e-19)
(0.978109 -0.0325218 -2.40294e-18)
(0.982389 -0.029519 -1.19575e-18)
(0.986021 -0.0266669 -9.24715e-19)
(0.989329 -0.0239199 5.86885e-18)
(0.992042 -0.0212909 1.88157e-18)
(0.994482 -0.0187323 1.26005e-18)
(0.996367 -0.0162632 1.27942e-18)
(0.998018 -0.0138326 2.08695e-18)
(0.999139 -0.0114637 1.59603e-18)
(1.00005 -0.00909789 1.5241e-18)
(1.00045 -0.00675119 1.46031e-18)
(1.00065 -0.00432222 5.23949e-18)
(1.00032 -0.00169189 1.0411e-18)
(0.18794 -0.460023 1.45595e-18)
(0.29367 -0.406038 1.03127e-19)
(0.383215 -0.360159 6.98739e-19)
(0.459204 -0.320862 -3.51342e-19)
(0.524541 -0.287062 -1.04603e-18)
(0.580691 -0.257779 -4.78786e-19)
(0.629592 -0.232319 6.85987e-19)
(0.672054 -0.21003 2.13616e-19)
(0.709439 -0.190458 7.7471e-19)
(0.742172 -0.173161 -7.43546e-19)
(0.771261 -0.157831 8.45898e-19)
(0.796896 -0.144164 -1.03001e-18)
(0.81986 -0.131948 4.30035e-19)
(0.840196 -0.120968 -2.1695e-19)
(0.858536 -0.111074 1.10311e-18)
(0.87483 -0.102115 -1.38292e-20)
(0.889608 -0.0939782 7.35986e-19)
(0.902758 -0.0865571 -1.33352e-18)
(0.91474 -0.0797653 2.30256e-18)
(0.925399 -0.0735282 1.57925e-18)
(0.935146 -0.0677757 -1.68585e-18)
(0.943795 -0.0624575 -6.6762e-19)
(0.951725 -0.0575134 -1.15722e-18)
(0.958724 -0.0529119 9.37632e-19)
(0.965148 -0.0485989 8.97192e-19)
(0.970768 -0.0445575 -1.82132e-18)
(0.975922 -0.0407364 3.17606e-18)
(0.980368 -0.0371312 2.87205e-18)
(0.984432 -0.0336911 -6.68583e-18)
(0.987858 -0.030422 -3.64748e-18)
(0.990968 -0.0272719 -1.65159e-18)
(0.993491 -0.0242555 5.12425e-19)
(0.995747 -0.0213185 3.65642e-18)
(0.997454 -0.0184829 -3.69504e-18)
(0.998931 -0.0156904 2.17581e-19)
(0.999883 -0.0129682 3.14687e-18)
(1.00063 -0.0102506 2.54643e-18)
(1.00087 -0.00755977 9.404e-19)
(1.00091 -0.00478978 2.32125e-18)
(1.00041 -0.00183726 -1.24594e-18)
(0.219879 -0.515363 1.52082e-18)
(0.321862 -0.454885 5.64389e-19)
(0.408223 -0.403491 4.72717e-19)
(0.481484 -0.359471 -6.76886e-19)
(0.544475 -0.32161 6.31121e-19)
(0.598594 -0.288808 1.14602e-18)
(0.645728 -0.260288 6.94557e-20)
(0.686643 -0.235322 3.88022e-19)
(0.72267 -0.213397 8.88489e-19)
(0.754203 -0.194021 5.86785e-19)
(0.782228 -0.176849 9.309e-19)
(0.806915 -0.161539 1.52911e-18)
(0.829031 -0.147854 6.82584e-19)
(0.848604 -0.135554 1.30285e-18)
(0.866256 -0.124469 2.68505e-18)
(0.881927 -0.114431 -1.86916e-19)
(0.896139 -0.105314 5.52948e-19)
(0.908773 -0.0969991 -6.27126e-19)
(0.920282 -0.0893882 2.86918e-18)
(0.930505 -0.0823983 2.57501e-18)
(0.939851 -0.0759508 4.91677e-19)
(0.948128 -0.0699892 8.55102e-19)
(0.955711 -0.0644462 -1.37507e-18)
(0.962388 -0.0592864 -1.35449e-18)
(0.968508 -0.054449 1.0075e-18)
(0.973844 -0.0499153 1.43112e-18)
(0.978728 -0.0456277 2.22381e-18)
(0.982919 -0.0415811 4.82164e-18)
(0.986739 -0.0377187 -1.39008e-18)
(0.989933 -0.034047 2.96727e-18)
(0.992818 -0.0305079 -3.20764e-19)
(0.995127 -0.0271178 -2.15159e-18)
(0.997175 -0.0238159 -8.31438e-19)
(0.998681 -0.0206271 -2.45201e-18)
(0.999961 -0.0174862 -1.44214e-18)
(1.00072 -0.0144246 -4.9883e-19)
(1.00129 -0.011369 -4.48094e-18)
(1.00134 -0.00834792 -2.46356e-18)
(1.0012 -0.00524961 8.13419e-18)
(1.00051 -0.00198385 -8.87799e-19)
(0.25537 -0.568495 -1.01524e-19)
(0.353188 -0.501784 -6.8494e-19)
(0.436011 -0.445094 1.0609e-18)
(0.506242 -0.39654 1.21087e-18)
(0.566627 -0.354779 5.66212e-19)
(0.618487 -0.318599 -1.64091e-18)
(0.663659 -0.287142 -1.00744e-19)
(0.702856 -0.259604 4.98828e-19)
(0.737374 -0.235422 1.44635e-18)
(0.767573 -0.21405 1.72457e-18)
(0.794415 -0.195108 -1.12397e-18)
(0.818048 -0.178221 -1.21402e-18)
(0.839221 -0.163125 1.29254e-19)
(0.857947 -0.149557 -1.77257e-18)
(0.874835 -0.13733 8.92223e-19)
(0.889814 -0.126257 1.7752e-18)
(0.903397 -0.116199 -4.01299e-19)
(0.915456 -0.107025 1.06931e-18)
(0.926439 -0.0986273 2.19717e-18)
(0.936179 -0.0909145 1.25855e-18)
(0.945078 -0.0837996 1.14691e-18)
(0.952942 -0.0772201 2.82749e-19)
(0.96014 -0.071102 9.01098e-19)
(0.966457 -0.065406 -1.72961e-18)
(0.972241 -0.0600651 -1.84306e-18)
(0.977259 -0.0550586 4.9588e-18)
(0.981844 -0.0503229 3.31842e-19)
(0.985751 -0.0458525 -2.54312e-18)
(0.989301 -0.0415846 -7.60369e-18)
(0.992237 -0.0375266 -2.33373e-18)
(0.994874 -0.0336141 -6.67527e-19)
(0.996944 -0.0298656 9.16397e-19)
(0.998761 -0.0262139 -2.64708e-18)
(1.00004 -0.022687 5.12627e-18)
(1.00111 -0.0192127 -3.78762e-18)
(1.00166 -0.0158267 2.05965e-18)
(1.00201 -0.0124483 8.33242e-20)
(1.00186 -0.00911211 1.59626e-18)
(1.00152 -0.00569945 1.40365e-18)
(1.00063 -0.00213072 -3.35101e-18)
(0.29426 -0.619192 -1.07541e-18)
(0.387515 -0.546533 -6.21582e-19)
(0.46646 -0.484791 1.02185e-19)
(0.533371 -0.43191 -2.56886e-18)
(0.5909 -0.386428 -1.94464e-18)
(0.640287 -0.347025 1.03931e-18)
(0.683308 -0.312765 1.05668e-18)
(0.720621 -0.282774 3.52651e-18)
(0.753485 -0.256437 2.47376e-18)
(0.782223 -0.233161 -1.51493e-18)
(0.80777 -0.212532 -2.6142e-18)
(0.830247 -0.194139 -8.11468e-19)
(0.850387 -0.177697 -6.75599e-19)
(0.868184 -0.16292 6.63165e-19)
(0.884235 -0.149601 2.30843e-18)
(0.898455 -0.13754 1.92889e-18)
(0.911348 -0.126584 5.63253e-19)
(0.922778 -0.116591 3.30373e-18)
(0.933184 -0.107443 3.66648e-18)
(0.942394 -0.0990402 -2.33642e-19)
(0.950804 -0.0912884 -1.73258e-18)
(0.958215 -0.0841193 -1.43241e-18)
(0.964991 -0.0774523 1.70989e-18)
(0.970915 -0.0712446 -3.78405e-20)
(0.976329 -0.0654231 -2.62119e-18)
(0.981001 -0.0599654 1.48463e-18)
(0.985258 -0.0548021 -1.91561e-18)
(0.988854 -0.0499273 1.73378e-18)
(0.992108 -0.0452725 -7.59184e-18)
(0.994761 -0.0408459 -6.46175e-18)
(0.997127 -0.0365774 -1.93349e-18)
(0.998937 -0.0324874 -1.46316e-19)
(1.0005 -0.0285024 1.30835e-18)
(1.00154 -0.0246537 3.5086e-18)
(1.00236 -0.0208623 -4.2095e-18)
(1.00268 -0.0171684 3.78989e-18)
(1.00281 -0.0134836 5.06756e-19)
(1.00244 -0.0098485 -1.55311e-18)
(1.00188 -0.00613665 2.21934e-18)
(1.00076 -0.0022766 -1.90137e-18)
(0.336382 -0.667236 3.58901e-18)
(0.424694 -0.588941 2.29757e-18)
(0.49944 -0.52241 1.13461e-18)
(0.562755 -0.46543 3.2117e-19)
(0.617192 -0.416421 -1.50867e-18)
(0.663899 -0.373964 8.77987e-19)
(0.70459 -0.337049 1.30106e-18)
(0.739864 -0.304733 3.49615e-19)
(0.770937 -0.276354 -8.19444e-19)
(0.798091 -0.251273 1.93731e-18)
(0.822234 -0.229043 2.51538e-19)
(0.84346 -0.209224 3.0892e-19)
(0.862481 -0.191508 -2.42077e-18)
(0.879272 -0.175583 -1.26231e-18)
(0.894416 -0.161231 9.81367e-19)
(0.907814 -0.148233 -1.20538e-18)
(0.91996 -0.136427 -1.28322e-18)
(0.930708 -0.125656 -1.07511e-18)
(0.94049 -0.115797 4.62744e-19)
(0.949126 -0.106741 1.2479e-18)
(0.957006 -0.0983851 -1.94824e-18)
(0.963926 -0.0906572 -1.56685e-18)
(0.970245 -0.0834699 2.6132e-18)
(0.975743 -0.0767771 2.92173e-18)
(0.980757 -0.0705001 -7.10377e-19)
(0.985054 -0.0646147 5.60186e-18)
(0.988955 -0.0590461 -1.48752e-18)
(0.992216 -0.0537881 5.18485e-19)
(0.995148 -0.0487667 -6.76457e-19)
(0.997496 -0.043991 1.95547e-18)
(0.999568 -0.0393852 -2.17999e-18)
(1.0011 -0.034972 -1.31167e-18)
(1.00239 -0.0306717 5.55007e-18)
(1.00316 -0.0265189 5.92254e-18)
(1.00373 -0.0224281 -4.59562e-18)
(1.0038 -0.0184436 -2.409e-19)
(1.00368 -0.01447 1.15173e-18)
(1.00307 -0.0105532 -2.85313e-18)
(1.00226 -0.00655838 -7.7943e-18)
(1.0009 -0.00242008 -1.83828e-18)
(0.381556 -0.712422 3.45838e-18)
(0.464568 -0.628826 2.41485e-18)
(0.534811 -0.557792 1.17404e-18)
(0.594269 -0.496955 6.76836e-19)
(0.645388 -0.444631 3.01314e-19)
(0.689222 -0.3993 -1.46871e-18)
(0.727414 -0.359887 2.2273e-18)
(0.760501 -0.325385 1.27404e-18)
(0.789653 -0.295086 -2.42333e-20)
(0.815109 -0.268307 1.68238e-18)
(0.837747 -0.244573 2.99184e-19)
(0.857631 -0.223413 -3.14708e-18)
(0.875451 -0.204496 -6.12096e-19)
(0.891163 -0.187493 -2.15924e-18)
(0.905334 -0.172169 -1.73518e-18)
(0.917851 -0.158291 -1.72639e-18)
(0.929196 -0.145684 8.05198e-19)
(0.939213 -0.134183 1.87472e-18)
(0.948325 -0.123654 2.20308e-18)
(0.956345 -0.113983 -2.50735e-18)
(0.963656 -0.105059 -1.03841e-18)
(0.97005 -0.0968057 -1.16391e-18)
(0.975879 -0.089129 -1.98015e-18)
(0.980921 -0.0819798 1.2579e-18)
(0.985506 -0.0752744 1.38758e-18)
(0.989401 -0.0689866 5.558e-18)
(0.992921 -0.0630368 9.90857e-21)
(0.995821 -0.0574184 2.57323e-18)
(0.99841 -0.0520522 2.24796e-18)
(1.00043 -0.0469483 -1.38024e-18)
(1.00219 -0.0420256 1.0329e-18)
(1.00341 -0.0373087 -9.15079e-19)
(1.00441 -0.0327125 -7.04455e-19)
(1.00491 -0.0282743 5.95292e-18)
(1.0052 -0.0239029 8.32582e-18)
(1.005 -0.0196464 -1.10985e-18)
(1.00462 -0.0154025 4.73116e-19)
(1.00375 -0.011222 -2.96373e-18)
(1.00268 -0.00696163 4.64617e-18)
(1.00105 -0.00255963 -3.5557e-19)
(0.429588 -0.754557 -1.6195e-19)
(0.506965 -0.666018 1.69312e-18)
(0.57242 -0.590784 1.0553e-18)
(0.627777 -0.526352 1.04268e-18)
(0.67537 -0.470935 3.58656e-18)
(0.716148 -0.422926 7.71845e-19)
(0.751684 -0.381184 1.25008e-18)
(0.782445 -0.344642 5.56728e-19)
(0.809554 -0.312553 -2.51095e-18)
(0.833205 -0.284191 -9.37724e-19)
(0.854242 -0.259055 -4.10754e-19)
(0.872699 -0.236643 -1.95015e-19)
(0.889243 -0.216608 -6.70989e-19)
(0.903807 -0.198599 -4.72324e-19)
(0.916944 -0.182369 -5.05942e-19)
(0.928523 -0.167669 3.96262e-18)
(0.939017 -0.154315 -2.4474e-19)
(0.948256 -0.142133 5.82796e-18)
(0.956656 -0.130981 4.35431e-18)
(0.964021 -0.120736 1.88893e-18)
(0.970728 -0.111283 7.53169e-19)
(0.976562 -0.102539 -4.08794e-19)
(0.98187 -0.0944054 -1.85428e-18)
(0.986426 -0.0868307 2.36388e-18)
(0.990556 -0.0797256 2.05588e-19)
(0.994023 -0.0730626 -2.27171e-18)
(0.997138 -0.0667573 3.69815e-18)
(0.999656 -0.0608027 -1.15678e-18)
(1.00188 -0.0551152 3.76841e-19)
(1.00355 -0.0497053 -2.00229e-18)
(1.00497 -0.0444874 -7.29786e-19)
(1.00588 -0.0394877 -3.33395e-18)
(1.00657 -0.0346159 4.68566e-18)
(1.00676 -0.0299125 3.98408e-18)
(1.00676 -0.0252801 2.25518e-18)
(1.00628 -0.0207711 6.73875e-18)
(1.00562 -0.0162763 -3.43791e-18)
(1.00447 -0.0118511 4.69034e-19)
(1.00313 -0.00734342 -5.97923e-18)
(1.00121 -0.00269371 -7.24514e-18)
(0.480274 -0.79346 4.13971e-19)
(0.551704 -0.700356 1.65419e-18)
(0.612106 -0.621246 7.99577e-19)
(0.663136 -0.553493 1.56543e-18)
(0.707008 -0.495222 2.29976e-18)
(0.744562 -0.444739 1.95646e-18)
(0.777294 -0.400847 8.22571e-19)
(0.805601 -0.362423 -9.68308e-19)
(0.830555 -0.32868 -3.44412e-18)
(0.8523 -0.298857 6.04517e-19)
(0.871649 -0.272425 -1.05575e-18)
(0.888599 -0.248859 -8.6213e-19)
(0.903796 -0.227791 -5.35702e-18)
(0.91715 -0.208854 -2.87331e-18)
(0.929195 -0.191786 -2.48916e-18)
(0.939785 -0.176328 -4.92484e-19)
(0.949379 -0.162285 -2.41583e-19)
(0.957798 -0.149474 -7.84148e-19)
(0.965446 -0.137745 -1.05266e-19)
(0.972121 -0.12697 -2.59091e-18)
(0.97819 -0.117028 2.7669e-18)
(0.983433 -0.107831 7.20011e-19)
(0.988192 -0.0992766 1.79907e-18)
(0.992236 -0.0913088 7.18815e-19)
(0.995885 -0.0838346 -1.25767e-19)
(0.998901 -0.0768252 -1.02227e-18)
(1.00159 -0.0701916 6.78188e-19)
(1.0037 -0.0639267 -1.71359e-18)
(1.00554 -0.0579424 3.03164e-18)
(1.00685 -0.0522503 2.98144e-18)
(1.00792 -0.0467599 1.57985e-18)
(1.00849 -0.0414995 3.39028e-21)
(1.00885 -0.0363738 1.78352e-18)
(1.00873 -0.031426 -4.25338e-18)
(1.00842 -0.0265535 -1.81133e-20)
(1.00764 -0.0218122 -2.06144e-18)
(1.00668 -0.0170868 -6.12272e-18)
(1.00524 -0.0124366 -2.73753e-18)
(1.0036 -0.00770083 -6.31813e-18)
(1.00138 -0.00282079 -1.81419e-18)
(0.533395 -0.828964 3.34943e-18)
(0.598593 -0.731695 2.20657e-18)
(0.6537 -0.649046 9.79769e-20)
(0.700195 -0.578264 2.16993e-18)
(0.740166 -0.517386 1.49288e-18)
(0.774341 -0.464647 3.69019e-18)
(0.804135 -0.418792 2.66056e-18)
(0.82987 -0.37865 1.53874e-18)
(0.852565 -0.343398 -2.35982e-21)
(0.872313 -0.312242 1.03158e-18)
(0.889892 -0.284628 -7.34511e-19)
(0.905263 -0.260007 1.03933e-18)
(0.919049 -0.237997 1.1216e-18)
(0.931134 -0.218212 -5.86767e-19)
(0.942034 -0.200381 -2.07934e-18)
(0.951588 -0.18423 -4.31676e-18)
(0.96024 -0.169558 -3.96108e-18)
(0.967799 -0.156173 -4.47545e-19)
(0.97466 -0.143919 -6.57817e-18)
(0.980611 -0.13266 -1.23436e-18)
(0.986011 -0.122271 2.60869e-18)
(0.990636 -0.112661 -3.66416e-19)
(0.994819 -0.103722 -7.88982e-19)
(0.998326 -0.0953952 -1.0176e-18)
(1.00147 -0.087584 -6.30263e-19)
(1.00401 -0.0802583 -2.79284e-18)
(1.00626 -0.0733251 1.54084e-18)
(1.00795 -0.066777 -9.91633e-19)
(1.00938 -0.060522 2.06916e-18)
(1.01031 -0.0545724 2.0738e-18)
(1.01101 -0.0488336 5.65757e-18)
(1.01122 -0.0433354 5.10918e-19)
(1.01124 -0.0379784 -5.88226e-19)
(1.01079 -0.0328081 -7.04249e-18)
(1.01016 -0.0277171 4.9751e-18)
(1.00906 -0.0227647 -8.6537e-18)
(1.00779 -0.0178297 -1.63516e-18)
(1.00605 -0.0129748 1.31039e-18)
(1.00411 -0.00803111 -1.14575e-18)
(1.00157 -0.00293949 2.7798e-18)
(0.588725 -0.860918 3.04908e-18)
(0.647431 -0.7599 3.11865e-18)
(0.697023 -0.674066 -9.4354e-19)
(0.738795 -0.600557 2.79594e-18)
(0.774703 -0.537335 1.57888e-18)
(0.805359 -0.482564 1.34177e-18)
(0.832093 -0.434943 1.1195e-18)
(0.855148 -0.393255 6.52399e-19)
(0.87549 -0.356645 -1.39959e-18)
(0.893158 -0.324289 2.92961e-18)
(0.908893 -0.295611 1.57148e-18)
(0.922621 -0.270041 8.06955e-20)
(0.934937 -0.247183 -2.75998e-18)
(0.945699 -0.226635 -6.22599e-18)
(0.955408 -0.208116 -1.40985e-18)
(0.963882 -0.191342 1.32969e-18)
(0.971553 -0.176104 1.30349e-18)
(0.978216 -0.162202 -1.44967e-18)
(0.984257 -0.149474 -2.63429e-18)
(0.989453 -0.137781 6.18232e-19)
(0.994157 -0.12699 1.05359e-20)
(0.998138 -0.117008 -3.41885e-18)
(1.00172 -0.107722 -3.96621e-18)
(1.00467 -0.0990723 -3.97489e-18)
(1.00729 -0.0909578 7.72553e-19)
(1.00934 -0.0833474 -3.15777e-18)
(1.01112 -0.0761444 9.99663e-20)
(1.01237 -0.0693415 3.20778e-18)
(1.01339 -0.0628429 5.06636e-18)
(1.01391 -0.0566616 -1.66459e-18)
(1.01423 -0.0506993 3.84418e-18)
(1.01408 -0.0449876 -1.70977e-18)
(1.01374 -0.0394226 4.00773e-18)
(1.01294 -0.0340527 4.16692e-18)
(1.01197 -0.0287656 5.13886e-18)
(1.01055 -0.0236239 -5.83815e-18)
(1.00896 -0.0185008 5.14815e-18)
(1.0069 -0.0134624 -7.47048e-18)
(1.00463 -0.00833169 -5.65515e-18)
(1.00176 -0.00304849 2.26254e-18)
(0.646026 -0.889185 3.64799e-18)
(0.69801 -0.78485 7.67268e-19)
(0.741889 -0.696199 1.55255e-19)
(0.77877 -0.620278 4.1962e-18)
(0.810471 -0.554981 1.46858e-18)
(0.837482 -0.498413 -9.59452e-19)
(0.861047 -0.44923 -2.069e-18)
(0.881328 -0.406174 5.29414e-19)
(0.899233 -0.368363 1.54306e-18)
(0.914747 -0.334945 4.19224e-19)
(0.928572 -0.305326 2.4798e-18)
(0.940597 -0.278917 3.7343e-20)
(0.95139 -0.255308 1.06064e-18)
(0.960784 -0.234086 1.38966e-18)
(0.969258 -0.214959 4.01675e-18)
(0.976614 -0.197634 1.30806e-18)
(0.983269 -0.181895 1.05579e-18)
(0.989004 -0.167536 1.98875e-19)
(0.994195 -0.154389 1.39673e-18)
(0.998611 -0.14231 -2.71457e-18)
(1.00259 -0.131164 -2.89447e-19)
(1.00591 -0.120852 -1.06336e-18)
(1.00887 -0.11126 -2.98731e-19)
(1.01124 -0.102324 -4.52245e-18)
(1.01332 -0.0939415 1.4036e-18)
(1.01486 -0.0860793 -2.74042e-18)
(1.01616 -0.0786376 -2.31211e-18)
(1.01695 -0.0716093 6.70115e-19)
(1.01753 -0.0648951 1.38988e-18)
(1.01765 -0.0585091 -5.49131e-19)
(1.01757 -0.0523493 -3.06877e-18)
(1.01703 -0.0464488 1.2526e-18)
(1.01632 -0.0407002 -3.31421e-18)
(1.01518 -0.035154 -1.59817e-18)
(1.01386 -0.029694 4.98492e-18)
(1.0121 -0.0243853 7.58165e-18)
(1.01017 -0.0190966 7.92498e-18)
(1.00778 -0.0138963 2.05177e-18)
(1.00518 -0.00860031 -4.30934e-18)
(1.00196 -0.00314666 -1.83547e-19)
(0.705054 -0.913644 3.32886e-18)
(0.750112 -0.806439 1.39553e-18)
(0.788108 -0.71535 1.6411e-18)
(0.819949 -0.637341 1.78485e-18)
(0.847317 -0.57025 -2.10289e-18)
(0.870573 -0.512127 -2.01162e-18)
(0.890873 -0.461592 1.49277e-19)
(0.908296 -0.417352 1.03411e-18)
(0.92369 -0.378502 2.78778e-19)
(0.936986 -0.344166 1.8665e-18)
(0.948844 -0.313732 2.41318e-18)
(0.959115 -0.286597 -1.7604e-18)
(0.968339 -0.262339 1.70188e-18)
(0.976323 -0.240533 4.77047e-19)
(0.983526 -0.220879 -1.74386e-18)
(0.98973 -0.203077 -5.76684e-21)
(0.995338 -0.186905 1.51706e-18)
(1.00012 -0.17215 5.70597e-19)
(1.00443 -0.158641 2.09567e-18)
(1.00805 -0.146229 -3.78475e-18)
(1.01129 -0.134775 1.5968e-18)
(1.01391 -0.124178 -3.78764e-20)
(1.01624 -0.11432 -3.0163e-19)
(1.01801 -0.105138 1.33344e-18)
(1.01953 -0.0965225 3.07924e-18)
(1.02055 -0.0884422 1.67991e-18)
(1.02135 -0.080794 3.31866e-19)
(1.02168 -0.0735706 4.24389e-19)
(1.02181 -0.06667 1.19024e-18)
(1.0215 -0.0601068 2.09067e-18)
(1.02101 -0.0537762 -1.27777e-18)
(1.02009 -0.0477126 -3.53989e-18)
(1.01899 -0.0418054 -1.30591e-18)
(1.01748 -0.036107 3.70901e-18)
(1.0158 -0.0304978 -9.07605e-18)
(1.0137 -0.0250453 -9.9368e-18)
(1.01142 -0.0196137 5.23421e-18)
(1.0087 -0.0142738 -3.12367e-18)
(1.00575 -0.00883491 -1.05747e-18)
(1.00217 -0.00323297 3.18669e-19)
(0.765555 -0.934189 2.76445e-18)
(0.803515 -0.824574 2.43086e-18)
(0.83548 -0.731437 6.32707e-19)
(0.862157 -0.651675 1.58846e-18)
(0.885082 -0.583075 1.55459e-18)
(0.90449 -0.523647 -5.34425e-19)
(0.921444 -0.471976 -6.77654e-19)
(0.935937 -0.426743 5.71805e-19)
(0.948759 -0.38702 1.51171e-18)
(0.95978 -0.351911 2.25547e-18)
(0.969623 -0.320794 1.57322e-18)
(0.978095 -0.293049 3.09428e-18)
(0.985712 -0.268245 1.62507e-18)
(0.99225 -0.245949 -3.26646e-18)
(0.99815 -0.225853 -3.07542e-18)
(1.00317 -0.20765 -1.52756e-18)
(1.00771 -0.191114 -3.7868e-18)
(1.01151 -0.176026 -6.53652e-19)
(1.01493 -0.162212 1.29947e-18)
(1.01772 -0.14952 1.65344e-18)
(1.0202 -0.137808 1.21419e-18)
(1.02212 -0.126972 9.1738e-20)
(1.02379 -0.116891 -2.18675e-18)
(1.02495 -0.1075 -8.04791e-19)
(1.0259 -0.0986897 -7.47757e-20)
(1.02638 -0.0904262 -1.46312e-18)
(1.02667 -0.0826044 1.85431e-18)
(1.02652 -0.0752171 -6.82417e-19)
(1.02619 -0.0681598 9.9484e-19)
(1.02545 -0.0614479 -7.46769e-18)
(1.02454 -0.0549739 -9.99207e-19)
(1.02321 -0.0487734 2.55315e-18)
(1.02173 -0.0427333 -4.28544e-18)
(1.01985 -0.0369074 -3.83168e-18)
(1.0178 -0.0311733 -5.11441e-18)
(1.01534 -0.0256004 -6.27534e-20)
(1.01271 -0.0200494 -2.79277e-18)
(1.00963 -0.0145925 -3.73992e-18)
(1.00633 -0.00903375 2.39711e-18)
(1.00239 -0.0033066 3.47692e-18)
(0.82727 -0.950734 -1.26299e-19)
(0.85799 -0.839177 -1.06604e-18)
(0.883803 -0.744391 -3.07358e-19)
(0.905212 -0.663217 1.73632e-18)
(0.923606 -0.593403 -6.79529e-19)
(0.939088 -0.532923 2.46577e-19)
(0.952629 -0.480338 -2.23852e-18)
(0.964134 -0.434304 -1.55184e-18)
(0.974331 -0.393878 1.2419e-18)
(0.983032 -0.358148 3.65788e-18)
(0.990818 -0.32648 3.27209e-18)
(0.997456 -0.298244 -3.79752e-19)
(1.00343 -0.273001 -3.32937e-18)
(1.0085 -0.25031 -3.36657e-18)
(1.01307 -0.229858 -2.28062e-18)
(1.01689 -0.211332 2.81827e-18)
(1.02033 -0.194502 1.30768e-18)
(1.02313 -0.179147 -1.36708e-18)
(1.02563 -0.165088 1.83236e-18)
(1.02758 -0.152171 1.13257e-18)
(1.02929 -0.140249 1.8626e-18)
(1.03049 -0.129221 1.46059e-18)
(1.03149 -0.11896 -8.01313e-18)
(1.03203 -0.109402 -2.86088e-18)
(1.03239 -0.100434 7.0141e-18)
(1.03233 -0.0920228 -1.25164e-18)
(1.0321 -0.0840611 1.58466e-18)
(1.03146 -0.0765418 2.27021e-18)
(1.03067 -0.0693583 -4.78008e-18)
(1.02948 -0.0625266 -2.06853e-18)
(1.02814 -0.0559372 1.02341e-18)
(1.02641 -0.0496267 5.2567e-18)
(1.02453 -0.0434797 1.88297e-18)
(1.02226 -0.0375515 7.07152e-18)
(1.01984 -0.0317172 7.39274e-18)
(1.01701 -0.0260478 2.30728e-18)
(1.01402 -0.020401 3.71637e-18)
(1.01059 -0.0148506 1.81288e-18)
(1.00692 -0.00919536 -5.63046e-18)
(1.00261 -0.00336682 2.13993e-18)
(0.889935 -0.963208 -3.1108e-19)
(0.913303 -0.850187 -9.77448e-19)
(0.93287 -0.754157 -5.30858e-20)
(0.948929 -0.671918 2.8693e-20)
(0.962723 -0.601189 -2.42722e-18)
(0.974219 -0.539915 -9.68509e-19)
(0.984294 -0.486641 -3.12576e-19)
(0.992764 -0.440004 -1.55583e-18)
(1.0003 -0.399048 -6.4704e-19)
(1.00664 -0.36285 2.8198e-20)
(1.01234 -0.330767 1.95709e-19)
(1.01712 -0.302161 -4.20216e-18)
(1.02143 -0.276586 -3.59156e-18)
(1.02499 -0.253598 2.37481e-18)
(1.02822 -0.232877 -9.96448e-19)
(1.03081 -0.214108 1.11914e-18)
(1.03314 -0.197057 6.18553e-19)
(1.03493 -0.1815 8.74998e-19)
(1.03651 -0.167256 5.67983e-18)
(1.0376 -0.154168 1.89244e-19)
(1.03852 -0.14209 4.39729e-18)
(1.03899 -0.130915 4.0002e-18)
(1.03931 -0.120519 -5.32012e-18)
(1.03922 -0.110834 -3.71355e-18)
(1.03899 -0.101748 1.0894e-18)
(1.03837 -0.0932251 -3.37484e-18)
(1.03762 -0.0851579 3.75218e-18)
(1.03648 -0.0775389 6.84197e-18)
(1.03521 -0.0702602 -6.09088e-18)