/*--------------------------------*- C++ -*----------------------------------*\
| =========                 |                                                 |
| \\      /  F ield         | foam-extend: Open Source CFD                    |
|  \\    /   O peration     | Version:  3.0                                   |
|   \\  /    A nd           | Web:         http://www.extend-project.de       |
|    \\/     M anipulation  |                                                 |
\*---------------------------------------------------------------------------*/
FoamFile
{
    version     2.0;
    format      ascii;
    class       volSymmTensorField;
    location    "25";
    object      sigma;
}
// * * * * * * * * * * * * * * * * * * * * * * * * * * * * * * * * * * * * * //

dimensions      [0 0 0 0 0 0 0];

internalField   nonuniform List<symmTensor> 
168
(
(-0.142478 -0.0194014 -1.10744e-18 0.14249 -2.74775e-19 -1.2676e-05)
(-0.11433 -0.0207371 1.86433e-19 0.114359 2.0149e-18 -2.94147e-05)
(-0.079379 -0.0173966 7.5397e-19 0.0794217 -1.58328e-19 -4.27048e-05)
(-0.0505103 -0.0136252 -1.02978e-18 0.0505584 4.09048e-18 -4.80763e-05)
(-0.0270124 -0.0102651 1.88022e-18 0.0270575 9.92206e-19 -4.5107e-05)
(-0.0130835 -0.00820318 -4.30827e-19 0.0131059 -3.47911e-18 -2.24301e-05)
(-0.12985 -0.0553757 6.73929e-19 0.129862 4.86516e-19 -1.19422e-05)
(-0.0957114 -0.0568321 1.42611e-18 0.0957391 -4.53012e-18 -2.76676e-05)
(-0.0614287 -0.0467836 1.85222e-18 0.0614689 -2.64785e-18 -4.01694e-05)
(-0.0347051 -0.0361439 3.89997e-18 0.0347504 -4.10769e-18 -4.52468e-05)
(-0.013333 -0.0269055 -5.69181e-18 0.0133755 -9.85086e-19 -4.25701e-05)
(-0.000485739 -0.0216296 -1.62212e-19 0.000506954 4.64634e-18 -2.12151e-05)
(-0.107597 -0.0836472 4.60823e-19 0.107608 -6.6518e-18 -1.05679e-05)
(-0.0649894 -0.0784973 -5.57256e-18 0.0650139 5.79292e-19 -2.45018e-05)
(-0.0324544 -0.0612441 -4.24117e-19 0.0324901 -5.05145e-19 -3.56873e-05)
(-0.00956813 -0.0448633 -7.48445e-19 0.00960842 7.43926e-19 -4.02845e-05)
(0.00812695 -0.0310133 1.10218e-17 -0.00808901 6.59075e-18 -3.79453e-05)
(0.0191351 -0.0230511 1.65063e-18 -0.0191162 -6.89868e-18 -1.89195e-05)
(-0.0806008 -0.101931 2.0672e-18 0.0806095 3.22691e-18 -8.63926e-06)
(-0.0325381 -0.0826205 3.5366e-18 0.0325582 6.20288e-18 -2.00646e-05)
(-0.00349893 -0.0578536 3.32329e-19 0.0035282 -2.09076e-18 -2.9272e-05)
(0.0144977 -0.0372391 -2.43e-19 -0.0144646 4.47607e-18 -3.31513e-05)
(0.0277567 -0.0204066 -5.13528e-18 -0.0277254 -1.23984e-17 -3.12854e-05)
(0.0364656 -0.0104208 2.69242e-20 -0.03645 3.16956e-18 -1.56074e-05)
(-0.0536741 -0.110975 -4.62416e-18 0.0536803 1.31601e-18 -6.24478e-06)
(-0.00811704 -0.072909 6.69466e-19 0.0081316 -4.78911e-18 -1.4557e-05)
(0.015139 -0.0410296 -1.62466e-18 -0.0151177 1.5892e-18 -2.12927e-05)
(0.0278481 -0.0177017 2.85763e-18 -0.0278238 -1.72518e-18 -2.42576e-05)
(0.0366866 0.000611963 1.36354e-18 -0.0366636 4.4869e-18 -2.29833e-05)
(0.0428922 0.0119118 -4.13162e-18 -0.0428808 2.12463e-18 -1.149e-05)
(-0.0298473 -0.1138 1.56769e-18 0.0298508 9.76411e-19 -3.50047e-06)
(0.00310908 -0.0580132 -1.06439e-18 -0.00310085 2.00234e-18 -8.23362e-06)
(0.0182487 -0.0204785 -9.49403e-19 -0.0182365 2.10122e-20 -1.21697e-05)
(0.0257242 0.00432749 -1.52322e-18 -0.0257101 -2.94202e-19 -1.40653e-05)
(0.030645 0.0231076 -1.99268e-18 -0.0306315 -2.29787e-18 -1.34909e-05)
(0.0343219 0.0351899 2.24998e-18 -0.0343151 -2.89471e-19 -6.78959e-06)
(-0.00946353 -0.114013 -1.18849e-19 0.00946409 -6.84884e-19 -5.65768e-07)
(0.00258603 -0.0474731 6.87483e-20 -0.00258457 -1.27657e-18 -1.46138e-06)
(0.00784971 -0.00678985 9.76446e-19 -0.0078473 8.91539e-20 -2.40786e-06)
(0.0103172 0.0186296 -9.44065e-20 -0.010314 -7.98026e-19 -3.14461e-06)
(0.0118739 0.0374511 2.78155e-19 -0.0118706 2.20607e-18 -3.30776e-06)
(0.0131301 0.0498603 -7.74638e-19 -0.0131283 -9.30699e-20 -1.74546e-06)
(0.00947015 -0.114008 -1.85357e-19 -0.00947257 9.19732e-19 2.41595e-06)
(-0.00257913 -0.0474739 2.15613e-19 0.00257371 1.04921e-18 5.41748e-06)
(-0.00784308 -0.0067899 -7.62692e-20 0.00783558 -9.78307e-19 7.49975e-06)
(-0.0102905 0.0186261 1.32025e-18 0.0102825 -7.76096e-19 7.94886e-06)
(-0.0118476 0.0374414 -3.17853e-19 0.0118406 -2.027e-18 7.02815e-06)
(-0.0130486 0.0498486 -4.38972e-19 0.0130452 -6.71485e-20 3.36227e-06)
(0.0298533 -0.113792 1.58705e-18 -0.0298585 -7.95912e-19 5.28028e-06)
(-0.00310089 -0.058011 -2.06432e-18 0.00308885 -1.91928e-18 1.20375e-05)
(-0.0182428 -0.0204794 -1.18556e-18 0.0182258 -3.23218e-19 1.70431e-05)
(-0.0256997 0.00433499 -1.95161e-18 0.025681 -2.31392e-18 1.86504e-05)
(-0.0306279 0.0230996 -2.46027e-19 0.0306109 3.49822e-18 1.70223e-05)
(-0.0342683 0.0352068 2.80393e-18 0.03426 -1.25604e-20 8.31499e-06)
(0.0536696 -0.11097 -4.5952e-18 -0.0536775 -5.48783e-19 7.89583e-06)
(0.00812043 -0.0729141 5.19556e-19 -0.00813851 4.73669e-18 1.80805e-05)
(-0.0151326 -0.0410335 -1.01422e-18 0.0151068 -4.57152e-19 2.57596e-05)
(-0.02783 -0.0177069 2.26205e-19 0.0278015 8.41931e-19 2.84379e-05)
(-0.0366511 0.000606893 4.53613e-18 0.0366249 -7.4019e-18 2.61623e-05)
(-0.0428226 0.0119245 -4.37874e-18 0.0428097 -1.29006e-18 1.2831e-05)
(0.0805939 -0.101924 2.43791e-18 -0.080604 -3.02163e-18 1.01195e-05)
(0.0325409 -0.0826188 6.06603e-18 -0.0325641 -3.532e-18 2.32317e-05)
(0.00350236 -0.0578572 -2.60038e-18 -0.00353556 -2.71846e-19 3.32017e-05)
(-0.0144824 -0.0372354 3.44011e-18 0.0144456 1.57563e-18 3.68097e-05)
(-0.0277287 -0.0204231 -1.20915e-17 0.0276947 5.56323e-18 3.39902e-05)
(-0.0364206 -0.010442 2.87163e-18 0.0364039 1.6106e-19 1.67042e-05)
(0.107597 -0.0836496 2.04283e-18 -0.107609 6.2137e-18 1.18563e-05)
(0.064996 -0.0785065 -6.07296e-18 -0.0650232 -2.98906e-19 2.72569e-05)
(0.0324722 -0.0612471 1.38837e-18 -0.0325112 3.36181e-18 3.90324e-05)
(0.0095851 -0.0448769 -3.12056e-18 -0.00962849 -3.33794e-18 4.33975e-05)
(-0.00809601 -0.0310162 5.35445e-18 0.00805583 -1.18276e-18 4.01811e-05)
(-0.0191042 -0.0230547 2.15224e-18 0.0190844 4.52899e-18 1.97787e-05)
(0.129845 -0.0553811 3.9189e-19 -0.129858 -8.1442e-19 1.30035e-05)
(0.0957134 -0.0568423 2.70233e-18 -0.0957433 2.39079e-18 2.99339e-05)
(0.0614341 -0.0467929 1.66275e-18 -0.061477 3.7456e-18 4.29267e-05)
(0.0347203 -0.0361555 -2.04109e-18 -0.0347681 3.73561e-18 4.78248e-05)
(0.0133558 -0.0269157 -6.58565e-19 -0.0134001 2.21229e-18 4.43432e-05)
(0.000546871 -0.0216453 -1.41237e-18 -0.000568708 -2.0092e-18 2.18375e-05)
(0.14248 -0.0193964 -5.97412e-19 -0.142493 -3.47551e-19 1.35221e-05)
(0.114335 -0.0207456 -6.18036e-19 -0.114366 -2.62749e-18 3.11557e-05)
(0.0793941 -0.0173849 9.11875e-19 -0.0794389 -1.37556e-18 4.47335e-05)
(0.0505253 -0.0136391 -9.9265e-19 -0.0505753 -2.10598e-18 4.99291e-05)
(0.0270406 -0.0102693 1.70495e-18 -0.027087 7.38034e-19 4.63633e-05)
(0.0131322 -0.0082375 -2.70959e-20 -0.0131551 -4.84165e-19 2.28588e-05)
(0.142465 0.019471 -1.10538e-18 -0.142478 -2.74108e-19 1.33652e-05)
(0.114298 0.0209032 1.86774e-19 -0.114329 2.01514e-18 3.08322e-05)
(0.0793006 0.0177538 7.51338e-19 -0.0793449 -1.56926e-19 4.43178e-05)
(0.0503926 0.01421 -1.0304e-18 -0.0504421 4.09145e-18 4.95564e-05)
(0.0268029 0.011189 1.87367e-18 -0.0268489 9.92873e-19 4.60798e-05)
(0.0127313 0.00978639 -4.29611e-19 -0.012754 -3.4785e-18 2.27425e-05)
(0.129795 0.055428 6.73498e-19 -0.129807 4.86254e-19 1.25632e-05)
(0.0955936 0.0569599 1.42618e-18 -0.0956227 -4.53144e-18 2.90071e-05)
(0.061187 0.0470701 1.85786e-18 -0.0612287 -2.64651e-18 4.1737e-05)
(0.0343126 0.0365975 3.89913e-18 -0.0343594 -4.1107e-18 4.67488e-05)
(0.0127306 0.0276457 -5.68456e-18 -0.0127741 -9.79291e-19 4.35186e-05)
(-0.000546694 0.0228859 -1.65536e-19 0.00052519 4.64182e-18 2.15044e-05)
(0.107527 0.0836683 4.62592e-19 -0.107538 -6.65174e-18 1.11317e-05)
(0.0648221 0.0785594 -5.5725e-18 -0.0648479 5.79223e-19 2.57365e-05)
(0.0321018 0.0613856 -4.27174e-19 -0.0321389 -5.08131e-19 3.70662e-05)
(0.00900342 0.0451001 -7.4634e-19 -0.00904502 7.44336e-19 4.15936e-05)
(-0.00902258 0.0313871 1.10177e-17 0.00898382 6.58881e-18 3.87555e-05)
(-0.0206439 0.0236916 1.65298e-18 0.0206248 -6.90096e-18 1.91565e-05)
(0.0805294 0.101911 2.06614e-18 -0.0805386 3.22529e-18 9.16918e-06)
(0.032347 0.0825965 3.53628e-18 -0.0323682 6.20182e-18 2.12211e-05)
(0.00311196 0.0578244 3.35066e-19 -0.00314256 -2.08738e-18 3.05946e-05)
(-0.0151354 0.0371877 -2.44262e-19 0.015101 4.47476e-18 3.43999e-05)
(-0.0287585 0.0203561 -5.13151e-18 0.0287264 -1.23928e-17 3.20944e-05)
(-0.0381643 0.0103162 2.54253e-20 0.0381484 3.16769e-18 1.58853e-05)
(0.053618 0.110925 -4.62422e-18 -0.0536247 1.31727e-18 6.74647e-06)
(0.00795037 0.072801 6.70213e-19 -0.00796601 -4.78945e-18 1.56475e-05)
(-0.0154831 0.0408257 -1.62763e-18 0.0154605 1.58522e-18 2.25796e-05)
(-0.0284155 0.0173723 2.86149e-18 0.0283901 -1.72543e-18 2.54498e-05)
(-0.0375822 -0.00111475 1.35927e-18 0.0375585 4.4801e-18 2.37487e-05)
(-0.0444007 -0.0127456 -4.12617e-18 0.044389 2.12578e-18 1.17376e-05)
(0.0298154 0.113733 1.56689e-18 -0.0298195 9.75629e-19 4.01706e-06)
(-0.00322783 0.0578332 -1.06534e-18 0.00321848 2.00212e-18 9.34536e-06)
(-0.0184847 0.0201394 -9.49714e-19 0.0184712 2.49873e-20 1.35058e-05)
(-0.0261212 -0.00489106 -1.52509e-18 0.0261059 -2.95146e-19 1.52945e-05)
(-0.0312713 -0.023975 -1.99018e-18 0.031257 -2.29148e-18 1.4293e-05)
(-0.0353643 -0.0366374 2.24643e-18 0.0353572 -2.90763e-19 7.06569e-06)
(0.00945898 0.11394 -1.19051e-19 -0.00946007 -6.83635e-19 1.09012e-06)
(-0.00262236 0.0472616 6.84862e-20 0.00261977 -1.27561e-18 2.59331e-06)
(-0.00792723 0.00638035 9.75185e-19 0.00792346 8.5496e-20 3.76436e-06)
(-0.0104468 -0.0193117 -9.35737e-20 0.0104425 -7.97726e-19 4.36169e-06)
(-0.0120872 -0.0385074 2.75597e-19 0.0120831 2.19905e-18 4.06495e-06)
(-0.0134796 -0.0516223 -7.70856e-19 0.0134776 -9.0965e-20 1.97866e-06)
(-0.00945232 0.113937 -1.85177e-19 0.00945417 9.18332e-19 -1.85167e-06)
(0.00263037 0.0472554 2.15029e-19 -0.00262615 1.0489e-18 -4.21358e-06)
(0.00794156 0.00637772 -7.65438e-20 -0.00793549 -9.75593e-19 -6.06486e-06)
(0.0104482 -0.0193192 1.31901e-18 -0.0104415 -7.7743e-19 -6.68742e-06)
(0.0121023 -0.0385111 -3.1827e-19 -0.012096 -2.02134e-18 -6.26666e-06)
(0.0134536 -0.0516283 -4.39707e-19 -0.0134504 -6.87221e-20 -3.14323e-06)
(-0.0298119 0.113733 1.58644e-18 0.0298166 -7.94824e-19 -4.68894e-06)
(0.00322986 0.0578344 -2.06484e-18 -0.00321909 -1.91836e-18 -1.07697e-05)
(0.0184932 0.0201418 -1.18382e-18 -0.0184777 -3.26349e-19 -1.55449e-05)
(0.0261224 -0.00489573 -1.95429e-18 -0.026105 -2.31445e-18 -1.73683e-05)
(0.0312801 -0.023971 -2.42407e-19 -0.0312638 3.49142e-18 -1.62865e-05)
(0.0353618 -0.0366418 2.80004e-18 -0.0353536 -1.15685e-20 -8.128e-06)
(-0.0536108 0.110924 -4.59442e-18 0.0536181 -5.49884e-19 -7.24509e-06)
(-0.00793615 0.0728018 5.21089e-19 0.00795285 4.73649e-18 -1.66983e-05)
(0.0154957 0.0408327 -1.01559e-18 -0.0154715 -4.52641e-19 -2.41213e-05)
(0.0284307 0.0173646 2.29801e-19 -0.0284036 8.4255e-19 -2.70564e-05)
(0.0376008 -0.00110801 4.53211e-18 -0.0375755 -7.39704e-18 -2.5373e-05)
(0.0444034 -0.0127764 -4.37781e-18 -0.0443907 -1.29214e-18 -1.2639e-05)
(-0.0805246 0.101909 2.43694e-18 0.080534 -3.0196e-18 -9.42704e-06)
(-0.0323371 0.0825969 6.06525e-18 0.0323589 -3.53189e-18 -2.17531e-05)
(-0.0031021 0.0578244 -2.59685e-18 0.00313354 -2.73377e-19 -3.14366e-05)
(0.0151526 0.037187 3.43698e-18 -0.0151173 1.57532e-18 -3.53538e-05)
(0.0287734 0.0203525 -1.20877e-17 -0.0287402 5.5627e-18 -3.31757e-05)
(0.0381717 0.0103215 2.86711e-18 -0.0381551 1.56212e-19 -1.65315e-05)
(-0.107521 0.0836641 2.04369e-18 0.107532 6.2133e-18 -1.10985e-05)
(-0.0648082 0.0785645 -6.07217e-18 0.0648339 -3.00356e-19 -2.56593e-05)
(-0.0320982 0.0613894 1.38457e-18 0.0321353 3.36504e-18 -3.70851e-05)
(-0.00897925 0.0450994 -3.11979e-18 0.00902105 -3.3407e-18 -4.1797e-05)
(0.00903609 0.0314008 5.34975e-18 -0.00899687 -1.17603e-18 -3.9225e-05)
(0.0206799 0.0236938 2.1557e-18 -0.0206603 4.52865e-18 -1.95481e-05)
(-0.129792 0.0554249 3.90594e-19 0.129805 -8.14167e-19 -1.22307e-05)
(-0.0955838 0.0569694 2.70275e-18 0.0956121 2.39054e-18 -2.8304e-05)
(-0.0611795 0.0470663 1.66583e-18 0.0612204 3.74417e-18 -4.09172e-05)
(-0.0342956 0.0366123 -2.04154e-18 0.0343418 3.7363e-18 -4.61853e-05)
(-0.0127021 0.0276465 -6.52515e-19 0.0127454 2.20999e-18 -4.33535e-05)
(0.000580217 0.0228899 -1.41329e-18 -0.000558588 -2.00803e-18 -2.16297e-05)
(-0.142456 0.0194701 -5.96671e-19 0.142469 -3.47965e-19 -1.27522e-05)
(-0.114284 0.0209144 -6.16794e-19 0.114314 -2.62854e-18 -2.95207e-05)
(-0.0792916 0.017753 9.07539e-19 0.0793344 -1.37596e-18 -4.2761e-05)
(-0.0503644 0.0142205 -9.90552e-19 0.0504126 -2.10754e-18 -4.82209e-05)
(-0.0267884 0.0111979 1.69653e-18 0.0268338 7.40118e-19 -4.5383e-05)
(-0.012701 0.00980107 -2.34138e-20 0.0127236 -4.86283e-19 -2.26205e-05)
)
;

boundaryField
{
    out
    {
        type            mySigma;
    }
    in
    {
        type            mySigma;
    }
    frontAndBack
    {
        type            empty;
    }
}


// ************************************************************************* //
