/*--------------------------------*- C++ -*----------------------------------*\
| =========                 |                                                 |
| \\      /  F ield         | foam-extend: Open Source CFD                    |
|  \\    /   O peration     | Version:  3.0                                   |
|   \\  /    A nd           | Web:         http://www.extend-project.de       |
|    \\/     M anipulation  |                                                 |
\*---------------------------------------------------------------------------*/
FoamFile
{
    version     2.0;
    format      ascii;
    class       volSymmTensorField;
    location    "29";
    object      sigma;
}
// * * * * * * * * * * * * * * * * * * * * * * * * * * * * * * * * * * * * * //

dimensions      [0 0 0 0 0 0 0];

internalField   nonuniform List<symmTensor> 
1920
(
(-0.176274 -0.00577508 4.99282e-20 0.176274 -1.13987e-20 5.50073e-07)
(-0.171009 -0.00683694 9.64083e-20 0.171008 1.52972e-20 1.47025e-06)
(-0.161268 -0.00720206 1.09088e-19 0.161265 1.07498e-20 2.28423e-06)
(-0.149659 -0.00718868 9.8069e-20 0.149656 3.97102e-20 3.01006e-06)
(-0.137516 -0.00697038 7.76835e-20 0.137512 6.50566e-20 3.65904e-06)
(-0.125497 -0.00664422 7.84901e-20 0.125493 5.35456e-20 4.23628e-06)
(-0.113942 -0.00626619 6.26452e-20 0.113937 9.56331e-20 4.74391e-06)
(-0.103003 -0.00586906 7.58208e-20 0.102998 8.03196e-20 5.17996e-06)
(-0.0927474 -0.00547219 7.10225e-20 0.0927418 1.21353e-19 5.54081e-06)
(-0.0831923 -0.00508747 6.32389e-20 0.0831865 1.36907e-19 5.81937e-06)
(-0.0743339 -0.00472174 3.72305e-20 0.0743279 1.49521e-19 6.00733e-06)
(-0.0661622 -0.00437986 1.93699e-20 0.0661562 1.26125e-19 6.09279e-06)
(-0.0586633 -0.00406434 4.79548e-20 0.0586572 1.12115e-19 6.06275e-06)
(-0.0518351 -0.00377797 6.11014e-20 0.0518292 1.27821e-19 5.90017e-06)
(-0.0456739 -0.00352196 2.66078e-20 0.0456683 1.03331e-19 5.58685e-06)
(-0.0401985 -0.00329906 5.26726e-20 0.0401934 1.78827e-20 5.09993e-06)
(-0.0354238 -0.00311046 6.24888e-20 0.0354194 -2.35812e-20 4.41536e-06)
(-0.0313961 -0.00295976 2.29477e-20 0.0313926 -3.39303e-20 3.50376e-06)
(-0.0281546 -0.00284928 1.97488e-20 0.0281522 -6.86018e-20 2.33472e-06)
(-0.0257769 -0.00278091 -3.18923e-21 0.0257761 -3.92428e-20 8.71889e-07)
(-0.175517 -0.0173003 5.4065e-20 0.175517 6.34105e-21 5.47726e-07)
(-0.169634 -0.0204182 9.7855e-20 0.169632 1.51562e-20 1.464e-06)
(-0.159579 -0.021477 1.10462e-19 0.159576 3.15165e-23 2.27454e-06)
(-0.14783 -0.0214182 1.28233e-19 0.147827 -4.78131e-21 2.99732e-06)
(-0.135645 -0.020755 9.67169e-20 0.135641 5.0776e-20 3.64357e-06)
(-0.123643 -0.0197745 9.08659e-20 0.123639 6.37807e-20 4.21841e-06)
(-0.112137 -0.018642 8.99814e-20 0.112132 9.81759e-20 4.72391e-06)
(-0.101265 -0.0174543 7.02352e-20 0.10126 1.96136e-19 5.15814e-06)
(-0.0910852 -0.0162686 7.6911e-20 0.0910796 2.3982e-19 5.51749e-06)
(-0.0816084 -0.0151197 6.19687e-20 0.0816026 2.20649e-19 5.79488e-06)
(-0.0728272 -0.014028 4.68929e-20 0.0728212 2.0951e-19 5.98205e-06)
(-0.0647292 -0.0130076 3.12752e-20 0.0647231 1.99166e-19 6.06716e-06)
(-0.0572987 -0.012066 8.03648e-20 0.0572926 1.5749e-19 6.03725e-06)
(-0.0505323 -0.0112113 7.87731e-20 0.0505265 1.68405e-19 5.87537e-06)
(-0.0444257 -0.0104472 -5.32248e-21 0.0444202 2.18265e-19 5.56337e-06)
(-0.0389965 -0.00978164 -6.95496e-20 0.0389914 2.33292e-19 5.0785e-06)
(-0.034259 -0.0092183 -4.49992e-20 0.0342546 2.12421e-19 4.39682e-06)
(-0.0302583 -0.00876784 1.7856e-20 0.0302548 1.32937e-19 3.48905e-06)
(-0.027033 -0.0084371 3.70991e-20 0.0270306 8.42707e-20 2.32493e-06)
(-0.0246606 -0.00823179 5.91466e-20 0.0246597 -3.70502e-20 8.68237e-07)
(-0.174006 -0.0287507 4.82858e-20 0.174006 1.08863e-20 5.431e-07)
(-0.166913 -0.0337244 7.75711e-20 0.166912 1.04711e-20 1.45163e-06)
(-0.156246 -0.0353687 7.42592e-20 0.156244 6.94456e-21 2.25531e-06)
(-0.144223 -0.0352091 1.09485e-19 0.144221 -2.09178e-20 2.97195e-06)
(-0.13196 -0.0340769 1.29955e-19 0.131957 -4.63212e-21 3.61271e-06)
(-0.119993 -0.032436 1.02271e-19 0.119988 6.91616e-20 4.18264e-06)
(-0.108585 -0.0305538 1.57615e-19 0.108581 1.06681e-19 4.68382e-06)
(-0.0978465 -0.0285866 2.31005e-19 0.0978414 2.01738e-19 5.11435e-06)
(-0.0878164 -0.0266263 1.49944e-19 0.087811 2.57536e-19 5.47063e-06)
(-0.0784944 -0.0247291 9.89919e-20 0.0784887 2.16506e-19 5.74567e-06)
(-0.0698659 -0.0229275 8.58538e-20 0.06986 2.13629e-19 5.93125e-06)
(-0.0619133 -0.0212443 2.41341e-20 0.0619073 2.4993e-19 6.01565e-06)
(-0.0546181 -0.0196912 8.61346e-20 0.0546121 1.1559e-19 5.986e-06)
(-0.047974 -0.0182814 2.05236e-19 0.0479681 1.35552e-19 5.8255e-06)
(-0.0419752 -0.0170206 2.3788e-19 0.0419697 1.53777e-19 5.51616e-06)
(-0.0366371 -0.0159219 2.0514e-19 0.0366321 2.48133e-19 5.03541e-06)
(-0.0319733 -0.0149912 9.31468e-20 0.0319689 2.31968e-19 4.35952e-06)
(-0.0280262 -0.0142457 -7.68443e-21 0.0280227 6.73037e-20 3.45945e-06)
(-0.024833 -0.0136968 -8.24447e-20 0.0248307 -4.60894e-20 2.3052e-06)
(-0.0224713 -0.013354 -7.33202e-20 0.0224705 4.67482e-21 8.60871e-07)
(-0.171748 -0.040077 4.26791e-20 0.171748 4.4197e-21 5.3614e-07)
(-0.162908 -0.0465815 6.0594e-20 0.162906 2.8303e-20 1.43303e-06)
(-0.15136 -0.048636 4.90128e-20 0.151357 4.08429e-20 2.22641e-06)
(-0.138946 -0.0482862 6.33675e-20 0.138943 2.93869e-20 2.93385e-06)
(-0.126575 -0.0466455 1.36285e-19 0.126571 -3.45789e-20 3.56636e-06)
(-0.114662 -0.0443347 1.80572e-19 0.114657 -1.72231e-20 4.12895e-06)
(-0.103402 -0.041711 1.96722e-19 0.103397 5.82562e-21 4.62368e-06)
(-0.0928598 -0.0389822 2.90344e-19 0.0928548 -2.22692e-20 5.04867e-06)
(-0.0830506 -0.0362707 2.44864e-19 0.0830452 -2.61962e-21 5.40037e-06)
(-0.0739563 -0.0336511 1.18036e-19 0.0739506 5.79263e-20 5.67188e-06)
(-0.0655523 -0.0311659 1.74377e-19 0.0655465 1.14011e-19 5.85508e-06)
(-0.0578134 -0.0288454 5.4239e-20 0.0578074 1.82117e-19 5.9384e-06)
(-0.0507169 -0.0267047 -1.44254e-20 0.050711 9.54843e-20 5.90915e-06)
(-0.0442524 -0.0247613 1.64157e-19 0.0442466 4.96185e-20 5.75071e-06)
(-0.0384122 -0.0230226 2.09898e-19 0.0384067 1.25933e-20 5.44535e-06)
(-0.0332082 -0.0215062 3.18065e-19 0.0332033 -2.35228e-19 4.97078e-06)
(-0.0286528 -0.0202199 4.00913e-20 0.0286485 -1.37944e-19 4.30356e-06)
(-0.0247849 -0.0191873 -1.24046e-19 0.0247815 -2.1011e-19 3.41505e-06)
(-0.0216396 -0.0184237 -4.64482e-20 0.0216373 -2.42475e-20 2.27562e-06)
(-0.0192944 -0.0179425 5.05759e-20 0.0192936 1.12663e-19 8.49824e-07)
(-0.168753 -0.0512301 2.54374e-20 0.168752 4.54754e-20 5.26888e-07)
(-0.157705 -0.058829 2.80572e-20 0.157704 9.8383e-20 1.4083e-06)
(-0.145049 -0.0610585 1.24451e-20 0.145047 1.06307e-19 2.18797e-06)
(-0.132151 -0.0603985 -3.85054e-20 0.132148 1.6248e-19 2.88317e-06)
(-0.119651 -0.0581972 -5.06565e-23 0.119648 6.54095e-20 3.50474e-06)
(-0.107817 -0.0552042 8.78176e-20 0.107813 -7.68233e-21 4.05759e-06)
(-0.0967519 -0.0518499 1.68897e-19 0.0967474 -1.20472e-19 4.54376e-06)
(-0.0864681 -0.0483842 2.03113e-19 0.0864632 -5.52808e-20 4.96138e-06)
(-0.0769464 -0.0449534 2.67218e-19 0.0769411 -5.81528e-20 5.307e-06)
(-0.0681479 -0.0416463 1.78292e-19 0.0681423 1.51469e-19 5.57381e-06)
(-0.0600349 -0.0385133 2.60603e-19 0.0600292 9.4382e-20 5.75385e-06)
(-0.0525728 -0.03559 1.51889e-19 0.0525669 1.2703e-19 5.83574e-06)
(-0.0457337 -0.032894 -3.16493e-20 0.0457279 1.71507e-19 5.807e-06)
(-0.0395018 -0.0304461 3.56278e-20 0.0394961 2.80534e-19 5.65131e-06)
(-0.0338671 -0.028255 -1.64158e-20 0.0338617 2.33232e-20 5.35123e-06)
(-0.0288371 -0.0263419 7.60275e-21 0.0288323 -1.58433e-19 4.88487e-06)
(-0.0244228 -0.0247163 2.05897e-19 0.0244185 -1.01237e-19 4.22919e-06)
(-0.0206582 -0.0234072 -1.28736e-20 0.0206548 -3.04226e-20 3.35603e-06)
(-0.0175759 -0.0224335 1.94238e-19 0.0175737 1.16019e-19 2.23629e-06)
(-0.0152535 -0.021813 -7.83699e-20 0.0152526 1.5378e-19 8.35137e-07)
(-0.165033 -0.0621621 -1.9761e-20 0.165033 1.54559e-19 5.1537e-07)
(-0.151417 -0.0703249 -4.83483e-20 0.151416 2.59252e-19 1.37751e-06)
(-0.137481 -0.072444 -1.00536e-20 0.137479 2.25019e-19 2.14013e-06)
(-0.124031 -0.0713288 1.64163e-20 0.124028 1.34756e-19 2.82013e-06)
(-0.111398 -0.0685039 -9.10701e-20 0.111395 1.41388e-19 3.42809e-06)
(-0.0996705 -0.0648142 -7.28629e-20 0.0996665 8.6104e-20 3.96884e-06)
(-0.0888484 -0.0607437 -1.64795e-20 0.088844 6.62386e-20 4.44436e-06)
(-0.0788795 -0.0565717 2.01377e-19 0.0788746 9.15652e-20 4.85284e-06)
(-0.0697063 -0.0524609 3.47591e-19 0.0697011 -8.0766e-21 5.1909e-06)
(-0.061265 -0.0485096 2.83856e-19 0.0612595 1.26626e-19 5.45188e-06)
(-0.0535029 -0.0447727 1.75379e-19 0.0534972 8.89516e-20 5.62799e-06)
(-0.0463741 -0.0412891 2.25937e-19 0.0463684 1.6642e-19 5.7081e-06)
(-0.0398449 -0.0380777 2.34093e-19 0.0398392 1.88304e-19 5.68e-06)
(-0.0338931 -0.0351611 9.68197e-20 0.0338876 3.86851e-19 5.52772e-06)
(-0.028506 -0.0325488 -1.84472e-19 0.0285007 -9.59079e-22 5.23421e-06)
(-0.0236861 -0.0302647 -1.0286e-19 0.0236813 4.4282e-20 4.77805e-06)
(-0.0194423 -0.0283199 4.3469e-20 0.0194382 -9.44653e-20 4.13671e-06)
(-0.0158034 -0.0267475 -1.64475e-20 0.0158001 -4.87128e-21 3.28265e-06)
(-0.0127988 -0.0255697 3.00354e-19 0.0127967 -1.61685e-19 2.1874e-06)
(-0.010506 -0.0248086 9.06598e-21 0.0105051 -2.65641e-20 8.16879e-07)
(-0.160606 -0.0728258 6.98065e-21 0.160605 1.45409e-19 5.01646e-07)
(-0.144176 -0.0809497 -6.83575e-20 0.144175 2.79608e-19 1.34082e-06)
(-0.128852 -0.0826344 -8.56981e-20 0.12885 1.32899e-19 2.08312e-06)
(-0.114817 -0.0809 -2.85123e-20 0.114815 1.02557e-20 2.745e-06)
(-0.102061 -0.0773812 -6.34667e-20 0.102058 1.50595e-19 3.33675e-06)
(-0.0904737 -0.0729797 -5.48612e-20 0.0904698 1.04126e-19 3.86307e-06)
(-0.0799405 -0.0682103 -1.03452e-20 0.0799362 1.09174e-19 4.32592e-06)
(-0.0703388 -0.0633677 7.03169e-20 0.0703341 -4.62871e-20 4.72351e-06)
(-0.0615685 -0.0586227 2.63335e-19 0.0615635 -1.26839e-19 5.05256e-06)
(-0.0535382 -0.0540771 4.35379e-19 0.0535329 -6.02181e-20 5.30659e-06)
(-0.0461788 -0.0497873 3.37381e-19 0.0461733 1.81517e-20 5.47802e-06)
(-0.0394323 -0.0457925 3.45167e-19 0.0394267 -2.19515e-20 5.556e-06)
(-0.0332581 -0.0421116 4.55894e-19 0.0332526 -1.59106e-19 5.52866e-06)
(-0.0276273 -0.0387678 4.08892e-19 0.027622 -6.87138e-20 5.38045e-06)
(-0.0225242 -0.0357705 -1.45832e-19 0.0225191 -3.94959e-19 5.09476e-06)
(-0.0179457 -0.0331453 -9.30575e-20 0.017941 -3.28029e-19 4.65076e-06)
(-0.0138987 -0.0309043 8.4329e-21 0.0138946 -2.18519e-19 4.02651e-06)
(-0.0104057 -0.0290841 1.11377e-21 0.0104025 -6.33641e-19 3.1952e-06)
(-0.0074928 -0.0277093 -4.54409e-20 0.00749067 -3.05191e-19 2.12913e-06)
(-0.00523696 -0.0268065 2.47352e-19 0.00523616 -4.68895e-19 7.9512e-07)
(-0.15549 -0.0831755 6.82449e-20 0.15549 6.97104e-20 4.85764e-07)
(-0.13613 -0.0906092 3.82936e-20 0.136129 3.25733e-20 1.29837e-06)
(-0.119379 -0.0915108 -1.39119e-19 0.119377 -8.55362e-21 2.01717e-06)
(-0.104765 -0.0889816 -2.90655e-20 0.104763 1.08855e-20 2.65808e-06)
(-0.0919128 -0.0846943 5.94259e-20 0.0919095 7.16008e-21 3.23108e-06)
(-0.0805054 -0.0795663 -1.00514e-19 0.0805016 2.05488e-20 3.74074e-06)
(-0.0703062 -0.0741183 -7.82493e-20 0.070302 -6.33089e-20 4.18892e-06)
(-0.0611187 -0.0686454 -7.33819e-20 0.0611141 -1.22499e-19 4.57393e-06)
(-0.052798 -0.0633171 2.54196e-20 0.0527931 3.25919e-20 4.89256e-06)
(-0.0452241 -0.0582325 3.96912e-19 0.0452189 -7.10429e-20 5.13856e-06)
(-0.0383103 -0.0534459 2.03516e-19 0.038305 1.24757e-19 5.30457e-06)
(-0.0319862 -0.0489942 7.91153e-20 0.0319808 -4.04682e-20 5.38009e-06)
(-0.0262041 -0.0448946 1.78789e-19 0.0261987 -1.71574e-19 5.35362e-06)
(-0.020928 -0.0411692 3.41147e-19 0.0209228 -2.06076e-19 5.21012e-06)
(-0.016139 -0.0378269 -3.70796e-19 0.016134 -3.37661e-19 4.93348e-06)
(-0.0118281 -0.0348937 -2.54224e-19 0.0118236 -6.38935e-20 4.50354e-06)
(-0.008 -0.0323823 -3.04028e-19 0.0079961 -4.15293e-19 3.89906e-06)
(-0.00467074 -0.0303314 -5.15239e-19 0.00466765 -4.56847e-19 3.09407e-06)
(-0.00186266 -0.0287676 -2.52275e-19 0.0018606 1.63869e-19 2.06175e-06)
(0.000347902 -0.0277224 1.49997e-19 -0.000348672 -8.45162e-20 7.69959e-07)
(-0.149708 -0.0931666 4.2103e-20 0.149708 3.04187e-20 4.67799e-07)
(-0.127438 -0.0992375 5.69767e-20 0.127436 -7.52847e-20 1.25035e-06)
(-0.109297 -0.0989968 -9.3956e-20 0.109295 -6.5698e-20 1.94255e-06)
(-0.0941473 -0.0954933 -9.87911e-20 0.0941448 -3.465e-20 2.55975e-06)
(-0.0812446 -0.0903628 1.76164e-20 0.0812415 -3.82465e-20 3.11156e-06)
(-0.0700626 -0.0844953 -2.79356e-20 0.070059 -3.03493e-20 3.60236e-06)
(-0.0602411 -0.0783918 -1.80485e-19 0.060237 -2.25747e-20 4.03396e-06)
(-0.0515091 -0.0723323 -8.3962e-20 0.0515047 9.90941e-21 4.40473e-06)
(-0.0436769 -0.0664752 -1.21488e-19 0.0436722 2.38099e-19 4.71158e-06)
(-0.0365953 -0.0609108 1.40623e-19 0.0365904 2.65162e-19 4.94848e-06)
(-0.0301608 -0.0556872 4.43691e-19 0.0301557 3.11525e-19 5.10837e-06)
(-0.0242899 -0.0508363 7.98598e-20 0.0242847 -2.73446e-20 5.18111e-06)
(-0.0189282 -0.0463719 -1.92194e-19 0.0189231 1.64542e-19 5.15563e-06)
(-0.0140326 -0.0423135 3.2143e-19 0.0140276 2.00808e-20 5.01744e-06)
(-0.00958095 -0.0386687 -2.6088e-19 0.0095762 1.46638e-19 4.75105e-06)
(-0.00555839 -0.0354627 -3.78003e-19 0.00555405 3.34817e-20 4.33702e-06)
(-0.00196729 -0.0327085 -8.14895e-19 0.00196354 1.07933e-19 3.7549e-06)
(0.00118302 -0.0304455 -4.90586e-19 -0.001186 6.13372e-19 2.97968e-06)
(0.00387404 -0.0287017 -1.85201e-19 -0.00387602 4.78259e-19 1.98553e-06)
(0.00603035 -0.0275136 -2.56745e-19 -0.00603109 3.0474e-19 7.41496e-07)
(-0.143286 -0.102756 -5.02206e-20 0.143285 9.76952e-20 4.47821e-07)
(-0.118263 -0.106798 -1.43707e-20 0.118262 -3.91785e-20 1.19695e-06)
(-0.0988455 -0.10506 -9.36097e-20 0.0988436 -8.03935e-20 1.85959e-06)
(-0.0832434 -0.100407 -1.33121e-19 0.0832409 2.40015e-22 2.45043e-06)
(-0.0703549 -0.0943624 -5.42454e-20 0.0703519 3.06647e-20 2.97867e-06)
(-0.0594495 -0.0877455 -1.45918e-19 0.0594461 1.18035e-19 3.44851e-06)
(-0.0500477 -0.0810126 -2.13267e-19 0.0500438 1.02408e-19 3.86168e-06)
(-0.0418067 -0.0744126 -1.48857e-19 0.0418025 1.68896e-19 4.21662e-06)
(-0.0344933 -0.0680835 8.92157e-20 0.0344888 2.45381e-19 4.51038e-06)
(-0.0279308 -0.0621006 8.99221e-20 0.0279261 2.92387e-19 4.73718e-06)
(-0.0219991 -0.0565017 3.35008e-19 0.0219942 -4.03122e-20 4.89025e-06)
(-0.0166028 -0.051311 4.08822e-19 0.0165979 -3.10866e-19 4.9599e-06)
(-0.0116809 -0.0465372 3.58621e-20 0.011676 2.70409e-20 4.93553e-06)
(-0.00718361 -0.0421959 2.0167e-19 0.0071788 7.58995e-22 4.80326e-06)
(-0.00308558 -0.0382924 5.66348e-20 0.00308103 -6.79711e-20 4.54825e-06)
(0.000633674 -0.03485 -2.41271e-20 -0.000637826 -3.95101e-20 4.15191e-06)
(0.00397405 -0.0318815 1.2835e-19 -0.00397764 1.16855e-19 3.59464e-06)
(0.00693289 -0.0294259 -2.99938e-19 -0.00693574 2.56207e-19 2.85252e-06)
(0.00949556 -0.0275118 1.67257e-20 -0.00949746 5.63743e-20 1.9008e-06)
(0.0115879 -0.026181 -4.49756e-19 -0.0115886 4.59602e-19 7.09858e-07)
(-0.13625 -0.111904 -6.54786e-20 0.13625 4.44145e-20 4.25922e-07)
(-0.108769 -0.113282 -1.16728e-19 0.108768 -2.72887e-20 1.13841e-06)
(-0.0882617 -0.109714 -1.27481e-19 0.0882599 -3.85805e-20 1.76865e-06)
(-0.0723297 -0.103748 -1.04168e-19 0.0723274 -2.10789e-21 2.33059e-06)
(-0.0595378 -0.0967251 -1.37439e-19 0.0595349 2.1161e-19 2.83299e-06)
(-0.048966 -0.0893536 3.97086e-20 0.0489627 1.28774e-19 3.27985e-06)
(-0.0400242 -0.08202 -1.17806e-19 0.0400205 -7.65998e-21 3.67283e-06)
(-0.0323035 -0.0749273 -1.03276e-19 0.0322995 4.76918e-20 4.01042e-06)
(-0.025531 -0.0681839 1.83348e-19 0.0255267 -5.05614e-20 4.28982e-06)
(-0.0195048 -0.0618439 3.20733e-19 0.0195003 -1.78461e-19 4.50555e-06)
(-0.0140899 -0.0559315 4.04483e-20 0.0140853 -3.37428e-19 4.65115e-06)
(-0.00918004 -0.0504603 1.38053e-19 0.00917532 -2.79123e-19 4.71741e-06)
(-0.00470842 -0.0454326 3.60361e-19 0.00470373 -7.85297e-20 4.69425e-06)
(-0.000619069 -0.0408583 4.54626e-19 0.000614501 -2.71106e-19 4.56846e-06)
(0.00311598 -0.03674 3.20466e-20 -0.00312031 -2.7258e-19 4.32594e-06)
(0.00652261 -0.0330977 -2.1757e-19 -0.00652656 -1.83962e-19 3.94898e-06)
(0.00960286 -0.0299438 5.6984e-20 -0.00960628 -2.17339e-19 3.41897e-06)
(0.0123604 -0.0273155 1.20803e-19 -0.0123631 1.40267e-19 2.71312e-06)
(0.0147844 -0.0252416 4.73256e-19 -0.0147862 2.80773e-19 1.80792e-06)
(0.0168024 -0.023769 2.10136e-19 -0.0168031 -1.89094e-19 6.75174e-07)
(-0.128632 -0.120571 7.39775e-21 0.128632 -4.06112e-20 4.02189e-07)
(-0.0991147 -0.118711 -6.09578e-20 0.0991136 -8.57744e-20 1.07498e-06)
(-0.0777729 -0.113013 -1.40936e-19 0.0777712 -5.50873e-20 1.67009e-06)
(-0.0616695 -0.10559 -4.33671e-20 0.0616673 2.25882e-20 2.20072e-06)
(-0.049073 -0.0975375 -3.37945e-20 0.0490703 1.69669e-19 2.67514e-06)
(-0.0388966 -0.0894121 2.24663e-20 0.0388935 -1.00835e-19 3.09711e-06)
(-0.0304532 -0.081509 -9.74973e-20 0.0304497 -1.00109e-19 3.4682e-06)
(-0.0232762 -0.073972 -1.0458e-19 0.0232725 -1.5659e-19 3.78699e-06)
(-0.0170586 -0.0668712 -1.22343e-19 0.0170546 -2.03522e-19 4.05085e-06)
(-0.0115769 -0.0602344 1.54463e-19 0.0115726 -2.54071e-19 4.25458e-06)
(-0.00668327 -0.0540687 5.00888e-20 0.00667887 -1.58731e-19 4.39209e-06)
(-0.00226256 -0.0483746 -7.52546e-20 0.00225811 -7.28267e-20 4.45468e-06)
(0.00175686 -0.0431468 -1.09872e-19 -0.00176129 -1.92723e-19 4.43283e-06)
(0.00543618 -0.038388 2.61116e-20 -0.00544049 -8.26768e-20 4.31407e-06)
(0.00880562 -0.0340975 4.15793e-19 -0.00880971 -4.36435e-20 4.08507e-06)
(0.0118958 -0.0302911 -1.02906e-19 -0.0118995 -1.1342e-19 3.72912e-06)
(0.0147107 -0.02698 -5.51561e-20 -0.0147139 1.21165e-20 3.22863e-06)
(0.0172598 -0.0241989 9.56167e-20 -0.0172623 4.15539e-20 2.5621e-06)
(0.0195358 -0.0219761 1.23191e-19 -0.0195375 -2.34069e-19 1.70729e-06)
(0.0214684 -0.0203637 1.83774e-19 -0.0214691 -3.28369e-19 6.37598e-07)
(-0.120465 -0.128719 3.62746e-20 0.120465 -6.23796e-20 3.7673e-07)
(-0.0894458 -0.123132 7.33349e-20 0.0894448 -1.67383e-19 1.00693e-06)
(-0.0675876 -0.115052 -9.56582e-20 0.067586 -7.40485e-20 1.56437e-06)
(-0.0515031 -0.106058 -5.42088e-20 0.0515011 3.77973e-20 2.06141e-06)
(-0.0392153 -0.0969365 1.84067e-19 0.0392128 -6.73598e-20 2.50579e-06)
(-0.0295002 -0.0880647 5.11995e-20 0.0294973 -1.76862e-19 2.90107e-06)
(-0.0215913 -0.079626 -4.71424e-20 0.0215881 -1.16454e-19 3.24868e-06)
(-0.014976 -0.0716926 -2.42752e-19 0.0149725 -7.38409e-20 3.54731e-06)
(-0.00931964 -0.0642895 -4.58764e-19 0.00931585 1.58109e-20 3.79449e-06)
(-0.00438194 -0.0574133 -2.31687e-19 0.00437795 -3.99172e-20 3.98535e-06)
(-5.56673e-06 -0.0510512 -4.65344e-20 1.45256e-06 -3.3815e-20 4.11418e-06)
(0.00393165 -0.0451887 -7.06452e-20 -0.00393583 2.86318e-20 4.17283e-06)
(0.00750486 -0.0398114 -2.02327e-19 -0.00750901 1.00313e-19 4.15239e-06)
(0.0107792 -0.0349138 -4.1819e-19 -0.0107832 2.04602e-19 4.04116e-06)
(0.0137866 -0.0304913 -9.90481e-20 -0.0137904 7.34225e-22 3.82668e-06)
(0.0165615 -0.0265547 -5.14218e-20 -0.016565 3.40625e-20 3.49326e-06)
(0.0191096 -0.0231138 -2.08033e-20 -0.0191127 -8.61659e-20 3.02445e-06)
(0.0214456 -0.0201995 -1.08513e-19 -0.021448 -8.80401e-20 2.40008e-06)
(0.0235654 -0.017839 -1.37233e-19 -0.023567 -1.2233e-19 1.59934e-06)
(0.0254013 -0.0160899 3.3084e-20 -0.0254019 3.83824e-20 5.97288e-07)
(-0.111784 -0.136314 7.78608e-20 0.111784 -1.19874e-19 3.49647e-07)
(-0.0798935 -0.126615 3.38147e-20 0.0798925 -9.99063e-20 9.34542e-07)
(-0.0578884 -0.115963 1.75471e-20 0.057887 -5.1384e-20 1.45191e-06)
(-0.0420397 -0.105313 -1.24276e-20 0.0420378 -8.34903e-20 1.91323e-06)
(-0.0301854 -0.0951032 1.16704e-19 0.0301831 -1.95513e-19 2.32568e-06)
(-0.0210003 -0.0855007 1.54435e-19 0.0209976 -2.05096e-19 2.69256e-06)
(-0.0136601 -0.0765623 6.95018e-20 0.0136571 -4.70917e-20 3.0152e-06)
(-0.00761894 -0.0682795 1.20518e-19 0.00761565 -1.57958e-21 3.2924e-06)
(-0.00252339 -0.0606261 -2.09738e-19 0.00251987 -7.38555e-20 3.52184e-06)
(0.00187811 -0.0535637 -4.01377e-19 -0.00188181 -1.71797e-19 3.69901e-06)
(0.00574907 -0.0470576 -3.10966e-19 -0.00575289 -9.59581e-21 3.81861e-06)
(0.00921594 -0.0410764 -1.27029e-19 -0.00921982 1.90478e-19 3.87308e-06)
(0.0123559 -0.0355957 -4.16917e-20 -0.0123597 3.36991e-19 3.85413e-06)
(0.0152365 -0.0306011 -6.00262e-20 -0.0152403 1.48417e-19 3.75093e-06)
(0.0178909 -0.0260837 -3.25057e-19 -0.0178945 1.50334e-19 3.55187e-06)
(0.0203563 -0.0220481 -3.75484e-19 -0.0203596 1.0491e-19 3.24243e-06)
(0.0226398 -0.0185027 -3.68573e-19 -0.0226426 1.66802e-19 2.8073e-06)
(0.0247603 -0.0154739 -1.63157e-19 -0.0247625 2.62876e-19 2.22777e-06)
(0.0267165 -0.0129873 -2.066e-19 -0.026718 -5.91551e-20 1.48453e-06)
(0.028444 -0.0111059 -3.46683e-19 -0.0284445 2.41656e-19 5.54417e-07)
(-0.102626 -0.143325 3.45509e-20 0.102626 -5.30837e-20 3.21063e-07)
(-0.0705691 -0.129252 4.6316e-20 0.0705683 -2.38788e-20 8.58139e-07)
(-0.0488263 -0.115903 8.22675e-20 0.0488249 -7.67087e-20 1.33321e-06)
(-0.0334498 -0.103554 -1.2042e-20 0.033448 -1.61121e-19 1.75682e-06)
(-0.0221624 -0.0922553 -4.93194e-20 0.0221603 -1.97115e-19 2.13557e-06)
(-0.0135776 -0.0819468 6.51774e-22 0.0135752 -1.30644e-19 2.47248e-06)
(-0.0068375 -0.072547 5.87515e-20 0.00683473 -1.13743e-20 2.76878e-06)
(-0.00137848 -0.0639597 1.38781e-19 0.00137546 -4.76371e-20 3.02335e-06)
(0.00316257 -0.0561038 1.37369e-19 -0.0031658 -2.11569e-19 3.23407e-06)
(0.00704212 -0.0489032 -2.85275e-19 -0.00704551 -1.80391e-19 3.39679e-06)
(0.0104259 -0.0422995 -2.60013e-19 -0.0104294 2.68949e-20 3.50666e-06)
(0.0134418 -0.0362435 2.22973e-20 -0.0134454 1.2122e-19 3.55671e-06)
(0.0161673 -0.0307003 2.17437e-19 -0.0161708 8.23909e-20 3.53934e-06)
(0.0186709 -0.0256455 1.62038e-19 -0.0186743 -4.29955e-20 3.4446e-06)
(0.0209859 -0.0210657 3.61961e-19 -0.0209891 1.17825e-19 3.26183e-06)
(0.0231513 -0.0169593 1.46291e-19 -0.0231543 6.21384e-20 2.97768e-06)
(0.0251753 -0.0133326 7.56984e-20 -0.0251779 -6.64705e-21 2.57811e-06)
(0.0270798 -0.0102069 -4.40068e-20 -0.0270818 -1.14868e-19 2.04592e-06)
(0.028866 -0.00760581 3.80998e-20 -0.0288674 -9.44973e-20 1.36336e-06)
(0.0304734 -0.00559782 4.97717e-20 -0.0304739 -8.14784e-20 5.09172e-07)
(-0.0930309 -0.149722 4.15993e-21 0.0930306 -1.46551e-20 2.91096e-07)
(-0.0615612 -0.131148 -3.55169e-21 0.0615604 2.53045e-20 7.78042e-07)
(-0.0405151 -0.115056 1.6547e-19 0.0405139 -1.11202e-19 1.20878e-06)
(-0.0258599 -0.101004 -5.29103e-21 0.0258583 -1.56279e-19 1.59286e-06)
(-0.0152773 -0.0886385 -1.39254e-19 0.0152753 -1.42783e-19 1.93629e-06)
(-0.00736312 -0.0776578 -1.42482e-19 0.00736088 -3.54475e-20 2.24178e-06)
(-0.00125211 -0.0678368 5.79351e-20 0.0012496 -1.19739e-20 2.51046e-06)
(0.0036209 -0.0589878 5.50375e-20 -0.00362364 -8.21533e-20 2.74132e-06)
(0.00761853 -0.0509723 1.54995e-19 -0.00762146 -2.32154e-19 2.93241e-06)
(0.0109954 -0.0436752 -2.04802e-19 -0.0109985 -9.09487e-20 3.08e-06)
(0.0139154 -0.0370137 -2.03066e-19 -0.0139186 -1.60143e-19 3.17966e-06)
(0.0165046 -0.03092 -1.95497e-19 -0.0165078 -9.64378e-20 3.22508e-06)
(0.0188389 -0.0253485 1.3553e-19 -0.0188421 -5.65335e-20 3.20937e-06)
(0.020986 -0.0202648 6.16508e-20 -0.0209892 -2.22785e-19 3.1235e-06)
(0.0229788 -0.0156505 1.31536e-19 -0.0229818 -8.85824e-22 2.95781e-06)
(0.0248568 -0.0114974 4.489e-19 -0.0248595 -1.78366e-19 2.70018e-06)
(0.0266287 -0.00780982 1.85679e-19 -0.0266311 -2.06353e-19 2.33787e-06)
(0.0283186 -0.00460342 1.94539e-19 -0.0283204 -2.343e-19 1.8553e-06)
(0.0299294 -0.00189977 -2.20243e-19 -0.0299307 -2.51213e-19 1.23635e-06)
(0.0314051 0.000227635 1.18473e-19 -0.0314055 -3.8062e-20 4.61743e-07)
(-0.0830397 -0.155477 3.34683e-20 0.0830394 -3.7196e-21 2.59876e-07)
(-0.0529329 -0.132418 1.09851e-19 0.0529322 -5.1294e-20 6.94597e-07)
(-0.033029 -0.113618 7.91434e-20 0.033028 -9.84622e-20 1.07914e-06)
(-0.0193482 -0.0979056 6.72893e-20 0.0193468 -1.01954e-19 1.42205e-06)
(-0.00960868 -0.0845158 7.20394e-21 0.00960696 -1.47376e-19 1.72867e-06)
(-0.00243404 -0.0729066 -1.26715e-19 0.00243203 -8.49682e-20 2.00144e-06)
(0.00302157 -0.0627064 9.94699e-23 -0.00302381 -6.7044e-20 2.24136e-06)
(0.00730795 -0.0536356 -6.22689e-20 -0.0073104 -1.13705e-19 2.44751e-06)
(0.0107768 -0.0454979 -1.61131e-19 -0.0107794 -3.42794e-20 2.61817e-06)
(0.0136739 -0.0381393 1.27061e-20 -0.0136767 -2.4341e-20 2.74999e-06)
(0.016157 -0.0314523 -1.72422e-19 -0.0161598 -2.50907e-19 2.83901e-06)
(0.0183469 -0.0253509 -5.1688e-19 -0.0183498 -4.46494e-20 2.87962e-06)
(0.0203163 -0.0197786 -2.83182e-19 -0.0203192 -2.9178e-20 2.86564e-06)
(0.0221305 -0.0146909 -4.05989e-19 -0.0221333 -1.29196e-20 2.78901e-06)
(0.0238208 -0.0100647 -1.75439e-19 -0.0238234 1.13131e-19 2.6411e-06)
(0.025426 -0.00588484 -1.66653e-19 -0.0254284 -1.38343e-19 2.41109e-06)
(0.026955 -0.00215382 -1.97585e-19 -0.0269571 1.19589e-19 2.08761e-06)
(0.0284327 0.00111855 1.58901e-20 -0.0284344 2.85263e-20 1.65672e-06)
(0.0298636 0.00391299 -1.28884e-19 -0.0298647 -3.66514e-20 1.10404e-06)
(0.0311963 0.00615119 -1.2474e-19 -0.0311967 6.0154e-20 4.12339e-07)
(-0.0726953 -0.160566 8.73989e-20 0.072695 -3.5534e-20 2.27536e-07)
(-0.0447212 -0.133185 1.17238e-19 0.0447206 -6.21358e-20 6.08158e-07)
(-0.0264 -0.111792 9.72805e-20 0.0263991 -8.40019e-20 9.44855e-07)
(-0.0139425 -0.0945046 5.59158e-21 0.0139413 -7.23527e-20 1.24512e-06)
(-0.00518095 -0.0801575 6.20349e-20 0.00517944 -1.41638e-19 1.51362e-06)
(0.00118853 -0.0679729 -6.80353e-20 -0.00119028 -1.03043e-19 1.75249e-06)
(0.00596523 -0.0574372 -1.39303e-20 -0.00596719 -5.21111e-20 1.96262e-06)
(0.0096669 -0.0481814 -1.9209e-20 -0.00966904 -1.37543e-20 2.14318e-06)
(0.0126238 -0.0399533 -3.3927e-20 -0.0126261 -3.39933e-20 2.29268e-06)
(0.0150661 -0.0325609 -3.28986e-20 -0.0150685 -1.32457e-19 2.40816e-06)
(0.0171409 -0.0258733 -7.58979e-20 -0.0171434 -1.19496e-19 2.48618e-06)
(0.0189608 -0.0197865 -2.06429e-19 -0.0189634 3.94234e-20 2.5218e-06)
(0.0205934 -0.0142337 -1.07005e-19 -0.0205959 -6.20822e-20 2.50961e-06)
(0.0220995 -0.00916049 -3.65309e-19 -0.0221019 -2.78173e-20 2.44255e-06)
(0.0235082 -0.00453939 -1.10715e-19 -0.0235105 1.03089e-21 2.31306e-06)
(0.0248564 -0.000348526 -2.54125e-19 -0.0248585 -4.59348e-21 2.11167e-06)
(0.0261528 0.00341161 -1.68085e-19 -0.0261546 1.49289e-19 1.82839e-06)
(0.0274218 0.00673691 -3.29933e-20 -0.0274233 -4.11981e-20 1.45104e-06)
(0.0286688 0.0096104 -3.39087e-19 -0.0286698 9.30423e-20 9.66994e-07)
(0.0298479 0.0119493 1.64564e-19 -0.0298483 1.56491e-20 3.61163e-07)
(-0.0620418 -0.164969 -1.01824e-21 0.0620416 -3.89511e-21 1.94216e-07)
(-0.0369365 -0.13357 8.80695e-21 0.036936 -1.4527e-20 5.19099e-07)
(-0.0206181 -0.109779 2.28392e-20 0.0206173 -1.6651e-20 8.065e-07)
(-0.00962036 -0.0910457 8.83127e-20 0.00961929 -7.17792e-20 1.06282e-06)
(-0.00196376 -0.0758299 1.89741e-20 0.00196247 -1.33805e-19 1.29205e-06)
(0.00353967 -0.0631322 -9.16001e-20 -0.00354116 -8.46866e-20 1.49601e-06)
(0.00761689 -0.0523063 -9.32328e-20 -0.00761856 -1.79819e-20 1.67544e-06)
(0.0107375 -0.0428992 2.04703e-20 -0.0107393 -1.70736e-21 1.82964e-06)
(0.0132004 -0.0346066 1.15904e-19 -0.0132023 -1.07323e-19 1.95734e-06)
(0.0152133 -0.0272012 -3.1653e-20 -0.0152153 -1.62658e-19 2.056e-06)
(0.0169087 -0.0205302 -9.9753e-20 -0.0169108 -1.14829e-19 2.12267e-06)
(0.018388 -0.0144727 -7.32002e-20 -0.0183901 -6.92671e-20 2.15315e-06)
(0.0197117 -0.00895253 -2.98078e-20 -0.0197138 -1.23055e-19 2.1428e-06)
(0.0209346 -0.00390613 -1.74084e-19 -0.0209366 -1.56087e-19 2.08561e-06)
(0.0220828 0.00069831 -3.0019e-19 -0.0220848 -5.27314e-20 1.9751e-06)
(0.02319 0.00488887 -2.31617e-19 -0.0231918 3.98335e-20 1.80319e-06)
(0.0242644 0.00866692 -2.1089e-19 -0.0242659 1.73329e-19 1.56134e-06)
(0.0253287 0.0120338 1.16088e-19 -0.02533 2.34093e-19 1.23914e-06)
(0.0263887 0.0149747 1.05838e-19 -0.0263895 5.31409e-20 8.25807e-07)
(0.0274045 0.0174029 3.7261e-20 -0.0274048 -9.71595e-20 3.08444e-07)
(-0.0511246 -0.168666 -1.90072e-20 0.0511245 1.72486e-21 1.60056e-07)
(-0.0295638 -0.133687 -3.35559e-20 0.0295633 3.51638e-22 4.27797e-07)
(-0.0156327 -0.107768 -2.74422e-20 0.015632 -1.13279e-20 6.64662e-07)
(-0.0063106 -0.08776 -2.48067e-20 0.00630973 -5.1779e-20 8.75934e-07)
(0.000125742 -0.0717848 -8.03777e-20 -0.000126807 -6.24954e-20 1.0649e-06)
(0.00470859 -0.058645 -1.1865e-19 -0.00470982 -1.73539e-20 1.23307e-06)
(0.00806875 -0.0475752 -2.83301e-20 -0.00807013 -2.83103e-20 1.38104e-06)
(0.0106128 -0.0380475 -5.63184e-20 -0.0106143 -5.9133e-20 1.50823e-06)
(0.0125993 -0.0297109 -1.99378e-20 -0.0126009 -1.08245e-19 1.61357e-06)
(0.0142073 -0.0223066 -6.56203e-20 -0.014209 -9.53892e-20 1.69499e-06)
(0.015551 -0.015662 -2.01637e-20 -0.0155527 -1.15997e-19 1.75004e-06)
(0.0167175 -0.00964162 -1.26322e-19 -0.0167193 -1.24109e-19 1.77524e-06)
(0.0177588 -0.00416046 -1.17615e-19 -0.0177606 -1.19326e-19 1.76679e-06)
(0.0187222 0.000853023 -2.32515e-19 -0.0187239 -8.17147e-20 1.71971e-06)
(0.0196301 0.00543444 -1.95416e-19 -0.0196317 2.5551e-20 1.62866e-06)
(0.0205117 0.00961749 -2.28358e-19 -0.0205132 4.23489e-20 1.48696e-06)
(0.0213742 0.0134052 -2.25372e-19 -0.0213755 1.58155e-19 1.28758e-06)
(0.022238 0.0168038 9.56835e-20 -0.0222391 1.20635e-19 1.02191e-06)
(0.0231084 0.0198006 7.40301e-20 -0.0231091 -1.5262e-20 6.8107e-07)
(0.0239522 0.0223054 5.6036e-21 -0.0239525 2.00917e-20 2.54396e-07)
(-0.0399904 -0.171642 -2.69313e-20 0.0399903 2.83257e-21 1.25205e-07)
(-0.0225641 -0.133642 -5.19713e-20 0.0225638 2.7652e-21 3.34647e-07)
(-0.011356 -0.105932 -5.56446e-20 0.0113555 -7.91696e-21 5.19953e-07)
(-0.00389731 -0.0848565 -6.67665e-20 0.00389662 -2.63621e-20 6.85266e-07)
(0.00121891 -0.0682496 -7.859e-20 -0.00121975 -1.58631e-20 8.33163e-07)
(0.00483441 -0.0547462 -1.54454e-20 -0.00483537 -1.81397e-20 9.64814e-07)
(0.00746302 -0.04348 -6.40571e-21 -0.0074641 -4.23917e-20 1.08068e-06)
(0.00943542 -0.0338596 2.62992e-20 -0.0094366 -7.32201e-20 1.18031e-06)
(0.0109616 -0.0254945 -1.41559e-20 -0.0109629 -1.19553e-19 1.26286e-06)
(0.0121868 -0.0180991 -6.52078e-20 -0.0121881 -1.13388e-19 1.32668e-06)
(0.0132035 -0.0114844 -5.38888e-20 -0.0132049 -1.31147e-19 1.36987e-06)
(0.0140823 -0.00550216 -1.52581e-19 -0.0140837 -1.06162e-19 1.3897e-06)
(0.0148651 -6.03231e-05 -1.1487e-19 -0.0148665 -1.03394e-19 1.38319e-06)
(0.0155902 0.00491956 -2.49622e-19 -0.0155915 -1.02252e-19 1.34642e-06)