/*--------------------------------*- C++ -*----------------------------------*\
| =========                 |                                                 |
| \\      /  F ield         | foam-extend: Open Source CFD                    |
|  \\    /   O peration     | Version:  3.0                                   |
|   \\  /    A nd           | Web:         http://www.extend-project.de       |
|    \\/     M anipulation  |                                                 |
\*---------------------------------------------------------------------------*/
FoamFile
{
    version     2.0;
    format      ascii;
    class       volVectorField;
    location    "29";
    object      u;
}
// * * * * * * * * * * * * * * * * * * * * * * * * * * * * * * * * * * * * * //

dimensions      [0 0 0 0 0 0 0];

internalField   nonuniform List<vector> 
1920
(
(0.148257 -0.0596674 5.65167e-18)
(0.341336 -0.0472058 1.89134e-18)
(0.490926 -0.0380422 1.83331e-18)
(0.596961 -0.0309616 -4.77839e-19)
(0.684675 -0.0255637 4.16478e-18)
(0.747318 -0.0212425 1.07804e-18)
(0.802507 -0.0178281 3.48141e-18)
(0.841295 -0.0150166 2.31854e-18)
(0.877853 -0.0127105 6.60188e-19)
(0.902403 -0.0107735 -7.00105e-19)
(0.9275 -0.00911385 -2.0126e-18)
(0.942907 -0.00770478 7.4266e-19)
(0.9605 -0.00642995 2.00602e-18)
(0.969603 -0.00534712 -7.94383e-19)
(0.981984 -0.00429856 -6.73684e-19)
(0.986416 -0.00341737 9.27259e-19)
(0.994959 -0.00249255 -7.46835e-18)
(0.995657 -0.00172932 -2.00523e-18)
(1.00119 -0.000873613 -3.50903e-18)
(0.998722 -5.44408e-05 9.56231e-19)
(0.163834 -0.177981 9.68496e-18)
(0.35366 -0.14081 1.22121e-18)
(0.500857 -0.113476 2.68906e-18)
(0.605044 -0.0923551 -5.20412e-18)
(0.691348 -0.0762536 -2.71385e-18)
(0.752863 -0.063364 -7.75448e-20)
(0.807162 -0.0531792 -2.27792e-18)
(0.845215 -0.044793 7.95325e-18)
(0.881171 -0.0379141 5.84551e-18)
(0.905215 -0.0321362 6.24988e-18)
(0.92988 -0.0271857 3.56503e-18)
(0.944918 -0.0229826 5.39598e-18)
(0.962178 -0.0191799 1.68149e-18)
(0.970999 -0.01595 1.49179e-18)
(0.983107 -0.0128223 2.50796e-18)
(0.987308 -0.0101938 1.22254e-17)
(0.99561 -0.00743517 1.39925e-17)
(0.996108 -0.00515859 1.21779e-17)
(1.00142 -0.00260611 5.30036e-18)
(0.998736 -0.000162694 4.05389e-18)
(0.19472 -0.29325 4.76124e-18)
(0.378095 -0.232004 6.71657e-19)
(0.520549 -0.186967 4.67964e-18)
(0.621071 -0.152168 4.83135e-18)
(0.704581 -0.125639 -1.78974e-18)
(0.763859 -0.104401 1.63891e-18)
(0.81639 -0.0876204 6.16581e-18)
(0.852988 -0.0738029 -8.1514e-18)
(0.887751 -0.062469 -8.48366e-18)
(0.910792 -0.0529491 -5.41494e-18)
(0.934597 -0.0447924 -5.06559e-18)
(0.948907 -0.0378672 -1.65795e-18)
(0.965507 -0.0316018 4.56406e-19)
(0.973767 -0.02628 -2.47089e-18)
(0.985332 -0.0211266 -1.1006e-17)
(0.989077 -0.0167958 -9.94067e-18)
(0.9969 -0.0122506 -1.83615e-17)
(0.997003 -0.00849957 -8.14468e-18)
(1.00187 -0.00429401 -1.53535e-17)
(0.998764 -0.000268151 1.15439e-17)
(0.240387 -0.4035 7.47169e-18)
(0.414225 -0.319229 3.67005e-18)
(0.549665 -0.25726 4.51776e-18)
(0.644767 -0.209378 4.45347e-18)
(0.724146 -0.172874 2.36349e-18)
(0.780117 -0.143652 -1.01034e-17)
(0.830035 -0.120562 -6.33509e-18)
(0.864481 -0.10155 -8.445e-18)
(0.897479 -0.085955 -1.73913e-17)
(0.919038 -0.072856 -2.02753e-18)
(0.941573 -0.0616327 -1.13498e-18)
(0.954804 -0.0521039 -9.56231e-18)
(0.970428 -0.0434829 9.87741e-18)
(0.97786 -0.0361603 9.05937e-19)
(0.988622 -0.0290694 3.93471e-18)
(0.991693 -0.0231104 -1.15113e-17)
(0.998808 -0.0168564 -7.69977e-18)
(0.998327 -0.0116951 6.28187e-18)
(1.00254 -0.00590843 1.40223e-17)
(0.998806 -0.000369035 2.98425e-18)
(0.300054 -0.506847 1.28472e-17)
(0.461431 -0.400992 7.42892e-18)
(0.587707 -0.323151 7.25993e-18)
(0.675729 -0.263005 1.149e-17)
(0.74971 -0.217152 1.63589e-17)
(0.80136 -0.180445 1.04952e-17)
(0.847863 -0.151442 1.2947e-18)
(0.879498 -0.12756 9.5045e-18)
(0.910189 -0.10797 5.00093e-18)
(0.929812 -0.0915163 6.82527e-18)
(0.950687 -0.0774184 1.75737e-18)
(0.962509 -0.065449 -1.08682e-17)
(0.976858 -0.05462 4.90214e-18)
(0.983207 -0.0454219 1.40742e-17)
(0.99292 -0.0365149 -1.11725e-17)
(0.99511 -0.0290296 3.14387e-17)
(1.0013 -0.0211737 -1.48821e-17)
(1.00006 -0.0146906 1.43073e-17)
(1.00341 -0.00742177 -1.27343e-17)
(0.998861 -0.000463583 -1.77847e-18)
(0.372701 -0.601522 1.81628e-17)
(0.518905 -0.475893 1.48909e-17)
(0.634025 -0.383513 1.21768e-17)
(0.713426 -0.312132 -1.87785e-17)
(0.780834 -0.257714 2.96284e-18)
(0.827223 -0.214151 -4.01168e-19)
(0.869569 -0.17973 2.64301e-17)
(0.897781 -0.151387 1.37706e-18)
(0.925665 -0.128138 6.47804e-19)
(0.942928 -0.108611 -2.06672e-17)
(0.961783 -0.0918795 8.68665e-18)
(0.971889 -0.0776743 -5.1732e-18)
(0.984687 -0.0648225 2.76101e-18)
(0.989717 -0.0539064 -1.71521e-17)
(0.998154 -0.0433355 5.05548e-21)
(0.999271 -0.0344522 5.81817e-18)
(1.00434 -0.0251288 -2.78158e-18)
(1.00216 -0.0174347 3.33673e-18)
(1.00447 -0.00880811 5.03541e-19)
(0.998927 -0.000550226 -2.51027e-17)
(0.457083 -0.685904 -6.17814e-18)
(0.585664 -0.542652 -1.11618e-17)
(0.687824 -0.437312 -9.39158e-18)
(0.757212 -0.355918 1.97805e-18)
(0.816987 -0.293866 2.81665e-18)
(0.857264 -0.244192 -1.93621e-18)
(0.894782 -0.204942 -5.54649e-18)
(0.919018 -0.172623 -1.03338e-17)
(0.94364 -0.146114 1.15646e-17)
(0.958165 -0.123847 -1.57944e-17)
(0.974672 -0.104769 -1.30638e-18)
(0.982786 -0.0885706 -2.43995e-17)
(0.99378 -0.0739159 -9.83061e-19)
(0.997279 -0.0614684 -4.08904e-17)
(1.00423 -0.0494147 -1.67548e-17)
(1.0041 -0.0392851 -3.05115e-19)
(1.00786 -0.028654 -8.67014e-18)
(1.00461 -0.0198804 -2.30702e-17)
(1.00571 -0.0100438 1.74134e-17)
(0.999004 -0.000627423 -2.50683e-17)
(0.551758 -0.75855 -8.7539e-19)
(0.660565 -0.600126 -3.42215e-17)
(0.748186 -0.48363 -5.56218e-19)
(0.806339 -0.393615 5.03889e-18)
(0.857549 -0.324991 -1.82747e-17)
(0.89097 -0.270056 -4.62541e-18)
(0.92307 -0.226648 2.18496e-18)
(0.942845 -0.190906 2.31773e-18)
(0.963808 -0.161589 3.10685e-17)
(0.975259 -0.136964 -4.33676e-18)
(0.989133 -0.115865 1.77482e-17)
(0.995011 -0.0979514 -1.38664e-18)
(1.00398 -0.0817446 3.96321e-17)
(1.00576 -0.0679788 -1.59658e-17)
(1.01105 -0.0546484 2.15191e-17)
(1.00953 -0.043446 3.26721e-17)
(1.01182 -0.0316888 -1.9899e-17)
(1.00735 -0.0219861 5.7633e-17)
(1.0071 -0.0111075 1.00303e-18)
(0.999091 -0.000693921 5.17433e-17)
(0.655105 -0.818218 3.79127e-18)
(0.742328 -0.647332 -5.79841e-18)
(0.814077 -0.521672 -5.56615e-18)
(0.859966 -0.424576 3.93409e-18)
(0.901826 -0.350554 1.18688e-17)
(0.927763 -0.291298 -1.16394e-17)
(0.953949 -0.244476 1.12566e-17)
(0.968854 -0.205923 4.69123e-18)
(0.985823 -0.1743 8.37772e-18)
(0.993919 -0.147737 2.85535e-17)
(1.00492 -0.124979 -1.52574e-17)
(1.00836 -0.105656 -3.32579e-17)
(1.01512 -0.0881746 3.20641e-17)
(1.01503 -0.0733259 -1.92774e-17)
(1.0185 -0.0589471 -2.43139e-18)
(1.01545 -0.0468634 -1.59611e-17)
(1.01613 -0.0341814 2.27991e-17)
(1.01035 -0.0237155 3.23869e-17)
(1.00861 -0.0119813 -2.65965e-17)
(0.999186 -0.000748505 2.75252e-17)
(0.765355 -0.863885 1.30713e-17)
(0.829553 -0.683462 -1.44326e-18)
(0.88437 -0.550788 4.73196e-19)
(0.917175 -0.448273 6.14596e-18)
(0.949062 -0.37012 5.67482e-18)
(0.967014 -0.307556 1.15228e-17)
(0.986891 -0.258121 5.75294e-18)
(0.996601 -0.217416 1.6683e-17)
(1.00931 -0.184028 -6.51667e-18)
(1.01383 -0.155983 -8.96052e-18)
(1.02176 -0.131954 -5.51168e-18)
(1.02259 -0.111553 -2.15423e-17)
(1.027 -0.0930959 -1.11774e-17)
(1.02491 -0.0774185 5.77006e-18)
(1.02644 -0.0622371 -2.78511e-17)
(1.02176 -0.0494791 1.86102e-17)
(1.02074 -0.0360892 -5.37694e-17)
(1.01354 -0.0250392 5.4152e-19)
(1.01022 -0.01265 -2.63047e-17)
(0.999286 -0.000790327 2.28271e-17)
(0.880624 -0.894771 -1.42776e-17)
(0.920747 -0.707897 -6.19225e-19)
(0.957862 -0.57048 5.04788e-18)
(0.976989 -0.4643 -3.4784e-18)
(0.998447 -0.383353 2.34444e-17)
(1.00805 -0.318552 -2.63129e-17)
(1.02133 -0.26735 -9.492e-18)
(1.02561 -0.225189 -8.41252e-18)
(1.03386 -0.190607 -3.44234e-18)
(1.03464 -0.16156 -3.14724e-17)
(1.03937 -0.136672 -6.80689e-19)
(1.03748 -0.115542 2.339e-17)
(1.03942 -0.0964243 -4.99262e-18)
(1.03524 -0.0801864 -2.39492e-17)
(1.03475 -0.0644622 -6.87379e-18)
(1.02836 -0.051248 7.39455e-18)
(1.02555 -0.0373795 2.12405e-17)
(1.01688 -0.0259344 3.88633e-18)
(1.01191 -0.0131023 1.37391e-17)
(0.999392 -0.000818578 -7.68947e-17)
(0.998938 -0.910348 -1.61675e-17)
(1.01435 -0.72022 -1.43526e-17)
(1.0333 -0.580411 -4.64465e-19)
(1.03838 -0.472383 4.85479e-18)
(1.04914 -0.390026 -1.26894e-17)
(1.05017 -0.324098 -7.65771e-18)
(1.05668 -0.272004 5.58087e-18)
(1.05539 -0.22911 -4.92923e-18)
(1.05907 -0.193925 1.96541e-17)
(1.056 -0.164372 1.30034e-17)
(1.05744 -0.139051 1.07394e-18)
(1.05276 -0.117553 4.64639e-18)
(1.05217 -0.0981029 2.83903e-18)
(1.04584 -0.0815823 4.52171e-17)
(1.04327 -0.0655844 -2.6068e-17)
(1.03514 -0.0521402 -1.26976e-18)
(1.0305 -0.0380302 -2.67975e-18)
(1.02031 -0.0263859 -3.9653e-18)
(1.01364 -0.0133303 -1.87752e-17)
(0.9995 -0.000832876 3.12374e-17)
(1.11827 -0.910348 -7.18347e-18)
(1.10876 -0.72022 -1.50866e-17)
(1.10938 -0.580411 -3.07274e-18)
(1.10031 -0.472383 1.00322e-17)
(1.10026 -0.390026 -2.35756e-17)
(1.09266 -0.324098 -5.91872e-18)
(1.09234 -0.272004 -4.87595e-18)
(1.08542 -0.22911 6.62052e-18)
(1.08449 -0.193925 1.87001e-17)
(1.07755 -0.164372 1.85501e-17)
(1.07567 -0.139051 1.76765e-18)
(1.06816 -0.117553 2.16243e-18)
(1.06503 -0.0981029 -8.50122e-19)
(1.05653 -0.0815823 7.13142e-18)
(1.05187 -0.0655844 1.95106e-17)
(1.04197 -0.0521402 8.3216e-19)
(1.03548 -0.0380303 2.39136e-18)
(1.02377 -0.0263859 1.33912e-18)
(1.01539 -0.0133304 1.73497e-17)
(0.999609 -0.000832865 5.39828e-19)
(1.23659 -0.894771 -1.30275e-17)
(1.20237 -0.707897 9.85778e-18)
(1.18481 -0.57048 -8.15362e-18)
(1.1617 -0.4643 -5.97973e-18)
(1.15095 -0.383353 1.32551e-18)
(1.13478 -0.318552 -5.35724e-18)
(1.12769 -0.26735 1.65951e-18)
(1.1152 -0.225189 -2.13618e-17)
(1.10969 -0.190607 -2.71649e-17)
(1.09891 -0.16156 5.04975e-18)
(1.09374 -0.136672 1.26479e-17)
(1.08344 -0.115542 1.30827e-17)
(1.07778 -0.0964243 -3.9826e-18)
(1.06714 -0.0801864 -1.87345e-17)
(1.06039 -0.0644622 3.0386e-18)
(1.04875 -0.0512481 3.44561e-18)
(1.04042 -0.0373795 2.40356e-17)
(1.0272 -0.0259344 1.02092e-18)
(1.01712 -0.0131023 -9.9878e-18)
(0.999718 -0.000818665 3.31937e-17)
(1.35185 -0.863885 5.54379e-18)
(1.29356 -0.683462 2.97913e-18)
(1.2583 -0.550788 -9.89622e-18)
(1.22151 -0.448273 -1.63273e-18)
(1.20034 -0.37012 5.83434e-18)
(1.17582 -0.307556 1.62518e-17)
(1.16213 -0.258122 1.48419e-18)
(1.14421 -0.217416 6.95948e-18)
(1.13425 -0.184028 -2.18184e-17)
(1.11972 -0.155983 7.96905e-18)
(1.11134 -0.131954 -8.31335e-19)
(1.09833 -0.111553 1.8443e-19)
(1.0902 -0.0930959 -2.56887e-17)
(1.07747 -0.0774185 6.98809e-19)
(1.0687 -0.0622371 -2.39884e-17)
(1.05535 -0.0494791 -2.71084e-17)
(1.04524 -0.0360893 -1.8387e-17)
(1.03054 -0.0250392 -2.30289e-17)
(1.01881 -0.01265 1.11157e-17)
(0.999823 -0.000790391 -4.70793e-17)
(1.46211 -0.818218 2.26535e-18)
(1.38079 -0.647332 7.99631e-18)
(1.3286 -0.521672 -1.29093e-17)
(1.27872 -0.424576 -1.99645e-18)
(1.24757 -0.350554 3.35629e-18)
(1.21507 -0.291298 1.43238e-17)
(1.19507 -0.244476 -5.42604e-18)
(1.17195 -0.205923 3.08352e-19)
(1.15773 -0.174299 -7.18693e-18)
(1.13963 -0.147737 5.99444e-18)
(1.12818 -0.124979 -7.23484e-18)
(1.11256 -0.105656 2.34778e-17)
(1.10209 -0.0881746 -4.47419e-18)
(1.08735 -0.073326 2.86105e-18)
(1.07664 -0.0589471 2.07122e-17)
(1.06167 -0.0468635 -1.93864e-17)
(1.04985 -0.0341815 1.55725e-17)
(1.03374 -0.0237156 -1.87163e-17)
(1.02043 -0.0119813 2.06646e-17)
(0.999924 -0.000748659 8.16519e-18)
(1.56545 -0.75855 -1.96041e-18)
(1.46255 -0.600126 -1.11479e-17)
(1.39449 -0.48363 2.8987e-18)
(1.33235 -0.393615 -4.3304e-18)
(1.29185 -0.324991 -1.23463e-17)
(1.25186 -0.270056 3.51003e-18)
(1.22595 -0.226648 -9.64801e-19)
(1.19796 -0.190906 3.10342e-18)
(1.17975 -0.161589 2.07852e-17)
(1.15829 -0.136964 -1.06127e-17)
(1.14397 -0.115865 -7.37399e-18)
(1.12591 -0.0979514 2.53186e-17)
(1.11322 -0.0817446 2.64743e-18)
(1.09661 -0.0679788 2.78615e-17)
(1.08408 -0.0546485 -1.84524e-18)
(1.06759 -0.043446 1.35223e-17)
(1.05416 -0.0316889 1.73218e-17)
(1.03673 -0.0219861 -6.51265e-18)
(1.02194 -0.0111076 3.45148e-18)
(1.00002 -0.000694045 -3.77607e-18)
(1.66013 -0.685904 -5.05702e-18)
(1.53745 -0.542652 -2.44728e-18)
(1.45485 -0.437312 -3.48748e-18)
(1.38148 -0.355918 3.63152e-18)
(1.33241 -0.293866 -5.48771e-18)
(1.28557 -0.244192 1.5533e-18)
(1.25424 -0.204942 8.16353e-20)
(1.22179 -0.172623 -1.03597e-18)
(1.19992 -0.146114 -1.01907e-17)
(1.17539 -0.123847 1.13725e-18)
(1.15843 -0.104769 -3.01239e-18)
(1.13813 -0.0885706 -4.14616e-18)
(1.12343 -0.0739159 -1.7077e-17)
(1.10509 -0.0614685 2.68673e-18)
(1.0909 -0.0494148 -8.81572e-18)
(1.07301 -0.0392853 -2.35255e-18)
(1.05812 -0.028654 5.638e-19)
(1.03948 -0.0198806 -1.45128e-17)
(1.02333 -0.0100438 2.59238e-17)
(1.00011 -0.000627627 -2.24172e-17)
(1.74451 -0.601522 7.36491e-18)
(1.60421 -0.475893 6.63103e-18)
(1.50865 -0.383513 4.34063e-18)
(1.42526 -0.312132 -7.3765e-18)
(1.36857 -0.257714 -8.72696e-19)
(1.31561 -0.214151 4.09408e-18)
(1.27945 -0.17973 6.12844e-18)
(1.24303 -0.151387 -1.84021e-19)
(1.21789 -0.128138 -9.86907e-18)
(1.19062 -0.108611 6.75206e-19)
(1.17132 -0.0918796 2.33521e-18)
(1.14903 -0.0776743 1.26785e-18)
(1.13252 -0.0648226 -2.80411e-18)
(1.11265 -0.0539064 -1.28658e-18)
(1.09698 -0.0433357 1.24414e-17)
(1.07784 -0.0344522 1.81291e-18)
(1.06164 -0.0251289 1.14645e-17)
(1.04192 -0.0174348 -4.96025e-18)
(1.02456 -0.00880824 -1.58786e-17)
(1.00018 -0.000550391 3.90073e-18)
(1.81716 -0.506847 3.98487e-18)
(1.66168 -0.400992 3.80002e-18)
(1.55497 -0.323151 2.63955e-18)
(1.46296 -0.263005 2.64835e-18)
(1.39969 -0.217152 4.7673e-18)
(1.34147 -0.180445 4.52594e-18)
(1.30116 -0.151442 -2.29719e-18)
(1.26131 -0.12756 3.53025e-18)
(1.23337 -0.10797 2.64616e-18)
(1.20374 -0.0915164 3.74094e-18)
(1.18242 -0.0774184 -4.81556e-18)
(1.15841 -0.0654491 3.56128e-18)
(1.14035 -0.05462 -2.1418e-19)
(1.11916 -0.045422 5.13076e-18)
(1.10222 -0.036515 -2.36481e-18)
(1.082 -0.0290298 1.24792e-19)
(1.06468 -0.0211738 6.94558e-18)
(1.04403 -0.0146907 -4.46667e-18)
(1.02563 -0.00742187 3.89418e-18)
(1.00025 -0.000463813 1.17905e-18)
(1.87682 -0.4035 2.61447e-18)
(1.70889 -0.319229 2.41012e-18)
(1.59301 -0.25726 1.66049e-18)
(1.49392 -0.209378 1.46878e-18)
(1.42525 -0.172874 1.49745e-18)
(1.36271 -0.143652 -3.13338e-18)
(1.31899 -0.120562 -1.24023e-18)
(1.27633 -0.10155 -3.43193e-18)
(1.24608 -0.085955 -1.14351e-18)
(1.21451 -0.072856 1.12357e-18)
(1.19153 -0.0616328 -6.76817e-19)
(1.16612 -0.0521039 3.79348e-18)
(1.14678 -0.043483 -1.01971e-18)
(1.12451 -0.0361604 3.33968e-18)
(1.10652 -0.0290696 1.1029e-17)
(1.08542 -0.0231105 -2.48041e-18)
(1.06717 -0.0168565 1.26169e-18)
(1.04576 -0.0116952 -8.07565e-19)
(1.0265 -0.00590859 -1.43317e-19)
(1.0003 -0.000369217 -2.69247e-18)
(1.92249 -0.293249 1.23856e-18)
(1.74502 -0.232004 1.53495e-18)
(1.62213 -0.186967 9.68852e-19)
(1.51762 -0.152168 2.18873e-18)
(1.44482 -0.125639 1.31108e-18)
(1.37897 -0.104401 -1.62029e-18)
(1.33263 -0.0876204 1.82554e-19)
(1.28782 -0.0738029 -2.341e-18)
(1.25581 -0.062469 -1.55751e-18)
(1.22276 -0.0529492 -6.03775e-19)
(1.19851 -0.0447924 3.25863e-19)
(1.17201 -0.0378673 -1.09183e-19)
(1.1517 -0.0316018 -3.96902e-20)
(1.1286 -0.0262801 1.24066e-18)
(1.10981 -0.0211267 1.20246e-18)
(1.08804 -0.016796 -2.40948e-18)
(1.06908 -0.0122507 -2.87788e-18)
(1.04708 -0.00849973 -2.1779e-18)
(1.02717 -0.00429412 2.16595e-18)
(1.00035 -0.000268379 -2.96258e-18)
(1.95338 -0.177981 1.23412e-18)
(1.76945 -0.140809 9.9825e-19)
(1.64182 -0.113476 5.7643e-19)
(1.53364 -0.092355 2.82484e-19)
(1.45805 -0.0762536 2.5117e-19)
(1.38997 -0.063364 -7.88517e-19)
(1.34186 -0.0531793 -1.02015e-19)
(1.29559 -0.044793 -6.08992e-19)
(1.26239 -0.0379142 4.77105e-20)
(1.22834 -0.0321363 1.55719e-18)
(1.20322 -0.0271858 3.57818e-19)
(1.176 -0.0229827 1.04372e-18)
(1.15503 -0.0191801 6.09917e-19)
(1.13137 -0.0159501 1.23318e-18)
(1.11203 -0.0128224 1.50565e-18)
(1.0898 -0.0101939 1.19412e-18)
(1.07037 -0.00743532 1.34633e-18)
(1.04798 -0.00515871 1.66348e-18)
(1.02762 -0.00260627 1.01573e-18)
(1.00037 -0.000162866 6.43839e-19)
(1.96895 -0.0596673 4.48163e-19)
(1.78178 -0.0472058 5.51508e-19)
(1.65175 -0.0380421 2.54466e-19)
(1.54173 -0.0309616 2.40963e-19)
(1.46473 -0.0255636 2.47116e-19)
(1.39551 -0.0212425 -3.02058e-19)
(1.34652 -0.0178281 1.12558e-19)
(1.29951 -0.0150167 -2.99118e-19)
(1.2657 -0.0127105 2.50296e-19)
(1.23115 -0.0107736 9.55114e-19)
(1.2056 -0.00911392 8.32009e-19)
(1.17801 -0.0077049 9.00152e-19)
(1.15671 -0.00643004 6.00989e-19)
(1.13277 -0.00534727 1.17341e-18)
(1.11315 -0.00429867 1.29628e-18)
(1.0907 -0.00341753 1.03911e-18)
(1.07102 -0.00249266 1.43366e-18)
(1.04843 -0.00172949 1.60974e-18)
(1.02785 -0.000873729 8.08531e-19)
(1.00039 -5.46439e-05 1.13782e-18)
(1.96895 0.0596673 -4.30535e-19)
(1.78178 0.0472058 1.64654e-19)
(1.65175 0.0380421 -7.73236e-20)
(1.54173 0.0309616 3.26807e-19)
(1.46473 0.0255636 1.91738e-19)
(1.39551 0.0212425 1.86284e-20)
(1.34652 0.017828 1.47341e-19)
(1.29951 0.0150166 -1.47117e-19)
(1.2657 0.0127105 3.27452e-19)
(1.23115 0.0107735 6.4237e-19)
(1.2056 0.00911382 8.63746e-19)
(1.17801 0.00770478 7.46848e-19)
(1.15671 0.00642992 6.10971e-19)
(1.13277 0.00534714 1.09842e-18)
(1.11315 0.00429855 1.23706e-18)
(1.0907 0.00341741 6.35233e-19)
(1.07102 0.00249256 1.06319e-18)
(1.04843 0.0017294 7.4164e-19)
(1.02785 0.000873671 6.80237e-19)
(1.00039 5.45977e-05 8.17934e-19)
(1.95338 0.177981 -1.45476e-18)
(1.76945 0.140809 -1.49179e-19)
(1.64182 0.113476 -5.24842e-19)
(1.53364 0.092355 4.04583e-19)
(1.45805 0.0762536 3.02962e-19)
(1.38997 0.0633639 1.31463e-19)
(1.34186 0.0531792 2.14479e-19)
(1.29559 0.0447929 -9.64173e-21)
(1.26239 0.0379141 6.19527e-19)
(1.22834 0.0321362 4.97834e-19)
(1.20322 0.0271857 8.69768e-19)
(1.176 0.0229826 7.35231e-19)
(1.15503 0.0191799 8.05049e-19)
(1.13137 0.01595 1.06996e-18)
(1.11203 0.0128223 1.57191e-18)
(1.0898 0.0101938 5.4382e-19)
(1.07037 0.00743522 7.25929e-19)
(1.04798 0.00515861 4.23938e-20)
(1.02762 0.00260621 8.84484e-19)
(1.00037 0.000162827 3.82778e-19)
(1.92249 0.293249 -1.52849e-18)
(1.74502 0.232004 -4.73633e-19)
(1.62213 0.186967 -1.08584e-18)
(1.51762 0.152168 -1.21145e-18)
(1.44482 0.125639 -4.10124e-19)
(1.37897 0.104401 5.77374e-20)
(1.33263 0.0876204 -1.13706e-18)
(1.28782 0.0738028 2.09292e-18)
(1.25581 0.0624689 2.78404e-18)
(1.22276 0.0529491 1.87669e-18)
(1.19851 0.0447923 1.99619e-18)
(1.17201 0.0378672 2.13453e-18)
(1.1517 0.0316017 5.8154e-19)
(1.1286 0.02628 1.34387e-18)
(1.10981 0.0211266 3.13508e-18)
(1.08804 0.0167958 3.1404e-18)
(1.06908 0.0122506 5.35122e-18)
(1.04708 0.00849965 2.01648e-18)
(1.02717 0.00429407 2.88251e-18)
(1.00035 0.000268353 -8.72689e-19)
(1.87682 0.4035 -2.84728e-18)
(1.70889 0.319229 -1.3524e-18)
(1.59301 0.25726 -1.24686e-18)
(1.49392 0.209378 -1.17294e-18)
(1.42525 0.172874 -1.87977e-18)
(1.36271 0.143652 2.11157e-18)
(1.31899 0.120562 6.42144e-19)
(1.27633 0.10155 1.08792e-18)
(1.24608 0.085955 3.3717e-18)
(1.21451 0.0728559 2.13395e-19)
(1.19153 0.0616327 3.86579e-19)
(1.16612 0.0521038 3.69486e-18)
(1.14678 0.0434828 -1.58642e-18)
(1.12451 0.0361603 2.97677e-19)
(1.10652 0.0290694 -7.31467e-19)
(1.08542 0.0231104 1.27928e-18)
(1.06717 0.0168564 2.36673e-18)
(1.04576 0.0116952 -2.63128e-18)
(1.0265 0.00590854 -3.26064e-18)
(1.0003 0.00036921 7.37921e-19)
(1.81716 0.506847 -4.77156e-18)
(1.66168 0.400992 -2.25402e-18)
(1.55497 0.323151 -2.00721e-18)
(1.46296 0.263005 -2.29936e-18)
(1.39969 0.217152 -5.49359e-18)
(1.34147 0.180445 -3.18997e-18)
(1.30116 0.151442 -2.10728e-18)
(1.26131 0.12756 -3.83624e-18)
(1.23337 0.10797 -3.13656e-18)
(1.20374 0.0915163 -1.82367e-18)
(1.18242 0.0774183 -5.69957e-19)
(1.15841 0.065449 4.01226e-18)
(1.14035 0.0546199 -3.23134e-19)
(1.11916 0.0454219 -2.03907e-18)
(1.10222 0.0365148 3.73263e-18)
(1.082 0.0290297 -1.01247e-17)
(1.06468 0.0211737 4.73985e-18)
(1.04403 0.0146907 -4.81601e-18)
(1.02563 0.00742183 4.01211e-18)
(1.00025 0.00046383 2.14702e-18)
(1.74451 0.601522 -6.54477e-18)
(1.60421 0.475893 -3.83872e-18)
(1.50865 0.383513 -3.39158e-18)
(1.42526 0.312132 8.19975e-18)
(1.36857 0.257714 -8.02049e-19)
(1.31561 0.214151 1.37543e-18)
(1.27945 0.179729 -9.68362e-18)
(1.24303 0.151386 -2.71069e-19)
(1.21789 0.128138 -1.70432e-18)
(1.19062 0.108611 7.65894e-18)
(1.17132 0.0918794 -3.15296e-18)
(1.14903 0.0776742 2.84205e-18)
(1.13252 0.0648224 -7.9994e-19)
(1.11265 0.0539063 9.81843e-18)
(1.09698 0.0433355 6.54376e-20)
(1.07784 0.0344521 -1.40621e-18)
(1.06164 0.0251289 7.91814e-19)
(1.04192 0.0174347 -1.50391e-18)
(1.02456 0.00880822 -1.64254e-18)
(1.00018 0.000550438 8.55856e-18)
(1.66013 0.685904 3.06165e-18)
(1.53745 0.542652 7.5868e-18)
(1.45485 0.437312 5.01767e-18)
(1.38148 0.355918 -1.13797e-18)
(1.33241 0.293866 -7.78627e-19)
(1.28557 0.244192 2.1317e-18)
(1.25424 0.204942 3.43756e-18)
(1.22179 0.172623 4.03654e-18)
(1.19992 0.146113 -7.14802e-18)
(1.17539 0.123847 4.69666e-18)
(1.15843 0.104768 -4.8839e-19)
(1.13813 0.0885705 1.10422e-17)
(1.12343 0.0739158 -2.28902e-18)
(1.10509 0.0614684 1.84477e-17)
(1.0909 0.0494147 4.86062e-18)
(1.07301 0.0392852 -2.01822e-18)
(1.05812 0.0286539 2.81843e-18)
(1.03948 0.0198805 6.16782e-18)
(1.02333 0.0100438 -8.95745e-18)
(1.00011 0.000627704 5.83486e-18)
(1.56545 0.758551 -6.55658e-19)
(1.46255 0.600126 1.80694e-17)
(1.39449 0.48363 -4.75949e-19)
(1.33235 0.393615 -2.94544e-18)
(1.29185 0.324991 9.14988e-18)
(1.25186 0.270055 3.41226e-18)
(1.22595 0.226648 -1.60331e-18)
(1.19796 0.190906 -2.62141e-18)
(1.17975 0.161589 -1.71584e-17)
(1.15829 0.136964 -1.54993e-19)
(1.14397 0.115865 -9.03811e-18)
(1.12591 0.0979513 1.3113e-18)
(1.11322 0.0817445 -2.35016e-17)
(1.09661 0.0679786 6.37211e-18)
(1.08408 0.0546484 -1.30452e-17)
(1.06759 0.0434459 -1.84454e-17)
(1.05416 0.0316888 8.76501e-18)
(1.03673 0.0219861 -3.33464e-17)
(1.02194 0.0111076 1.71716e-18)
(1.00002 0.000694156 -3.0123e-17)
(1.46211 0.818218 -3.81072e-18)
(1.38079 0.647332 1.46831e-18)
(1.3286 0.521672 2.19139e-18)
(1.27872 0.424576 -2.42884e-18)
(1.24757 0.350554 -8.53546e-18)
(1.21507 0.291298 7.03096e-18)
(1.19507 0.244476 -6.36259e-18)
(1.17195 0.205923 -3.37139e-18)
(1.15773 0.174299 -3.94855e-18)
(1.13963 0.147737 -1.60099e-17)
(1.12818 0.124979 1.13811e-17)
(1.11256 0.105656 2.03042e-17)
(1.10209 0.0881745 -1.85831e-17)
(1.08735 0.0733259 1.02477e-17)
(1.07664 0.058947 2.48205e-18)
(1.06167 0.0468634 9.86298e-18)
(1.04985 0.0341814 -1.25046e-17)
(1.03374 0.0237156 -1.50324e-17)
(1.02043 0.0119813 2.05095e-17)
(0.999924 0.000748802 -1.37493e-17)
(1.35185 0.863885 -8.98424e-18)
(1.29356 0.683462 -1.00074e-19)
(1.2583 0.550788 -1.18472e-18)
(1.22151 0.448273 -3.36932e-18)
(1.20034 0.37012 -4.09072e-18)
(1.17582 0.307556 -7.13424e-18)
(1.16213 0.258121 -1.39762e-18)
(1.14421 0.217416 -1.06365e-17)
(1.13425 0.184028 5.53828e-18)
(1.11972 0.155983 9.90718e-18)
(1.11134 0.131954 3.30251e-18)
(1.09833 0.111553 9.57236e-18)
(1.0902 0.0930958 7.52243e-18)
(1.07747 0.0774184 -6.06352e-18)
(1.0687 0.062237 1.77731e-17)
(1.05535 0.049479 -1.51442e-17)
(1.04524 0.0360892 3.78904e-17)
(1.03054 0.0250392 2.96729e-18)
(1.01881 0.0126501 1.78268e-17)
(0.999823 0.000790565 -9.64455e-18)
(1.23659 0.894771 1.3058e-17)
(1.20237 0.707897 5.29443e-19)
(1.18481 0.57048 -3.5318e-18)
(1.1617 0.4643 4.3833e-18)
(1.15095 0.383352 -1.6993e-17)
(1.13478 0.318552 2.25734e-17)
(1.12769 0.26735 9.15658e-18)
(1.1152 0.225189 8.39715e-18)
(1.10969 0.190607 1.71437e-18)
(1.09891 0.16156 2.30869e-17)
(1.09374 0.136672 -2.31556e-18)
(1.08344 0.115541 -2.44066e-17)
(1.07778 0.0964242 2.3383e-19)
(1.06714 0.0801863 1.42372e-17)
(1.06039 0.0644621 1.99802e-18)
(1.04875 0.051248 -6.8105e-18)
(1.04042 0.0373795 -2.11584e-17)
(1.0272 0.0259344 -3.51658e-18)
(1.01712 0.0131023 -1.36363e-17)
(0.999718 0.000818867 6.20656e-17)
(1.11827 0.910348 1.45002e-17)
(1.10876 0.72022 1.29808e-17)
(1.10938 0.580411 2.01292e-18)
(1.10031 0.472383 -3.82004e-18)
(1.10026 0.390026 1.54667e-17)
(1.09266 0.324097 5.52817e-18)
(1.09234 0.272004 -5.27097e-18)
(1.08542 0.229109 4.79925e-18)
(1.08449 0.193925 -1.84103e-17)
(1.07755 0.164372 -1.73225e-17)
(1.07567 0.139051 -4.19101e-18)
(1.06816 0.117553 -6.01188e-18)
(1.06503 0.0981028 -4.47555e-18)
(1.05653 0.0815822 -4.50985e-17)
(1.05187 0.0655843 1.92426e-17)
(1.04197 0.0521401 3.08469e-19)
(1.03548 0.0380302 1.19238e-18)
(1.02377 0.0263859 3.04449e-18)
(1.01539 0.0133304 1.45797e-17)
(0.99961 0.000833093 -3.65392e-17)
(0.998938 0.910348 6.26038e-18)
(1.01435 0.72022 1.31373e-17)
(1.03329 0.580411 4.83327e-18)
(1.03838 0.472383 -9.8648e-18)
(1.04914 0.390026 2.48281e-17)
(1.05017 0.324098 3.79471e-18)
(1.05668 0.272004 4.99825e-18)
(1.05539 0.229109 -4.21492e-18)
(1.05907 0.193925 -1.3807e-17)
(1.056 0.164372 -2.00998e-17)
(1.05744 0.139051 -3.76889e-18)
(1.05276 0.117553 -4.19853e-18)
(1.05217 0.0981027 2.66523e-18)
(1.04584 0.0815822 -3.77385e-18)
(1.04327 0.0655843 -2.24194e-17)
(1.03514 0.0521401 -1.51049e-19)
(1.0305 0.0380302 -4.65986e-18)
(1.02031 0.0263859 -9.83227e-19)
(1.01364 0.0133304 -2.01778e-17)
(0.9995 0.000833121 -3.30607e-18)
(0.880624 0.894771 1.41006e-17)
(0.920747 0.707897 -1.46815e-17)
(0.957862 0.57048 1.09958e-17)
(0.976989 0.4643 7.47398e-18)
(0.998447 0.383352 -4.79862e-18)
(1.00805 0.318552 2.173e-18)
(1.02133 0.26735 -3.66333e-18)
(1.02561 0.225189 2.70714e-17)
(1.03386 0.190607 3.83994e-17)
(1.03464 0.16156 -4.43038e-18)
(1.03937 0.136672 -1.50755e-17)
(1.03748 0.115541 -1.76485e-17)
(1.03942 0.0964242 8.22224e-18)
(1.03524 0.0801863 2.17795e-17)
(1.03475 0.0644621 4.7257e-19)
(1.02836 0.051248 7.70402e-19)
(1.02555 0.0373795 -2.77032e-17)
(1.01688 0.0259344 3.42335e-18)
(1.01191 0.0131023 1.20596e-17)
(0.999392 0.000818835 -3.56118e-17)
(0.765355 0.863885 -8.78987e-18)
(0.829553 0.683462 -4.72092e-18)
(0.88437 0.550788 1.36838e-17)
(0.917175 0.448273 1.21918e-18)
(0.949062 0.37012 -9.29584e-18)
(0.967014 0.307556 -2.5594e-17)
(0.986891 0.258121 -2.66814e-18)
(0.996601 0.217416 -1.20882e-17)
(1.00931 0.184028 2.8621e-17)
(1.01383 0.155983 -9.75348e-18)
(1.02176 0.131954 2.83744e-18)
(1.02259 0.111553 -4.30113e-18)
(1.027 0.0930957 3.47728e-17)
(1.02491 0.0774184 -9.47929e-18)
(1.02644 0.062237 2.9529e-17)
(1.02176 0.049479 3.6848e-17)
(1.02074 0.0360892 2.32166e-17)
(1.01354 0.0250392 3.31352e-17)
(1.01022 0.01265 -2.09732e-17)
(0.999287 0.000790589 6.77887e-17)
(0.655105 0.818218 -2.09967e-18)
(0.742328 0.647332 -1.1461e-17)
(0.814077 0.521672 1.80702e-17)
(0.859966 0.424576 2.01908e-18)
(0.901826 0.350554 -3.04837e-18)
(0.927763 0.291298 -2.13194e-17)
(0.953949 0.244476 8.32559e-18)
(0.968854 0.205923 -1.58425e-18)
(0.985823 0.174299 6.73874e-18)
(0.993919 0.147737 -7.4376e-18)
(1.00492 0.124979 1.32641e-17)
(1.00836 0.105656 -4.0816e-17)
(1.01512 0.0881745 3.10381e-18)
(1.01503 0.0733258 -1.48195e-17)
(1.0185 0.058947 -3.87367e-17)
(1.01545 0.0468634 2.08079e-17)
(1.01613 0.0341814 -3.41804e-17)
(1.01035 0.0237155 2.38088e-17)
(1.00861 0.0119813 -3.63434e-17)
(0.999186 0.000748763 -1.85504e-17)
(0.551758 0.75855 5.33945e-18)
(0.660565 0.600126 2.15368e-17)
(0.748186 0.48363 -8.63659e-18)
(0.806339 0.393614 4.91629e-18)
(0.857549 0.32499 2.4326e-17)
(0.89097 0.270055 -4.09066e-18)
(0.92307 0.226648 5.01856e-19)
(0.942845 0.190906 -5.48067e-18)
(0.963808 0.161589 -3.75613e-17)
(0.975259 0.136964 2.00938e-17)
(0.989133 0.115865 1.48536e-17)
(0.995011 0.0979512 -4.01604e-17)
(1.00398 0.0817444 -1.08576e-18)
(1.00576 0.0679786 -5.13747e-17)
(1.01105 0.0546483 7.03027e-18)
(1.00953 0.0434459 -2.85297e-17)
(1.01182 0.0316888 -3.32718e-17)
(1.00735 0.0219861 8.33796e-18)
(1.0071 0.0111076 -6.67104e-18)
(0.999091 0.000694167 8.59829e-18)
(0.457083 0.685904 1.01588e-17)
(0.585664 0.542652 2.00382e-18)
(0.687824 0.437312 4.99443e-18)
(0.757212 0.355918 -1.10259e-17)
(0.816987 0.293866 9.62918e-18)
(0.857264 0.244192 -3.71706e-18)
(0.894782 0.204942 -1.01082e-18)
(0.919018 0.172623 3.37205e-18)
(0.94364 0.146113 2.64668e-17)
(0.958165 0.123847 -4.73112e-18)
(0.974672 0.104768 5.20154e-18)
(0.982786 0.0885704 1.57003e-17)
(0.99378 0.0739158 4.00059e-17)
(0.997279 0.0614683 1.8435e-18)
(1.00423 0.0494147 1.93789e-17)
(1.0041 0.0392851 7.99394e-18)
(1.00786 0.0286539 6.78038e-19)
(1.00461 0.0198805 3.115e-17)
(1.00571 0.0100438 -5.02282e-17)
(0.999005 0.00062765 4.65632e-17)
(0.372701 0.601522 -1.92023e-17)
(0.518905 0.475893 -1.88119e-17)
(0.634025 0.383513 -1.37326e-17)
(0.713426 0.312132 1.60565e-17)
(0.780834 0.257714 -9.49383e-19)
(0.827223 0.214151 -1.07736e-17)
(0.869569 0.179729 -1.41725e-17)
(0.897781 0.151386 -3.2069e-19)
(0.925665 0.128138 2.01574e-17)
(0.942928 0.108611 -3.37078e-18)
(0.961783 0.0918793 -6.78578e-18)
(0.971889 0.0776742 -4.81145e-18)
(0.984687 0.0648224 2.555e-18)
(0.989717 0.0539062 5.33637e-18)
(0.998154 0.0433355 -3.21855e-17)
(0.999271 0.0344521 -1.72744e-18)
(1.00434 0.0251288 -2.97134e-17)
(1.00216 0.0174347 1.24952e-17)
(1.00447 0.00880814 4.66947e-17)
(0.998927 0.000550425 -1.48701e-17)
(0.300054 0.506847 -7.53078e-18)
(0.461431 0.400991 -8.75507e-18)
(0.587708 0.323151 -7.30885e-18)
(0.675729 0.263005 -1.26025e-17)
(0.74971 0.217152 -1.55838e-17)
(0.80136 0.180445 -1.00967e-17)
(0.847863 0.151441 1.11796e-17)
(0.879498 0.127559 -9.2901e-18)
(0.910189 0.10797 -1.37658e-17)
(0.929811 0.0915162 -1.15622e-17)
(0.950687 0.0774183 1.52957e-17)
(0.962509 0.0654489 -1.17251e-17)
(0.976858 0.0546198 2.5134e-19)
(0.983207 0.0454218 -1.44405e-17)
(0.99292 0.0365148 1.16228e-17)
(0.99511 0.0290296 6.25014e-18)
(1.0013 0.0211737 -1.45487e-17)
(1.00006 0.0146906 1.51059e-17)
(1.00341 0.00742179 -1.75866e-17)
(0.998861 0.000463748 -6.40312e-20)
(0.240387 0.4035 -3.6085e-18)
(0.414225 0.319229 -4.5296e-18)
(0.549665 0.25726 -3.40206e-18)
(0.644768 0.209378 -5.84952e-18)
(0.724146 0.172874 -2.92566e-18)
(0.780117 0.143652 1.69376e-17)
(0.830035 0.120562 4.51303e-18)
(0.864481 0.10155 1.68146e-17)
(0.897479 0.0859548 5.48949e-18)
(0.919038 0.0728559 -1.88609e-18)
(0.941573 0.0616326 1.89458e-19)
(0.954804 0.0521037 -1.05364e-17)