/*--------------------------------*- C++ -*----------------------------------*\
| =========                 |                                                 |
| \\      /  F ield         | OpenFOAM: The Open Source CFD Toolbox           |
|  \\    /   O peration     | Version:  2.2.0                                 |
|   \\  /    A nd           | Web:      www.OpenFOAM.org                      |
|    \\/     M anipulation  |                                                 |
\*---------------------------------------------------------------------------*/
FoamFile
{
    version     2.0;
    format      ascii;
    class       volScalarField;
    location    "18";
    object      Theta;
}
// * * * * * * * * * * * * * * * * * * * * * * * * * * * * * * * * * * * * * //

dimensions      [0 2 -2 0 0 0 0];

internalField   nonuniform List<scalar> 
7920
(
2.72436
3.01202
3.08984
3.41418
3.44541
4.05702
3.62717
5.25512
2.7007
2.95471
3.03716
3.28829
3.38996
3.74597
3.68487
4.39377
2.66873
2.90357
2.98685
3.206
3.3318
3.5978
3.65167
4.09419
2.62879
2.83977
2.91782
3.10637
3.23733
3.43094
3.55586
3.79379
2.58863
2.78623
2.86125
3.03545
3.16696
3.33103
3.48009
3.6365
2.56153
2.75168
2.82477
2.99171
3.12241
3.27306
3.43311
3.55356
2.56153
2.75168
2.82477
2.99171
3.12241
3.27306
3.43311
3.55355
2.58863
2.78623
2.86125
3.03545
3.16696
3.33103
3.48009
3.6365
2.62879
2.83977
2.91781
3.10636
3.23733
3.43093
3.55586
3.79378
2.66873
2.90357
2.98685
3.206
3.3318
3.5978
3.65167
4.09421
2.7007
2.95471
3.03716
3.28829
3.38996
3.74595
3.68485
4.39374
2.72436
3.01202
3.08984
3.41419
3.44541
4.05706
3.62713
5.25524
2.28763
2.3425
2.3523
2.41444
2.41597
2.52837
2.45593
2.73824
2.29464
2.34588
2.36181
2.40774
2.44082
2.48272
2.54015
2.56307
2.30294
2.34401
2.35559
2.38785
2.41363
2.42934
2.47196
2.44554
2.31669
2.35399
2.36565
2.3933
2.42138
2.42739
2.48496
2.43513
2.33252
2.36244
2.37079
2.39129
2.41255
2.41027
2.4541
2.39513
2.3444
2.37097
2.37849
2.39662
2.41609
2.41305
2.45398
2.39839
2.3444
2.37097
2.37849
2.39662
2.41609
2.41305
2.45398
2.3984
2.33252
2.36244
2.37079
2.3913
2.41255
2.41028
2.4541
2.39514
2.31669
2.35399
2.36565
2.3933
2.42138
2.4274
2.48495
2.43514
2.30294
2.34401
2.35559
2.38785
2.41363
2.42935
2.47196
2.44554
2.29463
2.34588
2.36181
2.40774
2.44082
2.48272
2.54015
2.56309
2.28763
2.3425
2.3523
2.41444
2.41596
2.52835
2.45594
2.73817
2.17332
2.20777
2.2237
2.25899
2.28955
2.33274
2.37955
2.43228
2.17752
2.20945
2.2272
2.25527
2.29688
2.31134
2.40723
2.35585
2.18252
2.20754
2.22099
2.24193
2.27284
2.28037
2.34532
2.30051
2.19126
2.21424
2.22718
2.247
2.27651
2.28607
2.34912
2.31869
2.20133
2.21971
2.23015
2.24619
2.26969
2.27789
2.32584
2.30432
2.20895
2.22541
2.23526
2.25029
2.27219
2.28193
2.32584
2.31365
2.20895
2.22541
2.23526
2.25029
2.27219
2.28193
2.32584
2.31365
2.20133
2.21971
2.23015
2.24619
2.26969
2.27789
2.32584
2.30432
2.19126
2.21424
2.22718
2.247
2.27651
2.28607
2.34912
2.31868
2.18253
2.20754
2.22099
2.24193
2.27284
2.28037
2.34532
2.30051
2.17752
2.20945
2.2272
2.25527
2.29688
2.31133
2.40723
2.35584
2.17332
2.20776
2.22371
2.25899
2.28956
2.33276
2.37954
2.43235
2.08563
2.09455
2.09833
2.10585
2.11697
2.11911
2.14952
2.12736
2.08795
2.09652
2.10148
2.1069
2.1231
2.11511
2.16549
2.10581
2.09052
2.09567
2.09811
2.10036
2.10959
2.10032
2.12886
2.08119
2.09506
2.10006
2.10256
2.10543
2.11398
2.10857
2.13408
2.10181
2.10016
2.10321
2.10447
2.10588
2.11109
2.10615
2.12215
2.09809
2.10402
2.10649
2.10758
2.1089
2.11342
2.11006
2.12358
2.10637
2.10402
2.10649
2.10758
2.1089
2.11342
2.11006
2.12358
2.10637
2.10016
2.10321
2.10447
2.10588
2.11109
2.10615
2.12215
2.09809
2.09506
2.10006
2.10256
2.10543
2.11398
2.10857
2.13408
2.10181
2.09052
2.09567
2.09811
2.10036
2.10959
2.10032
2.12886
2.0812
2.08795
2.09652
2.10148
2.1069
2.1231
2.11511
2.16548
2.10581
2.08563
2.09455
2.09833
2.10585
2.11696
2.11911
2.14952
2.12735
2.04539
2.05105
2.05423
2.05908
2.06717
2.06871
2.08976
2.07562
2.04655
2.05202
2.05568
2.05961
2.06981
2.06693
2.09646
2.06565
2.04783
2.05156
2.05389
2.05627
2.06273
2.05956
2.07719
2.05402
2.05012
2.0538
2.05615
2.05894
2.06495
2.0641
2.0797
2.06559
2.05268
2.05541
2.05712
2.05922
2.06351
2.06306
2.07364
2.0643
2.05461
2.05707
2.05871
2.06079
2.06474
2.06517
2.07442
2.06884
2.05461
2.05707
2.05871
2.06079
2.06474
2.06517
2.07442
2.06884
2.05268
2.05541
2.05712
2.05922
2.06351
2.06306
2.07364
2.0643
2.05012
2.0538
2.05615
2.05894
2.06495
2.0641
2.0797
2.06559
2.04783
2.05156
2.05389
2.05627
2.06273
2.05957
2.07719
2.05402
2.04655
2.05202
2.05568
2.05961
2.06982
2.06693
2.09646
2.06565
2.04539
2.05105
2.05423
2.05908
2.06717
2.06872
2.08976
2.07564
2.02077
2.02283
2.02387
2.02543
2.02859
2.02813
2.03751
2.02846
2.02132
2.02333
2.0246
2.02579
2.02992
2.02756
2.04078
2.02449
2.02191
2.0231
2.02375
2.02422
2.02656
2.02414
2.03157
2.01917
2.02296
2.02417
2.02483
2.02554
2.02768
2.02644
2.03285
2.02501
2.02413
2.02491
2.02529
2.02569
2.02702
2.02601
2.03002
2.02455
2.02502
2.02569
2.02603
2.02644
2.02762
2.02705
2.03044
2.0268
2.02502
2.02569
2.02603
2.02644
2.02762
2.02705
2.03043
2.0268
2.02413
2.02491
2.02529
2.02569
2.02702
2.02602
2.03002
2.02455
2.02296
2.02417
2.02483
2.02554
2.02768
2.02644
2.03285
2.02502
2.02191
2.0231
2.02375
2.02422
2.02656
2.02414
2.03157
2.01918
2.02132
2.02333
2.0246
2.02579
2.02992
2.02756
2.04078
2.02449
2.02077
2.02283
2.02387
2.02543
2.02859
2.02813
2.03751
2.02846
2.00949
2.01051
2.01109
2.01192
2.0135
2.01346
2.01796
2.01401
2.00974
2.01073
2.01141
2.01208
2.01408
2.01322
2.01936
2.01227
2.01
2.01064
2.01104
2.01139
2.01258
2.0117
2.01524
2.00993
2.01048
2.01112
2.01153
2.01198
2.01309
2.01274
2.01581
2.01258
2.01102
2.01147
2.01174
2.01206
2.01281
2.01257
2.01457
2.01241
2.01142
2.01182
2.01208
2.0124
2.01308
2.01304
2.01476
2.01342
2.01142
2.01182
2.01208
2.0124
2.01308
2.01304
2.01476
2.01342
2.01102
2.01147
2.01174
2.01206
2.01281
2.01257
2.01457
2.01241
2.01048
2.01112
2.01153
2.01198
2.01309
2.01274
2.01581
2.01258
2.01
2.01064
2.01104
2.01139
2.01258
2.0117
2.01524
2.00993
2.00974
2.01073
2.01141
2.01208
2.01408
2.01322
2.01936
2.01227
2.00949
2.01051
2.01109
2.01192
2.0135
2.01346
2.01796
2.01401
2.0039
2.0043
2.00451
2.00482
2.00543
2.00536
2.00717
2.00544
2.004
2.00439
2.00464
2.00489
2.00567
2.00527
2.00776
2.00473
2.00411
2.00435
2.00449
2.0046
2.00505
2.00464
2.00605
2.00376
2.00431
2.00455
2.00469
2.00485
2.00526
2.00507
2.00628
2.00487
2.00453
2.0047
2.00478
2.00488
2.00515
2.005
2.00577
2.00481
2.0047
2.00484
2.00492
2.00502
2.00526
2.0052
2.00585
2.00523
2.0047
2.00484
2.00492
2.00502
2.00526
2.0052
2.00585
2.00523
2.00453
2.0047
2.00478
2.00488
2.00515
2.005
2.00577
2.00481
2.00431
2.00455
2.00469
2.00485
2.00526
2.00507
2.00628
2.00487
2.00411
2.00435
2.00449
2.0046
2.00505
2.00464
2.00605
2.00376
2.004
2.00439
2.00464
2.00489
2.00567
2.00527
2.00776
2.00473
2.0039
2.0043
2.00451
2.00482
2.00543
2.00537
2.00717
2.00544
2.00148
2.00164
2.00172
2.00185
2.00209
2.00208
2.00278
2.00215
2.00152
2.00167
2.00177
2.00188
2.00218
2.00205
2.00299
2.00188
2.00156
2.00166
2.00172
2.00177
2.00195
2.00181
2.00235
2.00152
2.00163
2.00173
2.00179
2.00186
2.00203
2.00198
2.00244
2.00194
2.00172
2.00179
2.00183
2.00188
2.00199
2.00195
2.00225
2.00192
2.00178
2.00184
2.00188
2.00193
2.00203
2.00202
2.00228
2.00207
2.00178
2.00184
2.00188
2.00193
2.00203
2.00202
2.00228
2.00207
2.00172
2.00179
2.00183
2.00188
2.00199
2.00195
2.00225
2.00192
2.00163
2.00173
2.00179
2.00186
2.00203
2.00198
2.00244
2.00194
2.00156
2.00166
2.00172
2.00177
2.00195
2.00181
2.00235
2.00152
2.00152
2.00167
2.00177
2.00188
2.00218
2.00205
2.00299
2.00188
2.00148
2.00164
2.00172
2.00185
2.00209
2.00208
2.00277
2.00215
2.00031
2.00034
2.00035
2.00037
2.00041
2.0004
2.00053
2.00038
2.00032
2.00035
2.00036
2.00038
2.00043
2.00039
2.00058
2.00032
2.00033
2.00034
2.00035
2.00035
2.00038
2.00034
2.00044
2.00025
2.00035
2.00036
2.00037
2.00037
2.0004
2.00038
2.00046
2.00034
2.00037
2.00037
2.00038
2.00038
2.00039
2.00037
2.00042
2.00034
2.00038
2.00038
2.00039
2.00039
2.0004
2.00039
2.00043
2.00037
2.00038
2.00038
2.00039
2.00039
2.0004
2.00039
2.00043
2.00037
2.00037
2.00037
2.00038
2.00038
2.00039
2.00037
2.00042
2.00034
2.00035
2.00036
2.00037
2.00037
2.0004
2.00038
2.00046
2.00034
2.00033
2.00034
2.00035
2.00035
2.00038
2.00034
2.00044
2.00025
2.00032
2.00035
2.00036
2.00038
2.00043
2.00039
2.00058
2.00032
2.00031
2.00034
2.00035
2.00037
2.00041
2.0004
2.00053
2.00038
1.99956
1.99954
1.99952
1.99951
1.99946
1.9995
1.99932
1.99957
1.99955
1.99952
1.99951
1.9995
1.99942
1.99951
1.99923
1.99963
1.99954
1.99953
1.99952
1.99954
1.9995
1.99958
1.99944
1.99975
1.99951
1.99951
1.9995
1.99951
1.99947
1.99953
1.99941
1.99962
1.99949
1.99949
1.99949
1.9995
1.99949
1.99954
1.99948
1.99963
1.99947
1.99947
1.99947
1.99949
1.99948
1.99951
1.99947
1.99957
1.99947
1.99947
1.99947
1.99949
1.99948
1.99951
1.99947
1.99957
1.99949
1.99949
1.99949
1.9995
1.99949
1.99954
1.99948
1.99963
1.99951
1.99951
1.9995
1.99951
1.99947
1.99953
1.99941
1.99962
1.99954
1.99953
1.99952
1.99954
1.9995
1.99958
1.99944
1.99975
1.99955
1.99952
1.99951
1.9995
1.99942
1.99951
1.99923
1.99963
1.99956
1.99954
1.99952
1.99951
1.99946
1.9995
1.99932
1.99957
1.99768
1.9973
1.99711
1.99678
1.9963
1.99612
1.99494
1.99552
1.99762
1.99726
1.99705
1.99676
1.99618
1.99623
1.99464
1.99607
1.99756
1.99728
1.99714
1.99693
1.99653
1.99659
1.99559
1.99663
1.99745
1.99718
1.99703
1.9968
1.99643
1.99637
1.99548
1.99606
1.99733
1.9971
1.99698
1.99679
1.9965
1.99642
1.99578
1.99612
1.99723
1.99702
1.9969
1.99671
1.99644
1.99631
1.99574
1.99589
1.99723
1.99702
1.9969
1.99671
1.99644
1.99631
1.99574
1.99589
1.99733
1.9971
1.99698
1.99679
1.9965
1.99642
1.99578
1.99612
1.99745
1.99718
1.99703
1.9968
1.99643
1.99637
1.99548
1.99606
1.99756
1.99728
1.99714
1.99693
1.99653
1.99659
1.99559
1.99663
1.99762
1.99726
1.99705
1.99676
1.99618
1.99623
1.99464
1.99607
1.99768
1.9973
1.99711
1.99678
1.9963
1.99612
1.99494
1.99552
1.99457
1.9943
1.99413
1.99399
1.99336
1.99383
1.99162
1.99458
1.99441
1.99414
1.99389
1.99384
1.9929
1.99388
1.99054
1.99537
1.99424
1.9942
1.99412
1.99428
1.99384
1.99484
1.99311
1.9969
1.99394
1.99389
1.99381
1.99389
1.9935
1.99416
1.99269
1.99522
1.99361
1.99369
1.99369
1.99385
1.99369
1.99429
1.99349
1.99537
1.99337
1.99347
1.99348
1.99364
1.99353
1.99399
1.99337
1.99474
1.99337
1.99347
1.99348
1.99364
1.99353
1.99399
1.99337
1.99474
1.99361
1.99369
1.99369
1.99385
1.99369
1.99429
1.99349
1.99537
1.99394
1.99389
1.99381
1.99389
1.9935
1.99416
1.99269
1.99522
1.99424
1.9942
1.99412
1.99428
1.99384
1.99484
1.99311
1.9969
1.99441
1.99414
1.99389
1.99384
1.9929
1.99388
1.99054
1.99537
1.99457
1.9943
1.99413
1.99399
1.99336
1.99383
1.99162
1.99458
1.97255
1.96529
1.96232
1.95552
1.94918
1.94273
1.9311
1.92766
1.97178
1.96469
1.96135
1.95536
1.94725
1.94458
1.92576
1.93652
1.97089
1.96486
1.96225
1.95731
1.95115
1.94924
1.93633
1.94486
1.96937
1.96346
1.96087
1.95584
1.9499
1.94712
1.93493
1.93975
1.96766
1.96239
1.96018
1.95566
1.95073
1.94792
1.93852
1.94119
1.96638
1.96133
1.95919
1.95473
1.95004
1.94682
1.93819
1.93895
1.96638
1.96133
1.95919
1.95473
1.95005
1.94682
1.93819
1.93895
1.96766
1.96239
1.96018
1.95566
1.95073
1.94792
1.93852
1.94119
1.96937
1.96346
1.96087
1.95584
1.9499
1.94712
1.93493
1.93975
1.97089
1.96486
1.96225
1.95731
1.95115
1.94924
1.93633
1.94486
1.97178
1.96469
1.96135
1.95536
1.94725
1.94458
1.92576
1.93652
1.97255
1.96529
1.96232
1.95552
1.94918
1.94273
1.9311
1.92766
1.97575
1.97004
1.96778
1.96255
1.95771
1.95308
1.94399
1.94268
1.97504
1.9695
1.96688
1.96239
1.9559
1.95468
1.93892
1.95032
1.97424
1.96973
1.9678
1.96433
1.95965
1.95918
1.94886
1.9583
1.97289
1.96853
1.96662
1.9631
1.95861
1.95734
1.94765
1.95363
1.97137
1.96766
1.96612
1.96308
1.95955
1.95825
1.95114
1.95513
1.97024
1.96676
1.96528
1.96233
1.95901
1.95733
1.95092
1.95311
1.97024
1.96676
1.96528
1.96233
1.95901
1.95733
1.95092
1.95312
1.97137
1.96766
1.96612
1.96308
1.95955
1.95825
1.95114
1.95513
1.97289
1.96853
1.96662
1.9631
1.95861
1.95734
1.94765
1.95363
1.97424
1.96973
1.9678
1.96433
1.95965
1.95918
1.94886
1.9583
1.97504
1.9695
1.96688
1.96239
1.9559
1.95468
1.93892
1.95032
1.97575
1.97004
1.96778
1.96255
1.95771
1.95308
1.94399
1.94268
2.76509
3.07236
3.15711
3.49791
3.54183
4.16405
3.75423
5.36428
2.75662
3.0388
3.13385
3.40701
3.53638
3.89991
3.90171
4.56286
2.7451
3.00753
3.10051
3.33831
3.48339
3.74829
3.83868
4.22221
2.73392
2.97902
3.06838
3.28063
3.43123
3.63095
3.78649
3.98798
2.72485
2.95809
3.04264
3.2401
3.38483
3.55474
3.71506
3.84516
2.71916
2.94588
3.02781
3.218
3.35908
3.51645
3.67967
3.78231
2.71709
2.9428
3.02456
3.2137
3.35489
3.51029
3.67618
3.77279
2.7183
2.9464
3.02886
3.22056
3.36286
3.52229
3.68625
3.78953
2.72294
2.96176
3.04965
3.25473
3.4059
3.5907
3.76392
3.92083
2.72836
2.97702
3.06502
3.28615
3.42738
3.6573
3.76748
4.05151
2.73447
3.00503
3.09909
3.35684
3.49555
3.81929
3.88839
4.41439
2.73387
3.01746
3.09564
3.4057
3.45137
4.00027
3.66045
5.0296
2.25688
2.31207
2.32084
2.38623
2.3811
2.51067
2.40597
2.76225
2.25335
2.30246
2.31427
2.36203
2.3795
2.44081
2.44023
2.54973
2.24827
2.2933
2.30471
2.34481
2.36497
2.40559
2.41775
2.47408
2.24352
2.28568
2.29727
2.33182
2.35621
2.37926
2.41535
2.41756
2.24003
2.27961
2.29033
2.32089
2.34487
2.35782
2.39776
2.37199
2.23893
2.27786
2.28862
2.31807
2.34266
2.35234
2.39613
2.36005
2.24051
2.27932
2.28984
2.31927
2.34311
2.35334
2.39446
2.36133
2.24506
2.28621
2.29763
2.33047
2.35471
2.37338
2.40937
2.39994
2.25194
2.29451
2.30543
2.34149
2.3622
2.39226
2.41202
2.44034
2.2612
2.31073
2.32359
2.37108
2.39003
2.45161
2.44596
2.56715
2.27037
2.31964
2.32878
2.38046
2.38495
2.4676
2.41257
2.60723
2.28082
2.34278
2.35245
2.43096
2.41819
2.59095
2.43291
2.94513
2.15247
2.19004
2.20642
2.24767
2.2743
2.33783
2.3557
2.48599
2.15013
2.18325
2.19914
2.23186
2.26279
2.29843
2.34582
2.37816
2.14718
2.17796
2.19276
2.22275
2.25138
2.28336
2.3243
2.35584
2.14456
2.1735
2.18773
2.21536
2.24389
2.27082
2.31688
2.33609
2.14279
2.17023
2.18374
2.20956
2.23687
2.26063
2.30528
2.31785
2.14246
2.16947
2.18288
2.20824
2.23544
2.25853
2.30376
2.31481
2.14367
2.17041
2.18352
2.20873
2.23507
2.25859
2.30112
2.31493
2.14665
2.17478
2.18849
2.21569
2.2424
2.27072
2.31052
2.3376
2.15089
2.17922
2.19234
2.22042
2.2446
2.27714
2.30692
2.34963
2.15673
2.18964
2.20471
2.23941
2.26506
2.31356
2.33618
2.42305
2.16228
2.1936
2.20625
2.24038
2.25833
2.3102
2.30806
2.41204
2.16923
2.20949
2.22539
2.27419
2.29277
2.38677
2.36065
2.60946
2.0725
2.08194
2.08545
2.09521
2.1031
2.11586
2.12828
2.15065
2.07146
2.07897
2.08208
2.08849
2.09716
2.09963
2.1201
2.10746
2.0702
2.07685
2.07938
2.08513
2.09192
2.09497
2.1086
2.10326
2.06918
2.0753
2.07762
2.08283
2.0893
2.09165
2.10571
2.09965
2.06861
2.07427
2.07632
2.08106
2.08685
2.08871
2.10106
2.09484
2.06876
2.07446
2.07656
2.08139
2.08719
2.08944
2.10159
2.09659
2.06966
2.0753
2.07726
2.08212
2.08743
2.09019
2.10052
2.09799
2.07142
2.07789
2.08024
2.08626
2.0919
2.0974
2.10638
2.11153
2.07372
2.08
2.08186
2.08795
2.09197
2.09893
2.1022
2.1143
2.07687
2.08571
2.08884
2.09842
2.10394
2.11886
2.12051
2.15436
2.07971
2.08694
2.08841
2.09647
2.0976
2.11143
2.1003
2.13649
2.08351
2.09593
2.09985
2.11545
2.11969
2.15263
2.1388
2.23764
2.03818
2.04423
2.04736
2.05347
2.06009
2.06717
2.07923
2.08816
2.03767
2.04273
2.04557
2.05008
2.0567
2.05916
2.07385
2.06705
2.03707
2.0417
2.04418
2.04842
2.05389
2.05698
2.06749
2.06566
2.03662
2.041
2.04335
2.0474
2.05256
2.05563
2.0658
2.06476
2.03642
2.04058
2.04278
2.04664
2.0514
2.05442
2.06342
2.06302
2.03658
2.04077
2.043
2.04693
2.05166
2.055
2.0637
2.06437
2.0371
2.04127
2.04341
2.04736
2.05182
2.05546
2.06315
2.06526
2.03805
2.04262
2.04497
2.04949
2.05411
2.05911
2.06612
2.07209
2.03926
2.04369
2.04577
2.05025
2.05406
2.05963
2.06383
2.0729
2.04089
2.04659
2.04936
2.05555
2.06026
2.06961
2.07346
2.09279
2.04235
2.04715
2.04908
2.05434
2.05692
2.06522
2.06304
2.08217
2.04432
2.05179
2.05512
2.06409
2.06881
2.08612
2.08452
2.13312
2.01712
2.01929
2.02028
2.02234
2.02478
2.02678
2.03195
2.0335
2.01691
2.01864
2.01949
2.02086
2.02328
2.02328
2.02954
2.02428
2.01665
2.01818
2.01886
2.02011
2.02195
2.0223
2.02642
2.02375
2.01648
2.01791
2.01854
2.01973
2.02141
2.02186
2.02571
2.02372
2.01642
2.01776
2.01832
2.01944
2.02093
2.02141
2.02463
2.02314
2.01653
2.0179
2.01848
2.01966
2.02113
2.02181
2.02485
2.02402
2.01681
2.01817
2.01872
2.01992
2.02127
2.02212
2.02465
2.0246
2.01728
2.01884
2.01949
2.02096
2.0224
2.0239
2.02611
2.02794
2.01787
2.01936
2.01988
2.02133
2.02238
2.02413
2.02501
2.02829
2.01865
2.02075
2.0216
2.02385
2.02535
2.02886
2.02966
2.03772
2.01934
2.02099
2.02144
2.0232
2.0237
2.02661
2.02459
2.03235
2.02027
2.0232
2.02433
2.02782
2.02944
2.03646
2.03508
2.05616
2.00777
2.00884
2.00941
2.01045
2.01173
2.01276
2.01542
2.01613
2.00768
2.00856
2.00906
2.00981
2.01107
2.01124
2.01435
2.0121
2.00757
2.00836
2.00878
2.00947
2.01046
2.01079
2.01291
2.01185
2.0075
2.00825
2.00865
2.00932
2.01024
2.01062
2.01261
2.01192
2.00748
2.0082
2.00856
2.0092
2.01003
2.01044
2.01213
2.0117
2.00754
2.00827
2.00864
2.00931
2.01014
2.01064
2.01224
2.01214
2.00768
2.0084
2.00876
2.00944
2.01021
2.0108
2.01216
2.01243
2.0079
2.00871
2.00911
2.00991
2.01072
2.0116
2.01281
2.01393
2.00817
2.00895
2.0093
2.01008
2.01072
2.01171
2.01233
2.0141
2.00852
2.00957
2.01007
2.0112
2.01205
2.0138
2.0144
2.01827
2.00884
2.00968
2.01
2.01092
2.01132
2.01279
2.01215
2.01585
2.00926
2.01067
2.0113
2.01298
2.0139
2.01718
2.0169
2.02646
2.00316
2.00358
2.00378
2.00417
2.00466
2.00502
2.00608
2.00624
2.00313
2.00346
2.00364
2.00391
2.00439
2.0044
2.00565
2.0046
2.00308
2.00338
2.00352
2.00377
2.00414
2.00421
2.00504
2.00449
2.00306
2.00334
2.00347
2.00371
2.00405
2.00415
2.00492
2.00454
2.00305
2.00332
2.00344
2.00367
2.00397
2.00408
2.00472
2.00446
2.00308
2.00335
2.00348
2.00372
2.00401
2.00417
2.00477
2.00465
2.00314
2.00341
2.00353
2.00378
2.00405
2.00424
2.00474
2.00479
2.00323
2.00354
2.00368
2.00397
2.00426
2.00458
2.00502
2.00542
2.00335
2.00365
2.00376
2.00405
2.00427
2.00463
2.00483
2.0055
2.0035
2.0039
2.00408
2.00452
2.00483
2.0055
2.00569
2.00724
2.00363
2.00395
2.00406
2.0044
2.00453
2.00509
2.00475
2.00624
2.00381
2.00436
2.0046
2.00526
2.00561
2.00691
2.00674
2.01064
2.00119
2.00136
2.00144
2.0016
2.00179
2.00194
2.00236
2.00243
2.00118
2.00132
2.00139
2.0015
2.00169
2.00171
2.0022
2.00182
2.00117
2.00128
2.00135
2.00145
2.0016
2.00164
2.00197
2.00177
2.00116
2.00127
2.00133
2.00143
2.00157
2.00162
2.00192
2.0018
2.00116
2.00126
2.00132
2.00141
2.00154
2.00159
2.00185
2.00177
2.00117
2.00128
2.00133
2.00143
2.00156
2.00163
2.00187
2.00185
2.00119
2.0013
2.00135
2.00146
2.00157
2.00166
2.00186
2.0019
2.00123
2.00135
2.00141
2.00153
2.00165
2.00178
2.00197
2.00214
2.00127
2.00139
2.00144
2.00156
2.00166
2.00181
2.0019
2.00217
2.00133
2.00149
2.00156
2.00173
2.00186
2.00213
2.00222
2.00282
2.00138
2.00151
2.00155
2.00169
2.00175
2.00198
2.00187
2.00245
2.00144
2.00166
2.00176
2.00201
2.00216
2.00266
2.00262
2.00409
2.00025
2.00027
2.00029
2.00031
2.00034
2.00036
2.00044
2.00043
2.00024
2.00026
2.00028
2.00029
2.00032
2.00031
2.00041
2.00031
2.00024
2.00026
2.00027
2.00028
2.0003
2.0003
2.00036
2.0003
2.00024
2.00026
2.00026
2.00028
2.0003
2.0003
2.00035
2.0003
2.00024
2.00025
2.00026
2.00027
2.00029
2.00029
2.00033
2.0003
2.00024
2.00026
2.00026
2.00028
2.00029
2.0003
2.00034
2.00032
2.00025
2.00026
2.00027
2.00028
2.0003
2.00031
2.00034
2.00033
2.00026
2.00027
2.00028
2.0003
2.00032
2.00033
2.00036
2.00038
2.00027
2.00028
2.00029
2.00031
2.00032
2.00034
2.00035
2.00039
2.00028
2.0003
2.00032
2.00034
2.00036
2.00041
2.00041
2.00053
2.00029
2.00031
2.00031
2.00034
2.00034
2.00038
2.00034
2.00045
2.0003
2.00034
2.00036
2.0004
2.00043
2.00052
2.0005
2.0008
1.99964
1.99962
1.9996
1.99958
1.99955
1.99953
1.99944
1.99945
1.99965
1.99963
1.99962
1.99961
1.99957
1.9996
1.99948
1.99964
1.99965
1.99964
1.99963
1.99963
1.9996
1.99962
1.99955
1.99965
1.99966
1.99965
1.99964
1.99963
1.99961
1.99963
1.99957
1.99964
1.99966
1.99965
1.99964
1.99964
1.99962
1.99964
1.99959
1.99965
1.99965
1.99964
1.99964
1.99963
1.99962
1.99962
1.99958
1.99963
1.99965
1.99964
1.99963
1.99963
1.99961
1.99962
1.99959
1.99962
1.99964
1.99962
1.99962
1.9996
1.99959
1.99958
1.99956
1.99954
1.99962
1.99961
1.99961
1.9996
1.99959
1.99957
1.99959
1.99954
1.99961
1.99958
1.99957
1.99954
1.99953
1.99947
1.99948
1.99932
1.99959
1.99958
1.99958
1.99956
1.99957
1.99952
1.9996
1.99945
1.99957
1.99953
1.99951
1.99946
1.99944
1.99931
1.99937
1.99894
1.99805
1.99767
1.99748
1.9971
1.99669
1.99627
1.99551
1.99503
1.99808
1.99774
1.99758
1.99727
1.99687
1.99668
1.99579
1.99612
1.99811
1.99779
1.99765
1.99736
1.99702
1.99679
1.99613
1.99619
1.99813
1.99783
1.99768
1.99741
1.99708
1.99685
1.99622
1.99621
1.99813
1.99784
1.99771
1.99744
1.99714
1.9969
1.99634
1.99628
1.99812
1.99783
1.99769
1.99742
1.99712
1.99686
1.99632
1.99619
1.99809
1.9978
1.99767
1.99739
1.9971
1.99683
1.99634
1.99613
1.99805
1.99773
1.99759
1.99728
1.99699
1.99665
1.99619
1.99578
1.99798
1.99768
1.99755
1.99724
1.99698
1.99662
1.99629
1.99574
1.9979
1.99753
1.99736
1.99697
1.99667
1.99612
1.9958
1.99475
1.99783
1.9975
1.99738
1.99703
1.99683
1.99634
1.9963
1.99529
1.99773
1.99727
1.99707
1.99654
1.99621
1.99527
1.99519
1.99269
1.99558
1.99525
1.99509
1.99478
1.99436
1.99407
1.99309
1.99291
1.99563
1.99541
1.99527
1.99514
1.99469
1.99493
1.99361
1.9952
1.9957
1.99553
1.99544
1.99533
1.99504
1.99519
1.99442
1.99537
1.99575
1.9956
1.99551
1.99542
1.99516
1.99529
1.99457
1.99538
1.99576
1.99564
1.99557
1.9955
1.99529
1.99542
1.99485
1.99557
1.99573
1.9956
1.99553
1.99544
1.99523
1.99531
1.99479
1.99533
1.99565
1.99553
1.99547
1.99538
1.9952
1.99524
1.99486
1.99519
1.99552
1.99534
1.99526
1.99509
1.9949
1.99474
1.99447
1.99425
1.99536
1.99521
1.99516
1.995
1.99493
1.9947
1.99483
1.99416
1.99515
1.99483
1.9947
1.99432
1.99414
1.9934
1.99359
1.99153
1.99496
1.99478
1.99477
1.99453
1.99465
1.99406
1.99512
1.99305
1.99471
1.99419
1.994
1.99329
1.99314
1.99143
1.99235
1.9867
1.97651
1.96906
1.96614
1.95867
1.95318
1.94371
1.93704
1.9211
1.97681
1.96998
1.96715
1.96082
1.95487
1.94913
1.93893
1.93615
1.97718
1.97062
1.96796
1.96191
1.95643
1.95083
1.94219
1.93837
1.97747
1.97112
1.96853
1.96271
1.95731
1.95214
1.94321
1.94028
1.97763
1.97143
1.96893
1.96328
1.95808
1.95313
1.94466
1.94201
1.97758
1.97139
1.96888
1.96322
1.95804
1.95301
1.94462
1.94169
1.97732
1.97115
1.96869
1.96302
1.95799
1.95281
1.94498
1.94132
1.97681
1.97038
1.9678
1.96178
1.95665
1.95062
1.94319
1.93717
1.97614
1.96976
1.96732
1.96126
1.95662
1.95008
1.94441
1.9361
1.97521
1.96804
1.96523
1.95805
1.95301
1.94388
1.93891
1.92344
1.97437
1.96765
1.96534
1.95851
1.95489
1.94571
1.94504
1.92767
1.97322
1.96493
1.96194
1.95272
1.94847
1.93285
1.93438
1.89526
1.97949
1.97344
1.97119
1.96514
1.9611
1.95329
1.94915
1.93525
1.97975
1.97424
1.97204
1.96703
1.96247
1.95807
1.95044
1.94856
1.98008
1.97485
1.9728
1.96807
1.96392
1.95976
1.95342
1.95094
1.98035
1.9753
1.97331
1.96881
1.9647
1.96098
1.95426
1.95279
1.98049
1.9756
1.97369
1.96937
1.96545
1.96199
1.95565
1.9546
1.98044
1.97556
1.97365
1.96933
1.96542
1.96192
1.95563
1.95439
1.98018
1.97533
1.97347
1.96916
1.9654
1.96176
1.956
1.95409
1.9797
1.97462
1.97265
1.96801
1.96417
1.95974
1.95437
1.95025
1.97906
1.97404
1.97221
1.96753
1.96416
1.95923
1.95555
1.94921
1.9782
1.97246
1.97029
1.9646
1.96089
1.95355
1.9506
1.93753
1.97741
1.9721
1.97042
1.96505
1.96269
1.95526
1.95642
1.94136
1.97637
1.96966
1.96738
1.95985
1.95699
1.94373
1.94701
1.91229
2.76551
3.07237
3.15705
3.49671
3.54162
4.15875
3.75646
5.34377
2.75824
3.04196
3.13826
3.41232
3.54574
3.90671
3.92341
4.56598
2.74759
3.01099
3.10451
3.34252
3.48962
3.75132
3.84949
4.21626
2.73769
2.98514
3.07576
3.28988
3.44359
3.64326
3.80717
4.00034
2.72999
2.96603
3.05179
3.2516
3.39899
3.56991
3.73576
3.86162
2.72606
2.95699
3.04079
3.23489
3.37948
3.5406
3.70896
3.81403
2.72606
2.95699
3.04079
3.23489
3.37948
3.5406
3.70896
3.81403
2.72999
2.96604
3.05179
3.2516
3.39899
3.56991
3.73577
3.86162
2.73769
2.98514
3.07576
3.28987
3.44359
3.64325
3.80717
4.00033
2.74759
3.01099
3.10451
3.34253
3.48963
3.75133
3.8495
4.21631
2.75824
3.04196
3.13826
3.41231
3.54574
3.90668
3.9234
4.56591
2.76551
3.07235
3.15707
3.49672
3.54163
4.15884
3.75642
5.34401
2.25661
2.31218
2.32095
2.38718
2.38137
2.51406
2.40502
2.77357
2.25237
2.30135
2.31277
2.36078
2.37677
2.44014
2.43367
2.55254
2.24662
2.29195
2.30335
2.34407
2.36374
2.40662
2.41595
2.48033
2.24098
2.28307
2.29444
2.32911
2.35275
2.37684
2.41029
2.41698
2.23645
2.27606
2.28669
2.3174
2.34106
2.35475
2.39359
2.37061
2.23404
2.27258
2.28302
2.31208
2.33613
2.34532
2.38849
2.35202
2.23404
2.27258
2.28302
2.31208
2.33613
2.34532
2.38849
2.35202
2.23645
2.27606
2.28669
2.3174
2.34106
2.35475
2.39359
2.37061
2.24098
2.28307
2.29444
2.32911
2.35275
2.37684
2.41028
2.41699
2.24662
2.29194
2.30335
2.34407
2.36373
2.40662
2.41594
2.48032
2.25237
2.30134
2.31277
2.36078
2.37677
2.44014
2.43367
2.55256
2.25662
2.31219
2.32094
2.38718
2.38136
2.51403
2.40502
2.77345
2.15232
2.19026
2.20664
2.24875
2.27465
2.34129
2.35483
2.49663
2.14952
2.18279
2.19847
2.2318
2.2615
2.29978
2.34177
2.38382
2.14614
2.17755
2.1925
2.22352
2.25191
2.28671
2.32519
2.36511
2.14288
2.17227
2.18659
2.21494
2.24323
2.27206
2.31612
2.34084
2.14035
2.16846
2.18225
2.20895
2.23658
2.26208
2.3064
2.32306
2.13899
2.16652
2.18013
2.20606
2.23362
2.25751
2.30322
2.31559
2.13899
2.16652
2.18013
2.20606
2.23362
2.25751
2.30322
2.31559
2.14035
2.16846
2.18225
2.20895
2.23658
2.26208
2.3064
2.32306
2.14288
2.17227
2.18659
2.21494
2.24323
2.27206
2.31612
2.34083
2.14614
2.17755
2.1925
2.22352
2.25192
2.28671
2.32519
2.36513
2.14952
2.1828
2.19848
2.23181
2.2615
2.29977
2.34177
2.3838
2.15232
2.19026
2.20665
2.24876
2.27465
2.34133
2.35481
2.49675
2.07238
2.08215
2.08569
2.09621
2.10349
2.11914
2.12749
2.1613
2.07093
2.07837
2.08118
2.08791
2.0952
2.09988
2.11451
2.11153
2.06933
2.07635
2.07893
2.0854
2.0918
2.09727
2.10812
2.11114
2.06778
2.07397
2.0762
2.0817
2.08761
2.0913
2.10284
2.10184
2.06661
2.07245
2.07454
2.07961
2.08528
2.08821
2.09952
2.09675
2.06598
2.07162
2.07363
2.07845
2.08407
2.08647
2.09819
2.09398
2.06598
2.07162
2.07363
2.07845
2.08407
2.08647
2.09819
2.09398
2.06661
2.07245
2.07454
2.07961
2.08528
2.08821
2.09952
2.09675
2.06778
2.07397
2.0762
2.0817
2.08761
2.0913
2.10284
2.10184
2.06933
2.07635
2.07893
2.0854
2.09179
2.09727
2.10812
2.11114
2.07093
2.07837
2.08118
2.0879
2.09519
2.09988
2.11451
2.11153
2.07238
2.08216
2.08569
2.09621
2.10349
2.11914
2.12748
2.16129
2.0381
2.04437
2.04753
2.05413
2.06037
2.06933
2.07873
2.09514
2.03733
2.04237
2.04502
2.04976
2.05549
2.05943
2.07033
2.0699
2.03652
2.04141
2.04396
2.04869
2.05393
2.05864
2.06738
2.07104
2.03574
2.0402
2.04252
2.04679
2.05165
2.05562
2.06421
2.0665
2.03517
2.03949
2.04175
2.04587
2.0506
2.05436
2.06275
2.06462
2.03486
2.03908
2.0413
2.0453
2.04998
2.05352
2.06202
2.06334
2.03486
2.03908
2.0413
2.0453
2.04998
2.05352
2.06202
2.06334
2.03517
2.03949
2.04175
2.04587
2.0506
2.05436
2.06275
2.06462
2.03574
2.0402
2.04252
2.04679
2.05165
2.05562
2.06421
2.0665
2.03652
2.04141
2.04396
2.04869
2.05393
2.05864
2.06738
2.07104
2.03733
2.04237
2.04502
2.04976
2.0555
2.05943
2.07033
2.06989
2.0381
2.04437
2.04753
2.05414
2.06037
2.06934
2.07873
2.09517
2.01708
2.01938
2.02038
2.02272
2.02495
2.02804
2.03167
2.03763
2.01671
2.01841
2.01916
2.02064
2.02253
2.02337
2.02738
2.02587
2.01633
2.018
2.01872
2.02024
2.02194
2.02321
2.02628
2.02683
2.01597
2.01743
2.01803
2.01933
2.02082
2.02176
2.02466
2.02458
2.0157
2.01711
2.01769
2.01894
2.02039
2.02126
2.02408
2.02387
2.01556
2.01692
2.01748
2.01867
2.02009
2.02086
2.02372
2.02325
2.01556
2.01692
2.01748
2.01867
2.02009
2.02086
2.02372
2.02325
2.0157
2.01711
2.01769
2.01894
2.02039
2.02126
2.02408
2.02387
2.01597
2.01743
2.01803
2.01933
2.02082
2.02176
2.02466
2.02458
2.01633
2.018
2.01872
2.02024
2.02194
2.02321
2.02628
2.02683
2.01671
2.01841
2.01916
2.02064
2.02253
2.02337
2.02738
2.02586
2.01708
2.01938
2.02038
2.02273
2.02494
2.02804
2.03166
2.03763
2.00775
2.00889
2.00946
2.01064
2.01182
2.01339
2.01528
2.01821
2.00758
2.00845
2.0089
2.00969
2.0107
2.01128
2.01327
2.01291
2.00741
2.00827
2.00871
2.00953
2.01046
2.01125
2.01285
2.01341
2.00725
2.00801
2.0084
2.00912
2.00995
2.01058
2.01209
2.01236
2.00713
2.00787
2.00825
2.00895
2.00977
2.01037
2.01186
2.01207
2.00706
2.00779
2.00815
2.00883
2.00963
2.01019
2.01169
2.01179
2.00706
2.00779
2.00815
2.00883
2.00963
2.01019
2.01169
2.01179
2.00713
2.00787
2.00825
2.00895
2.00977
2.01037
2.01186
2.01207
2.00725
2.00801
2.0084
2.00912
2.00995
2.01058
2.01209
2.01236
2.00741
2.00827
2.00871
2.00953
2.01046
2.01125
2.01285
2.01341
2.00758
2.00845
2.0089
2.00969
2.0107
2.01128
2.01327
2.01291
2.00775
2.00889
2.00946
2.01064
2.01182
2.01339
2.01528
2.01822
2.00315
2.0036
2.0038
2.00426
2.0047
2.0053
2.00602
2.00719
2.00308
2.00341
2.00356
2.00386
2.00422
2.00442
2.00516
2.00497
2.00301
2.00334
2.00349
2.00379
2.00413
2.00441
2.00501
2.00519
2.00294
2.00323
2.00336
2.00362
2.00391
2.00412
2.00468
2.00473
2.00289
2.00317
2.0033
2.00355
2.00384
2.00404
2.00459
2.00461
2.00286
2.00314
2.00326
2.0035
2.00378
2.00396
2.00451
2.00448
2.00286
2.00314
2.00326
2.0035
2.00378
2.00396
2.00451
2.00448
2.00289
2.00317
2.0033
2.00355
2.00384
2.00404
2.00459
2.00461
2.00294
2.00323
2.00336
2.00362
2.00391
2.00412
2.00468
2.00473
2.00301
2.00334
2.00349
2.00379
2.00413
2.00441
2.00501
2.00519
2.00308
2.00341
2.00356
2.00386
2.00422
2.00442
2.00516
2.00497
2.00315
2.0036
2.0038
2.00426
2.0047
2.0053
2.00602
2.00719
2.00119
2.00136
2.00145
2.00163
2.00181
2.00205
2.00233
2.0028
2.00116
2.00129
2.00136
2.00148
2.00163
2.00172
2.00201
2.00197
2.00114
2.00127
2.00133
2.00146
2.0016
2.00172
2.00196
2.00205
2.00111
2.00123
2.00128
2.00139
2.00151
2.00161
2.00183
2.00187
2.00109
2.0012
2.00126
2.00137
2.00149
2.00158
2.0018
2.00183
2.00108