/*--------------------------------*- C++ -*----------------------------------*\
| =========                 |                                                 |
| \\      /  F ield         | foam-extend: Open Source CFD                    |
|  \\    /   O peration     | Version:  3.0                                   |
|   \\  /    A nd           | Web:         http://www.extend-project.de       |
|    \\/     M anipulation  |                                                 |
\*---------------------------------------------------------------------------*/
FoamFile
{
    version     2.0;
    format      ascii;
    class       volScalarField;
    location    "45";
    object      p;
}
// * * * * * * * * * * * * * * * * * * * * * * * * * * * * * * * * * * * * * //

dimensions      [0 0 0 0 0 0 0];

internalField   nonuniform List<scalar> 
672
(
-0.2330877354
-0.1977792184
-0.1866556546
-0.1681264104
-0.1655972787
-0.1549553314
-0.1560481465
-0.1495864982
-0.1513468116
-0.1467302657
-0.1465219346
-0.1414858884
-0.2301837269
-0.1953156455
-0.1843304733
-0.1660325832
-0.163534606
-0.1530260296
-0.1541047936
-0.1477244327
-0.1494628427
-0.1449035117
-0.1446990427
-0.1397213402
-0.2243493733
-0.1903672571
-0.1796622665
-0.1618300262
-0.1593969938
-0.1491560972
-0.1502088819
-0.1439912892
-0.145685985
-0.1412436772
-0.1410428826
-0.1361947206
-0.2157302609
-0.1830544215
-0.1727605772
-0.15561438
-0.1532746026
-0.1434284656
-0.1444406044
-0.1384632174
-0.1400930937
-0.1358216696
-0.1356299631
-0.1309646778
-0.2043618188
-0.1734104745
-0.1636608435
-0.1474207197
-0.1452057452
-0.1358807508
-0.136840659
-0.1311804323
-0.1327244807
-0.1286802729
-0.1284970981
-0.1240793742
-0.1904606963
-0.1616156326
-0.1525292955
-0.1373951202
-0.1353308433
-0.126641797
-0.1275363475
-0.1222629349
-0.1237019098
-0.1199337549
-0.1197633201
-0.1156437573
-0.1741269528
-0.1477586307
-0.1394533234
-0.1256202501
-0.1237344552
-0.1157938014
-0.1166127531
-0.1117947022
-0.1131107787
-0.1096681918
-0.1095120377
-0.1057460141
-0.1556415993
-0.1320736737
-0.1246505071
-0.1122874502
-0.1106022422
-0.1035063885
-0.1042385094
-0.09993405432
-0.1011098611
-0.09803442243
-0.09789351091
-0.09452608343
-0.1351603044
-0.1146973464
-0.1082528925
-0.09752071587
-0.09605867848
-0.08990083248
-0.09053767352
-0.08680379536
-0.08782562019
-0.08515762676
-0.08503582611
-0.08210976558
-0.1130182853
-0.09590916119
-0.09052140604
-0.08154923398
-0.08032766795
-0.07518063397
-0.07571380151
-0.07259390903
-0.0734480351
-0.07121933
-0.07111575013
-0.0686699316
-0.08941522218
-0.07588373272
-0.07162334225
-0.06452998816
-0.0635650289
-0.05949843725
-0.05992117209
-0.05745836971
-0.05813454117
-0.05637477482
-0.05629318483
-0.0543538857
-0.06472742074
-0.05493481325
-0.05185258921
-0.04672069567
-0.0460239828
-0.04308320287
-0.04339068005
-0.04161105664
-0.04210082587
-0.04083004941
-0.04076938281
-0.03936809238
-0.03918504768
-0.03326345
-0.03140081336
-0.02830135364
-0.02788192406
-0.02610954907
-0.0262971757
-0.02522776571
-0.02552488709
-0.02476073172
-0.02472429789
-0.02387029748
-0.01319002519
-0.01120470711
-0.01058248318
-0.009547422102
-0.009410381382
-0.008822258433
-0.008888511353
-0.008537194841
-0.008638002189
-0.008387931194
-0.008373298512
-0.008086704254
0.01301178689
0.0110267302
0.01039816573
0.009349174582
0.009201975344
0.008592590484
0.008649251639
0.008273293659
0.008369559448
0.008101037587
0.008089640862
0.007814129251
0.03900982168
0.03308859714
0.03121971561
0.02810695696
0.02767754428
0.02588482022
0.02606306336
0.02497003964
0.02526283567
0.02448098692
0.02444800027
0.02360505343
0.06455798164
0.05476598844
0.05167771393
0.0465337653
0.0458273149
0.04286806802
0.04316613753
0.04136523529
0.04184995594
0.04056333581
0.04050457378
0.03911251794
0.08925451652
0.07572394796
0.07145777013
0.06435412913
0.06337987435
0.05929740872
0.0597110916
0.05723003595
0.05790112193
0.05612781098
0.05604758449
0.05411646489
0.1128685877
0.09576079713
0.09036764996
0.08138739801
0.08015713618
0.07499748003
0.07552200882
0.0723876891
0.07323647737
0.0709970917
0.0708937514
0.06845410655
0.1350242122
0.1145630059
0.1081135486
0.09737584423
0.09590571684
0.08973903896
0.0903674913
0.08662373636
0.08763934475
0.08496417817
0.08484030277
0.08191750381
0.1555206678
0.1319549709
0.1245273491
0.1121614997
0.110469078
0.1033683709
0.1040928973
0.09978312044
0.1009529504
0.09787364772
0.09773008229
0.09436403043
0.174023239
0.1476575549
0.1393482881
0.1255152373
0.123623046
0.1156817063
0.1164935626
0.1116751326
0.1129845828
0.1095418831
0.109380904
0.1056132864
0.190374894
0.1615328886
0.152443198
0.1373118182
0.1352420588
0.1265564016
0.1274445046
0.1221754728
0.1236074862
0.1198427568
0.1196658616
0.1155419066
0.2042953427
0.1733473307
0.1635949394
0.1473601137
0.1451407198
0.1358227824
0.1367772683
0.1311256041
0.1326631254
0.1286253913
0.128435257
0.12401165
0.2156829438
0.1830106776
0.1727146725
0.1555760711
0.153232774
0.1433970754
0.1444043744
0.1384395108
0.1400623363
0.135800339
0.1355997257
0.1309255697
0.2243219298
0.1903434344
0.1796369438
0.1618140012
0.1593786328
0.1491506843
0.1501998502
0.1439975714
0.1456859843
0.1412550462
0.1410452358
0.1361872904
0.2301752801
0.1953107645
0.1843246855
0.166037479
0.163538149
0.1530445006
0.154120607
0.1477576892
0.1494902803
0.1449437227
0.1447299234
0.1397408373
0.23309834
0.1977931096
0.1866693836
0.168151372
0.165622118
0.1549959932
0.1560873408
0.1496441346
0.1513992794
0.1467962027
0.146578227
0.1415301953
0.2331249045
0.197816029
0.1866907089
0.1681709388
0.1656408555
0.1550141395
0.1561050738
0.1496616991
0.1514171928
0.1468130588
0.1465967954
0.1415436842
0.2301843036
0.1953225989
0.1843394144
0.16605417
0.1635578042
0.1530652363
0.1541441375
0.147781721
0.1495161487
0.1449706356
0.1447566082
0.1397725041
0.2243838797
0.1904008177
0.1796940743
0.1618694538
0.159435452
0.149207248
0.15025836
0.1440561806
0.1457468062
0.1413150064
0.1411076024
0.136245056
0.2157260495
0.1830559147
0.1727639978
0.1556277815
0.1532893828
0.1434555969
0.144467864
0.1385042343
0.1401310654
0.1358702887
0.1356713599
0.1310014363
0.2043907453
0.1734372385
0.1636859138
0.1474494685
0.1452336116
0.1359157439
0.1368745108
0.1312232953
0.1327648368
0.128726747
0.1285395748
0.1241128713
0.1904489567
0.1616085921
0.1525240266
0.1373956965
0.1353324581
0.1266499534
0.1275447504
0.1222782763
0.1237159247
0.1199530595
0.1197793314
0.115657825
0.1741484704
0.1477764364
0.1394694657
0.1256348937
0.1237482872
0.1158073966
0.1166258019
0.1118082774
0.1131236177
0.1096813024
0.1095240378
0.1057557211
0.1556210943
0.1320567307
0.1246350919
0.1122731243
0.1105885308
0.1034924777
0.1042250404
0.09991952867
0.1010962289
0.09801974835
0.09788053197
0.09451460858
0.1351740732
0.1147058096
0.1082596944
0.09752064919
0.09605783847
0.08989212211
0.09052899092
0.08678685967
0.08780973729
0.08513600329
0.08501605267
0.08209473885
0.1129895124
0.09588290123
0.09049639484
0.08152089759
0.08029946104
0.07514599188
0.07567963405
0.07255134514
0.07340819549
0.07117270623
0.07107519497
0.06863394631
0.08942245038
0.07588432317
0.07162225986
0.06451754104
0.06355184582
0.05947098943
0.05989432371
0.05741588634
0.05809490962
0.05632435868
0.05624767156
0.05431958881
0.06469251836
0.05490166091
0.05182045299
0.04668201805
0.04598501241
0.04303328966
0.04334112558
0.04154787041
0.04204143753
0.04075985216
0.04070807917
0.03931335161
0.03918824344
0.0332591919
0.03139486886
0.02828130448
0.02786115458
0.02607063839
0.02625922455
0.02516972068
0.02547086021
0.0246929015
0.02466337658
0.02382469423
0.01315235081
0.01116844619
0.01054712746
0.009504112382
0.009366575622
0.00876555103
0.0088321115
0.008464906653
0.008570058564
0.008307486
0.008303188987
0.008024266145
-0.01300931958
-0.01103186278
-0.01040499272
-0.009370561519
-0.00922411509
-0.008633459536
-0.008689194128
-0.008333924723
-0.008426151692
-0.008171735855
-0.008153318178
-0.007861891244
-0.03904636413
-0.03312357612
-0.03125374971
-0.02814829332
-0.02771931852
-0.02593853968
-0.02611646891
-0.02503818147
-0.0253267662
-0.0245564596
-0.02451342555
-0.02366285916
-0.06455279301
-0.05476785561
-0.05168126429
-0.04654998626
-0.04584432266
-0.04290106196
-0.04319850419
-0.04141505492
-0.04189657537
-0.04062175491
-0.04055729652
-0.03915193922
-0.08928625324
-0.07575351715
-0.07148621616
-0.06438731032
-0.06341321237
-0.0593390312
-0.0597524608
-0.05728179257
-0.05794980806
-0.05618459665
-0.05609691924
-0.05415996768
-0.1128577643
-0.09575590799
-0.09036440688
-0.08139299805
-0.08016350254
-0.07501439766
-0.07553866693
-0.07241557373
-0.07326241335
-0.07103060367
-0.07092368174
-0.06847578503
-0.1350484197
-0.1145841063
-0.1081332444
-0.09739631686
-0.09592587234
-0.08976189765
-0.0903901422
-0.08665021618
-0.08766456643
-0.08499243119
-0.08486541168
-0.0819400117
-0.1555024161
-0.1319411662
-0.1245151518
-0.1121531271
-0.1104614344
-0.1033642135
-0.1040889523
-0.09978236837
-0.1009519764
-0.09787490202
-0.0977308263
-0.09436354334
-0.1740386817
-0.1476687873
-0.1393578009
-0.1255209325
-0.123627829
-0.1156827935
-0.1164943195
-0.1116723245
-0.1129822417
-0.109536981
-0.1093773288
-0.1056105587
-0.1903489017
-0.1615097575
-0.1524216774
-0.1372888433
-0.1352198351
-0.1265302511
-0.1274191872
-0.1221448947
-0.1235787966
-0.1198106447
-0.1196369794
-0.115519579
-0.2043025236
-0.173349226
-0.1635948777
-0.1473518271
-0.1451310072
-0.1358032762
-0.1367573061
-0.1310950706
-0.1326345653
-0.1285889721
-0.1284041278
-0.1239843618
-0.2156504403
-0.1829796389
-0.1726853123
-0.155540704
-0.1531982444
-0.1433522489
-0.1443609534
-0.1383835621
-0.140010037
-0.1357396926
-0.1355452976
-0.130884046
-0.2243229943
-0.1903383613
-0.179629841
-0.1617952712
-0.1593582232
-0.1491157824
-0.1501645764
-0.1439462751
-0.1456380361
-0.1411950196
-0.1409937373
-0.1361419485
-0.230138773
-0.1952748143
-0.1842905023
-0.1659943934
-0.1634959893
-0.1529879857
-0.1540658553
-0.147685765
-0.1494229727
-0.1448648563
-0.1446587822
-0.1396862009
-0.2330966584
-0.197784857
-0.1866591208
-0.168127883
-0.1655968889
-0.1549540348
-0.1560451398
-0.149583247
-0.1513424896
-0.1467251536
-0.1465172515
-0.1414762924
)
;

boundaryField
{
    out
    {
        type            implicitExtrapolation;
    }
    in
    {
        type            implicitExtrapolation;
    }
    frontAndBack
    {
        type            empty;
    }
}


// ************************************************************************* //
