/*--------------------------------*- C++ -*----------------------------------*\
| =========                 |                                                 |
| \\      /  F ield         | foam-extend: Open Source CFD                    |
|  \\    /   O peration     | Version:  3.0                                   |
|   \\  /    A nd           | Web:         http://www.extend-project.de       |
|    \\/     M anipulation  |                                                 |
\*---------------------------------------------------------------------------*/
FoamFile
{
    version     2.0;
    format      ascii;
    class       volScalarField;
    location    "31";
    object      p;
}
// * * * * * * * * * * * * * * * * * * * * * * * * * * * * * * * * * * * * * //

dimensions      [0 0 0 0 0 0 0];

internalField   nonuniform List<scalar> 
2688
(
-0.2339726181
-0.2146452954
-0.203019601
-0.1899124598
-0.1824889709
-0.1733228079
-0.1685764294
-0.1620679323
-0.1591026594
-0.1544529735
-0.1526883494
-0.149354644
-0.1483775537
-0.145957232
-0.1454431336
-0.1436085376
-0.1432747283
-0.1417320614
-0.1413063766
-0.1397664678
-0.1389631938
-0.1371176861
-0.1356160438
-0.1331149251
-0.2332375553
-0.2139709163
-0.202381751
-0.1893157596
-0.1819155645
-0.1727781724
-0.1680466607
-0.1615586055
-0.1586026147
-0.1539675276
-0.1522084079
-0.1488851648
-0.1479111046
-0.1454983762
-0.144985858
-0.1431570123
-0.1428242248
-0.1412863906
-0.1408620264
-0.139326949
-0.1385261897
-0.1366864786
-0.1351895496
-0.1326962901
-0.231766345
-0.2126212757
-0.2011052095
-0.188121661
-0.1807681594
-0.1716884289
-0.16698679
-0.1605396877
-0.1576023709
-0.1529965456
-0.1512485473
-0.1479462896
-0.1469783971
-0.1445809075
-0.1440716427
-0.1422543457
-0.1419236745
-0.1403955508
-0.1399738807
-0.1384484981
-0.1376527991
-0.1358246937
-0.1343372067
-0.1318596739
-0.2295682499
-0.2106047087
-0.1991978278
-0.1863373913
-0.1790535947
-0.1700599556
-0.165402865
-0.1590168977
-0.1561074045
-0.1515452537
-0.1498137968
-0.1465428491
-0.145584098
-0.143209337
-0.1427048688
-0.140904796
-0.140577237
-0.1390635937
-0.1386459068
-0.1371349816
-0.1363468178
-0.134536046
-0.1330626603
-0.1306086252
-0.2266455046
-0.2079234292
-0.1966617891
-0.1839651151
-0.17677407
-0.1678949579
-0.1632971802
-0.1569925417
-0.1541201161
-0.1496160731
-0.147906684
-0.144677403
-0.1437308805
-0.1413863739
-0.1408883496
-0.1391112094
-0.1387878393
-0.1372934781
-0.1368811223
-0.1353894433
-0.1346113195
-0.1328236071
-0.1313689802
-0.1289461877
-0.2230119836
-0.2045900179
-0.1935088834
-0.1810157355
-0.1739399362
-0.1652031495
-0.1606790402
-0.1544754628
-0.1516490504
-0.1472172047
-0.1455351823
-0.1423576623
-0.1414262759
-0.1391193457
-0.1386292725
-0.1368806114
-0.1365624023
-0.1350919863
-0.1346862262
-0.1332184523
-0.1324527913
-0.1306937347
-0.1292624213
-0.1268784714
-0.2186744584
-0.200610825
-0.1897452325
-0.1774951027
-0.1705569445
-0.1619901101
-0.1575540131
-0.1514711191
-0.1486997029
-0.14435408
-0.1427047948
-0.1395890999
-0.1386758501
-0.1364138098
-0.1359332893
-0.1342186549
-0.1339066531
-0.1324648481
-0.1320669926
-0.130627777
-0.1298770112
-0.1281521737
-0.1267486964
-0.1244111135
-0.2136512227
-0.1960025008
-0.1853864649
-0.1734177115
-0.1666388918
-0.158268826
-0.1539345908
-0.1479914138
-0.1452836229
-0.1410378125
-0.1394263752
-0.136382241
-0.1354899312
-0.1332798418
-0.1328103265
-0.1311350674
-0.130830212
-0.1294215183
-0.129032795
-0.1276266394
-0.1268931188
-0.1252079064
-0.1238366704
-0.1215527876
-0.20795345
-0.190775425
-0.1804425212
-0.1687929855
-0.1621949663
-0.1540481422
-0.1498295137
-0.1440448586
-0.1414093024
-0.1372767467
-0.1357083052
-0.1327453776
-0.1318768847
-0.1297257566
-0.1292687811
-0.1276382134
-0.1273415015
-0.1259703828
-0.1255920319
-0.1242233789
-0.1235094148
-0.1218691419
-0.1205344644
-0.1183114882
-0.2016036854
-0.1849501521
-0.1749327174
-0.163638869
-0.1572422772
-0.1493441898
-0.1452543343
-0.1396462954
-0.1370911767
-0.1330847938
-0.1315642055
-0.1286917386
-0.1278497272
-0.1257642732
-0.125321222
-0.1237404349
-0.123452769
-0.1221235139
-0.1217567156
-0.1204298577
-0.1197376959
-0.1181475115
-0.1168535869
-0.1146984901
-0.1946173055
-0.1785409133
-0.1688706401
-0.1579681963
-0.1517932913
-0.1441689287
-0.1402208219
-0.1348071505
-0.132340598
-0.1284730778
-0.1270052039
-0.1242323039
-0.1234194894
-0.1214063251
-0.1209786401
-0.1194526441
-0.1191749513
-0.1178917613
-0.1175376724
-0.1162567946
-0.1155886125
-0.1140535316
-0.1128044391
-0.1107240243
-0.1870208784
-0.1715719596
-0.1622791007
-0.1518021817
-0.1458682594
-0.138541473
-0.1347474306
-0.1295450535
-0.1271747392
-0.123458166
-0.1220475495
-0.119382874
-0.1186017518
-0.1166671616
-0.1162561472
-0.1147897118
-0.1145228479
-0.1132897412
-0.11294947
-0.1117185863
-0.1110764783
-0.1096013119
-0.1084009651
-0.1064017541
-0.1788337292
-0.1640611418
-0.1551751097
-0.1451568621
-0.1394827261
-0.1324767067
-0.1288487732
-0.123874166
-0.1216076364
-0.1180537882
-0.1167049416
-0.1141569403
-0.113410026
-0.1115601433
-0.1111671269
-0.1097648944
-0.1095097118
-0.1083305885
-0.1080052136
-0.1068282199
-0.1062142228
-0.1048036394
-0.1036558398
-0.1017441483
-0.1700861864
-0.1560361604
-0.1475847402
-0.1380565031
-0.1326598741
-0.1259965276
-0.1225460122
-0.1178147201
-0.1156590196
-0.1122789948
-0.110996091
-0.108572718
-0.107862309
-0.1061029109
-0.1057290985
-0.1043954516
-0.1041527378
-0.103031281
-0.1027218107
-0.1016023793
-0.101018402
-0.09967680782
-0.09858513906
-0.09676695596
-0.1608012121
-0.1475182022
-0.1395281589
-0.1305200935
-0.1254180841
-0.1191185141
-0.1158563794
-0.1113833959
-0.1093453937
-0.1061499097
-0.1049370542
-0.102645995
-0.1019743748
-0.1003110381
-0.09995763319
-0.09869679888
-0.0984673355
-0.09740710713
-0.09711453768
-0.09605622942
-0.09550413847
-0.09423579136
-0.09320371899
-0.09148479134
-0.1510125723
-0.1385381252
-0.131034426
-0.1225746936
-0.1177832253
-0.1118671146
-0.1088035203
-0.1046028126
-0.1026888368
-0.09968786656
-0.09854880994
-0.09639721394
-0.09576645058
-0.09420436659
-0.09387245281
-0.09268836194
-0.09247284817
-0.09147714446
-0.09120236986
-0.09020847273
-0.08968997562
-0.08849882985
-0.08752957217
-0.08591528282
-0.1407465177
-0.1291201296
-0.1221265566
-0.1142419564
-0.1097762366
-0.1042623379
-0.1014070275
-0.09749191901
-0.0957080748
-0.09291114104
-0.0918495304
-0.0898442255
-0.0892563467
-0.08780047391
-0.08749112543
-0.08638754499
-0.08618668704
-0.08525868577
-0.08500260147
-0.08407628628
-0.08359304463
-0.0824828834
-0.08157951729
-0.08007497024
-0.1300398995
-0.1192979027
-0.1128362878
-0.105551446
-0.101425395
-0.09633091914
-0.09369277373
-0.09007547704
-0.08842729627
-0.08584311921
-0.08486223386
-0.0830094705
-0.08246628272
-0.0811211545
-0.08083531191
-0.07981566801
-0.07963006715
-0.07877264109
-0.07853602244
-0.07768016129
-0.07723366811
-0.07620795122
-0.07537329441
-0.07398319945
-0.1189218503
-0.1090982919
-0.1031891383
-0.09652715776
-0.09275388821
-0.08809500223
-0.08568242477
-0.08237442686
-0.08086717515
-0.07850396532
-0.07760695135
-0.07591261917
-0.07541587561
-0.07418577535
-0.07392437454
-0.07299192575
-0.07282220044
-0.07203809552
-0.07182171817
-0.07103904401
-0.07063072977
-0.06969271474
-0.06892941585
-0.06765817014
-0.1074319094
-0.0985574492
-0.0932191774
-0.08720083683
-0.08379209136
-0.07958331599
-0.07740379649
-0.07441540003
-0.07305374134
-0.07091885397
-0.07010847417
-0.06857784145
-0.06812905928
-0.06701780252
-0.06678162755
-0.06593925544
-0.06578590556
-0.06507754193
-0.06488205813
-0.06417499621
-0.06380612299
-0.06295873317
-0.06226917334
-0.06112075381
-0.09560166509
-0.08770447483
-0.08295405288
-0.07759847081
-0.07456510369
-0.07081981924
-0.06888031547
-0.06622102865
-0.06500932508
-0.06310955839
-0.06238842256
-0.06102637056
-0.06062701002
-0.05963815159
-0.05942798705
-0.05867839582
-0.05854193925
-0.05791159091
-0.05773764337
-0.05710845249
-0.05678020194
-0.0560261291
-0.05541249739
-0.05439053996
-0.08347291259
-0.07657758827
-0.07242979083
-0.06775363486
-0.06510506189
-0.06183491424
-0.0601414294
-0.05781951319
-0.05676149987
-0.05510274851
-0.05447306469
-0.05328381082
-0.05293507868
-0.05207166948
-0.05188813479
-0.05123362957
-0.05111446188
-0.05056406895
-0.05041217953
-0.04986280728
-0.04957619261
-0.04891778485
-0.04838199305
-0.04748969088
-0.07107922913
-0.06520771873
-0.06167576829
-0.05769393448
-0.05543861687
-0.05265403336
-0.05121199436
-0.04923486091
-0.04833394412
-0.0469215114
-0.04638532313
-0.04537267999
-0.0450757257
-0.0443405447
-0.04418426085
-0.04362695386
-0.04352548383
-0.04305681915
-0.04292749054
-0.04245969565
-0.04221563809
-0.04165499079
-0.04119874403
-0.04043892694
-0.05846420459
-0.0536347287
-0.05072956605
-0.04745439923
-0.04559930569
-0.04330890887
-0.04212275481
-0.04049651742
-0.03975545419
-0.03859369796
-0.03815262892
-0.03731971
-0.0370754148
-0.03647071248
-0.03634212801
-0.0358837211
-0.03580023515
-0.0354147337
-0.0353083485
-0.03492357322
-0.03472282055
-0.03426167362
-0.03388638701
-0.0332614233
-0.04566292742
-0.04189093392
-0.03962187137
-0.03706385979
-0.03561495397
-0.03382608913
-0.03289964985
-0.03162953334
-0.03105073333
-0.03014339667
-0.02979889943
-0.02914839983
-0.02895758713
-0.02848532919
-0.02838489276
-0.02802687877
-0.02796167268
-0.02766058567
-0.02757750346
-0.02727698769
-0.02712019306
-0.02676002207
-0.02646689839
-0.02597877702
-0.03272028647
-0.03001739037
-0.02839139568
-0.02655840388
-0.02552011803
-0.02423827422
-0.02357436701
-0.0226642585
-0.02224946449
-0.02159931313
-0.02135240631
-0.02088629767
-0.02074951305
-0.02041112297
-0.02033910682
-0.020082563
-0.02003580883
-0.01982004629
-0.01976050289
-0.01954516296
-0.01943279686
-0.01917470995
-0.01896464826
-0.01861488235
-0.019672382
-0.01804734188
-0.01706970239
-0.01596768172
-0.01534340875
-0.01457275856
-0.0141735697
-0.0136264425
-0.01337703825
-0.01298620786
-0.01283773437
-0.01255755886
-0.01247528813
-0.01227189243
-0.01222856741
-0.01207434884
-0.01204622744
-0.01191650455
-0.0118807139
-0.01175125634
-0.01168369644
-0.01152853104
-0.01140221647
-0.01119192945
-0.006564901159
-0.006022574363
-0.005696194616
-0.005328427775
-0.00512000586
-0.004862834041
-0.004729522194
-0.004546987238
-0.004463678848
-0.004333308606
-0.004283669989
-0.00419023388
-0.004162681346
-0.00409485918
-0.004080317933
-0.004028863012
-0.004019428973
-0.003976118302
-0.003964165789
-0.003920969281
-0.003898403461
-0.003846622511
-0.003804428137
-0.003734258611
0.006565558671
0.006023209954
0.005697131861
0.00532930301
0.005121092454
0.00486383664
0.004730754996
0.004548012538
0.004464884454
0.004334293655
0.004284875837
0.004191203792
0.004163897334
0.004095872901
0.004081541199
0.00403002495
0.004020707834
0.003977435353
0.003965484499
0.003922256023
0.003899731966
0.003847940649
0.003805857954
0.003735666031
0.01967303217
0.01804797073
0.01707063214
0.01596855011
0.01534448784
0.01457375438
0.01417479487
0.01362746112
0.01337823608
0.01298718557
0.01283893097
0.0125585194
0.01247649245
0.01227289418
0.01222977695
0.01207549671
0.01204749156
0.0119178066
0.01188201776
0.01175252831
0.01168501006
0.01152983432
0.01140363091
0.01119332184
0.03272093835
0.03001802063
0.02839232534
0.02655927249
0.02552119672
0.02423927001
0.02357559135
0.02266527735
0.0222506621
0.02160029231
0.02135360425
0.02088726257
0.0207507219
0.0204121328
0.02034032437
0.02008372121
0.02003708271
0.01982135907
0.01976181703
0.01954644613
0.01943412137
0.01917602465
0.01896607388
0.01861628576
0.04566355751
0.0418915442
0.03962277871
0.03706470801
0.03561601027
0.03382706465
0.03290085138
0.03163053232
0.03105190806
0.03014435465
0.02980007108
0.02914933851
0.02895876354
0.02848630593
0.02838607246
0.02802799826
0.02796290622
0.02766185763
0.0275787779
0.02727823203
0.02712147946
0.02676129937
0.02646828605
0.02598014351
0.05846483777
0.05363534148
0.05073047291
0.04745524758
0.04560036089
0.0433098841
0.04212395447
0.04049751655
0.03975662795
0.03859465779
0.03815380138
0.03732065447
0.03707659637
0.03647170054
0.03634331821
0.03588485505
0.03580148149
0.03541601943
0.03530963472
0.03492482962
0.03472411629
0.03426295975
0.03388778083
0.0332627955
0.07107982677
0.06520829893
0.06167663862
0.05769474937
0.05543963515
0.05265497504
0.05121315622
0.0492358273
0.04833508078
0.04692243792
0.04638645547
0.0453735859
0.04507686022
0.04434148549
0.04418539705
0.04362803257
0.04352667292
0.04305804718
0.04292872188
0.0424608996
0.04221688447
0.04165622989
0.04120009185
0.04044025474
0.08347351411
0.07657817146
0.07243065967
0.06775444917
0.06510607776
0.06183585478
0.06014258787
0.05782047913
0.0567626341
0.05510367579
0.05447419486
0.05328471984
0.05293621332
0.05207261752
0.05188927561
0.05123471775
0.0511156574
0.05056530413
0.05041341429
0.04986401389
0.04957743573
0.04891901861
0.04838332941
0.04749100661
0.09560221849
0.08770501391
0.08295487195
0.07759923941
0.07456606871
0.07082071335
0.06888142135
0.06622194914
0.06501040845
0.06311044153
0.06238950144
0.06102723296
0.06062808917
0.05963904562
0.05942906619
0.05867942081
0.05854306887
0.05791275906
0.0577388147
0.05710959878
0.0567813895
0.0560273107
0.05541378387
0.05439180765
0.1074324666
0.09855799093
0.09321999309
0.08720160321
0.08379305167
0.07958420715
0.07740489659
0.07441631866
0.07305482013
0.07091973574
0.07010954636
0.0685787013
0.06813012907
0.06701869328
0.06678269749
0.0659402761
0.06578702625
0.06507870254
0.06488321764
0.06417613084
0.06380729168
0.06295989395
0.06227043109
0.06112199236
0.1189223484
0.1090987795
0.1031898923
0.09652786728
0.09275478464
0.08809583466
0.08568345776
0.08237528722
0.08086818895
0.07850479177
0.07760796119
0.07591342567
0.07541688427
0.07418660995
0.07392538093
0.0729928817
0.07282325257
0.07203918456
0.07182280835
0.07104011082
0.07063183427
0.06969381372
0.06893061309
0.06765934974
0.1300404003
0.1192983916
0.1128370355
0.1055521505
0.1014262831
0.09633174536
0.09369379711
0.09007633282
0.08842830242
0.08584394161
0.08486323253
0.08301026845
0.08246727182
0.08112197273
0.08083629112
0.07981659983
0.07963108796
0.07877370108
0.07853707973
0.07768119834
0.07723473685
0.07620901487
0.07537444895
0.07398433652
0.1407469505
0.1291205561
0.1221272324
0.1142425943
0.109777049
0.104263094
0.1014079697
0.09749270367
0.09570900098
0.09291189523
0.09185045301
0.08984496068
0.0892572666
0.08780123308
0.08749204004
0.08638841346
0.08618764041
0.08525967381
0.08500358668
0.08407724981
0.08359404007
0.08248387356
0.08158059673
0.08007603316
0.1510130056
0.1385385506
0.1310350913
0.1225753222
0.1177840239
0.1118678593
0.1088044471
0.1046035879
0.1026897506
0.09968861312
0.09854971747
0.09639793637
0.09576734414
0.09420509942
0.09387332497
0.09268918671
0.09247374608
0.09147807785
0.09120329601
0.0902093829
0.08969091387
0.08849976642
0.08753059277
0.08591628797
0.1608015711
0.1475185592
0.1395287442
0.1305206476
0.1254187969
0.1191191785
0.1158572123
0.1113840878
0.1093462124
0.1061505738
0.1049378686
0.1026466401
0.1019751842
0.1003117022
0.09995843366
0.09869755848
0.09846816652
0.09740797092
0.09711539349
0.09605706643
0.09550500045
0.09423664896
0.09320465551
0.09148571258
0.1700865422
0.1560365126
0.1475853096
0.1380570423
0.1326605662
0.1259971736
0.1225468214
0.1178153953
0.1156598188
0.1122796455
0.1109968859
0.1085733475
0.10786309
0.1061035457
0.105729851
0.1043961568
0.1041534969
0.1030320681
0.1027225815
0.1016031354
0.101019179
0.09967758512
0.09858599165
0.09676779517
0.1788340072
0.1640614221
0.1551755935
0.1451573211
0.1394833242
0.1324772644
0.1288494777
0.1238747475
0.1216083272
0.118054343
0.1167056258
0.1141574749
0.1134107015
0.1115606905
0.1111677892
0.1097655218
0.109510396
0.1083313042
0.1080059162
0.1068289082
0.1062149292
0.1048043432
0.1036566116
0.1017449061
0.187021148
0.1715722301
0.1622795619
0.1518026191
0.1458688287
0.1385420037
0.1347481017
0.129545609
0.127175401
0.1234586994
0.1220482074
0.1193833891
0.1186023985
0.1166676819
0.1162567664
0.1147902881
0.1145234608
0.1132903738
0.1129500746
0.1117191728
0.1110770727
0.1096019035
0.1084016176
0.1064023942
0.194617496
0.1785411104
0.1688710125
0.1579685504
0.1517937615
0.144169366
0.1402213808
0.1348076054
0.1323411421
0.1284735063
0.1270057381
0.1242327097
0.12342001
0.1214067352
0.1209791423
0.1194531174
0.1191754663
0.1178923063
0.1175382002
0.1162573131
0.1155891425
0.1140540611
0.112805025
0.1107245979
0.2016038605
0.1849503328
0.1749330593
0.1636391942
0.15724271
0.1493445913
0.1452548499
0.1396467146
0.1370916818
0.1330851917
0.131564705
0.1286921186
0.1278502163
0.1257646576
0.125321689
0.1237408685
0.1234532293
0.122123991
0.1217571586
0.1204302805
0.1197381116
0.1181479181
0.1168540342
0.1146989252
0.2079535463
0.1907755323
0.1804427733
0.1687932269
0.1621952981
0.1540484485
0.1498299134
0.1440451747
0.1414096859
0.1372770366
0.1357086757
0.1327456426
0.131877237
0.1297260169
0.1292691097
0.1276385182
0.1273418335
0.1259707421
0.125592371
0.1242237128
0.1235097534
0.1218694812
0.1205348479
0.1183118619
0.2136512943
0.1960025832
0.185386677
0.1734179158
0.166639177
0.1582690877
0.1539349374
0.1479916851
0.1452839584
0.1410380636
0.1394267031
0.1363824731
0.1354902464
0.1332800729
0.1328106218
0.131135339
0.1308305051
0.1294218317
0.1290330795
0.1276269115
0.1268933783
0.1252081584
0.1238369478
0.1215530549
0.2186744535
0.2006108342
0.1897453547
0.1774952243
0.1705571287
0.161990277
0.1575542428
0.1514712877
0.1486999166
0.1443542247
0.1427049944
0.1395892188
0.1386760282
0.1364139159
0.1359334404
0.1342187882
0.1339068011
0.1324650206
0.1320671429
0.1306279254
0.1298771556
0.1281523201
0.1267488734
0.1244112839
0.2230119444
0.2045899929
0.1935089547
0.1810158111
0.1739400639
0.1652032623
0.1606792073
0.1544755776
0.1516492079
0.1472173029
0.1455353324
0.1423577416
0.1414264108
0.1391194168
0.1386293866
0.1368807095
0.1365625144
0.135092121
0.1346863376
0.1332185635
0.1324528906
0.1306938369
0.1292625434
0.1268785878
0.2266453951
0.2079233314
0.1966617715
0.18396511
0.1767740988
0.1678949785
0.1632972314
0.156992557
0.1541201554
0.1496160709
0.1479067115
0.1446773764
0.1437308849
0.1413863282
0.1408883268
0.139111177
0.138787811
0.1372934731
0.1368810924
0.135389415
0.1346112764
0.1328235685
0.1313689578
0.1289461614
0.2295680984
0.2106045711
0.1991977505
0.1863373322
0.1790535577
0.1700599138
0.1654028465
0.1590168532
0.1561073837
0.1515452022
0.149813773
0.1465427816
0.1455840584
0.1432092558
0.1427048087
0.140904728
0.1405771729
0.1390635508
0.1386458392
0.137134917
0.1363467332
0.1345359669
0.1330625897
0.130608551
0.2317661298
0.2126210644
0.2011050456
0.1881215217
0.1807680263
0.171688298
0.1669866577
0.1605395493
0.1576022397
0.1529964045
0.1512484124
0.147946129
0.1469782394
0.1445807228
0.1440714584
0.1422541601
0.1419234819
0.1403953792
0.1399736818
0.1384483035
0.1376525819
0.1358244835
0.1343370016
0.1318594666
0.2332373058
0.21397068
0.2023815242
0.189315558
0.1819153536
0.1727779672
0.1680464526
0.1615584031
0.1586024216
0.1539673355
0.1522082211
0.1488849636
0.1479109041
0.1454981574
0.1449856369
0.1431567896
0.1428239935
0.1412861773
0.1408617901
0.1393267208
0.1385259376
0.1366862301
0.1351892977
0.1326960367
0.2339722647
0.2146449575
0.2030193007
0.1899121901
0.1824886854
0.1733225325
0.168576125
0.1620676592
0.1591023802
0.1544527156
0.1526880731
0.1493543699
0.1483772541
0.1459569282
0.1454428052
0.1436082125
0.1432743807
0.1417317305
0.1413060195
0.1397661233
0.1389628256
0.1371173263
0.1356156793
0.1331145621
0.2339734264
0.2146459898
0.2030202383
0.1899130356
0.1824894628
0.1733232414
0.1685767807
0.1620682656
0.1591029451
0.154453243
0.1526885651
0.149354833
0.1483776864
0.1459573372
0.1454431882
0.1436085732
0.1432747208
0.1417320495
0.1413063234
0.1397664112
0.1389630987
0.1371175854
0.1356159224
0.1331147934
0.2332360541
0.2139695584
0.2023804637
0.1893145965
0.1819144378
0.1727771303
0.168045645
0.1615576698
0.1586017117
0.1539666904
0.1522075889
0.1488843894
0.1479103354
0.1454976375
0.1449851215
0.1431563057
0.1428235186
0.1412857209
0.1408613501
0.1393263013
0.1385255295
0.1366858377
0.1351889097
0.1326956633
0.2317672016
0.2126220076
0.2011058607
0.1881222515
0.1807686656
0.1716888793
0.1669871618
0.1605400291
0.15760266
0.1529968142
0.1512487643
0.1479464812
0.1469785354
0.1445810206
0.1440717086
0.1422543971
0.1419236866
0.1403955602
0.1399738485
0.138448459
0.137652719
0.1358246084
0.1343370989
0.1318595549
0.2295667576
0.2106033612
0.1991965684
0.1863362561
0.1790525051
0.1700589504
0.1654018886
0.1590159945
0.1561065305
0.1515444407
0.1498130022
0.1465420979
0.1455833551
0.1432086266
0.1427041628
0.1409041227
0.1405765654
0.1390629593
0.1386452653
0.1371343685
0.1363461926
0.1345354439
0.1330620595
0.130608038
0.2266463783
0.2079241869
0.1966624658
0.1839657259
0.1767746021
0.167895434
0.1632975862
0.156992912
0.1541204331
0.1496163645
0.1479069253
0.144677619
0.1437310462
0.141386516
0.1408884456
0.1391112912
0.1387878813
0.1372935168
0.1368811227
0.1353894383
0.1346112776
0.1328235592
0.1313689094
0.1289461069
0.2230105166
0.2045886968
0.1935076539
0.1810146229
0.1739388776
0.1652021753
0.1606781027
0.1544745963
0.1516482149
0.1472164278
0.1455344265
0.1423569511
0.1414255765
0.1391186812
0.1386286137
0.1368799862
0.136561778
0.1350913984
0.1346856341
0.1332178902
0.132452222
0.1306931879
0.129261876
0.1268779402
0.2186753505
0.2006116043
0.1897459316
0.1774957293
0.1705574999
0.1619906102
0.1575544525
0.1514715213
0.1487000557
0.1443544053
0.1427050738
0.1395893543
0.1386760582
0.1364139962
0.1359334308
0.1342187822
0.1339067398
0.1324649297
0.1320670391
0.1306278189
0.1298770231
0.1281521786
0.1267486813
0.1244110885
0.2136497827
0.1960012041
0.1853852619
0.1734166198
0.166637862
0.1582678817
0.1539336917
0.1479905859
0.1452828309
0.1410370791
0.1394256673
0.1363815796
0.1354892861
0.1332792347
0.1328097268
0.1311345022
0.130829645
0.1294209831
0.1290322515
0.1276261185
0.1268925872
0.1252073888
0.1238361492
0.1215522787
0.2079543606
0.1907762204
0.1804432376
0.1687936256
0.1621955425
0.1540486644
0.1498299839
0.1440452917
0.1414096921
0.1372771087
0.1357086261
0.1327456753
0.1318771411
0.1297259938
0.1292689769
0.1276383968
0.127341646
0.125970522
0.1255921387
0.1242234816
0.1235094924
0.1218692127
0.1205345178
0.1183115312
0.2016022694
0.184948875
0.1749315357
0.1636377958
0.157241273
0.1493432724
0.1452534703
0.1396455036
0.1370904269
0.1330841034
0.1315635461
0.1286911274
0.1278491365
0.1257637219
0.1253206781
0.1237399233
0.1234522513
0.1221230219
0.1217562119
0.1204293729
0.1197372034
0.1181470332
0.1168531103
0.114698026
0.1946182319
0.178541721
0.1688713704
0.1579688487
0.1517938863
0.144169471
0.14022132
0.1348076124
0.1323410229
0.1284734759
0.1270055669
0.1242326454
0.1234197955
0.1214066148
0.1209788937
0.1194528875
0.1191751604
0.1178919652
0.1175378478
0.1162569656
0.1155887621
0.1140536747
0.1128045668
0.1107241416
0.1870194828
0.1715706988
0.1622779369
0.1518011251
0.1458672777
0.1385405794
0.1347465971
0.1295442935
0.1271740271
0.1234575142
0.1220469335
0.1193823065
0.1186012068
0.1166666544
0.1162556466
0.1147892407
0.1145223717
0.1132892907
0.1129490153
0.1117181559
0.1110760527
0.109600908
0.1084005737
0.1064013773
0.1788346702
0.1640619605
0.1551758524
0.145157526
0.1394833378
0.1324772665
0.128849295
0.1238746525
0.1216080917
0.1180542177
0.1167053421
0.114157321
0.1134103776
0.1115604803
0.1111674341
0.1097651921
0.1095099816
0.108330852
0.1080054541
0.1068284546
0.1062144403
0.1048038497
0.1036560373
0.1017443359
0.170084809
0.1560349139
0.1475835917
0.1380554606
0.1326589106
0.1259956525
0.1225452023
0.117813984
0.1156583358
0.1122783712
0.1109955063
0.1085721805
0.1078617953
0.1061024334
0.1057286304
0.1043950144
0.1041523047
0.1030308787
0.1027214174
0.1016020164
0.1010180546
0.09967648603
0.09858483522
0.0967666677
0.1608021675
0.1475190317
0.1395289129
0.1305207674
0.1254187091
0.119119087
0.1158569187
0.1113839
0.1093458715
0.1061503624
0.1049374832
0.1026464053
0.1019747617
0.1003114113
0.09995798297
0.09869713912
0.0984676547
0.09740741883
0.09711483278
0.09605651718
0.09550441381
0.09423605899
0.09320397657
0.09148503967
0.1510112116
0.1385368914
0.13103329
0.1225736618
0.1177822745
0.1118662514
0.108802725
0.1046020905
0.1026881695
0.09968725862
0.09854824265
0.09639669321
0.09576595606
0.09420391006
0.09387201298
0.09268795802
0.0924724602
0.09147679206
0.09120203688
0.09020817147
0.08968969507
0.08849857374
0.08752933492
0.08591506091
0.1407474874
0.1291209698
0.1221273207
0.1142426383
0.1097768711
0.104262919
0.1014075776
0.09749243342
0.09570856643
0.09291160779
0.09184997761
0.08984465474
0.08925675726
0.08780087148
0.08749150558
0.08638791561
0.08618704334
0.08525903396
0.08500293931
0.08407661619
0.08359336691
0.08248319778
0.08157982443
0.08007526855
0.1300385533
0.1192966799
0.1128351614
0.1055504213
0.1014244516
0.09633006155
0.09369198495
0.09007476013
0.08842663531
0.08584251698
0.08486167397
0.08300895842
0.08246580136
0.08112071541
0.08083489808
0.07981529478
0.07962971908
0.07877233008
0.0785357368
0.07767990557
0.07723343538
0.07620774047
0.07537310288
0.07398302292
0.1189228335
0.1090991421
0.103189911
0.09652784556
0.09275452875
0.0880955876
0.08568298037
0.08237494579
0.08086767354
0.07850443873
0.07760740826
0.07591305864
0.07541630048
0.07418618802
0.07392477504
0.07299231719
0.0728225832
0.07203847032
0.07182208766
0.07103940575
0.07063108775
0.06969306502
0.06892976118
0.06765850688
0.1074305752
0.09855623507
0.09321805773
0.08719981618
0.08379115096
0.07958245932
0.07740300834
0.07441468255
0.07305308041
0.07091825216
0.070107917
0.06857733507
0.06812858869
0.06701737855
0.06678123529
0.06593890608
0.0657855862
0.06507725866
0.06488180262
0.06417476821
0.06380591907
0.06295854938
0.06226900937
0.06112060462
0.09560266014
0.08770533361
0.08295483242
0.0775991629
0.07456574777
0.07082040617
0.06888087288
0.06622154825
0.06500982541
0.06311003353
0.06238888343
0.06102681468
0.06062744282
0.05963857328
0.05942840057
0.05867880115
0.05854233987
0.05791198414
0.05773803463
0.05710883647
0.05678058461
0.05602650433
0.05541286905
0.054390903
0.08347158771
0.07657638074
0.07242867552
0.06775261604
0.06510412166
0.06183405579
0.06014063869
0.05781879249
0.05676083645
0.05510214566
0.05447250932
0.05328330966
0.0529346176
0.05207125794
0.05188775846
0.05123329632
0.05111416014
0.05056380155
0.0504119403
0.04986259383
0.04957600377
0.0489176153
0.04838184397
0.04748955637
0.0710802337
0.06520858449
0.06167655299
0.05769462946
0.0554392627
0.05265462022
0.05121255136
0.04923537903
0.04833444361
0.04692198559
0.0463857847
0.04537312568
0.04507616244
0.04434097159
0.04418468205
0.0436273679
0.04352589528
0.04305722391
0.0429278949
0.04246009311
0.04221603528
0.04165538051
0.04119913059
0.04043930458
0.05846288642
0.05363352579
0.05072845329
0.0474533809
0.04559836418
0.0433080477
0.04212196055
0.04049579314
0.03975478823
0.03859309452
0.03815207589
0.03731921403
0.03707496207
0.0364703107
0.03634176306
0.03588339846
0.03579994414
0.0354144754
0.03530811812
0.03492336755
0.03472263979
0.03426151185
0.03388624625
0.0332612969
0.04566393876
0.04189180461
0.03962265946
0.03706455648
0.03561560028
0.03382667512
0.03290020529
0.03163004913
0.0310512307
0.03014386885
0.02979936014
0.02914884561
0.02895802536
0.02848575884
0.02838531766
0.02802729762
0.02796208936
0.02766099641
0.02757791391
0.0272773915
0.02712059656
0.02676041791
0.02646729085
0.02597916022
0.0327189726
0.03001619038
0.02839028423
0.02655738548
0.02551917495
0.02423741062
0.02357356965
0.02266353147
0.02224879684
0.02159870971
0.02135185581
0.02088580608
0.02074906689
0.02041072829
0.02033874982
0.02008224745
0.02003552478
0.01981979356
0.0197602776
0.01954496126
0.0194326197
0.01917455112
0.01896451012
0.01861475823
0.01967339702
0.01804821522
0.01707049205
0.01596837904
0.01534405463
0.01457334341
0.01417412321
0.01362695602
0.01337753326
0.01298667796
0.01283819368
0.01255800413
0.01247572646
0.01227232339
0.01222899343
0.01207477011
0.01204664577
0.01191691798
0.01188112619
0.01175166253
0.01168410172
0.01152892869
0.01140261041
0.01119231385
0.006563589421
0.006021375857
0.005695083682
0.005327409318
0.005119061668
0.004861969111
0.004728722911
0.004546258693
0.004463010208
0.004332705162
0.004283120966
0.004189744586
0.004162238711
0.004094468252
0.004079964879
0.004028551208
0.004019148085
0.003975868237
0.003963942212
0.003920768628
0.003898226329
0.00384646303
0.003804288377
0.003734132592
-0.006564543178
-0.006022336333
-0.005696342473
-0.005328606066
-0.005120447706
-0.004863252877
-0.004730203325
-0.004547500661
-0.004464391476
-0.004333825181
-0.004284417961
-0.004190759214
-0.004163459647
-0.004095441319
-0.004081115343
-0.00402960215
-0.004020289377
-0.003977020144
-0.003965071768
-0.003921848303
-0.003899326045
-0.003847541937
-0.003805463351
-0.003735280999
-0.0196743438
-0.01804916903
-0.0170717431
-0.01596956833
-0.01534543231
-0.01457461922
-0.01417559468
-0.01362818992
-0.01337890541
-0.0129877897
-0.01283948062
-0.0125590094
-0.01247693574
-0.01227328541
-0.01223013112
-0.01207580858
-0.01204777409
-0.01191805691
-0.01188224315
-0.01175272957
-0.01168518878
-0.01152999462
-0.01140377185
-0.01119344885
-0.03271992556
-0.03001714907
-0.028391538
-0.02655857684
-0.02552055369
-0.02423868712
-0.02357504123
-0.02266476626
-0.02225017066
-0.02159982484
-0.02135314781
-0.02088681888
-0.02075028544
-0.02041170125
-0.02033989958
-0.02008329741
-0.02003666501
-0.01982094229
-0.01976140451
-0.01954603684
-0.01943371517
-0.01917562473
-0.0189656787
-0.01861589991
-0.04566487106
-0.04189274356
-0.03962389028
-0.03706572573
-0.03561695423
-0.03382792801
-0.03290165036
-0.03163126008
-0.0310525778
-0.03014496002
-0.02980062345
-0.02914983218
-0.02895921154
-0.02848670151
-0.02838643254
-0.02802831386
-0.02796319493
-0.0276621109
-0.02757900849
-0.02727843538
-0.02712166138
-0.0267614606
-0.02646842778
-0.02598027066
-0.05846383065
-0.05363447412
-0.05072968928
-0.04745455406