/*--------------------------------*- C++ -*----------------------------------*\
| =========                 |                                                 |
| \\      /  F ield         | foam-extend: Open Source CFD                    |
|  \\    /   O peration     | Version:  3.0                                   |
|   \\  /    A nd           | Web:         http://www.extend-project.de       |
|    \\/     M anipulation  |                                                 |
\*---------------------------------------------------------------------------*/
FoamFile
{
    version     2.0;
    format      ascii;
    class       volSymmTensorField;
    location    "30";
    object      sigma;
}
// * * * * * * * * * * * * * * * * * * * * * * * * * * * * * * * * * * * * * //

dimensions      [0 0 0 0 0 0 0];

internalField   nonuniform List<symmTensor> 
2688
(
(-0.177883282 -0.00486526212 4.316456891e-20 0.1778886154 5.955788048e-22 -5.333425025e-06)
(-0.174399581 -0.005747645893 6.456196949e-20 0.1744138287 5.92888297e-21 -1.424766941e-05)
(-0.1670905016 -0.006139673625 1.148073232e-20 0.167112617 4.98825445e-20 -2.211534327e-05)
(-0.1578879597 -0.006239778361 -6.455335663e-22 0.1579171403 6.302599053e-20 -2.918061995e-05)
(-0.1478781471 -0.006165448581 2.182534165e-20 0.1479137799 8.024921565e-20 -3.563279292e-05)
(-0.1376635697 -0.005987581502 3.827444873e-20 0.1377051635 6.12665772e-20 -4.159383974e-05)
(-0.1275890523 -0.005750146603 4.881664711e-20 0.1276362114 7.50074114e-20 -4.715912406e-05)
(-0.1178397516 -0.005480681051 2.245123619e-20 0.1178921328 4.133611545e-20 -5.238117995e-05)
(-0.1085172925 -0.005196728617 -3.036444886e-21 0.108574591 3.514030819e-20 -5.729854902e-05)
(-0.09966822152 -0.004909585984 8.976159038e-21 0.09973013331 5.124277042e-21 -6.191178978e-05)
(-0.09131214908 -0.004626475226 2.362617861e-20 0.09137836095 5.075814898e-20 -6.621186905e-05)
(-0.0834513429 -0.004352239524 3.353143572e-20 0.08352149344 6.912358571e-20 -7.015053885e-05)
(-0.07608019213 -0.004089876183 6.330474577e-20 0.07615385856 5.123607237e-20 -7.366642667e-05)
(-0.06919097019 -0.003841640821 3.500530739e-20 0.0692676208 6.657091896e-20 -7.665060246e-05)
(-0.06277411115 -0.003608802067 -3.108717907e-20 0.06285308164 8.558470213e-20 -7.897049214e-05)
(-0.05682512382 -0.003392674391 -1.317416372e-21 0.0569055537 9.143502879e-20 -8.042987255e-05)
(-0.05133892262 -0.003193892397 2.708102465e-20 0.05141971382 7.790061882e-20 -8.079119638e-05)
(-0.04631984312 -0.003013590846 -7.517441189e-21 0.04639957393 1.188639298e-19 -7.973080601e-05)
(-0.04177104133 -0.00285229296 3.951877606e-23 0.0418479028 8.716480442e-20 -7.686147233e-05)
(-0.0377086357 -0.002711350653 3.571447103e-20 0.03778031953 9.860587571e-20 -7.168382165e-05)
(-0.03414624767 -0.002591453331 4.327293181e-20 0.03420985543 1.495812633e-20 -6.360775753e-05)
(-0.03111403489 -0.002494372876 1.802987139e-20 0.03116593453 2.80104247e-20 -5.189964309e-05)
(-0.02863823215 -0.002421405681 1.860949857e-21 0.02867392894 -4.924164329e-21 -3.569678937e-05)
(-0.02676395568 -0.002372931621 -2.947784793e-21 0.02677790117 -5.580215584e-20 -1.394548845e-05)
(-0.1773797138 -0.01458509419 3.771438252e-20 0.1773850295 -1.749623526e-21 -5.315671156e-06)
(-0.1734698008 -0.01719260321 7.410384956e-20 0.1734840045 2.744084298e-21 -1.420371222e-05)
(-0.1659173877 -0.01834499097 3.660195165e-20 0.1659394316 2.254854404e-20 -2.204385903e-05)
(-0.1565840158 -0.0186315078 4.913601595e-21 0.1566131034 4.892718427e-20 -2.908755809e-05)
(-0.1465136076 -0.01840097303 1.481031813e-20 0.1465491264 6.847846164e-20 -3.551872012e-05)
(-0.1362827126 -0.01786382525 3.610884828e-20 0.1363241751 4.582081443e-20 -4.146251688e-05)
(-0.1262197548 -0.01715054953 3.985569123e-20 0.1262667662 7.890432951e-20 -4.701140332e-05)
(-0.1164993465 -0.01634282896 -4.07366208e-21 0.1165515646 2.85224001e-20 -5.221811985e-05)
(-0.1072162417 -0.01549268468 -3.337359554e-20 0.1072733628 5.705030815e-20 -5.712103015e-05)
(-0.09841238359 -0.01463359493 1.281396799e-20 0.09847410391 1.247022706e-20 -6.17203201e-05)
(-0.09010434353 -0.01378695341 5.815571908e-20 0.09017035031 2.974700052e-20 -6.600677668e-05)
(-0.08229224948 -0.01296709521 3.905639e-20 0.08236218165 1.861681929e-20 -6.993217081e-05)
(-0.07496910089 -0.01218288371 5.96817043e-20 0.07504253635 2.893095187e-21 -7.343546772e-05)
(-0.06812609217 -0.01144098472 7.106838296e-20 0.06820250054 4.198151271e-20 -7.640836368e-05)
(-0.06175300103 -0.01074514173 3.422554315e-20 0.06183172026 6.974130138e-20 -7.871923107e-05)
(-0.05584470569 -0.01009924045 2.724618816e-20 0.0559248787 1.32864631e-19 -8.017300838e-05)
(-0.05039578676 -0.009505155502 8.577729318e-20 0.05047632008 2.340325635e-20 -8.053331468e-05)
(-0.04541011121 -0.008966250148 3.413691474e-20 0.04548958861 1.695505102e-19 -7.947739467e-05)
(-0.0408906303 -0.008484072205 2.21569164e-20 0.04096724901 1.808290408e-19 -7.661870865e-05)
(-0.03685301165 -0.008062631493 3.503769192e-20 0.03692447028 3.950513296e-20 -7.145863095e-05)
(-0.03331069504 -0.007703980565 -3.310669851e-20 0.0333741036 3.267822782e-20 -6.340856224e-05)
(-0.03029332266 -0.007413403242 1.544718501e-20 0.03034505994 1.378061943e-19 -5.17372777e-05)
(-0.02782678683 -0.007194764479 -7.077752565e-20 0.0278623718 9.18214407e-20 -3.558497012e-05)
(-0.02595645186 -0.007049225902 3.121837213e-20 0.02597035391 -5.342166356e-20 -1.390205609e-05)
(-0.1763725713 -0.02427310041 2.619041408e-20 0.176377856 2.638661577e-20 -5.284679418e-06)
(-0.1716239124 -0.02848795215 6.019949999e-20 0.1716380334 3.225184641e-21 -1.412096199e-05)
(-0.1635931514 -0.03033031594 3.966169154e-20 0.1636150683 -3.185755527e-20 -2.191689785e-05)
(-0.1540030306 -0.03076228797 2.688242336e-20 0.1540319495 1.433853422e-20 -2.891895446e-05)
(-0.1438142341 -0.03035319146 1.623776248e-20 0.1438495439 5.951515767e-20 -3.530987633e-05)
(-0.1335521128 -0.0294463064 4.163931749e-20 0.1335933281 5.125331961e-20 -4.121527965e-05)
(-0.1235128065 -0.02825438695 4.831429452e-20 0.1235595333 8.878039016e-20 -4.67268176e-05)
(-0.1138501489 -0.02691050679 -5.164767156e-21 0.1139020467 8.663678269e-20 -5.189782113e-05)
(-0.1046453536 -0.02549935779 -1.293081193e-20 0.1047021205 9.580295454e-20 -5.676697222e-05)
(-0.0959312948 -0.02407537777 -3.747223885e-20 0.09599262956 9.533901357e-20 -6.13347636e-05)
(-0.0877185597 -0.02267331864 1.305263087e-20 0.08778415207 1.118591702e-19 -6.5592369e-05)
(-0.08000306317 -0.02131642794 4.976525442e-21 0.08007255527 3.692657908e-20 -6.94920952e-05)
(-0.07277506864 -0.02001905437 7.586206528e-20 0.07284804201 -1.50162233e-20 -7.297337922e-05)
(-0.06602364642 -0.01879197644 1.141132944e-19 0.06609957494 9.134725883e-21 -7.592852728e-05)
(-0.0597372828 -0.01764122869 7.42278207e-20 0.05981550926 7.050962642e-20 -7.822646767e-05)
(-0.05390961684 -0.01657309457 1.49184457e-20 0.05398928986 9.222362689e-20 -7.967302264e-05)
(-0.04853457624 -0.01559059514 5.569845167e-20 0.04861460912 6.113027562e-20 -8.003287226e-05)
(-0.0436151094 -0.01469919763 2.713001781e-19 0.0436940943 1.594796681e-20 -7.898489978e-05)
(-0.03915376488 -0.01390142048 -2.248274582e-20 0.0392299096 6.269537277e-20 -7.614472057e-05)
(-0.03516531535 -0.0132038183 -1.058024453e-19 0.03523633207 5.211355993e-20 -7.10167188e-05)
(-0.03166283454 -0.0126097643 1.740289917e-19 0.03172585066 2.459519569e-20 -6.301611417e-05)
(-0.02867494709 -0.01212793227 2.155757627e-19 0.02872636375 -2.010863976e-20 -5.141666055e-05)
(-0.02622687814 -0.01176467978 -1.534959796e-19 0.02626224217 1.327132894e-19 -3.536403107e-05)
(-0.02436447845 -0.01152204619 -2.72001721e-20 0.02437829402 -5.792016392e-20 -1.38155734e-05)
(-0.1748619015 -0.03390773529 -6.132158799e-23 0.1748671392 4.366929292e-20 -5.237711611e-06)
(-0.1688889711 -0.03953747023 2.607284677e-20 0.1689029655 -3.590707559e-20 -1.399433149e-05)
(-0.1601611786 -0.04195485274 4.195967332e-20 0.160182899 -8.829641538e-20 -2.172042594e-05)
(-0.1501981085 -0.04246542383 5.597396472e-20 0.1502267671 2.081913789e-22 -2.865853852e-05)
(-0.139838627 -0.04184130858 4.386332417e-20 0.139873616 3.438459159e-20 -3.498900509e-05)
(-0.1295331758 -0.04054767658 5.171804901e-20 0.1295740132 6.283350868e-20 -4.0837452e-05)
(-0.1195306637 -0.0388726097 8.893578833e-20 0.1195769583 7.531646052e-20 -4.629454046e-05)
(-0.1099545303 -0.03699606902 6.111853783e-21 0.1100059439 1.310921213e-19 -5.141365347e-05)
(-0.1008661892 -0.03503246453 4.314138554e-21 0.1009224228 5.821420515e-20 -5.623366264e-05)
(-0.09228526055 -0.03305519518 5.431088285e-20 0.09234601592 4.41970345e-20 -6.075537471e-05)
(-0.08421358748 -0.03111104179 4.260337789e-20 0.08427855792 6.338541821e-20 -6.497043276e-05)
(-0.07664093136 -0.02923121705 -7.037013162e-20 0.07670976317 8.625193067e-21 -6.883180799e-05)
(-0.06955356079 -0.02743493293 -2.025753374e-20 0.06962584047 6.307663638e-20 -7.227968038e-05)
(-0.06293744559 -0.02573659441 1.544489402e-19 0.06301265292 1.042659463e-20 -7.520733068e-05)
(-0.05677918807 -0.02414422692 1.205470176e-19 0.05685667284 1.84315267e-19 -7.74847726e-05)
(-0.05107061805 -0.02266622788 9.158138922e-20 0.05114953741 -9.624254323e-21 -7.891935552e-05)
(-0.04580470995 -0.02130661238 2.686203768e-20 0.04588398759 -7.271386974e-20 -7.92776443e-05)
(-0.04098306786 -0.0200727481 7.687486162e-20 0.04106130902 -1.34286209e-19 -7.824115434e-05)
(-0.03660765047 -0.01896803599 1.849331034e-19 0.03668307934 -1.043080767e-19 -7.542886299e-05)
(-0.0326919201 -0.01800138992 7.310109517e-21 0.03276226971 -6.564905304e-21 -7.034960698e-05)
(-0.02924841578 -0.01717743601 -1.413377898e-19 0.02931084 1.075310339e-20 -6.242422027e-05)
(-0.02630426938 -0.01650803832 2.214035607e-19 0.02635520311 -3.104494446e-20 -5.09337215e-05)
(-0.02388372817 -0.01600192163 6.670974533e-20 0.02391876005 1.295377635e-19 -3.503188497e-05)
(-0.02203334029 -0.01566215651 -2.011806709e-20 0.02204702613 -2.965387631e-20 -1.368583795e-05)
(-0.1728478801 -0.0434669708 -4.496736683e-20 0.1728530543 5.775494123e-20 -5.174194956e-06)
(-0.1653046789 -0.05025013042 -5.019506871e-20 0.1653185027 -2.380314457e-20 -1.382376386e-05)
(-0.1556850935 -0.05308644396 2.97039769e-20 0.1557065487 -6.067321094e-20 -2.145525223e-05)
(-0.1452470861 -0.05358491652 9.017491194e-20 0.1452753937 1.774894574e-20 -2.830757072e-05)
(-0.1346726767 -0.05269640493 5.803107751e-20 0.1347072346 3.698849155e-20 -3.455791244e-05)
(-0.1243158835 -0.05099307663 7.711260012e-20 0.1243562148 4.40196095e-20 -4.033128102e-05)
(-0.1143648348 -0.04882890526 1.359413055e-19 0.1144105519 2.927471809e-20 -4.571710057e-05)
(-0.1049038707 -0.04642461651 2.540482332e-20 0.1049546392 1.253317119e-19 -5.0768519e-05)
(-0.09596894362 -0.04392032417 -6.659210052e-20 0.09602446801 3.351171516e-20 -5.552439281e-05)
(-0.08756263926 -0.04140567243 -2.506364158e-20 0.08762262511 2.442053426e-20 -5.99858506e-05)
(-0.0796755673 -0.03893766416 4.891143221e-20 0.07973971228 -8.850960218e-21 -6.414498459e-05)
(-0.07228958823 -0.03655419014 1.021215501e-20 0.07235754384 9.286913513e-21 -6.795561535e-05)
(-0.06538584448 -0.03427848043 3.263938165e-20 0.06545720332 1.041608935e-19 -7.135884304e-05)
(-0.0589463287 -0.03212790597 1.840493027e-19 0.05902057805 4.332760227e-20 -7.424935242e-05)
(-0.05295522867 -0.030112075 1.781051096e-19 0.05303172736 6.017826517e-20 -7.649868894e-05)
(-0.04740205333 -0.02824111327 -1.45021355e-19 0.04747996978 -2.646619425e-19 -7.791645044e-05)
(-0.04227855477 -0.02651982288 -8.107988122e-20 0.04235682662 -1.370492556e-19 -7.827185269e-05)
(-0.03758460861 -0.02495719567 9.918922001e-20 0.03766185871 3.884714089e-20 -7.725010676e-05)
(-0.03332141391 -0.02355739579 3.9721526e-20 0.03339588862 6.133491779e-20 -7.447470817e-05)
(-0.02950074407 -0.02233144383 1.05265698e-19 0.02957020452 2.53856538e-20 -6.946044423e-05)
(-0.02613444804 -0.02128512574 9.529114062e-20 0.02619608344 1.611740015e-19 -6.163539891e-05)
(-0.02324773061 -0.02043322396 2.754898777e-19 0.02329802054 1.662476942e-19 -5.028992189e-05)
(-0.02086357025 -0.01978666072 1.17999422e-19 0.02089815902 -1.167326542e-20 -3.458876689e-05)
(-0.01902939164 -0.01934974625 -1.248478441e-19 0.01904290421 2.843783741e-19 -1.351256323e-05)
(-0.1703309398 -0.05292813477 -5.320517224e-20 0.1703360339 1.543625712e-20 -5.094137796e-06)
(-0.1609223927 -0.06054196804 -1.07193345e-19 0.1609360021 1.714161116e-20 -1.360939725e-05)
(-0.1502470716 -0.06360468074 1.141268443e-20 0.1502681936 -2.949611376e-20 -2.112199013e-05)
(-0.1392504406 -0.06397931952 1.018176801e-19 0.1392783075 3.537680112e-20 -2.786683832e-05)
(-0.1284272231 -0.06276572041 7.897559132e-20 0.1284612406 7.667608152e-21 -3.401755748e-05)
(-0.1180163346 -0.06062464394 5.583357174e-20 0.1180560324 6.399059706e-22 -3.969788516e-05)
(-0.1081333742 -0.05796429367 1.772534909e-19 0.1081783699 6.536583029e-21 -4.499574151e-05)
(-0.09881604913 -0.05503859482 1.554702462e-19 0.09886601291 -4.759483179e-20 -4.996377172e-05)
(-0.09006995862 -0.05200840576 1.924929818e-20 0.09012459929 -1.620199753e-19 -5.46406713e-05)
(-0.081877396 -0.04897626079 -4.721239855e-20 0.08193642382 1.222421089e-19 -5.902781794e-05)
(-0.07421559641 -0.04600715318 4.354798721e-22 0.07427871421 5.221529729e-20 -6.311779153e-05)
(-0.06705702132 -0.04314406233 1.662022751e-20 0.06712388668 5.215990322e-20 -6.686536166e-05)
(-0.06037671979 -0.04041319289 4.541550455e-21 0.06044693259 1.082667872e-19 -7.021280069e-05)
(-0.05415195941 -0.03783406639 6.946741553e-20 0.05422501595 1.347238824e-19 -7.305654202e-05)
(-0.04836406257 -0.03541737038 8.949886117e-21 0.04843933276 -1.019000466e-20 -7.52701944e-05)
(-0.04299978059 -0.03317448309 -2.442733272e-19 0.04307644684 6.940720749e-20 -7.666625682e-05)
(-0.0380494147 -0.03111073807 5.105349524e-20 0.03812643215 3.152256373e-19 -7.701744606e-05)
(-0.03351078085 -0.02923640995 1.983945201e-19 0.03358679452 2.124580636e-19 -7.60136667e-05)
(-0.02938417197 -0.02755627832 1.292152066e-19 0.02945745613 2.05870748e-19 -7.328415734e-05)
(-0.02567934174 -0.02608315807 3.518561668e-20 0.02574769284 2.272209754e-19 -6.835110183e-05)
(-0.02240731011 -0.02482388022 1.517652697e-20 0.02246796171 3.120567588e-19 -6.06516003e-05)
(-0.0195909709 -0.02379580967 6.083028833e-20 0.01964045827 4.617129865e-19 -4.94873724e-05)
(-0.0172517736 -0.02301185537 3.84382768e-19 0.01728581026 3.499755658e-19 -3.403666726e-05)
(-0.01543815541 -0.02247782271 -1.735783441e-20 0.01545145227 4.193210629e-19 -1.329685934e-05)
(-0.167311941 -0.0622677662 -2.341961447e-20 0.1673169389 -2.936553045e-20 -4.997849121e-06)
(-0.1558038333 -0.07033776599 -1.145489224e-19 0.1558171852 2.787747283e-21 -1.335181699e-05)
(-0.1439456554 -0.07340369633 -2.538095414e-20 0.143966377 -5.015555873e-21 -2.07216575e-05)
(-0.1323285725 -0.07352519303 1.378885247e-19 0.1323559102 -4.197013759e-20 -2.733769953e-05)
(-0.1212350326 -0.0719164865 1.018542853e-19 0.1212684022 -8.981344732e-20 -3.336955886e-05)
(-0.1107735618 -0.06930553954 2.078734239e-20 0.110812501 7.083209146e-20 -3.893919683e-05)
(-0.1009776333 -0.06614123353 1.001219995e-19 0.101021766 2.128413198e-21 -4.413269872e-05)
(-0.09183218879 -0.0627019029 4.868455242e-20 0.09188119079 -2.227348828e-19 -4.900199928e-05)
(-0.08330850217 -0.05916338956 4.431365064e-20 0.08336208759 -8.101673019e-20 -5.358542222e-05)
(-0.07536594091 -0.0556372214 2.192361438e-19 0.07542382547 4.421117541e-20 -5.788456241e-05)
(-0.06796664106 -0.05219379075 -3.33412078e-22 0.0680285335 -1.152429036e-20 -6.189243289e-05)
(-0.0610724648 -0.04887932026 2.876347651e-20 0.06113802971 1.313479804e-19 -6.556490972e-05)
(-0.05465159689 -0.04572177809 8.172256199e-20 0.05472044248 2.200795005e-19 -6.88455916e-05)
(-0.04867598547 -0.04274189012 1.088585007e-19 0.04874761854 1.745524555e-19 -7.163307185e-05)
(-0.04312373219 -0.03995083923 1.997920316e-19 0.04319753566 6.824561353e-21 -7.38034663e-05)
(-0.03797848372 -0.03736070392 1.542543267e-20 0.03805365663 2.437254919e-19 -7.517290892e-05)
(-0.03322891027 -0.03497705287 5.696881666e-20 0.03330442867 7.424928697e-20 -7.551840147e-05)
(-0.02887050072 -0.03281104717 7.007245171e-20 0.02894503634 -1.596546524e-21 -7.453561757e-05)
(-0.0249025226 -0.03086791006 2.231814641e-19 0.02497438326 -1.572192936e-20 -7.186065385e-05)
(-0.02133243633 -0.02916188735 3.509073264e-19 0.02139946091 5.119461039e-20 -6.702457309e-05)
(-0.01817031384 -0.02770072101 5.895929852e-19 0.018229789 -6.909495414e-21 -5.947516152e-05)
(-0.01543641355 -0.02650396755 4.429039232e-19 0.01548494128 3.859087943e-19 -4.852772969e-05)
(-0.01315043357 -0.02558627697 4.170893402e-19 0.01318381014 2.824034964e-19 -3.337657502e-05)
(-0.01136190698 -0.02495524464 -1.109284299e-19 0.01137494589 -4.019002133e-20 -1.303891041e-05)
(-0.1637923661 -0.07146151625 -1.140856953e-20 0.1637972517 -5.438067329e-21 -4.885608628e-06)
(-0.1500195361 -0.07957250162 -8.185188092e-20 0.1500325878 -1.92410068e-20 -1.305174861e-05)
(-0.1368931431 -0.08239455525 -3.437485215e-20 0.1369133985 -8.001807524e-20 -2.025549127e-05)
(-0.1246185575 -0.08212005612 7.494992351e-20 0.1246452794 -1.045714116e-19 -2.67218606e-05)
(-0.113247185 -0.08003920077 1.809416316e-19 0.113279801 -6.412697586e-20 -3.261604964e-05)
(-0.102745726 -0.07692339005 1.163183639e-19 0.1027837838 9.523833896e-20 -3.805776109e-05)
(-0.09305837558 -0.07324712964 -1.513888272e-20 0.09310150652 -1.308196426e-20 -4.313094046e-05)
(-0.08411276645 -0.0693034019 1.926658189e-20 0.08416065302 -1.188396889e-19 -4.788656853e-05)
(-0.07584291926 -0.0652766358 3.142657194e-20 0.0758952817 1.201075429e-19 -5.236243946e-05)
(-0.06818335086 -0.06128302812 8.118502433e-20 0.06823991113 2.693882707e-20 -5.656027049e-05)
(-0.06107984636 -0.05739549463 8.955377538e-20 0.06114031987 7.319236054e-20 -6.047351313e-05)
(-0.05448280632 -0.05366145432 2.387521716e-19 0.05454686555 1.064344764e-19 -6.405922176e-05)
(-0.04835300294 -0.05010929583 1.113134215e-19 0.04842026548 1.546839671e-19 -6.726253353e-05)
(-0.04265664504 -0.04675990033 -5.311590018e-20 0.04272662956 5.689728832e-20 -6.998451461e-05)
(-0.03736836622 -0.04362429888 6.072424174e-20 0.0374404705 5.220494721e-20 -7.210428068e-05)
(-0.03246846329 -0.04071465805 5.816379201e-20 0.03254190554 4.366306609e-20 -7.344224056e-05)
(-0.02794385027 -0.03803645341 -6.875721011e-20 0.0280176308 -4.6061133e-20 -7.378052483e-05)
(-0.02378749365 -0.03560129253 1.236797109e-19 0.02386031525 -8.807021366e-20 -7.282159147e-05)
(-0.01999754758 -0.03341465152 1.426116118e-19 0.02006775719 -1.230481869e-19 -7.020961312e-05)
(-0.01657897023 -0.0314918029 1.235650496e-21 0.01664445615 -1.148547332e-19 -6.548592863e-05)
(-0.0135407896 -0.02984125018 3.567031512e-19 0.01359890029 -1.805412433e-21 -5.811069863e-05)
(-0.01090037203 -0.02848430605 8.921610966e-19 0.01094778694 -4.411454459e-20 -4.741491136e-05)
(-0.008675484447 -0.02743708768 6.467692716e-19 0.00870809584 -3.296037882e-19 -3.261139283e-05)
(-0.006916779971 -0.02670930427 2.960002339e-20 0.006929520091 -1.789286599e-19 -1.274012018e-05)
(-0.1597745424 -0.08048408092 4.824467007e-20 0.1597793003 -8.851145989e-20 -4.757837476e-06)
(-0.1436470912 -0.08819251873 -7.505640533e-20 0.1436598014 -9.720065559e-20 -1.271017055e-05)
(-0.1292126225 -0.09050717561 -2.26936264e-20 0.1292323474 -1.978407355e-19 -1.972497872e-05)
(-0.1162704572 -0.08968475706 -5.111593709e-21 0.1162964785 4.83274321e-20 -2.602129346e-05)
(-0.1046289679 -0.08705025238 1.791937561e-19 0.1046607273 2.440923569e-20 -3.175942243e-05)
(-0.09410579371 -0.08339304468 2.086431791e-19 0.0941428501 2.153597256e-20 -3.705639765e-05)
(-0.0845513643 -0.07919714212 -1.142981884e-20 0.084593358 -4.349677165e-20 -4.199369922e-05)
(-0.07583319394 -0.07475972406 -1.676130345e-20 0.0758798151 -1.299902921e-21 -4.662115406e-05)
(-0.06784626059 -0.07026696013 1.484935754e-19 0.06789723641 9.866048737e-20 -5.097582043e-05)
(-0.06049907852 -0.06583508882 6.967997506e-20 0.06055413802 1.670494739e-19 -5.505949601e-05)
(-0.05372034546 -0.06153647368 2.385973301e-20 0.05377921146 4.655455597e-20 -5.886600203e-05)
(-0.04744850642 -0.0574175417 1.646811542e-19 0.04751086012 7.285955104e-20 -6.235370182e-05)
(-0.04163661558 -0.05350566669 2.818450028e-19 0.04170208497 1.135526468e-19 -6.546939135e-05)
(-0.03624491245 -0.04982076433 8.693914983e-20 0.03631302943 7.684872055e-20 -6.811697249e-05)
(-0.0312444333 -0.04637302283 1.192819918e-19 0.03131461225 1.49414476e-19 -7.017895487e-05)
(-0.02661199078 -0.04317404289 3.906557164e-20 0.02668347147 1.115983644e-19 -7.148069108e-05)
(-0.02233267754 -0.04022885644 -1.240149753e-19 0.02240448773 2.886500687e-20 -7.18101837e-05)
(-0.0183968212 -0.03754904699 -2.455950886e-19 0.01846769891 1.235458033e-19 -7.087770662e-05)
(-0.01480140846 -0.03514013923 3.635146009e-20 0.01486974509 2.144340472e-19 -6.833663686e-05)
(-0.01154875682 -0.03301799896 1.86924361e-19 0.01161249688 2.388988884e-19 -6.374005444e-05)
(-0.008646779412 -0.0311917302 9.822107654e-20 0.008703341553 2.352408921e-19 -5.656214143e-05)
(-0.006109768105 -0.029683934 -4.541978163e-20 0.006155919793 -5.593545321e-20 -4.615168842e-05)
(-0.003953424898 -0.02851189959 4.301588811e-19 0.003985167424 -2.593434273e-19 -3.1742526e-05)
(-0.002229482372 -0.02768779296 2.972353404e-19 0.00224188297 -3.393091684e-19 -1.240059819e-05)
(-0.1552618811 -0.08930917916 8.88358584e-20 0.155266496 -7.916988191e-20 -4.614877612e-06)
(-0.1367692213 -0.09615639096 -3.404162701e-21 0.1367815494 -1.809011446e-19 -1.232804707e-05)
(-0.1210347327 -0.09769173037 -7.84439932e-20 0.1210538644 -8.853909846e-21 -1.91316553e-05)
(-0.107443292 -0.09616519444 5.445381541e-20 0.1074685301 1.427891425e-19 -2.523805818e-05)
(-0.09555539664 -0.09289382529 9.664800748e-20 0.09558619885 3.386221747e-20 -3.080221608e-05)
(-0.08503681875 -0.08865857174 2.442228252e-19 0.08507275682 -4.175283555e-20 -3.593807937e-05)
(-0.07564254709 -0.08393621839 4.686381805e-20 0.07568327147 -5.124261303e-20 -4.072437916e-05)
(-0.06717899598 -0.07901730338 4.497859827e-21 0.06722420555 2.530583596e-20 -4.520956349e-05)
(-0.059501512 -0.07408263902 1.676783721e-19 0.05955094181 1.078551934e-19 -4.942980468e-05)
(-0.05249226973 -0.06924371101 1.405011726e-19 0.05254565662 1.323381528e-19 -5.338688979e-05)
(-0.04606268628 -0.06456914505 -1.476175267e-20 0.04611976128 4.184139597e-20 -5.707500603e-05)
(-0.04013914569 -0.06010211078 1.925873385e-19 0.04019959957 1.066407491e-19 -6.045388121e-05)
(-0.03466693428 -0.05586748223 3.184138719e-19 0.03473040643 -3.836004966e-20 -6.34721496e-05)
(-0.02960029266 -0.05188305048 2.271165887e-19 0.02966632948 -1.733889316e-19 -6.603682061e-05)
(-0.02490665462 -0.04815744672 2.846057754e-19 0.02497468886 -8.536624276e-20 -6.803423355e-05)
(-0.02055933127 -0.0447010294 1.890117239e-19 0.02062862654 -9.708301981e-20 -6.929526618e-05)
(-0.01654159182 -0.04151802467 6.38436344e-20 0.01661120639 -4.409541924e-20 -6.961456524e-05)
(-0.01284109159 -0.03861950434 2.749725062e-19 0.01290980276 -3.71653023e-20 -6.871117805e-05)
(-0.009453631789 -0.03601083005 -6.004997402e-20 0.009519880633 2.324342802e-19 -6.624884379e-05)
(-0.006378825351 -0.03370801039 -8.725273313e-21 0.006440619124 1.80385013e-19 -6.17937724e-05)
(-0.003623426028 -0.03172058169 1.692159519e-19 0.003678261834 3.136816483e-19 -5.483580531e-05)
(-0.001198547418 -0.0300719455 -1.716846181e-19 0.001243291004 2.739770476e-19 -4.47435852e-05)
(0.0008822584604 -0.02878025488 -4.377796644e-19 -0.0008514841915 -2.159577706e-19 -3.077426891e-05)
(0.002566287072 -0.02786048179 1.692459196e-19 -0.002554264554 -1.108566188e-19 -1.202251764e-05)
(-0.1502591295 -0.0979095742 3.693135149e-20 0.1502635867 -5.656737555e-21 -4.457180744e-06)
(-0.12947175 -0.1034354566 -5.432769271e-21 0.1294836565 -5.191547924e-20 -1.19065486e-05)
(-0.1124942441 -0.1039194908 -6.419200808e-20 0.1125127214 1.743155551e-19 -1.847731936e-05)
(-0.09830078942 -0.1015333435 4.986018963e-20 0.09832516396 7.682422519e-20 -2.437453036e-05)
(-0.08620648386 -0.09754302757 2.572741652e-20 0.08623623118 1.735564509e-22 -2.974732223e-05)
(-0.0757269617 -0.09269443967 2.728658393e-19 0.0757616679 -1.153738873e-19 -3.470619248e-05)
(-0.06652297234 -0.08744029285 1.536164647e-19 0.06656229917 -8.912109404e-20 -3.932682868e-05)
(-0.05834071964 -0.08205357234 1.626647944e-19 0.05838437576 -1.312319778e-19 -4.36561175e-05)
(-0.05099655853 -0.0767025901 3.229817223e-19 0.05104428769 -4.567391045e-20 -4.772915766e-05)
(-0.04434682021 -0.07148925734 3.561039965e-19 0.0443983679 -9.645470758e-20 -5.154768986e-05)
(-0.03828600383 -0.06647525988 3.668151922e-20 0.03834111003 -3.842308684e-20 -5.510620162e-05)
(-0.03272872411 -0.06169823471 3.74231912e-20 0.03278709002 1.102830238e-20 -5.836590139e-05)
(-0.02761271127 -0.05717906579 9.897494068e-20 0.02767398862 -8.062969272e-20 -6.127735653e-05)
(-0.02288638205 -0.05293225659 2.947309269e-20 0.02295013306 -9.510300721e-20 -6.375100482e-05)
(-0.0185136896 -0.04896416559 8.977478706e-20 0.01857936695 1.918134676e-19 -6.567735176e-05)
(-0.01446454558 -0.04528323042 6.79461149e-20 0.01453143899 1.83590791e-19 -6.689340531e-05)
(-0.01072045818 -0.04189250848 -9.682546943e-20 0.0107876593 -6.804649067e-20 -6.720112764e-05)
(-0.007266461952 -0.03880206969 1.161384885e-19 0.007332791248 -2.273021966e-20 -6.632929659e-05)
(-0.004097191313 -0.03601689964 5.040980964e-19 0.004161144391 3.640937888e-19 -6.39530777e-05)
(-0.001209567168 -0.033552695 2.589300982e-19 0.001269220334 2.094790075e-19 -5.965316574e-05)
(0.001390833452 -0.03141925345 6.271395542e-19 -0.001337896757 6.169464326e-20 -5.29366955e-05)
(0.003696098465 -0.02964028279 2.199783551e-19 -0.003652904367 -4.480943932e-19 -4.319409757e-05)
(0.00569486146 -0.02823448649 -4.86388545e-19 -0.00566515307 -4.556964516e-19 -2.970838983e-05)
(0.007333623319 -0.02721998751 -9.240860848e-20 -0.007322017335 2.568038217e-20 -1.160598421e-05)
(-0.1447726192 -0.1062571468 2.126924816e-20 0.1447769044 5.491464784e-20 -4.285196087e-06)
(-0.1218415176 -0.1100140106 -7.455565968e-21 0.1218529646 7.197573217e-20 -1.144691874e-05)
(-0.1037265527 -0.1091830898 -5.137611407e-20 0.1037443166 1.781995982e-19 -1.776391321e-05)
(-0.08900702692 -0.1057875598 4.412509284e-20 0.08903046019 8.129027826e-21 -2.343326739e-05)
(-0.07676239342 -0.1010002163 -6.249057947e-20 0.07679099127 -5.446626637e-20 -2.859784867e-05)
(-0.06636438735 -0.09550585069 1.136487319e-19 0.06639775168 -5.879217304e-20 -3.336432888e-05)
(-0.05738358189 -0.08971662132 1.127564961e-19 0.05742138699 -8.756046502e-20 -3.780509904e-05)
(-0.0495087201 -0.08387729224 -6.17445503e-20 0.04955068539 -7.319859534e-20 -4.196528523e-05)
(-0.04251902615 -0.07813669519 1.45569335e-19 0.04256490493 -1.279040769e-21 -4.58787809e-05)
(-0.03624631273 -0.07258245948 3.225961236e-19 0.03629585993 8.955847795e-25 -4.954720506e-05)
(-0.0305690758 -0.06726620708 2.949103545e-19 0.03062204114 -2.161503499e-20 -5.296534562e-05)
(-0.0253908469 -0.06221782482 1.258010958e-19 0.02544694284 8.62861405e-20 -5.609594173e-05)
(-0.02064227174 -0.05745275531 8.380105585e-20 0.02070116339 8.184232407e-20 -5.889165021e-05)
(-0.01626632153 -0.05298108267 2.331495759e-19 0.01632758809 8.041077543e-20 -6.126656831e-05)
(-0.01222371652 -0.0488061971 4.36658172e-19 0.01228683226 2.680003911e-19 -6.31157453e-05)
(-0.008481189731 -0.04493395499 3.258418468e-19 0.008545472557 -1.886025209e-19 -6.428282622e-05)
(-0.005018614656 -0.04136589234 -8.360312885e-20 0.005083192438 -3.306706692e-19 -6.457778187e-05)
(-0.001818541118 -0.03811059863 1.332495306e-19 0.001882281117 3.010655762e-20 -6.373999885e-05)
(0.001125508174 -0.03517247536 5.779129038e-19 -0.001064051031 -1.078982138e-19 -6.145714299e-05)
(0.003819215648 -0.0325664612 1.470396369e-19 -0.003761889929 -4.056620871e-19 -5.732571935e-05)
(0.006258170983 -0.03030244607 -2.040769442e-21 -0.006207299332 -4.869862931e-19 -5.087165034e-05)
(0.008437606503 -0.02840395649 2.045485234e-19 -0.008396097335 -6.251479198e-19 -4.150916831e-05)
(0.01034832684 -0.02688993599 -2.552955882e-19 -0.01031977758 -7.8587877e-20 -2.854926193e-05)
(0.01193628249 -0.02578198539 4.492836294e-20 -0.01192512945 1.828201598e-19 -1.115303353e-05)
(-0.1388105158 -0.1143230112 1.4751843e-20 0.1388146153 8.207078851e-20 -4.099467299e-06)
(-0.1139643037 -0.1158891504 5.370750397e-20 0.1139752543 7.005947017e-20 -1.095057805e-05)
(-0.09486418803 -0.1134961994 -4.858299186e-20 0.09488118164 1.431052318e-19 -1.699361098e-05)
(-0.07972209225 -0.1089521541 9.601201565e-20 0.07974450936 -1.189706437e-19 -2.241710813e-05)
(-0.06739861324 -0.1032965103 -5.199358333e-20 0.06742597046 -7.312400985e-20 -2.735721667e-05)
(-0.05713218295 -0.09712821873 2.640647497e-20 0.05716409939 4.699673499e-20 -3.191644171e-05)
(-0.04841002526 -0.09080324171 1.663647719e-19 0.04844618888 -1.508938032e-20 -3.616361784e-05)
(-0.0408679682 -0.08452800818 4.609492318e-20 0.04090811015 2.108286375e-20 -4.014195251e-05)
(-0.03425114553 -0.07842525706 1.427078441e-20 0.03429502951 1.261818995e-19 -4.388397342e-05)
(-0.02836897574 -0.07256388148 1.038763779e-19 0.0284163669 1.339812956e-19 -4.739115734e-05)
(-0.02308539925 -0.06698248631 2.009205939e-19 0.02313605779 1.979770484e-20 -5.065854362e-05)
(-0.01829393128 -0.0617011146 2.865320274e-19 0.01834758179 7.017944325e-20 -5.365051534e-05)
(-0.01391885492 -0.05672839926 2.356100531e-19 0.01397517682 -2.111116756e-19 -5.632190462e-05)
(-0.009898270223 -0.05206893878 -3.738391315e-20 0.009956860981 -5.665406513e-20 -5.859075743e-05)
(-0.006190033858 -0.04772250081 3.476467796e-19 0.00625039081 -2.128051336e-19 -6.035695283e-05)
(-0.002758035243 -0.04369173837 1.157107263e-19 0.00281950656 -3.96295115e-19 -6.147131684e-05)
(0.0004192987012 -0.03997633436 2.861809669e-20 -0.0003575462923 -2.110317936e-19 -6.175240885e-05)
(0.003361685618 -0.0365829452 -8.669180769e-20 -0.003300734493 -6.959437526e-20 -6.095112434e-05)
(0.00607662404 -0.03351519118 1.412143677e-19 -0.006017855422 4.786549953e-20 -5.876861724e-05)