/*--------------------------------*- C++ -*----------------------------------*\
| =========                 |                                                 |
| \\      /  F ield         | foam-extend: Open Source CFD                    |
|  \\    /   O peration     | Version:  3.0                                   |
|   \\  /    A nd           | Web:         http://www.extend-project.de       |
|    \\/     M anipulation  |                                                 |
\*---------------------------------------------------------------------------*/
FoamFile
{
    version     2.0;
    format      ascii;
    class       volScalarField;
    location    "7";
    object      p;
}
// * * * * * * * * * * * * * * * * * * * * * * * * * * * * * * * * * * * * * //

dimensions      [0 0 0 0 0 0 0];

internalField   nonuniform List<scalar> 
400
(
1.44087
0.806602
0.818775
0.623963
0.813282
0.736088
0.956695
0.909281
1.12682
1.08577
1.29983
1.25701
1.47009
1.41395
1.61444
1.51636
1.65844
1.44343
1.40164
0.828671
2.26256
1.73932
1.66112
1.38106
1.44651
1.25407
1.3505
1.18851
1.28421
1.1295
1.21773
1.05722
1.13645
0.959018
1.02335
0.812687
0.835465
0.552679
0.445158
-0.0139867
1.90283
1.41579
1.39981
1.18122
1.28662
1.14842
1.28154
1.16533
1.30412
1.19095
1.33378
1.21563
1.36216
1.23053
1.36973
1.20588
1.2995
1.05631
1.00698
0.564015
1.93845
1.58534
1.51882
1.32881
1.3669
1.22838
1.29104
1.16512
1.23127
1.10768
1.17675
1.05284
1.1275
0.998519
1.07203
0.921044
0.957477
0.739517
0.643579
0.280574
1.6427
1.30207
1.30222
1.15092
1.24296
1.14445
1.26247
1.17536
1.3092
1.2236
1.3797
1.29419
1.47859
1.38787
1.59088
1.47093
1.64128
1.42414
1.42447
0.962032
1.54471
1.28024
1.25826
1.14438
1.18593
1.10646
1.15921
1.08434
1.1429
1.07112
1.14548
1.08217
1.18488
1.12973
1.26236
1.18996
1.31394
1.13442
1.10898
0.599671
1.37511
1.14992
1.16958
1.08654
1.15932
1.10293
1.19501
1.13928
1.25634
1.20132
1.36127
1.31397
1.53637
1.49782
1.78745
1.72793
2.0335
1.8341
1.94824
1.26417
1.21702
1.08589
1.09101
1.0456
1.06927
1.03082
1.05428
1.01094
1.04218
1.00213
1.0596
1.03748
1.14529
1.15011
1.32628
1.33137
1.54742
1.41038
1.47262
0.740725
1.10997
1.07299
1.09129
1.07841
1.10467
1.0789
1.11954
1.07995
1.15158
1.10874
1.23718
1.20799
1.42821
1.42606
1.7691
1.77066
2.20978
2.05466
2.33496
1.43872
0.913935
0.994875
1.00868
1.03148
1.01461
1.00163
0.976125
0.942971
0.923535
0.887865
0.89509
0.88161
0.947405
0.981439
1.1424
1.21509
1.46856
1.41916
1.5592
0.741608
0.841288
1.04772
1.04863
1.10589
1.07195
1.06747
1.04257
1.00404
1.00656
0.953204
1.00954
0.96785
1.12395
1.12567
1.44361
1.49356
2.00217
1.9507
2.43158
1.53899
0.639439
0.952852
0.969954
1.05731
0.997402
1.00152
0.92255
0.884171
0.80059
0.743769
0.671966
0.629878
0.602213
0.620993
0.687346
0.800568
0.995213
1.09652
1.27268
0.686417
0.604559
1.03261
1.01766
1.13808
1.05533
1.0681
0.981855
0.934253
0.85729
0.773385
0.72592
0.638896
0.66775
0.629309
0.820266
0.886545
1.34689
1.46527
2.14249
1.63643
0.443381
0.936972
0.960976
1.10319
1.01542
1.03389
0.910351
0.857874
0.708903
0.61185
0.445952
0.341259
0.182472
0.134196
0.0337985
0.136475
0.164596
0.46102
0.598035
0.678858
0.46887
1.02808
1.01272
1.18263
1.07716
1.10531
0.972499
0.909896
0.756149
0.62849
0.463986
0.305362
0.163973
0.0388213
0.00813568
0.0352161
0.295138
0.615734
1.40742
1.76427
0.41141
0.983263
1.01567
1.1966
1.0985
1.12801
0.971789
0.899983
0.693434
0.546686
0.289494
0.10079
-0.200024
-0.362573
-0.669911
-0.654028
-0.876371
-0.409774
-0.412525
0.771999
0.540013
1.09796
1.09634
1.29475
1.18624
1.22272
1.05578
0.973333
0.754536
0.579663
0.307838
0.0671619
-0.250715
-0.497977
-0.804727
-0.893393
-0.987988
-0.523494
0.153811
1.79194
0.673982
1.18668
1.21396
1.40571
1.29833
1.32525
1.14097
1.04427
0.793684
0.599265
0.272728
-0.000136431
-0.420067
-0.723314
-1.22959
-1.3932
-1.89618
-1.42054
-1.67245
0.810947
0.961275
1.3646
1.36882
1.55999
1.44034
1.46294
1.26341
1.15399
0.888314
0.67337
0.327536
0.0165385
-0.438166
-0.816304
-1.38209
-1.67035
-2.21579
-1.82513
-1.73253
1.23173
1.40824
1.69104
1.66907
1.81628
1.67012
1.65718
1.44143
1.30857
1.03572
0.804556
0.45294
0.118296
-0.356359
-0.794399
-1.42479
-1.86116
-2.58284
-2.47631
-3.00443
0.105269
)
;

boundaryField
{
    cavity
    {
        type            implicitExtrapolation;
    }
    lid
    {
        type            implicitExtrapolation;
    }
    frontAndBack
    {
        type            empty;
    }
}


// ************************************************************************* //
