/*--------------------------------*- C++ -*----------------------------------*\
| =========                 |                                                 |
| \\      /  F ield         | foam-extend: Open Source CFD                    |
|  \\    /   O peration     | Version:  3.0                                   |
|   \\  /    A nd           | Web:         http://www.extend-project.de       |
|    \\/     M anipulation  |                                                 |
\*---------------------------------------------------------------------------*/
FoamFile
{
    version     2.0;
    format      ascii;
    class       volVectorField;
    location    "7";
    object      s;
}
// * * * * * * * * * * * * * * * * * * * * * * * * * * * * * * * * * * * * * //

dimensions      [0 0 0 0 0 0 0];

internalField   nonuniform List<vector> 
400
(
(-0.0127935 0.0234143 9.40429e-318)
(-0.0214426 0.0340305 1.6416e-317)
(-0.0462574 0.0353608 1.85649e-317)
(-0.0595071 0.0294212 1.86021e-317)
(-0.0781119 0.0250013 1.77668e-317)
(-0.0890798 0.0186077 1.65846e-317)
(-0.100834 0.0140384 1.52974e-317)
(-0.107753 0.00887155 1.4039e-317)
(-0.113321 0.00464879 1.28258e-317)
(-0.115649 6.40697e-05 1.17226e-317)
(-0.115356 -0.00429203 1.06858e-317)
(-0.11269 -0.00912178 9.7641e-318)
(-0.106298 -0.0140074 8.90703e-318)
(-0.098377 -0.0195178 8.1408e-318)
(-0.0854853 -0.0246802 7.42829e-318)
(-0.0728569 -0.0305497 6.75267e-318)
(-0.0537819 -0.0344887 6.07281e-318)
(-0.0391452 -0.0383647 5.27996e-318)
(-0.0165202 -0.0355151 4.15271e-318)
(-0.00764814 -0.0230912 2.16455e-318)
(-0.0140977 0.0140382 1.18805e-317)
(-0.0320669 0.0320039 2.313e-317)
(-0.0602013 0.0394543 2.77839e-317)
(-0.0810006 0.0390834 2.89888e-317)
(-0.104804 0.0349639 2.84703e-317)
(-0.121979 0.0284688 2.71558e-317)
(-0.138444 0.0213289 2.54701e-317)
(-0.149329 0.013695 2.37116e-317)
(-0.157541 0.00606364 2.19337e-317)
(-0.16108 -0.0016571 2.02677e-317)
(-0.160705 -0.00942316 1.86604e-317)
(-0.156387 -0.0171809 1.71943e-317)
(-0.147194 -0.0248833 1.57905e-317)
(-0.135012 -0.0321499 1.44952e-317)
(-0.117287 -0.0385749 1.32229e-317)
(-0.0984714 -0.0432007 1.19606e-317)
(-0.0741436 -0.0448585 1.05812e-317)
(-0.052504 -0.0415879 8.93445e-318)
(-0.0264933 -0.0311414 6.64973e-318)
(-0.00951351 -0.0118662 3.11273e-318)
(-0.0139891 0.0426945 1.04518e-317)
(-0.0309514 0.0767858 2.12585e-317)
(-0.0590149 0.08726 2.63832e-317)
(-0.0790061 0.0829857 2.83004e-317)
(-0.101732 0.0734486 2.84431e-317)
(-0.118205 0.0597571 2.76659e-317)
(-0.13387 0.0455036 2.63847e-317)
(-0.144541 0.0302576 2.49101e-317)
(-0.152652 0.0151591 2.33277e-317)
(-0.156544 -0.000305994 2.17775e-317)
(-0.156707 -0.0158848 2.02346e-317)
(-0.153165 -0.0317168 1.87792e-317)
(-0.14488 -0.0475749 1.73468e-317)
(-0.133563 -0.0629609 1.59744e-317)
(-0.11669 -0.0769935 1.45715e-317)
(-0.0983736 -0.0882741 1.31111e-317)
(-0.0742754 -0.0943934 1.14411e-317)
(-0.0524503 -0.0925167 9.41404e-318)
(-0.02564 -0.0767665 6.70038e-318)
(-0.0088174 -0.0394227 2.86955e-318)
(-0.00976925 0.0429547 7.54485e-318)
(-0.0240732 0.0826871 1.61414e-317)
(-0.0442473 0.0968333 2.08004e-317)
(-0.0601904 0.0941853 2.30853e-317)
(-0.0778343 0.0842472 2.38966e-317)
(-0.0913025 0.0694237 2.38621e-317)
(-0.104227 0.0530885 2.32835e-317)
(-0.113436 0.0355294 2.24273e-317)
(-0.120715 0.0176502 2.13772e-317)
(-0.124721 -0.000718415 2.0264e-317)
(-0.125698 -0.0194994 1.90857e-317)
(-0.123757 -0.0385497 1.79132e-317)
(-0.11773 -0.0578077 1.67013e-317)
(-0.109261 -0.0761817 1.54736e-317)
(-0.0958058 -0.0930439 1.41441e-317)
(-0.0810279 -0.105547 1.2667e-317)
(-0.0611844 -0.111801 1.08945e-317)
(-0.0426738 -0.106256 8.67177e-318)
(-0.02108 -0.0845439 5.80418e-318)
(-0.00591112 -0.0383061 2.09717e-318)
(-0.00838667 0.0535951 4.54227e-318)
(-0.0180793 0.101182 1.06423e-317)
(-0.0340986 0.117277 1.45644e-317)
(-0.0454414 0.114086 1.70163e-317)
(-0.0591079 0.102233 1.83713e-317)
(-0.0691449 0.0847325 1.90052e-317)
(-0.0794094 0.0654032 1.90991e-317)
(-0.086895 0.044502 1.88557e-317)
(-0.0933059 0.0231209 1.83516e-317)
(-0.0974939 0.000909378 1.77045e-317)
(-0.0994769 -0.0219943 1.69304e-317)
(-0.0995717 -0.0455835 1.60974e-317)
(-0.0961352 -0.069754 1.51806e-317)
(-0.0911561 -0.0932892 1.4203e-317)
(-0.0810606 -0.115428 1.30984e-317)
(-0.0703835 -0.132536 1.18245e-317)
(-0.0532797 -0.142438 1.02558e-317)
(-0.0384536 -0.137433 8.25286e-318)
(-0.0176549 -0.112539 5.6328e-318)
(-0.00586392 -0.0538586 2.17174e-318)
(-0.00568623 0.0536701 1.73529e-318)
(-0.0118756 0.102767 5.46478e-318)
(-0.0217372 0.120381 8.61279e-318)
(-0.0286989 0.117681 1.11108e-317)
(-0.0376568 0.106184 1.28867e-317)
(-0.0443733 0.0885031 1.40857e-317)
(-0.0517751 0.0689217 1.47784e-317)
(-0.0575777 0.0474449 1.51035e-317)
(-0.0630499 0.0253394 1.51245e-317)
(-0.0674039 0.0020489 1.49417e-317)
(-0.0703819 -0.0222575 1.45863e-317)
(-0.0725369 -0.0477441 1.412e-317)
(-0.0718629 -0.0743228 1.35404e-317)
(-0.0705817 -0.10075 1.28688e-317)
(-0.0643864 -0.126202 1.20602e-317)
(-0.0582334 -0.146333 1.10755e-317)
(-0.0448498 -0.158666 9.80435e-318)
(-0.0340282 -0.153274 8.0984e-318)
(-0.0151794 -0.124957 5.73764e-318)
(-0.00589012 -0.0571578 2.38013e-318)
(-0.00408323 0.0556346 -2.43431e-319)
(-0.00681443 0.106574 1.65039e-318)
(-0.0123864 0.125014 4.09512e-318)
(-0.0155737 0.122583 6.50262e-318)
(-0.0208007 0.111251 8.49426e-318)
(-0.0245901 0.0933532 1.00414e-317)
(-0.0294977 0.0736103 1.11339e-317)
(-0.0337062 0.0516549 1.18551e-317)
(-0.038228 0.0290332 1.2256e-317)
(-0.0426153 0.00480347 1.24192e-317)
(-0.0463677 -0.0207137 1.23834e-317)
(-0.0503841 -0.0481251 1.22066e-317)
(-0.0521659 -0.0771781 1.18999e-317)
(-0.0545108 -0.107116 1.14873e-317)
(-0.0518129 -0.136643 1.09433e-317)
(-0.050373 -0.161684 1.02339e-317)
(-0.0397999 -0.178463 9.26484e-318)
(-0.0333303 -0.176332 7.879e-318)
(-0.013987 -0.147246 5.80176e-318)
(-0.00792455 -0.070731 2.57232e-318)
(-0.00190584 0.0536456 -1.61004e-318)
(-0.00232339 0.102845 -1.09189e-318)
(-0.00299457 0.121427 7.41849e-319)
(-0.00298137 0.119299 2.96626e-318)
(-0.0042704 0.10906 5.02592e-318)
(-0.00536346 0.0920346 6.76865e-318)
(-0.00762089 0.0734776 8.12268e-318)
(-0.0101613 0.0524564 9.12626e-318)
(-0.0134527 0.0308174 9.81404e-318)
(-0.0175278 0.00720667 1.02517e-317)
(-0.0216634 -0.0179346 1.04803e-317)
(-0.0270275 -0.0456751 1.05524e-317)
(-0.0309745 -0.075703 1.04892e-317)
(-0.0364555 -0.107815 1.03163e-317)
(-0.0374484 -0.140475 1.00207e-317)
(-0.0404325 -0.169859 9.57702e-318)
(-0.0337074 -0.191267 8.89683e-318)
(-0.031367 -0.192585 7.82245e-318)
(-0.0132708 -0.163522 6.0196e-318)
(-0.00931318 -0.0785995 2.8973e-318)
(-1.14254e-06 0.0513777 -2.19696e-318)
(0.0015882 0.0988992 -2.52749e-318)
(0.00501643 0.117133 -1.2067e-318)
(0.00760624 0.115553 7.42813e-319)
(0.00970383 0.10632 2.70806e-318)
(0.0109419 0.090407 4.46551e-318)
(0.0111746 0.0731778 5.90982e-318)
(0.0103315 0.0533785 7.04202e-318)
(0.00850142 0.033056 7.88247e-318)
(0.00513016 0.0104822 8.47883e-318)
(0.00116095 -0.0137322 8.86801e-318)
(-0.00496222 -0.0412574 9.0945e-318)
(-0.0103913 -0.0715343 9.18211e-318)
(-0.0186034 -0.10542 9.15371e-318)
(-0.0227651 -0.140614 9.00363e-318)
(-0.0305311 -0.174926 8.70901e-318)
(-0.0273669 -0.201246 8.1909e-318)
(-0.0306395 -0.209067 7.2996e-318)
(-0.0126632 -0.181823 5.68892e-318)
(-0.013002 -0.0922589 2.78468e-318)
(0.00172299 0.047036 -2.38162e-318)
(0.00476364 0.0908743 -3.22173e-318)
(0.0120891 0.108454 -2.3175e-318)
(0.0169645 0.107327 -6.70837e-319)
(0.0223873 0.0995039 1.12278e-318)
(0.0259047 0.0851463 2.80723e-318)
(0.0287509 0.069814 4.25321e-318)
(0.0298322 0.0518811 5.43577e-318)
(0.0298435 0.033571 6.35788e-318)
(0.0277592 0.0128686 7.05311e-318)
(0.0246086 -0.00953378 7.55013e-318)
(0.0187059 -0.0357594 7.88693e-318)
(0.0125377 -0.0652355 8.08476e-318)
(0.00288974 -0.0996542 8.16381e-318)
(-0.00417369 -0.13659 8.11832e-318)
(-0.0153304 -0.174958 7.92833e-318)
(-0.0169842 -0.206749 7.51384e-318)
(-0.0245022 -0.221261 6.74399e-318)
(-0.010685 -0.198289 5.28772e-318)
(-0.0130322 -0.104079 2.62276e-318)
(0.00374375 0.0429125 -2.18267e-318)
(0.00751184 0.0830797 -3.24576e-318)
(0.0182991 0.0992776 -2.67324e-318)
(0.0247197 0.0987411 -1.34101e-318)
(0.0330095 0.0919825 2.21203e-319)
(0.0383879 0.0792918 1.75201e-318)
(0.0436691 0.0657773 3.11558e-318)
(0.0466351 0.0498539 4.26592e-318)
(0.0486749 0.033705 5.19412e-318)
(0.0482341 0.0151855 5.91754e-318)
(0.0465092 -0.00491954 6.45734e-318)
(0.041513 -0.0291912 6.8401e-318)
(0.0355689 -0.05683 7.08245e-318)
(0.0251132 -0.0907208 7.19659e-318)
(0.0161427 -0.127655 7.1747e-318)
(0.00117633 -0.169133 6.99209e-318)
(-0.00466376 -0.204232 6.57445e-318)
(-0.0192431 -0.226464 5.80794e-318)
(-0.0080825 -0.206657 4.42588e-318)
(-0.0176114 -0.113376 2.06698e-318)
(0.00457831 0.0365954 -1.85141e-318)
(0.00946623 0.0724825 -2.9785e-318)
(0.0227411 0.0875973 -2.65967e-318)
(0.0308838 0.0876365 -1.61171e-318)
(0.0416901 0.0821781 -2.84562e-319)
(0.0490086 0.0712318 1.07312e-318)
(0.0566435 0.0596887 2.32242e-318)
(0.0616539 0.0459355 3.40625e-318)
(0.0659138 0.0321228 4.30414e-318)
(0.0676095 0.0160893 5.02133e-318)
(0.067891 -0.00138805 5.57099e-318)
(0.0649113 -0.0230709 5.97228e-318)
(0.0601552 -0.0482382 6.23532e-318)
(0.0508743 -0.0804249 6.36738e-318)
(0.0408107 -0.116613 6.35465e-318)
(0.025028 -0.159752 6.17145e-318)
(0.0139001 -0.198812 5.74382e-318)
(-0.00368025 -0.228766 4.97655e-318)
(-0.00209958 -0.217238 3.67277e-318)
(-0.0127658 -0.127357 1.60139e-318)
(0.00623565 0.0322888 -1.57469e-318)
(0.010654 0.0633772 -2.66553e-318)
(0.0261767 0.0763602 -2.50212e-318)
(0.0349583 0.0767091 -1.67324e-318)
(0.0477522 0.0720171 -5.52272e-319)
(0.056349 0.0627381 6.34835e-319)
(0.0659141 0.0529301 1.75752e-318)
(0.0725976 0.0413013 2.75316e-318)
(0.0789087 0.0297411 3.59526e-318)
(0.0826806 0.0162401 4.27997e-318)
(0.0852325 0.00156273 4.81314e-318)
(0.0845657 -0.0171354 5.20518e-318)
(0.0818786 -0.0390051 5.46134e-318)
(0.0741908 -0.068306 5.58106e-318)
(0.0645603 -0.101522 5.54793e-318)
(0.0473404 -0.144039 5.33091e-318)
(0.032924 -0.182466 4.86599e-318)
(0.0079991 -0.217522 4.07159e-318)
(0.00421678 -0.20781 2.83066e-318)
(-0.0177516 -0.124184 1.05093e-318)
(0.00595734 0.0250033 -1.16396e-318)
(0.011306 0.0522701 -2.14939e-318)
(0.0276879 0.0638303 -2.11574e-318)
(0.0377252 0.0646771 -1.48797e-318)
(0.0519886 0.0609101 -5.7157e-319)
(0.0619337 0.0532091 4.38454e-319)
(0.0730855 0.0451047 1.4182e-318)
(0.0813336 0.0354939 2.30494e-318)
(0.0895059 0.0260714 3.06684e-318)
(0.0954572 0.0150235 3.69489e-318)
(0.10044 0.00305239 4.1883e-318)
(0.102872 -0.0125213 4.55342e-318)
(0.10297 -0.0309561 4.79043e-318)
(0.0990403 -0.056621 4.89625e-318)
(0.0908802 -0.0864491 4.85205e-318)
(0.0768051 -0.12689 4.62835e-318)
(0.0583601 -0.165634 4.16873e-318)
(0.0344871 -0.206348 3.40651e-318)
(0.0153315 -0.20724 2.28066e-318)
(-0.00386334 -0.138792 7.61098e-319)
(0.00650758 0.0215513 -1.2378e-318)
(0.0103724 0.0434089 -2.06437e-318)
(0.0273152 0.0524432 -2.01766e-318)
(0.0371491 0.0530808 -1.46978e-318)
(0.0520787 0.0498104 -6.75408e-319)
(0.062377 0.0435497 2.07705e-319)
(0.0742641 0.0369357 1.07426e-318)
(0.0832525 0.0292176 1.86721e-318)
(0.092557 0.0217048 2.55561e-318)
(0.099951 0.0129266 3.12893e-318)
(0.106921 0.00346709 3.58345e-318)
(0.111814 -0.00900536 3.92006e-318)
(0.114905 -0.0237894 4.13763e-318)
(0.114112 -0.0450448 4.22873e-318)
(0.109002 -0.0697936 4.17549e-318)
(0.0964579 -0.10521 3.94881e-318)
(0.0781114 -0.138592 3.50631e-318)
(0.0487311 -0.177447 2.79365e-318)
(0.024758 -0.175804 1.79508e-318)
(-0.0100501 -0.114166 5.22766e-319)
(0.00524015 0.0147918 -6.40284e-319)
(0.00967043 0.0336322 -1.36632e-318)
(0.0262806 0.0408525 -1.43374e-318)
(0.0367307 0.0417494 -1.06677e-318)
(0.0520215 0.0390333 -4.57994e-319)
(0.0625755 0.0340845 2.50185e-319)
(0.0747972 0.0288773 9.63527e-319)
(0.0841211 0.0228348 1.62634e-318)
(0.0940957 0.0170588 2.20813e-318)
(0.102629 0.0102841 2.69464e-318)
(0.11124 0.00309624 3.08201e-318)
(0.118845 -0.00653165 3.36778e-318)
(0.124959 -0.0178586 3.54976e-318)
(0.129082 -0.0347286 3.62173e-318)
(0.127528 -0.0544415 3.56638e-318)
(0.122022 -0.0845939 3.36204e-318)
(0.102877 -0.113996 2.97526e-318)
(0.0816804 -0.154395 2.36611e-318)
(0.0392915 -0.162736 1.53479e-318)
(0.0173983 -0.129827 4.86413e-319)
(0.00392659 0.01251 -1.11983e-318)
(0.0063248 0.0254811 -1.58743e-318)
(0.0213688 0.0301829 -1.52389e-318)
(0.03063 0.0304693 -1.13736e-318)
(0.0445471 0.0282883 -5.91011e-319)
(0.0540589 0.0246657 2.3814e-320)
(0.0650452 0.0207803 6.34519e-319)
(0.0735186 0.0163645 1.20088e-318)
(0.0827567 0.0120314 1.69959e-318)
(0.0909562 0.00701302 2.11852e-318)
(0.0998064 0.00161257 2.45427e-318)
(0.108052 -0.00548638 2.70427e-318)
(0.116041 -0.0138813 2.86506e-318)
(0.12219 -0.0261608 2.93023e-318)
(0.124718 -0.0406223 2.88663e-318)
(0.1218 -0.0625326 2.71546e-318)
(0.108059 -0.0838261 2.397e-318)
(0.0844432 -0.112468 1.90479e-318)
(0.0461009 -0.113208 1.25018e-318)
(0.0055132 -0.0761964 4.30969e-319)
(0.00207606 0.00771086 1.78654e-320)
(0.00479436 0.0181758 -5.69505e-319)
(0.0192363 0.0208913 -7.11198e-319)
(0.0279074 0.0212631 -5.6447e-319)
(0.0411305 0.0194775 -2.17428e-319)
(0.0492171 0.0168921 2.05368e-319)
(0.0591757 0.014228 6.45951e-319)
(0.0663102 0.0111137 1.05926e-318)
(0.0746778 0.00823799 1.42586e-318)
(0.0822676 0.00472684 1.73345e-318)
(0.0909535 0.00119841 1.97865e-318)
(0.100056 -0.00371395 2.15966e-318)
(0.109293 -0.00907598 2.27361e-318)
(0.119074 -0.0175793 2.31695e-318)
(0.124806 -0.0267353 2.27886e-318)
(0.130367 -0.0429037 2.14764e-318)
(0.119156 -0.0572242 1.90791e-318)
(0.111722 -0.085334 1.5445e-318)
(0.0578668 -0.0920718 1.06262e-318)
(0.0498952 -0.09792 4.40173e-319)
(-0.000666568 0.00597359 -8.8542e-319)
(3.7078e-06 0.00993517 -1.01718e-318)
(0.00936016 0.0108909 -9.26758e-319)
(0.0150477 0.0108266 -6.94128e-319)
(0.0232885 0.00994319 -4.03849e-319)
(0.0285702 0.00879337 -8.79042e-320)
(0.0344975 0.0073064 2.2147e-319)
(0.0390266 0.00568453 5.06936e-319)
(0.0441126 0.00382736 7.58653e-319)
(0.0488862 0.00172002 9.70987e-319)
(0.0547028 -0.000731319 1.14215e-318)
(0.0605289 -0.0037272 1.27076e-318)
(0.0677026 -0.00734967 1.35463e-318)
(0.0741054 -0.0119858 1.39132e-318)
(0.0807163 -0.0176518 1.37411e-318)
(0.0838179 -0.0247265 1.29624e-318)
(0.081642 -0.0326189 1.15275e-318)
(0.0711862 -0.039476 9.39145e-319)
(0.0436839 -0.0389539 6.63901e-319)
(0.0146221 -0.0114225 3.11691e-319)
(-0.00114753 0.00319573 6.46757e-319)
(0.000723211 0.0059962 1.45878e-319)
(0.00874804 0.00570342 -3.29542e-321)
(0.0117404 0.00568488 -3.81616e-320)
(0.0181285 0.00504378 4.79392e-320)
(0.0201547 0.00430644 1.58254e-319)
(0.0243664 0.00387642 2.81711e-319)
(0.0262255 0.00309982 3.95173e-319)
(0.0295879 0.0027947 4.95558e-319)
(0.032307 0.00199943 5.78151e-319)
(0.0360888 0.00172461 6.43219e-319)
(0.0406211 0.000660199 6.91045e-319)
(0.0455021 0.00034663 7.21272e-319)
(0.0525765 -0.00157365 7.33455e-319)
(0.057614 -0.00192885 7.24216e-319)
(0.0670457 -0.00644244 6.90679e-319)
(0.0655058 -0.00647425 6.27696e-319)
(0.0755572 -0.0201691 5.31526e-319)
(0.0413564 -0.018271 4.09704e-319)
(0.0651346 -0.0578173 2.44399e-319)
)
;

boundaryField
{
    cavity
    {
        type            myHeatFlux;
        ThetaWall       uniform 0;
        value           nonuniform List<vector> 
60
(
(0.001 0 0)
(0.001 0 0)
(0.001 0 0)
(0.001 0 0)
(0.001 0 0)
(0.001 0 0)
(0.001 0 0)
(0.001 0 0)
(0.001 0 0)
(0.001 0 0)
(0.001 0 0)
(0.001 0 0)
(0.001 0 0)
(0.001 0 0)
(0.001 0 0)
(0.001 0 0)
(0.001 0 0)
(0.001 0 0)
(0.001 0 0)
(0.001 0 0)
(0 -0.001 0)
(0 -0.001 0)
(0 -0.001 0)
(0 -0.001 0)
(0 -0.001 0)
(0 -0.001 0)
(0 -0.001 0)
(0 -0.001 0)
(0 -0.001 0)
(0 -0.001 0)
(0 -0.001 0)
(0 -0.001 0)
(0 -0.001 0)
(0 -0.001 0)
(0 -0.001 0)
(0 -0.001 0)
(0 -0.001 0)
(0 -0.001 0)
(0 -0.001 0)
(0 -0.001 0)
(-0.001 0 0)
(-0.001 0 0)
(-0.001 0 0)
(-0.001 0 0)
(-0.001 0 0)
(-0.001 0 0)
(-0.001 0 0)
(-0.001 0 0)
(-0.001 0 0)
(-0.001 0 0)
(-0.001 0 0)
(-0.001 0 0)
(-0.001 0 0)
(-0.001 0 0)
(-0.001 0 0)
(-0.001 0 0)
(-0.001 0 0)
(-0.001 0 0)
(-0.001 0 0)
(-0.001 0 0)
)
;
    }
    lid
    {
        type            myHeatFlux;
        ThetaWall       uniform 0;
        value           nonuniform List<vector> 
20
(
(0.000135815 0.0009 0)
(0.000135815 0.0009 0)
(0.000135815 0.0009 0)
(0.000135815 0.0009 0)
(0.000135815 0.0009 0)
(0.000135815 0.0009 0)
(0.000135815 0.0009 0)
(0.000135815 0.0009 0)
(0.000135815 0.0009 0)
(0.000135815 0.0009 0)
(0.000135815 0.0009 0)
(0.000135815 0.0009 0)
(0.000135815 0.0009 0)
(0.000135815 0.0009 0)
(0.000135815 0.0009 0)
(0.000135815 0.0009 0)
(0.000135815 0.0009 0)
(0.000135815 0.0009 0)
(0.000135815 0.0009 0)
(0.000135815 0.0009 0)
)
;
    }
    frontAndBack
    {
        type            empty;
    }
}


// ************************************************************************* //
