/*--------------------------------*- C++ -*----------------------------------*\
| =========                 |                                                 |
| \\      /  F ield         | foam-extend: Open Source CFD                    |
|  \\    /   O peration     | Version:  3.0                                   |
|   \\  /    A nd           | Web:         http://www.extend-project.de       |
|    \\/     M anipulation  |                                                 |
\*---------------------------------------------------------------------------*/
FoamFile
{
    version     2.0;
    format      ascii;
    class       volSymmTensorField;
    location    "7";
    object      sigma;
}
// * * * * * * * * * * * * * * * * * * * * * * * * * * * * * * * * * * * * * //

dimensions      [0 0 0 0 0 0 0];

internalField   nonuniform List<symmTensor> 
400
(
(0.47983 0.16398 2.10343e-316 -0.656142 2.42745e-316 0.176312)
(0.885505 -0.0585683 2.12166e-316 -0.588863 2.61318e-316 -0.296641)
(1.06149 -0.340318 2.01947e-316 -0.545366 2.52326e-316 -0.516123)
(1.02219 -0.527825 1.88795e-316 -0.45112 2.32623e-316 -0.571073)
(0.94696 -0.732418 1.72585e-316 -0.393472 2.0788e-316 -0.553488)
(0.792832 -0.868468 1.57351e-316 -0.309036 1.84521e-316 -0.483795)
(0.64586 -0.991543 1.42111e-316 -0.249253 1.60871e-316 -0.396607)
(0.467026 -1.07349 1.28463e-316 -0.174111 1.4142e-316 -0.292915)
(0.29824 -1.13146 1.15714e-316 -0.112818 1.22257e-316 -0.185421)
(0.110008 -1.16165 1.04321e-316 -0.0397948 1.07532e-316 -0.0702131)
(-0.0739791 -1.16395 9.4008e-317 0.0271101 9.27261e-317 0.046869)
(-0.273127 -1.1423 8.46189e-317 0.10436 8.19004e-317 0.168767)
(-0.468257 -1.0886 7.62863e-317 0.179207 7.05478e-317 0.28905)
(-0.668329 -1.01258 6.82776e-317 0.262219 6.25461e-317 0.40611)
(-0.845962 -0.895702 6.13541e-317 0.339334 5.38207e-317 0.506627)
(-1.00341 -0.765625 5.39805e-317 0.422043 4.77663e-317 0.581369)
(-1.08248 -0.575553 4.7936e-317 0.483335 4.12576e-317 0.599147)
(-1.08705 -0.398903 4.0821e-317 0.55117 3.6701e-317 0.535878)
(-0.885195 -0.13964 3.55907e-317 0.569917 3.23276e-317 0.315278)
(-0.454746 0.0730947 2.92771e-317 0.591722 2.85436e-317 -0.136976)
(0.305699 0.141085 1.10363e-316 -0.746753 1.59052e-316 0.441054)
(0.640651 0.0272267 1.20727e-316 -0.750276 2.0581e-316 0.109625)
(0.764215 -0.127421 1.21914e-316 -0.686448 2.1483e-316 -0.0777678)
(0.783814 -0.251777 1.19434e-316 -0.616973 2.05718e-316 -0.166841)
(0.72772 -0.380621 1.14097e-316 -0.529786 1.87687e-316 -0.197933)
(0.630462 -0.475801 1.08017e-316 -0.438488 1.68166e-316 -0.191974)
(0.515968 -0.559364 1.01201e-316 -0.349365 1.47466e-316 -0.166603)
(0.379979 -0.612595 9.44713e-317 -0.251798 1.29643e-316 -0.12818)
(0.244397 -0.649468 8.7734e-317 -0.160453 1.12189e-316 -0.0839435)
(0.0932696 -0.659397 8.12717e-317 -0.0585368 9.83379e-317 -0.0347328)
(-0.0545455 -0.652842 7.5087e-317 0.0389757 8.47971e-317 0.0155698)
(-0.213174 -0.623087 6.91499e-317 0.146193 7.46103e-317 0.066981)
(-0.36664 -0.578604 6.36293e-317 0.251493 6.43939e-317 0.115147)
(-0.518195 -0.517595 5.81546e-317 0.360221 5.70528e-317 0.157975)
(-0.655181 -0.44357 5.3197e-317 0.46772 4.94511e-317 0.187461)
(-0.758267 -0.366005 4.78896e-317 0.562169 4.41152e-317 0.196098)
(-0.821057 -0.272726 4.31861e-317 0.653679 3.84735e-317 0.167378)
(-0.782972 -0.198206 3.76867e-317 0.700537 3.41412e-317 0.0824345)
(-0.644529 -0.096776 3.28398e-317 0.736831 2.96262e-317 -0.0923018)
(-0.293949 -0.0460075 2.7518e-317 0.687778 2.55042e-317 -0.393829)
(0.285146 0.342159 3.16556e-317 -0.826426 9.22026e-317 0.54128)
(0.539953 0.230489 4.80905e-317 -0.787462 1.55536e-316 0.247509)
(0.629446 0.11754 5.83687e-317 -0.709594 1.7617e-316 0.0801483)
(0.628425 0.00603573 6.49172e-317 -0.618403 1.75048e-316 -0.0100223)
(0.583277 -0.0994465 6.82012e-317 -0.528588 1.632e-316 -0.0546887)
(0.505961 -0.184136 6.95053e-317 -0.435733 1.4794e-316 -0.0702274)
(0.422775 -0.254619 6.90377e-317 -0.353131 1.31026e-316 -0.0696441)
(0.321892 -0.298699 6.75743e-317 -0.263741 1.1566e-316 -0.0581505)
(0.224124 -0.324451 6.52488e-317 -0.182408 1.0073e-316 -0.0417165)
(0.110801 -0.323662 6.24601e-317 -0.0894205 8.83218e-317 -0.0213808)
(-0.00122919 -0.306114 5.93488e-317 0.00206149 7.65282e-317 -0.000832304)
(-0.126638 -0.266022 5.60256e-317 0.106826 6.71543e-317 0.0198124)
(-0.254327 -0.216784 5.26759e-317 0.217713 5.81829e-317 0.0366132)
(-0.384258 -0.154176 4.9108e-317 0.336005 5.13029e-317 0.0482533)
(-0.513906 -0.0948681 4.5608e-317 0.46552 4.46852e-317 0.0483861)
(-0.614521 -0.0365733 4.15759e-317 0.582555 3.97712e-317 0.0319668)
(-0.6941 0.00709466 3.73592e-317 0.707192 3.51077e-317 -0.0130917)
(-0.67958 0.035832 3.19747e-317 0.779999 3.13804e-317 -0.100419)
(-0.582085 0.0506058 2.54824e-317 0.837586 2.71275e-317 -0.255501)
(-0.279557 0.0499745 1.77015e-317 0.794771 2.06385e-317 -0.515214)
(0.176105 0.430047 -4.37275e-317 -0.658711 2.63758e-317 0.482606)
(0.370077 0.342094 -2.13716e-317 -0.632712 1.02263e-316 0.262635)
(0.436992 0.25114 -1.97965e-318 -0.562333 1.32536e-316 0.125341)
(0.448309 0.150814 1.31184e-317 -0.493326 1.39279e-316 0.0450176)
(0.418986 0.0634371 2.46701e-317 -0.419382 1.33932e-316 0.000396263)
(0.372209 -0.010187 3.28782e-317 -0.351256 1.23805e-316 -0.0209522)
(0.320244 -0.0659897 3.84595e-317 -0.291211 1.11195e-316 -0.0290334)
(0.256792 -0.0966909 4.19191e-317 -0.228588 9.90782e-317 -0.0282037)
(0.197112 -0.110262 4.37441e-317 -0.173777 8.69783e-317 -0.0233349)
(0.12333 -0.094175 4.43409e-317 -0.10778 7.6631e-317 -0.0155501)
(0.0516974 -0.0666375 4.40402e-317 -0.0436816 6.67652e-317 -0.00801579)
(-0.0366726 -0.0109084 4.30813e-317 0.0377943 5.87935e-317 -0.00112167)
(-0.127635 0.0432308 4.17254e-317 0.125884 5.13047e-317 0.00175127)
(-0.230368 0.116815 4.00518e-317 0.23114 4.56446e-317 -0.00077125)
(-0.337212 0.166713 3.8335e-317 0.351273 4.05443e-317 -0.0140609)
(-0.428841 0.218856 3.64954e-317 0.471493 3.73148e-317 -0.0426528)
(-0.51144 0.221804 3.48604e-317 0.608076 3.49503e-317 -0.0966359)
(-0.508521 0.204025 3.30978e-317 0.695751 3.44889e-317 -0.187231)
(-0.447698 0.131445 3.14706e-317 0.780278 3.43274e-317 -0.33258)
(-0.195955 0.0200071 2.82983e-317 0.746472 3.28016e-317 -0.550517)
(0.174407 0.56211 -8.12355e-317 -0.662472 -1.67086e-317 0.488064)
(0.316053 0.47123 -5.86315e-317 -0.583999 5.80517e-317 0.267946)
(0.364082 0.391537 -3.58935e-317 -0.502833 9.21495e-317 0.138751)
(0.355186 0.280742 -1.69201e-317 -0.419261 1.04227e-316 0.0640755)
(0.339423 0.194872 -1.49921e-318 -0.360883 1.04403e-316 0.0214593)
(0.302505 0.113792 1.0233e-317 -0.301625 9.90587e-317 -0.000879884)
(0.2793 0.0586835 1.88906e-317 -0.267284 9.07992e-317 -0.0120161)
(0.240664 0.0252608 2.50394e-317 -0.225029 8.20209e-317 -0.0156344)
(0.21512 0.0156107 2.91928e-317 -0.198909 7.29315e-317 -0.0162108)
(0.170555 0.0343789 3.18424e-317 -0.156018 6.46898e-317 -0.0145373)
(0.130922 0.070912 3.33773e-317 -0.117125 5.67667e-317 -0.0137969)
(0.0662488 0.136163 3.41154e-317 -0.052107 4.99549e-317 -0.0141419)
(-0.00447568 0.203854 3.43899e-317 0.0236808 4.35474e-317 -0.0192051)
(-0.101125 0.294249 3.43715e-317 0.131256 3.82391e-317 -0.0301302)
(-0.211461 0.355764 3.44444e-317 0.264299 3.33882e-317 -0.0528375)
(-0.326533 0.427351 3.4641e-317 0.41849 2.96803e-317 -0.091957)
(-0.443645 0.422159 3.55008e-317 0.602814 2.67455e-317 -0.15917)
(-0.491613 0.410941 3.67561e-317 0.75954 2.5395e-317 -0.267927)
(-0.476466 0.285944 3.89453e-317 0.920027 2.60344e-317 -0.443562)
(-0.241642 0.145189 4.00764e-317 0.963907 3.10964e-317 -0.722266)
(0.115071 0.701617 -1.0686e-316 -0.560105 -4.802e-317 0.445033)
(0.198043 0.574916 -8.54055e-317 -0.44523 2.16713e-317 0.247187)
(0.234677 0.465648 -6.12642e-317 -0.365446 5.66429e-317 0.130769)
(0.220215 0.337249 -4.01577e-317 -0.284008 7.23952e-317 0.0637929)
(0.220229 0.236013 -2.21923e-317 -0.246036 7.70123e-317 0.0258071)
(0.201239 0.150136 -8.07264e-318 -0.206645 7.59325e-317 0.00540592)
(0.204569 0.0896056 2.85486e-318 -0.199265 7.15161e-317 -0.00530384)
(0.194886 0.0593643 1.09531e-317 -0.184936 6.58956e-317 -0.00995008)
(0.202446 0.0512292 1.68106e-317 -0.190253 5.94905e-317 -0.0121927)
(0.191877 0.0805952 2.087e-317 -0.178795 5.33191e-317 -0.013082)
(0.18992 0.126361 2.35547e-317 -0.174685 4.71346e-317 -0.0152347)
(0.157716 0.212364 2.51992e-317 -0.138396 4.15836e-317 -0.0193198)
(0.124297 0.298996 2.61173e-317 -0.0956905 3.62188e-317 -0.0286067)
(0.0467449 0.42203 2.65544e-317 -0.00163109 3.15783e-317 -0.0451138)
(-0.0373723 0.50931 2.67951e-317 0.112292 2.72334e-317 -0.0749198)
(-0.16429 0.617724 2.70508e-317 0.288821 2.37655e-317 -0.124531)
(-0.280798 0.628504 2.76468e-317 0.488461 2.10157e-317 -0.207663)
(-0.383178 0.630813 2.8659e-317 0.725992 1.99302e-317 -0.342815)
(-0.395967 0.481361 3.03675e-317 0.95854 2.12144e-317 -0.562572)
(-0.225648 0.292246 3.17008e-317 1.13819 2.66959e-317 -0.912541)
(0.0991607 0.829574 -1.02024e-316 -0.492817 -5.87767e-317 0.393657)
(0.139079 0.669901 -8.56304e-317 -0.349575 -2.56984e-318 0.210496)
(0.167297 0.528977 -6.48112e-317 -0.276075 2.9128e-317 0.108778)
(0.143451 0.380364 -4.56613e-317 -0.195767 4.5977e-317 0.0523163)
(0.159344 0.259858 -2.89174e-317 -0.180381 5.34315e-317 0.0210366)
(0.150795 0.160986 -1.53235e-317 -0.155252 5.55221e-317 0.00445688)
(0.178651 0.0893399 -4.58093e-318 -0.174223 5.42592e-317 -0.00442754)
(0.189406 0.0488637 3.65226e-318 -0.180836 5.13249e-317 -0.0085696)
(0.226232 0.0356736 9.80202e-318 -0.21493 4.73131e-317 -0.0113016)
(0.241328 0.0580772 1.42811e-317 -0.228044 4.29987e-317 -0.013284)
(0.270742 0.107603 1.74516e-317 -0.253494 3.84126e-317 -0.0172485)
(0.262814 0.1951 1.9622e-317 -0.239194 3.39772e-317 -0.0236206)
(0.255186 0.300516 2.10965e-317 -0.218962 2.95099e-317 -0.0362244)
(0.187217 0.442106 2.20822e-317 -0.130118 2.52962e-317 -0.0570991)
(0.107338 0.568485 2.29059e-317 -0.0135957 2.11222e-317 -0.0937423)
(-0.0451431 0.720736 2.36871e-317 0.198949 1.7293e-317 -0.153806)
(-0.198181 0.786337 2.48964e-317 0.453238 1.38679e-317 -0.255057)
(-0.370609 0.857805 2.65101e-317 0.792388 1.16886e-317 -0.42178)
(-0.444742 0.758244 2.91971e-317 1.14547 1.24256e-317 -0.700731)
(-0.299603 0.651612 3.23154e-317 1.46619 2.03616e-317 -1.16659)
(0.04427 0.953796 -9.47445e-317 -0.325639 -6.17007e-317 0.281369)
(0.0405099 0.738608 -8.25355e-317 -0.186205 -1.76678e-317 0.145696)
(0.0554913 0.547818 -6.51003e-317 -0.127212 9.62307e-318 0.071721)
(0.0327714 0.377779 -4.82407e-317 -0.0645788 2.61299e-317 0.0318074)
(0.0567615 0.230629 -3.29311e-317 -0.0674146 3.50467e-317 0.0106531)
(0.0628022 0.124008 -2.01955e-317 -0.0627154 3.92241e-317 -8.68513e-05)
(0.105893 0.0375275 -9.85404e-318 -0.100443 4.01726e-317 -0.00545013)
(0.138297 -0.0065595 -1.79697e-318 -0.130452 3.92495e-317 -0.00784439)
(0.196916 -0.0274789 4.33709e-318 -0.187328 3.70363e-317 -0.00958767)
(0.240083 -0.00347825 8.83924e-318 -0.228601 3.42012e-317 -0.0114821)
(0.299692 0.048665 1.20115e-317 -0.284074 3.08733e-317 -0.0156179)
(0.323793 0.150897 1.4097e-317 -0.30082 2.74068e-317 -0.0229723)
(0.354194 0.278242 1.53076e-317 -0.317228 2.37226e-317 -0.0369663)
(0.312031 0.459211 1.58118e-317 -0.251328 2.00319e-317 -0.0607035)
(0.270475 0.636491 1.57598e-317 -0.168578 1.61927e-317 -0.101897)
(0.114677 0.85945 1.52885e-317 0.0559038 1.24094e-317 -0.170581)
(-0.0175435 1.00211 1.45619e-317 0.304632 8.73311e-318 -0.287088)
(-0.249297 1.15842 1.37975e-317 0.731542 5.79143e-318 -0.482244)
(-0.336893 1.12643 1.3394e-317 1.14927 4.91487e-318 -0.812376)
(-0.277917 1.05798 1.41112e-317 1.6423 8.69208e-318 -1.36438)
(0.00359602 1.01921 -7.22185e-317 -0.138707 -5.39449e-317 0.135111)
(-0.0325403 0.779465 -6.55878e-317 -0.0275578 -2.44129e-317 0.0600981)
(-0.0224778 0.55575 -5.36506e-317 -0.000423218 -2.97079e-318 0.0229011)
(-0.0401268 0.371681 -4.10629e-317 0.035517 1.17561e-317 0.00460982)
(-0.00549013 0.203842 -2.91627e-317 0.00939363 2.09473e-317 -0.0039035)
(0.0121226 0.0849409 -1.8821e-317 -0.00476403 2.62434e-317 -0.00735862)
(0.0694187 -0.0170671 -1.02241e-317 -0.0608572 2.8683e-317 -0.00856151)
(0.117332 -0.0765119 -3.3179e-318 -0.108738 2.92475e-317 -0.0085939)
(0.195784 -0.110246 2.0482e-318 -0.18667 2.8466e-317 -0.00911422)
(0.260518 -0.103833 6.08426e-318 -0.250157 2.68694e-317 -0.0103609)
(0.347914 -0.0574509 8.98628e-318 -0.333476 2.4656e-317 -0.0144376)
(0.398982 0.0311497 1.09253e-317 -0.376997 2.21051e-317 -0.0219843)
(0.462056 0.171824 1.20666e-317 -0.425165 1.92282e-317 -0.0368908)
(0.442896 0.356821 1.24923e-317 -0.380799 1.616e-317 -0.0620968)
(0.423191 0.586121 1.23426e-317 -0.316672 1.28251e-317 -0.106519)
(0.261315 0.853957 1.15906e-317 -0.0804862 9.29038e-318 -0.180829)
(0.10716 1.10634 1.04205e-317 0.201689 5.58805e-318 -0.308849)
(-0.191526 1.37874 8.84683e-318 0.717657 1.98102e-318 -0.526131)
(-0.359197 1.50932 7.33443e-318 1.26207 -3.78914e-319 -0.902872)
(-0.358942 1.65262 7.20206e-318 1.91799 9.81832e-319 -1.55905)
(-0.0515929 1.04661 -5.67037e-317 0.0976172 -4.52897e-317 -0.0460244)
(-0.119212 0.775351 -5.32822e-317 0.160241 -2.57296e-317 -0.041029)
(-0.129462 0.52194 -4.50511e-317 0.162442 -9.50799e-318 -0.0329794)
(-0.137481 0.332184 -3.55192e-317 0.163282 2.94938e-318 -0.0258008)
(-0.105521 0.14705 -2.59886e-317 0.125293 1.15608e-317 -0.0197721)
(-0.0757135 0.0238577 -1.74611e-317 0.0907656 1.71342e-317 -0.015052)
(-0.0165026 -0.0931131 -1.0159e-317 0.0278929 2.02862e-317 -0.0113903)
(0.0451069 -0.161219 -4.21999e-318 -0.0364614 2.17035e-317 -0.00864547)
(0.13049 -0.208914 4.53167e-319 -0.123258 2.18172e-317 -0.00723193)
(0.21483 -0.211955 3.95601e-318 -0.20752 2.10578e-317 -0.00730987)
(0.318057 -0.173192 6.41935e-318 -0.307802 1.96327e-317 -0.0102551)
(0.398426 -0.0844628 7.94213e-318 -0.381316 1.7782e-317 -0.0171102)
(0.49108 0.0687942 8.5967e-318 -0.459944 1.55638e-317 -0.0311359)
(0.508911 0.283224 8.41699e-318 -0.452873 1.30943e-317 -0.0560377)
(0.534029 0.568941 7.37256e-318 -0.433823 1.03469e-317 -0.100206)
(0.398674 0.92206 5.44073e-318 -0.222893 7.3483e-318 -0.175781)
(0.294794 1.29591 2.46564e-318 0.0122233 4.0731e-318 -0.307018)
(-0.0277476 1.71685 -1.37133e-318 0.560957 4.72964e-319 -0.533209)
(-0.16937 2.00649 -6.12686e-318 1.09715 -3.22393e-318 -0.927781)
(-0.268897 2.2763 -9.64808e-318 1.87607 -7.30233e-318 -1.60717)
(-0.110226 1.0103 -3.60936e-317 0.352781 -3.39879e-317 -0.242555)
(-0.194915 0.747672 -3.61298e-317 0.342484 -2.41541e-317 -0.147569)
(-0.210186 0.490941 -3.21323e-317 0.300771 -1.29186e-317 -0.0905855)
(-0.204773 0.300092 -2.6147e-317 0.26141 -3.00735e-318 -0.0566369)
(-0.171742 0.107863 -1.96698e-317 0.207578 4.66819e-318 -0.0358364)
(-0.132555 -0.0240392 -1.3465e-317 0.155503 1.01402e-317 -0.0229477)
(-0.0713987 -0.152963 -7.98114e-318 0.086064 1.36734e-317 -0.0146653)
(-0.00123582 -0.237047 -3.35982e-318 0.0104004 1.56745e-317 -0.00916459)
(0.0915392 -0.300351 3.49576e-319 -0.0855352 1.64704e-317 -0.00600402)
(0.189486 -0.326458 3.18396e-318 -0.184775 1.63996e-317 -0.0047108)
(0.310807 -0.302861 5.19316e-318 -0.304268 1.56696e-317 -0.00653819)
(0.41543 -0.241633 6.4246e-318 -0.403332 1.44918e-317 -0.0120976)
(0.540937 -0.0902748 6.92393e-318 -0.516128 1.2962e-317 -0.0248092)
(0.594101 0.103601 6.67537e-318 -0.546292 1.11904e-317 -0.0478089)
(0.659843 0.42993 5.67329e-318 -0.57008 9.19609e-318 -0.0897639)
(0.551054 0.798436 3.80094e-318 -0.389111 6.97374e-318 -0.161942)
(0.456858 1.30069 9.66234e-319 -0.167587 4.46832e-318 -0.28927)
(0.0942426 1.83093 -2.85533e-318 0.416995 1.35844e-318 -0.511237)
(-0.13713 2.3633 -7.76552e-318 1.04626 -2.68844e-318 -0.909127)
(-0.354274 2.92791 -1.19612e-317 1.98843 -8.86625e-318 -1.63416)
(-0.151252 0.912167 -2.69355e-317 0.575165 -2.49458e-317 -0.423913)
(-0.266357 0.663844 -2.73062e-317 0.512846 -1.99821e-317 -0.246489)
(-0.307368 0.418323 -2.46389e-317 0.450387 -1.26343e-317 -0.143019)
(-0.292574 0.243177 -2.02699e-317 0.376487 -5.20131e-318 -0.0839139)
(-0.268132 0.0528057 -1.5302e-317 0.317636 1.17445e-318 -0.0495032)
(-0.220547 -0.0779479 -1.05233e-317 0.249833 6.0694e-318 -0.0292864)
(-0.165783 -0.214913 -6.19436e-318 0.182566 9.47757e-318 -0.0167825)
(-0.0899817 -0.308516 -2.53304e-318 0.0987828 1.16001e-317 -0.00880107)
(-0.00366915 -0.38567 4.36952e-319 0.00741834 1.26685e-317 -0.00374919)
(0.102254 -0.427745 2.69108e-318 -0.10127 1.29428e-317 -0.000983665)
(0.220333 -0.419631 4.24705e-318 -0.219272 1.26108e-317 -0.00106117)
(0.344241 -0.373629 5.11144e-318 -0.33944 1.18585e-317 -0.00480127)
(0.478353 -0.227064 5.27679e-318 -0.463569 1.07991e-317 -0.0147841)
(0.572543 -0.0270944 4.72008e-318 -0.538156 9.54593e-318 -0.0343864)
(0.671182 0.336346 3.34121e-318 -0.600456 8.16356e-318 -0.0707257)
(0.625027 0.775616 1.09868e-318 -0.490237 6.67252e-318 -0.13479)
(0.59868 1.40589 -2.30239e-318 -0.350517 5.01715e-318 -0.248163)
(0.285488 2.11856 -6.69053e-318 0.162525 2.81455e-318 -0.448013)
(0.140473 2.87546 -1.25587e-317 0.66498 -9.59757e-319 -0.805453)
(-0.141413 3.64561 -1.83137e-317 1.57566 -9.26924e-318 -1.43425)
(-0.215066 0.801465 -1.69725e-317 0.810389 -1.92273e-317 -0.595324)
(-0.324694 0.582769 -1.76241e-317 0.656163 -1.88711e-317 -0.331468)
(-0.372875 0.362635 -1.61832e-317 0.558691 -1.40525e-317 -0.185816)
(-0.344042 0.194116 -1.33929e-317 0.4494 -8.12119e-318 -0.105358)
(-0.326778 0.012274 -1.0155e-317 0.386744 -2.41093e-318 -0.0599661)
(-0.274023 -0.121485 -6.90448e-318 0.308057 2.25864e-318 -0.0340345)
(-0.225758 -0.261129 -3.89078e-318 0.244166 5.70775e-318 -0.0184074)
(-0.148618 -0.363889 -1.2446e-318 0.157131 8.02508e-318 -0.00851288)
(-0.0664862 -0.451818 9.50548e-319 0.0685565 9.38635e-318 -0.00207038)
(0.0416448 -0.512098 2.65291e-318 -0.043701 1.00154e-317 0.00205622)
(0.162952 -0.522746 3.83967e-318 -0.166428 1.00907e-317 0.00347633)
(0.299417 -0.507935 4.49695e-318 -0.301221 9.78581e-318 0.00180353)
(0.45522 -0.381722 4.62142e-318 -0.449824 9.22578e-318 -0.00539565)
(0.585101 -0.224282 4.19108e-318 -0.564503 8.52969e-318 -0.0205985)
(0.733282 0.144148 3.18879e-318 -0.683138 7.78274e-318 -0.0501439)
(0.743583 0.54685 1.56913e-318 -0.641148 7.02016e-318 -0.102434)
(0.768882 1.269 -7.52576e-319 -0.573111 6.18525e-318 -0.195771)
(0.459037 2.00757 -3.75279e-318 -0.0985041 4.88106e-318 -0.360533)
(0.238344 3.01273 -7.6711e-318 0.425763 1.93616e-318 -0.664107)
(-0.251411 4.03933 -1.20136e-317 1.50625 -5.2929e-318 -1.25484)
(-0.23074 0.603495 -1.55334e-317 0.937632 -1.27441e-317 -0.706892)
(-0.380128 0.44396 -1.38686e-317 0.769312 -1.39212e-317 -0.389184)
(-0.44876 0.274877 -1.11489e-317 0.662357 -1.13159e-317 -0.213597)
(-0.416738 0.136378 -8.71489e-318 0.535041 -7.01256e-318 -0.118303)
(-0.403446 -0.0247883 -6.24325e-318 0.469136 -2.43483e-318 -0.0656904)
(-0.345284 -0.151828 -4.01277e-318 0.381521 1.46715e-318 -0.0362374)
(-0.303869 -0.287511 -1.89843e-318 0.322547 4.41045e-318 -0.018678)
(-0.227539 -0.393965 -3.0301e-320 0.235146 6.42382e-318 -0.00760747)
(-0.160484 -0.487266 1.55855e-318 0.160538 7.64034e-318 -5.459e-05)
(-0.0573402 -0.560159 2.79534e-318 0.0521488 8.23996e-318 0.00519139)
(0.0421406 -0.585979 3.64012e-318 -0.0503946 8.37783e-318 0.00825403)
(0.18019 -0.593205 4.05898e-318 -0.188865 8.2008e-318 0.00867406)
(0.315585 -0.488296 4.02402e-318 -0.320459 7.82835e-318 0.00487368)
(0.475079 -0.350979 3.52917e-318 -0.46964 7.37423e-318 -0.00543911)
(0.621262 0.0149185 2.51855e-318 -0.594824 6.9386e-318 -0.0264382)
(0.71781 0.444652 1.05105e-318 -0.653162 6.58555e-318 -0.0646476)
(0.790204 1.24938 -1.03098e-318 -0.658808 6.27976e-318 -0.131396)
(0.631507 2.15558 -3.49766e-318 -0.384409 5.75446e-318 -0.247098)
(0.544011 3.39818 -6.67861e-318 -0.0941485 3.7581e-318 -0.449862)
(0.134884 4.70865 -1.05572e-317 0.659091 -2.37626e-318 -0.793975)
(-0.28409 0.479522 -1.0781e-317 1.07337 -1.72975e-317 -0.789279)
(-0.396911 0.335767 -8.5962e-318 0.815683 -1.97134e-317 -0.418771)
(-0.47544 0.196149 -5.88987e-318 0.699801 -1.61681e-317 -0.224361)
(-0.432457 0.0636568 -4.29059e-318 0.554353 -1.08125e-317 -0.121897)
(-0.429234 -0.0814351 -2.92949e-318 0.495811 -5.71342e-318 -0.0665767)
(-0.369977 -0.202259 -1.70542e-318 0.406103 -1.51621e-318 -0.0361261)
(-0.337341 -0.329238 -4.65425e-319 0.355482 1.57941e-318 -0.0181412)
(-0.26565 -0.43103 7.36514e-319 0.272386 3.74822e-318 -0.00673657)
(-0.210146 -0.523812 1.8192e-318 0.208884 5.15499e-318 0.00126269)
(-0.11661 -0.600763 2.70191e-318 0.109352 5.99969e-318 0.00725795)
(-0.0288643 -0.640436 3.32175e-318 0.0173962 6.43253e-318 0.0114681)
(0.10328 -0.669635 3.64243e-318 -0.117038 6.5909e-318 0.0137582)
(0.239992 -0.597889 3.65315e-318 -0.252819 6.58348e-318 0.012827)
(0.417025 -0.510445 3.36632e-318 -0.424306 6.51308e-318 0.00728069)
(0.602631 -0.188021 2.82033e-318 -0.596832 6.46293e-318 -0.00579842)
(0.760619 0.154704 2.08611e-318 -0.730955 6.49201e-318 -0.0296639)
(0.921834 0.955752 1.25436e-318 -0.852181 6.55095e-318 -0.0696522)
(0.804354 1.73958 4.01567e-319 -0.671192 6.43375e-318 -0.133162)
(0.704247 3.11858 -3.78365e-319 -0.464272 5.18793e-318 -0.239975)
(-0.0521233 4.4318 -1.95124e-318 0.527861 1.37726e-318 -0.475738)
(-0.275934 0.235874 -2.52483e-318 1.06064 -5.68907e-318 -0.784708)
(-0.440053 0.180734 -6.03556e-319 0.850622 -1.07619e-317 -0.410569)
(-0.514887 0.12294 1.15104e-318 0.730832 -9.43914e-318 -0.215945)
(-0.472892 0.0230179 1.03662e-318 0.588451 -5.69714e-318 -0.115559)
(-0.459732 -0.0839935 8.97954e-319 0.522114 -2.05278e-318 -0.062382)
(-0.395001 -0.192278 9.29698e-319 0.428524 9.09446e-319 -0.0335231)
(-0.36544 -0.298933 1.29269e-318 0.381943 3.02593e-318 -0.016503)
(-0.298311 -0.393125 1.84878e-318 0.303934 4.44795e-318 -0.00562279)
(-0.261625 -0.475773 2.46079e-318 0.259306 5.31053e-318 0.00231877)
(-0.183528 -0.552024 3.00364e-318 0.17494 5.76328e-318 0.00858795)
(-0.129824 -0.595909 3.38466e-318 0.116174 5.92126e-318 0.0136497)
(-0.0158127 -0.63808 3.55104e-318 -0.00153308 5.8859e-318 0.0173458)
(0.0743297 -0.592131 3.47372e-318 -0.093341 5.74456e-318 0.0190113)
(0.254057 -0.535406 3.17265e-318 -0.2716 5.58017e-318 0.0175425)
(0.389502 -0.258421 2.65451e-318 -0.40135 5.46851e-318 0.0118478)
(0.627116 0.0579746 2.05057e-318 -0.627822 5.47225e-318 0.00070651)
(0.762129 0.843246 1.37905e-318 -0.748279 5.55697e-318 -0.0138503)
(0.903006 1.72209 8.67905e-319 -0.877646 5.63316e-318 -0.0253608)
(0.899726 3.26203 5.24357e-319 -0.892421 4.96674e-318 -0.00730587)
(0.560338 4.97903 -4.75345e-319 -0.69005 2.6406e-318 0.129712)
(-0.292645 0.153185 5.57508e-318 1.0262 -2.26044e-317 -0.733557)
(-0.379179 0.062572 4.66668e-318 0.747323 -2.43419e-317 -0.368144)
(-0.464353 0.000322133 4.05464e-318 0.653784 -1.87241e-317 -0.189431)
(-0.416985 -0.0952175 2.66811e-318 0.51714 -1.17739e-317 -0.100155)
(-0.413486 -0.193796 1.68342e-318 0.467238 -6.85931e-318 -0.053752)
(-0.354839 -0.28176 1.22833e-318 0.383693 -3.2334e-318 -0.0288545)
(-0.332943 -0.372813 1.22401e-318 0.347081 -7.89067e-319 -0.0141375)
(-0.276574 -0.44684 1.51589e-318 0.281158 9.26912e-319 -0.00458445)
(-0.252073 -0.51819 1.91945e-318 0.249444 2.10155e-318 0.0026288)
(-0.191571 -0.58336 2.31593e-318 0.182936 2.9132e-318 0.00863491)
(-0.155264 -0.63119 2.61314e-318 0.141395 3.46632e-318 0.0138685)
(-0.0639657 -0.680758 2.76956e-318 0.0456287 3.84514e-318 0.018337)
(0.0106767 -0.668825 2.7765e-318 -0.0322699 4.11164e-318 0.0215932)
(0.173806 -0.654849 2.6696e-318 -0.196905 4.32281e-318 0.0230993)
(0.321632 -0.461326 2.52329e-318 -0.344227 4.51527e-318 0.0225948)
(0.574072 -0.25797 2.44906e-318 -0.594943 4.72216e-318 0.0208712)
(0.805928 0.39194 2.63625e-318 -0.830157 4.89749e-318 0.0242298)
(0.959724 0.992848 3.1156e-318 -1.00982 4.9586e-318 0.0500941)
(1.08894 2.41224 4.18685e-318 -1.23534 4.56664e-318 0.146406)
(0.180009 3.57229 4.73033e-318 -0.54259 3.68837e-318 0.362581)
(-0.264179 -0.0834413 2.86614e-317 0.852561 1.01872e-317 -0.588383)
(-0.411085 -0.0687568 2.118e-317 0.700591 -9.18883e-319 -0.289506)
(-0.447042 -0.0154987 1.3493e-317 0.593811 -1.62603e-318 -0.146769)
(-0.398306 -0.081835 8.36974e-318 0.475433 3.59275e-319 -0.0771269)
(-0.372338 -0.114964 5.00404e-318 0.413743 2.14535e-318 -0.0414053)
(-0.305444 -0.186056 3.34828e-318 0.327827 3.4387e-318 -0.0223832)
(-0.286782 -0.234687 2.5915e-318 0.297796 4.27143e-318 -0.0110137)
(-0.235723 -0.291058 2.41975e-318 0.239217 4.75647e-318 -0.00349453)
(-0.231336 -0.332961 2.49179e-318 0.228909 4.9878e-318 0.00242691)
(-0.189544 -0.379112 2.65017e-318 0.181977 5.03329e-318 0.00756701)
(-0.189845 -0.41034 2.77197e-318 0.17749 4.9501e-318 0.0123555)
(-0.128056 -0.443726 2.8041e-318 0.111271 4.78387e-318 0.016785)
(-0.11258 -0.439618 2.71842e-318 0.0918627 4.57804e-318 0.0207172)
(0.022917 -0.425732 2.54116e-318 -0.0467003 4.37141e-318 0.0237833)
(0.0796981 -0.293114 2.29846e-318 -0.106143 4.19673e-318 0.026445)
(0.36838 -0.124966 2.11872e-318 -0.398368 4.0827e-318 0.0299885)
(0.465524 0.386165 2.06682e-318 -0.508632 3.98312e-318 0.043108)
(0.943346 0.979698 2.29973e-318 -1.0323 3.85987e-318 0.0889584)
(0.957242 2.32795 2.86217e-318 -1.20954 3.47975e-318 0.252303)
(1.08627 4.10947 3.10788e-318 -1.91549 2.87528e-318 0.829214)
(-0.182879 -0.0929209 1.84156e-317 0.570966 -2.63645e-317 -0.388087)
(-0.192863 -0.188859 1.19554e-317 0.377192 -2.19078e-317 -0.184329)
(-0.24516 -0.230729 6.35369e-318 0.337577 -1.55679e-317 -0.0924171)
(-0.209573 -0.281889 3.29562e-318 0.258196 -9.6848e-318 -0.048623)
(-0.201786 -0.343143 1.62268e-318 0.228097 -6.58724e-318 -0.0263103)
(-0.16401 -0.376966 8.88518e-319 0.178476 -4.47094e-318 -0.0144663)
(-0.152565 -0.422589 6.45719e-319 0.159807 -3.10282e-318 -0.00724197)
(-0.123541 -0.450243 6.83668e-319 0.125887 -2.0643e-318 -0.00234586)
(-0.120706 -0.485184 8.32659e-319 0.119027 -1.25816e-318 0.00167879)
(-0.0978082 -0.517271 1.00857e-318 0.0924866 -5.93407e-319 0.00532164)
(-0.0984112 -0.550012 1.15173e-318 0.0895406 -3.71439e-320 0.00887063)
(-0.0637309 -0.590599 1.24126e-318 0.0513716 4.35637e-319 0.0123593)
(-0.0513302 -0.613399 1.27691e-318 0.0355935 8.34595e-319 0.0157367)
(0.0310907 -0.646871 1.28999e-318 -0.0499352 1.16634e-318 0.0188445)
(0.0874439 -0.605824 1.34047e-318 -0.109605 1.43087e-318 0.0221616)
(0.270273 -0.569732 1.49424e-318 -0.297065 1.62596e-318 0.0267919)
(0.429777 -0.291571 1.89584e-318 -0.469484 1.7485e-318 0.039707)
(0.677763 -0.0667368 2.48947e-318 -0.757264 1.78494e-318 0.0795007)
(1.02699 0.796925 3.4572e-318 -1.23964 1.8023e-318 0.212653)
(0.194033 1.14762 4.22504e-318 -0.770709 2.15682e-318 0.576676)
(-0.0784619 -0.333738 3.79733e-317 0.204817 3.62906e-317 -0.126355)
(-0.200763 -0.256138 2.54633e-317 0.263425 1.65642e-317 -0.0626616)
(-0.152771 -0.099591 1.22831e-317 0.184493 1.09576e-317 -0.0317216)
(-0.111622 -0.119841 6.83452e-318 0.128586 8.26372e-318 -0.0169648)
(-0.085759 -0.0513379 3.57007e-318 0.0951338 7.59842e-318 -0.00937481)
(-0.0371128 -0.076069 2.29943e-318 0.0424511 7.20645e-318 -0.00533831)
(-0.0379234 -0.0432134 1.65792e-318 0.0406959 7.04523e-318 -0.0027725)
(-0.011921 -0.0548493 1.44703e-318 0.0128971 6.84529e-318 -0.000976112)
(-0.0302646 -0.0340764 1.37157e-318 0.0296804 6.62269e-318 0.000584253)
(-0.0201053 -0.0281771 1.36352e-318 0.0180472 6.34196e-318 0.00205813)
(-0.0521368 -0.0109457 1.35158e-318 0.0485849 6.02461e-318 0.00355195)
(-0.042071 0.019526 1.31344e-318 0.0369766 5.6813e-318 0.00509439)
(-0.0852632 0.039099 1.23131e-318 0.0785887 5.33411e-318 0.00667452)
(-0.0429615 0.110183 1.11538e-318 0.0347114 4.99966e-318 0.00825001)
(-0.0920718 0.142981 9.67301e-319 0.0820338 4.67742e-318 0.010038)
(0.070256 0.284941 8.56725e-319 -0.0826355 4.36838e-318 0.0123796)
(0.0156991 0.363819 7.997e-319 -0.0337897 4.00325e-318 0.0180906)
(0.539132 0.629406 8.95474e-319 -0.574127 3.50759e-318 0.0349954)
(0.379372 0.911491 1.12175e-318 -0.486188 2.82776e-318 0.106816)
(1.39527 2.07033 1.25069e-318 -1.92526 1.82135e-318 0.529988)
)
;

boundaryField
{
    cavity
    {
        type            mySigma;
    }
    lid
    {
        type            fixedValue;
        value           uniform (0.1 -0.3 0 -0.1 0 0);
    }
    frontAndBack
    {
        type            empty;
    }
}


// ************************************************************************* //
