/*--------------------------------*- C++ -*----------------------------------*\
| =========                 |                                                 |
| \\      /  F ield         | foam-extend: Open Source CFD                    |
|  \\    /   O peration     | Version:  3.0                                   |
|   \\  /    A nd           | Web:         http://www.extend-project.de       |
|    \\/     M anipulation  |                                                 |
\*---------------------------------------------------------------------------*/
FoamFile
{
    version     2.0;
    format      ascii;
    class       volScalarField;
    location    "7";
    object      Theta;
}
// * * * * * * * * * * * * * * * * * * * * * * * * * * * * * * * * * * * * * //

dimensions      [0 0 0 0 0 0 0];

internalField   nonuniform List<scalar> 
400
(
0.240892
-0.072059
-0.104583
-0.163327
-0.11682
-0.0999905
-0.0387782
0.000496288
0.0608868
0.106198
0.164965
0.209252
0.266688
0.300664
0.350991
0.354501
0.377464
0.303461
0.244963
-0.0417892
0.643752
0.388749
0.320979
0.217949
0.209568
0.166472
0.170947
0.150645
0.155095
0.141226
0.142315
0.125177
0.121449
0.0919874
0.0807559
0.0254697
-0.00334373
-0.112044
-0.193468
-0.418532
0.503897
0.262368
0.219676
0.140455
0.145614
0.120476
0.134545
0.127576
0.141349
0.139541
0.152124
0.148905
0.160362
0.148366
0.155467
0.120227
0.110032
0.0193761
-0.0444573
-0.264982
0.498424
0.325429
0.277064
0.207357
0.2018
0.171412
0.174268
0.157832
0.160936
0.149281
0.152828
0.141455
0.146682
0.129776
0.134012
0.0982582
0.0866873
0.00251281
-0.0652265
-0.24586
0.366197
0.198878
0.176868
0.12274
0.133618
0.116958
0.13221
0.128377
0.143868
0.14564
0.16443
0.169246
0.194967
0.197636
0.228883
0.212712
0.23267
0.15483
0.111485
-0.117357
0.312902
0.183854
0.168281
0.127434
0.137835
0.124079
0.13643
0.131712
0.144495
0.145313
0.163785
0.170342
0.200586
0.209974
0.252869
0.248543
0.286519
0.217345
0.185776
-0.0695858
0.219577
0.110342
0.111627
0.0833513
0.100551
0.0939566
0.110205
0.110996
0.128346
0.135481
0.161789
0.177722
0.222397
0.245997
0.314023
0.326784
0.40201
0.335639
0.336534
-0.00116813
0.156082
0.0935355
0.100558
0.0862725
0.100204
0.0959624
0.106872
0.105844
0.117965
0.122577
0.145315
0.160992
0.206232
0.235463
0.311672
0.338617
0.43114
0.379927
0.39452
0.0272695
0.0794932
0.0640191
0.0775029
0.0765277
0.0866948
0.0851983
0.091385
0.0897496
0.0979673
0.101281
0.122239
0.138396
0.187474
0.222383
0.315025
0.355029
0.48531
0.442999
0.510126
0.0694556
0.0100399
0.0532062
0.0720002
0.0853697
0.0894492
0.0888498
0.0866449
0.0806171
0.0792052
0.0755274
0.0857554
0.0949502
0.133431
0.166296
0.251406
0.302198
0.431019
0.417746
0.484264
0.0750083
-0.0544148
0.0512521
0.0669806
0.0945686
0.0888023
0.0892499
0.0775587
0.0671346
0.0557453
0.0442774
0.0436497
0.043676
0.073164
0.0998477
0.186995
0.242262
0.40395
0.409722
0.563367
0.128536
-0.121281
0.0375819
0.0635018
0.104051
0.09455
0.0954131
0.0753969
0.058833
0.0350364
0.0122348
-0.00591801
-0.0207771
-0.0148756
-0.00146963
0.0559736
0.113386
0.239888
0.291019
0.404657
0.113985
-0.164313
0.051817
0.0671176
0.121745
0.10193
0.104334
0.0743033
0.0517781
0.0151393
-0.0199762
-0.0555625
-0.0882955
-0.103421
-0.109999
-0.0677756
-0.0207403
0.128321
0.204535
0.452765
0.213304
-0.212441
0.0357324
0.0688394
0.133115
0.115173
0.118035
0.0820001
0.0526477
0.00314399
-0.0460036
-0.102904
-0.156844
-0.20536
-0.236855
-0.245474
-0.209853
-0.137549
-0.00589247
0.129094
0.176807
-0.217784
0.06424
0.0829361
0.159829
0.134709
0.140059
0.0957095
0.0600598
-0.00242431
-0.0658811
-0.142878
-0.220241
-0.297706
-0.361867
-0.401984
-0.397575
-0.31949
-0.171245
0.147736
0.333088
-0.221691
0.0652438
0.105252
0.186603
0.16689
0.171584
0.123017
0.0801779
0.0061862
-0.0715509
-0.169104
-0.269941
-0.38324
-0.480867
-0.583587
-0.608581
-0.643073
-0.450171
-0.349033
0.253357
-0.166587
0.116783
0.143309
0.233419
0.209351
0.215408
0.159698
0.110265
0.0249623
-0.0662248
-0.181922
-0.306438
-0.449772
-0.587299
-0.732665
-0.811959
-0.866873
-0.69098
-0.3904
0.408034
-0.0869082
0.173392
0.213396
0.299227
0.276448
0.27693
0.216045
0.158329
0.0644633
-0.0385335
-0.168438
-0.312909
-0.484037
-0.657066
-0.859441
-0.98994
-1.16644
-1.00299
-1.01971
0.214148
0.0539354
0.266111
0.296278
0.382079
0.352965
0.349167
0.280224
0.214892
0.112691
-0.000291159
-0.141873
-0.30417
-0.498048
-0.70854
-0.954541
-1.15571
-1.38771
-1.30119
-1.22211
0.178442
0.275561
0.434558
0.452904
0.51584
0.473302
0.450458
0.373914
0.296355
0.192237
0.0712972
-0.0700045
-0.243747
-0.442331
-0.683318
-0.953069
-1.23342
-1.53746
-1.61241
-1.79759
-0.354827
)
;

boundaryField
{
    cavity
    {
        type            implicitExtrapolation;
    }
    lid
    {
        type            implicitExtrapolation;
    }
    frontAndBack
    {
        type            empty;
    }
}


// ************************************************************************* //
