/*--------------------------------*- C++ -*----------------------------------*\
| =========                 |                                                 |
| \\      /  F ield         | foam-extend: Open Source CFD                    |
|  \\    /   O peration     | Version:  3.0                                   |
|   \\  /    A nd           | Web:         http://www.extend-project.de       |
|    \\/     M anipulation  |                                                 |
\*---------------------------------------------------------------------------*/
FoamFile
{
    version     2.0;
    format      ascii;
    class       volVectorField;
    location    "7";
    object      u;
}
// * * * * * * * * * * * * * * * * * * * * * * * * * * * * * * * * * * * * * //

dimensions      [0 0 0 0 0 0 0];

internalField   nonuniform List<vector> 
400
(
(-1.40441 3.7209 2.63649e-315)
(-1.40655 2.57715 2.33999e-315)
(-3.41291 2.81103 2.0595e-315)
(-3.57193 1.79051 1.86038e-315)
(-4.80369 1.9425 1.60967e-315)
(-5.04153 1.32194 1.47982e-315)
(-5.73508 1.37599 1.25606e-315)
(-5.95028 0.98287 1.1736e-315)
(-6.25604 1.00663 9.75318e-316)
(-6.38509 0.68623 9.25495e-316)
(-6.36667 0.682414 7.50946e-316)
(-6.35098 0.336016 7.2341e-316)
(-6.01347 0.291175 5.71452e-316)
(-5.79746 -0.150146 5.57278e-316)
(-5.10596 -0.197076 4.29973e-316)
(-4.68388 -0.807647 4.19823e-316)
(-3.56538 -0.72239 3.24091e-316)
(-3.06368 -1.58438 3.09534e-316)
(-1.40852 -1.31108 2.54503e-316)
(-1.06575 -2.18173 2.29625e-316)
(-0.216064 0.948749 1.68949e-315)
(-0.965844 0.796794 1.55549e-315)
(-1.51179 0.822949 1.41047e-315)
(-1.93511 0.561596 1.31337e-315)
(-2.51792 0.526459 1.17714e-315)
(-2.75623 0.258 1.10296e-315)
(-3.19851 0.151941 9.75524e-316)
(-3.3327 -0.0910046 9.16828e-316)
(-3.5537 -0.268664 7.98462e-316)
(-3.59862 -0.478002 7.51801e-316)
(-3.5809 -0.722596 6.43582e-316)
(-3.52467 -0.899139 6.06739e-316)
(-3.28526 -1.19397 5.10014e-316)
(-3.10439 -1.33664 4.80039e-316)
(-2.69663 -1.63831 3.96809e-316)
(-2.34785 -1.73639 3.68876e-316)
(-1.88966 -1.9567 3.0204e-316)
(-1.28762 -1.98522 2.70152e-316)
(-0.980019 -1.98722 2.21657e-316)
(-0.043798 -1.88246 1.84275e-316)
(-0.584247 5.24205 1.27634e-315)
(-1.1495 4.36769 1.21096e-315)
(-1.95484 4.10157 1.12017e-315)
(-2.29614 3.20171 1.05623e-315)
(-2.85288 3.0578 9.56758e-316)
(-3.08866 2.26186 8.97606e-316)
(-3.43652 2.1422 7.97451e-316)
(-3.62963 1.43933 7.4612e-316)
(-3.78046 1.31026 6.50183e-316)
(-3.9416 0.651649 6.07024e-316)
(-3.89913 0.475768 5.17816e-316)
(-3.98918 -0.179525 4.81743e-316)
(-3.7602 -0.431887 4.00578e-316)
(-3.69273 -1.09389 3.69746e-316)
(-3.30457 -1.41335 2.98647e-316)
(-2.95591 -2.05356 2.71843e-316)
(-2.48138 -2.37029 2.15633e-316)
(-1.73247 -2.93658 1.97776e-316)
(-1.29662 -3.17653 1.66526e-316)
(-0.157689 -3.6251 1.85086e-316)
(-0.0863179 3.5864 4.51172e-316)
(-0.511527 2.91294 5.59328e-316)
(-0.750461 2.60293 5.89321e-316)
(-0.954659 1.96756 6.25301e-316)
(-1.2145 1.76766 6.13017e-316)
(-1.29868 1.18354 6.10642e-316)
(-1.50192 1.00652 5.74869e-316)
(-1.55892 0.468203 5.54129e-316)
(-1.65786 0.238425 5.07006e-316)
(-1.72813 -0.25997 4.79136e-316)
(-1.70265 -0.611386 4.28667e-316)
(-1.78693 -1.06867 3.99929e-316)
(-1.63688 -1.59519 3.51305e-316)
(-1.69389 -1.98171 3.24962e-316)
(-1.4481 -2.69436 2.81427e-316)
(-1.37001 -2.93285 2.58414e-316)
(-1.12209 -3.73554 2.21062e-316)
(-0.719938 -3.72202 1.9884e-316)
(-0.67165 -4.29059 1.65219e-316)
(0.175246 -4.01394 1.2914e-316)
(-0.481866 5.87844 3.11834e-316)
(-0.667444 5.12443 4.32391e-316)
(-1.34641 4.56372 4.7237e-316)
(-1.4199 3.7194 5.06907e-316)
(-1.85718 3.40996 5.02632e-316)
(-1.96486 2.56107 4.99387e-316)
(-2.20398 2.39911 4.71666e-316)
(-2.40607 1.57685 4.52294e-316)
(-2.4779 1.45717 4.13353e-316)
(-2.78 0.652215 3.87121e-316)
(-2.69424 0.482241 3.43382e-316)
(-3.05683 -0.317511 3.13797e-316)
(-2.80319 -0.625367 2.6789e-316)
(-3.12716 -1.38902 2.34827e-316)
(-2.69123 -1.91557 1.86709e-316)
(-2.79233 -2.52433 1.46408e-316)
(-2.20049 -3.30509 9.31861e-317)
(-1.8138 -3.55638 3.62567e-317)
(-1.21156 -4.40585 -3.0302e-317)
(-0.17736 -4.25694 -1.27622e-316)
(-0.476624 5.12348 -2.02232e-316)
(-0.119797 4.10008 1.76707e-317)
(-0.721798 3.63374 1.31637e-316)
(-0.41612 2.68948 2.30754e-316)
(-0.753484 2.52232 2.78893e-316)
(-0.579978 1.6803 3.15775e-316)
(-0.751173 1.61778 3.25051e-316)
(-0.72457 0.859942 3.2976e-316)
(-0.784214 0.755855 3.17851e-316)
(-0.912711 0.0492713 3.06923e-316)
(-0.872267 -0.224055 2.85127e-316)
(-1.16564 -0.904585 2.68119e-316)
(-0.992957 -1.47827 2.43675e-316)
(-1.44863 -2.10836 2.26501e-316)
(-1.06772 -3.10452 2.04111e-316)
(-1.63612 -3.55196 1.90481e-316)
(-0.949133 -4.98103 1.72766e-316)
(-1.48187 -4.9822 1.63246e-316)
(-0.437479 -6.38709 1.50238e-316)
(-0.677818 -5.77999 1.36406e-316)
(-0.698789 6.50831 -6.86647e-317)
(-0.156735 5.32528 8.65364e-317)
(-1.01762 4.83366 1.65817e-316)
(-0.682889 3.67318 2.2734e-316)
(-1.12307 3.53036 2.58242e-316)
(-1.08377 2.48978 2.77364e-316)
(-1.25872 2.50867 2.80286e-316)
(-1.48748 1.56399 2.78522e-316)
(-1.49467 1.62939 2.65958e-316)
(-1.9713 0.717766 2.53005e-316)
(-1.83876 0.736649 2.318e-316)
(-2.55104 -0.207568 2.1198e-316)
(-2.23192 -0.340452 1.85198e-316)
(-3.13671 -1.33946 1.59197e-316)
(-2.50158 -1.76331 1.2695e-316)
(-3.46018 -2.72274 9.15867e-317)
(-2.31397 -3.58759 5.09588e-317)
(-3.01818 -4.24192 -2.24582e-318)
(-1.20084 -5.46965 -5.85964e-317)
(-1.20696 -5.6442 -1.46712e-316)
(-0.580602 6.13845 -3.37539e-316)
(0.207624 4.50305 -1.41198e-316)
(-0.474162 4.26891 -2.55999e-317)
(0.0986161 2.84197 7.18546e-317)
(-0.210326 3.00783 1.29877e-316)
(0.0880811 1.86079 1.7307e-316)
(-0.0165337 2.10203 1.95106e-316)
(0.0446263 1.15062 2.08258e-316)
(0.0358184 1.33044 2.09666e-316)
(-0.133767 0.461116 2.07215e-316)
(-0.0775435 0.462052 1.98329e-316)
(-0.519704 -0.437722 1.89359e-316)
(-0.332859 -0.780884 1.77402e-316)
(-1.13316 -1.78281 1.68528e-316)
(-0.614306 -2.70079 1.5937e-316)
(-1.87947 -3.74764 1.56797e-316)
(-0.656807 -5.44699 1.56277e-316)
(-2.41884 -6.23052 1.66692e-316)
(-0.0174108 -8.41813 1.81151e-316)
(-1.90942 -8.49723 2.1135e-316)
(-0.484191 6.86568 -7.01393e-317)
(0.24614 5.14353 2.46394e-317)
(-0.329319 4.89688 8.34667e-317)
(0.0343037 3.32632 1.27034e-316)
(-0.186404 3.49478 1.56091e-316)
(-0.186276 2.23476 1.74191e-316)
(-0.195465 2.52009 1.83495e-316)
(-0.496527 1.47807 1.86719e-316)
(-0.400739 1.79586 1.83687e-316)
(-1.00669 0.822434 1.77608e-316)
(-0.836432 1.12901 1.66981e-316)
(-1.80997 0.0523895 1.54794e-316)
(-1.48509 0.284757 1.39285e-316)
(-2.90628 -1.06515 1.22137e-316)
(-2.17563 -1.0295 1.02805e-316)
(-4.04874 -2.74068 7.96374e-317)
(-2.42464 -3.133 5.64195e-317)
(-4.47035 -5.04121 2.53312e-317)
(-1.28005 -6.18677 -2.12883e-318)
(-2.60874 -7.83251 -3.59848e-317)
(-0.18788 6.40585 -2.26785e-316)
(0.358992 4.36428 -1.06317e-316)
(0.196855 4.49753 -2.60403e-317)
(0.595454 2.7069 4.23198e-317)
(0.609454 3.23859 8.62004e-317)
(0.820951 1.87635 1.19316e-316)
(0.919109 2.42194 1.38146e-316)
(0.960738 1.36488 1.4963e-316)
(1.06009 1.85581 1.53237e-316)
(0.916645 0.91107 1.52972e-316)
(0.985811 1.29223 1.4882e-316)
(0.581106 0.231935 1.43812e-316)
(0.691802 0.359932 1.37906e-316)
(-0.13668 -1.0655 1.34404e-316)
(0.285536 -1.49254 1.32967e-316)
(-1.24716 -3.4706 1.39148e-316)
(0.0910427 -4.94371 1.50689e-316)
(-2.49686 -7.35329 1.80591e-316)
(0.700588 -10.2149 2.18452e-316)
(-2.79027 -12.3768 3.00933e-316)
(0.250613 6.67357 5.12837e-317)
(0.480087 4.7208 6.65888e-317)
(0.735143 4.63668 9.02525e-317)
(0.683365 2.88589 1.06438e-316)
(0.942651 3.25522 1.22201e-316)
(0.723071 1.91225 1.31867e-316)
(1.00102 2.37628 1.38356e-316)
(0.625026 1.33622 1.40755e-316)
(0.871395 1.84134 1.3984e-316)
(0.262764 0.902279 1.36344e-316)
(0.455408 1.46121 1.30313e-316)
(-0.539774 0.349351 1.22682e-316)
(-0.324031 0.975089 1.13462e-316)
(-1.93287 -0.673044 1.02767e-316)
(-1.39561 -0.00301856 9.15818e-317)
(-3.84805 -2.59742 7.78966e-317)
(-2.25686 -2.06223 6.5647e-317)
(-5.45533 -5.75511 5.07896e-317)
(-1.4596 -6.14849 3.99546e-317)
(-4.04758 -10.0443 4.1808e-317)
(0.425019 5.76684 -7.27164e-317)
(0.346684 3.93717 -1.71601e-317)
(1.05205 4.30991 2.60033e-317)
(1.03743 2.516 6.54661e-317)
(1.57011 3.19111 8.99354e-317)
(1.58854 1.81565 1.09194e-316)
(1.99155 2.49822 1.19442e-316)
(2.00526 1.47454 1.25302e-316)
(2.26455 2.17413 1.26382e-316)
(2.23475 1.28268 1.24889e-316)
(2.32401 2.01641 1.21249e-316)
(2.17975 0.937206 1.17098e-316)
(2.12577 1.63405 1.1301e-316)
(1.7151 -0.0880941 1.11219e-316)
(1.72339 0.285738 1.11925e-316)
(0.714275 -2.66719 1.20553e-316)
(1.41495 -3.38341 1.34033e-316)
(-0.860267 -8.00732 1.68554e-316)
(1.75126 -11.296 2.0799e-316)
(-2.45366 -17.1755 2.98385e-316)
(1.23171 5.97637 1.04797e-316)
(0.550158 4.13849 8.78678e-317)
(1.81569 4.0272 9.4259e-317)
(1.16265 2.41697 9.84207e-317)
(1.98123 2.77976 1.05665e-316)
(1.51539 1.54591 1.10129e-316)
(2.12164 2.03066 1.13649e-316)
(1.73418 1.11624 1.14824e-316)
(2.1512 1.67315 1.14228e-316)
(1.69306 0.884444 1.11892e-316)
(1.90196 1.55313 1.08107e-316)
(1.17125 0.567645 1.03138e-316)
(1.1907 1.42354 9.7285e-317)
(-0.136395 -0.279775 9.0261e-317)
(-0.100989 0.87563 8.27332e-317)
(-2.50854 -2.32458 7.27645e-317)
(-1.66849 -0.800981 6.23057e-317)
(-5.51276 -6.15799 4.74447e-317)
(-1.73727 -5.09648 3.13342e-317)
(-5.52109 -11.0127 1.44809e-317)
(0.885567 4.3674 3.75366e-317)
(0.336854 3.47375 8.74127e-317)
(1.85243 3.79757 1.00517e-316)
(1.52015 2.36639 1.17363e-316)
(2.58015 2.87882 1.21123e-316)
(2.44454 1.68176 1.25173e-316)
(3.16964 2.29434 1.2455e-316)
(3.18134 1.43121 1.22654e-316)
(3.62312 2.18155 1.18682e-316)
(3.76464 1.46671 1.13661e-316)
(3.90561 2.41451 1.07822e-316)
(4.17323 1.49689 1.01996e-316)
(3.95356 2.6746 9.66694e-317)
(4.3289 0.945089 9.34252e-317)
(3.72069 2.21308 9.22116e-317)
(4.08402 -1.39235 9.78572e-317)
(3.33897 -0.859802 1.0632e-316)
(3.10697 -7.8577 1.31934e-316)
(3.03556 -10.9761 1.5779e-316)
(0.366327 -22.6036 2.13139e-316)
(2.10941 4.97602 -2.51409e-317)
(0.462633 3.36892 2.42274e-317)
(2.44839 3.12084 4.5595e-317)
(1.33402 1.85926 6.19296e-317)
(2.54249 2.08722 7.25485e-317)
(1.9594 1.10776 7.97413e-317)
(2.81043 1.49421 8.51229e-317)
(2.4966 0.798739 8.83489e-317)
(3.05063 1.27475 9.01395e-317)
(2.83394 0.720932 9.04491e-317)
(3.06539 1.31692 8.96498e-317)
(2.77856 0.611176 8.78209e-317)
(2.61471 1.41053 8.51668e-317)
(1.95514 0.000692475 8.1221e-317)
(1.37144 1.17572 7.60034e-317)
(-0.307688 -1.9464 6.71428e-317)
(-0.763814 -0.0329765 5.51656e-317)
(-4.59606 -5.99612 3.24391e-317)
(-2.03414 -3.34893 4.21252e-318)
(-7.61008 -9.0926 -5.27864e-317)
(1.01457 2.58901 2.94112e-316)
(0.609892 3.21959 3.05361e-316)
(2.71891 3.13594 2.55905e-316)
(2.38185 2.26092 2.24433e-316)
(3.92107 2.38545 1.95996e-316)
(3.72592 1.45465 1.76255e-316)
(4.75323 1.86829 1.6006e-316)
(4.77685 1.22859 1.4636e-316)
(5.4061 1.89928 1.33809e-316)
(5.72761 1.42773 1.21825e-316)
(5.98579 2.40994 1.10323e-316)
(6.7186 1.79116 9.94646e-317)
(6.47194 3.21485 8.95941e-317)
(7.81289 1.807 8.18411e-317)
(6.6755 3.79044 7.60909e-317)
(8.98294 0.124566 7.63161e-317)
(6.25076 2.24667 7.88283e-317)
(9.91469 -6.83227 9.43507e-317)
(4.41598 -8.42111 1.09321e-316)
(7.6751 -28.6645 1.36125e-316)
(2.55961 3.76226 -3.20246e-316)
(0.172813 2.21696 -1.67509e-316)
(2.08199 1.93397 -9.87252e-317)
(0.888373 1.07148 -4.85452e-317)
(2.00811 1.20256 -1.74976e-317)
(1.51792 0.568212 4.49477e-318)
(2.34759 0.815138 2.11137e-317)
(2.1591 0.392054 3.37554e-317)
(2.7128 0.686615 4.39458e-317)
(2.68551 0.391016 5.20182e-317)
(2.91475 0.742453 5.85592e-317)
(2.96749 0.38591 6.36691e-317)
(2.73539 0.824699 6.74449e-317)
(2.6923 0.0160329 6.93074e-317)
(1.75708 0.602835 6.87571e-317)
(1.02851 -1.48503 6.28444e-317)
(-0.451843 -0.455935 5.18715e-317)
(-3.87654 -4.76388 2.49961e-317)
(-2.23624 -2.08498 -7.98177e-318)
(-12.215 -2.11714 -8.2452e-317)
(0.851252 0.937966 1.1781e-315)
(1.54988 3.4544 7.95117e-316)
(4.46601 2.61018 5.8647e-316)
(4.40464 2.22989 4.34898e-316)
(6.68272 1.91562 3.53732e-316)
(6.41495 1.18505 2.95611e-316)
(7.86037 1.40385 2.56628e-316)
(7.8501 0.953946 2.2447e-316)
(8.73857 1.50757 1.97285e-316)
(9.25265 1.25673 1.7223e-316)
(9.76608 2.1601 1.48985e-316)
(11.0754 1.85527 1.27272e-316)
(11.099 3.29219 1.07503e-316)
(13.6401 2.37023 9.06617e-317)
(12.429 4.71427 7.70315e-317)
(17.0976 1.48654 7.00712e-317)
(12.344 5.2441 6.67261e-317)
(21.293 -5.53666 7.59719e-317)
(6.7442 -2.785 8.54699e-317)
(22.9001 -36.2549 1.07842e-316)
(2.38398 2.17554 -9.74197e-316)
(-0.428429 0.13299 -6.26822e-316)
(-0.236804 0.269917 -4.3899e-316)
(-1.0377 -0.188992 -3.03958e-316)
(-1.12099 0.0422756 -2.27012e-316)
(-1.2611 -0.102635 -1.71411e-316)
(-1.13209 -0.00553198 -1.31526e-316)
(-1.17589 -0.0958408 -9.91355e-317)
(-1.03119 -0.0914112 -7.18653e-317)
(-1.13769 -0.155327 -4.78909e-317)
(-1.12779 -0.235842 -2.64975e-317)
(-1.38529 -0.289699 -7.40715e-318)
(-1.62981 -0.513549 9.22044e-318)
(-2.18543 -0.58575 2.26311e-317)
(-2.77661 -1.14678 3.19806e-317)
(-4.08564 -1.19076 3.39452e-317)
(-4.48153 -2.53102 2.96709e-317)
(-8.89923 -1.40668 8.28356e-318)
(-3.39128 -2.98975 -1.66225e-317)
(-23.5565 13.5517 -7.24594e-317)
(0.0892328 -0.0938178 2.88859e-315)
(3.5967 4.72041 1.55756e-315)
(9.23931 2.80724 1.09534e-315)
(9.36874 2.57437 7.72629e-316)
(13.747 1.92404 6.35501e-316)
(13.0632 1.10888 5.36817e-316)
(15.6406 1.2712 4.74357e-316)
(15.4459 0.836853 4.20648e-316)
(17.0467 1.4004 3.74213e-316)
(17.9386 1.24238 3.30069e-316)
(19.1384 2.1827 2.88322e-316)
(21.683 2.04413 2.48714e-316)
(22.5422 3.56512 2.123e-316)
(27.5898 2.89735 1.80481e-316)
(27.0787 5.51304 1.53936e-316)
(36.1088 2.36705 1.36197e-316)
(29.5835 7.58935 1.22912e-316)
(46.147 -5.82695 1.21194e-316)
(16.2111 5.48658 1.15413e-316)
(51.4059 -48.5026 1.18654e-316)
)
;

boundaryField
{
    cavity
    {
        type            myImplicitVelocity;
    }
    lid
    {
        type            fixedValue;
        value           uniform (1 0 0);
    }
    frontAndBack
    {
        type            empty;
    }
}


// ************************************************************************* //
