/*--------------------------------*- C++ -*----------------------------------*\
| =========                 |                                                 |
| \\      /  F ield         | foam-extend: Open Source CFD                    |
|  \\    /   O peration     | Version:  3.0                                   |
|   \\  /    A nd           | Web:         http://www.extend-project.de       |
|    \\/     M anipulation  |                                                 |
\*---------------------------------------------------------------------------*/
FoamFile
{
    version     2.0;
    format      ascii;
    class       volScalarField;
    location    "25";
    object      p;
}
// * * * * * * * * * * * * * * * * * * * * * * * * * * * * * * * * * * * * * //

dimensions      [0 0 0 0 0 0 0];

internalField   nonuniform List<scalar> 
7680
(
-0.235894
-0.223795
-0.214813
-0.205372
-0.198478
-0.191001
-0.185658
-0.179676
-0.175517
-0.170698
-0.167458
-0.16356
-0.161044
-0.157885
-0.155942
-0.153379
-0.151893
-0.149811
-0.148685
-0.146991
-0.146144
-0.144757
-0.144118
-0.142968
-0.142473
-0.141495
-0.141084
-0.140216
-0.139831
-0.139013
-0.138595
-0.137766
-0.137256
-0.136353
-0.135686
-0.134641
-0.133748
-0.132488
-0.131293
-0.129738
-0.235664
-0.223577
-0.214604
-0.205173
-0.198285
-0.190816
-0.185479
-0.179502
-0.175347
-0.170533
-0.167297
-0.163403
-0.160889
-0.157733
-0.155793
-0.153232
-0.151747
-0.149668
-0.148543
-0.146852
-0.146005
-0.14462
-0.143982
-0.142834
-0.142339
-0.141362
-0.140952
-0.140085
-0.1397
-0.138883
-0.138466
-0.137638
-0.137128
-0.136226
-0.13556
-0.134515
-0.133623
-0.132364
-0.13117
-0.129615
-0.235144
-0.223086
-0.214133
-0.204723
-0.197851
-0.190399
-0.185074
-0.179112
-0.174967
-0.170164
-0.166935
-0.16305
-0.160543
-0.157394
-0.155459
-0.152904
-0.151423
-0.149349
-0.148227
-0.14654
-0.145696
-0.144315
-0.143678
-0.142533
-0.14204
-0.141066
-0.140657
-0.139792
-0.139409
-0.138594
-0.138178
-0.137352
-0.136844
-0.135943
-0.135279
-0.134237
-0.133346
-0.13209
-0.130898
-0.129346
-0.23441
-0.222389
-0.213464
-0.204084
-0.197234
-0.189805
-0.184497
-0.178554
-0.174422
-0.169634
-0.166415
-0.162543
-0.160043
-0.156905
-0.154975
-0.152429
-0.150953
-0.148886
-0.147767
-0.146085
-0.145244
-0.143868
-0.143233
-0.142091
-0.1416
-0.140629
-0.140222
-0.13936
-0.138978
-0.138165
-0.137751
-0.136928
-0.136421
-0.135523
-0.134861
-0.133822
-0.132934
-0.131682
-0.130493
-0.128946
-0.233387
-0.22142
-0.212535
-0.203196
-0.196377
-0.188981
-0.183697
-0.17778
-0.173666
-0.1689
-0.165696
-0.161841
-0.159353
-0.156228
-0.154308
-0.151774
-0.150304
-0.148247
-0.147134
-0.14546
-0.144622
-0.143252
-0.142621
-0.141485
-0.140996
-0.14003
-0.139624
-0.138767
-0.138387
-0.137578
-0.137166
-0.136346
-0.135842
-0.134949
-0.134289
-0.133255
-0.132371
-0.131124
-0.12994
-0.128399
-0.232152
-0.220248
-0.21141
-0.202121
-0.195338
-0.187981
-0.182725
-0.17684
-0.172748
-0.168007
-0.16482
-0.160986
-0.158511
-0.155403
-0.153493
-0.150972
-0.149511
-0.147464
-0.146357
-0.144692
-0.143859
-0.142497
-0.141869
-0.140739
-0.140253
-0.139292
-0.138889
-0.138035
-0.137658
-0.136853
-0.136444
-0.135628
-0.135127
-0.134238
-0.133581
-0.132553
-0.131673
-0.130433
-0.129255
-0.127723
-0.230631
-0.218806
-0.210027
-0.200799
-0.194061
-0.186753
-0.181532
-0.175686
-0.171621
-0.166912
-0.163747
-0.159938
-0.15748
-0.154393
-0.152496
-0.149992
-0.148541
-0.146508
-0.145408
-0.143755
-0.142928
-0.141575
-0.140951
-0.139829
-0.139347
-0.138392
-0.137992
-0.137145
-0.13677
-0.135971
-0.135564
-0.134754
-0.134256
-0.133373
-0.132721
-0.131699
-0.130826
-0.129593
-0.128424
-0.126902
-0.2289
-0.217164
-0.20845
-0.199292
-0.192605
-0.185352
-0.18017
-0.174368
-0.170334
-0.16566
-0.162519
-0.158739
-0.156299
-0.153235
-0.151353
-0.148867
-0.147427
-0.14541
-0.144319
-0.142677
-0.141857
-0.140514
-0.139895
-0.138782
-0.138303
-0.137355
-0.136958
-0.136117
-0.135745
-0.134952
-0.134549
-0.133745
-0.13325
-0.132374
-0.131727
-0.130713
-0.129846
-0.128623
-0.127462
-0.125952
-0.226886
-0.215254
-0.206618
-0.197542
-0.190913
-0.183725
-0.178589
-0.172839
-0.168841
-0.164209
-0.161095
-0.157349
-0.154931
-0.151895
-0.150029
-0.147566
-0.146139
-0.14414
-0.143059
-0.141432
-0.14062
-0.139289
-0.138676
-0.137572
-0.137098
-0.136159
-0.135766
-0.134933
-0.134564
-0.133778
-0.133378
-0.132582
-0.132092
-0.131223
-0.130582
-0.129577
-0.128718
-0.127506
-0.126356
-0.124859
-0.224667
-0.213149
-0.204597
-0.19561
-0.189046
-0.181928
-0.176843
-0.171149
-0.16719
-0.162603
-0.15952
-0.155811
-0.153417
-0.15041
-0.148563
-0.146124
-0.144711
-0.142731
-0.141661
-0.14005
-0.139245
-0.137928
-0.137321
-0.136228
-0.135758
-0.134829
-0.134439
-0.133614
-0.133249
-0.132471
-0.132075
-0.131286
-0.130801
-0.129941
-0.129306
-0.128311
-0.12746
-0.12626
-0.125122
-0.12364
-0.22217
-0.210781
-0.202325
-0.193438
-0.186948
-0.17991
-0.174881
-0.169251
-0.165337
-0.160801
-0.157753
-0.154085
-0.151718
-0.148745
-0.146919
-0.144508
-0.143111
-0.141153
-0.140095
-0.138503
-0.137707
-0.136405
-0.135805
-0.134724
-0.13426
-0.133341
-0.132956
-0.13214
-0.13178
-0.13101
-0.130619
-0.129839
-0.129359
-0.128509
-0.127882
-0.126898
-0.126057
-0.124871
-0.123745
-0.122281
-0.219472
-0.208221
-0.199868
-0.191089
-0.184678
-0.177725
-0.172758
-0.167196
-0.163329
-0.158849
-0.155838
-0.152214
-0.149876
-0.14694
-0.145135
-0.142753
-0.141373
-0.13944
-0.138395
-0.136822
-0.136036
-0.134749
-0.134156
-0.133089
-0.13263
-0.131722
-0.131342
-0.130536
-0.13018
-0.12942
-0.129033
-0.128262
-0.127788
-0.126948
-0.126329
-0.125357
-0.124526
-0.123355
-0.122243
-0.120798
-0.216502
-0.205404
-0.197165
-0.188505
-0.182181
-0.175323
-0.170424
-0.164937
-0.161123
-0.156704
-0.153734
-0.15016
-0.147854
-0.144958
-0.143178
-0.140829
-0.139468
-0.137561
-0.13653
-0.134979
-0.134204
-0.132934
-0.13235
-0.131298
-0.130846
-0.12995
-0.129575
-0.12878
-0.128429
-0.127679
-0.127298
-0.126538
-0.126071
-0.125242
-0.124631
-0.123673
-0.122854
-0.121699
-0.120603
-0.119177
-0.213337
-0.202401
-0.194282
-0.185749
-0.179518
-0.17276
-0.167932
-0.162526
-0.158768
-0.154414
-0.151487
-0.147965
-0.145693
-0.142839
-0.141085
-0.13877
-0.137429
-0.13555
-0.134534
-0.133006
-0.132242
-0.130991
-0.130415
-0.129378
-0.128932
-0.12805
-0.12768
-0.126897
-0.12655
-0.125812
-0.125436
-0.124687
-0.124227
-0.12341
-0.122808
-0.121864
-0.121057
-0.11992
-0.11884
-0.117437
-0.209906
-0.199147
-0.191159
-0.182764
-0.176633
-0.169985
-0.165235
-0.159916
-0.156219
-0.151935
-0.149056
-0.145592
-0.143356
-0.140548
-0.138823
-0.136546
-0.135227
-0.133378
-0.132379
-0.130875
-0.130124
-0.128893
-0.128327
-0.127307
-0.126868
-0.126
-0.125637
-0.124866
-0.124526
-0.123799
-0.123429
-0.122692
-0.12224
-0.121437
-0.120844
-0.119916
-0.119122
-0.118004
-0.116942
-0.115562
-0.206288
-0.195714
-0.187864
-0.179613
-0.173589
-0.167055
-0.162387
-0.15716
-0.153526
-0.149316
-0.146487
-0.143082
-0.140885
-0.138125
-0.13643
-0.134192
-0.132895
-0.131078
-0.130096
-0.128619
-0.12788
-0.126671
-0.126114
-0.125111
-0.124681
-0.123827
-0.12347
-0.122713
-0.122378
-0.121664
-0.1213
-0.120576
-0.120131
-0.119342
-0.11876
-0.117848
-0.117068
-0.115969
-0.114926
-0.113571
-0.202412
-0.192037
-0.184335
-0.17624
-0.170329
-0.163918
-0.159339
-0.15421
-0.150645
-0.146515
-0.143739
-0.140398
-0.138243
-0.135536
-0.133873
-0.131677
-0.130405
-0.128623
-0.127659
-0.126209
-0.125485
-0.124299
-0.123753
-0.122769
-0.122347
-0.121509
-0.121159
-0.120416
-0.120087
-0.119387
-0.11903
-0.11832
-0.117884
-0.11711
-0.116539
-0.115644
-0.11488
-0.113802
-0.112779
-0.11145
-0.198356
-0.188189
-0.180641
-0.172708
-0.166915
-0.160633
-0.156145
-0.15112
-0.147626
-0.143579
-0.140858
-0.137585
-0.135472
-0.132819
-0.13119
-0.129038
-0.127791
-0.126044
-0.1251
-0.123679
-0.12297
-0.121807
-0.121272
-0.120308
-0.119893
-0.119073
-0.118729
-0.118001
-0.117679
-0.116993
-0.116643
-0.115947
-0.115519
-0.114761
-0.114202
-0.113325
-0.112576
-0.111521
-0.110519
-0.109218
-0.19405
-0.184104
-0.176721
-0.168961
-0.163294
-0.157149
-0.152759
-0.147843
-0.144426
-0.140466
-0.137805
-0.134603
-0.132537
-0.129942
-0.128348
-0.126243
-0.125024
-0.123315
-0.122392
-0.121002
-0.120308
-0.119171
-0.118647
-0.117704
-0.117299
-0.116497
-0.116161
-0.115449
-0.115134
-0.114462
-0.11412
-0.11344
-0.113021
-0.11228
-0.111733
-0.110876
-0.110144
-0.109111
-0.108132
-0.10686
-0.189573
-0.179857
-0.172644
-0.165063
-0.159527
-0.153524
-0.149235
-0.144432
-0.141094
-0.137225
-0.134626
-0.131497
-0.129479
-0.126944
-0.125386
-0.12333
-0.122139
-0.12047
-0.119567
-0.11821
-0.117531
-0.11642
-0.115909
-0.114987
-0.114591
-0.113808
-0.113479
-0.112783
-0.112475
-0.111819
-0.111485
-0.110821
-0.110412
-0.109688
-0.109153
-0.108316
-0.107601
-0.106593
-0.105637
-0.104395
-0.184857
-0.175383
-0.16835
-0.160958
-0.15556
-0.149706
-0.145525
-0.140842
-0.137587
-0.133815
-0.131281
-0.12823
-0.126263
-0.123791
-0.122272
-0.120267
-0.119106
-0.117479
-0.116599
-0.115276
-0.114614
-0.113531
-0.113033
-0.112134
-0.111748
-0.110984
-0.110664
-0.109986
-0.109686
-0.109046
-0.108721
-0.108073
-0.107674
-0.106968
-0.106448
-0.105632
-0.104935
-0.103953
-0.103021
-0.10181
-0.179979
-0.170755
-0.163908
-0.156711
-0.151455
-0.145756
-0.141684
-0.137125
-0.133956
-0.130284
-0.127816
-0.124846
-0.12293
-0.120524
-0.119045
-0.117093
-0.115963
-0.114378
-0.113522
-0.112233
-0.111589
-0.110534
-0.110048
-0.109174
-0.108798
-0.108054
-0.107742
-0.107081
-0.106789
-0.106167
-0.105849
-0.105218
-0.104831
-0.104144
-0.103637
-0.102843
-0.102164
-0.101209
-0.100302
-0.0991242
-0.174872
-0.16591
-0.159257
-0.152265
-0.147159
-0.141622
-0.137667
-0.133237
-0.130158
-0.126591
-0.124193
-0.121308
-0.119447
-0.117109
-0.115673
-0.113776
-0.112678
-0.111138
-0.110307
-0.109054
-0.108429
-0.107404
-0.106933
-0.106083
-0.105718
-0.104995
-0.104693
-0.104051
-0.103767
-0.103162
-0.102855
-0.102242
-0.101865
-0.101198
-0.100706
-0.0999345
-0.0992759
-0.0983478
-0.0974673
-0.0963238
-0.169614
-0.160922
-0.154469
-0.147687
-0.142734
-0.137364
-0.133527
-0.129231
-0.126244
-0.122784
-0.120458
-0.11766
-0.115855
-0.113587
-0.112194
-0.110354
-0.109289
-0.107796
-0.106989
-0.105774
-0.105167
-0.104173
-0.103716
-0.102892
-0.102538
-0.101836
-0.101543
-0.10092
-0.100645
-0.100058
-0.0997595
-0.0991652
-0.0988
-0.0981529
-0.0976755
-0.0969279
-0.0962894
-0.0953897
-0.0945361
-0.0934277
-0.164138
-0.155727
-0.149483
-0.14292
-0.138128
-0.132931
-0.129218
-0.125061
-0.122172
-0.118823
-0.116573
-0.113866
-0.112119
-0.109924
-0.108577
-0.106797
-0.105766
-0.104321
-0.103541
-0.102366
-0.101779
-0.100817
-0.100375
-0.0995771
-0.0992346
-0.0985562
-0.0982721
-0.09767
-0.0974037
-0.0968363
-0.0965474
-0.0959725
-0.0956193
-0.0949934
-0.0945318
-0.0938087
-0.0931911
-0.092321
-0.0914955
-0.0904235
-0.158523
-0.150399
-0.144369
-0.13803
-0.133402
-0.128383
-0.124797
-0.120782
-0.117992
-0.114758
-0.112585
-0.109969
-0.108282
-0.106163
-0.104861
-0.103142
-0.102147
-0.100751
-0.0999972
-0.0988621
-0.0982951
-0.0973663
-0.0969388
-0.0961685
-0.0958376
-0.0951824
-0.0949078
-0.0943263
-0.0940691
-0.093521
-0.093242
-0.0926868
-0.0923457
-0.0917414
-0.0912957
-0.0905976
-0.0900015
-0.0891615
-0.0883647
-0.08733
-0.152701
-0.144876
-0.139067
-0.132962
-0.128504
-0.12367
-0.120217
-0.116349
-0.113661
-0.110547
-0.108454
-0.105935
-0.10431
-0.102269
-0.101015
-0.0993597
-0.098401
-0.0970571
-0.096331
-0.0952379
-0.0946919
-0.0937974
-0.0933859
-0.0926441
-0.0923256
-0.0916946
-0.0914303
-0.0908703
-0.0906227
-0.090095
-0.0898265
-0.089292
-0.0889636
-0.0883818
-0.0879528
-0.0872807
-0.0867068
-0.0858982
-0.0851311
-0.084135
-0.146752
-0.139232
-0.13365
-0.127782
-0.123498
-0.118852
-0.115533
-0.111816
-0.109233
-0.10624
-0.104228
-0.101807
-0.100246
-0.0982841
-0.0970792
-0.095488
-0.0945665
-0.0932749
-0.092577
-0.0915263
-0.0910015
-0.0901418
-0.0897461
-0.0890332
-0.0887269
-0.0881204
-0.0878664
-0.0873282
-0.0870902
-0.086583
-0.0863249
-0.0858113
-0.0854958
-0.0849368
-0.0845246
-0.083879
-0.0833277
-0.082551
-0.0818142
-0.0808575
-0.14061
-0.133405
-0.128056
-0.122435
-0.11833
-0.113879
-0.1107
-0.107139
-0.104664
-0.101797
-0.0998694
-0.0975504
-0.0960544
-0.0941751
-0.093021
-0.0914967
-0.0906141
-0.0893768
-0.0887083
-0.0877019
-0.0871993
-0.0863758
-0.085997
-0.0853141
-0.0850209
-0.08444
-0.0841967
-0.0836813
-0.0834535
-0.0829678
-0.0827207
-0.0822289
-0.0819268
-0.0813915
-0.0809969
-0.0803787
-0.0798508
-0.0791071
-0.0784016
-0.0774854
-0.134353
-0.127469
-0.122359
-0.116987
-0.113065
-0.108812
-0.105774
-0.102371
-0.100007
-0.0972666
-0.0954252
-0.0932093
-0.0917798
-0.089984
-0.0888812
-0.0874246
-0.0865811
-0.0853988
-0.08476
-0.0837983
-0.083318
-0.082531
-0.0821689
-0.0815163
-0.0812361
-0.080681
-0.0804485
-0.079956
-0.0797382
-0.0792742
-0.0790381
-0.0785682
-0.0782797
-0.0777684
-0.0773914
-0.076801
-0.0762969
-0.0755866
-0.0749129
-0.074038
-0.127916
-0.121362
-0.116497
-0.111383
-0.10765
-0.103601
-0.100708
-0.0974694
-0.0952185
-0.09261
-0.0908572
-0.0887478
-0.0873871
-0.0856777
-0.084628
-0.0832416
-0.0824388
-0.0813135
-0.0807055
-0.0797902
-0.0793331
-0.0785841
-0.0782396
-0.0776185
-0.0773519
-0.0768237
-0.0766026
-0.0761339
-0.0759268
-0.0754852
-0.0752607
-0.0748136
-0.0745392
-0.0740527
-0.0736941
-0.0731323
-0.0726527
-0.0719769
-0.0713358
-0.0705034
-0.121379
-0.11516
-0.110543
-0.105691
-0.102148
-0.0983058
-0.0955613
-0.0924878
-0.0903519
-0.0878766
-0.0862134
-0.0842117
-0.0829205
-0.0812984
-0.0803023
-0.0789866
-0.0782249
-0.0771569
-0.07658
-0.0757113
-0.0752775
-0.0745668
-0.0742398
-0.0736504
-0.0733974
-0.072896
-0.0726862
-0.0722414
-0.0720449
-0.071626
-0.0714129
-0.0709887
-0.0707284
-0.0702669
-0.0699268
-0.069394
-0.0689392
-0.0682983
-0.0676903
-0.066901
-0.114675
-0.1088
-0.104438
-0.0998544
-0.0965077
-0.0928782
-0.0902857
-0.0873824
-0.0853648
-0.0830267
-0.0814557
-0.079565
-0.0783454
-0.0768133
-0.0758725
-0.0746299
-0.0739105
-0.0729018
-0.072357
-0.0715366
-0.0711271
-0.0704559
-0.0701472
-0.0695906
-0.0693518
-0.0688784
-0.0686804
-0.0682605
-0.0680751
-0.0676795
-0.0674785
-0.0670781
-0.0668324
-0.0663967
-0.0660757
-0.0655727
-0.0651433
-0.0645382
-0.0639643
-0.063219
-0.107885
-0.102358
-0.0982545
-0.0939419
-0.0907933
-0.0873787
-0.0849396
-0.0822082
-0.08031
-0.0781103
-0.0766323
-0.0748535
-0.0737061
-0.0722647
-0.0713796
-0.0702104
-0.0695336
-0.0685846
-0.068072
-0.0673002
-0.0669148
-0.0662833
-0.0659928
-0.0654692
-0.0652444
-0.0647991
-0.0646127
-0.0642177
-0.0640433
-0.0636712
-0.0634821
-0.0631055
-0.0628744
-0.0624647
-0.0621629
-0.0616899
-0.0612862
-0.0607173
-0.0601777
-0.0594771
-0.100942
-0.0957711
-0.0919326
-0.087898
-0.0849525
-0.081758
-0.0794764
-0.0769211
-0.0751456
-0.0730878
-0.0717053
-0.0700414
-0.0689682
-0.0676199
-0.0667921
-0.0656985
-0.0650656
-0.064178
-0.0636987
-0.0629768
-0.0626166
-0.062026
-0.0617545
-0.0612648
-0.0610548
-0.0606384
-0.0604644
-0.060095
-0.0599321
-0.0595842
-0.0594076
-0.0590555
-0.0588396
-0.0584566
-0.0581746
-0.0577324
-0.057355
-0.0568232
-0.0563187
-0.0556636
-0.0939291
-0.0891169
-0.0855451
-0.0817908
-0.0790499
-0.0760774
-0.0739543
-0.0715765
-0.0699243
-0.0680095
-0.0667231
-0.0651748
-0.0641761
-0.0629215
-0.0621512
-0.0611336
-0.0605446
-0.0597187
-0.0592727
-0.0586009
-0.0582657
-0.0577161
-0.0574634
-0.0570078
-0.0568124
-0.0564249
-0.0562629
-0.0559193
-0.0557677
-0.0554441
-0.0552798
-0.0549523
-0.0547515
-0.0543953
-0.054133
-0.0537218
-0.053371
-0.0528764
-0.0524074
-0.0517982
-0.0867778
-0.0823325
-0.0790331
-0.0755651
-0.0730334
-0.0702877
-0.0683267
-0.0661305
-0.0646045
-0.062836
-0.0616479
-0.0602179
-0.0592957
-0.058137
-0.0574257
-0.056486
-0.0559422
-0.0551795
-0.0547678
-0.0541475
-0.0538381
-0.0533307
-0.0530976
-0.052677
-0.0524967
-0.0521391
-0.0519897
-0.0516725
-0.0515328
-0.0512341
-0.0510826
-0.0507804
-0.0505953
-0.0502665
-0.0500245
-0.049645
-0.0493213
-0.0488648
-0.0484319
-0.0478696
-0.079571
-0.0754948
-0.0724694
-0.0692894
-0.0669681
-0.0644504
-0.0626523
-0.0606385
-0.0592393
-0.0576177
-0.0565283
-0.0552171
-0.0543715
-0.053309
-0.0526569
-0.0517952
-0.0512966
-0.0505973
-0.0502197
-0.049651
-0.0493673
-0.0489021
-0.0486883
-0.0483027
-0.0481374
-0.0478095
-0.0476726
-0.0473818
-0.0472537
-0.04698
-0.0468411
-0.0465642
-0.0463945
-0.0460933
-0.0458716
-0.045524
-0.0452274
-0.0448092
-0.0444127
-0.0438976
-0.0722416
-0.0685414
-0.0657952
-0.0629087
-0.0608017
-0.0585165
-0.0568845
-0.0550568
-0.0537869
-0.0523152
-0.0513266
-0.0501366
-0.0493694
-0.0484053
-0.0478136
-0.0470317
-0.0465794
-0.0459449
-0.0456026
-0.0450866
-0.0448294
-0.0444074
-0.0442137
-0.0438639
-0.0437142
-0.0434169
-0.0432929
-0.0430292
-0.0429133
-0.0426651
-0.0425394
-0.0422883
-0.0421346
-0.0418616
-0.0416607
-0.0413454
-0.0410766
-0.0406974
-0.0403379
-0.0398708
-0.0648722
-0.0615496
-0.0590836
-0.0564916
-0.0545996
-0.0525475
-0.0510822
-0.049441
-0.0483008
-0.0469792
-0.0460916
-0.0450231
-0.0443343
-0.0434686
-0.0429373
-0.0422353
-0.0418292
-0.0412595
-0.0409521
-0.0404889
-0.0402579
-0.0398791
-0.0397052
-0.0393911
-0.0392568
-0.0389898
-0.0388786
-0.0386419
-0.0385379
-0.0383152
-0.0382025
-0.0379772
-0.0378394
-0.0375944
-0.0374143
-0.0371315
-0.0368905
-0.0365504
-0.036228
-0.0358092
-0.057396
-0.0544569
-0.0522757
-0.0499831
-0.0483097
-0.0464948
-0.0451989
-0.0437474
-0.0427392
-0.0415705
-0.0407857
-0.0398409
-0.039232
-0.0384666
-0.037997
-0.0373764
-0.0370176
-0.036514
-0.0362425
-0.0358331
-0.0356292
-0.0352944
-0.0351409
-0.0348635
-0.034745
-0.0345092
-0.0344112
-0.0342022
-0.0341105
-0.0339139
-0.0338145
-0.0336156
-0.0334941
-0.0332778
-0.0331189
-0.0328692
-0.0326564
-0.0323561
-0.0320714
-0.0317014
-0.0498958
-0.0473409
-0.0454449
-0.043452
-0.0419975
-0.0404199
-0.0392936
-0.038032
-0.0371557
-0.0361399
-0.0354579
-0.0346367
-0.0341075
-0.0334423
-0.0330343
-0.0324949
-0.0321831
-0.0317455
-0.0315096
-0.0311538
-0.0309767
-0.0306858
-0.0305525
-0.0303115
-0.0302086
-0.0300038
-0.0299187
-0.0297372
-0.0296577
-0.0294869
-0.0294008
-0.0292281
-0.0291228
-0.0289351
-0.0287972
-0.0285806
-0.0283961
-0.0281355
-0.0278886
-0.0275677
-0.0423047
-0.0401393
-0.0385325
-0.0368435
-0.0356111
-0.0342742
-0.0333199
-0.032251
-0.0315087
-0.0306482
-0.0300705
-0.0293749
-0.0289269
-0.0283635
-0.0280181
-0.0275614
-0.0272976
-0.0269271
-0.0267276
-0.0264265
-0.0262768
-0.0260307
-0.0259182
-0.0257143
-0.0256276
-0.0254544
-0.0253827
-0.0252293
-0.0251623
-0.0250181
-0.0249455
-0.0247996
-0.0247108
-0.0245522
-0.0244359
-0.0242528
-0.0240969
-0.0238767
-0.023668
-0.0233967
-0.0347059
-0.0329297
-0.0316119
-0.0302266
-0.0292159
-0.0281195
-0.027337
-0.0264604
-0.0258518
-0.0251462
-0.0246727
-0.0241024
-0.0237351
-0.0232732
-0.0229902
-0.0226158
-0.0223997
-0.022096
-0.0219327
-0.0216859
-0.0215634
-0.0213617
-0.0212696
-0.0211027
-0.0210317
-0.0208899
-0.0208314
-0.0207058
-0.0206511
-0.0205331
-0.0204739
-0.0203546
-0.0202821
-0.0201525
-0.0200575
-0.019908
-0.0197807
-0.0196007
-0.0194302
-0.0192086
-0.0270324
-0.0256499
-0.0246244
-0.0235464
-0.0227601
-0.0219071
-0.0212986
-0.0206167
-0.0201436
-0.0195949
-0.0192269
-0.0187835
-0.0184983
-0.0181393
-0.0179197
-0.0176288
-0.0174612
-0.0172254
-0.0170989
-0.0169074
-0.0168126
-0.0166562
-0.0165851
-0.0164557
-0.016401
-0.0162913
-0.0162462
-0.0161491
-0.0161071
-0.0160159
-0.0159703
-0.0158781
-0.0158223
-0.0157221
-0.0156489
-0.0155332
-0.0154348
-0.0152956
-0.0151638
-0.0149922
-0.0193676
-0.0183777
-0.0176437
-0.0168721
-0.0163095
-0.015699
-0.0152638
-0.014776
-0.0144377
-0.0140452
-0.0137823
-0.0134653
-0.0132615
-0.013005
-0.0128482
-0.0126405
-0.0125209
-0.0123526
-0.0122624
-0.0121258
-0.0120583
-0.0119468
-0.0118964
-0.0118042
-0.0117655
-0.0116873
-0.0116556
-0.0115865
-0.011557
-0.0114922
-0.0114601
-0.0113947
-0.0113554
-0.0112844
-0.0112327
-0.0111507
-0.0110812
-0.0109826
-0.0108893
-0.0107678
-0.0116445
-0.0110509
-0.0106111
-0.0101487
-0.009812
-0.00944654
-0.00918632
-0.00889453
-0.00869258
-0.00845808
-0.00830133
-0.00811214
-0.00799094
-0.00783802
-0.00774498
-0.00762131
-0.00755062
-0.00745059
-0.00739749
-0.00731646
-0.00727698
-0.00721101
-0.0071817
-0.00712731
-0.00710504
-0.0070591
-0.00704097
-0.00700049
-0.0069837
-0.00694583
-0.00692759
-0.00688942
-0.00686688
-0.00682544
-0.00679559
-0.00674776
-0.00670738
-0.00664975
-0.00659532
-0.00652421
-0.00394652
-0.00374729
-0.00360028
-0.00344561
-0.00333353
-0.00321171
-0.00312552
-0.00302863
-0.00296212
-0.00288458
-0.00283331
-0.00277104
-0.00273172
-0.00268166
-0.00265178
-0.00261155
-0.00258915
-0.00255684
-0.00254032
-0.00251437
-0.0025024
-0.0024815
-0.00247291
-0.0024559
-0.00244967
-0.00243552
-0.00243069
-0.00241844
-0.00241411
-0.00240282
-0.00239811
-0.00238687
-0.00238087
-0.00236876
-0.00236052
-0.00234657
-0.00233511
-0.00231827
-0.00230252
-0.00228167
0.00379318
0.00359528
0.0034474
0.00329214
0.00317784
0.00305417
0.00296491
0.00286535
0.00279523
0.0027145
0.0026593
0.00259351
0.00255009
0.00249632
0.00246229
0.00241824
0.00239169
0.00235553
0.0023349
0.0023051
0.00228907
0.00226431
0.00225171
0.00223082
0.0022206
0.00220249
0.00219364
0.00217726
0.00216878
0.0021531
0.00214398
0.00212793
0.00211711
0.00209959
0.00208593
0.00206573
0.00204799
0.0020238
0.00200061
0.00197097
0.0114912
0.0108989
0.0104582
0.00999526
0.00965629
0.00928897
0.00902566
0.0087312
0.00852563
0.00828792
0.00812724
0.00793451
0.00780922
0.00765257
0.00755537
0.00742789
0.00735302
0.00724914
0.00719192
0.00710703
0.00706349
0.00699365
0.00696033
0.00690205
0.00687579
0.00682588
0.00680372
0.00675913
0.00673818
0.00669591
0.00667327
0.0066303
0.00660295
0.00655611
0.00652084
0.00646677
0.00642012
0.00635516
0.0062933
0.00621342
0.0192145
0.0182258
0.0174909
0.0167186
0.0161537
0.0155414
0.015103
0.0146125
0.0142706
0.013875
0.013608
0.0132875
0.0130796
0.0128194
0.0126584
0.0124468
0.0123231
0.0121509
0.0120566
0.011916
0.0118446
0.0117291
0.0116747
0.0115786
0.0115359
0.0114538
0.011418
0.0113448
0.0113111
0.0112419
0.0112055
0.0111353
0.0110911
0.0110147
0.0109576
0.0108695
0.0107937
0.0106878
0.0105871
0.0104569
0.0268795
0.0254981
0.0244716
0.0233929
0.0226044
0.0217494
0.0211377
0.0204531
0.0199763
0.0194244
0.0190524
0.0186055
0.0183161
0.0179534
0.0177295
0.0174348
0.017263
0.0170233
0.0168926
0.0166972
0.0165983
0.016438
0.0163629
0.0162296
0.0161709
0.0160571
0.0160081
0.0159068
0.0158607
0.015765
0.0157151
0.0156181
0.0155575
0.0154519
0.0153733
0.0152515
0.0151469
0.0150004
0.0148613
0.014681
0.0345533
0.0327781
0.0314592
0.0300732
0.0290601
0.0279618
0.0271761
0.0262967
0.0256844
0.0249755
0.024498
0.023924
0.0235526
0.0230869
0.0227997
0.0224214
0.022201
0.0218935
0.0217259
0.0214752
0.0213485
0.0211429
0.0210468
0.0208759
0.0208009
0.0206551
0.0205925
0.0204628
0.020404
0.0202816
0.020218
0.020094
0.0200167
0.0198817
0.0197814
0.0196257
0.0194922
0.0193051
0.0191273
0.018897
0.0421523
0.0399878
0.0383799
0.0366901
0.0354552
0.0341163
0.0331588
0.032087
0.031341
0.0304771
0.0298954
0.0291962
0.0287439
0.0281766
0.027827
0.0273664
0.0270983
0.0267239
0.0265201
0.0262151
0.0260612
0.0258112
0.0256945
0.0254867
0.0253959
0.0252187
0.025143
0.0249854
0.0249143
0.0247657
0.0246887
0.0245381
0.0244445
0.0242806
0.024159
0.0239698
0.0238078
0.0235805
0.0233646
0.0230847
0.0497439
0.0471898
0.0452925
0.0432987
0.0418417
0.040262
0.0391323
0.0378678
0.0369877
0.0359686
0.0352824
0.0344575
0.0339241
0.033255
0.0328426
0.0322993
0.0319832
0.0315415
0.0313014
0.0309416
0.0307603
0.0304654
0.030328
0.0300829
0.029976
0.0297671
0.0296779
0.0294923
0.0294086
0.0292335
0.029143
0.0289656
0.0288555
0.0286626
0.0285195
0.0282969
0.0281063
0.0278387
0.0275846
0.0272553
0.0572445
0.054306
0.0521235
0.0498297
0.0481538
0.0463366
0.0450374
0.0435829
0.0425708
0.0413987
0.0406098
0.0396612
0.0390479
0.0382785
0.0378046
0.03718
0.0368168
0.0363091
0.0360333
0.0356198
0.0354117
0.0350729
0.0349152
0.0346338
0.0345112
0.0342714
0.0341692
0.0339561
0.0338602
0.0336592
0.0335555
0.0333519
0.0332257
0.0330042
0.0328401
0.0325845
0.0323657
0.0320585
0.0317668
0.0313885
0.0647214
0.0613991
0.0589316
0.0563384
0.0544437
0.0523893
0.0509205
0.0492762
0.0481321
0.046807
0.0459152
0.0448429
0.0441496
0.0432799
0.0427442
0.0420381
0.0416276
0.0410538
0.040742
0.0402747
0.0400394
0.0396565
0.0394783
0.0391603
0.0390217
0.0387507
0.0386353
0.0383945
0.0382863
0.0380592
0.0379421
0.0377122
0.0375698
0.0373197
0.0371344
0.0368458
0.0365989
0.036252
0.0359227
0.0354957
0.0720912
0.0683912
0.0656434
0.0627555
0.0606457
0.058358
0.0567226
0.0548916
0.0536178
0.0521424
0.0511496
0.0499557
0.049184
0.0482158
0.0476196
0.0468336
0.0463768
0.0457381
0.0453913
0.0448712
0.0446096
0.0441835
0.0439855
0.0436316
0.0434777
0.0431762
0.0430481
0.0427803
0.0426601
0.0424076
0.0422776
0.0420219
0.0418636
0.0415855
0.0413795
0.0410586
0.040784
0.0403981
0.0400318
0.0395568
0.0794215
0.0753452
0.0723181
0.0691365
0.0668122
0.0642919
0.0624902
0.0604732
0.0590699
0.0574445
0.0563508
0.0550356
0.0541855
0.0531189
0.0524621
0.0515962
0.051093
0.0503895
0.0500074
0.0494345
0.0491463
0.0486769
0.0484588
0.048069
0.0478994
0.0475674
0.0474263
0.0471313
0.046999
0.0467209
0.0465778
0.0462963
0.0461221
0.0458159
0.0455892
0.0452359
0.0449337
0.044509
0.0441059
0.0435831
0.0866289
0.0821833
0.078882
0.0754122
0.0728775
0.0701291
0.0681644
0.0659648
0.0644347
0.0626623
0.0614698
0.0600356
0.0591089
0.0579459
0.05723
0.0562859
0.0557375
0.0549705
0.0545542
0.0539296
0.0536157
0.053104
0.0528665
0.0524417
0.0522571
0.0518953
0.0517417
0.0514203
0.0512763
0.0509734
0.0508176
0.0505108
0.0503212
0.0499875
0.0497407
0.0493557
0.0490264
0.0485636
0.0481243
0.0475545
0.0937813
0.0889685
0.0853945
0.0816382
0.0788942
0.0759188
0.0737919
0.0714107
0.0697542
0.0678355
0.0665445
0.064992
0.0639887
0.0627297
0.0619547
0.0609327
0.0603389
0.0595086
0.0590579
0.0583817
0.0580419
0.057488
0.0572308
0.0567709
0.0565711
0.0561794
0.0560132
0.0556653
0.0555095
0.0551816
0.055013
0.054681
0.0544758
0.0541148
0.0538477
0.0534312
0.053075
0.0525743
0.0520991
0.0514827
0.100795
0.0956232
0.0917823
0.0877456
0.0847968
0.0815993
0.0793138
0.0767549
0.074975
0.0729132
0.0715261
0.0698579
0.0687799
0.0674272
0.0665946
0.0654965
0.0648587
0.0639666
0.0634826
0.0627562
0.0623912
0.0617962
0.0615202
0.0610262
0.0608118
0.0603911
0.0602127
0.0598391
0.0596719
0.0593198
0.0591389
0.0587824
0.0585622
0.0581745
0.0578877
0.0574404
0.0570579
0.0565201
0.0560097
0.0553475
0.107739
0.102211
0.098105
0.09379
0.0906381
0.0872202
0.0847771
0.0820419
0.0801393
0.0779354
0.0764527
0.0746695
0.0735173
0.0720713
0.0711812
0.0700075
0.0693257
0.0683721
0.0678546
0.0670782
0.0666881
0.066052
0.0657569
0.0652289
0.0649996
0.06455
0.0643593
0.06396
0.0637812
0.0634049
0.0632116
0.0628306
0.0625952
0.062181
0.0618746
0.0613966
0.0609879
0.0604134
0.0598681
0.0591607
0.11453
0.108653
0.104289
0.0997028
0.0963526
0.0927197
0.0901231
0.0872158
0.0851937
0.0828513
0.0812755
0.0793803
0.0781558
0.076619
0.0756732
0.0744258
0.0737014
0.0726881
0.0721383
0.0713132
0.0708988
0.070223
0.0699096
0.0693485
0.0691051
0.0686274
0.0684249
0.0680007
0.067811
0.0674112
0.067206
0.0668013
0.0665513
0.0661112
0.0657858
0.065278
0.0648438
0.0642334
0.063654
0.0629024
0.121236
0.115015
0.110395
0.10554
0.101993
0.0981476
0.0953989
0.0923213
0.0901807
0.0877011
0.0860329
0.0840267
0.0827304
0.0811036
0.0801023
0.0787818
0.0780149
0.0769421
0.0763601
0.0754867
0.0750479
0.0743324
0.0740006
0.0734067
0.0731489
0.0726432
0.0724288
0.0719798
0.0717789
0.0713557
0.0711385
0.0707101
0.0704456
0.0699798
0.0696354
0.0690981
0.0686386
0.0679926
0.0673796
0.0665843
0.127774
0.121218
0.116349
0.111233
0.107495
0.103443
0.100546
0.0973028
0.0950471
0.0924341
0.0906763
0.0885622
0.0871963
0.0854821
0.0844272
0.0830358
0.0822278
0.0810975
0.0804843
0.0795641
0.0791019
0.0783482
0.0779987
0.077373
0.0771016
0.0765689
0.0763432
0.0758702
0.0756587
0.075213
0.0749842
0.074533
0.0742545
0.0737638
0.0734011
0.072835
0.0723511
0.0716705
0.0710247
0.0701867
0.134213
0.127326
0.122212
0.116838
0.112912
0.108654
0.105612
0.102205
0.0998355
0.0970907
0.0952442
0.0930235
0.0915887
0.0897879
0.0886797
0.0872181
0.0863693
0.0851819
0.0845378
0.0835711
0.0830855
0.0822937
0.0819265
0.0812693
0.0809841
0.0804245
0.0801873
0.0796905
0.0794683
0.0790001
0.0787598
0.0782859
0.0779933
0.077478
0.0770971
0.0765026
0.0759944
0.0752797
0.0746015
0.0737217
0.14047
0.133263
0.127911
0.122286
0.118177
0.113722
0.110538
0.106973
0.104493
0.10162
0.0996882
0.0973642
0.0958629
0.0939785
0.0928189
0.0912894
0.0904013
0.0891589
0.088485
0.0874735
0.0869655
0.086137
0.085753
0.0850653
0.0847671
0.0841816
0.0839337
0.0834138
0.0831815
0.0826917
0.0824404
0.0819446
0.0816386
0.0810995
0.0807011
0.0800791
0.0795474
0.0787997
0.0780901
0.0771695
0.146615
0.139092
0.133506
0.127635
0.123346
0.118696
0.115372
0.111651
0.109062
0.106064
0.104047
0.101621
0.100054
0.0980873
0.0968768
0.0952803
0.0943533
0.0930563
0.0923528
0.091297
0.0907667
0.0899019
0.0895009
0.088783
0.0884717
0.0878605
0.0876016
0.087059
0.0868165
0.0863052
0.0860429
0.0855254
0.085206
0.0846434
0.0842276
0.0835785
0.0830237
0.0822434
0.081503
0.0805423
0.152565
0.144737
0.138924
0.132815
0.128353
0.123514
0.120056
0.116184
0.113491
0.110371
0.108273
0.105749
0.104118
0.102072
0.100813
0.0991515
0.0981871
0.0968378
0.096106
0.0950075
0.094456
0.0935563
0.0931393
0.0923925
0.0920688
0.091433
0.0911638
0.0905994
0.0903473
0.0898154
0.0895427
0.0890044
0.0886723
0.088087
0.0876545
0.0869793
0.0864021
0.0855904
0.0848202
0.0838208
0.15839
0.150262
0.144227
0.137885
0.133252
0.128228
0.124638
0.120618
0.117822
0.114583
0.112404
0.109784
0.108091
0.105966
0.104659
0.102934
0.101933
0.100532
0.0997717
0.0986312
0.0980585
0.0971243
0.0966913
0.0959159
0.0955797
0.0949195
0.09464
0.0940539
0.0937921
0.0932399
0.0929567
0.0923979
0.092053
0.0914455
0.0909965
0.0902956
0.0896965
0.0888539
0.0880544
0.0870171
0.164006
0.155591
0.149343
0.142775
0.137979
0.132777
0.12906
0.124897
0.122002
0.118649
0.116393
0.11368
0.111927