/*--------------------------------*- C++ -*----------------------------------*\
| =========                 |                                                 |
| \\      /  F ield         | foam-extend: Open Source CFD                    |
|  \\    /   O peration     | Version:  3.0                                   |
|   \\  /    A nd           | Web:         http://www.extend-project.de       |
|    \\/     M anipulation  |                                                 |
\*---------------------------------------------------------------------------*/
FoamFile
{
    version     2.0;
    format      ascii;
    class       volSymmTensorField;
    location    "25";
    object      sigma;
}
// * * * * * * * * * * * * * * * * * * * * * * * * * * * * * * * * * * * * * //

dimensions      [0 0 0 0 0 0 0];

internalField   nonuniform List<symmTensor> 
7680
(
(-0.179272 -0.00271428 3.79889e-22 0.179271 -1.12053e-21 1.00328e-06)
(-0.178615 -0.00310866 6.14604e-22 0.178612 -2.2914e-21 2.8513e-06)
(-0.175885 -0.00336148 1.10012e-22 0.17588 -5.64149e-21 4.59731e-06)
(-0.171772 -0.00351192 -4.36292e-22 0.171766 -6.30287e-21 6.25413e-06)
(-0.166753 -0.00358787 -6.07683e-22 0.166745 -5.85737e-21 7.83147e-06)
(-0.161159 -0.00360943 -1.33447e-21 0.16115 -3.72968e-21 9.3369e-06)
(-0.155224 -0.00359124 -1.0985e-21 0.155214 -2.37913e-21 1.07761e-05)
(-0.149113 -0.00354407 -1.50101e-21 0.149101 -1.27246e-21 1.21531e-05)
(-0.142941 -0.00347589 -1.54809e-21 0.142928 1.12752e-21 1.34707e-05)
(-0.136789 -0.00339266 -7.74647e-22 0.136775 -3.19067e-22 1.47306e-05)
(-0.130715 -0.00329885 -9.76695e-22 0.130699 -2.48768e-21 1.59331e-05)
(-0.124758 -0.00319783 -9.30365e-22 0.12474 -3.22152e-21 1.70781e-05)
(-0.118943 -0.00309217 -1.65738e-21 0.118925 -3.02999e-21 1.81643e-05)
(-0.11329 -0.00298379 -3.70757e-21 0.11327 2.02055e-22 1.91897e-05)
(-0.107808 -0.00287419 -7.65041e-21 0.107788 2.36449e-21 2.01517e-05)
(-0.102505 -0.00276449 -8.345e-21 0.102484 4.1851e-21 2.10469e-05)
(-0.0973829 -0.00265555 -8.67966e-21 0.097361 7.58814e-21 2.18712e-05)
(-0.0924436 -0.00254804 -9.86171e-21 0.092421 1.05417e-20 2.26199e-05)
(-0.0876861 -0.00244247 -1.33515e-20 0.0876628 1.21243e-20 2.32878e-05)
(-0.0831089 -0.00233924 -1.62107e-20 0.083085 1.29863e-20 2.38689e-05)
(-0.0787099 -0.00223866 -2.30523e-20 0.0786855 1.2083e-20 2.43565e-05)
(-0.0744866 -0.00214096 -2.43285e-20 0.0744619 1.29344e-20 2.47434e-05)
(-0.0704368 -0.00204635 -2.49001e-20 0.0704118 1.51689e-20 2.50217e-05)
(-0.0665583 -0.00195499 -2.42772e-20 0.0665331 1.74196e-20 2.51829e-05)
(-0.0628492 -0.00186703 -2.40349e-20 0.0628239 1.83227e-20 2.52177e-05)
(-0.0593079 -0.0017826 -2.36977e-20 0.0592828 2.25967e-20 2.51162e-05)
(-0.0559335 -0.00170183 -2.15612e-20 0.0559087 2.56524e-20 2.48677e-05)
(-0.0527257 -0.00162484 -1.71882e-20 0.0527012 2.4772e-20 2.44608e-05)
(-0.0496844 -0.00155177 -1.78299e-20 0.0496605 2.09541e-20 2.38835e-05)
(-0.0468107 -0.00148277 -2.01798e-20 0.0467876 1.6928e-20 2.31226e-05)
(-0.044106 -0.001418 -1.96802e-20 0.0440838 1.37807e-20 2.21644e-05)
(-0.0415726 -0.00135765 -1.39804e-20 0.0415516 1.08718e-20 2.09943e-05)
(-0.0392136 -0.00130191 -5.60718e-21 0.039194 7.49157e-21 1.95968e-05)
(-0.037033 -0.00125101 -2.39687e-21 0.037015 8.63493e-21 1.79552e-05)
(-0.0350354 -0.00120518 -1.12451e-20 0.0350193 9.12141e-21 1.60522e-05)
(-0.0332266 -0.00116467 -1.68884e-20 0.0332127 7.90231e-21 1.38692e-05)
(-0.0316132 -0.00112966 -1.65751e-20 0.0316018 3.20902e-21 1.13865e-05)
(-0.0302029 -0.00110023 -6.25002e-21 0.0301943 3.56126e-21 8.58313e-06)
(-0.029004 -0.00107617 -3.70745e-21 0.0289986 9.16099e-22 5.43724e-06)
(-0.028026 -0.00105664 -8.66801e-22 0.028024 -1.49114e-21 1.92512e-06)
(-0.179135 -0.00812457 1.07926e-21 0.179134 -1.67658e-21 9.99222e-07)
(-0.17837 -0.00933391 1.51141e-21 0.178367 -2.90656e-21 2.84001e-06)
(-0.175563 -0.0101161 6.98117e-22 0.175558 -6.01355e-21 4.57907e-06)
(-0.171395 -0.0105895 1.03088e-21 0.171388 -6.16262e-21 6.2292e-06)
(-0.166337 -0.0108382 1.93939e-21 0.166329 -6.28092e-21 7.80017e-06)
(-0.160717 -0.0109229 1.73565e-21 0.160708 -3.67896e-21 9.29948e-06)
(-0.154766 -0.0108876 1.42839e-21 0.154755 -2.36929e-21 1.07328e-05)
(-0.148645 -0.0107648 1.26377e-21 0.148633 -2.40246e-22 1.21041e-05)
(-0.142469 -0.0105787 9.73873e-22 0.142456 3.20093e-21 1.34162e-05)
(-0.136317 -0.0103471 -9.93437e-22 0.136303 1.05343e-21 1.46707e-05)
(-0.130246 -0.0100836 -1.61203e-21 0.13023 -2.02974e-21 1.58681e-05)
(-0.124293 -0.00979842 -8.13611e-22 0.124276 -2.06447e-21 1.7008e-05)
(-0.118486 -0.00949922 -7.63987e-22 0.118468 -2.41592e-22 1.80894e-05)
(-0.11284 -0.0091919 -2.30456e-21 0.112821 3.15059e-21 1.91101e-05)
(-0.107368 -0.00888095 -6.02694e-21 0.107348 7.41566e-21 2.00677e-05)
(-0.102074 -0.0085698 -6.59495e-21 0.102053 1.02144e-20 2.09586e-05)
(-0.0969619 -0.00826108 -6.50227e-21 0.0969401 1.51165e-20 2.1779e-05)
(-0.0920326 -0.0079568 -5.80508e-21 0.0920101 1.37506e-20 2.2524e-05)
(-0.0872852 -0.00765854 -9.69764e-21 0.087262 1.52423e-20 2.31885e-05)
(-0.082718 -0.00736747 -1.56568e-20 0.0826942 1.35279e-20 2.37665e-05)
(-0.0783288 -0.00708455 -2.32502e-20 0.0783046 1.37912e-20 2.42514e-05)
(-0.0741152 -0.00681051 -2.28671e-20 0.0740906 1.468e-20 2.4636e-05)
(-0.0700748 -0.00654593 -2.14271e-20 0.0700498 1.77765e-20 2.49126e-05)
(-0.0662053 -0.0062913 -2.08981e-20 0.0661802 1.9042e-20 2.50724e-05)
(-0.0625047 -0.00604702 -2.44012e-20 0.0624796 2.55561e-20 2.51065e-05)
(-0.0589717 -0.00581346 -1.65758e-20 0.0589467 3.05171e-20 2.50048e-05)
(-0.0556052 -0.00559095 -1.51025e-20 0.0555804 3.40518e-20 2.47569e-05)
(-0.0524047 -0.00537981 -1.58979e-20 0.0523803 2.93304e-20 2.43513e-05)
(-0.0493703 -0.00518037 -1.96068e-20 0.0493465 2.52571e-20 2.37761e-05)
(-0.046503 -0.00499298 -2.11264e-20 0.04648 2.23136e-20 2.30182e-05)
(-0.0438041 -0.004818 -2.16081e-20 0.0437821 2.13814e-20 2.20641e-05)
(-0.0412761 -0.00465585 -2.14291e-20 0.0412552 2.01251e-20 2.0899e-05)
(-0.0389219 -0.00450698 -1.11001e-20 0.0389024 1.16673e-20 1.95076e-05)
(-0.0367455 -0.00437188 2.30257e-21 0.0367277 4.28253e-21 1.78733e-05)
(-0.0347516 -0.0042511 -6.38677e-21 0.0347356 1.08732e-20 1.59789e-05)
(-0.0329458 -0.00414521 -1.40747e-20 0.032932 1.25357e-20 1.38058e-05)
(-0.0313348 -0.0040548 -2.06156e-20 0.0313235 1.21123e-20 1.13344e-05)
(-0.0299263 -0.00398045 -6.71577e-21 0.0299177 1.29738e-20 8.54398e-06)
(-0.0287285 -0.00392255 -7.6297e-21 0.0287231 8.02735e-21 5.41251e-06)
(-0.0277509 -0.00388134 -4.94799e-21 0.027749 3.48471e-21 1.91642e-06)
(-0.178866 -0.0135345 1.7232e-21 0.178865 -2.29725e-21 9.9432e-07)
(-0.177884 -0.0155415 2.41352e-21 0.177882 -4.25858e-21 2.8261e-06)
(-0.174922 -0.0168404 1.23345e-21 0.174917 -5.73329e-21 4.55664e-06)
(-0.170644 -0.0176274 2.83448e-21 0.170637 -6.72973e-21 6.19868e-06)
(-0.165509 -0.0180421 3.02729e-21 0.165501 -5.88807e-21 7.76189e-06)
(-0.159837 -0.018185 4.15279e-21 0.159828 -3.7847e-21 9.25375e-06)
(-0.153853 -0.0181293 3.67367e-21 0.153842 -2.77832e-21 1.06799e-05)
(-0.147713 -0.0179287 5.0814e-21 0.147701 -6.05319e-22 1.20443e-05)
(-0.141528 -0.0176232 5.92071e-21 0.141515 1.3319e-21 1.33497e-05)
(-0.135376 -0.0172425 -3.44955e-22 0.135362 -2.14108e-22 1.45976e-05)
(-0.12931 -0.0168091 -3.47509e-21 0.129295 -9.5731e-22 1.57887e-05)
(-0.123368 -0.0163398 2.27303e-22 0.123351 -5.13918e-22 1.69226e-05)
(-0.117574 -0.0158475 3.47542e-21 0.117556 1.28666e-21 1.79981e-05)
(-0.111945 -0.0153418 1.32084e-21 0.111926 8.13815e-21 1.90132e-05)
(-0.106489 -0.0148303 -4.1659e-21 0.106469 1.74105e-20 1.99654e-05)
(-0.101214 -0.0143186 -5.10018e-21 0.101194 2.05167e-20 2.08513e-05)
(-0.0961221 -0.0138111 6.27217e-22 0.0961004 2.03863e-20 2.16669e-05)
(-0.0912127 -0.013311 -9.85511e-21 0.0911903 1.81076e-20 2.24076e-05)
(-0.0864853 -0.0128211 -6.10732e-21 0.0864623 1.38882e-20 2.3068e-05)
(-0.081938 -0.0123433 -1.74682e-20 0.0819144 1.59715e-20 2.36424e-05)
(-0.0775685 -0.0118791 -2.1148e-20 0.0775443 1.62979e-20 2.41241e-05)
(-0.073374 -0.0114297 -2.27061e-20 0.0733495 1.97729e-20 2.45061e-05)
(-0.0693522 -0.0109962 -1.95456e-20 0.0693274 2.31076e-20 2.47805e-05)
(-0.0655006 -0.0105793 -2.22724e-20 0.0654757 2.87889e-20 2.49389e-05)
(-0.0618174 -0.0101796 -1.10194e-20 0.0617924 3.64918e-20 2.49722e-05)
(-0.0583008 -0.00979787 -1.1655e-20 0.0582759 4.22329e-20 2.48705e-05)
(-0.0549498 -0.00943448 -1.20005e-20 0.0549252 4.48835e-20 2.46234e-05)
(-0.051764 -0.00909 -2.13418e-20 0.0517398 3.89898e-20 2.42195e-05)
(-0.0487434 -0.00876495 -2.01597e-20 0.0487197 3.31276e-20 2.3647e-05)
(-0.0458888 -0.00845986 -1.96153e-20 0.0458659 2.97497e-20 2.28928e-05)
(-0.0432016 -0.00817531 -1.5634e-20 0.0431797 3.06631e-20 2.19435e-05)
(-0.0406843 -0.00791194 -1.735e-20 0.0406635 3.60673e-20 2.07845e-05)
(-0.0383396 -0.00767044 -2.46778e-20 0.0383202 2.6365e-20 1.94005e-05)
(-0.0361715 -0.00745158 -1.19996e-20 0.0361537 8.26747e-21 1.77751e-05)
(-0.0341847 -0.00725619 1.27438e-21 0.0341688 2.10777e-20 1.5891e-05)
(-0.0323848 -0.0070852 -9.56577e-21 0.0323711 2.09159e-20 1.37298e-05)
(-0.0307784 -0.0069396 -1.21402e-20 0.0307671 2.28259e-20 1.12721e-05)
(-0.029373 -0.00682041 -2.24056e-21 0.0293645 2.36945e-20 8.49701e-06)
(-0.028177 -0.00672871 -5.56346e-21 0.0281716 1.18112e-20 5.38279e-06)
(-0.0271995 -0.00666575 -1.15968e-21 0.0271976 3.82495e-21 1.90593e-06)
(-0.178464 -0.0189441 2.3894e-21 0.178463 -3.11628e-21 9.88439e-07)
(-0.17716 -0.0217198 3.98166e-21 0.177157 -6.08173e-21 2.80929e-06)
(-0.173966 -0.0235143 2.42214e-21 0.173962 -5.36016e-21 4.5295e-06)
(-0.169524 -0.0245996 3.6846e-21 0.169517 -7.0025e-21 6.16169e-06)
(-0.164274 -0.0251691 4.76975e-21 0.164267 -3.63408e-21 7.71552e-06)
(-0.158525 -0.0253623 6.20988e-21 0.158516 -3.73841e-21 9.19838e-06)
(-0.152492 -0.0252805 5.09054e-21 0.152481 -2.8703e-21 1.06159e-05)
(-0.146323 -0.0249983 6.06501e-21 0.146311 -6.85297e-22 1.19719e-05)
(-0.140126 -0.0245711 4.85266e-21 0.140113 2.86685e-22 1.32693e-05)
(-0.133973 -0.0240401 -2.83191e-21 0.133959 1.64347e-21 1.45095e-05)
(-0.127916 -0.0234363 -3.88643e-21 0.1279 3.15678e-21 1.56931e-05)
(-0.121989 -0.0227831 -6.47992e-22 0.121972 2.73919e-21 1.68198e-05)
(-0.116215 -0.0220983 5.17045e-21 0.116197 2.30888e-21 1.78884e-05)
(-0.110609 -0.0213953 1.10059e-20 0.11059 1.21524e-20 1.88969e-05)
(-0.105181 -0.0206845 1.17646e-20 0.105161 2.19785e-20 1.98429e-05)
(-0.0999337 -0.0199737 2.74025e-21 0.099913 2.51862e-20 2.07228e-05)
(-0.0948705 -0.0192689 4.22313e-21 0.094849 1.51637e-20 2.15329e-05)
(-0.0899909 -0.0185748 -5.42847e-21 0.0899686 1.88886e-20 2.22685e-05)
(-0.0852933 -0.0178949 -1.52489e-20 0.0852704 1.75502e-20 2.29243e-05)
(-0.0807757 -0.0172321 -1.21231e-20 0.0807522 2.11196e-20 2.34946e-05)
(-0.0764353 -0.0165883 -2.35971e-20 0.0764114 2.41269e-20 2.39728e-05)
(-0.0722695 -0.0159654 -1.81038e-20 0.0722451 2.87739e-20 2.43518e-05)
(-0.0682754 -0.0153646 -1.41324e-20 0.0682508 3.15801e-20 2.4624e-05)
(-0.0644506 -0.0147871 -4.94189e-21 0.0644259 3.53075e-20 2.47809e-05)
(-0.0607931 -0.0142336 -4.72405e-22 0.0607683 3.9277e-20 2.48135e-05)
(-0.057301 -0.0137051 7.04198e-21 0.0572763 4.45859e-20 2.4712e-05)
(-0.0539733 -0.0132023 1.34916e-21 0.0539489 4.91561e-20 2.4466e-05)
(-0.0508094 -0.0127258 -1.70418e-20 0.0507853 4.77855e-20 2.40643e-05)
(-0.0478093 -0.0122763 -2.25962e-20 0.0477858 4.22856e-20 2.34951e-05)
(-0.0449737 -0.0118547 -2.27685e-20 0.0449509 4.41342e-20 2.27455e-05)
(-0.042304 -0.0114616 -8.12063e-21 0.0422822 3.88428e-20 2.1802e-05)
(-0.0398024 -0.0110979 4.68946e-21 0.0397818 3.43408e-20 2.06503e-05)
(-0.0374719 -0.0107646 -2.48104e-20 0.0374526 3.63512e-20 1.92751e-05)
(-0.0353162 -0.0104627 -2.86448e-20 0.0352986 2.95681e-20 1.76601e-05)
(-0.03334 -0.0101932 1.94032e-20 0.0333242 3.39734e-20 1.57882e-05)
(-0.0315488 -0.00995757 -1.66486e-21 0.0315351 2.58103e-20 1.36409e-05)
(-0.029949 -0.00975704 -3.57244e-21 0.0299378 2.42485e-20 1.11991e-05)
(-0.0285482 -0.00959317 5.52918e-21 0.0285398 1.92872e-20 8.44207e-06)
(-0.0273546 -0.00946764 -1.56023e-20 0.0273493 6.52284e-22 5.34802e-06)
(-0.026377 -0.00938274 -6.28908e-21 0.0263752 -6.89448e-21 1.89363e-06)
(-0.177927 -0.0243532 2.58143e-21 0.177926 -2.96324e-21 9.81495e-07)
(-0.176198 -0.0278577 4.65843e-21 0.176195 -4.80186e-21 2.78953e-06)
(-0.1727 -0.0301184 4.59894e-21 0.172696 -6.26667e-21 4.49765e-06)
(-0.168041 -0.0314805 2.58754e-21 0.168035 -1.12636e-21 6.11832e-06)
(-0.162641 -0.0321893 6.53145e-21 0.162634 3.39306e-24 7.66117e-06)
(-0.156791 -0.0324217 6.71693e-21 0.156782 -3.60828e-21 9.13351e-06)
(-0.150692 -0.0323061 6.49787e-21 0.150682 -2.34184e-21 1.05409e-05)
(-0.144487 -0.0319372 8.42784e-21 0.144475 3.18798e-22 1.18872e-05)
(-0.138273 -0.0313851 7.06574e-21 0.13826 2.93915e-21 1.31752e-05)
(-0.13212 -0.0307019 -1.35729e-21 0.132105 8.5474e-21 1.44064e-05)
(-0.126074 -0.0299271 -3.89901e-21 0.126058 9.81271e-21 1.55814e-05)
(-0.120167 -0.0290903 -4.10806e-21 0.12015 1.00513e-20 1.66997e-05)
(-0.11442 -0.0282139 3.71663e-21 0.114402 6.49621e-21 1.77604e-05)
(-0.108846 -0.0273149 2.24132e-20 0.108827 9.75101e-21 1.87614e-05)
(-0.103452 -0.0264065 2.17199e-20 0.103432 1.58388e-20 1.97002e-05)
(-0.0982422 -0.0254986 1.09818e-20 0.0982216 1.5434e-20 2.05734e-05)
(-0.0932175 -0.0245988 -6.206e-21 0.0931962 1.04301e-20 2.13772e-05)
(-0.0883772 -0.023713 6.26179e-22 0.0883551 1.73384e-20 2.2107e-05)
(-0.0837192 -0.0228456 -5.30335e-21 0.0836964 2.13839e-20 2.27577e-05)
(-0.0792408 -0.0220001 -7.93168e-21 0.0792175 2.55064e-20 2.33233e-05)
(-0.0749391 -0.0211793 -1.88527e-20 0.0749153 3.84025e-20 2.37976e-05)
(-0.0708111 -0.0203852 -1.54085e-20 0.0707869 3.97694e-20 2.41734e-05)
(-0.0668538 -0.0196194 -3.91786e-21 0.0668293 2.89883e-20 2.44432e-05)
(-0.0630645 -0.0188835 -3.09309e-21 0.0630399 3.03821e-20 2.45985e-05)
(-0.0594409 -0.0181784 1.29051e-21 0.0594163 4.37408e-20 2.46305e-05)
(-0.0559813 -0.0175052 9.72588e-21 0.0559568 4.3718e-20 2.45294e-05)
(-0.0526844 -0.0168649 1.8504e-20 0.0526601 3.95801e-20 2.42849e-05)
(-0.0495495 -0.0162582 -5.38191e-21 0.0495256 4.64431e-20 2.38859e-05)
(-0.0465765 -0.0156861 -1.46602e-20 0.0465532 4.69357e-20 2.33207e-05)
(-0.043766 -0.0151495 -2.32101e-22 0.0437434 4.15928e-20 2.25764e-05)
(-0.0411194 -0.0146492 -2.95716e-22 0.0410978 1.8785e-20 2.16399e-05)
(-0.0386388 -0.0141865 6.67496e-21 0.0386183 6.8749e-21 2.04966e-05)
(-0.036327 -0.0137625 8.3053e-21 0.0363079 1.55103e-20 1.91316e-05)
(-0.0341878 -0.0133784 -5.02817e-21 0.0341702 2.51529e-20 1.75286e-05)
(-0.0322255 -0.0130357 2.81262e-20 0.0322098 1.74815e-20 1.56706e-05)
(-0.0304457 -0.0127359 1.04975e-20 0.0304322 -7.21412e-21 1.35394e-05)
(-0.0288548 -0.0124808 1.34288e-20 0.0288437 -1.50286e-20 1.11158e-05)
(-0.02746 -0.0122724 6.50622e-21 0.0274516 -1.7575e-20 8.37927e-06)
(-0.0262694 -0.012113 -3.22903e-20 0.026264 -2.28863e-20 5.30826e-06)
(-0.0252915 -0.0120058 -1.75892e-20 0.0252896 -1.16918e-20 1.87955e-06)
(-0.177254 -0.0297615 3.18452e-21 0.177253 -1.76423e-21 9.73547e-07)
(-0.175003 -0.0339439 4.54327e-21 0.175 -1.3232e-22 2.7669e-06)
(-0.17113 -0.0366337 4.9309e-21 0.171126 -1.51522e-21 4.46115e-06)
(-0.166206 -0.0382454 7.89629e-21 0.1662 2.96944e-21 6.06863e-06)
(-0.160621 -0.0390739 5.69605e-21 0.160613 3.86171e-21 7.59891e-06)
(-0.154645 -0.0393313 1.2611e-21 0.154636 3.39427e-21 9.05923e-06)
(-0.148467 -0.0391722 5.27041e-21 0.148457 2.38718e-21 1.04551e-05)
(-0.142216 -0.03871 1.07024e-20 0.142205 1.5557e-21 1.17903e-05)
(-0.135983 -0.0380287 1.37478e-20 0.13597 2.62399e-21 1.30677e-05)
(-0.12983 -0.0371913 5.50102e-21 0.129815 1.2922e-20 1.42886e-05)
(-0.123798 -0.0362447 -3.30783e-21 0.123783 1.74832e-20 1.54538e-05)
(-0.117917 -0.0352245 -3.73395e-21 0.1179 1.75667e-20 1.65627e-05)
(-0.112203 -0.0341576 -1.98798e-21 0.112185 1.1845e-20 1.76144e-05)
(-0.106668 -0.0330645 1.98345e-20 0.106649 6.01404e-21 1.86069e-05)
(-0.101317 -0.0319608 3.14001e-20 0.101298 2.78266e-21 1.95376e-05)
(-0.0961537 -0.0308584 1.35291e-20 0.0961333 1.15597e-21 2.04033e-05)
(-0.0911769 -0.0297663 -6.71169e-22 0.0911557 9.38596e-21 2.12001e-05)
(-0.0863852 -0.0286917 1.18104e-20 0.0863633 1.07225e-20 2.19235e-05)
(-0.0817762 -0.0276398 6.76262e-21 0.0817536 1.05778e-20 2.25683e-05)
(-0.0773465 -0.0266148 1.23994e-20 0.0773233 1.70415e-20 2.31289e-05)
(-0.0730927 -0.0256199 1.501e-20 0.0730691 3.01305e-20 2.35989e-05)
(-0.0690115 -0.0246576 1.46819e-21 0.0689875 2.55304e-20 2.39712e-05)
(-0.0650996 -0.0237298 -1.9254e-20 0.0650754 1.9031e-20 2.42384e-05)
(-0.0613543 -0.0228383 6.58996e-21 0.0613299 2.58958e-20 2.43921e-05)
(-0.0577728 -0.0219844 3.69465e-20 0.0577484 3.1778e-20 2.44235e-05)
(-0.0543534 -0.0211692 2.00076e-20 0.0543291 3.26503e-20 2.4323e-05)
(-0.0510946 -0.0203938 2.2216e-20 0.0510705 1.75383e-20 2.40804e-05)
(-0.0479956 -0.0196593 2.1539e-20 0.0479719 3.00231e-20 2.36846e-05)
(-0.0450561 -0.0189667 -3.73525e-21 0.045033 3.77576e-20 2.31239e-05)
(-0.0422768 -0.0183171 -1.55723e-20 0.0422545 1.95743e-20 2.23859e-05)
(-0.0396589 -0.0177115 -3.13946e-20 0.0396374 -1.0846e-20 2.14572e-05)
(-0.0372042 -0.0171514 -9.36285e-21 0.0371839 -9.41626e-21 2.03235e-05)
(-0.0349156 -0.016638 1.21654e-20 0.0348966 -1.33665e-20 1.89701e-05)
(-0.0327966 -0.0161729 6.69898e-21 0.0327793 -4.90516e-21 1.73806e-05)
(-0.0308517 -0.0157578 2.55376e-20 0.0308361 -3.11188e-20 1.55384e-05)
(-0.0290861 -0.0153946 -3.29174e-20 0.0290727 -4.52932e-20 1.34252e-05)
(-0.027506 -0.0150855 -1.90052e-20 0.027495 -4.60742e-20 1.10221e-05)
(-0.0261186 -0.0148327 3.84447e-21 0.0261103 -5.36589e-20 8.30863e-06)
(-0.0249317 -0.0146393 -2.63712e-20 0.0249264 -4.98382e-20 5.26351e-06)
(-0.0239532 -0.0145094 -1.49998e-20 0.0239514 -8.50497e-21 1.8637e-06)
(-0.176443 -0.0351684 4.57234e-21 0.176442 -1.25444e-22 9.64579e-07)
(-0.173577 -0.0399677 7.90223e-21 0.173574 -3.35244e-22 2.74141e-06)
(-0.169264 -0.0430418 6.53027e-21 0.169259 2.06075e-21 4.42005e-06)
(-0.164027 -0.0448705 9.05009e-21 0.164021 6.38647e-21 6.01271e-06)
(-0.158225 -0.0457949 9.23693e-21 0.158218 5.49205e-21 7.52885e-06)
(-0.152104 -0.0460606 6.45464e-21 0.152095 4.89125e-21 8.97565e-06)
(-0.145833 -0.0458461 6.73046e-21 0.145823 2.68265e-21 1.03586e-05)
(-0.139529 -0.0452826 8.36564e-21 0.139518 2.96294e-21 1.16814e-05)
(-0.133274 -0.0444674 1.44931e-20 0.133261 3.35002e-21 1.29468e-05)
(-0.127121 -0.0434729 1.99173e-20 0.127106 9.11375e-21 1.41563e-05)
(-0.121107 -0.0423536 1.20851e-20 0.121091 1.20131e-20 1.53104e-05)
(-0.115255 -0.0411504 2.08468e-21 0.115239 1.53049e-20 1.64089e-05)
(-0.109581 -0.0398945 -8.29562e-21 0.109564 1.58687e-20 1.74506e-05)
(-0.104093 -0.0386094 6.45506e-21 0.104075 9.32731e-21 1.84335e-05)
(-0.0987942 -0.037313 2.40581e-20 0.0987748 -8.18182e-21 1.93553e-05)
(-0.0936854 -0.0360192 1.65711e-20 0.0936652 -8.67124e-21 2.02126e-05)
(-0.0887654 -0.0347383 1.65988e-20 0.0887444 -4.97275e-21 2.10017e-05)
(-0.0840317 -0.0334784 1.5758e-20 0.0840099 -7.76264e-21 2.1718e-05)
(-0.0794807 -0.0322456 1.51608e-20 0.0794583 -1.65029e-20 2.23565e-05)
(-0.0751087 -0.0310448 2.47596e-20 0.0750858 -9.47417e-21 2.29115e-05)
(-0.0709118 -0.0298795 2.61271e-20 0.0708884 8.99716e-22 2.33768e-05)
(-0.0668861 -0.0287527 -1.94635e-21 0.0668624 2.87517e-21 2.37454e-05)
(-0.0630282 -0.0276665 -1.51126e-20 0.0630042 1.73746e-20 2.40098e-05)
(-0.0593349 -0.0266229 9.21044e-21 0.0593107 1.56542e-20 2.41619e-05)
(-0.0558035 -0.0256234 3.32507e-20 0.0557793 3.20908e-21 2.41928e-05)
(-0.0524317 -0.0246694 3.45715e-20 0.0524076 2.70676e-23 2.40931e-05)
(-0.0492181 -0.023762 1.50485e-20 0.0491943 -1.03214e-20 2.38526e-05)
(-0.0461617 -0.0229024 4.47896e-20 0.0461382 5.06508e-22 2.34605e-05)
(-0.0432621 -0.0220919 4.45106e-21 0.0432392 3.65594e-20 2.29051e-05)
(-0.0405197 -0.0213316 -3.87816e-20 0.0404975 2.2817e-20 2.2174e-05)
(-0.0379357 -0.0206229 -8.49516e-20 0.0379144 2.13549e-20 2.12541e-05)
(-0.0355118 -0.0199672 -2.45585e-20 0.0354917 1.34732e-20 2.01313e-05)
(-0.0332507 -0.0193661 -1.29184e-20 0.0332319 -6.28197e-21 1.87907e-05)
(-0.0311559 -0.0188215 -2.29526e-20 0.0311387 6.41596e-21 1.72163e-05)
(-0.0292315 -0.0183352 -3.92738e-20 0.0292161 -2.48744e-20 1.53916e-05)
(-0.0274827 -0.0179094 -4.13291e-20 0.0274694 -2.84362e-20 1.32984e-05)
(-0.0259156 -0.0175467 -4.0792e-20 0.0259047 -2.44388e-20 1.0918e-05)
(-0.024537 -0.0172498 -4.97912e-20 0.0245288 -3.61386e-20 8.23023e-06)
(-0.0233544 -0.0170222 -5.60806e-20 0.0233492 -2.66999e-20 5.21385e-06)
(-0.0223753 -0.0168691 4.72574e-21 0.0223735 7.17199e-21 1.8461e-06)
(-0.175491 -0.040573 4.82035e-21 0.17549 1.74009e-21 9.54621e-07)
(-0.171925 -0.0459185 9.7446e-21 0.171922 -7.44381e-22 2.71311e-06)
(-0.167111 -0.0493251 1.00622e-20 0.167106 2.70971e-21 4.37442e-06)
(-0.161519 -0.051333 1.35751e-20 0.161513 4.98338e-21 5.9506e-06)
(-0.155471 -0.052326 1.21565e-20 0.155463 1.67703e-22 7.45105e-06)
(-0.149184 -0.0525803 6.98849e-21 0.149175 -1.45046e-22 8.88287e-06)
(-0.142808 -0.0522968 4.37623e-21 0.142798 2.78037e-21 1.02514e-05)
(-0.136445 -0.0516229 1.02602e-20 0.136434 3.03162e-21 1.15605e-05)
(-0.130165 -0.050668 1.44369e-20 0.130152 5.12651e-21 1.28127e-05)
(-0.124013 -0.0495135 1.98789e-20 0.123999 4.7614e-21 1.40095e-05)
(-0.11802 -0.0482204 6.43212e-21 0.118005 1.10475e-20 1.51516e-05)
(-0.112204 -0.0468348 8.28465e-21 0.112188 1.11349e-20 1.62384e-05)
(-0.106577 -0.0453914 -4.32314e-21 0.106559 1.73334e-20 1.72691e-05)
(-0.101142 -0.0439167 2.4784e-21 0.101124 9.44919e-21 1.82416e-05)
(-0.0959031 -0.0424309 2.66045e-21 0.0958839 -7.79129e-21 1.91536e-05)
(-0.0908576 -0.0409492 8.81418e-21 0.0908376 -9.35753e-21 2.00017e-05)
(-0.0860031 -0.0394833 2.56059e-21 0.0859824 -1.20895e-20 2.07823e-05)
(-0.081336 -0.0380423 6.20404e-21 0.0813145 -2.05776e-20 2.14909e-05)
(-0.076852 -0.036633 -1.27894e-20 0.0768299 -2.64069e-20 2.21225e-05)
(-0.0725464 -0.0352606 1.44665e-20 0.0725238 -1.72898e-20 2.26715e-05)
(-0.068415 -0.0339292 3.25587e-20 0.0683918 -1.24259e-20 2.31317e-05)
(-0.0644533 -0.0326421 1.03618e-20 0.0644298 -4.20329e-21 2.34962e-05)
(-0.0606575 -0.0314017 4.6123e-21 0.0606337 1.09755e-20 2.37577e-05)
(-0.0570241 -0.03021 -8.12851e-21 0.0570002 1.09703e-20 2.39081e-05)
(-0.0535501 -0.0290688 7.17863e-21 0.0535262 -5.396e-21 2.39386e-05)
(-0.0502333 -0.0279795 2.07794e-20 0.0502094 -2.37733e-20 2.38398e-05)
(-0.0470717 -0.0269435 -8.98901e-21 0.0470481 -1.10627e-20 2.36019e-05)
(-0.0440642 -0.0259622 4.10164e-20 0.044041 1.90611e-21 2.32139e-05)
(-0.0412105 -0.0250367 8.27817e-20 0.0411878 2.39778e-20 2.26644e-05)
(-0.0385107 -0.0241686 7.63313e-22 0.0384887 9.18706e-21 2.1941e-05)
(-0.0359657 -0.0233592 -3.41997e-20 0.0359447 3.36462e-20 2.10309e-05)
(-0.0335773 -0.0226103 -4.5361e-20 0.0335574 2.89638e-20 1.99199e-05)
(-0.0313479 -0.0219235 -3.53091e-20 0.0313294 2.54321e-20 1.85935e-05)
(-0.0292809 -0.0213009 1.65849e-20 0.0292639 2.06256e-20 1.70358e-05)
(-0.0273802 -0.0207446 -5.37203e-20 0.027365 1.24935e-20 1.52303e-05)
(-0.0256509 -0.0202573 -7.01668e-20 0.0256377 1.49595e-20 1.31591e-05)
(-0.0240987 -0.0198416 -5.59047e-20 0.0240879 3.06745e-20 1.08038e-05)
(-0.0227303 -0.0195009 -5.10271e-20 0.0227222 1.57096e-20 8.1441e-06)
(-0.0215528 -0.019239 -3.26979e-20 0.0215476 -6.41665e-22 5.15927e-06)
(-0.0205731 -0.0190619 1.13713e-20 0.0205713 1.05563e-20 1.82674e-06)
(-0.174396 -0.0459741 3.87662e-21 0.174395 4.34009e-21 9.43676e-07)
(-0.170051 -0.0517862 9.88885e-21 0.170049 1.04767e-21 2.68202e-06)
(-0.164681 -0.055467 1.2859e-20 0.164677 9.89379e-22 4.32429e-06)
(-0.158696 -0.0576115 1.52969e-20 0.15869 7.62551e-23 5.8824e-06)
(-0.152375 -0.0586422 7.37799e-21 0.152367 1.10048e-21 7.36564e-06)
(-0.145905 -0.0588631 3.47412e-21 0.145896 4.26786e-21 8.78101e-06)
(-0.139413 -0.0584953 7.40222e-21 0.139403 2.43516e-21 1.01338e-05)
(-0.132986 -0.0577008 9.57918e-21 0.132975 2.25607e-21 1.14278e-05)
(-0.12668 -0.0565999 1.39233e-20 0.126667 7.38223e-21 1.26656e-05)
(-0.120531 -0.0552818 1.73885e-20 0.120517 1.09037e-20 1.38485e-05)
(-0.114562 -0.0538138 6.80782e-21 0.114547 2.37164e-20 1.49773e-05)
(-0.108787 -0.0522462 -3.72313e-21 0.108771 2.35571e-20 1.60515e-05)
(-0.103212 -0.0506172 -6.44311e-21 0.103195 2.32893e-20 1.70702e-05)
(-0.0978394 -0.0489559 -1.61431e-20 0.0978214 1.82718e-20 1.80313e-05)
(-0.0926674 -0.0472841 -1.6229e-20 0.0926485 7.03475e-21 1.89326e-05)
(-0.0876933 -0.0456186 5.96236e-21 0.0876735 -3.96068e-21 1.97708e-05)
(-0.0829128 -0.0439723 -4.97618e-21 0.0828922 -4.66554e-21 2.05422e-05)
(-0.0783208 -0.0423549 -5.4611e-21 0.0782996 -1.95571e-20 2.12424e-05)
(-0.0739121 -0.0407737 -2.33896e-20 0.0738902 -1.01989e-20 2.18666e-05)
(-0.0696814 -0.0392347 9.20579e-22 0.069659 2.10725e-21 2.24091e-05)
(-0.0656236 -0.0377421 1.80481e-20 0.0656007 -1.75071e-21 2.28638e-05)
(-0.0617338 -0.0362994 8.79201e-21 0.0617106 2.14073e-21 2.3224e-05)
(-0.0580079 -0.0349094 1.98011e-20 0.0579844 2.16813e-22 2.34824e-05)
(-0.0544419 -0.0335741 3.60909e-21 0.0544182 7.24374e-21 2.3631e-05)
(-0.0510326 -0.0322956 -1.79117e-20 0.0510089 1.48827e-21 2.36611e-05)
(-0.0477774 -0.0310752 -5.20611e-21 0.0477539 -1.92922e-20 2.35635e-05)
(-0.0446744 -0.0299146 -1.98518e-22 0.044651 1.78261e-20 2.33284e-05)
(-0.0417221 -0.0288151 1.476e-20 0.0416991 4.34145e-20 2.29449e-05)
(-0.0389199 -0.0277782 4.19643e-20 0.0388975 3.36006e-20 2.24019e-05)
(-0.036268 -0.0268053 -3.00294e-20 0.0362463 1.70629e-20 2.16871e-05)
(-0.033767 -0.0258981 -8.79709e-21 0.0337462 1.63897e-20 2.07877e-05)
(-0.0314186 -0.0250584 -5.361e-21 0.0313989 9.47777e-21 1.96897e-05)
(-0.0292249 -0.0242881 -1.23369e-20 0.0292066 1.37385e-20 1.83788e-05)
(-0.0271892 -0.0235894 1.49163e-20 0.0271724 -2.19133e-20 1.68392e-05)
(-0.0253153 -0.0229647 -1.58397e-20 0.0253002 1.40992e-20 1.50547e-05)
(-0.0236079 -0.0224169 -1.55034e-20 0.0235949 2.03747e-20 1.30075e-05)
(-0.0220727 -0.021949 4.8215e-21 0.022062 2.6673e-20 1.06793e-05)
(-0.0207159 -0.0215646 -5.78432e-20 0.0207078 9.04921e-21 8.05029e-06)
(-0.0195442 -0.0212682 -9.69929e-20 0.0195391 2.35538e-20 5.09983e-06)
(-0.0185639 -0.0210664 1.69569e-20 0.0185621 2.20379e-20 1.80566e-06)
(-0.173154 -0.0513702 5.51244e-21 0.173153 -1.93983e-22 9.31764e-07)
(-0.167963 -0.057561 1.19512e-20 0.16796 -4.47597e-21 2.64818e-06)
(-0.161987 -0.0614518 1.18455e-20 0.161983 1.28877e-21 4.26974e-06)
(-0.155574 -0.0636859 1.19924e-20 0.155569 6.21685e-21 5.80819e-06)
(-0.148957 -0.0647204 9.21295e-21 0.14895 6.32068e-21 7.27269e-06)
(-0.142289 -0.0648837 1.26994e-20 0.14228 -2.6224e-21 8.67018e-06)
(-0.135674 -0.0644146 6.43986e-21 0.135664 -1.69102e-21 1.00059e-05)
(-0.129178 -0.0634883 1.01661e-20 0.129167 1.38387e-21 1.12835e-05)
(-0.122845 -0.0622343 1.3381e-20 0.122832 1.39582e-20 1.25055e-05)
(-0.1167 -0.060749 1.79714e-20 0.116687 2.60041e-20 1.36735e-05)
(-0.11076 -0.0591048 2.41022e-20 0.110745 3.06947e-20 1.47879e-05)
(-0.105031 -0.0573559 1.00693e-20 0.105015 2.88761e-20 1.58484e-05)
(-0.0995151 -0.0555435 -4.942e-21 0.0994982 2.97906e-20 1.6854e-05)
(-0.0942104 -0.0536986 -4.63837e-21 0.0941926 2.00239e-20 1.78029e-05)
(-0.0891133 -0.0518448 -2.16608e-20 0.0890946 1.35035e-20 1.86926e-05)
(-0.0842184 -0.0500002 -1.55533e-20 0.0841989 7.17719e-21 1.95201e-05)
(-0.0795197 -0.0481783 -7.06688e-21 0.0794995 1.78024e-21 2.02816e-05)
(-0.0750109 -0.0463896 -2.08994e-20 0.07499 -9.88622e-21 2.09728e-05)
(-0.0706856 -0.044642 -1.61942e-20 0.070664 6.49714e-21 2.1589e-05)
(-0.0665376 -0.0429417 3.85185e-21 0.0665155 2.40434e-20 2.21245e-05)
(-0.0625612 -0.0412932 4.35727e-21 0.0625386 2.37709e-20 2.25734e-05)
(-0.058751 -0.0397003 2.34472e-21 0.0587281 1.54848e-20 2.2929e-05)
(-0.0551023 -0.0381659 3.59227e-21 0.0550791 -2.53075e-21 2.31841e-05)
(-0.0516107 -0.0366921 1.82347e-20 0.0515874 -2.91842e-21 2.33308e-05)
(-0.0482729 -0.035281 -7.98385e-21 0.0482496 9.37488e-22 2.33606e-05)
(-0.045086 -0.0339342 -3.17833e-20 0.0450627 4.06734e-21 2.32644e-05)
(-0.0420475 -0.0326533 4.37058e-20 0.0420245 3.73094e-20 2.30324e-05)
(-0.0391562 -0.0314397 8.82473e-20 0.0391335 4.40117e-20 2.26539e-05)
(-0.0364111 -0.0302951 8.81401e-20 0.0363889 3.4298e-20 2.2118e-05)
(-0.033812 -0.029221 -1.07423e-20 0.0337906 2.32051e-20 2.14124e-05)
(-0.0313597 -0.028219 -3.23224e-20 0.0313392 -5.97722e-22 2.05246e-05)
(-0.0290555 -0.0272913 -3.44824e-20 0.0290361 -1.80585e-20 1.94407e-05)
(-0.0269014 -0.0264399 -1.04894e-20 0.0268833 -3.46869e-20 1.81466e-05)
(-0.0249004 -0.0256671 -3.56365e-20 0.0248838 -3.28647e-20 1.66266e-05)
(-0.0230562 -0.0249757 3.00438e-20 0.0230413 4.97139e-21 1.48648e-05)
(-0.0213732 -0.0243686 -3.09711e-20 0.0213604 -3.84054e-21 1.28435e-05)
(-0.0198568 -0.0238492 -6.43269e-21 0.0198463 8.70864e-21 1.05447e-05)
(-0.018513 -0.0234215 -3.68817e-20 0.018505 3.26862e-20 7.94884e-06)
(-0.017348 -0.0230904 -1.71722e-20 0.017343 6.2315e-20 5.03553e-06)
(-0.0163674 -0.0228632 2.00764e-20 0.0163656 2.07896e-20 1.78285e-06)
(-0.171763 -0.0567591 9.81042e-21 0.171762 -1.1623e-20 9.18895e-07)
(-0.165664 -0.0632337 1.61088e-20 0.165661 -1.19265e-20 2.61163e-06)
(-0.159041 -0.0672648 1.88407e-20 0.159037 -2.2458e-21 4.21081e-06)
(-0.152172 -0.0695378 2.58272e-20 0.152166 -5.26661e-21 5.72804e-06)
(-0.145239 -0.0705393 1.41181e-20 0.145232 -3.84589e-21 7.17233e-06)
(-0.138361 -0.0706189 1.22309e-21 0.138352 -2.85736e-21 8.55052e-06)
(-0.131615 -0.0700304 2.55914e-21 0.131605 1.2959e-21 9.86775e-06)
(-0.125047 -0.06896 -1.22968e-21 0.125036 1.76827e-20 1.11277e-05)
(-0.118688 -0.0675454 1.3701e-20 0.118675 3.00573e-20 1.23328e-05)
(-0.112551 -0.065889 3.94095e-20 0.112537 2.25725e-20 1.34846e-05)
(-0.106643 -0.0640673 3.68733e-20 0.106628 1.95922e-20 1.45835e-05)
(-0.100965 -0.0621379 1.40576e-20 0.100949 2.47451e-20 1.56293e-05)
(-0.0955139 -0.0601443 -1.07909e-21 0.0954973 3.10838e-20 1.6621e-05)
(-0.0902843 -0.0581193 -2.2716e-20 0.0902668 2.4515e-20 1.75566e-05)
(-0.0852692 -0.0560879 -3.39875e-20 0.0852508 2.52246e-20 1.8434e-05)
(-0.080461 -0.054069 -2.61735e-20 0.0804418 2.70522e-20 1.92499e-05)
(-0.0758518 -0.0520769 -2.34243e-20 0.0758318 1.46596e-20 2.00008e-05)
(-0.0714338 -0.0501226 -4.23356e-20 0.0714131 1.54785e-20 2.06824e-05)