/*--------------------------------*- C++ -*----------------------------------*\
| =========                 |                                                 |
| \\      /  F ield         | foam-extend: Open Source CFD                    |
|  \\    /   O peration     | Version:  3.0                                   |
|   \\  /    A nd           | Web:         http://www.extend-project.de       |
|    \\/     M anipulation  |                                                 |
\*---------------------------------------------------------------------------*/
FoamFile
{
    version     2.0;
    format      ascii;
    class       volVectorField;
    location    "25";
    object      u;
}
// * * * * * * * * * * * * * * * * * * * * * * * * * * * * * * * * * * * * * //

dimensions      [0 0 0 0 0 0 0];

internalField   nonuniform List<vector> 
7680
(
(0.0734555 -0.0318627 1.93396e-19)
(0.192983 -0.0280857 2.17432e-19)
(0.294234 -0.0248709 1.00632e-19)
(0.380235 -0.0221138 1.71536e-19)
(0.454173 -0.0197404 7.33969e-20)
(0.517767 -0.0176827 2.06471e-19)
(0.573131 -0.0158929 1.20699e-19)
(0.621243 -0.0143253 2.08858e-19)
(0.66358 -0.0129484 3.40328e-19)
(0.700681 -0.0117311 1.43891e-19)
(0.733631 -0.0106522 9.0866e-20)
(0.762701 -0.00969025 1.03066e-19)
(0.788725 -0.00883038 5.92149e-20)
(0.811803 -0.00805769 -1.1319e-19)
(0.832603 -0.0073616 2.37104e-19)
(0.851117 -0.00673165 3.4766e-19)
(0.867901 -0.00615998 3.14367e-19)
(0.882871 -0.00563934 1.47975e-19)
(0.89651 -0.00516363 1.85468e-19)
(0.908681 -0.00472795 -2.79339e-19)
(0.919814 -0.0043273 7.13455e-20)
(0.929735 -0.00395859 1.29838e-19)
(0.938838 -0.00361749 2.42224e-19)
(0.94692 -0.00330236 1.63075e-19)
(0.954351 -0.00300921 2.00683e-19)
(0.960906 -0.00273764 4.53247e-19)
(0.966936 -0.00248374 6.26294e-19)
(0.972201 -0.00224821 2.15884e-19)
(0.97704 -0.00202707 4.36038e-20)
(0.981196 -0.00182198 1.9506e-19)
(0.985003 -0.00162875 3.69187e-19)
(0.988188 -0.0014499 3.27559e-19)
(0.991085 -0.00128074 8.84631e-20)
(0.993405 -0.00112441 -4.91106e-19)
(0.995485 -0.000975037 -1.36579e-19)
(0.997021 -0.000835177 8.68743e-20)
(0.998354 -0.000695271 6.50997e-19)
(0.999167 -0.000552493 2.20157e-19)
(0.999812 -0.000384173 1.09285e-19)
(0.999969 -0.000165129 1.49629e-19)
(0.0776412 -0.0958177 1.50684e-19)
(0.196676 -0.0845253 -9.7112e-20)
(0.297507 -0.07493 1.27968e-19)
(0.38315 -0.0667114 2.47119e-19)
(0.456779 -0.0596419 2.92835e-20)
(0.520107 -0.053516 1.07475e-20)
(0.575239 -0.0481888 1.33174e-20)
(0.623147 -0.0435242 1.98649e-19)
(0.665306 -0.0394271 5.52329e-20)
(0.70225 -0.0358053 3.19957e-20)
(0.735061 -0.0325947 1.21877e-19)
(0.764007 -0.0297315 1.98911e-19)
(0.78992 -0.0271717 2.56811e-19)
(0.812898 -0.0248703 1.67502e-19)
(0.833609 -0.0227959 4.42851e-19)
(0.852041 -0.020917 6.00322e-19)
(0.868751 -0.0192102 5.26312e-19)
(0.883655 -0.0176533 -7.14383e-20)
(0.897232 -0.0162282 -2.0199e-19)
(0.909347 -0.0149197 -3.52114e-19)
(0.920427 -0.0137129 2.36139e-19)
(0.930301 -0.0125978 3.07719e-19)
(0.939358 -0.0115616 2.22721e-19)
(0.947399 -0.0105983 5.04222e-20)
(0.95479 -0.00969641 1.04704e-18)
(0.961309 -0.00885304 5.38946e-19)
(0.967304 -0.00805729 2.65407e-19)
(0.972536 -0.00730908 -1.98447e-21)
(0.977344 -0.00659754 1.76093e-19)
(0.981469 -0.00592501 3.12476e-19)
(0.985247 -0.00528024 4.81497e-19)
(0.988405 -0.00466779 9.80525e-19)
(0.991275 -0.00407557 8.44618e-19)
(0.993569 -0.00350997 -5.6952e-19)
(0.995623 -0.00295739 -2.41507e-19)
(0.997133 -0.00242508 -3.02061e-19)
(0.998441 -0.00189605 1.13457e-18)
(0.999229 -0.00137553 2.96179e-19)
(0.999849 -0.000839089 2.91136e-19)
(0.999981 -0.00028803 8.75751e-19)
(0.0860008 -0.159362 3.02285e-19)
(0.204051 -0.140602 -1.58955e-19)
(0.304047 -0.124668 4.41031e-19)
(0.388975 -0.111023 4.40588e-20)
(0.46199 -0.0992873 4.4111e-19)
(0.524785 -0.0891195 6.5384e-20)
(0.579454 -0.0802778 8.68982e-20)
(0.626958 -0.0725361 6.02022e-20)
(0.668761 -0.0657364 -8.19654e-19)
(0.705391 -0.0597254 -4.0805e-19)
(0.737923 -0.0543968 4.39362e-19)
(0.766621 -0.0496448 3.25671e-19)
(0.792312 -0.0453958 1.94728e-20)
(0.81509 -0.0415756 2.64904e-19)
(0.835621 -0.0381318 8.06127e-19)
(0.853891 -0.0350119 1.12749e-18)
(0.870453 -0.0321773 -4.84321e-19)
(0.885222 -0.0295907 5.6528e-19)
(0.898675 -0.0272224 -6.36557e-19)
(0.910676 -0.0250465 8.36206e-20)
(0.921652 -0.0230388 1.96167e-19)
(0.931428 -0.0211819 6.9959e-19)
(0.940395 -0.0194552 3.78459e-19)
(0.948352 -0.0178477 1.41487e-18)
(0.955664 -0.0163409 4.29305e-19)
(0.962108 -0.0149293 7.27993e-19)
(0.968034 -0.0135951 1.32204e-19)
(0.973199 -0.0123374 7.20802e-19)
(0.977943 -0.0111384 4.31277e-19)
(0.982008 -0.0100013 5.27058e-19)
(0.985728 -0.00890773 4.39601e-19)
(0.988829 -0.00786426 1.97507e-19)
(0.991644 -0.00685149 1.06146e-18)
(0.993886 -0.00587903 1.39803e-18)
(0.995887 -0.00492562 2.9706e-20)
(0.997347 -0.00400315 8.93118e-20)
(0.998605 -0.00308729 8.54922e-19)
(0.999344 -0.00219134 -1.46113e-19)
(0.999915 -0.00128927 -1.06965e-19)
(1 -0.000409038 -2.88705e-19)
(0.0984983 -0.222223 3.23805e-19)
(0.215079 -0.196076 -2.49772e-19)
(0.313827 -0.173871 2.69114e-19)
(0.397686 -0.154858 3.74802e-19)
(0.469782 -0.138507 6.09114e-19)
(0.531781 -0.124341 -2.19528e-20)
(0.585759 -0.112022 1.7924e-19)
(0.632657 -0.101237 2.90038e-19)
(0.673929 -0.0917636 -1.94583e-19)
(0.710088 -0.0833892 4.83446e-19)
(0.742205 -0.0759655 7.30991e-19)
(0.770531 -0.0693448 6.23208e-19)
(0.79589 -0.0634249 5.80866e-19)
(0.81837 -0.0581022 2.03165e-19)
(0.838632 -0.0533037 -8.4283e-19)
(0.856657 -0.0489562 -2.69168e-19)
(0.872998 -0.0450057 -1.07588e-18)
(0.887565 -0.0414006 -6.09461e-19)
(0.900833 -0.0380991 9.32464e-19)
(0.912664 -0.0350652 -2.33908e-19)
(0.923482 -0.0322651 1.06653e-18)
(0.933113 -0.0296744 7.3311e-19)
(0.941944 -0.0272644 7.04584e-19)
(0.949775 -0.0250197 -3.21974e-20)
(0.956968 -0.0229144 1.16946e-19)
(0.963301 -0.0209406 -5.79778e-19)
(0.969121 -0.0190735 -1.1169e-18)
(0.974187 -0.0173117 -9.46008e-20)
(0.978835 -0.0156304 5.21334e-19)
(0.98281 -0.0140336 1.27534e-18)
(0.986441 -0.0124959 8.23331e-19)
(0.989459 -0.0110259 -1.80512e-18)
(0.992192 -0.00959694 -3.6932e-19)
(0.994354 -0.00822184 3.52131e-18)
(0.996278 -0.00687176 -1.05875e-18)
(0.997662 -0.0055632 -4.42571e-19)
(0.998844 -0.00426457 4.40614e-19)
(0.99951 -0.00299721 -1.71011e-18)
(1.00001 -0.00173356 -3.29437e-19)
(1.00003 -0.000528161 1.63449e-19)
(0.11508 -0.284131 7.58829e-19)
(0.229711 -0.25071 6.49545e-19)
(0.326803 -0.222328 -5.65248e-20)
(0.409245 -0.198029 1.72259e-18)
(0.480123 -0.177133 5.96772e-19)
(0.541067 -0.159029 1.18803e-19)
(0.594127 -0.143287 3.06179e-19)
(0.640221 -0.129503 2.58984e-19)
(0.680787 -0.117397 -1.17113e-19)
(0.716324 -0.106695 5.2106e-19)
(0.747887 -0.097208 7.39585e-19)
(0.775721 -0.0887471 1.00185e-18)
(0.800638 -0.0811816 1.43785e-18)
(0.822722 -0.0743791 -4.84401e-19)
(0.842627 -0.0682464 -1.35733e-18)
(0.860329 -0.0626898 -1.96892e-18)
(0.876376 -0.0576405 7.10184e-19)
(0.890674 -0.0530321 -4.45659e-19)
(0.903696 -0.0488117 -7.35893e-20)
(0.915301 -0.0449327 -1.25224e-19)
(0.92591 -0.0413521 1.04401e-18)
(0.935348 -0.0380387 7.94179e-19)
(0.943999 -0.0349557 -5.77284e-19)
(0.951662 -0.0320834 3.00391e-19)
(0.958698 -0.0293885 7.85105e-19)
(0.964883 -0.0268609 4.72153e-19)
(0.970562 -0.0244691 -1.77086e-18)
(0.975495 -0.0222106 -7.53616e-19)
(0.980017 -0.0200543 5.41719e-19)
(0.98387 -0.0180046 -1.5353e-18)
(0.987385 -0.0160294 -1.39584e-18)
(0.990291 -0.0141392 -1.1547e-18)
(0.992915 -0.0123003 -2.74847e-18)
(0.994972 -0.0105286 6.19551e-19)
(0.996792 -0.00878778 -2.71266e-18)
(0.998076 -0.00709895 -2.19099e-18)
(0.999158 -0.00542337 -2.03682e-18)
(0.999727 -0.00379031 -3.38266e-18)
(1.00013 -0.00217069 -2.13196e-19)
(1.00006 -0.000645307 1.89075e-18)
(0.135676 -0.344822 9.93582e-19)
(0.247885 -0.304269 9.71513e-19)
(0.342921 -0.269833 1.46492e-18)
(0.423603 -0.240352 4.19806e-19)
(0.492968 -0.215 4.19266e-19)
(0.552601 -0.193035 1.60433e-18)
(0.604521 -0.173937 1.08499e-18)
(0.649618 -0.157215 3.81526e-19)
(0.689308 -0.142527 -5.21327e-19)
(0.724069 -0.129543 -2.84932e-19)
(0.754946 -0.118034 7.77254e-19)
(0.782168 -0.107769 3.36869e-19)
(0.806538 -0.0985898 1.67433e-18)
(0.82813 -0.0903367 4.55406e-19)
(0.84759 -0.082896 -2.24741e-18)
(0.86489 -0.0761541 -1.78205e-18)
(0.880572 -0.0700276 4.9885e-19)
(0.894536 -0.0644357 -1.40884e-18)
(0.907252 -0.0593143 -8.945e-19)
(0.918576 -0.0546067 -1.10108e-18)
(0.928926 -0.0502611 -2.53627e-18)
(0.938123 -0.0462391 -2.82657e-18)
(0.946551 -0.0424963 9.85672e-19)
(0.954005 -0.0390086 9.27905e-19)
(0.960845 -0.0357357 -2.67413e-18)
(0.966846 -0.0326652 -1.49126e-18)
(0.972351 -0.0297588 -1.17283e-18)
(0.977119 -0.0270134 -2.37348e-18)
(0.981483 -0.0243913 -1.04409e-18)
(0.985186 -0.0218976 -1.71237e-18)
(0.988556 -0.0194934 8.99215e-19)
(0.991322 -0.0171913 1.13181e-18)
(0.993811 -0.0149504 -1.22535e-18)
(0.995737 -0.0127898 1.10359e-19)
(0.997429 -0.0106659 -4.466e-18)
(0.998587 -0.00860438 5.40182e-19)
(0.999546 -0.00655933 1.65797e-18)
(0.999995 -0.00456792 -2.21719e-18)
(1.00028 -0.00259947 -2.84828e-20)
(1.0001 -0.000760429 2.03953e-18)
(0.160196 -0.404036 1.25508e-18)
(0.269523 -0.356525 -3.60932e-19)
(0.362111 -0.316182 8.96137e-19)
(0.440699 -0.281645 8.76205e-19)
(0.508262 -0.251945 -1.62197e-19)
(0.566334 -0.226215 -3.55716e-19)
(0.616898 -0.203841 -6.09826e-20)
(0.660807 -0.184252 6.42478e-19)
(0.699453 -0.167046 6.32384e-19)
(0.733293 -0.151836 -1.55765e-18)
(0.763352 -0.138353 -1.62433e-18)
(0.789844 -0.126328 -1.24024e-18)
(0.813563 -0.115575 1.38757e-18)
(0.834568 -0.105906 1.43465e-18)
(0.853501 -0.0971897 -9.3188e-19)
(0.870322 -0.0892914 -9.89187e-19)
(0.885567 -0.0821137 -1.49574e-18)
(0.899134 -0.0755623 -2.00581e-18)
(0.911487 -0.0695617 -1.52935e-18)
(0.922476 -0.0640459 -1.39252e-18)
(0.932517 -0.0589537 -2.85957e-18)
(0.941428 -0.0542404 -1.19147e-18)
(0.949589 -0.0498538 1.03707e-18)
(0.956794 -0.0457656 3.78093e-19)
(0.963401 -0.0419288 -1.14442e-18)
(0.969182 -0.0383284 -3.33573e-18)
(0.97448 -0.03492 3.6982e-19)
(0.979051 -0.0316995 -2.4586e-18)
(0.983227 -0.0286228 -1.23535e-18)
(0.986751 -0.0256958 -9.59866e-19)
(0.989948 -0.0228731 6.01036e-18)
(0.992549 -0.020169 1.93647e-18)
(0.994876 -0.0175359 1.30077e-18)
(0.996646 -0.014996 1.31662e-18)
(0.998184 -0.0124985 2.14577e-18)
(0.999194 -0.0100734 1.64875e-18)
(1.00001 -0.00766801 1.57898e-18)
(1.00031 -0.00532719 1.51437e-18)
(1.00046 -0.00301854 5.4088e-18)
(1.00015 -0.000873344 1.08788e-18)
(0.188537 -0.461519 1.46658e-18)
(0.294532 -0.407253 1.06441e-19)
(0.384292 -0.361177 7.04977e-19)
(0.460458 -0.321731 -3.52079e-19)
(0.525939 -0.287811 -1.05211e-18)
(0.582208 -0.258424 -4.81083e-19)
(0.631204 -0.232872 6.93405e-19)
(0.67374 -0.210499 2.17306e-19)
(0.711181 -0.190849 7.83554e-19)
(0.743954 -0.173478 -7.51358e-19)
(0.773068 -0.158079 8.54986e-19)
(0.798718 -0.144345 -1.04257e-18)
(0.821683 -0.132064 4.36253e-19)
(0.842011 -0.121022 -2.18576e-19)
(0.860332 -0.111066 1.12076e-18)
(0.8766 -0.102045 -1.29944e-20)
(0.891342 -0.0938473 7.47721e-19)
(0.90445 -0.0863643 -1.35536e-18)
(0.916381 -0.0795103 2.34551e-18)
(0.926984 -0.0732097 1.612e-18)
(0.936667 -0.0673928 -1.71632e-18)
(0.945247 -0.0620083 -6.82207e-19)
(0.9531 -0.0569967 -1.18233e-18)
(0.960018 -0.0523255 9.55937e-19)
(0.966354 -0.0479412 9.18243e-19)
(0.971882 -0.0438265 -1.85683e-18)
(0.976939 -0.0399306 3.25529e-18)
(0.981283 -0.0362488 2.9475e-18)
(0.985242 -0.0327309 -6.84875e-18)
(0.988559 -0.0293832 -3.75031e-18)
(0.991557 -0.0261541 -1.70359e-18)
(0.993965 -0.0230599 5.18952e-19)
(0.996106 -0.0200461 3.75109e-18)
(0.997696 -0.017138 -3.79012e-18)
(0.999057 -0.0142779 2.19591e-19)
(0.999895 -0.0115001 3.23673e-18)
(1.00054 -0.00874515 2.62534e-18)
(1.00068 -0.00606541 9.78741e-19)
(1.00066 -0.00342662 2.41119e-18)
(1.00021 -0.000983906 -1.26742e-18)
(0.220577 -0.517025 1.53199e-18)
(0.322805 -0.456237 5.70344e-19)
(0.409368 -0.404624 4.77872e-19)
(0.482797 -0.360439 -6.79532e-19)
(0.545925 -0.322443 6.36863e-19)
(0.600155 -0.289527 1.15604e-18)
(0.647378 -0.260905 7.17751e-20)
(0.688362 -0.235845 3.93874e-19)
(0.724439 -0.213834 8.99237e-19)
(0.756008 -0.194376 5.93833e-19)
(0.784054 -0.177127 9.41317e-19)
(0.808751 -0.161743 1.54698e-18)
(0.830864 -0.147987 6.91162e-19)
(0.850425 -0.135618 1.32105e-18)
(0.868056 -0.124466 2.7258e-18)
(0.883697 -0.114361 -1.86965e-19)
(0.897871 -0.105178 5.6428e-19)
(0.910459 -0.0967954 -6.32943e-19)
(0.921915 -0.0891173 2.92621e-18)
(0.932079 -0.0820589 2.62931e-18)
(0.941358 -0.0755422 5.05356e-19)
(0.949564 -0.0695095 8.73099e-19)
(0.957068 -0.0638943 -1.40206e-18)
(0.963661 -0.0586603 -1.38394e-18)
(0.969692 -0.0537472 1.02956e-18)
(0.974934 -0.0491358 1.4718e-18)
(0.979719 -0.0447692 2.28619e-18)
(0.983806 -0.040642 4.94196e-18)
(0.987519 -0.0366979 -1.42967e-18)
(0.990602 -0.0329441 3.02379e-18)
(0.993374 -0.0293226 -3.39613e-19)
(0.995566 -0.0258516 -2.21453e-18)
(0.997495 -0.0224703 -8.5891e-19)
(0.998882 -0.0192069 -2.51683e-18)
(1.00004 -0.0159967 -1.48644e-18)
(1.00069 -0.0128786 -5.10942e-19)
(1.00114 -0.0097864 -4.60193e-18)
(1.00109 -0.00677971 -2.53259e-18)
(1.0009 -0.00382224 8.3774e-18)
(1.00028 -0.00109181 -8.98442e-19)
(0.256178 -0.570316 -9.75979e-20)
(0.354222 -0.503266 -6.84891e-19)
(0.437232 -0.446337 1.06978e-18)
(0.50762 -0.397602 1.22016e-18)
(0.568133 -0.355694 5.71187e-19)
(0.620097 -0.319389 -1.65202e-18)
(0.66535 -0.28782 -9.91813e-20)
(0.70461 -0.260179 5.06318e-19)
(0.739173 -0.235902 1.46296e-18)
(0.769402 -0.214441 1.74351e-18)
(0.796261 -0.195416 -1.13762e-18)
(0.819899 -0.178448 -1.23049e-18)
(0.841065 -0.163275 1.28931e-19)
(0.859776 -0.149632 -1.79734e-18)
(0.876639 -0.137332 9.06472e-19)
(0.891585 -0.126186 1.80473e-18)
(0.905126 -0.116057 -4.03594e-19)
(0.917137 -0.106811 1.09412e-18)
(0.928064 -0.0983416 2.24588e-18)
(0.937742 -0.0905556 1.2903e-18)
(0.946572 -0.0833669 1.17219e-18)
(0.954361 -0.076712 2.89149e-19)
(0.961478 -0.0705173 9.20444e-19)
(0.96771 -0.0647428 -1.76469e-18)
(0.973402 -0.0593221 -1.88245e-18)
(0.978324 -0.0542338 5.07451e-18)
(0.982808 -0.0494151 3.49965e-19)
(0.986609 -0.0448603 -2.59631e-18)
(0.990049 -0.0405071 -7.7976e-18)
(0.992872 -0.0363633 -2.41536e-18)
(0.995393 -0.0323651 -7.04074e-19)
(0.997344 -0.0285325 9.27532e-19)
(0.999039 -0.0247984 -2.71705e-18)
(1.0002 -0.0211939 5.26621e-18)
(1.00114 -0.0176479 -3.88287e-18)
(1.00157 -0.0142033 2.12042e-18)
(1.0018 -0.0107876 9.44001e-20)
(1.00155 -0.00746734 1.64615e-18)
(1.00115 -0.00420402 1.45586e-18)
(1.00035 -0.00119679 -3.44219e-18)
(0.295189 -0.621164 -1.07529e-18)
(0.388647 -0.54814 -6.20533e-19)
(0.467764 -0.486139 1.05762e-19)
(0.53482 -0.433062 -2.58349e-18)
(0.592468 -0.387421 -1.95651e-18)
(0.64195 -0.347882 1.04973e-18)
(0.685045 -0.313501 1.06865e-18)
(0.722415 -0.283399 3.56152e-18)
(0.755318 -0.256959 2.49976e-18)
(0.78408 -0.233586 -1.53005e-18)
(0.809638 -0.212867 -2.64493e-18)
(0.832116 -0.194387 -8.2444e-19)
(0.852245 -0.177863 -6.88351e-19)
(0.870022 -0.163005 6.68755e-19)
(0.886044 -0.149609 2.34039e-18)
(0.900228 -0.13747 1.95813e-18)
(0.913076 -0.126438 5.74036e-19)
(0.924454 -0.116368 3.36362e-18)
(0.934801 -0.107144 3.73863e-18)
(0.943947 -0.0986634 -2.30628e-19)
(0.952284 -0.0908336 -1.76376e-18)
(0.959618 -0.0835848 -1.46209e-18)
(0.96631 -0.0768372 1.74418e-18)
(0.972146 -0.0705469 -3.57301e-20)
(0.977466 -0.0646418 -2.67406e-18)
(0.982039 -0.0590984 1.52668e-18)
(0.986192 -0.0538485 -1.94949e-18)
(0.989681 -0.0488856 1.7776e-18)
(0.992821 -0.044142 -7.77838e-18)
(0.995359 -0.0396261 -6.63819e-18)
(0.997605 -0.0352686 -2.0042e-18)
(0.999292 -0.031091 -1.64017e-19)
(1.00073 -0.0270204 1.34512e-18)
(1.00164 -0.0230907 3.61918e-18)
(1.00234 -0.0192244 -4.30832e-18)
(1.00253 -0.0154686 3.90061e-18)
(1.00253 -0.0117446 5.35697e-19)
(1.00205 -0.00812547 -1.59175e-18)
(1.00143 -0.0045704 2.27843e-18)
(1.00043 -0.00129843 -1.95803e-18)
(0.337441 -0.669353 3.61186e-18)
(0.425934 -0.590666 2.31412e-18)
(0.500835 -0.523858 1.14448e-18)
(0.564281 -0.466667 3.25528e-19)
(0.618825 -0.417489 -1.51688e-18)
(0.66562 -0.374885 8.87546e-19)
(0.706377 -0.337839 1.31506e-18)
(0.7417 -0.305404 3.55277e-19)
(0.772805 -0.276915 -8.26108e-19)
(0.799978 -0.251731 1.95795e-18)
(0.824128 -0.229405 2.52311e-19)
(0.845349 -0.209494 3.07746e-19)
(0.864354 -0.191689 -2.4576e-18)
(0.881121 -0.175679 -1.28562e-18)
(0.896232 -0.161244 9.90556e-19)
(0.909589 -0.148164 -1.22601e-18)
(0.921687 -0.136277 -1.30302e-18)
(0.93238 -0.125425 -1.08768e-18)
(0.942099 -0.115486 4.77954e-19)
(0.950667 -0.106348 1.27369e-18)
(0.958472 -0.0979101 -1.98439e-18)
(0.965311 -0.0900986 -1.60001e-18)
(0.971544 -0.082827 2.66303e-18)
(0.976951 -0.0760479 2.98524e-18)
(0.981868 -0.0696837 -7.1944e-19)
(0.986063 -0.0637091 5.73548e-18)
(0.989857 -0.0580504 -1.50765e-18)
(0.993007 -0.0527008 5.38575e-19)
(0.995824 -0.0475872 -6.90347e-19)
(0.998053 -0.0427188 1.99622e-18)
(1 -0.0380208 -2.24161e-18)
(1.0014 -0.0335163 -1.35458e-18)
(1.00256 -0.0291269 5.69609e-18)
(1.00321 -0.0248892 6.10655e-18)
(1.00364 -0.0207197 -4.68426e-18)
(1.00357 -0.0166693 -2.30408e-19)
(1.00332 -0.0126534 1.19645e-18)
(1.0026 -0.00875141 -2.92897e-18)
(1.00174 -0.00491993 -8.02124e-18)
(1.00052 -0.00139636 -1.90598e-18)
(0.382755 -0.714674 3.48103e-18)
(0.465922 -0.630662 2.43222e-18)
(0.536301 -0.559333 1.18442e-18)
(0.595877 -0.498273 6.84116e-19)
(0.647093 -0.445768 3.06153e-19)
(0.691004 -0.400281 -1.47708e-18)
(0.729254 -0.36073 2.24884e-18)
(0.762383 -0.3261 1.28758e-18)
(0.79156 -0.295684 -2.37158e-20)
(0.817029 -0.268796 1.7002e-18)
(0.839667 -0.24496 3.00726e-19)
(0.859541 -0.223701 -3.18873e-18)
(0.877341 -0.204692 -6.26715e-19)
(0.893024 -0.187599 -2.19632e-18)
(0.907158 -0.172187 -1.76712e-18)
(0.91963 -0.158222 -1.75603e-18)
(0.930922 -0.14553 8.17024e-19)
(0.94088 -0.133945 1.91082e-18)
(0.949926 -0.123332 2.24769e-18)
(0.957875 -0.113575 -2.5479e-18)
(0.965108 -0.104566 -1.0578e-18)
(0.971418 -0.0962254 -1.18976e-18)
(0.977157 -0.0884609 -2.02414e-18)
(0.982104 -0.0812221 1.28238e-18)
(0.986589 -0.0744261 1.41846e-18)
(0.990379 -0.0680459 5.68474e-18)
(0.993789 -0.0620028 2.19148e-20)
(0.996575 -0.0562895 2.63945e-18)
(0.999044 -0.050828 2.30719e-18)
(1.00094 -0.0456281 -1.41287e-18)
(1.00257 -0.0406098 1.05301e-18)
(1.00367 -0.0357981 -9.4469e-19)
(1.00453 -0.031109 -7.17325e-19)
(1.00488 -0.0265818 6.12917e-18)
(1.00503 -0.0221273 8.58228e-18)
(1.00469 -0.0178002 -1.10214e-18)
(1.00417 -0.01351 5.00545e-19)
(1.00319 -0.00934237 -3.04441e-18)
(1.00207 -0.00525099 4.76142e-18)
(1.00061 -0.00149005 -3.75409e-19)
(0.430936 -0.756934 -1.55536e-19)
(0.50844 -0.667957 1.70721e-18)
(0.574012 -0.592413 1.0653e-18)
(0.629473 -0.527745 1.05296e-18)
(0.67715 -0.472137 3.61491e-18)
(0.717996 -0.423963 7.80572e-19)
(0.75358 -0.382075 1.26287e-18)
(0.784375 -0.345399 5.62979e-19)
(0.811502 -0.313186 -2.53521e-18)
(0.835159 -0.284709 -9.46838e-19)
(0.856191 -0.259465 -4.1627e-19)
(0.874631 -0.23695 -2.00759e-19)
(0.89115 -0.216818 -6.86347e-19)
(0.905681 -0.198714 -4.86945e-19)
(0.918775 -0.182392 -5.20477e-19)
(0.930306 -0.167602 4.01671e-18)
(0.940742 -0.15416 -2.49583e-19)
(0.949919 -0.141889 5.92507e-18)
(0.958249 -0.130649 4.43169e-18)
(0.965539 -0.120315 1.924e-18)
(0.972164 -0.110773 7.68891e-19)
(0.977911 -0.101939 -4.18109e-19)
(0.983126 -0.093715 -1.89429e-18)
(0.987584 -0.0860475 2.40947e-18)
(0.99161 -0.0788488 2.08771e-19)
(0.994968 -0.0720904 -2.32326e-18)
(0.997969 -0.0656889 3.78065e-18)
(1.00037 -0.0596365 -1.18011e-18)
(1.00247 -0.0538506 3.90805e-19)
(1.00401 -0.0483416 -2.04534e-18)
(1.0053 -0.0430248 -7.46745e-19)
(1.00607 -0.0379266 -3.42141e-18)
(1.00662 -0.0329583 4.80419e-18)
(1.00667 -0.0281613 4.09688e-18)
(1.00652 -0.0234413 2.33524e-18)
(1.00589 -0.0188564 6.93868e-18)
(1.00508 -0.0143109 -3.52308e-18)
(1.00381 -0.00989583 4.71942e-19)
(1.00242 -0.00556213 -6.16776e-18)
(1.00071 -0.00157908 -7.47304e-18)
(0.481777 -0.795953 4.23178e-19)
(0.553306 -0.702391 1.66807e-18)
(0.613805 -0.622955 8.08132e-19)
(0.664924 -0.554956 1.57925e-18)
(0.708868 -0.496483 2.31915e-18)
(0.746478 -0.445828 1.97407e-18)
(0.77925 -0.401782 8.31193e-19)
(0.807582 -0.363218 -9.75953e-19)
(0.832546 -0.329346 -3.47647e-18)
(0.85429 -0.299402 6.12584e-19)
(0.873627 -0.272858 -1.06679e-18)
(0.890556 -0.249183 -8.73912e-19)
(0.905722 -0.228014 -5.42907e-18)
(0.919037 -0.208978 -2.91915e-18)
(0.931035 -0.191815 -2.53207e-18)
(0.941571 -0.176262 -5.06298e-19)
(0.951105 -0.162128 -2.49903e-19)
(0.959457 -0.149225 -7.99681e-19)
(0.967031 -0.137406 -1.11258e-19)
(0.973627 -0.126539 -2.63869e-18)
(0.97961 -0.116505 2.81818e-18)
(0.984762 -0.107215 7.32146e-19)
(0.989424 -0.0985666 1.82908e-18)
(0.993366 -0.0905033 7.26604e-19)
(0.996907 -0.0829329 -1.36329e-19)
(0.99981 -0.0758253 -1.05524e-18)
(1.00238 -0.0690928 6.86664e-19)
(1.00437 -0.0627273 -1.7553e-18)
(1.00608 -0.0566419 3.10656e-18)
(1.00726 -0.0508476 3.06283e-18)
(1.00819 -0.0452553 1.63154e-18)
(1.00861 -0.0398928 8.87291e-21)
(1.00882 -0.0346667 1.83099e-18)
(1.00855 -0.0296208 -4.3664e-18)
(1.00808 -0.0246559 -1.6143e-20)
(1.00715 -0.0198333 -2.12073e-18)
(1.00603 -0.0150524 -6.2988e-18)
(1.00447 -0.0104092 -2.83221e-18)
(1.00279 -0.00585176 -6.52039e-18)
(1.00082 -0.00166287 -1.88522e-18)
(0.535062 -0.831562 3.37237e-18)
(0.600328 -0.733816 2.22286e-18)
(0.655511 -0.650829 1.02197e-19)
(0.702079 -0.579789 2.18728e-18)
(0.742109 -0.518703 1.50607e-18)
(0.77633 -0.465784 3.7202e-18)
(0.806154 -0.419769 2.68413e-18)
(0.831905 -0.37948 1.5541e-18)
(0.854602 -0.344094 -4.16763e-22)
(0.874342 -0.312812 1.04577e-18)
(0.891902 -0.285081 -7.39663e-19)
(0.907246 -0.260348 1.05211e-18)
(0.920995 -0.238232 1.13262e-18)
(0.933035 -0.218345 -6.00635e-19)
(0.943884 -0.200415 -2.11404e-18)
(0.953379 -0.184167 -4.38492e-18)
(0.961966 -0.169401 -4.02686e-18)
(0.969454 -0.155921 -4.60258e-19)
(0.976236 -0.143572 -6.69545e-18)
(0.982103 -0.13222 -1.26098e-18)
(0.987414 -0.121737 2.65503e-18)
(0.991944 -0.112031 -3.77934e-19)
(0.996026 -0.102995 -8.15101e-19)
(0.999426 -0.0945706 -1.05206e-18)
(1.00246 -0.0866609 -6.55923e-19)
(1.00489 -0.0792346 -2.86907e-18)
(1.007 -0.0722 1.56249e-18)
(1.00857 -0.0655489 -1.01734e-18)
(1.00987 -0.0591902 2.12205e-18)
(1.01066 -0.0531355 2.13023e-18)
(1.01121 -0.0472918 5.80789e-18)
(1.01128 -0.0416882 5.33359e-19)
(1.01114 -0.0362269 -5.96661e-19)
(1.01053 -0.0309541 -7.22183e-18)
(1.00973 -0.025766 5.1111e-18)
(1.00847 -0.0207267 -8.8836e-18)
(1.00703 -0.0157312 -1.68591e-18)
(1.00517 -0.0108801 1.33167e-18)
(1.00319 -0.0061185 -1.19778e-18)
(1.00093 -0.00174095 2.84885e-18)
(0.590561 -0.863611 3.0704e-18)
(0.649306 -0.762099 3.1389e-18)
(0.698951 -0.675915 -9.45572e-19)
(0.740778 -0.60214 2.81673e-18)
(0.776733 -0.538701 1.59164e-18)
(0.807423 -0.483743 1.35283e-18)
(0.834176 -0.435957 1.12981e-18)
(0.857239 -0.394117 6.60474e-19)
(0.877575 -0.357368 -1.40951e-18)
(0.895227 -0.324881 2.96489e-18)
(0.910936 -0.296082 1.59387e-18)
(0.92463 -0.270397 8.35885e-20)
(0.936903 -0.247429 -2.79574e-18)
(0.947616 -0.226776 -6.31224e-18)
(0.957267 -0.208156 -1.4323e-18)
(0.965678 -0.191282 1.34779e-18)
(0.973279 -0.175946 1.32239e-18)
(0.979866 -0.161947 -1.47551e-18)
(0.985824 -0.149123 -2.68238e-18)
(0.990933 -0.137333 6.23899e-19)
(0.995543 -0.126446 8.13127e-21)
(0.999424 -0.116366 -3.48966e-18)
(1.0029 -0.106981 -4.05559e-18)
(1.00574 -0.0982318 -4.07151e-18)
(1.00824 -0.0900168 7.76142e-19)
(1.01017 -0.0823036 -3.23983e-18)
(1.01182 -0.0749973 8.7728e-20)
(1.01294 -0.068089 3.27523e-18)
(1.01382 -0.0614844 5.18837e-18)
(1.0142 -0.0551955 -1.70092e-18)
(1.01436 -0.0491255 3.93494e-18)
(1.01405 -0.043305 -1.7534e-18)
(1.01355 -0.0376323 4.10384e-18)
(1.01259 -0.0321554 4.27779e-18)
(1.01144 -0.0267665 5.28902e-18)
(1.00985 -0.0215326 -5.97589e-18)
(1.00808 -0.0163442 5.30245e-18)
(1.00589 -0.0113062 -7.66797e-18)
(1.00359 -0.00636088 -5.83493e-18)
(1.00105 -0.00181276 2.31162e-18)
(0.648038 -0.891961 3.67114e-18)
(0.700028 -0.787118 7.75064e-19)
(0.743939 -0.698107 1.58992e-19)
(0.780857 -0.621911 4.22469e-18)
(0.812591 -0.556391 1.47923e-18)
(0.839623 -0.499631 -9.67108e-19)
(0.863197 -0.450277 -2.08556e-18)
(0.883476 -0.407065 5.36321e-19)
(0.901366 -0.36911 1.56179e-18)
(0.916857 -0.335558 4.29591e-19)
(0.93065 -0.305815 2.51353e-18)
(0.942633 -0.279287 4.18165e-20)
(0.953378 -0.255566 1.07545e-18)
(0.962716 -0.234235 1.4067e-18)
(0.971128 -0.215004 4.07067e-18)
(0.978415 -0.197576 1.32697e-18)
(0.984995 -0.181738 1.07295e-18)
(0.99065 -0.167279 2.03664e-19)
(0.995754 -0.154034 1.42242e-18)
(1.00008 -0.141857 -2.76315e-18)
(1.00396 -0.130612 -2.94584e-19)
(1.00717 -0.120201 -1.08551e-18)
(1.01002 -0.110508 -3.11556e-19)
(1.01228 -0.101471 -4.6233e-18)
(1.01423 -0.0929862 1.4243e-18)
(1.01565 -0.0850194 -2.80757e-18)
(1.01681 -0.0774726 -2.3735e-18)
(1.01747 -0.0703369 6.77829e-19)
(1.0179 -0.0635148 1.41891e-18)
(1.01787 -0.0570187 -5.6766e-19)
(1.01763 -0.0507487 -3.15508e-18)
(1.01693 -0.0447364 1.2687e-18)
(1.01605 -0.0388767 -3.4116e-18)
(1.01472 -0.0332195 -1.65048e-18)
(1.01322 -0.0276532 5.10135e-18)
(1.01127 -0.0222473 7.77853e-18)
(1.00917 -0.0168886 8.15763e-18)
(1.00664 -0.0116855 2.12207e-18)
(1.00402 -0.00657764 -4.43217e-18)
(1.00117 -0.00187786 -1.97502e-19)
(0.707246 -0.916491 3.34893e-18)
(0.752277 -0.808766 1.40522e-18)
(0.790281 -0.717308 1.65177e-18)
(0.822143 -0.639018 1.79661e-18)
(0.849528 -0.571698 -2.11806e-18)
(0.872794 -0.513378 -2.02818e-18)
(0.893093 -0.462668 1.4985e-19)
(0.910503 -0.418268 1.04458e-18)
(0.925875 -0.379271 2.85082e-19)
(0.939138 -0.344797 1.89137e-18)
(0.950957 -0.314236 2.44568e-18)
(0.96118 -0.28698 -1.77687e-18)
(0.970349 -0.262607 1.72388e-18)
(0.978271 -0.24069 4.80371e-19)
(0.985406 -0.22093 -1.77186e-18)
(0.991536 -0.203024 -7.21574e-21)
(0.997064 -0.18675 1.54034e-18)
(1.00176 -0.171894 5.83039e-19)
(1.00598 -0.158285 2.13795e-18)
(1.0095 -0.145772 -3.84366e-18)
(1.01263 -0.134218 1.63186e-18)
(1.01515 -0.123521 -3.56419e-20)
(1.01736 -0.113561 -3.132e-19)
(1.01901 -0.104275 1.35269e-18)
(1.02041 -0.0955565 3.13908e-18)
(1.02129 -0.0873702 1.71144e-18)
(1.02195 -0.0796154 3.36138e-19)
(1.02213 -0.0722829 4.29557e-19)
(1.02212 -0.0652726 1.21044e-18)
(1.02165 -0.0585973 2.1246e-18)
(1.02099 -0.0521542 -1.32186e-18)
(1.01989 -0.0459761 -3.63854e-18)
(1.01862 -0.0399548 -1.35667e-18)
(1.01692 -0.0341417 3.78769e-18)
(1.01505 -0.0284221 -9.3343e-18)
(1.01275 -0.0228676 -1.02334e-17)
(1.01029 -0.0173618 5.35034e-18)
(1.00742 -0.012016 -3.21937e-18)
(1.00446 -0.00676751 -1.10046e-18)
(1.0013 -0.00193572 3.22835e-19)
(0.767932 -0.937096 2.77925e-18)
(0.805831 -0.82695 2.44374e-18)
(0.83778 -0.733437 6.36205e-19)
(0.864459 -0.653388 1.59757e-18)
(0.887388 -0.584556 1.56286e-18)
(0.906793 -0.524926 -5.4122e-19)
(0.923735 -0.473076 -6.85307e-19)
(0.938205 -0.42768 5.76513e-19)
(0.950995 -0.387807 1.52865e-18)
(0.961976 -0.352558 2.28333e-18)
(0.971771 -0.321311 1.59519e-18)
(0.980189 -0.293442 3.13178e-18)
(0.987744 -0.268522 1.64221e-18)
(0.994215 -0.246113 -3.31429e-18)
(1.00004 -0.225909 -3.12254e-18)
(1.00498 -0.2076 -1.55058e-18)
(1.00943 -0.190961 -3.84323e-18)
(1.01314 -0.175771 -6.6015e-19)
(1.01647 -0.161856 1.33146e-18)
(1.01915 -0.149062 1.6953e-18)
(1.02152 -0.137249 1.24988e-18)
(1.02333 -0.12631 1.0098e-19)
(1.02488 -0.116127 -2.2381e-18)
(1.02592 -0.106632 -8.34058e-19)
(1.02673 -0.0977167 -8.1232e-20)
(1.02707 -0.0893461 -1.50121e-18)
(1.02722 -0.0814165 1.89259e-18)
(1.02692 -0.0739188 -6.97695e-19)
(1.02643 -0.0667504 1.00509e-18)
(1.02552 -0.0599246 -7.66338e-18)
(1.02444 -0.0533362 -1.04019e-18)
(1.02293 -0.0470188 2.61555e-18)
(1.02126 -0.0408618 -4.3928e-18)
(1.01918 -0.0349179 -3.93344e-18)
(1.01693 -0.0290697 -5.25345e-18)
(1.01426 -0.0233907 -7.78875e-20)
(1.01144 -0.0177615 -2.87946e-18)
(1.00822 -0.0122962 -3.85997e-18)
(1.00491 -0.00692946 2.43533e-18)
(1.00143 -0.00198594 3.56717e-18)
(0.829835 -0.953688 -1.27647e-19)
(0.86046 -0.841593 -1.07267e-18)
(0.886233 -0.746425 -3.10834e-19)
(0.907625 -0.66496 1.74456e-18)
(0.926008 -0.594909 -6.87817e-19)
(0.941475 -0.534225 2.4449e-19)
(0.954991 -0.481458 -2.25997e-18)
(0.966464 -0.435259 -1.56713e-18)
(0.97662 -0.39468 1.2549e-18)
(0.985273 -0.358809 3.69761e-18)
(0.993003 -0.327009 3.30845e-18)
(0.99958 -0.298647 -3.87435e-19)
(1.00549 -0.273286 -3.37546e-18)
(1.01048 -0.250481 -3.41402e-18)
(1.01497 -0.229919 -2.3139e-18)
(1.0187 -0.211287 2.86095e-18)
(1.02205 -0.194353 1.33148e-18)
(1.02476 -0.178894 -1.38268e-18)
(1.02716 -0.164733 1.87578e-18)
(1.029 -0.151713 1.16659e-18)
(1.03059 -0.13969 1.91327e-18)
(1.03168 -0.128558 1.49915e-18)
(1.03255 -0.118194 -8.17712e-18)
(1.03296 -0.108531 -2.93627e-18)
(1.03318 -0.0994576 7.14837e-18)
(1.03297 -0.0909384 -1.28601e-18)
(1.03259 -0.0828681 1.61933e-18)
(1.0318 -0.0752373 2.32909e-18)
(1.03084 -0.0679417 -4.89909e-18)
(1.02947 -0.0609948 -2.13142e-18)
(1.02796 -0.0542894 1.04141e-18)
(1.02604 -0.04786 5.39162e-18)
(1.02396 -0.0415938 1.93895e-18)
(1.02148 -0.0355448 7.25154e-18)
(1.01885 -0.0295932 7.58795e-18)
(1.01581 -0.0238141 2.36818e-18)
(1.01261 -0.0180858 3.80794e-18)
(1.00904 -0.0125244 1.84887e-18)
(1.00538 -0.00706246 -5.81305e-18)
(1.00157 -0.00202808 2.17641e-18)
(0.892691 -0.966196 -3.16495e-19)
(0.915929 -0.852631 -9.85723e-19)
(0.935431 -0.756216 -5.67941e-20)
(0.951455 -0.673683 2.47677e-20)
(0.965222 -0.602715 -2.44859e-18)
(0.97669 -0.541235 -9.80215e-19)
(0.986729 -0.487777 -3.18555e-19)
(0.995157 -0.440973 -1.57142e-18)
(1.00264 -0.399863 -6.52975e-19)
(1.00893 -0.363522 2.85204e-20)
(1.01456 -0.331305 1.95117e-19)
(1.01927 -0.302572 -4.25534e-18)
(1.02351 -0.276878 -3.63942e-18)
(1.02699 -0.253775 2.4037e-18)
(1.03013 -0.232944 -1.00827e-18)
(1.03263 -0.214067 1.13879e-18)
(1.03487 -0.196911 6.32338e-19)
(1.03655 -0.18125 8.96055e-19)
(1.03802 -0.166903 5.7874e-18)
(1.039 -0.153713 2.05929e-19)
(1.0398 -0.141532 4.49252e-18)
(1.04015 -0.130254 4.08697e-18)
(1.04034 -0.119754 -5.42687e-18)
(1.04011 -0.109964 -3.80335e-18)
(1.03974 -0.100772 1.09252e-18)
(1.03896 -0.0921405 -3.46187e-18)
(1.03805 -0.0839642 3.82999e-18)
(1.03675 -0.0762331 7.00644e-18)