/*--------------------------------*- C++ -*----------------------------------*\
| =========                 |                                                 |
| \\      /  F ield         | foam-extend: Open Source CFD                    |
|  \\    /   O peration     | Version:  3.0                                   |
|   \\  /    A nd           | Web:         http://www.extend-project.de       |
|    \\/     M anipulation  |                                                 |
\*---------------------------------------------------------------------------*/
FoamFile
{
    version     2.0;
    format      ascii;
    class       volScalarField;
    location    "48";
    object      p;
}
// * * * * * * * * * * * * * * * * * * * * * * * * * * * * * * * * * * * * * //

dimensions      [0 0 0 0 0 0 0];

internalField   nonuniform List<scalar> 
672
(
-0.2334344251
-0.1981182329
-0.1869571621
-0.1684689439
-0.1659025376
-0.1553108072
-0.1563771093
-0.149960024
-0.1517067394
-0.1471219538
-0.146912771
-0.1418889954
-0.2305251942
-0.1956491646
-0.1846266789
-0.1663689688
-0.1638338944
-0.1533745721
-0.1544268859
-0.1480901821
-0.1498149144
-0.1452866879
-0.145081086
-0.1401157472
-0.2246774092
-0.1906880313
-0.1799467121
-0.1621538214
-0.1596844571
-0.1494916702
-0.1505183958
-0.14434345
-0.1460245625
-0.1416126054
-0.1414106743
-0.13657429
-0.2160445893
-0.1833614082
-0.173032347
-0.1559236417
-0.1535486169
-0.1437483794
-0.1447351479
-0.1387983964
-0.1404149129
-0.1361724207
-0.1359793083
-0.1313255959
-0.2046546349
-0.1736968033
-0.1639138177
-0.1477093893
-0.1454608084
-0.1361793713
-0.1371149393
-0.1314932418
-0.1330243968
-0.1290075905
-0.128823118
-0.1244162984
-0.1907320685
-0.1618806415
-0.1527629105
-0.1376616608
-0.1355657009
-0.1269168911
-0.127788387
-0.1225505172
-0.1239771639
-0.1202342917
-0.1200624296
-0.1159532709
-0.1743697518
-0.1479960639
-0.1396620237
-0.125859207
-0.1239441733
-0.1160403345
-0.1168378344
-0.1120522466
-0.1133567229
-0.1099372203
-0.1097796479
-0.1060232138
-0.155856401
-0.1322834073
-0.1248342118
-0.1124978637
-0.1107860832
-0.1037227866
-0.1044352852
-0.1001594964
-0.1013246165
-0.09826955778
-0.09812733115
-0.09476873307
-0.1353408451
-0.1148739235
-0.1084067908
-0.09769791968
-0.09621246377
-0.09008284628
-0.09070219725
-0.08699308149
-0.08800522092
-0.08535483501
-0.08523167549
-0.08231354809
-0.1131657959
-0.09605314185
-0.09064601723
-0.08169299176
-0.08045128484
-0.07532749242
-0.07584542609
-0.07274589262
-0.07359143098
-0.07137718994
-0.07127232304
-0.0688331985
-0.08952443393
-0.07599058854
-0.0717147213
-0.06463655755
-0.06365519756
-0.05960683024
-0.06001694867
-0.05756995174
-0.05823888329
-0.05649032349
-0.0564075452
-0.05447408203
-0.06480035125
-0.05500591141
-0.05191196185
-0.04679068297
-0.04608130784
-0.04315327253
-0.04345071128
-0.04168209298
-0.04216581711
-0.04090281073
-0.04084088675
-0.0394436867
-0.03921747656
-0.03329525498
-0.03142514656
-0.02833200915
-0.02790406501
-0.02613900423
-0.02631954908
-0.02525621171
-0.02554884438
-0.02478891428
-0.02475132683
-0.02390046386
-0.0131848699
-0.01119948893
-0.01057379982
-0.009540285013
-0.009398761296
-0.008812241015
-0.008874233606
-0.008524002816
-0.008621671262
-0.008372234838
-0.008356436892
-0.008071008235
0.01305771882
0.01107151554
0.01044200653
0.009395861817
0.009248802184
0.008643357451
0.008701169106
0.008329134367
0.008426963042
0.008161403639
0.008151252303
0.007875779213
0.03909263438
0.03316971969
0.03129583593
0.02819067721
0.02775727415
0.02597416484
0.02615061679
0.02506646491
0.02535935621
0.02458405653
0.02455224287
0.02371135893
0.06467991568
0.05488505609
0.05178742832
0.04665533404
0.0459405688
0.04299629726
0.04328945512
0.0415022494
0.04198549741
0.04070890499
0.04065146009
0.03926284906
0.08941067172
0.07587676343
0.07159733551
0.06451006328
0.06352347935
0.05946136787
0.05986724891
0.05740457331
0.05807276398
0.05631288484
0.05623402168
0.05430840795
0.1130603702
0.09594813057
0.09053765544
0.08157765971
0.08033097937
0.07519657772
0.07571030669
0.07259877461
0.07344309227
0.07122035302
0.07111837792
0.0686856323
0.135245748
0.1147797371
0.1083094239
0.09759604373
0.09610581236
0.08996922289
0.09058419289
0.0868674335
0.08787728138
0.08522182581
0.08509951811
0.08218558145
0.1557726783
0.1322011651
0.1247490888
0.1124108741
0.1106947195
0.1036282769
0.1043366387
0.1000575935
0.1012202356
0.09816338851
0.09802134848
0.0946655635
0.1742989654
0.1479272659
0.1395905776
0.1257885927
0.1238695082
0.1159664926
0.1167598225
0.1119756735
0.1132767242
0.1098590683
0.1096997015
0.1059438369
0.1906745378
0.161825631
0.1527055821
0.1376078225
0.1355082071
0.1268640979
0.1277314948
0.1224995824
0.1239220878
0.1201844796
0.1200092523
0.1158984565
0.2046114118
0.1736564828
0.163871493
0.1476729228
0.145421218
0.1361479175
0.137079795
0.1314679659
0.1329949112
0.1289862708
0.1287977452
0.1243881762
0.216015282
0.1833353656
0.1730046318
0.1559039483
0.1535261923
0.1437372447
0.1447203398
0.1387971393
0.1404085486
0.1361769814
0.1359779202
0.1313189308
0.2246625225
0.1906765593
0.1799339553
0.1621506504
0.1596792234
0.1494999943
0.1505236625
0.1443647774
0.1460410217
0.1416417457
0.1414334878
0.1365911101
0.2305237711
0.1956512299
0.184627815
0.1663809271
0.1638443089
0.1534002826
0.154449936
0.148131163
0.1498509788
0.1453366374
0.14512409
0.1401512028
0.2334464422
0.1981335694
0.1869720613
0.1684950934
0.1659279021
0.1553521472
0.1564164298
0.1500180199
0.1517599705
0.1471895287
0.146972784
0.1419408151
0.2334722187
0.1981553323
0.1869919702
0.1685129012
0.1659446353
0.1553679286
0.1564315583
0.1500325986
0.1517746391
0.1472028436
0.1469874458
0.1419505401
0.230522538
0.1956533987
0.184632697
0.1663878501
0.1638536423
0.1534105637
0.1544622483
0.1481437745
0.149864606
0.1453510145
0.1451376214
0.1401689608
0.2247127465
0.1907220765
0.1799785208
0.1621929409
0.1597218413
0.1495415174
0.1505659052
0.1444061678
0.1460833376
0.1416823074
0.1414752213
0.1366277693
0.2160375232
0.1833605332
0.1730332806
0.155934793
0.1535606152
0.1437729424
0.1447592835
0.1388365025
0.1404500551
0.1362187993
0.1360198109
0.1313637392
0.2046847985
0.1737244554
0.1639394135
0.1477383863
0.1454884196
0.1362138932
0.1371478805
0.1315350002
0.1330636914
0.1290532182
0.1288655873
0.1244517833
0.190718085
0.1618717898
0.1527558656
0.1376607078
0.1355655919
0.1269235044
0.1277950164
0.1225642252
0.1239896149
0.1202523362
0.1200778543
0.1159678282
0.1743930561
0.1480152886
0.1396793931
0.1258748362
0.1239588372
0.1160545703
0.1168513942
0.1120661713
0.11336989
0.1099506325
0.1097920901
0.1060337085
0.1558343672
0.1322653016
0.1248178616
0.11248285
0.1107718875
0.1037085267
0.1044216046
0.1001448204
0.1013108423
0.09825472625
0.09811398467
0.09475648392
0.1353569778
0.1148843603
0.108415558
0.09769960965
0.09621359806
0.09007593295
0.09069551678
0.08697799721
0.08799112071
0.08533468578
0.08521281
0.08229804836
0.1131361701
0.09602633189
0.0906208716
0.08166476173
0.08042377332
0.07529362156
0.07581253533
0.07270455815
0.07355281454
0.07133142724
0.07123164698
0.06879530762
0.08953451278
0.07599362057
0.07171622848
0.06462651577
0.06364494859
0.05958214209
0.05999333204
0.05753054738
0.05820216758
0.05644226363
0.05636311054
0.05443792772
0.06476509723
0.05497266474
0.05188028621
0.0467526995
0.04604390833
0.04310495246
0.04340354066
0.04162113936
0.04210868628
0.04083422209
0.0407797212
0.03938633688
0.03922382146
0.03329372706
0.0314221751
0.02831476239
0.02788681478
0.02610343307
0.02628556749
0.0252019694
0.02549838749
0.02472392806
0.02469151853
0.02385208133
0.01314707006
0.01116334111
0.0105391725
0.009497931217
0.009356912555
0.008757480425
0.008820688206
0.008454358678
0.008556385101
0.008293654695
0.008286458795
0.008005481806
-0.01305205041
-0.01107386561
-0.0104457932
-0.009414379282
-0.009267322741
-0.008680801978
-0.008737019823
-0.008385876083
-0.008479879474
-0.00822922484
-0.008213809201
-0.007926442806
-0.0391293944
-0.03320466666
-0.03132925146
-0.02823117307
-0.02779726429
-0.02602612088
-0.02620141208
-0.02513222121
-0.02542091815
-0.02465793961
-0.02461777717
-0.02377237758
-0.06467173161
-0.05488433524
-0.05178820025
-0.04666896134
-0.04595436306
-0.04302629161
-0.0433182583
-0.04154874558
-0.04202895095
-0.04076490374
-0.04070321193
-0.03930468544
-0.08944301541
-0.07590665198
-0.07162562485
-0.06454286687
-0.06355571824
-0.05950189225
-0.05990687734
-0.05745477814
-0.05811989169
-0.05636872555
-0.05628365786
-0.05435453584
-0.1130469751
-0.095941056
-0.09053217429
-0.08158122608
-0.08033496688
-0.07521133372
-0.07572448721
-0.07262441565
-0.07346691609
-0.07125227912
-0.07114767584
-0.06870883701
-0.135271172
-0.1148017082
-0.108329686
-0.09761685272
-0.09612593121
-0.08999198529
-0.09060642547
-0.08689357408
-0.0879021031
-0.08524996096
-0.08512498187
-0.08220944627
-0.1557524127
-0.132185706
-0.1247353652
-0.1124011978
-0.1106857921
-0.103623031
-0.1043316218
-0.1000559452
-0.1012184534
-0.0981640061
-0.09802169893
-0.0946651505
-0.1743163349
-0.147940013
-0.139601499
-0.125795452
-0.1238754942
-0.1159686326
-0.1167617103
-0.1119738995
-0.1132753606
-0.1098549741
-0.1096966117
-0.1059411062
-0.1906471108
-0.1618014013
-0.1526832754
-0.1375843051
-0.1354858353
-0.126837968
-0.1277065434
-0.1224694815
-0.1238938622
-0.1201526298
-0.1199800216
-0.1158743938
-0.2046211891
-0.1736605054
-0.1638736315
-0.1476665876
-0.1454138775
-0.1361305556
-0.1370624303
-0.1314397727
-0.132968651
-0.1289515633
-0.1287672954
-0.1243597124
-0.2159818273
-0.1833037017
-0.1729751041
-0.1558686896
-0.1534924709
-0.1436933879
-0.1446785044
-0.1387428499
-0.1403578213
-0.1361174169
-0.1359232925
-0.1312743172
-0.2246666779
-0.1906740764
-0.1799296297
-0.1621344682
-0.1596620462
-0.1494680643
-0.1504920613
-0.1443168175
-0.1459963291
-0.1415841288
-0.1413827678
-0.136543643
-0.2304866058
-0.1956149478
-0.1845938368
-0.1663383576
-0.1638035455
-0.1533453428
-0.154397536
-0.148061673
-0.1497859877
-0.1452594597
-0.1450530044
-0.1400928567
-0.2334480668
-0.1981281189
-0.1869648275
-0.1684744219
-0.1659062924
-0.1553135469
-0.1563783981
-0.1499609557
-0.1517069034
-0.1471212827
-0.1469127217
-0.1418844869
)
;

boundaryField
{
    out
    {
        type            implicitExtrapolation;
    }
    in
    {
        type            implicitExtrapolation;
    }
    frontAndBack
    {
        type            empty;
    }
}


// ************************************************************************* //
