/*--------------------------------*- C++ -*----------------------------------*\
| =========                 |                                                 |
| \\      /  F ield         | foam-extend: Open Source CFD                    |
|  \\    /   O peration     | Version:  3.0                                   |
|   \\  /    A nd           | Web:         http://www.extend-project.de       |
|    \\/     M anipulation  |                                                 |
\*---------------------------------------------------------------------------*/
FoamFile
{
    version     2.0;
    format      ascii;
    class       volScalarField;
    location    "9.6";
    object      p;
}
// * * * * * * * * * * * * * * * * * * * * * * * * * * * * * * * * * * * * * //

dimensions      [0 0 0 0 0 0 0];

internalField   nonuniform List<scalar> 
400
(
2.672
0.239379
0.428401
-0.218613
0.564113
0.300997
1.10359
0.883906
1.61131
1.38065
2.06941
1.8333
2.52588
2.27296
2.95722
2.60513
3.13998
2.40577
2.32756
0.225872
6.1874
4.17284
3.92802
2.87132
3.11267
2.33986
2.63049
1.9319
2.17599
1.49041
1.69127
0.996071
1.17599
0.453367
0.617157
-0.175291
-0.103288
-1.11369
-1.46084
-3.16296
4.79208
2.95338
2.9618
2.16263
2.53743
1.98702
2.40084
1.89135
2.29411
1.77824
2.18789
1.65834
2.09235
1.53824
1.97383
1.34414
1.66095
0.790492
0.646158
-0.953307
4.99847
3.96127
3.66725
3.01258
3.01464
2.45398
2.51628
1.96012
2.02683
1.46766
1.54637
0.994822
1.10199
0.55807
0.678
0.100191
0.121382
-0.619998
-0.993443
-2.10441
3.76324
2.91741
2.89826
2.40584
2.60541
2.18615
2.46341
2.04322
2.3864
1.95918
2.39537
1.97169
2.52075
2.09501
2.71984
2.22682
2.7508
2.00079
1.98797
0.615969
3.43492
3.09272
2.90945
2.59485
2.5086
2.16567
2.11953
1.74932
1.74444
1.37776
1.44401
1.11589
1.28757
1.00911
1.28407
0.986871
1.23807
0.672011
0.489979
-0.878386
2.72312
2.58091
2.5743
2.36445
2.41965
2.14191
2.28242
1.9634
2.23006
1.90456
2.35371
2.05826
2.7469
2.4939
3.42673
3.13196
4.12512
3.44185
3.82585
1.80924
2.21286
2.43564
2.33722
2.2741
2.09985
1.89874
1.73585
1.47831
1.37548
1.12685
1.13798
0.962474
1.15611
1.09479
1.52084
1.49927
2.06022
1.64271
1.73829
-0.403485
1.81155
2.28133
2.26083
2.27527
2.17295
1.99245
1.96512
1.69976
1.82566
1.54335
1.907
1.67479
2.39024
2.26061
3.43118
3.3376
4.8704
4.29982
5.33027
2.39719
1.23688
2.00433
1.93952
2.06362
1.78284
1.65955
1.36187
1.14224
0.896751
0.670332
0.539181
0.40103
0.481944
0.528328
0.939237
1.15369
1.88357
1.73223
2.08602
-0.592583
1.01382
2.0356
1.96896
2.15144
1.89333
1.76991
1.56199
1.30168
1.22635
0.913369
1.06193
0.789491
1.32265
1.20282
2.34724
2.40469
4.27873
3.99725
5.8285
2.55631
0.487333
1.71383
1.64953
1.90563
1.53089
1.44695
1.02236
0.786721
0.37075
0.0776313
-0.282022
-0.516408
-0.717463
-0.727797
-0.601043
-0.259299
0.311274
0.625328
1.08654
-1.09705
0.417186
1.81884
1.70418
1.9983
1.62903
1.54182
1.17596
0.888851
0.581635
0.173087
-0.00549285
-0.431064
-0.313151
-0.581737
0.153256
0.238509
2.0041
2.23714
4.83656
2.58948
0.0583356
1.53429
1.46312
1.80068
1.37996
1.32165
0.804912
0.52478
-0.0606117
-0.484861
-1.12298
-1.57529
-2.19312
-2.45321
-2.87542
-2.60547
-2.59239
-1.66226
-1.36736
-1.44537
0.188546
1.67756
1.5417
1.89568
1.48753
1.43244
0.954599
0.627431
0.0954557
-0.447996
-1.00624
-1.67352
-2.13858
-2.72179
-2.76746
-2.85853
-1.80574
-0.932923
2.08759
2.70308
0.122527
1.54882
1.47732
1.8525
1.44086
1.40563
0.83695
0.502765
-0.225706
-0.808736
-1.71843
-2.46249
-3.54166
-4.2231
-5.34896
-5.43456
-6.29554
-4.83403
-5.05285
-1.31571
0.546797
1.77053
1.64536
2.01866
1.62963
1.60263
1.05322
0.682478
-0.0367133
-0.7195
-1.62916
-2.569
-3.64914
-4.66591
-5.70804
-6.24137
-6.50298
-5.1711
-2.61276
2.563
0.911825
1.96565
1.89275
2.26527
1.88027
1.85064
1.24835
0.855251
0.0258753
-0.702729
-1.81408
-2.84552
-4.31007
-5.49921
-7.3014
-8.06573
-9.90321
-8.46657
-9.53961
-1.08796
1.69803
2.35929
2.25888
2.61763
2.24162
2.20828
1.59626
1.17286
0.323195
-0.469487
-1.62136
-2.78674
-4.34468
-5.80977
-7.78433
-9.0272
-10.9506
-9.88123
-9.51211
0.637485
2.63865
3.1235
3.00575
3.3143
2.8893
2.79234
2.14139
1.66769
0.796289
-0.036185
-1.21081
-2.44402
-4.07532
-5.72813
-7.93277
-9.66181
-12.2163
-12.0944
-14.0032
-3.00031
)
;

boundaryField
{
    cavity
    {
        type            implicitExtrapolation;
    }
    lid
    {
        type            implicitExtrapolation;
    }
    frontAndBack
    {
        type            empty;
    }
}


// ************************************************************************* //
