/*--------------------------------*- C++ -*----------------------------------*\
| =========                 |                                                 |
| \\      /  F ield         | foam-extend: Open Source CFD                    |
|  \\    /   O peration     | Version:  3.0                                   |
|   \\  /    A nd           | Web:         http://www.extend-project.de       |
|    \\/     M anipulation  |                                                 |
\*---------------------------------------------------------------------------*/
FoamFile
{
    version     2.0;
    format      ascii;
    class       volVectorField;
    location    "9.6";
    object      s;
}
// * * * * * * * * * * * * * * * * * * * * * * * * * * * * * * * * * * * * * //

dimensions      [0 0 0 0 0 0 0];

internalField   nonuniform List<vector> 
400
(
(-0.0476518 0.101832 1.48766e-317)
(-0.0794232 0.143635 2.69455e-317)
(-0.179388 0.146725 3.12813e-317)
(-0.229771 0.119224 3.20472e-317)
(-0.303263 0.100325 3.11819e-317)
(-0.344109 0.0729738 2.95664e-317)
(-0.389482 0.0550303 2.76587e-317)
(-0.414459 0.0338209 2.56838e-317)
(-0.435121 0.0179761 2.37418e-317)
(-0.442672 -0.000116997 2.19029e-317)
(-0.44057 -0.0160449 2.01657e-317)
(-0.42958 -0.0344237 1.85538e-317)
(-0.404497 -0.0520393 1.70376e-317)
(-0.374262 -0.0725722 1.56073e-317)
(-0.325272 -0.0913481 1.42174e-317)
(-0.277839 -0.113344 1.28128e-317)
(-0.206202 -0.128594 1.12904e-317)
(-0.151334 -0.144263 9.49296e-318)
(-0.0658962 -0.135228 7.07017e-318)
(-0.0326423 -0.0897344 3.3639e-318)
(-0.0518338 0.0560335 2.05954e-317)
(-0.11895 0.124796 4.13466e-317)
(-0.227802 0.152441 5.06239e-317)
(-0.30614 0.148462 5.35695e-317)
(-0.397522 0.131584 5.31893e-317)
(-0.46198 0.105707 5.11225e-317)
(-0.524484 0.0787096 4.82661e-317)
(-0.564822 0.0500207 4.51386e-317)
(-0.595452 0.0223036 4.19568e-317)
(-0.607962 -0.00573728 3.88931e-317)
(-0.606016 -0.0332917 3.59506e-317)
(-0.589193 -0.0609425 3.31858e-317)
(-0.554349 -0.0880815 3.05299e-317)
(-0.508515 -0.113905 2.79721e-317)
(-0.442149 -0.13675 2.53931e-317)
(-0.372061 -0.153619 2.26912e-317)
(-0.281051 -0.159914 1.96421e-317)
(-0.200805 -0.149304 1.59705e-317)
(-0.102404 -0.111822 1.11972e-317)
(-0.0395361 -0.0429757 4.64884e-318)
(-0.0509154 0.172047 2.0652e-317)
(-0.113584 0.300804 4.24064e-317)
(-0.219814 0.337978 5.27806e-317)
(-0.293848 0.315248 5.65518e-317)
(-0.379395 0.276978 5.67132e-317)
(-0.440626 0.221719 5.49613e-317)
(-0.499295 0.167957 5.22594e-317)
(-0.538878 0.109654 4.91812e-317)
(-0.568921 0.0543041 4.59823e-317)
(-0.583011 -0.00304598 4.28573e-317)
(-0.583152 -0.0591818 3.98268e-317)
(-0.569429 -0.116893 3.69508e-317)
(-0.538166 -0.173523 3.41631e-317)
(-0.495738 -0.229475 3.14437e-317)
(-0.432962 -0.279704 2.8655e-317)
(-0.36513 -0.321926 2.56619e-317)
(-0.276101 -0.344837 2.2196e-317)
(-0.195879 -0.341736 1.79035e-317)
(-0.0971177 -0.286137 1.2316e-317)
(-0.0351221 -0.151089 4.79559e-318)
(-0.0305332 0.162361 1.84489e-317)
(-0.0851002 0.308122 3.7987e-317)
(-0.155057 0.359654 4.75955e-317)
(-0.214603 0.345391 5.13962e-317)
(-0.277944 0.307922 5.1974e-317)
(-0.328659 0.250943 5.08104e-317)
(-0.376083 0.191251 4.87328e-317)
(-0.410994 0.126318 4.62612e-317)
(-0.438031 0.0619934 4.36202e-317)
(-0.453283 -0.00454883 4.09958e-317)
(-0.457054 -0.0714097 3.84116e-317)
(-0.449856 -0.1396 3.5931e-317)
(-0.427861 -0.207643 3.34993e-317)
(-0.396315 -0.273115 3.11036e-317)
(-0.347491 -0.332365 2.86214e-317)
(-0.292856 -0.377309 2.59205e-317)
(-0.221794 -0.398879 2.2743e-317)
(-0.153921 -0.380373 1.8694e-317)
(-0.0783222 -0.302055 1.32311e-317)
(-0.0221943 -0.137259 5.47036e-318)
(-0.0240226 0.200334 1.49857e-317)
(-0.0615592 0.372691 3.09549e-317)
(-0.113772 0.430057 3.91047e-317)
(-0.156099 0.414343 4.26982e-317)
(-0.203345 0.370458 4.37043e-317)
(-0.241378 0.304572 4.32759e-317)
(-0.278416 0.234623 4.20338e-317)
(-0.307189 0.158017 4.03939e-317)
(-0.330936 0.0813203 3.85367e-317)
(-0.347152 0.00102034 3.66233e-317)
(-0.354745 -0.0805951 3.46855e-317)
(-0.355269 -0.165105 3.2789e-317)
(-0.343017 -0.250656 3.09044e-317)
(-0.324426 -0.334558 2.90354e-317)
(-0.288386 -0.412396 2.70928e-317)
(-0.248861 -0.473662 2.49763e-317)
(-0.188951 -0.508054 2.24488e-317)
(-0.134538 -0.491888 1.91291e-317)
(-0.0642864 -0.403286 1.42783e-317)
(-0.0200713 -0.195511 6.62905e-318)
(-0.0116678 0.190278 1.05576e-317)
(-0.037765 0.363749 2.23817e-317)
(-0.063619 0.426625 2.89464e-317)
(-0.0906585 0.415676 3.23976e-317)
(-0.11877 0.37544 3.39553e-317)
(-0.145242 0.311866 3.44e-317)
(-0.171157 0.242865 3.41251e-317)
(-0.194272 0.166147 3.34368e-317)
(-0.214568 0.0879616 3.24672e-317)
(-0.231778 0.00501299 3.13524e-317)
(-0.243272 -0.0809662 3.01306e-317)
(-0.251542 -0.171301 2.88677e-317)
(-0.249825 -0.264887 2.7556e-317)
(-0.244712 -0.357871 2.62092e-317)
(-0.223669 -0.446658 2.47646e-317)
(-0.200325 -0.516541 2.31386e-317)
(-0.155468 -0.558088 2.1112e-317)
(-0.11503 -0.537197 1.83146e-317)
(-0.0546168 -0.435539 1.39446e-317)
(-0.0184758 -0.196635 6.65295e-318)
(-0.00596192 0.19305 5.9562e-318)
(-0.0194446 0.370243 1.37061e-317)
(-0.0296508 0.434858 1.88118e-317)
(-0.0431045 0.427185 2.22211e-317)
(-0.0574915 0.388571 2.43789e-317)
(-0.0734808 0.326473 2.56988e-317)
(-0.090252 0.257827 2.63642e-317)
(-0.107756 0.180666 2.65801e-317)
(-0.124613 0.101096 2.64394e-317)
(-0.142159 0.0153562 2.60576e-317)
(-0.156533 -0.0747881 2.54797e-317)
(-0.171817 -0.171693 2.47712e-317)
(-0.179095 -0.273995 2.39416e-317)
(-0.187432 -0.379084 2.30114e-317)
(-0.179119 -0.482147 2.19345e-317)
(-0.173138 -0.568799 2.06438e-317)
(-0.13834 -0.625983 1.89414e-317)
(-0.113771 -0.616306 1.65086e-317)
(-0.0508853 -0.51315 1.25979e-317)
(-0.0264897 -0.245505 6.02949e-318)
(0.00145783 0.17813 1.55832e-318)
(-0.0035015 0.345502 5.59483e-318)
(0.00359698 0.410314 9.43707e-318)
(0.00158288 0.406293 1.28578e-317)
(0.00129789 0.373366 1.55921e-317)
(-0.00511174 0.317005 1.7718e-317)
(-0.0123624 0.25402 1.92392e-317)
(-0.023949 0.181865 2.02723e-317)
(-0.0364082 0.106589 2.08774e-317)
(-0.0528776 0.0240192 2.11512e-317)
(-0.0686991 -0.0644248 2.11423e-317)
(-0.0888323 -0.161795 2.09145e-317)
(-0.10402 -0.267402 2.0486e-317)
(-0.123532 -0.379315 1.9878e-317)
(-0.128648 -0.49339 1.9051e-317)
(-0.138246 -0.593907 1.7946e-317)
(-0.117392 -0.667375 1.6385e-317)
(-0.107063 -0.667521 1.41153e-317)
(-0.0486962 -0.564735 1.05505e-317)
(-0.0312757 -0.267287 4.86176e-318)
(0.00695623 0.166654 -2.03212e-318)
(0.00963474 0.325231 -1.0613e-318)
(0.029298 0.388164 1.71643e-318)
(0.0364825 0.387898 5.10489e-318)
(0.0472404 0.359593 8.27363e-318)
(0.0491548 0.309146 1.10203e-317)
(0.0504204 0.251705 1.32089e-317)
(0.0449266 0.185039 1.48804e-317)
(0.0376348 0.114829 1.60682e-317)
(0.0236378 0.0364659 1.68504e-317)
(0.00847805 -0.0485565 1.72772e-317)
(-0.0146134 -0.144906 1.74077e-317)
(-0.0349356 -0.251329 1.72634e-317)
(-0.0647669 -0.369302 1.6861e-317)
(-0.080726 -0.492234 1.61658e-317)
(-0.10835 -0.60999 1.51194e-317)
(-0.0987565 -0.700689 1.35709e-317)
(-0.109778 -0.724093 1.13302e-317)
(-0.0480306 -0.628056 8.03535e-318)
(-0.0479262 -0.315868 3.29829e-318)
(0.0119399 0.146796 -4.68334e-318)
(0.0204028 0.290288 -6.06631e-318)
(0.0514926 0.350629 -4.18259e-318)
(0.0668407 0.353593 -9.23587e-319)
(0.0880565 0.331327 2.49283e-318)
(0.098167 0.288018 5.65103e-318)
(0.108243 0.238094 8.31024e-318)
(0.109835 0.179044 1.04477e-317)
(0.109075 0.116347 1.20714e-317)
(0.099949 0.0451661 1.32423e-317)
(0.087848 -0.0333339 1.40063e-317)
(0.0658195 -0.124703 1.44172e-317)
(0.0430453 -0.228405 1.44977e-317)
(0.00841904 -0.347871 1.42614e-317)
(-0.0176235 -0.477431 1.3675e-317)
(-0.0567847 -0.609097 1.26858e-317)
(-0.0638717 -0.720247 1.11704e-317)
(-0.0890502 -0.766941 8.99349e-318)
(-0.0415555 -0.687586 5.99501e-318)
(-0.0473982 -0.358457 2.10362e-318)
(0.0170217 0.130027 -6.35649e-318)
(0.0288064 0.258965 -9.40752e-318)
(0.0690053 0.314857 -8.26235e-318)
(0.0899097 0.32075 -5.23704e-318)
(0.119623 0.303148 -1.76204e-318)
(0.136495 0.266659 1.59454e-318)
(0.154655 0.223646 4.52247e-318)
(0.163213 0.172219 6.9458e-318)
(0.169697 0.117342 8.85008e-318)
(0.166615 0.0540963 1.02776e-317)
(0.159878 -0.0162152 1.12689e-317)
(0.140999 -0.100605 1.18696e-317)
(0.119522 -0.197738 1.21033e-317)
(0.0814635 -0.315392 1.19805e-317)
(0.0496221 -0.444778 1.14747e-317)
(-0.00441469 -0.587777 1.05395e-317)
(-0.0241343 -0.710162 9.08588e-318)
(-0.0768896 -0.784819 7.01934e-318)
(-0.0335367 -0.715396 4.33572e-318)
(-0.0690322 -0.389645 1.17148e-318)
(0.0197696 0.107118 -6.98241e-318)
(0.0349747 0.220209 -1.107e-317)
(0.0814682 0.271957 -1.05697e-317)
(0.107919 0.280501 -7.90584e-318)
(0.144905 0.267712 -4.56835e-318)
(0.168698 0.237863 -1.21669e-318)
(0.194698 0.201921 1.79275e-318)
(0.210958 0.158383 4.34124e-318)
(0.225452 0.111752 6.39062e-318)
(0.230516 0.0574006 7.96573e-318)
(0.231257 -0.0036924 9.09866e-318)
(0.220097 -0.0788554 9.82899e-318)
(0.203229 -0.167448 1.01795e-317)
(0.170005 -0.279093 1.01629e-317)
(0.134649 -0.40645 9.76089e-318)
(0.0787874 -0.55575 8.9394e-318)
(0.0404516 -0.693751 7.64116e-318)
(-0.021008 -0.797231 5.80489e-318)
(-0.0126822 -0.759755 3.4985e-318)
(-0.0490608 -0.446752 8.84427e-319)
(0.0228952 0.0899536 -7.25093e-318)
(0.0376826 0.186987 -1.18998e-317)
(0.0885944 0.232571 -1.18513e-317)
(0.117608 0.242391 -9.53512e-318)
(0.160006 0.232773 -6.40681e-318)
(0.18874 0.208626 -3.16728e-318)
(0.221206 0.178789 -1.91791e-319)
(0.243923 0.142555 2.3702e-318)
(0.265908 0.103787 4.4656e-318)
(0.278733 0.058249 6.10318e-318)
(0.28797 0.00702106 7.30749e-318)
(0.285088 -0.0577072 8.1123e-318)
(0.276222 -0.134587 8.54028e-318)
(0.248202 -0.236239 8.6052e-318)
(0.215581 -0.352862 8.30163e-318)
(0.153236 -0.500389 7.60756e-318)
(0.105669 -0.635354 6.49694e-318)
(0.0149762 -0.756981 4.93255e-318)
(0.00962984 -0.723225 2.99725e-318)
(-0.0728176 -0.429929 8.12308e-319)
(0.0226596 0.0674908 -6.50022e-318)
(0.0384869 0.150757 -1.13327e-317)
(0.0907884 0.19096 -1.17303e-317)
(0.123087 0.202116 -9.87518e-318)
(0.169598 0.195231 -7.10291e-318)
(0.20319 0.176132 -4.12483e-318)
(0.241188 0.151836 -1.32255e-318)
(0.27008 0.122324 1.13009e-318)
(0.29905 0.090822 3.16412e-318)
(0.320295 0.0537335 4.77442e-318)
(0.338619 0.011923 5.97705e-318)
(0.347382 -0.0419027 6.80174e-318)
(0.348794 -0.106802 7.27073e-318)
(0.33495 -0.195874 7.40119e-318)
(0.307771 -0.300978 7.19723e-318)
(0.258117 -0.442045 6.6532e-318)
(0.195734 -0.579535 5.76083e-318)
(0.111777 -0.723919 4.5011e-318)
(0.0487041 -0.730792 2.92363e-318)
(-0.018524 -0.494557 1.03864e-318)
(0.0218881 0.0534995 -6.41421e-318)
(0.0342995 0.121281 -1.10458e-317)
(0.085384 0.15398 -1.15544e-317)
(0.117719 0.164162 -9.95345e-318)
(0.165589 0.158699 -7.45956e-318)
(0.201182 0.143626 -4.73173e-318)
(0.241822 0.124059 -2.13433e-318)
(0.274015 0.100533 1.60492e-319)
(0.307318 0.0754928 2.08106e-318)
(0.334084 0.046088 3.61534e-318)
(0.359793 0.0130694 4.77532e-318)
(0.377331 -0.0299913 5.58584e-318)
(0.389824 -0.0819854 6.0694e-318)
(0.386708 -0.15568 6.24554e-318)
(0.371322 -0.242686 6.1271e-318)
(0.325876 -0.366075 5.71861e-318)
(0.265949 -0.483752 5.02833e-318)
(0.15923 -0.620269 4.04624e-318)
(0.0835756 -0.614746 2.77898e-318)
(-0.0460044 -0.397305 1.14966e-318)
(0.0177063 0.0353693 -4.9021e-318)
(0.0292998 0.0922539 -9.30629e-318)
(0.0783189 0.118394 -1.00819e-317)
(0.111826 0.128037 -8.92205e-318)
(0.160732 0.123524 -6.84699e-318)
(0.197642 0.111903 -4.50024e-318)
(0.239881 0.0965226 -2.21775e-318)
(0.274002 0.0782196 -1.79257e-319)
(0.310236 0.0589426 1.5412e-318)
(0.341634 0.0362861 2.92367e-318)
(0.373583 0.0111671 3.97711e-318)
(0.401191 -0.0220691 4.72155e-318)
(0.424663 -0.0619274 5.17874e-318)
(0.439603 -0.120528 5.37008e-318)
(0.436891 -0.189942 5.31298e-318)
(0.417865 -0.295773 5.01992e-318)
(0.354284 -0.400131 4.50325e-318)
(0.279985 -0.545427 3.75827e-318)
(0.134666 -0.57792 2.74567e-318)
(0.057664 -0.468493 1.30052e-318)
(0.0119569 0.0270142 -5.02272e-318)
(0.0182734 0.0682141 -8.61379e-318)
(0.0603909 0.0859338 -9.15077e-318)
(0.0909029 0.0926733 -8.07472e-318)
(0.135219 0.0888231 -6.28152e-318)
(0.169272 0.0802849 -4.26786e-318)
(0.207571 0.0687514 -2.32083e-318)
(0.239125 0.0552973 -5.81105e-319)
(0.272899 0.0408295 8.88538e-319)
(0.303246 0.024027 2.07353e-318)
(0.335959 0.00517603 2.98161e-318)
(0.365728 -0.0193048 3.62953e-318)
(0.395723 -0.0488498 4.03882e-318)
(0.417475 -0.0913914 4.22772e-318)
(0.429389 -0.142311 4.21712e-318)
(0.418607 -0.218682 4.02227e-318)
(0.375184 -0.293884 3.66025e-318)
(0.289636 -0.394623 3.12785e-318)
(0.161535 -0.397024 2.3597e-318)
(0.0114494 -0.264885 1.16728e-318)
(0.00357209 0.0156029 -2.97802e-318)
(0.0100187 0.0481814 -6.21848e-318)
(0.0493822 0.0590676 -6.87107e-318)
(0.0781338 0.064025 -6.20108e-318)
(0.120236 0.0605216 -4.8403e-318)
(0.1502 0.0544296 -3.28147e-318)
(0.185332 0.0464359 -1.74594e-318)
(0.212795 0.037001 -3.70752e-319)
(0.2439 0.0273283 7.9512e-319)
(0.272324 0.0155997 1.73517e-318)
(0.304727 0.00324383 2.4564e-318)
(0.337507 -0.013703 2.97161e-318)
(0.372103 -0.0325748 3.30043e-318)
(0.406695 -0.0621605 3.4585e-318)
(0.430131 -0.094336 3.46336e-318)
(0.449933 -0.151446 3.33158e-318)
(0.415225 -0.20201 3.07752e-318)
(0.389578 -0.304396 2.69928e-318)
(0.202942 -0.329542 2.12608e-318)
(0.175494 -0.358045 1.13974e-318)
(-0.00327026 0.0125723 -3.03184e-318)
(-0.00294818 0.0259105 -4.76927e-318)
(0.0218839 0.029763 -4.94905e-318)
(0.0410572 0.0317189 -4.32838e-318)
(0.0677412 0.0297381 -3.38752e-318)
(0.0875297 0.0268872 -2.35197e-318)
(0.108877 0.0223651 -1.36468e-318)
(0.126443 0.0172786 -4.87796e-319)
(0.145458 0.0111138 2.50343e-319)
(0.163405 0.00401827 8.44902e-319)
(0.184834 -0.00444559 1.30167e-318)
(0.205834 -0.0148019 1.62975e-318)
(0.232082 -0.0275272 1.84192e-318)
(0.25469 -0.0436603 1.94895e-318)
(0.279809 -0.0637185 1.96413e-318)
(0.290581 -0.0882595 1.89993e-318)
(0.286327 -0.116298 1.76726e-318)
(0.248293 -0.139216 1.56664e-318)
(0.155282 -0.136904 1.23998e-318)
(0.0475454 -0.0357143 6.40655e-319)
(-0.00966435 0.00466035 -7.62417e-319)
(-0.00254335 0.0155928 -2.01048e-318)
(0.0181146 0.0153085 -2.15905e-318)
(0.0300817 0.0161271 -1.93113e-318)
(0.0502291 0.0144455 -1.45418e-318)
(0.059712 0.012767 -9.4493e-319)
(0.0746722 0.0113085 -4.49753e-319)
(0.0830152 0.00910599 -1.77221e-320)
(0.0957775 0.00790346 3.44339e-319)
(0.106188 0.00534724 6.32488e-319)
(0.12054 0.00422656 8.52471e-319)
(0.136448 0.000637851 1.00896e-318)
(0.154942 -0.000565967 1.10895e-318)
(0.179191 -0.0071673 1.15827e-318)
(0.199264 -0.00834796 1.16257e-318)
(0.231679 -0.0244702 1.12873e-318)
(0.230116 -0.0240729 1.0655e-318)
(0.265505 -0.0750439 9.79065e-319)
(0.147091 -0.0677238 8.51374e-319)
(0.233265 -0.215922 5.82424e-319)
)
;

boundaryField
{
    cavity
    {
        type            myHeatFlux;
        ThetaWall       uniform 0;
        value           nonuniform List<vector> 
60
(
(0.001 0 0)
(0.001 0 0)
(0.001 0 0)
(0.001 0 0)
(0.001 0 0)
(0.001 0 0)
(0.001 0 0)
(0.001 0 0)
(0.001 0 0)
(0.001 0 0)
(0.001 0 0)
(0.001 0 0)
(0.001 0 0)
(0.001 0 0)
(0.001 0 0)
(0.001 0 0)
(0.001 0 0)
(0.001 0 0)
(0.001 0 0)
(0.001 0 0)
(0 -0.001 0)
(0 -0.001 0)
(0 -0.001 0)
(0 -0.001 0)
(0 -0.001 0)
(0 -0.001 0)
(0 -0.001 0)
(0 -0.001 0)
(0 -0.001 0)
(0 -0.001 0)
(0 -0.001 0)
(0 -0.001 0)
(0 -0.001 0)
(0 -0.001 0)
(0 -0.001 0)
(0 -0.001 0)
(0 -0.001 0)
(0 -0.001 0)
(0 -0.001 0)
(0 -0.001 0)
(-0.001 0 0)
(-0.001 0 0)
(-0.001 0 0)
(-0.001 0 0)
(-0.001 0 0)
(-0.001 0 0)
(-0.001 0 0)
(-0.001 0 0)
(-0.001 0 0)
(-0.001 0 0)
(-0.001 0 0)
(-0.001 0 0)
(-0.001 0 0)
(-0.001 0 0)
(-0.001 0 0)
(-0.001 0 0)
(-0.001 0 0)
(-0.001 0 0)
(-0.001 0 0)
(-0.001 0 0)
)
;
    }
    lid
    {
        type            myHeatFlux;
        ThetaWall       uniform 0;
        value           nonuniform List<vector> 
20
(
(0.000135815 0.0009 0)
(0.000135815 0.0009 0)
(0.000135815 0.0009 0)
(0.000135815 0.0009 0)
(0.000135815 0.0009 0)
(0.000135815 0.0009 0)
(0.000135815 0.0009 0)
(0.000135815 0.0009 0)
(0.000135815 0.0009 0)
(0.000135815 0.0009 0)
(0.000135815 0.0009 0)
(0.000135815 0.0009 0)
(0.000135815 0.0009 0)
(0.000135815 0.0009 0)
(0.000135815 0.0009 0)
(0.000135815 0.0009 0)
(0.000135815 0.0009 0)
(0.000135815 0.0009 0)
(0.000135815 0.0009 0)
(0.000135815 0.0009 0)
)
;
    }
    frontAndBack
    {
        type            empty;
    }
}


// ************************************************************************* //
