/*--------------------------------*- C++ -*----------------------------------*\
| =========                 |                                                 |
| \\      /  F ield         | foam-extend: Open Source CFD                    |
|  \\    /   O peration     | Version:  3.0                                   |
|   \\  /    A nd           | Web:         http://www.extend-project.de       |
|    \\/     M anipulation  |                                                 |
\*---------------------------------------------------------------------------*/
FoamFile
{
    version     2.0;
    format      ascii;
    class       volVectorField;
    location    "8.6";
    object      s;
}
// * * * * * * * * * * * * * * * * * * * * * * * * * * * * * * * * * * * * * //

dimensions      [0 0 0 0 0 0 0];

internalField   nonuniform List<vector> 
400
(
(-0.0287394 0.0586124 1.2901e-317)
(-0.0481022 0.0833636 2.30347e-317)
(-0.106934 0.0854981 2.64579e-317)
(-0.137118 0.0700553 2.68513e-317)
(-0.180551 0.0591351 2.59133e-317)
(-0.205118 0.043408 2.43943e-317)
(-0.232115 0.0328057 2.26708e-317)
(-0.247274 0.0204069 2.0929e-317)
(-0.259708 0.0108647 1.92354e-317)
(-0.264445 0.000103946 1.76546e-317)
(-0.263326 -0.00960222 1.61683e-317)
(-0.256894 -0.0206643 1.48073e-317)
(-0.241971 -0.0314071 1.35342e-317)
(-0.22392 -0.0437836 1.2352e-317)
(-0.194572 -0.0551273 1.12226e-317)
(-0.16615 -0.068243 1.01077e-317)
(-0.12318 -0.0772493 8.93675e-318)
(-0.090266 -0.0862262 7.58458e-318)
(-0.039151 -0.08052 5.75398e-318)
(-0.019085 -0.0529972 2.85678e-318)
(-0.0314068 0.0335864 1.73684e-317)
(-0.0718158 0.0747515 3.43856e-317)
(-0.136837 0.0912822 4.17173e-317)
(-0.183872 0.0892122 4.38189e-317)
(-0.23844 0.0791709 4.32439e-317)
(-0.277136 0.0638234 4.1361e-317)
(-0.314521 0.0475751 3.88817e-317)
(-0.338799 0.0303181 3.62315e-317)
(-0.357188 0.0134815 3.35567e-317)
(-0.364811 -0.00354644 3.1008e-317)
(-0.363708 -0.0203868 2.85628e-317)
(-0.353721 -0.0372599 2.62834e-317)
(-0.332847 -0.0538675 2.40971e-317)
(-0.305381 -0.0696154 2.20139e-317)
(-0.265507 -0.0835607 1.99331e-317)
(-0.223373 -0.0937448 1.77947e-317)
(-0.168651 -0.0975681 1.54269e-317)
(-0.120318 -0.0909013 1.26316e-317)
(-0.0612003 -0.0681962 8.99254e-318)
(-0.0233149 -0.0262523 3.89903e-318)
(-0.0308554 0.101521 1.66932e-317)
(-0.0686437 0.178876 3.39592e-317)
(-0.132471 0.201576 4.20608e-317)
(-0.177128 0.189049 4.49307e-317)
(-0.228581 0.166413 4.49662e-317)
(-0.26549 0.133858 4.35252e-317)
(-0.300808 0.101554 4.13413e-317)
(-0.324687 0.0666856 3.88729e-317)
(-0.342825 0.0331493 3.62993e-317)
(-0.351394 -0.00147288 3.37865e-317)
(-0.351564 -0.0356668 3.13322e-317)
(-0.343409 -0.0706855 2.90013e-317)
(-0.324642 -0.105255 2.67256e-317)
(-0.299159 -0.139207 2.45061e-317)
(-0.261304 -0.169821 2.22248e-317)
(-0.220414 -0.195194 1.97957e-317)
(-0.166572 -0.208968 1.7009e-317)
(-0.118128 -0.206379 1.36279e-317)
(-0.0582676 -0.172347 9.3007e-318)
(-0.0209273 -0.090262 3.60214e-318)
(-0.0194143 0.0978179 1.39109e-317)
(-0.0519739 0.186177 2.87324e-317)
(-0.0951991 0.217403 3.61393e-317)
(-0.131025 0.209442 3.92186e-317)
(-0.16971 0.186841 3.98474e-317)
(-0.200168 0.152719 3.9139e-317)
(-0.228913 0.116485 3.76861e-317)
(-0.249838 0.0772252 3.58935e-317)
(-0.266155 0.0380293 3.39198e-317)
(-0.275291 -0.00242804 3.19238e-317)
(-0.277544 -0.0432851 2.99142e-317)
(-0.273221 -0.0848822 2.7956e-317)
(-0.259889 -0.126544 2.5996e-317)
(-0.240912 -0.166533 2.40333e-317)
(-0.211246 -0.20287 2.19589e-317)
(-0.178284 -0.230269 1.96764e-317)
(-0.134891 -0.243597 1.69837e-317)
(-0.0938448 -0.23214 1.36124e-317)
(-0.0472871 -0.184511 9.25605e-318)
(-0.0135055 -0.0838643 3.49229e-318)
(-0.0156431 0.120813 1.02393e-317)
(-0.0379561 0.225665 2.16992e-317)
(-0.0708023 0.260757 2.79335e-317)
(-0.0963031 0.251871 3.10459e-317)
(-0.125515 0.225339 3.22566e-317)
(-0.148356 0.185673 3.23588e-317)
(-0.170957 0.143114 3.17615e-317)
(-0.188171 0.0966755 3.0782e-317)
(-0.202546 0.0498978 2.95507e-317)
(-0.212235 0.00103854 2.82107e-317)
(-0.216794 -0.0488337 2.67854e-317)
(-0.2171 -0.100389 2.53434e-317)
(-0.209615 -0.152767 2.38571e-317)
(-0.19843 -0.204031 2.23378e-317)
(-0.176391 -0.251781 2.07065e-317)
(-0.152528 -0.289188 1.88869e-317)
(-0.115659 -0.310369 1.66992e-317)
(-0.0827361 -0.300255 1.38787e-317)
(-0.0390126 -0.246082 9.9962e-318)
(-0.012502 -0.118897 4.33918e-318)
(-0.00852706 0.116627 6.12044e-318)
(-0.0237627 0.222977 1.39957e-317)
(-0.0412731 0.261427 1.89991e-317)
(-0.0574345 0.254889 2.21372e-317)
(-0.0753869 0.230147 2.39435e-317)
(-0.0911378 0.191319 2.48786e-317)
(-0.107119 0.148987 2.51676e-317)
(-0.120821 0.102094 2.50377e-317)
(-0.133109 0.0541974 2.45894e-317)
(-0.143331 0.00347901 2.39466e-317)
(-0.150201 -0.049179 2.31476e-317)
(-0.155159 -0.104484 2.22617e-317)
(-0.15397 -0.161876 2.12862e-317)
(-0.150951 -0.21894 2.02419e-317)
(-0.137859 -0.273545 1.90772e-317)
(-0.123842 -0.316649 1.77305e-317)
(-0.0958455 -0.342476 1.60363e-317)
(-0.071455 -0.330114 1.37214e-317)
(-0.0332769 -0.268091 1.02569e-317)
(-0.0117524 -0.121594 4.73121e-318)
(-0.00500779 0.118957 2.39358e-318)
(-0.0126591 0.228174 7.04568e-318)
(-0.0206221 0.267933 1.09351e-317)
(-0.0285563 0.263048 1.40744e-317)
(-0.0381725 0.239113 1.63826e-317)
(-0.0475536 0.200786 1.80236e-317)
(-0.0579835 0.158493 1.90671e-317)
(-0.0682573 0.111087 1.96596e-317)
(-0.0784517 0.0622512 1.98776e-317)
(-0.0888429 0.00971205 1.98275e-317)
(-0.0974527 -0.0455302 1.95588e-317)
(-0.106621 -0.104919 1.91409e-317)
(-0.110887 -0.167675 1.85904e-317)
(-0.115972 -0.232228 1.79358e-317)
(-0.110617 -0.295628 1.71479e-317)
(-0.107069 -0.349111 1.61793e-317)
(-0.0852347 -0.384553 1.4882e-317)
(-0.0704117 -0.379055 1.29973e-317)
(-0.0309237 -0.315883 9.95079e-318)
(-0.0164393 -0.151309 4.7732e-318)
(-0.000467616 0.111316 -7.56029e-319)
(-0.00299131 0.215229 1.18066e-318)
(-0.000381067 0.255161 4.10647e-318)
(-0.00134289 0.252041 7.1914e-318)
(-0.00234047 0.231234 9.87323e-318)
(-0.00585622 0.195918 1.2067e-317)
(-0.010464 0.156805 1.3718e-317)
(-0.0171086 0.112135 1.49036e-317)
(-0.0246059 0.0657703 1.56757e-317)
(-0.0343283 0.0149772 1.61251e-317)
(-0.0438012 -0.0392957 1.63049e-317)
(-0.0559255 -0.099113 1.62817e-317)
(-0.0649882 -0.163925 1.60825e-317)
(-0.0769084 -0.232837 1.57395e-317)
(-0.0797139 -0.303006 1.52329e-317)
(-0.085731 -0.365272 1.45253e-317)
(-0.0723787 -0.410711 1.34798e-317)
(-0.0663508 -0.411649 1.18721e-317)
(-0.029576 -0.348632 9.15498e-318)
(-0.019455 -0.165752 4.45027e-318)
(0.00311634 0.10497 -2.928e-318)
(0.0051422 0.204086 -3.02119e-318)
(0.0158 0.242948 -9.1039e-319)
(0.0204425 0.241817 2.01384e-318)
(0.0264029 0.223597 4.8706e-318)
(0.0279689 0.191538 7.39207e-318)
(0.0286523 0.155638 9.43482e-318)
(0.0257242 0.11411 1.10179e-317)
(0.0214021 0.070762 1.21725e-317)
(0.0131993 0.0224426 1.29697e-317)
(0.00411713 -0.0297676 1.3461e-317)
(-0.00976502 -0.0890122 1.37064e-317)
(-0.0220043 -0.15435 1.37357e-317)
(-0.0401174 -0.227018 1.35757e-317)
(-0.0496561 -0.302661 1.3211e-317)
(-0.0664957 -0.375523 1.26048e-317)
(-0.06032 -0.431588 1.16351e-317)
(-0.0670617 -0.446704 1.01171e-317)
(-0.0289442 -0.387797 7.61638e-318)
(-0.0289789 -0.195535 3.5233e-318)
(0.00622587 0.0936592 -4.26501e-318)
(0.0117623 0.183971 -5.77625e-318)
(0.0297535 0.221298 -4.3498e-318)
(0.0394432 0.22182 -1.68618e-318)
(0.0520459 0.207078 1.17188e-318)
(0.0586456 0.179071 3.83397e-318)
(0.0648198 0.147612 6.09406e-318)
(0.066198 0.110555 7.92461e-318)
(0.0658834 0.0717344 9.33331e-318)
(0.0606095 0.0277088 1.03725e-317)
(0.053375 -0.0205253 1.10865e-317)
(0.0400853 -0.0767919 1.15266e-317)
(0.0263131 -0.140445 1.17195e-317)
(0.00519049 -0.214106 1.1687e-317)
(-0.0105612 -0.293736 1.14107e-317)
(-0.0345929 -0.375208 1.08546e-317)
(-0.0386851 -0.443622 9.90792e-318)
(-0.0543236 -0.473066 8.4265e-318)
(-0.0249173 -0.424085 6.11385e-318)
(-0.0289054 -0.221451 2.62093e-318)
(0.00971042 0.0840145 -4.8189e-318)
(0.0171215 0.165676 -7.20904e-318)
(0.0412789 0.200133 -6.34764e-318)
(0.0543592 0.20224 -4.02264e-318)
(0.0724882 0.190131 -1.31201e-318)
(0.0831988 0.166118 1.32184e-318)
(0.0944333 0.138782 3.63807e-318)
(0.100021 0.106304 5.56916e-318)
(0.104133 0.0722369 7.10328e-318)
(0.102517 0.0330399 8.27274e-318)
(0.0985057 -0.0101888 9.11242e-318)
(0.0871577 -0.0621862 9.66157e-318)
(0.0740772 -0.121831 9.94152e-318)
(0.0509609 -0.19437 9.966e-318)
(0.0314623 -0.273943 9.71506e-318)
(-0.00142607 -0.362309 9.15059e-318)
(-0.0136845 -0.437729 8.18055e-318)
(-0.045742 -0.484236 6.69434e-318)
(-0.0198422 -0.441605 4.54131e-318)
(-0.0411982 -0.241059 1.63072e-318)
(0.0113298 0.0700894 -4.73004e-318)
(0.0210729 0.14224 -7.57318e-318)
(0.049462 0.174201 -7.18933e-318)
(0.0661268 0.17778 -5.26048e-318)
(0.0889868 0.168559 -2.80949e-318)
(0.103963 0.148509 -3.26375e-319)
(0.12008 0.125482 1.92597e-318)
(0.130308 0.0977986 3.8519e-318)
(0.139294 0.0687901 5.41838e-318)
(0.142559 0.0350292 6.64074e-318)
(0.143059 -0.00253342 7.54225e-318)
(0.136327 -0.0488854 8.15233e-318)
(0.126001 -0.10326 8.48675e-318)
(0.105709 -0.17211 8.55521e-318)
(0.0840052 -0.250334 8.33669e-318)
(0.04977 -0.342487 7.79599e-318)
(0.0261178 -0.42721 6.85882e-318)
(-0.0116908 -0.491107 5.44378e-318)
(-0.00697069 -0.467592 3.50476e-318)
(-0.0295398 -0.274656 1.07657e-318)
(0.0137157 0.0601525 -4.50869e-318)
(0.0229889 0.122202 -7.51878e-318)
(0.0547824 0.150108 -7.4599e-318)
(0.0729715 0.154344 -5.87792e-318)
(0.0994618 0.14696 -3.70117e-318)
(0.117376 0.130425 -1.41636e-318)
(0.137513 0.111143 7.11301e-319)
(0.151581 0.0879824 2.5662e-318)
(0.165101 0.0638143 4.10344e-318)
(0.173035 0.0354886 5.32278e-318)
(0.178649 0.00398067 6.23723e-318)
(0.176972 -0.0359484 6.86756e-318)
(0.171423 -0.0831519 7.22499e-318)
(0.154404 -0.145837 7.31448e-318)
(0.134154 -0.217525 7.11915e-318)
(0.0961994 -0.308531 6.6068e-318)
(0.0664415 -0.391545 5.72815e-318)
(0.0112866 -0.466621 4.42283e-318)
(0.00666749 -0.445872 2.71434e-318)
(-0.0430674 -0.265516 6.99478e-319)
(0.0135118 0.0458298 -3.72734e-318)
(0.0238931 0.09948 -6.68806e-318)
(0.0568542 0.124102 -6.93424e-318)
(0.0773045 0.12922 -5.73745e-318)
(0.106484 0.123601 -3.89918e-318)
(0.127358 0.110261 -1.88538e-318)
(0.150869 0.0944695 4.26873e-320)
(0.168591 0.0755104 1.7568e-318)
(0.186301 0.0558534 3.1993e-318)
(0.199256 0.0327518 4.35863e-318)
(0.210347 0.00704467 5.23878e-318)
(0.21568 -0.0261716 5.85409e-318)
(0.216363 -0.0660014 6.21283e-318)
(0.207876 -0.120918 6.31882e-318)
(0.190939 -0.185463 6.16029e-318)
(0.160478 -0.272341 5.71471e-318)
(0.121763 -0.356666 4.95026e-318)
(0.070175 -0.445196 3.82725e-318)
(0.0307575 -0.448839 2.38642e-318)
(-0.0106362 -0.302857 6.9188e-319)
(0.0134402 0.0375828 -3.62765e-318)
(0.0215178 0.0810206 -6.34055e-318)
(0.0543567 0.100828 -6.63494e-318)
(0.0747126 0.105339 -5.63167e-318)
(0.104901 0.100682 -4.02881e-318)
(0.12684 0.0900062 -2.23624e-318)
(0.151935 0.0772289 -4.94772e-319)
(0.17153 0.0620767 1.07149e-318)
(0.191814 0.0464378 2.40401e-318)
(0.208063 0.0281117 3.48541e-318)
(0.223607 0.00780837 4.31486e-318)
(0.234304 -0.0187725 4.90198e-318)
(0.241694 -0.0506908 5.25261e-318)
(0.239853 -0.0961427 5.37077e-318)
(0.229978 -0.14961 5.25048e-318)
(0.202313 -0.225646 4.87656e-318)
(0.164742 -0.297956 4.23716e-318)
(0.0997498 -0.381942 3.30719e-318)
(0.0518544 -0.378553 2.12355e-318)
(-0.0266053 -0.245055 7.05506e-319)
(0.0111326 0.0255518 -2.47401e-318)
(0.0190892 0.0621772 -4.98064e-318)
(0.0509513 0.0779373 -5.4705e-318)
(0.0721437 0.0824059 -4.79949e-318)
(0.102987 0.0785339 -3.52481e-318)
(0.125613 0.0702181 -2.03578e-318)
(0.151581 0.0601653 -5.50582e-319)
(0.172198 0.0483507 8.04181e-319)
(0.194161 0.0363162 1.96816e-318)
(0.213133 0.0221874 2.91892e-318)
(0.232421 0.00674838 3.65243e-318)
(0.249212 -0.0137688 4.17501e-318)
(0.263288 -0.0382325 4.4912e-318)
(0.272415 -0.0743529 4.60675e-318)
(0.270308 -0.116992 4.5197e-318)
(0.2586 -0.182059 4.22446e-318)
(0.218938 -0.246067 3.71776e-318)
(0.173255 -0.334836 2.9876e-318)
(0.0833442 -0.35432 2.04493e-318)
(0.0360048 -0.286021 8.39857e-319)
(0.00764605 0.0201283 -2.82565e-318)
(0.0122652 0.0463451 -4.76207e-318)
(0.0401003 0.0569506 -5.04879e-318)
(0.0592784 0.0598163 -4.40038e-318)
(0.0872216 0.056628 -3.2995e-318)
(0.107937 0.0505136 -2.02833e-318)
(0.131381 0.0429874 -7.6969e-319)
(0.150336 0.0343175 3.80678e-319)
(0.17075 0.0252829 1.37141e-318)
(0.189049 0.0148067 2.18392e-318)
(0.208816 0.00321124 2.81473e-318)
(0.226944 -0.0119084 3.26849e-318)
(0.245046 -0.0300457 3.54961e-318)
(0.258403 -0.0562913 3.66222e-318)
(0.265251 -0.0875721 3.61014e-318)
(0.258743 -0.134631 3.39222e-318)
(0.231297 -0.180819 3.01573e-318)
(0.17914 -0.242782 2.47711e-318)
(0.0993533 -0.244318 1.76891e-318)
(0.00825337 -0.163447 8.0594e-319)
(0.00335188 0.0123536 -1.20945e-318)
(0.00784479 0.032876 -3.03883e-318)
(0.0342615 0.0392526 -3.48656e-318)
(0.0521491 0.0414369 -3.15983e-318)
(0.0786797 0.0386989 -2.37486e-318)
(0.0966602 0.0343425 -1.42986e-318)
(0.118076 0.0291487 -4.66393e-319)
(0.134392 0.0230538 4.19506e-319)
(0.153104 0.0170293 1.18675e-318)
(0.170185 0.00970579 1.81596e-318)
(0.189719 0.00211552 2.30402e-318)
(0.20971 -0.0083546 2.6552e-318)
(0.230598 -0.0199364 2.87326e-318)
(0.251855 -0.038169 2.96286e-318)
(0.265728 -0.0579445 2.9278e-318)
(0.277913 -0.0929962 2.77119e-318)
(0.255836 -0.124055 2.50018e-318)
(0.24003 -0.186401 2.11586e-318)
(0.124865 -0.20163 1.59831e-318)
(0.107909 -0.217888 8.25895e-319)
(-0.00170102 0.00921463 -1.81813e-318)
(-0.000855824 0.0177371 -2.6785e-318)
(0.0158585 0.0200029 -2.75256e-318)
(0.0277976 0.0207449 -2.3761e-318)
(0.0444624 0.0192707 -1.80623e-318)
(0.0563143 0.0172573 -1.16036e-318)
(0.0692061 0.0143224 -5.28418e-319)
(0.0796224 0.0110691 4.70548e-320)
(0.091021 0.00720348 5.42272e-319)
(0.101791 0.0027821 9.48932e-319)
(0.114751 -0.00245068 1.26558e-318)
(0.127546 -0.00884678 1.49472e-318)
(0.143503 -0.0166713 1.64028e-318)
(0.157387 -0.0266148 1.70442e-318)
(0.172546 -0.0389231 1.69173e-318)
(0.179204 -0.0540699 1.60595e-318)
(0.176085 -0.0712619 1.45629e-318)
(0.152915 -0.0855703 1.24836e-318)
(0.0951909 -0.0842364 9.6118e-319)
(0.0298082 -0.02274 5.08809e-319)
(-0.00426372 0.00446518 5.82997e-320)
(-0.000293056 0.0105423 -7.83178e-319)
(0.0138858 0.0102937 -9.57929e-319)
(0.0208364 0.0105415 -8.95642e-319)
(0.0335388 0.00942095 -6.41426e-319)
(0.0388336 0.00821179 -3.49769e-319)
(0.047928 0.0073115 -5.01081e-320)
(0.0526583 0.00585523 2.18856e-319)
(0.0602963 0.0051474 4.49941e-319)
(0.0665068 0.0035272 6.37295e-319)
(0.0751221 0.00287552 7.82032e-319)
(0.0849008 0.000637921 8.85697e-319)
(0.0960272 -7.49223e-05 9.50755e-319)
(0.111063 -0.00416145 9.78991e-319)
(0.123 -0.00489379 9.71649e-319)
(0.143088 -0.0147556 9.30755e-319)
(0.141501 -0.0145976 8.60702e-319)
(0.163276 -0.045454 7.66913e-319)
(0.0901872 -0.0410447 6.49232e-319)
(0.142777 -0.130716 4.48829e-319)
)
;

boundaryField
{
    cavity
    {
        type            myHeatFlux;
        ThetaWall       uniform 0;
        value           nonuniform List<vector> 
60
(
(0.001 0 0)
(0.001 0 0)
(0.001 0 0)
(0.001 0 0)
(0.001 0 0)
(0.001 0 0)
(0.001 0 0)
(0.001 0 0)
(0.001 0 0)
(0.001 0 0)
(0.001 0 0)
(0.001 0 0)
(0.001 0 0)
(0.001 0 0)
(0.001 0 0)
(0.001 0 0)
(0.001 0 0)
(0.001 0 0)
(0.001 0 0)
(0.001 0 0)
(0 -0.001 0)
(0 -0.001 0)
(0 -0.001 0)
(0 -0.001 0)
(0 -0.001 0)
(0 -0.001 0)
(0 -0.001 0)
(0 -0.001 0)
(0 -0.001 0)
(0 -0.001 0)
(0 -0.001 0)
(0 -0.001 0)
(0 -0.001 0)
(0 -0.001 0)
(0 -0.001 0)
(0 -0.001 0)
(0 -0.001 0)
(0 -0.001 0)
(0 -0.001 0)
(0 -0.001 0)
(-0.001 0 0)
(-0.001 0 0)
(-0.001 0 0)
(-0.001 0 0)
(-0.001 0 0)
(-0.001 0 0)
(-0.001 0 0)
(-0.001 0 0)
(-0.001 0 0)
(-0.001 0 0)
(-0.001 0 0)
(-0.001 0 0)
(-0.001 0 0)
(-0.001 0 0)
(-0.001 0 0)
(-0.001 0 0)
(-0.001 0 0)
(-0.001 0 0)
(-0.001 0 0)
(-0.001 0 0)
)
;
    }
    lid
    {
        type            myHeatFlux;
        ThetaWall       uniform 0;
        value           nonuniform List<vector> 
20
(
(0.000135815 0.0009 0)
(0.000135815 0.0009 0)
(0.000135815 0.0009 0)
(0.000135815 0.0009 0)
(0.000135815 0.0009 0)
(0.000135815 0.0009 0)
(0.000135815 0.0009 0)
(0.000135815 0.0009 0)
(0.000135815 0.0009 0)
(0.000135815 0.0009 0)
(0.000135815 0.0009 0)
(0.000135815 0.0009 0)
(0.000135815 0.0009 0)
(0.000135815 0.0009 0)
(0.000135815 0.0009 0)
(0.000135815 0.0009 0)
(0.000135815 0.0009 0)
(0.000135815 0.0009 0)
(0.000135815 0.0009 0)
(0.000135815 0.0009 0)
)
;
    }
    frontAndBack
    {
        type            empty;
    }
}


// ************************************************************************* //
