/*--------------------------------*- C++ -*----------------------------------*\
| =========                 |                                                 |
| \\      /  F ield         | foam-extend: Open Source CFD                    |
|  \\    /   O peration     | Version:  3.0                                   |
|   \\  /    A nd           | Web:         http://www.extend-project.de       |
|    \\/     M anipulation  |                                                 |
\*---------------------------------------------------------------------------*/
FoamFile
{
    version     2.0;
    format      ascii;
    class       volVectorField;
    location    "8.6";
    object      u;
}
// * * * * * * * * * * * * * * * * * * * * * * * * * * * * * * * * * * * * * //

dimensions      [0 0 0 0 0 0 0];

internalField   nonuniform List<vector> 
400
(
(-3.75347 9.72895 4.09047e-315)
(-3.05755 6.57213 3.64745e-315)
(-8.44234 7.12266 3.24408e-315)
(-8.17732 4.25002 2.92725e-315)
(-11.4827 4.82092 2.57479e-315)
(-11.5966 3.01091 2.35163e-315)
(-13.4287 3.37575 2.04323e-315)
(-13.6814 2.2359 1.88714e-315)
(-14.4634 2.49063 1.61835e-315)
(-14.6582 1.60563 1.51039e-315)
(-14.5941 1.76954 1.27808e-315)
(-14.5616 0.841541 1.20426e-315)
(-13.6897 0.915205 1.00687e-315)
(-13.302 -0.269267 9.5545e-316)
(-11.5437 -0.187937 7.94543e-316)
(-10.8039 -1.81426 7.55337e-316)
(-7.98971 -1.48507 6.36301e-316)
(-7.16684 -3.68853 6.04338e-316)
(-3.06951 -3.13384 5.35591e-316)
(-2.60547 -5.30915 5.20512e-316)
(-0.747792 1.63618 2.94707e-315)
(-2.03836 1.3386 2.66551e-315)
(-3.54402 1.49661 2.40747e-315)
(-4.17633 0.910334 2.20705e-315)
(-5.64203 0.938602 1.98164e-315)
(-5.95262 0.301688 1.83281e-315)
(-7.04066 0.141059 1.63414e-315)
(-7.19667 -0.45226 1.51965e-315)
(-7.74683 -0.818667 1.34333e-315)
(-7.77395 -1.32488 1.25361e-315)
(-7.75759 -1.87433 1.09773e-315)
(-7.62643 -2.27848 1.0265e-315)
(-7.09144 -2.94749 8.90796e-316)
(-6.75031 -3.23532 8.32428e-316)
(-5.8199 -3.90705 7.17951e-316)
(-5.17995 -4.04507 6.66674e-316)
(-4.09264 -4.51436 5.75662e-316)
(-2.98682 -4.45392 5.28603e-316)
(-2.09519 -4.40101 4.64426e-316)
(-0.346038 -4.02925 4.3277e-316)
(-1.80149 13.231 2.33007e-315)
(-2.45321 10.3443 2.12169e-315)
(-4.73599 9.88962 1.9335e-315)
(-5.07156 7.13444 1.78487e-315)
(-6.46883 7.17825 1.61391e-315)
(-6.77589 4.90073 1.49661e-315)
(-7.56393 4.99047 1.34038e-315)
(-7.90667 3.10314 1.24532e-315)
(-8.21752 3.11897 1.10328e-315)
(-8.56257 1.43338 1.0258e-315)
(-8.44968 1.31108 8.98127e-316)
(-8.6796 -0.336772 8.34489e-316)
(-8.16847 -0.628211 7.21535e-316)
(-8.08362 -2.32484 6.68071e-316)
(-7.21581 -2.74318 5.70905e-316)
(-6.563 -4.48595 5.24759e-316)
(-5.43701 -4.90792 4.45597e-316)
(-4.00688 -6.64275 4.07971e-316)
(-2.78214 -7.07227 3.50901e-316)
(-0.617891 -8.72485 3.31775e-316)
(0.0132967 8.18035 1.21702e-315)
(-0.851057 5.93638 1.21968e-315)
(-1.07154 5.6081 1.18172e-315)
(-1.53566 3.6725 1.16429e-315)
(-1.89889 3.64526 1.10498e-315)
(-2.12505 2.0722 1.06812e-315)
(-2.45353 1.96006 9.96292e-316)
(-2.61138 0.637029 9.4946e-316)
(-2.78191 0.280132 8.72343e-316)
(-2.95113 -0.87267 8.23105e-316)
(-2.90453 -1.57733 7.46655e-316)
(-3.08972 -2.59487 6.9957e-316)
(-2.82167 -3.70722 6.27935e-316)
(-2.94163 -4.55793 5.84541e-316)
(-2.51914 -6.04088 5.19315e-316)
(-2.35601 -6.61014 4.76753e-316)
(-1.98244 -8.19604 4.14855e-316)
(-1.15764 -8.34125 3.59566e-316)
(-1.24785 -9.35494 2.87698e-316)
(0.468207 -9.04604 1.70791e-316)
(-0.789847 13.9012 7.80178e-316)
(-1.34974 11.4204 8.64048e-316)
(-2.44987 10.448 8.76268e-316)
(-2.79599 7.95642 8.94215e-316)
(-3.46938 7.67874 8.68007e-316)
(-3.8856 5.41759 8.50199e-316)
(-4.20806 5.40421 8.02225e-316)
(-4.80907 3.36033 7.68102e-316)
(-4.83977 3.37034 7.0944e-316)
(-5.62821 1.44728 6.68903e-316)
(-5.38428 1.313 6.06444e-316)
(-6.26088 -0.572976 5.63648e-316)
(-5.72199 -1.00016 5.00892e-316)
(-6.44704 -2.8334 4.56048e-316)
(-5.59234 -3.69454 3.93775e-316)
(-5.73274 -5.28164 3.4306e-316)
(-4.64137 -6.65696 2.7885e-316)
(-3.60074 -7.6503 2.1162e-316)
(-2.63028 -9.29422 1.36815e-316)
(-0.111002 -9.65851 2.59266e-317)
(-0.282236 11.1046 -6.36624e-317)
(0.0107515 8.26596 1.96317e-316)
(-0.361705 7.63135 3.27528e-316)
(-0.145836 5.14139 4.49045e-316)
(-0.342739 5.18314 5.03875e-316)
(-0.284833 3.14315 5.49523e-316)
(-0.369779 3.26236 5.58177e-316)
(-0.507278 1.54611 5.63658e-316)
(-0.507893 1.43652 5.46455e-316)
(-0.877897 -0.0900968 5.322e-316)
(-0.772483 -0.66524 5.02867e-316)
(-1.41208 -2.08805 4.81044e-316)
(-1.11668 -3.37233 4.48883e-316)
(-2.03118 -4.66128 4.27188e-316)
(-1.39417 -6.87121 3.98732e-316)
(-2.4862 -7.77848 3.82206e-316)
(-1.34041 -10.8665 3.62319e-316)
(-2.30826 -10.879 3.5364e-316)
(-0.634771 -13.8005 3.46003e-316)
(-0.990805 -12.5349 3.46642e-316)
(-0.590725 13.975 -1.72161e-316)
(-0.307532 11.248 9.17436e-317)
(-1.02657 10.3948 2.25677e-316)
(-1.05352 7.70325 3.39393e-316)
(-1.34914 7.63871 3.9697e-316)
(-1.8006 5.26905 4.38761e-316)
(-1.80384 5.50155 4.51997e-316)
(-2.67608 3.38979 4.58148e-316)
(-2.4785 3.67401 4.46671e-316)
(-3.77545 1.66108 4.3446e-316)
(-3.38257 1.82447 4.09778e-316)
(-5.09187 -0.249314 3.87609e-316)
(-4.39293 -0.399819 3.56095e-316)
(-6.39216 -2.59938 3.27529e-316)
(-5.14176 -3.33163 2.92522e-316)
(-7.04739 -5.47701 2.57993e-316)
(-4.91925 -7.10388 2.21419e-316)
(-5.93742 -8.65325 1.80395e-316)
(-2.76632 -11.093 1.43573e-316)
(-1.9314 -11.6913 1.02175e-316)
(-0.23921 12.2179 -6.42451e-316)
(0.564094 8.86039 -2.93964e-316)
(0.400004 8.56406 -9.59365e-317)
(0.893692 5.5912 7.52259e-317)
(0.961329 6.10612 1.77721e-316)
(1.11621 3.72799 2.57563e-316)
(1.27265 4.32557 3.02309e-316)
(1.11965 2.37261 3.33387e-316)
(1.27568 2.75711 3.45228e-316)
(0.780821 0.995249 3.51038e-316)
(0.941861 0.913387 3.46237e-316)
(-0.011738 -0.879779 3.41215e-316)
(0.315721 -1.79447 3.31207e-316)
(-1.29087 -3.74651 3.25997e-316)
(-0.38459 -6.00776 3.2056e-316)
(-2.87624 -7.96342 3.26074e-316)
(-0.661083 -12.0005 3.3655e-316)
(-4.12253 -13.2532 3.69502e-316)
(0.282299 -18.2485 4.12689e-316)
(-3.46691 -17.8068 5.11037e-316)
(0.0455178 13.4873 -4.6108e-316)
(0.417633 10.3747 -1.95741e-316)
(0.568405 9.8867 -4.22262e-317)
(0.382725 6.93343 8.27144e-317)
(0.695736 7.27056 1.62862e-316)
(0.0284838 4.8129 2.21093e-316)
(0.445509 5.40155 2.5679e-316)
(-0.666871 3.30839 2.79832e-316)
(-0.208978 3.9677 2.89451e-316)
(-1.85734 1.97264 2.92695e-316)
(-1.34174 2.61202 2.87325e-316)
(-3.70155 0.383893 2.79097e-316)
(-2.93577 0.880787 2.65457e-316)
(-6.16792 -1.91713 2.50396e-316)
(-4.64596 -1.80578 2.32941e-316)
(-8.6694 -5.3306 2.1436e-316)
(-5.43606 -6.07802 1.97556e-316)
(-9.45437 -9.92622 1.83227e-316)
(-3.19929 -12.2066 1.75142e-316)
(-5.13937 -15.3733 1.96046e-316)
(0.409324 11.7973 -6.57974e-316)
(0.786877 8.37267 -3.72857e-316)
(1.57828 8.62632 -1.9667e-316)
(1.75193 5.49056 -4.71306e-317)
(2.45067 6.48354 5.13031e-317)
(2.44505 4.00276 1.2799e-316)
(3.01168 5.04898 1.77412e-316)
(2.83155 3.05621 2.12814e-316)
(3.217 3.99157 2.33191e-316)
(2.78927 2.16839 2.45986e-316)
(2.99276 2.83129 2.50879e-316)
(2.13284 0.770969 2.53365e-316)
(2.32327 0.790878 2.52891e-316)
(0.677287 -1.962 2.55135e-316)
(1.41178 -3.32912 2.58577e-316)
(-1.62989 -7.08576 2.72351e-316)
(0.894682 -10.9866 2.90891e-316)
(-4.35771 -15.3994 3.35373e-316)
(1.89415 -22.3563 3.85631e-316)
(-5.45058 -26.0704 4.99754e-316)
(1.29642 12.248 -3.52797e-316)
(0.80603 9.11671 -1.97708e-316)
(2.41415 8.86661 -8.55471e-317)
(1.53762 5.98653 4.30489e-318)
(2.71203 6.54059 7.22956e-317)
(1.69776 4.21066 1.22873e-316)
(2.64637 5.0009 1.59455e-316)
(1.43286 3.09187 1.84965e-316)
(2.18855 4.0099 2.0098e-316)
(0.537244 2.20401 2.10327e-316)
(1.12716 3.25913 2.13314e-316)
(-1.34688 1.05771 2.12297e-316)
(-0.733711 2.27091 2.07201e-316)
(-4.54873 -1.03944 1.99234e-316)
(-3.28091 0.299112 1.88924e-316)
(-8.90777 -4.93748 1.75716e-316)
(-5.42638 -3.79057 1.61307e-316)
(-12.4989 -11.1927 1.45468e-316)
(-3.8118 -11.7675 1.27655e-316)
(-9.04743 -19.2914 1.18859e-316)
(1.2768 9.94094 -3.99634e-316)
(0.809838 7.38185 -2.41828e-316)
(2.87236 7.95376 -1.28822e-316)
(2.48606 5.21473 -3.05019e-317)
(3.99758 6.31383 3.85403e-317)
(3.75615 4.04725 9.42895e-317)
(4.84234 5.26336 1.32375e-316)
(4.69493 3.45544 1.60597e-316)
(5.3818 4.78334 1.78473e-316)
(5.24227 3.11846 1.90178e-316)
(5.50421 4.53448 1.96222e-316)
(5.22083 2.45392 1.99667e-316)
(5.11256 3.72452 2.00855e-316)
(4.36966 0.360607 2.03473e-316)
(4.30593 0.733721 2.06375e-316)
(2.38918 -5.08188 2.16941e-316)
(3.69514 -7.45639 2.28343e-316)
(-0.932465 -16.6753 2.57689e-316)
(4.32568 -24.9598 2.84299e-316)
(-4.80281 -37.1978 3.36984e-316)
(2.70997 10.3665 -2.09337e-316)
(0.915564 7.6494 -1.50135e-316)
(3.96833 7.38067 -7.77789e-317)
(2.2984 4.96637 -1.81495e-317)
(4.28249 5.44018 3.37764e-317)
(3.02447 3.47469 7.44276e-317)
(4.48145 4.22184 1.06653e-316)
(3.39289 2.66128 1.30751e-316)
(4.43952 3.60743 1.48099e-316)
(3.17365 2.17525 1.59843e-316)
(3.80662 3.38202 1.66617e-316)
(1.87936 1.50576 1.69408e-316)
(2.15894 3.11542 1.68491e-316)
(-1.20403 -0.234181 1.63902e-316)
(-0.806961 2.0363 1.55811e-316)
(-6.74853 -4.3935 1.42024e-316)
(-4.43014 -1.17671 1.23266e-316)
(-13.7457 -12.0159 9.22553e-317)
(-4.49338 -9.24908 5.32003e-317)
(-13.4724 -20.6452 -2.09089e-317)
(1.90108 7.09272 -1.00355e-316)
(0.887451 6.37274 -2.67968e-317)
(4.01086 6.80108 1.54407e-317)
(3.28734 4.92322 6.00172e-317)
(5.5533 5.66898 9.0397e-317)
(5.19338 3.84109 1.18616e-316)
(6.8038 4.90506 1.38505e-316)
(6.76998 3.44461 1.54006e-316)
(7.80401 4.89912 1.63799e-316)
(8.08819 3.58635 1.69715e-316)
(8.49095 5.52003 1.71979e-316)
(9.10948 3.74276 1.72168e-316)
(8.72731 6.17 1.70621e-316)
(9.67785 2.72152 1.69774e-316)
(8.40839 5.23254 1.68549e-316)
(9.48118 -2.14338 1.72402e-316)
(7.80513 -1.56401 1.75272e-316)
(7.71632 -16.384 1.8768e-316)
(7.2413 -24.3727 1.95601e-316)
(1.58646 -50.5555 1.9927e-316)
(3.69682 8.10428 -3.43572e-316)
(0.784218 5.97864 -2.23337e-316)
(4.5256 5.5349 -1.41508e-316)
(2.43356 3.78709 -7.23077e-317)
(4.80366 4.01411 -2.02596e-317)
(3.58905 2.54961 2.15089e-317)
(5.34271 3.08248 5.46963e-317)
(4.57396 1.96612 8.08152e-317)
(5.81744 2.71628 1.01161e-316)
(5.15716 1.77362 1.16474e-316)
(5.82222 2.78581 1.27448e-316)
(4.87559 1.51383 1.34488e-316)
(4.81785 2.93567 1.37813e-316)
(2.8268 0.251995 1.36906e-316)
(2.06401 2.45525 1.31637e-316)
(-2.59097 -3.72807 1.18614e-316)
(-2.64328 0.210628 9.93095e-317)
(-12.7541 -11.7731 6.11971e-317)
(-5.03408 -5.45187 1.60066e-317)
(-19.4737 -15.6613 -7.97462e-317)
(2.06858 3.99223 3.69175e-316)
(1.35931 5.74644 3.29518e-316)
(5.25513 5.54869 2.64583e-316)
(4.68111 4.64166 2.27149e-316)
(7.67334 4.74668 2.07209e-316)
(7.3519 3.37719 1.98976e-316)
(9.50115 4.10592 1.96158e-316)
(9.60318 3.03291 1.94639e-316)
(11.0409 4.38176 1.92442e-316)
(11.7649 3.51057 1.88586e-316)
(12.4846 5.60582 1.82964e-316)
(14.1146 4.38273 1.76074e-316)
(13.7901 7.50067 1.68217e-316)
(16.8158 4.6075 1.61108e-316)
(14.5606 8.9845 1.54075e-316)
(19.8866 1.17856 1.51377e-316)
(14.0207 5.78098 1.48721e-316)
(22.7148 -14.3855 1.54199e-316)
(10.1789 -18.5699 1.58395e-316)
(18.3156 -65.9207 1.64228e-316)
(3.78084 5.59449 -7.89244e-316)
(0.344931 3.82627 -4.84471e-316)
(3.27876 3.30902 -3.35606e-316)
(1.39775 2.20569 -2.16201e-316)
(3.28025 2.26597 -1.4164e-316)
(2.432 1.37032 -8.39126e-317)
(3.96654 1.64325 -4.03945e-317)
(3.57433 1.01059 -5.41777e-318)
(4.71229 1.39431 2.29924e-317)
(4.53639 0.946111 4.61838e-317)
(5.12797 1.43377 6.49835e-317)
(4.97136 0.875706 7.97212e-317)
(4.72632 1.48513 9.04532e-317)
(4.10811 0.0911571 9.64411e-317)
(2.59892 0.907603 9.74451e-317)
(-0.0255477 -2.95736 8.97347e-317)
(-2.13686 -1.20761 7.59417e-317)
(-11.7835 -9.23643 4.35531e-317)
(-5.29338 -3.13357 7.82461e-318)
(-31.0386 0.541178 -6.29849e-317)
(1.73785 1.48898 1.54796e-315)
(2.70379 5.9363 9.62736e-316)
(7.89668 4.74574 6.89078e-316)
(7.926 4.48398 4.92294e-316)
(12.2599 3.94428 4.10474e-316)
(11.9583 2.82191 3.57764e-316)
(14.9982 3.24786 3.3229e-316)
(15.1525 2.45641 3.12496e-316)
(17.2456 3.6274 2.96566e-316)
(18.4322 3.1367 2.80017e-316)
(19.8429 5.1452 2.62819e-316)
(22.699 4.50393 2.44832e-316)
(23.1509 7.7899 2.26631e-316)
(28.7046 5.79689 2.09709e-316)
(26.5802 11.2532 1.93907e-316)
(36.962 4.06173 1.8297e-316)
(27.0684 12.9227 1.73147e-316)
(47.4968 -11.986 1.73069e-316)
(15.0854 -5.5147 1.73184e-316)
(52.8624 -85.0168 1.9253e-316)
(2.85081 2.72178 -1.61307e-315)
(-0.744797 0.274143 -9.92807e-316)
(-1.19585 0.276645 -7.01654e-316)
(-2.34566 -0.273997 -4.81615e-316)
(-2.83144 -0.0446966 -3.69049e-316)
(-3.04958 -0.184512 -2.86293e-316)
(-3.03542 -0.163175 -2.3094e-316)
(-3.1488 -0.236176 -1.85852e-316)
(-3.02096 -0.406073 -1.48755e-316)
(-3.32872 -0.43905 -1.16121e-316)
(-3.40585 -0.836207 -8.73407e-317)
(-4.12698 -0.811816 -6.20149e-317)
(-4.66681 -1.62497 -4.04324e-317)
(-6.19985 -1.50288 -2.35574e-317)
(-7.35442 -3.2548 -1.16673e-317)
(-10.8959 -2.68482 -8.2543e-318)
(-11.2407 -6.45766 -9.53198e-318)
(-22.6397 -2.11083 -2.49888e-317)
(-8.13644 -6.2576 -4.01617e-317)
(-57.2044 36.0399 -6.80729e-317)
(-0.00374457 0.363857 3.50687e-315)
(5.50787 7.85696 1.72251e-315)
(15.3144 5.36791 1.17174e-315)
(16.1184 5.10526 7.92243e-316)
(24.4364 4.09373 6.81064e-316)
(23.7451 2.74849 6.11719e-316)
(29.2676 3.10235 5.88745e-316)
(29.3028 2.29508 5.68605e-316)
(33.1791 3.51223 5.51416e-316)
(35.2413 3.1753 5.29782e-316)
(38.4448 5.29729 5.0495e-316)
(43.8515 4.97226 4.77037e-316)
(46.5197 8.50572 4.47492e-316)
(57.2156 7.00185 4.18338e-316)
(57.3029 13.2062 3.89481e-316)
(76.6883 6.02424 3.6434e-316)
(64.2404 18.5973 3.37819e-316)
(100.78 -12.9763 3.17171e-316)
(36.2783 13.9621 2.94419e-316)
(116.502 -114.7 2.93364e-316)
)
;

boundaryField
{
    cavity
    {
        type            myImplicitVelocity;
    }
    lid
    {
        type            fixedValue;
        value           uniform (1 0 0);
    }
    frontAndBack
    {
        type            empty;
    }
}


// ************************************************************************* //
