/*--------------------------------*- C++ -*----------------------------------*\
| =========                 |                                                 |
| \\      /  F ield         | foam-extend: Open Source CFD                    |
|  \\    /   O peration     | Version:  3.0                                   |
|   \\  /    A nd           | Web:         http://www.extend-project.de       |
|    \\/     M anipulation  |                                                 |
\*---------------------------------------------------------------------------*/
FoamFile
{
    version     2.0;
    format      ascii;
    class       volSymmTensorField;
    location    "10";
    object      sigma;
}
// * * * * * * * * * * * * * * * * * * * * * * * * * * * * * * * * * * * * * //

dimensions      [0 0 0 0 0 0 0];

internalField   nonuniform List<symmTensor> 
900
(
(-0.175011 -0.00949846 9.95826e-20 0.175117 -7.27323e-19 -0.000106516)
(-0.165576 -0.0109883 2.29157e-19 0.165852 4.39074e-19 -0.000276894)
(-0.151166 -0.0110618 4.0073e-19 0.151588 4.47679e-19 -0.000422383)
(-0.13506 -0.0104103 1.91667e-19 0.135605 -1.98008e-19 -0.000545712)
(-0.119549 -0.00946628 9.70173e-20 0.120197 9.29213e-19 -0.000647702)
(-0.104741 -0.00837465 3.03591e-19 0.105469 -6.47562e-19 -0.000727571)
(-0.0912406 -0.00722371 4.76249e-19 0.0920244 -1.31972e-18 -0.000783813)
(-0.0789024 -0.00606849 6.16218e-19 0.0797165 -1.60135e-18 -0.000814121)
(-0.0677894 -0.00490236 -2.23245e-19 0.0686054 -1.49995e-18 -0.000815965)
(-0.0579319 -0.00377054 1.03772e-19 0.0587185 -1.15201e-18 -0.000786574)
(-0.0491981 -0.00263562 1.09716e-18 0.0499215 -7.17676e-19 -0.000723443)
(-0.0417314 -0.0015293 2.62947e-19 0.042356 -1.13059e-18 -0.000624564)
(-0.035618 -0.000453309 1.7658e-19 0.0361068 7.59133e-19 -0.000488896)
(-0.0305219 0.000556294 6.26632e-19 0.030839 -1.8872e-19 -0.000317095)
(-0.0277316 0.00235678 -1.23359e-19 0.0278435 8.47938e-19 -0.000111868)
(-0.172792 -0.0283326 4.11594e-19 0.172892 9.28053e-19 -9.96074e-05)
(-0.161744 -0.0328214 8.84709e-19 0.162003 1.05788e-18 -0.000258962)
(-0.146704 -0.0332809 4.80193e-19 0.147099 -1.7338e-18 -0.00039501)
(-0.130494 -0.031703 3.30513e-19 0.131004 -3.40447e-19 -0.000510251)
(-0.115119 -0.0293424 8.3617e-20 0.115725 -5.0676e-19 -0.000605404)
(-0.100569 -0.0266343 -1.76346e-18 0.101248 -3.65128e-19 -0.000679716)
(-0.0873884 -0.0238435 -9.95757e-19 0.0881202 1.16733e-19 -0.000731755)
(-0.0753847 -0.0211393 -4.11025e-19 0.0761441 7.98679e-19 -0.00075937)
(-0.0646207 -0.0185123 2.79875e-19 0.065381 5.4429e-20 -0.000760222)
(-0.055101 -0.0160969 2.77586e-19 0.0558328 6.55772e-19 -0.000731793)
(-0.0466914 -0.0138128 -3.3934e-19 0.0473633 -1.2234e-18 -0.000671869)
(-0.0395791 -0.0117253 1.00741e-18 0.0401579 5.64354e-19 -0.000578764)
(-0.0336949 -0.00992288 2.45199e-18 0.0341467 -1.1051e-19 -0.000451817)
(-0.0290042 -0.0082526 5.46128e-19 0.0292963 -1.06561e-18 -0.000292024)
(-0.0264418 -0.00622824 -1.67814e-19 0.0265443 4.29915e-19 -0.00010249)
(-0.168415 -0.0467097 7.81538e-20 0.168506 5.43872e-19 -9.16468e-05)
(-0.154292 -0.0533481 -2.26066e-18 0.15453 1.83851e-18 -0.000238354)
(-0.138036 -0.0538144 -6.55589e-19 0.138399 -9.83491e-19 -0.000363612)
(-0.121601 -0.0511844 6.89929e-19 0.122071 1.19428e-18 -0.000469655)
(-0.106451 -0.047402 4.31832e-19 0.107008 -3.80379e-19 -0.0005571)
(-0.0923465 -0.0431324 7.52456e-19 0.0929717 2.01231e-19 -0.000625206)
(-0.0797238 -0.038789 1.20243e-18 0.0803964 8.37448e-19 -0.000672635)
(-0.0682914 -0.0346303 1.63348e-20 0.0689888 1.15225e-18 -0.000697398)
(-0.0581165 -0.0306424 -2.84466e-19 0.0588139 -1.37152e-18 -0.000697368)
(-0.0491411 -0.0270371 -1.7707e-18 0.0498114 1.59495e-18 -0.000670287)
(-0.0412464 -0.0236887 1.28867e-19 0.0418607 5.35237e-19 -0.000614236)
(-0.0346362 -0.0207122 7.76193e-19 0.0351641 1.77557e-18 -0.00052785)
(-0.0290878 -0.0182267 -1.68441e-18 0.0294987 -2.01174e-18 -0.000410823)
(-0.0248703 -0.0159737 7.28595e-19 0.0251347 -4.23005e-19 -0.000264459)
(-0.0225577 -0.0137472 4.06589e-19 0.0226499 -1.57648e-18 -9.22186e-05)
(-0.161986 -0.0643504 1.99009e-18 0.162069 -2.241e-19 -8.282e-05)
(-0.143689 -0.0718203 3.24732e-19 0.143905 -7.23558e-20 -0.00021547)
(-0.125798 -0.0717001 -9.47167e-19 0.126127 -6.06212e-19 -0.000328747)
(-0.109081 -0.0678215 1.30984e-19 0.109505 8.02821e-19 -0.000424613)
(-0.0942552 -0.0626057 -3.12197e-19 0.0947588 -2.15619e-18 -0.000503566)
(-0.0807712 -0.0568574 -1.17467e-18 0.0813361 -8.95615e-19 -0.000564902)
(-0.0689139 -0.0510953 1.41327e-18 0.0695212 -2.99546e-18 -0.000607374)
(-0.0582559 -0.0456259 -1.31162e-18 0.058885 -2.94761e-18 -0.00062918)
(-0.0488731 -0.0404303 6.92377e-19 0.0495015 -5.14132e-19 -0.00062841)
(-0.0406134 -0.0357726 3.50278e-18 0.0412165 -1.43884e-18 -0.000603081)
(-0.033399 -0.0314768 -5.95529e-19 0.0339506 -3.50666e-19 -0.000551569)
(-0.0274002 -0.0277314 2.13973e-19 0.027873 -2.58466e-18 -0.000472815)
(-0.0223131 -0.0245924 -1.69326e-18 0.0226799 -6.81372e-19 -0.000366834)
(-0.0185573 -0.0218711 -1.44113e-18 0.0187924 -6.55404e-19 -0.000235166)
(-0.0164979 -0.0194698 3.80638e-19 0.0165794 -9.46564e-19 -8.14755e-05)
(-0.153663 -0.0810032 2.58825e-19 0.153736 1.02145e-18 -7.31585e-05)
(-0.130581 -0.0876472 -5.64967e-19 0.130771 -1.58923e-18 -0.000190455)
(-0.110865 -0.0861996 -1.27702e-19 0.111155 5.63166e-20 -0.000290663)
(-0.0938906 -0.0808257 -1.32398e-18 0.094266 1.80678e-18 -0.000375447)
(-0.0795073 -0.0741629 -1.43475e-19 0.0799525 -2.04306e-18 -0.00044519)
(-0.0668015 -0.0670381 -2.45906e-18 0.0673007 2.31167e-18 -0.00049922)
(-0.055882 -0.0600217 -3.16651e-19 0.0564184 -3.03506e-18 -0.000536401)
(-0.0461616 -0.0534161 1.3735e-19 0.0467167 3.13462e-18 -0.000555128)
(-0.0377279 -0.0471971 -2.3061e-19 0.0382816 -1.85941e-18 -0.000553721)
(-0.0303137 -0.0416501 -1.67112e-18 0.0308442 3.61101e-20 -0.00053048)
(-0.0238897 -0.0365543 1.25365e-18 0.0243737 -1.53283e-18 -0.000484071)
(-0.0185949 -0.032183 5.79437e-20 0.0190086 -9.39356e-19 -0.000413735)
(-0.0139995 -0.0284728 3.07747e-19 0.0143192 -9.11848e-19 -0.000319761)
(-0.0108016 -0.0254241 -8.34897e-19 0.0110055 -3.03366e-18 -0.000203905)
(-0.00901484 -0.0228926 -1.35789e-18 0.00908485 1.83488e-18 -7.00115e-05)
(-0.143631 -0.0964619 1.47172e-18 0.143694 -1.13076e-18 -6.28023e-05)
(-0.115731 -0.10046 -6.12371e-19 0.115895 -5.30554e-19 -0.000163607)
(-0.0942697 -0.0968748 1.7241e-18 0.0945195 -6.1103e-20 -0.000249784)
(-0.0771658 -0.0897425 -2.61641e-19 0.0774885 -1.26632e-18 -0.000322694)
(-0.0633622 -0.081625 -1.00745e-18 0.0637448 -9.33137e-20 -0.000382595)
(-0.0515703 -0.0732432 -1.95946e-18 0.0519992 -4.74001e-19 -0.000428865)
(-0.0417158 -0.065162 -2.50779e-18 0.0421762 1.30985e-18 -0.000460482)
(-0.033044 -0.0576202 -1.46604e-18 0.0335201 1.58876e-18 -0.000476053)
(-0.0256618 -0.0505943 -1.25532e-18 0.026136 -2.08207e-18 -0.000474139)
(-0.0191638 -0.044347 1.10499e-19 0.0196172 4.38168e-18 -0.000453332)
(-0.0136257 -0.0386299 -2.84738e-18 0.0140383 -1.83384e-18 -0.000412587)
(-0.00902756 -0.0337791 -1.25239e-18 0.00937899 1.72572e-18 -0.000351428)
(-0.00508666 -0.0295749 -3.842e-18 0.00535704 -3.21841e-18 -0.000270384)
(-0.00234328 -0.0262624 1.89112e-19 0.00251464 8.24133e-19 -0.000171358)
(-0.000923718 -0.0235607 -7.68546e-19 0.000981942 2.73863e-18 -5.8224e-05)
(-0.132103 -0.11056 -4.98435e-19 0.132155 2.82487e-18 -5.17979e-05)
(-0.0999603 -0.110117 -2.16952e-19 0.100095 -4.63551e-19 -0.000135105)
(-0.0771114 -0.103605 -1.49271e-18 0.0773178 3.63143e-19 -0.000206401)
(-0.0601082 -0.0944662 5.81068e-19 0.0603749 -1.61802e-20 -0.000266728)
(-0.0470409 -0.0848993 -8.30396e-19 0.0473571 1.69635e-18 -0.000316219)
(-0.036278 -0.0753902 1.48887e-18 0.0366323 -7.6152e-19 -0.000354304)
(-0.0275719 -0.0664416 -1.7254e-18 0.027952 3.32089e-18 -0.000380086)
(-0.0200169 -0.0581681 4.22464e-19 0.0204093 -2.28769e-18 -0.000392399)
(-0.013737 -0.0505578 -3.2924e-18 0.014127 4.43836e-18 -0.000390051)
(-0.00820172 -0.043792 3.77277e-18 0.00857366 -1.25599e-18 -0.000371938)
(-0.0035676 -0.0376603 -2.9682e-18 0.0039049 1.63631e-18 -0.000337299)
(0.000298227 -0.0324289 1.28129e-18 -1.22851e-05 -2.42664e-18 -0.000285942)
(0.00364161 -0.0279359 -5.45124e-18 -0.00342301 6.09308e-19 -0.000218602)
(0.00593677 -0.024334 2.38919e-18 -0.00579947 2.56947e-18 -0.000137307)
(0.00707191 -0.021549 -9.84075e-19 -0.007026 -1.66708e-19 -4.59021e-05)
(-0.119292 -0.12318 -7.63131e-19 0.119333 -7.31373e-19 -4.02875e-05)
(-0.0840548 -0.11672 -1.14944e-18 0.0841601 -2.44847e-18 -0.000105259)
(-0.0604451 -0.106604 -3.47189e-19 0.060606 1.66468e-18 -0.00016096)
(-0.0438701 -0.0952624 -6.79965e-19 0.0440782 9.11976e-21 -0.000208108)
(-0.0317141 -0.0842732 -2.2217e-18 0.0319608 1.28726e-20 -0.000246711)
(-0.0220724 -0.0737727 -2.82154e-19 0.0223487 5.21523e-20 -0.000276257)
(-0.0145514 -0.0641501 -2.28465e-18 0.0148474 1.63546e-18 -0.000295983)
(-0.00812884 -0.0553422 2.01367e-18 0.0084338 -8.88883e-20 -0.000304957)
(-0.00294037 -0.0473535 -2.45159e-18 0.00324262 7.3367e-19 -0.000302249)
(0.00164016 -0.0402451 6.50302e-19 -0.00135311 -1.1134e-18 -0.000287059)
(0.00539555 -0.0338583 -1.61031e-18 -0.00513663 -3.93678e-19 -0.000258918)
(0.00854291 -0.028395 -1.40405e-18 -0.008325 5.98267e-19 -0.000217902)
(0.0112913 -0.0236747 2.29248e-19 -0.0111264 8.89677e-19 -0.000164939)
(0.013173 -0.0199556 -3.78867e-18 -0.0130709 2.25799e-18 -0.000102138)
(0.0140375 -0.0170884 3.83942e-18 -0.0140043 -1.73528e-18 -3.32692e-05)
(-0.105421 -0.134248 1.95559e-18 0.105449 -9.72482e-19 -2.83338e-05)
(-0.0687208 -0.12058 2.94291e-19 0.0687951 -3.22693e-19 -7.42792e-05)
(-0.0451947 -0.106372 -1.33003e-18 0.0453085 1.25855e-18 -0.000113796)
(-0.0294565 -0.092713 2.76237e-18 0.0296038 -1.0037e-18 -0.000147265)
(-0.0183988 -0.0803562 -1.76061e-18 0.0185734 1.51539e-18 -0.000174568)
(-0.00995041 -0.0690003 2.57684e-18 0.0101457 1.0933e-18 -0.000195258)
(-0.00361305 -0.058881 -1.65525e-18 0.00382176 1.09742e-18 -0.000208713)
(0.00170184 -0.0497176 9.52908e-21 -0.0014876 -1.89925e-18 -0.000214243)
(0.00585318 -0.0415348 -3.66727e-20 -0.00564199 1.26276e-18 -0.000211189)
(0.00952551 -0.0342473 -9.5262e-19 -0.00932645 1.18946e-18 -0.000199065)
(0.01247 -0.0277578 6.77815e-19 -0.0122923 1.91004e-18 -0.000177695)
(0.0149422 -0.0221896 -1.26412e-18 -0.0147947 9.26298e-19 -0.000147431)
(0.0171639 -0.0173477 2.443e-18 -0.0170545 -7.83587e-20 -0.000109385)
(0.0186577 -0.0135364 -2.13073e-18 -0.018592 2.71153e-18 -6.57449e-05)
(0.0192602 -0.0106932 2.46809e-18 -0.01924 -3.79009e-18 -2.01823e-05)
(-0.0906844 -0.143726 -1.62292e-18 0.0907004 6.86191e-19 -1.60788e-05)
(-0.0544982 -0.122185 -2.64851e-19 0.0545407 8.91256e-19 -4.24864e-05)
(-0.0320581 -0.103655 -2.12238e-18 0.0321235 7.71979e-19 -6.5374e-05)
(-0.0176166 -0.0876697 -4.24486e-19 0.0177014 -2.60108e-19 -8.47839e-05)
(-0.00784889 -0.0740354 -4.96378e-19 0.00794936 6.10551e-19 -0.000100471)
(-0.000644976 -0.0619587 -5.38696e-20 0.000757035 1.82676e-19 -0.000112059)
(0.00454465 -0.0514964 1.7489e-18 -0.00442558 -1.30804e-18 -0.000119072)
(0.00881363 -0.0421269 -1.79593e-18 -0.00869255 -7.19444e-21 -0.000121074)
(0.0120194 -0.0338969 1.47737e-18 -0.0119017 1.02263e-18 -0.00011768)
(0.0148639 -0.0265595 8.25262e-19 -0.0147552 -9.89998e-20 -0.00010873)
(0.0170785 -0.0200804 1.07236e-18 -0.0169842 -1.46389e-18 -9.43487e-05)
(0.0189523 -0.0145174 -2.03316e-18 -0.0188771 -2.49223e-18 -7.51619e-05)
(0.0206714 -0.00960784 1.26515e-18 -0.0206189 3.5935e-18 -5.24751e-05)
(0.0218581 -0.0057984 9.58697e-19 -0.0218296 -3.66328e-18 -2.85276e-05)
(0.0222047 -0.00296909 -1.58483e-18 -0.0221978 1.98377e-18 -6.86574e-06)
(-0.0752726 -0.151605 3.45781e-19 0.0752762 -2.515e-19 -3.60326e-06)
(-0.0417465 -0.12214 9.0084e-20 0.0417566 2.47853e-19 -1.01266e-05)
(-0.0214631 -0.0993509 3.94833e-19 0.0214792 -5.14357e-19 -1.60785e-05)
(-0.00880065 -0.081154 -1.23018e-18 0.00882181 2.36773e-19 -2.11569e-05)
(-0.000511268 -0.0663701 3.47898e-19 0.000536262 -4.86944e-20 -2.49944e-05)
(0.00540964 -0.0537025 -1.33859e-18 -0.00538236 6.4067e-19 -2.72842e-05)
(0.00950546 -0.0430216 1.06124e-18 -0.00947775 -6.7742e-19 -2.77077e-05)
(0.0128082 -0.0335602 -1.58258e-18 -0.0127821 7.24246e-19 -2.60862e-05)
(0.0151784 -0.0253878 -2.9763e-19 -0.0151561 -1.40265e-18 -2.23219e-05)
(0.0172932 -0.0180934 -1.57151e-18 -0.0172766 -1.41036e-19 -1.65831e-05)
(0.0188756 -0.0117045 9.75898e-19 -0.0188663 1.95009e-18 -9.30623e-06)
(0.0202459 -0.00622098 5.79069e-19 -0.0202445 2.75298e-18 -1.39867e-06)
(0.0214984 -0.00129301 6.49012e-20 -0.0215041 -2.41317e-19 5.63191e-06)
(0.0224439 0.0024582 1.3795e-18 -0.0224534 -2.66871e-19 9.49301e-06)
(0.0225335 0.00523984 -1.82201e-18 -0.0225402 3.55082e-19 6.7501e-06)
(-0.0593389 -0.157894 -5.42534e-19 0.05933 9.47982e-20 8.95317e-06)
(-0.0305931 -0.121092 -1.26235e-19 0.0305707 7.72186e-19 2.24719e-05)
(-0.0135187 -0.0944178 -7.70038e-21 0.0134851 -4.21798e-20 3.36066e-05)
(-0.00309906 -0.0742493 -1.00412e-18 0.00305605 1.66434e-19 4.30021e-05)
(0.00353804 -0.0584822 -4.77619e-19 -0.00358919 5.36878e-19 5.11476e-05)
(0.00815148 -0.0453461 -8.87538e-19 -0.00820975 -4.0093e-19 5.82715e-05)
(0.0112201 -0.0345371 -1.81245e-18 -0.0112847 2.52676e-19 6.4533e-05)
(0.0136481 -0.0250576 -4.12518e-19 -0.0137179 4.73769e-19 6.98449e-05)
(0.015302 -0.0170027 -1.39897e-18 -0.015376 6.45023e-19 7.40126e-05)
(0.0167934 -0.00980209 -1.0783e-18 -0.0168699 8.62018e-19 7.65302e-05)
(0.0178392 -0.00355801 -1.19729e-18 -0.0179159 6.40568e-19 7.66412e-05)
(0.0188027 0.00182102 8.45335e-19 -0.0188759 -1.37664e-18 7.31515e-05)
(0.0196072 0.00668697 5.28063e-19 -0.0196716 6.13756e-19 6.43431e-05)
(0.020366 0.0104189 3.43002e-19 -0.0204139 -1.39953e-18 4.78785e-05)
(0.0202327 0.0130835 5.08001e-19 -0.0202532 -5.87438e-20 2.04641e-05)
(-0.0430231 -0.162615 1.83213e-19 0.0430016 -2.31006e-19 2.14913e-05)
(-0.0209582 -0.119676 -1.6763e-19 0.0209032 -1.29331e-19 5.50283e-05)
(-0.00802833 -0.0897805 2.89846e-19 0.00794509 -8.61447e-20 8.32472e-05)
(-0.000262912 -0.068003 -4.71886e-19 0.000155777 2.60455e-19 0.000107135)
(0.00457249 -0.0514561 1.28882e-19 -0.00469979 1.0336e-20 0.000127297)
(0.00786109 -0.03797 -4.86645e-20 -0.00800498 8.10835e-19 0.000143881)
(0.00996645 -0.0270945 1.83082e-19 -0.0101233 8.5573e-20 0.00015688)
(0.0116032 -0.0176349 -3.5539e-19 -0.0117692 -1.71099e-19 0.000165937)
(0.0126492 -0.00971384 2.18451e-19 -0.0128197 -8.25594e-20 0.000170557)
(0.0136098 -0.0026158 -2.5731e-20 -0.0137797 -4.088e-20 0.000169893)
(0.0142086 0.00347479 8.53964e-19 -0.0143715 -2.70915e-19 0.00016286)
(0.0148484 0.00875725 -5.86474e-19 -0.0149964 -3.71002e-19 0.000147975)
(0.0152391 0.0135402 -1.45842e-19 -0.0153624 -2.4243e-19 0.000123301)
(0.0158804 0.0172369 -7.20262e-19 -0.0159669 -1.18723e-18 8.64578e-05)
(0.0155297 0.0197568 -1.20217e-18 -0.0155639 6.22501e-19 3.42615e-05)
(-0.0264358 -0.165782 -1.46094e-19 0.0264019 4.11408e-20 3.38758e-05)
(-0.0125577 -0.118421 -2.8201e-19 0.0124705 5.38674e-19 8.72106e-05)
(-0.00451257 -0.0862212 -4.08564e-19 0.00438022 2.80657e-19 0.000132347)
(0.000275102 -0.0632987 -3.13116e-19 -0.00044571 1.42679e-20 0.000170608)
(0.00319238 -0.0462068 -4.48955e-19 -0.00339508 1.32653e-19 0.000202709)
(0.00514499 -0.0324827 -4.46148e-19 -0.0053737 -1.53775e-19 0.000228714)
(0.00634173 -0.0215744 -1.77903e-19 -0.00659018 -2.90908e-19 0.000248443)
(0.00725748 -0.0121397 -6.88807e-19 -0.00751874 1.0688e-19 0.000261266)
(0.00778995 -0.00433157 -2.98161e-19 -0.00805633 4.94905e-20 0.000266384)
(0.00829561 0.00269193 -4.94138e-19 -0.00855821 1.06148e-20 0.000262601)
(0.00853598 0.00863004 -1.24128e-19 -0.00878448 -1.73446e-20 0.000248502)
(0.00889375 0.0138862 -3.96168e-19 -0.00911606 -4.47968e-19 0.000222308)
(0.00892629 0.0184722 -4.41574e-19 -0.00910816 -1.59521e-20 0.00018187)
(0.00940576 0.0222559 -2.24885e-19 -0.00953052 -3.16536e-20 0.000124762)
(0.00886329 0.0245375 -4.85376e-19 -0.00891123 7.12695e-20 4.79438e-05)
(-0.00967921 -0.16741 -3.02682e-19 0.00963322 -6.78502e-20 4.59905e-05)
(-0.00495511 -0.117725 -3.66108e-19 0.0048364 1.22677e-19 0.000118707)
(-0.00226856 -0.0843163 -9.65723e-20 0.00208813 1.49647e-19 0.000180428)
(-0.000667489 -0.0607907 -2.89438e-19 0.000434683 5.68142e-20 0.000232806)
(0.000257215 -0.0434124 -2.15233e-19 -0.000533869 1.10258e-19 0.000276654)
(0.000865279 -0.0295623 -4.16855e-19 -0.00117723 2.24656e-19 0.000311953)
(0.00118788 -0.018639 -5.50644e-19 -0.00152622 9.27551e-21 0.000338344)
(0.00142367 -0.00921811 -5.83746e-19 -0.00177859 6.17985e-21 0.000354926)
(0.00150227 -0.00147679 -3.12371e-19 -0.00186286 -4.12367e-20 0.000360586)
(0.00159013 0.00550535 -4.53476e-19 -0.00194391 -1.21767e-19 0.000353785)
(0.00154114 0.0113465 -1.74681e-19 -0.00187391 -1.79265e-19 0.000332769)
(0.0016058 0.016599 -2.96835e-19 -0.00190127 -3.48837e-19 0.00029547)
(0.00138815 0.0210521 -2.72803e-19 -0.00162767 -9.37151e-20 0.00023952)
(0.00160841 0.0249405 1.25084e-19 -0.00177087 -1.44535e-19 0.000162459)
(0.000951639 0.0270557 -8.48862e-21 -0.00101305 8.69999e-20 6.14094e-05)
(0.00715487 -0.167494 -2.31929e-19 -0.00721258 -5.26733e-20 5.7708e-05)
(0.00238312 -0.117784 -2.21898e-19 -0.00253231 2.79662e-19 0.000149191)
(-0.000455986 -0.0843607 -2.48226e-19 0.000228992 1.58005e-19 0.000226994)
(-0.0021184 -0.0608141 -2.37542e-19 0.00182532 -2.38736e-20 0.000293086)
(-0.00321529 -0.0434208 -2.48342e-19 0.00286692 8.61178e-20 0.000348375)
(-0.00395795 -0.0295539 -4.3431e-19 0.0035652 5.08291e-20 0.000392751)
(-0.00449987 -0.01862 -5.64955e-19 0.0040742 -5.03187e-20 0.000425677)
(-0.00493298 -0.00918515 -5.18112e-19 0.004487 6.97904e-23 0.000445977)
(-0.00529087 -0.00144283 -4.6561e-19 0.00483864 2.88215e-20 0.000452231)
(-0.00561221 0.0055535 -4.85208e-19 0.00516966 -3.99655e-20 0.00044255)
(-0.00593523 0.0113614 -2.90369e-19 0.00552037 -9.51474e-20 0.000414854)
(-0.00616451 0.0166617 -2.7541e-19 0.00579774 -2.4531e-19 0.000366777)
(-0.00660824 0.0209809 -5.58341e-20 0.00631248 -7.27655e-20 0.000295752)
(-0.00664949 0.0250144 1.1374e-19 0.00645023 -7.56048e-20 0.000199264)
(-0.00730052 0.0269694 7.84554e-21 0.00722594 1.523e-20 7.45832e-05)
(0.0239721 -0.166027 -3.09448e-20 -0.024041 -2.35895e-19 6.88986e-05)
(0.010027 -0.118594 -4.95909e-20 -0.0102053 9.13296e-21 0.000178328)
(0.00181994 -0.0863524 -7.03083e-19 -0.00209148 3.20666e-20 0.000271537)
(-0.0030416 -0.0633713 -2.76196e-19 0.0026908 -1.83286e-20 0.000350794)
(-0.00613861 -0.046237 -4.05539e-19 0.00572152 1.31526e-19 0.000417092)
(-0.00823425 -0.0324671 -4.27933e-19 0.00776402 4.28392e-19 0.000470229)
(-0.0096544 -0.0215316 -6.71735e-19 0.00914491 1.03517e-19 0.000509489)
(-0.0107762 -0.012061 -4.06234e-19 0.0102428 8.35263e-20 0.000533427)
(-0.0115911 -0.0042541 -4.95289e-19 0.0110507 -1.00352e-19 0.000540313)
(-0.0123476 0.00280639 -3.68557e-19 0.0118196 -1.21109e-19 0.000527924)
(-0.0129565 0.00865726 -6.73631e-19 0.0124627 5.58822e-20 0.000493846)
(-0.0135253 0.0140421 -2.95405e-19 0.0130898 -1.20471e-19 0.000435431)
(-0.0141659 0.018303 -9.84397e-20 0.013816 -1.34663e-19 0.000349907)
(-0.0145614 0.022444 -5.51311e-20 0.0143267 -3.12279e-20 0.000234712)
(-0.0151648 0.0242817 1.64562e-19 0.0150776 1.70332e-20 8.72712e-05)
(0.0406678 -0.162982 1.6711e-19 -0.0407473 -1.37805e-19 7.94465e-05)
(0.0185008 -0.119939 5.96996e-19 -0.0187066 8.35034e-19 0.000205806)
(0.00539306 -0.089983 -5.82671e-19 -0.00570664 1.53793e-19 0.000313575)
(-0.00246997 -0.0681177 2.69029e-19 0.00206466 -6.51869e-20 0.000405305)
(-0.00749961 -0.0515069 -3.41883e-19 0.00701755 6.66991e-20 0.000482062)
(-0.0109482 -0.0379501 -2.17016e-19 0.0104047 -6.99142e-20 0.000543553)
(-0.0132862 -0.0270298 -3.10703e-19 0.0126973 -3.22128e-19 0.000588885)
(-0.0151472 -0.0175103 1.4894e-19 0.0145309 1.24465e-20 0.000616349)
(-0.0164789 -0.00958388 -9.61684e-19 0.0158549 -7.42406e-20 0.000623918)
(-0.0177266 -0.00241764 3.56707e-19 0.0171176 3.87471e-19 0.000609034)
(-0.0186606 0.00353927 -2.03334e-19 0.0180917 2.12838e-20 0.000568967)
(-0.0196371 0.00903284 4.16914e-19 0.0191363 1.54374e-19 0.000500778)
(-0.0204422 0.0132829 -6.93213e-19 0.0200407 7.96523e-19 0.000401506)
(-0.0213162 0.0174986 -6.29069e-19 0.0210477 -3.73598e-20 0.000268524)
(-0.0217561 0.0193244 -5.34957e-19 0.0216567 -2.46888e-19 9.94079e-05)
(0.0571245 -0.158336 -1.97936e-19 -0.0572137 -8.57087e-19 8.92144e-05)
(0.0282344 -0.121418 5.04371e-20 -0.0284657 3.67705e-20 0.000231286)
(0.0109617 -0.094673 -6.88394e-19 -0.0113143 2.00655e-20 0.000352593)
(0.000416005 -0.0744015 1.45858e-19 -0.000871954 8.16172e-20 0.000455949)
(-0.00643256 -0.058557 -1.26348e-18 0.00589008 1.91803e-19 0.000542481)
(-0.0112251 -0.0453357 -6.90278e-19 0.0106132 6.51553e-19 0.000611811)
(-0.0145342 -0.0344699 -1.91897e-18 0.0138713 -5.523e-19 0.000662867)
(-0.0172053 -0.0249173 -1.35114e-18 0.0165116 4.59688e-19 0.000693695)
(-0.0191444 -0.0168486 -9.90831e-19 0.0184425 -4.20579e-19 0.000701972)
(-0.0209679 -0.00956989 -5.17395e-19 0.0202831 -1.36344e-18 0.000684829)
(-0.0223164 -0.00345538 -1.5295e-19 0.0216772 6.33109e-19 0.00063922)
(-0.0237702 0.00213636 -7.43514e-19 0.0232082 4.13339e-19 0.000561938)
(-0.0248341 0.00647177 -3.60954e-19 0.0243843 9.38078e-19 0.000449823)
(-0.0261389 0.0107185 -8.5914e-19 0.0258387 6.36585e-19 0.000300195)
(-0.0265369 0.0125474 -5.76096e-19 0.0264262 -4.82885e-19 0.000110746)
(0.0732016 -0.152062 7.06217e-19 -0.0732997 -7.17909e-20 9.81034e-05)
(0.0394906 -0.122491 -4.75396e-19 -0.0397451 3.60067e-19 0.000254482)
(0.0189915 -0.0996352 1.41837e-19 -0.0193796 -1.31152e-19 0.000388145)
(0.00617361 -0.0813359 1.25942e-18 -0.00667575 8.77817e-19 0.000502143)
(-0.00234419 -0.0664732 -1.13038e-18 0.00174654 -9.13855e-20 0.000597655)
(-0.00846358 -0.0537173 1.11485e-18 0.00778937 1.39958e-18 0.000674215)
(-0.0128089 -0.0429726 -2.63111e-18 0.0120783 -2.93993e-19 0.000730588)
(-0.0163737 -0.033432 1.4546e-18 0.0156091 -1.33403e-19 0.000764581)
(-0.0190306 -0.0252281 -1.76641e-18 0.018257 -1.61179e-19 0.0007736)
(-0.0215196 -0.0178545 1.17827e-20 0.0207652 8.02494e-19 0.000754475)
(-0.0233654 -0.0115511 -1.02714e-18 0.0226615 -4.13776e-19 0.000703861)
(-0.0253917 -0.00590633 -4.7148e-19 0.0247734 1.59966e-19 0.000618284)
(-0.026684 -0.00142565 -5.51064e-19 0.0261896 2.08231e-19 0.000494392)
(-0.0286134 0.00270558 -2.22462e-18 0.0282839 -7.73817e-20 0.000329436)
(-0.0289698 0.00463471 9.46683e-19 0.0288485 5.98416e-19 0.000121241)
(0.0887414 -0.144146 -1.15546e-18 -0.0888474 -9.86706e-19 0.000105976)
(0.0523409 -0.12253 -3.8659e-19 -0.052616 3.77957e-19 0.000275065)
(0.0296707 -0.103946 -4.79955e-19 -0.0300904 -1.658e-18 0.000419734)
(0.01505 -0.0878743 -8.89902e-19 -0.0155932 2.22978e-20 0.000543239)
(0.00503879 -0.0741699 -3.40568e-19 -0.00568558 1.68947e-19 0.000646798)
(-0.00237933 -0.0620145 -3.63397e-19 0.00164947 1.04727e-18 0.000729865)
(-0.00782519 -0.0514915 3.33491e-19 0.00703414 1.10901e-18 0.000791047)
(-0.0123663 -0.0420508 9.15057e-19 0.0115384 8.38138e-19 0.000827939)
(-0.0158614 -0.0337807 -2.16114e-18 0.0150237 3.67629e-19 0.000837691)
(-0.0190908 -0.0263822 3.18773e-18 0.0182739 -8.98515e-21 0.000816859)
(-0.0215868 -0.0199275 -1.01998e-18 0.0208249 2.08147e-18 0.000761821)
(-0.024157 -0.0142898 1.54096e-18 0.0234882 1.03341e-18 0.000668861)
(-0.0259716 -0.00960124 -2.64405e-18 0.0254372 2.31616e-18 0.000534428)
(-0.0283614 -0.00559878 -2.1899e-19 0.0280056 -9.93762e-19 0.00035572)
(-0.0289123 -0.00337207 2.10965e-18 0.0287816 7.64244e-19 0.000130652)
(0.103562 -0.134592 2.52056e-18 -0.103674 7.78417e-19 0.000112755)
(0.0666367 -0.120891 -3.57849e-21 -0.0669295 8.05756e-20 0.000292798)
(0.0428773 -0.10665 1.58722e-19 -0.0433242 1.03462e-18 0.000446979)
(0.0269453 -0.0929313 2.80735e-19 -0.0275241 -6.75131e-19 0.000578731)
(0.0156354 -0.0805217 1.28046e-18 -0.0163247 1.55432e-19 0.0006893)
(0.00696127 -0.069105 -4.37918e-19 -0.00773933 -1.76526e-18 0.000778062)
(0.000359716 -0.0589339 2.64657e-18 -0.0012032 1.14636e-18 0.000843486)
(-0.00524011 -0.049712 -2.06919e-18 0.00435714 -4.98738e-19 0.00088297)
(-0.00969313 -0.0414884 3.24122e-18 0.00879969 2.1758e-18 0.00089344)
(-0.0137713 -0.0341486 -8.7791e-19 0.0129001 -3.1215e-18 0.00087121)
(-0.0170156 -0.0276604 2.17981e-18 0.0162032 2.43345e-18 0.000812408)
(-0.0202347 -0.0220235 -2.07024e-18 0.0195216 -1.478e-18 0.000713102)
(-0.0225232 -0.0173195 5.27656e-19 0.0219537 3.54364e-18 0.000569557)
(-0.0253908 -0.013314 1.01225e-18 0.0250119 -2.7835e-18 0.000378893)
(-0.0260593 -0.0108153 2.84515e-19 0.0259202 1.5844e-18 0.000139026)
(0.117469 -0.123428 -9.57659e-19 -0.117587 8.88069e-19 0.000118312)
(0.0820177 -0.116982 -2.2943e-18 -0.0823251 7.26221e-19 0.000307383)
(0.0581795 -0.106856 7.66849e-19 -0.0586489 -4.67688e-19 0.000469433)
(0.0414093 -0.0954881 -3.05026e-20 -0.0420174 3.2401e-19 0.000608036)
(0.0289988 -0.0844685 -6.32975e-19 -0.0297233 1.21295e-18 0.000724447)
(0.0191275 -0.0739312 9.77243e-21 -0.0199455 -4.89099e-19 0.000817979)
(0.0113397 -0.0642707 1.40811e-18 -0.0122266 2.14316e-18 0.000886967)
(0.00462679 -0.0554205 -5.1678e-19 -0.00555544 -2.45516e-18 0.000928651)
(-0.000868384 -0.0473898 6.77663e-19 -7.13674e-05 2.0161e-18 0.000939752)
(-0.00586637 -0.040234 -1.57664e-18 0.00494999 -1.02014e-18 0.000916381)
(-0.00993983 -0.0338069 -2.90354e-20 0.00908538 9.22352e-19 0.000854448)
(-0.0138618 -0.0282923 2.40963e-19 0.013112 6.87818e-19 0.000749838)
(-0.0167199 -0.0235502 1.73405e-18 0.0161212 -1.27608e-18 0.000598662)
(-0.0200347 -0.019786 1.57236e-18 0.0196367 4.03583e-18 0.000397995)
(-0.0209181 -0.0169264 -1.53805e-18 0.0207723 -3.48351e-18 0.000145852)
(0.130255 -0.110715 -1.11896e-18 -0.130378 -1.97902e-18 0.000122601)
(0.0979317 -0.110329 -1.18816e-19 -0.0982504 -6.53311e-19 0.000318648)
(0.0748717 -0.103827 1.27956e-18 -0.0753585 1.56328e-18 0.000486811)
(0.0576838 -0.0946926 -1.47187e-18 -0.0583146 -3.6833e-18 0.000630766)
(0.044367 -0.0851166 1.51691e-18 -0.0451188 1.57055e-18 0.000751769)
(0.0333762 -0.0755943 1.23431e-18 -0.0342253 -3.73189e-18 0.000849068)
(0.0244013 -0.0666211 1.48715e-18 -0.0253222 2.40003e-18 0.000920893)
(0.0165517 -0.0583226 -3.16534e-18 -0.0175161 -7.99991e-19 0.000964343)
(0.00996006 -0.0506694 1.35345e-18 -0.010936 -6.0421e-19 0.000975979)
(0.00399843 -0.0438661 7.41431e-19 -0.00495018 5.15825e-19 0.000951746)
(-0.000949934 -0.0376542 2.93508e-18 6.25527e-05 -1.20717e-18 0.000887382)
(-0.00560855 -0.0323957 6.11055e-19 0.00482992 5.79084e-19 0.000778631)
(-0.00903251 -0.0277307 3.05915e-19 0.00841101 -3.9254e-18 0.000621492)
(-0.012788 -0.0242025 3.66602e-18 0.012375 3.57851e-18 0.00041301)
(-0.0140011 -0.0211408 -5.3666e-18 0.0138499 -3.77666e-18 0.000151243)
(0.141713 -0.0965524 6.75764e-19 -0.141839 1.88675e-18 0.000125509)
(0.113685 -0.100631 1.64057e-18 -0.114011 -2.32551e-19 0.000326351)
(0.0920357 -0.0970667 4.84163e-19 -0.0925344 2.54627e-18 0.000498754)
(0.0747708 -0.0899631 -1.08216e-18 -0.0754172 -1.08809e-19 0.000646453)
(0.0607303 -0.0818536 2.77931e-19 -0.061501 -5.32113e-19 0.000770688)
(0.0487217 -0.073479 -2.79586e-19 -0.0495924 -3.41513e-19 0.000870655)
(0.0386033 -0.0653849 -2.16415e-18 -0.0395477 -3.01902e-18 0.000944489)
(0.0296431 -0.0578353 -7.87479e-19 -0.0306323 1.71459e-18 0.000989189)
(0.0219514 -0.0507668 5.65279e-19 -0.0229526 -3.3655e-18 0.00100119)
(0.0150312 -0.0444973 -9.64229e-19 -0.0160075 -1.97466e-18 0.000976314)
(0.00917743 -0.0386653 -2.3625e-18 -0.0100876 -2.11917e-18 0.000910182)
(0.00380151 -0.0338216 -4.27914e-18 -0.00459996 2.36497e-18 0.000798451)
(-0.000265623 -0.0293097 5.06447e-18 -0.000371443 -2.50017e-18 0.000637066)
(-0.00435865 -0.0261654 -4.94441e-18 0.00393555 -3.09258e-19 0.000423101)
(-0.00603292 -0.0228827 2.43834e-18 0.00587816 1.26672e-18 0.000154762)
(0.151639 -0.0810764 -5.60522e-19 -0.151766 -6.12357e-19 0.000127026)
(0.12849 -0.0878016 3.10435e-19 -0.128821 -3.42602e-19 0.000330405)
(0.108616 -0.0863737 -7.1573e-19 -0.109121 -5.19695e-19 0.000505103)
(0.0915115 -0.0810408 -1.42927e-19 -0.0921663 1.73754e-18 0.000654873)
(0.0769074 -0.0743948 -3.48175e-19 -0.0776883 -1.1904e-18 0.000780926)
(0.0639988 -0.0672908 6.80994e-19 -0.0648812 1.84945e-18 0.000882414)
(0.0528179 -0.0602691 -1.68684e-18 -0.0537753 -3.05091e-18 0.000957402)
(0.042814 -0.0536708 9.89516e-19 -0.0438168 1.78477e-18 0.00100282)
(0.0340652 -0.0474058 -3.66473e-18 -0.0350802 -6.86336e-20 0.00101501)
(0.0262336 -0.0418612 -1.85686e-18 -0.0272233 8.44765e-19 0.000989744)
(0.0194887 -0.0365948 2.67283e-18 -0.0204113 -2.88549e-18 0.000922568)
(0.0134541 -0.0323216 4.95548e-18 -0.0142632 -1.31066e-18 0.000809107)
(0.00870707 -0.028086 -1.24605e-18 -0.00935239 7.90314e-19 0.000645326)
(0.00435468 -0.0254256 7.47143e-20 -0.00478304 -2.17454e-18 0.000428357)
(0.00210369 -0.0220444 3.25358e-19 -0.00226026 2.51501e-18 0.000156565)
(0.15985 -0.0644611 2.09627e-19 -0.159977 7.16983e-19 0.000127068)
(0.141548 -0.0719837 1.64994e-18 -0.141879 -4.58885e-19 0.000330645)
(0.123527 -0.0718681 -1.18116e-19 -0.124032 -1.26367e-18 0.00050562)
(0.106713 -0.0680249 4.85678e-20 -0.107368 1.27576e-18 0.000655718)
(0.0916846 -0.0628234 9.12877e-19 -0.0924667 -1.18822e-19 0.000782104)
(0.0780173 -0.0570971 -1.09898e-18 -0.0789012 1.11405e-18 0.000883896)
(0.0659053 -0.0513293 3.56384e-19 -0.0668644 3.67076e-18 0.00095911)
(0.0549802 -0.0458717 1.03442e-18 -0.0559849 -4.90416e-19 0.00100464)
(0.0452783 -0.0406247 1.31972e-18 -0.0462952 2.56916e-18 0.00101681)
(0.0366357 -0.0359841 1.60294e-18 -0.037627 1.5669e-18 0.000991352)
(0.0290534 -0.0314895 4.44904e-19 -0.0299772 3.52305e-18 0.000923822)
(0.0224524 -0.0279062 -4.76395e-18 -0.0232623 -1.64966e-18 0.000809881)
(0.0169873 -0.0241586 5.66797e-19 -0.0176329 -1.31693e-18 0.000645579)
(0.0124526 -0.0219532 -3.67531e-18 -0.0128807 -6.57299e-19 0.000428178)
(0.00957183 -0.0186696 -5.32701e-19 -0.00972811 -3.28609e-18 0.000156287)
(0.166182 -0.0469172 -7.10297e-19 -0.166308 -1.27885e-18 0.000125663)
(0.152107 -0.0535554 -1.14565e-18 -0.152434 -4.7339e-19 0.000327082)
(0.135742 -0.053997 -2.1098e-19 -0.136243 -1.56394e-18 0.000500297)
(0.119242 -0.0513823 6.28318e-19 -0.11989 -3.89125e-20 0.00064896)