/*--------------------------------*- C++ -*----------------------------------*\
| =========                 |                                                 |
| \\      /  F ield         | foam-extend: Open Source CFD                    |
|  \\    /   O peration     | Version:  3.0                                   |
|   \\  /    A nd           | Web:         http://www.extend-project.de       |
|    \\/     M anipulation  |                                                 |
\*---------------------------------------------------------------------------*/
FoamFile
{
    version     2.0;
    format      ascii;
    class       volVectorField;
    location    "2";
    object      u;
}
// * * * * * * * * * * * * * * * * * * * * * * * * * * * * * * * * * * * * * //

dimensions      [0 0 0 0 0 0 0];

internalField   nonuniform List<vector> 
400
(
(-0.0437258 -0.0409993 0)
(0.0242889 -0.0298867 0)
(0.0221116 0.00689801 0)
(0.0407047 0.00704347 0)
(0.0409489 0.0121916 0)
(0.0454975 0.0115772 0)
(0.045199 0.011456 0)
(0.0468119 0.0111274 0)
(0.0452797 0.0104013 0)
(0.0467599 0.0100787 0)
(0.0440647 0.00901116 0)
(0.0471548 0.00882007 0)
(0.0429544 0.00733533 0)
(0.0491596 0.00761418 0)
(0.0419212 0.0054489 0)
(0.0528553 0.00734838 0)
(0.0382243 0.00303446 0)
(0.0573058 0.0135288 0)
(0.0198433 -0.000279123 0)
(0.0607121 0.0525612 0)
(-0.0446949 0.0657082 0)
(-0.0723831 -0.026676 0)
(-0.0790952 -0.0116358 0)
(-0.0603596 -0.0148466 0)
(-0.0579384 -0.00654797 0)
(-0.0438462 -0.00577123 0)
(-0.0421254 -0.00331076 0)
(-0.0328148 -0.00226955 0)
(-0.0322081 -0.00202537 0)
(-0.0247723 -0.000995489 0)
(-0.0253115 -0.00203143 0)
(-0.0178295 -0.000632674 0)
(-0.0198625 -0.0026093 0)
(-0.011088 4.30187e-05 0)
(-0.0156268 -0.00274328 0)
(-0.00494494 0.00287647 0)
(-0.0135182 -0.00112005 0)
(-0.00200114 0.0116424 0)
(-0.0125729 0.00336821 0)
(-0.00900728 0.0352271 0)
(-0.00808873 0.084935 0)
(-0.0548254 -0.014799 0)
(-0.0761625 -0.0160424 0)
(-0.0733164 -0.0249565 0)
(-0.0761132 -0.0153561 0)
(-0.0671281 -0.0157536 0)
(-0.0667061 -0.0107212 0)
(-0.0584636 -0.010231 0)
(-0.0576591 -0.00853142 0)
(-0.0501299 -0.00783383 0)
(-0.0494674 -0.00819974 0)
(-0.0417376 -0.00674265 0)
(-0.0413566 -0.00852281 0)
(-0.0326585 -0.00501743 0)
(-0.0328087 -0.00789133 0)
(-0.0228581 9.31928e-05 0)
(-0.0237628 -0.00415767 0)
(-0.013292 0.0136841 0)
(-0.0135211 0.00635556 0)
(-0.00699536 0.0375278 0)
(-0.00814188 0.139524 0)
(-0.0554991 0.0324144 0)
(-0.0812239 0.01191 0)
(-0.0868319 -0.00761811 0)
(-0.093492 -0.00596192 0)
(-0.0877639 -0.00912119 0)
(-0.089231 -0.00650659 0)
(-0.0812536 -0.00654201 0)
(-0.0811836 -0.00592625 0)
(-0.0730024 -0.00520725 0)
(-0.0723443 -0.00653506 0)
(-0.063872 -0.00502506 0)
(-0.0627671 -0.00784153 0)
(-0.0535081 -0.00452434 0)
(-0.0518116 -0.00828357 0)
(-0.041569 -0.0014169 0)
(-0.0384762 -0.0057068 0)
(-0.0280731 0.00742976 0)
(-0.0197 0.00239286 0)
(-0.012883 0.0207361 0)
(-0.00143129 0.159043 0)
(-0.0445596 0.0516174 0)
(-0.0675566 0.0237401 0)
(-0.0796525 -0.00131189 0)
(-0.0885045 -0.00346493 0)
(-0.0887941 -0.00963109 0)
(-0.0919061 -0.0077181 0)
(-0.0877791 -0.00948817 0)
(-0.088353 -0.0086484 0)
(-0.0824927 -0.00907564 0)
(-0.0815814 -0.0101251 0)
(-0.074477 -0.00942735 0)
(-0.0721668 -0.0121642 0)
(-0.0635289 -0.0093693 0)
(-0.0595248 -0.013259 0)
(-0.0490506 -0.00663443 0)
(-0.0427803 -0.0111082 0)
(-0.0308108 0.00157482 0)
(-0.0206142 -0.00279957 0)
(-0.00954397 0.0106161 0)
(-0.00223987 0.195373 0)
(-0.041251 0.0922142 0)
(-0.0640045 0.0553591 0)
(-0.0771742 0.0248027 0)
(-0.0878389 0.0146166 0)
(-0.0900703 0.00516459 0)
(-0.0950824 0.0025132 0)
(-0.0922399 -0.000830862 0)
(-0.09432 -0.00265743 0)
(-0.0891441 -0.00400526 0)
(-0.0892131 -0.00703274 0)
(-0.0824388 -0.00727276 0)
(-0.0804326 -0.0118579 0)
(-0.0718467 -0.0104055 0)
(-0.0672211 -0.016101 0)
(-0.0564111 -0.0115659 0)
(-0.0483417 -0.0174743 0)
(-0.0354374 -0.00839269 0)
(-0.0224972 -0.0131642 0)
(-0.0093771 -0.00429608 0)
(-0.00220474 0.212185 0)
(-0.0377374 0.108404 0)
(-0.0569767 0.0682765 0)
(-0.0714221 0.0341145 0)
(-0.0815791 0.0208434 0)
(-0.0870599 0.0084483 0)
(-0.0924338 0.0043373 0)
(-0.0929267 -0.00116669 0)
(-0.0953529 -0.00343848 0)
(-0.0929908 -0.00647414 0)
(-0.093073 -0.00961517 0)
(-0.088441 -0.0113393 0)
(-0.0859017 -0.0161318 0)
(-0.0786154 -0.0161062 0)
(-0.0727328 -0.0223062 0)
(-0.0620599 -0.0191684 0)
(-0.0521925 -0.0258443 0)
(-0.0379046 -0.0182124 0)
(-0.0240749 -0.0234889 0)
(-0.00795921 -0.016572 0)
(-0.00305498 0.244317 0)
(-0.034337 0.142358 0)
(-0.0527996 0.0970053 0)
(-0.0656184 0.0600851 0)
(-0.076355 0.0407956 0)
(-0.0819005 0.0259174 0)
(-0.088569 0.0173017 0)
(-0.0897074 0.0101719 0)
(-0.0936687 0.0046863 0)
(-0.0920633 0.000399754 0)
(-0.093608 -0.00538331 0)
(-0.0897119 -0.00855146 0)
(-0.0882758 -0.0159876 0)
(-0.0816058 -0.0179593 0)
(-0.0761218 -0.0270477 0)
(-0.0657348 -0.0264656 0)
(-0.0552405 -0.0360146 0)
(-0.0406119 -0.0310636 0)
(-0.0253609 -0.0383363 0)
(-0.00804773 -0.0322841 0)
(-0.00439626 0.258348 0)
(-0.0339757 0.15469 0)
(-0.0505312 0.107629 0)
(-0.063055 0.0681041 0)
(-0.0725249 0.0471657 0)
(-0.0793375 0.0299146 0)
(-0.0854685 0.0203078 0)
(-0.0888462 0.0111641 0)
(-0.0927075 0.00530035 0)
(-0.0937427 -0.000790186 0)
(-0.0953419 -0.00669789 0)
(-0.0940849 -0.0116997 0)
(-0.092537 -0.0194055 0)
(-0.0880727 -0.0234519 0)
(-0.0818952 -0.0332821 0)
(-0.0726579 -0.0350433 0)
(-0.0605933 -0.0458963 0)
(-0.045352 -0.043155 0)
(-0.0282276 -0.0517776 0)
(-0.00836198 -0.0464575 0)
(-0.0052141 0.290738 0)
(-0.0299737 0.185236 0)
(-0.0454151 0.133389 0)
(-0.0549112 0.0913727 0)
(-0.0640716 0.0658895 0)
(-0.0695699 0.0467537 0)
(-0.0762931 0.0335351 0)
(-0.0794545 0.0231417 0)
(-0.0845953 0.0144176 0)
(-0.0860721 0.0072327 0)
(-0.0893787 -0.0013077 0)
(-0.0890138 -0.00785865 0)
(-0.089309 -0.018567 0)
(-0.0860641 -0.0250853 0)
(-0.0814177 -0.0387347 0)
(-0.0734838 -0.0438091 0)
(-0.0619468 -0.0591649 0)
(-0.0475782 -0.0593457 0)
(-0.0293853 -0.071834 0)
(-0.00931885 -0.0661398 0)
(-0.00714278 0.301433 0)
(-0.0307647 0.192462 0)
(-0.045052 0.13988 0)
(-0.0533167 0.0956169 0)
(-0.0608679 0.0698825 0)
(-0.0662073 0.0490412 0)
(-0.0718079 0.0357745 0)
(-0.0761266 0.0239029 0)
(-0.0808267 0.0153938 0)
(-0.0845464 0.00675912 0)
(-0.0880048 -0.00144519 0)
(-0.0906636 -0.0096922 0)
(-0.0914108 -0.0202664 0)
(-0.0915328 -0.0291016 0)
(-0.0869856 -0.0432802 0)
(-0.0819135 -0.0515896 0)
(-0.0690633 -0.0685376 0)
(-0.0556428 -0.0724317 0)
(-0.0339735 -0.0872437 0)
(-0.0116722 -0.0830824 0)
(-0.00738057 0.335775 0)
(-0.0242116 0.220767 0)
(-0.0362179 0.162296 0)
(-0.0400689 0.114581 0)
(-0.0462061 0.0851694 0)
(-0.0491139 0.0627103 0)
(-0.0544304 0.0470096 0)
(-0.0576994 0.0344605 0)
(-0.0631658 0.0241001 0)
(-0.0668244 0.0149471 0)
(-0.0719598 0.00489598 0)
(-0.0754112 -0.00453206 0)
(-0.0786292 -0.0176745 0)
(-0.0804625 -0.0291959 0)
(-0.0788861 -0.0475313 0)
(-0.0764627 -0.060391 0)
(-0.0661141 -0.0835499 0)
(-0.0557561 -0.0923821 0)
(-0.0340496 -0.114059 0)
(-0.0137318 -0.110686 0)
(-0.0097637 0.340038 0)
(-0.0245989 0.219329 0)
(-0.0348349 0.161803 0)
(-0.0357223 0.112163 0)
(-0.039312 0.084106 0)
(-0.0404433 0.0607516 0)
(-0.0438763 0.0461811 0)
(-0.0470751 0.0330048 0)
(-0.051693 0.0237566 0)
(-0.0569247 0.0139691 0)
(-0.0623151 0.00510951 0)
(-0.0689076 -0.00522108 0)
(-0.0734056 -0.0172231 0)
(-0.0798477 -0.0304711 0)
(-0.0799608 -0.0482307 0)
(-0.0829752 -0.064628 0)
(-0.0728121 -0.0887415 0)
(-0.0666593 -0.103628 0)
(-0.0402778 -0.128469 0)
(-0.0193641 -0.130563 0)
(-0.00796852 0.376255 0)
(-0.0111523 0.243759 0)
(-0.0161114 0.1782 0)
(-0.0109402 0.12364 0)
(-0.0114389 0.092767 0)
(-0.00932808 0.0681519 0)
(-0.0113922 0.0526706 0)
(-0.0129074 0.039705 0)
(-0.0175114 0.0301581 0)
(-0.0220445 0.0209274 0)
(-0.0286158 0.0117957 0)
(-0.0354016 0.00138423 0)
(-0.0424716 -0.0116081 0)
(-0.0504167 -0.0269589 0)
(-0.054922 -0.0478265 0)
(-0.0615925 -0.0700222 0)
(-0.0574063 -0.101267 0)
(-0.0576131 -0.12567 0)
(-0.0354405 -0.161823 0)
(-0.0219606 -0.171126 0)
(-0.0116396 0.365096 0)
(-0.00915226 0.225501 0)
(-0.00954787 0.165597 0)
(0.00216666 0.110661 0)
(0.00642032 0.0835531 0)
(0.0125397 0.0594076 0)
(0.0136241 0.0464071 0)
(0.0136731 0.0339657 0)
(0.0106286 0.0264275 0)
(0.00563604 0.0176689 0)
(-0.000957453 0.0106258 0)
(-0.0102607 0.000712953 0)
(-0.0192796 -0.00973131 0)
(-0.0323596 -0.0248726 0)
(-0.0409497 -0.042806 0)
(-0.0559105 -0.0667219 0)
(-0.0561852 -0.0959023 0)
(-0.0664047 -0.127799 0)
(-0.0416838 -0.165641 0)
(-0.0331833 -0.189555 0)
(-0.00133878 0.401867 0)
(0.0217666 0.239482 0)
(0.0336822 0.169235 0)
(0.0518819 0.108333 0)
(0.0613242 0.080572 0)
(0.0699354 0.0564633 0)
(0.073112 0.0448436 0)
(0.0744683 0.0340828 0)
(0.072102 0.0282124 0)
(0.068221 0.0215834 0)
(0.061495 0.0163526 0)
(0.0533258 0.00837433 0)
(0.0430321 -0.000315061 0)
(0.030537 -0.015221 0)
(0.0178978 -0.0328471 0)
(0.00100978 -0.0618552 0)
(-0.0091441 -0.0960384 0)
(-0.0276755 -0.144038 0)
(-0.019427 -0.197713 0)
(-0.0289503 -0.248479 0)
(-0.0112629 0.349204 0)
(0.0304287 0.188627 0)
(0.0536978 0.136617 0)
(0.0848472 0.0818881 0)
(0.102596 0.0615654 0)
(0.11757 0.0407609 0)
(0.125344 0.0326945 0)
(0.129538 0.0237542 0)
(0.129667 0.0200583 0)
(0.12677 0.0146746 0)
(0.121036 0.0115381 0)
(0.112275 0.00523346 0)
(0.100764 -0.000256613 0)
(0.0850195 -0.0120491 0)
(0.0668795 -0.0240174 0)
(0.0413916 -0.0486543 0)
(0.0193592 -0.0740428 0)
(-0.016017 -0.122543 0)
(-0.0189404 -0.167728 0)
(-0.046812 -0.240794 0)
(0.0462231 0.385888 0)
(0.107401 0.172503 0)
(0.15777 0.11402 0)
(0.185293 0.0556729 0)
(0.207664 0.0411063 0)
(0.218134 0.0239386 0)
(0.225802 0.0207764 0)
(0.227744 0.0156175 0)
(0.227624 0.0154729 0)
(0.224938 0.013769 0)
(0.220024 0.0140846 0)
(0.213982 0.0120286 0)
(0.204585 0.0110842 0)
(0.194277 0.00401294 0)
(0.178166 -0.00204617 0)
(0.159906 -0.025059 0)
(0.132565 -0.0468088 0)
(0.0993754 -0.111655 0)
(0.0608801 -0.170662 0)
(0.00905439 -0.317206 0)
(0.0409512 0.198567 0)
(0.159876 0.0760225 0)
(0.244776 0.0572676 0)
(0.292557 0.0270973 0)
(0.328421 0.0207296 0)
(0.345086 0.0115189 0)
(0.357964 0.00969261 0)
(0.362425 0.00651743 0)
(0.365361 0.00613632 0)
(0.364756 0.00464457 0)
(0.362617 0.00460978 0)
(0.35905 0.00299701 0)
(0.351939 0.00263774 0)
(0.344069 -0.00111363 0)
(0.326728 -0.00313705 0)
(0.307674 -0.0142473 0)
(0.265587 -0.0219331 0)
(0.218183 -0.0567567 0)
(0.12892 -0.080894 0)
(0.0389164 -0.173374 0)
(0.197581 0.186597 0)
(0.189698 -0.0343227 0)
(0.239784 -0.0228712 0)
(0.22283 -0.0350856 0)
(0.228423 -0.0212052 0)
(0.21749 -0.0182809 0)
(0.215322 -0.0113413 0)
(0.208518 -0.0084487 0)
(0.205234 -0.00470994 0)
(0.201348 -0.00212511 0)
(0.198929 0.00101972 0)
(0.198308 0.00427734 0)
(0.197936 0.00865427 0)
(0.202158 0.0133201 0)
(0.203754 0.0206308 0)
(0.214734 0.0248957 0)
(0.210991 0.0344822 0)
(0.225577 0.0196098 0)
(0.173357 0.00579344 0)
(0.150905 -0.151015 0)
)
;

boundaryField
{
    cavity
    {
        type            myImplicitVelocity;
    }
    lid
    {
        type            fixedValue;
        value           uniform (1 0 0);
    }
    frontAndBack
    {
        type            empty;
    }
}


// ************************************************************************* //
