/*--------------------------------*- C++ -*----------------------------------*\
| =========                 |                                                 |
| \\      /  F ield         | foam-extend: Open Source CFD                    |
|  \\    /   O peration     | Version:  3.0                                   |
|   \\  /    A nd           | Web:         http://www.extend-project.de       |
|    \\/     M anipulation  |                                                 |
\*---------------------------------------------------------------------------*/
FoamFile
{
    version     2.0;
    format      ascii;
    class       volSymmTensorField;
    location    "1.9";
    object      sigma;
}
// * * * * * * * * * * * * * * * * * * * * * * * * * * * * * * * * * * * * * //

dimensions      [0 0 0 0 0 0 0];

internalField   nonuniform List<symmTensor> 
300
(
(-1.51721e+19 3.01608e+19 -121.671 1.30882e+19 -39.0184 0.0085984)
(3.5264e+19 -4.34492e+18 -49.732 -2.92939e+19 -29.9481 0.0330139)
(-1.92721e+19 9.67365e+18 -51.3016 1.05071e+19 -34.8843 -0.00185629)
(-1.86431e+19 3.97429e+18 21.8578 -5.45245e+17 -11.4151 -0.100459)
(5.46999e+18 -9.79164e+16 29.3024 -2.06038e+19 -2.6684 -0.201712)
(-5.05218e+17 5.95325e+17 -1.69117 1.31014e+18 18.7353 -0.170938)
(8.06834e+18 6.16369e+16 4.75669 -1.45685e+18 0.495455 0.093472)
(1.56402e+18 6.10502e+17 5.27089 5.234e+17 -3.67682 0.48603)
(3.1193e+18 1.93313e+16 0.866781 -3.67325e+17 -0.24457 0.572314)
(1.05351e+18 4.51412e+17 -0.545539 3.96899e+16 -0.0162593 -0.360354)
(7.45547e+18 -7.78762e+18 -14.8473 -2.91253e+18 -1.04075 0.00936351)
(2.25166e+18 -1.09235e+19 16.536 -5.05527e+18 -15.2546 0.0447669)
(-7.4849e+18 8.01483e+18 -18.5415 1.12622e+18 -7.95334 0.0181765)
(-1.22439e+19 1.05157e+19 13.7227 4.03709e+18 -7.17301 -0.128275)
(6.13556e+18 -2.52242e+18 24.3273 -3.83094e+18 -6.55772 -0.353129)
(4.34279e+16 5.76801e+18 18.8401 8.04173e+17 17.1858 -0.309186)
(3.19567e+18 4.21948e+17 -3.03679 -1.11799e+18 6.63596 0.720218)
(8.33173e+17 2.4544e+18 -8.30168 2.13001e+17 -5.37173 3.30223)
(1.0729e+18 3.4998e+17 -5.19382 -2.86469e+17 -3.33671 6.02211)
(2.71331e+17 6.80227e+17 -0.466825 -6.90465e+16 -0.380695 1.45882)
(2.59762e+18 -3.55139e+18 -12.5261 -2.05939e+16 -1.25387 0.00963132)
(7.47469e+18 -4.86723e+18 -18.8192 -7.03919e+18 -20.0924 0.0552067)
(3.50554e+18 5.74093e+18 -39.9122 -5.30574e+18 6.85733 0.0529522)
(-3.01303e+18 8.93407e+18 -5.24035 -2.74236e+18 -10.4286 -0.114228)
(3.74163e+17 7.72855e+17 5.48653 2.55065e+18 -11.8386 -0.563819)
(-5.41588e+16 1.47922e+18 1.79773 2.99824e+17 0.977276 -1.13861)
(1.46575e+18 8.08159e+17 -4.11362 1.19666e+18 -1.36201 -1.03029)
(5.73386e+17 4.66679e+17 -7.23374 2.10307e+17 -3.86511 1.16245)
(7.54116e+17 4.11252e+17 -1.49811 3.67004e+17 -4.5628 5.26119)
(3.71358e+17 6.33561e+16 -1.08952 8.33898e+16 -2.37978 1.31435)
(1.45277e+18 7.62829e+17 -13.3632 7.82986e+17 -10.6431 0.00890542)
(4.31645e+17 3.25116e+18 -16.8047 -6.89297e+16 -12.4646 0.0599249)
(2.61864e+16 5.34903e+18 -42.521 -7.54492e+17 -10.3979 0.0948232)
(-2.23723e+18 4.835e+18 -19.5769 -2.68011e+17 -17.2947 0.00451932)
(8.94732e+17 9.62551e+17 -3.05979 -4.69712e+17 -9.71856 -0.369876)
(-8.93724e+17 2.08048e+18 -2.13861 1.06571e+18 -2.00714 -0.990985)
(4.68752e+17 5.70278e+17 6.22579 1.46463e+17 -4.50896 -1.16972)
(-1.74625e+17 9.38084e+17 0.78831 5.37012e+17 0.239685 0.646151)
(2.02192e+17 2.61246e+17 -4.58853 7.32681e+16 -4.30189 4.89885)
(-4.81508e+16 2.74907e+17 -0.0905497 1.19567e+17 -3.56739 1.19526)
(1.25113e+17 -5.01663e+17 -1.94479 2.53703e+18 -12.5589 0.00700665)
(1.09551e+18 1.68787e+18 -14.6479 5.69407e+17 -26.9739 0.0552549)
(1.00829e+18 3.23037e+18 -50.6487 -1.3498e+17 -12.73 0.105974)
(-3.86141e+17 3.82583e+18 -14.4402 -7.10391e+17 5.65813 0.0640288)
(1.50695e+17 7.81822e+17 -6.01512 1.04908e+18 4.67711 -0.234474)
(-1.30063e+17 8.2808e+17 -3.42388 2.85595e+17 -1.2744 -0.803016)
(2.89568e+17 3.97526e+17 1.18702 7.09839e+17 3.39602 -1.03309)
(1.02753e+17 2.58114e+17 0.793384 2.19157e+17 0.467134 0.627278)
(1.79146e+17 1.87367e+17 -4.71895 2.76045e+17 -3.48592 4.83546)
(1.1896e+17 4.96462e+16 -0.849152 7.57007e+16 -0.956639 1.16949)
(-9.52537e+16 2.64587e+17 -5.6165 1.25477e+18 -10.0421 0.00492223)
(-1.0816e+18 1.99646e+18 2.0525 1.89886e+18 -10.8692 0.0470714)
(-8.32514e+17 2.46369e+18 -28.3447 1.24922e+18 -6.48065 0.0991392)
(-1.08404e+18 2.25083e+18 -1.31573 5.27093e+17 7.20028 0.0751517)
(-7.39828e+15 8.62089e+17 -6.24367 2.44106e+17 3.81909 -0.185345)
(-6.81777e+17 7.87178e+17 -3.73 7.28715e+17 -1.80556 -0.714076)
(-2.43851e+16 3.23274e+17 1.18009 2.49034e+17 1.20882 -0.940647)
(-2.59892e+17 3.15631e+17 0.215605 3.84029e+17 -0.0248475 0.671157)
(-3.49798e+15 1.23687e+17 -5.41491 1.11089e+17 -3.59247 4.84238)
(-7.36313e+16 8.95945e+16 -1.53009 1.02669e+17 -1.00497 1.17)
(-1.4697e+17 -5.63091e+17 -1.01475 1.62111e+18 -4.28623 0.00330885)
(-1.22792e+17 7.71936e+17 -6.53745 1.50165e+18 -1.51403 0.0396971)
(-1.55587e+16 1.22303e+18 -24.541 1.07531e+18 -0.532115 0.0881275)
(-2.86781e+17 1.55435e+18 7.75823 3.94202e+17 2.66485 0.0675397)
(1.20331e+17 4.50503e+17 0.743553 5.69723e+17 -1.80905 -0.178564)
(-9.23954e+16 4.1231e+17 -6.00561 2.86671e+17 -0.968878 -0.687395)
(8.72804e+16 1.85151e+17 0.48017 3.61276e+17 1.38551 -0.904445)
(1.11111e+16 1.27834e+17 0.723427 1.59693e+17 0.427442 0.69637)
(4.91592e+16 7.79605e+16 -4.41219 1.54996e+17 -4.9269 4.85251)
(4.07652e+16 2.97054e+16 -1.64583 5.00132e+16 -1.47215 1.17301)
(-2.96796e+17 -8.38368e+16 -0.547862 8.67489e+17 -3.32742 0.00230989)
(-1.01663e+18 5.82335e+17 -1.66506 1.63036e+18 -2.92107 0.0345652)
(-8.69775e+17 7.8158e+17 -17.5974 1.31182e+18 -7.50174 0.0792137)
(-8.03249e+17 8.14209e+17 4.49153 7.70521e+17 0.316669 0.057551)
(-2.24298e+17 3.93462e+17 1.29864 3.90215e+17 -1.5406 -0.184221)
(-4.18043e+17 2.45819e+17 -2.52567 4.57855e+17 -0.69841 -0.684584)
(-1.05642e+17 1.32011e+17 -0.741048 2.02878e+17 1.06011 -0.895225)
(-1.69683e+17 8.14459e+16 -0.94364 2.18749e+17 -0.910457 0.70497)
(-3.94816e+16 4.38873e+16 -4.76535 8.37915e+16 -4.85672 4.85687)
(-4.73729e+16 1.94542e+16 -1.20862 5.86548e+16 -1.23607 1.17442)
(-4.51886e+16 -4.94163e+17 0.228682 8.36787e+17 -2.34088 0.00178087)
(-1.7489e+17 7.90204e+16 0.481378 1.07278e+18 -7.36036 0.0314391)
(-1.30176e+17 2.79885e+17 -13.0943 8.84714e+17 -11.0441 0.0735963)
(-2.20488e+17 5.18121e+17 2.40535 5.28167e+17 -0.535358 0.0505202)
(5.07891e+16 1.90349e+17 2.32922 3.70701e+17 -2.14785 -0.190075)
(-5.17767e+16 1.65142e+17 -2.61333 2.26874e+17 -0.834503 -0.686897)
(3.33249e+16 7.83364e+16 -0.404773 1.96543e+17 0.156653 -0.894029)
(-9.19778e+14 5.42262e+16 -1.28141 1.04959e+17 -1.34764 0.707432)
(1.66042e+16 3.11269e+16 -5.04769 8.44196e+16 -4.62272 4.85853)
(1.47225e+16 1.50342e+16 -1.33746 3.12742e+16 -1.32565 1.17478)
(-1.8862e+17 -1.80064e+17 -0.163279 4.61501e+17 -2.58524 0.00150527)
(-5.99889e+17 -3.73094e+16 -0.161248 9.69391e+17 -2.30117 0.0295596)
(-5.62746e+17 6.74657e+16 -12.1035 8.49424e+17 -9.11079 0.0705574)
(-5.0647e+17 1.52989e+17 -1.40712 5.71733e+17 -2.51883 0.0470005)
(-2.06948e+17 9.14184e+16 1.41745 3.08931e+17 -1.2417 -0.192588)
(-2.30468e+17 2.48127e+16 0.168986 2.61822e+17 1.85333 -0.687099)
(-8.7285e+16 2.41891e+16 0.38025 1.32494e+17 0.59374 -0.89185)
(-9.08967e+16 -6.35905e+14 -0.593495 1.12118e+17 -0.694686 0.711037)
(-3.19551e+16 5.06605e+15 -5.19022 5.03002e+16 -4.57187 4.86187)
(-2.42382e+16 -2.61757e+15 -1.29268 2.78452e+16 -1.2404 1.17525)
(5.86753e+16 -3.44591e+17 1.30856 3.6382e+17 -1.10788 0.00130075)
(-3.85636e+16 -1.40339e+17 -1.3408 5.72108e+17 -1.56125 0.0282026)
(-4.12994e+16 -3.29913e+16 -10.6396 5.04367e+17 -9.13478 0.0691506)
(-1.10046e+17 1.1293e+17 -1.90271 3.65455e+17 -2.41723 0.0464566)
(2.11535e+16 5.25892e+16 -0.731006 2.31172e+17 -0.302128 -0.190854)
(-2.23821e+16 4.89878e+16 0.58808 1.50468e+17 1.01921 -0.682007)
(1.44541e+16 2.62467e+16 0.831021 1.11418e+17 1.2188 -0.883802)
(-3.65716e+14 1.84582e+16 -0.348774 6.5025e+16 -0.471101 0.720723)
(6.71922e+15 1.08589e+16 -5.10785 4.67179e+16 -4.42509 4.87118)
(5.5166e+15 6.56685e+15 -1.24887 1.91451e+16 -1.17884 1.17752)
(-7.67541e+16 -1.5506e+17 0.513806 2.04272e+17 -1.11182 0.00104333)
(-2.71964e+17 -1.94666e+17 -0.604163 4.7415e+17 -0.414213 0.0268158)
(-2.78109e+17 -1.46089e+17 -6.05832 4.37656e+17 -5.91488 0.0687481)
(-2.56224e+17 -7.4155e+16 -1.75107 3.14502e+17 -2.87249 0.0487081)
(-1.24685e+17 -3.55019e+16 0.269648 1.81075e+17 0.201202 -0.184117)
(-1.10689e+17 -4.56177e+16 0.58087 1.30985e+17 0.753949 -0.669446)
(-5.04631e+16 -1.90544e+16 0.968458 7.17793e+16 0.977716 -0.866847)
(-4.18869e+16 -2.22712e+16 -0.561249 5.13879e+16 -0.795003 0.738062)
(-1.77546e+16 -8.64997e+15 -5.07161 2.51889e+16 -4.55276 4.88662)
(-1.04551e+16 -6.91665e+15 -1.33019 1.1072e+16 -1.2639 1.18471)
(9.70009e+16 -2.01889e+17 -0.0654452 1.28258e+17 0.0401328 0.000655855)
(4.87094e+16 -1.4296e+17 -1.03193 2.54606e+17 -1.19708 0.0249667)
(2.69255e+16 -8.60778e+16 -2.92888 2.39793e+17 -4.3954 0.0690171)
(-2.94387e+16 -1.06737e+16 -1.42225 1.99592e+17 -1.76981 0.0543117)
(1.67525e+16 -1.11379e+15 -0.510445 1.30409e+17 -0.012732 -0.171161)
(-4.4336e+15 4.76499e+15 0.717093 8.8426e+16 0.427595 -0.648748)
(8.1865e+15 3.91372e+15 1.20382 6.2611e+16 0.799247 -0.842705)
(1.16656e+15 3.36234e+15 -0.511198 3.84491e+16 -0.816939 0.753591)
(3.27052e+15 2.32572e+15 -5.04893 2.61401e+16 -4.72591 4.88858)
(2.13489e+15 2.27683e+15 -1.27394 1.15527e+16 -1.34589 1.20308)
(-1.56924e+16 -1.0099e+17 0.267813 7.36997e+16 -0.366004 9.21371e-05)
(-8.81266e+16 -1.74885e+17 0.0424634 1.92782e+17 -0.800212 0.0222468)
(-1.01425e+17 -1.57243e+17 -2.06857 1.83615e+17 -1.93124 0.0696159)
(-9.90398e+16 -1.09255e+17 -0.643336 1.353e+17 -0.66115 0.0646028)
(-5.306e+16 -6.2901e+16 -0.340943 8.19474e+16 -0.0288372 -0.149755)
(-4.19667e+16 -5.19891e+16 0.756395 5.34335e+16 0.687911 -0.623177)
(-2.10403e+16 -2.70988e+16 0.998537 3.09563e+16 0.883154 -0.82791)
(-1.51845e+16 -2.17099e+16 -0.427193 1.94382e+16 -0.768904 0.72961)
(-7.0725e+15 -1.02645e+16 -4.92047 9.97656e+15 -4.5792 4.80386)
(-3.487e+15 -5.74524e+15 -1.24804 3.15979e+15 -1.24919 1.21208)
(8.99788e+16 -1.00839e+17 0.141714 3.01749e+16 -0.0956001 -0.000665162)
(7.22763e+16 -8.96825e+16 -0.77344 9.60348e+16 -0.225027 0.0182262)
(4.85749e+16 -6.306e+16 -1.6218 1.00237e+17 -0.820021 0.069662)
(8.58308e+15 -3.02375e+16 -0.646842 9.50419e+16 -0.297792 0.081366)
(1.70669e+16 -1.35193e+16 -0.221324 6.69624e+16 0.0546799 -0.114012)
(4.28542e+15 -7.22908e+15 0.462146 4.74339e+16 0.602903 -0.598196)
(6.33345e+15 -3.44693e+15 0.978964 3.37497e+16 0.881949 -0.871302)
(2.18483e+15 -1.846e+15 -0.341135 2.1592e+16 -0.574378 0.565448)
(2.10897e+15 -8.54743e+14 -4.67912 1.44016e+16 -4.2576 4.48082)
(9.52526e+14 3.14509e+14 -0.84659 6.78142e+15 -0.733404 0.816153)
(7.20288e+15 -5.5696e+16 0.0151425 1.82248e+16 -0.134501 -0.0015827)
(-6.48794e+15 -1.14399e+17 -0.400355 5.84923e+16 0.328729 0.0125537)
(-1.55039e+16 -1.10383e+17 -0.924923 5.56552e+16 -0.182519 0.0670269)
(-2.09613e+16 -8.19456e+16 -0.390443 4.03372e+16 -0.209223 0.104856)
(-1.12085e+16 -5.05941e+16 -0.177149 2.49929e+16 0.0193853 -0.0492899)
(-8.26008e+15 -3.75436e+16 0.559886 1.40094e+16 0.586978 -0.556742)
(-4.10824e+15 -2.11391e+16 1.15676 8.50313e+15 1.08074 -1.04898)
(-2.53075e+15 -1.49604e+16 0.230979 4.32677e+15 -0.0517095 0.00341725)
(-1.18078e+15 -7.58273e+15 -4.08766 2.21025e+15 -3.83318 3.9261)
(-4.55176e+14 -3.58108e+15 -1.55236 -5.21422e+13 -1.45718 1.53605)
(6.57656e+16 -4.17142e+16 -0.195492 -1.58602e+15 -0.0982699 -0.00253132)
(6.17708e+16 -4.25455e+16 -0.598411 3.03099e+16 0.367861 0.00531125)
(4.34087e+16 -3.28533e+16 -0.614704 3.81814e+16 0.326499 0.0580599)
(1.86728e+16 -2.16381e+16 -0.273299 4.15691e+16 0.101031 0.127752)
(1.50907e+16 -1.12986e+16 -0.1376 3.21116e+16 -0.00285522 0.0627611)
(6.80746e+15 -7.48125e+15 0.32977 2.37849e+16 0.54022 -0.393493)
(5.32995e+15 -4.32485e+15 1.35586 1.7281e+16 1.4008 -1.26255)
(2.51799e+15 -2.76904e+15 1.92512 1.14544e+16 1.6082 -1.64079)
(1.69169e+15 -1.58679e+15 -0.0298416 7.6262e+15 -0.180807 0.114443)
(5.92307e+14 -4.0723e+14 -0.0477009 3.80033e+15 -0.0563225 0.0736885)
(1.13129e+16 -2.69666e+16 -0.0251351 -7.62197e+14 0.133819 -0.00324884)
(1.97149e+16 -6.22812e+16 -0.624582 5.19261e+15 0.149983 -0.00240716)
(1.56961e+16 -6.25439e+16 -0.470417 2.99676e+15 0.291809 0.0395896)
(8.57513e+15 -4.73143e+16 -0.282284 7.16904e+14 -0.0971466 0.127447)
(6.27439e+15 -3.04551e+16 -0.0947295 -2.45489e+14 -0.0674638 0.189684)
(4.55135e+15 -2.14082e+16 -0.243901 -2.06324e+15 0.0473149 0.0522719)
(2.94822e+15 -1.2569e+16 0.386284 -1.2085e+15 0.451813 -0.40682)
(2.13995e+15 -8.32648e+15 0.936296 -1.51475e+15 0.847872 -0.84291)
(1.18028e+15 -4.35677e+15 0.365223 -9.23586e+14 0.26382 -0.311169)
(5.5133e+14 -1.81313e+15 0.119498 -1.00368e+15 0.080197 -0.103718)
(4.12981e+16 -1.24363e+16 0.0601348 -6.92632e+15 0.0910083 -0.00339324)
(4.16761e+16 -1.46977e+16 -0.396028 8.28315e+15 0.21555 -0.00824258)
(2.99426e+16 -1.31154e+16 -0.15947 1.43531e+16 0.69131 0.0149848)
(1.63951e+16 -1.10946e+16 -0.0975006 1.76938e+16 -0.156328 0.081145)
(1.12309e+16 -6.59488e+15 -0.064043 1.496e+16 0.100739 0.165793)
(6.14004e+15 -4.95246e+15 -0.269308 1.14682e+16 0.047117 0.175105)
(4.17062e+15 -3.1774e+15 -0.0517593 8.48482e+15 0.00333275 0.007986)
(2.28658e+15 -2.2043e+15 0.25892 5.76681e+15 0.217479 -0.236349)
(1.39355e+15 -1.35901e+15 0.168423 3.84802e+15 0.137692 -0.139094)
(4.75438e+14 -5.30669e+14 0.0652156 2.01311e+15 0.0364407 -0.0500014)
(8.92003e+15 -1.15051e+16 -0.139928 -4.90353e+15 0.0571827 -0.00276521)
(2.17162e+16 -2.87891e+16 -0.116433 -1.023e+16 0.107813 -0.00985378)
(2.06294e+16 -2.9527e+16 -0.0699538 -1.23867e+16 0.922051 -0.00241837)
(1.45191e+16 -2.22786e+16 -0.0889704 -1.05426e+16 -0.0527479 0.0329323)
(1.00035e+16 -1.46439e+16 -0.126602 -7.70535e+15 0.152055 0.0912502)
(6.99916e+15 -9.87441e+15 -0.250725 -6.17509e+15 0.0853064 0.128087)
(4.37212e+15 -5.92048e+15 -0.150789 -3.85433e+15 -0.00736562 0.0830099)
(2.91043e+15 -3.73209e+15 -0.00284916 -2.81785e+15 0.0479254 -0.0245038)
(1.5895e+15 -1.96702e+15 0.0245397 -1.63371e+15 0.0365697 -0.0316148)
(6.54218e+14 -7.07271e+14 0.0133703 -1.00174e+15 0.0191425 -0.0121318)
(2.30173e+16 -5.09732e+14 -0.0755336 -4.5157e+15 0.0136891 -0.0015444)
(2.40253e+16 -2.16608e+15 -0.122366 2.98208e+15 0.0660741 -0.00758883)
(1.75965e+16 -3.59036e+15 -0.122023 6.3365e+15 0.806606 -0.00908358)
(1.10251e+16 -4.56434e+15 -0.0145626 7.95583e+15 0.0418685 0.00356655)
(7.29458e+15 -3.19687e+15 -0.180962 7.11333e+15 0.100426 0.03162)
(4.45121e+15 -2.72515e+15 -0.184509 5.49593e+15 0.0879981 0.0564942)
(2.94729e+15 -1.90387e+15 -0.136723 4.07837e+15 -0.03385 0.0483872)
(1.77574e+15 -1.40759e+15 -0.0481488 2.79201e+15 -0.00644488 0.00728827)
(1.07161e+15 -9.13029e+14 -0.0151374 1.85763e+15 0.0154584 -0.00826226)
(3.96052e+14 -4.28781e+14 -0.00890536 1.00593e+15 0.00520291 -0.00203509)
(5.58178e+15 -4.16393e+15 -0.0632773 -4.24788e+15 0.034241 -5.75016e-05)
(1.60505e+16 -1.07237e+16 -0.0660224 -1.09463e+16 0.0364278 -0.00311348)
(1.60927e+16 -1.09893e+16 -0.0498292 -1.26979e+16 0.443757 -0.00859208)
(1.17484e+16 -8.09624e+15 0.053309 -1.03088e+16 -0.0301752 -0.0096955)
(8.12765e+15 -5.27912e+15 -0.0637295 -7.48155e+15 -0.0182736 -0.00391915)
(5.53979e+15 -3.3667e+15 -0.0365539 -5.45872e+15 0.0729685 0.00247772)
(3.47868e+15 -2.00725e+15 -0.0534185 -3.46909e+15 -0.0105 -0.000987984)
(2.22885e+15 -1.18222e+15 -0.000646646 -2.34482e+15 -0.0318297 -0.0147033)
(1.21875e+15 -6.0074e+14 0.00952178 -1.35664e+15 0.00377336 -0.0206078)
(4.57346e+14 -1.47059e+14 -0.00208764 -7.06417e+14 0.00568652 -0.00744912)
(1.15147e+16 2.94794e+15 -0.0208208 -1.44825e+15 0.00384294 0.0014694)
(1.21903e+16 1.82455e+15 0.0705434 2.45091e+15 0.151697 0.00225169)
(9.18457e+15 -1.48451e+14 0.0131634 3.75467e+15 0.375414 -0.0053977)
(6.41593e+15 -1.54233e+15 0.0823432 4.06755e+15 -0.0643237 -0.0162423)
(4.30009e+15 -1.40645e+15 0.0216021 3.5897e+15 0.0160128 -0.0267866)
(2.86023e+15 -1.36865e+15 0.0171751 2.69242e+15 0.0527611 -0.0366662)
(1.91576e+15 -1.02876e+15 0.0324237 1.96007e+15 0.0507472 -0.0434385)
(1.24021e+15 -7.97226e+14 0.036445 1.31975e+15 0.0363238 -0.03888)
(7.61213e+14 -5.3718e+14 0.0236638 8.65307e+14 0.0281369 -0.0252839)
(3.11786e+14 -2.84913e+14 0.00864162 4.73688e+14 0.0171161 -0.0264488)
(3.06225e+15 -1.04054e+15 -0.0206726 -2.67557e+15 -0.00902704 0.0029742)
(9.81272e+15 -2.36401e+15 0.0229306 -7.55285e+15 0.0840734 0.00807698)
(1.00491e+16 -2.26324e+15 -0.116149 -8.73839e+15 0.359202 -0.00208852)
(7.33194e+15 -1.49104e+15 0.0164754 -6.95324e+15 0.0317928 -0.0240607)
(5.07963e+15 -8.27243e+14 0.0284733 -5.06511e+15 0.0301408 -0.0497902)
(3.37019e+15 -3.97403e+14 0.0506018 -3.54943e+15 0.0957519 -0.0685687)
(2.1217e+15 -1.84986e+14 0.058186 -2.27809e+15 0.0885031 -0.0661462)
(1.31538e+15 -4.95123e+13 0.0526446 -1.48212e+15 0.0701329 -0.0200707)
(7.13542e+14 9.90162e+12 0.0328328 -8.56992e+14 0.0474442 0.0571451)
(2.37434e+14 7.00235e+13 0.0308586 -4.0811e+14 0.0426454 -0.0360271)
(5.17441e+15 3.07555e+15 -0.0300308 4.33016e+14 -0.0182908 0.00449984)
(5.53157e+15 2.22941e+15 -0.0625848 2.5497e+15 -0.0131128 0.0146431)
(4.40623e+15 6.12731e+14 -0.189937 2.6808e+15 0.259258 0.00101061)
(3.44526e+15 -4.22857e+14 -0.0217348 2.36677e+15 0.0589404 -0.0384512)
(2.40319e+15 -6.12761e+14 0.0448965 1.93161e+15 0.0551504 -0.0853831)
(1.72557e+15 -6.63853e+14 0.0897193 1.36288e+15 0.101929 -0.0962511)
(1.18252e+15 -5.2813e+14 0.0797674 9.52208e+14 0.107256 -0.0272072)
(8.09856e+14 -4.17796e+14 0.0381492 6.15438e+14 0.0413777 0.139955)
(5.08385e+14 -2.88871e+14 -0.0488706 3.91161e+14 -0.0438195 0.377602)
(2.29271e+14 -1.66804e+14 0.034005 2.09084e+14 0.0350678 0.359452)
(1.54769e+15 1.58903e+14 -0.0358123 -1.35509e+15 -0.0280364 0.00609672)
(5.22459e+15 8.63444e+14 -0.042866 -4.02779e+15 0.00158648 0.0224943)
(5.3527e+15 1.05446e+15 -0.16407 -4.75448e+15 0.209141 0.00572803)
(3.82754e+15 9.34928e+14 0.00644166 -3.73547e+15 0.0678964 -0.0614363)
(2.62317e+15 7.88065e+14 0.11146 -2.73981e+15 0.0971524 -0.152118)
(1.67975e+15 6.13877e+14 0.135105 -1.8726e+15 0.115166 -0.142461)
(1.04889e+15 4.30587e+14 0.0587268 -1.20955e+15 0.062849 0.143528)
(6.23084e+14 3.05199e+14 -0.140092 -7.66593e+14 -0.107023 0.694078)
(3.28196e+14 1.93969e+14 -0.404244 -4.42348e+14 -0.400059 0.925639)
(8.53985e+13 1.14027e+14 -0.385891 -1.97505e+14 -0.476198 -0.361964)
(2.0894e+15 2.38107e+15 -0.0195837 1.17395e+15 -0.0215444 0.00772649)
(2.35548e+15 1.71582e+15 -0.0303024 2.3698e+15 0.0202647 0.031845)
(2.10099e+15 6.30327e+14 -0.121516 1.99309e+15 0.134962 0.0156812)
(1.86565e+15 -1.0082e+13 0.0423006 1.49411e+15 0.132848 -0.0871837)
(1.37424e+15 -2.36329e+14 0.216222 1.09349e+15 0.16544 -0.271987)
(1.04629e+15 -2.91489e+14 0.224 7.14929e+14 0.172734 -0.31752)
(7.2989e+14 -2.48637e+14 -0.102683 4.70586e+14 -0.08746 0.343051)
(5.16981e+14 -1.98119e+14 -0.746018 2.86039e+14 -0.612404 2.32292)
(3.29031e+14 -1.41106e+14 -1.05659 1.7214e+14 -0.902015 4.72223)
(1.59101e+14 -8.73096e+13 0.277002 8.57345e+13 0.204692 1.09453)
(7.95706e+14 5.69456e+14 -0.00805863 -5.26882e+14 -0.0109335 0.00920098)
(2.53003e+15 1.79273e+15 -0.0607153 -1.44568e+15 -0.00399294 0.0418827)
(2.51817e+15 1.94722e+15 -0.0896584 -1.85182e+15 0.0748754 0.0339882)
(1.7565e+15 1.5414e+15 0.102463 -1.43548e+15 0.170725 -0.0952999)
(1.1677e+15 1.14587e+15 0.368183 -1.07792e+15 0.336371 -0.418349)
(7.12234e+14 7.93234e+14 0.433565 -7.2453e+14 0.351511 -0.789052)
(4.32007e+14 5.21463e+14 -0.279439 -4.75384e+14 -0.303776 -0.53467)
(2.37604e+14 3.33763e+14 -2.38739 -2.95367e+14 -2.2153 1.51206)
(1.13724e+14 1.95599e+14 -4.9039 -1.7123e+14 -4.54997 5.13605)
(6.74869e+12 9.21263e+13 -1.18915 -7.08408e+13 -1.20109 1.25629)
(7.49322e+14 1.83363e+15 -0.0145898 1.2111e+15 -0.0287821 0.0102284)
(1.2838e+15 1.42655e+15 -0.0654016 1.86274e+15 -0.0285562 0.0504509)
(1.28397e+15 8.40954e+14 -0.0647392 1.50895e+15 0.0646041 0.0572332)
(1.3285e+15 4.55427e+14 0.151527 9.82372e+14 0.203603 -0.0663287)
(1.02366e+15 1.7436e+14 0.555054 6.61254e+14 0.536013 -0.436545)
(8.0402e+14 6.13538e+13 0.937549 3.93388e+14 0.827273 -0.966296)
(5.58447e+14 -7.18992e+11 0.56352 2.44813e+14 0.441128 -0.972347)
(3.92836e+14 -2.12667e+13 -1.70039 1.36457e+14 -1.68689 0.960879)
(2.43415e+14 -3.21004e+13 -5.44628 7.47754e+13 -5.18456 5.07107)
(1.16367e+14 -4.12027e+13 -1.38645 2.98705e+13 -1.43363 1.21338)
(5.82446e+14 6.32239e+14 -0.0148161 -3.24468e+14 -0.0360016 0.0106388)
(1.79208e+15 2.84966e+15 -0.0609885 -2.96522e+14 -0.0274924 0.0552312)
(1.63005e+15 3.36195e+15 -0.0587507 -2.48019e+14 0.0552294 0.0722665)
(1.34806e+15 2.63066e+15 0.16483 -1.62789e+14 0.235054 -0.0480476)
(9.38851e+14 1.95048e+15 0.639378 -1.01339e+14 0.642376 -0.446321)
(6.54259e+14 1.30259e+15 1.14649 -5.58618e+13 1.0723 -1.04311)
(4.22977e+14 8.49895e+14 0.844666 -2.8962e+13 0.735254 -1.07559)
(2.66941e+14 5.19601e+14 -1.65858 -1.3696e+13 -1.69621 1.08165)
(1.45739e+14 2.86146e+14 -6.13311 -4.90339e+12 -6.0182 5.77447)
(4.36948e+13 1.12983e+14 -1.88233 -1.51376e+12 -2.02081 1.80069)
)
;

boundaryField
{
    frontAndBack
    {
        type            empty;
    }
    symm
    {
        type            symmetryPlane;
    }
    in
    {
        type            mySigma;
    }
    out
    {
        type            mySigma;
    }
}


// ************************************************************************* //
