/*--------------------------------*- C++ -*----------------------------------*\
| =========                 |                                                 |
| \\      /  F ield         | foam-extend: Open Source CFD                    |
|  \\    /   O peration     | Version:  3.0                                   |
|   \\  /    A nd           | Web:         http://www.extend-project.de       |
|    \\/     M anipulation  |                                                 |
\*---------------------------------------------------------------------------*/
FoamFile
{
    version     2.0;
    format      ascii;
    class       volVectorField;
    location    "22";
    object      s;
}
// * * * * * * * * * * * * * * * * * * * * * * * * * * * * * * * * * * * * * //

dimensions      [0 1 -1 0 0 0 0];

internalField   nonuniform List<vector> 
3012
(
(-2.24514 0.122206 0)
(-1.84668 -0.250042 0)
(-2.59873 0.162377 0)
(-1.74622 0.123084 0)
(-3.13167 0.352217 0)
(-2.18692 0.218685 0)
(-3.04082 -0.314196 0)
(-2.87868 0.0992278 0)
(-2.01586 0.23058 0)
(-2.22363 -0.399409 0)
(-1.90651 -0.0798422 0)
(-2.23867 0.449158 0)
(-1.28682 -0.135805 0)
(-2.01302 0.075843 0)
(-2.26438 0.0644267 0)
(-1.22724 0.112202 0)
(-3.11678 0.304983 0)
(-2.20554 0.268928 0)
(-2.96757 -0.342041 0)
(-2.88905 0.0941126 0)
(-1.274 0.420095 0)
(-1.68109 -0.223099 0)
(-1.89355 -0.353812 0)
(-1.22614 0.297951 0)
(-2.686 0.0298905 0)
(-1.98049 -0.143284 0)
(-1.94355 0.261322 0)
(-2.27563 0.0455755 0)
(-1.88235 0.329384 0)
(-2.0764 0.412891 0)
(-1.38044 -0.170019 0)
(-1.55983 -0.443191 0)
(-1.31756 -0.148683 0)
(-2.09563 0.372529 0)
(-1.89736 0.305337 0)
(-1.47656 -0.415498 0)
(-2.10242 -0.191578 0)
(-2.7358 0.0490631 0)
(-2.29475 0.0486232 0)
(-2.05418 0.245639 0)
(-1.17565 -0.119421 0)
(-2.17452 0.0596965 0)
(-1.11599 0.10663 0)
(-1.94478 0.0715251 0)
(-1.29994 -0.107967 0)
(-1.4417 -0.374957 0)
(-1.93697 0.273413 0)
(-2.14907 0.3285 0)
(-1.28244 -0.372626 0)
(-2.0255 0.326678 0)
(-1.84082 0.286266 0)
(-1.15459 -0.134597 0)
(-2.23102 0.120249 0)
(-1.77926 -0.234891 0)
(-1.68347 0.125406 0)
(-2.5726 0.152113 0)
(-2.72808 -0.327313 0)
(-2.27906 0.44361 0)
(-3.07071 0.234435 0)
(-2.90098 0.0841381 0)
(-2.71856 -0.356932 0)
(-2.25851 0.3618 0)
(-3.01809 0.258672 0)
(-2.92489 0.0441215 0)
(-1.31337 -0.0867684 0)
(-2.02941 0.0307094 0)
(-2.29248 0.0024626 0)
(-1.26961 0.159101 0)
(-2.1406 -0.150489 0)
(-1.19024 0.268985 0)
(-1.20393 0.0845838 0)
(-1.90457 -0.0857767 0)
(-1.79077 0.463923 0)
(-1.57956 -0.493248 0)
(-1.37476 -0.244584 0)
(-1.64982 0.369562 0)
(-1.70197 0.353446 0)
(-1.85299 0.424039 0)
(-1.42607 -0.473708 0)
(-1.25013 -0.232647 0)
(-1.40243 -0.0824398 0)
(-2.07788 0.0239306 0)
(-1.36358 0.181643 0)
(-2.36159 -0.00859883 0)
(-2.11949 -0.0405637 0)
(-1.0974 0.188911 0)
(-1.13636 -0.00681223 0)
(-1.89511 -0.00633371 0)
(-1.22201 -0.184574 0)
(-1.9994 0.384954 0)
(-1.82122 0.325707 0)
(-1.3753 -0.432858 0)
(-2.27642 -0.394353 0)
(-2.01926 0.219401 0)
(-1.94307 -0.0755494 0)
(-2.24161 0.453825 0)
(-2.22054 0.0130893 0)
(-2.30788 0.362047 0)
(-2.15638 -0.0339618 0)
(-2.69549 -0.194607 0)
(-2.11606 -0.166761 0)
(-1.17002 0.277918 0)
(-1.18206 0.100764 0)
(-1.88511 -0.0994122 0)
(-1.75208 0.469938 0)
(-1.36399 -0.252394 0)
(-1.57071 -0.49825 0)
(-1.61725 0.375861 0)
(-1.81222 -0.398678 0)
(-1.25179 0.322525 0)
(-1.61004 -0.250978 0)
(-1.31546 0.437571 0)
(-1.96796 0.220732 0)
(-2.19277 0.2551 0)
(-1.36277 -0.314276 0)
(-1.24909 -0.0510597 0)
(-1.5297 -0.499668 0)
(-1.34018 -0.27994 0)
(-1.51959 0.503201 0)
(-1.41203 0.400552 0)
(-1.76682 -0.181194 0)
(-1.08916 0.207879 0)
(-1.08966 0.316323 0)
(-1.96417 -0.266214 0)
(-2.49931 -0.207837 0)
(-2.33148 0.00348353 0)
(-2.80184 0.147027 0)
(-2.30839 0.316403 0)
(-3.06276 0.0438169 0)
(-2.6793 0.676611 0)
(-2.99945 0.0582454 0)
(-2.43713 -0.307178 0)
(-2.57449 -0.211273 0)
(-2.32058 0.00451039 0)
(-2.4145 0.353474 0)
(-2.84474 0.1204 0)
(-3.06868 0.0710198 0)
(-3.04989 0.0880335 0)
(-2.60641 0.687991 0)
(-2.49128 -0.362802 0)
(-2.67929 0.0677155 0)
(-1.86918 0.22786 0)
(-2.27297 0.0624844 0)
(-1.92831 -0.173634 0)
(-3.00769 0.187577 0)
(-2.42413 0.491544 0)
(-2.55108 -0.31295 0)
(-2.95392 -0.00845076 0)
(-2.94233 0.210844 0)
(-2.38029 0.48698 0)
(-2.47093 -0.230902 0)
(-2.85826 -0.0484639 0)
(-1.07282 -0.0888879 0)
(-1.83201 0.24099 0)
(-1.17463 -0.313122 0)
(-2.02452 0.267581 0)
(-1.32408 -0.389091 0)
(-2.03859 0.346767 0)
(-1.85132 0.299107 0)
(-1.18714 -0.144462 0)
(-1.75567 -0.423928 0)
(-1.55801 -0.261563 0)
(-1.36279 0.45756 0)
(-1.28793 0.344804 0)
(-2.31063 0.0499786 0)
(-2.37657 -0.194146 0)
(-2.81415 0.0280512 0)
(-2.36169 0.296658 0)
(-1.33007 -0.165952 0)
(-2.07079 0.393353 0)
(-1.87808 0.320458 0)
(-1.49793 -0.433493 0)
(-2.8796 0.295292 0)
(-2.80246 -0.0888656 0)
(-2.48498 -0.197653 0)
(-2.25129 0.348821 0)
(-2.4216 -0.0770892 0)
(-2.8474 0.275981 0)
(-2.33588 0.324035 0)
(-2.73643 -0.169587 0)
(-2.29838 0.0536621 0)
(-2.40078 -0.22762 0)
(-2.82505 0.049441 0)
(-2.36326 0.300603 0)
(-1.61837 0.45484 0)
(-1.85698 -0.200577 0)
(-1.53076 0.266807 0)
(-2.13793 -0.379948 0)
(-1.58332 0.300588 0)
(-2.06524 -0.424581 0)
(-1.69334 0.47475 0)
(-1.79443 -0.218172 0)
(-1.79419 -0.412392 0)
(-1.5912 -0.255438 0)
(-1.35283 0.454994 0)
(-1.28175 0.338615 0)
(-1.66278 -0.440415 0)
(-2.14029 0.413281 0)
(-1.93163 0.316893 0)
(-1.47312 -0.151272 0)
(-1.30303 -0.0605851 0)
(-2.01489 0.0149717 0)
(-1.26447 0.176758 0)
(-2.27444 -0.0189201 0)
(-1.31487 -0.157569 0)
(-2.27851 0.087237 0)
(-2.02463 0.0920809 0)
(-1.24848 0.0966662 0)
(-1.1081 -0.255652 0)
(-2.0154 0.206227 0)
(-1.0287 -0.0391082 0)
(-1.82056 0.189612 0)
(-1.10693 0.222368 0)
(-1.76766 -0.18002 0)
(-1.97351 -0.268533 0)
(-1.10992 0.344307 0)
(-2.35762 -0.0376213 0)
(-1.37238 0.205151 0)
(-1.4025 -0.05211 0)
(-2.07189 0.00411318 0)
(-1.56076 -0.513372 0)
(-1.41712 0.39734 0)
(-1.3688 -0.292747 0)
(-1.52481 0.501191 0)
(-1.38428 -0.180868 0)
(-1.85276 0.333809 0)
(-1.56694 -0.450328 0)
(-2.03776 0.419583 0)
(-1.15667 0.215924 0)
(-1.77333 -0.171603 0)
(-1.16899 0.344462 0)
(-1.98359 -0.266866 0)
(-1.41083 -0.274087 0)
(-1.55013 0.484139 0)
(-1.44139 0.379974 0)
(-1.60606 -0.493052 0)
(-2.10683 0.427522 0)
(-1.68681 -0.450148 0)
(-1.48832 -0.163541 0)
(-1.90624 0.325497 0)
(-1.2787 0.414468 0)
(-1.71178 -0.213357 0)
(-1.92883 -0.342282 0)
(-1.23367 0.285951 0)
(-1.25855 0.31434 0)
(-1.86343 -0.380135 0)
(-1.31796 0.436355 0)
(-1.6528 -0.237085 0)
(-1.66116 0.459528 0)
(-1.86392 -0.197682 0)
(-1.5664 0.268003 0)
(-2.14887 -0.385222 0)
(-1.59743 0.285483 0)
(-1.70592 0.469219 0)
(-2.11227 -0.413502 0)
(-1.83185 -0.209581 0)
(-2.5574 -0.293669 0)
(-2.00504 0.103988 0)
(-2.12886 -0.054668 0)
(-2.16622 0.440339 0)
(-1.15274 -0.20073 0)
(-1.75211 0.333317 0)
(-1.29893 -0.433565 0)
(-1.91068 0.385823 0)
(-1.09804 -0.103644 0)
(-2.09148 0.0575655 0)
(-1.04135 0.103678 0)
(-1.88016 0.068494 0)
(-1.75781 0.464353 0)
(-1.6431 0.268752 0)
(-1.86258 -0.196118 0)
(-2.15654 -0.40524 0)
(-1.21325 -0.120869 0)
(-2.18992 0.0619145 0)
(-1.15266 0.107912 0)
(-1.95644 0.0736009 0)
(-1.28124 -0.109108 0)
(-2.01109 0.0552852 0)
(-2.26471 0.0378691 0)
(-1.22731 0.133358 0)
(-2.26959 0.0802121 0)
(-1.89741 -0.233436 0)
(-1.82049 0.164814 0)
(-2.65375 0.0998781 0)
(-1.05915 -0.0740139 0)
(-2.02643 0.250743 0)
(-1.83122 0.226026 0)
(-1.15415 -0.295328 0)
(-2.76246 -0.187475 0)
(-2.28482 0.00780513 0)
(-2.69223 0.402833 0)
(-2.86368 0.041334 0)
(-2.89384 -0.221604 0)
(-2.86107 0.400714 0)
(-2.27055 0.0484231 0)
(-2.89235 0.0466354 0)
(-1.26584 -0.10957 0)
(-1.92909 0.271374 0)
(-1.40246 -0.372941 0)
(-2.13888 0.321979 0)
(-1.80704 0.474774 0)
(-1.68386 0.277575 0)
(-1.85937 -0.191542 0)
(-2.15591 -0.410265 0)
(-1.35206 -0.328637 0)
(-1.94406 0.24077 0)
(-2.16138 0.280096 0)
(-1.2323 -0.0703149 0)
(-2.26249 0.078755 0)
(-1.90421 -0.202472 0)
(-1.83018 0.186765 0)
(-2.64777 0.0996391 0)
(-2.55996 -0.270044 0)
(-1.97006 0.0817102 0)
(-2.13547 -0.0640276 0)
(-2.10298 0.412966 0)
(-1.89189 -0.462607 0)
(-1.64475 0.488484 0)
(-1.53221 0.34563 0)
(-1.65318 -0.24879 0)
(-1.1381 -0.0375353 0)
(-2.13324 -0.0146285 0)
(-1.90776 0.0136297 0)
(-1.09446 0.165546 0)
(-1.3859 0.25369 0)
(-1.83581 -0.196065 0)
(-1.44397 0.423917 0)
(-2.092 -0.341611 0)
(-2.21922 -0.0269234 0)
(-2.17347 0.359396 0)
(-2.05146 -0.0142586 0)
(-2.67556 -0.209724 0)
(-2.14428 -0.0672581 0)
(-1.16626 0.00455312 0)
(-1.13221 0.204041 0)
(-1.91283 -0.0261326 0)
(-1.86121 0.43778 0)
(-1.70896 0.360033 0)
(-1.47491 -0.474389 0)
(-1.28972 -0.230513 0)
(-1.88894 0.418608 0)
(-1.73268 0.350817 0)
(-1.40531 -0.464638 0)
(-1.23458 -0.222568 0)
(-1.2711 -0.255337 0)
(-1.75776 0.449485 0)
(-1.62151 0.371209 0)
(-1.46223 -0.494204 0)
(-1.11567 0.058841 0)
(-2.08269 -0.109355 0)
(-1.089 0.237893 0)
(-1.8621 -0.0601823 0)
(-1.09882 -0.232946 0)
(-2.02409 0.190157 0)
(-1.0181 -0.0134661 0)
(-1.82879 0.173746 0)
(-1.0565 -0.12437 0)
(-1.78827 0.266387 0)
(-1.96603 0.294847 0)
(-1.16424 -0.341858 0)
(-1.29806 -0.248107 0)
(-1.76779 0.450515 0)
(-1.49236 -0.488779 0)
(-1.63094 0.368867 0)
(-1.14192 0.0613803 0)
(-2.0954 -0.118745 0)
(-1.87187 -0.0661059 0)
(-1.11794 0.241434 0)
(-1.86022 0.32147 0)
(-1.90024 -0.460506 0)
(-1.65695 -0.176242 0)
(-2.04558 0.464972 0)
(-1.91938 0.314609 0)
(-1.8955 -0.457789 0)
(-2.12203 0.453594 0)
(-1.6586 -0.159766 0)
(-2.19182 -0.292643 0)
(-1.45944 0.392174 0)
(-1.91771 -0.162879 0)
(-1.4135 0.197441 0)
(-1.6481 -0.232448 0)
(-1.63811 0.3468 0)
(-1.77275 0.492809 0)
(-1.89435 -0.471464 0)
(-1.32113 -0.0946384 0)
(-1.96269 0.260175 0)
(-2.18308 0.314402 0)
(-1.46007 -0.367487 0)
(-1.85958 0.472843 0)
(-1.94352 -0.164962 0)
(-1.73519 0.24641 0)
(-2.26733 -0.380957 0)
(-1.90529 0.457667 0)
(-1.98071 -0.144108 0)
(-1.7767 0.214433 0)
(-2.32261 -0.364106 0)
(-1.67515 -0.243396 0)
(-1.44797 0.457615 0)
(-1.36923 0.321867 0)
(-1.90069 -0.41322 0)
(-1.53091 0.315159 0)
(-1.51439 0.0633381 0)
(-2.06686 -0.0744194 0)
(-2.37625 -0.16417 0)
(-1.31694 -0.209281 0)
(-2.00612 0.133343 0)
(-1.2353 0.0479328 0)
(-2.25026 0.141544 0)
(-2.32162 -0.324276 0)
(-2.30297 0.091277 0)
(-2.68921 0.261819 0)
(-2.08826 0.129031 0)
(-1.54391 0.297635 0)
(-2.10454 -0.0485915 0)
(-1.53937 0.0303759 0)
(-2.4222 -0.12409 0)
(-2.57893 0.442125 0)
(-2.87426 0.117021 0)
(-2.36098 -0.112906 0)
(-2.842 -0.138462 0)
(-1.42261 -0.26014 0)
(-1.56798 0.380497 0)
(-1.6314 -0.503656 0)
(-1.69517 0.485833 0)
(-1.22537 -0.4253 0)
(-1.73892 0.341773 0)
(-1.08832 -0.198509 0)
(-1.88888 0.387852 0)
(-1.85207 0.0824052 0)
(-2.05706 0.0766804 0)
(-0.985404 0.0718176 0)
(-1.04152 -0.131596 0)
(-1.86558 -0.135433 0)
(-1.20437 0.154101 0)
(-1.20681 0.319419 0)
(-2.09759 -0.220446 0)
(-2.07635 -0.116738 0)
(-1.76009 0.390448 0)
(-2.43183 -0.265002 0)
(-1.68757 0.11859 0)
(-2.10421 -0.0969177 0)
(-1.75376 0.378544 0)
(-2.46383 -0.234506 0)
(-1.69048 0.0956263 0)
(-1.52779 -0.49612 0)
(-1.31991 -0.273011 0)
(-1.55816 0.489215 0)
(-1.44798 0.396565 0)
(-2.53773 -0.219043 0)
(-1.87056 0.376597 0)
(-2.15194 -0.0765541 0)
(-1.79617 0.0644435 0)
(-1.09341 0.303341 0)
(-1.08881 0.177168 0)
(-1.77912 -0.164497 0)
(-1.98051 -0.245141 0)
(-2.26475 0.908766 0)
(-3.12608 -0.910216 0)
(-3.70941 -0.010369 0)
(-3.10375 0.425075 0)
(-2.17755 -0.282248 0)
(-1.41321 0.386385 0)
(-1.3751 0.196877 0)
(-1.90886 -0.160026 0)
(-1.97554 0.284082 0)
(-1.04886 -0.10587 0)
(-1.15253 -0.321478 0)
(-1.79305 0.256453 0)
(-2.22521 0.193529 0)
(-2.73905 0.269509 0)
(-2.32985 0.0203712 0)
(-2.5351 -0.289675 0)
(-1.79316 0.357578 0)
(-2.51842 -0.202038 0)
(-2.14297 -0.0763937 0)
(-1.7376 0.0565044 0)
(-1.4948 0.471243 0)
(-1.66887 -0.249044 0)
(-1.40695 0.333272 0)
(-1.89848 -0.430523 0)
(-1.61208 -0.244477 0)
(-1.62176 0.355033 0)
(-1.75541 0.492344 0)
(-1.84904 -0.482682 0)
(-1.3636 -0.0998932 0)
(-2.05377 0.0425872 0)
(-1.31721 0.15677 0)
(-2.32488 0.0175873 0)
(-2.25332 0.574982 0)
(-3.02355 -0.467273 0)
(-3.36099 0.209015 0)
(-2.9639 0.246214 0)
(-1.85631 -0.470167 0)
(-1.6609 0.492966 0)
(-1.54386 0.354858 0)
(-1.62207 -0.25038 0)
(-1.35913 0.23692 0)
(-1.84552 -0.191034 0)
(-1.41055 0.407082 0)
(-2.09982 -0.327121 0)
(-1.54282 -0.0561437 0)
(-2.34182 0.32256 0)
(-1.70217 -0.378419 0)
(-2.08048 0.243766 0)
(-1.25485 -0.171107 0)
(-2.01936 0.377023 0)
(-1.83726 0.316304 0)
(-1.41018 -0.423462 0)
(-2.2354 0.0978058 0)
(-2.82482 0.394802 0)
(-2.79435 -0.2093 0)
(-2.85737 0.0342174 0)
(-1.19466 0.295279 0)
(-1.87611 -0.343229 0)
(-1.23701 0.412874 0)
(-1.66891 -0.218829 0)
(-2.34545 0.344252 0)
(-1.57761 -0.06481 0)
(-1.75082 -0.392761 0)
(-2.08289 0.2539 0)
(-1.33245 0.36296 0)
(-1.68983 -0.466036 0)
(-1.49698 -0.283014 0)
(-1.4218 0.471414 0)
(-1.34732 0.35969 0)
(-1.72334 -0.459236 0)
(-1.52409 -0.275659 0)
(-1.43683 0.472673 0)
(-2.31615 0.199403 0)
(-1.34193 0.0149202 0)
(-2.05774 0.172688 0)
(-1.44226 -0.270327 0)
(-3.33506 0.0271948 0)
(-3.06599 0.732646 0)
(-2.29652 -0.265119 0)
(-2.94492 -0.0271142 0)
(-1.80297 0.495025 0)
(-1.78284 -0.487816 0)
(-1.66021 0.367314 0)
(-1.5529 -0.238028 0)
(-2.24427 0.31951 0)
(-1.39067 -0.079323 0)
(-1.53647 -0.370168 0)
(-2.00918 0.257875 0)
(-1.36847 0.00644503 0)
(-1.47736 -0.283165 0)
(-2.06666 0.184436 0)
(-2.32622 0.218926 0)
(-1.09627 -0.0906406 0)
(-1.83853 0.246432 0)
(-2.0313 0.275107 0)
(-1.20206 -0.317264 0)
(-1.84723 0.488604 0)
(-1.79327 -0.484839 0)
(-1.56276 -0.22945 0)
(-1.69788 0.360366 0)
(-1.33902 0.148509 0)
(-1.36072 0.344331 0)
(-1.93777 -0.137441 0)
(-2.2023 -0.240878 0)
(-1.36312 0.129836 0)
(-1.38142 0.33496 0)
(-1.96101 -0.12337 0)
(-2.23261 -0.222682 0)
(-1.41668 0.0200903 0)
(-2.08906 0.178976 0)
(-1.52744 -0.279447 0)
(-2.3576 0.216669 0)
(-1.59604 -0.502019 0)
(-1.57239 0.380969 0)
(-1.38789 -0.25778 0)
(-1.69971 0.480702 0)
(-2.25298 0.322436 0)
(-1.57473 -0.377518 0)
(-1.42463 -0.0829414 0)
(-2.01605 0.256974 0)
(-1.29729 -0.182928 0)
(-2.00073 0.118882 0)
(-1.22147 0.0688105 0)
(-2.24425 0.121918 0)
(-1.8639 -0.126106 0)
(-1.1824 0.1365 0)
(-1.17827 0.301388 0)
(-2.0917 -0.203518 0)
(-2.02537 -0.338868 0)
(-3.83342 -0.117699 0)
(-3.62952 0.688195 0)
(-2.80364 -0.177819 0)
(-1.43513 0.0441431 0)
(-1.538 -0.260884 0)
(-2.11354 0.161599 0)
(-2.39294 0.192491 0)
(-2.23767 0.37174 0)
(-1.68872 -0.419699 0)
(-2.00417 0.282285 0)
(-1.5105 -0.114125 0)
(-1.85392 -0.115811 0)
(-2.18804 0.464898 0)
(-1.9733 0.265972 0)
(-2.15136 -0.428886 0)
(-3.16497 -0.077967 0)
(-2.93283 0.58803 0)
(-2.30838 -0.169093 0)
(-2.92136 0.0282398 0)
(-2.31667 0.0813461 0)
(-2.5672 -0.186441 0)
(-2.87903 -0.00255672 0)
(-2.61725 0.348573 0)
(-2.057 0.26692 0)
(-1.84064 -0.417643 0)
(-2.31101 0.378595 0)
(-1.64194 -0.0852837 0)
(-1.33118 -0.129591 0)
(-2.13093 0.360361 0)
(-1.48713 -0.401259 0)
(-1.92484 0.29485 0)
(-2.23016 0.167388 0)
(-2.07117 -0.350145 0)
(-1.87606 0.0467021 0)
(-2.56324 0.2924 0)
(-1.15137 -0.272819 0)
(-1.84575 0.209074 0)
(-1.05978 -0.0505165 0)
(-2.04556 0.231047 0)
(-1.22713 -0.407831 0)
(-1.75663 0.335793 0)
(-1.91491 0.382511 0)
(-1.09253 -0.18202 0)
(-2.21799 0.170945 0)
(-2.11414 -0.365977 0)
(-2.55348 0.312645 0)
(-1.90091 0.0414748 0)
(-1.16574 -0.262055 0)
(-2.0636 0.216099 0)
(-1.86162 0.196049 0)
(-1.07605 -0.0357125 0)
(-1.85772 0.0953759 0)
(-0.998786 0.0563755 0)
(-2.06303 0.0928392 0)
(-1.05946 -0.154483 0)
(-2.24056 0.365236 0)
(-1.48351 -0.100534 0)
(-1.65518 -0.401919 0)
(-2.0071 0.280861 0)
(-2.62067 0.327088 0)
(-2.83018 -0.110738 0)
(-2.26861 0.12838 0)
(-2.42238 -0.164075 0)
(-2.0396 0.27827 0)
(-1.7945 -0.421515 0)
(-1.60069 -0.0970062 0)
(-2.28593 0.384449 0)
(-2.17371 0.349755 0)
(-2.27594 0.0193944 0)
(-2.13566 -0.0936482 0)
(-2.75587 -0.0642489 0)
(-2.19913 0.512234 0)
(-2.68004 -0.33664 0)
(-3.08102 0.280782 0)
(-2.86319 0.0882326 0)
(-2.74707 0.236933 0)
(-2.20387 0.235239 0)
(-2.47795 -0.258668 0)
(-2.32572 0.0192713 0)
(-2.3447 0.328767 0)
(-2.35616 -0.010696 0)
(-2.825 0.183025 0)
(-2.586 -0.206285 0)
(-2.11434 -0.115199 0)
(-2.12828 0.31851 0)
(-2.73928 -0.0309358 0)
(-2.27805 0.0284756 0)
(-1.13439 -0.172559 0)
(-1.79407 0.32015 0)
(-1.2711 -0.406177 0)
(-1.96427 0.366303 0)
(-1.15494 -0.184548 0)
(-1.96035 0.375771 0)
(-1.79119 0.325159 0)
(-1.29741 -0.421795 0)
(-3.22722 -0.786471 0)
(-2.1316 0.943014 0)
(-3.70167 0.0350923 0)
(-2.96373 0.503268 0)
(-1.91948 0.30916 0)
(-2.1245 0.392459 0)
(-1.41967 -0.150531 0)
(-1.59634 -0.432836 0)
(-2.39303 0.293148 0)
(-2.11782 0.222052 0)
(-1.70295 -0.354877 0)
(-1.55441 -0.0286335 0)
(-1.14504 0.312825 0)
(-1.14459 0.168812 0)
(-1.81604 -0.149635 0)
(-2.02982 -0.231992 0)
(-2.02495 -0.254389 0)
(-1.17045 0.334018 0)
(-1.80823 -0.163111 0)
(-1.16236 0.193123 0)
(-1.61241 0.483885 0)
(-1.57542 -0.50245 0)
(-1.49757 0.385624 0)
(-1.36848 -0.263189 0)
(-3.77905 0.144652 0)
(-2.04 -0.396017 0)
(-3.51634 0.975086 0)
(-2.82098 -0.17706 0)
(-1.26597 -0.383355 0)
(-1.99923 0.344451 0)
(-1.82009 0.302744 0)
(-1.13555 -0.148946 0)
(-1.59559 0.492373 0)
(-1.48217 0.387548 0)
(-1.40594 -0.269277 0)
(-1.60757 -0.502687 0)
(-1.98308 0.222329 0)
(-1.01388 -0.0580855 0)
(-1.10016 -0.266033 0)
(-1.79006 0.202065 0)
(-1.59329 0.482796 0)
(-1.54537 -0.499913 0)
(-1.48171 0.388773 0)
(-1.33417 -0.262529 0)
(-1.11356 0.299655 0)
(-1.80216 -0.153412 0)
(-1.1166 0.162582 0)
(-2.00919 -0.23156 0)
(-1.29482 0.314237 0)
(-1.88697 -0.389904 0)
(-1.35966 0.442581 0)
(-1.67013 -0.238712 0)
(-2.28072 0.0423033 0)
(-2.37471 -0.138388 0)
(-2.81827 -0.0143598 0)
(-2.39198 0.374577 0)
(-1.60779 0.0529074 0)
(-2.48674 0.210389 0)
(-1.72475 -0.288461 0)
(-2.17944 0.160876 0)
(-2.29214 0.0933695 0)
(-2.01575 -0.247034 0)
(-2.68235 0.14544 0)
(-1.90881 0.167685 0)
(-2.02364 -0.0729596 0)
(-1.99236 0.179922 0)
(-2.39598 -0.3636 0)
(-2.192 0.453435 0)
(-2.09652 -0.23688 0)
(-2.30607 0.0730093 0)
(-2.71674 0.120175 0)
(-1.99655 0.195508 0)
(-2.15129 -0.225271 0)
(-2.31067 0.0607159 0)
(-2.74684 0.0769775 0)
(-2.08729 0.219857 0)
(-1.9494 0.0374925 0)
(-2.18642 -0.375872 0)
(-2.56535 0.316366 0)
(-2.22503 0.151759 0)
(-1.79937 0.474356 0)
(-1.65621 0.371996 0)
(-1.62923 -0.50163 0)
(-1.41966 -0.24932 0)
(-2.27038 -0.277833 0)
(-1.54048 0.387851 0)
(-1.4894 0.170042 0)
(-1.97377 -0.145168 0)
(-2.07584 -0.0587063 0)
(-2.02896 0.143131 0)
(-2.47662 -0.336085 0)
(-2.22097 0.446567 0)
(-1.86855 0.489579 0)
(-1.71921 0.331483 0)
(-1.69662 -0.213547 0)
(-1.95634 -0.466242 0)
(-2.00367 -0.150715 0)
(-1.74992 0.432437 0)
(-2.33546 -0.327113 0)
(-1.66007 0.191271 0)
(-2.16497 -0.170389 0)
(-1.23465 0.103497 0)
(-1.22742 0.292496 0)
(-1.9205 -0.0976408 0)
(-2.49891 0.241518 0)
(-1.64512 0.0354782 0)
(-1.78015 -0.313793 0)
(-2.18933 0.177405 0)
(-2.38765 0.274385 0)
(-1.65342 -0.342444 0)
(-2.11271 0.213482 0)
(-1.51617 -0.0197496 0)
(-1.49632 0.138157 0)
(-1.5386 0.372224 0)
(-2.01576 -0.127387 0)
(-2.32228 -0.24907 0)
(-1.7622 0.282814 0)
(-1.04612 -0.13805 0)
(-1.93252 0.314725 0)
(-1.1576 -0.350123 0)
(-1.07083 -0.218518 0)
(-0.992381 0.00797482 0)
(-2.0073 0.165832 0)
(-1.81266 0.1558 0)
(-1.94643 -0.474553 0)
(-1.76753 0.337242 0)
(-1.68652 -0.209104 0)
(-1.93066 0.494834 0)
(-1.74669 0.44352 0)
(-1.96838 -0.164715 0)
(-2.28925 -0.351316 0)
(-1.64908 0.215082 0)
(-1.37844 -0.0352406 0)
(-2.29731 0.273065 0)
(-1.50666 -0.328576 0)
(-2.04684 0.224095 0)
(-1.98914 0.225622 0)
(-2.21967 0.266265 0)
(-1.41289 -0.318966 0)
(-1.29326 -0.0488523 0)
(-2.30309 0.082643 0)
(-2.04207 0.0878107 0)
(-1.35496 -0.157236 0)
(-1.29056 0.103391 0)
(-1.71109 0.325435 0)
(-1.99402 -0.466234 0)
(-1.85898 0.491545 0)
(-1.72704 -0.21575 0)
(-1.29944 0.224338 0)
(-1.33603 0.386028 0)
(-2.07987 -0.298697 0)
(-1.837 -0.178478 0)
(-1.50015 0.379054 0)
(-1.22396 -0.256244 0)
(-1.6104 0.451475 0)
(-1.42528 -0.488998 0)
(-2.73228 0.317222 0)
(-2.3555 -0.0332476 0)
(-2.19544 0.231966 0)
(-2.62078 -0.218359 0)
(-1.55811 -0.257398 0)
(-1.64713 0.488903 0)
(-1.77916 -0.481772 0)
(-1.5289 0.36361 0)
(-2.21422 0.197561 0)
(-2.73954 -0.167787 0)
(-2.69334 0.343555 0)
(-2.38505 -0.0964862 0)
(-2.67789 0.311551 0)
(-2.14726 0.158404 0)
(-2.30539 0.0545802 0)
(-2.47309 -0.295467 0)
(-1.97221 -0.158648 0)
(-1.04908 0.10326 0)
(-1.77492 -0.103388 0)
(-1.02945 0.249226 0)
(-2.51479 0.273965 0)
(-2.32958 0.0270492 0)
(-2.58967 -0.274336 0)
(-2.87105 0.062416 0)
(-2.75728 0.341544 0)
(-2.25147 0.236565 0)
(-2.39829 -0.0976233 0)
(-2.75897 -0.178757 0)
(-2.20794 0.21572 0)
(-2.67591 0.363803 0)
(-2.7547 -0.144058 0)
(-2.37396 -0.0992548 0)
(-2.125 0.235278 0)
(-1.94512 -0.405208 0)
(-2.40679 0.361716 0)
(-1.73696 -0.0493379 0)
(-1.63203 0.363017 0)
(-1.22953 -0.250489 0)
(-1.76939 0.433798 0)
(-1.40942 -0.48305 0)
(-1.0592 0.211708 0)
(-1.84929 -0.034584 0)
(-2.06479 -0.0745242 0)
(-1.09241 0.0308622 0)
(-2.31326 0.0823495 0)
(-2.25634 -0.239534 0)
(-2.74885 0.16751 0)
(-2.11748 0.241053 0)
(-2.01856 -0.339962 0)
(-1.35406 0.409915 0)
(-1.78307 -0.205455 0)
(-1.30496 0.26104 0)
(-1.56986 0.486555 0)
(-1.58453 -0.257224 0)
(-1.46555 0.358465 0)
(-1.80554 -0.462381 0)
(-2.33438 0.060396 0)
(-2.35745 -0.252429 0)
(-2.17324 0.234569 0)
(-2.76981 0.19027 0)
(-1.45879 0.0710221 0)
(-2.05442 -0.0777354 0)
(-1.46951 0.314918 0)
(-2.35504 -0.164006 0)
(-2.03859 -0.127663 0)
(-1.68031 0.388383 0)
(-2.37035 -0.274212 0)
(-1.61419 0.138479 0)
(-1.83289 0.339219 0)
(-2.01308 0.474065 0)
(-1.6138 -0.19938 0)
(-1.84929 -0.478886 0)
(-2.05881 -0.325417 0)
(-1.36151 0.398578 0)
(-1.31512 0.241204 0)
(-1.81666 -0.194331 0)
(-1.58538 -0.254818 0)
(-1.80974 -0.469255 0)
(-1.50487 0.36208 0)
(-1.61559 0.492424 0)
(-1.91691 0.405499 0)
(-2.10287 -0.0939697 0)
(-1.82073 0.108916 0)
(-2.48911 -0.268896 0)
(-1.7425 0.480443 0)
(-1.44106 -0.254238 0)
(-1.60825 0.373921 0)
(-1.65178 -0.499977 0)
(-1.16528 -0.0552979 0)
(-1.93469 0.0279862 0)
(-2.16644 0.00360318 0)
(-1.11809 0.157786 0)
(-2.37617 0.0651503 0)
(-2.09306 0.0756715 0)
(-1.3708 0.127306 0)
(-1.43113 -0.150903 0)
(-2.0062 -0.139361 0)
(-1.67548 0.405147 0)
(-1.60485 0.167687 0)
(-2.32865 -0.292134 0)
(-1.74286 0.485418 0)
(-1.48159 -0.251611 0)
(-1.60859 0.372246 0)
(-1.69736 -0.497309 0)
(-1.26969 -0.337008 0)
(-1.15367 -0.0958544 0)
(-2.07753 0.288843 0)
(-1.87817 0.254596 0)
(-1.59511 0.313296 0)
(-1.76561 -0.221186 0)
(-2.03409 -0.432963 0)
(-1.70897 0.48298 0)
(-1.14337 -0.110468 0)
(-1.2649 -0.346962 0)
(-2.04576 0.312688 0)
(-1.85428 0.274603 0)
(-1.23534 0.314338 0)
(-1.89095 -0.1229 0)
(-1.23406 0.13875 0)
(-2.13105 -0.206116 0)
(-2.15807 0.214809 0)
(-1.97483 -0.385319 0)
(-1.77076 -0.0166565 0)
(-2.45393 0.338505 0)
(-2.27116 -0.291626 0)
(-1.56597 0.411832 0)
(-1.50858 0.191746 0)
(-1.96776 -0.15043 0)
(-1.47128 -0.182408 0)
(-1.67123 -0.458324 0)
(-2.04609 0.435801 0)
(-1.85926 0.33432 0)
(-1.58233 0.447517 0)
(-1.87591 -0.190744 0)
(-1.50447 0.256507 0)
(-2.15735 -0.35801 0)
(-1.66341 0.366647 0)
(-1.80608 0.436706 0)
(-1.22223 -0.242292 0)
(-1.39899 -0.47577 0)
(-1.96552 -0.467536 0)
(-1.80243 0.32566 0)
(-1.7028 -0.195924 0)
(-1.97266 0.486133 0)
(-1.56929 0.359165 0)
(-2.03726 -0.112008 0)
(-1.52907 0.116682 0)
(-2.35228 -0.230926 0)
(-1.2752 0.331332 0)
(-1.89626 -0.133337 0)
(-1.26487 0.153629 0)
(-2.14196 -0.225687 0)
(-1.93618 0.4115 0)
(-1.41939 -0.46212 0)
(-1.25068 -0.214247 0)
(-1.77033 0.343475 0)
(-1.86731 -0.0213241 0)
(-2.08498 -0.0583626 0)
(-1.0607 0.191684 0)
(-1.09683 0.00382434 0)
(-2.31509 -0.0624561 0)
(-1.34247 0.220011 0)
(-1.36687 -0.0228754 0)
(-2.04034 -0.0142546 0)
(-2.58274 -0.250474 0)
(-2.28241 0.0366293 0)
(-2.15783 0.144569 0)
(-2.59828 0.377116 0)
(-2.66821 -0.184091 0)
(-2.23159 0.251224 0)
(-2.34852 -0.025041 0)
(-2.70607 0.340237 0)
(-2.35046 -0.115771 0)
(-1.41973 0.0162762 0)
(-1.41338 0.263736 0)
(-2.0602 -0.0489886 0)
(-1.27402 -0.298892 0)
(-2.13348 0.24394 0)
(-1.16912 -0.0524379 0)
(-1.91959 0.2163 0)
(-1.40535 0.374835 0)
(-1.46632 -0.283037 0)
(-1.66299 -0.487979 0)
(-1.50788 0.484352 0)
(-1.34665 -0.372663 0)
(-1.87288 0.284591 0)
(-2.06547 0.331512 0)
(-1.21181 -0.125073 0)
(-2.31329 0.0696643 0)
(-2.7496 0.151083 0)
(-2.24815 -0.230953 0)
(-2.11591 0.238215 0)
(-2.50789 -0.221163 0)
(-2.38952 0.323364 0)
(-2.31394 0.0283172 0)
(-2.83097 0.103438 0)
(-1.39438 -0.390761 0)
(-2.08367 0.346958 0)
(-1.25071 -0.135156 0)
(-1.88714 0.293104 0)
(-1.20253 0.372545 0)
(-1.77528 -0.17733 0)
(-1.18096 0.238502 0)
(-1.99339 -0.280602 0)
(-1.741 -0.192621 0)
(-1.21365 0.383308 0)
(-1.95508 -0.303391 0)
(-1.185 0.255503 0)
(-1.44134 0.377509 0)
(-1.65054 -0.501332 0)
(-1.55106 0.485873 0)
(-1.45206 -0.284105 0)
(-1.35407 -0.0209206 0)
(-2.29174 0.250345 0)
(-1.47285 -0.308162 0)
(-2.0423 0.208796 0)
(-1.72153 0.349147 0)
(-1.87487 0.411504 0)
(-1.19367 -0.223302 0)
(-1.35593 -0.458103 0)
(-2.4907 0.397375 0)
(-2.82593 -0.182575 0)
(-2.37104 -0.133312 0)
(-2.88103 0.163934 0)
(-1.75666 0.333479 0)
(-1.18175 -0.21243 0)
(-1.91733 0.390244 0)
(-1.33485 -0.451135 0)
(-1.87153 -0.411864 0)
(-1.32857 0.328615 0)
(-1.65289 -0.248456 0)
(-1.40338 0.457656 0)
(-1.8321 0.466292 0)
(-1.68427 0.364213 0)
(-1.63996 -0.492339 0)
(-1.43177 -0.238319 0)
(-1.80145 -0.389466 0)
(-1.21885 0.322267 0)
(-1.27677 0.433951 0)
(-1.60226 -0.249738 0)
(-2.10366 0.00434105 0)
(-1.05897 0.148432 0)
(-1.88657 0.0276856 0)
(-1.1062 -0.0524976 0)
(-1.06133 0.126413 0)
(-2.11577 0.0438464 0)
(-1.11614 -0.0821129 0)
(-1.8979 0.0587815 0)
(-2.18382 -0.156717 0)
(-1.9351 -0.0860667 0)
(-1.25901 0.0879319 0)
(-1.25025 0.282398 0)
(-1.73095 -0.431528 0)
(-1.53728 -0.270349 0)
(-1.34527 0.461074 0)
(-1.27087 0.351504 0)
(-1.88937 0.102221 0)
(-1.1138 -0.155605 0)
(-1.0468 0.062503 0)
(-2.10202 0.100568 0)
(-1.11751 -0.132647 0)
(-2.1166 0.0759458 0)
(-1.0562 0.083894 0)
(-1.90023 0.0824845 0)
(-2.38387 0.0956824 0)
(-2.10069 0.0958614 0)
(-1.38179 0.111185 0)
(-1.45206 -0.174757 0)
(-1.76722 -0.466549 0)
(-1.54745 -0.185367 0)
(-2.0454 0.462654 0)
(-1.85863 0.342534 0)
(-2.13545 0.173177 0)
(-1.98835 0.000857319 0)
(-2.3196 -0.363622 0)
(-2.40622 0.413167 0)
(-1.41145 0.299715 0)
(-1.98837 -0.399152 0)
(-1.48974 0.451587 0)
(-1.74575 -0.229382 0)
(-1.69777 0.349823 0)
(-1.84641 0.410259 0)
(-1.33402 -0.463355 0)
(-1.17523 -0.231916 0)
(-1.86689 0.0266314 0)
(-2.07968 0.00353457 0)
(-1.08085 -0.0422325 0)
(-1.03437 0.15223 0)
(-2.1725 0.168348 0)
(-2.46969 0.402761 0)
(-1.99523 0.0214102 0)
(-2.31605 -0.366563 0)
(-1.41576 0.287022 0)
(-2.0351 -0.383796 0)
(-1.49027 0.447726 0)
(-1.78387 -0.218928 0)
(-1.80707 -0.451998 0)
(-1.59339 -0.265235 0)
(-1.48069 0.475665 0)
(-1.38925 0.351476 0)
(-2.57293 -0.188424 0)
(-1.91118 0.367811 0)
(-2.17706 -0.052517 0)
(-1.84075 0.0400192 0)
(-2.1956 0.4007 0)
(-1.70183 -0.429475 0)
(-1.97363 0.301799 0)
(-1.51126 -0.129422 0)
(-2.63351 0.327379 0)
(-2.79333 -0.116237 0)
(-2.23511 0.1479 0)
(-2.41187 -0.150992 0)
(-2.12861 0.19688 0)
(-1.21348 -0.249924 0)
(-1.123 -0.0117408 0)
(-1.91367 0.179703 0)
(-1.42153 0.042119 0)
(-2.33538 -0.130618 0)
(-1.4186 0.28214 0)
(-2.0452 -0.0597816 0)
(-1.15098 0.0452889 0)
(-1.9481 0.131546 0)
(-1.22829 -0.193286 0)
(-2.17501 0.137033 0)
(-1.78239 -0.473132 0)
(-1.56113 -0.193627 0)
(-2.01688 0.459894 0)
(-1.83555 0.339015 0)
(-1.1779 0.0675189 0)
(-1.97036 0.112864 0)
(-1.25114 -0.173231 0)
(-2.20432 0.113928 0)
(-2.1091 -0.0339539 0)
(-1.51661 0.270816 0)
(-1.52186 0.000962606 0)
(-2.42231 -0.0987817 0)
(-2.14099 0.446057 0)
(-1.62744 -0.150638 0)
(-1.93329 0.315324 0)
(-1.85474 -0.451974 0)
(-1.41575 -0.408198 0)
(-1.26563 -0.150787 0)
(-2.06542 0.357253 0)
(-1.87339 0.30017 0)
(-2.00587 0.0885041 0)
(-2.61597 0.306804 0)
(-2.26356 -0.340082 0)
(-2.26136 0.120266 0)
(-2.60095 -0.252039 0)
(-2.15914 0.107942 0)
(-2.52589 0.387798 0)
(-2.24422 0.0354349 0)
(-2.20497 0.083612 0)
(-1.17761 0.0912314 0)
(-1.24322 -0.144971 0)
(-1.96968 0.0905726 0)
(-2.59523 0.327512 0)
(-2.09552 0.0700375 0)
(-2.39721 -0.356754 0)
(-2.24842 0.0974653 0)
(-1.22138 -0.258581 0)
(-1.65486 0.452267 0)
(-1.53684 0.378677 0)
(-1.41382 -0.488154 0)
(-1.09573 -0.128706 0)
(-1.98925 0.31408 0)
(-1.21278 -0.35348 0)
(-1.80898 0.279648 0)
(-1.10543 -0.144309 0)
(-1.98744 0.33102 0)
(-1.80937 0.293767 0)
(-1.22866 -0.37315 0)
(-2.06654 0.170718 0)
(-1.12888 -0.224381 0)
(-1.04785 0.00301357 0)
(-1.86258 0.159118 0)
(-2.08191 0.150743 0)
(-1.04602 0.0200113 0)
(-1.87423 0.142643 0)
(-1.12178 -0.20605 0)
(-1.13347 -0.214858 0)
(-1.74316 0.342622 0)
(-1.27926 -0.447244 0)
(-1.89987 0.395241 0)
(-2.08153 -0.320846 0)
(-2.26124 0.155013 0)
(-2.61137 0.272796 0)
(-1.89612 0.0885348 0)
(-1.99782 -0.13706 0)
(-1.05253 0.0810003 0)
(-1.7955 -0.085672 0)
(-1.03165 0.238821 0)
(-1.01511 0.107106 0)
(-2.09042 0.0564108 0)
(-1.07065 -0.0994148 0)
(-1.8801 0.0674116 0)
(-1.50228 0.476746 0)
(-1.62804 -0.251794 0)
(-1.41129 0.344901 0)
(-1.851 -0.438224 0)
(-1.98245 0.423754 0)
(-2.09597 -0.0964378 0)
(-1.86022 0.12453 0)
(-2.48984 -0.299342 0)
(-2.27292 0.0152881 0)
(-2.20952 -0.119537 0)
(-2.33906 0.304897 0)
(-2.77338 -0.163284 0)
(-1.85017 0.050768 0)
(-2.05695 0.0332013 0)
(-1.04883 -0.0540527 0)
(-0.996508 0.139311 0)
(-1.84154 0.395776 0)
(-1.13324 -0.23731 0)
(-1.28197 -0.465922 0)
(-1.69299 0.342135 0)
(-2.64237 -0.241333 0)
(-2.1728 0.11099 0)
(-2.53745 0.38086 0)
(-2.25736 0.000816566 0)
(-2.70135 0.238134 0)
(-2.28889 -0.292438 0)
(-2.30095 0.085825 0)
(-2.07821 0.166658 0)
(-2.21625 0.363516 0)
(-1.99017 0.284725 0)
(-1.60964 -0.398733 0)
(-1.44254 -0.106424 0)
(-1.39799 0.436574 0)
(-1.73013 -0.227024 0)
(-1.33362 0.294507 0)
(-1.96109 -0.379102 0)
(-2.09883 0.245268 0)
(-1.13024 -0.0580173 0)
(-1.23246 -0.296115 0)
(-1.89131 0.219904 0)
(-2.1219 0.170298 0)
(-1.10004 0.000172514 0)
(-1.18241 -0.2362 0)
(-1.90748 0.158536 0)
(-1.44296 0.451236 0)
(-1.72011 -0.23337 0)
(-1.3692 0.307582 0)
(-1.95421 -0.396549 0)
(-1.76848 -0.206938 0)
(-1.31976 0.407868 0)
(-1.99863 -0.337523 0)
(-1.27433 0.264145 0)
(-2.26774 0.0959749 0)
(-2.84421 -0.0427788 0)
(-2.51191 -0.179312 0)
(-2.6165 0.353974 0)
(-2.0587 0.475826 0)
(-1.85071 -0.146412 0)
(-1.87758 0.274985 0)
(-2.15296 -0.427613 0)
(-2.09916 0.481181 0)
(-1.83089 -0.143086 0)
(-1.90628 0.281899 0)
(-2.13196 -0.435356 0)
(-1.81777 0.313626 0)
(-1.18929 -0.170826 0)
(-1.99419 0.365192 0)
(-1.33278 -0.412845 0)