/*--------------------------------*- C++ -*----------------------------------*\
| =========                 |                                                 |
| \\      /  F ield         | foam-extend: Open Source CFD                    |
|  \\    /   O peration     | Version:  3.0                                   |
|   \\  /    A nd           | Web:         http://www.extend-project.de       |
|    \\/     M anipulation  |                                                 |
\*---------------------------------------------------------------------------*/
FoamFile
{
    version     2.0;
    format      ascii;
    class       volScalarField;
    location    "22";
    object      Theta;
}
// * * * * * * * * * * * * * * * * * * * * * * * * * * * * * * * * * * * * * //

dimensions      [0 2 -2 0 0 0 0];

internalField   nonuniform List<scalar> 
3012
(
-2.62625
1.78267
4.24889
-0.25773
23.4025
7.29565
-18.0393
-2.24628
-2.49619
3.76618
-2.71988
3.68124
1.01062
-0.698673
2.53228
0.865334
-16.7724
-21.367
15.115
21.1051
1.1766
-0.00417097
1.79892
0.862786
4.08172
-2.62965
5.39071
-1.90748
-1.57551
3.92642
-0.102065
2.34231
0.442173
2.86729
-0.886537
1.48572
2.96238
7.83213
-6.05922
-1.74419
0.958895
3.10167
1.16962
-0.954758
0.895486
1.12686
-1.18403
3.18362
0.728426
1.65061
0.159877
1.02629
-4.07121
1.67328
1.40949
6.82085
-5.38489
-12.5954
3.35612
10.7044
-12.5161
10.5715
19.3266
-3.32282
0.958167
-1.72325
4.13374
1.40745
2.03681
1.1095
0.93795
-0.0162454
2.29693
1.37718
0.0801623
-0.391556
-0.667415
2.71992
1.8392
0.218113
0.9169
-1.43457
1.12776
3.48076
2.88742
0.867757
1.01427
-0.807399
-0.171464
3.66946
-1.39107
2.47259
2.94599
-1.79407
-0.271618
4.00267
-5.59487
3.83027
-3.10611
6.24866
3.98405
2.05331
0.35411
-1.63875
3.39122
-0.857939
3.01842
-1.05912
2.23105
0.808366
-0.329562
1.19642
-1.06134
3.28078
1.20773
1.02986
2.43466
0.0792186
2.32569
0.205483
-0.862976
-0.0520997
0.829478
2.70751
4.43002
-9.10618
7.19652
-6.31261
25.2698
-26.5358
4.1813
-4.79592
-1.72598
1.23416
8.59701
5.09581
-12.9979
12.0523
20.911
-7.47981
9.18673
-2.24829
-5.22056
5.30949
6.88824
7.31839
-4.66607
-1.74871
5.87856
-21.0583
-5.99217
19.2214
0.252599
-0.800355
1.83597
2.90972
2.28039
3.22359
-1.04715
-0.0891651
2.55738
-0.418386
2.00827
0.0714295
-3.80696
-4.61907
5.47174
6.24505
0.451345
3.0245
-1.05989
1.48853
9.95611
9.23616
-9.15698
-9.04847
-7.79931
10.9084
12.7074
-7.2094
-7.20691
1.67298
7.69702
-0.789771
3.43267
-1.5543
-1.08628
4.10577
-0.201109
2.70071
2.14744
-0.792627
2.28094
-0.182421
2.01262
0.0673283
2.01391
3.08358
-1.03992
0.084205
0.861168
-0.443854
0.826517
2.10563
1.17606
4.53048
-2.13606
1.35925
1.45334
1.26164
1.09653
0.244694
1.09133
1.6667
0.0555174
1.07209
3.29226
1.44909
0.490519
-1.23141
0.34819
1.02754
0.866372
0.466152
0.177227
-0.24849
1.40008
1.96659
0.895054
1.57627
1.06994
-0.00821365
0.86006
0.212356
1.13026
0.500669
3.04184
2.45633
-0.482636
-1.14086
2.28416
-0.909714
3.13617
-0.042467
-0.193842
3.19389
2.46162
-0.775213
1.67839
-1.74899
0.530326
4.02065
-1.86997
4.19367
3.80306
-1.38187
5.83869
1.40727
-2.00787
1.69021
1.04328
1.78133
0.238673
-0.2403
0.767814
0.206779
0.644655
1.35952
2.19386
-0.480029
-1.09965
2.8809
1.2789
4.14771
1.04537
-1.82456
1.5087
-1.23175
3.26198
0.445801
-5.01033
2.45385
0.418389
8.11069
0.881909
1.51179
0.198877
1.05092
15.4332
-15.1619
-17.3379
13.6846
-15.1396
20.6683
3.71976
1.18675
-0.32562
-1.93235
2.69903
4.32001
3.04084
-0.708289
-1.6457
4.20249
1.96651
-1.32209
3.47625
-0.00742946
-1.10338
-1.2526
1.49826
1.08226
5.51818
-1.17779
-3.7094
2.54376
3.26074
3.53936
-1.03175
-0.787238
0.568986
1.42774
0.354783
1.33357
-0.0123125
-0.863709
2.1584
3.08635
-4.14003
0.234975
2.73429
8.47333
2.46165
0.53492
1.47971
-0.492601
2.12745
-0.0601676
1.99706
-0.0548677
1.27944
0.554413
1.35966
0.227138
-0.17846
3.48495
-1.20062
2.14626
1.05171
3.51843
1.29885
-1.16328
0.806712
1.97735
-0.0411213
0.0490678
0.715094
0.0962134
1.9767
1.27865
-0.582534
2.60306
2.68625
-0.415229
0.2427
3.21361
-1.07133
1.88934
-0.151348
2.78476
-1.71557
1.3879
-2.76356
3.52979
5.82711
-0.191221
2.2141
2.05455
-0.448578
-0.150339
-0.494284
0.288868
1.25049
1.9209
0.00933139
-1.45044
3.63656
2.0543
4.07777
-1.86791
-1.23305
5.03263
3.2561
-1.93591
-2.02155
3.03709
-0.991947
2.38903
-0.270744
3.12113
2.37708
-0.866904
-1.14413
2.51225
0.906017
-1.1366
1.3498
3.33563
-1.21099
-4.94026
9.64864
7.05703
1.6241
-2.84213
1.26795
5.95205
-9.32655
9.15461
-10.8178
7.55469
-0.832553
-0.457198
3.1628
2.74163
1.573
-0.302147
0.670555
1.86693
-0.275827
2.5148
0.766131
1.00318
-1.26193
-0.03139
2.28853
3.54003
-2.1565
1.39398
3.9787
0.23292
-2.65062
2.68557
4.68043
-0.502038
0.117114
-0.0910465
1.88672
-0.0364231
6.07802
0.619561
-3.71874
1.38325
1.37467
1.21056
1.25253
0.79626
-32.3745
5.49387
-8.52595
30.2406
5.37485
2.34374
0.290234
-2.46636
1.19723
1.12259
0.568041
0.541383
7.52639
8.77207
-5.28448
-2.60214
2.9095
5.19118
-2.23102
-0.409306
1.82604
0.189498
0.203536
1.73095
-1.36225
-2.10323
4.76619
4.05504
0.975742
-1.55427
0.942409
3.65226
-19.9533
10.0447
-10.1727
21.4124
1.84604
2.13464
-0.424359
-0.18936
0.778036
-0.684228
1.09377
2.59978
-0.643547
2.60449
2.00191
-1.26506
0.176115
3.4831
-1.17297
1.85496
-20.1076
-16.3641
14.0308
18.6806
0.0385618
2.85411
2.34786
-0.637425
5.5607
0.147578
2.98508
-2.71868
-0.313666
2.47572
-0.334449
2.49329
-0.0271819
2.1991
-0.194069
1.97573
3.02143
0.592449
-1.15132
1.44506
22.2431
-20.933
-5.01949
6.19118
4.04163
3.16766
-1.60343
-0.871453
4.45443
0.594493
1.73486
-2.22402
0.24762
2.37128
-2.67227
5.37805
0.970263
-1.06071
3.06701
1.2875
2.60535
2.92173
-0.858107
-0.59498
0.520129
1.84021
-2.04052
4.48079
0.00115591
2.24325
-1.13458
3.26845
0.200718
-1.18732
1.35297
2.78513
1.30293
-0.313941
0.0471265
2.21972
3.63137
2.48418
-0.319811
-1.51242
1.19353
-0.551076
0.432033
2.31778
0.0598898
0.910715
1.11859
1.95439
-18.5987
28.469
-30.7529
16.0799
0.695982
1.9214
-2.2945
5.0054
3.85178
2.13296
-1.64067
0.190499
-0.632314
5.51923
-2.2816
4.41504
-14.8719
19.3507
-10.6579
13.9621
2.01817
-14.9486
2.43421
19.828
-2.06983
2.2638
3.85325
-0.567821
-0.278024
3.35455
2.29266
-1.12304
-3.83167
3.75256
-1.7181
5.95902
1.52044
-0.929656
0.315465
3.09831
0.350436
1.38512
0.629018
1.0406
-3.06372
2.30055
4.15904
-1.09308
1.57039
2.85633
-0.83081
0.858382
1.02142
0.941431
0.597949
0.945926
2.84622
0.0423781
1.64065
-1.20344
14.0889
1.55806
4.79889
-8.05581
-2.73343
3.48452
-0.395104
5.50171
-0.975286
-3.32683
4.23365
7.10352
-6.33314
7.15264
-4.46955
11.5122
3.91489
-12.2009
10.3386
-5.01329
9.76246
-2.53379
8.32937
-2.78403
-3.4939
3.90257
5.3434
-4.81479
1.17088
1.12025
0.326888
0.511207
-0.219776
4.86072
-2.21061
2.82588
-24.1832
-4.43711
23.852
4.80912
-1.54548
3.63058
-0.377673
2.4844
5.40506
-2.63079
2.98064
-0.241452
0.822814
1.23963
0.785569
1.03566
4.04584
2.10176
-1.60667
0.341076
1.59469
0.442923
0.144493
0.485784
-16.5981
-21.0044
16.9058
21.058
2.01785
3.92628
-1.44329
0.257711
3.35757
-0.950548
-0.672268
3.24889
2.81104
0.616523
1.43102
-0.317624
3.35741
2.72714
-1.03831
-0.649442
1.82599
-1.00872
0.573497
3.45632
0.316916
2.23728
1.76281
-0.317459
-8.64222
10.9057
10.3178
-9.83706
0.619392
4.14587
1.08996
-2.75383
-2.97149
2.59449
5.41938
0.0451173
-2.07683
-3.68574
3.16097
4.84018
2.32299
-6.0586
8.79659
0.393557
-0.730837
-2.72975
4.42225
2.78378
0.443136
3.35748
7.35181
-3.98758
2.13126
-0.0876123
2.37192
-0.289053
2.72839
2.0496
-0.189549
-0.792836
-2.05967
0.991074
6.20263
2.26187
1.99364
-0.405572
-0.578427
2.15094
-2.31529
3.19072
5.56733
-0.326868
2.77616
0.188875
1.64481
-0.792184
4.76544
0.427784
2.20143
-2.23923
3.8887
1.22488
-2.12925
0.779047
0.00305789
2.27626
-2.01787
4.32315
-0.454115
0.610127
2.66364
1.45439
1.48606
1.65687
2.7072
-0.418839
3.88772
-1.02528
-1.42482
3.36985
2.30924
-1.29036
2.74119
-0.752423
0.868114
4.47746
1.5186
-2.04462
-1.3513
3.32029
2.46439
-0.436581
3.16357
-1.22727
1.36669
0.416832
-1.06521
3.02296
3.20708
-0.750023
0.729926
1.59606
3.32657
-1.11203
-0.443731
0.180364
2.41117
2.14297
1.18079
0.958802
-11.6715
13.7304
-0.356083
3.11051
2.29831
-0.992655
-4.83362
5.85596
5.54388
-4.83799
3.74909
-8.66165
-2.65279
9.15836
2.7701
0.638882
-0.550266
1.33415
6.85749
0.801792
-0.552025
5.28044
2.92007
0.518562
1.88479
6.46045
-0.432401
9.41961
2.57032
-7.77837
-2.8701
3.40852
5.42015
-0.884287
0.853909
0.444684
0.882926
1.19392
1.14082
0.671544
1.02036
0.527805
-5.55611
0.83955
5.88346
-0.142893
2.51411
1.84951
-0.590193
0.303269
1.75535
-0.286585
-0.00884621
2.06158
-2.9133
1.19823
5.09811
8.77069
1.40967
-3.53202
1.53378
6.71878
-1.85217
3.14067
4.52718
-0.598451
-3.38887
6.37766
-0.4747
3.66137
3.16514
2.05905
0.0753401
-0.961935
-0.588511
2.9242
-0.671817
2.97934
1.58738
-3.7955
0.269565
5.77031
2.88993
-0.138661
-0.930098
1.87209
0.995331
-1.19816
3.44483
0.987315
4.46881
-2.19472
0.898424
1.35294
-1.43485
0.900923
0.341705
2.63932
2.78256
-0.679548
-0.581558
2.69766
1.56285
0.617857
3.39517
-1.12799
-0.0365042
-0.962121
2.65061
1.67572
0.418471
1.51568
2.17319
-0.207312
1.33846
-0.621417
0.973968
2.77605
-2.43883
3.9202
-1.75586
4.56999
3.00687
1.17574
0.50702
-1.14261
-1.14016
3.15852
2.66521
-0.588153
2.10356
-0.879484
-0.285279
2.6489
-0.593411
2.76322
0.0458139
1.88165
3.75994
-1.66132
-1.45171
3.90316
3.08835
-2.2895
-0.503366
4.89886
1.87911
-1.08526
0.210949
3.30601
3.1898
2.17322
0.0411165
-1.03457
-0.749999
2.89169
1.2634
0.988743
3.5585
2.08493
-0.0366446
-1.54952
9.51831
1.23213
-4.34506
2.89183
0.815587
-0.713744
-9.80386
9.81971
4.74731
0.662922
1.63166
-2.49372
1.1193
2.28848
0.643421
-0.497896
0.650483
-0.433178
2.36459
1.17038
1.5196
-1.04384
3.25911
0.604814
-4.26128
5.69091
4.09581
-2.6654
3.30696
-4.75796
-10.011
8.53997
1.16504
2.11319
0.607719
-0.335471
1.15163
-1.1612
1.17946
3.40962
0.289651
2.44604
1.70918
-0.377676
-0.987852
2.1042
3.28958
0.051224
-0.336095
2.92944
2.22755
-1.13224
-0.249641
2.35145
-0.101128
2.07028
14.0375
-7.18086
-5.1466
10.0919
-1.00403
0.245299
3.28776
2.0158
2.7178
-0.193211
-0.469203
2.39486
3.86742
-1.52171
3.2881
-1.17872
3.05189
-0.571321
2.89621
-0.58734
2.67992
1.30169
-0.663192
0.680662
1.13116
3.26347
1.08064
-1.03991
4.26073
-1.76846
0.362036
2.27641
3.31871
-0.968577
2.55996
-0.292081
-0.0935206
1.15551
0.691831
1.93794
1.12409
3.79482
1.22672
-1.47541
3.59409
-1.42679
0.566892
1.55302
3.02068
-0.710393
4.10058
-1.79759
-3.42789
-2.82595
4.39095
4.93253
-0.562095
3.64719
2.79996
-1.40837
-0.141144
2.17738
1.63415
0.287395
-0.216205
2.27338
0.875362
1.16291
-0.855469
3.75677
-1.77374
5.25311
0.415403
2.29891
1.45238
-0.352949
3.02605
-0.777759
2.53002
-0.227653
5.51615
3.41468
-3.19639
-0.996167
4.37717
3.20187
-2.06548
-0.940138
-2.68309
10.454
-11.7927
0.855152
3.457
1.61843
0.552391
-1.20847
0.411818
1.01302
0.799718
0.237954
0.456564
0.148193
1.01745
1.44676
0.983434
0.102249
0.728691
0.412683
1.14895
-1.44383
1.09931
3.74723
-0.993098
0.416171
0.695306
2.14991
1.86816
-0.0787417
-0.83288
1.11011
1.53171
0.417387
2.68803
-0.677592
-5.70548
3.39912
6.63388
-2.14683
3.43093
-3.63065
7.5704
-7.39245
2.00666
0.620769
1.13979
-0.158134
5.51719
-0.310843
3.65649
-2.81419
0.24297
1.6754
0.315095
1.35743
0.508109
2.88934
1.65017
-0.785192
0.759149
1.253
0.559406
1.01623
2.91821
1.3454
0.823854
-0.895809
1.67919
0.561823
0.189301
1.03284
-0.493581
-2.26897
3.13419
5.02593
3.18657
-2.30225
3.76409
-1.68396
1.54095
0.726474
0.287815
1.11144
1.3719
5.34103
1.26669
-2.67009
1.92817
-0.637546
-0.0435846
2.6058
2.42486
-1.91083
0.376352
5.02829
-1.96822
-0.953122
4.26414
5.81104
-0.478001
2.40864
0.693702
1.43114
2.22181
0.000439865
2.02409
-0.0803834
4.62887
-0.570271
4.74102
-1.77911
3.15874
4.27554
-4.10991
-5.47057
4.74422
-2.29493
2.71282
-0.311678
1.99962
-0.706213
0.124518
2.6716
3.05578
0.616291
1.68646
-0.850817
2.51488
0.57042
1.42887
-0.591285
2.22013
-0.0225527
-0.171916
2.11088
-1.21496
2.12263
3.62815
0.243898
-14.1849
14.2711
12.2049
-13.3119
3.34756
-0.73533
-1.43749
2.85182
2.28284
-2.20647
-0.794359
3.69531
0.351152
0.746339
1.47888
0.932899
-0.640433
1.49331
-1.53265
2.51487
4.22691
-1.3023
-1.71828
4.39046
0.0598
2.75083
-0.676967
1.96798
5.19738
0.309545
2.28368
-2.5108
0.113983
1.66358
0.220593
1.49101
3.22956
-0.727512
-1.94867
2.08892
1.64259
-0.833802
2.74526
0.298001
-1.64748
3.95524
-0.311149
2.5898
0.111049
1.55257
0.247373
1.2711
-1.24716
4.56357
-1.86538
4.04515
1.67817
0.573429
1.29404
0.269032
0.000871916
2.08983
2.44039
-0.503504
1.14807
1.98949
0.772785
-0.0338727
-0.890268
1.16939
0.619666
2.87491
-0.767475
-1.36632
3.70452
3.06066
-0.0193764
-0.0313158
1.42502
1.51927
-0.0270599
1.03322
1.65419
0.553485
1.91314
-0.137705
0.351572
0.975907
-1.7958
0.794843
0.161754
2.82678
2.40854
5.20167
-2.31745
0.500282
16.4828
-10.3622
10.9247
-6.05235
2.23222
1.10625
-0.302027
0.439435
6.86235
-16.0402
21.8929
-1.63106
-5.82867
-1.16094
9.37067
4.72877
2.91173
-2.56634
-0.212233
4.98376
1.35303
0.402188
-1.01647
2.81144
1.06809
0.963224
-0.492191
2.6062
0.202377
1.39541
2.33206
-0.561179
0.563171
0.416424
1.47872
1.23941
1.56937
0.863054
0.176632
0.909041
1.18997
0.772941
4.9297
-1.97529
1.63434
2.03684
-0.0168734
-0.318408
3.27886
-1.02187
-0.887272
3.39607
6.86442
18.4159
-12.6492
-1.54061
-1.95984
3.71992
3.91054
-2.20933
-19.6871
8.21401
18.0844
-11.3323
4.97529
2.69549
1.7261
7.23626
3.05935
-0.640778
2.73987
-0.78035
0.22669
-2.30603
2.7656
5.11934
1.86132
-1.28811
2.50255
-0.65243
1.69264
-0.780665
2.86196
0.542234
-1.10045
3.44154
0.384465
1.84142
0.226992
1.23461
0.46525
1.17835
-1.41285
4.30755
-1.81361
4.37825
0.12336
0.536696
1.27258
1.05349
-1.87202
4.02991
-1.44766
4.6722
1.8936
-0.53708
2.51443
0.275825
2.02744
-1.78773
4.20613
0.271275
3.27381
3.6544
-1.05516
-1.40086
-0.41095
0.631186
2.515
1.40189
0.710144
0.853059
-0.967071
2.5577
4.95995
1.92896
-3.00941
0.250025
3.23712
1.33908
-1.13629
0.708476
2.4844
-2.1039
3.67892
-0.687438
5.62585
-4.22966
0.346571
1.10195
3.48744
0.589187
1.59544
-1.5137
1.49961
-0.302012
-2.17752
3.50102
0.194812
-0.21471
1.84412
2.30664
-18.4283
-3.72197
16.8623
3.24461
2.64772
-0.483047
2.15885
-0.0692937
1.22003
0.507398
1.93296
-0.140502
0.173746
0.0892899
1.63547
1.7056
0.892797
-0.43772
2.6068
1.16019
1.95527
0.330098
2.53771
-0.485296
0.519218
0.598834
1.4176
1.20452
-21.6757
14.3607
-11.7358
21.9935
0.368386
0.375051
1.42445
1.13213
1.74716
-0.146824
-0.296706
2.10472
1.53096
-0.0410926
2.04967
0.660737
0.242066
0.379452
1.3095
1.05846
0.322058
1.99375
1.84879
0.188163
-0.164228
1.46735
2.12508
0.406249
-0.760479
2.35677
3.08691
-0.159175
0.732307
0.226056
0.679208
1.24035
1.07953
0.841453
2.94622
-0.817121
-1.57509
-1.87394
6.2357
6.35728
-0.579882
-0.12284
2.26965
2.69086
1.08913
-2.12399
4.64077
1.0443
-1.24834
0.179324
1.99912
3.30668
0.0757595
1.67596
0.375134
1.0314
-0.910272
3.10889
0.749549
1.5922
1.68252
-0.04426
0.789792
0.702052
-0.504681
3.0124
-1.14127
2.30604
1.91646
-0.0573359
-1.03607
2.98509
-0.454543
3.44399
-1.03389
2.74244
-2.21669
0.887883
1.5858
4.70902
-6.60184
-23.862
6.91306
25.1568
0.17543
-0.31345
5.28293
4.76559
3.85454
-1.65741
-0.233713
2.15162
5.23014
2.26406
0.676066
-2.65123
3.20509
3.63181
-0.945219
-1.42645
-1.09819
2.6537
2.51839
5.73457
2.97342
-3.36575
5.11685
-1.34767
-0.0173117
2.72006
-2.12746
5.22379
-0.684011
-0.325077
2.72707
0.876546
1.94565
0.672127
1.33863
0.173401
-1.78634
1.43678
-0.34216
2.77552
-2.49242
1.78349
0.934701
5.665
-0.6499
2.41512
0.86104
0.902031
3.38417
3.0414
-1.26656
-1.05958
-0.854964
3.09173
1.93993
0.349097
2.26302
-3.97176
-0.61405
5.53762
-1.52589
-0.605101
3.53306
2.84565
2.45049
-0.0442514
2.02068
-0.445709
2.25009
-0.625288
2.82215
-0.415146
-0.568642
1.75213
0.653471
2.88481
1.8366
-0.805932
0.208645
2.81491
3.70756
-1.58713
0.55479
1.51598
4.79133
-1.72324
-1.34573
4.7695
-0.254106
-0.313893
2.21356
2.3894
1.6478
-0.583046
2.72515
0.374642
-1.13756
1.82127
3.54318
0.462103
-1.00003
-2.05832
3.39917
4.58379
-1.00181
1.01956
3.23223
1.14522
2.32265
-1.06712
1.8009
-1.44378
-0.67117
-2.26449
4.11089
5.27921
1.85194
0.930273
-2.94685
5.78621
1.27961
-0.226216
2.3886
-0.174014
3.68973
-1.38072
3.52613
-1.81822
-0.205321
1.1934
2.19244
0.733644
4.1795
-2.08317
1.41514
0.521083
3.59501
-1.49429
1.88927
0.537159
-4.68483
-4.29545
6.55935
6.15286
4.37011
-2.13364
1.57056
0.602122
0.459093
-1.97479
3.45372
1.28448
-2.88658
7.82343
-4.54233
5.89107
-0.632205
3.66711
-1.61814
2.31486
2.33478
5.23429
-2.34417
0.366797
-1.71114
4.05886
1.35001
0.780135
-11.5033
6.46869
-7.14586
12.1497
2.49139
0.973193
0.960966
-0.436112
-0.25119
1.68485
2.29104
0.380685
0.393816
0.27962
1.58479
1.31189
0.945471
0.923302
1.88817
-0.0586524
3.23223
-1.82804
2.25635
-1.07136
-0.177527
2.2596
2.88851
-0.717048
-2.03372
4.07474
2.31759
0.125407
-0.952102
3.0505
2.06214
-0.0933634
0.946104
1.96301
-0.199315
0.815825
-0.488132
1.73471
3.5341
-2.21785
2.92007
-0.65679
5.03205
1.91365
2.49546
-0.585463
2.73724
-0.40593
0.153029
3.04969
1.68956
-0.546605
1.47459
0.831739
0.665659
3.46074
-0.774592
1.89496
0.528997
3.03535
2.5002
0.816161
-0.5703
1.52446
-0.110362
2.05968
-0.0198499
2.34206
0.530041
-0.722259
1.5612
2.81273
3.42208
-1.55567
0.645399
1.03335
2.15497
-0.0694859
0.577223
1.36137
-0.435696
-0.774352
2.91239
2.58589
1.99437
0.237323
0.133328
1.87023
4.22228
-2.61865
3.83825
-2.96487
2.2542
3.13402
-0.0180358
-1.07279
5.7684
-0.156203
3.66606
-1.17242
2.233
-0.420461
-4.93512
6.40079
-2.27608
2.89107
-0.722758
4.65721
-0.686199
3.02049
2.67432
-1.08692
3.69648
1.25343
0.699027
-1.77445
1.2886
3.25129
-1.33527
0.527116
-6.12703
3.67934
-2.29913
7.6721
2.88109
-1.831
4.82355
-0.3931
5.60917
1.10011
1.6106
-2.76215
-3.93546
1.95104
1.28206
7.14169
1.61316
0.0021179
5.10136
3.31271
0.203671
2.72132
1.42943
-1.07819
1.47866
-2.05944
3.83059
0.262295
-0.649974
1.06513
2.81009
1.06364
3.20204
-0.270768
2.56075
-0.939967
-1.32171
1.44553
3.59248
0.746567
0.398676
2.59281
-0.492767
1.82519
0.465993
1.96433
-0.0400752
1.84544
-4.32648
8.4135
6.10423
-6.1492
0.533284
1.97364
1.43743
0.00895915
0.469246
0.259914
1.51447
1.73333
0.353875
1.70666
2.65829
-0.573334
-0.128641
2.09796
2.18748
-0.014266
2.04209
1.93263
-0.176768
-0.241351
1.42327
-0.653946
2.42942
0.360339
-0.344497
2.26973
2.33479
-0.306118
-3.2153
2.73909
0.238104
6.27592
5.56025
-1.2727
4.96389
-2.24653
3.7605
-0.661883
1.49469
-2.77141
1.6018
0.220197
-1.47767
3.49789
0.767559
0.271758
1.53649
0.888485
0.548616
1.47474
1.30752
0.407916
2.58818
1.56693
0.0634995
-0.919067
-1.23933
5.73566
-2.65192
4.51139
-0.105612
2.18372
3.29961
-1.28588
-0.510966
0.993953
5.64163
-4.58318
1.89183
2.13996
6.47371
-2.50467
-2.85631
2.5483
0.556808
6.12549
-0.766997
1.6326
3.72347
-2.7909
-14.1181
23.2828
11.9803
-25.5195
0.135815
2.71916
5.19982
5.90807
-0.974989
3.31926
3.43858
-1.1643
0.728079
4.71899
0.431826
-3.27637
-1.12528
3.18064
1.539
0.369249
3.16169
-3.45556
5.07711
-1.78663
3.98526
-0.972852
-2.3416
2.26303
2.8451
-0.533517
2.31486
-1.15543
3.10914
1.45721
-1.00508
0.633923
2.60193
-0.600194
-0.976526
3.11263
1.44195
-5.43741
5.62472
-1.4007
1.34212
-0.375509
0.683376
2.26305
-0.181204
1.74017
-0.500691
1.84863
-0.76492
1.2189
0.24927
2.1288
0.00704032
-0.284162
2.32658
2.50802
-0.0430397
1.96382
2.15344
0.045115
1.69499
2.61124
-0.554465
0.27506
4.7202
-2.38908
1.07813
1.18954
-3.79617
-9.48716
10.0364
4.55439
0.0235365
-1.69512
4.08565
2.32749
0.341844
3.93228
2.18362
-1.73467
-4.24887
5.40063
-4.43579
5.2975
2.10676
1.19261
-0.405636
1.0775
2.20331
-0.127721
0.480276
1.61666
-1.37444
3.52114
-2.16903
2.70328
-0.924866
12.8445
4.69865
-8.47022
-18.1109
6.15796
-4.68399
18.9974
-1.49647
-0.94945
2.65759
3.3399
4.88435
0.306649
2.326
-1.71605
0.882723
-3.35764
6.49319
2.118
7.71946
0.389845
0.760754
-6.82008
3.78558
-3.9659
-3.04796
4.79471
-0.932063
2.06149
3.00695
-0.0999519
0.890587
0.702814
0.124019
1.56766
0.0675756
2.46722
1.85587
-0.403738
4.31487
1.4804
0.450592
-2.50215
-0.482854
2.68817
-0.214281
2.555
0.828683
-0.480526
1.32611
2.51437
2.43018
-1.43063
3.47646
-0.465409
3.50596
-1.50663
4.01277
-1.11504
0.204982
2.13005
1.6514
-0.245899
-27.0682
8.23871
-10.5197
25.5544
2.30285
-0.2928
2.30369
-0.260605
0.379738
3.46732
-1.68382
1.47287
2.71394
-0.516415
1.39833
0.779904
6.87249
1.89449
-2.88181
2.1878
0.874683
-0.188654
2.16093
1.12238
1.99729
0.224788
0.0812186
1.57456
1.95841
-0.787998
2.75572
-0.00483059
2.6988
-0.779658
2.03152
-0.136132
-9.87768
12.1964
15.5596
-3.86911
-2.34003
4.1594
-0.806872
2.85766
5.24961
-2.17503
3.74507
-1.12529
5.34581
0.63336
-3.4916
1.75939
2.18582
-3.75912
-0.581694
5.50457
-6.85929
-23.5018
5.41411
20.8032
-2.18611
2.10053
4.29664
0.342015
-3.51745
-2.53772
4.66971
3.71489
-4.35209
0.0578341
2.7942
8.29278
1.6472
0.287364
1.47399
0.351554
-4.14141
4.05344
-3.63058
4.16298
-1.24245
2.69
2.56378
-0.982835
0.682284
0.228858
1.55199
0.92135
0.381071
-1.80057
4.28682
2.06338
-1.007
3.84419
3.18482
-1.4283
-2.90832
3.19297
-0.895362
5.02002
2.70838
3.68112
-0.517407
-1.48535
3.10079
3.5921
-0.856395
-1.19505
-0.0991486
3.9131
-1.87655
1.97845
1.77789
-0.0127108
0.861897
1.10182
0.0752504
-1.45015
3.82599
2.12027
-2.66813
1.2838
1.13589
4.67668
-1.17086
-0.837036
3.46295
3.6667
8.05448
-0.0409517
3.45302
-3.70671
2.18166
3.9726
-1.78231
0.255297
2.92496
1.7154
0.263939
-0.898918
0.949275
0.841424
3.21336
-1.31926
-0.661924
2.32262
2.93464
-0.179662
-0.625253
2.58336
2.85185
-0.280558
0.922597
23.723
5.20738
-17.3744
3.17333
0.0695231
1.81555
-1.32267
2.5918
-2.86146
5.63878
-0.505188
0.649693
4.05183
1.40825
-1.71407
-0.806802
5.7288
-2.52986
3.74359
0.470121
1.35496
0.495124
1.4516
1.66366
0.138486
1.13986
0.642779
-1.65708
2.18755
-1.62464
2.40201
4.96727
-1.45164
4.60317
-1.29115
4.08535
-1.84172
-0.145988
2.4246
4.86551
1.24961
-3.83463
-0.524308
4.64029
-1.04149
-2.19145
3.33114
1.93038
6.11935
-0.753611
-4.06536
-1.84678
1.99064
3.89258
-0.0497442
6.85922
-4.81821
-1.92411
4.23363
0.144894
3.75895
-1.69967
1.73026
2.93859
-1.46601
-4.5413
5.91427
-2.62949
0.898569
5.89537
2.17171
10.4255
-15.3751
-9.39723
16.9708
-0.552689
9.6223
5.3543
-0.272926
2.53297
-0.29247
2.05547
-0.678194
2.7554
1.37319
-0.717452
0.570268
2.17394
4.35674
-3.41425
-1.31087
4.35377
4.71014
-1.22092
-0.880437
-0.189432
3.70739
-2.12925
1.68562
2.24693
5.33633
0.646605
-2.50569
5.85353
-0.00819891
1.89411
-3.65532
-4.50325
2.9577
6.28642
-1.18779
3.73084
1.52012
0.597014
-1.82023
0.340719
2.59614
1.81442
-0.454529
-0.31135
1.98897
0.157981
2.47814
5.96878
1.35299
2.00829
-2.55607
14.5088
-22.3315
20.6154
-16.277
0.80169
-1.10787
3.42274
1.51999
1.74933
0.176077
2.30792
-0.121172
2.65915
1.41235
1.01307
-0.441975
-0.477889
2.67187
2.94592
-0.749363
1.75032
-1.36883
0.448195
3.52204
0.240698
1.53175
-1.22687
3.31109
-1.03289
0.792601
3.21247
1.39116
1.86927
0.554035
0.0397465
1.81086
1.89947
-0.0021955
1.99943
0.0774388
2.48447
-0.0540329
-0.347608
2.18854
-1.30932
4.06874
3.47416
-1.74549
3.31155
2.04759
-0.836775
-2.37051
-22.0966
8.69896
-7.18548
23.2609
2.20316
-2.42389
4.54142
0.0345094
0.470777
1.431
-1.50201
3.62177
0.531019
-1.3205
3.45286
1.69244
1.75334
0.496195
-1.84894
4.11438
-0.548048
1.1297
2.66839
0.572362
-0.970012
3.03096
1.42199
0.573857
3.70528
-1.56669
0.786926
1.53185
1.64439
-0.277794
3.67491
-2.43433
-1.23661
0.400191
2.00211
3.47492
-1.69819
2.88659
-0.599158
4.08304
2.73125
-0.654266
3.13253
-0.938039
2.81591
-0.0407328
-0.70871
2.06075
0.491085
2.14206
-2.73295
5.46615
8.1684
1.58811
-5.71098
1.43939
5.86414
-2.92489
4.70683
-3.88299
-2.20416
-1.08344
4.78712
3.77024
-1.58272
3.73317
2.87544
-0.685832
5.47323
13.1816
-8.81366
-1.59682
3.91385
7.1367
-1.34479
-3.49566
-3.85739
5.30437
5.00671
-4.57524
-0.00709853
-0.0525069
2.02269
2.02987
-0.641249
2.58051
1.52966
0.421348
0.325314
1.81119
4.01527
-1.74877
-2.56819
1.10869
5.15728
1.54423
-2.79798
-0.247462
2.94374
5.52572
-2.5016
2.5623
4.39003
-0.813414
2.16286
3.98405
-0.0568346
-1.87126
4.58571
1.14693
1.23753
-2.23365
3.15243
-1.79737
2.05181
7.01798
-1.009
0.804532
3.00987
1.16996
2.07068
2.35887
-0.348209
0.0794396
-0.766692
2.79893
1.27499
0.538808
3.88059
-2.2183
-2.70091
3.23959
-1.46364
-0.272504
1.9727
3.30878
2.20979
-0.312108
-0.453622
2.13195
0.414081
2.23582
-0.294496
1.63463
5.16191
1.0207
1.92999
-2.33364
2.07037
0.841106
-0.129688
1.05598
-0.377152
1.72081
2.38581
0.181419
-19.0267
-18.0081
14.8764
17.499
0.944429
-0.372889
2.13017
0.783939
-1.69806
0.43492
1.74925
4.11685
-1.32201
2.97544
-0.7483
3.43751
-1.50214
3.06263
4.25498
-0.610374
4.5507
-2.6965
-2.67516
4.75831
5.91453
-0.653706
-2.42843
3.5181
5.91385
0.504378
2.47278
-2.36139
3.04958
-1.14822
3.53902
-0.704374
0.487241
1.40087
2.73731
-0.738347
1.48033
-0.42953
0.51956
2.48145
1.75147
2.43278
-0.277129
-0.395401
1.70362
0.284825
0.0548484
1.47993
2.11732
-4.29523
-0.394347
6.66323
0.22503
0.715523
1.03854
1.47871
1.33659
0.567858
-0.0271459
0.740061
4.29161
-1.49136
-2.3139
5.14411
0.227273
1.11967
1.16472
0.21929
5.96867
0.203241
2.59658
-3.11325
-27.2219
1.30777
24.3442
-3.77984
-0.127794
2.39133
2.07837
-0.423178
4.66693
3.41521
-2.09024
-0.38782
2.53316
-0.527707
0.132303
1.87598
2.99604
0.428196
1.41842
-1.03306
0.90609
3.27834
0.714763
-1.54067
4.69063
0.142113
-2.23414
2.29891
7.67519
1.71606
0.734526
-4.20237
3.95596
-1.47325
3.59571
-1.30968
2.97076
-3.97169
-0.790786
5.88719
2.4899
1.23706
-0.430881
0.942254
2.6996
0.160407
-1.13382
1.40203
1.06832
-1.88025
3.37793
0.590318
-2.56228
3.5331
3.52263
-2.01756
4.2738
-0.987919
3.39954
-1.72603
-1.90826
4.24563
1.86205
0.341589
4.30006
-2.09774
1.60789
0.602161
0.820714
2.11367
-0.501448
0.875799
4.90109
3.66241
-0.864148
-1.67687
-1.8306
0.481923
1.70745
4.12696
3.6228
-1.27107
-0.711296
2.8872
-0.339945
-3.59279
6.41503
2.56039
0.620658
1.30493
2.69177
-0.722622
-2.8052
5.19762
3.54474
-4.32699
0.44567
0.784687
1.31879
0.699996
-0.0468339
1.29621
1.87849
0.538688
0.0457917
2.3088
-2.2841
4.56445
0.784583
1.08322
-0.78512
2.68868
-6.82831
3.53606
9.06849
-0.0814705
6.84547
-4.69804
8.35877
-2.59282
2.8382
4.68098
-0.317279
-2.2289
6.13
-0.24097
1.40192
-4.37061
8.89165
-5.01457
2.20071
1.24066
2.5959
2.67426
-1.61428
-0.89302
-1.93437
6.98513
3.5499
-5.44407
3.79588
-3.10511
-0.464612
6.926
-1.15924
-1.43526
3.53136
3.85114
4.15067
-1.71281
-1.22326
3.67805
3.26524
-1.93686
-1.24353
3.85733
1.06854
0.490006
1.60897
-0.130831
1.72668
0.924958
0.688903
-0.0561791
0.0395134
2.10873
-1.40713
3.73564
-0.842697
3.05893
-0.797352
3.00344
-3.8708
-3.02775
4.98744
4.31571
2.15987
0.037253
-0.350088
1.64981
2.78954
0.508124
1.65968
-0.708916
2.16896
-0.325013
1.60693
0.264545
2.22548
-0.31314
2.50469
-0.617605
3.57992
-1.22603
3.0959
-1.62024
5.68558
-1.37588
4.7659
-2.89755
-5.38344
7.21609
-3.80581
4.69208
0.395046
1.89352
-2.65838
5.12416
)
;

boundaryField
{
    insideCircle
    {
        type            myTemperature;
        value           nonuniform List<scalar> 
24
(
4.97527
2.29108
1.20758
7.47712
-2.66838
-0.749509
6.93237
5.3491
0.373566
-0.662522
5.38429
4.76775
-1.15715
2.19106
3.12841
6.09604
3.15313
0.0424392
5.64364
1.9815
1.60322
-0.0881661
5.22353
3.42965
)
;
    }
    outsideCircle
    {
        type            myTemperature;
        value           nonuniform List<scalar> 
124
(
2.43464
0.322597
1.73191
-0.311721
0.726218
1.50778
2.22071
1.68512
1.30795
0.212987
0.437363
2.44067
-0.118039
1.9212
1.17463
1.2007
2.37509
1.02429
1.37371
-0.79198
-0.472521
0.687251
2.52916
1.51891
1.1023
-0.341135
2.60533
-0.665965
-0.117434
-0.242302
2.4477
1.77761
2.48177
0.790532
-0.429059
1.40366
1.00268
-0.0547549
2.32687
0.973251
-0.469518
1.05767
2.51102
1.08261
0.219508
-0.37351
1.90532
2.61656
0.879227
-0.695037
2.75564
1.21973
1.90482
0.106354
2.28497
-0.14165
0.502836
2.02999
1.99844
-0.26784
-1.66395
-1.37746
4.12087
0.425214
2.65176
0.565338
-0.242563
1.41875
-0.411825
2.1906
-0.0254915
2.55229
2.30551
-0.258139
0.605985
1.58058
1.88606
-0.0440585
0.061932
1.92752
-0.732782
0.845474
2.85215
1.32534
0.00301585
2.57513
-0.402591
2.13052
-0.0827049
-0.169331
1.91937
2.32713
1.91488
2.59143
-0.303466
0.414707
2.43707
0.732528
0.0146398
1.00952
2.06698
-0.0967949
0.556744
1.45392
2.41588
-0.482945
1.32909
0.736313
0.169833
2.51676
1.91979
-0.334731
-0.260988
2.07727
-0.0168116
2.47003
2.2217
0.153382
2.41018
-0.413848
2.62245
1.11898
0.593479
-0.610298
)
;
    }
    topAndBottom
    {
        type            empty;
    }
}


// ************************************************************************* //
