/*--------------------------------*- C++ -*----------------------------------*\
| =========                 |                                                 |
| \\      /  F ield         | foam-extend: Open Source CFD                    |
|  \\    /   O peration     | Version:  3.0                                   |
|   \\  /    A nd           | Web:         http://www.extend-project.de       |
|    \\/     M anipulation  |                                                 |
\*---------------------------------------------------------------------------*/
FoamFile
{
    version     2.0;
    format      ascii;
    class       volScalarField;
    location    "11";
    object      p;
}
// * * * * * * * * * * * * * * * * * * * * * * * * * * * * * * * * * * * * * //

dimensions      [0 0 0 0 0 0 0];

internalField   nonuniform List<scalar> 
728
(
0.0270121
-0.0270036
0.0617188
-0.0619053
-0.0214179
0.0214436
-0.192892
0.192381
-0.0658487
0.078155
0.0659206
-0.0783776
-0.0685255
-0.0804736
0.0688638
0.0804741
0.00390877
0.0951159
-0.0949987
-0.00388685
0.0386233
0.112334
-0.112752
-0.0386029
0.0285193
0.169795
-0.168294
-0.02878
0.00147241
0.105746
-0.10533
-0.00142155
0.0383606
0.12248
-0.12307
-0.0383705
0.0847759
0.0351572
-0.0849483
-0.0353786
-0.0419775
0.0941439
0.041904
-0.0944061
-0.0400936
-0.096498
0.0399927
0.0963171
-0.0747561
-0.123615
0.124671
0.0749714
0.227187
0.00555408
-0.227394
-0.00547956
-0.0332837
0.086246
-0.0862309
0.0332775
-0.0281051
-0.0963624
0.0960764
0.0280538
0.0703411
0.0402281
-0.0704633
-0.039931
0.0209462
-0.0210857
0.137372
-0.135847
0.0745677
0.035069
-0.0351954
-0.0746374
-0.0164305
0.106803
0.0165003
-0.106778
0.0908481
-0.090751
-0.0986346
0.0987954
-0.0104928
0.0694921
0.0105767
-0.0695585
0.0858533
0.244087
-0.0858347
-0.245162
0.0925191
-0.0924384
-0.11599
0.115799
0.0720003
0.0837276
-0.07194
-0.083471
-0.0296811
0.0298709
0.073752
-0.074203
0.0427772
-0.0778789
0.0777761
-0.0426371
-0.0117269
0.0819701
0.011832
-0.0819854
-0.0104679
0.0896275
0.0103993
-0.0896103
-0.0354686
0.0355106
0.0680019
-0.068092
-0.0313214
0.076757
-0.0766267
0.0314135
-0.066341
-0.0681986
0.0663668
0.0684074
-0.0655414
0.0656463
-0.064468
0.0642799
-0.0215266
0.079203
-0.0794702
0.0216191
-0.0586783
-0.0623505
0.0588412
0.0624809
0.0341536
0.113885
-0.113728
-0.0342119
0.0391449
0.0907905
-0.0390977
-0.0907045
-0.0336299
0.0865747
-0.086721
0.0334022
0.0579378
-0.0577563
0.0510002
-0.0509953
-0.0145178
-0.0981339
0.0145489
0.0980491
-0.18705
-0.0639807
0.18888
0.0640876
-0.0196102
-0.137787
0.13903
0.01982
0.102476
-0.0284731
-0.102221
0.0284834
-0.0677649
0.06785
-0.0641099
0.0641349
-0.0533427
0.053437
-0.0415086
0.0413911
0.106434
-0.106044
0.0522819
-0.0518719
-0.0492572
-0.149851
0.150427
0.0494143
0.0452768
0.098452
-0.0449387
-0.0987404
0.0560597
-0.0938421
0.0936617
-0.0560833
0.0153149
-0.0715078
0.0714852
-0.0152993
-0.0292468
-0.08131
0.0811652
0.0291235
0.0446978
-0.0775951
-0.0445175
0.0775309
-0.0499964
-0.0670472
0.0670763
0.0500461
-0.08678
0.0865876
0.0356574
-0.0357644
-0.0239915
-0.162005
0.161332
0.0238035
-0.0275778
-0.0784269
0.0783259
0.0275063
-0.0167292
0.0167107
0.107524
-0.107701
0.0653
-0.0455404
0.0453255
-0.0650582
-0.0107414
0.0864912
0.0107072
-0.0865179
0.102678
0.0454172
-0.0452947
-0.102369
0.0298505
-0.0299003
0.148142
-0.149592
0.091247
-0.177157
-0.0914124
0.177331
-0.0802114
-0.0462386
0.0800209
0.0461636
0.110065
0.150507
-0.110299
-0.149904
-0.0130585
-0.0842588
0.0131241
0.0842886
-0.105058
0.0438053
0.104728
-0.0435609
-0.0869904
-0.0503902
0.0505941
0.0867534
-0.0581156
0.0580042
-0.13705
0.137491
0.0853136
-0.00394949
0.00393937
-0.0852614
0.0528571
0.0599085
-0.0595138
-0.0527535
0.0310543
0.105992
-0.0307592
-0.106235
0.00138633
0.0980867
-0.0979042
-0.00139029
0.0870747
0.0541718
-0.0538928
-0.0863372
-0.0461465
0.0554614
-0.055424
0.0460489
-0.0748082
0.00286371
0.0748234
-0.00286044
-0.0488007
-0.0650824
0.0651409
0.0487382
0.00924286
-0.00924296
0.128432
-0.12878
-0.0253034
0.096112
-0.0962477
0.0252836
-0.0673814
0.0672264
0.159218
-0.159424
-0.0541605
0.0542595
-0.0876192
0.0873568
-0.136459
-0.0988312
0.0988872
0.136651
-0.0793602
0.0791734
-0.108774
0.108908
0.0353251
0.0635312
-0.0353557
-0.0635646
0.0350097
-0.0349587
0.0908549
-0.0907064
-0.0736435
0.0735949
-0.140881
0.141014
-0.00563907
0.112799
-0.1125
0.00577725
-0.0632058
-0.0943151
0.0634634
0.0942766
0.0822625
0.0804081
-0.0824382
-0.0809737
-0.00388673
0.00391922
0.103781
-0.103598
-0.0553174
-0.0748396
0.0552886
0.0748783
0.0332415
0.105574
-0.0331088
-0.105461
0.0213475
0.0802296
-0.0800296
-0.0212403
0.0970878
0.0916386
-0.0968976
-0.0917244
-0.0670104
-0.107822
0.107816
0.0673096
-0.0578365
-0.0759385
0.0577783
0.0759545
0.0922149
-0.0241229
-0.0921049
0.0241191
0.01134
0.0855634
-0.0855605
-0.0114263
-0.00320453
0.085291
0.00317485
-0.0852663
-0.0145016
-0.0878565
0.0146052
0.087871
-0.0733098
0.115715
0.0731164
-0.115689
-0.17435
0.201191
-0.201663
0.174564
0.0653052
0.251577
-0.0653175
-0.251195
-0.0571409
0.0575021
0.0705368
-0.0708987
0.0155492
-0.0155578
0.0969666
-0.0971893
-0.0566204
0.106959
-0.107018
0.0564858
0.00636472
-0.0909631
-0.00635557
0.0910758
-0.00153406
0.0908799
0.00155632
-0.0908069
0.0183839
-0.0184898
0.0894018
-0.0894809
0.0184359
-0.0658438
0.0657228
-0.0184114
0.0200984
0.0842446
-0.0843407
-0.0202247
0.0436156
-0.0621433
-0.0436142
0.0622313
-0.097786
0.0634259
0.0983818
-0.0637584
-0.114907
0.019941
-0.0198302
0.114768
0.0348337
-0.0582042
-0.0349305
0.0582359
0.0213392
-0.021308
-0.110497
0.110578
-0.092972
-0.0261055
0.0928698
0.0261218
0.0164523
0.129014
-0.0164247
-0.129738
-0.102998
0.102905
0.0188962
-0.0189302
0.0820837
0.0696145
-0.0811115
-0.069293
0.0422214
-0.0703525
0.0702759
-0.0422959
-0.0803388
-0.0686885
0.0696099
0.0801378
-0.0231951
0.071456
0.0231636
-0.0715414
-0.102411
0.102482
0.00836843
-0.00832644
0.113684
0.017838
-0.0177948
-0.114522
-0.104754
-0.0496534
0.0499216
0.104997
-0.0291223
-0.0684389
0.0290756
0.0683614
0.11745
-0.120121
-0.118013
0.120399
-0.0916932
0.0841048
0.0919992
-0.0843588
-0.141798
5.43937e-05
0.142091
0.000141283
-0.076125
0.0761419
0.00836991
-0.00838462
-0.0824187
-0.0454819
0.0822969
0.0453566
0.119256
0.019846
-0.118832
-0.0198483
0.0038449
0.0739614
-0.00378886
-0.0740204
-0.0526891
-0.0697833
0.0527387
0.0700258
-0.0542855
0.0618202
0.0544216
-0.0616861
0.0871544
0.0545987
-0.087291
-0.0546363
-0.0790106
0.0585513
-0.0585947
0.0790526
-0.0110063
0.0110435
0.13748
-0.136487
-0.00080511
0.116867
0.000898769
-0.116691
0.0736226
-0.035349
0.0351436
-0.0737475
0.0930399
-0.0929593
-0.130831
0.131495
-0.123246
0.12404
-0.0990816
0.0992313
0.0429725
-0.0696424
0.0696166
-0.0431592
-0.0423779
-0.0803601
0.0802022
0.0422286
-0.0177328
-0.122426
0.0180217
0.122883
0.124242
-0.123987
-0.0230223
0.0233153
0.0608067
-0.0608003
0.0418535
-0.041911
0.00324505
-0.0833336
0.0834358
-0.00322482
-0.101381
-0.179685
0.179588
0.101688
0.000166336
0.124213
-0.000179813
-0.124438
-0.05514
0.0550623
-0.0689361
0.0689841
-0.0509364
0.0496973
0.0508171
-0.049687
0.0351301
0.11243
-0.0352187
-0.112274
-0.0856114
-0.00426293
0.0857312
0.00430612
0.128793
-0.0445286
-0.128464
0.0445842
0.113918
0.0362541
-0.0361178
-0.113854
-0.073591
-0.0492499
0.0491081
0.0735712
-0.0570276
-0.0736056
0.0566558
0.073973
-0.0587478
0.12869
-0.128536
0.0590315
-0.0616584
0.140575
-0.139784
0.0617998
0.0318521
0.107057
-0.107517
-0.0315988
0.169506
-0.126845
-0.16976
0.127041
0.062881
0.0572506
-0.0627005
-0.0572339
0.0356339
0.14778
-0.146569
-0.0354407
0.0413787
0.115163
-0.114479
-0.0409193
-0.00639874
0.00641111
-0.0930774
0.0932633
0.111279
0.00881505
-0.111256
-0.00871811
-0.0538921
0.0539803
-0.0588921
0.059034
0.0468545
-0.0717907
-0.0469308
0.071763
0.0562413
0.0602858
-0.0601788
-0.056356
-0.0147079
0.0147709
0.0944265
-0.0945168
0.09237
-0.0923471
-0.0733788
0.0732936
-0.0950174
0.0706686
0.0949165
-0.070688
-0.00819796
-0.0990414
0.00802736
0.0992361
-0.0964466
0.0965526
0.0602795
-0.0602451
0.00811164
0.108156
-0.107701
-0.00803642
-0.114037
-0.0594137
0.113957
0.059322
-0.0824984
0.0196172
0.0824228
-0.0198045
0.0162389
-0.0983064
0.0982316
-0.0163782
0.0851284
0.0263613
-0.0266339
-0.0852575
0.0945428
-0.0260588
0.0260156
-0.0947654
0.0276897
0.0884689
-0.027837
-0.088602
)
;

boundaryField
{
    insideCircle
    {
        type            zeroGradient;
    }
    outsideCircle
    {
        type            zeroGradient;
    }
    topAndBottom
    {
        type            empty;
    }
}


// ************************************************************************* //
