/*--------------------------------*- C++ -*----------------------------------*\
| =========                 |                                                 |
| \\      /  F ield         | foam-extend: Open Source CFD                    |
|  \\    /   O peration     | Version:  3.0                                   |
|   \\  /    A nd           | Web:         http://www.extend-project.de       |
|    \\/     M anipulation  |                                                 |
\*---------------------------------------------------------------------------*/
FoamFile
{
    version     2.0;
    format      ascii;
    class       volVectorField;
    location    "7.7";
    object      s;
}
// * * * * * * * * * * * * * * * * * * * * * * * * * * * * * * * * * * * * * //

dimensions      [0 0 0 0 0 0 0];

internalField   nonuniform List<vector> 
400
(
(-0.0181848 0.0351341 1.09501e-317)
(-0.0305053 0.0505689 1.92997e-317)
(-0.0667612 0.0522054 2.19665e-317)
(-0.0857486 0.0431862 2.21223e-317)
(-0.112734 0.0366183 2.12131e-317)
(-0.128327 0.0271295 1.98632e-317)
(-0.145261 0.0205309 1.83712e-317)
(-0.155008 0.0129182 1.68925e-317)
(-0.16293 0.00686195 1.54643e-317)
(-0.166104 0.000150037 1.41501e-317)
(-0.165541 -0.00607487 1.29176e-317)
(-0.161603 -0.0130662 1.18062e-317)
(-0.1523 -0.0199849 1.0772e-317)
(-0.140935 -0.0278589 9.83059e-318)
(-0.122429 -0.0351245 8.94641e-318)
(-0.104446 -0.0434349 8.09387e-318)
(-0.0772546 -0.0490497 7.22178e-318)
(-0.0564387 -0.0545481 6.21629e-318)
(-0.024193 -0.050686 4.82058e-318)
(-0.0115122 -0.0330755 2.47575e-318)
(-0.0200035 0.0207455 1.42678e-317)
(-0.045566 0.0466202 2.7949e-317)
(-0.086234 0.0571413 3.36877e-317)
(-0.115919 0.0562313 3.52169e-317)
(-0.150139 0.0501008 3.46286e-317)
(-0.174603 0.0406179 3.30389e-317)
(-0.198152 0.0303742 3.09933e-317)
(-0.213579 0.0194554 2.88412e-317)
(-0.225245 0.00866193 2.66736e-317)
(-0.230179 -0.00226294 2.46278e-317)
(-0.229561 -0.0131614 2.26632e-317)
(-0.223333 -0.024063 2.08523e-317)
(-0.210179 -0.034831 1.91195e-317)
(-0.192826 -0.0450041 1.74954e-317)
(-0.16759 -0.0539968 1.58897e-317)
(-0.140881 -0.0604915 1.42723e-317)
(-0.106243 -0.0628743 1.25e-317)
(-0.0755628 -0.0583861 1.04067e-317)
(-0.0382867 -0.043769 7.59911e-318)
(-0.0142359 -0.0167515 3.45643e-318)
(-0.0197306 0.0626203 1.30854e-317)
(-0.0437142 0.11146 2.65451e-317)
(-0.0839634 0.126132 3.28574e-317)
(-0.112307 0.119145 3.51257e-317)
(-0.144797 0.105186 3.5192e-317)
(-0.168198 0.0851325 3.41187e-317)
(-0.190535 0.0647377 3.24503e-317)
(-0.20569 0.0428178 3.05561e-317)
(-0.217211 0.0214048 2.85581e-317)
(-0.222701 -0.000617455 2.66051e-317)
(-0.222878 -0.0225967 2.46819e-317)
(-0.217789 -0.0450119 2.28603e-317)
(-0.205959 -0.0673001 2.10747e-317)
(-0.189854 -0.0890418 1.93466e-317)
(-0.16586 -0.108748 1.75748e-317)
(-0.1399 -0.124815 1.57083e-317)
(-0.105673 -0.133524 1.35746e-317)
(-0.0748326 -0.131334 1.09953e-317)
(-0.0367112 -0.109314 7.64062e-318)
(-0.0129791 -0.056683 3.10456e-318)
(-0.0131015 0.0617214 1.01107e-317)
(-0.0335275 0.118076 2.11814e-317)
(-0.0616358 0.138061 2.6921e-317)
(-0.0842948 0.133633 2.95132e-317)
(-0.109123 0.119383 3.02474e-317)
(-0.128331 0.0979977 2.99443e-317)
(-0.146632 0.0748653 2.9018e-317)
(-0.159798 0.0498963 2.77889e-317)
(-0.170144 0.0247114 2.63694e-317)
(-0.175888 -0.00122607 2.4901e-317)
(-0.177302 -0.0275886 2.33853e-317)
(-0.174567 -0.0543747 2.1891e-317)
(-0.166069 -0.0813249 2.03677e-317)
(-0.15406 -0.107107 1.88289e-317)
(-0.1351 -0.130646 1.71783e-317)
(-0.114174 -0.148243 1.53493e-317)
(-0.0862977 -0.156922 1.31732e-317)
(-0.0601543 -0.149351 1.0456e-317)
(-0.0299821 -0.118781 6.98112e-318)
(-0.0085429 -0.0539306 2.51125e-318)
(-0.0108874 0.0765639 6.69352e-318)
(-0.0247924 0.143739 1.48373e-317)
(-0.0466238 0.166359 1.96619e-317)
(-0.0627417 0.161252 2.23975e-317)
(-0.0817342 0.144401 2.37281e-317)
(-0.0960921 0.119347 2.41864e-317)
(-0.110556 0.0920798 2.40362e-317)
(-0.121325 0.0624547 2.35251e-317)
(-0.130441 0.0323749 2.27505e-317)
(-0.136494 0.00103985 2.184e-317)
(-0.139359 -0.0311148 2.08134e-317)
(-0.139543 -0.0642898 1.97394e-317)
(-0.134744 -0.0981393 1.85914e-317)
(-0.127688 -0.131179 1.73873e-317)
(-0.113534 -0.162104 1.60552e-317)
(-0.0984066 -0.186169 1.45381e-317)
(-0.0745412 -0.199945 1.26901e-317)
(-0.0535925 -0.193198 1.03266e-317)
(-0.0248944 -0.158277 7.19038e-318)
(-0.00816589 -0.0761374 2.90536e-318)
(-0.00666812 0.0753042 3.24442e-318)
(-0.0158659 0.144034 8.47216e-318)
(-0.0284211 0.168803 1.23427e-317)
(-0.0384743 0.16478 1.51428e-317)
(-0.0505407 0.148749 1.69938e-317)
(-0.060293 0.123822 1.81511e-317)
(-0.0706221 0.096446 1.87377e-317)
(-0.0790806 0.0662602 1.89257e-317)
(-0.0868675 0.0353126 1.87942e-317)
(-0.093206 0.00261845 1.84537e-317)
(-0.0975098 -0.0314128 1.79401e-317)
(-0.100633 -0.0671283 1.73189e-317)
(-0.0997916 -0.104278 1.65877e-317)
(-0.0979531 -0.141222 1.57687e-317)
(-0.0894074 -0.17668 1.48146e-317)
(-0.0806162 -0.204716 1.36761e-317)
(-0.0622162 -0.221697 1.22231e-317)
(-0.0468108 -0.213976 1.02577e-317)
(-0.0212947 -0.174121 7.45138e-318)
(-0.00790207 -0.0793585 3.2528e-318)
(-0.00439125 0.0773843 5.09456e-319)
(-0.00874609 0.148359 3.32173e-318)
(-0.0151908 0.174137 6.32924e-318)
(-0.019963 0.170853 9.08897e-318)
(-0.0267155 0.155199 1.1285e-317)
(-0.0323712 0.130278 1.29464e-317)
(-0.0391586 0.102799 1.40852e-317)
(-0.0453979 0.0721081 1.48083e-317)
(-0.0518426 0.0404973 1.51782e-317)
(-0.0582592 0.00655723 1.52896e-317)
(-0.0636662 -0.0291531 1.51865e-317)
(-0.0694483 -0.0675346 1.49339e-317)
(-0.0720865 -0.108149 1.45465e-317)
(-0.0753951 -0.149972 1.40511e-317)
(-0.071796 -0.191127 1.34229e-317)
(-0.0696713 -0.225954 1.26227e-317)
(-0.055237 -0.249158 1.1536e-317)
(-0.0459471 -0.245916 9.96279e-318)
(-0.0196948 -0.205149 7.50628e-318)
(-0.0108056 -0.0984153 3.48552e-318)
(-0.00141049 0.0735432 -1.55667e-318)
(-0.00250585 0.141596 -6.45912e-319)
(-0.00210391 0.167525 1.61202e-318)
(-0.00239188 0.165021 4.23687e-318)
(-0.00359726 0.151133 6.61908e-318)
(-0.00547275 0.127787 8.61482e-318)
(-0.00851976 0.10216 1.01507e-317)
(-0.012419 0.0730007 1.1279e-317)
(-0.0171282 0.0428758 1.20425e-317)
(-0.0231094 0.00993031 1.2519e-317)
(-0.0290604 -0.0252004 1.27566e-317)
(-0.0367393 -0.0639524 1.28153e-317)
(-0.0424394 -0.10591 1.27212e-317)
(-0.0501502 -0.150666 1.25037e-317)
(-0.0517695 -0.196199 1.21499e-317)
(-0.0558314 -0.236908 1.16313e-317)
(-0.046833 -0.266579 1.08401e-317)
(-0.0432752 -0.267828 9.58806e-318)
(-0.0187709 -0.227124 7.43874e-318)
(-0.0127655 -0.108584 3.64176e-318)
(0.00107758 0.0699037 -2.71076e-318)
(0.00284582 0.135257 -3.08525e-318)
(0.00872058 0.160585 -1.46111e-318)
(0.0120398 0.159115 9.18972e-319)
(0.0154626 0.146752 3.297e-318)
(0.0168575 0.125235 5.4165e-318)
(0.0172701 0.101568 7.1505e-318)
(0.0157586 0.0742763 8.5059e-318)
(0.0131011 0.0460468 9.50715e-318)
(0.00810435 0.0146269 1.02139e-317)
(0.00239611 -0.0191866 1.06708e-317)
(-0.00637888 -0.0576012 1.09296e-317)
(-0.0141454 -0.0999024 1.1019e-317)
(-0.0257625 -0.147112 1.09649e-317)
(-0.0317826 -0.196193 1.07608e-317)
(-0.0426777 -0.243769 1.03797e-317)
(-0.0385048 -0.280321 9.72452e-318)
(-0.0429843 -0.290688 8.62763e-318)
(-0.0181518 -0.252596 6.68136e-318)
(-0.018409 -0.127763 3.24416e-318)
(0.0032407 0.0632169 -3.26027e-318)
(0.00718002 0.123156 -4.45753e-318)
(0.0181269 0.14753 -3.35893e-318)
(0.0246914 0.146903 -1.28743e-318)
(0.0325908 0.136641 9.63028e-319)
(0.0372159 0.117516 3.07183e-318)
(0.0412375 0.0966072 4.87533e-318)
(0.0424672 0.0720652 6.34605e-318)
(0.0423964 0.046708 7.48835e-318)
(0.0392464 0.0179861 8.34405e-318)
(0.0347094 -0.0132708 8.94963e-318)
(0.026278 -0.049812 9.34937e-318)
(0.017499 -0.0910047 9.56821e-318)
(0.00389939 -0.138907 9.62759e-318)
(-0.00615975 -0.190494 9.51914e-318)
(-0.0217631 -0.24369 9.21691e-318)
(-0.0242757 -0.288061 8.62689e-318)
(-0.0346216 -0.307733 7.60893e-318)
(-0.0154821 -0.275832 5.81987e-318)
(-0.0184552 -0.144382 2.76528e-318)
(0.00578447 0.0572789 -3.26125e-318)
(0.0108254 0.111846 -4.89161e-318)
(0.026193 0.134299 -4.21966e-318)
(0.0349311 0.134584 -2.49532e-318)
(0.0466291 0.125897 -4.68597e-319)
(0.0538823 0.109226 1.51273e-318)
(0.0612463 0.0909139 3.26993e-318)
(0.0651524 0.0692596 4.74634e-318)
(0.0679316 0.0469512 5.93109e-318)
(0.0671128 0.0213211 6.84722e-318)
(0.0646132 -0.00670817 7.52209e-318)
(0.0574455 -0.040498 7.98763e-318)
(0.0490431 -0.079109 8.26261e-318)
(0.0342387 -0.126275 8.36014e-318)
(0.0216267 -0.177845 8.26807e-318)
(0.000502325 -0.235443 7.95588e-318)
(-0.00759084 -0.284405 7.33874e-318)
(-0.0281729 -0.315002 6.30076e-318)
(-0.0120383 -0.287385 4.60323e-318)
(-0.0256277 -0.157278 1.97282e-318)
(0.00684605 0.0483438 -2.94055e-318)
(0.0134731 0.096859 -4.74317e-318)
(0.0319171 0.117748 -4.4148e-318)
(0.0430467 0.118899 -3.03856e-318)
(0.0580274 0.11205 -1.27974e-318)
(0.0680266 0.0978754 5.16857e-319)
(0.078613 0.0823359 2.16269e-318)
(0.08545 0.0637513 3.58344e-318)
(0.0913557 0.044715 4.7522e-318)
(0.0936071 0.0225847 5.6777e-318)
(0.0939689 -0.00177107 6.37635e-318)
(0.0897014 -0.0319213 6.87137e-318)
(0.0830224 -0.0670959 7.17433e-318)
(0.0699478 -0.111874 7.29269e-318)
(0.0558633 -0.162485 7.20874e-318)
(0.0337202 -0.222466 6.89205e-318)
(0.018258 -0.277207 6.26426e-318)
(-0.00630835 -0.318823 5.23184e-318)
(-0.00368558 -0.303177 3.65157e-318)
(-0.0185057 -0.177888 1.39958e-318)
(0.00878175 0.0422024 -2.6232e-318)
(0.0149149 0.0840559 -4.43556e-318)
(0.0360523 0.102124 -4.329e-318)
(0.0481149 0.103676 -3.23526e-318)
(0.0656636 0.0979469 -1.72533e-318)
(0.0774978 0.0860727 -1.25893e-319)
(0.0907298 0.0729557 1.38086e-318)
(0.0999705 0.0573233 2.7096e-318)
(0.108772 0.0414292 3.82465e-318)
(0.113981 0.0228318 4.72245e-318)
(0.117582 0.00239433 5.4109e-318)
(0.116567 -0.0235874 5.9026e-318)
(0.112879 -0.0541354 6.20492e-318)
(0.101982 -0.0948976 6.31726e-318)
(0.0886692 -0.141316 6.22163e-318)
(0.0643253 -0.200494 5.88444e-318)
(0.0445838 -0.254245 5.24329e-318)
(0.00927802 -0.303067 4.22243e-318)
(0.00512302 -0.289592 2.76361e-318)
(-0.0263767 -0.172778 8.66087e-319)
(0.00852663 0.0324588 -2.02963e-318)
(0.0157035 0.0689303 -3.73309e-318)
(0.0378079 0.0849325 -3.82271e-318)
(0.0514965 0.0871171 -3.00882e-318)
(0.0709278 0.0826052 -1.76652e-318)
(0.0846625 0.0728688 -3.91572e-319)
(0.100083 0.0620749 9.40414e-319)
(0.111594 0.0492156 2.13972e-318)
(0.123045 0.0362776 3.16257e-318)
(0.131399 0.021088 3.99695e-318)
(0.138469 0.00442074 4.64341e-318)
(0.141888 -0.0172022 5.10818e-318)
(0.142167 -0.0429617 5.39445e-318)
(0.136658 -0.078665 5.5001e-318)
(0.125455 -0.120403 5.40565e-318)
(0.105731 -0.176788 5.08374e-318)
(0.0802905 -0.231187 4.48324e-318)
(0.0468634 -0.28831 3.54734e-318)
(0.0207153 -0.290148 2.26521e-318)
(-0.00616474 -0.195058 6.66588e-319)
(0.0088704 0.0274067 -2.03045e-318)
(0.0142806 0.0567583 -3.52648e-318)
(0.0367546 0.0694432 -3.62125e-318)
(0.0502642 0.0712639 -2.93083e-318)
(0.0704837 0.0674167 -1.85805e-318)
(0.084795 0.0595502 -6.50768e-319)
(0.101231 0.0507769 5.34777e-319)
(0.113854 0.0404762 1.61496e-318)
(0.126921 0.0301742 2.54701e-318)
(0.137343 0.0181184 3.31455e-318)
(0.147241 0.00495497 3.91443e-318)
(0.154115 -0.012352 4.34845e-318)
(0.158659 -0.0329995 4.61713e-318)
(0.157498 -0.0625573 4.71535e-318)
(0.150718 -0.0971587 4.62741e-318)
(0.132975 -0.146527 4.3285e-318)
(0.107981 -0.193285 3.7863e-318)
(0.0663658 -0.247658 2.95864e-318)
(0.0341172 -0.245439 1.86275e-318)
(-0.015691 -0.159163 5.34727e-319)
(0.00731928 0.0187975 -1.21596e-318)
(0.0130598 0.0438021 -2.56466e-318)
(0.0350067 0.0538983 -2.80122e-318)
(0.0492023 0.0558996 -2.34827e-318)
(0.0698706 0.0526995 -1.51718e-318)
(0.084569 0.0465217 -5.36807e-319)
(0.101507 0.0396171 4.53019e-319)
(0.114686 0.0315695 1.36907e-318)
(0.128758 0.0236482 2.16739e-318)
(0.140854 0.014351 2.82906e-318)
(0.153109 0.00434847 3.34797e-318)
(0.163854 -0.00900805 3.72368e-318)
(0.172678 -0.0248274 3.95532e-318)
(0.17851 -0.0482987 4.03914e-318)
(0.176739 -0.075875 3.96242e-318)
(0.169091 -0.118008 3.70785e-318)
(0.14287 -0.159298 3.25403e-318)
(0.113239 -0.21629 2.57399e-318)
(0.0544997 -0.228463 1.68398e-318)
(0.0238195 -0.183391 5.83827e-319)
(0.00522455 0.0153743 -1.68279e-318)
(0.00852488 0.0329311 -2.65165e-318)
(0.028059 0.0396239 -2.72116e-318)
(0.0407735 0.0406834 -2.25672e-318)
(0.0595258 0.0380933 -1.52512e-318)
(0.0728681 0.0335593 -6.82749e-319)
(0.0881112 0.0284003 1.58827e-319)
(0.100152 0.0225094 9.37687e-319)
(0.1132 0.0165654 1.61785e-318)
(0.124842 0.00967726 2.18492e-318)
(0.137418 0.00216376 2.63234e-318)
(0.149042 -0.00767998 2.95948e-318)
(0.160484 -0.0194059 3.16431e-318)
(0.1691 -0.0364742 3.24331e-318)
(0.173091 -0.0567038 3.18796e-318)
(0.168935 -0.0872505 2.98572e-318)
(0.150465 -0.117096 2.62929e-318)
(0.117037 -0.157197 2.10308e-318)
(0.064437 -0.158228 1.42162e-318)
(0.00647545 -0.106193 5.60107e-319)
(0.00268623 0.0095497 -3.67511e-319)
(0.00606007 0.0234234 -1.37902e-318)
(0.0247481 0.027363 -1.63716e-318)
(0.0365887 0.028279 -1.44115e-318)
(0.0543878 0.0261233 -9.50177e-319)
(0.0658307 0.0228926 -3.48504e-319)
(0.079694 0.0193458 2.76929e-319)
(0.0899375 0.0151969 8.60519e-319)
(0.101826 0.0112451 1.37355e-318)
(0.112647 0.00642742 1.80109e-318)
(0.125034 0.0015168 2.13739e-318)
(0.137865 -0.00529714 2.38226e-318)
(0.151083 -0.0127827 2.53386e-318)
(0.164806 -0.0246207 2.59119e-318)
(0.173313 -0.0374173 2.54772e-318)
(0.181151 -0.0600621 2.39728e-318)
(0.166188 -0.0801331 2.13417e-318)
(0.155867 -0.119983 1.75221e-318)
(0.08094 -0.129641 1.25494e-318)
(0.0698457 -0.139059 5.86752e-319)
(-0.000964012 0.00714205 -1.20898e-318)
(-0.000120737 0.0127161 -1.57763e-318)
(0.0118206 0.01411 -1.54595e-318)
(0.0196728 0.0142835 -1.26794e-318)
(0.0307861 0.0131757 -8.85509e-319)
(0.0382986 0.0117107 -4.55988e-319)
(0.0465821 0.0097175 -3.25787e-320)
(0.053105 0.00753208 3.57308e-319)
(0.0603322 0.0049852 6.98317e-319)
(0.0671462 0.0020862 9.82978e-319)
(0.0754004 -0.00131599 1.2087e-318)
(0.0836097 -0.00547444 1.37528e-318)
(0.093792 -0.0105347 1.48142e-318)
(0.102759 -0.0169889 1.52575e-318)
(0.112302 -0.0249323 1.50597e-318)
(0.11662 -0.0347796 1.41865e-318)
(0.11412 -0.0458648 1.26695e-318)
(0.0992882 -0.0552953 1.05124e-318)
(0.0614105 -0.0545029 7.73885e-319)
(0.0198475 -0.0153353 3.93662e-319)
(-0.00198452 0.00377831 4.49728e-319)
(0.0005198 0.00757578 -1.6191e-319)
(0.0107444 0.0073097 -3.2097e-319)
(0.0150409 0.00735501 -3.25782e-319)
(0.0235932 0.00654868 -1.84e-319)
(0.0266892 0.00564053 -1.14179e-320)
(0.0325633 0.00505135 1.7399e-319)
(0.0353725 0.0040367 3.43297e-319)
(0.0401902 0.00359896 4.9164e-319)
(0.0440925 0.00251931 6.13254e-319)
(0.0495226 0.00212173 7.08614e-319)
(0.0558582 0.000654575 7.77724e-319)
(0.0628705 0.0002097 8.21038e-319)
(0.0726936 -0.0024545 8.38652e-319)
(0.0800825 -0.00293672 8.28583e-319)
(0.0931939 -0.0092826 7.89458e-319)
(0.0916207 -0.00925228 7.20664e-319)
(0.105709 -0.0288238 6.22468e-319)
(0.0581488 -0.0260623 5.03048e-319)
(0.0918189 -0.0828148 3.30624e-319)
)
;

boundaryField
{
    cavity
    {
        type            myHeatFlux;
        ThetaWall       uniform 0;
        value           nonuniform List<vector> 
60
(
(0.001 0 0)
(0.001 0 0)
(0.001 0 0)
(0.001 0 0)
(0.001 0 0)
(0.001 0 0)
(0.001 0 0)
(0.001 0 0)
(0.001 0 0)
(0.001 0 0)
(0.001 0 0)
(0.001 0 0)
(0.001 0 0)
(0.001 0 0)
(0.001 0 0)
(0.001 0 0)
(0.001 0 0)
(0.001 0 0)
(0.001 0 0)
(0.001 0 0)
(0 -0.001 0)
(0 -0.001 0)
(0 -0.001 0)
(0 -0.001 0)
(0 -0.001 0)
(0 -0.001 0)
(0 -0.001 0)
(0 -0.001 0)
(0 -0.001 0)
(0 -0.001 0)
(0 -0.001 0)
(0 -0.001 0)
(0 -0.001 0)
(0 -0.001 0)
(0 -0.001 0)
(0 -0.001 0)
(0 -0.001 0)
(0 -0.001 0)
(0 -0.001 0)
(0 -0.001 0)
(-0.001 0 0)
(-0.001 0 0)
(-0.001 0 0)
(-0.001 0 0)
(-0.001 0 0)
(-0.001 0 0)
(-0.001 0 0)
(-0.001 0 0)
(-0.001 0 0)
(-0.001 0 0)
(-0.001 0 0)
(-0.001 0 0)
(-0.001 0 0)
(-0.001 0 0)
(-0.001 0 0)
(-0.001 0 0)
(-0.001 0 0)
(-0.001 0 0)
(-0.001 0 0)
(-0.001 0 0)
)
;
    }
    lid
    {
        type            myHeatFlux;
        ThetaWall       uniform 0;
        value           nonuniform List<vector> 
20
(
(0.000135815 0.0009 0)
(0.000135815 0.0009 0)
(0.000135815 0.0009 0)
(0.000135815 0.0009 0)
(0.000135815 0.0009 0)
(0.000135815 0.0009 0)
(0.000135815 0.0009 0)
(0.000135815 0.0009 0)
(0.000135815 0.0009 0)
(0.000135815 0.0009 0)
(0.000135815 0.0009 0)
(0.000135815 0.0009 0)
(0.000135815 0.0009 0)
(0.000135815 0.0009 0)
(0.000135815 0.0009 0)
(0.000135815 0.0009 0)
(0.000135815 0.0009 0)
(0.000135815 0.0009 0)
(0.000135815 0.0009 0)
(0.000135815 0.0009 0)
)
;
    }
    frontAndBack
    {
        type            empty;
    }
}


// ************************************************************************* //
