/*--------------------------------*- C++ -*----------------------------------*\
| =========                 |                                                 |
| \\      /  F ield         | foam-extend: Open Source CFD                    |
|  \\    /   O peration     | Version:  3.0                                   |
|   \\  /    A nd           | Web:         http://www.extend-project.de       |
|    \\/     M anipulation  |                                                 |
\*---------------------------------------------------------------------------*/
FoamFile
{
    version     2.0;
    format      ascii;
    class       volVectorField;
    location    "7.7";
    object      u;
}
// * * * * * * * * * * * * * * * * * * * * * * * * * * * * * * * * * * * * * //

dimensions      [0 0 0 0 0 0 0];

internalField   nonuniform List<vector> 
400
(
(-2.17186 5.70939 3.2229e-315)
(-1.97513 3.91394 2.86392e-315)
(-5.09078 4.2531 2.5321e-315)
(-5.13716 2.62522 2.28416e-315)
(-7.05053 2.91123 1.99157e-315)
(-7.269 1.90153 1.82367e-315)
(-8.33657 2.05131 1.56535e-315)
(-8.57911 1.41628 1.45329e-315)
(-9.04144 1.50966 1.22636e-315)
(-9.20033 1.00686 1.1535e-315)
(-9.16681 1.05216 9.55595e-316)
(-9.14669 0.515432 9.09952e-316)
(-8.63171 0.502801 7.39819e-316)
(-8.35294 -0.186412 7.11209e-316)
(-7.30457 -0.196928 5.70853e-316)
(-6.76522 -1.15159 5.49613e-316)
(-5.07605 -0.985757 4.45616e-316)
(-4.4526 -2.30247 4.251e-316)
(-1.97581 -1.9296 3.66709e-316)
(-1.57738 -3.22865 3.48541e-316)
(-0.384342 1.19275 2.18734e-315)
(-1.34536 0.997399 1.99181e-315)
(-2.19727 1.06024 1.80064e-315)
(-2.71323 0.692412 1.66214e-315)
(-3.58331 0.673935 1.49012e-315)
(-3.86034 0.281417 1.3867e-315)
(-4.51479 0.15468 1.23091e-315)
(-4.66512 -0.207563 1.15069e-315)
(-4.99368 -0.45058 1.00931e-315)
(-5.037 -0.76206 9.46246e-316)
(-5.01714 -1.11087 8.19127e-316)
(-4.93581 -1.36714 7.69358e-316)
(-4.59491 -1.7889 6.57308e-316)
(-4.35547 -1.98406 6.16833e-316)
(-3.77209 -2.41097 5.21667e-316)
(-3.31412 -2.52476 4.85443e-316)
(-2.65102 -2.83158 4.1016e-316)
(-1.85832 -2.82704 3.74037e-316)
(-1.37252 -2.8163 3.218e-316)
(-0.132338 -2.611 2.91515e-316)
(-0.984467 7.90918 1.67899e-315)
(-1.60509 6.38898 1.55922e-315)
(-2.89358 6.04784 1.43142e-315)
(-3.25233 4.54915 1.33598e-315)
(-4.08453 4.45065 1.20924e-315)
(-4.35566 3.17281 1.12834e-315)
(-4.84873 3.10809 1.00652e-315)
(-5.09815 2.01718 9.38709e-316)
(-5.30203 1.92417 8.24735e-316)
(-5.52811 0.926672 7.68616e-316)
(-5.46188 0.75718 6.64248e-316)
(-5.60006 -0.227575 6.17825e-316)
(-5.27646 -0.505847 5.24179e-316)
(-5.20134 -1.51183 4.85017e-316)
(-4.65304 -1.87946 4.03986e-316)
(-4.19509 -2.88396 3.7053e-316)
(-3.50467 -3.25164 3.06314e-316)
(-2.51235 -4.19716 2.83035e-316)
(-1.81624 -4.51002 2.44208e-316)
(-0.311721 -5.34085 2.54601e-316)
(-0.0690638 5.1518 7.22726e-316)
(-0.639343 3.96379 7.97606e-316)
(-0.890528 3.63045 8.05287e-316)
(-1.17831 2.57072 8.24606e-316)
(-1.48285 2.41303 7.96329e-316)
(-1.61202 1.50255 7.82714e-316)
(-1.86214 1.33792 7.3412e-316)
(-1.95186 0.536763 7.0445e-316)
(-2.07598 0.259183 6.46236e-316)
(-2.1797 -0.461292 6.10793e-316)
(-2.1454 -0.934936 5.50464e-316)
(-2.26459 -1.58408 5.15091e-316)
(-2.07104 -2.31192 4.57594e-316)
(-2.15014 -2.85753 4.24974e-316)
(-1.83986 -3.83694 3.72941e-316)
(-1.73231 -4.18635 3.42492e-316)
(-1.437 -5.26542 2.9525e-316)
(-0.887139 -5.2993 2.59874e-316)
(-0.880846 -6.03216 2.10297e-316)
(0.270605 -5.73817 1.40816e-316)
(-0.608562 8.59709 4.58072e-316)
(-0.901105 7.27352 5.7696e-316)
(-1.75006 6.56124 6.12459e-316)
(-1.90024 5.17552 6.46037e-316)
(-2.43281 4.86145 6.3635e-316)
(-2.63502 3.54571 6.29912e-316)
(-2.91067 3.42193 5.95744e-316)
(-3.24223 2.19273 5.71798e-316)
(-3.30425 2.10774 5.25768e-316)
(-3.76878 0.927928 4.94554e-316)
(-3.6306 0.761463 4.43687e-316)
(-4.16805 -0.403601 4.09233e-316)
(-3.81602 -0.762451 3.56668e-316)
(-4.27982 -1.88487 3.19011e-316)
(-3.69624 -2.53962 2.64971e-316)
(-3.81843 -3.47205 2.20117e-316)
(-3.04493 -4.47363 1.61525e-316)
(-2.44891 -4.96082 9.87626e-317)
(-1.69822 -6.09546 2.62296e-317)
(-0.175193 -6.09963 -8.26083e-317)
(-0.448211 7.18861 -1.86617e-316)
(-0.0765029 5.54556 6.2079e-317)
(-0.650625 5.01105 1.89609e-316)
(-0.346753 3.54366 3.03014e-316)
(-0.6642 3.43906 3.57213e-316)
(-0.512402 2.19045 4.00094e-316)
(-0.667858 2.18638 4.10832e-316)
(-0.688037 1.10085 4.17137e-316)
(-0.732685 0.995548 4.03991e-316)
(-0.940585 0.00622449 3.92443e-316)
(-0.877545 -0.366928 3.68091e-316)
(-1.29111 -1.30545 3.4956e-316)
(-1.07134 -2.1177 3.22213e-316)
(-1.6906 -2.97857 3.03352e-316)
(-1.21105 -4.38623 2.7835e-316)
(-1.97078 -4.99708 2.63124e-316)
(-1.10628 -6.99328 2.43548e-316)
(-1.80644 -7.00608 2.32289e-316)
(-0.510614 -8.93536 2.18522e-316)
(-0.812584 -8.11936 2.0337e-316)
(-0.70052 9.08489 -1.37765e-316)
(-0.197142 7.36315 7.01451e-317)
(-1.06277 6.74679 1.76194e-316)
(-0.813381 5.05642 2.62119e-316)
(-1.23493 4.93925 3.06017e-316)
(-1.3393 3.44169 3.35715e-316)
(-1.47191 3.53271 3.43828e-316)
(-1.90641 2.18803 3.45944e-316)
(-1.85179 2.32783 3.34309e-316)
(-2.60097 1.03892 3.22015e-316)
(-2.38259 1.10653 2.99631e-316)
(-3.43291 -0.225042 2.79018e-316)
(-2.98241 -0.366179 2.50335e-316)
(-4.26483 -1.77739 2.23201e-316)
(-3.41057 -2.31175 1.89528e-316)
(-4.70657 -3.67891 1.53845e-316)
(-3.20298 -4.81248 1.13856e-316)
(-4.04395 -5.77562 6.33981e-317)
(-1.72196 -7.42639 1.23677e-317)
(-1.48538 -7.74863 -6.35886e-317)
(-0.495804 8.26764 -4.73166e-316)
(0.330658 6.01645 -2.12404e-316)
(-0.22255 5.76428 -6.1422e-317)
(0.352587 3.78777 6.69385e-317)
(0.142759 4.08126 1.44e-316)
(0.411787 2.4991 2.02605e-316)
(0.380984 2.87077 2.34359e-316)
(0.379624 1.56684 2.55105e-316)
(0.420858 1.82561 2.61021e-316)
(0.143552 0.642273 2.62133e-316)
(0.235433 0.625063 2.55083e-316)
(-0.38443 -0.590415 2.47872e-316)
(-0.144106 -1.11665 2.36846e-316)
(-1.22957 -2.4577 2.29573e-316)
(-0.565416 -3.81946 2.22006e-316)
(-2.26699 -5.19817 2.22655e-316)
(-0.680587 -7.67863 2.26558e-316)
(-3.04788 -8.65314 2.45408e-316)
(0.0796836 -11.789 2.71122e-316)
(-2.47194 -11.7278 3.26483e-316)
(-0.331487 9.18627 -2.23599e-316)
(0.31781 6.9605 -6.24667e-317)
(-0.0524931 6.63467 3.37718e-317)
(0.155478 4.56381 1.08964e-316)
(0.090641 4.80032 1.58189e-316)
(-0.116171 3.11193 1.91919e-316)
(0.00550701 3.51111 2.11608e-316)
(-0.559365 2.09777 2.22573e-316)
(-0.347886 2.54123 2.24515e-316)
(-1.30128 1.20996 2.22104e-316)
(-1.01726 1.63819 2.13564e-316)
(-2.45901 0.159452 2.02975e-316)
(-1.98436 0.489066 1.88263e-316)
(-4.02279 -1.367 1.72014e-316)
(-3.01727 -1.30035 1.53613e-316)
(-5.63044 -3.64779 1.32481e-316)
(-3.44287 -4.15994 1.12408e-316)
(-6.17959 -6.75399 8.87896e-317)
(-1.91738 -8.29433 7.07643e-317)
(-3.48617 -10.485 6.21728e-317)
(0.000405087 8.31485 -3.85147e-316)
(0.498474 5.75957 -2.05367e-316)
(0.638412 5.94682 -8.93219e-317)
(0.974596 3.65799 9.05694e-318)
(1.20603 4.36736 7.36175e-317)
(1.35553 2.59588 1.23238e-316)
(1.60424 3.32988 1.53788e-316)
(1.57733 1.93525 1.7446e-316)
(1.77023 2.59279 1.8455e-316)
(1.5318 1.33429 1.89373e-316)
(1.64651 1.82615 1.88804e-316)
(1.08334 0.409678 1.86843e-316)
(1.22471 0.517655 1.83284e-316)
(0.108361 -1.38173 1.82392e-316)
(0.645924 -2.10756 1.83455e-316)
(-1.41677 -4.72409 1.93523e-316)
(0.343101 -6.9976 2.09262e-316)
(-3.17268 -10.1334 2.4738e-316)
(1.09567 -14.3696 2.93652e-316)
(-3.72289 -17.0999 3.96763e-316)
(0.60515 8.65699 -8.60674e-317)
(0.600681 6.2649 -2.41557e-317)
(1.30509 6.12302 3.05146e-317)
(0.981025 3.95079 7.23931e-317)
(1.5431 4.3969 1.06869e-316)
(1.06015 2.68996 1.31196e-316)
(1.56086 3.28158 1.48627e-316)
(0.906032 1.92647 1.59459e-316)
(1.32165 2.58781 1.64782e-316)
(0.36412 1.33917 1.66054e-316)
(0.687748 2.08182 1.63429e-316)
(-0.804395 0.584405 1.58358e-316)
(-0.458197 1.42463 1.50852e-316)
(-2.8109 -0.808925 1.41458e-316)
(-2.02979 0.102038 1.31074e-316)
(-5.55509 -3.42027 1.18369e-316)
(-3.32492 -2.66952 1.06573e-316)
(-7.83439 -7.66451 9.39926e-317)
(-2.24979 -8.13108 8.38456e-317)
(-5.73462 -13.3116 9.07312e-317)
(0.707892 7.25419 -1.78091e-316)
(0.490436 5.14092 -9.15393e-317)
(1.65883 5.59626 -2.5084e-317)
(1.51817 3.43796 3.41663e-317)
(2.38476 4.27937 7.42255e-317)
(2.31748 2.56878 1.06442e-316)
(2.95282 3.45246 1.26705e-316)
(2.91375 2.14091 1.40702e-316)
(3.31817 3.07087 1.47939e-316)
(3.25131 1.90088 1.51345e-316)
(3.39891 2.88229 1.51372e-316)
(3.20512 1.44638 1.50189e-316)
(3.13264 2.35552 1.48321e-316)
(2.6032 0.051969 1.48592e-316)
(2.5886 0.446583 1.50725e-316)
(1.26045 -3.5144 1.61123e-316)
(2.17284 -4.76969 1.75097e-316)
(-0.916387 -10.9988 2.10233e-316)
(2.6124 -15.9673 2.47475e-316)
(-3.27787 -24.0324 3.30266e-316)
(1.76133 7.57222 7.3792e-318)
(0.676991 5.38423 1.13328e-317)
(2.5719 5.21306 3.90088e-317)
(1.55646 3.29176 6.13208e-317)
(2.7815 3.70532 8.37784e-317)
(2.03904 2.19455 1.00727e-316)
(2.93948 2.78666 1.14327e-316)
(2.31263 1.63257 1.23639e-316)
(2.94441 2.34009 1.29501e-316)
(2.21526 1.31721 1.3229e-316)
(2.56451 2.18695 1.32416e-316)
(1.43515 0.882571 1.30391e-316)
(1.53395 2.01356 1.26511e-316)
(-0.471554 -0.271839 1.20596e-316)
(-0.328806 1.2814 1.13134e-316)
(-3.91615 -3.05081 1.02189e-316)
(-2.5987 -0.9393 8.90658e-317)
(-8.27011 -8.21127 6.922e-317)
(-2.6759 -6.58197 4.51586e-317)
(-8.18429 -14.4393 8.65896e-318)
(1.22381 5.34004 2.71992e-318)
(0.513529 4.49454 5.63532e-317)
(2.59002 4.86158 7.74024e-317)
(2.11952 3.24465 1.0257e-316)
(3.60296 3.85106 1.14786e-316)
(3.3868 2.41135 1.26891e-316)
(4.42019 3.19275 1.33179e-316)
(4.41393 2.10825 1.37264e-316)
(5.05958 3.11201 1.38052e-316)
(5.24877 2.18136 1.36862e-316)
(5.47766 3.47748 1.33906e-316)
(5.86477 2.25496 1.30277e-316)
(5.58578 3.87121 1.26411e-316)
(6.15666 1.53878 1.24238e-316)
(5.31729 3.24465 1.23263e-316)
(5.91956 -1.67022 1.28709e-316)
(4.85205 -1.10625 1.35397e-316)
(4.66131 -10.7929 1.56567e-316)
(4.45805 -15.5569 1.75554e-316)
(0.759658 -32.1306 2.09631e-316)
(2.69169 6.1519 -1.32899e-316)
(0.562514 4.29828 -5.9939e-317)
(3.18787 3.97959 -1.78218e-317)
(1.7078 2.5156 1.69393e-317)
(3.33343 2.75614 4.20618e-317)
(2.51931 1.58781 6.14892e-317)
(3.68958 2.04137 7.68134e-317)
(3.21527 1.18603 8.83083e-317)
(4.0085 1.77287 9.68917e-317)
(3.64282 1.07382 1.02759e-316)
(4.01909 1.82923 1.06397e-316)
(3.51705 0.916868 1.07982e-316)
(3.37827 1.94738 1.07685e-316)
(2.2839 0.0835404 1.05011e-316)
(1.61727 1.62906 9.98241e-317)
(-1.04335 -2.56813 8.93658e-317)
(-1.40063 0.0506261 7.42791e-317)
(-7.31944 -8.01806 4.49346e-317)
(-3.06949 -4.12728 8.81605e-318)
(-11.5941 -11.491 -6.75444e-317)
(1.37468 3.09195 3.36884e-316)
(0.871647 4.12014 3.28091e-316)
(3.61426 3.99161 2.70137e-316)
(3.18834 3.08586 2.34588e-316)
(5.24524 3.20673 2.07471e-316)
(4.9964 2.10547 1.90672e-316)
(6.41762 2.63493 1.78296e-316)
(6.46094 1.83461 1.68226e-316)
(7.36866 2.74546 1.58791e-316)
(7.82552 2.13025 1.49256e-316)
(8.23787 3.49995 1.39495e-316)
(9.27958 2.66848 1.29794e-316)
(8.99804 4.67681 1.20451e-316)
(10.9199 2.75271 1.12831e-316)
(9.3875 5.55742 1.06543e-316)
(12.731 0.467317 1.0569e-316)
(8.9125 3.43609 1.06085e-316)
(14.2921 -9.42451 1.17188e-316)
(6.38463 -11.8983 1.26946e-316)
(11.2938 -41.338 1.4115e-316)
(3.00513 4.48607 -5.01401e-316)
(0.205464 2.78435 -2.87642e-316)
(2.50226 2.42672 -1.87675e-316)
(1.03991 1.44759 -1.10828e-316)
(2.43934 1.56901 -6.31911e-317)
(1.81098 0.82918 -2.76485e-317)
(2.89355 1.09988 -7.32373e-319)
(2.62928 0.5945 2.05007e-317)
(3.38876 0.933649 3.78121e-317)
(3.31134 0.577216 5.18688e-317)
(3.66387 0.989593 6.3353e-317)
(3.65244 0.554213 7.24206e-317)
(3.40785 1.0678 7.91095e-317)
(3.18418 0.0437524 8.27473e-317)
(2.03559 0.728325 8.28276e-317)
(0.688448 -1.99343 7.60067e-317)
(-1.03904 -0.699988 6.34204e-317)
(-6.53687 -6.33232 3.31497e-317)
(-3.30389 -2.48536 -2.35496e-318)
(-18.5889 -1.36162 -7.95131e-317)
(1.19424 1.1521 1.34713e-315)
(1.97865 4.34837 8.8188e-316)
(5.72767 3.36775 6.43953e-316)
(5.67662 3.01871 4.71552e-316)
(8.69473 2.62013 3.87136e-316)
(8.39215 1.73949 3.28639e-316)
(10.3982 2.03211 2.92683e-316)
(10.4296 1.4564 2.63463e-316)
(11.7311 2.22615 2.39072e-316)
(12.4719 1.88994 2.16034e-316)
(13.2847 3.17501 1.94093e-316)
(15.1306 2.75313 1.73041e-316)
(15.2856 4.82349 1.53306e-316)
(18.8739 3.53187 1.36085e-316)
(17.3245 6.93586 1.21429e-316)
(23.9687 2.35187 1.12872e-316)
(17.4186 7.83899 1.06852e-316)
(30.3066 -7.74522 1.11858e-316)
(9.61362 -3.73838 1.16698e-316)
(33.1518 -52.8489 1.35076e-316)
(2.52148 2.41105 -1.24214e-315)
(-0.58149 0.170125 -7.81051e-316)
(-0.61303 0.274365 -5.49549e-316)
(-1.54808 -0.238729 -3.79154e-316)
(-1.77311 0.00710713 -2.8678e-316)
(-1.94132 -0.139621 -2.19393e-316)
(-1.84841 -0.0587629 -1.72341e-316)
(-1.91539 -0.145549 -1.33978e-316)
(-1.77041 -0.1932 -1.01907e-316)
(-1.94571 -0.250249 -7.36757e-317)
(-1.96107 -0.431091 -4.85927e-317)
(-2.37759 -0.463485 -2.63651e-317)
(-2.72078 -0.878213 -7.25319e-318)
(-3.61061 -0.892371 7.85504e-318)
(-4.39168 -1.84507 1.83082e-317)
(-6.46038 -1.69656 2.06185e-317)
(-6.83388 -3.84724 1.71369e-317)
(-13.6186 -1.67038 -2.61145e-318)
(-5.04517 -4.11887 -2.39493e-317)
(-35.042 21.1158 -6.86314e-317)
(0.182881 0.126691 3.18815e-315)
(4.33205 5.84885 1.66319e-315)
(11.5264 3.71829 1.1587e-315)
(11.8283 3.46538 8.06811e-316)
(17.6219 2.67847 6.74447e-316)
(16.8804 1.66236 5.82488e-316)
(20.489 1.89293 5.31425e-316)
(20.3414 1.32051 4.87394e-316)
(22.7195 2.11366 4.49541e-316)
(24.0062 1.89159 4.11885e-316)
(25.8776 3.24094 3.74939e-316)
(29.4202 3.0373 3.3857e-316)
(30.8719 5.24847 3.03974e-316)
(37.8941 4.29052 2.72787e-316)
(37.5378 8.12863 2.45235e-316)
(50.172 3.59927 2.24745e-316)
(41.5338 11.3129 2.06147e-316)
(64.988 -8.28067 1.96048e-316)
(23.1158 8.34314 1.81848e-316)
(73.7266 -71.0757 1.80715e-316)
)
;

boundaryField
{
    cavity
    {
        type            myImplicitVelocity;
    }
    lid
    {
        type            fixedValue;
        value           uniform (1 0 0);
    }
    frontAndBack
    {
        type            empty;
    }
}


// ************************************************************************* //
