/*--------------------------------*- C++ -*----------------------------------*\
| =========                 |                                                 |
| \\      /  F ield         | OpenFOAM: The Open Source CFD Toolbox           |
|  \\    /   O peration     | Version:  2.2.0                                 |
|   \\  /    A nd           | Web:      www.OpenFOAM.org                      |
|    \\/     M anipulation  |                                                 |
\*---------------------------------------------------------------------------*/
FoamFile
{
    version     2.0;
    format      ascii;
    class       volScalarField;
    location    "18";
    object      Theta;
}
// * * * * * * * * * * * * * * * * * * * * * * * * * * * * * * * * * * * * * //

dimensions      [0 2 -2 0 0 0 0];

internalField   nonuniform List<scalar> 
7920
(
2.76542
2.99616
3.11301
3.41202
3.45802
4.06101
3.63559
5.2605
2.73656
2.94048
3.05752
3.28608
3.40098
3.74926
3.69216
4.39819
2.69895
2.8918
3.00412
3.20434
3.34136
3.60084
3.65824
4.09835
2.65028
2.83114
2.93049
3.10509
3.2446
3.43336
3.56107
3.79728
2.60079
2.78165
2.86901
3.03516
3.17207
3.33326
3.48432
3.63984
2.56596
2.75017
2.82855
2.99207
3.12575
3.27506
3.43652
3.55668
2.56596
2.75017
2.82855
2.99207
3.12575
3.27506
3.43652
3.55668
2.60079
2.78165
2.86901
3.03516
3.17207
3.33326
3.48432
3.63984
2.65028
2.83114
2.93049
3.10509
3.2446
3.43335
3.56107
3.79726
2.69895
2.8918
3.00412
3.20434
3.34137
3.60084
3.65824
4.09837
2.73656
2.94048
3.05752
3.28608
3.40098
3.74924
3.69214
4.39815
2.76542
2.99616
3.11302
3.41203
3.45803
4.06105
3.63556
5.26061
2.23256
2.36411
2.32076
2.41815
2.39803
2.52423
2.44303
2.73333
2.24702
2.36375
2.33456
2.41018
2.42486
2.47835
2.52802
2.55753
2.26461
2.3575
2.33402
2.3892
2.40097
2.42571
2.46247
2.44143
2.29315
2.36026
2.35238
2.39229
2.41255
2.42348
2.47722
2.43059
2.32586
2.36093
2.36687
2.38797
2.40813
2.40645
2.44867
2.39089
2.34992
2.36367
2.3812
2.39143
2.41458
2.40901
2.44975
2.39393
2.34992
2.36367
2.3812
2.39143
2.41458
2.40901
2.44975
2.39394
2.32586
2.36093
2.36687
2.38797
2.40813
2.40645
2.44867
2.3909
2.29315
2.36026
2.35238
2.39229
2.41255
2.42348
2.47722
2.4306
2.26462
2.3575
2.33402
2.3892
2.40097
2.42572
2.46247
2.44144
2.24701
2.36375
2.33456
2.41018
2.42486
2.47835
2.52803
2.55754
2.23257
2.36411
2.32076
2.41814
2.39803
2.52421
2.44304
2.73327
2.20666
2.19984
2.24078
2.26148
2.29975
2.33839
2.38778
2.43791
2.20433
2.20359
2.24085
2.25787
2.30531
2.31643
2.41444
2.3609
2.20401
2.2044
2.23151
2.24533
2.27968
2.28529
2.35153
2.30515
2.2042
2.21442
2.23311
2.25106
2.2811
2.29064
2.35411
2.32305
2.20721
2.22325
2.23217
2.25124
2.27246
2.28243
2.3299
2.30861
2.20974
2.23107
2.23454
2.25587
2.2737
2.28638
2.32931
2.31789
2.20974
2.23107
2.23454
2.25587
2.2737
2.28638
2.3293
2.31789
2.20721
2.22325
2.23217
2.25124
2.27246
2.28243
2.3299
2.30861
2.2042
2.21442
2.23311
2.25106
2.2811
2.29064
2.35411
2.32305
2.20401
2.2044
2.23151
2.24533
2.27968
2.28529
2.35153
2.30515
2.20433
2.2036
2.24085
2.25787
2.30531
2.31643
2.41444
2.36089
2.20666
2.19984
2.24079
2.26149
2.29975
2.33842
2.38777
2.43798
2.06699
2.0984
2.08834
2.10389
2.11047
2.11506
2.14398
2.12286
2.06933
2.09999
2.09166
2.10471
2.11671
2.111
2.1601
2.10128
2.07448
2.09853
2.08962
2.09831
2.10395
2.09656
2.12398
2.077
2.08057
2.1021
2.09496
2.10313
2.10877
2.10484
2.12945
2.09765
2.0883
2.10443
2.09823
2.10353
2.10656
2.10262
2.11791
2.09409
2.09339
2.10713
2.10201
2.1064
2.1092
2.10655
2.11949
2.10238
2.09339
2.10713
2.10201
2.1064
2.10919
2.10655
2.11949
2.10238
2.0883
2.10443
2.09823
2.10353
2.10656
2.10262
2.11791
2.09409
2.08057
2.1021
2.09496
2.10313
2.10877
2.10484
2.12945
2.09765
2.07448
2.09853
2.08962
2.09831
2.10395
2.09657
2.12398
2.077
2.06933
2.09999
2.09165
2.10471
2.11671
2.111
2.1601
2.10128
2.06699
2.0984
2.08834
2.10389
2.11047
2.11506
2.14398
2.12286
2.05303
2.05103
2.05792
2.06113
2.06992
2.0711
2.09247
2.0779
2.0524
2.05239
2.0585
2.06157
2.0721
2.06911
2.09892
2.06774
2.05295
2.05241
2.05625
2.05838
2.06476
2.06171
2.07943
2.05601
2.05345
2.05519
2.0576
2.06107
2.06653
2.06612
2.08167
2.06754
2.05503
2.05731
2.05801
2.0615
2.06482
2.06507
2.07544
2.06624
2.0561
2.05928
2.05914
2.06311
2.06583
2.06714
2.07611
2.07077
2.0561
2.05928
2.05914
2.06311
2.06583
2.06714
2.07611
2.07077
2.05503
2.05731
2.05801
2.0615
2.06482
2.06507
2.07544
2.06624
2.05345
2.05519
2.0576
2.06107
2.06653
2.06612
2.08167
2.06754
2.05295
2.05241
2.05625
2.05838
2.06476
2.06171
2.07943
2.05602
2.0524
2.05239
2.0585
2.06157
2.0721
2.06911
2.09892
2.06774
2.05303
2.05103
2.05793
2.06113
2.06992
2.07111
2.09247
2.07792
2.01607
2.02336
2.02132
2.02457
2.02676
2.02676
2.03583
2.02694
2.01644
2.0238
2.02199
2.02487
2.02807
2.02617
2.03911
2.02296
2.01757
2.02352
2.02139
2.02338
2.02485
2.02284
2.03
2.01771
2.01873
2.02448
2.02255
2.02466
2.026
2.02514
2.03131
2.02356
2.02031
2.02514
2.0232
2.02484
2.02545
2.02477
2.02855
2.02312
2.02131
2.02586
2.024
2.02558
2.02608
2.02581
2.02897
2.02537
2.02131
2.02586
2.024
2.02558
2.02607
2.02581
2.02897
2.02537
2.02031
2.02514
2.0232
2.02484
2.02545
2.02477
2.02855
2.02313
2.01873
2.02448
2.02255
2.02466
2.026
2.02514
2.03131
2.02356
2.01757
2.02352
2.02139
2.02338
2.02485
2.02284
2.03
2.01771
2.01644
2.0238
2.02199
2.02487
2.02807
2.02617
2.03911
2.02296
2.01607
2.02336
2.02132
2.02457
2.02676
2.02676
2.03583
2.02694
2.01089
2.01081
2.01176
2.01252
2.01409
2.01407
2.0186
2.01457
2.01076
2.0111
2.0119
2.01266
2.01457
2.01379
2.01995
2.0128
2.01093
2.01109
2.01146
2.01199
2.01304
2.01226
2.01579
2.01045
2.01108
2.01166
2.01179
2.01258
2.01347
2.01328
2.01632
2.0131
2.01147
2.01208
2.01192
2.01269
2.01315
2.0131
2.01505
2.01293
2.01173
2.01248
2.01219
2.01303
2.01339
2.01357
2.01522
2.01395
2.01173
2.01248
2.01219
2.01303
2.01339
2.01357
2.01522
2.01395
2.01147
2.01208
2.01192
2.01269
2.01315
2.0131
2.01505
2.01293
2.01108
2.01166
2.01179
2.01258
2.01347
2.01328
2.01632
2.0131
2.01093
2.01109
2.01146
2.01199
2.01304
2.01226
2.01579
2.01045
2.01076
2.0111
2.0119
2.01266
2.01457
2.01379
2.01995
2.0128
2.01089
2.01081
2.01176
2.01252
2.01409
2.01407
2.0186
2.01457
2.0028
2.00439
2.0039
2.00459
2.00499
2.00501
2.00675
2.00505
2.00285
2.00447
2.00402
2.00465
2.00521
2.00492
2.00734
2.00434
2.00305
2.00443
2.0039
2.00438
2.00462
2.0043
2.00564
2.00338
2.00324
2.00462
2.0041
2.00462
2.00482
2.00473
2.00588
2.00449
2.00352
2.00476
2.00421
2.00466
2.00472
2.00467
2.00538
2.00443
2.00368
2.0049
2.00435
2.0048
2.00484
2.00486
2.00546
2.00485
2.00368
2.0049
2.00435
2.0048
2.00484
2.00486
2.00546
2.00485
2.00352
2.00476
2.00421
2.00466
2.00472
2.00467
2.00538
2.00443
2.00324
2.00462
2.0041
2.00462
2.00482
2.00473
2.00588
2.00449
2.00305
2.00443
2.0039
2.00438
2.00462
2.0043
2.00564
2.00338
2.00285
2.00447
2.00402
2.00465
2.00521
2.00492
2.00734
2.00434
2.0028
2.00439
2.0039
2.00459
2.00499
2.00501
2.00675
2.00505
2.00203
2.00165
2.002
2.00202
2.00231
2.00228
2.00299
2.00235
2.00202
2.00169
2.00203
2.00204
2.00238
2.00224
2.0032
2.00208
2.00206
2.00169
2.00197
2.00194
2.00215
2.00201
2.00256
2.00172
2.00209
2.00177
2.00202
2.00203
2.00222
2.00216
2.00264
2.00213
2.00217
2.00184
2.00205
2.00204
2.00218
2.00214
2.00245
2.00212
2.00222
2.0019
2.0021
2.0021
2.00221
2.00221
2.00248
2.00227
2.00222
2.0019
2.0021
2.0021
2.00221
2.00221
2.00248
2.00227
2.00217
2.00184
2.00205
2.00204
2.00218
2.00214
2.00245
2.00212
2.00209
2.00177
2.00202
2.00203
2.00222
2.00216
2.00264
2.00213
2.00206
2.00169
2.00197
2.00194
2.00215
2.00201
2.00256
2.00172
2.00202
2.00169
2.00203
2.00204
2.00238
2.00224
2.0032
2.00208
2.00203
2.00165
2.002
2.00202
2.00231
2.00228
2.00299
2.00235
1.99936
2.00053
1.99984
2.00025
2.00008
2.00016
2.00025
2.0001
1.99934
2.00054
1.99984
2.00025
2.0001
2.00015
2.0003
2.00005
1.99933
2.00055
1.99982
2.00023
2.00005
2.0001
2.00016
1.99997
1.99932
2.00058
1.99982
2.00025
2.00006
2.00014
2.00017
2.00006
1.99931
2.0006
1.99982
2.00026
2.00004
2.00013
2.00013
2.00006
1.9993
2.00062
1.99982
2.00027
2.00005
2.00015
2.00013
2.00009
1.9993
2.00062
1.99982
2.00027
2.00005
2.00015
2.00013
2.00009
1.99931
2.0006
1.99982
2.00026
2.00004
2.00013
2.00013
2.00006
1.99932
2.00058
1.99982
2.00025
2.00006
2.00014
2.00017
2.00006
1.99933
2.00055
1.99982
2.00023
2.00005
2.0001
2.00016
1.99997
1.99934
2.00054
1.99984
2.00025
2.0001
2.00015
2.0003
2.00005
1.99936
2.00053
1.99984
2.00025
2.00008
2.00016
2.00025
2.0001
2.00141
1.99901
2.00052
1.99963
2.00005
1.99987
1.99978
2.00004
2.00147
1.99898
2.00053
1.99961
2.00003
1.99988
1.9997
2.00009
2.00151
1.99896
2.00059
1.99965
2.00013
1.99996
1.99993
2.00022
2.00158
1.9989
2.00061
1.99961
2.00012
1.99991
1.99991
2.00008
2.00164
1.99885
2.00064
1.9996
2.00016
1.99992
1.99999
2.00009
2.00168
1.99881
2.00066
1.99958
2.00016
1.9999
1.99998
2.00004
2.00168
1.99881
2.00066
1.99958
2.00016
1.9999
1.99998
2.00004
2.00164
1.99885
2.00064
1.9996
2.00016
1.99992
1.99999
2.00009
2.00158
1.9989
2.00061
1.99961
2.00012
1.99991
1.99991
2.00008
2.00151
1.99896
2.00059
1.99965
2.00013
1.99996
1.99993
2.00022
2.00147
1.99898
2.00053
1.99961
2.00003
1.99988
1.9997
2.00009
2.00141
1.99901
2.00052
1.99963
2.00005
1.99987
1.99978
2.00004
1.99404
1.99848
1.99513
1.99668
1.99517
1.99549
1.9941
1.9947
1.99394
1.99848
1.99504
1.99669
1.99505
1.99561
1.9938
1.99529
1.9937
1.99855
1.99504
1.99685
1.99534
1.99595
1.99471
1.99582
1.99345
1.99851
1.99485
1.99674
1.99521
1.99573
1.99459
1.99526
1.99312
1.99851
1.9947
1.99674
1.99523
1.99577
1.99485
1.99531
1.99291
1.99848
1.99456
1.99667
1.99514
1.99567
1.99481
1.99509
1.99291
1.99848
1.99456
1.99667
1.99514
1.99567
1.99481
1.99509
1.99312
1.99851
1.9947
1.99674
1.99523
1.99577
1.99485
1.99531
1.99345
1.99851
1.99485
1.99674
1.99521
1.99573
1.99459
1.99526
1.9937
1.99855
1.99504
1.99685
1.99534
1.99595
1.99471
1.99582
1.99394
1.99848
1.99504
1.99669
1.99505
1.99561
1.9938
1.99529
1.99404
1.99848
1.99513
1.99668
1.99517
1.99549
1.9941
1.9947
2.00253
1.99108
1.99865
1.99362
1.99581
1.99484
1.99324
1.99612
2.00282
1.99079
1.99862
1.99345
1.99543
1.99488
1.99213
1.99686
2.00289
1.99069
1.99903
1.99384
1.99649
1.99588
1.99485
1.99849
2.00317
1.99015
1.99901
1.99339
1.99628
1.99519
1.99448
1.99673
2.0033
1.9897
1.99915
1.99328
1.9966
1.99532
1.99537
1.9969
2.00344
1.98932
1.99914
1.99302
1.99652
1.99501
1.99528
1.99624
2.00344
1.98932
1.99914
1.99302
1.99652
1.99501
1.99528
1.99624
2.0033
1.9897
1.99915
1.99328
1.9966
1.99532
1.99537
1.9969
2.00317
1.99015
1.99901
1.99339
1.99628
1.99519
1.99448
1.99673
2.00289
1.99069
1.99903
1.99384
1.99649
1.99588
1.99485
1.99849
2.00282
1.99079
1.99862
1.99345
1.99543
1.99488
1.99213
1.99686
2.00253
1.99108
1.99865
1.99362
1.99581
1.99484
1.99324
1.99612
1.96166
1.96973
1.95612
1.95612
1.94582
1.94145
1.9289
1.92566
1.96099
1.96921
1.95518
1.95604
1.94396
1.9434
1.92369
1.93469
1.95968
1.96949
1.95584
1.95796
1.94768
1.94795
1.93404
1.94287
1.95785
1.96831
1.95428
1.95661
1.94638
1.94591
1.93267
1.93789
1.95549
1.96749
1.95325
1.95647
1.94702
1.94667
1.93612
1.93929
1.95383
1.96664
1.95205
1.95563
1.94626
1.9456
1.93578
1.93709
1.95383
1.96664
1.95205
1.95563
1.94626
1.9456
1.93578
1.93709
1.95549
1.96749
1.95325
1.95647
1.94702
1.94667
1.93612
1.93929
1.95785
1.96831
1.95428
1.95661
1.94638
1.94591
1.93267
1.93789
1.95968
1.96949
1.95584
1.95796
1.94768
1.94795
1.93404
1.94287
1.96099
1.96921
1.95518
1.95604
1.94396
1.9434
1.92369
1.93469
1.96166
1.96973
1.95612
1.95612
1.94582
1.94145
1.9289
1.92566
1.9775
1.96973
1.96869
1.96286
1.95831
1.95361
1.94453
1.94334
1.97737
1.96909
1.96806
1.96276
1.95663
1.95529
1.93952
1.95102
1.9766
1.96922
1.96902
1.96463
1.9604
1.95977
1.94948
1.95899
1.97573
1.9679
1.96807
1.96342
1.95948
1.95797
1.94834
1.95434
1.97436
1.96692
1.96765
1.96336
1.96044
1.95887
1.95185
1.95581
1.97344
1.96597
1.96692
1.9626
1.95996
1.95796
1.95165
1.9538
1.97344
1.96597
1.96692
1.9626
1.95996
1.95796
1.95165
1.9538
1.97436
1.96692
1.96765
1.96336
1.96044
1.95887
1.95185
1.95581
1.97573
1.9679
1.96807
1.96342
1.95948
1.95797
1.94834
1.95434
1.9766
1.96922
1.96902
1.96463
1.9604
1.95977
1.94948
1.95899
1.97737
1.96909
1.96806
1.96276
1.95663
1.95529
1.93952
1.95102
1.9775
1.96973
1.96869
1.96286
1.95831
1.95361
1.94453
1.94334
2.81294
3.0541
3.18417
3.49576
3.55669
4.16918
3.76416
5.37127
2.80425
3.02079
3.16068
3.40499
3.55105
3.90508
3.91136
4.5698
2.79088
2.99023
3.12638
3.33644
3.49761
3.75341
3.84815
4.22918
2.77922
2.96191
3.09393
3.27881
3.44524
3.63605
3.79574
3.9949
2.76948
2.94134
3.06779
3.23838
3.39864
3.55983
3.72419
3.85209
2.76326
2.92924
3.05268
3.21625
3.3727
3.52146
3.68865
3.78916
2.76108
2.92629
3.04934
3.21199
3.36846
3.51528
3.68512
3.77957
2.76159
2.92998
3.05328
3.21873
3.37622
3.5271
3.69504
3.79611
2.76697
2.94519
3.07442
3.25293
3.41942
3.59553
3.77275
3.92727
2.77075
2.96068
3.08903
3.28411
3.4405
3.66179
3.77614
4.05768
2.77934
2.98814
3.12422
3.35485
3.50913
3.82387
3.89713
4.42042
2.77541
3.00115
3.1192
3.40335
3.46418
4.00435
3.66892
5.03533
2.1802
2.34331
2.27651
2.39174
2.35651
2.5036
2.39011
2.75118
2.17625
2.33379
2.26979
2.36752
2.35494
2.43362
2.42466
2.53828
2.16866
2.32557
2.25895
2.35044
2.33984
2.39824
2.40184
2.46242
2.16294
2.31823
2.25104
2.33751
2.33088
2.37193
2.3994
2.406
2.15867
2.3126
2.24369
2.32673
2.3194
2.35054
2.38177
2.36057
2.15767
2.31074
2.24207
2.32387
2.31725
2.34509
2.38016
2.34873
2.16036
2.31177
2.24397
2.32505
2.31815
2.34632
2.37891
2.3504
2.16678
2.31777
2.25279
2.33592
2.33017
2.3662
2.39386
2.38868
2.17698
2.32466
2.2626
2.3468
2.33895
2.38566
2.39779
2.43008
2.18971
2.33923
2.28258
2.37567
2.36738
2.44444
2.43142
2.55559
2.20476
2.34589
2.29131
2.38498
2.36467
2.46164
2.40061
2.59788
2.21991
2.36669
2.31746
2.43451
2.39863
2.58439
2.42024
2.9343
2.19556
2.17791
2.22935
2.24953
2.28773
2.34492
2.36574
2.49426
2.19294
2.17115
2.22192
2.23367
2.27607
2.30547
2.35562
2.38638
2.18945
2.16603
2.21529
2.22456
2.26456
2.29038
2.33408
2.36413
2.18688
2.16146
2.21029
2.21709
2.25703
2.27779
2.32656
2.34429
2.185
2.15824
2.20623
2.21128
2.24996
2.26756
2.31492
2.32602
2.18428
2.15752
2.20516
2.2099
2.2484
2.26536
2.31329
2.32287
2.18528
2.15866
2.20563
2.21045
2.24791
2.26537
2.31053
2.32284
2.18709
2.16332
2.20998
2.21738
2.25491
2.27738
2.31977
2.34541
2.19133
2.1681
2.21366
2.2223
2.25695
2.28374
2.31592
2.35714
2.19448
2.17923
2.2247
2.24127
2.27679
2.32002
2.34501
2.43062
2.20087
2.18349
2.22631
2.24253
2.26989
2.31658
2.31641
2.4191
2.20354
2.20053
2.24331
2.27631
2.30334
2.39289
2.36875
2.6166
2.04861
2.0874
2.07258
2.09305
2.09496
2.11078
2.12172
2.14463
2.04754
2.08447
2.06921
2.08637
2.08904
2.09459
2.11359
2.10148
2.04593
2.0825
2.06634
2.08305
2.08374
2.08993
2.10205
2.0973
2.04491
2.08097
2.06458
2.08077
2.08113
2.08665
2.09919
2.09377
2.04439
2.07998
2.06331
2.07904
2.07872
2.08376
2.09457
2.08903
2.04459
2.08012
2.06358
2.07936
2.07909
2.08451
2.09513
2.09084
2.04593
2.0809
2.06452
2.08015
2.07948
2.08537
2.09418
2.09236
2.0477
2.08333
2.06754
2.0842
2.08395
2.09253
2.10004
2.10589
2.05123
2.08524
2.06978
2.08602
2.08439
2.09429
2.09614
2.10888
2.05392
2.09075
2.07661
2.09627
2.09626
2.11406
2.11437
2.14879
2.05923
2.0915
2.07739
2.09454
2.0906
2.10704
2.09465
2.13136
2.06221
2.10027
2.08857
2.11321
2.11252
2.14802
2.13302
2.23225
2.04787
2.04338
2.05228
2.0555
2.06354
2.07002
2.08237
2.09127
2.04726
2.04188
2.05043
2.05209
2.06011
2.06198
2.07693
2.0701
2.04651
2.04089
2.04898
2.05042
2.05727
2.05978
2.07057
2.06869
2.04605
2.04016
2.04814
2.04937
2.05592
2.05841
2.06885
2.06776
2.04582
2.03975
2.04755
2.0486
2.05474
2.05718
2.06645
2.06598
2.04585
2.03995
2.0477
2.04887
2.05495
2.05772
2.0667
2.06729
2.04638
2.04049
2.0481
2.04932
2.0551
2.05818
2.06612
2.06814
2.04694
2.0419
2.04947
2.05141
2.05729
2.06177
2.06904
2.07494
2.04835
2.04305
2.05032
2.05225
2.05725
2.0623
2.0667
2.0757
2.04906
2.04611
2.05348
2.05747
2.06324
2.07221
2.07626
2.09561
2.05116
2.0467
2.05342
2.05638
2.05995
2.06784
2.06573
2.08489
2.05168
2.0516
2.05878
2.06603
2.07152
2.08862
2.08713
2.13586
2.0114
2.02002
2.01721
2.02136
2.02263
2.02518
2.03004
2.03167
2.01117
2.01938
2.01641
2.01989
2.02114
2.02169
2.02766
2.02247
2.01086
2.01895
2.01576
2.01915
2.0198
2.02072
2.02454
2.02194
2.01068
2.01868
2.01544
2.01877
2.01928
2.02028
2.02383
2.02193
2.01065
2.01855
2.01523
2.0185
2.0188
2.01985
2.02276
2.02137
2.01076
2.01868
2.01539
2.01871
2.01901
2.02026
2.02299
2.02226
2.01114
2.01895
2.01569
2.019
2.01918
2.02059
2.02281
2.02287
2.01157
2.0196
2.01644
2.02002
2.0203
2.02236
2.02427
2.02621
2.01245
2.02009
2.01697
2.02043
2.02036
2.02265
2.02323
2.02661
2.013
2.02145
2.01859
2.02289
2.02328
2.02733
2.02785
2.03601
2.01432
2.02162
2.01872
2.02233
2.02179
2.02519
2.02289
2.03073
2.01489
2.0238
2.02147
2.02687
2.02744
2.03497
2.03332
2.05446
2.0096
2.00898
2.01032
2.01106
2.01246
2.01347
2.01615
2.01687
2.00948
2.00869
2.00996
2.01041
2.01179
2.01194
2.01507
2.01284
2.00935
2.0085
2.00967
2.01007
2.01118
2.01149
2.01363
2.01259
2.00927
2.00839
2.00953
2.00992
2.01095
2.01132
2.01332
2.01265
2.00925
2.00833
2.00944
2.0098
2.01074
2.01114
2.01283
2.01242
2.00928
2.00841
2.0095
2.0099
2.01083
2.01133
2.01293
2.01285
2.00941
2.00856
2.00962
2.01004
2.0109
2.01148
2.01285
2.01314
2.00954
2.00887
2.00993
2.0105
2.01139
2.01227
2.01349
2.01463
2.00986
2.00913
2.01013
2.01069
2.0114
2.01238
2.013
2.01479
2.01001
2.00978
2.0108
2.01178
2.01267
2.01446
2.01505
2.01897
2.01048
2.0099
2.01079
2.01153
2.01196
2.01346
2.01278
2.01653
2.01057
2.01093
2.01194
2.01356
2.01448
2.01781
2.01752
2.02713
2.00191
2.00368
2.0031
2.00391
2.00416
2.00462
2.00562
2.0058
2.00187
2.00357
2.00296
2.00365
2.0039
2.00401
2.0052
2.00417
2.00182
2.00349
2.00284
2.00351
2.00364
2.00382
2.00459
2.00405
2.00179
2.00345
2.00279
2.00345
2.00356
2.00376
2.00447
2.0041
2.00179
2.00343
2.00276
2.00341
2.00348
2.0037
2.00427
2.00402
2.00182
2.00346
2.00279
2.00346
2.00352
2.00379
2.00432
2.00422
2.00189
2.00352
2.00286
2.00352
2.00357
2.00386
2.0043
2.00436
2.00197
2.00365
2.003
2.00372
2.00378
2.0042
2.00457
2.00499
2.00214
2.00375
2.0031
2.00381
2.0038
2.00426
2.00439
2.00508
2.00224
2.00401
2.0034
2.00426
2.00434
2.00512
2.00525
2.00682
2.00248
2.00405
2.00343
2.00416
2.00407
2.00473
2.00433
2.00583
2.00258
2.00446
2.00394
2.005
2.00513
2.00653
2.00631
2.01021
2.00179
2.00135
2.00174
2.00176
2.00202
2.00215
2.00258
2.00265
2.00178
2.00131
2.00169
2.00167
2.00192
2.00192
2.00242
2.00204
2.00175
2.00128
2.00164
2.00161
2.00182
2.00185
2.00219
2.00199
2.00174
2.00127
2.00162
2.00159
2.00179
2.00183
2.00214
2.00202
2.00174
2.00126
2.00161
2.00158
2.00176
2.0018
2.00207
2.00199
2.00174
2.00128
2.00162
2.00159
2.00178
2.00183
2.00209
2.00207
2.00177
2.0013
2.00165
2.00162
2.00179
2.00186
2.00208
2.00212
2.00179
2.00135
2.0017
2.00169
2.00187
2.00199
2.00218
2.00236
2.00185
2.00139
2.00173
2.00173
2.00188
2.00201
2.00211
2.00239
2.00187
2.00149
2.00184
2.00189
2.00208
2.00233
2.00243
2.00304
2.00196
2.00151
2.00184
2.00186
2.00197
2.00218
2.00208
2.00267
2.00197
2.00167
2.00203
2.00217
2.00237
2.00285
2.00283
2.00431
1.99936
2.00044
1.99981
2.00019
2.00003
2.00014
2.00017
2.00017
1.99936
2.00043
1.99981
2.00017
2.00002
2.00009
2.00014
2.00006
1.99936
2.00043
1.9998
2.00016
2
2.00008
2.00009
2.00004
1.99936
2.00042
1.9998
2.00016
1.99999
2.00007
2.00008
2.00005
1.99937
2.00042
1.9998
2.00015
1.99999
2.00007
2.00007
2.00005
1.99937
2.00042
1.9998
2.00016
1.99999
2.00008
2.00007
2.00007
1.99937
2.00043
1.99981
2.00016
2
2.00009
2.00007
2.00008
1.99937
2.00044
1.99981
2.00018
2.00001
2.00011
2.00009
2.00013
1.99937
2.00046
1.99982
2.00019
2.00001
2.00012
2.00008
2.00014
1.99937
2.00048
1.99983
2.00022
2.00005
2.00018
2.00014
2.00027
1.99937
2.00049
1.99983
2.00021
2.00002
2.00015
2.00006
2.00019
1.99936
2.00053
1.99986
2.00028
2.0001
2.00029
2.00022
2.00054
2.00131
1.99916
2.0005
1.99969
2.00008
1.99986
1.99988
1.99985
2.0013
1.99917
2.00051
1.99972
2.0001
1.99993
1.99992
2.00002
2.00129
1.99919
2.00052
1.99974
2.00013
1.99995
1.99998
2.00004
2.00128
1.99919
2.00051
1.99974
2.00014
1.99995
1.99999
2.00003
2.00127
1.9992
2.00051
1.99975
2.00015
1.99996
2.00002
2.00004
2.00127
1.9992
2.00051
1.99974
2.00014
1.99995
2.00001
2.00002
2.00127
1.99918
2.00051
1.99973
2.00014
1.99995
2.00002
2.00001
2.00129
1.99916
2.00051
1.99971
2.00012
1.99991
1.99999
1.99994
2.0013
1.99914
2.00051
1.9997
2.00013
1.99991
2.00003
1.99994
2.00133
1.9991
2.0005
1.99965
2.00008
1.99981
1.99993
1.99972
2.00135
1.99908
2.00052
1.99967
2.00013
1.99987
2.00007
1.99987
2.00139
1.99902
2.00049
1.99957
2.00002
1.99966
1.99984
1.99935
1.99484
1.99871
1.99573
1.99702
1.99569
1.99573
1.99473
1.99436
1.99489
1.99877
1.99584
1.99719
1.99587
1.99614
1.99502
1.99546
1.99496
1.99881
1.99593
1.99727
1.99603
1.99625
1.99537
1.99553
1.99501
1.99883
1.99598
1.99732
1.9961
1.99632
1.99547
1.99555
1.99504
1.99884
1.99602
1.99735
1.99616
1.99637
1.99559
1.99561
1.99503
1.99883
1.996
1.99733
1.99614
1.99633
1.99557
1.99552
1.99497
1.99881
1.99596
1.9973
1.99612
1.99629
1.99559
1.99545
1.9949
1.99875
1.99587
1.9972
1.99599
1.9961
1.99543
1.99511
1.99474
1.99872
1.99577
1.99715
1.99596
1.99606
1.99551
1.99505
1.99462
1.99861
1.99557
1.99689
1.99564
1.99556
1.99501
1.99408
1.99438
1.99861
1.9955
1.99694
1.99575
1.99575
1.99546
1.99458
1.99425
1.99841
1.99517
1.99646
1.99512
1.99469
1.99435
1.99199
2.00263
1.99247
1.99908
1.99448
1.99655
1.99491
1.99462
1.99409
2.00263
1.99266
1.99923
1.99485
1.99686
1.99578
1.99511
1.99637
2.00264
1.9928
1.99937
1.99505
1.9972
1.99604
1.99592
1.99655
2.00261
1.9929
1.9994
1.99515
1.99729
1.99614
1.99604
1.99656
2.00258
1.99295
1.99944
1.99523
1.99742
1.99627
1.99633
1.99676
2.00256
1.99291
1.9994
1.99517
1.99736
1.99617
1.99626
1.99653
2.00251
1.99281
1.99936
1.99509
1.99735
1.9961
1.99635
1.9964
2.00254
1.99258
1.99923
1.9948
1.99708
1.9956
1.99597
1.99544
2.00245
1.99238
1.99919
1.99469
1.99715
1.99557
1.99639
1.99538
2.00259
1.9919
1.9989
1.99399
1.99643
1.99425
1.99516
1.99266
2.00241
1.99178
1.99901
1.99418
1.997
1.99495
1.99682
1.99428
2.00265
1.99104
1.99848
1.99292
1.99558
1.99229
1.99404
1.98781
1.96695
1.97296
1.96067
1.9592
1.95019
1.94265
1.93499
1.91956
1.96741
1.97382
1.96176
1.96135
1.95194
1.94808
1.93692
1.93465
1.96797
1.97438
1.96267
1.96241
1.95353
1.94978
1.9402
1.93684
1.96839
1.97483
1.96331
1.96321
1.95445
1.9511
1.94125
1.93877
1.96863
1.9751
1.96375
1.96376
1.95523
1.95208
1.94271
1.94047
1.9686
1.97506
1.96371
1.96371
1.9552
1.95196
1.94268
1.94016
1.96823
1.97485
1.96345
1.9635
1.95511
1.95174
1.943
1.93976
1.96763
1.97416
1.96252
1.9623
1.95376
1.94958
1.94122
1.93565
1.96658
1.97364
1.96184
1.96177
1.95361
1.94899
1.94233
1.93453
1.96556
1.97205
1.95969
1.95866
1.94999
1.94287
1.93685
1.92201
1.96406
1.97183
1.95945
1.95907
1.95165
1.94457
1.94277
1.92607
1.96289
1.96926
1.95601
1.9534
1.94525
1.93183
1.93218
1.89385
1.98102
1.97326
1.97196
1.96547
1.96162
1.95376
1.94965
1.93576
1.98131
1.97405
1.97283
1.96735
1.963
1.95855
1.95094
1.94906
1.98172
1.97461
1.97362
1.96839
1.96446
1.96023
1.95393
1.95145
1.98199
1.97506
1.97414
1.96912
1.96524
1.96146
1.95476
1.9533
1.98213
1.97535
1.97452
1.96968
1.96599
1.96246
1.95616
1.9551
1.98212
1.97531
1.9745
1.96964
1.96598
1.96239
1.95614
1.9549
1.98183
1.97507
1.97431
1.96946
1.96594
1.96223
1.9565
1.9546
1.98147
1.97436
1.97355
1.96833
1.96475
1.96024
1.9549
1.95078
1.98067
1.97377
1.97303
1.96782
1.9647
1.9597
1.95606
1.94973
1.98015
1.97216
1.97127
1.96494
1.96151
1.95406
1.95115
1.93807
1.97894
1.97186
1.97121
1.96535
1.96323
1.95574
1.95696
1.94189
1.97844
1.96935
1.96842
1.96022
1.95766
1.94429
1.94759
1.91287
2.81339
3.05409
3.18413
3.49455
3.55649
4.16389
3.7664
5.35074
2.80626
3.02385
3.1653
3.41032
3.56052
3.91195
3.93315
4.57299
2.79383
2.99354
3.13064
3.34066
3.504
3.75653
3.85909
4.22333
2.78376
2.96781
3.10175
3.28809
3.45786
3.64851
3.81663
4.00743
2.77555
2.94898
3.07749
3.2499
3.41312
3.57518
3.74515
3.86878
2.7715
2.93999
3.06642
3.23321
3.39357
3.54588
3.71831
3.82122
2.7715
2.93999
3.06642
3.23321
3.39357
3.54588
3.71831
3.82122
2.77555
2.94898
3.07749
3.2499
3.41312
3.57518
3.74516
3.86879
2.78376
2.96781
3.10175
3.28808
3.45786
3.6485
3.81663
4.00742
2.79383
2.99354
3.13064
3.34066
3.50401
3.75654
3.8591
4.22337
2.80626
3.02385
3.1653
3.41031
3.56052
3.91192
3.93314
4.57293
2.81339
3.05407
3.18414
3.49456
3.5565
4.16398
3.76635
5.35098
2.17975
2.34352
2.27653
2.39274
2.35674
2.50704
2.38912
2.76269
2.17446
2.33295
2.26779
2.36625
2.35185
2.43277
2.41765
2.5409
2.16577
2.32474
2.25685
2.3498
2.33817
2.39917
2.39971
2.46861
2.15848
2.31639
2.24706
2.33489
2.32673
2.36924
2.39375
2.40505
2.15249
2.31012
2.23849
2.32338
2.31468
2.34715
2.3769
2.35871
2.14934
2.30691
2.23444
2.31811
2.30955
2.33769
2.3717
2.34009
2.14934
2.30691
2.23444
2.31811
2.30955
2.33769
2.3717
2.34009
2.15249
2.31012
2.23849
2.32339
2.31468
2.34715
2.3769
2.35872
2.15848
2.31639
2.24706
2.33489
2.32673
2.36925
2.39375
2.40506
2.16577
2.32474
2.25685
2.3498
2.33817
2.39917
2.3997
2.46861
2.17445
2.33296
2.26779
2.36625
2.35184
2.43278
2.41765
2.54092
2.17976
2.34352
2.27652
2.39273
2.35673
2.507
2.38913
2.76257
2.19544
2.17808
2.22959
2.25057
2.28807
2.34832
2.36488
2.50473
2.19295
2.17053
2.2216
2.23365
2.27502
2.30693
2.35184
2.39214
2.18914
2.16532
2.21546
2.2253
2.26534
2.2938
2.33517
2.37342
2.18642
2.15984
2.20985
2.21669
2.2568
2.27922
2.32616
2.34927
2.18401
2.15593
2.20559
2.21064
2.25018
2.26922
2.31643
2.33151
2.18283
2.15389
2.20356
2.20772
2.24727
2.26466
2.31327
2.32408
2.18283
2.15389
2.20356
2.20772
2.24727
2.26466
2.31327
2.32408
2.18401
2.15593
2.20559
2.21064
2.25018
2.26922
2.31643
2.33151
2.18642
2.15984
2.20985
2.21669
2.2568
2.27922
2.32616
2.34926
2.18914
2.16532
2.21546
2.2253
2.26534
2.29381
2.33517
2.37344
2.19295
2.17053
2.2216
2.23365
2.27502
2.30692
2.35183
2.39212
2.19543
2.17808
2.2296
2.25058
2.28808
2.34837
2.36486
2.50485
2.04832
2.08764
2.07274
2.09404
2.09532
2.11405
2.1209
2.15531
2.04691
2.08391
2.06823
2.08576
2.087
2.09478
2.10788
2.10549
2.04467
2.0821
2.06567
2.08328
2.08347
2.09215
2.10145
2.10512
2.04309
2.07979
2.0629
2.07962
2.07927
2.08619
2.09614
2.09582
2.04167
2.07836
2.06111
2.07754
2.07688
2.08309
2.0928
2.09075
2.04098
2.07756
2.06018
2.07639
2.07566
2.08136
2.09146
2.08798
2.04098
2.07756
2.06018
2.07639
2.07566
2.08136
2.09146
2.08798
2.04167
2.07836
2.06111
2.07754
2.07688
2.08309
2.0928
2.09075
2.04308
2.07979
2.0629
2.07962
2.07927
2.08619
2.09614
2.09582
2.04467
2.0821
2.06567
2.08328
2.08347
2.09215
2.10145
2.10513
2.04691
2.08391
2.06823
2.08576
2.087
2.09478
2.10787
2.10549
2.04832
2.08764
2.07274
2.09404
2.09531
2.11405
2.12089
2.1553
2.04774
2.04351
2.05243
2.05614
2.06381
2.07215
2.08187
2.09817
2.04714
2.04148
2.05
2.05179
2.05899
2.06231
2.07352
2.07299
2.04612
2.04054
2.04885
2.05069
2.05737
2.06146
2.07052
2.07407
2.04552
2.03929
2.0475
2.0488
2.05514
2.05848
2.06739
2.06958
2.04492
2.03855
2.04672
2.04785
2.05408
2.0572
2.0659
2.06768
2.04467
2.03812
2.0463
2.04728
2.05347
2.05637
2.06519
2.06641
2.04467
2.03812
2.0463
2.04728
2.05347
2.05637
2.06519
2.06641
2.04492
2.03855
2.04673
2.04785
2.05408
2.0572
2.06591
2.06768
2.04552
2.03929
2.04751
2.0488
2.05514
2.05848
2.06739
2.06958
2.04612
2.04054
2.04885
2.05069
2.05737
2.06147
2.07052
2.07408
2.04714
2.04148
2.05
2.05179
2.05899
2.06231
2.07352
2.07298
2.04774
2.04351
2.05243
2.05615
2.06381
2.07217
2.08186
2.0982
2.01129
2.02011
2.01728
2.02173
2.02279
2.02643
2.02975
2.03581
2.01099
2.01915
2.01608
2.01966
2.02039
2.02177
2.02547
2.02405
2.01045
2.01878
2.01557
2.01925
2.01976
2.0216
2.02436
2.02501
2.01012
2.01822
2.0149
2.01836
2.01865
2.02015
2.02275
2.02276
2.0098
2.01791
2.01453
2.01796
2.01821
2.01965
2.02216
2.02205
2.00966
2.01773
2.01432
2.0177
2.01791
2.01926
2.0218
2.02143
2.00966
2.01773
2.01432
2.0177
2.01791
2.01926
2.0218
2.02143
2.0098
2.01791
2.01453
2.01796
2.01821
2.01965
2.02216
2.02205
2.01012
2.01822
2.0149
2.01836
2.01865
2.02015
2.02275
2.02276
2.01045
2.01878
2.01557
2.01925
2.01976
2.0216
2.02436
2.02501
2.01099
2.01915
2.01608
2.01966
2.02039
2.02177
2.02547
2.02405
2.01129
2.02011
2.01728
2.02173
2.02279
2.02643
2.02975
2.03581
2.00956
2.00902
2.01036
2.01125
2.01254
2.0141
2.01601
2.01895
2.00944
2.00857
2.00982
2.01031
2.01144
2.012
2.01401
2.01367
2.00922
2.0084
2.00961
2.01014
2.01119
2.01195
2.01358
2.01415
2.0091
2.00813
2.00932
2.00973
2.01069
2.01129
2.01283
2.01311
2.00897
2.00798
2.00917
2.00955
2.0105
2.01108
2.01259
2.01282
2.00892
2.00789
2.00908
2.00943
2.01037
2.0109
2.01243
2.01253
2.00892
2.00789
2.00908
2.00943
2.01037
2.0109
2.01243
2.01253
2.00897
2.00798
2.00917
2.00955
2.0105
2.01108
2.0126
2.01282
2.0091
2.00813
2.00932
2.00973
2.01069
2.01129
2.01283
2.01311
2.00922
2.0084
2.00961
2.01014
2.01119
2.01196
2.01358
2.01415
2.00944
2.00857
2.00982
2.01031
2.01144
2.012
2.01401
2.01367
2.00956
2.00902
2.01036
2.01125
2.01254
2.0141
2.016
2.01896
2.00188
2.0037
2.00312
2.00399
2.0042
2.00491
2.00556
2.00675
2.00183
2.00351
2.00289
2.0036
2.00373
2.00403
2.0047
2.00453
2.00173
2.00344
2.0028
2.00353
2.00363
2.00402
2.00455
2.00475
2.00167
2.00334
2.00267
2.00336
2.00342
2.00373
2.00422
2.00429
2.00161
2.00328
2.00261
2.00328
2.00334
2.00364
2.00413
2.00417
2.00159
2.00324
2.00257
2.00323
2.00328
2.00357
2.00406
2.00404
2.00159
2.00324
2.00257
2.00323
2.00328
2.00357
2.00406
2.00404
2.00161
2.00328
2.00261
2.00328
2.00334
2.00364
2.00413
2.00417
2.00167
2.00334
2.00267
2.00336
2.00342
2.00373
2.00422
2.00429
2.00173
2.00344
2.0028
2.00353
2.00363
2.00402
2.00455
2.00475
2.00183
2.00351
2.00289
2.0036
2.00373
2.00403
2.0047
2.00453
2.00188
2.0037
2.00312
2.00399
2.0042
2.00491
2.00556
2.00675
2.00179
2.00136
2.00175
2.00179
2.00204
2.00226
2.00255
2.00302
2.00177
2.00129
2.00167
2.00165
2.00186
2.00193
2.00223
2.00219
2.00173
2.00126
2.00163
2.00162
2.00182
2.00193
2.00218
2.00227
2.00171
2.00122
2.00159
2.00155
2.00174
2.00182
2.00205
2.0021
2.00169
2.0012
2.00156
2.00153
2.00171
2.00179
2.00202
2.00205
2.00168
2.00118
2.00155
2.00151
2.00169
2.00176
2.00199
2.00201