/*--------------------------------*- C++ -*----------------------------------*\
| =========                 |                                                 |
| \\      /  F ield         | foam-extend: Open Source CFD                    |
|  \\    /   O peration     | Version:  3.0                                   |
|   \\  /    A nd           | Web:         http://www.extend-project.de       |
|    \\/     M anipulation  |                                                 |
\*---------------------------------------------------------------------------*/
FoamFile
{
    version     2.0;
    format      ascii;
    class       volScalarField;
    location    "10";
    object      p;
}
// * * * * * * * * * * * * * * * * * * * * * * * * * * * * * * * * * * * * * //

dimensions      [0 0 0 0 0 0 0];

internalField   nonuniform List<scalar> 
1920
(
-0.229384
-0.206505
-0.194059
-0.179398
-0.172098
-0.162307
-0.158055
-0.15139
-0.149023
-0.144437
-0.143216
-0.14
-0.139381
-0.136989
-0.136511
-0.134461
-0.133672
-0.131477
-0.129881
-0.126994
-0.228408
-0.205626
-0.193233
-0.178634
-0.171364
-0.161616
-0.157382
-0.150744
-0.148388
-0.143821
-0.142605
-0.139403
-0.138786
-0.136405
-0.135928
-0.133887
-0.133101
-0.130915
-0.129327
-0.126451
-0.226441
-0.203855
-0.19157
-0.177096
-0.169889
-0.160224
-0.156027
-0.149447
-0.147111
-0.142584
-0.141378
-0.138204
-0.137592
-0.135232
-0.134759
-0.132736
-0.131957
-0.12979
-0.128215
-0.125364
-0.223517
-0.201223
-0.189096
-0.174809
-0.167695
-0.158155
-0.154012
-0.147517
-0.145211
-0.140741
-0.139551
-0.136418
-0.135814
-0.133484
-0.133017
-0.13102
-0.130251
-0.128112
-0.126557
-0.123743
-0.219623
-0.197718
-0.185802
-0.171764
-0.164774
-0.1554
-0.151329
-0.144947
-0.142682
-0.13829
-0.137121
-0.134042
-0.133449
-0.13116
-0.130701
-0.128739
-0.127983
-0.125882
-0.124354
-0.121589
-0.214802
-0.193378
-0.181723
-0.167993
-0.161157
-0.151988
-0.148006
-0.141765
-0.139548
-0.135253
-0.134109
-0.131098
-0.130518
-0.128279
-0.12783
-0.125911
-0.125172
-0.123116
-0.121622
-0.118918
-0.209048
-0.188197
-0.176855
-0.163493
-0.15684
-0.147917
-0.144042
-0.137967
-0.135811
-0.131631
-0.130518
-0.127587
-0.127023
-0.124844
-0.124407
-0.122539
-0.12182
-0.119819
-0.118365
-0.115734
-0.202412
-0.182223
-0.171241
-0.158303
-0.151861
-0.143221
-0.139469
-0.133587
-0.131499
-0.127451
-0.126373
-0.123536
-0.122989
-0.120879
-0.120456
-0.118647
-0.117951
-0.116014
-0.114606
-0.112058
-0.194895
-0.175456
-0.164882
-0.152424
-0.146221
-0.137903
-0.13429
-0.128627
-0.126616
-0.122719
-0.121682
-0.118949
-0.118423
-0.116391
-0.115985
-0.114243
-0.113573
-0.111707
-0.110352
-0.107898
-0.186559
-0.167951
-0.157829
-0.145904
-0.139966
-0.132003
-0.128545
-0.123123
-0.121199
-0.117468
-0.116475
-0.113859
-0.113355
-0.11141
-0.111021
-0.109354
-0.108712
-0.106926
-0.105628
-0.10328
-0.177408
-0.159713
-0.150088
-0.138748
-0.133101
-0.125529
-0.122241
-0.117085
-0.115255
-0.111708
-0.110763
-0.108276
-0.107797
-0.105948
-0.105577
-0.103992
-0.103382
-0.101684
-0.10045
-0.0982163
-0.167513
-0.150805
-0.141716
-0.131008
-0.125677
-0.118527
-0.115421
-0.110553
-0.108825
-0.105476
-0.104583
-0.102235
-0.101782
-0.100036
-0.0996861
-0.0981891
-0.0976127
-0.0960094
-0.0948441
-0.0927354
-0.156885
-0.141237
-0.132725
-0.122697
-0.117704
-0.111008
-0.1081
-0.103541
-0.101922
-0.0987851
-0.0979497
-0.0957503
-0.0953265
-0.093691
-0.0933635
-0.0919615
-0.0914218
-0.0899202
-0.0888289
-0.086854
-0.145602
-0.131079
-0.123179
-0.113871
-0.109237
-0.103022
-0.100323
-0.0960919
-0.0945896
-0.0916782
-0.0909026
-0.0888613
-0.0884678
-0.0869498
-0.0866458
-0.0853445
-0.0848435
-0.0834499
-0.082437
-0.0806042
-0.133678
-0.120345
-0.113092
-0.104547
-0.100293
-0.0945868
-0.0921088
-0.0882241
-0.086845
-0.0841721
-0.0834602
-0.0815861
-0.081225
-0.0798314
-0.0795523
-0.0783577
-0.0778978
-0.0766183
-0.0756885
-0.0740057
-0.121199
-0.10911
-0.102534
-0.0947863
-0.0909287
-0.0857554
-0.0835085
-0.0799863
-0.0787358
-0.0763122
-0.0756666
-0.0739673
-0.0736397
-0.0723761
-0.072123
-0.0710398
-0.0706227
-0.0694627
-0.0686196
-0.0670939
-0.108184
-0.0973934
-0.0915236
-0.0846083
-0.0811651
-0.0765474
-0.074542
-0.0713982
-0.070282
-0.0681188
-0.0675427
-0.066026
-0.0657337
-0.0646059
-0.0643801
-0.0634132
-0.063041
-0.0620056
-0.061253
-0.0598912
-0.0947223
-0.0852741
-0.0801345
-0.0740794
-0.0710644
-0.0670211
-0.065265
-0.0625122
-0.0615348
-0.0596405
-0.0591359
-0.0578078
-0.0575518
-0.0565641
-0.0563663
-0.0555196
-0.0551936
-0.054287
-0.053628
-0.0524357
-0.0808385
-0.0727754
-0.0683893
-0.0632218
-0.0606489
-0.0571984
-0.0556998
-0.0533506
-0.0525166
-0.0509001
-0.0504696
-0.0493362
-0.0491178
-0.048275
-0.0481063
-0.0473838
-0.0471057
-0.0463319
-0.0457696
-0.044752
-0.0666252
-0.0599794
-0.0563643
-0.052105
-0.0499843
-0.0471402
-0.0459049
-0.0439685
-0.043281
-0.0419485
-0.0415935
-0.0406593
-0.0404791
-0.0397844
-0.0396452
-0.0390496
-0.0388203
-0.0381825
-0.037719
-0.0368803
-0.0521099
-0.0469122
-0.0440848
-0.0407536
-0.039095
-0.0368706
-0.0359046
-0.0343902
-0.0338525
-0.0328105
-0.032533
-0.0318023
-0.0316615
-0.0311182
-0.0310094
-0.0305436
-0.0303644
-0.0298656
-0.0295031
-0.0288471
-0.0373882
-0.0336586
-0.0316297
-0.0292393
-0.028049
-0.0264528
-0.0257595
-0.0246727
-0.0242867
-0.0235389
-0.0233396
-0.0228151
-0.022714
-0.022324
-0.0222458
-0.0219115
-0.0217828
-0.0214248
-0.0211647
-0.020694
-0.0224896
-0.0202463
-0.0190259
-0.017588
-0.0168721
-0.015912
-0.0154951
-0.0148414
-0.0146093
-0.0141595
-0.0140397
-0.0137243
-0.0136636
-0.013429
-0.013382
-0.0131809
-0.0131035
-0.0128882
-0.0127318
-0.0124487
-0.00751156
-0.00676193
-0.00635403
-0.00587331
-0.00563388
-0.00531288
-0.00517337
-0.00495475
-0.00487706
-0.00472654
-0.00468637
-0.00458077
-0.00456032
-0.00448174
-0.00446592
-0.00439857
-0.00437261
-0.0043006
-0.00424828
-0.0041537
0.00751558
0.00676611
0.00635846
0.00587841
0.00563937
0.00531877
0.00517953
0.00496129
0.00488378
0.00473366
0.00469364
0.00458843
0.00456814
0.00448995
0.00447428
0.00440725
0.00438141
0.00430956
0.0042573
0.00416272
0.0224935
0.0202503
0.0190303
0.017593
0.0168775
0.0159178
0.0155011
0.0148478
0.014616
0.0141665
0.0140469
0.0137319
0.0136713
0.0134371
0.0133903
0.0131895
0.0131123
0.0128971
0.0127407
0.0124576
0.0373922
0.0336627
0.0316341
0.0292443
0.0280544
0.0264585
0.0257655
0.024679
0.0242933
0.0235458
0.0233467
0.0228226
0.0227216
0.022332
0.022254
0.02192
0.0217914
0.0214336
0.0211735
0.0207029
0.0521136
0.046916
0.0440888
0.0407583
0.0391
0.0368761
0.0359103
0.0343962
0.0338588
0.0328171
0.0325397
0.0318095
0.0316689
0.0311259
0.0310173
0.0305518
0.0303727
0.0298741
0.0295117
0.0288557
0.0666291
0.0599834
0.0563684
0.0521098
0.0499893
0.0471456
0.0459105
0.0439745
0.0432871
0.041955
0.0416002
0.0406663
0.0404863
0.0397919
0.0396528
0.0390576
0.0388284
0.0381908
0.0377274
0.0368887
0.0808419
0.0727789
0.0683929
0.063226
0.0606534
0.0572032
0.0557049
0.053356
0.0525222
0.0509061
0.0504757
0.0493427
0.0491245
0.0482821
0.0481135
0.0473913
0.0471133
0.0463398
0.0457776
0.04476
0.0947259
0.0852778
0.0801383
0.0740836
0.0710689
0.0670259
0.06527
0.0625175
0.0615402
0.0596463
0.0591418
0.0578141
0.0575582
0.0565709
0.0563732
0.0555269
0.055201
0.0542945
0.0536357
0.0524434
0.108187
0.0973964
0.0915267
0.0846119
0.0811689
0.0765516
0.0745463
0.0714028
0.0702868
0.0681239
0.0675479
0.0660316
0.0657395
0.064612
0.0643863
0.0634198
0.0630478
0.0620125
0.0612601
0.0598984
0.121202
0.109113
0.102537
0.0947899
0.0909326
0.0857595
0.0835127
0.0799908
0.0787403
0.0763171
0.0756716
0.0739726
0.0736452
0.0723819
0.072129
0.071046
0.0706291
0.0694692
0.0686262
0.0671007
0.133681
0.120347
0.113094
0.10455
0.100296
0.09459
0.0921121
0.0882277
0.0868487
0.0841761
0.0834643
0.0815906
0.0812296
0.0798363
0.0795575
0.0783631
0.0779034
0.0766242
0.0756944
0.0740118
0.145604
0.131081
0.123181
0.113874
0.10924
0.103026
0.100326
0.0960954
0.0945932
0.091682
0.0909065
0.0888655
0.0884721
0.0869544
0.0866506
0.0853495
0.0848487
0.0834553
0.0824426
0.0806098
0.156887
0.141239
0.132727
0.122699
0.117706
0.11101
0.108102
0.103543
0.101925
0.0987879
0.0979525
0.0957535
0.0953298
0.0936946
0.0933673
0.0919656
0.091426
0.0899247
0.0888336
0.0868588
0.167516
0.150807
0.141718
0.13101
0.125679
0.118529
0.115424
0.110556
0.108828
0.105478
0.104586
0.102238
0.101785
0.100039
0.0996895
0.0981927
0.0976165
0.0960134
0.0948483
0.0927397
0.177409
0.159714
0.150088
0.138749
0.133102
0.12553
0.122242
0.117087
0.115256
0.111709
0.110765
0.108278
0.107799
0.10595
0.10558
0.103994
0.103384
0.101687
0.100453
0.0982196
0.186561
0.167952
0.15783
0.145905
0.139967
0.132004
0.128546
0.123125
0.1212
0.11747
0.116476
0.113861
0.113357
0.111412
0.111023
0.109356
0.108714
0.106929
0.105631
0.103283
0.194895
0.175456
0.164882
0.152424
0.146221
0.137903
0.13429
0.128627
0.126616
0.12272
0.121682
0.11895
0.118423
0.116392
0.115985
0.114244
0.113574
0.111709
0.110353
0.1079
0.202413
0.182224
0.171241
0.158303
0.151861
0.143221
0.139469
0.133587
0.131498
0.127451
0.126373
0.123536
0.122989
0.120879
0.120457
0.118648
0.117952
0.116014
0.114607
0.112059
0.209047
0.188196
0.176854
0.163491
0.156838
0.147916
0.144041
0.137966
0.135809
0.13163
0.130517
0.127586
0.127022
0.124843
0.124407
0.122539
0.12182
0.119819
0.118365
0.115734
0.214803
0.193378
0.181723
0.167992
0.161156
0.151987
0.148005
0.141763
0.139547
0.135252
0.134108
0.131097
0.130517
0.128278
0.127829
0.12591
0.125171
0.123115
0.121621
0.118917
0.219622
0.197716
0.1858
0.171761
0.164772
0.155398
0.151327
0.144945
0.142679
0.138288
0.137118
0.13404
0.133447
0.131157
0.130699
0.128737
0.127981
0.12588
0.124352
0.121588
0.223517
0.201223
0.189095
0.174807
0.167693
0.158153
0.154009
0.147514
0.145208
0.140739
0.139548
0.136415
0.135811
0.133481
0.133015
0.131017
0.130249
0.128109
0.126555
0.123741
0.226438
0.203853
0.191567
0.177093
0.169886
0.160221
0.156023
0.149443
0.147107
0.14258
0.141374
0.1382
0.137588
0.135228
0.134755
0.132732
0.131953
0.129786
0.128211
0.125361
0.228407
0.205625
0.193232
0.178632
0.171362
0.161613
0.157379
0.150741
0.148385
0.143818
0.142601
0.139399
0.138782
0.136401
0.135924
0.133883
0.133098
0.130912
0.129323
0.126448
0.229381
0.206501
0.194056
0.179393
0.172093
0.162302
0.15805
0.151385
0.149018
0.144432
0.143211
0.139995
0.139376
0.136985
0.136506
0.134456
0.133667
0.131472
0.129877
0.12699
0.229389
0.206509
0.194062
0.179399
0.172099
0.162307
0.158055
0.151389
0.149022
0.144436
0.143214
0.139998
0.139378
0.136987
0.136508
0.134459
0.13367
0.131474
0.129879
0.126991
0.228398
0.205617
0.193224
0.178625
0.171356
0.161607
0.157373
0.150736
0.14838
0.143813
0.142597
0.139395
0.138778
0.136398
0.135921
0.13388
0.133095
0.130909
0.12932
0.126445
0.226446
0.203859
0.191573
0.177098
0.16989
0.160225
0.156027
0.149446
0.14711
0.142582
0.141376
0.138202
0.13759
0.135229
0.134757
0.132733
0.131954
0.129787
0.128212
0.125362
0.223507
0.201214
0.189087
0.1748
0.167686
0.158146
0.154003
0.147508
0.145202
0.140733
0.139543
0.13641
0.135807
0.133477
0.13301
0.131013
0.130245
0.128106
0.126551
0.123738
0.219629
0.197722
0.185805
0.171766
0.164776
0.155401
0.151329
0.144947
0.142681
0.138289
0.13712
0.134041
0.133448
0.131158
0.1307
0.128737
0.127982
0.12588
0.124352
0.121588
0.214792
0.193368
0.181714
0.167984
0.161148
0.15198
0.147998
0.141756
0.139541
0.135246
0.134102
0.131091
0.130511
0.128272
0.127824
0.125905
0.125166
0.12311
0.121616
0.118913
0.209054
0.188201
0.176858
0.163495
0.156841
0.147918
0.144043
0.137967
0.135811
0.131631
0.130517
0.127586
0.127022
0.124842
0.124406
0.122538
0.121819
0.119818
0.118364
0.115733
0.202402
0.182214
0.171232
0.158294
0.151852
0.143213
0.139461
0.133579
0.131491
0.127444
0.126366
0.123529
0.122983
0.120873
0.12045
0.118642
0.117946
0.116009
0.114601
0.112053
0.194902
0.175461
0.164886
0.152427
0.146224
0.137904
0.134291
0.128627
0.126617
0.122719
0.121681
0.118949
0.118423
0.116391
0.115984
0.114242
0.113572
0.111707
0.110351
0.107898
0.186549
0.167942
0.15782
0.145895
0.139958
0.131995
0.128537
0.123116
0.121192
0.117462
0.116469
0.113853
0.11335
0.111405
0.111016
0.109349
0.108707
0.106922
0.105625
0.103277
0.177415
0.159718
0.150092
0.138751
0.133104
0.125531
0.122242
0.117086
0.115256
0.111709
0.110764
0.108277
0.107797
0.105948
0.105578
0.103992
0.103382
0.101684
0.10045
0.0982169
0.167503
0.150796
0.141707
0.131
0.125669
0.118519
0.115414
0.110547
0.108819
0.10547
0.104578
0.10223
0.101777
0.100031
0.099682
0.0981852
0.0976092
0.0960061
0.0948412
0.0927327
0.156892
0.141243
0.13273
0.122701
0.117707
0.11101
0.108102
0.103542
0.101924
0.0987864
0.0979508
0.0957513
0.0953276
0.093692
0.0933646
0.0919626
0.091423
0.0899214
0.0888302
0.0868553
0.145592
0.13107
0.12317
0.113864
0.10923
0.103015
0.100317
0.0960858
0.0945839
0.0916728
0.0908977
0.0888567
0.0884637
0.086946
0.0866424
0.0853414
0.0848407
0.0834474
0.0824348
0.0806022
0.133685
0.120351
0.113097
0.104551
0.100296
0.0945896
0.0921113
0.0882263
0.0868471
0.0841739
0.083462
0.0815878
0.0812268
0.0798331
0.0795542
0.0783595
0.0778997
0.0766203
0.0756905
0.0740077
0.121189
0.109101
0.102526
0.0947787
0.0909216
0.0857488
0.0835024
0.0799807
0.0787306
0.0763074
0.0756622
0.0739634
0.0736363
0.072373
0.0721203
0.0710373
0.0706206
0.0694608
0.068618
0.0670925
0.108191
0.0973993
0.0915288
0.0846125
0.0811689
0.0765507
0.074545
0.0714009
0.0702847
0.0681213
0.0675451
0.0660283
0.0657362
0.0646083
0.0643826
0.0634157
0.0630436
0.0620081
0.0612556
0.0598937
0.0947127
0.0852655
0.0801266
0.0740721
0.0710577
0.0670149
0.0652593
0.062507
0.06153
0.0596363
0.0591322
0.0578044
0.0575489
0.0565616
0.0563641
0.0555178
0.0551922
0.0542857
0.0536271
0.0524348
0.0808457
0.0727814
0.0683947
0.0632264
0.060653
0.057202
0.0557032
0.0533537
0.0525197
0.050903
0.0504725
0.0493391
0.0491208
0.0482779
0.0481093
0.0473868
0.0471088
0.046335
0.0457727
0.044755
0.0666156
0.0599709
0.0563565
0.052098
0.0499778
0.0471344
0.0458996
0.0439637
0.0432767
0.0419447
0.0415902
0.0406564
0.0404767
0.0397823
0.0396435
0.0390482
0.0388193
0.0381817
0.0377185
0.0368799
0.0521171
0.0469183
0.0440903
0.0407584
0.0390994
0.0368746
0.0359084
0.0343937
0.033856
0.0328138
0.0325363
0.0318056
0.0316649
0.0311215
0.0310129
0.0305471
0.0303679
0.029869
0.0295065
0.0288505
0.0373786
0.0336502
0.031622
0.0292324
0.0280427
0.0264472
0.0257544
0.0246682
0.0242828
0.0235354
0.0233366
0.0228126
0.0227119
0.0223223
0.0222445
0.0219105
0.0217821
0.0214244
0.0211645
0.0206939
0.0224968
0.0202524
0.0190315
0.017593
0.0168767
0.0159162
0.0154991
0.0148451
0.0146131
0.0141631
0.0140434
0.0137279
0.0136672
0.0134326
0.0133858
0.0131846
0.0131073
0.012892
0.0127355
0.0124523
0.00750199
0.0067535
0.00634641
0.00586653
0.00562774
0.00530741
0.00516846
0.00495043
0.00487326
0.00472327
0.00468359
0.00457845
0.00455846
0.00448027
0.00446486
0.00439782
0.0043722
0.00430039
0.0042483
0.00415378
-0.0075084
-0.00675993
-0.00635283
-0.00587345
-0.00563472
-0.00531455
-0.00517544
-0.00495746
-0.00487995
-0.00472997
-0.00468988
-0.00458474
-0.00456434
-0.00448618
-0.00447041
-0.0044034
-0.00437749
-0.0043057
-0.00425345
-0.00415901
-0.0225031
-0.0202588
-0.0190379
-0.0175998
-0.0168836
-0.0159233
-0.015506
-0.0148521
-0.0146197
-0.0141698
-0.0140496
-0.0137342
-0.0136731
-0.0134385
-0.0133913
-0.0131902
-0.0131126
-0.0128973
-0.0127406
-0.0124575
-0.0373851
-0.0336566
-0.0316285
-0.0292394
-0.0280498
-0.0264544
-0.0257614
-0.0246753
-0.0242895
-0.0235422
-0.023343
-0.022819
-0.0227179
-0.0223283
-0.0222501
-0.0219161
-0.0217875
-0.0214297
-0.0211697
-0.0206992
-0.0521233
-0.0469246
-0.0440966
-0.0407652
-0.0391063
-0.0368816
-0.0359153
-0.0344007
-0.0338627
-0.0328205
-0.0325426
-0.0318119
-0.0316708
-0.0311274
-0.0310184
-0.0305526
-0.0303731
-0.0298743
-0.0295117
-0.0288556
-0.0666221
-0.0599774
-0.056363
-0.052105
-0.0499849
-0.0471416
-0.0459067
-0.0439709
-0.0432836
-0.0419516
-0.0415967
-0.0406629
-0.0404828
-0.0397884
-0.0396492
-0.039054
-0.0388247
-0.0381872
-0.0377237
-0.0368852
-0.0808517
-0.0727876
-0.0684008
-0.0632331
-0.0606599
-0.0572091
-0.0557102
-0.0533607
-0.0525264
-0.0509098
-0.0504789
-0.0493454
-0.0491268
-0.0482839
-0.0481149
-0.0473924
-0.0471141
-0.0463403
-0.0457779
-0.0447602
-0.0947191
-0.085272
-0.0801331
-0.0740792
-0.0710648
-0.0670223
-0.0652666
-0.0625143
-0.0615371
-0.0596433
-0.0591388
-0.0578111
-0.0575551
-0.0565678
-0.05637
-0.0555237
-0.0551978
-0.0542913
-0.0536324
-0.0524402
-0.108197
-0.0974052
-0.0915349
-0.0846192
-0.0811757
-0.0765577
-0.074552
-0.0714079
-0.0702915
-0.0681281
-0.0675516
-0.0660348
-0.0657423
-0.0646144
-0.0643884
-0.0634215
-0.0630491
-0.0620136
-0.0612609
-0.059899
-0.121195
-0.109108
-0.102532
-0.0947858
-0.0909288
-0.0857563
-0.0835097
-0.0799881
-0.0787378
-0.0763147
-0.0756691
-0.0739702
-0.0736428
-0.0723795
-0.0721264
-0.0710435
-0.0706265
-0.0694666
-0.0686236
-0.067098
-0.133691
-0.120356
-0.113103
-0.104558
-0.100303
-0.0945966
-0.0921183
-0.0882334
-0.086854
-0.0841809
-0.0834687
-0.0815945
-0.0812331
-0.0798395
-0.0795603
-0.0783656
-0.0779055
-0.076626
-0.075696
-0.0740131
-0.145598
-0.131076
-0.123177
-0.113871
-0.109237
-0.103023
-0.100324
-0.0960934
-0.0945913
-0.0916803
-0.0909048
-0.0888639
-0.0884705
-0.0869528
-0.0866489
-0.0853478
-0.0848469
-0.0834535
-0.0824407
-0.080608
-0.156897
-0.141248
-0.132736
-0.122707
-0.117714
-0.111017
-0.108109
-0.103549
-0.10193
-0.0987934
-0.0979577
-0.0957582
-0.0953342
-0.0936986
-0.093371
-0.0919689
-0.091429
-0.0899274
-0.088836
-0.086861
-0.167509
-0.150802
-0.141714
-0.131007
-0.125676
-0.118527
-0.115422
-0.110554
-0.108826
-0.105477
-0.104585
-0.102237
-0.101785
-0.100038
-0.0996888
-0.0981919
-0.0976157
-0.0960125
-0.0948474
-0.0927388
-0.177419
-0.159723
-0.150097
-0.138757
-0.13311
-0.125538
-0.122249
-0.117093
-0.115263
-0.111716
-0.110771
-0.108283
-0.107804
-0.105955
-0.105584
-0.103999
-0.103388
-0.10169
-0.100456
-0.0982228
-0.186554
-0.167948
-0.157826
-0.145902
-0.139965
-0.132003
-0.128545
-0.123124
-0.121199
-0.117469
-0.116476
-0.113861
-0.113357
-0.111412
-0.111023
-0.109356
-0.108714
-0.106929
-0.105631
-0.103283
-0.194906
-0.175466
-0.164891
-0.152433
-0.14623
-0.137911
-0.134298
-0.128634
-0.126623
-0.122726
-0.121688
-0.118956
-0.118429
-0.116398
-0.115991
-0.114249
-0.113578
-0.111713
-0.110357
-0.107904
-0.202408
-0.182219
-0.171238
-0.1583
-0.151859
-0.14322
-0.139468
-0.133587
-0.131498
-0.127452
-0.126374
-0.123536
-0.12299
-0.12088
-0.120457
-0.118649
-0.117953
-0.116015
-0.114608
-0.11206
-0.209057
-0.188206
-0.176863
-0.1635
-0.156847
-0.147924
-0.144049
-0.137974
-0.135817
-0.131637
-0.130524
-0.127593
-0.127028
-0.124849
-0.124413
-0.122544
-0.121825
-0.119824
-0.11837
-0.115739
-0.214797
-0.193374
-0.18172
-0.16799
-0.161154
-0.151987
-0.148005
-0.141763
-0.139548
-0.135253
-0.134109
-0.131098
-0.130518
-0.128279
-0.127831
-0.125911
-0.125173
-0.123117
-0.121623
-0.118919
-0.219632
-0.197726
-0.185809
-0.171771
-0.16478
-0.155406
-0.151335
-0.144953
-0.142687
-0.138296
-0.137126
-0.134047
-0.133454
-0.131164
-0.130706
-0.128743
-0.127988
-0.125886
-0.124358
-0.121593
-0.223512
-0.201219
-0.189092
-0.174806
-0.167692
-0.158153
-0.15401
-0.147515
-0.145209
-0.14074
-0.13955
-0.136417
-0.135813
-0.133483
-0.133017
-0.13102
-0.130251
-0.128112
-0.126557
-0.123743
-0.226449
-0.203862
-0.191576
-0.177102
-0.169895
-0.16023
-0.156032
-0.149452
-0.147115
-0.142588
-0.141382
-0.138207
-0.137596
-0.135235
-0.134762
-0.132739
-0.13196
-0.129793
-0.128217
-0.125367
-0.228402
-0.205621
-0.193229
-0.17863
-0.171361
-0.161613
-0.157379
-0.150742
-0.148386
-0.143819
-0.142603
-0.139401
-0.138784
-0.136403
-0.135927
-0.133886
-0.1331
-0.130914
-0.129326
-0.126451
-0.22939
-0.206511
-0.194065
-0.179402
-0.172102
-0.162311
-0.158059
-0.151393
-0.149027
-0.14444
-0.143218
-0.140003
-0.139383
-0.136992
-0.136513
-0.134463
-0.133674
-0.131479
-0.129883
-0.126996
)
;

boundaryField
{
    out
    {
        type            implicitExtrapolation;
    }
    in
    {
        type            implicitExtrapolation;
    }
    frontAndBack
    {
        type            empty;
    }
}


// ************************************************************************* //
