/*--------------------------------*- C++ -*----------------------------------*\
| =========                 |                                                 |
| \\      /  F ield         | foam-extend: Open Source CFD                    |
|  \\    /   O peration     | Version:  3.0                                   |
|   \\  /    A nd           | Web:         http://www.extend-project.de       |
|    \\/     M anipulation  |                                                 |
\*---------------------------------------------------------------------------*/
FoamFile
{
    version     2.0;
    format      ascii;
    class       volSymmTensorField;
    location    "10";
    object      sigma;
}
// * * * * * * * * * * * * * * * * * * * * * * * * * * * * * * * * * * * * * //

dimensions      [0 0 0 0 0 0 0];

internalField   nonuniform List<symmTensor> 
1920
(
(-0.176653 -0.00579008 4.97556e-20 0.176745 -1.14646e-20 -9.20178e-05)
(-0.171297 -0.00685221 9.60378e-20 0.171544 1.48424e-20 -0.000246795)
(-0.161473 -0.00721723 1.08733e-19 0.161857 1.03256e-20 -0.000383954)
(-0.149792 -0.00720358 9.79331e-20 0.150298 3.89688e-20 -0.000505973)
(-0.137583 -0.00698491 7.77245e-20 0.138197 6.41383e-20 -0.000614221)
(-0.125507 -0.00665827 7.85237e-20 0.126216 5.28262e-20 -0.000709151)
(-0.113901 -0.00627966 6.29124e-20 0.114692 9.46296e-20 -0.000790723)
(-0.102919 -0.00588186 7.62075e-20 0.103777 7.9732e-20 -0.000858335)
(-0.092627 -0.00548417 7.14372e-20 0.0935381 1.20614e-19 -0.000911161)
(-0.0830426 -0.00509848 6.37315e-20 0.0839906 1.36056e-19 -0.000947965)
(-0.0741616 -0.00473158 3.78559e-20 0.075129 1.4832e-19 -0.000967444)
(-0.0659738 -0.00438829 2.00087e-20 0.0669418 1.24915e-19 -0.000967981)
(-0.0584648 -0.00407102 4.84135e-20 0.0594128 1.10752e-19 -0.000948036)
(-0.0516319 -0.00378253 6.14267e-20 0.0525378 1.26286e-19 -0.000905843)
(-0.0454704 -0.00352389 2.6972e-20 0.0463103 1.01786e-19 -0.000839879)
(-0.0399976 -0.00329775 5.25065e-20 0.0407462 1.67639e-20 -0.000748523)
(-0.0352262 -0.00310513 6.21695e-20 0.0358569 -2.44669e-20 -0.000630623)
(-0.0312001 -0.00294955 2.23585e-20 0.0316853 -3.44527e-20 -0.000485127)
(-0.0279541 -0.00283284 1.91889e-20 0.0282658 -6.85657e-20 -0.000311757)
(-0.0255627 -0.00275833 -4.87248e-21 0.0256733 -3.88993e-20 -0.00011064)
(-0.175894 -0.0173423 5.38936e-20 0.175986 5.91696e-21 -9.16346e-05)
(-0.169919 -0.0204619 9.7507e-20 0.170165 1.44557e-20 -0.000245766)
(-0.159783 -0.021521 1.10105e-19 0.160165 -6.38978e-22 -0.000382355)
(-0.14796 -0.0214619 1.27909e-19 0.148464 -5.4274e-21 -0.000503866)
(-0.135711 -0.0207981 9.69277e-20 0.136322 4.95186e-20 -0.000611667)
(-0.123651 -0.0198165 9.10348e-20 0.124357 6.27592e-20 -0.000706205)
(-0.112095 -0.0186827 9.03963e-20 0.112883 9.72726e-20 -0.000787442)
(-0.10118 -0.0174934 7.09698e-20 0.102035 1.94721e-19 -0.000854779)
(-0.0909645 -0.0163056 7.72861e-20 0.0918719 2.3841e-19 -0.000907391)
(-0.0814587 -0.0151542 6.23677e-20 0.0824028 2.19183e-19 -0.000944047)
(-0.0726554 -0.0140594 4.74508e-20 0.0736188 2.07928e-19 -0.000963449)
(-0.0645417 -0.0130352 3.17789e-20 0.0655057 1.97536e-19 -0.000963988)
(-0.0571017 -0.0120887 8.07008e-20 0.0580458 1.55651e-19 -0.000944127)
(-0.0503313 -0.011228 7.90999e-20 0.0512334 1.66432e-19 -0.000902108)
(-0.0442251 -0.0104562 -4.68198e-21 0.0450615 2.15803e-19 -0.000836416)
(-0.0387994 -0.00978126 -6.88443e-20 0.0395448 2.30457e-19 -0.000745437)
(-0.0340663 -0.00920612 -4.44801e-20 0.0346943 2.09418e-19 -0.000628022)
(-0.0300685 -0.00874119 1.75163e-20 0.0305516 1.30496e-19 -0.000483126)
(-0.0268403 -0.00839196 3.65356e-20 0.0271508 8.22634e-20 -0.000310469)
(-0.0244555 -0.00816829 5.6501e-20 0.0245657 -3.72656e-20 -0.000110182)
(-0.17438 -0.0288196 4.82297e-20 0.174471 1.0397e-20 -9.08602e-05)
(-0.167196 -0.0337962 7.74713e-20 0.167439 9.8559e-21 -0.000243691)
(-0.156447 -0.0354412 7.43228e-20 0.156826 6.00623e-21 -0.000379127)
(-0.144351 -0.0352813 1.09245e-19 0.144851 -2.16878e-20 -0.000499612)
(-0.132024 -0.034148 1.29945e-19 0.13263 -5.78599e-21 -0.000606501)
(-0.119999 -0.0325055 1.02902e-19 0.120699 6.73779e-20 -0.000700239)
(-0.108542 -0.0306213 1.57856e-19 0.109323 1.05055e-19 -0.000780787)
(-0.0977607 -0.0286515 2.31285e-19 0.0986083 1.99746e-19 -0.000847551)
(-0.0876953 -0.0266879 1.50665e-19 0.088595 2.55382e-19 -0.000899714)
(-0.078345 -0.0247868 9.95207e-20 0.0792811 2.14739e-19 -0.000936056)
(-0.0696951 -0.0229803 8.64813e-20 0.0706504 2.11743e-19 -0.00095529)
(-0.0617277 -0.0212909 2.47235e-20 0.0626836 2.47709e-19 -0.00095582)
(-0.054424 -0.01973 8.63202e-20 0.0553601 1.13634e-19 -0.000936125)
(-0.0477771 -0.0183104 2.04921e-19 0.0486716 1.33299e-19 -0.000894462)
(-0.0417802 -0.0170373 2.37172e-19 0.0426095 1.51312e-19 -0.000829326)
(-0.0364474 -0.0159233 2.04236e-19 0.0371865 2.44622e-19 -0.000739119)
(-0.0317901 -0.0149733 9.30463e-20 0.0324128 2.28427e-19 -0.0006227)
(-0.0278484 -0.0142043 -7.70309e-21 0.0283275 6.50328e-20 -0.000479032)
(-0.0246557 -0.0136252 -8.13788e-20 0.0249635 -4.67743e-20 -0.000307839)
(-0.0222842 -0.0132522 -7.4198e-20 0.0223934 3.93214e-21 -0.000109249)
(-0.172118 -0.0401725 4.26411e-20 0.172207 4.42463e-21 -8.96967e-05)
(-0.163185 -0.0466809 6.0462e-20 0.163426 2.78934e-20 -0.00024057)
(-0.151555 -0.0487363 4.90938e-20 0.15193 3.97321e-20 -0.000374272)
(-0.13907 -0.0483859 6.34876e-20 0.139563 2.80237e-20 -0.000493215)
(-0.126634 -0.0467439 1.36057e-19 0.127233 -3.56597e-20 -0.000598736)
(-0.114665 -0.0444309 1.80745e-19 0.115356 -1.88439e-20 -0.000691272)
(-0.103356 -0.0418043 1.97594e-19 0.104126 3.53172e-21 -0.000770788)
(-0.0927724 -0.0390722 2.90871e-19 0.0936091 -2.37942e-20 -0.000836696)
(-0.0829288 -0.0363564 2.45677e-19 0.083817 -4.49722e-21 -0.000888188)
(-0.0738073 -0.0337315 1.18916e-19 0.0747314 5.6233e-20 -0.000924061)
(-0.065383 -0.0312397 1.74772e-19 0.0663261 1.11829e-19 -0.000943046)
(-0.0576307 -0.0289109 5.49114e-20 0.0585742 1.79745e-19 -0.000943567)
(-0.0505272 -0.0267597 -1.38552e-20 0.0514513 9.32378e-20 -0.000924123)
(-0.0440616 -0.0248031 1.64092e-19 0.0449446 4.77109e-20 -0.000882993)
(-0.0382254 -0.0230478 2.0924e-19 0.0390441 1.0518e-20 -0.000818693)
(-0.0330292 -0.0215107 3.16672e-19 0.0337588 -2.35775e-19 -0.000729643)
(-0.0284835 -0.0201984 4.07219e-20 0.0290982 -1.38644e-19 -0.000614718)
(-0.0246247 -0.0191338 -1.22937e-19 0.0250976 -2.09527e-19 -0.000472894)
(-0.0214845 -0.0183291 -4.6562e-20 0.0217884 -2.46495e-20 -0.000303896)
(-0.0191333 -0.0178068 4.84113e-20 0.0192411 1.10724e-19 -0.00010785)
(-0.169117 -0.051352 2.54845e-20 0.169205 4.55597e-20 -8.81474e-05)
(-0.157976 -0.0589554 2.79321e-20 0.158213 9.78789e-20 -0.000236416)
(-0.145239 -0.0611858 1.25268e-20 0.145607 1.0507e-19 -0.00036781)
(-0.132268 -0.0605249 -3.7594e-20 0.132753 1.59545e-19 -0.000484701)
(-0.119706 -0.0583217 5.2482e-22 0.120294 6.33024e-20 -0.000588401)
(-0.107816 -0.0553259 8.79553e-20 0.108495 -9.73138e-21 -0.000679341)
(-0.096703 -0.0519682 1.6934e-19 0.0974605 -1.21781e-19 -0.000757485)
(-0.0863788 -0.0484983 2.04226e-19 0.0872011 -5.73476e-20 -0.000822256)
(-0.076824 -0.0450623 2.68059e-19 0.0776968 -6.02661e-20 -0.000872859)
(-0.0679995 -0.0417487 1.792e-19 0.0689076 1.487e-19 -0.000908113)
(-0.0598677 -0.0386077 2.61002e-19 0.0607945 9.2006e-20 -0.000926769)
(-0.0523938 -0.0356742 1.52455e-19 0.0533211 1.24808e-19 -0.000927281)
(-0.0455496 -0.0329654 -3.06944e-20 0.0464578 1.68832e-19 -0.000908172)
(-0.0393189 -0.0305014 3.59704e-20 0.0401866 2.77639e-19 -0.000867752)
(-0.0336907 -0.0282899 -1.55501e-20 0.0344953 2.12028e-20 -0.000804562)
(-0.0286718 -0.0263513 7.26497e-21 0.0293888 -1.59312e-19 -0.00071705)
(-0.024271 -0.0246937 2.05377e-19 0.0248751 -1.02295e-19 -0.00060411)
(-0.0205202 -0.0233451 -1.33386e-20 0.0209849 -3.16861e-20 -0.000464735)
(-0.0174492 -0.0223209 1.92556e-19 0.0177479 1.13577e-19 -0.000298654)
(-0.0151255 -0.021649 -7.83648e-20 0.0152315 1.51145e-19 -0.000105991)
(-0.16539 -0.06231 -1.92184e-20 0.165476 1.53439e-19 -8.62205e-05)
(-0.15168 -0.0704774 -4.77381e-20 0.151912 2.56855e-19 -0.000231248)
(-0.137664 -0.072597 -1.02934e-20 0.138023 2.22156e-19 -0.000359771)
(-0.124142 -0.0714805 1.67557e-20 0.124616 1.32131e-19 -0.000474108)
(-0.111447 -0.0686532 -8.94882e-20 0.112022 1.38757e-19 -0.000575543)
(-0.0996647 -0.0649603 -7.11801e-20 0.100329 8.34625e-20 -0.000664498)
(-0.0887961 -0.0608857 -1.50853e-20 0.089537 6.35865e-20 -0.000740937)
(-0.0787881 -0.0567087 2.02214e-19 0.0795924 8.81513e-20 -0.000804294)
(-0.0695832 -0.0525919 3.48516e-19 0.070437 -1.07079e-20 -0.000853794)
(-0.0611175 -0.0486332 2.85319e-19 0.0620058 1.23723e-19 -0.000888279)
(-0.0533383 -0.044887 1.76775e-19 0.0542448 8.65649e-20 -0.000906528)
(-0.0461997 -0.0413918 2.26529e-19 0.0471067 1.63733e-19 -0.000907029)
(-0.0396676 -0.0381657 2.34212e-19 0.0405559 1.85428e-19 -0.000888338)
(-0.0337196 -0.0352305 9.77897e-20 0.0345684 3.83316e-19 -0.000848802)
(-0.0283421 -0.0325948 -1.83146e-19 0.0291291 -2.98732e-21 -0.000786993)
(-0.0235369 -0.0302813 -1.0231e-19 0.0242383 4.20607e-20 -0.000701395)
(-0.0193113 -0.0282993 4.35331e-20 0.0199022 -9.52698e-20 -0.000590923)
(-0.0156916 -0.0266812 -1.65091e-20 0.0161462 -6.06512e-21 -0.000454592)
(-0.0127055 -0.0254449 2.9696e-19 0.0129976 -1.6084e-19 -0.000292137)
(-0.0104168 -0.0246236 8.97504e-21 0.0105205 -2.65624e-20 -0.000103679)
(-0.160954 -0.0729992 7.15998e-21 0.161038 1.44052e-19 -8.39231e-05)
(-0.14443 -0.0811273 -6.70359e-20 0.144655 2.75877e-19 -0.000225087)
(-0.129026 -0.0828119 -8.44509e-20 0.129376 1.3058e-19 -0.000350187)
(-0.114921 -0.0810756 -2.78586e-20 0.115382 9.27998e-21 -0.00046148)
(-0.102103 -0.0775537 -6.20936e-20 0.102663 1.47354e-19 -0.000560216)
(-0.0904628 -0.0731484 -5.38072e-20 0.0911096 1.01273e-19 -0.000646806)
(-0.0798845 -0.0683743 -8.73428e-21 0.0806057 1.05414e-19 -0.000721213)
(-0.0702453 -0.0635263 7.24023e-20 0.0710282 -4.90716e-20 -0.000782887)
(-0.0614449 -0.0587746 2.64936e-19 0.0622759 -1.28973e-19 -0.000831073)
(-0.053392 -0.0542209 4.36779e-19 0.0542566 -6.29605e-20 -0.000864642)
(-0.0460174 -0.0499208 3.38746e-19 0.0468998 1.5455e-20 -0.000882409)
(-0.0392632 -0.0459133 3.46304e-19 0.0401461 -2.47996e-20 -0.000882898)
(-0.0330886 -0.0422163 4.5598e-19 0.0339533 -1.61429e-19 -0.000864706)
(-0.0274645 -0.0388521 4.09365e-19 0.0282907 -7.12755e-20 -0.000826224)
(-0.0223745 -0.035829 -1.44264e-19 0.0231405 -3.95965e-19 -0.000766061)
(-0.0178148 -0.0331714 -9.2481e-20 0.0184975 -3.28026e-19 -0.000682741)
(-0.0137909 -0.0308895 8.70214e-21 0.0143661 -2.18441e-19 -0.00057521)
(-0.0103231 -0.0290186 1.12744e-21 0.0107656 -6.2884e-19 -0.000442506)
(-0.00743649 -0.027579 -4.68588e-20 0.00772086 -3.02012e-19 -0.000284372)
(-0.00519104 -0.0266085 2.43162e-19 0.00529196 -4.63194e-19 -0.000100924)
(-0.155828 -0.0833739 6.73146e-20 0.155909 6.93226e-20 -8.12661e-05)
(-0.136374 -0.0908107 3.84285e-20 0.136592 3.14193e-20 -0.000217961)
(-0.119543 -0.0917113 -1.37335e-19 0.119882 -9.73231e-21 -0.000339101)
(-0.10486 -0.0891794 -2.83391e-20 0.105307 8.50297e-21 -0.000446873)
(-0.0919478 -0.0848884 6.0304e-20 0.0924903 4.68404e-21 -0.000542488)
(-0.080489 -0.079756 -9.82841e-20 0.0811154 1.75953e-20 -0.000626341)
(-0.0702464 -0.0743028 -7.67066e-20 0.0709448 -6.57566e-20 -0.000698399)
(-0.0610231 -0.0688239 -7.10826e-20 0.0617812 -1.25002e-19 -0.000758127)
(-0.0526742 -0.0634885 2.75969e-20 0.053479 2.93918e-20 -0.000804793)
(-0.0450795 -0.0583953 3.98229e-19 0.0459168 -7.32841e-20 -0.000837305)
(-0.0381527 -0.0535979 2.05756e-19 0.0390072 1.21713e-19 -0.000854513)
(-0.0318232 -0.0491328 8.11947e-20 0.0326782 -4.36513e-20 -0.00085499)
(-0.0260433 -0.0450162 1.79549e-19 0.0268806 -1.73786e-19 -0.000837376)
(-0.0207769 -0.0412692 3.42239e-19 0.021577 -2.08205e-19 -0.000800113)
(-0.0160045 -0.0378996 -3.68015e-19 0.0167464 -3.38574e-19 -0.000741854)
(-0.0117167 -0.034932 -2.52422e-19 0.0123779 -6.56975e-20 -0.00066117)
(-0.00791703 -0.032377 -3.00051e-19 0.00847407 -4.13508e-19 -0.000557039)
(-0.00461929 -0.0302721 -5.13008e-19 0.00504782 -4.53179e-19 -0.00042853)
(-0.00184568 -0.0286391 -2.49313e-19 0.00212107 1.62681e-19 -0.000275393)
(0.000348021 -0.0275201 1.43113e-19 -0.000250283 -8.4475e-20 -9.77382e-05)
(-0.150035 -0.0933894 4.16267e-20 0.150113 3.03982e-20 -7.82602e-05)
(-0.12767 -0.0994617 5.62007e-20 0.12788 -7.52011e-20 -0.0002099)
(-0.109451 -0.0992187 -9.28604e-20 0.109777 -6.73841e-20 -0.000326561)
(-0.0942333 -0.0957115 -9.6946e-20 0.0946636 -3.69394e-20 -0.00043035)
(-0.0812724 -0.0905766 1.84494e-20 0.0817948 -4.02482e-20 -0.000522432)
(-0.0700408 -0.0847041 -2.65425e-20 0.070644 -3.28967e-20 -0.000603191)
(-0.0601776 -0.078595 -1.7817e-19 0.0608502 -2.53877e-20 -0.00067259)
(-0.0514118 -0.0725291 -8.21899e-20 0.0521419 7.12639e-21 -0.000730117)
(-0.0435532 -0.0666646 -1.17962e-19 0.0443283 2.34734e-19 -0.000775065)
(-0.0364531 -0.0610914 1.43029e-19 0.0372594 2.62263e-19 -0.000806381)
(-0.0300076 -0.0558568 4.45004e-19 0.0308305 3.07598e-19 -0.000822959)
(-0.0241337 -0.0509922 8.27236e-20 0.0249571 -3.03873e-20 -0.000823422)
(-0.0187768 -0.0465105 -1.8975e-19 0.0195833 1.61352e-19 -0.000806462)
(-0.013894 -0.0424301 3.22331e-19 0.0146646 1.73017e-20 -0.000770578)
(-0.00946258 -0.0387573 -2.58742e-19 0.0101771 1.43057e-19 -0.000714473)
(-0.00546739 -0.0355159 -3.74839e-19 0.00610416 3.12579e-20 -0.00063677)
(-0.00190991 -0.0327168 -8.09432e-19 0.00244639 1.06649e-19 -0.000536485)
(0.00120262 -0.0303978 -4.88566e-19 -0.0007899 6.0768e-19 -0.00041272)
(0.00385095 -0.0285824 -1.81731e-19 -0.00358571 4.7345e-19 -0.000265234)
(0.00598384 -0.0273161 -2.56144e-19 -0.00588971 3.00357e-19 -9.41338e-05)
(-0.143599 -0.103003 -4.96363e-20 0.143674 9.64742e-20 -7.49191e-05)
(-0.118483 -0.107043 -1.41422e-20 0.118684 -4.04478e-20 -0.000200939)
(-0.0989882 -0.105302 -9.2737e-20 0.0993008 -8.20203e-20 -0.000312621)
(-0.0833201 -0.100644 -1.31122e-19 0.0837321 -2.52042e-21 -0.000411982)
(-0.0703753 -0.0945938 -5.2311e-20 0.0708755 2.84348e-20 -0.000500138)
(-0.0594224 -0.0879714 -1.43411e-19 0.0599999 1.1452e-19 -0.000577455)
(-0.049981 -0.0812325 -2.10466e-19 0.0506249 9.86737e-20 -0.0006439)
(-0.0417081 -0.074626 -1.46214e-19 0.0424071 1.65512e-19 -0.000698979)
(-0.0343705 -0.0682894 9.15462e-20 0.0351125 2.42077e-19 -0.000742017)
(-0.0277915 -0.0622977 9.40738e-20 0.0285635 2.88196e-19 -0.000772004)
(-0.021851 -0.0566879 3.37626e-19 0.0226389 -4.30918e-20 -0.00078788)
(-0.016454 -0.0514837 4.10328e-19 0.0172424 -3.13189e-19 -0.000788329)
(-0.0115396 -0.0466928 3.84388e-20 0.0123117 2.40469e-20 -0.000772097)
(-0.00705789 -0.0423297 2.03379e-19 0.00779564 -2.13221e-21 -0.000737745)
(-0.00298358 -0.0383984 5.8606e-20 0.00366762 -6.99351e-20 -0.000684035)
(0.000704229 -0.0349207 -2.3702e-20 -9.45824e-05 -4.08671e-20 -0.000609646)
(0.004006 -0.0319073 1.29579e-19 -0.00349237 1.14449e-19 -0.000513636)
(0.00692107 -0.0293954 -2.97922e-19 -0.00652593 2.52613e-19 -0.000395146)
(0.00943316 -0.0274093 1.7549e-20 -0.00917921 5.49788e-20 -0.000253943)
(0.0114958 -0.0259974 -4.45886e-19 -0.0114056 4.51938e-19 -9.01277e-05)
(-0.13655 -0.112173 -6.4198e-20 0.136621 4.29093e-20 -7.12567e-05)
(-0.108976 -0.113547 -1.14843e-19 0.109167 -2.90972e-20 -0.000191117)
(-0.088393 -0.109974 -1.26077e-19 0.0886904 -4.07878e-20 -0.000297341)
(-0.0723972 -0.104001 -1.01885e-19 0.0727891 -4.39848e-21 -0.000391848)
(-0.0595512 -0.0969723 -1.34793e-19 0.0600269 2.07908e-19 -0.0004757)
(-0.048934 -0.0895946 4.21122e-20 0.0494833 1.24296e-19 -0.000549245)
(-0.0399548 -0.0822547 -1.1454e-19 0.0405673 -1.05268e-20 -0.00061245)
(-0.0322044 -0.0751554 -9.93124e-20 0.0328692 4.40634e-20 -0.000664846)
(-0.0254097 -0.0684046 1.86019e-19 0.0261155 -5.34333e-20 -0.000705789)
(-0.0193691 -0.0620561 3.23876e-19 0.0201034 -1.814e-19 -0.000734319)
(-0.0139476 -0.0561333 4.47e-20 0.014697 -3.39789e-19 -0.000749426)
(-0.00903925 -0.0506492 1.40944e-19 0.00978911 -2.81632e-19 -0.000749859)
(-0.00457749 -0.0456052 3.61864e-19 0.00531191 -8.1426e-20 -0.000734424)
(-0.000506478 -0.04101 4.5626e-19 0.00120823 -2.72947e-19 -0.000701753)
(0.00320174 -0.0368649 3.46008e-20 -0.00255108 -2.73924e-19 -0.000650667)
(0.00657326 -0.0331885 -2.14898e-19 -0.00599335 -1.85625e-19 -0.000579911)
(0.0096104 -0.0299908 5.69841e-20 -0.00912182 -2.17647e-19 -0.000488587)
(0.0123188 -0.0273074 1.20174e-19 -0.0119429 1.37191e-19 -0.000375879)
(0.014685 -0.0251629 4.67637e-19 -0.0144434 2.75957e-19 -0.000241563)
(0.0166674 -0.023608 2.11811e-19 -0.0165817 -1.88789e-19 -8.5735e-05)
(-0.128916 -0.120862 7.6065e-21 0.128983 -4.1261e-20 -6.72894e-05)
(-0.0993077 -0.118994 -5.89976e-20 0.0994882 -8.75408e-20 -0.000180477)
(-0.0778927 -0.113289 -1.38428e-19 0.0781735 -5.71379e-20 -0.000280788)
(-0.0617279 -0.105859 -4.17552e-20 0.062098 2.02265e-20 -0.000370036)
(-0.0490797 -0.0977985 -2.98539e-20 0.049529 1.65053e-19 -0.000449225)
(-0.0388604 -0.0896663 2.55048e-20 0.0393791 -1.03102e-19 -0.000518681)
(-0.0303819 -0.0817567 -9.42811e-20 0.0309602 -1.03309e-19 -0.000578376)
(-0.0231774 -0.074213 -1.0107e-19 0.0238053 -1.59567e-19 -0.000627864)
(-0.0169398 -0.0671051 -1.18408e-19 0.0176063 -2.06104e-19 -0.000666537)
(-0.0114456 -0.0604603 1.57398e-19 0.0121391 -2.56654e-19 -0.000693488)
(-0.00654744 -0.0542849 5.35194e-20 0.0072552 -1.61941e-19 -0.000707762)
(-0.00213032 -0.048579 -7.12428e-20 0.00283849 -7.59582e-20 -0.000708177)
(0.00187711 -0.0433361 -1.05884e-19 -0.0011835 -1.94441e-19 -0.000693605)
(0.00553575 -0.0385579 2.80108e-20 -0.004873 -8.4628e-20 -0.000662755)
(0.00887572 -0.0342424 4.17136e-19 -0.00826121 -4.65443e-20 -0.000614513)
(0.0119277 -0.030404 -1.00308e-19 -0.01138 -1.15345e-19 -0.000547693)
(0.0146956 -0.0270516 -5.34157e-20 -0.0142342 9.85077e-21 -0.000461447)
(0.017191 -0.024218 9.56407e-20 -0.016836 3.92769e-20 -0.000355002)
(0.0194031 -0.0219278 1.23251e-19 -0.0191749 -2.32856e-19 -0.000228149)
(0.0212951 -0.0202333 1.78048e-19 -0.0212141 -3.25055e-19 -8.09758e-05)
(-0.120732 -0.129031 3.64433e-20 0.120795 -6.29872e-20 -6.3034e-05)
(-0.0896243 -0.123432 7.38845e-20 0.0897933 -1.68019e-19 -0.000169064)
(-0.0676957 -0.115343 -9.27663e-20 0.0679588 -7.60407e-20 -0.000263033)
(-0.0515528 -0.106339 -5.14607e-20 0.0518994 3.45206e-20 -0.00034664)
(-0.039216 -0.0972093 1.86415e-19 0.0396368 -7.01381e-20 -0.000420826)
(-0.0294605 -0.0883301 5.50972e-20 0.0299464 -1.79602e-19 -0.000485897)
(-0.0215191 -0.0798847 -4.32713e-20 0.0220609 -1.19561e-19 -0.000541825)
(-0.0148785 -0.0719448 -2.38241e-19 0.0154667 -7.69786e-20 -0.000588193)
(-0.00920418 -0.0645351 -4.53759e-19 0.00982861 1.20001e-20 -0.00062443)
(-0.00425604 -0.0576515 -2.27365e-19 0.00490572 -4.33197e-20 -0.000649685)
(0.000123043 -0.0512808 -4.28576e-20 0.000540022 -3.65631e-20 -0.000663065)
(0.00405489 -0.0454078 -6.69032e-20 -0.00339143 2.61643e-20 -0.00066346)
(0.00761431 -0.0400171 -1.9852e-19 -0.0069645 9.76385e-20 -0.000649814)
(0.0108661 -0.0351023 -4.13386e-19 -0.0102452 2.0135e-19 -0.000620917)
(0.013842 -0.0306573 -9.63167e-20 -0.0132662 -9.34797e-22 -0.000575725)
(0.0165763 -0.0266915 -4.90203e-20 -0.0160632 3.19354e-20 -0.000513127)
(0.0190747 -0.0232128 -1.92465e-20 -0.0186423 -8.7228e-20 -0.000432328)
(0.0213533 -0.0202497 -1.06352e-19 -0.0210207 -8.84502e-20 -0.000332604)
(0.0234044 -0.0178267 -1.36911e-19 -0.0231906 -1.21463e-19 -0.000213757)
(0.0251955 -0.0159971 3.09959e-20 -0.0251196 3.66399e-20 -7.58693e-05)
(-0.112032 -0.136646 7.83492e-20 0.112091 -1.19861e-19 -5.85093e-05)
(-0.080057 -0.126931 3.4698e-20 0.080214 -1.00721e-19 -0.000156929)
(-0.0579851 -0.116266 1.99668e-20 0.0582292 -5.42483e-20 -0.000244154)
(-0.042081 -0.105605 -8.62181e-21 0.0424028 -8.62118e-20 -0.000321762)
(-0.030181 -0.095386 1.19426e-19 0.0305716 -1.97363e-19 -0.000390627)
(-0.0209583 -0.0857756 1.57885e-19 0.0214093 -2.07704e-19 -0.000451034)
(-0.0135879 -0.0768303 7.33305e-20 0.0140909 -5.0232e-20 -0.000502956)
(-0.00752381 -0.0685412 1.24397e-19 0.00806981 -5.38548e-21 -0.000546004)
(-0.0024124 -0.0608817 -2.04206e-19 0.00299205 -7.74403e-20 -0.00057965)
(0.00199771 -0.0538129 -3.96027e-19 -0.0013946 -1.74188e-19 -0.000603101)
(0.00586973 -0.0472995 -3.06376e-19 -0.00525421 -1.19268e-20 -0.000615529)
(0.00932977 -0.0413094 -1.2305e-19 -0.00871387 1.87835e-19 -0.000615902)
(0.0124546 -0.0358174 -3.77484e-20 -0.0118513 3.33714e-19 -0.00060324)
(0.0153114 -0.0308081 -5.63234e-20 -0.014735 1.45795e-19 -0.00057642)
(0.0179329 -0.0262712 -3.20387e-19 -0.0173984 1.47676e-19 -0.000534472)
(0.0203562 -0.0222101 -3.70789e-19 -0.0198799 1.02567e-19 -0.000476364)
(0.0225882 -0.0186312 -3.65146e-19 -0.0221868 1.64036e-19 -0.000401358)
(0.024649 -0.0155585 -1.5975e-19 -0.0243403 2.59106e-19 -0.000308782)
(0.0265333 -0.0130156 -2.02354e-19 -0.0263348 -5.98736e-20 -0.00019845)
(0.0282131 -0.0110563 -3.44284e-19 -0.0281427 2.36682e-19 -7.04379e-05)
(-0.102855 -0.143675 3.4992e-20 0.102909 -5.33208e-20 -5.37346e-05)
(-0.0707174 -0.129582 4.81001e-20 0.0708615 -2.58787e-20 -0.000144123)
(-0.0489116 -0.116217 8.49163e-20 0.0491359 -7.91932e-20 -0.000224232)
(-0.0334835 -0.103855 -8.46409e-21 0.033779 -1.63068e-19 -0.00029551)
(-0.0221536 -0.0925464 -4.49215e-20 0.0225124 -1.99427e-19 -0.000358759)
(-0.0135342 -0.0822294 4.52143e-21 0.0139485 -1.33322e-19 -0.000414243)
(-0.00676663 -0.0728227 6.37491e-20 0.00722856 -1.47835e-20 -0.000461935)
(-0.00128696 -0.0642294 1.43046e-19 0.00178844 -5.07138e-20 -0.00050148)
(0.00326796 -0.0563681 1.41792e-19 -0.00273557 -2.14654e-19 -0.00053239)
(0.00715443 -0.0491621 -2.8008e-19 -0.0066005 -1.82868e-19 -0.000553937)
(0.0105379 -0.0425525 -2.54561e-19 -0.00997259 2.39728e-20 -0.000565358)
(0.0135459 -0.0364894 2.67078e-20 -0.0129802 1.18762e-19 -0.000565707)
(0.0162553 -0.0309372 2.2189e-19 -0.0157013 8.03149e-20 -0.000554083)
(0.0187344 -0.0258706 1.64884e-19 -0.018205 -4.47681e-20 -0.000529454)
(0.021016 -0.0212749 3.63798e-19 -0.0205251 1.15064e-19 -0.000490929)
(0.0231389 -0.0171471 1.4914e-19 -0.0227013 5.9402e-20 -0.00043756)
(0.0251106 -0.0134919 7.74978e-20 -0.024742 -9.10059e-21 -0.000368669)
(0.0269547 -0.010328 -4.09984e-20 -0.0266711 -1.15663e-19 -0.000283637)
(0.0286676 -0.0076779 3.6178e-20 -0.0284853 -9.52026e-20 -0.000182293)
(0.0302257 -0.00559565 5.22823e-20 -0.030161 -8.15805e-20 -6.47047e-05)
(-0.0932389 -0.150088 5.49018e-21 0.0932876 -1.53656e-20 -4.87311e-05)
(-0.0616939 -0.13149 -9.65866e-22 0.0618246 2.3154e-20 -0.000130703)
(-0.0405896 -0.11538 1.6768e-19 0.0407929 -1.13049e-19 -0.000203354)
(-0.0258867 -0.101314 -1.43348e-21 0.0261547 -1.58249e-19 -0.000267997)
(-0.0152652 -0.0889363 -1.33973e-19 0.0155906 -1.45537e-19 -0.000325361)
(-0.00731958 -0.0779467 -1.3725e-19 0.00769527 -3.86598e-20 -0.000375684)
(-0.00118381 -0.0681187 6.31187e-20 0.00160275 -1.51359e-20 -0.000418944)
(0.00370754 -0.059264 6.08692e-20 -0.00325273 -8.51166e-20 -0.000454815)
(0.00771715 -0.0512438 1.59581e-19 -0.00723429 -2.34519e-19 -0.000482855)
(0.0110995 -0.0439425 -1.99085e-19 -0.0105971 -9.41281e-20 -0.000502405)
(0.0140181 -0.0372766 -1.97146e-19 -0.0135053 -1.62561e-19 -0.000512771)
(0.0165986 -0.0311779 -1.90452e-19 -0.0160855 -9.7757e-20 -0.000513094)
(0.0189165 -0.0256 1.40046e-19 -0.018414 -5.8e-20 -0.000502557)
(0.0210392 -0.0205075 6.55671e-20 -0.020559 -2.23269e-19 -0.000480224)
(0.0229989 -0.0158811 1.33687e-19 -0.0225536 -1.57994e-21 -0.000445286)
(0.0248349 -0.0117111 4.50138e-19 -0.024438 -1.78472e-19 -0.000396884)
(0.0265553 -0.00800044 1.8507e-19 -0.0262209 -2.06279e-19 -0.000334402)
(0.0281854 -0.0047621 1.95251e-19 -0.0279281 -2.33712e-19 -0.000257277)
(0.0297234 -0.00201736 -2.20055e-19 -0.029558 -2.49786e-19 -0.000165355)
(0.0311495 0.000179997 1.14758e-19 -0.0310908 -3.94622e-20 -5.86942e-05)
(-0.0832259 -0.155858 3.46101e-20 0.0832694 -4.59964e-21 -4.35199e-05)
(-0.0530499 -0.132771 1.12557e-19 0.0531666 -5.26369e-20 -0.000116727)
(-0.0330929 -0.11395 8.19604e-20 0.0332745 -9.96529e-20 -0.00018161)
(-0.0193689 -0.0982212 7.07255e-20 0.0196083 -1.04369e-19 -0.000239343)
(-0.00959439 -0.084819 1.21292e-20 0.00988497 -1.49984e-19 -0.000290577)
(-0.00239158 -0.0732004 -1.21024e-19 0.00272711 -8.73763e-20 -0.000335525)
(0.00308599 -0.0629932 5.46534e-21 -0.00271183 -6.94421e-20 -0.000374166)
(0.00738844 -0.0539171 -5.62019e-20 -0.00698223 -1.15847e-19 -0.00040621)
(0.0108675 -0.0457754 -1.55228e-19 -0.0104362 -3.71867e-20 -0.000431261)
(0.0137687 -0.0384137 1.82294e-20 -0.01332 -2.76489e-20 -0.000448729)
(0.0162496 -0.031724 -1.66567e-19 -0.0157916 -2.52663e-19 -0.000457994)
(0.0184306 -0.0256197 -5.10889e-19 -0.0179723 -4.63715e-20 -0.000458289)
(0.0203839 -0.0200435 -2.7722e-19 -0.019935 -3.05172e-20 -0.000448884)
(0.0221743 -0.0149503 -4.0136e-19 -0.0217454 -1.38933e-20 -0.000428941)
(0.0238327 -0.0103158 -1.7048e-19 -0.023435 1.11716e-19 -0.00039774)
(0.0253975 -0.00612384 -1.63389e-19 -0.025043 -1.38216e-19 -0.000354511)
(0.026877 -0.00237535 -1.95445e-19 -0.0265783 1.17348e-19 -0.000298704)
(0.0282973 0.000922469 1.78203e-20 -0.0280674 2.66818e-20 -0.000229817)
(0.0296577 0.00374972 -1.27485e-19 -0.02951 -3.83495e-20 -0.000147709)
(0.0309422 0.00605312 -1.2307e-19 -0.0308898 5.83359e-20 -5.24328e-05)
(-0.0728586 -0.160961 8.79925e-20 0.0728967 -3.58019e-20 -3.81242e-05)
(-0.0448223 -0.133548 1.18767e-19 0.0449246 -6.27053e-20 -0.000102255)
(-0.0264538 -0.112131 1.00707e-19 0.0266129 -8.53415e-20 -0.000159095)
(-0.013958 -0.0948253 9.89423e-21 0.0141677 -7.43853e-20 -0.000209673)
(-0.00516553 -0.0804648 6.63427e-20 0.00542009 -1.43775e-19 -0.000254559)
(0.00122866 -0.0682704 -6.27057e-20 -0.000934722 -1.05114e-19 -0.000293939)
(0.0060245 -0.0577277 -8.24607e-21 -0.00569671 -5.42667e-20 -0.000327797)
(0.00973998 -0.048467 -1.31644e-20 -0.0093841 -1.63919e-20 -0.000355877)
(0.0127054 -0.0402357 -2.66291e-20 -0.0123276 -3.67229e-20 -0.000377831)
(0.0151508 -0.0328414 -2.68188e-20 -0.0147576 -1.34165e-19 -0.000393142)
(0.0172229 -0.0261527 -7.01081e-20 -0.0168216 -1.21721e-19 -0.000401266)
(0.019034 -0.0200649 -2.00234e-19 -0.0186325 3.7172e-20 -0.000401531)
(0.0206512 -0.0145108 -1.00726e-19 -0.0202579 -6.35396e-20 -0.000393296)
(0.022135 -0.00943529 -3.59289e-19 -0.0217591 -2.90412e-20 -0.000375829)
(0.0235139 -0.00480985 -1.06113e-19 -0.0231654 1.26859e-22 -0.000348496)
(0.0248244 -0.000611482 -2.49672e-19 -0.0245137 -5.63659e-21 -0.000310624)
(0.0260746 0.00316052 -1.65042e-19 -0.0258128 1.46904e-19 -0.000261731)
(0.0272899 0.00650478 -2.96648e-20 -0.0270886 -4.21468e-20 -0.000201375)
(0.028471 0.00940281 -3.37225e-19 -0.0283416 9.07331e-20 -0.000129432)
(0.0296047 0.0118021 1.65553e-19 -0.0295588 1.4362e-20 -4.59467e-05)
(-0.0621813 -0.165376 -3.48573e-22 0.0622139 -4.01485e-21 -3.25668e-05)
(-0.0370218 -0.13394 1.09154e-20 0.0371092 -1.53041e-20 -8.73505e-05)
(-0.0206623 -0.110123 2.61389e-20 0.0207982 -1.82807e-20 -0.000135906)
(-0.00963148 -0.0913704 9.28686e-20 0.0098106 -7.36751e-20 -0.000179114)
(-0.00194827 -0.0761404 2.38894e-20 0.00216573 -1.35334e-19 -0.000217461)
(0.0035763 -0.0634325 -8.59939e-20 -0.00332519 -8.65014e-20 -0.000251107)
(0.00766978 -0.0525995 -8.68627e-20 -0.00738974 -2.00772e-20 -0.000280037)
(0.0108019 -0.043188 2.68304e-20 -0.0104979 -4.00587e-21 -0.000304032)
(0.0132718 -0.0348929 1.22255e-19 -0.012949 -1.09245e-19 -0.000322795)
(0.0152869 -0.0274867 -2.48458e-20 -0.014951 -1.64374e-19 -0.000335883)
(0.0169794 -0.020816 -9.3078e-20 -0.0166366 -1.16704e-19 -0.000342831)
(0.0184505 -0.0147596 -6.7167e-20 -0.0181074 -7.07993e-20 -0.000343064)
(0.0197601 -0.00924057 -2.3969e-20 -0.0194241 -1.24292e-19 -0.000336034)
(0.0209627 -0.00419482 -1.68466e-19 -0.0206416 -1.56808e-19 -0.000321115)
(0.0220841 0.000410286 -2.95526e-19 -0.0217863 -5.33327e-20 -0.000297767)
(0.0231574 0.00460392 -2.27343e-19 -0.022892 3.88905e-20 -0.000265413)
(0.0241901 0.00838849 -2.08129e-19 -0.0239665 1.71496e-19 -0.000223641)
(0.0252061 0.0117681 1.18126e-19 -0.025034 2.31129e-19 -0.000172074)
(0.0262066 0.0147257 1.09708e-19 -0.0260959 5.11706e-20 -0.000110603)
(0.0271811 0.0172094 3.71181e-20 -0.0271418 -9.71269e-20 -3.92647e-05)
(-0.0512397 -0.169083 -1.77097e-20 0.0512665 1.42084e-21 -2.6872e-05)
(-0.0296332 -0.134063 -3.06761e-20 0.0297053 -5.04485e-22 -7.20769e-05)
(-0.0156677 -0.108116 -2.34384e-20 0.0157799 -1.25467e-20 -0.000112144)
(-0.0063181 -0.0880878 -2.04275e-20 0.0064659 -5.30061e-20 -0.000147799)
(0.000140325 -0.0720976 -7.49847e-20 3.91202e-05 -6.41091e-20 -0.000179445)
(0.00474063 -0.0589473 -1.12513e-19 -0.00453342 -1.93555e-20 -0.000207214)
(0.00811414 -0.0478705 -2.1562e-20 -0.00788305 -3.01089e-20 -0.000231093)
(0.0106676 -0.0383387 -4.93332e-20 -0.0104167 -6.05645e-20 -0.000250902)
(0.0126596 -0.0300003 -1.31964e-20 -0.0123932 -1.09805e-19 -0.000266393)
(0.0142691 -0.0225962 -5.87448e-20 -0.0139919 -9.71796e-20 -0.000277201)
(0.01561 -0.0159532 -1.31224e-20 -0.015327 -1.17549e-19 -0.000282942)
(0.0167692 -0.00993563 -1.19814e-19 -0.016486 -1.25202e-19 -0.00028314)
(0.0177983 -0.00445785 -1.11273e-19 -0.0175209 -1.2031e-19 -0.000277344)
(0.0187441 0.000552254 -2.27004e-19 -0.0184791 -8.26155e-20 -0.000265036)
(0.0196288 0.00513102 -1.90068e-19 -0.019383 2.431e-20 -0.000245771)
(0.0204811 0.00931312 -2.23384e-19 -0.0202621 4.14185e-20 -0.000219072)
(0.0213078 0.0131025 -2.21248e-19 -0.0211232 1.56642e-19 -0.000184599)
(0.0221299 0.0165083 9.86116e-20 -0.0219879 1.19645e-19 -0.000142039)
(0.0229489 0.0195146 7.50228e-20 -0.0228576 -1.56176e-20 -9.13016e-05)
(0.0237569 0.0220705 6.35596e-21 -0.0237245 1.90574e-20 -3.24148e-05)
(-0.0400802 -0.172068 -2.5723e-20 0.0401013 2.58011e-21 -2.10641e-05)
(-0.0226176 -0.134023 -4.9122e-20 0.0226741 2.09807e-21 -5.65001e-05)
(-0.0113823 -0.106284 -5.15638e-20 0.0114702 -8.8385e-21 -8.79097e-05)
(-0.00390187 -0.0851865 -6.17624e-20 0.00401773 -2.74669e-20 -0.000115862)
(0.00123173 -0.0685639 -7.27503e-20 -0.00109105 -1.72988e-20 -0.000140674)
(0.00486091 -0.0550498 -9.00578e-21 -0.00469847 -1.95208e-20 -0.000162448)
(0.00749994 -0.0437766 1.43116e-22 -0.00731876 -4.35918e-20 -0.000181175)
(0.00947962 -0.0341524 3.35222e-20 -0.00928291 -7.45484e-20 -0.000196712)