/*--------------------------------*- C++ -*----------------------------------*\
| =========                 |                                                 |
| \\      /  F ield         | foam-extend: Open Source CFD                    |
|  \\    /   O peration     | Version:  3.0                                   |
|   \\  /    A nd           | Web:         http://www.extend-project.de       |
|    \\/     M anipulation  |                                                 |
\*---------------------------------------------------------------------------*/
FoamFile
{
    version     2.0;
    format      ascii;
    class       volScalarField;
    location    "24";
    object      p;
}
// * * * * * * * * * * * * * * * * * * * * * * * * * * * * * * * * * * * * * //

dimensions      [0 0 0 0 0 0 0];

internalField   nonuniform List<scalar> 
1920
(
-0.235375
-0.212501
-0.200208
-0.185673
-0.178611
-0.169021
-0.165062
-0.158641
-0.156599
-0.152279
-0.151393
-0.148444
-0.148151
-0.146002
-0.145816
-0.143955
-0.143393
-0.141298
-0.139823
-0.1369
-0.234375
-0.211599
-0.199357
-0.184883
-0.177851
-0.168302
-0.164359
-0.157966
-0.155932
-0.15163
-0.150748
-0.147811
-0.14752
-0.14538
-0.145194
-0.143341
-0.142781
-0.140695
-0.139226
-0.136316
-0.232356
-0.209775
-0.197639
-0.183291
-0.17632
-0.166853
-0.162944
-0.156606
-0.15459
-0.150325
-0.149451
-0.14654
-0.146251
-0.144129
-0.143946
-0.142109
-0.141554
-0.139485
-0.138029
-0.135144
-0.229357
-0.207068
-0.195089
-0.180925
-0.174044
-0.164699
-0.16084
-0.154584
-0.152593
-0.148384
-0.147521
-0.144647
-0.144361
-0.142267
-0.142086
-0.140272
-0.139724
-0.137682
-0.136245
-0.133397
-0.22536
-0.20346
-0.191689
-0.177773
-0.171012
-0.16183
-0.158039
-0.151891
-0.149936
-0.1458
-0.144952
-0.142128
-0.141848
-0.13979
-0.139612
-0.13783
-0.137292
-0.135286
-0.133874
-0.131075
-0.220415
-0.198995
-0.187482
-0.173871
-0.167258
-0.158277
-0.154569
-0.148557
-0.146644
-0.142598
-0.141769
-0.139007
-0.138733
-0.13672
-0.136546
-0.134803
-0.134277
-0.132314
-0.130933
-0.128196
-0.214509
-0.193663
-0.182459
-0.169213
-0.162777
-0.154038
-0.150429
-0.144578
-0.142717
-0.138779
-0.137973
-0.135285
-0.135018
-0.133059
-0.13289
-0.131194
-0.130682
-0.128772
-0.127428
-0.124764
-0.207701
-0.187517
-0.176668
-0.163842
-0.15761
-0.149148
-0.145654
-0.139988
-0.138186
-0.134373
-0.133592
-0.130989
-0.130731
-0.128834
-0.12867
-0.127028
-0.126532
-0.124682
-0.123381
-0.120802
-0.199988
-0.180553
-0.170108
-0.157758
-0.151758
-0.14361
-0.140246
-0.13479
-0.133055
-0.129385
-0.128632
-0.126126
-0.125878
-0.124052
-0.123894
-0.122313
-0.121835
-0.120055
-0.118802
-0.116318
-0.191434
-0.17283
-0.162831
-0.15101
-0.145266
-0.137466
-0.134246
-0.129024
-0.127363
-0.123849
-0.123129
-0.12073
-0.120492
-0.118743
-0.118592
-0.117079
-0.116621
-0.114917
-0.113717
-0.11134
-0.182044
-0.164353
-0.154845
-0.143603
-0.138142
-0.130725
-0.127663
-0.122697
-0.121117
-0.117776
-0.117091
-0.11481
-0.114584
-0.112922
-0.112778
-0.111339
-0.110904
-0.109283
-0.108142
-0.105882
-0.171891
-0.155187
-0.146209
-0.135594
-0.130436
-0.123433
-0.120541
-0.115852
-0.114361
-0.111206
-0.110559
-0.108405
-0.108191
-0.106621
-0.106485
-0.105126
-0.104716
-0.103185
-0.102108
-0.0999737
-0.160986
-0.145341
-0.136933
-0.126992
-0.122162
-0.115603
-0.112895
-0.108504
-0.107107
-0.104152
-0.103547
-0.101529
-0.101329
-0.0998593
-0.0997321
-0.0984594
-0.098075
-0.0966417
-0.095633
-0.0936339
-0.149407
-0.134888
-0.127084
-0.117858
-0.113375
-0.107288
-0.104774
-0.100698
-0.0994019
-0.0966596
-0.0960973
-0.094225
-0.0940392
-0.0926749
-0.0925567
-0.0913754
-0.0910186
-0.0896883
-0.0887521
-0.0868968
-0.137173
-0.123843
-0.116678
-0.108207
-0.104092
-0.0985031
-0.0961958
-0.0924539
-0.0912638
-0.0887462
-0.0882302
-0.0865113
-0.0863408
-0.0850884
-0.08498
-0.0838956
-0.0835681
-0.0823467
-0.0814873
-0.0797839
-0.124367
-0.112281
-0.105785
-0.0981051
-0.0943738
-0.0893065
-0.0872144
-0.0838216
-0.0827424
-0.0804597
-0.0799917
-0.0784331
-0.0782784
-0.0771428
-0.0770444
-0.0760611
-0.075764
-0.0746567
-0.0738774
-0.072333
-0.111013
-0.100225
-0.0944266
-0.0875713
-0.0842408
-0.0797179
-0.0778506
-0.0748223
-0.0738592
-0.0718217
-0.0714042
-0.0700131
-0.0698752
-0.0688616
-0.0687739
-0.0678963
-0.0676312
-0.0666428
-0.0659473
-0.0645687
-0.0971994
-0.0877535
-0.0826766
-0.0766741
-0.0737578
-0.0697975
-0.0681623
-0.0655107
-0.0646673
-0.0628832
-0.0625174
-0.0612993
-0.0611783
-0.0602908
-0.0602139
-0.0594453
-0.0592132
-0.0583477
-0.0577387
-0.0565316
-0.0829532
-0.074892
-0.0705594
-0.0654369
-0.0629483
-0.0595686
-0.0581733
-0.0559105
-0.0551909
-0.0536684
-0.0533564
-0.052317
-0.0522139
-0.0514565
-0.051391
-0.0507353
-0.0505372
-0.0497986
-0.0492789
-0.0482488
-0.0683684
-0.0617243
-0.0581532
-0.0539312
-0.0518799
-0.0490942
-0.0479441
-0.046079
-0.0454857
-0.0442307
-0.0439734
-0.0431166
-0.0430315
-0.0424072
-0.0423531
-0.0418125
-0.0416492
-0.0410404
-0.040612
-0.039763
-0.0534742
-0.0482778
-0.0454849
-0.0421829
-0.0405787
-0.0384001
-0.0375007
-0.036042
-0.0355782
-0.0345968
-0.0343957
-0.0337257
-0.0336593
-0.033171
-0.0331289
-0.0327061
-0.0325785
-0.0321024
-0.0317674
-0.0311033
-0.0383677
-0.034639
-0.032635
-0.0302655
-0.0291144
-0.0275511
-0.0269056
-0.0258588
-0.0255259
-0.0248216
-0.0246771
-0.0241963
-0.0241485
-0.0237981
-0.0237677
-0.0234643
-0.0233726
-0.023031
-0.0227906
-0.0223141
-0.0230802
-0.0208375
-0.0196322
-0.018207
-0.0175147
-0.0165745
-0.0161863
-0.0155569
-0.0153567
-0.0149332
-0.0148464
-0.0145573
-0.0145287
-0.014318
-0.0142998
-0.0141174
-0.0140623
-0.0138569
-0.0137123
-0.0134257
-0.00771055
-0.00696118
-0.00655837
-0.00608215
-0.00585074
-0.00553652
-0.00540673
-0.00519632
-0.00512933
-0.00498774
-0.00495865
-0.00486196
-0.00485229
-0.00478182
-0.00477566
-0.00471465
-0.00469618
-0.0046275
-0.00457916
-0.00448342
0.00770874
0.00695939
0.00655659
0.00608037
0.00584896
0.00553473
0.00540494
0.00519453
0.00512754
0.00498595
0.00495685
0.00486017
0.0048505
0.00478004
0.00477389
0.00471289
0.00469443
0.00462576
0.00457743
0.00448169
0.0230784
0.0208357
0.0196304
0.0182052
0.0175129
0.0165727
0.0161846
0.0155551
0.0153549
0.0149314
0.0148446
0.0145555
0.0145269
0.0143162
0.0142981
0.0141156
0.0140606
0.0138551
0.0137106
0.013424
0.0383659
0.0346372
0.0326332
0.0302638
0.0291126
0.0275493
0.0269038
0.0258571
0.0255241
0.0248198
0.0246753
0.0241945
0.0241467
0.0237963
0.0237659
0.0234625
0.0233709
0.0230292
0.0227888
0.0223124
0.0534724
0.048276
0.0454831
0.0421811
0.0405769
0.0383983
0.0374989
0.0360402
0.0355764
0.034595
0.0343939
0.0337239
0.0336575
0.0331693
0.0331271
0.0327044
0.0325767
0.0321006
0.0317656
0.0311016
0.0683666
0.0617225
0.0581514
0.0539294
0.0518781
0.0490924
0.0479423
0.0460772
0.0454839
0.0442289
0.0439716
0.0431148
0.0430297
0.0424054
0.0423513
0.0418107
0.0416474
0.0410387
0.0406103
0.0397613
0.0829514
0.0748902
0.0705576
0.0654351
0.0629465
0.0595668
0.0581715
0.0559087
0.0551891
0.0536666
0.0533546
0.0523152
0.0522121
0.0514547
0.0513892
0.0507335
0.0505354
0.0497969
0.0492772
0.0482471
0.0971976
0.0877517
0.0826748
0.0766723
0.073756
0.0697957
0.0681605
0.0655089
0.0646655
0.0628813
0.0625156
0.0612975
0.0611765
0.0602889
0.0602121
0.0594435
0.0592114
0.0583459
0.0577369
0.0565299
0.111011
0.100223
0.0944248
0.0875695
0.084239
0.0797161
0.0778488
0.0748205
0.0738574
0.0718199
0.0714023
0.0700113
0.0698733
0.0688597
0.0687721
0.0678945
0.0676294
0.066641
0.0659455
0.064567
0.124366
0.112279
0.105784
0.0981033
0.0943719
0.0893047
0.0872125
0.0838198
0.0827406
0.0804578
0.0799898
0.0784313
0.0782766
0.0771409
0.0770426
0.0760592
0.0757622
0.0746548
0.0738756
0.0723312
0.137171
0.123841
0.116676
0.108205
0.10409
0.0985013
0.096194
0.0924521
0.091262
0.0887443
0.0882283
0.0865095
0.086339
0.0850865
0.0849782
0.0838937
0.0835662
0.0823449
0.0814855
0.0797821
0.149406
0.134886
0.127082
0.117856
0.113373
0.107286
0.104772
0.100697
0.0994001
0.0966577
0.0960955
0.0942232
0.0940373
0.092673
0.0925548
0.0913736
0.0910167
0.0896864
0.0887503
0.0868949
0.160984
0.14534
0.136931
0.12699
0.12216
0.115601
0.112893
0.108502
0.107105
0.10415
0.103545
0.101527
0.101327
0.0998574
0.0997302
0.0984575
0.0980731
0.0966398
0.0956312
0.093632
0.17189
0.155185
0.146207
0.135592
0.130435
0.123431
0.120539
0.11585
0.114359
0.111204
0.110557
0.108403
0.108189
0.106619
0.106484
0.105124
0.104714
0.103183
0.102106
0.0999719
0.182042
0.164351
0.154843
0.143601
0.13814
0.130723
0.127661
0.122695
0.121115
0.117774
0.117089
0.114808
0.114582
0.11292
0.112776
0.111337
0.110902
0.109281
0.108141
0.10588
0.191432
0.172829
0.16283
0.151008
0.145264
0.137465
0.134244
0.129022
0.127361
0.123847
0.123127
0.120728
0.12049
0.118742
0.11859
0.117077
0.116619
0.114915
0.113715
0.111338
0.199986
0.180551
0.170106
0.157756
0.151756
0.143608
0.140244
0.134788
0.133053
0.129383
0.12863
0.126124
0.125876
0.12405
0.123892
0.122311
0.121833
0.120053
0.1188
0.116316
0.2077
0.187515
0.176667
0.16384
0.157609
0.149146
0.145652
0.139986
0.138184
0.134371
0.13359
0.130987
0.130729
0.128832
0.128668
0.127026
0.12653
0.12468
0.123379
0.1208
0.214507
0.193662
0.182458
0.169211
0.162775
0.154036
0.150427
0.144576
0.142715
0.138778
0.137971
0.135283
0.135016
0.133057
0.132888
0.131192
0.13068
0.12877
0.127426
0.124762
0.220413
0.198993
0.187481
0.173869
0.167256
0.158275
0.154568
0.148555
0.146642
0.142597
0.141767
0.139005
0.138731
0.136718
0.136544
0.134801
0.134275
0.132312
0.130931
0.128194
0.225359
0.203458
0.191688
0.177771
0.17101
0.161828
0.158037
0.151889
0.149934
0.145798
0.14495
0.142126
0.141846
0.139788
0.13961
0.137829
0.13729
0.135284
0.133872
0.131073
0.229356
0.207067
0.195087
0.180923
0.174042
0.164697
0.160839
0.154582
0.152592
0.148382
0.147519
0.144645
0.144359
0.142265
0.142084
0.14027
0.139723
0.13768
0.136243
0.133395
0.232354
0.209774
0.197638
0.183289
0.176318
0.166851
0.162943
0.156604
0.154588
0.150323
0.149449
0.146538
0.146249
0.144127
0.143944
0.142107
0.141552
0.139483
0.138027
0.135142
0.234374
0.211597
0.199355
0.184882
0.17785
0.1683
0.164358
0.157964
0.15593
0.151628
0.150746
0.147809
0.147518
0.145378
0.145192
0.143339
0.14278
0.140693
0.139224
0.136314
0.235373
0.2125
0.200206
0.185671
0.178609
0.169019
0.16506
0.158639
0.156597
0.152277
0.151391
0.148442
0.148149
0.146
0.145814
0.143953
0.143391
0.141296
0.139821
0.136898
0.235382
0.212507
0.200213
0.185677
0.178615
0.169024
0.165064
0.158643
0.156601
0.15228
0.151395
0.148445
0.148152
0.146003
0.145817
0.143956
0.143394
0.141298
0.139823
0.1369
0.234365
0.21159
0.199349
0.184876
0.177844
0.168296
0.164353
0.15796
0.155926
0.151625
0.150743
0.147806
0.147515
0.145375
0.14519
0.143337
0.142777
0.140691
0.139222
0.136312
0.232362
0.209781
0.197644
0.183295
0.176323
0.166856
0.162947
0.156608
0.154592
0.150327
0.149453
0.146541
0.146252
0.14413
0.143946
0.142109
0.141554
0.139485
0.138029
0.135144
0.229347
0.207059
0.19508
0.180917
0.174037
0.164692
0.160834
0.154578
0.152588
0.148378
0.147516
0.144642
0.144357
0.142262
0.142081
0.140268
0.13972
0.137678
0.136241
0.133393
0.225367
0.203466
0.191694
0.177777
0.171015
0.161833
0.158042
0.151894
0.149938
0.145801
0.144953
0.142129
0.141849
0.139791
0.139613
0.137831
0.137293
0.135286
0.133874
0.131075
0.220405
0.198986
0.187474
0.173863
0.167251
0.158271
0.154563
0.148551
0.146639
0.142593
0.141764
0.139002
0.138728
0.136716
0.136542
0.134799
0.134273
0.13231
0.130929
0.128192
0.214516
0.193669
0.182464
0.169217
0.162781
0.154041
0.150432
0.14458
0.142719
0.138781
0.137974
0.135286
0.135019
0.13306
0.132891
0.131194
0.130682
0.128772
0.127428
0.124764
0.207691
0.187508
0.17666
0.163834
0.157603
0.149141
0.145648
0.139982
0.13818
0.134368
0.133587
0.130984
0.130726
0.12883
0.128666
0.127024
0.126528
0.124678
0.123377
0.120798
0.199994
0.180559
0.170112
0.157762
0.151762
0.143613
0.140249
0.134793
0.133057
0.129386
0.128634
0.126128
0.125879
0.124053
0.123894
0.122313
0.121836
0.120055
0.118802
0.116318
0.191424
0.172821
0.162823
0.151002
0.145259
0.13746
0.13424
0.129018
0.127357
0.123844
0.123124
0.120725
0.120487
0.118739
0.118588
0.117075
0.116618
0.114913
0.113714
0.111337
0.182051
0.164359
0.15485
0.143607
0.138145
0.130728
0.127665
0.122699
0.121119
0.117778
0.117093
0.114811
0.114585
0.112923
0.112779
0.111339
0.110904
0.109283
0.108143
0.105882
0.171881
0.155178
0.1462
0.135586
0.130429
0.123426
0.120535
0.115847
0.114355
0.111201
0.110554
0.1084
0.108186
0.106617
0.106481
0.105122
0.104712
0.103182
0.102105
0.0999703
0.160992
0.145347
0.136938
0.126996
0.122166
0.115606
0.112898
0.108506
0.107109
0.104154
0.103548
0.101531
0.10133
0.0998603
0.099733
0.0984601
0.0980756
0.0966421
0.0956334
0.0936341
0.149398
0.134879
0.127076
0.11785
0.113368
0.107281
0.104768
0.100693
0.0993966
0.0966545
0.0960925
0.0942205
0.0940348
0.0926707
0.0925527
0.0913716
0.0910149
0.0896847
0.0887486
0.0868934
0.13718
0.123848
0.116683
0.108211
0.104096
0.0985063
0.0961987
0.0924564
0.091266
0.0887481
0.0882319
0.0865128
0.0863421
0.0850895
0.084981
0.0838964
0.0835687
0.0823472
0.0814877
0.0797842
0.124357
0.112272
0.105777
0.0980977
0.0943669
0.0893002
0.0872084
0.083816
0.0827371
0.0804547
0.0799869
0.0784286
0.0782741
0.0771386
0.0770404
0.0760573
0.0757604
0.0746531
0.073874
0.0723297
0.111019
0.10023
0.0944316
0.0875755
0.0842446
0.0797211
0.0778535
0.0748249
0.0738615
0.0718237
0.0714059
0.0700146
0.0698765
0.0688627
0.0687749
0.0678971
0.067632
0.0666434
0.0659478
0.0645691
0.0971895
0.0877447
0.0826685
0.0766667
0.0737509
0.0697912
0.0681564
0.0655052
0.064662
0.0628782
0.0625127
0.0612948
0.0611741
0.0602867
0.06021
0.0594416
0.0592096
0.0583442
0.0577353
0.0565284
0.0829599
0.0748976
0.0705644
0.0654412
0.0629521
0.0595719
0.0581763
0.0559131
0.0551932
0.0536704
0.0533582
0.0523185
0.0522153
0.0514577
0.0513921
0.0507362
0.050538
0.0497993
0.0492795
0.0482492
0.0683585
0.0617155
0.0581452
0.0539238
0.051873
0.0490879
0.0479382
0.0460735
0.0454804
0.0442258
0.0439688
0.0431122
0.0430273
0.0424032
0.0423492
0.0418088
0.0416456
0.041037
0.0406087
0.0397598
0.053481
0.0482835
0.04549
0.0421872
0.0405825
0.0384034
0.0375036
0.0360446
0.0355805
0.0345988
0.0343975
0.0337273
0.0336607
0.0331723
0.03313
0.0327071
0.0325793
0.0321031
0.031768
0.0311038
0.0383578
0.0346303
0.0326269
0.0302582
0.0291075
0.0275448
0.0268996
0.0258534
0.0255206
0.0248167
0.0246725
0.0241919
0.0241443
0.0237941
0.0237639
0.0234607
0.0233691
0.0230276
0.0227873
0.0223109
0.023087
0.0208432
0.0196372
0.0182113
0.0175186
0.0165778
0.0161893
0.0155594
0.015359
0.0149352
0.0148483
0.0145589
0.0145301
0.0143192
0.0143009
0.0141184
0.0140632
0.0138576
0.0137129
0.0134262
0.00770069
0.00695242
0.0065503
0.00607485
0.00584391
0.00553025
0.00540082
0.00519084
0.00512413
0.00498288
0.00495401
0.00485759
0.0048481
0.00477786
0.00477185
0.00471101
0.00469268
0.00462413
0.00457591
0.00448026
-0.00770201
-0.0069537
-0.00655156
-0.00607607
-0.0058451
-0.00553141
-0.00540194
-0.00519193
-0.00512519
-0.00498391
-0.004955
-0.00485856
-0.00484905
-0.00477878
-0.00477276
-0.00471192
-0.00469358
-0.00462504
-0.00457682
-0.0044812
-0.0230883
-0.0208445
-0.0196384
-0.0182125
-0.0175197
-0.016579
-0.0161905
-0.0155605
-0.0153601
-0.0149362
-0.0148493
-0.0145599
-0.0145311
-0.0143202
-0.0143019
-0.0141193
-0.0140641
-0.0138585
-0.0137138
-0.0134271
-0.0383591
-0.0346315
-0.0326282
-0.0302595
-0.0291087
-0.0275459
-0.0269008
-0.0258545
-0.0255217
-0.0248177
-0.0246735
-0.0241929
-0.0241452
-0.023795
-0.0237648
-0.0234616
-0.02337
-0.0230285
-0.0227882
-0.0223119
-0.0534823
-0.0482848
-0.0454912
-0.0421884
-0.0405837
-0.0384046
-0.0375048
-0.0360457
-0.0355816
-0.0345999
-0.0343985
-0.0337283
-0.0336617
-0.0331732
-0.0331309
-0.032708
-0.0325802
-0.032104
-0.0317689
-0.0311048
-0.0683599
-0.0617168
-0.0581464
-0.0539251
-0.0518743
-0.0490891
-0.0479393
-0.0460746
-0.0454815
-0.0442269
-0.0439698
-0.0431132
-0.0430283
-0.0424042
-0.0423502
-0.0418098
-0.0416466
-0.041038
-0.0406097
-0.0397608
-0.0829613
-0.074899
-0.0705657
-0.0654424
-0.0629533
-0.0595731
-0.0581774
-0.0559142
-0.0551943
-0.0536715
-0.0533593
-0.0523196
-0.0522163
-0.0514587
-0.0513931
-0.0507371
-0.050539
-0.0498003
-0.0492805
-0.0482503
-0.0971909
-0.087746
-0.0826698
-0.076668
-0.0737522
-0.0697924
-0.0681576
-0.0655064
-0.0646632
-0.0628794
-0.0625138
-0.0612959
-0.0611751
-0.0602877
-0.060211
-0.0594426
-0.0592106
-0.0583453
-0.0577364
-0.0565294
-0.111021
-0.100232
-0.0944329
-0.0875768
-0.0842459
-0.0797224
-0.0778547
-0.0748261
-0.0738627
-0.0718249
-0.0714071
-0.0700157
-0.0698776
-0.0688638
-0.068776
-0.0678982
-0.067633
-0.0666445
-0.0659489
-0.0645702
-0.124359
-0.112274
-0.105779
-0.0980991
-0.0943682
-0.0893014
-0.0872096
-0.0838173
-0.0827383
-0.0804559
-0.0799881
-0.0784298
-0.0782752
-0.0771398
-0.0770416
-0.0760584
-0.0757615
-0.0746542
-0.0738751
-0.0723308
-0.137181
-0.12385
-0.116684
-0.108213
-0.104097
-0.0985077
-0.0962
-0.0924576
-0.0912673
-0.0887493
-0.0882331
-0.086514
-0.0863433
-0.0850906
-0.0849822
-0.0838975
-0.0835699
-0.0823484
-0.0814889
-0.0797854
-0.149399
-0.134881
-0.127077
-0.117852
-0.113369
-0.107282
-0.104769
-0.100694
-0.0993978
-0.0966558
-0.0960938
-0.0942217
-0.094036
-0.0926719
-0.0925539
-0.0913728
-0.0910161
-0.0896859
-0.0887499
-0.0868946
-0.160994
-0.145348
-0.136939
-0.126997
-0.122167
-0.115607
-0.112899
-0.108507
-0.10711
-0.104155
-0.103549
-0.101532
-0.101332
-0.0998616
-0.0997343
-0.0984614
-0.0980769
-0.0966434
-0.0956347
-0.0936354
-0.171883
-0.155179
-0.146202
-0.135588
-0.130431
-0.123428
-0.120537
-0.115848
-0.114357
-0.111202
-0.110555
-0.108401
-0.108188
-0.106618
-0.106483
-0.105124
-0.104713
-0.103183
-0.102106
-0.0999716
-0.182052
-0.16436
-0.154851
-0.143609
-0.138147
-0.130729
-0.127667
-0.1227
-0.121121
-0.117779
-0.117094
-0.114813
-0.114586
-0.112924
-0.11278
-0.111341
-0.110906
-0.109285
-0.108144
-0.105883
-0.191426
-0.172823
-0.162825
-0.151004
-0.145261
-0.137461
-0.134241
-0.12902
-0.127359
-0.123845
-0.123125
-0.120726
-0.120488
-0.118741
-0.118589
-0.117076
-0.116619
-0.114915
-0.113715
-0.111338
-0.199996
-0.18056
-0.170114
-0.157763
-0.151763
-0.143614
-0.14025
-0.134794
-0.133059
-0.129388
-0.128635
-0.126129
-0.12588
-0.124054
-0.123896
-0.122315
-0.121837
-0.120056
-0.118803
-0.11632
-0.207693
-0.187509
-0.176662
-0.163836
-0.157605
-0.149143
-0.145649
-0.139984
-0.138182
-0.13437
-0.133588
-0.130986
-0.130728
-0.128831
-0.128667
-0.127025
-0.126529
-0.12468
-0.123379
-0.1208
-0.214517
-0.19367
-0.182466
-0.169219
-0.162782
-0.154042
-0.150434
-0.144582
-0.14272
-0.138783
-0.137976
-0.135287
-0.135021
-0.133062
-0.132892
-0.131196
-0.130684
-0.128774
-0.12743
-0.124766
-0.220407
-0.198988
-0.187476
-0.173865
-0.167252
-0.158272
-0.154565
-0.148552
-0.14664
-0.142595
-0.141766
-0.139004
-0.13873
-0.136717
-0.136543
-0.134801
-0.134274
-0.132312
-0.130931
-0.128194
-0.225369
-0.203467
-0.191696
-0.177778
-0.171017
-0.161834
-0.158043
-0.151895
-0.14994
-0.145803
-0.144955
-0.142131
-0.141851
-0.139793
-0.139615
-0.137833
-0.137294
-0.135288
-0.133876
-0.131077
-0.229349
-0.207061
-0.195082
-0.180919
-0.174038
-0.164694
-0.160836
-0.15458
-0.15259
-0.14838
-0.147517
-0.144643
-0.144358
-0.142264
-0.142083
-0.14027
-0.139722
-0.13768
-0.136243
-0.133395
-0.232364
-0.209783
-0.197646
-0.183296
-0.176325
-0.166858
-0.162949
-0.15661
-0.154594
-0.150329
-0.149454
-0.146543
-0.146254
-0.144132
-0.143948
-0.142111
-0.141556
-0.139487
-0.138031
-0.135146
-0.234367
-0.211591
-0.19935
-0.184877
-0.177846
-0.168297
-0.164355
-0.157962
-0.155928
-0.151627
-0.150745
-0.147808
-0.147517
-0.145377
-0.145192
-0.143339
-0.142779
-0.140692
-0.139224
-0.136314
-0.235383
-0.212509
-0.200214
-0.185678
-0.178616
-0.169026
-0.165066
-0.158645
-0.156603
-0.152282
-0.151397
-0.148447
-0.148154
-0.146005
-0.145819
-0.143958
-0.143395
-0.1413
-0.139825
-0.136902
)
;

boundaryField
{
    out
    {
        type            implicitExtrapolation;
    }
    in
    {
        type            implicitExtrapolation;
    }
    frontAndBack
    {
        type            empty;
    }
}


// ************************************************************************* //
