/*--------------------------------*- C++ -*----------------------------------*\
| =========                 |                                                 |
| \\      /  F ield         | foam-extend: Open Source CFD                    |
|  \\    /   O peration     | Version:  3.0                                   |
|   \\  /    A nd           | Web:         http://www.extend-project.de       |
|    \\/     M anipulation  |                                                 |
\*---------------------------------------------------------------------------*/
FoamFile
{
    version     2.0;
    format      ascii;
    class       volSymmTensorField;
    location    "39";
    object      sigma;
}
// * * * * * * * * * * * * * * * * * * * * * * * * * * * * * * * * * * * * * //

dimensions      [0 0 0 0 0 0 0];

internalField   nonuniform List<symmTensor> 
7680
(
(-0.180536 -0.00279686 -1.17452e-20 0.180551 1.32698e-20 -1.53831e-05)
(-0.179788 -0.00326605 4.25083e-20 0.179831 1.3737e-19 -4.34502e-05)
(-0.177027 -0.00359176 2.69714e-21 0.177096 -5.45484e-20 -6.96719e-05)
(-0.172809 -0.0038072 -3.83962e-21 0.172903 6.87877e-20 -9.42233e-05)
(-0.167756 -0.00394813 1.25204e-20 0.167873 -3.47989e-21 -0.000117241)
(-0.162072 -0.00403248 -6.29614e-21 0.162211 2.13909e-20 -0.000138827)
(-0.156108 -0.00407848 2.28729e-20 0.156267 -4.21338e-20 -0.000159058)
(-0.149927 -0.004096 8.88895e-21 0.150105 -2.5184e-20 -0.000177988)
(-0.143731 -0.00409493 8.04319e-21 0.143926 -6.88034e-20 -0.000195656)
(-0.137527 -0.0040808 1.52443e-20 0.137739 -1.56662e-20 -0.000212086)
(-0.131435 -0.00405933 -3.17385e-20 0.131662 -9.02068e-20 -0.000227292)
(-0.125439 -0.00403361 1.82459e-20 0.125681 3.20041e-20 -0.000241277)
(-0.119613 -0.00400719 4.68537e-21 0.119867 -7.83218e-20 -0.000254038)
(-0.113934 -0.00398179 -2.89903e-20 0.114199 3.27926e-20 -0.000265565)
(-0.108446 -0.00395971 -2.55331e-20 0.108722 1.03643e-20 -0.000275842)
(-0.103127 -0.00394194 6.27816e-21 0.103412 8.175e-20 -0.000284849)
(-0.098005 -0.00393004 -8.60918e-21 0.0982976 -7.2293e-20 -0.000292561)
(-0.093059 -0.00392459 -7.20709e-21 0.0933579 1.68271e-19 -0.000298947)
(-0.0883057 -0.00392671 2.47841e-20 0.0886097 -8.52399e-20 -0.000303975)
(-0.0837298 -0.00393667 -9.95473e-21 0.0840374 1.53758e-19 -0.000307606)
(-0.0793397 -0.00395542 -2.94994e-20 0.0796495 -4.13569e-20 -0.000309801)
(-0.0751253 -0.00398298 -3.05267e-20 0.0754358 1.29979e-19 -0.000310512)
(-0.0710891 -0.00402026 -3.9062e-20 0.0713988 -1.50737e-20 -0.000309692)
(-0.0672266 -0.00406702 -2.01536e-20 0.0675339 1.72658e-19 -0.000307288)
(-0.0635361 -0.00412433 -8.72877e-21 0.0638393 -3.02133e-20 -0.000303247)
(-0.0600184 -0.0041917 -5.71339e-20 0.0603159 1.39724e-19 -0.000297512)
(-0.0566684 -0.00427048 3.5643e-21 0.0569584 7.16856e-20 -0.00029003)
(-0.0534925 -0.00436012 -4.73434e-21 0.0537732 1.15732e-19 -0.000280744)
(-0.0504828 -0.00446219 1.21735e-20 0.0507524 6.23475e-20 -0.000269608)
(-0.0476511 -0.0045767 -4.06732e-20 0.0479077 3.87746e-20 -0.000256569)
(-0.0449873 -0.00470501 -1.26353e-20 0.0452288 2.28183e-20 -0.000241592)
(-0.0425084 -0.00484938 -2.51781e-20 0.042733 -1.30018e-20 -0.000224637)
(-0.0402016 -0.00500931 1.43344e-20 0.0404073 5.1948e-21 -0.000205681)
(-0.0380887 -0.00519314 -4.16674e-20 0.0382734 -1.97678e-20 -0.000184705)
(-0.0361563 -0.00539613 -1.56295e-22 0.036318 4.862e-21 -0.000161704)
(-0.0344144 -0.00563275 -6.48251e-20 0.0345511 8.12628e-21 -0.000136681)
(-0.0328941 -0.00590933 7.14727e-22 0.0330037 -1.00309e-19 -0.00010966)
(-0.0314645 -0.00620954 -2.66298e-21 0.0315452 2.26106e-20 -8.06715e-05)
(-0.0304522 -0.00656384 -2.24708e-20 0.030502 -6.40884e-20 -4.97718e-05)
(-0.0292093 -0.00701419 4.02988e-21 0.0292264 -7.04653e-20 -1.70276e-05)
(-0.180414 -0.00822125 2.19328e-20 0.180429 -7.46208e-21 -1.53544e-05)
(-0.179551 -0.00950779 -3.08941e-20 0.179595 5.67578e-20 -4.33757e-05)
(-0.176708 -0.0103678 -2.96187e-20 0.176777 -1.40898e-20 -6.95546e-05)
(-0.172431 -0.0109038 3.88893e-20 0.172525 -2.14856e-20 -9.40658e-05)
(-0.167336 -0.011218 -1.00602e-20 0.167453 -4.309e-20 -0.000117046)
(-0.161623 -0.0113626 -7.90433e-21 0.161761 5.55555e-20 -0.000138595)
(-0.155639 -0.0113904 -2.83172e-20 0.155798 4.51107e-20 -0.00015879)
(-0.149445 -0.0113299 -1.85805e-20 0.149623 2.79659e-20 -0.000177686)
(-0.143242 -0.0112096 -4.41768e-21 0.143437 1.32926e-19 -0.000195321)
(-0.137035 -0.0110452 9.54174e-21 0.137247 1.16278e-19 -0.000211718)
(-0.130943 -0.0108529 4.60723e-20 0.13117 -1.92602e-20 -0.000226892)
(-0.12495 -0.0106415 4.65691e-21 0.125191 6.86927e-20 -0.000240846)
(-0.119128 -0.0104207 1.85287e-20 0.119381 -6.73014e-20 -0.000253578)
(-0.113453 -0.0101953 4.71619e-20 0.113718 5.93659e-20 -0.000265075)
(-0.107971 -0.00997126 2.84498e-20 0.108247 -1.37099e-19 -0.000275324)
(-0.102659 -0.00975144 -6.44917e-20 0.102943 -1.92938e-20 -0.000284303)
(-0.0975423 -0.00953934 6.54081e-20 0.0978343 1.25241e-20 -0.000291988)
(-0.0926025 -0.00933689 -1.63468e-20 0.0929008 -5.44044e-20 -0.000298349)
(-0.0878552 -0.00914609 -1.38318e-20 0.0881586 1.00675e-19 -0.000303353)
(-0.083285 -0.00896836 8.3019e-21 0.083592 -4.58459e-20 -0.000306963)
(-0.0789002 -0.00880474 -5.98241e-20 0.0792093 1.91849e-20 -0.000309137)
(-0.0746904 -0.0086564 2.56335e-20 0.0750002 -7.89194e-20 -0.00030983)
(-0.0706582 -0.00852384 4.49671e-22 0.0709672 5.12932e-20 -0.000308994)
(-0.066799 -0.00840799 -4.11245e-21 0.0671056 -1.29191e-19 -0.000306576)
(-0.0631108 -0.00830916 -8.36534e-20 0.0634133 5.19696e-21 -0.000302524)
(-0.0595945 -0.00822806 6.75516e-20 0.0598913 -7.24741e-20 -0.000296782)
(-0.0562449 -0.00816505 -3.5293e-20 0.0565341 1.53978e-20 -0.000289296)
(-0.053068 -0.00812075 -9.67202e-21 0.053348 -3.62842e-20 -0.000280011)
(-0.0500564 -0.00809563 -7.00259e-20 0.0503253 -4.54362e-20 -0.000268878)
(-0.047221 -0.00809074 -4.44287e-20 0.0474769 2.59128e-20 -0.00025585)
(-0.0445532 -0.00810637 -4.48213e-20 0.0447941 -8.66077e-21 -0.000240887)
(-0.0420681 -0.00814545 -3.86221e-20 0.042292 6.41519e-21 -0.000223954)
(-0.0397576 -0.00820723 2.46863e-20 0.0399626 2.8711e-21 -0.000205028)
(-0.0376372 -0.00829808 2.22465e-20 0.0378213 -5.82087e-20 -0.00018409)
(-0.0357091 -0.00842095 -3.37802e-23 0.0358702 4.03506e-20 -0.000161138)
(-0.0339614 -0.00856498 -1.16525e-19 0.0340976 -2.87689e-22 -0.000136176)
(-0.0324675 -0.00880211 -5.65031e-20 0.0325767 1.02674e-20 -0.000109227)
(-0.0310455 -0.00897092 3.44275e-20 0.0311258 3.15164e-20 -8.0326e-05)
(-0.0300489 -0.00935082 -1.22267e-19 0.0300985 -2.32725e-20 -4.95323e-05)
(-0.0288892 -0.00974088 2.85861e-20 0.0289061 4.13129e-20 -1.6921e-05)
(-0.18016 -0.0136494 3.17935e-20 0.180175 -1.96898e-20 -1.53132e-05)
(-0.179075 -0.0157331 4.78665e-20 0.179118 7.31815e-20 -4.32505e-05)
(-0.17607 -0.017114 -1.35259e-20 0.176139 -1.79162e-19 -6.93504e-05)
(-0.171679 -0.0179608 -2.72701e-20 0.171773 1.54375e-19 -9.37872e-05)
(-0.166503 -0.0184408 7.42149e-20 0.16662 -1.04694e-19 -0.000116697)
(-0.160735 -0.0186405 5.60195e-20 0.160873 -1.22864e-20 -0.00013818)
(-0.154715 -0.0186464 2.08168e-20 0.154873 -9.27457e-20 -0.000158313)
(-0.148499 -0.0185053 6.81416e-20 0.148677 7.06687e-21 -0.000177149)
(-0.142285 -0.0182639 8.13311e-20 0.14248 -5.67322e-22 -0.000194728)
(-0.136075 -0.0179482 -8.32605e-20 0.136286 -1.52815e-20 -0.000211073)
(-0.129986 -0.0175845 -5.27501e-20 0.130212 -1.41497e-19 -0.000226197)
(-0.124 -0.0171873 -2.18579e-20 0.12424 6.08717e-20 -0.000240105)
(-0.118188 -0.016772 4.14411e-21 0.118441 -4.35058e-20 -0.000252793)
(-0.112527 -0.016347 -8.47858e-20 0.112791 3.98274e-20 -0.00026425)
(-0.10706 -0.0159213 -9.38763e-20 0.107334 9.1848e-20 -0.000274463)
(-0.101762 -0.0155 1.16655e-19 0.102046 8.1619e-20 -0.000283408)
(-0.0966623 -0.0150883 -2.98367e-20 0.0969533 7.71724e-20 -0.000291063)
(-0.0917388 -0.0146895 5.42823e-20 0.0920362 1.41297e-19 -0.000297398)
(-0.0870078 -0.0143064 6.38105e-20 0.0873102 -1.34985e-19 -0.000302379)
(-0.0824535 -0.0139418 -9.32655e-20 0.0827595 1.14648e-19 -0.000305968)
(-0.078084 -0.0135965 -4.8544e-20 0.0783921 -3.16658e-20 -0.000308126)
(-0.073889 -0.0132731 -1.80398e-20 0.0741978 1.20252e-19 -0.000308806)
(-0.0698705 -0.0129716 -7.15024e-20 0.0701785 -1.49469e-20 -0.000307961)
(-0.0660242 -0.012694 -7.20021e-20 0.0663298 6.23963e-20 -0.000305538)
(-0.0623476 -0.0124401 3.82701e-20 0.0626491 1.74327e-19 -0.000301487)
(-0.0588419 -0.0122117 -5.03759e-20 0.0591377 1.08512e-19 -0.000295749)
(-0.0555012 -0.0120084 4.96322e-20 0.0557894 1.65891e-19 -0.000288274)
(-0.0523322 -0.0118317 -5.84455e-20 0.0526112 5.0642e-20 -0.000279006)
(-0.0493264 -0.0116817 7.49635e-20 0.0495943 1.26735e-19 -0.000267898)
(-0.046496 -0.0115592 6.36721e-21 0.0467509 6.5421e-21 -0.000254901)
(-0.0438307 -0.0114654 -2.73311e-20 0.0440707 4.80163e-20 -0.00023998)
(-0.0413472 -0.0114004 -1.29519e-20 0.0415703 9.26397e-20 -0.000223097)
(-0.0390362 -0.0113676 -7.40114e-20 0.0392404 1.51671e-19 -0.000204231)
(-0.0369134 -0.0113624 1.33542e-20 0.0370968 -2.7436e-19 -0.000183364)
(-0.0349844 -0.0114075 5.2503e-20 0.0351449 1.88245e-19 -0.000160495)
(-0.0332255 -0.0114491 -8.72803e-20 0.0333612 -1.05441e-19 -0.000135627)
(-0.0317509 -0.0116389 2.0974e-20 0.0318597 9.10371e-21 -0.000108787)
(-0.0302925 -0.0117037 -5.0957e-20 0.0303725 9.59309e-20 -8.0008e-05)
(-0.0293893 -0.012054 -1.4798e-20 0.0294386 -3.97712e-20 -4.93482e-05)
(-0.0282512 -0.0124365 -2.95421e-20 0.028268 1.42987e-19 -1.68766e-05)
(-0.179774 -0.019077 7.25618e-20 0.17979 3.94789e-20 -1.52461e-05)
(-0.17836 -0.0219304 -8.93133e-20 0.178403 6.23852e-21 -4.30686e-05)
(-0.175118 -0.0238104 -1.07833e-20 0.175187 2.56307e-19 -6.90614e-05)
(-0.170559 -0.0249521 1.25392e-19 0.170652 -2.60277e-19 -9.33974e-05)
(-0.165265 -0.0255866 -1.20702e-19 0.165381 5.16021e-20 -0.000116212)
(-0.159416 -0.025833 4.084e-21 0.159554 6.87854e-20 -0.000137605)
(-0.153344 -0.0258112 -1.96142e-20 0.153502 6.3353e-20 -0.000157652)
(-0.147097 -0.0255856 4.86196e-20 0.147274 -2.36362e-20 -0.000176408)
(-0.140868 -0.0252206 1.61081e-20 0.141062 -1.10084e-19 -0.000193911)
(-0.134655 -0.024752 -6.84729e-20 0.134865 -5.5377e-20 -0.000210184)
(-0.128571 -0.0242162 8.77201e-20 0.128797 4.75107e-20 -0.000225241)
(-0.122598 -0.0236331 7.43987e-20 0.122837 1.04667e-20 -0.000239086)
(-0.116804 -0.0230239 2.68673e-20 0.117055 -1.60044e-19 -0.000251715)
(-0.111163 -0.0223998 1.45378e-19 0.111426 1.15636e-19 -0.000263118)
(-0.105719 -0.0217735 6.27021e-20 0.105992 3.4854e-21 -0.000273281)
(-0.100447 -0.0211518 -1.12853e-19 0.100729 3.1317e-19 -0.000282181)
(-0.0953725 -0.0205417 1.67498e-19 0.0956623 -1.88162e-19 -0.000289795)
(-0.0904752 -0.0199479 -2.20294e-19 0.0907713 2.07697e-19 -0.000296092)
(-0.0857706 -0.0193739 -1.60847e-20 0.0860716 -1.21261e-19 -0.000301042)
(-0.0812422 -0.0188235 9.76689e-20 0.0815468 1.20128e-19 -0.000304604)
(-0.0768979 -0.0182979 -4.98168e-20 0.0772047 -1.21346e-19 -0.000306739)
(-0.0727272 -0.0178006 4.56736e-20 0.0730346 -3.57209e-21 -0.000307402)
(-0.0687321 -0.0173311 -5.21144e-20 0.0690387 3.35658e-20 -0.000306545)
(-0.0649079 -0.0168929 1.50756e-19 0.065212 1.56529e-19 -0.000304116)
(-0.0612519 -0.0164846 -7.84466e-21 0.0615519 -9.77584e-20 -0.000300064)
(-0.0577653 -0.0161096 6.76532e-20 0.0580596 8.10515e-20 -0.000294333)
(-0.0544418 -0.0157662 -6.60794e-20 0.0547287 2.97965e-20 -0.000286871)
(-0.0512886 -0.0154574 -5.21634e-20 0.0515662 1.04791e-19 -0.000277625)
(-0.0482962 -0.0151819 -9.15977e-20 0.0485627 -1.22194e-19 -0.000266547)
(-0.0454777 -0.014942 -1.27588e-19 0.0457312 1.08761e-19 -0.000253592)
(-0.0428212 -0.0147374 5.96659e-20 0.04306 -1.7751e-22 -0.000238721)
(-0.0403458 -0.0145693 1.10066e-19 0.0405677 4.91111e-20 -0.000221901)
(-0.0380382 -0.0144419 -3.61184e-19 0.0382413 1.35138e-19 -0.000203111)
(-0.0359209 -0.0143444 1.42958e-20 0.0361033 -1.69545e-20 -0.000182332)
(-0.0339867 -0.0143203 2.06735e-19 0.0341463 1.24399e-19 -0.000159565)
(-0.0322418 -0.0142537 -3.18561e-19 0.0323766 4.39072e-20 -0.000134815)
(-0.0307361 -0.0144385 1.66538e-19 0.0308442 9.24019e-20 -0.000108107)
(-0.0293394 -0.0142908 -8.80565e-21 0.0294189 9.2983e-20 -7.9479e-05)
(-0.0283721 -0.0146748 -5.97911e-20 0.028421 -8.80117e-20 -4.89909e-05)
(-0.027322 -0.0148443 -3.38998e-20 0.0273387 -1.57345e-19 -1.67263e-05)
(-0.179254 -0.0245083 5.1174e-20 0.179269 -1.0792e-19 -1.51731e-05)
(-0.177409 -0.0280886 2.08317e-19 0.177452 -2.10279e-19 -4.28533e-05)
(-0.173855 -0.0304375 -1.09381e-19 0.173923 -2.87406e-19 -6.87123e-05)
(-0.169076 -0.0318523 -1.40244e-19 0.169169 -1.11182e-20 -9.29225e-05)
(-0.163627 -0.0326251 2.7196e-19 0.163743 4.22582e-20 -0.000115619)
(-0.157675 -0.0329069 8.6669e-20 0.157812 -1.6297e-19 -0.0001369)
(-0.151535 -0.0328493 -1.88735e-20 0.151692 -1.49403e-19 -0.000156842)
(-0.145248 -0.0325336 -5.81489e-20 0.145424 8.72765e-20 -0.000175498)
(-0.139 -0.0320415 5.93225e-20 0.139193 5.9162e-20 -0.000192908)
(-0.132784 -0.031418 -6.2588e-21 0.132993 1.1412e-19 -0.000209093)
(-0.12671 -0.0307091 8.80509e-21 0.126934 -1.85829e-19 -0.000224069)
(-0.120754 -0.02994 -1.89655e-19 0.120992 1.24459e-19 -0.000237837)
(-0.114984 -0.0291373 8.42785e-20 0.115234 -1.179e-19 -0.000250396)
(-0.109372 -0.0283154 2.31122e-20 0.109634 1.89075e-19 -0.000261735)
(-0.10396 -0.0274899 1.1385e-19 0.104232 -1.46427e-21 -0.000271838)
(-0.0987218 -0.0266694 -3.12715e-20 0.0990025 1.81929e-19 -0.000280686)
(-0.0936832 -0.0258627 -7.09718e-20 0.0939715 -2.69065e-19 -0.000288253)
(-0.0888221 -0.0250758 1.40699e-19 0.0891166 1.03539e-19 -0.000294511)
(-0.0841536 -0.0243129 -6.48891e-20 0.084453 5.48768e-20 -0.000299426)
(-0.079661 -0.0235789 -6.31457e-20 0.0799639 -3.69945e-20 -0.00030296)
(-0.0753518 -0.0228749 -1.94438e-19 0.0756569 2.10265e-19 -0.000305075)
(-0.0712152 -0.0222056 1.11222e-19 0.0715209 1.87184e-19 -0.000305723)
(-0.0672528 -0.0215701 6.86884e-20 0.0675577 9.33484e-20 -0.00030486)
(-0.0634598 -0.0209732 -1.43086e-19 0.0637623 -1.67753e-19 -0.000302431)
(-0.0598333 -0.0204125 -5.23758e-20 0.0601317 2.70941e-19 -0.000298388)
(-0.0563745 -0.0198929 1.17179e-19 0.0566672 -3.21144e-20 -0.000292674)
(-0.0530764 -0.0194115 1.11139e-19 0.0533616 1.33448e-19 -0.00028524)
(-0.0499468 -0.0189728 -1.8006e-19 0.0502228 6.63548e-20 -0.000276032)
(-0.0469747 -0.0185741 6.26715e-20 0.0472397 2.85172e-19 -0.000265003)
(-0.0441752 -0.0182191 1.23868e-19 0.0444274 2.1669e-19 -0.000252108)
(-0.0415334 -0.0179064 -1.21168e-19 0.0417707 2.49535e-19 -0.000237311)
(-0.0390725 -0.0176368 2.28029e-19 0.0392931 -5.33487e-20 -0.000220578)
(-0.0367727 -0.0174152 -1.01071e-19 0.0369746 1.59508e-19 -0.00020189)
(-0.0346691 -0.0172262 -8.91707e-20 0.0348504 1.28358e-19 -0.000181229)
(-0.0327299 -0.0171203 1.72944e-19 0.0328885 2.74524e-19 -0.000158596)
(-0.0310174 -0.0169669 -8.62881e-20 0.0311514 -6.947e-20 -0.000133997)
(-0.0294552 -0.0170747 6.32381e-20 0.0295626 9.28102e-21 -0.000107457)
(-0.0281592 -0.0168756 -2.11137e-19 0.0282382 5.4619e-20 -7.90144e-05)
(-0.0270187 -0.0171437 -3.42388e-19 0.0270675 -3.32111e-20 -4.87276e-05)
(-0.0260292 -0.0173329 9.20037e-20 0.0260458 9.45215e-20 -1.66613e-05)
(-0.178598 -0.0299389 2.80165e-20 0.178613 4.06594e-20 -1.50733e-05)
(-0.176224 -0.0341965 -2.07441e-19 0.176266 2.9332e-19 -4.25801e-05)
(-0.172288 -0.0369765 1.73013e-19 0.172356 -8.33853e-20 -6.8277e-05)
(-0.16724 -0.0386367 2.02041e-19 0.167332 3.34765e-19 -9.2335e-05)
(-0.161602 -0.039528 -2.06887e-19 0.161717 -3.14008e-20 -0.000114887)
(-0.155523 -0.0398308 -6.93414e-20 0.155659 -9.06202e-20 -0.000136033)
(-0.149301 -0.0397273 1.33459e-19 0.149457 1.01405e-19 -0.000155848)
(-0.142967 -0.0393147 1.99985e-19 0.143141 -9.33839e-20 -0.000174384)
(-0.136697 -0.0386912 4.70393e-20 0.136888 -1.14176e-19 -0.00019168)
(-0.130478 -0.0379103 -2.54743e-19 0.130686 1.365e-19 -0.000207759)
(-0.124416 -0.0370275 7.65404e-20 0.124638 2.17529e-19 -0.000222635)
(-0.118483 -0.0360723 1.09315e-19 0.118719 1.02018e-19 -0.000236311)
(-0.112744 -0.0350772 2.5847e-20 0.112992 2.05246e-21 -0.000248785)
(-0.107168 -0.0340587 2.9666e-19 0.107428 -2.2172e-19 -0.000260045)
(-0.101797 -0.0330359 7.2163e-20 0.102067 3.67562e-20 -0.000270077)
(-0.0966021 -0.0320189 -2.33952e-19 0.096881 -1.14961e-19 -0.00027886)
(-0.0916085 -0.031018 7.33804e-21 0.0918949 2.07114e-19 -0.00028637)
(-0.086793 -0.0300405 5.36731e-20 0.0870856 1.63019e-19 -0.000292578)
(-0.0821705 -0.0290911 -1.13747e-19 0.0824679 7.57993e-20 -0.000297451)
(-0.0777232 -0.028176 2.34968e-19 0.0780242 1.94624e-19 -0.000300951)
(-0.0734588 -0.0272961 1.11671e-19 0.0737618 2.40264e-19 -0.000303039)
(-0.0693655 -0.0264573 -8.65287e-20 0.0696692 1.61627e-19 -0.000303669)
(-0.0654452 -0.0256579 -3.04e-19 0.065748 -1.63617e-19 -0.000302796)
(-0.0616925 -0.0249043 3.00624e-19 0.0619928 2.26355e-19 -0.000300367)
(-0.0581043 -0.0241928 1.0512e-19 0.0584006 9.52444e-20 -0.000296332)
(-0.0546819 -0.0235301 -1.21318e-19 0.0549725 2.90893e-19 -0.000290638)
(-0.0514177 -0.0229116 1.20071e-19 0.051701 -1.10261e-19 -0.000283234)
(-0.0483201 -0.0223442 1.23319e-19 0.0485942 1.31891e-19 -0.000274068)
(-0.0453768 -0.0218223 5.32517e-20 0.0456399 -7.91082e-20 -0.000263094)
(-0.0426045 -0.0213531 -6.63739e-20 0.0428547 -9.66369e-20 -0.000250269)
(-0.0399849 -0.0209307 -1.1808e-19 0.0402205 -5.36033e-19 -0.000235556)
(-0.0375459 -0.0205616 -1.30047e-20 0.0377648 1.92181e-20 -0.000218923)
(-0.0352591 -0.0202428 -2.67698e-20 0.0354594 -2.94237e-19 -0.000200351)
(-0.0331721 -0.0199682 1.23526e-19 0.0333519 5.93155e-20 -0.000179823)
(-0.0312265 -0.0197743 1.09693e-19 0.0313839 -2.80825e-19 -0.000157341)
(-0.0295339 -0.0195464 -5.79153e-19 0.0296668 -1.50289e-19 -0.000132911)
(-0.027915 -0.0195716 3.57169e-19 0.0280216 -1.5735e-19 -0.00010656)
(-0.0266751 -0.0192969 1.6399e-20 0.0267534 -4.54931e-20 -7.83242e-05)
(-0.0254345 -0.0195054 -1.81091e-20 0.0254828 -4.77648e-19 -4.82673e-05)
(-0.0244532 -0.0196514 -2.08913e-19 0.0244697 1.10825e-19 -1.6473e-05)
(-0.177804 -0.0353723 2.09108e-19 0.177819 -7.41061e-20 -1.49687e-05)
(-0.174808 -0.0402434 1.15411e-19 0.17485 8.00986e-20 -4.22749e-05)
(-0.170424 -0.0434087 -1.79004e-19 0.170492 9.8796e-21 -6.77835e-05)
(-0.165061 -0.0452814 5.88941e-21 0.165153 -2.68227e-19 -9.16645e-05)
(-0.159203 -0.0462669 3.40317e-20 0.159317 1.51637e-19 -0.000114051)
(-0.152974 -0.0465735 7.11995e-21 0.15311 4.64011e-19 -0.00013504)
(-0.146657 -0.046412 -6.35597e-20 0.146812 2.39069e-20 -0.000154707)
(-0.140268 -0.0458944 -2.15528e-19 0.140442 1.58191e-19 -0.000173104)
(-0.133974 -0.0451342 2.79482e-19 0.134164 -1.40887e-20 -0.000190271)
(-0.127754 -0.0441931 2.30183e-19 0.12796 1.1572e-19 -0.000206228)
(-0.121707 -0.043135 -6.14381e-20 0.121928 7.16993e-22 -0.000220991)
(-0.115802 -0.041994 -3.51174e-19 0.116037 1.85041e-19 -0.000234561)
(-0.1101 -0.0408074 -1.92138e-19 0.110347 9.66684e-21 -0.000246938)
(-0.104569 -0.0395943 -2.57238e-20 0.104828 3.34697e-19 -0.00025811)
(-0.0992473 -0.0383765 3.25816e-19 0.0995153 -1.65013e-19 -0.000268063)
(-0.0941045 -0.0371656 1.18775e-19 0.0943812 1.25987e-20 -0.000276775)
(-0.0891651 -0.0359736 1.03579e-19 0.0894493 3.70787e-21 -0.000284224)
(-0.0844045 -0.0348086 7.49909e-20 0.0846949 5.50977e-21 -0.000290379)
(-0.0798373 -0.033676 -1.59826e-20 0.0801325 -1.40234e-19 -0.000295208)
(-0.0754447 -0.0325829 9.8453e-20 0.0757434 -1.91575e-19 -0.000298674)
(-0.0712342 -0.0315301 -1.03298e-19 0.0715349 -1.13204e-20 -0.000300738)
(-0.0671932 -0.0305248 -6.87127e-20 0.0674946 -3.07329e-19 -0.000301354)
(-0.0633237 -0.0295645 9.73061e-21 0.0636242 1.90498e-19 -0.000300476)
(-0.0596197 -0.028657 5.02615e-20 0.0599177 -1.18449e-19 -0.000298054)
(-0.0560781 -0.0277974 1.70514e-19 0.0563721 -1.24053e-19 -0.000294039)
(-0.0526996 -0.0269941 -2.66434e-20 0.052988 -5.97845e-20 -0.000288376)
(-0.0494766 -0.0262407 -8.7988e-20 0.0497577 -2.48871e-20 -0.000281017)
(-0.0464174 -0.0255464 -2.05301e-20 0.0466893 -3.13151e-19 -0.000271909)
(-0.0435088 -0.0249029 -2.07722e-19 0.0437698 6.04565e-19 -0.000261009)
(-0.040768 -0.0243209 -2.53534e-19 0.0410163 -4.33953e-20 -0.000248272)
(-0.0381753 -0.0237896 -1.21106e-19 0.038409 3.2793e-19 -0.000233666)
(-0.0357599 -0.0233215 4.34181e-19 0.0359771 1.4576e-19 -0.000217157)
(-0.0334899 -0.022905 -4.33113e-20 0.0336887 -2.16792e-19 -0.000198728)
(-0.031418 -0.0225464 -1.18183e-19 0.0315964 2.43597e-19 -0.000178363)
(-0.0294744 -0.0222616 1.2748e-19 0.0296305 -1.87084e-19 -0.000156063)
(-0.0277949 -0.0219774 -3.02166e-20 0.0279267 -3.80211e-20 -0.000131835)
(-0.0261382 -0.0218997 2.71984e-20 0.0262439 7.76398e-21 -0.000105706)
(-0.0249487 -0.0216441 -5.13372e-19 0.0250264 -1.12391e-19 -7.77101e-05)
(-0.0235686 -0.0217158 -2.03313e-19 0.0236165 -1.32142e-19 -4.79118e-05)
(-0.0227123 -0.0219511 2.26008e-19 0.0227287 5.42738e-19 -1.63752e-05)
(-0.176869 -0.0408036 1.01159e-19 0.176884 1.16378e-19 -1.48366e-05)
(-0.173166 -0.0462186 -2.21585e-20 0.173208 -9.92791e-20 -4.19113e-05)
(-0.168273 -0.0497169 -1.51909e-20 0.16834 8.53049e-20 -6.72036e-05)
(-0.162552 -0.0517639 1.36002e-19 0.162643 6.9132e-19 -9.08816e-05)
(-0.156444 -0.0528159 2.22086e-19 0.156557 4.12891e-20 -0.000113077)
(-0.150048 -0.0531066 -5.45711e-21 0.150182 -4.51386e-19 -0.000133886)
(-0.143624 -0.0528733 4.65637e-21 0.143777 -8.40819e-20 -0.000153383)
(-0.137174 -0.0522414 1.63188e-19 0.137346 -1.58834e-19 -0.000171621)
(-0.130853 -0.0513386 -6.69671e-20 0.131042 -4.06531e-20 -0.000188638)
(-0.124632 -0.0502339 -1.21025e-19 0.124837 -1.58541e-19 -0.000204455)
(-0.118604 -0.0489993 2.86456e-19 0.118823 -1.29332e-19 -0.000219088)
(-0.112733 -0.0476727 2.44041e-19 0.112965 -2.67953e-19 -0.000232538)
(-0.107076 -0.046296 6.44703e-20 0.10732 9.03696e-20 -0.000244803)
(-0.101596 -0.0448905 7.72089e-20 0.101852 -6.31724e-20 -0.000255874)
(-0.0963314 -0.0434805 -1.3796e-19 0.0965972 -3.71904e-19 -0.000265734)
(-0.0912493 -0.042079 -1.08646e-19 0.0915237 4.18673e-20 -0.000274365)
(-0.0863731 -0.0406993 1.21311e-19 0.0866548 -2.92704e-19 -0.000281741)
(-0.0816764 -0.0393505 -2.15052e-20 0.0819643 6.76075e-21 -0.000287834)
(-0.0771736 -0.0380384 -1.91301e-19 0.0774663 -4.47038e-19 -0.000292612)
(-0.0728446 -0.0367711 3.68531e-19 0.0731406 3.04129e-20 -0.000296038)
(-0.0686969 -0.0355492 1.01793e-19 0.068995 -7.13193e-20 -0.000298072)
(-0.0647169 -0.0343809 6.40857e-20 0.0650156 2.73688e-20 -0.000298669)
(-0.0609069 -0.033263 -1.98215e-19 0.0612047 1.73429e-19 -0.000297786)
(-0.0572598 -0.0322047 5.07138e-21 0.0575551 5.72074e-20 -0.00029537)
(-0.0537729 -0.0311997 1.3367e-19 0.0540643 1.41852e-19 -0.000291374)
(-0.0504463 -0.0302587 1.67685e-19 0.050732 -3.1179e-19 -0.000285744)
(-0.0472723 -0.0293725 -2.55395e-19 0.0475507 2.37373e-19 -0.000278432)
(-0.0442587 -0.028554 9.01459e-19 0.044528 -5.41307e-19 -0.000269387)
(-0.0413921 -0.0277906 3.16538e-19 0.0416507 4.83107e-19 -0.000258566)
(-0.0386897 -0.0270986 -2.35915e-19 0.0389356 -5.58455e-19 -0.000245927)
(-0.0361303 -0.0264603 -2.60672e-19 0.0363617 4.88008e-19 -0.000231436)
(-0.033744 -0.0258973 -5.70546e-19 0.033959 -4.98675e-20 -0.000215063)
(-0.0314955 -0.0253861 6.73505e-20 0.0316923 2.01723e-19 -0.00019679)
(-0.0294404 -0.0249501 1.22944e-19 0.029617 2.70249e-19 -0.000176601)
(-0.0275008 -0.0245782 -3.45929e-19 0.0276553 1.58552e-19 -0.000154499)
(-0.0258248 -0.0242464 -3.7518e-19 0.0259553 1.61733e-20 -0.00013049)
(-0.0241428 -0.02407 3.17434e-19 0.0242474 2.9393e-19 -0.000104601)
(-0.0229612 -0.0238292 -1.6437e-19 0.0230381 2.80137e-19 -7.68683e-05)
(-0.0215135 -0.0238002 5.72662e-19 0.0215608 -1.85358e-19 -4.73581e-05)
(-0.0206742 -0.0240635 -4.58847e-19 0.0206904 1.18437e-19 -1.61534e-05)
(-0.175789 -0.0462353 1.22225e-19 0.175804 -7.88496e-20 -1.47009e-05)
(-0.171303 -0.0521121 1.27135e-19 0.171344 -5.53463e-20 -4.15174e-05)
(-0.165845 -0.055884 2.39432e-19 0.165912 -5.95638e-20 -6.65677e-05)
(-0.159728 -0.0580624 1.23884e-19 0.159818 -6.80438e-19 -9.00185e-05)
(-0.153343 -0.0591496 -4.50728e-19 0.153455 -4.80666e-19 -0.000112)
(-0.146763 -0.0594021 -1.93561e-20 0.146895 1.97395e-19 -0.000132608)
(-0.140221 -0.0590815 3.53299e-20 0.140373 2.45792e-19 -0.000151917)
(-0.133705 -0.0583247 -1.55461e-19 0.133875 4.6975e-20 -0.000169978)
(-0.127357 -0.0572728 2.36234e-19 0.127544 3.32359e-19 -0.000186829)
(-0.121137 -0.0560009 2.58749e-19 0.121339 -4.37117e-19 -0.000202492)
(-0.115132 -0.0545884 -3.20797e-19 0.115349 3.16044e-19 -0.00021698)
(-0.109299 -0.0530764 -6.16336e-20 0.109529 -2.48929e-19 -0.000230298)
(-0.103692 -0.0515112 -1.4799e-20 0.103935 8.55579e-20 -0.000242442)
(-0.0982724 -0.0499157 -2.60005e-19 0.0985258 -3.9973e-20 -0.000253401)
(-0.0930728 -0.0483169 3.10073e-19 0.0933359 2.44331e-19 -0.000263163)
(-0.0880597 -0.0467285 1.90113e-19 0.0883314 -1.64591e-19 -0.000271705)
(-0.083255 -0.0451651 -9.67367e-20 0.083534 4.23639e-19 -0.000279005)
(-0.0786309 -0.0436367 7.06456e-20 0.0789159 -2.10346e-19 -0.000285034)
(-0.0742011 -0.0421494 -2.40234e-19 0.0744909 2.37346e-19 -0.00028976)
(-0.0699441 -0.0407122 2.95891e-19 0.0702372 1.73614e-20 -0.000293146)
(-0.0658676 -0.0393254 -1.41508e-20 0.0661628 -2.01307e-19 -0.000295154)
(-0.0619567 -0.0379982 1.52946e-19 0.0622524 -5.10597e-20 -0.000295738)
(-0.058214 -0.0367266 1.57837e-19 0.0585089 -1.44736e-19 -0.000294855)
(-0.0546312 -0.0355213 -6.17911e-20 0.0549237 -2.63507e-20 -0.000292453)
(-0.0512064 -0.0343743 -3.20721e-19 0.0514949 1.98169e-19 -0.000288487)
(-0.0479381 -0.0332985 2.50775e-19 0.048221 -5.37662e-19 -0.000282902)
(-0.0448197 -0.0322824 -5.65122e-19 0.0450953 1.51988e-19 -0.000275652)
(-0.0418571 -0.0313419 -9.83641e-20 0.0421238 1.7348e-19 -0.000266686)
(-0.0390383 -0.0304607 2.27316e-19 0.0392943 4.45786e-20 -0.000255963)
(-0.036378 -0.02966 -8.19224e-20 0.0366214 -2.81287e-19 -0.000243441)
(-0.033857 -0.0289159 6.0211e-19 0.0340861 1.76319e-19 -0.000229089)
(-0.0315016 -0.0282586 1.97206e-19 0.0317145 -2.65242e-19 -0.000212875)
(-0.0292801 -0.0276534 -5.94243e-20 0.0294748 5.80152e-19 -0.000194783)
(-0.0272416 -0.0271418 2.82794e-19 0.0274164 -7.32403e-19 -0.000174798)
(-0.0253159 -0.0266847 -1.65534e-19 0.0254688 5.25497e-19 -0.000152924)
(-0.0236375 -0.0263144 3.39629e-20 0.0237666 -1.78485e-19 -0.000129165)
(-0.0219564 -0.02604 2.46431e-19 0.02206 4.8142e-19 -0.00010355)
(-0.0207622 -0.025846 -9.40767e-19 0.0208383 -3.47969e-19 -7.61113e-05)
(-0.0192837 -0.0256922 -3.30934e-19 0.0193306 1.53588e-19 -4.69154e-05)
(-0.0185108 -0.0260329 4.27215e-19 0.0185268 3.47365e-19 -1.60274e-05)
(-0.174563 -0.0516623 -8.36117e-20 0.174578 6.49593e-19 -1.45371e-05)
(-0.169223 -0.0579141 -1.52771e-19 0.169264 2.85453e-19 -4.10651e-05)
(-0.163152 -0.0618946 -3.53119e-19 0.163218 7.73427e-20 -6.58458e-05)
(-0.156605 -0.0641571 -1.28847e-21 0.156694 4.94643e-19 -8.90437e-05)
(-0.14992 -0.0652454 5.5206e-19 0.150031 6.44951e-19 -0.000110787)
(-0.143141 -0.0654352 1.87917e-19 0.143272 2.33495e-19 -0.000131172)
(-0.136474 -0.0650103 -4.10063e-20 0.136624 -1.21793e-19 -0.000150271)
(-0.129888 -0.0641172 2.47775e-19 0.130056 -3.14438e-19 -0.000168135)
(-0.123511 -0.0629092 -3.87103e-19 0.123696 -2.96263e-19 -0.000184801)
(-0.117294 -0.0614661 -1.68201e-19 0.117495 2.14174e-19 -0.000200291)
(-0.111316 -0.0598743 3.40828e-19 0.111531 4.73338e-19 -0.000214619)
(-0.105528 -0.0581774 -1.8447e-19 0.105755 4.06627e-19 -0.000227788)
(-0.0999781 -0.0564256 2.07063e-19 0.100218 2.76644e-19 -0.000239796)
(-0.0946242 -0.0546431 4.33577e-20 0.0948748 2.52131e-19 -0.000250631)
(-0.0894975 -0.052859 -4.40286e-19 0.0897577 5.43491e-20 -0.000260281)
(-0.0845613 -0.0510879 1.52856e-19 0.08483 -1.16208e-19 -0.000268725)
(-0.0798364 -0.0493455 6.16118e-20 0.0801124 7.81227e-21 -0.00027594)
(-0.075293 -0.0476422 -8.89445e-20 0.0755748 -3.09061e-19 -0.000281896)
(-0.0709444 -0.0459847 -9.0314e-20 0.0712309 -2.13422e-19 -0.000286562)
(-0.0667674 -0.0443824 -1.80127e-19 0.0670573 3.5525e-19 -0.000289903)
(-0.0627702 -0.0428355 3.00183e-20 0.0630621 2.86197e-20 -0.000291879)
(-0.058936 -0.0413541 -3.31105e-20 0.0592284 3.31232e-19 -0.000292446)
(-0.0552683 -0.0399333 -6.58237e-20 0.0555599 -9.19975e-20 -0.000291561)
(-0.051757 -0.0385852 4.66239e-19 0.0520462 1.00969e-19 -0.000289173)
(-0.0484014 -0.0373004 -4.62486e-19 0.0486867 2.41273e-19 -0.000285236)
(-0.045198 -0.0360938 7.25333e-20 0.0454777 -1.14363e-19 -0.000279699)
(-0.0421417 -0.0349515 4.39356e-19 0.0424142 5.84628e-19 -0.000272513)
(-0.039236 -0.0338926 4.78393e-19 0.0394996 1.6991e-19 -0.000263631)
(-0.0364708 -0.0328972 -1.47164e-19 0.0367238 4.16947e-19 -0.000253012)
(-0.0338576 -0.0319914 -5.07559e-19 0.0340982 4.63854e-19 -0.000240615)
(-0.0313797 -0.0311456 -2.20813e-19 0.0316061 8.44611e-20 -0.000226409)
(-0.029059 -0.0303985 4.59975e-20 0.0292693 -2.45625e-20 -0.000210364)
(-0.026868 -0.0297046 -3.08453e-19 0.0270605 -3.79028e-22 -0.000192465)
(-0.0248478 -0.0291219 1.34829e-19 0.0250205 -2.14928e-19 -0.000172698)
(-0.0229401 -0.028587 3.74512e-19 0.0230912 2.94598e-19 -0.000151065)
(-0.0212563 -0.0281792 -3.96905e-19 0.0213839 -3.45286e-19 -0.000127573)
(-0.0195926 -0.0278175 6.31544e-19 0.0196949 3.96621e-20 -0.000102249)
(-0.0183617 -0.027656 -1.83924e-19 0.0184368 -1.23936e-19 -7.51277e-05)
(-0.0169064 -0.0273987 9.18111e-19 0.0169527 5.14368e-19 -4.62771e-05)
(-0.016129 -0.0277662 -5.35319e-19 0.0161448 -3.16514e-19 -1.57778e-05)
(-0.173186 -0.0570855 6.59663e-20 0.1732 -4.17493e-19 -1.43708e-05)
(-0.166932 -0.063615 -4.89025e-21 0.166973 -5.1468e-19 -4.05843e-05)
(-0.160206 -0.0677337 2.15068e-19 0.160271 2.03029e-19 -6.50703e-05)
(-0.1532 -0.0700294 1.16661e-19 0.153288 -1.5623e-20 -8.79919e-05)
(-0.146197 -0.0710816 -7.35774e-19 0.146307 -9.45232e-20 -0.000109476)
(-0.139207 -0.0711824 -1.76729e-20 0.139336 -8.04972e-19 -0.000129617)
(-0.132407 -0.0706347 -2.6118e-19 0.132555 -2.98831e-20 -0.000148487)
(-0.125749 -0.0695931 -1.24448e-19 0.125915 -2.425e-19 -0.000166137)
(-0.119344 -0.0682212 5.36113e-19 0.119527 6.03315e-19 -0.000182602)
(-0.113133 -0.0666028 5.5675e-19 0.113331 6.56102e-21 -0.000197905)
(-0.107186 -0.0648302 -5.93938e-20 0.107398 -3.33521e-20 -0.00021206)
(-0.101447 -0.0629489 6.2468e-20 0.101672 -7.49471e-19 -0.00022507)