/*--------------------------------*- C++ -*----------------------------------*\
| =========                 |                                                 |
| \\      /  F ield         | foam-extend: Open Source CFD                    |
|  \\    /   O peration     | Version:  3.0                                   |
|   \\  /    A nd           | Web:         http://www.extend-project.de       |
|    \\/     M anipulation  |                                                 |
\*---------------------------------------------------------------------------*/
FoamFile
{
    version     2.0;
    format      ascii;
    class       volVectorField;
    location    "39";
    object      u;
}
// * * * * * * * * * * * * * * * * * * * * * * * * * * * * * * * * * * * * * //

dimensions      [0 0 0 0 0 0 0];

internalField   nonuniform List<vector> 
7680
(
(0.118328 -0.0318902 4.27419e-17)
(0.158019 -0.0272293 4.83209e-17)
(0.33281 -0.025178 -4.15412e-17)
(0.35205 -0.0210535 3.7718e-17)
(0.486549 -0.0199801 -2.10088e-17)
(0.494595 -0.0167584 2.07352e-17)
(0.600559 -0.0160546 -9.50703e-18)
(0.601545 -0.0135766 -9.33018e-18)
(0.687312 -0.0130337 -1.88142e-17)
(0.683348 -0.0111195 -1.40985e-17)
(0.754621 -0.0106743 -2.08318e-17)
(0.746992 -0.00917294 2.66132e-17)
(0.807649 -0.00879819 -3.55111e-17)
(0.797216 -0.00760056 2.92668e-17)
(0.849952 -0.00727325 -1.35424e-17)
(0.837295 -0.00630314 4.14763e-17)
(0.884045 -0.0060029 -3.43321e-17)
(0.869544 -0.00520475 5.82381e-17)
(0.911741 -0.00491822 -3.94282e-17)
(0.89563 -0.00424838 4.549e-17)
(0.934364 -0.00397092 -4.35872e-17)
(0.916781 -0.00339193 4.56661e-17)
(0.952894 -0.00312616 -3.86059e-17)
(0.93391 -0.00260333 5.55192e-17)
(0.968063 -0.00235596 -4.10117e-17)
(0.947714 -0.00185836 4.14114e-17)
(0.98043 -0.00163563 -2.05575e-17)
(0.958728 -0.00114465 2.89388e-17)
(0.990433 -0.000944874 -2.13339e-17)
(0.967379 -0.000475847 1.49139e-17)
(0.998446 -0.000272048 -1.23206e-17)
(0.974019 7.83582e-05 1.00421e-17)
(1.00482 0.00037979 -8.29244e-18)
(0.978977 0.000369995 4.73445e-18)
(1.00971 0.000883302 8.05894e-18)
(0.98294 0.00072171 -5.66315e-18)
(1.01187 0.000109292 1.88387e-17)
(0.989652 0.00395985 -1.78631e-17)
(1.00469 -0.000580062 2.09712e-17)
(1.0085 0.00728847 -1.83022e-17)
(0.122614 -0.0974329 -5.01305e-17)
(0.161648 -0.0828295 -7.08249e-17)
(0.336361 -0.0769098 4.75366e-17)
(0.355068 -0.0646833 -4.65869e-17)
(0.489593 -0.0613648 -5.3491e-18)
(0.49721 -0.0517002 2.96683e-18)
(0.603215 -0.0494298 1.31558e-17)
(0.60386 -0.0420054 3.40948e-17)
(0.689671 -0.0402335 4.56628e-17)
(0.68543 -0.0345168 5.0836e-17)
(0.756747 -0.0330539 1.74409e-17)
(0.748883 -0.0285852 -3.83392e-18)
(0.809581 -0.027349 1.97665e-17)
(0.798942 -0.0237997 -8.38981e-18)
(0.85171 -0.0227296 -2.7472e-17)
(0.838867 -0.0198789 -4.15523e-17)
(0.885637 -0.018921 4.46184e-17)
(0.870964 -0.0166167 -9.60638e-17)
(0.913165 -0.0157249 7.68673e-17)
(0.896893 -0.0138548 -8.6621e-17)
(0.93561 -0.0129949 6.08039e-17)
(0.917871 -0.0114718 -7.11604e-17)
(0.95394 -0.0106236 4.60357e-17)
(0.934804 -0.00937941 -8.70774e-17)
(0.968871 -0.00853714 4.10714e-17)
(0.948365 -0.00752341 -4.98068e-17)
(0.980931 -0.00669005 2.35371e-19)
(0.959063 -0.00588522 -2.67943e-17)
(0.990501 -0.00505332 -7.24887e-18)
(0.967274 -0.00447998 1.47323e-18)
(0.997856 -0.00358882 -5.25199e-18)
(0.973295 -0.00332746 6.33426e-18)
(1.00319 -0.00220447 1.48427e-18)
(0.977516 -0.00222949 -7.87388e-18)
(1.00654 -0.00109323 -2.78295e-18)
(0.981174 0.000901232 -1.18648e-17)
(1.00707 -0.00428743 1.7074e-17)
(0.988392 0.0148077 -3.40034e-18)
(1.0022 -0.0198677 -9.0683e-18)
(1.00204 0.0293371 3.1801e-17)
(0.131117 -0.162285 5.15603e-17)
(0.168871 -0.137609 6.30202e-17)
(0.342903 -0.127859 -9.12038e-17)
(0.360532 -0.107395 1.03469e-16)
(0.494598 -0.101897 -1.80376e-17)
(0.501382 -0.0859323 -1.07562e-17)
(0.607052 -0.0822052 -5.78951e-17)
(0.607068 -0.0699936 -1.48248e-17)
(0.692608 -0.0670931 -9.24931e-17)
(0.687895 -0.0577291 -7.07008e-17)
(0.758982 -0.0553329 -3.28599e-17)
(0.750766 -0.0480541 -1.88755e-19)
(0.81127 -0.046017 -1.04294e-17)
(0.800367 -0.0402814 -4.37432e-18)
(0.852975 -0.0384919 6.95696e-17)
(0.839936 -0.0339337 5.90109e-17)
(0.886576 -0.0322939 -4.37389e-17)
(0.871754 -0.0286603 1.30345e-16)
(0.913855 -0.0270927 -1.18758e-16)
(0.897466 -0.0241976 1.07823e-16)
(0.936114 -0.0226481 -7.18467e-17)
(0.918277 -0.0203441 1.11892e-16)
(0.954316 -0.0187801 -8.0216e-17)
(0.935087 -0.0169416 1.34779e-16)
(0.969176 -0.0153476 -4.88358e-17)
(0.94857 -0.013863 9.59365e-17)
(0.981224 -0.0122351 -1.52073e-17)
(0.959234 -0.0110106 5.44849e-17)
(0.990851 -0.00934761 8.66077e-18)
(0.967464 -0.00832856 4.84958e-18)
(0.998337 -0.00663456 -1.03286e-18)
(0.97357 -0.0058335 1.33103e-17)
(1.00384 -0.00424824 -1.14498e-18)
(0.977946 -0.00352134 5.85664e-18)
(1.00708 -0.00342236 4.25262e-18)
(0.982029 0.00015964 -9.06488e-18)
(1.00529 -0.00913082 1.17582e-17)
(0.99193 0.0104468 -1.92924e-17)
(0.991306 -0.0179995 2.55047e-17)
(1.01162 0.0131927 -3.01992e-17)
(0.143919 -0.226711 -2.02085e-17)
(0.179686 -0.192193 -1.13812e-16)
(0.353118 -0.178617 2.47011e-16)
(0.369153 -0.150186 -2.41026e-16)
(0.502942 -0.142469 7.81287e-17)
(0.508465 -0.120183 2.38963e-17)
(0.613968 -0.114911 8.95295e-17)
(0.613005 -0.0978466 2.53897e-17)
(0.698424 -0.0937343 5.28075e-17)
(0.692944 -0.0806415 5.44252e-17)
(0.763939 -0.0772433 9.52237e-17)
(0.755107 -0.0670599 -3.87171e-17)
(0.815534 -0.0641757 1.45219e-17)
(0.804124 -0.0561454 -1.78799e-18)
(0.856663 -0.0536247 -8.28418e-17)
(0.843199 -0.0472393 -1.56645e-17)
(0.889771 -0.0449489 2.3716e-18)
(0.874591 -0.0398606 -1.38702e-16)
(0.916622 -0.0376894 1.56958e-16)
(0.89993 -0.0336464 -1.44548e-16)
(0.938503 -0.0315107 8.34404e-17)
(0.920409 -0.0283201 -1.32478e-16)
(0.956368 -0.0261642 7.59695e-17)
(0.936914 -0.0236729 -9.66422e-17)
(0.970921 -0.021467 -1.54196e-17)
(0.95011 -0.0195525 -6.15727e-17)
(0.982691 -0.0172854 -3.853e-17)
(0.960498 -0.0158579 -1.46476e-17)
(0.992069 -0.013518 -5.72821e-17)
(0.96846 -0.0125311 2.6916e-17)
(0.999344 -0.010084 -1.41858e-17)
(0.974288 -0.00947783 -2.55401e-18)
(1.00468 -0.00701772 -5.35575e-17)
(0.97826 -0.00594429 1.04867e-16)
(1.00792 -0.0058512 -8.27137e-17)
(0.981183 0.00324732 4.06005e-17)
(1.00734 -0.0163958 2.14641e-17)
(0.987273 0.0312944 -2.82538e-17)
(0.997747 -0.0430549 1.69858e-17)
(1.00339 0.0324929 -3.35898e-17)
(0.160821 -0.289897 -1.22498e-17)
(0.194021 -0.24562 2.66652e-17)
(0.366296 -0.228341 -3.9887e-16)
(0.380196 -0.191887 3.42474e-16)
(0.513255 -0.182055 -9.722e-17)
(0.517124 -0.153623 -8.26635e-17)
(0.622108 -0.146934 -1.42465e-16)
(0.619893 -0.125198 1.57134e-17)
(0.7049 -0.119987 -3.06839e-17)
(0.698474 -0.103335 -3.2396e-17)
(0.769125 -0.0990249 -1.10242e-16)
(0.759572 -0.0860961 2.17503e-17)
(0.819709 -0.0824268 5.06723e-17)
(0.807748 -0.0722569 -3.0281e-17)
(0.860039 -0.0690298 1.21194e-16)
(0.84615 -0.060971 -7.18693e-17)
(0.892508 -0.0580116 7.31347e-17)
(0.876998 -0.0516199 2.86849e-17)
(0.918841 -0.0487859 -4.71036e-17)
(0.901887 -0.0437387 5.26906e-17)
(0.9403 -0.0409244 7.33549e-18)
(0.92199 -0.0369715 1.40892e-16)
(0.957817 -0.0341046 -7.53042e-17)
(0.938173 -0.0310397 6.79858e-17)
(0.972085 -0.028076 5.01839e-17)
(0.951081 -0.0257215 7.00181e-17)
(0.983614 -0.0226379 1.32181e-17)
(0.961189 -0.0208454 2.11773e-17)
(0.992773 -0.0176269 1.02375e-16)
(0.968834 -0.0162938 -3.03103e-17)
(0.999829 -0.0129484 4.10276e-17)
(0.974252 -0.0119824 1.68512e-17)
(1.00502 -0.00884644 -3.23292e-17)
(0.977651 -0.00740064 2.67913e-17)
(1.00882 -0.0076405 8.70284e-18)
(0.979234 0.0016614 -2.98186e-17)
(1.0125 -0.018807 5.25516e-18)
(0.979919 0.0233082 -3.66886e-17)
(1.01516 -0.0338407 4.2398e-17)
(0.98553 0.0100233 3.50602e-17)
(0.181911 -0.352104 7.28591e-17)
(0.211852 -0.298264 1.19057e-16)
(0.383011 -0.277268 4.47248e-16)
(0.394282 -0.233116 -2.59848e-16)
(0.526764 -0.221132 7.95519e-17)
(0.528565 -0.186606 1.13085e-16)
(0.633175 -0.178421 1.97436e-16)
(0.629362 -0.152009 -6.52533e-17)
(0.714086 -0.145625 -5.43011e-20)
(0.706418 -0.125382 5.73676e-18)
(0.776839 -0.120105 2.53438e-16)
(0.766303 -0.104383 -1.27242e-16)
(0.826248 -0.0998962 8.13565e-17)
(0.813492 -0.0875249 -1.27485e-16)
(0.865616 -0.0835902 -3.89367e-17)
(0.851078 -0.0737844 -9.06652e-17)
(0.897284 -0.0701903 1.39145e-16)
(0.881243 -0.0624147 -1.41463e-16)
(0.922943 -0.0589852 1.31523e-16)
(0.905556 -0.0528554 -7.50482e-17)
(0.943833 -0.0494549 1.29438e-17)
(0.925171 -0.0446803 -1.52891e-16)
(0.960873 -0.0412108 3.70193e-17)
(0.940942 -0.0375617 2.34512e-17)
(0.974757 -0.033957 -1.38061e-16)
(0.953516 -0.0312486 2.80257e-17)
(0.986018 -0.0274589 -8.523e-17)
(0.963386 -0.025553 7.33036e-18)
(0.995081 -0.0215175 -1.43501e-16)
(0.970929 -0.0203418 1.00111e-17)
(1.00232 -0.015968 -1.37067e-16)
(0.976414 -0.0154693 6.89961e-17)
(1.00811 -0.0108743 -1.13821e-16)
(0.979866 -0.0101683 9.8392e-17)
(1.01318 -0.00827396 -1.68429e-16)
(0.980253 0.000739927 8.0718e-17)
(1.01964 -0.018978 1.40949e-17)
(0.97546 0.0289911 -5.01989e-17)
(1.02623 -0.0432374 -9.32381e-18)
(0.978112 0.0251611 -6.23975e-17)
(0.206926 -0.412542 -8.32551e-17)
(0.233051 -0.349414 -2.57696e-16)
(0.402599 -0.3249 -3.33633e-16)
(0.410714 -0.273078 8.39421e-17)
(0.542209 -0.25908 -5.31989e-17)
(0.541565 -0.218667 3.21926e-17)
(0.64548 -0.209129 -2.24837e-16)
(0.639813 -0.178243 1.40389e-16)
(0.723989 -0.170808 3.59311e-17)
(0.714915 -0.147154 -8.67525e-17)
(0.784881 -0.141001 -2.19316e-16)
(0.773269 -0.122648 6.3699e-17)
(0.832827 -0.117406 2.17931e-17)
(0.81924 -0.102982 1.77531e-16)
(0.871027 -0.0983679 4.46624e-17)
(0.855843 -0.0869576 4.39754e-18)
(0.901748 -0.0827213 -4.35998e-17)
(0.8852 -0.0736986 -1.72781e-18)
(0.926625 -0.0696335 -6.88316e-17)
(0.908839 -0.0625492 -8.39241e-18)
(0.946859 -0.058496 -2.40462e-17)
(0.927877 -0.0530095 6.5688e-17)
(0.963338 -0.0488511 2.61753e-17)
(0.943142 -0.044693 -2.59953e-17)
(0.976732 -0.0403454 7.59035e-17)
(0.955251 -0.0373011 -5.93468e-17)
(0.987543 -0.0326966 1.07247e-16)
(0.964657 -0.0306155 -5.58285e-17)
(0.996156 -0.0256713 2.12813e-16)
(0.971683 -0.0245084 -3.91663e-17)
(1.00289 -0.0190996 2.56861e-16)
(0.97653 -0.0189183 -6.16488e-17)
(1.00811 -0.0130973 6.32847e-17)
(0.979169 -0.0133746 -5.45992e-18)
(1.01279 -0.0096318 1.02179e-16)
(0.978326 -0.00375293 -6.59734e-17)
(1.02082 -0.0178044 6.5517e-17)
(0.969446 0.0187095 -7.6889e-17)
(1.03579 -0.0323396 1.84975e-16)
(0.959398 0.00552903 -2.32745e-17)
(0.235942 -0.471464 2.07336e-16)
(0.257586 -0.399226 1.41371e-16)
(0.425525 -0.371174 3.91147e-16)
(0.430022 -0.312057 1.53059e-16)
(0.560651 -0.29601 9.58819e-18)
(0.557164 -0.249833 -2.56016e-16)
(0.660508 -0.238874 2.25571e-16)
(0.65265 -0.203567 -2.43639e-16)
(0.736387 -0.19502 3.44547e-17)
(0.725618 -0.167974 -2.37484e-17)
(0.795225 -0.160905 2.7415e-16)
(0.782279 -0.139915 -2.88363e-16)
(0.841535 -0.133899 1.20125e-16)
(0.826883 -0.1174 -3.53764e-16)
(0.878408 -0.112113 5.02023e-17)
(0.862364 -0.0990602 -1.06675e-16)
(0.908033 -0.0942156 1.29505e-16)
(0.890793 -0.0838966 -1.30977e-16)
(0.931997 -0.0792545 1.31009e-16)
(0.913657 -0.0711634 1.09103e-17)
(0.951466 -0.0665344 -2.34663e-17)
(0.932047 -0.060294 -1.67432e-19)
(0.967312 -0.0555334 -5.93426e-17)
(0.946776 -0.0508533 9.58975e-17)
(0.980198 -0.0458461 -7.70258e-17)
(0.958457 -0.0425058 2.86335e-17)
(0.990645 -0.0371405 -1.0044e-16)
(0.967557 -0.0350015 1.1583e-16)
(0.999074 -0.0291191 -3.64343e-16)
(0.974421 -0.0281754 4.4655e-17)
(1.00586 -0.0215108 -2.43062e-16)
(0.979261 -0.0219143 7.16996e-17)
(1.01142 -0.0142466 -2.71031e-17)
(0.981956 -0.0157534 -2.03176e-18)
(1.01673 -0.00881594 -8.56125e-17)
(0.980686 -0.00625396 7.7343e-17)
(1.0258 -0.0130549 1.01675e-17)
(0.969024 0.0140494 -4.00811e-17)
(1.04308 -0.0247919 1.07249e-17)
(0.953586 0.00636297 -2.30207e-16)
(0.268642 -0.528121 -2.27592e-16)
(0.285293 -0.447217 -1.91381e-16)
(0.451189 -0.415885 -3.65535e-16)
(0.451564 -0.349582 -5.53993e-16)
(0.580961 -0.331656 -8.23431e-17)
(0.574281 -0.279955 4.25243e-16)
(0.676765 -0.267729 -1.7135e-16)
(0.666482 -0.228221 2.96661e-16)
(0.749543 -0.218688 5.67327e-17)
(0.736932 -0.188438 -1.17578e-16)
(0.805978 -0.180547 -8.79932e-17)
(0.791618 -0.157085 2.17565e-16)
(0.850394 -0.150358 -2.56071e-17)
(0.834644 -0.131934 2.44467e-16)
(0.885747 -0.126008 1.84778e-16)
(0.868846 -0.11145 -1.13599e-16)
(0.914131 -0.106003 1.57883e-16)
(0.896221 -0.0945189 -1.00644e-16)
(0.937063 -0.0892812 1.11772e-16)
(0.9182 -0.0803061 -5.67576e-17)
(0.955656 -0.0750651 -1.13236e-17)
(0.935832 -0.068181 3.24217e-17)
(0.970743 -0.0627714 -5.32537e-17)
(0.949895 -0.0576622 -3.09526e-17)
(0.982955 -0.0519486 2.137e-17)
(0.960973 -0.0483863 4.18262e-17)
(0.992777 -0.0422322 -6.96708e-17)
(0.969504 -0.0401006 2.64696e-16)
(1.0006 -0.0333038 1.52284e-17)
(0.975809 -0.0326745 1.89922e-16)
(1.00676 -0.0248782 6.86451e-17)
(0.980088 -0.0260827 -4.97568e-17)
(1.01165 -0.0168294 6.44708e-17)
(0.982243 -0.0200883 -8.4571e-17)
(1.01621 -0.0100903 8.03217e-17)
(0.980545 -0.0123482 -7.41442e-17)
(1.02455 -0.00956526 6.66285e-17)
(0.967892 0.00174646 -1.86846e-16)
(1.04315 -0.0105543 3.34906e-16)
(0.945715 -0.00886947 -9.32439e-17)
(0.305087 -0.58275 5.05851e-16)
(0.316105 -0.493352 2.4982e-16)
(0.479933 -0.458727 4.81024e-16)
(0.47576 -0.385655 8.28371e-16)
(0.604023 -0.365821 2.86259e-16)
(0.593772 -0.308783 -4.35038e-16)
(0.695498 -0.295237 7.80824e-17)
(0.68247 -0.251639 -3.64923e-16)
(0.764946 -0.241074 -1.7562e-16)
(0.750216 -0.207687 3.13922e-16)
(0.818781 -0.198945 4.01865e-17)
(0.802763 -0.173047 -1.15031e-16)
(0.861133 -0.165601 1.05245e-16)
(0.844065 -0.145259 -3.24957e-16)
(0.894815 -0.138707 -5.4155e-17)
(0.87686 -0.122634 2.81532e-17)
(0.921824 -0.116617 -1.43544e-16)
(0.903072 -0.103939 -3.91201e-18)
(0.94361 -0.0981567 -8.63874e-17)
(0.924081 -0.0882583 8.54105e-17)
(0.961241 -0.0824691 3.09499e-17)
(0.940901 -0.0748981 4.03903e-17)
(0.975518 -0.0689087 1.8081e-17)
(0.954284 -0.0633296 1.0944e-16)
(0.987055 -0.0569727 -1.90198e-16)
(0.964799 -0.0531513 2.5286e-16)
(0.996329 -0.0462434 -1.76804e-16)
(0.972877 -0.0440759 9.80707e-18)
(1.00372 -0.0363382 -2.92008e-16)
(0.97883 -0.0359378 1.41884e-16)
(1.00954 -0.0268828 -2.38785e-16)
(0.982829 -0.0286798 2.30356e-16)
(1.0141 -0.0176098 -2.91948e-16)
(0.984729 -0.022164 3.4575e-16)
(1.0181 -0.00895826 -3.13168e-16)
(0.982903 -0.0152107 2.08317e-16)
(1.0249 -0.00355308 -1.32134e-16)
(0.970643 -0.00648699 5.02637e-17)
(1.04105 0.00367572 -4.84394e-17)
(0.946522 -0.01694 -2.88735e-16)
(0.344913 -0.634653 -8.75331e-16)
(0.349851 -0.537359 -5.16455e-16)
(0.511232 -0.499742 -4.27167e-16)
(0.502045 -0.420091 -9.85262e-16)
(0.628848 -0.398541 -3.4931e-16)
(0.614711 -0.336437 2.25506e-16)
(0.715425 -0.321732 -7.30236e-17)
(0.699442 -0.274278 4.63039e-16)
(0.781123 -0.26281 2.59028e-16)
(0.764147 -0.226483 -3.51085e-16)
(0.832051 -0.216988 -1.40534e-16)
(0.814303 -0.188821 -1.13175e-16)
(0.872107 -0.180723 -1.99994e-17)
(0.853694 -0.158616 8.35086e-17)
(0.903943 -0.151477 1.063e-16)
(0.884937 -0.134027 -6.86735e-17)
(0.92944 -0.127458 2.05679e-16)
(0.909867 -0.113718 -4.35813e-17)
(0.949962 -0.107391 2.67477e-16)
(0.929801 -0.0966929 -2.79009e-16)
(0.966517 -0.0903454 4.92634e-17)
(0.945701 -0.0822033 -1.16387e-16)
(0.979858 -0.0756219 -2.83009e-17)
(0.958281 -0.069683 -1.12711e-17)
(0.990557 -0.0626793 -1.13996e-16)
(0.968082 -0.0587114 1.17956e-16)
(0.999057 -0.0510733 -2.11309e-16)
(0.975516 -0.0490018 3.49662e-16)
(1.00571 -0.0403974 -1.37559e-16)
(0.980893 -0.0404101 4.02579e-18)
(1.0108 -0.0302411 4.91873e-17)
(0.984403 -0.032915 -7.782e-18)
(1.01459 -0.0202231 6.73626e-19)
(0.985966 -0.0264819 -1.34004e-17)
(1.01762 -0.0101479 2.65841e-17)
(0.984332 -0.0208465 -7.33273e-18)
(1.02228 0.000313052 1.30506e-16)
(0.973834 -0.0176105 -1.5905e-16)
(1.03457 0.0183374 3.12497e-16)
(0.949393 -0.0292029 -2.56509e-17)
(0.388164 -0.684056 7.81604e-16)
(0.386407 -0.579032 5.18644e-16)
(0.545301 -0.538429 3.92796e-16)
(0.530712 -0.452654 8.43333e-16)
(0.656135 -0.429371 2.0641e-16)
(0.637763 -0.362448 2.25224e-16)
(0.737548 -0.346546 -6.8194e-17)
(0.718313 -0.295401 -2.08943e-16)
(0.799275 -0.282998 -3.65152e-16)
(0.779794 -0.243841 3.90233e-16)
(0.847105 -0.233575 1.30544e-17)
(0.827402 -0.20321 4.30275e-16)
(0.884703 -0.19446 -3.17544e-17)
(0.864743 -0.170624 1.05036e-16)
(0.914552 -0.162916 4.88314e-17)
(0.894314 -0.144099 1.41967e-16)
(0.938414 -0.137011 -2.49549e-16)
(0.917862 -0.122194 1.15647e-16)
(0.957571 -0.115371 -2.42289e-16)
(0.936641 -0.103839 3.64226e-16)
(0.97297 -0.09699 -1.03509e-16)
(0.951565 -0.0882263 1.13149e-16)
(0.985321 -0.081115 2.34616e-17)
(0.963315 -0.0747466 1.91142e-16)
(0.995162 -0.0671581 -1.80817e-16)
(0.972404 -0.0629439 1.8314e-16)
(1.0029 -0.0546298 -1.36629e-16)
(0.979222 -0.0525027 -9.45987e-18)
(1.00886 -0.0430747 -1.36798e-16)
(0.984055 -0.0432543 1.697e-16)
(1.01324 -0.0320221 -1.6142e-16)
(0.987066 -0.0351645 3.21009e-17)
(1.0162 -0.0209995 -2.79208e-17)
(0.988193 -0.0282975 2.05614e-16)
(1.01797 -0.00941992 -3.3265e-16)
(0.986661 -0.0233852 2.07127e-16)
(1.01976 0.00514368 -1.92032e-16)
(0.978744 -0.0251129 1.01298e-16)
(1.02619 0.0313038 -2.36999e-16)
(0.957343 -0.0383453 -1.78701e-16)
(0.434432 -0.730316 -2.57762e-16)
(0.425619 -0.618297 -2.96832e-16)
(0.581703 -0.575037 -3.73576e-16)
(0.561292 -0.4834 -5.58516e-16)
(0.68505 -0.458595 -3.83801e-16)
(0.662164 -0.38715 -4.22615e-16)
(0.760797 -0.370217 5.36959e-17)
(0.738129 -0.31563 1.2558e-16)
(0.818187 -0.302423 5.12538e-17)
(0.796092 -0.26064 -1.45151e-17)
(0.862653 -0.249703 -1.1465e-16)
(0.840935 -0.217313 -5.21604e-16)
(0.897593 -0.207983 -1.05353e-16)
(0.876064 -0.18257 -3.62375e-16)
(0.925302 -0.174341 -5.1833e-17)
(0.903837 -0.154296 -4.19077e-16)
(0.947408 -0.146719 3.57621e-16)
(0.925902 -0.130956 -3.94637e-16)
(0.965097 -0.12365 3.40063e-16)
(0.943436 -0.111409 -5.47443e-16)
(0.979243 -0.104067 1.85053e-16)
(0.957298 -0.0948021 -1.70678e-16)
(0.990501 -0.0871706 -3.69463e-17)
(0.968126 -0.0804912 -1.83598e-17)
(0.999365 -0.0723375 -7.59276e-17)
(0.976404 -0.0680026 2.65875e-16)
(1.00621 -0.0590538 -1.91398e-16)
(0.982506 -0.0570132 2.24224e-16)
(1.0113 -0.0468364 5.92371e-17)
(0.986721 -0.0473537 -5.69211e-17)
(1.01482 -0.0351699 1.41642e-16)
(0.989233 -0.0389803 -1.85385e-17)
(1.01689 -0.0234723 -4.98888e-18)
(0.990054 -0.0319692 -1.16267e-16)
(1.01749 -0.0106843 3.34966e-16)
(0.988928 -0.0276279 -3.24866e-16)
(1.01651 0.00770601 3.1892e-16)
(0.984175 -0.0328194 -2.75846e-16)
(1.01646 0.041876 3.61856e-16)
(0.967128 -0.0466257 2.79558e-17)
(0.483749 -0.773647 1.32681e-16)
(0.467288 -0.654801 2.45489e-16)
(0.620511 -0.608915 2.9186e-16)
(0.593938 -0.511905 4.40039e-16)
(0.716096 -0.485574 5.35663e-16)
(0.688384 -0.40991 3.99764e-16)
(0.785936 -0.391923 2.52037e-17)
(0.759566 -0.334106 1.94604e-16)
(0.838785 -0.320076 -2.61948e-17)
(0.813843 -0.275816 3.96176e-17)
(0.87971 -0.264202 1.13736e-16)
(0.855774 -0.229887 5.11561e-16)
(0.911843 -0.219984 3.72159e-16)
(0.888562 -0.193057 5.05816e-16)
(0.937281 -0.184328 4.71992e-17)
(0.914425 -0.163084 5.9995e-16)
(0.957517 -0.155051 -4.8664e-16)
(0.93491 -0.138342 6.34259e-16)
(0.97364 -0.1306 -2.72593e-16)
(0.951118 -0.117623 4.67923e-16)
(0.986453 -0.109844 -1.33529e-16)
(0.963853 -0.100022 1.54955e-16)
(0.996555 -0.0919344 -9.54008e-17)
(0.973708 -0.0848573 8.45428e-17)
(1.00439 -0.0762117 2.324e-17)
(0.981133 -0.0716236 -2.92017e-16)
(1.01029 -0.0621277 2.40015e-16)
(0.986474 -0.059975 -2.95152e-16)
(1.01448 -0.0491685 5.81042e-17)
(0.989999 -0.0497257 -1.91342e-16)
(1.01705 -0.0367846 7.11776e-17)
(0.991884 -0.0408262 -2.11731e-16)
(1.01804 -0.0243495 1.39188e-16)
(0.992205 -0.0334066 1.37024e-17)
(1.01719 -0.0105978 -1.58963e-16)
(0.991289 -0.0293318 2.79669e-16)
(1.01322 0.0101899 -2.44805e-16)
(0.989898 -0.0372805 1.99719e-16)
(1.00635 0.0492375 -1.4511e-16)
(0.979124 -0.0522576 -2.22903e-16)
(0.535667 -0.813473 -5.76013e-16)
(0.511301 -0.688646 -4.42888e-17)
(0.661393 -0.640483 -4.2305e-16)
(0.628293 -0.538428 -3.0815e-16)
(0.748604 -0.510791 -5.0622e-16)
(0.715826 -0.431228 -3.53197e-16)
(0.812105 -0.412357 -2.58385e-16)
(0.781879 -0.35157 -1.27381e-16)
(0.860101 -0.33685 -5.39528e-16)
(0.832221 -0.290325 2.64314e-16)
(0.89726 -0.278134 -3.78405e-16)
(0.871059 -0.242073 -2.98818e-16)
(0.926417 -0.231671 -7.60772e-16)
(0.901372 -0.203385 -4.90081e-16)
(0.949459 -0.194207 -2.22797e-16)
(0.925223 -0.171905 -3.27575e-16)
(0.96773 -0.163451 4.01795e-16)
(0.944049 -0.145928 -5.98364e-16)
(0.982208 -0.137773 4.36411e-16)
(0.958868 -0.124185 -5.68239e-16)
(0.993619 -0.115986 3.07759e-16)
(0.970418 -0.105728 -2.68419e-16)
(1.0025 -0.0972028 1.90859e-16)
(0.979249 -0.0898477 -1.01469e-16)
(1.00925 -0.0807336 8.71019e-17)
(0.985777 -0.0760168 9.16779e-17)
(1.01414 -0.0660084 3.33113e-17)
(0.990329 -0.063874 2.35557e-17)
(1.01737 -0.0524869 2.10939e-16)
(0.993172 -0.0532183 -2.88107e-17)
(1.01901 -0.0395844 1.84356e-16)
(0.994502 -0.0439713 -1.05503e-16)
(1.01901 -0.0266076 2.13831e-16)
(0.994464 -0.0362223 -1.9188e-16)
(1.01695 -0.0120749 1.99337e-16)
(0.993855 -0.0319967 -2.35356e-16)
(1.01039 0.0106032 1.39211e-16)
(0.995584 -0.0408157 -1.9013e-16)
(0.997013 0.0532606 6.87453e-17)
(0.991232 -0.0554135 -1.84615e-17)
(0.590205 -0.849991 7.43659e-16)
(0.557365 -0.719364 5.78334e-17)
(0.704277 -0.66898 3.00856e-16)
(0.664357 -0.562397 4.8993e-16)
(0.78288 -0.533467 3.26708e-16)
(0.744769 -0.450356 5.67884e-16)
(0.839836 -0.430593 1.40742e-16)
(0.805523 -0.36709 3.17071e-16)
(0.882802 -0.351673 4.4592e-16)
(0.851781 -0.303065 -8.58449e-17)
(0.91604 -0.290302 1.83354e-16)
(0.887394 -0.252621 4.2752e-16)
(0.942087 -0.241735 7.1482e-16)
(0.915114 -0.212173 6.19418e-16)
(0.962615 -0.202575 2.43547e-16)
(0.93685 -0.17926 1.46184e-16)
(0.978812 -0.170424 -4.3682e-16)
(0.953923 -0.152097 5.22385e-16)
(0.991552 -0.14358 -4.35589e-16)
(0.967268 -0.12936 2.63113e-16)
(1.00148 -0.120802 -1.03555e-18)
(0.97756 -0.110056 3.0262e-17)
(1.00906 -0.101163 6.86628e-17)
(0.985296 -0.0934411 -1.23019e-16)
(1.01465 -0.0839461 1.02763e-16)
(0.990853 -0.0789627 -3.31189e-16)
(1.01847 -0.0685561 2.04428e-16)
(0.994531 -0.0662406 -3.39681e-16)
(1.02066 -0.0544378 5.40371e-17)
(0.996581 -0.0550621 -2.15846e-16)
(1.02124 -0.0409937 9.96945e-17)
(0.99721 -0.0453447 -1.92746e-16)
(1.02011 -0.0275295 1.12469e-16)
(0.996634 -0.0371826 -3.5911e-16)
(1.01673 -0.012573 2.76369e-16)
(0.996111 -0.0326852 -1.22667e-16)
(1.00786 0.0105724 4.22129e-18)
(1.00061 -0.0416695 2.1214e-16)
(0.988865 0.0538887 -1.15858e-16)
(1.00323 -0.0561973 2.07147e-16)
(0.646884 -0.882698 -7.81622e-16)
(0.605428 -0.747205 2.16329e-16)
(0.74894 -0.694961 -6.4359e-16)
(0.701898 -0.584234 -2.49637e-16)
(0.818424 -0.55424 -6.7011e-16)
(0.774781 -0.467919 -2.56064e-16)
(0.868472 -0.447434 -1.73667e-16)
(0.829946 -0.381486 -3.98565e-17)
(0.906149 -0.365505 -7.41671e-16)
(0.871917 -0.315032 4.02582e-16)
(0.935282 -0.301797 -3.25964e-16)
(0.90416 -0.262677 -3.40012e-16)
(0.958087 -0.251383 -6.15298e-16)
(0.929183 -0.220701 -7.40704e-16)
(0.976004 -0.210735 -2.84578e-16)
(0.948729 -0.186549 -1.03503e-16)
(0.990061 -0.177368 3.64075e-16)
(0.963998 -0.158369 -3.85028e-16)
(1.00101 -0.149514 2.75956e-16)
(0.975833 -0.134786 -2.26409e-16)
(1.00941 -0.125888 1.71937e-16)
(0.98484 -0.114774 -2.32726e-16)
(1.01568 -0.105529 7.16585e-17)
(0.991468 -0.097559 -9.10454e-17)
(1.02009 -0.0876965 2.23694e-16)
(0.996055 -0.0825685 -2.31606e-17)
(1.02284 -0.0717769 1.81012e-16)
(0.998878 -0.0694031 2.42623e-17)
(1.02403 -0.0571957 3.47213e-16)
(1.00018 -0.0578303 -1.99894e-16)
(1.02362 -0.0433375 4.2327e-16)
(1.00019 -0.0477384 -2.75186e-16)
(1.0215 -0.0294927 3.83564e-16)
(0.999154 -0.0391552 -8.57406e-17)
(1.01704 -0.0142175 2.87798e-16)
(0.998604 -0.0339698 -4.9087e-16)
(1.00641 0.00893056 4.18339e-16)
(1.005 -0.0415134 -4.61574e-16)
(0.982772 0.0516235 1.45723e-16)
(1.01366 -0.0546912 -1.37817e-16)
(0.705709 -0.91178 8.08657e-16)
(0.655096 -0.771615 1.15576e-16)
(0.795164 -0.717596 2.48196e-16)
(0.740763 -0.603264 6.41357e-16)
(0.855345 -0.572232 6.98466e-16)
(0.805953 -0.483094 3.12552e-16)
(0.898325 -0.461893 -9.21606e-17)
(0.855396 -0.393789 1.52044e-16)
(0.930571 -0.37725 5.23884e-16)
(0.892959 -0.325123 -2.88039e-16)
(0.955474 -0.311428 2.74675e-16)
(0.921721 -0.271023 3.52246e-16)
(0.974922 -0.259342 5.20162e-16)
(0.943946 -0.227645 4.80896e-16)
(0.990124 -0.217344 4.53215e-16)
(0.961207 -0.192349 2.57316e-17)
(1.00194 -0.182866 -2.00534e-16)
(0.974582 -0.16322 1.49498e-16)
(1.01101 -0.154083 -2.41705e-17)
(0.984822 -0.13884 -4.65845e-18)
(1.01781 -0.129666 7.07015e-17)
(0.992464 -0.118141 -9.55026e-17)
(1.02266 -0.108624 2.45301e-16)
(0.997899 -0.100326 -3.78875e-16)
(1.02582 -0.090194 1.7156e-16)
(1.00143 -0.0847975 -3.78152e-16)
(1.02742 -0.0737476 6.33367e-17)
(1.0033 -0.0711416 -2.75579e-16)
(1.02752 -0.0587045 -2.13882e-17)
(1.00374 -0.0591175 -1.61652e-16)
(1.02604 -0.0444522 -1.92529e-16)
(1.00299 -0.0486127 4.46729e-17)
(1.02285 -0.0303156 -1.73468e-16)
(1.00137 -0.0396285 -2.02639e-16)
(1.01735 -0.0150411 5.36841e-17)
(1.00057 -0.0337791 2.22996e-16)
(1.00552 0.00701915 -1.15909e-16)
(1.00818 -0.0395061 2.90922e-16)
(0.978806 0.0469518 -1.93303e-16)
(1.02242 -0.0517475 2.71474e-16)
(0.766178 -0.936809 -8.20534e-16)
(0.70639 -0.792973 -4.45375e-16)
(0.842843 -0.73754 -3.71592e-16)
(0.780849 -0.620036 -2.58366e-16)
(0.893314 -0.588198 -1.11678e-15)
(0.838018 -0.496596 -1.43009e-16)
(0.928934 -0.474849 -1.38199e-16)
(0.881507 -0.404866 -5.79809e-18)
(0.955543 -0.387901 -4.56071e-16)
(0.914501 -0.334339 2.18427e-16)
(0.97607 -0.320287 -4.94029e-17)
(0.939672 -0.278775 -5.67771e-16)
(0.992063 -0.266783 -2.40969e-16)
(0.959025 -0.234224 -3.82007e-16)
(1.00449 -0.223644 -2.29744e-16)
(0.973955 -0.197976 -9.69998e-17)
(1.01403 -0.18823 3.985e-16)
(0.985411 -0.168064 -3.10717e-16)
(1.0212 -0.158668 3.44311e-16)
(0.994047 -0.143029 -4.26986e-16)
(1.02638 -0.133595 2.64974e-16)
(1.00033 -0.121778 -1.50537e-16)
(1.02985 -0.111994 4.11486e-17)
(1.00459 -0.103487 7.42198e-17)
(1.03178 -0.0930826 2.10541e-16)
(1.0071 -0.0875414 1.18653e-16)
(1.03228 -0.0762186 1.21312e-16)
(1.00806 -0.0735088 1.21892e-16)
(1.03135 -0.060811 1.11662e-16)
(1.00771 -0.0611324 1.7103e-16)
(1.0289 -0.0462446 2.01101e-16)
(1.00628 -0.0502789 -4.73237e-17)
(1.02478 -0.031868 1.96727e-16)
(1.00408 -0.040879 2.03433e-16)
(1.01843 -0.0166209 8.75593e-17)
(1.00279 -0.0340892 -4.09439e-16)
(1.0059 0.00416155 4.01199e-16)
(1.01045 -0.0370271 -3.59844e-16)
(0.977302 0.0407535 1.73036e-16)
(1.02868 -0.0476553 -2.35682e-16)
(0.828283 -0.957957 1.04929e-15)
(0.758811 -0.810663 9.19356e-16)
(0.891616 -0.753932 3.02815e-16)
(0.821851 -0.633808 2.95278e-16)
(0.93225 -0.601207 9.02198e-16)
(0.87089 -0.507565 1.13292e-16)
(0.960403 -0.48529 2.1769e-16)
(0.908333 -0.413747 1.46834e-16)
(0.981277 -0.396369 1.99711e-16)
(0.936672 -0.34161 -1.42155e-16)
(0.997337 -0.327221 -2.42543e-17)
(0.958167 -0.284777 4.258e-16)
(1.00979 -0.272503 3.05066e-16)
(0.974565 -0.239206 2.68298e-16)
(1.01934 -0.228383 4.01811e-17)
(0.987083 -0.202124 2.2514e-17)
(1.02652 -0.192163 -3.67652e-16)
(0.996539 -0.17152 1.30867e-16)
(1.03171 -0.161925 -4.31222e-17)
(1.00349 -0.145899 1.11149e-16)
(1.03519 -0.136276 3.22368e-17)
(1.00833 -0.124139 -5.60386e-17)
(1.03718 -0.114175 1.51186e-16)
(1.01133 -0.105396 -2.14163e-16)
(1.0378 -0.0948232 -1.48197e-17)
(1.01271 -0.0890372 -3.39162e-16)
(1.03711 -0.077569 1.35749e-16)
(1.01268 -0.0746172 -3.33229e-16)
(1.03508 -0.0618192 1.20214e-16)
(1.01142 -0.0618743 -3.71425e-16)
(1.0316 -0.0469691 -8.13788e-17)
(1.0092 -0.0506803 -5.69012e-17)
(1.02652 -0.0324207 -2.31653e-16)
(1.00634 -0.040933 -2.18807e-16)
(1.01942 -0.0173976 -2.0388e-16)
(1.00439 -0.0333579 1.88757e-16)
(1.00682 0.00152449 -2.42327e-16)
(1.01141 -0.0336829 1.53056e-16)
(0.977966 0.0337928 -1.06439e-16)
(1.0327 -0.043506 3.44811e-16)
(0.891507 -0.974878 -1.18894e-15)
(0.812458 -0.825167 -9.16745e-16)
(0.941496 -0.767493 -5.73235e-16)
(0.863795 -0.645223 3.97293e-17)
(0.971994 -0.612089 -7.96318e-16)
(0.904457 -0.516771 1.32474e-16)
(0.992456 -0.494136 -4.49745e-16)
(0.93568 -0.421313 -1.22281e-16)
(1.00744 -0.403654 -2.51741e-17)
(0.959246 -0.347918 2.01848e-16)
(1.01893 -0.333291 7.65299e-17)
(0.976989 -0.290091 -2.27106e-16)
(1.02777 -0.27761 -1.33964e-16)
(0.990387 -0.243725 -5.06698e-16)
(1.03442 -0.232712 1.27876e-16)
(1.00047 -0.205994 -2.69745e-17)
(1.03923 -0.195852 3.65527e-16)
(1.00793 -0.174852 -2.99091e-16)
(1.04244 -0.165079 1.75175e-16)
(1.01321 -0.148779 -2.1731e-16)
(1.04425 -0.138976 6.84576e-17)
(1.01663 -0.126633 -8.37514e-18)
(1.04481 -0.116483 -1.69615e-16)
(1.01843 -0.10755 1.91078e-17)
(1.04418 -0.0967887 2.96909e-16)
(1.01876 -0.0908846 1.91455e-17)
(1.04238 -0.0792313 7.6274e-17)
(1.01779 -0.0761793 1.50292e-16)
(1.03934 -0.0632128 2.89201e-17)
(1.01571 -0.0631626 1.75398e-16)
(1.03493 -0.0481348 8.88491e-17)
(1.01276 -0.0516966 2.32937e-16)
(1.02899 -0.0334388 9.01912e-17)
(1.00922 -0.0416229 3.73552e-16)
(1.02125 -0.0185932 2.20019e-16)
(1.00636 -0.0331752 -7.25971e-17)
(1.00882 -0.00133925 1.88066e-16)
(1.01166 -0.0306487 -4.33411e-17)
(0.98059 0.02701 -4.73758e-17)
(1.03424 -0.0396056 -1.52931e-16)
(0.955827 -0.987733 1.1955e-15)
(0.866734 -0.835838 8.53551e-16)
(0.991985 -0.777365 4.71147e-16)
(0.906232 -0.653507 1.33164e-16)
(1.01228 -0.619895 3.62665e-16)
(0.938469 -0.52335 -5.98021e-18)
(1.02501 -0.500383 3.81922e-16)
(0.96343 -0.426621 8.27587e-17)
(1.03405 -0.408704 -9.78962e-17)
(0.982173 -0.352247 -1.67902e-16)
(1.04091 -0.337411 1.23673e-16)
(0.996112 -0.293648 -5.47815e-17)
(1.04609 -0.280994 -5.66885e-17)
(1.00645 -0.24666 7.00833e-16)
(1.04977 -0.235502 -3.9026e-16)
(1.01404 -0.208422 1.3523e-16)
(1.05213 -0.198155 -1.48685e-16)
(1.01942 -0.176858 1.78382e-17)
(1.05329 -0.166973 2.01287e-16)
(1.02296 -0.150424 -1.07434e-16)
(1.05335 -0.140519 9.29874e-17)
(1.02489 -0.127961 6.14971e-17)
(1.05239 -0.11772 1.02625e-16)
(1.02538 -0.108591 -1.93453e-16)
(1.05042 -0.0977498 1.25332e-16)
(1.02456 -0.0916548 -2.88322e-16)
(1.04742 -0.0799406 3.58511e-17)
(1.02256 -0.0766843 3.21964e-17)
(1.04331 -0.0636911 -3.55465e-16)