/*--------------------------------*- C++ -*----------------------------------*\
| =========                 |                                                 |
| \\      /  F ield         | foam-extend: Open Source CFD                    |
|  \\    /   O peration     | Version:  3.0                                   |
|   \\  /    A nd           | Web:         http://www.extend-project.de       |
|    \\/     M anipulation  |                                                 |
\*---------------------------------------------------------------------------*/
FoamFile
{
    version     2.0;
    format      ascii;
    class       volScalarField;
    location    "0.1";
    object      p;
}
// * * * * * * * * * * * * * * * * * * * * * * * * * * * * * * * * * * * * * //

dimensions      [0 0 0 0 0 0 0];

internalField   nonuniform List<scalar> 
400
(
0.999993
0.999992
0.999991
0.999991
0.999991
0.999992
0.999992
0.999992
0.999993
0.999993
0.999994
0.999994
0.999995
0.999996
0.999997
0.999998
0.999999
0.999999
1
1
0.999989
0.999988
0.999988
0.999988
0.999988
0.999988
0.999989
0.99999
0.99999
0.999991
0.999992
0.999993
0.999994
0.999995
0.999996
0.999997
0.999999
1
1
1
0.999971
0.999969
0.999969
0.999969
0.99997
0.999972
0.999974
0.999976
0.999977
0.999979
0.99998
0.999982
0.999985
0.999987
0.999991
0.999994
0.999999
1
1
1
0.999933
0.999931
0.99993
0.999932
0.999936
0.999941
0.999945
0.999949
0.999952
0.999955
0.999959
0.999963
0.999968
0.999974
0.999982
0.99999
1
1.00001
1.00001
1.00001
0.999842
0.999838
0.999842
0.99985
0.999861
0.999873
0.999884
0.999892
0.999899
0.999906
0.999913
0.99992
0.999931
0.999943
0.999961
0.999979
1
1.00002
1.00004
1.00004
0.999669
0.999665
0.999679
0.9997
0.999728
0.999754
0.999777
0.999794
0.999809
0.99982
0.999833
0.999847
0.999868
0.999892
0.99993
0.999967
1.00002
1.00006
1.00011
1.00011
0.999266
0.999268
0.999324
0.999385
0.999455
0.999516
0.999564
0.9996
0.999626
0.999648
0.99967
0.999696
0.999732
0.99978
0.99985
0.999935
1.00005
1.00015
1.00027
1.00028
0.998599
0.99862
0.998759
0.998893
0.99904
0.999159
0.999251
0.999315
0.999361
0.999397
0.999435
0.999476
0.999541
0.999622
0.999757
0.99991
1.00015
1.00034
1.00061
1.00065
0.997074
0.997177
0.997555
0.997889
0.998214
0.998462
0.998638
0.998756
0.998834
0.998894
0.998949
0.999018
0.999113
0.999262
0.999482
0.999798
1.00024
1.00071
1.0013
1.00149
0.99492
0.995189
0.995972
0.996607
0.997203
0.997627
0.99792
0.998107
0.998228
0.998316
0.998399
0.998497
0.99865
0.998871
0.999242
0.999753
1.00055
1.00142
1.00262
1.00311
0.989993
0.990792
0.992593
0.993999
0.995155
0.995952
0.99645
0.996763
0.996945
0.997078
0.997182
0.997327
0.997516
0.99788
0.998399
0.999351
1.00065
1.00254
1.00489
1.00633
0.984311
0.985985
0.989217
0.991546
0.993384
0.994564
0.995284
0.995714
0.995961
0.996131
0.996271
0.996451
0.996713
0.997185
0.997939
0.99929
1.00135
1.00441
1.00861
1.0117
0.970863
0.975172
0.981661
0.986258
0.989362
0.99134
0.992403
0.993047
0.993371
0.993599
0.993746
0.993981
0.994237
0.994924
0.995779
0.998012
1.00086
1.00674
1.01404
1.02154
0.959403
0.967174
0.977188
0.983722
0.98788
0.990356
0.991647
0.992395
0.992768
0.993022
0.99319
0.993445
0.993739
0.994505
0.995512
0.998225
1.0019
1.01023
1.02128
1.03525
0.929414
0.947701
0.965016
0.97636
0.982232
0.985826
0.987406
0.988372
0.98878
0.989076
0.989214
0.989504
0.98968
0.990648
0.991394
0.995287
0.999121
1.01305
1.02924
1.05886
0.916307
0.944244
0.965971
0.979125
0.985279
0.9889
0.990388
0.991304
0.991677
0.991956
0.992083
0.992356
0.992487
0.993399
0.993902
0.997827
1.00108
1.01759
1.03641
1.08396
0.867607
0.926669
0.956621
0.975715
0.982103
0.986366
0.987669
0.98863
0.988932
0.989207
0.989267
0.989534
0.989433
0.990407
0.99001
0.994709
0.995325
1.01854
1.03764
1.12601
0.885844
0.954148
0.978773
0.994581
0.998461
1.0016
1.00231
1.00303
1.00321
1.00344
1.00347
1.00369
1.0035
1.0043
1.00327
1.0071
1.00423
1.02572
1.03391
1.14866
0.858773
0.976033
0.992516
1.00818
1.00861
1.01102
1.01102
1.01156
1.01162
1.0118
1.01177
1.01197
1.01157
1.01227
1.01012
1.01368
1.00492
1.02795
1.01401
1.19045
1.01331
1.0534
1.04325
1.04878
1.04585
1.04709
1.04666
1.04704
1.04703
1.04719
1.04715
1.04734
1.04691
1.04754
1.04512
1.04802
1.03651
1.05345
1.01163
1.14804
)
;

boundaryField
{
    cavity
    {
        type            implicitExtrapolation;
    }
    lid
    {
        type            implicitExtrapolation;
    }
    frontAndBack
    {
        type            empty;
    }
}


// ************************************************************************* //
