/*--------------------------------*- C++ -*----------------------------------*\
| =========                 |                                                 |
| \\      /  F ield         | foam-extend: Open Source CFD                    |
|  \\    /   O peration     | Version:  3.0                                   |
|   \\  /    A nd           | Web:         http://www.extend-project.de       |
|    \\/     M anipulation  |                                                 |
\*---------------------------------------------------------------------------*/
FoamFile
{
    version     2.0;
    format      ascii;
    class       volSymmTensorField;
    location    "0.1";
    object      sigma;
}
// * * * * * * * * * * * * * * * * * * * * * * * * * * * * * * * * * * * * * //

dimensions      [0 0 0 0 0 0 0];

internalField   nonuniform List<symmTensor> 
400
(
(-1.51179e-07 -2.7054e-07 4.00754e-317 -1.6143e-06 4.33954e-317 1.76548e-06)
(-3.77336e-08 -4.04831e-07 2.26658e-317 -3.41924e-06 2.47235e-317 3.45697e-06)
(1.5006e-08 -3.71748e-07 2.16384e-317 -4.37348e-06 2.19037e-317 4.35847e-06)
(3.92095e-08 -3.24543e-07 1.35805e-317 -4.7864e-06 1.57664e-317 4.74719e-06)
(2.1728e-08 -2.7699e-07 1.77687e-317 -4.87145e-06 1.83871e-317 4.84972e-06)
(-6.93668e-09 -2.72602e-07 1.19442e-317 -4.75348e-06 1.44395e-317 4.76042e-06)
(-1.8005e-08 -2.94728e-07 1.70759e-317 -4.54727e-06 1.78992e-317 4.56527e-06)
(-3.23995e-09 -3.14792e-07 1.16476e-317 -4.31947e-06 1.42646e-317 4.32271e-06)
(3.20794e-08 -3.14242e-07 1.69488e-317 -4.09025e-06 1.78392e-317 4.05817e-06)
(7.82603e-08 -2.81644e-07 1.15984e-317 -3.85388e-06 1.42475e-317 3.77562e-06)
(1.27081e-07 -2.16029e-07 1.69441e-317 -3.58698e-06 1.78412e-317 3.4599e-06)
(1.67029e-07 -1.16269e-07 1.16339e-317 -3.26947e-06 1.42642e-317 3.10244e-06)
(1.90664e-07 5.07664e-09 1.70415e-317 -2.87356e-06 1.78804e-317 2.68289e-06)
(1.85095e-07 1.40741e-07 1.18551e-317 -2.39934e-06 1.43502e-317 2.21424e-06)
(1.47642e-07 2.59467e-07 1.753e-317 -1.83891e-06 1.80738e-317 1.69126e-06)
(7.48363e-08 3.47662e-07 1.29322e-317 -1.24918e-06 1.48076e-317 1.17435e-06)
(-1.54287e-08 3.62872e-07 1.99052e-317 -6.61845e-07 1.92184e-317 6.77274e-07)
(-9.91506e-08 3.12604e-07 1.81352e-317 -2.08556e-07 1.78397e-317 3.07706e-07)
(-1.33935e-07 1.85995e-07 3.08531e-317 7.85742e-08 2.75838e-317 5.5361e-08)
(-8.28153e-08 5.60103e-08 4.10265e-317 7.84304e-08 4.13992e-317 4.38491e-09)
(-2.81079e-07 -7.20017e-07 1.07276e-317 -4.13365e-06 1.15436e-317 4.41473e-06)
(-1.61374e-07 -1.20503e-06 1.06104e-317 -9.1601e-06 1.24664e-317 9.32147e-06)
(-1.22712e-07 -1.23424e-06 9.44747e-318 -1.18636e-05 1.00469e-317 1.19863e-05)
(-1.19981e-07 -1.20234e-06 7.43785e-318 -1.30008e-05 9.11663e-318 1.31208e-05)
(-1.77969e-07 -1.17127e-06 6.82436e-318 -1.31865e-05 7.76678e-318 1.33645e-05)
(-2.30845e-07 -1.24942e-06 5.76928e-318 -1.28239e-05 7.89506e-318 1.30548e-05)
(-2.21082e-07 -1.38282e-06 5.87535e-318 -1.22458e-05 7.17946e-318 1.24669e-05)
(-1.40513e-07 -1.48934e-06 5.26354e-318 -1.16343e-05 7.63081e-318 1.17748e-05)
(-6.04585e-09 -1.51285e-06 5.62091e-318 -1.10389e-05 7.06768e-318 1.10449e-05)
(1.57129e-07 -1.42118e-06 5.15147e-318 -1.04361e-05 7.59053e-318 1.02789e-05)
(3.28888e-07 -1.20672e-06 5.59911e-318 -9.75728e-06 7.06553e-318 9.42839e-06)
(4.8087e-07 -8.69098e-07 5.20988e-318 -8.93655e-06 7.6192e-318 8.45568e-06)
(5.91209e-07 -4.3765e-07 5.76436e-318 -7.89228e-06 7.13923e-318 7.30107e-06)
(6.22679e-07 5.59698e-08 5.55284e-318 -6.60528e-06 7.77983e-318 5.9826e-06)
(5.58551e-07 5.22803e-07 6.4223e-318 -5.05209e-06 7.47498e-318 4.49354e-06)
(3.82349e-07 8.96898e-07 6.75211e-318 -3.37e-06 8.46733e-318 2.98765e-06)
(1.33197e-07 1.04354e-06 8.46595e-318 -1.67537e-06 8.83424e-318 1.54217e-06)
(-1.20065e-07 9.55131e-07 9.85231e-318 -3.41385e-07 1.09532e-317 4.6145e-07)
(-2.56627e-07 5.93059e-07 1.20345e-317 4.56132e-07 1.25469e-317 -1.99505e-07)
(-1.64252e-07 1.84607e-07 1.11668e-317 3.53249e-07 1.3067e-317 -1.88997e-07)
(-6.92428e-07 -1.76008e-06 3.37877e-317 -1.02005e-05 3.11201e-317 1.08929e-05)
(-4.89585e-07 -2.98867e-06 1.80614e-317 -2.23054e-05 1.50872e-317 2.2795e-05)
(-5.40214e-07 -3.21204e-06 1.00418e-317 -2.84734e-05 8.45162e-318 2.90136e-05)
(-6.46261e-07 -3.36141e-06 6.00299e-318 -3.07702e-05 5.53599e-318 3.14164e-05)
(-8.32929e-07 -3.55523e-06 4.02882e-318 -3.08137e-05 4.23196e-318 3.16467e-05)
(-9.4229e-07 -4.0103e-06 2.97139e-318 -2.96807e-05 3.63201e-318 3.0623e-05)
(-8.61542e-07 -4.55097e-06 2.4969e-318 -2.81851e-05 3.37043e-318 2.90466e-05)
(-5.9918e-07 -4.9696e-06 2.20122e-318 -2.67295e-05 3.24639e-318 2.73287e-05)
(-2.0871e-07 -5.13675e-06 2.1191e-318 -2.53987e-05 3.20292e-318 2.56074e-05)
(2.50367e-07 -4.98095e-06 2.03386e-318 -2.41023e-05 3.18117e-318 2.38519e-05)
(7.3578e-07 -4.48882e-06 2.07962e-318 -2.26623e-05 3.19227e-318 2.19265e-05)
(1.18953e-06 -3.64763e-06 2.10132e-318 -2.08882e-05 3.21344e-318 1.96987e-05)
(1.56006e-06 -2.52168e-06 2.28462e-318 -1.8572e-05 3.28448e-318 1.7012e-05)
(1.75033e-06 -1.16463e-06 2.53722e-318 -1.56038e-05 3.42047e-318 1.38535e-05)
(1.69939e-06 2.00015e-07 3.146e-318 -1.19119e-05 3.72904e-318 1.02125e-05)
(1.33031e-06 1.40654e-06 4.2053e-318 -7.75058e-06 4.36727e-318 6.42027e-06)
(7.17352e-07 2.06421e-06 6.36138e-318 -3.4563e-06 5.74965e-318 2.73895e-06)
(6.82077e-09 2.10041e-06 1.04181e-317 2.29253e-08 8.72388e-318 -2.97461e-08)
(-4.56196e-07 1.35436e-06 1.85257e-317 2.02542e-06 1.53949e-317 -1.56923e-06)
(-3.44027e-07 4.15544e-07 3.40069e-317 1.39126e-06 3.12678e-317 -1.04723e-06)
(-1.65062e-06 -3.9924e-06 1.08821e-317 -2.33173e-05 1.09746e-317 2.49679e-05)
(-1.49207e-06 -6.948e-06 9.66822e-318 -5.03512e-05 9.14339e-318 5.18433e-05)
(-1.91348e-06 -7.88235e-06 6.79683e-318 -6.32841e-05 5.91939e-318 6.51976e-05)
(-2.35271e-06 -8.94175e-06 4.35664e-318 -6.73638e-05 3.74161e-318 6.97165e-05)
(-2.81699e-06 -1.01906e-05 2.7675e-318 -6.65308e-05 2.5325e-318 6.93478e-05)
(-2.957e-06 -1.19625e-05 1.82772e-318 -6.34424e-05 1.92188e-318 6.63994e-05)
(-2.59365e-06 -1.37579e-05 1.31347e-318 -5.9906e-05 1.62308e-318 6.24997e-05)
(-1.82209e-06 -1.51136e-05 1.0356e-318 -5.67284e-05 1.48736e-318 5.85505e-05)
(-7.85564e-07 -1.57697e-05 9.0419e-319 -5.39984e-05 1.42452e-318 5.4784e-05)
(3.85208e-07 -1.56103e-05 8.46784e-319 -5.14585e-05 1.40576e-318 5.10733e-05)
(1.62651e-06 -1.46059e-05 8.54709e-319 -4.86702e-05 1.40698e-318 4.70437e-05)
(2.8307e-06 -1.27273e-05 9.14041e-319 -4.51855e-05 1.43747e-318 4.23548e-05)
(3.90677e-06 -1.00485e-05 1.06591e-318 -4.04735e-05 1.50515e-318 3.65668e-05)
(4.6171e-06 -6.66426e-06 1.35484e-318 -3.42227e-05 1.65945e-318 2.96056e-05)
(4.78665e-06 -2.9991e-06 1.90403e-318 -2.61185e-05 1.97306e-318 2.13318e-05)
(4.14479e-06 5.19504e-07 2.87266e-318 -1.66622e-05 2.61534e-318 1.25174e-05)
(2.77176e-06 2.92602e-06 4.51196e-318 -6.51748e-06 3.85613e-318 3.74572e-06)
(9.4337e-07 3.85536e-06 6.98383e-318 1.91508e-06 6.0881e-318 -2.85845e-06)
(-4.95418e-07 2.6904e-06 9.88662e-318 6.7537e-06 9.3824e-318 -6.25828e-06)
(-5.96581e-07 8.73923e-07 1.10282e-317 4.46928e-06 1.13115e-317 -3.8727e-06)
(-3.74673e-06 -8.73247e-06 3.23288e-317 -5.20974e-05 2.93633e-317 5.58441e-05)
(-4.13472e-06 -1.58406e-05 1.68093e-317 -0.000109747 1.31954e-317 0.000113882)
(-5.83094e-06 -1.92972e-05 8.80357e-318 -0.000134943 6.4369e-318 0.000140774)
(-7.20063e-06 -2.34929e-05 4.73718e-318 -0.000140913 3.36242e-318 0.000148114)
(-8.13547e-06 -2.81879e-05 2.61631e-318 -0.000136978 1.90987e-318 0.000145114)
(-8.03583e-06 -3.372e-05 1.50128e-318 -0.000129219 1.21757e-318 0.000137255)
(-6.74459e-06 -3.88159e-05 9.17559e-319 -0.000121365 8.89298e-319 0.000128109)
(-4.63802e-06 -4.25534e-05 6.15566e-319 -0.000114823 7.36859e-319 0.000119461)
(-2.07305e-06 -4.45124e-05 4.68443e-319 -0.00010958 6.68807e-319 0.000111653)
(7.12535e-07 -4.45559e-05 4.08553e-319 -0.000104941 6.43896e-319 0.000104229)
(3.64703e-06 -4.26788e-05 4.11275e-319 -9.99654e-05 6.46045e-319 9.63184e-05)
(6.60262e-06 -3.87649e-05 4.75484e-319 -9.36082e-05 6.75511e-319 8.70056e-05)
(9.42941e-06 -3.28856e-05 6.31366e-319 -8.474e-05 7.4929e-319 7.53106e-05)
(1.16377e-05 -2.50365e-05 9.42386e-319 -7.23837e-05 9.10509e-319 6.0746e-05)
(1.27498e-05 -1.60135e-05 1.54157e-318 -5.57556e-05 1.25066e-318 4.30057e-05)
(1.19503e-05 -6.61232e-06 2.67509e-318 -3.53115e-05 1.95961e-318 2.33612e-05)
(9.17386e-06 8.46126e-07 4.8194e-318 -1.25989e-05 3.43106e-318 3.42504e-06)
(4.68523e-06 5.20913e-06 8.90276e-318 7.3415e-06 6.51278e-318 -1.20267e-05)
(5.45178e-07 4.44838e-06 1.6893e-317 1.89585e-05 1.32227e-317 -1.95037e-05)
(-8.40633e-07 1.58844e-06 3.23596e-317 1.27279e-05 2.92078e-317 -1.18873e-05)
(-8.34055e-06 -1.83653e-05 1.21215e-317 -0.000108763 1.19804e-317 0.000117104)
(-1.10203e-05 -3.5243e-05 1.02146e-317 -0.000224648 9.19374e-318 0.000235669)
(-1.58952e-05 -4.61314e-05 6.82685e-318 -0.000270581 5.3933e-318 0.000286476)
(-1.91379e-05 -5.98031e-05 4.09419e-318 -0.000277341 2.93445e-318 0.000296479)
(-2.04525e-05 -7.43377e-05 2.34295e-318 -0.000265459 1.59141e-318 0.000285912)
(-1.90143e-05 -8.95377e-05 1.32128e-318 -0.000247993 9.07816e-319 0.000267008)
(-1.50652e-05 -0.000102558 7.55817e-319 -0.00023195 5.7318e-319 0.000247015)
(-9.75115e-06 -0.000111821 4.54896e-319 -0.000219504 4.14437e-319 0.000229256)
(-3.84181e-06 -0.000116858 3.04764e-319 -0.000210153 3.42541e-319 0.000213995)
(2.27493e-06 -0.000117725 2.43308e-319 -0.000202329 3.15644e-319 0.000200054)
(8.67042e-06 -0.000114493 2.44548e-319 -0.000194092 3.17022e-319 0.000185422)
(1.52739e-05 -0.000106946 3.08593e-319 -0.000183393 3.46607e-319 0.000168119)
(2.20011e-05 -9.4839e-05 4.6291e-319 -0.000167827 4.21473e-319 0.000145826)
(2.78891e-05 -7.79108e-05 7.68697e-319 -0.0001452 5.84159e-319 0.000117311)
(3.18855e-05 -5.70533e-05 1.34046e-318 -0.000113212 9.23458e-319 8.13262e-05)
(3.18144e-05 -3.38258e-05 2.36882e-318 -7.2089e-05 1.61236e-318 4.02747e-05)
(2.68797e-05 -1.29082e-05 4.12615e-318 -2.40457e-05 2.96134e-318 -2.83402e-06)
(1.67914e-05 2.2108e-06 6.86231e-318 2.02201e-05 5.43185e-318 -3.70115e-05)
(5.76331e-06 5.53635e-06 1.02594e-317 4.74296e-05 9.27741e-318 -5.31929e-05)
(-2.64245e-07 2.92903e-06 1.21604e-317 3.27485e-05 1.22059e-317 -3.24843e-05)
(-1.73872e-05 -3.74366e-05 3.10524e-317 -0.000222786 2.8128e-317 0.000240174)
(-2.67065e-05 -7.76836e-05 1.61077e-317 -0.000444807 1.25085e-317 0.000471513)
(-3.9344e-05 -0.000109715 8.43654e-318 -0.000521091 5.99297e-318 0.000560435)
(-4.61352e-05 -0.000148358 4.5042e-318 -0.000522101 2.96225e-318 0.000568236)
(-4.64628e-05 -0.000187344 2.41635e-318 -0.000491487 1.49455e-318 0.000537949)
(-4.03321e-05 -0.000224635 1.30004e-318 -0.000454858 7.80357e-319 0.00049519)
(-2.95427e-05 -0.000254608 7.06608e-319 -0.000424254 4.36038e-319 0.000453796)
(-1.70166e-05 -0.000275208 3.96552e-319 -0.000402098 2.72981e-319 0.000419114)
(-4.27142e-06 -0.000286544 2.42537e-319 -0.000386621 1.99079e-319 0.000390893)
(8.30309e-06 -0.000289428 1.79287e-319 -0.000374435 1.70818e-319 0.000366132)
(2.12294e-05 -0.000284357 1.79736e-319 -0.000362037 1.71703e-319 0.000340807)
(3.49563e-05 -0.000270771 2.44231e-319 -0.000345486 2.01193e-319 0.00031053)
(4.96699e-05 -0.000247792 3.99996e-319 -0.000320489 2.77067e-319 0.000270819)
(6.39334e-05 -0.000213845 7.1268e-319 -0.000281877 4.42624e-319 0.000217944)
(7.54912e-05 -0.000169555 1.30987e-318 -0.000224836 7.90629e-319 0.000149345)
(7.92536e-05 -0.000116567 2.43134e-318 -0.000146592 1.51004e-318 6.73387e-05)
(7.21235e-05 -6.39156e-05 4.52598e-318 -5.09675e-05 2.98287e-318 -2.1156e-05)
(5.07582e-05 -1.97322e-05 8.46461e-318 4.42133e-05 6.01177e-318 -9.49715e-05)
(2.34841e-05 5.84761e-08 1.61245e-317 0.000106552 1.24828e-317 -0.000130036)
(2.7472e-06 4.23841e-06 3.10495e-317 7.81191e-05 2.79299e-317 -8.08663e-05)
(-3.55306e-05 -7.34519e-05 1.33737e-317 -0.000423499 1.30989e-317 0.000459029)
(-6.20756e-05 -0.000167214 1.08136e-317 -0.000822396 9.5665e-318 0.000884471)
(-8.93877e-05 -0.000252179 7.04151e-318 -0.000939072 5.40316e-318 0.00102846)
(-9.99174e-05 -0.000351824 4.13208e-318 -0.000921332 2.81341e-318 0.00102125)
(-9.36858e-05 -0.000446992 2.30864e-318 -0.000854751 1.42206e-318 0.000948437)
(-7.43055e-05 -0.000531065 1.25706e-318 -0.000785888 7.17843e-319 0.000860194)
(-4.7729e-05 -0.000594778 6.77739e-319 -0.000732822 3.73207e-319 0.000780551)
(-2.04147e-05 -0.000636935 3.70263e-319 -0.00069693 2.09005e-319 0.000717345)
(5.19281e-06 -0.000660106 2.16178e-319 -0.000673514 1.33926e-319 0.000668322)
(2.91045e-05 -0.000667344 1.52928e-319 -0.000656256 1.05251e-319 0.000627151)
(5.32584e-05 -0.000660106 1.52854e-319 -0.000639186 1.05448e-319 0.000585927)
(7.93556e-05 -0.000637592 2.16524e-319 -0.000615876 1.34667e-319 0.00053652)
(0.000108837 -0.000596804 3.70786e-319 -0.000578805 2.10037e-319 0.000469968)
(0.000139775 -0.00053372 6.78881e-319 -0.000518407 3.75189e-319 0.000378632)
(0.000168418 -0.000445521 1.25875e-318 -0.000423862 7.20802e-319 0.000255444)
(0.000183913 -0.000333402 2.31124e-318 -0.00028664 1.4251e-318 0.000102727)
(0.000177377 -0.000210471 4.13403e-318 -0.000108363 2.81546e-318 -6.90142e-05)
(0.000136617 -9.53526e-05 7.04118e-318 8.16876e-05 5.40868e-318 -0.000218305)
(7.41433e-05 -2.59603e-05 1.08181e-317 0.000217952 9.60951e-318 -0.000292096)
(1.43855e-05 6.60531e-06 1.3384e-317 0.000171302 1.33069e-317 -0.000185688)
(-6.66856e-05 -0.000141205 2.98221e-317 -0.000795441 2.69992e-317 0.000862126)
(-0.000132188 -0.000358042 1.55317e-317 -0.00147416 1.20594e-317 0.00160635)
(-0.000187053 -0.000570479 8.2063e-318 -0.00162766 5.82072e-318 0.00181471)
(-0.000198394 -0.000804328 4.41215e-318 -0.00155805 2.86093e-318 0.00175644)
(-0.000169995 -0.00101483 2.36838e-318 -0.00142579 1.4055e-318 0.00159578)
(-0.000118182 -0.00118767 1.26292e-318 -0.00130545 6.90363e-319 0.00142364)
(-5.8199e-05 -0.00131119 6.70299e-319 -0.00122059 3.43499e-319 0.00127879)
(-2.5188e-06 -0.0013896 3.59329e-319 -0.00116701 1.78768e-319 0.00116953)
(4.56461e-05 -0.00143214 2.04459e-319 -0.00113477 1.0366e-319 0.00108912)
(8.8249e-05 -0.00144684 1.40631e-319 -0.00111269 7.44606e-320 0.00102444)
(0.000130116 -0.0014376 1.403e-319 -0.0010919 7.41049e-320 0.000961783)
(0.00017635 -0.00140291 2.0355e-319 -0.00106234 1.02884e-319 0.00088599)
(0.000230853 -0.00133651 3.57842e-319 -0.00101304 1.77597e-319 0.000782189)
(0.000292933 -0.00122791 6.68407e-319 -0.000926125 3.42299e-319 0.000633192)
(0.000356516 -0.00106689 1.26028e-318 -0.000782815 6.89706e-319 0.000426299)
(0.000401685 -0.000847582 2.36692e-318 -0.000557215 1.40705e-318 0.00015553)
(0.000406585 -0.000585949 4.41478e-318 -0.000247529 2.86629e-318 -0.000159056)
(0.000334967 -0.000314818 8.21568e-318 0.000116742 5.82627e-318 -0.000451709)
(0.00020213 -0.00011571 1.5538e-317 0.000402545 1.20313e-317 -0.000604676)
(4.41737e-05 4.31616e-06 2.98194e-317 0.000353432 2.67974e-317 -0.000397606)
(-0.000123267 -0.000261248 1.45692e-317 -0.00137341 1.41648e-317 0.00149668)
(-0.000269557 -0.000745543 1.13294e-317 -0.00244579 9.90226e-318 0.00271535)
(-0.000359752 -0.00123645 7.21871e-318 -0.00262133 5.45514e-318 0.00298108)
(-0.000351458 -0.00174763 4.17761e-318 -0.00245911 2.7882e-318 0.00281057)
(-0.000263774 -0.00217985 2.30986e-318 -0.00223183 1.37954e-318 0.0024956)
(-0.000142169 -0.00250958 1.24415e-318 -0.00204673 6.7226e-319 0.0021889)
(-1.87493e-05 -0.00273198 6.60521e-319 -0.00192661 3.27378e-319 0.00194536)
(8.59356e-05 -0.00286677 3.51533e-319 -0.00185621 1.63378e-319 0.00177027)
(0.000170064 -0.00293849 1.96979e-319 -0.00181716 8.83241e-320 0.0016471)
(0.000240216 -0.00296503 1.33289e-319 -0.00179256 5.90952e-320 0.00155235)
(0.000307313 -0.00295462 1.32528e-319 -0.00177034 5.8196e-320 0.00146303)
(0.000382254 -0.00290585 1.9479e-319 -0.0017373 8.575e-320 0.00135505)
(0.000474828 -0.00280528 3.4721e-319 -0.00167815 1.59183e-319 0.00120332)
(0.000587602 -0.00263307 6.53846e-319 -0.00156584 3.21731e-319 0.000978236)
(0.000714398 -0.00235826 1.23506e-318 -0.00136728 6.64844e-319 0.000652881)
(0.000822071 -0.00196095 2.29885e-318 -0.00103068 1.37045e-318 0.000208605)
(0.000865232 -0.00144089 4.16515e-318 -0.000533539 2.77799e-318 -0.000331693)
(0.000756964 -0.000853656 7.20559e-318 0.000106404 5.44744e-318 -0.000863368)
(0.000496603 -0.000352064 1.13204e-317 0.000666568 9.92795e-318 -0.00116317)
(0.00012225 -1.36577e-06 1.45682e-317 0.000669871 1.43661e-317 -0.000792121)
(-0.000202358 -0.000487499 2.86571e-317 -0.00236107 2.59473e-317 0.00256342)
(-0.000505521 -0.00154642 1.50407e-317 -0.00393633 1.16959e-317 0.00444186)
(-0.000634669 -0.00261585 8.02747e-318 -0.0040658 5.69931e-318 0.00470047)
(-0.000557702 -0.00364308 4.34747e-318 -0.00373509 2.80326e-318 0.00429279)
(-0.000335383 -0.00445364 2.33887e-318 -0.0033803 1.36623e-318 0.00371569)
(-7.79238e-05 -0.00502821 1.24407e-318 -0.00312163 6.58461e-319 0.00319955)
(0.00015635 -0.00539284 6.55413e-319 -0.00297063 3.16108e-319 0.00281428)
(0.0003399 -0.00560326 3.45826e-319 -0.00288923 1.53714e-319 0.00254933)
(0.000477017 -0.00571213 1.91579e-319 -0.00284896 7.95545e-320 0.00237194)
(0.000585079 -0.00575368 1.27449e-319 -0.00282616 5.0123e-320 0.00224108)
(0.000684617 -0.00574371 1.26026e-319 -0.00280714 4.84086e-320 0.00212253)
(0.00079771 -0.00568043 1.86846e-319 -0.00277589 7.4762e-320 0.00197818)
(0.000942545 -0.00554193 3.37106e-319 -0.00271544 1.45858e-319 0.00177289)
(0.00113289 -0.00529073 6.41697e-319 -0.0025858 3.04755e-319 0.00145291)
(0.00136366 -0.00486331 1.22612e-318 -0.00234121 6.43856e-319 0.000977542)
(0.00159135 -0.00420047 2.3186e-318 -0.00187836 1.34972e-318 0.000287012)
(0.00172962 -0.00325605 4.32921e-318 -0.00114719 2.7898e-318 -0.000582428)
(0.00159144 -0.00208921 8.01982e-318 -8.01679e-05 5.69203e-318 -0.00151127)
(0.00112087 -0.000947275 1.50428e-317 0.000957191 1.16704e-317 -0.00207806)
(0.000284775 -5.12503e-05 2.8661e-317 0.00120006 2.57513e-317 -0.00148483)
(-0.000333828 -0.000881853 1.56707e-317 -0.00367654 1.51163e-317 0.00401037)
(-0.000897006 -0.00310217 1.17353e-317 -0.00578713 1.01176e-317 0.00668414)
(-0.0010014 -0.00527985 7.32735e-318 -0.00581432 5.44497e-318 0.00681572)
(-0.000729703 -0.00720862 4.18773e-318 -0.0052921 2.74198e-318 0.00602181)
(-0.000240975 -0.00862326 2.29494e-318 -0.00483138 1.33984e-318 0.00507236)
(0.00024943 -0.00954996 1.22586e-318 -0.00453284 6.43634e-319 0.00428341)
(0.000654504 -0.0101032 6.44854e-319 -0.00437892 3.06331e-319 0.00372442)
(0.000949256 -0.010405 3.38717e-319 -0.00430527 1.4649e-319 0.00335602)
(0.00115535 -0.0105563 1.85793e-319 -0.0042746 7.38381e-320 0.00311925)
(0.00130851 -0.0106151 1.21842e-319 -0.00426024 4.46932e-320 0.00295173)
(0.00144466 -0.0106075 1.19129e-319 -0.00424937 4.20252e-320 0.00280471)
(0.00160027 -0.0105337 1.77503e-319 -0.00422672 6.59973e-320 0.00262644)
(0.0018079 -0.0103578 3.23554e-319 -0.00417548 1.32988e-319 0.00236758)
(0.00209851 -0.010024 6.21747e-319 -0.00404821 2.85392e-319 0.0019497)
(0.00247894 -0.00940685 1.19374e-318 -0.00378395 6.14346e-319 0.00130501)
(0.00290267 -0.00838956 2.25443e-318 -0.00322418 1.30356e-318 0.000321507)
(0.00323086 -0.00678955 4.1433e-318 -0.00225539 2.70261e-318 -0.000975474)
(0.00311835 -0.00464432 7.2875e-318 -0.000656881 5.41335e-318 -0.00246147)
(0.00234574 -0.00225214 1.17113e-317 0.00110323 1.01264e-317 -0.00344897)
(0.000646088 -0.000173057 1.56654e-317 0.00194117 1.53155e-317 -0.00258726)
(-0.000453521 -0.00171126 2.75651e-317 -0.00574697 2.49401e-317 0.00620049)
(-0.00144743 -0.00619666 1.45929e-317 -0.00824141 1.13144e-317 0.00968885)
(-0.00138194 -0.010341 7.84685e-318 -0.00804968 5.52586e-318 0.00943162)
(-0.000693104 -0.013653 4.26036e-318 -0.0073146 2.70483e-318 0.00800771)
(0.000266347 -0.0158914 2.28604e-318 -0.00681621 1.30726e-318 0.00654986)
(0.00112109 -0.0172432 1.20815e-318 -0.00653813 6.24193e-319 0.00541704)
(0.00176586 -0.0179983 6.29978e-319 -0.00642602 2.95105e-319 0.00466016)
(0.00220475 -0.0183868 3.27981e-319 -0.00638445 1.39989e-319 0.0041797)
(0.00249172 -0.0185741 1.78027e-319 -0.00637636 6.90556e-320 0.00388465)
(0.00269382 -0.0186467 1.14737e-319 -0.00637706 4.01428e-320 0.00368324)
(0.00286523 -0.0186432 1.11204e-319 -0.00637943 3.65707e-320 0.0035142)
(0.00306381 -0.0185649 1.66169e-319 -0.00637195 5.78057e-320 0.00330814)
(0.00333588 -0.018365 3.06252e-319 -0.00634428 1.18857e-319 0.0030084)
(0.00374704 -0.0179626 5.94736e-319 -0.0062445 2.61203e-319 0.00249747)
(0.00431864 -0.0171607 1.1558e-318 -0.0060123 5.74628e-319 0.00169366)
(0.00503922 -0.0157388 2.21748e-318 -0.00541546 1.24439e-318 0.000376243)
(0.00570007 -0.0132806 4.18475e-318 -0.00428459 2.63772e-318 -0.00141548)
(0.00573707 -0.0096707 7.78596e-318 -0.00205682 5.47415e-318 -0.00368025)
(0.00459281 -0.00507343 1.45689e-317 0.000714652 1.12787e-317 -0.00530747)
(0.00131118 -0.000639787 2.75728e-317 0.00293988 2.4762e-317 -0.00425106)
(-0.000658085 -0.00326871 1.66185e-317 -0.00792535 1.58419e-317 0.00858344)
(-0.00209167 -0.0118927 1.19623e-317 -0.0105619 1.00794e-317 0.0126536)
(-0.00144073 -0.0192733 7.29951e-318 -0.0103013 5.26779e-318 0.011742)
(5.26696e-05 -0.0245448 4.10298e-318 -0.00960273 2.60362e-318 0.00955006)
(0.00172481 -0.027814 2.21706e-318 -0.00927773 1.25531e-318 0.00755291)
(0.00305992 -0.0296135 1.16807e-318 -0.00915274 5.96812e-319 0.00609283)
(0.00398485 -0.0305536 6.0486e-319 -0.00914895 2.81301e-319 0.0051641)
(0.00457548 -0.0310049 3.1218e-319 -0.00917041 1.3241e-319 0.00459492)
(0.00493938 -0.0312134 1.67078e-319 -0.00919691 6.411e-320 0.00425753)
(0.0051824 -0.0312933 1.05997e-319 -0.00921719 3.58247e-320 0.0040348)
(0.00537995 -0.0312942 1.01377e-319 -0.0092341 3.10372e-320 0.00385415)
(0.00560907 -0.031222 1.51471e-319 -0.00924462 4.87396e-320 0.00363555)
(0.0059324 -0.0310161 2.82097e-319 -0.00924743 1.02672e-319 0.00331502)
(0.00645302 -0.0305842 5.53838e-319 -0.00920069 2.306e-319 0.00274767)
(0.00722373 -0.0296304 1.08837e-318 -0.00905445 5.19787e-319 0.00183072)
(0.00830783 -0.0278321 2.10532e-318 -0.00854504 1.14946e-318 0.000237209)
(0.00944862 -0.024341 3.96638e-318 -0.00743344 2.47734e-318 -0.00201518)
(0.00987849 -0.0187606 7.16459e-318 -0.00475654 5.15381e-318 -0.00512195)
(0.00839832 -0.0105574 1.1876e-317 -0.000876045 1.00427e-317 -0.00752227)
(0.00267116 -0.0017672 1.65997e-317 0.00375595 1.60515e-317 -0.00642711)
(-0.000609762 -0.0070169 2.64694e-317 -0.0110879 2.37915e-317 0.0116976)
(-0.00250129 -0.0226227 1.40226e-317 -0.0131984 1.06694e-317 0.0156997)
(-0.000613025 -0.0346322 7.50767e-318 -0.0131288 5.13587e-318 0.0137418)
(0.00218884 -0.0421448 4.03399e-318 -0.0127899 2.47728e-318 0.0106011)
(0.00481736 -0.0463705 2.1331e-318 -0.0128986 1.18316e-318 0.00808126)
(0.00671953 -0.0484818 1.10799e-318 -0.013053 5.59934e-319 0.00633348)
(0.00792603 -0.0495054 5.67064e-319 -0.0132108 2.631e-319 0.00528474)
(0.00865416 -0.0499621 2.89068e-319 -0.0133129 1.23245e-319 0.00465878)
(0.00907549 -0.0501628 1.52933e-319 -0.0133779 5.8858e-320 0.00430238)
(0.00934464 -0.0502375 9.49298e-320 -0.0134171 3.19364e-320 0.00407246)
(0.00955161 -0.0502418 8.90059e-320 -0.0134463 2.5978e-320 0.00389471)
(0.00979455 -0.0501834 1.33166e-319 -0.013473 3.95055e-320 0.00367847)
(0.0101391 -0.0499995 2.50575e-319 -0.0135075 8.41591e-320 0.00336831)
(0.0107435 -0.0495911 4.99283e-319 -0.0135269 1.94267e-319 0.00278335)
(0.0116734 -0.0485961 9.96832e-319 -0.0135145 4.48918e-319 0.0018411)
(0.013163 -0.0465755 1.96632e-318 -0.0132122 1.02166e-318 4.92101e-05)
(0.0149006 -0.0421731 3.81448e-318 -0.0123871 2.2727e-318 -0.00251344)
(0.0160719 -0.0344208 7.2759e-318 -0.00955517 4.93758e-318 -0.00651677)
(0.0144682 -0.021132 1.3868e-317 -0.00470102 1.05539e-317 -0.00976722)
(0.00500752 -0.005089 2.64378e-317 0.00408618 2.36556e-317 -0.0090937)
(-0.00067393 -0.0145015 1.71797e-317 -0.0130665 1.59341e-317 0.0137404)
(-0.00164324 -0.040952 1.17043e-317 -0.015193 9.42387e-318 0.0168362)
(0.00253958 -0.0590034 6.8769e-318 -0.0163699 4.71936e-318 0.0138303)
(0.00712291 -0.0686758 3.74424e-318 -0.0171259 2.27558e-318 0.010003)
(0.010717 -0.0735877 1.96743e-318 -0.017946 1.08227e-318 0.00722901)
(0.0130803 -0.0757683 1.01064e-318 -0.0184703 5.10785e-319 0.00539007)
(0.0144596 -0.0767479 5.11313e-319 -0.0187969 2.3939e-319 0.00433728)
(0.0152494 -0.0771458 2.57512e-319 -0.018971 1.11837e-319 0.00372156)
(0.0156831 -0.0773111 1.34248e-319 -0.0190639 5.30429e-320 0.00338081)
(0.0159495 -0.0773699 8.1506e-320 -0.0191141 2.75936e-320 0.0031646)
(0.0161448 -0.0773752 7.49942e-320 -0.0191483 2.05334e-320 0.0030035)
(0.0163736 -0.0773376 1.1158e-319 -0.0191827 2.98811e-320 0.00280903)
(0.016698 -0.0771951 2.11836e-319 -0.0192349 6.43372e-320 0.00253687)
(0.0173096 -0.0768696 4.27564e-319 -0.0193083 1.52261e-319 0.00199866)
(0.018282 -0.0759492 8.67411e-319 -0.0194201 3.62713e-319 0.00113805)
(0.0200472 -0.0739728 1.73789e-318 -0.0194077 8.52293e-319 -0.000639554)
(0.0222894 -0.0689671 3.41223e-318 -0.0190928 1.95786e-318 -0.0031966)
(0.0245319 -0.059334 6.47354e-318 -0.0168241 4.36808e-318 -0.00770785)
(0.0232085 -0.0395593 1.13622e-317 -0.0117772 9.20697e-318 -0.0114313)
(0.00962059 -0.0124719 1.70353e-317 0.00184467 1.61762e-317 -0.0114653)
(0.000709272 -0.032227 2.48341e-317 -0.0163394 2.17169e-317 0.0156301)
(0.00214969 -0.0726263 1.27008e-317 -0.0186453 9.18143e-318 0.0164956)
(0.00955564 -0.0960332 6.54181e-318 -0.022077 4.25422e-318 0.0125214)
(0.0161419 -0.10658 3.38376e-318 -0.0244033 2.00534e-318 0.00826143)
(0.0204543 -0.111338 1.728e-318 -0.0259987 9.46067e-319 0.00554447)
(0.0230651 -0.113204 8.70736e-319 -0.0268568 4.44911e-319 0.00379173)
(0.0244485 -0.113974 4.34027e-319 -0.0272957 2.08263e-319 0.00284718)
(0.0252108 -0.114255 2.15768e-319 -0.0275072 9.72371e-320 0.00229641)
(0.025605 -0.114364 1.10898e-319 -0.027607 4.56467e-320 0.00200196)
(0.0258419 -0.1144 6.59923e-320 -0.0276569 2.28901e-320 0.001815)
(0.0260043 -0.114404 5.90655e-320 -0.0276872 1.55779e-320 0.00168299)
(0.0261981 -0.114386 8.7504e-320 -0.0277197 2.0484e-320 0.00152159)
(0.0264576 -0.114297 1.67177e-319 -0.0277709 4.45795e-320 0.00131334)
(0.0270094 -0.114084 3.42165e-319 -0.0278706 1.08764e-319 0.000861222)
(0.0278643 -0.113375 7.05629e-319 -0.0280542 2.68233e-319 0.000189857)
(0.0297296 -0.111749 1.44519e-318 -0.0283155 6.53669e-319 -0.00141409)
(0.0321749 -0.106947 2.93783e-318 -0.0285853 1.56771e-318 -0.00358959)
(0.0357251 -0.0967217 5.93463e-318 -0.0274796 3.70934e-318 -0.00824553)
(0.035167 -0.0711983 1.2099e-317 -0.0233194 8.73313e-318 -0.0118476)
(0.0171936 -0.0303383 2.45065e-317 -0.004197 2.1607e-317 -0.0129966)
(0.00328077 -0.065658 1.60003e-317 -0.0175238 1.39226e-317 0.014243)
(0.013314 -0.120812 9.81386e-318 -0.0259318 7.38095e-318 0.0126178)
(0.0238004 -0.147411 5.33756e-318 -0.0324218 3.48997e-318 0.00862137)
(0.0313844 -0.157008 2.73395e-318 -0.0361927 1.63479e-318 0.00480826)
(0.0354861 -0.160814 1.37072e-318 -0.0381102 7.66073e-319 0.00262404)
(0.0377954 -0.162082 6.78965e-319 -0.0390188 3.58489e-319 0.00122339)
(0.0389174 -0.162559 3.34028e-319 -0.0394219 1.67636e-319 0.000504494)
(0.0395231 -0.162708 1.64297e-319 -0.0396024 7.8176e-320 7.9296e-05)
(0.0398227 -0.162761 8.34082e-320 -0.0396801 3.62644e-320 -0.000142572)
(0.0400022 -0.162775 4.88236e-320 -0.0397167 1.75294e-320 -0.000285536)
(0.040118 -0.162778 4.26873e-320 -0.0397364 1.09633e-320 -0.000381641)
(0.0402579 -0.162774 6.23264e-320 -0.0397577 1.249e-320 -0.000500262)
(0.0404256 -0.162732 1.19208e-319 -0.0397895 2.68722e-320 -0.000636117)
(0.0408322 -0.162631 2.46223e-319 -0.0398684 6.77364e-320 -0.00096372)
(0.0414033 -0.162188 5.13349e-319 -0.0400154 1.74005e-319 -0.00138785)
(0.0429661 -0.161134 1.06741e-318 -0.0403539 4.40094e-319 -0.00261224)
(0.0449168 -0.157285 2.20946e-318 -0.04085 1.09909e-318 -0.0040668)
(0.0491557 -0.14832 4.51996e-318 -0.0411015 2.72164e-318 -0.00805423)
(0.0491412 -0.1196 8.81277e-318 -0.038685 6.59176e-318 -0.0104562)
(0.0313364 -0.0649117 1.52717e-317 -0.0196826 1.40007e-317 -0.0116538)
(0.0158844 -0.132866 1.9415e-317 -0.027936 1.60901e-317 0.0120516)
(0.0352585 -0.191817 8.58776e-318 -0.0427522 5.83469e-318 0.00749371)
(0.0463809 -0.212524 3.9118e-318 -0.0506827 2.52397e-318 0.00430179)
(0.0533702 -0.218628 1.86793e-318 -0.0548627 1.15129e-318 0.00149246)
(0.0562914 -0.220708 9.03503e-319 -0.05643 5.33186e-319 0.00013861)
(0.057895 -0.221316 4.38508e-319 -0.0571235 2.48283e-319 -0.000771453)
(0.0585822 -0.221521 2.12641e-319 -0.0573805 1.15592e-319 -0.00120166)
(0.0589644 -0.221573 1.0369e-319 -0.0574935 5.36407e-320 -0.00147099)
(0.0591424 -0.221587 5.20795e-320 -0.0575366 2.47181e-320 -0.00160581)
(0.0592534 -0.221589 2.9639e-320 -0.0575564 1.12943e-320 -0.00169705)
(0.0593177 -0.22159 2.54543e-320 -0.0575642 6.55131e-321 -0.0017535)
(0.0594005 -0.22159 3.66053e-320 -0.0575727 6.21041e-321 -0.00182776)
(0.0594705 -0.221578 7.0182e-320 -0.0575785 1.29989e-320 -0.00189195)
(0.05971 -0.221536 1.45379e-319 -0.0576172 3.36607e-320 -0.00209279)
(0.0599236 -0.221329 3.05683e-319 -0.0576597 9.02757e-320 -0.0022639)
(0.0609723 -0.220782 6.45008e-319 -0.057924 2.38406e-319 -0.00304827)
(0.0618711 -0.218564 1.37895e-318 -0.0582217 6.23348e-319 -0.00364937)
(0.0660646 -0.212802 3.04194e-318 -0.0595258 1.65025e-318 -0.00653875)
(0.0657864 -0.189869 7.27129e-318 -0.058593 4.63441e-318 -0.00719344)
(0.0519615 -0.132233 1.8218e-317 -0.0445891 1.53722e-317 -0.00737235)
(0.0510972 -0.246021 5.85284e-318 -0.0579563 6.86282e-318 0.00685905)
(0.0761574 -0.288165 3.15604e-318 -0.0782146 2.97572e-318 0.00205724)
(0.0805928 -0.297804 1.48955e-318 -0.081304 1.2616e-318 0.000711117)
(0.0827244 -0.300201 6.97211e-319 -0.0823314 5.55315e-319 -0.00039298)
(0.0833833 -0.300672 3.30327e-319 -0.0825702 2.50971e-319 -0.00081307)
(0.0838495 -0.300866 1.5779e-319 -0.0827074 1.14959e-319 -0.00114206)
(0.0840242 -0.300886 7.55476e-320 -0.082746 5.30182e-320 -0.00127813)
(0.0841441 -0.300897 3.66004e-320 -0.0827684 2.44958e-320 -0.0013757)
(0.0841956 -0.300891 1.80433e-320 -0.0827747 1.10621e-320 -0.00142089)
(0.084233 -0.300887 1.01926e-320 -0.0827781 5.1037e-321 -0.00145492)