/*--------------------------------*- C++ -*----------------------------------*\
| =========                 |                                                 |
| \\      /  F ield         | foam-extend: Open Source CFD                    |
|  \\    /   O peration     | Version:  3.0                                   |
|   \\  /    A nd           | Web:         http://www.extend-project.de       |
|    \\/     M anipulation  |                                                 |
\*---------------------------------------------------------------------------*/
FoamFile
{
    version     2.0;
    format      ascii;
    class       volScalarField;
    location    "0.1";
    object      Theta;
}
// * * * * * * * * * * * * * * * * * * * * * * * * * * * * * * * * * * * * * //

dimensions      [0 0 0 0 0 0 0];

internalField   nonuniform List<scalar> 
400
(
0.0982061
0.0988055
0.0990547
0.0991995
0.0992746
0.0993164
0.0993398
0.0993532
0.0993608
0.0993647
0.099366
0.0993645
0.0993595
0.0993487
0.0993276
0.0992876
0.0992133
0.0990677
0.0988162
0.0982128
0.099032
0.0992185
0.0993669
0.0994761
0.0995477
0.0995938
0.0996227
0.0996404
0.099651
0.0996567
0.0996586
0.0996567
0.0996501
0.0996363
0.0996112
0.0995681
0.099498
0.0993884
0.0992368
0.0990443
0.0991691
0.0993511
0.0994825
0.0995821
0.0996504
0.0996968
0.0997275
0.0997476
0.0997605
0.0997682
0.0997719
0.0997718
0.099767
0.0997552
0.0997326
0.0996933
0.0996293
0.0995297
0.0993926
0.0991979
0.0992058
0.0993855
0.0995092
0.099605
0.0996733
0.099722
0.0997562
0.0997798
0.0997961
0.0998071
0.0998143
0.099818
0.0998175
0.0998108
0.0997941
0.0997612
0.0997041
0.0996103
0.099477
0.0992707
0.0991661
0.0993321
0.0994482
0.0995426
0.0996142
0.0996689
0.0997096
0.0997396
0.0997616
0.0997783
0.0997913
0.0998018
0.0998094
0.0998126
0.0998075
0.0997871
0.099742
0.0996569
0.0995259
0.0993064
0.0990543
0.099187
0.0992915
0.0993868
0.0994681
0.0995355
0.0995889
0.09963
0.0996618
0.0996874
0.0997099
0.0997313
0.0997527
0.099773
0.0997886
0.0997917
0.0997703
0.0997038
0.0995814
0.0993475
0.0988354
0.0989095
0.0990014
0.0991057
0.0992098
0.0993027
0.0993791
0.0994392
0.0994864
0.0995258
0.0995624
0.0996003
0.0996428
0.0996906
0.0997413
0.099786
0.0998092
0.0997811
0.0996814
0.0994273
0.0984461
0.0984317
0.0985197
0.0986537
0.098806
0.0989463
0.0990621
0.0991525
0.0992231
0.099282
0.099338
0.0993989
0.0994716
0.0995606
0.0996664
0.0997803
0.0998827
0.0999291
0.0998816
0.0995996
0.0977857
0.0976517
0.0977673
0.097975
0.0982201
0.0984424
0.0986214
0.0987571
0.0988604
0.0989453
0.0990259
0.0991162
0.0992288
0.0993749
0.0995612
0.0997831
0.100018
0.100202
0.100266
0.0999561
0.0967124
0.0964417
0.0966603
0.0970223
0.0974302
0.0977834
0.0980558
0.0982546
0.0984004
0.0985168
0.0986263
0.0987505
0.0989111
0.0991294
0.0994243
0.0998023
0.100245
0.100666
0.100957
0.100649
0.0950287
0.0946452
0.0951181
0.0957675
0.0964381
0.0969838
0.0973839
0.0976633
0.09786
0.0980115
0.098151
0.0983105
0.0985224
0.0988233
0.0992509
0.0998368
0.100582
0.10139
0.102105
0.101906
0.0924944
0.092127
0.0931181
0.0942504
0.0953057
0.0961082
0.0966661
0.0970383
0.0972895
0.0974756
0.0976426
0.0978332
0.0980924
0.098475
0.0990463
0.0998796
0.101026
0.102414
0.103869
0.10405
0.0888303
0.0887983
0.0907271
0.0925925
0.0941569
0.0952663
0.0959969
0.0964633
0.0967653
0.0969804
0.0971673
0.0973792
0.0976717
0.0981196
0.0988196
0.0999084
0.101525
0.103709
0.106348
0.107473
0.0837903
0.0847889
0.0882168
0.0910743
0.0932259
0.0946473
0.095535
0.0960788
0.0964179
0.0966508
0.0968463
0.0970644
0.0973676
0.0978455
0.0986253
0.0999167
0.101993
0.105129
0.109468
0.112582
0.0772838
0.0805412
0.0861102
0.0901211
0.0928259
0.0944899
0.0954782
0.0960624
0.0964157
0.0966507
0.0968409
0.0970476
0.0973325
0.0977907
0.0985637
0.0999299
0.102311
0.106384
0.11284
0.119612
0.0696803
0.0772189
0.0853097
0.0903602
0.0933916
0.0951298
0.0961173
0.0966859
0.0970232
0.0972428
0.0974145
0.0975938
0.0978332
0.0982167
0.0988751
0.10011
0.102455
0.107093
0.115591
0.128358
0.0622949
0.0767084
0.0870043
0.0924969
0.0953947
0.0969502
0.0978066
0.0982965
0.098587
0.0987753
0.0989179
0.0990582
0.0992317
0.0994961
0.0999348
0.100801
0.1026
0.10696
0.116392
0.13767
0.0595274
0.0822923
0.0926936
0.0973967
0.0995314
0.100625
0.10123
0.101588
0.101809
0.101954
0.102063
0.102161
0.102263
0.102391
0.102555
0.102864
0.103593
0.106375
0.11392
0.144217
0.0654448
0.0962163
0.102942
0.105252
0.106039
0.106479
0.106771
0.106976
0.107118
0.107218
0.107292
0.107351
0.107391
0.107393
0.107291
0.10699
0.106313
0.106185
0.107528
0.144489
0.115233
0.122724
0.119684
0.118309
0.117703
0.117565
0.117597
0.117674
0.117748
0.117808
0.117852
0.117883
0.117885
0.117823
0.117585
0.116956
0.115378
0.112335
0.10424
0.116892
)
;

boundaryField
{
    cavity
    {
        type            implicitExtrapolation;
    }
    lid
    {
        type            implicitExtrapolation;
    }
    frontAndBack
    {
        type            empty;
    }
}


// ************************************************************************* //
