/*--------------------------------*- C++ -*----------------------------------*\
| =========                 |                                                 |
| \\      /  F ield         | foam-extend: Open Source CFD                    |
|  \\    /   O peration     | Version:  3.0                                   |
|   \\  /    A nd           | Web:         http://www.extend-project.de       |
|    \\/     M anipulation  |                                                 |
\*---------------------------------------------------------------------------*/
FoamFile
{
    version     2.0;
    format      ascii;
    class       volVectorField;
    location    "0.1";
    object      u;
}
// * * * * * * * * * * * * * * * * * * * * * * * * * * * * * * * * * * * * * //

dimensions      [0 0 0 0 0 0 0];

internalField   nonuniform List<vector> 
400
(
(1.1973e-06 5.24215e-06 4.57639e-317)
(1.11949e-06 7.34541e-06 6.32292e-317)
(1.01257e-06 8.35735e-06 -1.59274e-318)
(7.01491e-07 8.77292e-06 5.15273e-317)
(4.04287e-07 8.71187e-06 -6.03232e-318)
(2.33181e-07 8.36462e-06 4.99778e-317)
(1.91047e-07 7.91768e-06 -6.60558e-318)
(1.64794e-07 7.47422e-06 4.97519e-317)
(1.23798e-07 7.03892e-06 -6.70668e-318)
(2.67746e-09 6.61742e-06 4.96956e-317)
(-1.70197e-07 6.12392e-06 -6.75844e-318)
(-4.44217e-07 5.58158e-06 4.9611e-317)
(-7.19363e-07 4.84759e-06 -6.93075e-318)
(-1.05827e-06 4.05267e-06 4.9239e-317)
(-1.26365e-06 2.99214e-06 -7.77133e-318)
(-1.44369e-06 2.01461e-06 4.7305e-317)
(-1.31807e-06 8.48518e-07 -1.22576e-317)
(-1.11997e-06 1.32647e-07 3.69975e-317)
(-5.99597e-07 -5.28267e-07 -3.68851e-317)
(-2.01551e-07 -3.72861e-07 -3.89941e-318)
(1.58778e-06 1.23418e-05 -7.94439e-318)
(1.40181e-06 1.58353e-05 6.16097e-318)
(1.34684e-06 1.7359e-05 1.15171e-317)
(1.05655e-06 1.78414e-05 8.03692e-318)
(7.96762e-07 1.74928e-05 1.06349e-317)
(7.29983e-07 1.66524e-05 6.99236e-318)
(8.12714e-07 1.56855e-05 9.93217e-318)
(8.77066e-07 1.47567e-05 6.58339e-318)
(8.81611e-07 1.38863e-05 9.70485e-318)
(7.27403e-07 1.30453e-05 6.44766e-318)
(4.75576e-07 1.20997e-05 9.59632e-318)
(2.66619e-08 1.10264e-05 6.31848e-318)
(-4.34818e-07 9.61875e-06 9.37786e-318)
(-1.05734e-06 8.00698e-06 5.91191e-318)
(-1.4718e-06 5.92224e-06 8.61815e-318)
(-1.91578e-06 3.86628e-06 4.55822e-318)
(-1.83775e-06 1.4922e-06 6.46914e-318)
(-1.66636e-06 -7.46275e-08 2.03525e-318)
(-8.9255e-07 -1.47282e-06 6.3072e-318)
(-2.67979e-07 -1.03117e-06 2.12077e-317)
(3.90499e-06 3.17718e-05 6.65839e-317)
(3.18652e-06 3.99328e-05 2.6959e-317)
(2.94518e-06 4.29239e-05 1.34946e-317)
(2.41241e-06 4.35391e-05 8.04328e-318)
(2.05461e-06 4.20965e-05 5.39361e-318)
(2.23742e-06 3.96805e-05 4.47341e-318)
(2.72574e-06 3.71165e-05 3.74563e-318)
(3.1308e-06 3.48167e-05 3.68402e-318)
(3.30725e-06 3.2721e-05 3.35665e-318)
(3.07636e-06 3.07897e-05 3.47429e-318)
(2.51479e-06 2.857e-05 3.20393e-318)
(1.46874e-06 2.61294e-05 3.30885e-318)
(2.42186e-07 2.2713e-05 2.94114e-318)
(-1.39308e-06 1.89245e-05 2.80764e-318)
(-2.70377e-06 1.36049e-05 1.9462e-318)
(-4.09759e-06 8.56058e-06 7.84789e-319)
(-4.23623e-06 2.16131e-06 -2.27705e-318)
(-4.10501e-06 -1.82082e-06 -8.39542e-318)
(-2.16367e-06 -5.79864e-06 -2.28678e-317)
(-6.47261e-07 -4.3587e-06 -6.32525e-317)
(8.7164e-06 7.73774e-05 -1.27949e-317)
(6.88639e-06 9.50621e-05 4.90945e-318)
(6.70131e-06 9.91564e-05 5.79994e-318)
(6.07076e-06 9.83579e-05 4.47718e-318)
(6.05601e-06 9.32772e-05 3.22369e-318)
(7.32238e-06 8.67027e-05 2.38929e-318)
(9.06188e-06 8.04494e-05 1.92369e-318)
(1.04314e-05 7.51788e-05 1.65132e-318)
(1.11533e-05 7.07442e-05 1.51912e-318)
(1.08017e-05 6.67459e-05 1.41803e-318)
(9.69617e-06 6.23927e-05 1.35213e-318)
(7.26491e-06 5.73321e-05 1.24344e-318)
(4.46289e-06 5.041e-05 1.08908e-318)
(2.94165e-07 4.19392e-05 7.82047e-319)
(-3.06564e-06 3.03495e-05 2.55852e-319)
(-7.1875e-06 1.79707e-05 -6.79459e-319)
(-8.17807e-06 2.84893e-06 -2.07445e-318)
(-8.78523e-06 -8.13888e-06 -3.57877e-318)
(-4.67768e-06 -1.84568e-05 -2.95589e-318)
(-1.13028e-06 -1.51804e-05 1.36542e-317)
(1.81998e-05 0.000170294 6.73936e-317)
(1.3531e-05 0.00020658 2.47889e-317)
(1.34548e-05 0.000211002 1.13265e-317)
(1.42373e-05 0.000205962 5.58379e-318)
(1.65416e-05 0.000191841 3.02454e-318)
(2.15574e-05 0.000176197 1.80339e-318)
(2.69639e-05 0.000162189 1.20004e-318)
(3.11689e-05 0.000151156 8.92243e-319)
(3.34905e-05 0.000142191 7.29592e-319)
(3.34049e-05 0.000134542 6.32206e-319)
(3.12127e-05 0.000126053 5.51412e-319)
(2.62642e-05 0.000116481 4.51418e-319)
(1.96091e-05 0.000102354 2.7435e-319)
(1.00615e-05 8.55006e-05 -5.47622e-320)
(8.32566e-07 6.02051e-05 -6.96633e-319)
(-1.00956e-05 3.39002e-05 -1.98773e-318)
(-1.50182e-05 -1.66756e-06 -4.67235e-318)
(-1.89699e-05 -2.68742e-05 -1.06427e-317)
(-1.03964e-05 -5.35758e-05 -2.45161e-317)
(-3.22036e-06 -4.59452e-05 -6.7015e-317)
(3.66253e-05 0.00038916 -1.39323e-317)
(2.77542e-05 0.000458458 5.42533e-318)
(3.10246e-05 0.000451721 5.65144e-318)
(3.71227e-05 0.000428823 3.87958e-318)
(4.67658e-05 0.000390617 2.35916e-318)
(6.14689e-05 0.000353303 1.40362e-318)
(7.53891e-05 0.000322822 8.5922e-319)
(8.582e-05 0.000300019 5.63423e-319)
(9.1753e-05 0.000283027 4.01764e-319)
(9.21884e-05 0.000268887 2.99918e-319)
(8.84316e-05 0.000254329 2.17004e-319)
(7.81468e-05 0.000236691 1.1573e-319)
(6.47089e-05 0.000211605 -5.33541e-320)
(4.31899e-05 0.000177621 -3.60278e-319)
(2.25863e-05 0.000128578 -9.13641e-319)
(-5.1233e-06 6.9361e-05 -1.8854e-318)
(-1.95652e-05 -6.96394e-06 -3.40882e-318)
(-3.4613e-05 -7.26428e-05 -5.15313e-318)
(-1.99511e-05 -0.000138392 -4.81666e-318)
(-6.04249e-06 -0.000128407 1.41202e-317)
(6.67898e-05 0.000781096 6.83393e-317)
(4.86566e-05 0.000903903 2.36755e-317)
(5.95409e-05 0.000868204 1.05689e-317)
(8.6026e-05 0.000808076 5.04986e-318)
(0.000118436 0.00072101 2.56654e-318)
(0.000158542 0.000644163 1.35815e-318)
(0.000193163 0.000584226 7.47615e-319)
(0.000218418 0.000542122 4.3252e-319)
(0.000232869 0.000511773 2.60506e-319)
(0.000236313 0.000487988 1.58037e-319)
(0.00022991 0.000463029 7.63529e-320)
(0.000211795 0.000433855 -2.90066e-320)
(0.000183636 0.000388607 -2.00704e-319)
(0.0001407 0.00032898 -5.22504e-319)
(9.15755e-05 0.00023372 -1.14595e-318)
(2.83102e-05 0.000121192 -2.37598e-318)
(-1.66893e-05 -4.03322e-05 -4.90943e-318)
(-6.35929e-05 -0.00017891 -1.05553e-317)
(-4.13111e-05 -0.000335847 -2.39585e-317)
(-2.14399e-05 -0.00032464 -6.84395e-317)
(0.000117652 0.00167831 -1.48801e-317)
(9.88514e-05 0.00187017 6.33491e-318)
(0.000142181 0.00172176 6.02362e-318)
(0.00021928 0.00154849 3.92301e-318)
(0.000303584 0.00134913 2.26014e-318)
(0.000396124 0.00118674 1.24751e-318)
(0.000469945 0.00107103 6.76771e-319)
(0.000522004 0.000993014 3.67279e-319)
(0.000551676 0.000941903 1.99869e-319)
(0.00055955 0.000902903 9.62934e-320)
(0.000550264 0.000866102 1.17094e-320)
(0.000516993 0.000818864 -8.78646e-320)
(0.000467237 0.000749905 -2.5974e-319)
(0.000382438 0.000642723 -5.67148e-319)
(0.000286974 0.000481312 -1.13433e-318)
(0.000148341 0.000252162 -2.14678e-318)
(4.35522e-05 -5.74514e-05 -3.78651e-318)
(-8.3666e-05 -0.000388793 -5.813e-318)
(-6.56563e-05 -0.000744574 -5.91337e-318)
(-4.67183e-05 -0.000786564 1.51409e-317)
(0.000169258 0.00307233 6.92196e-317)
(0.00015405 0.00333642 2.26743e-317)
(0.00026709 0.00297658 1.00822e-317)
(0.000483773 0.00261299 4.83691e-318)
(0.000696163 0.00222596 2.45281e-318)
(0.00090458 0.00193597 1.26771e-318)
(0.00106156 0.00173742 6.6023e-319)
(0.00116784 0.00161145 3.44922e-319)
(0.00122831 0.00153147 1.74153e-319)
(0.00124956 0.00147417 6.75832e-320)
(0.00123637 0.00141913 -1.74158e-320)
(0.00118638 0.00135135 -1.1782e-319)
(0.00109457 0.00124246 -2.87941e-319)
(0.00094833 0.00107811 -6.05428e-319)
(0.000749403 0.000802365 -1.2144e-318)
(0.00047574 0.000416787 -2.40256e-318)
(0.000212393 -0.000164533 -4.81438e-318)
(-0.000100433 -0.000797304 -1.01563e-317)
(-0.000125201 -0.0015604 -2.30396e-317)
(-0.000159244 -0.00173457 -6.95405e-317)
(0.000236546 0.00623137 -1.56887e-317)
(0.000339137 0.0064367 7.32726e-318)
(0.000653419 0.00547413 6.44332e-318)
(0.00115226 0.00461262 4.04684e-318)
(0.00159935 0.00384561 2.27748e-318)
(0.00200453 0.00330121 1.22273e-318)
(0.00228987 0.00296418 6.42122e-319)
(0.00247678 0.00275647 3.26622e-319)
(0.002581 0.00263825 1.60448e-319)
(0.00261795 0.00255558 5.73907e-320)
(0.00260237 0.00248751 -2.66795e-320)
(0.00252177 0.00239222 -1.29663e-319)
(0.00238063 0.00225413 -2.939e-319)
(0.00212945 0.00199346 -6.04336e-319)
(0.0017938 0.00159446 -1.1774e-318)
(0.0012761 0.000891672 -2.21545e-318)
(0.000757232 -8.6752e-05 -3.96011e-318)
(6.00623e-05 -0.00145219 -6.26779e-318)
(-0.000124893 -0.00301223 -6.91505e-318)
(-0.000343206 -0.00374732 1.61174e-317)
(9.71577e-05 0.0103705 7.00125e-317)
(0.000478941 0.0103025 2.17361e-317)
(0.0012116 0.00842469 9.7196e-318)
(0.00236443 0.0068895 4.72559e-318)
(0.00331806 0.00561635 2.41364e-318)
(0.0041012 0.00478038 1.24945e-318)
(0.0046312 0.00428367 6.41371e-319)
(0.00495878 0.00399537 3.20658e-319)
(0.00514144 0.00383648 1.53032e-319)
(0.00521495 0.00373219 4.78305e-320)
(0.00519799 0.00364511 -2.84434e-320)
(0.00509756 0.00352844 -1.31204e-319)
(0.00486896 0.00334154 -2.96914e-319)
(0.00450078 0.00299791 -6.03758e-319)
(0.00388787 0.00241169 -1.19936e-318)
(0.00301032 0.00138079 -2.34842e-318)
(0.00189853 -0.000214248 -4.65562e-318)
(0.000453508 -0.00253458 -9.72179e-318)
(-0.000191863 -0.00547532 -2.20337e-317)
(-0.000996335 -0.00731381 -7.04762e-317)
(-9.17178e-05 0.0199271 -1.63247e-317)
(0.00126894 0.0184182 8.37466e-318)
(0.00292913 0.0143158 6.86854e-318)
(0.00516138 0.0111674 4.19858e-318)
(0.00684969 0.0089945 2.31819e-318)
(0.00814646 0.00761268 1.22513e-318)
(0.00896965 0.00688872 6.34064e-319)
(0.00946182 0.00647374 3.14829e-319)
(0.00972833 0.00627379 1.47385e-319)
(0.00983403 0.00614422 5.0202e-320)
(0.00981957 0.00605914 -3.14028e-320)
(0.00967934 0.00592027 -1.25512e-319)
(0.00937632 0.00573762 -2.85348e-319)
(0.00883546 0.00526576 -5.81797e-319)
(0.00794533 0.00457854 -1.15263e-318)
(0.00653183 0.00292306 -2.19439e-318)
(0.00465709 0.000643592 -4.00996e-318)
(0.00194897 -0.00381695 -6.57451e-318)
(0.000286365 -0.00912349 -7.84011e-318)
(-0.00189736 -0.0142761 1.69765e-317)
(-0.00173727 0.0298832 7.08359e-317)
(0.00176237 0.0259503 2.09887e-317)
(0.00535056 0.0192198 9.52289e-318)
(0.00977757 0.014446 4.69689e-318)
(0.0129294 0.0114246 2.41224e-318)
(0.0150873 0.00964196 1.2401e-318)
(0.0164277 0.00875854 6.30813e-319)
(0.0171654 0.00828022 3.15283e-319)
(0.0175689 0.00805995 1.44183e-319)
(0.017738 0.00792497 4.52712e-320)
(0.0177309 0.00783669 -2.68673e-320)
(0.0175958 0.00769638 -1.1987e-319)
(0.017168 0.0074959 -2.70639e-319)
(0.0165218 0.00697671 -5.60018e-319)
(0.0151014 0.0061525 -1.12174e-318)
(0.0130992 0.00409028 -2.22175e-318)
(0.00961131 0.000999442 -4.40697e-318)
(0.00484457 -0.0055965 -9.20101e-318)
(0.000798644 -0.014128 -2.09363e-317)
(-0.00468987 -0.0246853 -7.1252e-317)
(-0.00283572 0.0544829 -1.65358e-317)
(0.00546558 0.0421337 9.65708e-318)
(0.0122859 0.0297571 7.38901e-318)
(0.0194513 0.0212588 4.37527e-318)
(0.0241078 0.0169875 2.36489e-318)
(0.0270947 0.0144802 1.22507e-318)
(0.0288419 0.0134438 6.2272e-319)
(0.0297703 0.0128734 3.06978e-319)
(0.0302632 0.0126571 1.39653e-319)
(0.0304652 0.0125219 4.39521e-320)
(0.0304664 0.0124677 -2.65214e-320)
(0.0303092 0.0123351 -1.103e-319)
(0.0298271 0.012227 -2.48243e-319)
(0.0290504 0.0116364 -5.15518e-319)
(0.0273082 0.0109835 -1.03811e-318)
(0.024679 0.00815716 -2.03079e-318)
(0.0197044 0.00473993 -3.82953e-318)
(0.0123523 -0.00634556 -6.56638e-318)
(0.00436931 -0.0193785 -8.50013e-318)
(-0.00717419 -0.0437922 1.77278e-317)
(-0.0102244 0.071824 7.22062e-317)
(0.00801239 0.050006 2.08173e-317)
(0.0218699 0.0334075 9.60752e-318)
(0.0340034 0.02281 4.75764e-318)
(0.0416487 0.0181506 2.41781e-318)
(0.0458154 0.0155781 1.21761e-318)
(0.0482726 0.0146332 6.0489e-319)
(0.0494247 0.0141296 2.94349e-319)
(0.0500594 0.0139616 1.34603e-319)
(0.0503202 0.0138575 4.48365e-320)
(0.0503364 0.0138239 -1.61806e-320)
(0.0502494 0.0137224 -9.10217e-320)
(0.0496648 0.0136561 -2.20645e-319)
(0.0490094 0.0131451 -4.57781e-319)
(0.0466107 0.0126354 -9.44155e-319)
(0.0437811 0.00979084 -1.91223e-318)
(0.0357417 0.00641906 -3.88907e-318)
(0.0251779 -0.0072962 -8.31813e-318)
(0.00878517 -0.0239276 -1.94289e-317)
(-0.0150068 -0.0660852 -7.17723e-317)
(-0.00819301 0.123454 -1.51857e-317)
(0.0245198 0.0696571 1.17282e-317)
(0.0459935 0.0451601 8.12588e-318)
(0.061449 0.0295605 4.55014e-318)
(0.0703978 0.0248584 2.35279e-318)
(0.0748829 0.0221216 1.17667e-318)
(0.0774242 0.0214403 5.77795e-319)
(0.0785599 0.0210296 2.71736e-319)
(0.0791806 0.0209513 1.26555e-319)
(0.079429 0.0208889 4.26181e-320)
(0.0794472 0.0209098 -1.27024e-320)
(0.0793803 0.0208517 -7.33687e-320)
(0.0788313 0.0209502 -1.83694e-319)
(0.0783014 0.0205325 -3.86468e-319)
(0.0759053 0.0206706 -7.9634e-319)
(0.0733678 0.017627 -1.61176e-318)
(0.0640501 0.0160205 -3.16539e-318)
(0.0520573 -0.00316948 -5.77842e-318)
(0.0261164 -0.0218024 -8.20821e-318)
(-0.0131645 -0.106051 1.86753e-317)
(-0.0240153 0.132722 7.66086e-317)
(0.0373661 0.061705 2.19765e-317)
(0.0783296 0.0380761 9.95964e-318)
(0.0992779 0.0236887 4.73618e-318)
(0.111793 0.0206142 2.29339e-318)
(0.116501 0.0186901 1.10385e-318)
(0.119405 0.0184561 5.29624e-319)
(0.120443 0.0182444 2.53989e-319)
(0.121079 0.0182584 1.16194e-319)
(0.121322 0.0182416 4.25983e-320)
(0.121347 0.0182821 -4.10569e-321)
(0.121414 0.0182611 -5.19164e-320)
(0.12086 0.0184001 -1.40384e-319)
(0.120878 0.018157 -2.95891e-319)
(0.118134 0.0186362 -6.21184e-319)
(0.117234 0.0164195 -1.29657e-318)
(0.10446 0.0168471 -2.7526e-318)
(0.0932927 -0.0013487 -6.34776e-318)
(0.0464631 -0.0147862 -1.63102e-317)
(-0.0188242 -0.131918 -7.12193e-317)
(0.026981 0.207805 -7.25929e-318)
(0.100246 0.0581811 1.51949e-317)
(0.144856 0.0375346 8.72255e-318)
(0.160885 0.024385 4.36638e-318)
(0.170592 0.0246055 2.08439e-318)
(0.173373 0.0240305 9.83719e-319)
(0.17538 0.0244514 4.67124e-319)
(0.175959 0.0245127 2.12354e-319)
(0.176394 0.024628 9.66195e-320)
(0.176547 0.0246599 3.54887e-320)
(0.176551 0.0247261 1.80828e-321)
(0.176654 0.0247478 -3.29048e-320)
(0.17622 0.0249796 -8.94308e-320)
(0.176627 0.0249557 -1.97839e-319)
(0.174521 0.0261071 -4.10257e-319)
(0.175892 0.0249715 -8.38691e-319)
(0.165033 0.0297321 -1.69922e-318)
(0.16306 0.0125979 -3.26707e-318)
(0.10864 0.015061 -4.84288e-318)
(0.0429527 -0.183727 2.20266e-317)
(0.0619365 0.128557 9.21678e-317)
(0.166211 0.0198931 2.37455e-317)
(0.243246 0.0148206 9.40267e-318)
(0.253723 0.00935235 3.97793e-318)
(0.263349 0.0112613 1.77515e-318)
(0.264081 0.0111905 8.06735e-319)
(0.265659 0.0116388 3.69156e-319)
(0.265847 0.0116795 1.68555e-319)
(0.266194 0.0117657 7.2262e-320)
(0.266306 0.0117818 2.88238e-320)
(0.266318 0.0118262 3.14226e-321)
(0.266543 0.0118417 -1.65463e-320)
(0.266209 0.0120075 -4.33444e-320)
(0.267318 0.0120104 -9.58636e-320)
(0.265552 0.0129477 -1.89993e-319)
(0.270636 0.0124562 -3.76152e-319)
(0.259435 0.0177447 -7.88499e-319)
(0.273204 0.00810308 -2.27904e-318)
(0.187032 0.0290449 -8.449e-318)
(0.128536 -0.143182 -6.42926e-317)
(0.278916 0.127871 3.766e-317)
(0.227022 -0.0371536 1.87791e-317)
(0.221447 -0.0130299 7.854e-318)
(0.203107 0.00107281 3.33537e-318)
(0.202625 0.0063113 1.45075e-318)
(0.199803 0.0081296 6.4397e-319)
(0.20013 0.00879931 2.88524e-319)
(0.199818 0.00904077 1.30018e-319)
(0.199977 0.00914339 5.76328e-320)
(0.200011 0.00918595 2.85669e-320)
(0.199999 0.00921524 6.26969e-321)
(0.200243 0.00923775 -2.91499e-321)
(0.199976 0.00932134 -7.89023e-321)
(0.201386 0.00943505 -2.17389e-321)
(0.200261 0.0100868 4.44659e-320)
(0.208193 0.0110763 1.93926e-319)
(0.20299 0.0172702 6.58333e-319)
(0.246072 0.0252576 2.14522e-318)
(0.211143 0.0773054 7.24224e-318)
(0.416624 -0.106366 4.07572e-317)
)
;

boundaryField
{
    cavity
    {
        type            myImplicitVelocity;
    }
    lid
    {
        type            fixedValue;
        value           uniform (1 0 0);
    }
    frontAndBack
    {
        type            empty;
    }
}


// ************************************************************************* //
