/*--------------------------------*- C++ -*----------------------------------*\
| =========                 |                                                 |
| \\      /  F ield         | foam-extend: Open Source CFD                    |
|  \\    /   O peration     | Version:  3.0                                   |
|   \\  /    A nd           | Web:         http://www.extend-project.de       |
|    \\/     M anipulation  |                                                 |
\*---------------------------------------------------------------------------*/
FoamFile
{
    version     2.0;
    format      ascii;
    class       volSymmTensorField;
    location    "19";
    object      sigma;
}
// * * * * * * * * * * * * * * * * * * * * * * * * * * * * * * * * * * * * * //

dimensions      [0 0 0 0 0 0 0];

internalField   nonuniform List<symmTensor> 
224
(
(-0.150176 -0.0181357 -9.5474e-20 0.150203 6.83889e-20 -2.7501e-05)
(-0.123421 -0.0192579 -1.55675e-19 0.123484 1.83472e-19 -6.28411e-05)
(-0.0932708 -0.0169173 -1.31437e-21 0.0933592 1.49595e-19 -8.83892e-05)
(-0.0661266 -0.0139944 1.57351e-19 0.0662298 -6.15219e-19 -0.000103175)
(-0.0431376 -0.0112333 2.0434e-19 0.0432416 -2.39318e-19 -0.000103991)
(-0.0256686 -0.00924313 1.14939e-20 0.0257537 -5.42491e-19 -8.51194e-05)
(-0.0136863 -0.00791459 -7.84562e-20 0.0137247 1.03207e-21 -3.8364e-05)
(-0.13953 -0.0522331 -4.90648e-20 0.139556 1.48279e-19 -2.62937e-05)
(-0.108331 -0.0538928 -2.36175e-20 0.108391 2.6416e-19 -6.00824e-05)
(-0.0784262 -0.0466807 -3.20394e-19 0.0785107 -1.71185e-20 -8.45064e-05)
(-0.052692 -0.0381321 -1.27885e-18 0.0527906 -1.73324e-19 -9.86371e-05)
(-0.0313131 -0.0301715 3.5512e-19 0.0314125 -3.16319e-19 -9.94077e-05)
(-0.0149099 -0.0243922 5.80896e-19 0.0149913 -1.63037e-18 -8.13556e-05)
(-0.00360466 -0.0205168 -5.32521e-20 0.00364132 -6.93412e-19 -3.66583e-05)
(-0.120291 -0.0803854 1.44322e-20 0.120315 3.06919e-20 -2.40729e-05)
(-0.0822191 -0.0780984 1.00906e-19 0.0822741 1.04847e-19 -5.50084e-05)
(-0.0531038 -0.0655548 9.15779e-20 0.0531811 -1.67923e-19 -7.73674e-05)
(-0.0300121 -0.0520056 -6.27349e-19 0.0301024 1.32494e-19 -9.02982e-05)
(-0.0115473 -0.0397388 -1.0861e-18 0.0116383 -1.06748e-18 -9.09933e-05)
(0.00289734 -0.0307118 -3.41027e-18 -0.00282289 -1.08943e-18 -7.44555e-05)
(0.0129466 -0.0246143 -3.49161e-19 -0.0129131 6.22734e-19 -3.35388e-05)
(-0.0959288 -0.100379 5.26241e-20 0.0959497 -3.95287e-20 -2.09263e-05)
(-0.0518875 -0.0885426 6.98118e-20 0.0519353 -4.98112e-20 -4.78178e-05)
(-0.0245876 -0.0702003 -7.2964e-20 0.0246549 -2.79225e-19 -6.72507e-05)
(-0.00506371 -0.0525532 -6.61197e-19 0.0051422 -1.3976e-19 -7.84827e-05)
(0.00970282 -0.0372082 -1.23058e-18 -0.00962375 -2.33508e-19 -7.90744e-05)
(0.0215931 -0.0256915 -2.24117e-18 -0.0215284 2.11339e-18 -6.46869e-05)
(0.0299776 -0.0178326 8.46055e-19 -0.0299485 4.69191e-19 -2.91271e-05)
(-0.0702818 -0.112022 5.05358e-20 0.0702988 -2.72306e-20 -1.69745e-05)
(-0.0246589 -0.0860488 4.33246e-20 0.0246977 -4.11647e-20 -3.87875e-05)
(-0.000673269 -0.0617715 -1.74362e-19 0.000727815 -9.43825e-20 -5.45466e-05)
(0.0147135 -0.0410435 -6.74958e-19 -0.0146498 1.18054e-19 -6.36471e-05)
(0.0255724 -0.0238801 -8.39617e-19 -0.0255083 1.01038e-18 -6.41118e-05)
(0.0346461 -0.0106808 1.61713e-18 -0.0345936 1.43293e-18 -5.24276e-05)
(0.0411507 -0.00156327 6.49004e-19 -0.0411271 -9.81448e-19 -2.35932e-05)
(-0.0464264 -0.116959 -1.52794e-20 0.0464388 4.79155e-20 -1.2371e-05)
(-0.00601818 -0.0751514 8.38788e-20 0.00604645 3.63423e-21 -2.82678e-05)
(0.0128902 -0.0454228 -8.77067e-20 -0.0128505 1.70734e-20 -3.97479e-05)
(0.023887 -0.0225914 -8.26274e-20 -0.0238406 6.94691e-20 -4.63678e-05)
(0.0310913 -0.00462777 -8.5552e-19 -0.0310446 1.00887e-18 -4.66881e-05)
(0.0373639 0.00955197 2.41254e-18 -0.0373257 -1.08351e-19 -3.81562e-05)
(0.0419391 0.0194706 -1.74809e-18 -0.041922 -1.23836e-19 -1.71545e-05)
(-0.0258565 -0.117901 8.70531e-20 0.0258637 9.13698e-21 -7.29277e-06)
(0.00209369 -0.062426 2.75792e-19 -0.00207702 -8.57502e-20 -1.66639e-05)
(0.0142492 -0.0284822 -4.70068e-19 -0.0142257 -4.54893e-20 -2.34253e-05)
(0.0208154 -0.00438724 -1.29791e-18 -0.0207881 2.85579e-19 -2.73114e-05)
(0.0248446 0.0137607 -9.18744e-19 -0.0248172 1.04436e-18 -2.74755e-05)
(0.0284862 0.0284163 1.25884e-18 -0.0284638 3.87654e-19 -2.24234e-05)
(0.0311825 0.0387771 5.49955e-19 -0.0311724 -5.39994e-20 -1.00586e-05)
(-0.00823085 -0.117543 3.41362e-20 0.00823279 5.40904e-21 -1.93638e-06)
(0.00176724 -0.0541609 -1.39318e-19 -0.00176282 -1.51095e-20 -4.42457e-06)
(0.00596556 -0.0179114 -2.39969e-19 -0.00595935 1.0822e-19 -6.21007e-06)
(0.00814572 0.00676442 -4.16006e-19 -0.00813851 3.57131e-19 -7.21544e-06)
(0.00943263 0.0248814 -4.34953e-19 -0.00942541 7.48101e-19 -7.21861e-06)
(0.0106227 0.0397116 6.07152e-19 -0.0106169 4.26818e-19 -5.83973e-06)
(0.0115121 0.0502606 3.13134e-19 -0.0115095 -7.9651e-20 -2.582e-06)
(0.0082321 -0.117543 2.75059e-20 -0.00823559 1.19225e-20 3.49269e-06)
(-0.00176558 -0.0541612 -1.40344e-19 0.0017576 1.8577e-20 7.97998e-06)
(-0.00596246 -0.0179119 1.88719e-20 0.00595122 2.73232e-19 1.12361e-05)
(-0.00814058 0.00676397 -3.19911e-19 0.00812743 3.83352e-19 1.31474e-05)
(-0.00942481 0.024881 -1.21191e-19 0.0094115 5.03774e-19 1.33039e-05)
(-0.0106119 0.0397113 -5.52462e-20 0.010601 2.89335e-19 1.09574e-05)
(-0.0114979 0.0502606 1.86709e-19 0.0114929 -1.01135e-20 4.98866e-06)
(0.0258573 -0.117901 4.84872e-20 -0.0258661 1.16803e-20 8.78503e-06)
(-0.00209176 -0.0624269 1.55266e-19 0.00207168 4.4016e-20 2.00719e-05)
(-0.0142456 -0.0284833 4.70293e-19 0.0142173 4.16013e-19 2.82412e-05)
(-0.0208096 -0.00438842 -1.16486e-18 0.0207766 3.63975e-19 3.29927e-05)
(-0.0248362 0.0137597 -1.86762e-19 0.0248029 3.9076e-19 3.33012e-05)
(-0.0284749 0.0284154 -4.2195e-19 0.0284476 9.22198e-20 2.73204e-05)
(-0.0311683 0.0387769 1.99288e-19 0.0311559 -1.7374e-20 1.23607e-05)
(0.0464268 -0.11696 1.18383e-19 -0.0464405 3.08275e-20 1.37383e-05)
(0.00602063 -0.0751528 1.82533e-19 -0.00605202 -1.15286e-20 3.13884e-05)
(-0.0128858 -0.0454244 5.39929e-19 0.0128416 1.4006e-19 4.41543e-05)
(-0.0238802 -0.0225928 3.96582e-19 0.0238286 3.3631e-19 5.15612e-05)
(-0.031082 -0.00462899 3.75966e-19 0.03103 8.4813e-19 5.20085e-05)
(-0.0373517 0.0095509 -2.04914e-18 0.0373091 7.58545e-19 4.2624e-05)
(-0.0419249 0.0194704 -2.56021e-19 0.0419057 -8.4534e-20 1.92533e-05)
(0.0702821 -0.112024 3.13615e-21 -0.0703002 -5.81662e-20 1.8162e-05)
(0.024662 -0.0860505 4.2509e-20 -0.0247035 -6.94841e-20 4.1495e-05)
(0.000678714 -0.061773 7.70851e-20 -0.000737079 -1.03988e-19 5.83651e-05)
(-0.0147057 -0.0410447 1.29631e-19 0.0146375 -7.68424e-20 6.81409e-05)
(-0.0255622 -0.0238811 4.30436e-19 0.0254935 -3.26126e-19 6.87086e-05)
(-0.0346333 -0.0106816 1.75614e-18 0.034577 8.79781e-19 5.62816e-05)
(-0.0411367 -0.0015636 1.32742e-18 0.0411113 5.79062e-19 2.54017e-05)
(0.0959296 -0.100382 -2.21941e-20 -0.0959514 -1.00474e-19 2.18878e-05)
(0.0518914 -0.0885444 -1.14313e-20 -0.0519414 -9.61376e-20 5.00065e-05)
(0.0245939 -0.0702014 -5.12672e-20 -0.0246642 -2.36841e-19 7.03319e-05)
(0.00507224 -0.0525539 7.24496e-20 -0.00515434 -3.16371e-19 8.21004e-05)
(-0.00969208 -0.0372086 7.89155e-19 0.00960931 -1.51257e-18 8.27665e-05)
(-0.0215801 -0.0256919 3.90359e-18 0.0215124 1.20838e-19 6.77746e-05)
(-0.0299641 -0.0178334 -1.07048e-18 0.0299335 -4.90676e-19 3.05733e-05)
(0.120292 -0.0803887 -5.32609e-21 -0.120317 -9.18464e-20 2.47725e-05)
(0.0822238 -0.0781001 -5.12445e-20 -0.0822803 -7.84003e-20 5.65969e-05)
(0.0531106 -0.0655555 -2.59519e-19 -0.0531902 -4.11256e-19 7.95971e-05)
(0.030021 -0.0520058 -1.15641e-19 -0.0301139 -7.33803e-19 9.29065e-05)
(0.0115582 -0.039739 4.34617e-19 -0.0116519 -1.29383e-18 9.36455e-05)
(-0.00288447 -0.0307121 1.89031e-18 0.00280781 -8.54631e-19 7.66646e-05)
(-0.0129333 -0.024616 -1.56095e-18 0.0128987 3.08715e-19 3.45704e-05)
(0.139533 -0.0522367 -8.66947e-21 -0.13956 -2.32805e-20 2.67068e-05)
(0.108337 -0.0538942 -1.63406e-19 -0.108398 -7.23455e-20 6.1016e-05)
(0.0784333 -0.0466811 -8.30065e-19 -0.0785191 -1.82615e-20 8.5809e-05)
(0.052701 -0.038132 -9.504e-19 -0.0528011 -3.24183e-19 0.000100149)
(0.0313241 -0.0301717 6.87758e-19 -0.0314251 -5.87392e-19 0.000100934)
(0.0149227 -0.024393 1.59812e-18 -0.0150054 -1.35768e-18 8.26161e-05)
(0.00361819 -0.0205198 8.81288e-19 -0.00365543 9.96778e-19 3.72431e-05)
(0.15018 -0.018139 -9.36055e-20 -0.150208 -2.375e-20 2.76163e-05)
(0.123427 -0.0192591 -2.38176e-19 -0.12349 -9.90199e-20 6.30946e-05)
(0.093278 -0.0169176 -8.76999e-20 -0.0933668 2.70274e-19 8.87303e-05)
(0.0661357 -0.0139945 1.85114e-19 -0.0662393 3.33183e-19 0.000103553)
(0.0431489 -0.011234 3.89286e-19 -0.0432532 2.19231e-20 0.000104354)
(0.0256818 -0.00924495 5.93394e-19 -0.0257672 -9.19132e-19 8.54022e-05)
(0.0137009 -0.00791891 -3.77479e-20 -0.0137394 -4.42855e-19 3.8489e-05)
(0.150181 0.0181348 -9.54733e-20 -0.150208 6.84028e-20 2.7467e-05)
(0.123428 0.0192548 -1.55675e-19 -0.123491 1.83497e-19 6.27545e-05)
(0.0932793 0.0169116 -1.30452e-21 -0.0933676 1.49623e-19 8.8251e-05)
(0.0661378 0.0139851 1.57359e-19 -0.0662408 -6.15153e-19 0.000102989)
(0.043152 0.0112193 2.04346e-19 -0.0432558 -2.39281e-19 0.000103778)
(0.0256864 0.00922276 1.15125e-20 -0.0257713 -5.42436e-19 8.49194e-05)
(0.0137076 0.00788523 -7.83794e-20 -0.0137459 1.05086e-21 3.82626e-05)
(0.139535 0.0522329 -4.90655e-20 -0.139561 1.48289e-19 2.62642e-05)
(0.108339 0.0538903 -2.36186e-20 -0.108399 2.64176e-19 6.0008e-05)
(0.078437 0.0466758 -3.20359e-19 -0.0785214 -1.70821e-20 8.43886e-05)
(0.0527069 0.0381239 -1.27882e-18 -0.0528053 -1.73258e-19 9.84789e-05)
(0.0313331 0.0301592 3.55104e-19 -0.0314323 -3.16255e-19 9.9226e-05)
(0.0149358 0.0243742 5.80878e-19 -0.015017 -1.63023e-18 8.11846e-05)
(0.00363737 0.0204913 -5.31671e-20 -0.00367394 -6.93332e-19 3.65712e-05)
(0.120295 0.0803856 1.44318e-20 -0.120319 3.06976e-20 2.40541e-05)
(0.0822275 0.0780969 1.00907e-19 -0.0822824 1.04862e-19 5.49606e-05)
(0.0531164 0.0655515 9.16005e-20 -0.0531937 -1.67886e-19 7.72913e-05)
(0.03003 0.052 -6.27291e-19 -0.0301202 1.32532e-19 9.01946e-05)
(0.0115718 0.0397305 -1.08598e-18 -0.0116627 -1.06736e-18 9.08729e-05)
(-0.00286485 0.0306996 -3.41023e-18 0.00279051 -1.0892e-18 7.43411e-05)
(-0.0129048 0.0245971 -3.49176e-19 0.0128713 6.22783e-19 3.34802e-05)
(0.0959332 0.100379 5.26251e-20 -0.0959542 -3.95244e-20 2.09207e-05)
(0.0518963 0.0885422 6.98175e-20 -0.0519441 -4.97968e-20 4.7804e-05)
(0.0246012 0.0701992 -7.29398e-20 -0.0246685 -2.79186e-19 6.72284e-05)
(0.00508332 0.0525514 -6.61144e-19 -0.00516178 -1.397e-19 7.84504e-05)
(-0.00967577 0.0372054 -1.23047e-18 0.00959674 -2.33398e-19 7.90345e-05)
(-0.0215569 0.0256873 -2.24111e-18 0.0214923 2.11344e-18 6.46468e-05)
(-0.0299307 0.0178268 8.46166e-19 0.0299016 4.69157e-19 2.91053e-05)
(0.0702862 0.112023 5.05383e-20 -0.0703032 -2.72278e-20 1.69842e-05)
(0.0246677 0.0860495 4.33351e-20 -0.0247065 -4.11549e-20 3.88121e-05)
(0.000686859 0.061773 -1.74333e-19 -0.000741443 -9.43546e-20 5.45846e-05)
(-0.0146939 0.0410458 -6.74903e-19 0.0146302 1.18101e-19 6.36946e-05)
(-0.0255454 0.0238836 -8.39514e-19 0.0254812 1.01047e-18 6.41626e-05)
(-0.0346099 0.0106857 1.61727e-18 0.0345574 1.43292e-18 5.24716e-05)
(-0.0411038 0.00156997 6.49062e-19 0.0410802 -9.81421e-19 2.36139e-05)
(0.0464311 0.11696 -1.52733e-20 -0.0464435 4.79156e-20 1.23944e-05)
(0.00602654 0.0751533 8.38932e-20 -0.00605486 3.6366e-21 2.83275e-05)
(-0.0128777 0.0454266 -8.7673e-20 0.0128378 1.70872e-20 3.98412e-05)
(-0.0238691 0.0225975 -8.25687e-20 0.0238226 6.94947e-20 4.64886e-05)
(-0.0310669 0.0046368 -8.55446e-19 0.0310201 1.00894e-18 4.68219e-05)
(-0.0373314 -0.00953897 2.41266e-18 0.0372932 -1.08353e-19 3.82769e-05)
(-0.0418973 -0.0194525 -1.74815e-18 0.0418801 -1.23716e-19 1.72132e-05)
(0.0258614 0.117901 8.70646e-20 -0.0258688 9.13558e-21 7.32749e-06)
(-0.00208613 0.0624288 2.75812e-19 0.00206938 -8.57543e-20 1.67519e-05)
(-0.0142384 0.0284876 -4.70049e-19 0.0142149 -4.54877e-20 2.35629e-05)
(-0.0208006 0.00439595 -1.29789e-18 0.0207731 2.85601e-19 2.74906e-05)
(-0.0248248 -0.0137477 -9.18709e-19 0.0247971 1.04444e-18 2.76756e-05)
(-0.0284604 -0.0283976 1.25892e-18 0.0284378 3.8775e-19 2.26056e-05)
(-0.0311498 -0.0387507 5.49979e-19 0.0311396 -5.39471e-20 1.01484e-05)
(0.00823585 0.117544 3.41487e-20 -0.00823783 5.40809e-21 1.97701e-06)
(-0.00176082 0.0541643 -1.39297e-19 0.00175629 -1.51077e-20 4.52779e-06)
(-0.00595713 0.0179176 -2.39952e-19 0.00595076 1.08235e-19 6.3715e-06)
(-0.00813472 -0.00675457 -4.15992e-19 0.00812729 3.57162e-19 7.42625e-06)
(-0.00941843 -0.0248666 -4.34938e-19 0.00941097 7.48151e-19 7.45439e-06)
(-0.0106051 -0.0396904 6.0722e-19 0.010599 4.26877e-19 6.05483e-06)
(-0.0114908 -0.0502303 3.13185e-19 0.0114881 -7.95893e-20 2.68797e-06)
(-0.00822762 0.117545 2.75166e-20 0.00823108 1.19221e-20 -3.45115e-06)
(0.00177069 0.0541648 -1.40325e-19 -0.00176281 1.85798e-20 -7.8751e-06)
(0.00596855 0.0179179 1.89027e-20 -0.00595748 2.73245e-19 -1.10725e-05)
(0.00814785 -0.00675453 -3.19862e-19 -0.00813492 3.83378e-19 -1.2934e-05)
(0.00943339 -0.0248668 -1.21151e-19 -0.00942033 5.038e-19 -1.30652e-05)
(0.0106215 -0.0396909 -5.51939e-20 -0.0106107 2.89377e-19 -1.07395e-05)
(0.0115074 -0.050231 1.86717e-19 -0.0115026 -1.00375e-20 -4.88093e-06)
(-0.0258538 0.117903 4.84968e-20 0.0258626 1.16801e-20 -8.74907e-06)
(0.00209554 0.0624301 1.55286e-19 -0.00207556 4.40149e-20 -1.99811e-05)
(0.0142496 0.0284883 4.70326e-19 -0.0142215 4.16007e-19 -2.81e-05)
(0.0208137 0.00439612 -1.16485e-18 -0.0207809 3.63975e-19 -3.28091e-05)
(0.0248401 -0.0137481 -1.8672e-19 -0.024807 3.90779e-19 -3.30963e-05)
(0.0284775 -0.0283987 -4.21862e-19 -0.0284504 9.22772e-20 -2.71338e-05)
(0.0311676 -0.0387525 1.993e-19 -0.0311553 -1.72948e-20 -1.22689e-05)
(-0.0464244 0.116962 1.18392e-19 0.0464381 3.08273e-20 -1.37122e-05)
(-0.00601792 0.0751551 1.82552e-19 0.00604924 -1.1528e-20 -3.13233e-05)
(0.0128883 0.0454277 5.39958e-19 -0.0128443 1.40058e-19 -4.40541e-05)
(0.0238822 0.0225979 3.96605e-19 -0.0238307 3.36301e-19 -5.1432e-05)
(0.0310825 0.00463659 3.76034e-19 -0.0310306 8.48078e-19 -5.18653e-05)
(0.0373496 -0.00954002 -2.04915e-18 -0.0373071 7.5849e-19 -4.24943e-05)
(0.0419168 -0.0194542 -2.56088e-19 -0.0418976 -8.44278e-20 -1.91897e-05)
(-0.0702804 0.112025 3.14309e-21 0.0702985 -5.81689e-20 -1.81499e-05)
(-0.0246599 0.0860514 4.25231e-20 0.0247014 -6.94889e-20 -4.14652e-05)
(-0.000676884 0.0617743 7.71048e-20 0.000735205 -1.03995e-19 -5.83206e-05)
(0.0147065 0.0410466 1.29642e-19 -0.0146385 -7.68542e-20 -6.80855e-05)
(0.0255611 0.0238839 4.30452e-19 -0.0254924 -3.26157e-19 -6.86491e-05)
(0.0346287 0.0106856 1.7561e-18 -0.0345725 8.79776e-19 -5.62293e-05)
(0.0411247 0.0015695 1.32739e-18 -0.0410994 5.79114e-19 -2.5377e-05)
(-0.0959279 0.100381 -2.21912e-20 0.0959497 -1.00482e-19 -2.18902e-05)
(-0.0518893 0.0885439 -1.14252e-20 0.0519393 -9.61521e-20 -5.0014e-05)
(-0.024592 0.0702006 -5.12622e-20 0.0246624 -2.36864e-19 -7.03466e-05)
(-0.00507133 0.0525526 7.24486e-20 0.00515345 -3.16402e-19 -8.21234e-05)
(0.00969097 0.0372065 7.89176e-19 -0.00960817 -1.51265e-18 -8.27959e-05)
(0.0215756 0.0256887 3.90368e-18 -0.0215078 1.20919e-19 -6.78044e-05)
(0.0299521 0.0178284 -1.07058e-18 -0.0299215 -4.90642e-19 -3.05893e-05)
(-0.12029 0.0803873 -5.32525e-21 0.120315 -9.18579e-20 -2.47892e-05)
(-0.082221 0.0780982 -5.12463e-20 0.0822777 -7.84237e-20 -5.66403e-05)
(-0.0531079 0.0655526 -2.59532e-19 0.0531876 -4.11297e-19 -7.96681e-05)
(-0.0300189 0.0520012 -1.15671e-19 0.0301119 -7.33862e-19 -9.30037e-05)
(-0.0115576 0.0397321 4.34656e-19 0.0116513 -1.29395e-18 -9.37589e-05)
(0.00288248 0.0307021 1.89032e-18 -0.00280571 -8.54594e-19 -7.67723e-05)
(0.0129253 0.0246008 -1.56103e-18 -0.0128906 3.08757e-19 -3.46257e-05)
(-0.13953 0.0522348 -8.67012e-21 0.139557 -2.32938e-20 -2.67341e-05)
(-0.108333 0.0538913 -1.63417e-19 0.108394 -7.23726e-20 -6.10863e-05)
(-0.0784291 0.0466765 -8.301e-19 0.0785151 -1.82971e-20 -8.5922e-05)
(-0.0526967 0.0381249 -9.50437e-19 0.052797 -3.24245e-19 -0.000100302)
(-0.0313201 0.0301608 6.87814e-19 0.0314212 -5.87466e-19 -0.00010111)
(-0.0149199 0.0243773 1.59817e-18 0.0150027 -1.35776e-18 -8.27819e-05)
(-0.00361877 0.0204963 8.81219e-19 0.0036561 9.96882e-19 -3.73273e-05)
(-0.150176 0.0181373 -9.36074e-20 0.150203 -2.37649e-20 -2.76504e-05)
(-0.123422 0.0192558 -2.38181e-19 0.123485 -9.9051e-20 -6.31808e-05)
(-0.0932718 0.0169121 -8.77106e-20 0.0933607 2.70252e-19 -8.88675e-05)
(-0.0661283 0.0139857 1.85104e-19 0.066232 3.33169e-19 -0.000103737)
(-0.0431401 0.0112206 3.89309e-19 0.0432447 2.18977e-20 -0.000104565)
(-0.0256721 0.00922547 5.93405e-19 0.0257577 -9.192e-19 -8.56009e-05)
(-0.0136912 0.00789038 -3.78387e-20 0.0137298 -4.42877e-19 -3.85901e-05)
)
;

boundaryField
{
    out
    {
        type            mySigma;
    }
    in
    {
        type            mySigma;
    }
    frontAndBack
    {
        type            empty;
    }
}


// ************************************************************************* //
