/*--------------------------------*- C++ -*----------------------------------*\
| =========                 |                                                 |
| \\      /  F ield         | foam-extend: Open Source CFD                    |
|  \\    /   O peration     | Version:  3.0                                   |
|   \\  /    A nd           | Web:         http://www.extend-project.de       |
|    \\/     M anipulation  |                                                 |
\*---------------------------------------------------------------------------*/
FoamFile
{
    version     2.0;
    format      ascii;
    class       volVectorField;
    location    "40";
    object      u;
}
// * * * * * * * * * * * * * * * * * * * * * * * * * * * * * * * * * * * * * //

dimensions      [0 0 0 0 0 0 0];

internalField   nonuniform List<vector> 
2688
(
(0.2268811404 -0.05258377794 6.254963065e-17)
(0.2133672926 -0.04118042447 -6.003558351e-17)
(0.5196734202 -0.03702677656 1.378822691e-16)
(0.4692900735 -0.02804637797 -2.942146217e-17)
(0.692706902 -0.02693374669 6.504397971e-17)
(0.6328558533 -0.02028115541 -7.474489327e-18)
(0.8030073153 -0.02008478388 -3.097625854e-18)
(0.7412522013 -0.01541301004 4.937583344e-17)
(0.8774483252 -0.01530241912 -5.430368337e-17)
(0.8149763399 -0.01218051603 6.037775329e-17)
(0.9297369404 -0.01188024154 -1.500713747e-17)
(0.8659439428 -0.009927876939 3.320895294e-17)
(0.967445798 -0.009355130864 2.763934342e-17)
(0.9013069194 -0.008294590004 -8.098470858e-17)
(0.9950571989 -0.00742040523 8.71265165e-17)
(0.9254784422 -0.007061027037 -8.974909786e-17)
(1.015337872 -0.005882191068 8.78253357e-17)
(0.9412816938 -0.006067407706 -5.596359514e-17)
(1.029988314 -0.004633130048 1.224813976e-17)
(0.950641599 -0.00515841731 1.965421309e-17)
(1.039942711 -0.003650369972 -2.263253838e-17)
(0.9550423572 -0.004099881385 2.106530523e-18)
(1.045478181 -0.002958816193 -2.237248703e-17)
(0.9559073642 -0.004696454824 -1.894406608e-18)
(0.2387953392 -0.158206094 -1.989314794e-16)
(0.2226129328 -0.1236298432 -7.972157369e-18)
(0.5280242795 -0.1109027732 -3.328179964e-16)
(0.4755582042 -0.08370925684 3.161973574e-17)
(0.6987470973 -0.08014075358 -1.536051781e-16)
(0.6373513083 -0.0599194088 -2.295785935e-17)
(0.8074614713 -0.05910958438 -1.147581538e-17)
(0.7446156726 -0.04482535576 -1.178605565e-16)
(0.8807783857 -0.04427428032 5.687033655e-17)
(0.8175695927 -0.03463290972 -8.978554184e-17)
(0.9322470098 -0.03351290061 -2.530916239e-17)
(0.8679842706 -0.02737599623 -7.831307202e-17)
(0.9693363122 -0.02543893535 1.054193973e-17)
(0.9029321767 -0.02197819521 2.761430815e-17)
(0.9964596485 -0.01913968362 -4.502843117e-17)
(0.9267791123 -0.01778294552 7.873121829e-17)
(1.016339734 -0.01403910861 -8.085447556e-17)
(0.9423177672 -0.01431858067 1.866508988e-17)
(1.030652998 -0.00981978164 7.467709216e-17)
(0.9514466649 -0.01115367171 -1.07262697e-16)
(1.040330903 -0.006398761621 8.766839356e-17)
(0.9556003586 -0.007753902933 -4.887866529e-18)
(1.045678042 -0.003867316272 3.227531219e-17)
(0.9562443818 -0.005654412979 3.676152949e-17)
(0.2624203498 -0.2618351024 3.713205529e-16)
(0.2410619732 -0.2045166467 1.027183776e-16)
(0.5445750947 -0.1833630488 4.138926716e-16)
(0.4880342604 -0.1382918043 -1.372682317e-17)
(0.7106867846 -0.1322993011 1.784216532e-16)
(0.6462551178 -0.09876242894 1.03585957e-16)
(0.8162418316 -0.097350909 -2.820616098e-17)
(0.7512465082 -0.0736263981 2.085410762e-16)
(0.8873245714 -0.0726557805 -6.085553723e-17)
(0.8226601156 -0.05660404583 1.817940039e-16)
(0.9371675466 -0.05469659254 4.401293946e-17)
(0.8719725097 -0.04444047487 1.029032577e-16)
(0.9730329143 -0.04118237708 -1.473116767e-17)
(0.9060955698 -0.03535556763 -6.10620429e-17)
(0.999197671 -0.03060891261 7.153266003e-17)
(0.9292978771 -0.02826594332 -1.854832572e-16)
(1.018295448 -0.02202711751 2.166598524e-16)
(0.9443042382 -0.02239675902 -1.599861774e-16)
(1.031942957 -0.01490518959 -1.730577083e-17)
(0.9529606259 -0.01705586604 6.425619757e-17)
(1.04103295 -0.009063031455 -5.330440237e-17)
(0.9566580918 -0.0114474502 -4.777176352e-17)
(1.045871426 -0.004606141082 -6.633554175e-17)
(0.9569208777 -0.006843831037 3.80728168e-17)
(0.2975105467 -0.362169845 -4.049275517e-16)
(0.2684500924 -0.2828419807 -2.391588147e-16)
(0.5691408605 -0.2535417722 -5.403046832e-16)
(0.5065418356 -0.1911668381 4.649365336e-17)
(0.7284018955 -0.1828396622 -2.955094253e-16)
(0.6594603708 -0.1364132755 -3.990774945e-17)
(0.8292613596 -0.1344190352 -7.234760059e-17)
(0.7610726686 -0.1015626545 -1.471943232e-16)
(0.8970182516 -0.1001741158 -9.066701013e-17)
(0.8301884073 -0.07792906833 -1.277808859e-16)
(0.9444334818 -0.07524266138 -1.174204728e-16)
(0.8778495915 -0.06101220515 -1.085467721e-16)
(0.9784620879 -0.05645733329 8.343953219e-17)
(0.9107310753 -0.04835115062 1.05418382e-19)
(1.00317965 -0.04173863624 4.174884393e-17)
(0.9329588769 -0.03844421974 1.042191461e-16)
(1.021093117 -0.02977586251 -1.266384036e-16)
(0.9471590685 -0.03021093468 1.006137434e-16)
(1.033752293 -0.01984515568 2.273883762e-17)
(0.9550849774 -0.02268576527 -8.84140986e-17)
(1.042047268 -0.01172504259 9.220796198e-17)
(0.9579962323 -0.01480613154 9.023771047e-17)
(1.046336114 -0.005565390011 -4.033779861e-17)
(0.9574060234 -0.007667974248 1.354806229e-16)
(0.3436070758 -0.4579480336 4.417905994e-16)
(0.3044352012 -0.3575985873 2.020342929e-16)
(0.6014035045 -0.3205077124 6.515688294e-16)
(0.5308536529 -0.2416106347 -8.048637192e-17)
(0.7516542583 -0.2310434864 2.794130548e-16)
(0.6767887758 -0.1723081278 1.135986743e-16)
(0.8463358955 -0.1697581125 1.743524893e-17)
(0.7739492338 -0.128174167 1.670980144e-16)
(0.9097178712 -0.1263975248 1.597159435e-16)
(0.8400413487 -0.09822490068 1.473243785e-16)
(0.9539437995 -0.09481084085 -1.237810912e-17)
(0.8855341889 -0.07676900974 2.006361387e-16)
(0.9855667733 -0.07099504709 -1.804128009e-16)
(0.9167896832 -0.06069550671 1.1909998e-16)
(1.008397923 -0.05232636958 -1.939881624e-16)
(0.9377438188 -0.04810853036 -1.090731352e-16)
(1.02477357 -0.03715421545 7.803739745e-17)
(0.9508894243 -0.03764938879 -8.716836762e-17)
(1.036133729 -0.02455393211 6.964964835e-18)
(0.9578752708 -0.02812582631 4.226409373e-17)
(1.043299067 -0.01417921985 -1.344272731e-16)
(0.9598615139 -0.01825849807 4.083297636e-17)
(1.046644033 -0.006165847816 -2.190775153e-16)
(0.9583184296 -0.008822823678 1.50781955e-16)
(0.4001453418 -0.5479626331 -3.483214912e-16)
(0.3485685885 -0.4278714285 -1.597718541e-16)
(0.6409736363 -0.3834687405 -5.027774867e-16)
(0.5606666503 -0.2890461904 2.579974481e-17)
(0.780174631 -0.2763813332 -1.814894677e-16)
(0.6980441351 -0.2060819136 -2.138372561e-16)
(0.8672821353 -0.203007456 5.558619515e-17)
(0.7897497659 -0.1532305039 -2.2721012e-16)
(0.925299542 -0.1510785456 -3.19929508e-16)
(0.8521330283 -0.1173495494 8.301375137e-17)
(0.9656106456 -0.1132361001 -5.925211505e-17)
(0.8949614422 -0.09162964495 -7.085552782e-17)
(0.9942742783 -0.08469099103 1.636179294e-17)
(0.924213843 -0.07234737497 8.231112612e-17)
(1.014777921 -0.06230339195 1.791459868e-17)
(0.9435922496 -0.05722709111 2.068245832e-16)
(1.029255952 -0.04409983972 6.152820771e-17)
(0.955419055 -0.04462541217 8.63732255e-18)
(1.039046302 -0.02899171518 5.812592968e-17)
(0.9611825052 -0.03309462362 -4.745145237e-17)
(1.044962047 -0.01660515263 1.875816806e-16)
(0.9618696773 -0.02115327364 -6.274763119e-18)
(1.047402301 -0.007073064003 2.079214358e-16)
(0.9589840187 -0.009549192158 -1.029006113e-16)
(0.4663976176 -0.6310891706 -6.910502689e-17)
(0.4002934104 -0.4927482559 3.616620791e-17)
(0.6873275486 -0.4415843082 5.288949538e-16)
(0.5955978744 -0.3328209167 -1.206329739e-16)
(0.8135705621 -0.318213976 6.206323732e-17)
(0.7229289927 -0.2372289011 2.585995461e-16)
(0.8917923536 -0.2336736968 1.550304274e-17)
(0.808227475 -0.1763192045 -4.665458474e-17)
(0.9435149039 -0.1738310758 4.680080103e-16)
(0.8662554828 -0.1349546681 -2.561726777e-16)
(0.9792339525 -0.1302103329 -6.690385591e-17)
(0.9059573071 -0.1052925533 2.510526379e-16)
(1.00443084 -0.09729763655 -1.927036528e-16)
(0.9328620558 -0.0830459644 1.700466196e-16)
(1.0222154 -0.0714820871 -2.881549741e-16)
(0.9503984581 -0.06559855048 7.058639082e-17)
(1.034484534 -0.05049549306 -2.725779268e-16)
(0.9606960463 -0.05107184587 1.034299301e-16)
(1.042434873 -0.03306228382 -1.208959866e-16)
(0.9650837356 -0.03784275234 9.51167558e-18)
(1.046802065 -0.01866456817 -1.729280103e-16)
(0.9643738913 -0.02424897715 -1.576868906e-16)
(1.04801016 -0.007442318672 6.865324677e-17)
(0.9599302774 -0.01061519318 -4.122570725e-16)
(0.5415493185 -0.7062709127 5.969972066e-16)
(0.4589601956 -0.5514431489 -3.177867854e-16)
(0.7399188101 -0.494167497 3.338138991e-17)
(0.6352243084 -0.3724364328 -2.910179722e-16)
(0.8514697091 -0.3560731628 2.081516721e-16)
(0.7511732059 -0.2654297898 -3.655456852e-16)
(0.9196200796 -0.2614333003 1.464732492e-16)
(0.8292150424 -0.1972364081 -2.19396105e-18)
(0.964209047 -0.1944323526 -1.237081787e-16)
(0.8823095648 -0.1509161362 1.542903116e-16)
(0.9947230633 -0.1455849061 1.479894367e-16)
(0.9184679538 -0.1176919328 -2.132790543e-16)
(1.01598757 -0.1087200664 6.722882975e-17)
(0.9427085648 -0.09276493631 -1.496943237e-16)
(1.030683724 -0.07979525903 2.891425542e-16)
(0.9581441167 -0.07320161922 -2.517342734e-16)
(1.040442098 -0.05627180434 3.769567441e-16)
(0.966668156 -0.05688597222 -2.832363486e-16)
(1.046318564 -0.03673823152 2.608957445e-16)
(0.9694043061 -0.04197935307 -2.298035327e-16)
(1.048994943 -0.02065905675 4.824395607e-16)
(0.9670080919 -0.02664722196 -2.132337392e-16)
(1.048866684 -0.00817320217 1.762944565e-16)
(0.9608937655 -0.0111888484 3.367772739e-17)
(0.6246402248 -0.7725762584 -9.128232431e-16)
(0.5238298055 -0.6031882677 3.514043903e-16)
(0.7980448693 -0.5405195893 -3.785319985e-16)
(0.6790240234 -0.4073484724 3.78486824e-16)
(0.8933384172 -0.3894374287 -3.752607752e-17)
(0.7823680078 -0.2902684312 3.784908744e-17)
(0.9503398665 -0.2858898118 -1.449824993e-16)
(0.8523695651 -0.2156458859 -2.088531803e-17)
(0.9870295481 -0.2125747831 -1.288096054e-16)
(0.8999965891 -0.1649498612 -3.910933504e-17)
(1.011779369 -0.1591164808 -3.281771552e-16)
(0.9322278826 -0.1285798476 4.302106409e-16)
(1.028690374 -0.1187658941 -3.153195017e-16)
(0.9535177224 -0.1012891881 3.991872066e-16)
(1.03997207 -0.08710231131 -3.437749933e-16)
(0.9666341613 -0.07987659402 4.222040077e-16)
(1.046967004 -0.06134336398 -4.033115798e-16)
(0.9732180569 -0.06204663132 4.086835474e-16)
(1.050585128 -0.03991402679 -1.457595097e-16)
(0.9741633835 -0.04582451413 6.246397216e-17)
(1.051456277 -0.02216560517 -1.326849589e-16)
(0.9699018643 -0.02920994454 -1.875308277e-16)
(1.049942472 -0.008286616733 3.516100841e-16)
(0.9617911456 -0.01211667081 -7.466731949e-16)
(0.7146375045 -0.8291561017 9.563869262e-16)
(0.5940904099 -0.6473590283 -9.576134031e-16)
(0.8610204893 -0.5800860309 1.110819844e-15)
(0.7264781205 -0.4371541602 -7.379982696e-16)
(0.9387173731 -0.4179168951 3.906215671e-16)
(0.8161867701 -0.311479036 -1.547701198e-16)
(0.9836559575 -0.3067643018 2.535021093e-16)
(0.8774944219 -0.2313717009 1.424636807e-16)
(1.011801094 -0.2280588496 3.072252418e-16)
(0.919210884 -0.176943833 3.570041401e-17)
(1.030316086 -0.170664005 2.686189361e-16)
(0.9471972638 -0.1378917667 -2.196827771e-16)
(1.042516341 -0.1273353654 8.912427306e-17)
(0.9652966252 -0.1085853937 -3.702959258e-16)
(1.050096778 -0.0933245301 2.007011621e-16)
(0.9759017458 -0.0855933061 -5.791111995e-16)
(1.054076634 -0.06563575221 4.286532809e-16)
(0.9803790534 -0.0664620067 -6.258909044e-16)
(1.055189421 -0.042575998 3.189235033e-16)
(0.9793817448 -0.04906105068 -3.128032697e-16)
(1.054005765 -0.02351165829 4.175089184e-16)
(0.9731208334 -0.03115035774 -1.975714581e-16)
(1.050899247 -0.008768184177 1.787653055e-16)
(0.9629018117 -0.01238272952 2.393910056e-16)
(0.8104034663 -0.8753141562 -4.744390922e-16)
(0.6688533227 -0.6833789578 5.89828172e-16)
(0.928007953 -0.61235064 -4.285318273e-16)
(0.7769532076 -0.4614541997 7.900503545e-17)
(0.986963516 -0.4411399351 9.391017171e-18)
(0.8521309033 -0.328764771 -2.354945675e-16)
(1.019049047 -0.3237849743 -1.606916176e-16)
(0.9041686848 -0.2441794439 -4.158354725e-16)
(1.038086752 -0.2406820332 -2.932175936e-16)
(0.9395805069 -0.1867028273 -2.353543067e-16)
(1.049954915 -0.1800751323 -2.794415911e-16)
(0.9630381746 -0.1454586947 3.512036709e-16)
(1.057133014 -0.1343173141 -3.130695601e-16)
(0.9777362446 -0.1145067459 6.117067106e-16)
(1.060767938 -0.09839501037 -2.359574261e-16)
(0.9856757947 -0.09023243426 7.385811705e-16)
(1.061532697 -0.06913869961 -4.236723892e-16)
(0.9879462824 -0.07005878252 6.886798669e-16)
(1.059969324 -0.04474899594 -2.531036312e-16)
(0.9849461023 -0.05173837669 1.481657901e-16)
(1.056599712 -0.02456255316 -7.079908331e-17)
(0.9765819296 -0.03287541066 -3.666027737e-16)
(1.051865058 -0.008950123767 3.066742737e-16)
(0.9639856701 -0.01292787303 -5.913977076e-16)
(0.9107357343 -0.9104546566 3.508711544e-16)
(0.7471843713 -0.7108080664 -4.657639658e-16)
(0.9982113338 -0.6369141669 4.391617467e-16)
(0.8298546402 -0.479952655 -2.01928015e-16)
(1.037547788 -0.4588088296 1.67823006e-16)
(0.8898284466 -0.3419185857 2.404990357e-16)
(1.056184139 -0.3367243514 1.08012465e-16)
(0.9321720131 -0.2539221222 5.61131062e-16)
(1.065695076 -0.2502686626 2.847914718e-16)
(0.9609931054 -0.1941242791 2.761007944e-16)
(1.070610876 -0.1872128564 8.759065482e-17)
(0.9797171756 -0.1512119018 -1.505548677e-16)
(1.072533715 -0.139602401 1.904964028e-16)
(0.9908584872 -0.1190067065 -4.467610559e-16)
(1.072033005 -0.1022209579 1.367414135e-16)
(0.9960066795 -0.09375198281 -7.389492553e-16)
(1.069410938 -0.07176808564 2.336869236e-16)
(0.9959637974 -0.07277347287 -4.429719876e-16)
(1.064995224 -0.04637271339 9.137284747e-17)
(0.9908731137 -0.05372701158 -2.982249559e-16)
(1.059252351 -0.0253760311 3.387000536e-16)
(0.9803303708 -0.0340673154 -1.235546609e-16)
(1.052734861 -0.009222372585 2.216424962e-16)
(0.965249036 -0.01304001421 8.668380628e-17)
(1.01437645 -0.9341497738 -6.172071969e-17)
(0.8280950096 -0.7292969445 1.067282324e-17)
(1.070704575 -0.653473152 6.25789394e-17)
(0.8844784603 -0.4924224532 -2.367649771e-16)
(1.089756368 -0.4707259897 1.865746684e-18)
(0.9287240718 -0.3507846385 -1.015643353e-16)
(1.094480277 -0.3454555567 -1.727629985e-16)
(0.961032994 -0.2604856366 -4.46087215e-16)
(1.094132389 -0.2567394935 -1.585236017e-16)
(0.9830285135 -0.1991181194 -1.217124342e-16)
(1.091852291 -0.1920311355 -1.775164653e-16)
(0.9968493034 -0.1550748922 3.08611289e-16)
(1.088337339 -0.1431697114 -5.445818645e-16)
(1.004308362 -0.1220180577 7.457277357e-16)
(1.083561989 -0.1048044838 -4.736751296e-16)
(1.006573117 -0.09609515184 7.733576329e-16)
(1.077445938 -0.07355179184 -2.629037273e-16)
(1.00415274 -0.0745633753 3.808265458e-16)
(1.070091109 -0.04749886929 6.330295601e-17)
(0.9969304606 -0.05501413699 2.76718002e-17)
(1.061895932 -0.02597656551 -1.408753475e-17)
(0.984176029 -0.03484817176 -9.870026174e-17)
(1.053535224 -0.009397218394 8.694838824e-17)
(0.9665431728 -0.0132564603 -3.459307622e-16)
(1.120014958 -0.9460879366 1.779048504e-17)
(0.9105673208 -0.7386069439 1.721070574e-17)
(1.144616155 -0.6618000362 -1.176977466e-16)
(0.9401731274 -0.498683895 1.122401674e-16)
(1.143009639 -0.4766956439 4.941448838e-17)
(0.9684095117 -0.35521954 -8.896119765e-17)
(1.133572893 -0.3498076888 1.976426573e-16)
(0.9905111409 -0.2637534677 1.563601008e-16)
(1.123194795 -0.2599439615 1.298117102e-16)
(1.005567491 -0.2015911096 -5.954285615e-17)
(1.113595187 -0.1943967095 2.565738909e-16)
(1.014404444 -0.156976499 -2.929956863e-16)
(1.104547073 -0.1449015316 3.857376573e-16)
(1.018117634 -0.1234897785 -4.678743451e-16)
(1.095416382 -0.1060417096 3.56465592e-16)
(1.017439456 -0.09722568251 -4.564839168e-16)
(1.085732329 -0.07439617504 1.026136657e-16)
(1.01257626 -0.07539895322 -1.079901215e-16)
(1.075366156 -0.04803494564 -1.706441756e-16)
(1.00315582 -0.05557112548 1.015287041e-16)
(1.064634088 -0.0262649948 -2.352293462e-19)
(0.9881553996 -0.03515843858 1.395364428e-17)
(1.054312955 -0.009440283508 7.499927962e-17)
(0.9679913276 -0.01332357659 3.746145499e-18)
(1.226334712 -0.9461308292 2.357999495e-17)
(0.9935723699 -0.7386371801 -6.11534355e-17)
(1.218983689 -0.66182208 -5.306353511e-17)
(0.996211279 -0.4986974722 1.7504922e-16)
(1.196567397 -0.4767085239 -6.5404082e-17)
(1.008311124 -0.3552205845 2.277244411e-16)
(1.172856605 -0.3498111026 -1.880903545e-16)
(1.020116471 -0.263743119 1.661502184e-16)
(1.152362388 -0.2599378627 -4.348910122e-17)
(1.02816798 -0.2015689693 8.041488589e-17)
(1.135378162 -0.1943805256 -3.061387776e-16)
(1.031971064 -0.1569408039 2.147592082e-16)
(1.120749654 -0.1448744676 -1.895665237e-16)
(1.031900513 -0.1234371424 2.055921649e-16)
(1.107235809 -0.1060050512 -3.346487906e-16)
(1.028250704 -0.09714992881 2.967466796e-16)
(1.093981795 -0.07435862147 -1.435367243e-16)
(1.020918596 -0.07529121028 3.227240905e-17)
(1.080633774 -0.04801268583 5.417799067e-17)
(1.009272888 -0.0554393364 -1.281257771e-16)
(1.067406617 -0.02624431273 -1.59298392e-17)
(0.9920223444 -0.03509028427 4.636472257e-17)
(1.05513116 -0.009312729721 -2.143450597e-16)
(0.9693606143 -0.01341538573 2.649626307e-16)
(1.331984416 -0.9342665355 -1.344275197e-16)
(1.076048935 -0.7293597412 2.332089821e-16)
(1.292897226 -0.6534931405 -1.727984796e-16)
(1.051904837 -0.4924062672 -1.634987463e-16)
(1.249818644 -0.4706773855 2.817107409e-17)
(1.047993411 -0.350711934 -3.31550702e-16)
(1.211946241 -0.3453546046 1.657070263e-16)
(1.049591107 -0.2603689219 -4.13382627e-16)
(1.181422622 -0.2565948556 -4.132018004e-17)
(1.050704572 -0.1989648633 -2.618333261e-16)
(1.157121542 -0.1918484214 3.837047359e-16)
(1.049526213 -0.1548897825 -2.387924009e-16)
(1.13696501 -0.1429553084 2.424097828e-16)
(1.045711695 -0.1218020602 -1.768493584e-16)
(1.119105707 -0.1045711532 2.765754792e-16)
(1.039113607 -0.09583906666 -1.476968366e-17)
(1.102305347 -0.0733279098 5.396290175e-17)
(1.029312154 -0.07424353157 1.752818146e-16)
(1.085986948 -0.04731963008 -1.248024802e-16)
(1.01542165 -0.05464476543 2.662444872e-16)
(1.070253284 -0.02578342215 -1.056466264e-16)
(0.9959356638 -0.03465764499 7.875348754e-17)
(1.055942943 -0.008907524967 4.01425789e-17)
(0.9709204044 -0.01346588218 -2.033107032e-16)
(1.435653162 -0.9106537926 7.729603229e-17)
(1.156990014 -0.710928367 -1.744250267e-16)
(1.365413693 -0.6369752935 1.067189868e-16)
(1.106552022 -0.4799612581 1.539554436e-16)
(1.302044917 -0.4587835588 -7.016254817e-18)
(1.086905407 -0.3418463504 3.217052402e-16)
(1.250253 -0.336628901 -3.37549043e-17)
(1.078461901 -0.2537844881 4.177318579e-16)
(1.209863143 -0.2501122324 9.925309715e-17)
(1.072742515 -0.1939288346 3.364785707e-16)
(1.178358164 -0.1870004551 -1.858262754e-16)
(1.066651218 -0.1509611817 6.890965032e-17)
(1.152756426 -0.1393382305 -1.056608262e-16)
(1.059139311 -0.1186981726 7.307172844e-17)
(1.130622118 -0.1019144581 -3.046875021e-16)
(1.049628822 -0.09337492138 -7.351152275e-17)
(1.110352484 -0.07144264671 -6.136823145e-17)
(1.037391296 -0.07231575216 -2.625862943e-16)
(1.091165777 -0.04604806227 1.451967251e-16)
(1.021287762 -0.0532549389 -2.268500781e-16)
(1.073056186 -0.02493768273 4.526677765e-17)
(0.9995850375 -0.03394083651 1.02392774e-16)
(1.056853958 -0.008268038743 -2.372326119e-16)
(0.9721589393 -0.01349020964 4.965525094e-16)
(1.53601775 -0.8755804097 -1.916129336e-16)
(1.235333619 -0.6835278431 4.003124727e-16)
(1.43562232 -0.6124070837 -3.203330737e-16)
(1.159450012 -0.4614318876 4.249164639e-17)
(1.352622512 -0.4410527101 -3.108758871e-17)
(1.124592927 -0.3286186103 -3.52223252e-16)
(1.287378018 -0.3235849515 1.073821084e-16)
(1.106453328 -0.243934533 -4.594965678e-16)
(1.237462782 -0.2403852086 3.109187132e-17)
(1.09414561 -0.1863732321 -4.584765292e-16)
(1.199011708 -0.1796900683 2.664161438e-16)
(1.083327604 -0.1450529758 -2.158869657e-16)
(1.168166882 -0.133850508 2.16511174e-16)
(1.072268512 -0.1140306233 -2.474232374e-16)
(1.141916948 -0.09785429592 4.850453899e-16)
(1.059970633 -0.08969193944 -3.146238508e-17)
(1.118292593 -0.0685293978 1.873036783e-16)
(1.045402152 -0.06948261026 1.283059762e-16)
(1.096294285 -0.04403592724 -5.814040841e-17)
(1.027178934 -0.05126562604 1.517204685e-16)
(1.075799198 -0.02356258125 -1.747751752e-16)
(1.003376364 -0.03290241807 7.008619467e-17)
(1.05761318 -0.007321687599 -1.628541227e-16)
(0.9737973827 -0.01339463753 -5.985688371e-17)
(1.631838175 -0.8294946013 2.525342362e-16)
(1.310155474 -0.6475568767 -3.415132886e-16)
(1.502654936 -0.5801748857 4.209494611e-16)
(1.209970423 -0.4371495137 -1.782454128e-16)
(1.400903307 -0.4178454953 7.18393437e-17)
(1.160569482 -0.3113280257 1.311846751e-16)
(1.322792725 -0.3065650946 7.130397156e-18)
(1.133148589 -0.2311041054 3.200594994e-16)
(1.263756678 -0.2277502212 -1.143723894e-16)
(1.114524286 -0.1765762088 4.066595775e-16)
(1.218643719 -0.1702559913 -1.209494604e-16)
(1.09916265 -0.1374338394 -2.349999514e-17)
(1.182759131 -0.1268328905 4.456361487e-17)
(1.084681982 -0.1080455496 7.878292896e-17)
(1.152544947 -0.09272418973 -3.071759469e-16)
(1.069691695 -0.08499333862 2.721726981e-17)
(1.125690116 -0.0649018665 -1.248668355e-16)
(1.052887586 -0.06588744285 -1.94134137e-16)
(1.101006617 -0.04157445494 9.471783636e-17)
(1.032648027 -0.0487615304 -1.020172389e-16)
(1.078315223 -0.02193579333 1.191768343e-16)
(1.006751911 -0.03159051276 6.380262352e-17)
(1.058511853 -0.006292728001 2.927280158e-17)
(0.9746772647 -0.01320221042 9.612281649e-17)
(1.721886069 -0.7729689875 -3.714787193e-16)
(1.380436492 -0.6034067964 3.306998525e-16)
(1.565637471 -0.5405988907 -4.07253927e-16)
(1.257418663 -0.4073109195 2.811415409e-16)
(1.446269435 -0.3893039187 -1.650841641e-16)
(1.194370109 -0.2900440692 -3.577075249e-18)
(1.356088934 -0.2855873156 5.008770705e-17)
(1.15824967 -0.2152709792 -3.073852498e-16)
(1.288507712 -0.2121253291 1.550681081e-16)
(1.133715494 -0.1644445788 -2.754975359e-16)
(1.237165727 -0.1585297871 7.145272638e-17)
(1.114117996 -0.1279575527 -3.635873464e-17)
(1.196583184 -0.1180434427 6.271707031e-17)
(1.096468659 -0.100567186 -1.580841745e-16)
(1.162682676 -0.08622830198 2.122795228e-16)
(1.079012594 -0.07910531374 -1.815612506e-17)
(1.132806314 -0.06024060727 7.536307675e-17)
(1.060196431 -0.06138663502 1.219795496e-16)
(1.105534704 -0.03836025442 -1.131577772e-16)
(1.038187303 -0.04562427298 1.082200826e-16)
(1.080577933 -0.01982006918 -1.939834468e-16)
(1.010524822 -0.02984824298 5.980469244e-17)
(1.058886926 -0.005107438691 -1.499967529e-16)
(0.9765175701 -0.01264041556 2.087922803e-18)
(1.805054198 -0.7067196459 2.508083893e-16)
(1.445390009 -0.551696957 -2.015192201e-16)
(1.623827711 -0.4942650105 1.700220343e-16)
(1.301282685 -0.3724046892 -1.576554211e-16)
(1.488187875 -0.3559423254 1.176568613e-16)
(1.225612047 -0.2651905549 -8.957645417e-17)
(1.38684134 -0.2611216371 -1.104984688e-17)
(1.181437688 -0.1968327377 2.093708809e-16)
(1.311344241 -0.1939670185 -1.954208293e-16)
(1.151423325 -0.1503736561 2.07572379e-16)
(1.254219018 -0.1449809627 -1.145762415e-17)
(1.12788436 -0.1170288693 -7.545700246e-17)
(1.209255755 -0.107982755 6.643622466e-17)
(1.10726815 -0.09200437576 4.367239629e-17)
(1.171892781 -0.07890367557 -3.653224248e-17)
(1.08748844 -0.0724085464 -5.290806289e-17)
(1.139154848 -0.05511099496 6.210641643e-17)
(1.066780337 -0.05626891376 -9.549254673e-17)
(1.109449542 -0.03497416685 9.357699581e-17)
(1.04309206 -0.04199151872 -7.509579816e-17)
(1.082549983 -0.01777775314 1.61715971e-16)
(1.013506834 -0.02774012561 2.360775337e-17)
(1.059745268 -0.004115841222 1.164465302e-16)
(0.9767933656 -0.01202698754 5.157815943e-17)
(1.880270604 -0.6315743732 -1.159123864e-16)
(1.504083634 -0.4930111367 2.279696448e-16)
(1.676425694 -0.4416658151 -1.233385956e-16)
(1.340900874 -0.3327536938 1.370190755e-16)
(1.526066619 -0.3180223681 -1.068299919e-16)
(1.253828934 -0.236918816 1.28600801e-16)
(1.414636729 -0.2332639481 -8.701156971e-19)
(1.202385658 -0.1758119901 -8.796146368e-17)
(1.332000398 -0.1732306927 1.973698636e-16)
(1.167432123 -0.1342757329 -1.712681018e-16)
(1.269670763 -0.1294308994 8.498515086e-17)
(1.140354121 -0.104459072 1.749870901e-18)
(1.220783552 -0.0963384458 -6.99780236e-17)
(1.117099335 -0.08208310012 -7.685904729e-18)
(1.180341488 -0.07031410005 -3.832922913e-17)
(1.095296902 -0.06458444643 6.376532149e-17)
(1.145059688 -0.04899432826 -1.156378921e-16)
(1.073014977 -0.05024483564 7.412436648e-17)
(1.113093379 -0.0309006219 -7.79120083e-17)
(1.048067665 -0.03766148831 3.609280852e-17)
(1.08405444 -0.01542549021 -1.059666002e-16)
(1.017288449 -0.02502703909 -3.674055399e-17)
(1.059357686 -0.003310684876 -6.506513981e-17)
(0.9790483766 -0.01063783609 -7.426014073e-17)
(1.946616778 -0.5484820818 -2.286504918e-17)
(1.555913607 -0.4281518303 -1.594118608e-16)
(1.722857311 -0.3835494447 -4.193591671e-17)
(1.375911284 -0.2889687673 -2.72931184e-17)
(1.559523287 -0.2761730928 -2.112313365e-17)
(1.278772699 -0.2057415599 -7.374777323e-17)
(1.439188704 -0.2025709902 1.794904714e-17)
(1.220908562 -0.1526810894 3.009261932e-18)
(1.350241129 -0.1504488725 -1.432988801e-16)
(1.181589681 -0.1166242134 6.727516301e-17)
(1.283301803 -0.1124335946 -2.753543546e-17)
(1.151375722 -0.09075296242 -3.204666231e-17)
(1.230919619 -0.08372555338 1.0961067e-16)
(1.125762691 -0.07134904205 -4.3263359e-17)
(1.187698506 -0.06115663015 6.826297869e-17)
(1.102115124 -0.05617930417 -3.28590915e-17)
(1.150079503 -0.04265066727 5.828353127e-17)
(1.07833316 -0.04374280147 -1.82477754e-17)
(1.116095051 -0.02688756142 1.316222718e-17)
(1.052005156 -0.03282342636 2.781701822e-17)
(1.08559205 -0.01332710379 -4.163675326e-18)
(1.019419587 -0.02189801266 1.245957215e-16)
(1.060489084 -0.002640942883 -3.851464122e-17)
(0.9785667874 -0.009570410652 1.425347194e-16)
(2.003230317 -0.4584833675 5.884266307e-17)
(1.600076801 -0.3578729411 2.017646357e-16)
(1.762433785 -0.3205648859 2.589992394e-17)
(1.405712986 -0.2414945523 6.802693435e-17)
(1.588015707 -0.2307780671 2.180658369e-17)
(1.299990827 -0.1719020631 7.443952138e-17)
(1.460089356 -0.1692342107 -1.313510808e-17)
(1.236651384 -0.1275315047 -7.361559706e-18)
(1.365764486 -0.1256484154 1.275973385e-16)
(1.193607751 -0.09737555586 -6.674280232e-17)
(1.294902175 -0.09385311985 8.819688746e-17)
(1.160720838 -0.07573301532 -3.932617932e-17)
(1.239561649 -0.06983488262 -2.126743217e-17)
(1.133116469 -0.05949855364 -1.487053447e-17)
(1.194025794 -0.05095035218 -3.373898972e-17)
(1.107963321 -0.04681832081 3.157558694e-17)
(1.154500994 -0.03548196132 -3.978274107e-17)
(1.08308309 -0.03645637153 1.342958884e-17)
(1.118759642 -0.02236571995 -1.776651214e-17)
(1.056066109 -0.02737116712 -5.321134364e-18)
(1.086317271 -0.01122181904 -1.587929271e-17)
(1.023062076 -0.01812112987 -6.442752805e-17)
(1.059185662 -0.002665149845 1.677207364e-17)
(0.9812110909 -0.00733189143 -6.119025616e-17)
(2.049428279 -0.362713426 -6.167957807e-17)
(1.636184977 -0.2831127975 -1.506736824e-16)
(1.794778807 -0.2535759131 -6.170025272e-17)
(1.430114676 -0.1910209252 -3.793564982e-17)
(1.611333143 -0.1825327567 -2.01936713e-17)
(1.317385675 -0.1359562847 -7.448571786e-17)
(1.477210058 -0.1338427476 1.191732542e-17)
(1.249580338 -0.1008555378 -2.205382728e-17)
(1.378496065 -0.09936937498 -5.053252052e-17)
(1.203505752 -0.07700937366 1.297356465e-18)
(1.304431822 -0.07423382964 -3.788820667e-17)
(1.168446613 -0.05990654911 -3.584068992e-19)
(1.24666458 -0.05526138637 3.911725015e-17)
(1.139206815 -0.04708538624 -2.826253314e-17)
(1.199190611 -0.04035938457 5.594292671e-17)
(1.112746897 -0.03706085017 -3.297182169e-17)
(1.158024183 -0.02816708891 1.177213501e-17)
(1.08671182 -0.02881441787 1.322671236e-17)
(1.120926308 -0.01784709838 -5.338479923e-18)
(1.058423521 -0.02149315553 3.091781111e-17)
(1.087790791 -0.009082274906 -2.011360805e-17)
(1.02368895 -0.01408791556 6.986785139e-17)
(1.060903103 -0.002240509691 -4.094824275e-17)
(0.9802222634 -0.005822520483 5.572281706e-17)
(2.084600152 -0.2623723504 7.563196044e-17)
(1.66360409 -0.2047645283 1.111010722e-16)
(1.819350725 -0.1833641957 4.38931349e-17)
(1.448607202 -0.1381045068 4.954179997e-17)
(1.629013032 -0.1319402619 1.960195838e-17)
(1.330543885 -0.09824791971 4.801078234e-17)
(1.490171674 -0.09670201499 1.510847424e-17)
(1.259332561 -0.07284343091 -2.099227218e-19)
(1.388113269 -0.07175629185 5.598094561e-17)
(1.210935227 -0.05558649422 -2.702557307e-17)
(1.311605566 -0.05357070478 5.985917318e-17)
(1.174202551 -0.04321137393 -2.482097237e-17)
(1.251996594 -0.03984940038 4.237877077e-19)
(1.143712544 -0.03393635435 3.141540171e-18)
(1.203099504 -0.02908818464 -1.49544958e-17)
(1.116317749 -0.02668384626 7.404347005e-18)
(1.160802069 -0.02033412769 -9.197335941e-18)
(1.089661777 -0.020696884 -5.69885509e-18)
(1.122632688 -0.013042893 -9.403381885e-19)
(1.06121892 -0.01530922721 -1.463831467e-17)
(1.087973616 -0.007020740528 5.05864403e-20)
(1.026802538 -0.009760360074 -3.549772566e-17)
(1.059141695 -0.002394158931 2.284427062e-17)
(0.9827274084 -0.003559103252 -4.552109061e-17)
(2.108334022 -0.1587256834 -6.332554187e-17)
(1.68217955 -0.1238489176 -6.365475947e-17)
(1.835986291 -0.1108580137 -6.420893313e-17)
(1.461175225 -0.08346825376 -2.759999305e-17)
(1.641019757 -0.07971226013 -2.257035219e-17)
(1.33951441 -0.05932909234 -3.812809516e-17)
(1.498998463 -0.05837769572 -1.533570152e-18)
(1.266013279 -0.04394934414 -2.506312878e-17)
(1.394690372 -0.04328296961 -1.114877019e-17)
(1.216066958 -0.03350967772 -1.157171936e-17)
(1.316545507 -0.03228766937 -1.386292295e-17)
(1.17822793 -0.02603087854 -5.394379933e-18)
(1.255697592 -0.02400145108 1.407132539e-17)
(1.146896642 -0.02043003806 -1.414594058e-17)
(1.205808735 -0.01751794292 2.060282454e-17)
(1.118778027 -0.01604044503 -7.80529308e-18)
(1.162687602 -0.01228408317 4.176640391e-18)
(1.091325879 -0.01235946881 4.135827426e-18)
(1.123967239 -0.008043182774 1.910664949e-18)
(1.061749745 -0.008900035376 7.33535389e-18)