/*--------------------------------*- C++ -*----------------------------------*\
| =========                 |                                                 |
| \\      /  F ield         | foam-extend: Open Source CFD                    |
|  \\    /   O peration     | Version:  3.0                                   |
|   \\  /    A nd           | Web:         http://www.extend-project.de       |
|    \\/     M anipulation  |                                                 |
\*---------------------------------------------------------------------------*/
FoamFile
{
    version     2.0;
    format      ascii;
    class       volScalarField;
    location    "6.1";
    object      p;
}
// * * * * * * * * * * * * * * * * * * * * * * * * * * * * * * * * * * * * * //

dimensions      [0 0 0 0 0 0 0];

internalField   nonuniform List<scalar> 
400
(
1.28101
0.883485
0.880399
0.749146
0.862768
0.809865
0.951527
0.923049
1.06891
1.0475
1.19364
1.17108
1.3154
1.28161
1.41378
1.34861
1.4381
1.2947
1.26309
0.894965
1.76773
1.4416
1.38695
1.20853
1.24912
1.12918
1.19578
1.09832
1.16914
1.07772
1.14572
1.05021
1.11146
1.00291
1.05081
0.917066
0.93254
0.748667
0.675533
0.382599
1.54205
1.23911
1.22115
1.07979
1.14645
1.05922
1.15007
1.08009
1.17818
1.11179
1.21354
1.14389
1.24687
1.16685
1.26187
1.15797
1.21839
1.06044
1.0233
0.742708
1.55602
1.31344
1.2732
1.14694
1.18146
1.09493
1.14902
1.07393
1.13197
1.05951
1.11978
1.04668
1.10975
1.03151
1.09169
0.995706
1.0279
0.88297
0.822554
0.575521
1.37671
1.12825
1.12868
1.02541
1.0954
1.03523
1.1244
1.07501
1.17426
1.12696
1.23962
1.19228
1.32193
1.27006
1.41016
1.33652
1.45294
1.30969
1.30945
0.990713
1.30931
1.08737
1.08184
0.999185
1.04677
0.998878
1.05449
1.01312
1.07122
1.03243
1.09965
1.06574
1.15076
1.12059
1.2247
1.18
1.27702
1.15396
1.14507
0.77928
1.20661
0.999695
1.02025
0.957479
1.02453
0.993398
1.0717
1.04465
1.13586
1.10997
1.22622
1.20519
1.36011
1.34399
1.54167
1.50942
1.71677
1.58464
1.66144
1.18081
1.09986
0.947721
0.962648
0.923353
0.963998
0.944186
0.983763
0.963995
1.00576
0.988168
1.04505
1.03827
1.12731
1.1366
1.27061
1.27698
1.43705
1.34164
1.39386
0.876239
1.02938
0.942509
0.964793
0.949388
0.987792
0.978504
1.02374
1.00861
1.06968
1.05279
1.14717
1.13903
1.29035
1.29941
1.52855
1.53821
1.8279
1.72832
1.90938
1.29994
0.891201
0.892348
0.91265
0.922703
0.934705
0.93352
0.938903
0.926668
0.933162
0.91886
0.940766
0.939996
0.999381
1.02823
1.14986
1.20124
1.38338
1.34897
1.45368
0.898517
0.835415
0.934711
0.944944
0.982917
0.977617
0.984696
0.98338
0.969807
0.982727
0.959415
1.00394
0.988331
1.09449
1.10743
1.31492
1.35878
1.68496
1.66041
1.96321
1.38817
0.684188
0.873837
0.8968
0.958825
0.937688
0.950476
0.915961
0.901008
0.861287
0.833394
0.799912
0.781
0.775831
0.795908
0.852014
0.932036
1.07189
1.14247
1.27287
0.900262
0.650109
0.93653
0.935413
1.02634
0.983344
1.00492
0.958462
0.939405
0.896502
0.853062
0.826853
0.782045
0.802616
0.791085
0.912361
0.970739
1.25893
1.35441
1.77639
1.48976
0.519615
0.869046
0.900472
1.01048
0.966873
0.992312
0.92323
0.899366
0.811874
0.757515
0.658309
0.599147
0.50487
0.483374
0.427752
0.505076
0.534198
0.739948
0.84885
0.938691
0.528088
0.942249
0.942028
1.07812
1.01633
1.05112
0.96961
0.940351
0.84342
0.770379
0.665207
0.573544
0.48198
0.415775
0.3928
0.430555
0.588263
0.824589
1.31759
1.61713
0.470792
0.90598
0.948707
1.09505
1.04158
1.07658
0.980765
0.943508
0.813205
0.72542
0.562346
0.448634
0.258521
0.165095
-0.0272941
-0.000760966
-0.13495
0.189762
0.211641
1.03146
0.557184
0.999338
1.01178
1.17621
1.11012
1.15141
1.04328
0.999065
0.855917
0.749958
0.572527
0.426339
0.219462
0.0747413
-0.125385
-0.158533
-0.225198
0.11171
0.535016
1.67047
0.652574
1.06326
1.10413
1.26256
1.1983
1.2307
1.11056
1.05449
0.890329
0.769502
0.557198
0.388057
0.117171
-0.0662726
-0.390367
-0.475376
-0.793153
-0.455523
-0.597263
1.05605
0.866217
1.20551
1.2236
1.38329
1.30569
1.33418
1.1998
1.13392
0.956701
0.821632
0.59405
0.400026
0.10363
-0.127286
-0.493853
-0.655727
-1.00798
-0.717656
-0.661679
1.30855
1.22983
1.45728
1.45353
1.5742
1.47487
1.47415
1.3269
1.24252
1.05968
0.912262
0.68059
0.469631
0.160095
-0.112043
-0.520629
-0.782374
-1.24804
-1.14836
-1.48544
0.53732
)
;

boundaryField
{
    cavity
    {
        type            implicitExtrapolation;
    }
    lid
    {
        type            implicitExtrapolation;
    }
    frontAndBack
    {
        type            empty;
    }
}


// ************************************************************************* //
