/*--------------------------------*- C++ -*----------------------------------*\
| =========                 |                                                 |
| \\      /  F ield         | foam-extend: Open Source CFD                    |
|  \\    /   O peration     | Version:  3.0                                   |
|   \\  /    A nd           | Web:         http://www.extend-project.de       |
|    \\/     M anipulation  |                                                 |
\*---------------------------------------------------------------------------*/
FoamFile
{
    version     2.0;
    format      ascii;
    class       volVectorField;
    location    "6.1";
    object      s;
}
// * * * * * * * * * * * * * * * * * * * * * * * * * * * * * * * * * * * * * //

dimensions      [0 0 0 0 0 0 0];

internalField   nonuniform List<vector> 
400
(
(-0.00820752 0.0138312 7.49455e-318)
(-0.0136493 0.0202707 1.29399e-317)
(-0.0288518 0.0212506 1.45362e-317)
(-0.0371824 0.0177476 1.44975e-317)
(-0.0486351 0.0150617 1.38021e-317)
(-0.055578 0.0112357 1.28592e-317)
(-0.0628342 0.00837307 1.18424e-317)
(-0.0672382 0.00527754 1.08632e-317)
(-0.0707187 0.00264665 9.91427e-318)
(-0.0722561 -0.00010717 9.06462e-318)
(-0.0721633 -0.00281435 8.25802e-318)
(-0.0705777 -0.00575895 7.55475e-318)
(-0.0667097 -0.00885098 6.89392e-318)
(-0.0617788 -0.0122885 6.3158e-318)
(-0.0537787 -0.0156308 5.77743e-318)
(-0.0457797 -0.019384 5.27465e-318)
(-0.0337319 -0.0219475 4.77265e-318)
(-0.0243879 -0.0245307 4.17261e-318)
(-0.00995894 -0.0226494 3.30745e-318)
(-0.00435963 -0.0147961 1.72186e-318)
(-0.00889778 0.00849209 9.02767e-318)
(-0.020292 0.0197022 1.751e-317)
(-0.0377221 0.0245068 2.10062e-317)
(-0.0508946 0.0244603 2.19328e-317)
(-0.0658154 0.0219937 2.15683e-317)
(-0.0767221 0.0179872 2.06228e-317)
(-0.0871014 0.0134836 1.93834e-317)
(-0.0940493 0.00866564 1.8097e-317)
(-0.0992652 0.00377785 1.67734e-317)
(-0.10157 -0.00115044 1.55421e-317)
(-0.101387 -0.00616779 1.43362e-317)
(-0.0986963 -0.0111715 1.32504e-317)
(-0.0929166 -0.0161936 1.2199e-317)
(-0.0851808 -0.0209352 1.12481e-317)
(-0.0739261 -0.0251575 1.03112e-317)
(-0.0618988 -0.0282239 9.39833e-318)
(-0.0464102 -0.0293267 8.39503e-318)
(-0.0325478 -0.0272587 7.17596e-318)
(-0.0161873 -0.0204599 5.42152e-318)
(-0.00533637 -0.00789297 2.58066e-318)
(-0.00887572 0.0258501 7.48923e-318)
(-0.0197623 0.0473205 1.54108e-317)
(-0.0372992 0.0541542 1.92902e-317)
(-0.0501136 0.0520449 2.08751e-317)
(-0.0644735 0.0462264 2.11392e-317)
(-0.0750013 0.0378861 2.07094e-317)
(-0.0849445 0.0288792 1.98644e-317)
(-0.0917561 0.0193251 1.88548e-317)
(-0.0969252 0.00967776 1.77266e-317)
(-0.099423 -0.000140105 1.66128e-317)
(-0.0995523 -0.0101562 1.54792e-317)
(-0.0973156 -0.0202875 1.44142e-317)
(-0.0920573 -0.0305476 1.33544e-317)
(-0.0848319 -0.0404315 1.23546e-317)
(-0.0740629 -0.0495453 1.13337e-317)
(-0.0622988 -0.0567237 1.02927e-317)
(-0.0469101 -0.0606407 9.103e-318)
(-0.0328367 -0.0591366 7.64996e-318)
(-0.0158663 -0.0488411 5.61695e-318)
(-0.00501609 -0.0246991 2.56062e-318)
(-0.00665521 0.0268155 4.8954e-318)
(-0.0156864 0.0522614 1.09478e-317)
(-0.0288623 0.0613844 1.44896e-317)
(-0.0390526 0.0601991 1.64411e-317)
(-0.0504809 0.0539473 1.73131e-317)
(-0.0590504 0.0447104 1.75355e-317)
(-0.0673487 0.0342225 1.72987e-317)
(-0.0731797 0.0230268 1.68132e-317)
(-0.0778209 0.0114719 1.61336e-317)
(-0.0803377 -0.000351284 1.53796e-317)
(-0.0809364 -0.0125398 1.45447e-317)
(-0.0796668 -0.0248773 1.37034e-317)
(-0.0757645 -0.0374401 1.28155e-317)
(-0.0703163 -0.0493889 1.19174e-317)
(-0.0615985 -0.0604486 1.09366e-317)
(-0.0520827 -0.0685528 9.8529e-318)
(-0.0391778 -0.0727008 8.54166e-318)
(-0.027235 -0.0689299 6.88802e-318)
(-0.0131596 -0.0548751 4.70081e-318)
(-0.00343299 -0.0247386 1.78197e-318)
(-0.00600839 0.0337674 2.57717e-318)
(-0.0120727 0.0644728 6.72199e-318)
(-0.0228981 0.0749274 9.71581e-318)
(-0.0301537 0.0733624 1.18055e-317)
(-0.0391759 0.0658084 1.31016e-317)
(-0.045535 0.0547824 1.38343e-317)
(-0.0521762 0.0422987 1.41098e-317)
(-0.0568713 0.0289029 1.40856e-317)
(-0.0609564 0.015046 1.38165e-317)
(-0.0635532 0.000714693 1.34075e-317)
(-0.0647747 -0.0141632 1.28696e-317)
(-0.0647801 -0.0294485 1.22695e-317)
(-0.0625089 -0.0452052 1.15852e-317)
(-0.0592847 -0.0604961 1.08456e-317)
(-0.0526857 -0.0749844 9.99464e-318)
(-0.0458025 -0.086054 9.00893e-318)
(-0.0345701 -0.092559 7.78607e-318)
(-0.0249995 -0.0890524 6.22893e-318)
(-0.0111822 -0.0728333 4.20193e-318)
(-0.00365569 -0.0344971 1.57342e-318)
(-0.00465051 0.0347978 5.97918e-319)
(-0.00825639 0.0668949 3.02418e-318)
(-0.0155895 0.0783156 5.43136e-318)
(-0.019917 0.076795 7.51668e-318)
(-0.026101 0.0692334 9.09127e-318)
(-0.0302456 0.05783 1.02137e-317)
(-0.0350944 0.0450018 1.09133e-317)
(-0.0386471 0.0310629 1.1295e-317)
(-0.0421226 0.016624 1.14068e-317)
(-0.0447863 0.00148423 1.13332e-317)
(-0.0466275 -0.0143777 1.11008e-317)
(-0.0479439 -0.0309822 1.07652e-317)
(-0.0474244 -0.048369 1.03236e-317)
(-0.0465967 -0.065647 9.79741e-318)
(-0.0424559 -0.0823837 9.1479e-318)
(-0.0385381 -0.0956012 8.34855e-318)
(-0.0295555 -0.103849 7.31144e-318)
(-0.0226562 -0.100382 5.93742e-318)
(-0.00973035 -0.0820475 4.09246e-318)
(-0.00397644 -0.0376475 1.60345e-318)
(-0.00368157 0.0366801 -5.53393e-319)
(-0.0049864 0.0701844 6.64192e-319)
(-0.00965637 0.0822245 2.53403e-318)
(-0.0114889 0.0805856 4.47069e-318)
(-0.0153224 0.0730105 6.11785e-318)
(-0.0175392 0.0612416 7.41759e-318)
(-0.0207994 0.0482135 8.35036e-318)
(-0.0232949 0.0338489 8.97532e-318)
(-0.0261578 0.0190264 9.33156e-318)
(-0.0288181 0.00322672 9.48638e-318)
(-0.0311498 -0.0134406 9.4708e-318)
(-0.0336445 -0.031319 9.33237e-318)
(-0.0346974 -0.0503209 9.07901e-318)
(-0.0361928 -0.0699101 8.72896e-318)
(-0.0342973 -0.089308 8.25889e-318)
(-0.0334229 -0.105789 7.64202e-318)
(-0.0262408 -0.116946 6.80608e-318)
(-0.022194 -0.1157 5.64247e-318)
(-0.00892177 -0.0967634 3.99589e-318)
(-0.00532785 -0.0465565 1.63295e-318)
(-0.00222145 0.0361773 -1.26494e-318)
(-0.00199359 0.0688943 -9.07401e-319)
(-0.00348342 0.081065 5.0204e-319)
(-0.00320731 0.0793382 2.22794e-318)
(-0.00451236 0.0722994 3.84094e-318)
(-0.00496235 0.0608392 5.20917e-318)
(-0.0065202 0.0484455 6.27424e-318)
(-0.00792411 0.034535 7.06177e-318)
(-0.00999453 0.0202748 7.59661e-318)
(-0.0124469 0.004795 7.93129e-318)
(-0.0150249 -0.0116653 8.09744e-318)
(-0.0183918 -0.0298149 8.13659e-318)
(-0.0208382 -0.0494701 8.06482e-318)
(-0.0243738 -0.0705501 7.90024e-318)
(-0.0248499 -0.0920038 7.63037e-318)
(-0.0268716 -0.111463 7.23278e-318)
(-0.0221564 -0.125662 6.63948e-318)
(-0.0208493 -0.126937 5.73432e-318)
(-0.00837472 -0.108006 4.3054e-318)
(-0.00621774 -0.0523541 1.9772e-318)
(-0.000836778 0.0350948 -1.39616e-318)
(0.000676736 0.066935 -1.49739e-318)
(0.0020479 0.0789689 -4.69021e-319)
(0.00402087 0.077365 9.85735e-319)
(0.00499041 0.0709051 2.44637e-318)
(0.00606462 0.0599645 3.74757e-318)
(0.00613962 0.0483689 4.81498e-318)
(0.00583798 0.0351447 5.647e-318)
(0.00471282 0.0217087 6.25781e-318)
(0.00272085 0.00685692 6.6836e-318)
(0.000245322 -0.00901045 6.9522e-318)
(-0.00359485 -0.0270411 7.09769e-318)
(-0.00700862 -0.0468586 7.13778e-318)
(-0.012272 -0.0691151 7.08834e-318)
(-0.0148285 -0.0922167 6.94517e-318)
(-0.019883 -0.114924 6.68624e-318)
(-0.0175856 -0.132319 6.25287e-318)
(-0.0198379 -0.137864 5.52609e-318)
(-0.0077786 -0.120065 4.26169e-318)
(-0.00828375 -0.0612613 2.03817e-318)
(0.000542227 0.0327151 -1.35864e-318)
(0.00288335 0.0623408 -1.72063e-318)
(0.00711151 0.0739711 -9.88156e-319)
(0.0105317 0.0725016 2.08866e-319)
(0.013793 0.0668699 1.49475e-318)
(0.0163187 0.0567838 2.69557e-318)
(0.0181245 0.0463542 3.72298e-318)
(0.0190417 0.0342499 4.55904e-318)
(0.0191059 0.0220897 5.2057e-318)
(0.0179216 0.00840716 5.68755e-318)
(0.0159606 -0.00629 6.02782e-318)
(0.0122425 -0.0235062 6.25432e-318)
(0.00833282 -0.0427902 6.38472e-318)
(0.00211975 -0.0654297 6.43445e-318)
(-0.00234126 -0.0896182 6.40134e-318)
(-0.00962396 -0.115019 6.26778e-318)
(-0.0105139 -0.135868 5.9727e-318)
(-0.0155751 -0.145844 5.40437e-318)
(-0.0063701 -0.130686 4.29222e-318)
(-0.00822609 -0.0689585 2.17075e-318)
(0.00207223 0.0300736 -1.09189e-318)
(0.00484076 0.057475 -1.53056e-318)
(0.0116503 0.0682306 -1.02688e-318)
(0.0160781 0.0670815 -7.82847e-320)
(0.0213638 0.0621097 1.00578e-318)
(0.0250908 0.0530178 2.05829e-318)
(0.0285279 0.0437491 2.99263e-318)
(0.0306486 0.0329009 3.77788e-318)
(0.0320263 0.0221397 4.40849e-318)
(0.0318921 0.00985714 4.89696e-318)
(0.0308327 -0.00334563 5.26064e-318)
(0.0277084 -0.0192974 5.51917e-318)
(0.0239058 -0.0373848 5.68727e-318)
(0.0172167 -0.0596797 5.77458e-318)
(0.0114385 -0.0838667 5.77881e-318)
(0.0018013 -0.111267 5.67961e-318)
(-0.00201084 -0.134282 5.42084e-318)
(-0.0114358 -0.149208 4.89894e-318)
(-0.00448861 -0.136198 3.86109e-318)
(-0.0106435 -0.0750344 1.91759e-318)
(0.00278699 0.0260487 -8.53498e-319)
(0.00619252 0.0506775 -1.30211e-318)
(0.01499 0.0607464 -9.58537e-319)
(0.0205118 0.0599368 -2.05788e-319)
(0.0276281 0.0558015 7.04019e-319)
(0.0325794 0.0478101 1.62193e-318)
(0.037604 0.0398214 2.4608e-318)
(0.0410018 0.0303662 3.18584e-318)
(0.0438116 0.0211303 3.78404e-318)
(0.0450133 0.0104568 4.26148e-318)
(0.0452234 -0.00102578 4.62916e-318)
(0.0433622 -0.0152984 4.90196e-318)
(0.0402907 -0.031754 5.09121e-318)
(0.0343153 -0.0529395 5.20277e-318)
(0.0277793 -0.0765738 5.23013e-318)
(0.0175384 -0.105017 5.15377e-318)
(0.0102339 -0.130437 4.91257e-318)
(-0.00127096 -0.150254 4.41725e-318)
(-0.000564995 -0.142367 3.44427e-318)
(-0.0076642 -0.083413 1.6784e-318)
(0.00413183 0.023171 -6.75852e-319)
(0.00714328 0.0446813 -1.07789e-318)
(0.0177256 0.0532736 -8.26695e-319)
(0.0236487 0.052721 -2.18678e-319)
(0.0322196 0.0490746 5.43907e-319)
(0.0379789 0.0421974 1.33315e-318)
(0.0443062 0.0353552 2.07289e-318)
(0.0487544 0.0273003 2.72556e-318)
(0.0528858 0.019547 3.27616e-318)
(0.0554051 0.010534 3.72447e-318)
(0.0570543 0.00088232 4.07682e-318)
(0.0566896 -0.0114367 4.34198e-318)
(0.0549028 -0.0257452 4.5264e-318)
(0.0500027 -0.0450315 4.63018e-318)
(0.0436332 -0.0667425 4.64316e-318)
(0.0325911 -0.0947275 4.54002e-318)
(0.022907 -0.119798 4.26314e-318)
(0.00694682 -0.142863 3.7336e-318)
(0.00361147 -0.136422 2.78378e-318)
(-0.0102356 -0.08172 1.22368e-318)
(0.00387859 0.0181273 -4.71546e-319)
(0.00760405 0.0371301 -7.96493e-319)
(0.0189724 0.0448449 -6.15912e-319)
(0.0257681 0.0446666 -1.28511e-319)
(0.0354501 0.0416811 4.99673e-319)
(0.0420635 0.0358891 1.16813e-318)
(0.0494577 0.0302045 1.8062e-318)
(0.0548624 0.0235047 2.37988e-318)
(0.0601771 0.017174 2.87104e-318)
(0.064049 0.00978056 3.27709e-318)
(0.0672348 0.00190898 3.59921e-318)
(0.0688224 -0.0083617 3.84386e-318)
(0.0687994 -0.0204136 4.01386e-318)
(0.0662628 -0.0373075 4.10651e-318)
(0.060806 -0.0567608 4.10768e-318)
(0.0516673 -0.0833097 3.99235e-318)
(0.039379 -0.108427 3.70378e-318)
(0.0238313 -0.134904 3.17353e-318)
(0.0107875 -0.135016 2.28339e-318)
(-0.00175523 -0.089884 9.18137e-319)
(0.0045639 0.015934 -5.91728e-319)
(0.00709418 0.0311345 -8.15376e-319)
(0.0191087 0.0370394 -6.17795e-319)
(0.0257066 0.0368178 -1.7688e-319)
(0.0359321 0.0341809 3.72471e-319)
(0.0427265 0.0294418 9.55014e-319)
(0.0506182 0.0247797 1.51539e-318)
(0.0564559 0.0193804 2.02335e-318)
(0.0624893 0.0143251 2.46346e-318)
(0.0672681 0.00844303 2.83092e-318)
(0.071718 0.00222046 3.12568e-318)
(0.0749037 -0.0060094 3.34997e-318)
(0.0767793 -0.01568 3.50353e-318)
(0.0763206 -0.029677 3.58084e-318)
(0.0727373 -0.0458366 3.56515e-318)
(0.0647201 -0.0690873 3.42933e-318)
(0.0522589 -0.0908086 3.12544e-318)
(0.033488 -0.116148 2.59157e-318)
(0.0168043 -0.115003 1.76221e-318)
(-0.00508795 -0.0748258 5.95433e-319)
(0.0034712 0.0109029 -1.97221e-319)
(0.00671985 0.0242355 -3.69813e-319)
(0.0185595 0.0290043 -2.66657e-319)
(0.025687 0.02907 4.19709e-320)
(0.0362083 0.0268897 4.58058e-319)
(0.043148 0.0231136 9.17337e-319)
(0.0512386 0.0194434 1.3698e-318)
(0.0572314 0.0152064 1.78586e-318)
(0.0636525 0.0113213 2.14989e-318)
(0.0691144 0.00677928 2.45521e-318)
(0.0745887 0.00205201 2.7006e-318)
(0.079487 -0.00430129 2.88664e-318)
(0.0832957 -0.0117094 3.01117e-318)
(0.0859553 -0.0228098 3.0688e-318)
(0.084665 -0.0356669 3.04267e-318)
(0.081051 -0.0553879 2.91024e-318)
(0.0681466 -0.0744325 2.628e-318)
(0.0543086 -0.10044 2.14783e-318)
(0.0261818 -0.105469 1.43283e-318)
(0.0118929 -0.0832601 4.62416e-319)
(0.00287169 0.00962816 -6.14341e-319)
(0.00441629 0.0185417 -6.51841e-319)
(0.0154034 0.0215506 -4.70341e-319)
(0.0216149 0.0213043 -1.51367e-319)
(0.0312458 0.0195649 2.28994e-319)
(0.0374352 0.0168153 6.31796e-319)
(0.0447042 0.0140828 1.0238e-318)
(0.0501064 0.0109937 1.3825e-318)
(0.0560456 0.0080823 1.69751e-318)
(0.0612819 0.00472013 1.96318e-318)
(0.0669236 0.00116965 2.17869e-318)
(0.0722554 -0.00351588 2.34353e-318)
(0.0772923 -0.00900319 2.45437e-318)
(0.0813169 -0.0170926 2.50564e-318)
(0.0826452 -0.0265235 2.48227e-318)
(0.080829 -0.0409006 2.36223e-318)
(0.071289 -0.0547355 2.11432e-318)
(0.0562118 -0.0733868 1.69984e-318)
(0.0303208 -0.0738663 1.10933e-318)
(0.00476847 -0.0499381 3.40406e-319)
(0.00141096 0.00578498 3.39408e-319)
(0.00359002 0.013293 1.2362e-319)
(0.0141378 0.014983 8.56957e-320)
(0.0200493 0.0149644 1.91431e-319)
(0.0292142 0.0135644 4.10154e-319)
(0.0344224 0.0115963 6.68189e-319)
(0.0409696 0.00972992 9.35923e-319)
(0.0454481 0.00755078 1.18516e-318)
(0.050768 0.00562248 1.40558e-318)
(0.0555803 0.0032713 1.59079e-318)
(0.0610804 0.000950646 1.73962e-318)
(0.0669556 -0.00228843 1.8516e-318)
(0.0727848 -0.0057984 1.92415e-318)
(0.0791432 -0.0113845 1.95363e-318)
(0.0825445 -0.0173648 1.92812e-318)
(0.0861324 -0.0278964 1.8322e-318)
(0.0782833 -0.0371975 1.64051e-318)
(0.0733694 -0.0551287 1.32659e-318)
(0.0379017 -0.0593292 8.85148e-319)
(0.0325966 -0.0621475 3.07709e-319)
(-0.000389104 0.00483169 -5.45681e-319)
(5.69935e-05 0.0073287 -4.94174e-319)
(0.00705928 0.00792738 -3.65376e-319)
(0.0108518 0.00771431 -1.81623e-319)
(0.0165656 0.00705801 2.18772e-320)
(0.0199351 0.00620878 2.31751e-319)
(0.0238179 0.00518105 4.33009e-319)
(0.0266458 0.00406229 6.16762e-319)
(0.0298834 0.00281783 7.7847e-319)
(0.0329063 0.00140951 9.15686e-319)
(0.0366233 -0.00020452 1.0281e-318)
(0.0403915 -0.00218007 1.11482e-318)
(0.0449799 -0.00454386 1.17451e-318)
(0.0491647 -0.00759169 1.2037e-318)
(0.0532706 -0.0112699 1.19464e-318)
(0.0553284 -0.0159243 1.13604e-318)
(0.0534878 -0.0210311 1.01643e-318)
(0.0468472 -0.025623 8.20317e-319)
(0.0283943 -0.0253225 5.56071e-319)
(0.0101708 -0.00790439 2.21485e-319)
(-0.000630817 0.00251087 8.25717e-319)
(0.000789287 0.00458207 4.18286e-319)
(0.00678896 0.00425329 2.71667e-319)
(0.00868594 0.00420343 2.09528e-319)
(0.0131769 0.00371344 2.44128e-319)
(0.0143155 0.00313913 2.97719e-319)
(0.0170848 0.00284789 3.62491e-319)
(0.0181483 0.00229189 4.22085e-319)
(0.020256 0.00209832 4.74748e-319)
(0.0219597 0.00155926 5.17366e-319)
(0.0243232 0.00138676 5.50868e-319)
(0.027287 0.000679896 5.75181e-319)
(0.0303373 0.000476669 5.90428e-319)
(0.0350123 -0.000788994 5.96016e-319)
(0.0380429 -0.00103371 5.88679e-319)
(0.044267 -0.00395489 5.6451e-319)
(0.0428001 -0.00402991 5.14184e-319)
(0.0493541 -0.0126417 4.28884e-319)
(0.0267883 -0.0114914 3.10081e-319)
(0.041978 -0.0361014 1.4692e-319)
)
;

boundaryField
{
    cavity
    {
        type            myHeatFlux;
        ThetaWall       uniform 0;
        value           nonuniform List<vector> 
60
(
(0.001 0 0)
(0.001 0 0)
(0.001 0 0)
(0.001 0 0)
(0.001 0 0)
(0.001 0 0)
(0.001 0 0)
(0.001 0 0)
(0.001 0 0)
(0.001 0 0)
(0.001 0 0)
(0.001 0 0)
(0.001 0 0)
(0.001 0 0)
(0.001 0 0)
(0.001 0 0)
(0.001 0 0)
(0.001 0 0)
(0.001 0 0)
(0.001 0 0)
(0 -0.001 0)
(0 -0.001 0)
(0 -0.001 0)
(0 -0.001 0)
(0 -0.001 0)
(0 -0.001 0)
(0 -0.001 0)
(0 -0.001 0)
(0 -0.001 0)
(0 -0.001 0)
(0 -0.001 0)
(0 -0.001 0)
(0 -0.001 0)
(0 -0.001 0)
(0 -0.001 0)
(0 -0.001 0)
(0 -0.001 0)
(0 -0.001 0)
(0 -0.001 0)
(0 -0.001 0)
(-0.001 0 0)
(-0.001 0 0)
(-0.001 0 0)
(-0.001 0 0)
(-0.001 0 0)
(-0.001 0 0)
(-0.001 0 0)
(-0.001 0 0)
(-0.001 0 0)
(-0.001 0 0)
(-0.001 0 0)
(-0.001 0 0)
(-0.001 0 0)
(-0.001 0 0)
(-0.001 0 0)
(-0.001 0 0)
(-0.001 0 0)
(-0.001 0 0)
(-0.001 0 0)
(-0.001 0 0)
)
;
    }
    lid
    {
        type            myHeatFlux;
        ThetaWall       uniform 0;
        value           nonuniform List<vector> 
20
(
(0.000135815 0.0009 0)
(0.000135815 0.0009 0)
(0.000135815 0.0009 0)
(0.000135815 0.0009 0)
(0.000135815 0.0009 0)
(0.000135815 0.0009 0)
(0.000135815 0.0009 0)
(0.000135815 0.0009 0)
(0.000135815 0.0009 0)
(0.000135815 0.0009 0)
(0.000135815 0.0009 0)
(0.000135815 0.0009 0)
(0.000135815 0.0009 0)
(0.000135815 0.0009 0)
(0.000135815 0.0009 0)
(0.000135815 0.0009 0)
(0.000135815 0.0009 0)
(0.000135815 0.0009 0)
(0.000135815 0.0009 0)
(0.000135815 0.0009 0)
)
;
    }
    frontAndBack
    {
        type            empty;
    }
}


// ************************************************************************* //
