/*--------------------------------*- C++ -*----------------------------------*\
| =========                 |                                                 |
| \\      /  F ield         | foam-extend: Open Source CFD                    |
|  \\    /   O peration     | Version:  3.0                                   |
|   \\  /    A nd           | Web:         http://www.extend-project.de       |
|    \\/     M anipulation  |                                                 |
\*---------------------------------------------------------------------------*/
FoamFile
{
    version     2.0;
    format      ascii;
    class       volScalarField;
    location    "6.1";
    object      Theta;
}
// * * * * * * * * * * * * * * * * * * * * * * * * * * * * * * * * * * * * * //

dimensions      [0 0 0 0 0 0 0];

internalField   nonuniform List<scalar> 
400
(
0.17969
-0.0157593
-0.0413902
-0.0817018
-0.0559311
-0.0459779
-0.00743315
0.0198616
0.0605778
0.0934361
0.134188
0.166519
0.205828
0.230227
0.263118
0.265515
0.278602
0.228986
0.188703
0.00401106
0.419388
0.260617
0.215023
0.150073
0.143457
0.118537
0.12266
0.114123
0.120181
0.116672
0.121364
0.115718
0.116826
0.102229
0.0968336
0.063536
0.044445
-0.025662
-0.0802915
-0.223835
0.33245
0.182271
0.151116
0.100271
0.102721
0.088371
0.0993914
0.0986014
0.111072
0.114564
0.126771
0.12933
0.140287
0.136204
0.142838
0.121904
0.114953
0.056336
0.0123437
-0.127425
0.326923
0.207988
0.176756
0.1311
0.130462
0.113942
0.12029
0.114647
0.121844
0.119969
0.127538
0.125717
0.133941
0.127638
0.134257
0.113828
0.1086
0.0534458
0.00921709
-0.113653
0.246863
0.124581
0.109558
0.0728186
0.0840097
0.076387
0.0917781
0.0942744
0.110008
0.116656
0.134277
0.142722
0.164334
0.170612
0.195031
0.187433
0.203151
0.151915
0.12319
-0.0347654
0.212328
0.103593
0.0955209
0.0662985
0.0803715
0.0754214
0.091071
0.0938693
0.109189
0.115912
0.134331
0.144521
0.170176
0.181467
0.215084
0.215706
0.245549
0.199133
0.180232
-0.00288597
0.154008
0.0527995
0.0561784
0.0345808
0.0543787
0.054306
0.0733393
0.0798361
0.0984825
0.109266
0.132809
0.148993
0.183879
0.204403
0.254144
0.266129
0.320027
0.275865
0.277861
0.0402041
0.111795
0.0378994
0.0460989
0.0335089
0.0523593
0.0542222
0.0705912
0.0762579
0.0920328
0.101421
0.123079
0.139292
0.175101
0.199461
0.25543
0.2767
0.343359
0.308673
0.321635
0.0623344
0.059293
0.0178324
0.0310961
0.0277583
0.0445058
0.048281
0.0616475
0.0668295
0.0799247
0.0882798
0.10843
0.124765
0.162404
0.190376
0.255787
0.285826
0.374899
0.347546
0.392253
0.0920671
0.00997452
0.0124739
0.0288912
0.0362904
0.0484073
0.0530905
0.0605615
0.0628752
0.0694663
0.073161
0.086262
0.0979462
0.128843
0.155339
0.216368
0.253193
0.342653
0.334266
0.382115
0.10459
-0.0393974
0.0117622
0.0272839
0.0457008
0.0510029
0.0565378
0.0572835
0.0564938
0.056036
0.0543517
0.0597488
0.0652696
0.0893315
0.111894
0.172294
0.212772
0.319616
0.326515
0.42498
0.144417
-0.0906406
0.00571816
0.0276167
0.057124
0.0587369
0.0650662
0.0594013
0.0544622
0.0452723
0.0358996
0.0295613
0.0251263
0.0339204
0.0476219
0.0894927
0.131082
0.217538
0.254002
0.33365
0.149205
-0.128267
0.0161794
0.0319836
0.0732291
0.0674594
0.0751253
0.062134
0.0530007
0.0346819
0.016911
-0.00152497
-0.0177132
-0.0235772
-0.0223936
0.00760705
0.0440936
0.140379
0.197399
0.354374
0.219339
-0.169259
0.00644237
0.035454
0.0860227
0.0808066
0.0893753
0.0714909
0.0576259
0.0301326
0.00275798
-0.0299777
-0.0603286
-0.0877565
-0.103006
-0.104728
-0.0759677
-0.0253006
0.067118
0.162607
0.212334
-0.180688
0.027898
0.0470215
0.108739
0.098019
0.108577
0.0843305
0.0659112
0.0290702
-0.00811218
-0.0547051
-0.100401
-0.147471
-0.183177
-0.206884
-0.195876
-0.145983
-0.0373642
0.164018
0.317987
-0.19011
0.0281703
0.065151
0.13187
0.124725
0.134996
0.107099
0.0833982
0.0382146
-0.00892065
-0.0693713
-0.130828
-0.201069
-0.25887
-0.321774
-0.330356
-0.348403
-0.212564
-0.136861
0.279411
-0.155673
0.0684105
0.0943449
0.169268
0.158022
0.169128
0.13536
0.106604
0.0530461
-0.0034932
-0.0765247
-0.153608
-0.244052
-0.327108
-0.418709
-0.459874
-0.494495
-0.363883
-0.173304
0.38128
-0.0978457
0.110249
0.148639
0.220225
0.209385
0.215789
0.177548
0.142319
0.0823345
0.0172947
-0.0654684
-0.156156
-0.264748
-0.371495
-0.49929
-0.574611
-0.684347
-0.564562
-0.565388
0.255851
0.0060684
0.183187
0.21189
0.283779
0.266725
0.269205
0.224159
0.182815
0.116403
0.0441085
-0.0469192
-0.149624
-0.273584
-0.404627
-0.561464
-0.681254
-0.82875
-0.754993
-0.704163
0.228885
0.18675
0.313225
0.331587
0.383213
0.354951
0.341866
0.290604
0.239653
0.171442
0.0931124
0.00200077
-0.108876
-0.23616
-0.38815
-0.560773
-0.73387
-0.928238
-0.962383
-1.07929
-0.139956
)
;

boundaryField
{
    cavity
    {
        type            implicitExtrapolation;
    }
    lid
    {
        type            implicitExtrapolation;
    }
    frontAndBack
    {
        type            empty;
    }
}


// ************************************************************************* //
