/*--------------------------------*- C++ -*----------------------------------*\
| =========                 |                                                 |
| \\      /  F ield         | OpenFOAM: The Open Source CFD Toolbox           |
|  \\    /   O peration     | Version:  2.2.0                                 |
|   \\  /    A nd           | Web:      www.OpenFOAM.org                      |
|    \\/     M anipulation  |                                                 |
\*---------------------------------------------------------------------------*/
FoamFile
{
    version     2.0;
    format      ascii;
    class       volVectorField;
    location    "6";
    object      s;
}
// * * * * * * * * * * * * * * * * * * * * * * * * * * * * * * * * * * * * * //

dimensions      [0 1 -1 0 0 0 0];

internalField   nonuniform List<vector> 
7920
(
(0.507677 0.445099 0.106869)
(0.480439 0.420878 0.168092)
(0.450059 0.393805 0.232742)
(0.417051 0.364353 0.299681)
(0.381272 0.332508 0.367324)
(0.342263 0.298115 0.433423)
(0.301533 0.263546 0.49492)
(0.249915 0.221696 0.546118)
(0.542857 0.362591 0.148711)
(0.513598 0.342645 0.2085)
(0.48101 0.320347 0.271601)
(0.445622 0.296078 0.336961)
(0.407228 0.269849 0.403167)
(0.365746 0.24189 0.46838)
(0.321485 0.21364 0.530362)
(0.27136 0.183002 0.586296)
(0.558295 0.27527 0.215983)
(0.528289 0.260251 0.27201)
(0.494899 0.243453 0.331081)
(0.458655 0.225177 0.392264)
(0.419359 0.205473 0.454364)
(0.37713 0.184728 0.515926)
(0.332021 0.163882 0.575325)
(0.283014 0.14346 0.631014)
(0.554231 0.188136 0.315839)
(0.525311 0.178207 0.363307)
(0.493039 0.167039 0.413434)
(0.4579 0.15483 0.465516)
(0.419697 0.141625 0.518685)
(0.378645 0.127762 0.571919)
(0.334815 0.113879 0.624141)
(0.288523 0.101129 0.67451)
(0.537788 0.107005 0.436235)
(0.511525 0.101763 0.470126)
(0.481926 0.0957883 0.506481)
(0.449396 0.0891818 0.544977)
(0.413694 0.0819692 0.585188)
(0.37504 0.074363 0.626593)
(0.333558 0.0667449 0.668626)
(0.290266 0.060007 0.710926)
(0.522526 0.0342645 0.5268)
(0.498733 0.0327069 0.548826)
(0.471575 0.0309019 0.573408)
(0.441386 0.0288789 0.600561)
(0.407872 0.0266434 0.630223)
(0.371228 0.0242655 0.662235)
(0.33161 0.0218717 0.696353)
(0.29035 0.019783 0.732449)
(0.522526 -0.0342645 0.526801)
(0.498733 -0.0327069 0.548826)
(0.471575 -0.0309018 0.573408)
(0.441386 -0.0288789 0.600561)
(0.407872 -0.0266437 0.630223)
(0.371228 -0.0242663 0.662235)
(0.331609 -0.0218729 0.696353)
(0.29035 -0.0197845 0.73245)
(0.537788 -0.107005 0.436235)
(0.511525 -0.101763 0.470126)
(0.481926 -0.0957882 0.506482)
(0.449396 -0.0891819 0.544977)
(0.413694 -0.0819697 0.585188)
(0.375039 -0.0743639 0.626594)
(0.333558 -0.0667461 0.668627)
(0.290266 -0.0600083 0.710927)
(0.554231 -0.188136 0.315839)
(0.525311 -0.178207 0.363308)
(0.493039 -0.167039 0.413434)
(0.4579 -0.15483 0.465517)
(0.419697 -0.141626 0.518686)
(0.378645 -0.127763 0.57192)
(0.334815 -0.113879 0.624142)
(0.288523 -0.10113 0.674511)
(0.558294 -0.27527 0.215983)
(0.528289 -0.260251 0.272011)
(0.494898 -0.243453 0.331082)
(0.458654 -0.225177 0.392264)
(0.419358 -0.205473 0.454364)
(0.37713 -0.184728 0.515926)
(0.332021 -0.163883 0.575326)
(0.283013 -0.143461 0.631015)
(0.542855 -0.362589 0.148712)
(0.513596 -0.342644 0.2085)
(0.481009 -0.320345 0.271602)
(0.44562 -0.296077 0.336962)
(0.407227 -0.269848 0.403169)
(0.365745 -0.241889 0.468382)
(0.321484 -0.21364 0.530363)
(0.271359 -0.183001 0.586298)
(0.507678 -0.4451 0.106869)
(0.480441 -0.42088 0.168092)
(0.450061 -0.393806 0.232742)
(0.417053 -0.364354 0.299681)
(0.381274 -0.332509 0.367324)
(0.342264 -0.298115 0.433423)
(0.301534 -0.263546 0.49492)
(0.249916 -0.221696 0.546118)
(0.227308 0.199226 0.027773)
(0.229641 0.201035 0.050653)
(0.231087 0.202072 0.0770362)
(0.231437 0.202193 0.107111)
(0.230112 0.200988 0.14079)
(0.226396 0.198018 0.177525)
(0.21965 0.193422 0.215738)
(0.206781 0.185155 0.252534)
(0.256039 0.171142 0.040403)
(0.257669 0.172393 0.0640732)
(0.258222 0.17302 0.0912706)
(0.257456 0.172929 0.12221)
(0.254726 0.171843 0.156899)
(0.2494 0.169619 0.19503)
(0.240459 0.166322 0.235732)
(0.226985 0.162163 0.277594)
(0.283362 0.139875 0.063174)
(0.283782 0.140419 0.0872507)
(0.282958 0.140483 0.114809)
(0.280637 0.140019 0.146096)
(0.276186 0.138859 0.181221)
(0.26905 0.136998 0.220105)
(0.258277 0.134523 0.26239)
(0.243488 0.132232 0.307484)
(0.310875 0.105653 0.0998201)
(0.309389 0.105468 0.122594)
(0.30654 0.104952 0.148669)
(0.302104 0.104093 0.178346)
(0.29552 0.102816 0.211855)
(0.286354 0.101178 0.249341)
(0.273839 0.0993041 0.290851)
(0.258126 0.0979983 0.336407)
(0.336582 0.0670258 0.14667)
(0.332668 0.0664511 0.165829)
(0.327343 0.0656921 0.188107)
(0.320433 0.0647549 0.213912)
(0.311473 0.0636195 0.24364)
(0.30014 0.0623458 0.277681)
(0.285852 0.061037 0.31643)
(0.269036 0.0602321 0.360378)
(0.35335 0.0231833 0.183158)
(0.34755 0.0228703 0.198565)
(0.340348 0.0225008 0.217024)
(0.331611 0.0220802 0.239058)
(0.320947 0.0216077 0.265205)
(0.308103 0.0211082 0.296031)
(0.292611 0.0206222 0.332146)
(0.275011 0.0203369 0.3743)
(0.35335 -0.0231833 0.183158)
(0.34755 -0.0228703 0.198565)
(0.340348 -0.0225009 0.217024)
(0.331611 -0.0220803 0.239057)
(0.320947 -0.0216077 0.265204)
(0.308103 -0.0211081 0.296031)
(0.292611 -0.0206219 0.332146)
(0.275011 -0.0203363 0.374301)
(0.336582 -0.0670258 0.146671)
(0.332668 -0.0664511 0.16583)
(0.327343 -0.0656922 0.188107)
(0.320433 -0.064755 0.213911)
(0.311472 -0.0636196 0.243639)
(0.300139 -0.0623458 0.277681)
(0.285852 -0.0610367 0.316432)
(0.269036 -0.0602315 0.360381)
(0.310875 -0.105653 0.0998212)
(0.309388 -0.105468 0.122594)
(0.306539 -0.104952 0.148669)
(0.302103 -0.104093 0.178346)
(0.295519 -0.102816 0.211855)
(0.286354 -0.101178 0.249342)
(0.273839 -0.0993037 0.290855)
(0.258126 -0.0979977 0.336413)
(0.283362 -0.139875 0.0631754)
(0.283782 -0.140419 0.0872519)
(0.282957 -0.140483 0.11481)
(0.280636 -0.140019 0.146098)
(0.276185 -0.138859 0.181224)
(0.269049 -0.136998 0.220109)
(0.258277 -0.134522 0.262396)
(0.243488 -0.132232 0.307493)
(0.256038 -0.171141 0.0404037)
(0.257668 -0.172393 0.0640739)
(0.258221 -0.173019 0.0912714)
(0.257455 -0.172929 0.122211)
(0.254725 -0.171842 0.156902)
(0.249399 -0.169618 0.195035)
(0.240459 -0.166321 0.235739)
(0.226985 -0.162161 0.277604)
(0.227307 -0.199225 0.027774)
(0.22964 -0.201034 0.0506544)
(0.231085 -0.202071 0.077038)
(0.231435 -0.202192 0.107114)
(0.230111 -0.200986 0.140794)
(0.226395 -0.198017 0.177531)
(0.219649 -0.193421 0.215747)
(0.20678 -0.185154 0.252544)
(0.122307 0.107127 0.00422173)
(0.124257 0.108558 0.0141289)
(0.126138 0.109909 0.0256917)
(0.127864 0.111129 0.0390966)
(0.129189 0.112057 0.0544555)
(0.129779 0.11253 0.0717194)
(0.129016 0.112407 0.0904391)
(0.125922 0.11135 0.10941)
(0.138342 0.0924568 0.00574425)
(0.140056 0.0936626 0.0162936)
(0.141619 0.0948202 0.0285933)
(0.142917 0.0959015 0.0428644)
(0.143669 0.0968147 0.0592915)
(0.143556 0.0975312 0.0779821)
(0.141849 0.0979801 0.0988803)
(0.138402 0.0987963 0.121673)
(0.153956 0.0760092 0.00942196)
(0.155234 0.0768536 0.0206967)
(0.156276 0.0776684 0.0338234)
(0.156954 0.0784411 0.0490582)
(0.156988 0.0791271 0.0666536)
(0.156075 0.0797455 0.0868474)
(0.153589 0.0802986 0.109847)
(0.14945 0.0814204 0.135809)
(0.170149 0.0578452 0.0160054)
(0.170652 0.0582367 0.0276719)
(0.170843 0.0586115 0.0412519)
(0.1706 0.0589713 0.0570313)
(0.169679 0.0593074 0.0753186)
(0.167825 0.0596622 0.0964511)
(0.164546 0.060087 0.120815)
(0.159905 0.0610646 0.148867)
(0.185512 0.0369552 0.024811)
(0.18492 0.0369815 0.0362908)
(0.183965 0.0370007 0.0497122)
(0.182541 0.0370201 0.0653929)
(0.180452 0.0370475 0.0836921)
(0.177498 0.0371207 0.105028)
(0.173301 0.0372897 0.129915)
(0.167982 0.0378428 0.159012)
(0.195621 0.0128391 0.0318013)
(0.194124 0.0127892 0.042839)
(0.192248 0.0127384 0.0558347)
(0.189904 0.0126908 0.0711323)
(0.186932 0.0126521 0.0891277)
(0.183169 0.0126377 0.11029)
(0.178305 0.0126683 0.135203)
(0.172485 0.0128401 0.164634)
(0.195621 -0.0128391 0.0318015)
(0.194124 -0.0127892 0.042839)
(0.192248 -0.0127384 0.0558346)
(0.189904 -0.0126908 0.0711319)
(0.186932 -0.0126521 0.0891273)
(0.183169 -0.0126377 0.11029)
(0.178305 -0.0126683 0.135203)
(0.172485 -0.0128399 0.164635)
(0.185513 -0.0369552 0.0248115)
(0.18492 -0.0369816 0.0362909)
(0.183965 -0.0370007 0.0497119)
(0.182542 -0.0370201 0.0653923)
(0.180452 -0.0370476 0.0836916)
(0.177498 -0.0371208 0.105028)
(0.173301 -0.0372897 0.129915)
(0.167982 -0.0378426 0.159013)
(0.170149 -0.0578453 0.016006)
(0.170652 -0.0582367 0.0276722)
(0.170844 -0.0586115 0.0412519)
(0.170601 -0.0589712 0.0570313)
(0.169679 -0.0593073 0.0753187)
(0.167825 -0.0596621 0.0964517)
(0.164546 -0.0600868 0.120816)
(0.159905 -0.0610643 0.148868)
(0.153957 -0.0760094 0.0094224)
(0.155235 -0.0768537 0.020697)
(0.156277 -0.0776684 0.0338237)
(0.156954 -0.0784411 0.0490586)
(0.156988 -0.0791271 0.0666543)
(0.156075 -0.0797454 0.0868486)
(0.153589 -0.0802984 0.109848)
(0.14945 -0.08142 0.135811)
(0.138342 -0.0924568 0.00574467)
(0.140057 -0.0936625 0.0162941)
(0.141619 -0.09482 0.0285939)
(0.142917 -0.0959013 0.0428652)
(0.14367 -0.0968146 0.0592926)
(0.143556 -0.097531 0.0779836)
(0.141849 -0.0979798 0.0988822)
(0.138403 -0.0987958 0.121676)
(0.122308 -0.107128 0.00422186)
(0.124258 -0.108559 0.014129)
(0.126139 -0.10991 0.0256919)
(0.127866 -0.111129 0.039097)
(0.12919 -0.112058 0.054456)
(0.12978 -0.11253 0.0717205)
(0.129017 -0.112407 0.0904408)
(0.125922 -0.11135 0.109412)
(0.0655869 0.0574404 -0.00601681)
(0.0667247 0.0582746 -0.00176785)
(0.0678867 0.059117 0.00324423)
(0.0690434 0.0599544 0.00913161)
(0.0700889 0.0607258 0.0159907)
(0.0708804 0.0613759 0.0238649)
(0.0710639 0.0618089 0.0326548)
(0.0702845 0.0620448 0.0419099)
(0.0742058 0.0496023 -0.00996024)
(0.0752359 0.0503435 -0.00536343)
(0.0762499 0.0511063 8.89569e-05)
(0.0772042 0.0518882 0.00654418)
(0.0779765 0.0526604 0.0141565)
(0.078424 0.0534302 0.023073)
(0.0781629 0.0541593 0.0334112)
(0.0772 0.0552993 0.0451961)
(0.0825811 0.0407872 -0.0160689)
(0.0834215 0.041353 -0.0108568)
(0.084205 0.041944 -0.00465529)
(0.0848808 0.0425636 0.00271724)
(0.0853277 0.0432026 0.0114648)
(0.0854077 0.0438849 0.0218116)
(0.0848034 0.0446172 0.0340065)
(0.0835152 0.0457765 0.0483106)
(0.0912101 0.0310258 -0.0253027)
(0.0917029 0.0313497 -0.0190876)
(0.0921032 0.0316964 -0.0117375)
(0.0923631 0.0320742 -0.00305302)
(0.0923771 0.0324876 0.00719317)
(0.0920313 0.0329668 0.0192611)
(0.0910822 0.0335436 0.0334596)
(0.089573 0.034481 0.0501623)
(0.0993021 0.0197942 -0.0368106)
(0.0992874 0.0198964 -0.0291832)
(0.0991555 0.0200145 -0.0203112)
(0.0988672 0.0201567 -0.010003)
(0.0983388 0.020332 0.00196149)
(0.0974816 0.0205639 0.0158403)
(0.0961118 0.0208814 0.0319544)
(0.0942843 0.0214344 0.0507232)
(0.10458 0.00686851 -0.0456936)
(0.104139 0.0068756 -0.0368606)
(0.103572 0.00688883 -0.0267387)
(0.102849 0.00691181 -0.0151549)
(0.101904 0.00694894 -0.00190731)
(0.100664 0.00700941 0.0132476)
(0.0989805 0.00710495 0.030626)
(0.0969114 0.00728462 0.0506628)
(0.10458 -0.00686852 -0.0456935)
(0.104139 -0.00687561 -0.0368605)
(0.103572 -0.00688885 -0.0267388)
(0.102849 -0.00691186 -0.0151551)
(0.101904 -0.00694903 -0.00190749)
(0.100664 -0.00700952 0.0132475)
(0.0989806 -0.007105 0.0306261)
(0.0969114 -0.00728449 0.0506631)
(0.0993022 -0.0197942 -0.0368103)
(0.0992875 -0.0198964 -0.0291831)
(0.0991555 -0.0200145 -0.0203114)
(0.0988673 -0.0201568 -0.0100033)
(0.0983389 -0.0203321 0.00196127)
(0.0974817 -0.020564 0.0158403)
(0.0961119 -0.0208814 0.031955)
(0.0942845 -0.0214343 0.0507242)
(0.0912103 -0.0310259 -0.0253022)
(0.0917031 -0.0313497 -0.0190873)
(0.0921033 -0.0316965 -0.0117374)
(0.0923632 -0.0320742 -0.00305296)
(0.0923772 -0.0324876 0.00719343)
(0.0920314 -0.0329668 0.0192618)
(0.0910823 -0.0335435 0.0334609)
(0.0895733 -0.0344808 0.0501642)
(0.0825813 -0.0407873 -0.0160685)
(0.0834217 -0.0413531 -0.0108564)
(0.0842052 -0.041944 -0.0046549)
(0.084881 -0.0425636 0.00271775)
(0.0853278 -0.0432026 0.0114656)
(0.0854078 -0.0438849 0.0218129)
(0.0848037 -0.0446171 0.0340085)
(0.0835154 -0.0457763 0.0483132)
(0.0742058 -0.0496023 -0.00995993)
(0.0752359 -0.0503434 -0.00536307)
(0.07625 -0.0511061 8.93939e-05)
(0.0772042 -0.0518881 0.00654481)
(0.0779766 -0.0526603 0.0141575)
(0.0784241 -0.0534301 0.0230745)
(0.0781632 -0.0541592 0.0334135)
(0.0772003 -0.055299 0.0451992)
(0.0655873 -0.0574407 -0.0060165)
(0.0667252 -0.0582749 -0.00176742)
(0.0678871 -0.0591173 0.00324482)
(0.0690439 -0.0599546 0.00913245)
(0.0700894 -0.060726 0.0159919)
(0.0708809 -0.061376 0.0238667)
(0.0710643 -0.061809 0.0326573)
(0.0702847 -0.0620445 0.0419131)
(0.0324275 0.0283962 -0.0109715)
(0.0330061 0.0288149 -0.00946995)
(0.0336076 0.0292458 -0.00764665)
(0.0342187 0.0296834 -0.00543388)
(0.0347929 0.0301023 -0.00275919)
(0.0352656 0.0304812 0.000443415)
(0.0354611 0.0307708 0.00420574)
(0.0352316 0.0310194 0.00844664)
(0.036677 0.0245165 -0.0176322)
(0.037204 0.024895 -0.0159574)
(0.0377349 0.025292 -0.0138751)
(0.0382495 0.0257072 -0.0112838)
(0.0386939 0.0261306 -0.0080633)
(0.0390025 0.0265694 -0.00407588)
(0.0389915 0.0270071 0.000831912)
(0.0386768 0.0276837 0.00680512)
(0.0407932 0.0201501 -0.0286561)
(0.0412334 0.0204466 -0.0264596)
(0.0416588 0.0207627 -0.0237129)
(0.0420457 0.0211009 -0.0202823)
(0.042341 0.0214598 -0.0160092)
(0.0424815 0.0218535 -0.0107091)
(0.0423182 0.0222876 -0.00416689)
(0.0418582 0.022952 0.00385925)
(0.0450062 0.015312 -0.0458712)
(0.0452876 0.0154907 -0.042405)
(0.0455381 0.0156865 -0.0382079)
(0.0457355 0.0159039 -0.0331362)
(0.0458343 0.0161473 -0.027026)
(0.0457826 0.0164326 -0.0196919)
(0.0454681 0.0167769 -0.0109201)
(0.0449132 0.0173086 -0.00046027)
(0.0489272 0.00975505 -0.0676405)
(0.0489751 0.00982112 -0.0619901)
(0.048981 0.00989879 -0.0554637)
(0.0489269 0.00999239 -0.047946)
(0.0487775 0.0101074 -0.0393109)
(0.048493 0.0102558 -0.0294182)
(0.0479895 0.0104526 -0.0181011)
(0.0472919 0.0107697 -0.00514716)
(0.0514703 0.00338126 -0.0845417)
(0.0513211 0.00339102 -0.0768748)
(0.0511262 0.00340508 -0.0682768)
(0.0508718 0.0034253 -0.0586732)
(0.0505305 0.00345415 -0.0479845)
(0.0500705 0.0034963 -0.0361186)
(0.0494245 0.00355769 -0.0229526)
(0.0486169 0.00366158 -0.00830617)
(0.0514703 -0.00338127 -0.0845416)
(0.0513211 -0.00339103 -0.0768748)
(0.0511262 -0.00340509 -0.0682768)
(0.0508718 -0.00342534 -0.0586732)
(0.0505305 -0.00345424 -0.0479846)
(0.0500705 -0.00349641 -0.0361186)
(0.0494245 -0.00355779 -0.0229525)
(0.0486169 -0.00366159 -0.00830602)
(0.0489273 -0.00975507 -0.0676403)
(0.0489752 -0.00982114 -0.06199)
(0.048981 -0.00989881 -0.0554637)
(0.048927 -0.00999244 -0.0479461)
(0.0487776 -0.0101074 -0.0393109)
(0.0484931 -0.0102559 -0.029418)
(0.0479896 -0.0104527 -0.0181008)
(0.047292 -0.0107696 -0.00514667)
(0.0450063 -0.015312 -0.045871)
(0.0452878 -0.0154907 -0.0424048)
(0.0455382 -0.0156865 -0.0382078)
(0.0457356 -0.0159039 -0.0331361)
(0.0458343 -0.0161473 -0.0270258)
(0.0457827 -0.0164326 -0.0196915)
(0.0454682 -0.0167769 -0.0109195)
(0.0449133 -0.0173085 -0.000459393)
(0.0407934 -0.0201502 -0.0286559)
(0.0412336 -0.0204467 -0.0264594)
(0.0416589 -0.0207628 -0.0237127)
(0.0420458 -0.021101 -0.020282)
(0.0423411 -0.0214599 -0.0160088)
(0.0424816 -0.0218535 -0.0107085)
(0.0423183 -0.0222876 -0.00416598)
(0.0418583 -0.0229519 0.00386048)
(0.036677 -0.0245166 -0.0176321)
(0.037204 -0.024895 -0.0159572)
(0.037735 -0.025292 -0.0138748)
(0.0382496 -0.0257072 -0.0112834)
(0.038694 -0.0261306 -0.0080628)
(0.0390026 -0.0265694 -0.00407513)
(0.0389917 -0.0270071 0.000832992)
(0.0386769 -0.0276835 0.0068066)
(0.0324278 -0.0283965 -0.0109713)
(0.0330064 -0.0288152 -0.00946977)
(0.0336079 -0.0292461 -0.00764639)
(0.0342191 -0.0296836 -0.00543351)
(0.0347932 -0.0301025 -0.00275865)
(0.0352659 -0.0304814 0.000444214)
(0.0354614 -0.0307709 0.00420686)
(0.0352317 -0.0310193 0.00844819)
(0.0153822 0.0134694 -0.0135196)
(0.0156604 0.0136704 -0.0134307)
(0.0159515 0.0138787 -0.0132475)
(0.0162495 0.0140918 -0.0129269)
(0.0165334 0.014299 -0.0124121)
(0.0167735 0.0144909 -0.0116307)
(0.016888 0.0146446 -0.0104928)
(0.0168096 0.0147904 -0.0088904)
(0.0173987 0.0116304 -0.0215851)
(0.0176527 0.0118134 -0.0214163)
(0.0179106 0.0120066 -0.0210722)
(0.0181632 0.0122102 -0.0204774)
(0.0183862 0.0124202 -0.0195332)
(0.0185491 0.0126405 -0.0181134)
(0.0185677 0.0128647 -0.016058)
(0.0184484 0.0132068 -0.0131726)
(0.0193516 0.00955955 -0.0351506)
(0.0195657 0.00970433 -0.0345128)
(0.019775 0.00985975 -0.0335546)
(0.0199689 0.0100273 -0.0321697)
(0.0201235 0.0102069 -0.0302279)
(0.0202095 0.0104054 -0.0275736)
(0.020159 0.0106267 -0.0240219)
(0.0199744 0.0109591 -0.0193597)
(0.0213419 0.00726163 -0.0564836)
(0.0214831 0.00735059 -0.0544427)
(0.0216123 0.00744874 -0.0518853)
(0.0217194 0.00755842 -0.0486994)
(0.0217841 0.00768207 -0.0447596)
(0.0217825 0.00782728 -0.0399282)
(0.0216636 0.0080028 -0.0340545)
(0.0214361 0.00826776 -0.0269724)
(0.0231854 0.00462323 -0.0835287)
(0.0232193 0.00465797 -0.0789108)
(0.0232362 0.00469892 -0.0736149)
(0.023228 0.00474826 -0.0675688)
(0.0231792 0.00480873 -0.0607011)
(0.0230712 0.00488608 -0.052942)
(0.0228663 0.0049877 -0.0442187)
(0.0225742 0.00514656 -0.034447)
(0.0243765 0.00160158 -0.104541)
(0.0243198 0.00160757 -0.0974936)
(0.0242445 0.00161583 -0.0897082)
(0.0241444 0.0016273 -0.081166)
(0.0240076 0.00164318 -0.0718568)
(0.0238194 0.0016657 -0.0617759)
(0.0235494 0.00169773 -0.0509149)
(0.0232073 0.00174997 -0.0392466)
(0.0243765 -0.00160159 -0.104541)
(0.0243198 -0.00160758 -0.0974936)
(0.0242445 -0.00161585 -0.0897082)
(0.0241444 -0.00162733 -0.0811659)
(0.0240076 -0.00164325 -0.0718567)
(0.0238194 -0.00166578 -0.0617758)
(0.0235494 -0.00169781 -0.0509148)
(0.0232073 -0.00175001 -0.0392465)
(0.0231854 -0.00462325 -0.0835287)
(0.0232194 -0.00465799 -0.0789107)
(0.0232362 -0.00469894 -0.0736147)
(0.0232281 -0.00474829 -0.0675686)
(0.0231792 -0.00480878 -0.060701)
(0.0230713 -0.00488615 -0.0529418)
(0.0228664 -0.00498776 -0.0442185)
(0.0225743 -0.00514657 -0.0344468)
(0.021342 -0.00726166 -0.0564835)
(0.0214832 -0.00735061 -0.0544426)
(0.0216124 -0.00744875 -0.0518851)
(0.0217195 -0.00755844 -0.0486992)
(0.0217842 -0.00768209 -0.0447594)
(0.0217826 -0.00782731 -0.039928)
(0.0216636 -0.00800282 -0.0340543)
(0.0214362 -0.00826774 -0.0269722)
(0.0193517 -0.00955962 -0.0351505)
(0.0195658 -0.00970438 -0.0345127)
(0.0197752 -0.0098598 -0.0335544)
(0.0199691 -0.0100273 -0.0321695)
(0.0201236 -0.010207 -0.0302277)
(0.0202096 -0.0104055 -0.0275733)
(0.0201592 -0.0106267 -0.0240216)
(0.0199745 -0.0109591 -0.0193593)
(0.0173988 -0.0116305 -0.021585)
(0.0176528 -0.0118134 -0.0214162)
(0.0179107 -0.0120066 -0.0210721)
(0.0181633 -0.0122102 -0.0204773)
(0.0183863 -0.0124202 -0.019533)
(0.0185492 -0.0126405 -0.0181131)
(0.0185679 -0.0128647 -0.0160575)
(0.0184485 -0.0132067 -0.0131721)
(0.0153824 -0.0134696 -0.0135195)
(0.0156607 -0.0136706 -0.0134306)
(0.0159518 -0.0138788 -0.0132474)
(0.0162497 -0.014092 -0.0129268)
(0.0165336 -0.0142991 -0.0124119)
(0.0167737 -0.014491 -0.0116304)
(0.0168882 -0.0146447 -0.0104924)
(0.0168097 -0.0147904 -0.00888977)
(0.00678657 0.0059424 -0.0147282)
(0.00691043 0.00603142 -0.0153089)
(0.00704037 0.00612392 -0.015903)
(0.00717369 0.00621879 -0.016479)
(0.00730143 0.00631139 -0.0169878)
(0.00741051 0.00639771 -0.0173546)
(0.00746532 0.00646778 -0.0174633)
(0.00743586 0.00653628 -0.0171169)
(0.00767701 0.00513174 -0.0234639)
(0.00779019 0.00521308 -0.0240107)
(0.00790552 0.00529921 -0.0244922)
(0.00801886 0.00539011 -0.0248453)
(0.00811978 0.00548422 -0.0249821)
(0.00819476 0.00558311 -0.0247825)
(0.00820765 0.00568449 -0.024085)
(0.00815977 0.00583774 -0.0226742)
(0.00853919 0.00421834 -0.0382442)
(0.00863509 0.00428303 -0.0383487)
(0.00872939 0.00435266 -0.0382419)
(0.0088173 0.00442784 -0.0378307)
(0.00888858 0.00450867 -0.0369988)
(0.00893028 0.00459806 -0.0356049)
(0.00891328 0.00469808 -0.0334804)
(0.00883761 0.00484662 -0.0304285)
(0.00941526 0.00320363 -0.0615452)
(0.00947966 0.00324374 -0.0601849)
(0.00953926 0.00328808 -0.0584099)
(0.00958964 0.00333767 -0.0561237)
(0.00962201 0.00339363 -0.0532196)
(0.00962581 0.00345924 -0.0495833)
(0.00957915 0.0035385 -0.0450957)
(0.00948492 0.00365671 -0.0396341)
(0.0102243 0.00203882 -0.0911099)
(0.0102423 0.00205488 -0.0869866)
(0.0102533 0.00207379 -0.0822797)
(0.0102538 0.00209651 -0.0769376)
(0.010237 0.00212425 -0.0709156)
(0.0101948 0.00215952 -0.0641779)
(0.010111 0.00220563 -0.0566982)
(0.00998888 0.00227671 -0.0484562)
(0.0107457 0.000706042 -0.114084)
(0.0107245 0.00070898 -0.107335)
(0.0106956 0.000712963 -0.0999406)
(0.0106563 0.000718388 -0.091908)
(0.0106015 0.000725799 -0.0832607)
(0.0105246 0.000736153 -0.0740364)
(0.0104126 0.000750742 -0.0642827)
(0.0102689 0.000774145 -0.0540483)
(0.0107457 -0.000706046 -0.114084)
(0.0107245 -0.000708987 -0.107335)
(0.0106956 -0.000712975 -0.0999404)
(0.0106563 -0.000718414 -0.0919079)
(0.0106015 -0.000725842 -0.0832605)
(0.0105246 -0.000736209 -0.0740363)
(0.0104126 -0.0007508 -0.0642826)
(0.0102689 -0.000774182 -0.0540482)
(0.0102243 -0.00203883 -0.0911099)
(0.0102423 -0.00205489 -0.0869865)
(0.0102533 -0.0020738 -0.0822794)
(0.0102538 -0.00209653 -0.0769373)
(0.010237 -0.00212428 -0.0709153)
(0.0101948 -0.00215956 -0.0641777)
(0.010111 -0.00220568 -0.0566981)
(0.00998891 -0.00227673 -0.0484561)
(0.00941531 -0.00320365 -0.0615452)
(0.00947972 -0.00324376 -0.0601848)
(0.00953932 -0.0032881 -0.0584097)
(0.00958969 -0.00333769 -0.0561235)
(0.00962206 -0.00339365 -0.0532194)
(0.00962585 -0.00345926 -0.0495831)
(0.0095792 -0.00353852 -0.0450957)
(0.00948497 -0.00365672 -0.0396341)
(0.00853926 -0.00421838 -0.0382441)
(0.00863517 -0.00428306 -0.0383487)
(0.00872946 -0.00435269 -0.0382419)
(0.00881737 -0.00442787 -0.0378306)
(0.00888864 -0.0045087 -0.0369988)
(0.00893034 -0.00459809 -0.0356048)
(0.00891333 -0.0046981 -0.0334804)
(0.00883766 -0.00484661 -0.0304285)
(0.00767704 -0.00513176 -0.0234639)
(0.00779022 -0.00521309 -0.0240106)
(0.00790555 -0.00529921 -0.0244921)
(0.0080189 -0.00539011 -0.0248453)
(0.00811983 -0.00548422 -0.024982)
(0.00819481 -0.00558312 -0.0247824)
(0.00820772 -0.00568449 -0.0240849)
(0.00815984 -0.00583771 -0.0226742)
(0.00678669 -0.0059425 -0.0147282)
(0.00691055 -0.00603153 -0.0153089)
(0.0070405 -0.00612402 -0.015903)
(0.00717382 -0.00621887 -0.016479)
(0.00730155 -0.00631146 -0.0169878)
(0.00741062 -0.00639777 -0.0173545)
(0.00746542 -0.00646783 -0.0174632)
(0.00743588 -0.00653626 -0.0171167)
(0.00280532 0.00245634 -0.0152857)
(0.00285693 0.00249343 -0.0161756)
(0.00291117 0.00253204 -0.0171285)
(0.00296687 0.00257168 -0.0181184)
(0.0030204 0.00261049 -0.0190998)
(0.00306634 0.00264681 -0.0199968)
(0.00309021 0.00267661 -0.0206817)
(0.00307931 0.00270627 -0.0209163)
(0.00317428 0.00212189 -0.0243294)
(0.00322147 0.00215585 -0.0252063)
(0.00326964 0.00219187 -0.0260688)
(0.00331705 0.00222992 -0.0268595)
(0.00335947 0.00226939 -0.0274954)
(0.00339121 0.00231087 -0.0278596)
(0.00339775 0.00235362 -0.0277901)
(0.00337882 0.00241748 -0.0270623)
(0.00353183 0.00174476 -0.0396665)
(0.00357195 0.00177184 -0.0401136)
(0.00361151 0.00180103 -0.0403997)
(0.00364851 0.00183257 -0.0404381)
(0.00367878 0.00186654 -0.040119)
(0.00369691 0.00190408 -0.0393079)
(0.00369115 0.0019462 -0.0378443)
(0.00366096 0.00200801 -0.0355394)
(0.00389427 0.0013251 -0.063867)
(0.00392151 0.00134197 -0.062821)
(0.00394688 0.00136065 -0.0614076)
(0.00396852 0.00138154 -0.0595376)
(0.00398285 0.00140511 -0.057113)
(0.00398544 0.00143268 -0.0540306)
(0.00396744 0.00146598 -0.0501865)
(0.00392949 0.00151509 -0.0454782)
(0.00422806 0.000843144 -0.0945795)
(0.00423633 0.000850011 -0.0906861)
(0.00424183 0.00085809 -0.0862531)
(0.00424309 0.000867765 -0.0812387)
(0.00423733 0.000879547 -0.0756103)
(0.00422112 0.00089445 -0.0693483)
(0.00418786 0.000913869 -0.0624481)
(0.00413849 0.00094347 -0.0549195)
(0.00444268 0.000291915 -0.118445)
(0.00443495 0.00029322 -0.111837)
(0.00442417 0.000294966 -0.104627)
(0.0044092 0.000297317 -0.0968342)
(0.00438788 0.000300496 -0.0884974)
(0.0043575 0.000304892 -0.0796745)
(0.0043127 0.000311047 -0.0704391)
(0.00425452 0.000320801 -0.0608753)
(0.00444269 -0.000291917 -0.118445)
(0.00443496 -0.000293224 -0.111837)
(0.00442417 -0.000294974 -0.104627)
(0.0044092 -0.000297332 -0.096834)
(0.00438789 -0.00030052 -0.0884972)
(0.0043575 -0.000304924 -0.0796743)
(0.00431271 -0.000311081 -0.070439)
(0.00425453 -0.000320826 -0.0608753)
(0.00422808 -0.00084315 -0.0945795)
(0.00423635 -0.000850017 -0.090686)
(0.00424185 -0.000858098 -0.0862528)
(0.00424311 -0.000867778 -0.0812383)
(0.00423734 -0.000879568 -0.0756099)
(0.00422113 -0.000894476 -0.069348)
(0.00418788 -0.000913896 -0.062448)
(0.00413851 -0.000943487 -0.0549196)
(0.00389431 -0.00132511 -0.063867)
(0.00392154 -0.00134199 -0.062821)
(0.00394691 -0.00136066 -0.0614074)
(0.00396855 -0.00138155 -0.0595374)
(0.00398288 -0.00140512 -0.0571128)
(0.00398547 -0.0014327 -0.0540306)
(0.00396747 -0.00146599 -0.0501866)
(0.00392952 -0.0015151 -0.0454784)
(0.00353188 -0.00174478 -0.0396665)
(0.00357199 -0.00177186 -0.0401135)
(0.00361155 -0.00180105 -0.0403996)
(0.00364855 -0.00183259 -0.040438)
(0.00367881 -0.00186656 -0.0401189)
(0.00369694 -0.0019041 -0.039308)
(0.00369119 -0.00194621 -0.0378445)
(0.00366098 -0.00200801 -0.0355397)
(0.0031743 -0.00212191 -0.0243294)
(0.00322149 -0.00215586 -0.0252063)
(0.00326967 -0.00219187 -0.0260688)
(0.00331708 -0.00222992 -0.0268595)
(0.0033595 -0.00226939 -0.0274954)
(0.00339124 -0.00231088 -0.0278597)
(0.00339779 -0.00235363 -0.0277902)
(0.00337886 -0.00241747 -0.0270625)
(0.00280539 -0.0024564 -0.0152857)
(0.00285701 -0.00249349 -0.0161756)
(0.00291124 -0.00253209 -0.0171285)
(0.00296694 -0.00257173 -0.0181184)
(0.00302047 -0.00261054 -0.0190999)
(0.0030664 -0.00264684 -0.0199969)
(0.00309027 -0.00267664 -0.0206818)
(0.00307933 -0.00270627 -0.0209164)
(0.00103516 0.000906391 -0.0155204)
(0.00105438 0.000920237 -0.0165404)
(0.0010746 0.000934678 -0.0176443)
(0.00109538 0.000949519 -0.0188084)
(0.00111539 0.000964093 -0.0199886)
(0.00113263 0.000977771 -0.0211087)
(0.00114184 0.000989117 -0.022036)
(0.00113818 0.00100054 -0.0225149)
(0.00117164 0.00078322 -0.0246935)
(0.00118922 0.000795922 -0.0257094)
(0.0012072 0.000809414 -0.0267322)
(0.00122492 0.000823677 -0.0277071)
(0.00124082 0.000838496 -0.0285529)
(0.00125278 0.00085406 -0.0291544)
(0.00125557 0.000870171 -0.0293491)
(0.00124875 0.00089389 -0.0289088)
(0.001304 0.000644217 -0.0402643)
(0.00131901 0.000654368 -0.0408555)
(0.00133385 0.000665329 -0.0413071)
(0.00134776 0.000677178 -0.0415347)
(0.00135922 0.000689949 -0.0414314)
(0.0013662 0.000704047 -0.0408658)
(0.00136446 0.000719882 -0.0396804)
(0.00135356 0.00074282 -0.0376902)
(0.00143786 0.000489281 -0.0648414)
(0.00144817 0.000495641 -0.0639279)
(0.00145783 0.000502687 -0.0626669)
(0.00146613 0.000510563 -0.0609723)
(0.00147176 0.000519445 -0.0587497)
(0.00147305 0.000529803 -0.0559009)
(0.00146678 0.00054229 -0.0523279)
(0.00145297 0.000560497 -0.0479373)
(0.00156079 0.000311261 -0.0960332)
(0.00156419 0.000313895 -0.0922372)
(0.0015666 0.000316988 -0.0879202)
(0.00156747 0.000320678 -0.0830443)
(0.00156576 0.000325153 -0.0775824)
(0.00156018 0.00033078 -0.0715214)
(0.00154831 0.00033808 -0.064866)
(0.00153032 0.000349079 -0.0576388)
(0.00163963 0.00010774 -0.12027)
(0.00163721 0.000108261 -0.113723)
(0.00163369 0.000108948 -0.106591)
(0.00162864 0.00010986 -0.0989007)
(0.00162126 0.000111079 -0.090696)
(0.00161051 0.000112746 -0.0820433)
(0.00159443 0.000115064 -0.0730273)
(0.00157321 0.000118692 -0.0637472)
(0.00163964 -0.000107741 -0.12027)
(0.00163721 -0.000108263 -0.113723)
(0.00163369 -0.000108951 -0.106591)
(0.00162865 -0.000109867 -0.0989005)
(0.00162127 -0.000111091 -0.0906957)
(0.00161052 -0.000112763 -0.0820431)
(0.00159443 -0.000115082 -0.0730272)
(0.00157321 -0.000118705 -0.0637471)
(0.0015608 -0.000311264 -0.0960332)
(0.0015642 -0.000313898 -0.0922371)
(0.00156661 -0.000316992 -0.0879199)
(0.00156747 -0.000320685 -0.0830439)
(0.00156576 -0.000325164 -0.0775819)
(0.00156019 -0.000330793 -0.0715211)
(0.00154832 -0.000338094 -0.0648659)
(0.00153033 -0.000349089 -0.0576388)
(0.00143788 -0.000489287 -0.0648415)
(0.00144819 -0.000495647 -0.0639279)
(0.00145785 -0.000502693 -0.0626667)
(0.00146615 -0.000510569 -0.060972)
(0.00147177 -0.000519452 -0.0587495)
(0.00147306 -0.000529812 -0.0559008)
(0.0014668 -0.000542298 -0.0523281)
(0.00145298 -0.000560502 -0.0479376)
(0.00130403 -0.000644228 -0.0402643)
(0.00131903 -0.000654379 -0.0408555)
(0.00133387 -0.000665338 -0.041307)
(0.00134778 -0.000677188 -0.0415346)
(0.00135924 -0.000689959 -0.0414314)
(0.00136622 -0.000704057 -0.0408659)
(0.00136448 -0.00071989 -0.0396807)
(0.00135357 -0.000742823 -0.0376906)
(0.00117165 -0.000783229 -0.0246935)
(0.00118924 -0.000795929 -0.0257094)
(0.00120722 -0.000809419 -0.0267322)
(0.00122493 -0.000823682 -0.0277071)
(0.00124084 -0.000838502 -0.028553)
(0.00125279 -0.000854068 -0.0291545)
(0.00125559 -0.000870178 -0.0293494)
(0.00124877 -0.000893887 -0.0289092)
(0.0010352 -0.000906421 -0.0155204)
(0.00105441 -0.000920266 -0.0165404)
(0.00107463 -0.000934705 -0.0176443)
(0.00109541 -0.000949544 -0.0188084)
(0.00111543 -0.000964116 -0.0199887)
(0.00113266 -0.000977791 -0.0211089)
(0.00114187 -0.000989135 -0.0220362)
(0.0011382 -0.00100054 -0.0225152)
(0.0002128 0.000186322 -0.0156026)
(0.000216879 0.000189268 -0.0166683)
(0.000221193 0.000192361 -0.0178253)
(0.000225638 0.000195548 -0.0190505)
(0.00022995 0.0001987 -0.0203006)
(0.000233706 0.000201681 -0.0214991)
(0.000235866 0.000204213 -0.0225114)
(0.000235369 0.000206808 -0.0230763)
(0.000241055 0.00016115 -0.0248208)
(0.000244805 0.00016387 -0.0258854)
(0.000248664 0.000166775 -0.0269645)
(0.000252479 0.00016985 -0.028004)
(0.000255941 0.000173057 -0.0289236)
(0.000258595 0.000176419 -0.0296083)
(0.000259422 0.000179923 -0.0298959)
(0.000258174 0.000184894 -0.0295568)
(0.000268497 0.000132657 -0.0404725)