/*--------------------------------*- C++ -*----------------------------------*\
| =========                 |                                                 |
| \\      /  F ield         | OpenFOAM: The Open Source CFD Toolbox           |
|  \\    /   O peration     | Version:  2.2.0                                 |
|   \\  /    A nd           | Web:      www.OpenFOAM.org                      |
|    \\/     M anipulation  |                                                 |
\*---------------------------------------------------------------------------*/
FoamFile
{
    version     2.0;
    format      ascii;
    class       volScalarField;
    location    "6";
    object      Theta;
}
// * * * * * * * * * * * * * * * * * * * * * * * * * * * * * * * * * * * * * //

dimensions      [0 2 -2 0 0 0 0];

internalField   nonuniform List<scalar> 
7920
(
2.69363
2.90063
3.03648
3.21828
3.39649
3.64534
3.69835
4.54008
2.67073
2.85725
2.978
3.13612
3.29354
3.47272
3.58779
3.94538
2.63945
2.8106
2.9214
3.06526
3.21056
3.36114
3.50253
3.69558
2.60074
2.75527
2.85449
2.98285
3.11147
3.23825
3.36923
3.47378
2.56179
2.70629
2.79898
2.91932
3.03961
3.15735
3.28251
3.35881
2.53555
2.67513
2.76454
2.88107
2.99725
3.11096
3.23189
3.29706
2.53555
2.67513
2.76454
2.88107
2.99726
3.11096
3.23188
3.29705
2.56179
2.70629
2.79898
2.91933
3.03961
3.15735
3.28249
3.35879
2.60074
2.75527
2.85449
2.98286
3.11148
3.23824
3.3692
3.47376
2.63945
2.8106
2.92141
3.06527
3.21058
3.36114
3.50251
3.69555
2.67073
2.85724
2.97799
3.13611
3.29352
3.4727
3.58774
3.94535
2.69363
2.90067
3.0365
3.21826
3.39645
3.64528
3.69831
4.54003
2.30042
2.36408
2.40301
2.46026
2.51912
2.59779
2.64512
2.86422
2.30656
2.36456
2.39942
2.4498
2.5026
2.55968
2.629
2.68937
2.31529
2.36744
2.39817
2.44212
2.48769
2.53231
2.59478
2.61138
2.32866
2.3749
2.40185
2.44006
2.4793
2.51595
2.57088
2.57028
2.34478
2.38543
2.4091
2.44246
2.47648
2.50768
2.55457
2.54775
2.35667
2.39348
2.41506
2.4454
2.47636
2.50474
2.547
2.53935
2.35667
2.39348
2.41506
2.4454
2.47637
2.50474
2.547
2.53935
2.34478
2.38543
2.4091
2.44246
2.47649
2.50768
2.55457
2.54774
2.32866
2.3749
2.40185
2.44006
2.4793
2.51596
2.57088
2.57027
2.31529
2.36744
2.39817
2.44212
2.4877
2.53231
2.59478
2.61136
2.30656
2.36456
2.39942
2.44981
2.50261
2.55969
2.629
2.68936
2.30042
2.36408
2.403
2.46025
2.51912
2.59779
2.64512
2.86425
2.16148
2.18424
2.20104
2.22407
2.25029
2.28061
2.31717
2.36218
2.16542
2.18493
2.19922
2.21846
2.24061
2.26191
2.30184
2.29024
2.17098
2.18709
2.19874
2.21423
2.23173
2.24749
2.27739
2.26136
2.17944
2.19254
2.20215
2.2148
2.22914
2.24208
2.26675
2.25466
2.18947
2.19965
2.20741
2.2175
2.22911
2.23967
2.25956
2.25031
2.19683
2.20499
2.21159
2.22011
2.23016
2.23949
2.25694
2.25004
2.19683
2.20499
2.21158
2.22011
2.23016
2.23949
2.25694
2.25004
2.18947
2.19965
2.20741
2.2175
2.22911
2.23967
2.25955
2.2503
2.17944
2.19254
2.20216
2.2148
2.22914
2.24208
2.26675
2.25466
2.17098
2.18709
2.19875
2.21423
2.23174
2.2475
2.2774
2.26136
2.16542
2.18493
2.19922
2.21845
2.24061
2.26191
2.30184
2.29024
2.16148
2.18425
2.20104
2.22407
2.25029
2.2806
2.31717
2.36221
2.08655
2.09683
2.10468
2.11529
2.12786
2.14148
2.16331
2.17301
2.08868
2.09752
2.10419
2.11306
2.12358
2.13333
2.15489
2.14191
2.09164
2.09901
2.10448
2.11166
2.11993
2.12733
2.14275
2.13155
2.09609
2.10232
2.10699
2.11308
2.12009
2.1266
2.13934
2.1329
2.10128
2.10636
2.11028
2.11535
2.12124
2.12686
2.1373
2.13358
2.10506
2.10933
2.11277
2.1172
2.12247
2.12764
2.13697
2.13498
2.10506
2.10933
2.11277
2.1172
2.12247
2.12764
2.13696
2.13498
2.10128
2.10636
2.11028
2.11535
2.12124
2.12686
2.13729
2.13357
2.09609
2.10233
2.107
2.11308
2.12009
2.1266
2.13934
2.13289
2.09164
2.09901
2.10448
2.11166
2.11994
2.12733
2.14275
2.13154
2.08868
2.09752
2.10419
2.11306
2.12358
2.13333
2.15489
2.14191
2.08655
2.09683
2.10468
2.11529
2.12785
2.14148
2.1633
2.17304
2.04279
2.04701
2.05034
2.05474
2.06005
2.06559
2.07569
2.07703
2.04383
2.04736
2.0501
2.05366
2.05792
2.06169
2.07115
2.06278
2.04526
2.04811
2.05028
2.05305
2.05626
2.05897
2.06536
2.05856
2.0474
2.04975
2.05155
2.05383
2.05647
2.05881
2.06392
2.05985
2.04989
2.05172
2.05318
2.05501
2.05716
2.05912
2.06317
2.06062
2.05169
2.05315
2.0544
2.05595
2.05782
2.05959
2.06314
2.0615
2.05169
2.05315
2.0544
2.05595
2.05782
2.05959
2.06314
2.0615
2.04989
2.05172
2.05318
2.05501
2.05715
2.05912
2.06317
2.06062
2.0474
2.04975
2.05155
2.05383
2.05647
2.05881
2.06392
2.05985
2.04526
2.04811
2.05028
2.05305
2.05626
2.05897
2.06536
2.05857
2.04383
2.04736
2.0501
2.05366
2.05792
2.06169
2.07115
2.06278
2.04279
2.04702
2.05034
2.05474
2.06005
2.06559
2.07569
2.07705
2.0203
2.02227
2.02388
2.02597
2.02849
2.03113
2.03597
2.03641
2.02079
2.02245
2.02378
2.02548
2.02751
2.02936
2.03377
2.03004
2.02148
2.02283
2.02391
2.02525
2.02681
2.0282
2.03121
2.02832
2.02248
2.02361
2.02453
2.02566
2.02697
2.02819
2.03064
2.02903
2.02364
2.02455
2.02531
2.02624
2.02734
2.0284
2.03038
2.02949
2.02448
2.02522
2.02589
2.0267
2.02767
2.02864
2.03041
2.02994
2.02448
2.02522
2.02589
2.0267
2.02767
2.02864
2.03041
2.02994
2.02364
2.02455
2.02531
2.02624
2.02734
2.0284
2.03038
2.02949
2.02248
2.02361
2.02453
2.02566
2.02697
2.02819
2.03064
2.02903
2.02148
2.02283
2.02391
2.02525
2.02682
2.0282
2.03122
2.02832
2.02079
2.02245
2.02378
2.02548
2.02751
2.02936
2.03376
2.03004
2.0203
2.02227
2.02388
2.02596
2.02849
2.03113
2.03597
2.03643
2.00896
2.00978
2.01047
2.01136
2.01243
2.01356
2.01561
2.01575
2.00918
2.00987
2.01044
2.01115
2.012
2.01279
2.01462
2.01302
2.00948
2.01004
2.0105
2.01107
2.01172
2.0123
2.01355
2.01232
2.00992
2.01039
2.01078
2.01125
2.01179
2.01231
2.01331
2.01263
2.01043
2.0108
2.01112
2.01151
2.01196
2.01241
2.01322
2.01284
2.01079
2.0111
2.01138
2.01171
2.01211
2.01252
2.01324
2.01304
2.01079
2.0111
2.01138
2.01171
2.01211
2.01252
2.01324
2.01304
2.01043
2.0108
2.01112
2.01151
2.01196
2.01241
2.01322
2.01284
2.00992
2.01039
2.01078
2.01125
2.01179
2.01231
2.01331
2.01263
2.00948
2.01004
2.0105
2.01107
2.01172
2.0123
2.01355
2.01232
2.00918
2.00987
2.01044
2.01115
2.012
2.01279
2.01462
2.01302
2.00896
2.00979
2.01047
2.01136
2.01243
2.01356
2.01561
2.01575
2.0037
2.00404
2.00433
2.0047
2.00515
2.00562
2.00646
2.00654
2.0038
2.00408
2.00432
2.00462
2.00498
2.00531
2.00605
2.00546
2.00392
2.00416
2.00435
2.00459
2.00487
2.00513
2.00564
2.00519
2.0041
2.0043
2.00447
2.00467
2.00491
2.00513
2.00555
2.00531
2.00431
2.00447
2.00461
2.00478
2.00498
2.00518
2.00552
2.0054
2.00446
2.00459
2.00472
2.00487
2.00504
2.00522
2.00553
2.00548
2.00446
2.00459
2.00472
2.00487
2.00504
2.00522
2.00553
2.00548
2.00431
2.00447
2.00461
2.00478
2.00498
2.00518
2.00552
2.0054
2.0041
2.0043
2.00447
2.00467
2.00491
2.00513
2.00555
2.00531
2.00392
2.00416
2.00435
2.00459
2.00487
2.00513
2.00564
2.00519
2.0038
2.00408
2.00432
2.00462
2.00498
2.00531
2.00605
2.00546
2.0037
2.00404
2.00433
2.0047
2.00515
2.00562
2.00646
2.00654
2.00137
2.00149
2.0016
2.00174
2.0019
2.00208
2.00238
2.00242
2.0014
2.00151
2.0016
2.00171
2.00184
2.00197
2.00223
2.00204
2.00145
2.00153
2.00161
2.0017
2.00181
2.00191
2.00209
2.00195
2.00152
2.00159
2.00165
2.00173
2.00182
2.00191
2.00206
2.00199
2.00159
2.00165
2.00171
2.00177
2.00185
2.00193
2.00205
2.00202
2.00165
2.0017
2.00175
2.0018
2.00187
2.00194
2.00206
2.00205
2.00165
2.0017
2.00175
2.0018
2.00187
2.00194
2.00206
2.00205
2.00159
2.00165
2.00171
2.00177
2.00185
2.00193
2.00205
2.00202
2.00152
2.00159
2.00165
2.00173
2.00182
2.00191
2.00206
2.00199
2.00145
2.00154
2.00161
2.0017
2.00181
2.00191
2.00209
2.00195
2.0014
2.00151
2.0016
2.00171
2.00184
2.00197
2.00223
2.00204
2.00137
2.00149
2.0016
2.00174
2.0019
2.00208
2.00238
2.00242
2.00028
2.0003
2.00032
2.00035
2.00038
2.00041
2.00047
2.00047
2.00029
2.00031
2.00032
2.00034
2.00037
2.00039
2.00044
2.0004
2.0003
2.00031
2.00033
2.00034
2.00036
2.00038
2.00041
2.00039
2.00031
2.00032
2.00034
2.00035
2.00037
2.00038
2.00041
2.0004
2.00033
2.00034
2.00035
2.00036
2.00037
2.00039
2.00041
2.0004
2.00034
2.00035
2.00036
2.00037
2.00038
2.00039
2.00041
2.00041
2.00034
2.00035
2.00036
2.00037
2.00038
2.00039
2.00041
2.00041
2.00033
2.00034
2.00035
2.00036
2.00037
2.00039
2.00041
2.0004
2.00031
2.00032
2.00034
2.00035
2.00037
2.00038
2.00041
2.0004
2.0003
2.00031
2.00033
2.00034
2.00036
2.00038
2.00041
2.00039
2.00029
2.00031
2.00032
2.00034
2.00037
2.00039
2.00044
2.0004
2.00028
2.0003
2.00032
2.00035
2.00038
2.00041
2.00047
2.00047
1.99952
1.99948
1.99946
1.99942
1.99937
1.99933
1.99923
1.99925
1.99951
1.99948
1.99946
1.99943
1.9994
1.99938
1.99929
1.99941
1.99949
1.99947
1.99946
1.99944
1.99942
1.99941
1.99936
1.99946
1.99947
1.99946
1.99945
1.99943
1.99942
1.99941
1.99938
1.99945
1.99944
1.99944
1.99943
1.99942
1.99941
1.99941
1.99939
1.99944
1.99943
1.99942
1.99942
1.99941
1.99941
1.9994
1.99939
1.99943
1.99943
1.99942
1.99942
1.99941
1.99941
1.9994
1.99939
1.99943
1.99944
1.99944
1.99943
1.99942
1.99941
1.99941
1.99939
1.99944
1.99947
1.99946
1.99945
1.99943
1.99942
1.99941
1.99938
1.99945
1.99949
1.99947
1.99946
1.99944
1.99942
1.99941
1.99936
1.99946
1.99951
1.99948
1.99946
1.99943
1.9994
1.99938
1.99929
1.99941
1.99952
1.99948
1.99946
1.99942
1.99937
1.99933
1.99923
1.99925
1.99777
1.99747
1.99722
1.99691
1.99653
1.99611
1.99545
1.99521
1.99771
1.99745
1.99723
1.99696
1.99663
1.99631
1.9957
1.99591
1.99764
1.99741
1.99722
1.99698
1.99671
1.99643
1.99597
1.9961
1.99753
1.99732
1.99715
1.99694
1.99669
1.99644
1.99603
1.99603
1.9974
1.99722
1.99707
1.99688
1.99665
1.99641
1.99606
1.99599
1.99731
1.99715
1.99701
1.99683
1.99662
1.99639
1.99606
1.99594
1.99731
1.99715
1.99701
1.99683
1.99662
1.99639
1.99606
1.99594
1.9974
1.99722
1.99707
1.99688
1.99665
1.99641
1.99606
1.99599
1.99753
1.99732
1.99715
1.99694
1.99669
1.99644
1.99603
1.99603
1.99764
1.99741
1.99722
1.99698
1.99671
1.99643
1.99597
1.9961
1.99771
1.99745
1.99723
1.99696
1.99663
1.99631
1.9957
1.99591
1.99777
1.99747
1.99722
1.99691
1.99653
1.99611
1.99545
1.9952
1.99446
1.99413
1.99389
1.99355
1.99313
1.99273
1.99174
1.99206
1.99432
1.99409
1.99392
1.9937
1.99341
1.99325
1.99232
1.99398
1.99413
1.99399
1.9939
1.99379
1.99364
1.99363
1.99313
1.99455
1.99385
1.99378
1.99373
1.99368
1.99362
1.99364
1.99332
1.99435
1.99352
1.99352
1.99352
1.99353
1.99353
1.99361
1.99343
1.99424
1.99328
1.99333
1.99336
1.99341
1.99345
1.99354
1.99344
1.99411
1.99328
1.99333
1.99336
1.99341
1.99345
1.99354
1.99344
1.99411
1.99352
1.99352
1.99352
1.99353
1.99353
1.99361
1.99343
1.99424
1.99385
1.99378
1.99373
1.99369
1.99362
1.99364
1.99332
1.99435
1.99413
1.99399
1.9939
1.99379
1.99364
1.99363
1.99313
1.99455
1.99432
1.99409
1.99392
1.9937
1.99341
1.99325
1.99232
1.99398
1.99446
1.99413
1.99389
1.99355
1.99313
1.99273
1.99174
1.99206
1.97277
1.96638
1.96203
1.95594
1.94921
1.94173
1.93197
1.92352
1.97205
1.96612
1.96213
1.95659
1.95048
1.94429
1.93435
1.93411
1.97104
1.96558
1.96198
1.95699
1.95161
1.94623
1.9381
1.93803
1.96954
1.96447
1.96114
1.95652
1.95157
1.94653
1.93929
1.93811
1.96779
1.96312
1.96004
1.95578
1.95121
1.94649
1.94003
1.93814
1.96653
1.96213
1.95922
1.95517
1.95083
1.94627
1.9402
1.9378
1.96653
1.96213
1.95922
1.95517
1.95083
1.94627
1.9402
1.9378
1.96779
1.96312
1.96004
1.95578
1.95121
1.94649
1.94003
1.93814
1.96954
1.96447
1.96114
1.95652
1.95157
1.94653
1.93929
1.93811
1.97104
1.96558
1.96198
1.95699
1.95161
1.94623
1.9381
1.93803
1.97205
1.96612
1.96213
1.95659
1.95048
1.94429
1.93435
1.93411
1.97277
1.96638
1.96203
1.95594
1.94921
1.94173
1.93197
1.92351
1.97568
1.97053
1.96712
1.96234
1.95711
1.95138
1.94387
1.93761
1.97504
1.97034
1.96728
1.96303
1.95839
1.95388
1.94612
1.94756
1.97414
1.96993
1.96726
1.96354
1.9596
1.95586
1.94979
1.95142
1.97281
1.96901
1.96661
1.96327
1.95975
1.95635
1.95111
1.95169
1.97127
1.96788
1.96573
1.96275
1.9596
1.9565
1.95198
1.95187
1.97014
1.96704
1.96506
1.96229
1.95935
1.9564
1.95224
1.95163
1.97014
1.96704
1.96506
1.96229
1.95935
1.9564
1.95224
1.95163
1.97127
1.96788
1.96573
1.96275
1.9596
1.9565
1.95198
1.95187
1.97281
1.96901
1.96661
1.96327
1.95975
1.95635
1.95111
1.95169
1.97414
1.96993
1.96726
1.96354
1.9596
1.95586
1.94979
1.95142
1.97504
1.97034
1.96728
1.96303
1.95839
1.95388
1.94612
1.94756
1.97568
1.97053
1.96712
1.96234
1.95711
1.95138
1.94387
1.9376
2.73224
2.95503
3.10159
3.29695
3.48896
3.75104
3.81808
4.66524
2.72358
2.92918
3.06278
3.23671
3.41043
3.60319
3.74217
4.08637
2.71295
2.90565
3.03019
3.19009
3.35044
3.51145
3.66891
3.84023
2.70226
2.88124
2.99545
3.14043
3.28335
3.41918
3.56035
3.64631
2.69403
2.86455
2.9726
3.10889
3.24149
3.36573
3.49361
3.55345
2.68883
2.85446
2.95886
3.09013
3.21667
3.33465
3.45327
3.50342
2.68693
2.85161
2.95534
3.08572
3.21134
3.32827
3.4461
3.49436
2.68819
2.85575
2.96166
3.09516
3.22482
3.34563
3.47095
3.52393
2.69212
2.86597
2.97654
3.11674
3.2547
3.38464
3.52236
3.59483
2.69777
2.88243
3.00116
3.15336
3.30552
3.45585
3.60726
3.74709
2.70252
2.89798
3.02459
3.1893
3.35412
3.53447
3.67574
3.97156
2.70322
2.91126
3.04714
3.22813
3.40532
3.64489
3.7076
4.45999
2.27014
2.3338
2.37216
2.42935
2.4875
2.56782
2.60896
2.85299
2.26615
2.32503
2.35953
2.41047
2.46246
2.52251
2.57871
2.67699
2.26086
2.31667
2.34885
2.39622
2.44452
2.49602
2.55479
2.60955
2.25574
2.3085
2.33828
2.38214
2.42633
2.47098
2.52723
2.55418
2.25217
2.30301
2.33133
2.37304
2.41463
2.45546
2.50912
2.52166
2.25093
2.30078
2.32835
2.36896
2.4092
2.44817
2.50006
2.50636
2.25246
2.3024
2.33008
2.37081
2.41116
2.45034
2.50207
2.50945
2.25689
2.30807
2.33677
2.37892
2.421
2.46272
2.51599
2.53297
2.26394
2.31727
2.34764
2.39217
2.43702
2.48318
2.53767
2.57381
2.27314
2.33023
2.36371
2.41274
2.46285
2.51854
2.5756
2.65445
2.28307
2.34274
2.37799
2.42983
2.48205
2.54571
2.59009
2.72477
2.29333
2.35931
2.40004
2.46044
2.52191
2.61239
2.64654
2.96062
2.14061
2.16429
2.1817
2.20583
2.23292
2.26629
2.29909
2.36939
2.13852
2.15946
2.17452
2.19518
2.21811
2.24304
2.2743
2.29554
2.13586
2.15516
2.16892
2.18779
2.20859
2.23073
2.25928
2.27478
2.13342
2.1513
2.16389
2.18119
2.20016
2.21998
2.24658
2.25721
2.13184
2.14883
2.1607
2.17703
2.19487
2.21326
2.23858
2.24591
2.13154
2.14808
2.15959
2.17543
2.1927
2.21038
2.23498
2.24084
2.13276
2.14933
2.16086
2.17674
2.19403
2.21181
2.23615
2.24308
2.13556
2.15268
2.16467
2.18115
2.19914
2.21803
2.24262
2.25413
2.13981
2.15786
2.1706
2.1881
2.2072
2.22788
2.25239
2.27163
2.14521
2.16505
2.17931
2.19891
2.22046
2.24522
2.27131
2.30738
2.15104
2.17195
2.18691
2.2075
2.22972
2.25641
2.27723
2.3281
2.15722
2.18182
2.20012
2.22563
2.25412
2.29351
2.32056
2.44193
2.07363
2.08373
2.0914
2.10194
2.11432
2.1289
2.14804
2.17138
2.07267
2.08148
2.088
2.0969
2.10711
2.11798
2.13434
2.13858
2.07149
2.07962
2.08555
2.09367
2.10289
2.11277
2.1269
2.13179
2.07048
2.07811
2.08361
2.09117
2.09971
2.10886
2.12193
2.12667
2.06994
2.07729
2.08254
2.08979
2.09795
2.10666
2.11914
2.12339
2.07005
2.0773
2.08245
2.08959
2.0976
2.10614
2.11837
2.12253
2.07091
2.07824
2.08345
2.09067
2.09876
2.10745
2.11959
2.12458
2.07256
2.08015
2.08561
2.09313
2.10157
2.1108
2.12307
2.1303
2.07491
2.08293
2.08875
2.09674
2.10569
2.11572
2.12797
2.13857
2.07783
2.08665
2.09318
2.10212
2.11222
2.12404
2.13728
2.15489
2.08095
2.09026
2.09713
2.1065
2.11691
2.12929
2.14061
2.16246
2.08428
2.0955
2.10416
2.11609
2.12997
2.14848
2.16567
2.21789
2.0358
2.03992
2.04315
2.04751
2.05273
2.0587
2.06756
2.07542
2.03537
2.03889
2.04155
2.04513
2.04928
2.05356
2.06072
2.06044
2.03485
2.03805
2.04043
2.04364
2.04731
2.05115
2.05706
2.05772
2.03444
2.03743
2.03962
2.04258
2.04595
2.04951
2.05486
2.05592
2.03427
2.03714
2.03922
2.04206
2.04527
2.04867
2.05373
2.05483
2.03441
2.03725
2.0393
2.0421
2.04526
2.04861
2.05355
2.05477
2.03491
2.0378
2.03988
2.04273
2.04594
2.04936
2.05427
2.05595
2.03579
2.03879
2.04099
2.04398
2.04735
2.05102
2.05599
2.0587
2.03699
2.04019
2.04256
2.04576
2.04937
2.0534
2.05839
2.06254
2.03846
2.04202
2.04471
2.04834
2.05247
2.05728
2.0628
2.06987
2.04002
2.04381
2.04668
2.05051
2.05481
2.05983
2.06467
2.07313
2.04167
2.04635
2.05008
2.05513
2.06112
2.06896
2.07709
2.0989
2.01678
2.01868
2.02022
2.02225
2.0247
2.02749
2.03176
2.03504
2.0166
2.01823
2.01951
2.02119
2.02315
2.02519
2.0286
2.0284
2.01639
2.01787
2.01902
2.02054
2.02228
2.02412
2.02694
2.02726
2.01622
2.01762
2.01869
2.0201
2.02172
2.02345
2.02601
2.02662
2.01618
2.01753
2.01855
2.01992
2.02147
2.02314
2.02557
2.02626
2.01627
2.01762
2.01864
2.01999
2.02153
2.02319
2.02557
2.02635
2.01654
2.01791
2.01894
2.02032
2.02189
2.02359
2.02597
2.02697
2.01697
2.0184
2.01949
2.02093
2.02257
2.02439
2.0268
2.02826
2.01755
2.01907
2.02023
2.02178
2.02353
2.0255
2.02795
2.03004
2.01825
2.01992
2.02124
2.02297
2.02495
2.02726
2.02996
2.03328
2.019
2.02077
2.02218
2.02401
2.02609
2.0285
2.03096
2.0348
2.01977
2.02195
2.02374
2.02612
2.02896
2.03262
2.03668
2.04633
2.00734
2.00813
2.00878
2.00964
2.01067
2.01185
2.01367
2.01496
2.00726
2.00794
2.00848
2.00919
2.01001
2.01087
2.01231
2.01216
2.00718
2.00779
2.00828
2.00891
2.00964
2.01041
2.01158
2.01168
2.00711
2.00769
2.00814
2.00873
2.00941
2.01013
2.0112
2.01143
2.0071
2.00767
2.0081
2.00867
2.00932
2.01001
2.01102
2.0113
2.00715
2.00772
2.00815
2.00871
2.00936
2.01005
2.01104
2.01136
2.00728
2.00785
2.00829
2.00887
2.00953
2.01024
2.01123
2.01165
2.00748
2.00807
2.00854
2.00914
2.00983
2.0106
2.01161
2.01222
2.00774
2.00837
2.00887
2.00952
2.01026
2.0111
2.01213
2.013
2.00805
2.00875
2.00931
2.01004
2.01088
2.01186
2.013
2.01437
2.00838
2.00913
2.00973
2.01051
2.0114
2.01242
2.01349
2.01508
2.00872
2.00964
2.01041
2.01142
2.01263
2.01417
2.01595
2.01995
2.00302
2.00334
2.00361
2.00397
2.00439
2.00488
2.00563
2.00615
2.00299
2.00327
2.0035
2.00379
2.00413
2.0045
2.00509
2.00505
2.00295
2.00321
2.00341
2.00368
2.00399
2.00431
2.0048
2.00486
2.00293
2.00317
2.00336
2.00361
2.0039
2.00421
2.00465
2.00477
2.00293
2.00316
2.00335
2.00359
2.00387
2.00416
2.00459
2.00473
2.00295
2.00319
2.00337
2.00361
2.00389
2.00418
2.0046
2.00476
2.00301
2.00325
2.00344
2.00368
2.00396
2.00427
2.00468
2.00488
2.00309
2.00334
2.00354
2.0038
2.00409
2.00442
2.00484
2.00512
2.0032
2.00346
2.00368
2.00395
2.00427
2.00462
2.00506
2.00543
2.00333
2.00362
2.00386
2.00416
2.00452
2.00493
2.00541
2.00598
2.00347
2.00378
2.00403
2.00436
2.00474
2.00517
2.00563
2.00628
2.00361
2.00398
2.0043
2.00472
2.00522
2.00586
2.0066
2.00819
2.00111
2.00123
2.00133
2.00146
2.00162
2.0018
2.00207
2.00226
2.0011
2.0012
2.00129
2.0014
2.00153
2.00166
2.00188
2.00188
2.00109
2.00118
2.00126
2.00136
2.00147
2.0016
2.00177
2.00181
2.00108
2.00117
2.00124
2.00134
2.00144
2.00156
2.00172
2.00178
2.00108
2.00117
2.00124
2.00133
2.00143
2.00155
2.0017
2.00176
2.00109
2.00118
2.00125
2.00134
2.00144
2.00156
2.00171
2.00178
2.00111
2.0012
2.00127
2.00136
2.00147
2.00159
2.00174
2.00182
2.00114
2.00123
2.00131
2.00141
2.00152
2.00164
2.0018
2.00191
2.00118
2.00128
2.00136
2.00146
2.00158
2.00172
2.00188
2.00202
2.00123
2.00134
2.00143
2.00154
2.00167
2.00183
2.00201
2.00221
2.00128
2.00139
2.00149
2.00161
2.00175
2.00192
2.00209
2.00233
2.00133
2.00147
2.00159
2.00174
2.00193
2.00216
2.00244
2.003
2.00023
2.00025
2.00027
2.00029
2.00032
2.00035
2.0004
2.00043
2.00022
2.00024
2.00026
2.00028
2.0003
2.00033
2.00036
2.00036
2.00022
2.00024
2.00025
2.00027
2.00029
2.00031
2.00034
2.00035
2.00022
2.00024
2.00025
2.00027
2.00029
2.00031
2.00034
2.00035
2.00022
2.00024
2.00025
2.00027
2.00028
2.00031
2.00033
2.00034
2.00022
2.00024
2.00025
2.00027
2.00029
2.00031
2.00033
2.00035
2.00023
2.00024
2.00026
2.00027
2.00029
2.00031
2.00034
2.00036
2.00023
2.00025
2.00027
2.00028
2.0003
2.00033
2.00035
2.00037
2.00024
2.00026
2.00028
2.00029
2.00032
2.00034
2.00037
2.0004
2.00025
2.00027
2.00029
2.00031
2.00033
2.00036
2.00039
2.00043
2.00026
2.00028
2.0003
2.00033
2.00035
2.00038
2.00041
2.00046
2.00027
2.0003
2.00032
2.00035
2.00038
2.00043
2.00048
2.00058
1.99961
1.99957
1.99955
1.99951
1.99947
1.99942
1.99933
1.99928
1.99961
1.99958
1.99956
1.99954
1.99951
1.99948
1.99942
1.99945
1.99962
1.99959
1.99958
1.99955
1.99953
1.9995
1.99946
1.99948
1.99962
1.9996
1.99959
1.99957
1.99954
1.99952
1.99949
1.9995
1.99962
1.9996
1.99959
1.99957
1.99955
1.99953
1.9995
1.99951
1.99962
1.9996
1.99959
1.99957
1.99955
1.99953
1.9995
1.99951
1.99961
1.99959
1.99958
1.99956
1.99954
1.99952
1.99949
1.99949
1.9996
1.99958
1.99957
1.99955
1.99952
1.9995
1.99947
1.99946
1.99959
1.99956
1.99955
1.99952
1.9995
1.99947
1.99944
1.99942
1.99957
1.99954
1.99952
1.99949
1.99946
1.99943
1.99939
1.99933
1.99955
1.99952
1.9995
1.99947
1.99943
1.99939
1.99936
1.99929
1.99953
1.99949
1.99946
1.99941
1.99936
1.99929
1.99921
1.999
1.99813
1.99785
1.99761
1.9973
1.99693
1.99651
1.9959
1.99538
1.99815
1.99789
1.99769
1.99742
1.9971
1.99676
1.99625
1.9961
1.99818
1.99793
1.99774
1.99749
1.9972
1.99687
1.99643
1.99623
1.99819
1.99796
1.99778
1.99753
1.99726
1.99695
1.99653
1.9963
1.9982
1.99797
1.99779
1.99755
1.99728
1.99698
1.99658
1.99634
1.99819
1.99796
1.99778
1.99755
1.99728
1.99698
1.99658
1.99633
1.99816
1.99793
1.99775
1.99751
1.99724
1.99693
1.99654
1.99627
1.99812
1.99788
1.99769
1.99745
1.99717
1.99685
1.99645
1.99613
1.99806
1.99781
1.99761
1.99736
1.99706
1.99673
1.99632
1.99594
1.99798
1.99772
1.99751
1.99723
1.99691
1.99654
1.99611
1.9956
1.9979
1.99763
1.99741
1.99712
1.99679
1.9964
1.99599
1.99543
1.99782
1.9975
1.99724
1.99689
1.99648
1.99596
1.99537
1.99419
1.99546
1.99514
1.9949
1.99456
1.99415
1.99368
1.99286
1.99223
1.99552
1.99527
1.99511
1.99488
1.9946
1.99436
1.99376
1.99426
1.99558
1.99538
1.99526
1.99507
1.99486
1.99468
1.99425
1.99462
1.99563
1.99546
1.99536
1.99521
1.99504
1.99489
1.99454
1.99486
1.99565
1.99549
1.9954
1.99527
1.99512
1.99499
1.99468
1.99499
1.99562
1.99547
1.99539
1.99525
1.99511
1.99499
1.9947
1.99498
1.99555
1.99539
1.9953
1.99516
1.99501
1.99488
1.99459
1.99481
1.99542
1.99525
1.99514
1.99499
1.99481
1.99465
1.99435
1.99442
1.99526
1.99505
1.99493
1.99474
1.99454
1.99432
1.99403
1.99389
1.99505
1.9948
1.99463
1.99439
1.99412
1.9938
1.99343
1.99286
1.99484
1.99456
1.99437
1.99411
1.99382
1.99348
1.99322
1.99245
1.99461
1.99422
1.99391
1.99348
1.99297
1.99223
1.99154
1.98892
1.97673
1.97041
1.96611
1.96005
1.95339
1.94564
1.93669
1.92433
1.97701
1.97108
1.96715
1.9616
1.95562
1.94909
1.94082
1.9354
1.97735
1.97164
1.9679
1.9626
1.95694
1.95078
1.94311
1.93808
1.97764
1.97209
1.96849
1.96339
1.95796
1.95208
1.94476
1.94009
1.97778
1.97233
1.96882
1.96383
1.95853
1.95281
1.9457
1.9413
1.97774
1.97233
1.96885
1.9639
1.95865
1.953
1.94599
1.94166
1.97748
1.97204
1.96855
1.96358
1.95831
1.95261
1.94563
1.94105
1.977
1.97147
1.9679
1.96283
1.95744
1.95157
1.94453
1.93922
1.97631
1.97065
1.96696
1.96173
1.95617
1.95003
1.94298
1.93651
1.97544
1.96952
1.9656
1.96005
1.95412
1.94736
1.93998
1.93098
1.97451
1.96843
1.9644
1.95872
1.95268
1.94568
1.93906
1.92809
1.97349
1.96682
1.96221
1.95572
1.9486
1.93958
1.93136
1.90971
1.97943
1.9742
1.97076
1.96587
1.96059
1.95445
1.94764
1.93728
1.97969
1.97483
1.97172
1.96732
1.96264
1.95765
1.95135
1.9476
1.98
1.97536
1.97243
1.96827
1.9639
1.95927
1.95349
1.95026
1.98027
1.9758
1.97302
1.96905
1.96491
1.96056
1.95512
1.95232
1.98041
1.97604
1.97334
1.96949
1.96549
1.96131
1.95608
1.95357
1.98037
1.97604
1.97338
1.96958
1.96564
1.96153
1.95641
1.95398
1.98012
1.97578
1.97311
1.96929
1.96534
1.9612
1.95611
1.95345
1.97965
1.97524
1.9725
1.96859
1.96453
1.96023
1.95509
1.95174
1.97899
1.97445
1.97161
1.96756
1.96335
1.95879
1.95365
1.94919
1.97817
1.97339
1.97033
1.96599
1.96143
1.95629
1.95086
1.94398
1.97729
1.97238
1.96923
1.96477
1.96013
1.95478
1.9501
1.94128
1.97635
1.9709
1.96724
1.96205
1.95643
1.94923
1.9432
1.92443
2.73264
2.95551
3.1021
3.29747
3.48949
3.75113
3.81876
4.66063
2.72489
2.93113
3.06522
3.23978
3.41429
3.60762
3.74911
4.08984
2.71519
2.90884
3.03405
3.19481
3.35609
3.51779
3.67705
3.84551
2.70559
2.88603
3.00128
3.14759
3.29196
3.42917
3.57256
3.65773
2.69864
2.87119
2.98068
3.11884
3.25342
3.37967
3.51011
3.57054
2.69498
2.86338
2.96976
3.10358
3.23282
3.35364
3.47541
3.52773
2.69498
2.86338
2.96976
3.10358
3.23282
3.35364
3.47541
3.52773
2.69864
2.87119
2.98069
3.11884
3.25343
3.37967
3.51009
3.57052
2.70559
2.88603
3.00128
3.1476
3.29197
3.42917
3.57254
3.65771
2.71519
2.90883
3.03405
3.19481
3.35609
3.51779
3.67702
3.8455
2.72488
2.93111
3.06519
3.23974
3.41424
3.60758
3.74905
4.08983
2.73265
2.9556
3.10215
3.29744
3.48939
3.75102
3.8187
4.66056
2.26988
2.33367
2.37214
2.4295
2.4878
2.56874
2.60928
2.85797
2.26528
2.32429
2.35884
2.4099
2.46194
2.52245
2.57761
2.67979
2.25932
2.31535
2.34766
2.39526
2.44377
2.49584
2.55433
2.61224
2.25337
2.30635
2.33622
2.38027
2.42462
2.46967
2.52574
2.55474
2.24882
2.29986
2.32824
2.37013
2.41187
2.45303
2.50668
2.52074
2.24635
2.29637
2.32392
2.36466
2.40497
2.44413
2.49612
2.50325
2.24635
2.29637
2.32392
2.36466
2.40497
2.44413
2.49612
2.50325
2.24882
2.29986
2.32824
2.37013
2.41187
2.45303
2.50668
2.52073
2.25337
2.30635
2.33622
2.38027
2.42462
2.46967
2.52574
2.55473
2.25931
2.31535
2.34766
2.39526
2.44378
2.49584
2.55433
2.61222
2.26528
2.32429
2.35884
2.4099
2.46194
2.52245
2.5776
2.67977
2.26988
2.33366
2.37213
2.42949
2.48779
2.56873
2.60928
2.85802
2.14043
2.16426
2.1818
2.20611
2.23339
2.26741
2.29964
2.37497
2.13791
2.15901
2.17419
2.19503
2.21808
2.24354
2.27377
2.29955
2.13475
2.15435
2.16834
2.18754
2.2087
2.23157
2.25999
2.27933
2.13167
2.14987
2.1627
2.18035
2.19969
2.22016
2.24679
2.26015
2.12931
2.14665
2.15879
2.1755
2.19377
2.2128
2.23843
2.24793
2.12803
2.14493
2.1567
2.17293
2.19063
2.20891
2.23401
2.24137
2.12803
2.14493
2.1567
2.17293
2.19063
2.20891
2.23401
2.24137
2.12931
2.14665
2.15879
2.1755
2.19377
2.2128
2.23843
2.24792
2.13167
2.14987
2.1627
2.18035
2.1997
2.22016
2.24679
2.26014
2.13475
2.15435
2.16834
2.18754
2.2087
2.23158
2.25999
2.27933
2.13791
2.15901
2.17418
2.19502
2.21806
2.24353
2.27376
2.29954
2.14043
2.16427
2.18181
2.20611
2.23338
2.26739
2.29964
2.37501
2.0735
2.0837
2.09146
2.10214
2.11466
2.12972
2.14849
2.17578
2.0722
2.0811
2.08768
2.09667
2.10694
2.11815
2.1337
2.14147
2.07063
2.07891
2.08496
2.09327
2.10269
2.11302
2.12697
2.13479
2.06914
2.0769
2.08249
2.09021
2.0989
2.10839
2.12135
2.12803
2.068
2.07546
2.08078
2.08816
2.09646
2.10543
2.11793
2.12357
2.06739
2.0747
2.07989
2.08709
2.09519
2.1039
2.1162
2.12113
2.06739
2.0747
2.07989
2.08709
2.09519
2.1039
2.1162
2.12113
2.068
2.07546
2.08078
2.08816
2.09646
2.10543
2.11793
2.12356
2.06914
2.0769
2.08249
2.09021
2.09891
2.10839
2.12135
2.12802
2.07063
2.07891
2.08496
2.09327
2.10269
2.11302
2.12698
2.13479
2.0722
2.0811
2.08767
2.09666
2.10694
2.11814
2.13369
2.14146
2.0735
2.0837
2.09146
2.10214
2.11465
2.12971
2.14848
2.17581
2.03571
2.0399
2.04319
2.04764
2.05295
2.05921
2.06788
2.07821
2.03507
2.03864
2.04135
2.04499
2.04919
2.05367
2.06036
2.0623
2.0343
2.0376
2.04006
2.04338
2.04718
2.0513
2.05712
2.05959
2.03359
2.03665
2.0389
2.04196
2.04544
2.0492
2.0545
2.05674
2.03304
2.03598
2.03811
2.04103
2.04432
2.04788
2.05295
2.05487
2.03275
2.03563
2.0377
2.04054
2.04375
2.0472
2.05218
2.05384
2.03275
2.03563
2.0377
2.04054
2.04375
2.0472
2.05218
2.05384
2.03304
2.03598
2.03811
2.04103
2.04432
2.04788
2.05295
2.05487
2.03359
2.03665
2.0389
2.04196
2.04544
2.0492
2.0545
2.05674
2.0343
2.0376
2.04006
2.04338
2.04718
2.0513
2.05712
2.05959
2.03506
2.03864
2.04135
2.04499
2.04918
2.05367
2.06036
2.06229
2.03571
2.03991
2.04319
2.04764
2.05295
2.05921
2.06787
2.07823
2.01673
2.01867
2.02023
2.02232
2.02482
2.02776
2.03194
2.03655
2.01643
2.01809
2.01939
2.02111
2.0231
2.02525
2.02842
2.02941
2.01607
2.01761
2.0188
2.02037
2.02218
2.02417
2.02695
2.02824
2.01574
2.01718
2.01827
2.01973
2.0214
2.02323
2.02577
2.02699
2.01549
2.01687
2.01792
2.01931
2.02091
2.02265
2.02508
2.02617
2.01535
2.01671
2.01773
2.0191
2.02065
2.02234
2.02474
2.02572
2.01535
2.01671
2.01773
2.0191
2.02065
2.02234
2.02474
2.02572
2.01549
2.01687
2.01792
2.01931
2.02091
2.02265
2.02508
2.02617
2.01574
2.01718
2.01827
2.01974
2.0214
2.02324
2.02577
2.02699
2.01607
2.01761
2.0188
2.02037
2.02218
2.02417
2.02695
2.02824
2.01643
2.01809
2.01939
2.02111
2.0231
2.02524
2.02842
2.02941
2.01673
2.01867
2.02024
2.02232
2.02482
2.02776
2.03194
2.03656
2.00731
2.00812
2.00879
2.00967
2.01073
2.01197
2.01376
2.01568
2.00718
2.00787
2.00843
2.00915
2.00999
2.0109
2.01223
2.01265
2.00702
2.00766
2.00816
2.00882
2.00958
2.01042
2.01158
2.01213
2.00687
2.00747
2.00794
2.00855
2.00925
2.01002
2.01107
2.01159
2.00676
2.00734
2.00778
2.00836
2.00903
2.00976
2.01077
2.01123
2.0067
2.00727
2.0077
2.00827
2.00892
2.00963
2.01062
2.01103
2.0067
2.00727
2.0077
2.00827
2.00892
2.00963
2.01062
2.01103
2.00676
2.00734
2.00778
2.00836
2.00903
2.00976
2.01077
2.01123
2.00687
2.00747
2.00794
2.00855
2.00925
2.01002
2.01107
2.01159
2.00702
2.00766
2.00816
2.00883
2.00959
2.01042
2.01158
2.01213
2.00718
2.00787
2.00842
2.00915
2.00999
2.01089
2.01223
2.01265
2.00731
2.00812
2.00879
2.00967
2.01073
2.01197
2.01376
2.01569
2.003
2.00333
2.00361
2.00398
2.00442
2.00493
2.00567
2.00646
2.00295
2.00323
2.00347
2.00377
2.00412
2.00451
2.00506
2.00526
2.00288
2.00315
2.00336
2.00364
2.00396
2.00431
2.0048
2.00505
2.00282
2.00307
2.00327
2.00353
2.00382
2.00415
2.00459
2.00483
2.00278
2.00302
2.00321
2.00345
2.00373
2.00405
2.00447
2.00468
2.00275
2.00299
2.00317
2.00341
2.00369
2.00399
2.00441
2.0046
2.00275
2.00299
2.00317
2.00341
2.00369
2.00399
2.00441
2.0046
2.00278
2.00302
2.00321
2.00345
2.00373
2.00405
2.00447
2.00468
2.00282
2.00307
2.00327
2.00353
2.00382
2.00415
2.00459
2.00483
2.00288
2.00315
2.00336
2.00364
2.00396
2.00431
2.0048
2.00505
2.00295
2.00323
2.00347
2.00377
2.00412
2.00451
2.00506
2.00526
2.003
2.00334
2.00362
2.00398
2.00442
2.00493
2.00567
2.00646
2.0011
2.00122
2.00133
2.00146
2.00163
2.00182
2.00209
2.00237
2.00108
2.00119
2.00128
2.00139
2.00152
2.00167
2.00187
2.00195
2.00106
2.00116
2.00124
2.00134
2.00146
2.0016
2.00177
2.00187
2.00104
2.00113
2.00121
2.0013
2.00141
2.00154
2.0017
2.0018
2.00102
2.00111
2.00118
2.00127
2.00138
2.0015
2.00166
2.00174
2.00101
2.0011