/*--------------------------------*- C++ -*----------------------------------*\
| =========                 |                                                 |
| \\      /  F ield         | foam-extend: Open Source CFD                    |
|  \\    /   O peration     | Version:  3.0                                   |
|   \\  /    A nd           | Web:         http://www.extend-project.de       |
|    \\/     M anipulation  |                                                 |
\*---------------------------------------------------------------------------*/
FoamFile
{
    version     2.0;
    format      ascii;
    class       volSymmTensorField;
    location    "15";
    object      sigma;
}
// * * * * * * * * * * * * * * * * * * * * * * * * * * * * * * * * * * * * * //

dimensions      [0 0 0 0 0 0 0];

internalField   nonuniform List<symmTensor> 
2688
(
(-0.1783897838 -0.004839533988 1.174114308e-19 0.1788384518 1.502499739e-19 -0.0004486680098)
(-0.1743732537 -0.005735242286 8.943273081e-20 0.1755922051 1.013703361e-20 -0.001218951399)
(-0.1667708738 -0.006144098804 -9.085793076e-20 0.1686807051 5.003448272e-19 -0.001909831308)
(-0.1570347041 -0.0062478948 5.753612889e-20 0.1595668656 1.625533128e-19 -0.002532161513)
(-0.1466738898 -0.006177780153 5.466087687e-20 0.1497687827 2.801850102e-19 -0.00309489291)
(-0.1359921653 -0.006000124611 6.963897893e-20 0.139592977 5.461699064e-20 -0.003600811711)
(-0.1255671225 -0.005763064486 8.836570014e-20 0.1296222321 1.845098152e-19 -0.004055109617)
(-0.1154164446 -0.00549238384 5.346865432e-20 0.1198717226 2.169990014e-20 -0.004455278014)
(-0.1057722881 -0.005207560775 2.374503449e-22 0.1105774 5.35883343e-20 -0.004805111905)
(-0.0965853533 -0.004919173284 -4.515880446e-20 0.1016831758 -6.817169971e-20 -0.005097822477)
(-0.08794888524 -0.004634882398 3.588964864e-20 0.09328595238 2.877722395e-19 -0.005337067138)
(-0.07981519563 -0.004360134651 9.042705293e-21 0.08532726706 1.126184445e-19 -0.005512071422)
(-0.07221255982 -0.00409676011 2.282644263e-19 0.07783950485 6.347618388e-20 -0.005626945031)
(-0.06511945591 -0.003849186394 -6.123155442e-21 0.07078659471 7.199236573e-20 -0.005667138797)
(-0.05852747669 -0.003615910958 -8.864834255e-20 0.06416477372 9.242924048e-20 -0.005637297024)
(-0.05244991745 -0.003402048583 5.895634597e-21 0.05796942302 9.283886155e-20 -0.005519505566)
(-0.04685366621 -0.003203875597 1.341438475e-20 0.05217216396 1.821211296e-19 -0.005318497747)
(-0.04179013003 -0.003028014132 9.32875691e-20 0.04680394776 1.66459802e-19 -0.005013817729)
(-0.03720750393 -0.002869060684 -9.454858185e-20 0.04181675735 -2.778953011e-20 -0.004609253419)
(-0.03319643251 -0.002735263494 5.7762809e-20 0.03727958376 2.965594051e-19 -0.004083151253)
(-0.02969222608 -0.002620806733 1.32278022e-19 0.03312891648 -1.279698724e-19 -0.003436690404)
(-0.0268194395 -0.002533477737 3.085057089e-20 0.02946833952 -1.03719103e-19 -0.002648900026)
(-0.02452080252 -0.002472516946 -3.40748633e-20 0.0262368871 9.057794189e-21 -0.001716084581)
(-0.02291987321 -0.002440029141 -3.581761063e-20 0.02354027127 -3.042295416e-19 -0.0006203980601)
(-0.1779050555 -0.01450959045 6.421112766e-20 0.1783522896 -2.915690749e-19 -0.0004472341849)
(-0.1734558977 -0.01715685239 2.51863635e-19 0.1746709854 -1.35984242e-19 -0.001215087698)
(-0.1656046776 -0.01835918332 5.813734631e-20 0.1675085036 -1.966116186e-19 -0.00190382601)
(-0.155734531 -0.01865662682 -1.010518681e-19 0.1582587119 4.4514215e-20 -0.002524180856)
(-0.1453115794 -0.01843864172 1.995616841e-20 0.1483967595 1.977452286e-20 -0.003085180098)
(-0.1346120644 -0.01790202715 -2.966043963e-20 0.1382015643 -1.633441017e-19 -0.003589499996)
(-0.1241979411 -0.01718988573 1.269201025e-19 0.1282403082 2.067258835e-19 -0.004042367069)
(-0.1140754037 -0.01637847364 -5.158282576e-20 0.1185166799 -3.133763376e-19 -0.004441276219)
(-0.1044701283 -0.01552574034 -8.635093795e-20 0.1092601352 1.326861655e-19 -0.004790006971)
(-0.095327557 -0.0146628843 2.21618178e-19 0.1004093554 -3.049692536e-19 -0.005081798431)
(-0.08673846724 -0.01381262463 1.537398958e-19 0.09205876119 -9.895575109e-20 -0.005320293946)
(-0.07865218887 -0.01299120928 -6.285883411e-20 0.08414694585 -1.522118006e-19 -0.005494756979)
(-0.07109651444 -0.01220389653 -4.081378878e-20 0.07670579297 9.621928487e-21 -0.005609278536)
(-0.06404760903 -0.01146401345 1.244576001e-19 0.06969696725 4.083978661e-20 -0.00564935822)
(-0.05749773294 -0.01076685564 2.360065475e-20 0.06311735078 5.015532156e-20 -0.005619617841)
(-0.05145786094 -0.01012782436 7.804897606e-20 0.05696006489 3.821373373e-19 -0.005502203945)
(-0.04589629938 -0.009535575614 2.407218006e-19 0.05119812608 -3.33878412e-19 -0.005301826697)
(-0.0408617933 -0.009009981677 -2.955945281e-19 0.04585989539 3.844661685e-19 -0.004998102097)
(-0.03630452873 -0.008534776323 2.334123606e-19 0.04089932917 2.580499515e-19 -0.004594800442)
(-0.03231217855 -0.008134729319 7.318075723e-20 0.03638252706 -1.047272702e-19 -0.004070348504)
(-0.02882213501 -0.00779236187 -4.17310011e-19 0.0322480496 5.796849577e-20 -0.003425914591)
(-0.02595643829 -0.007530926821 1.193137359e-19 0.02859703282 2.531449011e-19 -0.002640594531)
(-0.02365751614 -0.007348032364 -2.327154515e-19 0.0253682163 2.290342149e-19 -0.001710700157)
(-0.02204908501 -0.007250274066 1.593005103e-19 0.02266753617 -2.704456851e-19 -0.0006184511601)
(-0.1769351885 -0.02415321305 1.346222696e-19 0.1773796179 2.64078914e-19 -0.0004444293643)
(-0.1716350515 -0.02843192987 9.114182902e-20 0.1728424627 3.584602364e-19 -0.001207411153)
(-0.1632936503 -0.03035550405 2.147418835e-20 0.1651854308 1.032367694e-19 -0.001891780515)
(-0.1531611456 -0.03080455655 2.085791008e-19 0.1556693435 3.200497909e-20 -0.002508197913)
(-0.1426164057 -0.03041560681 -1.171417892e-19 0.1456820759 2.605590706e-19 -0.003065670164)
(-0.1318829889 -0.02950887523 1.962134999e-19 0.1354497987 1.882449715e-20 -0.003566809768)
(-0.1214912926 -0.02831843254 -1.10347222e-20 0.1255081304 2.133119667e-19 -0.004016837845)
(-0.1114250485 -0.02696790174 -3.214399056e-20 0.1158383027 1.532222762e-19 -0.004413254264)
(-0.1018971528 -0.02555205896 -3.050769133e-20 0.1066569656 3.757850161e-19 -0.004759812843)
(-0.09284274311 -0.02412133695 -3.033259689e-19 0.09789253611 2.221769754e-19 -0.005049793002)
(-0.08434772501 -0.02271284587 1.338379049e-19 0.08963453765 3.770590293e-19 -0.00528681264)
(-0.07635552931 -0.02135283138 1.103368407e-19 0.0818157295 8.505945627e-20 -0.005460200188)
(-0.06889300356 -0.02004983696 4.029246359e-19 0.07446702147 -1.008502229e-19 -0.005574017907)
(-0.06193172726 -0.01882545938 5.264437917e-20 0.06754558333 -5.446360718e-20 -0.005613856077)
(-0.0554652879 -0.01767196216 2.728341933e-19 0.06104959406 -6.368471453e-20 -0.00558430616)
(-0.04950008537 -0.01661441706 -2.835604156e-19 0.05496771484 -4.602225436e-20 -0.005467629474)
(-0.04400726678 -0.01563423853 -2.210096529e-20 0.04927577457 1.724646511e-19 -0.005268507787)
(-0.03903036269 -0.01476386104 8.774774268e-19 0.04399705238 -8.938467111e-20 -0.004966689688)
(-0.0345234935 -0.01397666227 -5.503673862e-19 0.03908941584 1.638943031e-19 -0.004565922334)
(-0.03056838965 -0.01331314877 -9.84983593e-20 0.03461315985 2.003819225e-20 -0.004044770202)
(-0.02710645562 -0.01274470239 5.30321765e-19 0.03051084572 1.132554893e-19 -0.003404390101)
(-0.02425484788 -0.01230947827 3.7742024e-19 0.02687885685 -2.850776951e-19 -0.002624008961)
(-0.02195559377 -0.01200335215 -6.418521102e-19 0.02365554994 3.301498896e-19 -0.001699956174)
(-0.02033256221 -0.01183746632 5.104332388e-21 0.02094712956 -3.273820699e-19 -0.0006145673494)
(-0.1754788538 -0.03375226904 6.491260485e-20 0.1759190536 -6.313896493e-21 -0.0004401997513)
(-0.1689366709 -0.03946663747 1.430849229e-19 0.1701325816 -1.529024897e-19 -0.001195910708)
(-0.1598810925 -0.0419933163 -6.059569129e-20 0.161754861 -6.407187784e-19 -0.001873768503)
(-0.1493674533 -0.04252519292 -6.321778145e-20 0.1518517629 1.485648011e-19 -0.002484309645)
(-0.138647271 -0.04192756991 7.416183802e-20 0.1416837699 -1.650316928e-19 -0.003036498968)
(-0.1278667211 -0.04063255974 -1.12543613e-19 0.1313996075 8.694162315e-20 -0.003532886387)
(-0.117510056 -0.03895855015 3.057830959e-19 0.1214887128 -1.318298869e-20 -0.003978656789)
(-0.1075282788 -0.03707156948 1.890717467e-20 0.1118996118 2.387084103e-19 -0.004371332943)
(-0.09811553367 -0.03510057382 1.329879073e-19 0.1028301608 -3.704904823e-19 -0.004714627167)
(-0.08919196543 -0.0331128287 2.194353135e-19 0.09419384995 5.831960404e-20 -0.005001884519)
(-0.08083626756 -0.03115884255 -3.111621806e-21 0.08607294933 1.928981227e-19 -0.00523668177)
(-0.07298330083 -0.02927345437 -4.63388136e-19 0.0783917515 -2.692612847e-19 -0.005408450672)
(-0.06565850778 -0.02746833461 -2.983062776e-19 0.0711797147 3.757843083e-19 -0.005521206914)
(-0.0588267936 -0.02577227615 2.68605927e-19 0.06438747604 -3.276149061e-19 -0.005560682433)
(-0.05248368238 -0.02417482299 -8.420767307e-20 0.05801509918 8.12512952e-19 -0.005531416795)
(-0.04662888869 -0.02270968206 4.545332518e-19 0.05204473809 6.194527332e-21 -0.005415849407)
(-0.04123771888 -0.02135165388 2.223514013e-20 0.04645632853 2.165317008e-19 -0.005218609647)
(-0.03634607255 -0.02014459621 -1.705612875e-19 0.04126572461 -3.051826924e-19 -0.004919652061)
(-0.03191383701 -0.01905238491 6.123555849e-19 0.03643651515 -1.472425792e-19 -0.004522678148)
(-0.0280140214 -0.01812999205 -1.245513041e-19 0.03202049024 6.909445345e-20 -0.004006468842)
(-0.02459388792 -0.0173385206 -8.207213825e-19 0.02796604369 1.002797786e-19 -0.003372155776)
(-0.02176344637 -0.01673005083 6.254720174e-19 0.02436262024 -1.627994583e-19 -0.002599173872)
(-0.01946423145 -0.01629859425 -1.067154649e-19 0.02114810417 5.564744024e-19 -0.001683872727)
(-0.01782021054 -0.01605998082 1.868948817e-19 0.0184289679 -3.510229035e-19 -0.0006087573549)
(-0.1735344007 -0.04328785776 -1.718937695e-20 0.1739689828 2.586069996e-19 -0.0004345820742)
(-0.1653993588 -0.05017176621 -2.289438913e-19 0.1665800014 -2.144637588e-19 -0.001180642525)
(-0.1554300326 -0.05314127334 1.997235093e-19 0.1572798956 -1.555757744e-19 -0.001849863013)
(-0.1444312945 -0.05366267197 4.55135785e-19 0.1468839045 1.725588733e-19 -0.002452609986)
(-0.1334901562 -0.05280534341 -8.603993919e-20 0.1364879329 -1.517108689e-19 -0.002997776691)
(-0.1226535998 -0.05109750687 1.961114771e-19 0.1261414505 4.07781233e-19 -0.003487850733)
(-0.1123462365 -0.04893299528 2.05324503e-19 0.1162741973 -2.331551898e-19 -0.00392796087)
(-0.1024771059 -0.04651337254 -3.188588412e-19 0.1067927652 4.858185639e-19 -0.004315659292)
(-0.09321623437 -0.04399816532 -2.577109351e-19 0.09787084345 3.555366721e-19 -0.004654609082)
(-0.08446448236 -0.04146827394 2.923592362e-19 0.08940271998 -2.155582168e-19 -0.004938237621)
(-0.07629128358 -0.03898620207 1.185002614e-19 0.08146135762 -2.113728709e-19 -0.005170074045)
(-0.06862046903 -0.03659354286 3.456106337e-19 0.0739601509 -9.371935831e-20 -0.005339681877)
(-0.06147569913 -0.03430481792 1.513715694e-19 0.06692672233 3.911992364e-19 -0.005451023196)
(-0.0548132945 -0.03215461035 4.563471674e-19 0.06030330446 -3.099027498e-19 -0.00549000996)
(-0.04863128696 -0.03013012161 6.366182151e-19 0.0540924095 3.450467362e-19 -0.005461122537)
(-0.04292078684 -0.02827233349 -6.6718122e-19 0.04826781164 -1.025858303e-18 -0.0053470248)
(-0.03766245847 -0.02655024083 -9.844410557e-20 0.04281474672 -5.261517518e-19 -0.005152288247)
(-0.03288238132 -0.0250176154 2.378122334e-19 0.03773950742 6.646129572e-20 -0.004857126108)
(-0.02854786796 -0.02362994294 -2.521661729e-19 0.03301306201 1.640974104e-20 -0.004465194051)
(-0.02472070293 -0.02245497941 5.740954078e-19 0.02867624838 -1.380922038e-19 -0.003955545457)
(-0.02135569625 -0.02144467446 1.91298692e-19 0.02468499075 4.453610125e-20 -0.003329294505)
(-0.01855365011 -0.02066374499 6.175088577e-19 0.02111978716 4.410176369e-19 -0.002566137058)
(-0.01625543935 -0.02010412795 -1.973207641e-19 0.0179179051 -7.341694104e-19 -0.001662465751)
(-0.01458513572 -0.01978654854 -3.597888098e-19 0.01518615031 1.016119216e-18 -0.0006010145902)
(-0.1710998982 -0.05274012473 -3.163681965e-19 0.1715274944 4.331217576e-19 -0.0004275962071)
(-0.1610728974 -0.06046499145 -4.46375371e-19 0.1622345561 4.923537993e-19 -0.001161658628)
(-0.150022049 -0.06367963555 -1.623021623e-20 0.1518421861 -2.058547014e-19 -0.001820137143)
(-0.1384529226 -0.06407561088 -1.321160854e-19 0.1408661196 3.793052745e-19 -0.002413196975)
(-0.1272560858 -0.06289583409 2.017302107e-19 0.1302057079 2.010966139e-19 -0.002949622082)
(-0.1163601722 -0.06074518809 -1.030802786e-19 0.1197920127 -2.447415299e-19 -0.003431840449)
(-0.1061185414 -0.05808184935 4.667933927e-19 0.1099834445 -6.513992881e-20 -0.003864903113)
(-0.09639034389 -0.05513457879 5.654874066e-19 0.1006367467 4.351112114e-19 -0.004246402842)
(-0.08731668682 -0.05208894759 -2.101758721e-19 0.09189662644 -1.045145663e-18 -0.004579939616)
(-0.07877558664 -0.04903554895 -6.889024657e-19 0.08363463336 9.194677291e-19 -0.004859046726)
(-0.07082534033 -0.04604714938 5.499588429e-20 0.0759125325 1.432554975e-19 -0.005087192174)
(-0.06337673541 -0.04316979992 5.843281758e-21 0.06863084249 -3.218939141e-21 -0.005254107074)
(-0.05645126598 -0.04042056167 -3.599344224e-19 0.06181494995 -6.465045957e-20 -0.005363683969)
(-0.04999508014 -0.037838043 -4.209370218e-21 0.05539714327 1.885967701e-19 -0.005402063135)
(-0.04400918411 -0.03540760148 -2.349629002e-19 0.04938283022 -5.598472288e-20 -0.00537364611)
(-0.03847445443 -0.03317578115 -4.223860732e-19 0.04373583616 -6.133131885e-20 -0.005261381723)
(-0.03337794475 -0.03110680389 4.268049254e-19 0.038447706 1.198685054e-18 -0.005069761251)
(-0.02873402227 -0.02926245903 4.235875658e-19 0.03351334894 1.04822859e-19 -0.004779326669)
(-0.0245188673 -0.02759125723 1.893616965e-19 0.02891253418 5.02792804e-19 -0.004393666883)
(-0.02078084312 -0.02617162628 -3.342872654e-19 0.02467302717 3.880489163e-19 -0.003892184049)
(-0.0174837913 -0.02494779066 -1.350550825e-19 0.02075975451 4.614097083e-19 -0.003275963209)
(-0.01471747819 -0.02399545784 -1.903810913e-19 0.01724251302 9.50951375e-19 -0.002525034831)
(-0.01242201829 -0.02330425697 1.176510842e-18 0.01405785566 3.017684928e-20 -0.001635837366)
(-0.01072153889 -0.02290005552 -2.795737537e-19 0.01131292836 1.741941959e-18 -0.0005913894715)
(-0.1681733762 -0.06208792118 4.76084973e-19 0.1685926435 -9.493949612e-19 -0.0004192673526)
(-0.1560173803 -0.07027258959 -7.585002611e-19 0.1571564057 1.771345775e-20 -0.001139025418)
(-0.1437548001 -0.07350313068 2.093647167e-19 0.1455394909 -4.923898579e-19 -0.001784690787)
(-0.1315525643 -0.07364065214 5.474877491e-19 0.1339187655 5.347692962e-19 -0.002366201164)
(-0.1200779426 -0.07206604479 -1.465040926e-19 0.1229701379 -9.016055136e-19 -0.002892195308)
(-0.1091260001 -0.06943818838 -1.803653754e-19 0.1124910401 4.24488317e-19 -0.003365039974)
(-0.09896908495 -0.06626685119 4.973325237e-19 0.1027587763 5.283351901e-20 -0.003789691389)
(-0.08941010754 -0.06279813328 -3.88015078e-19 0.09357389738 -1.003543459e-18 -0.004163789845)
(-0.08055735809 -0.05923849453 4.73902625e-19 0.08504822033 -3.759740889e-19 -0.004490862243)
(-0.07226311378 -0.05568359301 1.25839983e-18 0.07702768052 2.336880512e-19 -0.004764566737)
(-0.06457305174 -0.05221448086 -6.534727379e-19 0.06956135296 -6.899667748e-19 -0.004988301217)
(-0.0573832675 -0.04887899514 1.226299238e-19 0.06253526229 3.837361949e-19 -0.005151994793)
(-0.05071281049 -0.0456963713 3.141195292e-19 0.05597227157 3.989526659e-19 -0.005259461079)
(-0.04449635913 -0.04270720347 2.337828071e-19 0.04979346761 6.087388449e-19 -0.005297108482)
(-0.03873829819 -0.03989556821 7.156495913e-19 0.04400754909 -3.073343526e-19 -0.005269250908)
(-0.03340793726 -0.03731160097 -3.125229555e-19 0.03856710647 1.026960619e-18 -0.005159169216)
(-0.02849957409 -0.03491592755 1.051185947e-19 0.03347084251 -4.248162702e-19 -0.004971268418)
(-0.02401431166 -0.0327761742 -4.304113259e-19 0.02870078279 2.123724287e-19 -0.00468647113)
(-0.01993838788 -0.03083549618 5.196693367e-19 0.02424668687 -2.279215962e-19 -0.004308298983)
(-0.016304944 -0.02918056293 5.7979669e-19 0.02012150048 4.023383763e-19 -0.003816556478)
(-0.0130880754 -0.02774950944 1.245724099e-18 0.01630038386 -5.273100933e-19 -0.003212308459)
(-0.01036498054 -0.02662714508 -1.036957229e-19 0.01284095175 8.211878593e-19 -0.002475971206)
(-0.008074955935 -0.02580051319 9.496543016e-19 0.009679006064 4.513663563e-19 -0.001604050129)
(-0.006342071491 -0.02530090908 -5.472235534e-19 0.006921967327 -3.225350266e-19 -0.0005798958368)
(-0.1647530836 -0.07130875477 1.232096101e-19 0.1651627053 1.024132411e-18 -0.0004096217294)
(-0.1503012558 -0.07953053873 1.602678132e-19 0.1514140714 8.337732908e-20 -0.001112815664)
(-0.1367397416 -0.08252323409 -3.632356598e-19 0.1384833778 7.44295011e-19 -0.001743636226)
(-0.1238670503 -0.08225533613 1.934869117e-19 0.1261788207 -7.735081774e-19 -0.00231177042)
(-0.1121070551 -0.08020623596 4.32566514e-19 0.1149327318 -2.737929657e-19 -0.002825676735)
(-0.1011098823 -0.07706370716 8.101810474e-20 0.1043975415 7.025017952e-19 -0.003287659268)
(-0.09105953704 -0.07337478796 -5.335879116e-19 0.0947620978 5.283794542e-20 -0.003702560761)
(-0.08169810235 -0.06939215065 3.109772491e-19 0.08576618177 -1.918820775e-19 -0.004068079417)
(-0.0730980318 -0.06533729405 -6.546156331e-19 0.07748568765 1.167628585e-18 -0.004387655848)
(-0.06508387217 -0.06130588294 -6.082335091e-20 0.06973896785 -4.977574616e-19 -0.004655095684)
(-0.0576874957 -0.05738500368 2.753939508e-19 0.0625612097 6.139747225e-19 -0.004873713994)
(-0.05078920889 -0.05362134396 7.774213963e-19 0.05582288107 -7.513223487e-21 -0.005033672181)
(-0.04440536037 -0.05003589472 -1.704398199e-19 0.04954405008 1.538155632e-19 -0.00513868971)
(-0.03845827701 -0.04666897873 -4.176437793e-19 0.04363376688 -4.876898217e-19 -0.005175489867)
(-0.03295599693 -0.04350402095 3.072103986e-19 0.03810427655 -1.16946822e-19 -0.005148279619)
(-0.02785531288 -0.04059255241 1.898622444e-19 0.032896044 -5.480346155e-19 -0.00504073112)
(-0.0231583941 -0.03789292488 2.69935867e-20 0.02801553475 -1.176393473e-19 -0.00485714064)
(-0.01885192991 -0.03547616594 7.516591325e-19 0.02343081062 -4.754935346e-19 -0.004578880706)
(-0.01493310685 -0.03328189858 1.949151534e-19 0.0191424905 -3.380721561e-19 -0.004209383653)
(-0.01141848132 -0.03140231347 -6.329118272e-19 0.01514741237 -5.129322137e-19 -0.003728931042)
(-0.008293335979 -0.02977129233 6.42652462e-19 0.01143188925 -1.087276664e-19 -0.003138553276)
(-0.005621093381 -0.02848061839 1.608697092e-18 0.008040218493 1.676329103e-19 -0.002419125112)
(-0.003340251263 -0.02751445618 7.979437438e-19 0.004907471995 -9.803708549e-19 -0.001567220732)
(-0.001574638758 -0.02690983132 1.375807064e-20 0.002141219419 4.051486117e-19 -0.0005665806607)
(-0.1608378344 -0.08037856482 3.421297283e-20 0.1612365243 -5.357163049e-19 -0.0003986898897)
(-0.1440000113 -0.08818603003 -1.139254366e-18 0.1450831233 4.465672216e-19 -0.001083112)
(-0.1290988934 -0.09067017378 6.743929334e-19 0.1307959966 -1.910772873e-18 -0.001697103213)
(-0.1155461851 -0.08984054904 -6.586794086e-19 0.1177962607 6.696184344e-19 -0.00225007554)
(-0.1035088584 -0.08723265912 6.160569642e-19 0.1062591348 -1.505607558e-19 -0.002750276348)
(-0.09248543251 -0.08353626561 6.785652324e-19 0.09568537421 -7.185080664e-20 -0.003199941708)
(-0.08256658596 -0.07932042821 -7.68451315e-20 0.0861703719 -2.564092406e-19 -0.003603785939)
(-0.073430985 -0.07483274049 1.255508883e-19 0.07739055646 -2.708429234e-19 -0.003959571462)
(-0.06511324922 -0.07030357586 7.051729828e-19 0.06938389227 -4.855162756e-19 -0.004270643057)
(-0.05740910583 -0.06582312542 2.028472786e-19 0.0619400782 4.894012503e-19 -0.00453097237)
(-0.05033585748 -0.0614821557 -5.508171953e-19 0.05507964059 -4.225868297e-19 -0.004743783107)
(-0.04375742754 -0.05732303395 1.026219029e-19 0.04865692616 -8.430633528e-20 -0.004899498628)
(-0.03768730555 -0.0533680802 4.719669586e-19 0.04268904142 3.682418711e-19 -0.00500173587)
(-0.03203497012 -0.04965492054 -2.003565102e-19 0.03707254118 4.072802153e-19 -0.005037571059)
(-0.02681229495 -0.04616700615 -4.915023747e-22 0.03182339163 7.071103463e-19 -0.005011096679)
(-0.02196298614 -0.04295491485 -2.230282459e-19 0.02686940622 7.627444944e-19 -0.004906420076)
(-0.01749748979 -0.03997613376 -3.372145884e-19 0.02222521335 1.911780075e-19 -0.00472772356)
(-0.01338735832 -0.03730249221 -1.098213994e-18 0.01784423594 5.220257684e-19 -0.004456877618)
(-0.009641299212 -0.03487202382 6.674860152e-19 0.01373852408 6.056358888e-19 -0.004097224868)
(-0.006258400999 -0.03277954062 3.928586724e-19 0.009887975113 5.079035098e-19 -0.003629574114)
(-0.003235744385 -0.03095662664 3.949916173e-19 0.00629067366 5.350513305e-19 -0.003054929275)
(-0.0006221418127 -0.02949976881 -8.734462614e-19 0.002976814994 -5.458073357e-19 -0.002354673181)
(0.001644634493 -0.02838993513 1.514788359e-18 -0.0001191668072 4.984958662e-20 -0.001525467686)
(0.003441250604 -0.02767019856 6.227127226e-20 -0.002889763375 -1.067685721e-18 -0.000551487229)
(-0.1564273429 -0.08927170331 1.645956488e-18 0.1568138483 -1.606202108e-19 -0.000386505329)
(-0.1371940181 -0.09619792373 3.908849401e-20 0.1382440244 -8.529109545e-19 -0.001050006311)
(-0.1209618821 -0.09789421381 -1.606561876e-19 0.1226071188 -2.508095834e-19 -0.001645236668)
(-0.1067487156 -0.09634215251 4.6915091e-19 0.1089300243 1.184628512e-18 -0.002181308744)
(-0.0944586301 -0.09308937769 -3.998505524e-19 0.09712485943 -3.340374477e-19 -0.002666229331)
(-0.08343641597 -0.08879977169 3.724126817e-19 0.08653857791 3.963754396e-19 -0.003102161935)
(-0.07367720205 -0.08404849102 -4.297315439e-19 0.07717087829 -1.048452782e-19 -0.003493676238)
(-0.06479563782 -0.07906609237 -5.843347153e-19 0.06863424545 6.048197906e-19 -0.00383860763)
(-0.05678759933 -0.07408532939 9.892796979e-20 0.0609277928 5.396018448e-19 -0.004140193463)
(-0.04941987957 -0.06918532155 8.821231398e-20 0.05381247144 6.989175518e-19 -0.004392591876)
(-0.04269484474 -0.06445801273 1.086845064e-19 0.04729376851 5.500067412e-21 -0.004598923775)
(-0.03646002894 -0.05993821238 6.782145861e-19 0.04120993552 6.483366407e-19 -0.004749906575)
(-0.03072596103 -0.05564909784 6.001144664e-19 0.03557500147 -7.210492075e-20 -0.004849040445)
(-0.0253892262 -0.05162310992 3.730374628e-19 0.03027302556 -7.135650076e-19 -0.004883799362)
(-0.02046558388 -0.04784441836 9.527941243e-19 0.02532372662 -3.651866573e-19 -0.004858142739)
(-0.01588551138 -0.04436021999 2.610309942e-19 0.0206421817 -1.014207715e-18 -0.004756670323)
(-0.0116678839 -0.0411286006 2.192142255e-19 0.01625131246 -1.933548594e-19 -0.004583428557)
(-0.007768854528 -0.03821949133 9.193156625e-19 0.012089707 -5.908989396e-19 -0.004320852476)
(-0.004208882483 -0.03557136122 -8.036019417e-19 0.008181056115 2.578140123e-20 -0.003972173632)
(-0.0009692064688 -0.03327862505 -4.657581311e-19 0.00448800555 -4.168341144e-19 -0.003518799081)
(0.00194102211 -0.03127261094 2.254080223e-19 0.001020670389 1.283615665e-19 -0.002961692498)
(0.004488049434 -0.02965213765 -2.662126343e-19 -0.002205236189 8.065318592e-19 -0.002282813245)
(0.006734683306 -0.02839466058 -1.294834719e-18 -0.005255769658 -6.149604505e-19 -0.001478913648)
(0.008558415506 -0.02754961312 8.709003603e-19 -0.008023758139 -1.801218198e-19 -0.0005346573675)
(-0.1515225404 -0.09796093553 -3.680439397e-19 0.1518956468 5.149502974e-19 -0.0003731064268)
(-0.129966773 -0.1035376038 2.591983437e-19 0.1309803753 -8.292672095e-19 -0.001013602305)
(-0.1124623409 -0.1041665751 -2.50308264e-19 0.114050541 1.574524291e-18 -0.001588200038)
(-0.09763806996 -0.1017320889 3.681447132e-19 0.09974375621 -6.641685136e-19 -0.002105686249)
(-0.08513654056 -0.09774945048 -1.525385426e-19 0.08771034128 3.281264978e-19 -0.002573800722)
(-0.07415167488 -0.09282864522 1.259233609e-18 0.07714630235 -5.436025008e-19 -0.002994627466)
(-0.06458340479 -0.08753488544 1.816879481e-19 0.06795598266 1.606052212e-19 -0.003372577869)
(-0.05598393566 -0.08206961472 8.715186049e-19 0.05968950193 -7.843134795e-19 -0.003705566266)
(-0.04831054869 -0.07666147356 3.742319348e-19 0.05230726231 -1.343365035e-19 -0.003996713621)
(-0.04130200198 -0.07137284122 6.109091665e-19 0.04554238449 -6.884734697e-19 -0.004240382509)
(-0.03494577215 -0.06629435882 -1.033613695e-18 0.03938535537 -2.643124208e-19 -0.00443958322)
(-0.02907357408 -0.06144999851 -2.15203918e-21 0.03365892924 -2.353469622e-19 -0.004585355158)
(-0.02369295434 -0.05686334413 -1.512045353e-19 0.0283740286 -4.715249178e-19 -0.004681074269)
(-0.01868799599 -0.05255913592 -4.362061118e-19 0.02340264327 -3.295749645e-19 -0.004714647282)
(-0.01407827871 -0.04852297099 -2.528669517e-19 0.01876817247 4.163982609e-19 -0.004689893763)
(-0.009781331809 -0.04479621811 1.469579714e-19 0.01437327811 7.825161623e-19 -0.004591946297)
(-0.005824363891 -0.04133903834 -4.687025541e-19 0.01024907442 3.502086478e-19 -0.00442471053)
(-0.00214833493 -0.03821674654 1.379148329e-19 0.006319566238 -4.23511019e-19 -0.004171231308)
(0.001214660187 -0.03537028435 1.332375979e-18 0.002619968162 1.530227905e-18 -0.003834628349)
(0.004301095399 -0.03289063085 4.862239375e-20 -0.0009041401831 2.287863228e-19 -0.003396955216)
(0.00708982932 -0.03071091261 1.59728415e-18 -0.004230687361 8.053310174e-19 -0.002859141959)
(0.009562212558 -0.02892988871 -2.190511991e-19 -0.007358439711 -9.835391602e-19 -0.002203772847)
(0.01178142511 -0.02752118887 -5.239876372e-19 -0.01035371685 -6.163715166e-19 -0.001427708255)
(0.01362618285 -0.02654090111 -6.219441631e-19 -0.01311003701 6.444225138e-21 -0.0005161458405)
(-0.1461260321 -0.106417467 6.34277268e-19 0.1464845671 2.120866744e-19 -0.0003585349741)
(-0.1224027541 -0.1101888873 -4.443032658e-19 0.1233767679 4.690440435e-19 -0.0009740137577)
(-0.1037346085 -0.1094796368 -1.047190812e-20 0.1052607808 3.328290189e-20 -0.001526172376)
(-0.0883780379 -0.1060086075 1.421082414e-19 0.09040148386 2.967976212e-19 -0.002023445956)
(-0.07572298729 -0.1012152301 -7.536424664e-19 0.07819626891 -2.023268984e-19 -0.002473281615)
(-0.06482006459 -0.09562820396 4.752013791e-19 0.06769774289 -3.06497584e-19 -0.002877678294)
(-0.05547713782 -0.0897870432 -2.492532236e-19 0.05871801237 -3.032652307e-19 -0.003240874545)
(-0.04718755957 -0.08385234395 -5.1865926e-19 0.05074843069 -3.259483783e-19 -0.003560871126)
(-0.03987129891 -0.07804222026 6.851603354e-19 0.04371196107 -1.952605401e-20 -0.003840662163)
(-0.0332409408 -0.07239683687 1.013584263e-18 0.0373157741 8.168749532e-20 -0.004074833306)
(-0.02726955239 -0.06700306141 9.232048053e-19 0.03153582599 4.879958977e-20 -0.004266273604)
(-0.02177416959 -0.06187087295 1.152191892e-19 0.0261805442 3.323903452e-19 -0.004406374606)
(-0.01675941363 -0.05702379358 9.717610295e-20 0.02125778819 7.728355968e-19 -0.004498374559)
(-0.01209769664 -0.05247643556 6.909007076e-19 0.01662835223 1.209360382e-19 -0.004530655587)
(-0.007812231555 -0.04821650325 6.853641548e-19 0.01231911143 1.294356914e-18 -0.00450687988)
(-0.003808303309 -0.0442771597 3.070301211e-19 0.00822107029 -4.764072336e-19 -0.00441276698)
(-0.0001211082719 -0.04062208237 -5.362311468e-19 0.004373169618 -9.659870863e-19 -0.004252061346)
(0.003322917251 -0.03730931435 -8.476388525e-20 0.0006855626406 5.761347717e-19 -0.004008479892)
(0.006480499891 -0.03428426592 8.20887764e-19 -0.00279548894 -7.544895572e-19 -0.003685010951)
(0.009405179685 -0.03163150096 -8.653608011e-19 -0.006140759237 -1.013095103e-18 -0.003264420448)
(0.01206424788 -0.02928796194 -2.846177535e-19 -0.00931665549 -8.376263043e-19 -0.002747592386)
(0.01445381538 -0.02734999321 5.671107133e-19 -0.01233601637 -1.216915875e-18 -0.002117799007)
(0.01663715664 -0.02578710833 -8.602847537e-19 -0.01526514493 2.642675238e-20 -0.001372011712)
(0.01849468854 -0.02466231753 5.88021968e-19 -0.01799867665 2.592547197e-19 -0.000496011891)
(-0.1402423062 -0.1146111297 4.596138786e-20 0.1405851432 5.11057849e-19 -0.0003428370286)
(-0.1145854876 -0.1161480981 4.508704103e-19 0.1155168529 -4.728233883e-19 -0.000931365329)
(-0.09491013447 -0.1138466539 -5.549313138e-19 0.09636948392 1.143122375e-18 -0.001459349457)
(-0.07912840355 -0.1091959108 7.611640989e-19 0.08106325064 -5.873266166e-19 -0.001934847087)
(-0.06639360132 -0.1035178835 -5.609189174e-19 0.06875859034 -5.827972417e-20 -0.002364989021)
(-0.05562529983 -0.09723410246 -6.712619474e-20 0.05837698223 7.432003488e-19 -0.0027516824)
(-0.04654494965 -0.09084336443 6.332250241e-19 0.04964392985 2.319401422e-19 -0.003098980207)
(-0.03859271716 -0.0844543261 -5.071038463e-19 0.04199769273 6.027226999e-19 -0.003404975566)
(-0.03165355043 -0.07826848712 -6.338938133e-19 0.03532607782 3.04312827e-19 -0.003672527386)
(-0.02541670814 -0.07229861853 -4.605821059e-19 0.02931316931 6.06377133e-19 -0.003896461167)
(-0.01984170872 -0.0666254844 -2.243243189e-20 0.02392124618 -5.912820493e-19 -0.004079537461)
(-0.01473261859 -0.06124208245 5.181456368e-19 0.01894614376 7.344814666e-19 -0.004213525174)
(-0.01009125294 -0.05617144238 4.922168245e-20 0.0143927709 -1.171072812e-18 -0.004301517959)
(-0.005779616388 -0.0514157489 -4.515767729e-19 0.01011202139 -2.800124595e-19 -0.004332405)
(-0.001824246309 -0.04696546758 8.193358304e-19 0.00613393125 -8.674234767e-19 -0.004309684941)
(0.001880698129 -0.04284330263 1.361393306e-19 0.00233900373 -1.258404508e-18 -0.00421970186)
(0.005292624955 -0.03901781997 5.741864716e-19 -0.001226590356 1.943504434e-19 -0.004066034599)
(0.008498496525 -0.03553727258 -1.429247549e-19 -0.004665381608 -8.717776136e-19 -0.003833114917)
(0.0114446566 -0.03235343549 5.422584874e-19 -0.007920857486 7.474066162e-19 -0.003523799114)
(0.01420056079 -0.02954162713 1.177950758e-18 -0.01107894985 -4.578249204e-19 -0.003121610943)
(0.01672269723 -0.02704452268 -3.643573948e-19 -0.01409530279 7.743247692e-19 -0.002627394442)