/*--------------------------------*- C++ -*----------------------------------*\
| =========                 |                                                 |
| \\      /  F ield         | foam-extend: Open Source CFD                    |
|  \\    /   O peration     | Version:  3.0                                   |
|   \\  /    A nd           | Web:         http://www.extend-project.de       |
|    \\/     M anipulation  |                                                 |
\*---------------------------------------------------------------------------*/
FoamFile
{
    version     2.0;
    format      ascii;
    class       volScalarField;
    location    "0.6";
    object      p;
}
// * * * * * * * * * * * * * * * * * * * * * * * * * * * * * * * * * * * * * //

dimensions      [0 0 0 0 0 0 0];

internalField   nonuniform List<scalar> 
300
(
-478533
664860
-176570
122853
352165
41803.8
-37178.3
12981.4
-11470.6
-3127.56
37875.2
14866.5
-4588.53
-34798.7
44489.6
-16800.5
19307
-5150.21
5410.63
1274.42
26856.3
-39484.6
-25121.3
38875.4
-48125.9
18158.3
-23322.6
6184.51
-6591.65
-1777.76
69580.4
20079.5
7642.89
-8706.73
12756.5
-5077.95
6265.79
-1674.54
1900.8
514.957
-69909
-33829.1
-22839.6
6561.54
-19592.2
5543.8
-9041.26
2026.95
-2678.9
-862.471
41514.2
16714.3
8784.49
127.01
5173.58
-1082.5
2308.78
-444.789
706.901
218.925
-41781.3
-22723.7
-15249.6
-1405.72
-8730.99
1044.55
-3728.74
480.88
-1123.91
-440.853
24810.1
12092
7023.95
2117.51
2784.03
173.702
1028.53
-19.7626
301.987
118.278
-24207.9
-14335
-9450.97
-2709.5
-4324.17
-255.853
-1681.37
-3.7842
-506.445
-241.687
14825.2
8106.61
4872.26
2038.7
1687.25
433.691
545.738
93.1447
154.166
77.0731
-13964.2
-8775.45
-5668.38
-2278.18
-2299.69
-483.359
-824.024
-113.784
-246.32
-138.348
8815.17
5194.27
3149.71
1512.91
1047.16
387.493
317.742
98.3024
88.5687
52.4203
-8044.17
-5273.25
-3338.71
-1587.28
-1270.94
-409.641
-429.485
-109.54
-127.443
-80.6678
5214.62
3234.95
1958.61
1016.75
645.476
280.993
190.945
75.6407
53.3859
34.9662
-4631.05
-3129
-1945.24
-1020.52
-715.025
-286.988
-232.468
-80.2693
-68.6296
-47.118
3071.31
1977.03
1190.3
650.219
392.965
187.019
115.362
51.9371
32.5845
22.7094
-2665.41
-1840.21
-1125.81
-628.901
-405.206
-184.916
-128.319
-52.681
-37.5627
-27.2119
1802.36
1192.4
713.081
404.066
236.625
119.19
69.5794
33.906
20.0951
14.5876
-1533.96
-1075.33
-648.888
-377.996
-230.199
-113.853
-71.4482
-32.5897
-20.6228
-15.4458
1054.14
712.126
423.172
246.578
141.318
74.127
41.8552
21.5744
12.4491
9.3515
-882.801
-625.297
-372.994
-223.574
-130.797
-68.1417
-39.8413
-19.3688
-11.2001
-8.52157
614.125
421.75
249.378
148.602
83.9265
45.4554
25.185
13.6034
7.81522
6.0696
-508.202
-361.951
-213.883
-130.707
-74.1918
-39.9534
-22.1126
-11.1173
-5.90887
-4.48165
355.629
247.269
145.848
88.5967
49.6284
27.6475
15.2151
8.59555
5.01597
4.04462
-293.23
-208.145
-122.105
-75.5286
-41.8513
-22.9653
-12.1077
-6.12384
-2.93533
-2.1381
203.782
142.029
83.9123
51.8528
29.0703
16.6709
9.24568
5.48277
3.30615
2.79398
-171.325
-117.968
-68.8116
-42.6537
-23.1392
-12.7416
-6.36427
-3.11657
-1.26221
-0.809505
115.231
76.9092
45.7228
28.3428
16.1814
9.62713
5.59015
3.57971
2.37226
2.05059
-105.64
-64.4369
-37.1583
-22.173
-11.699
-6.20474
-2.76935
-1.10406
-0.170876
-0.0318142
66.6407
33.7777
19.9723
10.2285
6.07908
3.50843
2.42064
1.80748
1.58619
1.06313
)
;

boundaryField
{
    frontAndBack
    {
        type            empty;
    }
    symm
    {
        type            symmetryPlane;
    }
    in
    {
        type            implicitExtrapolation;
    }
    out
    {
        type            implicitExtrapolation;
    }
}


// ************************************************************************* //
