/*--------------------------------*- C++ -*----------------------------------*\
| =========                 |                                                 |
| \\      /  F ield         | foam-extend: Open Source CFD                    |
|  \\    /   O peration     | Version:  3.0                                   |
|   \\  /    A nd           | Web:         http://www.extend-project.de       |
|    \\/     M anipulation  |                                                 |
\*---------------------------------------------------------------------------*/
FoamFile
{
    version     2.0;
    format      ascii;
    class       volSymmTensorField;
    location    "19";
    object      sigma;
}
// * * * * * * * * * * * * * * * * * * * * * * * * * * * * * * * * * * * * * //

dimensions      [0 0 0 0 0 0 0];

internalField   nonuniform List<symmTensor> 
2688
(
(-0.177914004 -0.004895720573 1.197019733e-19 0.1776201125 1.9669534e-19 0.0002938914595)
(-0.1744184124 -0.005741216978 8.115867027e-20 0.1736196364 5.37162799e-20 0.0007987760106)
(-0.1674741372 -0.006124207755 -9.207413558e-20 0.1662226436 5.478358606e-19 0.001251493602)
(-0.1584391525 -0.006211478673 6.232584889e-20 0.1567794642 1.777570402e-19 0.001659688322)
(-0.1488305651 -0.006135270503 4.773903547e-20 0.1468028136 3.065737761e-19 0.002027751497)
(-0.1388673353 -0.005954954496 7.474186634e-20 0.1365079526 7.503273273e-20 0.002359382753)
(-0.1291691128 -0.005719110745 7.536982928e-20 0.1265140236 1.993543247e-19 0.002655089256)
(-0.1196949667 -0.005451138276 5.346790602e-20 0.1167781061 3.957393846e-20 0.002916860605)
(-0.1107092688 -0.005170131079 1.566100462e-21 0.1075668915 8.967816903e-20 0.003142377258)
(-0.1021272159 -0.004885918631 -4.951550436e-20 0.09879414207 -5.978051573e-20 0.003333073792)
(-0.09406153067 -0.004605659356 4.386638995e-20 0.09057738002 3.250208483e-19 0.003484150655)
(-0.08644288383 -0.004334715676 -1.019903138e-21 0.08284576021 1.038871699e-19 0.003597123616)
(-0.07930953722 -0.004074274366 2.512515691e-19 0.07564477815 7.268289819e-20 0.003664759076)
(-0.07262658616 -0.003829052444 -1.804136617e-20 0.06893752473 6.267295123e-20 0.003689061428)
(-0.06638783041 -0.003596617786 -7.149577631e-20 0.06272744591 8.713020905e-20 0.003660384491)
(-0.0605993843 -0.003382680931 6.200480684e-21 0.05701799814 7.516650491e-20 0.003581386161)
(-0.05522291256 -0.003182218708 -3.350949296e-21 0.0517826784 1.834433774e-19 0.003440234162)
(-0.05030781452 -0.003002624761 1.171252253e-19 0.04706776273 1.491903613e-19 0.003240051788)
(-0.04578954885 -0.00283700783 -1.177760881e-19 0.04282210263 -3.758331945e-20 0.002967446223)
(-0.04176028173 -0.002694204371 6.769660411e-20 0.03913498119 2.842001635e-19 0.002625300544)
(-0.03813712712 -0.002567231055 1.277217124e-19 0.03593727601 -1.357108767e-19 0.002199851107)
(-0.03504504077 -0.002463462375 3.26798063e-20 0.03335266737 -1.354200913e-19 0.001692373404)
(-0.0324072195 -0.002381075848 -3.62401418e-20 0.0313165835 2.581071895e-20 0.001090636001)
(-0.03034496387 -0.002315404978 -4.542187302e-20 0.02995265962 -3.481864368e-19 0.0003923042451)
(-0.1773952316 -0.01467563159 5.855590016e-20 0.1771022592 -3.285844322e-19 0.0002929724196)
(-0.1734866632 -0.01717371993 2.519596811e-19 0.1726904331 -1.548396271e-19 0.0007962301568)
(-0.1663034335 -0.0182990937 5.55808254e-20 0.1650558467 -2.602374626e-19 0.001247586798)
(-0.157142454 -0.01854761492 -1.142092445e-19 0.1554879787 3.826601125e-20 0.001654475311)
(-0.1474754816 -0.01831157243 3.018185022e-20 0.1454540769 -1.5341319e-20 0.002021404721)
(-0.1374973429 -0.01776713451 -4.57267866e-20 0.1351453564 -1.874314091e-19 0.00235198654)
(-0.127811646 -0.01705874606 1.394527317e-19 0.1251648875 1.951028021e-19 0.002646758534)
(-0.1183666288 -0.01625543254 -4.70893509e-20 0.1154589257 -3.439263345e-19 0.002907703129)
(-0.1094207057 -0.01541414884 -8.285180832e-20 0.1062882002 1.159011001e-19 0.0031325055)
(-0.1008838548 -0.01456384743 2.263307855e-19 0.09756125379 -3.304480192e-19 0.003322600993)
(-0.0928667121 -0.01372577743 1.401388217e-19 0.08939350823 -1.021545616e-19 0.003473203873)
(-0.08529686162 -0.01291582886 -6.633850044e-20 0.08171103341 -1.769100787e-19 0.003585828206)
(-0.07821247729 -0.01213736586 -6.774162137e-20 0.07455921719 3.007691758e-20 0.003653260099)
(-0.07157617113 -0.01140451202 1.247783417e-19 0.06789867394 2.710531229e-20 0.003677497186)
(-0.06538287015 -0.01070982467 1.19947264e-20 0.06173394998 6.570441668e-20 0.003648920167)
(-0.0596361418 -0.01007045761 7.682627115e-20 0.05606596498 3.846335692e-19 0.003570176819)
(-0.05429965101 -0.009471287504 2.566271106e-19 0.05087018173 -3.331081089e-19 0.003429469278)
(-0.04941991434 -0.008934509803 -3.250889258e-19 0.04619000187 3.893779282e-19 0.003229912471)
(-0.04493498546 -0.008439425245 2.528826057e-19 0.04197682905 2.491911419e-19 0.002958156418)
(-0.04093388792 -0.008012447003 6.377057127e-20 0.03831680686 -1.016742416e-19 0.002617081059)
(-0.03733614353 -0.007632616046 -4.456196723e-19 0.03514317766 7.979200743e-20 0.002192965869)
(-0.03426457067 -0.007322139456 1.384542698e-19 0.03257749167 2.410624339e-19 0.001687078998)
(-0.03164265161 -0.00707537994 -2.596631709e-19 0.03055542803 2.533710708e-19 0.001087223585)
(-0.0295948665 -0.006878598783 1.780105918e-19 0.02920378832 -2.852810627e-19 0.000391078188)
(-0.1763581257 -0.02441963074 1.448663362e-19 0.1760670054 2.882870744e-19 0.0002911202609)
(-0.1716366262 -0.0284561433 7.071811743e-20 0.1708454461 3.800998384e-19 0.0007911801269)
(-0.1639841283 -0.03025517211 2.363485543e-20 0.1627444818 1.391568347e-19 0.001239646528)
(-0.1545757251 -0.03062528549 2.31441399e-19 0.152931765 5.007764614e-20 0.001643960011)
(-0.1447948404 -0.03020802502 -1.361156431e-19 0.1427862644 2.68494392e-19 0.002008576048)
(-0.1347881472 -0.02928952174 2.150483151e-19 0.1324510687 4.342793151e-20 0.00233707854)
(-0.1251278691 -0.02810630491 -2.917161263e-20 0.1224978619 2.164599498e-19 0.002630007177)
(-0.1157410553 -0.02677001937 -3.601792597e-20 0.1128517281 1.609690781e-19 0.002889327124)
(-0.1068742449 -0.02537397867 -2.845243747e-20 0.1037615082 4.02185489e-19 0.00311273668)
(-0.09842713665 -0.02396482861 -2.922467353e-19 0.09512547899 2.094160564e-19 0.003301657657)
(-0.09050626667 -0.02257737095 1.418877132e-19 0.08705493091 3.904603795e-19 0.003451335759)
(-0.08303312958 -0.02123718446 1.230092383e-19 0.07946986054 7.990118759e-20 0.003563269041)
(-0.07604576363 -0.01994978468 4.358803518e-19 0.07241547155 -8.793126229e-20 0.003630292074)
(-0.06950187217 -0.01873802708 3.568870504e-20 0.06584748875 -6.712270774e-20 0.003654383424)
(-0.06339863925 -0.01758975072 3.065820227e-19 0.05977264925 -6.628465194e-20 0.003625990002)
(-0.05773458393 -0.0165328677 -2.9631272e-19 0.05418684533 -8.079060088e-20 0.003547738593)
(-0.05247732218 -0.01554266484 -3.602277883e-20 0.04906940962 1.692195888e-19 0.003407912559)
(-0.04766763706 -0.01465537729 8.928711733e-19 0.04445803179 -1.087438971e-19 0.003209605273)
(-0.04324871379 -0.01383716708 -5.814858293e-19 0.04030915666 1.608532584e-19 0.002939557132)
(-0.03930339294 -0.01313124268 -4.869881272e-20 0.03670276629 -3.096134859e-22 0.002600626652)
(-0.03575605244 -0.01250327987 5.056750119e-19 0.03357687001 1.074777278e-19 0.002179182432)
(-0.03272524313 -0.0119897979 3.784853138e-19 0.03104876593 -3.02383884e-19 0.0016764772)
(-0.03013487018 -0.01158134507 -6.470762999e-19 0.02905447777 3.18139515e-19 0.00108039241)
(-0.0281157605 -0.01125609136 -1.40226046e-20 0.02772714017 -3.493097932e-19 0.0003886203376)
(-0.1748036464 -0.03410356683 5.991392291e-20 0.1745153064 -9.585732315e-21 0.0002883400068)
(-0.1688955689 -0.03949198779 1.454891694e-19 0.1681119368 -1.424757641e-19 0.0007836320879)
(-0.160559289 -0.04185217414 -6.383021751e-20 0.1593314794 -6.662187036e-19 0.001227809594)
(-0.1507914473 -0.04227942586 -9.60774676e-20 0.1491631724 1.567478935e-19 0.00162827488)
(-0.1408463253 -0.04164593903 9.281094728e-20 0.1388568946 -1.870007551e-19 0.001989430735)
(-0.1308001088 -0.04033730603 -1.319668968e-19 0.1284852874 7.598983496e-20 0.00231482142)
(-0.12117919 -0.03867559888 3.110364396e-19 0.1185742065 -3.354052446e-20 0.00260498345)
(-0.111879565 -0.03681029076 3.690967303e-20 0.1090177037 2.368576596e-19 0.002861861233)
(-0.1031303049 -0.03486861306 1.252716305e-19 0.1000471313 -4.058778409e-19 0.003083173588)
(-0.09481619427 -0.03291250437 2.06656095e-19 0.09154586902 6.749296435e-20 0.00327032525)
(-0.08703771739 -0.03098952636 -1.094333472e-20 0.08361911063 1.907759738e-19 0.003418606752)
(-0.07970754362 -0.02913348577 -4.666822235e-19 0.07617804577 -2.921566589e-19 0.003529497848)
(-0.07286346632 -0.02735207563 -3.325218611e-19 0.06926756448 4.001633589e-19 0.003595901834)
(-0.06645605055 -0.0256757222 2.5982479e-19 0.06283627632 -3.534059567e-19 0.003619774227)
(-0.06048575925 -0.02408806623 -1.244104919e-19 0.05689410364 8.407104979e-19 0.003591655606)
(-0.05494375169 -0.02262662912 4.616631111e-19 0.05142960668 -1.106972565e-20 0.003514145011)
(-0.04980341452 -0.0212579755 3.950788116e-20 0.04642777266 2.705538821e-19 0.003375641861)
(-0.04509714747 -0.02003111864 -1.983237075e-19 0.04191793768 -3.03750189e-19 0.003179209792)
(-0.04077563921 -0.01890019107 6.180263509e-19 0.0378639195 -1.049489671e-19 0.00291171971)
(-0.03691268888 -0.01792388244 -1.411744068e-19 0.03433668725 7.630744297e-20 0.002576001633)
(-0.03343981002 -0.017055535 -8.426390789e-19 0.03128125488 1.262636985e-19 0.002158555144)
(-0.03046926767 -0.01634510417 6.276824942e-19 0.02880865231 -1.476171367e-19 0.001660615364)
(-0.02792555322 -0.01577935149 -1.431986432e-19 0.02685537626 5.742728127e-19 0.001070176961)
(-0.02594878588 -0.01532990449 2.236300215e-19 0.02556383623 -3.401079403e-19 0.0003849496437)
(-0.1727333437 -0.04370300285 1.492560073e-20 0.1724486936 2.25700848e-19 0.0002846501312)
(-0.165303463 -0.05018996353 -2.574380644e-19 0.1645298473 -2.063260695e-19 0.00077361576)
(-0.1560921753 -0.05295863079 2.177660802e-19 0.1548800623 -1.762675009e-19 0.001212112991)
(-0.1458667133 -0.05335550535 4.747114855e-19 0.144259243 2.03384288e-19 0.001607470377)
(-0.1357147111 -0.05245843957 -1.074620661e-19 0.1337506832 -1.909185626e-19 0.001964027922)
(-0.1256219729 -0.05073796486 2.130867011e-19 0.1233366906 4.384053498e-19 0.002285282285)
(-0.1160556588 -0.04859296855 1.930313495e-19 0.1134838956 -2.508912444e-19 0.002571763287)
(-0.1068719427 -0.04620414572 -3.249122249e-19 0.1040465534 4.609992001e-19 0.002825389334)
(-0.09827736951 -0.04372935047 -2.438120835e-19 0.09523346237 3.633826583e-19 0.003043907142)
(-0.09013758288 -0.0412425812 3.385674865e-19 0.08690888295 -2.355598213e-19 0.003228699926)
(-0.0825453024 -0.03880303448 9.717623326e-20 0.07917018393 -2.085488753e-19 0.003375118465)
(-0.07540185369 -0.03645081739 3.868156418e-19 0.07191723518 -9.591075853e-20 0.003484618513)
(-0.0687447358 -0.03419578262 1.859369842e-19 0.06519454015 3.967672556e-19 0.003550195657)
(-0.06251532938 -0.03207439764 4.436626534e-19 0.05894155489 -3.23227548e-19 0.003573774498)
(-0.05671833659 -0.03006676464 6.777852674e-19 0.05317231646 3.436419589e-19 0.003546020125)
(-0.05133544382 -0.02821849304 -6.776488728e-19 0.04786594955 -1.006684774e-18 0.003469494264)
(-0.04634748119 -0.02648856342 -7.955353396e-20 0.04301473144 -5.339699881e-19 0.003332749744)
(-0.04177604885 -0.02493709351 2.388305546e-19 0.03863723966 7.579430332e-20 0.003138809196)
(-0.03758150563 -0.02350765623 -2.687009717e-19 0.03470678829 -1.881221325e-20 0.002874717344)
(-0.03382599402 -0.02227267214 6.022935128e-19 0.03128272978 -1.137535229e-19 0.002543264241)
(-0.03045023425 -0.02117450944 1.898311479e-19 0.02831910777 -1.975662096e-20 0.002131126481)
(-0.02755836325 -0.02027541813 5.966655514e-19 0.02591884845 4.759535942e-19 0.001639514802)
(-0.02507566626 -0.01955838784 -1.941055555e-19 0.02401908775 -8.088249202e-19 0.001056578505)
(-0.02315413381 -0.01899062085 -4.155620723e-19 0.02277407796 1.044514809e-18 0.0003800558427)
(-0.1701494042 -0.05319321222 -3.098193097e-19 0.1698693396 4.941680435e-19 0.0002800646904)
(-0.1609118214 -0.06046585837 -4.262465821e-19 0.1601506556 4.998048941e-19 0.00076116578)
(-0.1506645915 -0.06345468688 -2.783678385e-20 0.1494719855 -1.683750342e-19 0.001192606002)
(-0.1399009005 -0.063713382 -1.624203171e-19 0.1383192886 3.640362928e-19 0.001581611915)
(-0.1295094376 -0.06249450909 2.12452574e-19 0.12757699 2.136239159e-19 0.001932447625)
(-0.1193681614 -0.06033570244 -1.141618735e-19 0.1171196079 -2.30423073e-19 0.002248553559)
(-0.1098734299 -0.05770172927 4.335118199e-19 0.10734298 -7.00482368e-20 0.002530449837)
(-0.100834074 -0.05479647616 5.783402572e-19 0.09805404924 4.865205013e-19 0.002780024754)
(-0.09242960886 -0.05180427919 -2.326562709e-19 0.08943455098 -1.035154194e-18 0.002995057888)
(-0.08450303687 -0.0488072259 -7.044467005e-19 0.08132612709 9.373647614e-19 0.003176909779)
(-0.07713771056 -0.04587475298 6.121433827e-20 0.07381670758 1.550322394e-19 0.003321002971)
(-0.07022156252 -0.04305087117 -7.54376751e-21 0.0667927938 -1.66794779e-20 0.003428768726)
(-0.06379167585 -0.04034759321 -3.903428736e-19 0.06029836283 -6.248861147e-20 0.003493313022)
(-0.05777856321 -0.0378055142 -9.445123701e-21 0.05426203583 1.375593816e-19 0.003516527375)
(-0.0521919481 -0.03540204231 -2.535774811e-19 0.04870272148 -2.353502784e-20 0.003489226617)
(-0.04700226736 -0.03318896802 -3.905781875e-19 0.04358833721 -1.235664673e-19 0.00341393015)
(-0.04219921435 -0.03111912683 4.304408346e-19 0.03891983805 1.230655296e-18 0.003279376304)
(-0.03779152298 -0.02926164063 4.006351762e-19 0.03470298242 3.68728166e-20 0.003088540551)
(-0.03375108635 -0.02755137131 2.026313646e-19 0.03092240828 5.253144037e-19 0.002828678074)
(-0.03012612787 -0.02607226957 -3.800824046e-19 0.02762359242 3.771357531e-19 0.002502535445)
(-0.0268683675 -0.02475744781 -1.220576463e-19 0.02477136363 4.339800093e-19 0.002097003869)
(-0.02407218133 -0.02368000905 -2.165340102e-19 0.02245891037 1.008828003e-18 0.001613270965)
(-0.02166387512 -0.02281920966 1.170923597e-18 0.02062420246 -7.593821308e-20 0.001039672656)
(-0.01980945976 -0.02214041898 -2.700904535e-19 0.01943547956 1.905580309e-18 0.0003739802002)
(-0.1670548414 -0.06254886505 5.011678063e-19 0.1667802406 -1.016705752e-18 0.000274600732)
(-0.1557827267 -0.07024433661 -8.042852473e-19 0.1550364011 2.215183134e-20 0.0007463255766)
(-0.1443745117 -0.07323498872 2.635457524e-19 0.1432051567 -5.893044161e-19 0.001169354929)
(-0.1330132342 -0.07323076724 5.309563203e-19 0.1314624484 5.849237273e-19 0.001550785749)
(-0.1223615417 -0.07162293162 -1.364992244e-19 0.1204667457 -9.604389714e-19 0.001894795952)
(-0.1121757264 -0.06899544423 -1.609548816e-19 0.109970969 4.320790471e-19 0.002204757384)
(-0.1027715844 -0.06586635823 5.19816629e-19 0.1002904032 7.760371179e-21 0.002481181226)
(-0.09390463726 -0.06245328726 -3.876323907e-19 0.09117871945 -1.008995157e-18 0.002725917815)
(-0.08572367206 -0.05896233281 4.864593042e-19 0.0827868832 -4.126674531e-19 0.002936788858)
(-0.07804622437 -0.05547900672 1.297544845e-18 0.07493109849 2.280309042e-19 0.003115125885)
(-0.07094500857 -0.05208140063 -6.844543813e-19 0.06768856808 -7.40038159e-19 0.00325644049)
(-0.06429289084 -0.0488146355 1.592372854e-19 0.06093075903 4.010336836e-19 0.003362131805)
(-0.05812647776 -0.04569288523 3.250084855e-19 0.05470103668 3.726384676e-19 0.003425441083)
(-0.05236403356 -0.0427586575 2.233814874e-19 0.04891581641 6.455204243e-19 0.003448217152)
(-0.04702097501 -0.03998763462 7.425279195e-19 0.04359951883 -3.084742219e-19 0.003421456178)
(-0.04205502763 -0.03743558997 -3.542589689e-19 0.03870740355 1.084375247e-18 0.003347624081)
(-0.03746593724 -0.03505086582 1.568856206e-19 0.03425025475 -4.666157065e-19 0.003215682494)
(-0.03324786452 -0.03290916896 -4.818579593e-19 0.03021931727 2.974668655e-19 0.003028547247)
(-0.02938578714 -0.03093877174 5.815545496e-19 0.02661205972 -2.581489441e-19 0.002773727416)
(-0.02591212763 -0.02923262155 5.337281874e-19 0.02345821313 4.648513856e-19 0.002453914499)
(-0.02279110182 -0.02771654665 1.310149189e-18 0.02073484139 -5.532298902e-19 0.002056260427)
(-0.02010594327 -0.02647285513 -1.982924376e-19 0.01852401986 8.227746829e-19 0.001581923408)
(-0.01778420231 -0.02547709941 1.047971789e-18 0.01676473477 4.23595688e-19 0.001019467539)
(-0.01600756909 -0.02469582876 -6.300930601e-19 0.01564086126 -3.553933261e-19 0.0003667078301)
(-0.163453489 -0.071744277 1.646365062e-19 0.1631852134 1.105974685e-18 0.0002682755569)
(-0.1499869603 -0.07946016052 1.828844579e-19 0.1492578179 6.720010224e-20 0.0007291423733)
(-0.1373337169 -0.0822109778 -3.85872182e-19 0.1361912841 8.237023828e-19 0.001142432779)
(-0.125339374 -0.08180605169 2.017498383e-19 0.1238242857 -7.734906907e-19 0.001515088334)
(-0.1144202178 -0.07973536811 3.909086016e-19 0.1125690276 -2.371010389e-19 0.001851190236)
(-0.1042005783 -0.0766062041 7.429188811e-20 0.1020465481 7.196412305e-19 0.002154030252)
(-0.09490832613 -0.07297577418 -5.809007739e-19 0.09248421649 6.472819547e-20 0.002424109645)
(-0.08624139965 -0.06906506626 3.248728192e-19 0.08357816397 -1.232588058e-19 0.002663235688)
(-0.07831496619 -0.0650965873 -7.010632335e-19 0.07544568801 1.199727347e-18 0.002869278177)
(-0.0709191844 -0.0611541811 -7.244039445e-20 0.06787564679 -4.865011354e-19 0.003043537614)
(-0.06411507565 -0.05732277314 2.810735174e-19 0.06093344883 6.677034825e-19 0.003181626816)
(-0.05775934996 -0.05364553172 7.808548198e-19 0.05447443832 -3.629956677e-20 0.003284911637)
(-0.05188801701 -0.05013877328 -1.739151594e-19 0.04854123007 1.555598624e-19 0.00334678694)
(-0.04640617383 -0.04684447179 -3.847182618e-19 0.04303711764 -5.602183892e-19 0.003369056189)
(-0.04133538079 -0.04373765928 3.214569096e-19 0.03799245886 -1.111586137e-19 0.003342921928)
(-0.03661963135 -0.04087564902 2.084535214e-19 0.03334884022 -6.60211717e-19 0.003270791125)
(-0.03226958017 -0.03820413597 4.900218865e-20 0.02912770004 -8.856506946e-20 0.003141880124)
(-0.02826357559 -0.03580271145 7.650279295e-19 0.02530453714 -5.591362386e-19 0.002959038456)
(-0.02460082179 -0.03359543075 1.774666904e-19 0.02189075721 -3.294456503e-19 0.002710064571)
(-0.02129653204 -0.03168140133 -6.587550609e-19 0.01889894166 -5.433558198e-19 0.002397590388)
(-0.01832854033 -0.02998138121 6.128458994e-19 0.01631947528 -1.475450976e-19 0.002009065053)
(-0.01576785802 -0.02858502778 1.556471242e-18 0.01422223996 2.276800518e-19 0.00154561806)
(-0.01354349514 -0.02746424444 7.449708945e-19 0.01254742168 -1.057129012e-18 0.0009960734579)
(-0.01185391317 -0.02659009211 5.166884889e-20 0.01149561765 5.721150751e-19 0.0003582955209)
(-0.1593503412 -0.08075309391 1.275061325e-20 0.159089232 -5.810936697e-19 0.000261109229)
(-0.1436025238 -0.08805968137 -1.182814356e-18 0.1428928535 4.440195647e-19 0.0007096703363)
(-0.1296646243 -0.09031287142 7.331433336e-19 0.1285527 -1.941613276e-18 0.001111924339)
(-0.1170278878 -0.08936074219 -6.813880548e-19 0.1155532558 6.658049219e-19 0.001474632034)
(-0.1058486174 -0.0867490642 6.415622692e-19 0.104046849 -1.828357307e-19 0.001801768418)
(-0.09561322418 -0.08308378629 6.957967585e-19 0.09351669162 -9.94413635e-20 0.002096532566)
(-0.08645660558 -0.0789462265 -2.765002554e-20 0.08409718897 -2.748655354e-19 0.002359416612)
(-0.07801677683 -0.07454955849 1.650697101e-19 0.07542459962 -3.152199292e-19 0.002592177213)
(-0.07037332207 -0.07012704854 7.053760919e-19 0.06758058074 -5.584910725e-19 0.002792741332)
(-0.0632880188 -0.06575535457 2.47750735e-19 0.06032564668 4.720473564e-19 0.002962372113)
(-0.05680948799 -0.06152434314 -6.041030879e-19 0.05371268758 -4.944661767e-19 0.003096800408)
(-0.05077771157 -0.05747191855 9.335769225e-20 0.04758036035 -7.461995088e-20 0.003197351214)
(-0.04522801911 -0.05361654525 4.322006001e-19 0.04197042197 3.462254008e-19 0.003257597138)
(-0.04005182725 -0.04999703222 -2.303278618e-19 0.03677254006 4.512833466e-19 0.003279287182)
(-0.03527713201 -0.046588921 -4.014505705e-21 0.0320232711 7.117646354e-19 0.003253860903)
(-0.0308335806 -0.04344844888 -2.726303419e-19 0.02764992447 8.356430721e-19 0.003183656131)
(-0.02674329476 -0.04052063825 -2.726942951e-19 0.02368511437 2.240779796e-19 0.003058180395)
(-0.02296802551 -0.03788607847 -1.152548593e-18 0.02008781993 5.660413237e-19 0.002880205578)
(-0.01952195185 -0.03546713959 7.836387057e-19 0.01688409133 6.553792293e-19 0.002637860523)
(-0.01640214801 -0.03336605776 3.227586469e-19 0.01406844132 5.08767994e-19 0.002333706686)
(-0.01360081805 -0.03150088101 5.445988946e-19 0.01164528514 5.898288704e-19 0.001955532907)
(-0.01117597679 -0.02996663632 -9.667944764e-19 0.009671542791 -5.993029976e-19 0.001504433998)
(-0.00905831505 -0.0287316289 1.648580804e-18 0.008088783374 1.532150196e-19 0.0009695316758)
(-0.007463548484 -0.02777498274 -5.806720534e-20 0.007114802212 -1.143825241e-18 0.0003487462726)
(-0.1547515149 -0.08954855535 1.724560355e-18 0.1544983915 -1.087686146e-19 0.0002531234356)
(-0.1367124793 -0.09600137514 4.065592763e-20 0.1360245096 -8.413084739e-19 0.0006879696846)
(-0.1214972683 -0.09749099688 -1.719353919e-19 0.1204193443 -2.281253474e-19 0.001077923977)
(-0.1082362014 -0.0958410811 4.883287938e-19 0.1068066586 1.191591963e-18 0.00142954277)
(-0.09681959404 -0.09260864739 -4.477682149e-19 0.09507291004 -3.549665834e-19 0.001746683996)
(-0.08659414679 -0.08837279288 3.462697616e-19 0.08456170321 4.425342958e-19 0.002032443576)
(-0.07759945276 -0.08372321468 -4.842007266e-19 0.07531214989 -1.203662041e-19 0.002287302868)
(-0.06941318497 -0.07885379394 -5.893249976e-19 0.06690022146 6.50153458e-19 0.002512963515)
(-0.06207836957 -0.07400259243 7.058659278e-20 0.05937095453 5.572742682e-19 0.002707415035)
(-0.05532839007 -0.06923345416 9.535843981e-20 0.05245650851 7.150122586e-19 0.002871881559)
(-0.04919906422 -0.06463915411 1.661794038e-19 0.04619684088 4.024606214e-20 0.003002223344)
(-0.04351369767 -0.06024895773 7.050906991e-19 0.04041397399 6.569173876e-19 0.003099723681)
(-0.03830682296 -0.05608344576 6.218974954e-19 0.03514867269 -4.981306974e-20 0.003158150265)
(-0.03345616458 -0.05217556701 4.015084251e-19 0.03027696945 -7.398716338e-19 0.003179195127)
(-0.02899621235 -0.04850255854 9.869314147e-19 0.02584165354 -3.380058316e-19 0.003154558814)
(-0.02484214253 -0.04511688371 2.787197416e-19 0.02175563792 -1.096071741e-18 0.003086504604)
(-0.02102772999 -0.04196493714 2.272139093e-19 0.0180628685 -1.994987355e-19 0.002964861485)
(-0.01749787149 -0.03912531384 9.28830327e-19 0.01470555452 -6.528777855e-19 0.002792316969)
(-0.01428200555 -0.03652132941 -8.282588103e-19 0.0117246409 -3.249202349e-20 0.002557364643)
(-0.01135868283 -0.03425519374 -4.809271388e-19 0.009096192473 -4.820739748e-19 0.002262490353)
(-0.008734803777 -0.03224470356 1.689582508e-19 0.006838946024 5.891123092e-20 0.001895857753)
(-0.006454958635 -0.03058818154 -2.041482231e-19 0.004996431691 7.860733336e-19 0.001458526944)
(-0.004451728843 -0.02925040696 -1.350827204e-18 0.003511780372 -6.57363848e-19 0.0009399484711)
(-0.002957911413 -0.02822223051 9.589957979e-19 0.002619805387 -1.403368092e-19 0.0003381060261)
(-0.1496646322 -0.09810332924 -4.219890326e-19 0.1494202887 5.23265809e-19 0.0002443434986)
(-0.1294030605 -0.1032566971 2.488973954e-19 0.1287389515 -8.664001107e-19 0.0006641090494)
(-0.112965726 -0.103716691 -2.338439347e-19 0.1119251868 1.605761207e-18 0.001040539191)
(-0.09912642528 -0.1012191492 3.691896848e-19 0.09774646195 -7.321908795e-19 0.001379963327)
(-0.08751087985 -0.09728730372 -1.305588847e-19 0.08582476785 3.733890408e-19 0.001686112)
(-0.077328874 -0.092447751 1.286067994e-18 0.07536690717 -5.614920962e-19 0.00196196683)
(-0.06852490566 -0.08728272195 1.92731955e-19 0.06631690731 1.899744944e-19 0.002207998351)
(-0.06061798168 -0.0819552184 9.117334217e-19 0.05819213525 -7.924621823e-19 0.002425846427)
(-0.05361455828 -0.07670213608 3.165807833e-19 0.0510009869 -1.540381111e-19 0.002613571383)
(-0.04722063081 -0.07156880569 6.148688484e-19 0.04444827837 -6.843281828e-19 0.002772352441)
(-0.04145914567 -0.06664890491 -1.108817517e-18 0.0385609506 -3.230755479e-19 0.002898195068)
(-0.03613737857 -0.06195963895 2.335871894e-21 0.0331450446 -2.425860161e-19 0.002992333975)
(-0.03128895998 -0.05752369992 -2.073848916e-19 0.02824020511 -5.170936137e-19 0.003048754871)
(-0.02677837248 -0.05336544864 -4.643632756e-19 0.02370928736 -3.062479217e-19 0.003069085129)
(-0.02264646869 -0.04946502756 -2.795717055e-19 0.01960115351 3.872648222e-19 0.003045315184)
(-0.01879428363 -0.04586840222 1.194678883e-19 0.01581465874 7.67443314e-19 0.002979624889)
(-0.01526709672 -0.04252540645 -4.088555508e-19 0.01240489803 4.35878844e-19 0.002862198686)
(-0.01199319202 -0.03950962354 9.177794143e-20 0.009297563302 -4.63773821e-19 0.002695628718)
(-0.009017117593 -0.03674796751 1.412374298e-18 0.006548305833 1.654818495e-18 0.00246881176)
(-0.006299038408 -0.03433944145 2.755748126e-20 0.004114891842 1.602191644e-19 0.002184146566)
(-0.003860474847 -0.03220406772 1.686838951e-18 0.002030262841 9.478851535e-19 0.001830212005)
(-0.001732495495 -0.03044136841 -2.900823213e-19 0.0003244690659 -1.01926541e-18 0.00140802643)
(0.0001502094755 -0.02901267193 -3.529427261e-19 -0.001057614797 -4.689967639e-19 0.0009074053218)
(0.001538592232 -0.02792421785 -7.292871999e-19 -0.001864992428 -5.789392756e-20 0.0003264001963)
(-0.144098782 -0.1063897511 7.133450127e-19 0.1438639857 2.103685223e-19 0.000234796398)
(-0.1217614855 -0.1098099958 -4.625829054e-19 0.1211233226 4.749168683e-19 0.0006381629037)
(-0.1042047715 -0.1089825119 5.721761653e-21 0.1032048848 -1.665778235e-20 0.0009998867373)
(-0.08986103305 -0.1054930812 1.49952506e-19 0.0885349838 3.196057175e-19 0.001326049243)
(-0.07810044636 -0.1007870551 -7.706932906e-19 0.07648020417 -2.297232382e-19 0.001620242191)
(-0.06800297404 -0.09531346752 4.745440744e-19 0.06611765023 -3.150072568e-19 0.001885323804)
(-0.0594209649 -0.08963150947 -2.910442144e-19 0.0572992132 -3.32776566e-19 0.002121751698)
(-0.05181838361 -0.083862061 -4.925770374e-19 0.04948728349 -3.343458913e-19 0.002331100127)
(-0.04516613663 -0.07823494569 7.004290805e-19 0.04265463159 -2.139756319e-20 0.002511505033)
(-0.03914481466 -0.07277148878 1.005256503e-18 0.03648071534 8.594936762e-20 0.002664099313)
(-0.03376476502 -0.06756425243 9.704950462e-19 0.03097972095 8.57915122e-20 0.002785044071)
(-0.02881848438 -0.06261509713 1.352436685e-19 0.02594295977 3.502556709e-19 0.002875524607)
(-0.02433858501 -0.05794878403 1.584728545e-19 0.02140882412 8.086782985e-19 0.002929760891)
(-0.02017724615 -0.05357845932 6.985364213e-19 0.01722793312 1.326593047e-19 0.002949313026)
(-0.01638133018 -0.04948833186 6.905337204e-19 0.01345484594 1.299189359e-18 0.002926484239)
(-0.01283854506 -0.04571522846 3.030563529e-19 0.009975179197 -4.412880282e-19 0.002863365861)
(-0.009605158345 -0.0422144328 -5.310118597e-19 0.006854631784 -9.757764657e-19 0.002750526561)
(-0.00659361244 -0.03905157385 -1.085807119e-19 0.004003155198 6.027700339e-19 0.002590457243)
(-0.003862949198 -0.03615975618 7.535347159e-19 0.00149045936 -8.203136805e-19 0.002372489838)
(-0.001355636194 -0.03363166119 -9.214496891e-19 -0.0007432955748 -1.014401016e-18 0.002098931769)
(0.0008926916616 -0.03139196551 -3.122249004e-19 -0.002651500855 -8.399171905e-19 0.001758809193)
(0.002864231943 -0.02953932085 5.816586748e-19 -0.004217330939 -1.230237787e-18 0.001353098995)
(0.004621978069 -0.02803169589 -9.465123226e-19 -0.005493988429 3.614253079e-20 0.0008720103595)
(0.005902125032 -0.02689426322 7.350031941e-19 -0.006215794983 1.819358504e-19 0.0003136699513)
(-0.1380648904 -0.1143798077 1.079849626e-20 0.1378403777 5.354061746e-19 0.0002245126354)
(-0.1138739077 -0.1156585885 4.716312379e-19 0.113263694 -5.314188061e-19 0.0006102136911)
(-0.09534629064 -0.1133019557 -5.75785132e-19 0.09439019496 1.200351289e-18 0.0009560956786)
(-0.08059856755 -0.1086867256 7.707195643e-19 0.07933059588 -6.108634919e-19 0.001267971668)
(-0.06876162266 -0.1031383065 -5.618627862e-19 0.06721233849 -1.326501251e-20 0.001549284167)
(-0.05879703529 -0.09700450084 -5.442757837e-20 0.05699427718 7.659290445e-19 0.00180275811)
(-0.0504704275 -0.09080660668 6.280041101e-19 0.04844158973 2.601587748e-19 0.002028837765)
(-0.04319634611 -0.08461276313 -5.22714377e-19 0.04096732047 6.525799848e-19 0.002229025641)
(-0.03691208557 -0.07864011007 -6.591595029e-19 0.03451054471 2.810967813e-19 0.002401540859)
(-0.03127580625 -0.07288077347 -4.723945377e-19 0.02872834166 6.434868729e-19 0.00254746459)
(-0.026285833 -0.06742429805 -8.654269331e-20 0.02362270468 -6.70915682e-19 0.002663128325)
(-0.02172172241 -0.0622540874 4.963112275e-19 0.01897206041 7.433205194e-19 0.002749662007)
(-0.01761494796 -0.05739694665 1.649790282e-20 0.01481340695 -1.240669478e-18 0.002801541012)
(-0.01380678187 -0.05285231492 -4.408153652e-19 0.01098653029 -3.001779031e-19 0.002820251573)
(-0.010349549 -0.04860958125 8.178165839e-19 0.007551113007 -8.943317798e-19 0.002798435992)
(-0.007118890529 -0.04469392574 1.311540091e-19 0.004380801992 -1.312039295e-18 0.002738088537)
(-0.004181214935 -0.04106799848 6.414318743e-19 0.001551021381 2.773142022e-19 0.002630193554)
(-0.001434379215 -0.03778667672 -1.117696226e-19 -0.001042750142 -9.973014266e-19 0.002477129357)
(0.00104912101 -0.0347917222 5.952147139e-19 -0.003317820779 8.725126073e-19 0.002268699769)
(0.003343321903 -0.03216652953 1.223207499e-18 -0.005350430847 -5.341871605e-19 0.002007108944)
(0.005399370878 -0.02984274226 -3.453989786e-19 -0.007081240434 8.994028184e-19 0.001681869556)
(0.007212153707 -0.02791615876 1.635151939e-19 -0.008506063402 -3.278410452e-19 0.001293909695)
(0.008842133904 -0.0263414874 2.835034981e-21 -0.009676001175 1.210826351e-18 0.0008338672717)
(0.01001287311 -0.0251661518 -3.982388011e-19 -0.01031282242 -3.736039628e-19 0.0002999493073)