/*--------------------------------*- C++ -*----------------------------------*\
| =========                 |                                                 |
| \\      /  F ield         | foam-extend: Open Source CFD                    |
|  \\    /   O peration     | Version:  3.0                                   |
|   \\  /    A nd           | Web:         http://www.extend-project.de       |
|    \\/     M anipulation  |                                                 |
\*---------------------------------------------------------------------------*/
FoamFile
{
    version     2.0;
    format      ascii;
    class       volVectorField;
    location    "19";
    object      u;
}
// * * * * * * * * * * * * * * * * * * * * * * * * * * * * * * * * * * * * * //

dimensions      [0 0 0 0 0 0 0];

internalField   nonuniform List<vector> 
2688
(
(0.1852172897 -0.05330501972 3.438227859e-17)
(0.2514606648 -0.04062103082 -2.747362819e-17)
(0.4760130198 -0.03655710597 7.502330587e-17)
(0.5021317112 -0.02799416893 7.67088532e-18)
(0.652533339 -0.02576149795 2.225898725e-17)
(0.6594529624 -0.02021977373 6.191772995e-18)
(0.7674350632 -0.01863555237 -1.143101226e-17)
(0.7629193206 -0.01500624781 2.769258691e-17)
(0.8456809104 -0.01375702636 -3.914116426e-17)
(0.8335515327 -0.01131833276 2.89451914e-17)
(0.9006831137 -0.01025612157 -1.413749219e-18)
(0.8829645279 -0.008607513166 1.915546607e-17)
(0.940237155 -0.007617230424 1.780456113e-17)
(0.9179035361 -0.006538125998 -5.57824405e-17)
(0.9690726184 -0.005532088147 5.248345812e-17)
(0.9424762521 -0.004891910305 -4.535671636e-17)
(0.9901443791 -0.003806047779 5.324410333e-17)
(0.9592756279 -0.003520137735 -2.755396239e-17)
(1.005321654 -0.002320670281 3.539325015e-18)
(0.9700017224 -0.002303709644 2.076706989e-17)
(1.015717499 -0.001030176577 -1.073280422e-17)
(0.9759210951 -0.001094404323 -6.868045398e-18)
(1.021774126 2.955754046e-05 -7.420811721e-18)
(0.9782531602 0.0004371054071 -6.932953454e-18)
(0.197147447 -0.159238713 -1.228613688e-16)
(0.2605586059 -0.1212941506 -2.379122785e-18)
(0.484211612 -0.1092299825 -2.278867479e-16)
(0.5083901212 -0.08358214184 1.676304903e-17)
(0.6583078739 -0.07698821922 -9.464979478e-17)
(0.6639689423 -0.06037145102 -7.021765217e-18)
(0.7716077982 -0.05570428603 -2.76963037e-18)
(0.7662691865 -0.04480477648 -7.164435968e-17)
(0.8487605703 -0.04113771772 4.687569562e-17)
(0.8360772368 -0.0337914574 -4.504745346e-17)
(0.9029788351 -0.03067356105 -3.832329491e-17)
(0.8848844264 -0.02569417324 -5.081058711e-17)
(0.9419418831 -0.02277791953 6.617833246e-18)
(0.9193611496 -0.01951196606 1.7930758e-17)
(0.9703106267 -0.01653742972 -3.034284376e-17)
(0.9435664903 -0.01459650756 4.758919424e-17)
(0.990996442 -0.0113761559 -6.547423799e-17)
(0.9600595208 -0.0105033704 2.791138832e-18)
(1.005840985 -0.006933910451 6.277919068e-17)
(0.9705132371 -0.006867597263 -9.775521384e-17)
(1.015949044 -0.003073384058 6.033850916e-17)
(0.9761634914 -0.003257373268 3.901708014e-18)
(1.021768615 9.363761881e-05 1.511526424e-17)
(0.978152249 0.001323286054 2.862889905e-17)
(0.2208712837 -0.2631703853 2.58995092e-16)
(0.2786320219 -0.2005013677 7.825377198e-17)
(0.5004794022 -0.180502496 2.617666605e-16)
(0.5208432348 -0.1381493948 2.547324778e-18)
(0.6697821523 -0.1272279975 8.771985724e-17)
(0.6729626198 -0.09976250452 8.306411026e-17)
(0.7799150285 -0.09206488422 -5.454474566e-17)
(0.7729432491 -0.07402436743 1.604833792e-16)
(0.8548960795 -0.06799190205 -6.875176353e-17)
(0.8411110186 -0.05582297623 1.371852177e-16)
(0.9075535386 -0.05069704871 5.101944768e-17)
(0.8887126315 -0.04244603775 6.956474605e-17)
(0.9453392758 -0.03764781271 -4.059451655e-18)
(0.9222692403 -0.03223414051 -5.445929001e-17)
(0.9727778115 -0.0273335587 5.983394308e-17)
(0.9457427925 -0.0241142719 -1.436719514e-16)
(0.992693692 -0.01880273127 1.908477627e-16)
(0.9616253555 -0.01735260483 -1.229651762e-16)
(1.006874879 -0.01146036505 -1.697084697e-17)
(0.9715370098 -0.01134520138 7.198882096e-17)
(1.016407663 -0.00507782434 -2.957706672e-17)
(0.976649191 -0.005378315083 -4.759889218e-17)
(1.021754342 0.0001565991318 -4.543442815e-17)
(0.9779546147 0.002192718984 5.099931259e-17)
(0.2560965701 -0.3637898112 -2.877555237e-16)
(0.3054368514 -0.2771294802 -1.824867753e-16)
(0.5246415763 -0.2495313196 -3.861886197e-16)
(0.5393134027 -0.1909554987 5.98381894e-17)
(0.6868055511 -0.1758875584 -2.130482752e-16)
(0.6863011018 -0.1379024505 6.639268692e-18)
(0.7922285303 -0.1272760069 -5.027606457e-17)
(0.7828393351 -0.1023279476 -9.430505068e-17)
(0.8639895403 -0.09400032733 -6.846887272e-17)
(0.8485732364 -0.07716827655 -9.404430325e-17)
(0.9143342604 -0.07009078642 -1.104910859e-16)
(0.8943861203 -0.05867534415 -8.140901013e-17)
(0.9503747953 -0.05204830665 7.374504805e-17)
(0.9265771982 -0.0445572111 -3.475798782e-18)
(0.9764338033 -0.03778678925 4.200755481e-17)
(0.9489649228 -0.03333147753 7.490631148e-17)
(0.9952085737 -0.02599192833 -1.206643928e-16)
(0.9639431147 -0.02398438666 8.004292226e-17)
(1.008407568 -0.0158416054 1.400187993e-18)
(0.973051418 -0.01568084236 -8.341916843e-17)
(1.017087107 -0.007018483983 5.154144768e-17)
(0.9773661165 -0.007432075826 9.056637413e-17)
(1.021734077 0.0002184274483 -6.148806352e-17)
(0.9776590573 0.003034435115 1.04796601e-16)
(0.3023419497 -0.4598396472 3.40767927e-16)
(0.340686541 -0.3503251888 1.430754692e-16)
(0.5563673498 -0.3153971451 4.878448828e-16)
(0.5635942495 -0.2413773389 -8.517517057e-17)
(0.7091760988 -0.2223152385 1.818288446e-16)
(0.7038316396 -0.1743023961 7.801060325e-17)
(0.8084202525 -0.160877083 -1.57842363e-17)
(0.7958473064 -0.1293307827 1.287730172e-16)
(0.8759477208 -0.1188173889 1.310095656e-16)
(0.8583826892 -0.09752933435 1.140995889e-16)
(0.9232498199 -0.08859601022 -7.948947187e-20)
(0.9018449437 -0.07415750462 1.45823736e-16)
(0.9569950328 -0.06579107554 -1.343701417e-16)
(0.9322419317 -0.05631528179 8.262893517e-17)
(0.9812402642 -0.04776463169 -1.553337771e-16)
(0.9532031812 -0.04212773637 -1.094828255e-16)
(0.9985150058 -0.03285523781 9.579426806e-17)
(0.966993277 -0.03031393352 -7.842182354e-17)
(1.010422953 -0.02002450898 3.422123571e-17)
(0.9750458467 -0.01981898401 4.311763568e-17)
(1.017980091 -0.008871291894 -9.449079031e-17)
(0.9783112516 -0.009392360302 5.038014937e-17)
(1.021706446 0.0002767385582 -2.007103816e-16)
(0.9772727828 0.003838081319 1.984307476e-16)
(0.3590773151 -0.5500983393 -3.02647116e-16)
(0.3838719828 -0.419071959 -6.520669513e-17)
(0.59527538 -0.3773184634 -4.100637943e-16)
(0.5933551813 -0.2887518448 8.470044006e-17)
(0.7365965028 -0.2659667383 -1.415408837e-16)
(0.7253250469 -0.2085165626 -1.441584404e-16)
(0.8282608623 -0.1924654434 5.706140183e-17)
(0.8117945422 -0.1547192204 -1.903785841e-16)
(0.8906017396 -0.1421490357 -2.889439679e-16)
(0.8704084209 -0.1166756721 8.944010737e-17)
(0.9341772905 -0.1059932062 -5.563808159e-17)
(0.9109885568 -0.0887151341 -3.846069529e-17)
(0.9651099246 -0.0787090999 -1.056336874e-17)
(0.9391849824 -0.06736948372 1.094254491e-16)
(0.9871315313 -0.05714191083 -1.680663061e-17)
(0.9583962134 -0.05039612608 2.235486213e-16)
(1.002567086 -0.03930434897 1.638100369e-17)
(0.9707291475 -0.03626308197 3.773359981e-17)
(1.012892539 -0.02395459461 -1.075931563e-17)
(0.9774875339 -0.02370849564 -6.151792942e-18)
(1.019074334 -0.0106119619 1.004028331e-16)
(0.979467284 -0.01123510355 2.089474019e-17)
(1.021672876 0.0003323739745 1.504017611e-16)
(0.9767973399 0.004592981365 -1.283512219e-16)
(0.4255353114 -0.6334485982 -5.22814994e-17)
(0.4345212263 -0.4825823888 -5.607132029e-17)
(0.6408684864 -0.4344763857 4.703113972e-16)
(0.6282459462 -0.332502577 -1.673064201e-16)
(0.768739386 -0.30625521 2.538280651e-17)
(0.7505157595 -0.2401024155 2.194489945e-16)
(0.8515227494 -0.2216224998 8.482013722e-18)
(0.83048501 -0.1781518783 -4.968095802e-17)
(0.9077819359 -0.163684577 4.480691802e-16)
(0.884502644 -0.1343452932 -2.641577559e-16)
(0.9469869418 -0.1220519655 -2.780456397e-17)
(0.9217052552 -0.1021508297 1.683417888e-16)
(0.9746219952 -0.09063502179 -1.03882974e-16)
(0.9473236626 -0.07757316399 6.679559035e-17)
(0.9940374016 -0.06580044511 -1.861755379e-16)
(0.9644850104 -0.05802925624 -1.923612628e-17)
(1.00731756 -0.0452598192 -1.806809865e-16)
(0.9751108806 -0.04175531977 4.15284738e-17)
(1.015788095 -0.02758384348 -5.220164255e-17)
(0.9803524093 -0.02729900784 -2.796940955e-18)
(1.020357136 -0.01221926059 -1.425527527e-16)
(0.980824661 -0.0129359383 -9.123431502e-17)
(1.021632844 0.0003834698235 9.540178555e-18)
(0.9762417159 0.00529074587 -2.324399423e-16)
(0.5009287804 -0.7088232115 4.986050827e-16)
(0.4919306884 -0.5399992242 -1.774003502e-16)
(0.6925735699 -0.4861861466 -2.668284553e-17)
(0.6678051524 -0.3720671115 -1.697575736e-16)
(0.8051835651 -0.3427091201 1.528647973e-16)
(0.7790838779 -0.2686742088 -2.881900522e-16)
(0.8778955936 -0.2480032258 9.586027081e-17)
(0.8516819627 -0.1993524689 2.124681166e-18)
(0.9272609726 -0.1831693204 -1.355069178e-16)
(0.9004873101 -0.1503331705 1.484231337e-16)
(0.9615120724 -0.1365804939 1.108522271e-16)
(0.9338590585 -0.1143072785 -1.484243392e-16)
(0.985408297 -0.101423116 -8.971716271e-19)
(0.9565526302 -0.08680453989 -4.770673318e-17)
(1.001867969 -0.0736318675 1.901058689e-16)
(0.9713880925 -0.06493464489 -1.256029378e-16)
(1.012703579 -0.05064594346 2.497734767e-16)
(0.9800774335 -0.04672399546 -1.519827261e-16)
(1.019070817 -0.03086602033 1.198404655e-16)
(0.9835988844 -0.0305475517 -1.22108024e-16)
(1.021811667 -0.01367294769 3.458802354e-16)
(0.9823622277 -0.01447543912 -1.628826242e-16)
(1.021588005 0.0004296831236 1.130474718e-16)
(0.9756105003 0.005920632645 -2.348601583e-17)
(0.5842690318 -0.7752935898 -7.682149013e-16)
(0.5554359554 -0.5906422182 2.233172724e-16)
(0.7497439773 -0.5317690868 -2.882504819e-16)
(0.7115561099 -0.4069552963 2.872384749e-16)
(0.8454855638 -0.3748383638 3.533051652e-18)
(0.8106727998 -0.2938627664 2.094483769e-17)
(0.9070614008 -0.2712547875 -1.057549273e-16)
(0.8751189038 -0.2180395845 1.410564444e-17)
(0.9488021704 -0.2003432762 -9.302346615e-17)
(0.9181606565 -0.1644245568 -4.501002018e-17)
(0.9775740228 -0.1493869515 -2.386165891e-16)
(0.9472971552 -0.1250220075 3.052633151e-16)
(0.997335658 -0.1109335612 -1.762535149e-16)
(0.9667577616 -0.09494156223 2.104527544e-16)
(1.010527152 -0.08053647577 -1.802591826e-16)
(0.9790223743 -0.07102161168 2.213121425e-16)
(1.018659724 -0.05539486793 -2.44888761e-16)
(0.9855709068 -0.05110361352 2.585087424e-16)
(1.022700906 -0.03375969573 -4.252279038e-17)
(0.9871903871 -0.03341040048 2.490888528e-17)
(1.023419662 -0.01495418601 -1.180431461e-16)
(0.9840638044 -0.0158315229 -7.731442334e-17)
(1.02153747 0.0004707762346 2.168159843e-16)
(0.9749134806 0.006477285023 -4.572288594e-16)
(0.6745407832 -0.83200548 7.761226976e-16)
(0.6241906183 -0.6338464718 -7.94722037e-16)
(0.8116569731 -0.5706753368 9.328616062e-16)
(0.7589293507 -0.4367246778 -5.943149403e-16)
(0.8891268729 -0.4022666513 2.746523451e-16)
(0.8448820038 -0.3153599291 -1.089967817e-16)
(0.9386432504 -0.291104504 1.654315605e-16)
(0.9005013396 -0.2339903051 1.075313674e-16)
(0.9721284884 -0.2150042231 2.457308486e-16)
(0.9373015388 -0.1764533559 2.795696351e-17)
(0.9949676718 -0.1603187031 1.898654846e-16)
(0.9618508269 -0.1341684367 -1.236430721e-16)
(1.010252017 -0.1190510342 -1.660740499e-17)
(0.9778093475 -0.1018875572 -1.964478491e-16)
(1.019904182 -0.08642941597 6.019564398e-17)
(0.9872891113 -0.07621786379 -3.623820327e-16)
(1.025109535 -0.05944803321 2.578388626e-16)
(0.9915188694 -0.05484286202 -4.212142843e-16)
(1.02663197 -0.03622966222 1.527384308e-16)
(0.9910785771 -0.0358551521 -1.72328129e-16)
(1.025161389 -0.01604803249 2.800320912e-16)
(0.9859055923 -0.01699029853 -1.480293937e-16)
(1.021483565 0.0005055673633 1.320670387e-16)
(0.9741580277 0.006950919554 1.537710572e-16)
(0.770583773 -0.878262675 -3.134762469e-16)
(0.6973677426 -0.6690861492 4.714574798e-16)
(0.8775366899 -0.6023964373 -2.93646105e-16)
(0.8093461178 -0.4610020948 7.203366298e-18)
(0.9355673691 -0.4246250217 7.217554876e-17)
(0.8812850463 -0.3328879427 -2.11601564e-16)
(0.9722514043 -0.3072845987 -1.067001258e-16)
(0.927510059 -0.2469941268 -3.403877128e-16)
(0.9969512143 -0.2269550246 -2.294078244e-16)
(0.9576683576 -0.1862590573 -2.314335433e-16)
(1.013476881 -0.1692301698 -1.651833455e-16)
(0.9773369014 -0.1416242533 2.078933445e-16)
(1.023996762 -0.1256687246 -1.474925808e-16)
(0.9895695327 -0.1075494953 3.683809587e-16)
(1.029882619 -0.09123367386 -4.388985456e-17)
(0.9960864259 -0.08045326401 4.732694913e-16)
(1.031972896 -0.06275230379 -2.443186817e-16)
(0.9978490232 -0.0578903684 4.955079607e-16)
(1.030814769 -0.03824305579 -1.461630906e-16)
(0.9952169381 -0.03784718666 9.525650309e-17)
(1.027014112 -0.01693935868 -6.332864968e-17)
(0.9878662908 -0.01793389128 -2.61314521e-16)
(1.021425223 0.0005343090803 1.743896508e-16)
(0.9733547547 0.007338313848 -3.222036444e-16)
(0.8712095231 -0.913467828 2.117369496e-16)
(0.7740177677 -0.6959085283 -3.533249394e-16)
(0.9465543146 -0.6265489882 2.920116265e-16)
(0.8621576469 -0.4794831044 -1.090064868e-16)
(0.9842175402 -0.4416526996 7.061736639e-17)
(0.9194200234 -0.3462330954 2.469295828e-16)
(1.007458225 -0.3196079032 2.624445309e-17)
(0.9558049971 -0.2568959683 5.038604199e-16)
(1.02295486 -0.2360571563 2.117758644e-16)
(0.9790055022 -0.1937263423 2.679354834e-16)
(1.032866838 -0.176017134 -6.415140205e-18)
(0.9935606481 -0.1473024326 -3.997359563e-17)
(1.038395627 -0.1307085098 6.168470492e-17)
(1.001889608 -0.1118618657 -2.461116883e-16)
(1.040336038 -0.09489238564 -1.372068303e-17)
(1.005302275 -0.08367955242 -5.081389153e-16)
(1.039163119 -0.06526882523 8.722846269e-17)
(1.004480013 -0.06021228326 -2.644999277e-16)
(1.035196969 -0.03977662413 -2.339014571e-17)
(0.9995515918 -0.03936538349 -1.927666354e-16)
(1.028955498 -0.01761834043 2.462006463e-16)
(0.9899196239 -0.018653629 -8.99017693e-17)
(1.021364803 0.0005561940495 1.86406569e-16)
(0.9725127166 0.007632171751 2.843265033e-17)
(0.9751386226 -0.9371923522 2.474596047e-17)
(0.8531986039 -0.713980324 -4.027948662e-17)
(1.01784038 -0.6428165728 1.307960884e-16)
(0.916711915 -0.4919330012 -2.630189094e-16)
(1.034468551 -0.4531182403 4.019222773e-17)
(0.9588113508 -0.3552213923 -8.038625765e-17)
(1.043824056 -0.3279048606 -1.227405565e-16)
(0.9850310132 -0.2635639357 -3.90631026e-16)
(1.049814624 -0.2421852598 -9.441400038e-17)
(1.001044389 -0.1987541939 -1.360724897e-16)
(1.052895103 -0.1805865842 -6.185477169e-17)
(1.010318021 -0.151125239 1.680643976e-16)
(1.05326839 -0.1341016381 -3.723808634e-16)
(1.014615109 -0.1147648038 5.113225683e-16)
(1.05113336 -0.09735554403 -2.862300621e-16)
(1.014821683 -0.08585104958 5.372629303e-16)
(1.046589759 -0.06696283151 -1.217146296e-16)
(1.011329828 -0.06177478652 2.384157987e-16)
(1.039723099 -0.04080876273 1.22691098e-16)
(1.004029711 -0.04038669642 -3.086381716e-18)
(1.030960304 -0.01807508135 -1.167786626e-17)
(0.9920413606 -0.01913737777 -4.693209612e-17)
(1.02130169 0.0005711782569 2.679958359e-17)
(0.9716435686 0.007830940684 -2.115202133e-16)
(1.081074195 -0.9491250628 -2.990232042e-17)
(0.9338984234 -0.7230742364 4.916509147e-17)
(1.090501825 -0.6510049583 -1.642247667e-16)
(0.9723130672 -0.4981987729 1.550567714e-16)
(1.085687736 -0.4588920726 -5.109471184e-18)
(0.9989599292 -0.3597457833 -5.509752607e-17)
(1.080890117 -0.3320840769 1.231302433e-16)
(1.014819672 -0.2669209249 1.614463338e-16)
(1.077191529 -0.2452723344 5.314829525e-17)
(1.023507907 -0.2012859716 -1.536609734e-17)
(1.073309077 -0.1828884957 1.445558147e-16)
(1.027398326 -0.153050669 -1.698884103e-16)
(1.068427721 -0.1358109444 2.434628547e-16)
(1.027585772 -0.1162273452 -2.898755645e-16)
(1.062138841 -0.09859638656 2.150984779e-16)
(1.024524259 -0.08694549408 -2.950359687e-16)
(1.054159631 -0.06781625183 1.556455328e-17)
(1.018311071 -0.06256273816 -2.863452593e-17)
(1.044336574 -0.04132875477 -1.957133176e-16)
(1.008593323 -0.04090211136 1.174046055e-16)
(1.03300398 -0.01830505616 -1.713450061e-17)
(0.9942032034 -0.0193820103 1.841072237e-17)
(1.02123783 0.0005790549172 5.521519565e-17)
(0.9707571216 0.007930212275 -3.070232853e-18)
(1.187677267 -0.9491274148 2.751247559e-17)
(1.015113556 -0.7230734022 -4.693832786e-17)
(1.163620241 -0.6510025522 -6.637804683e-17)
(1.028269335 -0.4981972214 1.611372266e-16)
(1.137230024 -0.4588891688 -5.072276044e-17)
(1.039363982 -0.3597435268 1.874350676e-16)
(1.118190388 -0.3320815355 -1.365958011e-16)
(1.044797185 -0.2669184439 1.291010514e-16)
(1.10474151 -0.2452703235 2.005772524e-17)
(1.046113486 -0.2012836963 1.77806951e-17)
(1.09385201 -0.1828868385 -1.979895425e-16)
(1.044586551 -0.153048771 9.804949295e-17)
(1.083682673 -0.1358095287 -5.500674155e-17)
(1.040638476 -0.1162257994 5.479849651e-17)
(1.073213667 -0.0985951077 -1.969970937e-16)
(1.034288519 -0.08694423797 1.69445622e-16)
(1.061777218 -0.06781510906 -6.798028598e-17)
(1.025337177 -0.06256178714 -1.266986181e-17)
(1.04897912 -0.0413277753 6.317652461e-17)
(1.013186716 -0.04090132323 -1.234617598e-16)
(1.035060326 -0.01830417544 -9.930520055e-18)
(0.9963795814 -0.01938151406 3.182336715e-17)
(1.021173049 0.0005796528926 -1.751745038e-16)
(0.9698656462 0.007930528352 2.172388194e-16)
(1.293611688 -0.9371888075 -1.079831294e-16)
(1.095815308 -0.7139820842 1.988679562e-16)
(1.236281848 -0.6428166387 -1.32468145e-16)
(1.083871605 -0.4919334863 -1.408357326e-16)
(1.188449589 -0.4531201861 1.094868051e-17)
(1.079512939 -0.3552205129 -2.462706577e-16)
(1.155256839 -0.3279074349 9.944682338e-17)
(1.074585899 -0.2635625544 -3.120750648e-16)
(1.132118772 -0.2421877295 -1.210354694e-16)
(1.068577 -0.1987532628 -1.542828064e-16)
(1.114266265 -0.18058833 2.648873202e-16)
(1.061666866 -0.1511250594 -1.202090626e-16)
(1.098842155 -0.1341026344 1.133679266e-16)
(1.053609129 -0.1147652802 -5.738063488e-17)
(1.084219145 -0.09735584057 1.60371306e-16)
(1.04399107 -0.08585205566 5.794900015e-17)
(1.069346991 -0.0669626222 1.132428059e-17)
(1.03231845 -0.06177634138 1.661613692e-16)
(1.053592479 -0.04080809049 -9.611891728e-17)
(1.017750411 -0.04038817108 2.203445791e-16)
(1.037103868 -0.01807361242 -7.499664197e-17)
(0.9985415494 -0.01913885046 6.96229129e-17)
(1.021109034 0.000573096338 2.522840253e-17)
(0.9689792525 0.007830142006 -1.535670527e-16)
(1.397542802 -0.9134690364 2.639474721e-17)
(1.174992984 -0.6959092545 -1.132759924e-16)
(1.307566401 -0.6265439172 3.035602415e-17)
(1.138424182 -0.4794807285 1.536743363e-16)
(1.238698899 -0.4416485313 -1.845337273e-17)
(1.118903572 -0.34622775 2.394686675e-16)
(1.191621338 -0.3196052777 6.886322228e-18)
(1.103811539 -0.2568896378 3.056467377e-16)
(1.15897758 -0.2360556289 1.564958569e-16)
(1.090615613 -0.1937209197 2.314836909e-16)
(1.134293819 -0.1760156823 -1.014183038e-16)
(1.078424036 -0.1472985372 -1.402156247e-17)
(1.11371443 -0.1307068104 -1.370718178e-17)
(1.066334567 -0.1118593017 -4.12500255e-19)
(1.095016188 -0.09489023232 -2.130203898e-16)
(1.053510577 -0.08367805766 -1.082918207e-16)
(1.076773504 -0.06526639801 -2.969153319e-17)
(1.039168461 -0.06021191402 -2.370965997e-16)
(1.05811852 -0.03977401187 1.217404164e-16)
(1.022228642 -0.03936524444 -1.957460164e-16)
(1.039108494 -0.01761511077 4.088656423e-17)
(1.000663338 -0.01865406541 6.318929812e-17)
(1.021045712 0.0005593275567 -1.667459647e-16)
(0.9681100789 0.007632075847 3.641334303e-16)
(1.498164452 -0.8782575407 -1.237023893e-16)
(1.251649226 -0.6690883057 3.208521674e-16)
(1.376584564 -0.6023944671 -2.231911684e-16)
(1.191239148 -0.4610015184 2.832863991e-17)
(1.287350341 -0.4246264125 -8.73517962e-18)
(1.157039652 -0.3328842203 -2.641841746e-16)
(1.226829398 -0.3072874519 6.335297312e-17)
(1.132106619 -0.2469892885 -3.18022137e-16)
(1.184982295 -0.2269581022 -4.595126878e-17)
(1.111952703 -0.1862553035 -3.194772307e-16)
(1.153684575 -0.1692321033 1.633151404e-16)
(1.094647806 -0.1416222888 -1.128706386e-16)
(1.12811377 -0.1256693743 1.10650439e-16)
(1.078654714 -0.1075491072 -1.652935523e-16)
(1.105469714 -0.0912330683 3.802020752e-16)
(1.062726527 -0.08045416434 2.213321262e-18)
(1.083963583 -0.06275082254 1.518349008e-16)
(1.045799695 -0.05789258277 9.49134367e-17)
(1.062500464 -0.03824075423 -1.971524593e-17)
(1.026563598 -0.037849339 9.325039612e-17)
(1.041049476 -0.01693558379 -1.195453359e-16)
(1.002717035 -0.01793632616 4.756415295e-17)
(1.020984788 0.0005386727439 -1.470480304e-16)
(0.9672681801 0.007337016222 -1.474019157e-17)
(1.594211749 -0.8320051216 1.786630716e-16)
(1.324819599 -0.6338500113 -2.519121146e-16)
(1.442460814 -0.5706671898 3.139423587e-16)
(1.24165272 -0.4367220456 -1.435088981e-16)
(1.333787108 -0.402260969 3.36638539e-17)
(1.193441651 -0.3153518306 7.041830796e-17)
(1.260434783 -0.291101805 2.731428277e-17)
(1.159114849 -0.2339804679 2.024739764e-16)
(1.20980324 -0.2150033104 -6.26547263e-17)
(1.132319237 -0.1764451596 2.996524818e-16)
(1.172192611 -0.1603177014 -6.44528261e-17)
(1.110133681 -0.1341629294 -7.406056898e-17)
(1.141857695 -0.119049376 9.288074142e-17)
(1.090414789 -0.101884316 4.894455952e-17)
(1.115447566 -0.08642673859 -2.485653829e-16)
(1.071523878 -0.07621636903 2.612119196e-17)
(1.090826551 -0.05944458044 -1.103553308e-16)
(1.052130029 -0.05484310049 -1.541066052e-16)
(1.066682936 -0.03622546229 6.218871894e-17)
(1.030702021 -0.03585556567 -6.576766362e-17)
(1.042901759 -0.01604248757 8.986016645e-17)
(1.004677776 -0.01699155578 4.611781393e-17)
(1.020926015 0.0005112083138 5.37608503e-17)
(0.9664648501 0.00695052705 2.625201682e-18)
(1.684475328 -0.7752861397 -2.984640601e-16)
(1.393586153 -0.5906441482 2.337316149e-16)
(1.504374698 -0.5317653254 -3.002600424e-16)
(1.28903187 -0.4069538995 2.268991688e-16)
(1.377430797 -0.3748395357 -1.182507188e-16)
(1.227652528 -0.2938568901 3.483047915e-17)
(1.292018924 -0.2712581303 3.076988478e-17)
(1.18449747 -0.2180321625 -1.942128792e-16)
(1.233131353 -0.2003471902 9.016738002e-17)
(1.151459959 -0.1644188229 -1.605737941e-16)
(1.18958746 -0.149389326 2.751911361e-18)
(1.124687359 -0.1250189089 2.91234498e-17)
(1.154774812 -0.1109340945 3.320362515e-18)
(1.101466662 -0.09494071235 -1.151651426e-16)
(1.124824978 -0.08053514148 1.519369299e-16)
(1.079791153 -0.07102253404 -9.217469817e-18)
(1.097276453 -0.05539210895 6.100304697e-17)
(1.058078755 -0.05110626235 8.71140572e-17)
(1.070613785 -0.033755536 -7.209284152e-17)
(1.034590886 -0.03341296711 6.062281147e-17)
(1.044642875 -0.01494806656 -1.341436209e-16)
(1.006520216 -0.01583475889 3.633289014e-17)
(1.020871242 0.0004775080797 -1.180732745e-16)
(0.9657096523 0.006475557535 3.255620447e-17)
(1.767822362 -0.7088205142 1.940123645e-16)
(1.457080401 -0.5400074439 -1.119615315e-16)
(1.561539283 -0.4861743279 8.727248363e-17)
(1.332778637 -0.3720651749 -1.025636931e-16)
(1.417726533 -0.3427016414 7.699098628e-17)
(1.259240588 -0.2686639573 -1.027053104e-16)
(1.321180171 -0.2480004721 -4.282659895e-18)
(1.207933999 -0.1993396685 1.334160348e-16)
(1.254669912 -0.1831690474 -1.535757914e-16)
(1.169133169 -0.1503226869 1.355628905e-16)
(1.20564799 -0.1365800615 1.556613231e-17)
(1.13812541 -0.1143006287 -9.319702653e-17)
(1.166701235 -0.1014217911 7.342903813e-17)
(1.11167163 -0.08680106545 4.560978096e-17)
(1.13348328 -0.07362906658 -2.534298842e-17)
(1.087425148 -0.06493339865 -3.359700322e-17)
(1.10323169 -0.05064165846 5.086117406e-17)
(1.063571935 -0.04672464197 -6.151196171e-17)
(1.074242928 -0.03086014255 5.900881708e-17)
(1.038181973 -0.03054834393 -5.064839219e-17)
(1.046249925 -0.0136652264 1.282570156e-16)
(1.008221611 -0.01447739854 1.170115832e-17)
(1.020819966 0.0004376575876 1.194063536e-16)
(0.9650124801 0.005920008553 -1.544963698e-17)
(1.843201711 -0.6334381013 -7.763928472e-17)
(1.514508886 -0.4825831249 1.398205416e-16)
(1.613244325 -0.4344708481 -5.746800643e-17)
(1.372346093 -0.3325007276 7.560655103e-17)
(1.454174002 -0.3062560802 -7.091135553e-17)
(1.287810758 -0.2400954363 1.223082341e-16)
(1.347556611 -0.2216261454 -8.9826194e-18)
(1.229131367 -0.1781431642 -2.886953939e-17)
(1.274151626 -0.1636893903 1.466174634e-16)
(1.18511774 -0.1343387703 -9.984412249e-17)
(1.22017468 -0.1220550058 4.429482689e-17)
(1.150279258 -0.1021474656 3.254165045e-17)
(1.177488448 -0.09063569202 -8.519683846e-17)
(1.120901116 -0.07757232832 9.723589252e-19)
(1.141314416 -0.06579852491 -4.79216302e-17)
(1.094329253 -0.05803012854 5.232660908e-17)
(1.108618032 -0.04525552672 -1.018789243e-16)
(1.068539876 -0.04175771869 4.802587873e-17)
(1.077525579 -0.02757740751 -4.365952138e-17)
(1.041429718 -0.0273015643 1.455267706e-17)
(1.047703843 -0.01221078662 -6.850646891e-17)
(1.009760359 -0.01293957321 -3.488542691e-17)
(1.020774054 0.00039261732 -5.33819947e-17)
(0.964381816 0.005288928254 -3.02417647e-17)
(1.909668994 -0.5500921964 -3.611063894e-17)
(1.565143297 -0.4190871543 -8.661144874e-17)
(1.658830686 -0.3773022373 -7.23072351e-17)
(1.407232506 -0.2887521912 1.987816374e-17)
(1.486308107 -0.2659571884 -3.739113183e-17)
(1.313000965 -0.2085051753 -5.830812403e-17)
(1.370811495 -0.1924626002 2.217241715e-17)
(1.247821005 -0.1547042147 -2.431897675e-17)
(1.291327808 -0.1421491581 -1.125175224e-16)
(1.199211404 -0.1166633543 3.328867666e-17)
(1.232982364 -0.1059930762 -1.542725965e-17)
(1.160995592 -0.08870760666 -3.234652466e-17)
(1.186999295 -0.0787079976 9.439733358e-17)
(1.129039186 -0.06736590289 -2.714612567e-17)
(1.148218964 -0.05713898144 5.176197432e-17)
(1.100417039 -0.05039494894 -1.28192355e-17)
(1.113366905 -0.03929908969 3.904237253e-17)
(1.072920442 -0.03626365625 -3.380695027e-18)
(1.080419431 -0.02394712872 -4.996168961e-18)
(1.044293425 -0.02370972051 2.417287363e-17)
(1.048985111 -0.01060256156 -1.130945285e-17)
(1.011117141 -0.01123767224 9.29297605e-17)
(1.020732884 0.0003423373348 -1.776074086e-17)
(0.9638258087 0.004592177071 7.323818992e-17)
(1.966384306 -0.4598262842 5.457400673e-17)
(1.608353941 -0.3503237877 1.324661685e-16)
(1.697734234 -0.3153898341 4.102835457e-17)
(1.437004147 -0.2413752973 2.06819133e-17)
(1.513731755 -0.2223151329 3.14596556e-17)
(1.334497791 -0.1742955999 5.175085346e-17)
(1.390657624 -0.1608802647 -2.093402584e-17)
(1.263770206 -0.1293224253 1.126336418e-17)
(1.305986254 -0.118822873 9.049611184e-17)
(1.211238344 -0.09752342133 -3.150446128e-17)
(1.243912523 -0.08859978628 6.108704597e-17)
(1.170140256 -0.0741547736 -2.338163007e-17)
(1.195115768 -0.06579201111 -2.285268347e-17)
(1.135983568 -0.05631485334 -1.467586936e-17)
(1.154111203 -0.04776219608 -2.563300804e-17)
(1.10561183 -0.04212844673 2.202750823e-17)
(1.117419623 -0.03284941171 -2.467445317e-17)
(1.0766585 -0.03031575488 4.489232203e-18)
(1.082889274 -0.02001622295 -8.898269451e-19)
(1.046737178 -0.01982161967 -3.710250635e-18)
(1.050078908 -0.008861062829 -4.596897673e-18)
(1.012275014 -0.009395985225 -4.541111296e-17)
(1.020698122 0.0002881949771 9.152777303e-18)
(0.9633512951 0.003836596999 -1.71679835e-17)
(2.012638778 -0.3637795612 -4.064069807e-17)
(1.643589583 -0.277152493 -9.620953901e-17)
(1.729456397 -0.2495102764 -5.127144621e-17)
(1.461280929 -0.1909606385 -6.133283903e-18)
(1.536092869 -0.1758759282 -1.48551463e-17)
(1.352027027 -0.1378919989 -5.197296189e-17)
(1.406840041 -0.1272731167 1.818266423e-17)
(1.276775764 -0.1023122494 -2.17223669e-17)
(1.317938755 -0.09400056547 -3.08813893e-17)
(1.221045687 -0.07715494768 -7.435028626e-18)
(1.252825079 -0.07009052568 -3.036311973e-17)
(1.177597425 -0.05866719317 3.448871898e-18)
(1.201734059 -0.05204698616 2.560984361e-17)
(1.141646582 -0.04455339444 -1.614772629e-17)
(1.158915728 -0.03778338815 3.836320002e-17)
(1.109848085 -0.03333004848 -2.187445748e-17)
(1.120723983 -0.02598565386 -8.823447216e-19)
(1.079706762 -0.02398470903 1.38212591e-17)
(1.084902719 -0.01583308156 -1.071920267e-17)
(1.048729887 -0.01568261729 1.760656742e-17)
(1.050970129 -0.007008084146 -1.61784938e-17)
(1.01321912 -0.007434831465 4.183897661e-17)
(1.020669086 0.000230004594 -2.181177254e-17)
(0.9629643009 0.003033618726 1.013568461e-17)
(2.047846129 -0.2631563674 4.688545449e-17)
(1.67041561 -0.2004981627 5.990493348e-17)
(1.753607729 -0.1804935193 2.890097958e-17)
(1.479763846 -0.1381469637 1.735716874e-17)
(1.553117594 -0.1272258761 1.256427617e-17)
(1.365372558 -0.09975678823 2.511449739e-17)
(1.419160729 -0.09206654323 5.654444762e-18)
(1.286677071 -0.07401794751 -9.84100395e-19)
(1.32703896 -0.06799741434 3.107562267e-17)
(1.228511988 -0.05581878326 -1.322101834e-17)
(1.259610715 -0.05070122349 4.00565228e-17)
(1.183274447 -0.04244445397 -1.534142159e-17)
(1.206772894 -0.03764879962 -1.968870916e-18)
(1.145957727 -0.03223420016 4.71318838e-18)
(1.162573685 -0.02733056747 -8.985575697e-18)
(1.113073138 -0.02411486341 5.549437664e-18)
(1.123239914 -0.01879586231 -1.562152075e-18)
(1.082027544 -0.01735412518 -4.535950487e-18)
(1.086435958 -0.01145114 4.742333817e-18)
(1.050247162 -0.01134820815 -6.822849992e-18)
(1.051649024 -0.005066878222 1.239573986e-18)
(1.01393813 -0.005381678635 -1.909409827e-17)
(1.020647304 0.000169450424 1.388523729e-17)
(0.9626698136 0.002191386448 -1.771484806e-17)
(2.071568375 -0.15922511 -2.774270342e-17)
(1.688485652 -0.1213205627 -2.561825498e-17)
(1.769874928 -0.1092065078 -3.376855113e-17)
(1.492213681 -0.08359409879 -8.517869807e-18)
(1.564584393 -0.07697495802 -5.613851887e-18)
(1.374361841 -0.06036519121 -1.953118896e-17)
(1.42745919 -0.05570092613 6.352617672e-18)
(1.293346361 -0.04479087135 -1.412068916e-17)
(1.333168374 -0.04113766682 2.270562985e-19)
(1.233541159 -0.03377855876 -7.703385377e-18)
(1.264181161 -0.03067273688 -9.518625893e-18)
(1.187098436 -0.02568573904 -3.743662201e-20)
(1.210166694 -0.02277567376 6.230242865e-18)
(1.148861648 -0.01950746401 -7.402357821e-18)
(1.165037215 -0.0165328782 1.02808523e-17)
(1.115245387 -0.01459441716 -4.535935048e-18)
(1.124934026 -0.01136896437 -2.010467172e-18)
(1.083590603 -0.01050353732 1.144353734e-18)
(1.08746799 -0.006924901457 -1.708565524e-19)
(1.051268894 -0.006869572281 -1.191373902e-18)