/*--------------------------------*- C++ -*----------------------------------*\
| =========                 |                                                 |
| \\      /  F ield         | foam-extend: Open Source CFD                    |
|  \\    /   O peration     | Version:  3.0                                   |
|   \\  /    A nd           | Web:         http://www.extend-project.de       |
|    \\/     M anipulation  |                                                 |
\*---------------------------------------------------------------------------*/
FoamFile
{
    version     2.0;
    format      ascii;
    class       volVectorField;
    location    "42";
    object      u;
}
// * * * * * * * * * * * * * * * * * * * * * * * * * * * * * * * * * * * * * //

dimensions      [0 0 0 0 0 0 0];

internalField   nonuniform List<vector> 
672
(
(0.5341757937 -0.08893385071 6.906735339e-17)
(0.2473281476 -0.06263939097 4.610968468e-17)
(0.9118273177 -0.04950579726 -1.374795043e-18)
(0.5569637282 -0.03065826436 3.440532225e-17)
(1.059470539 -0.02893221638 3.713962572e-17)
(0.7102486916 -0.01706047281 6.4197571e-17)
(1.130110561 -0.0159009268 9.404313107e-17)
(0.7850331019 -0.01057912609 -1.35489317e-17)
(1.17024543 -0.00680174949 4.316932276e-17)
(0.8150410721 -0.00626821714 9.338151235e-18)
(1.193232349 -0.0005704998415 1.836493551e-17)
(0.819186355 -0.001185244375 -4.532233975e-17)
(0.5739374511 -0.2624482693 -3.458797167e-17)
(0.2751609069 -0.1853159904 -1.127548849e-16)
(0.9338501922 -0.1462632258 5.439211013e-17)
(0.570504598 -0.09113561911 -1.724752246e-16)
(1.072298504 -0.0855426522 -1.034973269e-16)
(0.7176881671 -0.05118891629 -1.979866219e-17)
(1.137310195 -0.04705997506 -2.997966553e-16)
(0.789419424 -0.03223241138 1.321703492e-16)
(1.173834556 -0.02033621421 -1.427752403e-16)
(0.8170468786 -0.0195037903 1.679278658e-16)
(1.194766507 -0.002419709052 -2.538982469e-16)
(0.8181615126 -0.004182907033 3.553872506e-16)
(0.6510713467 -0.4228238488 3.001919519e-17)
(0.3297072241 -0.2983929539 1.604916764e-16)
(0.9769614521 -0.2355401582 5.861756708e-17)
(0.5974986281 -0.1468898219 2.35380921e-16)
(1.097561791 -0.1377102341 9.125393064e-17)
(0.7331009174 -0.08287793027 1.731880695e-16)
(1.151036087 -0.07558842447 1.73540279e-16)
(0.7995543715 -0.05277465624 1.196029145e-16)
(1.179202099 -0.03221051075 -2.739562362e-17)
(0.8239852494 -0.03273320706 -1.513159308e-17)
(1.194169195 -0.002979187049 4.416681587e-17)
(0.8213252911 -0.008402168375 -9.608172365e-17)
(0.7622002304 -0.5619340024 -2.108027673e-16)
(0.4080039884 -0.3969336213 -1.227675104e-16)
(1.038852594 -0.3131901661 -2.445557237e-16)
(0.6359075991 -0.1954679456 -1.535217635e-18)
(1.133783547 -0.1831558701 -4.501167467e-16)
(0.7545284618 -0.1101757573 1.721424661e-16)
(1.171219655 -0.1006734201 -5.249052337e-16)
(0.8127275218 -0.06988183132 3.265187705e-16)
(1.188608947 -0.04332316287 -3.952433998e-16)
(0.8312768382 -0.04295086777 5.557661337e-16)
(1.196728169 -0.004874175661 -5.46898223e-16)
(0.8214992855 -0.01050855978 7.283612392e-16)
(0.9013444056 -0.6728940702 4.211314949e-16)
(0.5061458048 -0.4750883031 8.663184486e-17)
(1.116451845 -0.3748612073 2.476976256e-16)
(0.6843647401 -0.2340558099 5.764271775e-17)
(1.179184206 -0.2191306938 3.086998278e-16)
(0.7821362366 -0.1323182313 1.062423389e-16)
(1.19595247 -0.1201647548 1.733919479e-16)
(0.8307663052 -0.08459277961 -4.299266794e-17)
(1.198577752 -0.051022204 2.466782417e-16)
(0.8432179917 -0.05283275573 -4.300748182e-16)
(1.196480179 -0.004514937213 3.279205568e-16)
(0.8259137658 -0.01407344126 -3.156191333e-16)
(1.061816774 -0.7500546936 -2.930430204e-16)
(0.6194462821 -0.5299551212 1.11836014e-17)
(1.205950598 -0.4179983989 -3.266022644e-16)
(0.7400528273 -0.2610959521 1.83555055e-16)
(1.2315896 -0.2443770992 -5.346254848e-16)
(0.8132833973 -0.1473810035 2.266239574e-16)
(1.225053703 -0.1341821756 -4.656182391e-16)
(0.8500561698 -0.09377739022 2.505639552e-16)
(1.211855811 -0.05751408291 -4.342241398e-16)
(0.8542853401 -0.05798848495 7.828442045e-16)
(1.199476961 -0.006137107532 -8.419351269e-16)
(0.827243881 -0.01476572904 8.382248105e-16)
(1.235379597 -0.7895960065 7.114070234e-17)
(0.741745026 -0.5577504007 9.915952102e-17)
(1.302635034 -0.4398576776 -5.310277707e-18)
(0.8003982539 -0.2749172173 -8.774050456e-17)
(1.28811162 -0.2570333048 3.127380585e-16)
(0.8476888168 -0.1556191234 -3.16318313e-17)
(1.255862534 -0.1407395659 2.151250554e-16)
(0.8725463217 -0.09977547003 -1.216822781e-16)
(1.224398685 -0.05941093827 2.405973108e-16)
(0.8690064808 -0.06267673505 -4.851017307e-16)
(1.199552536 -0.004717431728 4.927234279e-16)
(0.8321572953 -0.01728924273 -3.653534899e-16)
(1.41341812 -0.7895408883 1.194868742e-17)
(0.8676203905 -0.5580511259 -8.021564336e-17)
(1.402010762 -0.4399091789 1.907258545e-16)
(0.862341665 -0.2750423056 -8.231994805e-17)
(1.346285412 -0.2570551697 -2.504193607e-18)
(0.8824034213 -0.1554676652 -5.426895841e-17)
(1.288051512 -0.1409129124 1.621358608e-17)
(0.8941590523 -0.09923630814 7.483116099e-17)
(1.238855209 -0.06005009997 -2.095582314e-16)
(0.8816399653 -0.06169248638 4.927743393e-16)
(1.202407629 -0.005922917488 -5.096664541e-16)
(0.8342082724 -0.01611507613 4.730998332e-16)
(1.586989976 -0.749822053 7.826554888e-18)
(0.9898755131 -0.5300013006 2.026802255e-17)
(1.49861483 -0.4176642316 -3.608001799e-16)
(0.9226523103 -0.2613775055 2.167322036e-16)
(1.402704327 -0.2439389667 -2.867515574e-16)
(0.9168357062 -0.1481550315 2.256556682e-16)
(1.318747716 -0.13330276 -1.678854126e-16)
(0.9167330989 -0.09528828258 4.860089071e-17)
(1.251292537 -0.05582277465 1.133930975e-16)
(0.8964145948 -0.06027364893 -3.55340326e-16)
(1.202454314 -0.003671315633 3.527022484e-16)
(0.839009811 -0.01737683974 -3.923282716e-16)
(1.747347186 -0.6725823577 9.01560938e-17)
(1.103374623 -0.4756556153 -4.236202982e-17)
(1.588171447 -0.3745950167 4.312807006e-16)
(0.9785610734 -0.2345330831 -1.547152683e-16)
(1.45511333 -0.2186964287 3.019128896e-16)
(0.9482332882 -0.1327909716 -2.795693574e-16)
(1.347675007 -0.1195573426 2.17713077e-16)
(0.9363650488 -0.08510988154 -8.141357268e-17)
(1.264180785 -0.05043752453 -1.206396901e-17)
(0.9079953872 -0.05329555221 4.588439567e-17)
(1.204856158 -0.004224116457 -3.478376355e-17)
(0.8410692566 -0.01438995398 8.040668015e-17)
(1.886528688 -0.5614736334 -3.895409344e-17)
(1.201407617 -0.3973097723 -1.903898907e-17)
(1.665578962 -0.3126879862 -2.551853955e-16)
(1.026932922 -0.1961003366 -2.295365847e-17)
(1.500252721 -0.18247132 -1.139246933e-16)
(0.9759220645 -0.1113886551 4.754263573e-17)
(1.372113616 -0.09938930516 -8.691142337e-17)
(0.9546362548 -0.07199906746 -7.523480637e-18)
(1.273889968 -0.0410652687 4.388451108e-17)
(0.920051215 -0.04605344732 -7.383383592e-17)
(1.204614414 -0.001720928503 9.341032242e-17)
(0.8450316831 -0.01419532196 -1.405125517e-16)
(1.997464855 -0.422369017 -1.193333374e-17)
(1.28000442 -0.2990798623 -3.06809954e-18)
(1.727550694 -0.2350354976 2.283509901e-16)
(1.065683856 -0.1475709904 -2.448046166e-17)
(1.536488952 -0.1369766113 2.037124841e-16)
(0.9977390724 -0.08376629329 -1.532928314e-16)
(1.392044307 -0.07450233054 2.254290005e-16)
(0.9683464363 -0.05403547897 -1.45396634e-16)
(1.282679672 -0.03084182413 9.480001165e-17)
(0.9282086369 -0.03424879196 -9.518336112e-17)
(1.206135592 -0.00168226612 1.26413545e-16)
(0.8466061609 -0.009805601717 -1.182496634e-16)
(2.074684995 -0.261886714 -1.671349824e-17)
(1.33442968 -0.1859165315 -3.90542343e-17)
(1.770476268 -0.1457317906 -1.083868004e-16)
(1.09257105 -0.09197551301 -5.025670343e-17)
(1.561458992 -0.0848271528 -6.892033443e-17)
(1.013225659 -0.05255173539 -1.485379394e-17)
(1.405435598 -0.04574726919 -3.265569178e-17)
(0.9787056673 -0.03446893209 -3.832186352e-17)
(1.2878102 -0.0180612505 4.051313214e-17)
(0.9351430277 -0.02281854727 -6.137684471e-17)
(1.205755522 0.0008069402235 6.476243185e-17)
(0.8488869474 -0.008426159685 -7.840827697e-17)
(2.114253674 -0.08848636013 2.478805696e-17)
(1.362506285 -0.0632887932 1.71814247e-17)
(1.792568955 -0.04892236635 1.174754853e-16)
(1.106439522 -0.0313621665 -6.259073954e-18)
(1.574321381 -0.02817095781 1.298053283e-16)
(1.021101887 -0.01803911143 -6.676480126e-17)
(1.412400024 -0.01484258202 1.302515103e-16)
(0.9837503179 -0.01202869 -8.592922344e-17)
(1.290728905 -0.005426775029 9.146080198e-17)
(0.9382325449 -0.008119350408 -9.017426849e-17)
(1.206065491 0.0008442810279 1.057669062e-16)
(0.8496050457 -0.00306300186 -1.136555161e-16)
(2.114230072 0.08957535533 -3.046733734e-17)
(1.362547506 0.06233995762 -4.67915272e-17)
(1.792557834 0.05011813004 -5.975710302e-17)
(1.106509704 0.03040808958 -5.622989136e-17)
(1.574240831 0.02960754698 -4.238536491e-17)
(1.021272596 0.01676156919 -4.511190403e-17)
(1.412184185 0.0169032365 -1.834029749e-17)
(0.9840488012 0.009961166183 -3.826156051e-17)
(1.290386604 0.008498806889 1.868157301e-17)
(0.9385692041 0.004922584262 -3.452003572e-17)
(1.205719756 0.003286387125 3.263295334e-17)
(0.8497685456 -0.001188159576 -3.840321449e-17)
(2.074620502 0.2629193506 5.123409639e-17)
(1.334509426 0.1850191157 3.54630839e-17)
(1.77040662 0.146858256 8.303896262e-17)
(1.092720827 0.0910854047 1.68325788e-17)
(1.561201715 0.08614144439 1.328027231e-16)
(1.013627472 0.05139819821 -5.314450222e-17)
(1.404843858 0.04757787741 1.588864951e-16)
(0.9794086922 0.03262429996 -1.018882585e-16)
(1.28693116 0.02076926237 1.128647905e-16)
(0.9359166935 0.01992581306 -1.285512186e-16)
(1.204898956 0.002890171475 1.499256305e-16)
(0.8492726282 0.004453289125 -1.86913631e-16)
(1.997381329 0.423292589 -4.434868705e-17)
(1.280132342 0.2982890763 -6.072240911e-17)
(1.727487792 0.2360581515 -5.529026123e-17)
(1.065923884 0.146806343 -8.02534043e-17)
(1.53612879 0.1381342434 -6.008351767e-17)
(0.9983803653 0.08282257832 -6.223717135e-17)
(1.391134933 0.07607443513 -6.327825864e-17)
(0.9694790017 0.05251495634 -3.202000385e-17)
(1.281272569 0.03320021274 -8.810668333e-18)
(0.9294860757 0.03174550885 3.281048011e-17)
(1.204708337 0.005003202532 -4.096377911e-17)
(0.8473107171 0.006194749587 4.610062442e-17)
(1.886456957 0.5622488484 1.289790315e-16)
(1.201524462 0.3966536609 3.857386732e-17)
(1.665514287 0.3135356309 1.317651632e-16)
(1.027196198 0.1955027731 -3.280365336e-17)
(1.499815504 0.1833407117 2.249191167e-16)
(0.9766942278 0.1107561585 -9.735198276e-17)
(1.37100624 0.1004511821 2.417475395e-16)
(0.9560113347 0.07100971262 -1.521242496e-16)
(1.272211845 0.04266245653 1.940529105e-16)
(0.9215389539 0.04422867975 -2.787931865e-16)
(1.203012916 0.004184588469 2.818241371e-16)
(0.8456289153 0.01114297649 -3.507546004e-16)
(1.747327145 0.6731802732 -2.039981305e-16)
(1.103459479 0.4751675057 -2.016702652e-17)
(1.588189014 0.3752659006 -9.819890133e-17)
(0.9788078716 0.2341300247 1.692131159e-17)
(1.454726055 0.2192805038 -1.754466414e-16)
(0.949031481 0.1324957674 -1.587652163e-17)
(1.346555876 0.1201014708 -1.081732861e-16)
(0.9378046958 0.08468954746 8.036021573e-17)
(1.262435495 0.05123572681 -1.797923179e-16)
(0.9095550347 0.05224398434 3.101236819e-16)
(1.203161127 0.00571259533 -2.543143821e-16)
(0.8417348069 0.01215062059 2.609012064e-16)
(1.587062875 0.7502308287 1.309830485e-16)
(0.9898673424 0.5296779 -2.023478907e-17)
(1.498712395 0.4181190555 8.301680142e-17)
(0.9228158676 0.2611709694 -9.986493524e-17)
(1.402384134 0.2442074956 2.352042972e-16)
(0.917559556 0.14819557 -8.627944068e-17)
(1.317688962 0.1333522211 1.988132426e-16)
(0.9180872232 0.09539996768 -1.07990661e-16)
(1.249629653 0.05595512571 2.369336654e-16)
(0.8978179641 0.05986568246 -4.972343677e-16)
(1.200929659 0.004454662234 5.303225708e-16)
(0.8393323532 0.01567296139 -5.167418131e-16)
(1.413619932 0.7897684558 4.131920991e-17)
(0.8674985398 0.5578937194 -3.819852567e-17)
(1.402270243 0.4401819434 1.618787027e-16)
(0.8623935823 0.2750316564 8.223540543e-17)
(1.346172461 0.2570242267 -1.564778163e-16)
(0.8829728962 0.1558595948 3.582249091e-17)
(1.287294824 0.1403954535 -1.424108005e-16)
(0.8952626974 0.09996831037 1.291560717e-16)
(1.237625401 0.05926596996 -2.280869322e-16)
(0.8826794732 0.06215274265 4.965867423e-16)
(1.201407012 0.00556336865 -5.102148614e-16)
(0.8341082831 0.01528336501 4.327983198e-16)
(1.235751224 0.7896510115 -1.366152766e-16)
(0.7414537993 0.5577268995 8.320133925e-17)
(1.30305702 0.4399228345 -4.693516489e-16)
(0.8002590158 0.2750545013 1.760712244e-16)
(1.288227603 0.2567286585 -2.531755335e-16)
(0.8479567068 0.1562323668 2.123218415e-16)
(1.255484317 0.1398366746 -2.337123494e-16)
(0.873173519 0.100845883 5.944687089e-17)
(1.223722461 0.0581212382 7.321182571e-17)
(0.869440547 0.06358952197 -3.652056528e-16)
(1.199190353 0.003769341893 3.740536608e-16)
(0.8315090451 0.01699513908 -3.102282024e-16)
(1.062357421 0.7499853585 3.968676572e-17)
(0.6189948994 0.5300348927 2.598570554e-17)
(1.206565886 0.4179495434 6.173303353e-16)
(0.7397426183 0.261358246 -2.57223921e-16)
(1.231976856 0.2439057812 4.991284248e-16)
(0.8132842543 0.1482108641 -2.874337527e-16)
(1.225096384 0.132978673 2.914540883e-16)
(0.8502645377 0.09522319635 -5.644010129e-17)
(1.211762959 0.05574146418 -1.359905133e-16)
(0.8541756107 0.05942189831 4.858972579e-16)
(1.199783693 0.004577198907 -4.79906885e-16)
(0.8260074814 0.01497242849 5.508395263e-16)
(0.9020985173 0.6727129929 -1.672304785e-16)
(0.5054925146 0.4752338876 5.077205925e-17)
(1.117285209 0.3746539361 -8.39726092e-16)
(0.6838201183 0.2343797539 2.634527965e-16)
(1.179916332 0.2184813164 -6.702733368e-16)
(0.7817359835 0.1332049988 5.653635508e-16)
(1.196613121 0.1187498805 -5.308921586e-16)
(0.830298726 0.08612497636 2.710297495e-16)
(1.199437826 0.04896734694 -1.156800605e-16)
(0.8422103421 0.05444678825 6.977086051e-17)
(1.19791533 0.002572543036 -1.208728137e-16)
(0.8238485875 0.01461215522 2.581716919e-17)
(0.7630945338 0.5617153855 -4.123923901e-18)
(0.4072102553 0.3970842784 4.774281301e-17)
(1.03983956 0.3129643572 5.003698301e-16)
(0.6351934858 0.1957930264 1.356901161e-16)
(1.134750459 0.1825196647 1.952187848e-16)
(0.7538315454 0.1110349138 -6.82718608e-17)
(1.172265401 0.09931310011 1.597836169e-16)
(0.8117963295 0.07137147416 1.951441298e-17)
(1.189985128 0.04132119707 -8.932646641e-17)
(0.8297310609 0.04459751901 6.108936437e-17)
(1.198693774 0.002866100961 -1.052817944e-16)
(0.8190008297 0.01129764889 1.758242069e-16)
(0.6521706564 0.4225720981 1.699855779e-16)
(0.3287357595 0.2985364041 2.015144855e-17)
(0.9781571558 0.2352358229 -4.498136044e-16)
(0.5965929459 0.1471871292 -1.530224124e-17)
(1.09883715 0.1370486837 -4.222677666e-16)
(0.7320949957 0.08362557196 3.478636964e-16)
(1.152602909 0.07430085215 -5.540853921e-16)
(0.7981095804 0.05406737721 3.764338944e-16)
(1.181362358 0.03035494182 -2.285943233e-16)
(0.8217390016 0.03416830165 2.708772033e-16)
(1.1970758 0.001117374767 -3.71834343e-16)
(0.8181087252 0.009022516706 3.56331092e-16)
(0.5750784471 0.2622292426 -1.059341036e-16)
(0.2741441805 0.1853866402 1.177531417e-17)
(0.9351009343 0.1460028066 2.046263896e-16)
(0.5695151245 0.09133957807 6.429834468e-17)
(1.073702074 0.08500910892 1.726336626e-16)
(0.7164908288 0.05172233326 -6.595126075e-17)
(1.139147885 0.04605580636 1.102387228e-16)
(0.787634946 0.03317271794 1.760108252e-17)
(1.176423081 0.01886736023 -1.139707765e-16)
(0.8143681495 0.02063520648 7.485909259e-17)
(1.198172573 0.000807865653 -7.90412565e-17)
(0.8145899373 0.004934561828 7.716188386e-17)
(0.5354517867 0.08874575629 5.742953044e-17)
(0.2462129379 0.06264880728 5.354777626e-17)
(0.9132040754 0.04924169888 -2.023919585e-16)
(0.5558897691 0.03076479625 9.616697755e-17)
(1.061015399 0.02849908014 -1.739292641e-16)
(0.7089426996 0.01734957716 1.308714878e-16)
(1.132126129 0.01519599603 -7.80581491e-17)
(0.7830960124 0.01108874033 3.88405593e-17)
(1.173042967 0.005825388694 -8.636101764e-18)
(0.8121866019 0.006866317952 3.326924567e-17)
(1.196849417 -0.0004819242188 -4.634303351e-17)
(0.8154661765 0.001438846096 3.345238344e-17)
(0.5355316259 -0.08919676039 -6.896817938e-17)
(0.2461887931 -0.06308722016 -4.585714596e-17)
(0.9130872822 -0.04989916292 1.339222409e-18)
(0.5557516846 -0.03127157352 -3.404470975e-17)
(1.06089146 -0.029360625 -3.715495659e-17)
(0.7087092169 -0.01792622116 -6.387800238e-17)
(1.132216858 -0.0163235992 -9.403347628e-17)
(0.7826550632 -0.01173369964 1.374529649e-17)
(1.173601285 -0.007287183932 -4.309871308e-17)
(0.8112736536 -0.007613215701 -9.326495263e-18)
(1.198103338 -0.001342612266 -1.826049693e-17)
(0.8138462703 -0.002687803599 4.527422749e-17)
(0.5750542784 -0.2626864083 3.427525817e-17)
(0.2742811606 -0.1856770922 1.12534714e-16)
(0.9352837964 -0.1465456193 -5.475663826e-17)
(0.5697918592 -0.09178446791 1.724278264e-16)
(1.073931458 -0.08574696367 1.029198752e-16)
(0.7169064404 -0.05240369257 2.011081412e-17)
(1.139215116 -0.04698029316 2.989152001e-16)
(0.7883029089 -0.03414291433 -1.312888939e-16)
(1.176089544 -0.01992097092 1.413145226e-16)
(0.8155297839 -0.02188815919 -1.662489222e-16)
(1.197246563 -0.002038240443 2.51827254e-16)
(0.816498978 -0.00661088694 -3.530345787e-16)
(0.6522892143 -0.4230076441 -2.955522974e-17)
(0.3288909965 -0.2990693627 -1.601059707e-16)
(0.9781689499 -0.2359779671 -5.823020867e-17)
(0.5966390679 -0.1477042041 -2.350576861e-16)
(1.098878048 -0.1379960997 -9.088843037e-17)
(0.7320349108 -0.08405242111 -1.729994585e-16)
(1.152890536 -0.07557878088 -1.73264988e-16)
(0.7978396198 -0.05435678456 -1.195824704e-16)
(1.182161223 -0.03213858884 2.769947584e-17)
(0.8210400443 -0.03439478014 1.493158298e-17)
(1.198613623 -0.003407877382 -4.382436126e-17)
(0.8168908455 -0.009795206595 9.575569461e-17)
(0.7631445008 -0.5621583032 2.101405717e-16)
(0.4073822236 -0.3972263155 1.225858378e-16)
(1.040035174 -0.3134033924 2.43588647e-16)
(0.6355435805 -0.1961516254 1.859495203e-18)
(1.135035482 -0.183138228 4.487482432e-16)
(0.7544004361 -0.1117444029 -1.711133383e-16)
(1.172456421 -0.1000343689 5.230320663e-16)
(0.8126990809 -0.07253601982 -3.245690341e-16)
(1.189843646 -0.0419618403 3.925374495e-16)
(0.8311497052 -0.04622818568 -5.526782712e-16)
(1.1980764 -0.003441876313 5.431430268e-16)
(0.8211175401 -0.0133957776 -7.24088296e-16)
(0.9022464438 -0.6731299703 -4.204310476e-16)
(0.5058526997 -0.4757698041 -8.618946807e-17)
(1.117473418 -0.3754067082 -2.469667877e-16)
(0.6840637943 -0.2348426948 -5.738138388e-17)
(1.180181164 -0.2194214021 -3.080344333e-16)
(0.7818201658 -0.1334812608 -1.061760852e-16)
(1.197170569 -0.1200464981 -1.729077561e-16)
(0.830121463 -0.08613826733 4.295282332e-17)
(1.200574364 -0.05086925033 -2.463881029e-16)
(0.8416356485 -0.05426662106 4.299430443e-16)
(1.199817618 -0.005087998497 -3.27575993e-16)
(0.8230159907 -0.01488063207 3.152389428e-16)
(1.062490914 -0.7503841684 2.921529182e-16)
(0.6191493075 -0.5300761478 -1.128330323e-17)
(1.206745204 -0.4183224583 3.251960961e-16)
(0.7401138679 -0.2616460714 -1.829136626e-16)
(1.232276253 -0.2444367319 5.327271367e-16)
(0.8139644741 -0.1488904725 -2.251267277e-16)
(1.225351443 -0.1335365704 4.632014428e-16)
(0.8513814261 -0.09643219715 -2.481386245e-16)
(1.211710288 -0.05605755192 4.311269825e-16)
(0.855855503 -0.06122876523 -7.794402799e-16)
(1.199331145 -0.004599318174 8.379594216e-16)
(0.828319856 -0.01737467336 -8.337405812e-16)
(1.235926431 -0.7900466098 -7.028802341e-17)
(0.7419877286 -0.5581636408 -9.876373385e-17)
(1.303423214 -0.4405896425 6.269655784e-18)
(0.8006755147 -0.2753941136 8.787309412e-17)
(1.288723584 -0.2575381275 -3.119081782e-16)
(0.8481572377 -0.1563684324 3.161295529e-17)
(1.25632926 -0.140972764 -2.146659284e-16)
(0.8730498936 -0.1006973927 1.2174642e-16)
(1.225225111 -0.0598502654 -2.405506679e-16)
(0.8689485831 -0.0631901005 4.853529888e-16)
(1.20146609 -0.006132673385 -4.929890855e-16)
(0.8310458078 -0.01687746267 3.657378237e-16)
(1.413830507 -0.7900920386 -1.289943793e-17)
(0.8676316042 -0.5579001971 8.022269445e-17)
(1.402440857 -0.4405286075 -1.923065956e-16)
(0.8627736003 -0.2752844172 8.317957595e-17)
(1.34647935 -0.2574982727 4.276713988e-19)
(0.883733562 -0.1564814769 5.594050614e-17)
(1.287594282 -0.1408236745 -1.863331315e-17)
(0.8965397258 -0.101112222 -7.247467846e-17)
(1.237647501 -0.0593481947 2.067148589e-16)
(0.884537195 -0.06395291102 -4.897540074e-16)
(1.201123491 -0.005181602866 5.062759611e-16)
(0.8364848283 -0.01779240882 -4.694142563e-16)
(1.587267555 -0.7505985399 -7.009963433e-18)
(0.9904921864 -0.5299391746 -1.998246153e-17)
(1.499201605 -0.4186214815 3.617662939e-16)
(0.9233477287 -0.2613359887 -2.167577862e-16)
(1.403035526 -0.2447962497 2.875818629e-16)
(0.9178703165 -0.1481993428 -2.257547843e-16)
(1.318698243 -0.1342114187 1.682757535e-16)
(0.9180824044 -0.0951694971 -4.845810126e-17)
(1.251277755 -0.05732925043 -1.135687129e-16)
(0.8975428069 -0.0593766299 3.558627884e-16)
(1.203260721 -0.006422934235 -3.534064493e-16)
(0.8393686567 -0.01526503012 3.933242222e-16)
(1.747593434 -0.6734051785 -9.09794005e-17)
(1.10360923 -0.4751861034 4.247037007e-17)
(1.588389552 -0.3756004844 -4.326919435e-16)
(0.9792100547 -0.2343700165 1.556376091e-16)
(1.45507453 -0.2196928421 -3.037599673e-16)
(0.9498250553 -0.1330434496 2.811370813e-16)
(1.346948226 -0.120370914 -2.198437994e-16)
(0.9391114663 -0.08571252236 8.354043244e-17)
(1.262644062 -0.05104996053 9.598827512e-18)
(0.9113938581 -0.0539549802 -4.328864843e-17)
(1.20320139 -0.004901581819 3.190654107e-17)
(0.8439973127 -0.01468637253 -7.729107633e-17)
(1.886693437 -0.5625758161 3.957767036e-17)
(1.202134287 -0.3967176685 1.917052552e-17)
(1.666037995 -0.3138373224 2.559718005e-16)
(1.027778066 -0.1954869712 2.274346798e-17)
(1.500502421 -0.1836682632 1.146354422e-16)
(0.977141385 -0.1106548641 -4.779974012e-17)
(1.371994418 -0.1009841632 8.725036077e-17)
(0.9562691385 -0.07075643284 7.503775166e-18)
(1.273702147 -0.04362385987 -4.397519582e-17)
(0.9216913951 -0.04370440647 7.41945644e-17)
(1.205025301 -0.005712278147 -9.389490987e-17)
(0.8462362944 -0.01041995452 1.411580983e-16)
(1.997672014 -0.4234114727 1.138630934e-17)
(1.280353915 -0.2983244635 3.249010364e-18)
(1.727755836 -0.2363639799 -2.293482532e-16)
(1.066372838 -0.147025914 2.530313948e-17)
(1.536540294 -0.1384606723 -2.049866644e-16)
(0.9991601107 -0.08327679847 1.545430046e-16)
(1.391633028 -0.07616195214 -2.268458668e-16)
(0.9706811515 -0.05337785927 1.469418123e-16)
(1.281708633 -0.03273950865 -9.654900165e-17)
(0.9311314943 -0.03329586372 9.712823714e-17)
(1.205106984 -0.003786498206 -1.284839048e-16)
(0.8493981002 -0.008660426155 1.205843438e-16)
(2.074885149 -0.2631891907 1.701699687e-17)
(1.335011197 -0.1849188961 3.901283614e-17)
(1.770873886 -0.1469733147 1.088400963e-16)
(1.093300853 -0.09091469621 4.996909808e-17)
(1.561803644 -0.08621786817 6.929438308e-17)
(1.014249533 -0.05120428306 1.454684092e-17)
(1.405642002 -0.04777603313 3.284133474e-17)
(0.9800675705 -0.03235180623 3.817073569e-17)
(1.288025983 -0.02128750071 -4.048560441e-17)
(0.9366552127 -0.01937527337 6.139361112e-17)
(1.206347883 -0.003926344377 -6.490229291e-17)
(0.8504134366 -0.003449317764 7.855103789e-17)
(2.114513738 -0.08960147854 -2.491107489e-17)
(1.362883295 -0.06235151795 -1.695682339e-17)
(1.79290681 -0.0503615136 -1.178301101e-16)
(1.107031086 -0.0305649633 6.744853436e-18)
(1.574702691 -0.0298336434 -1.302078079e-16)
(1.022026469 -0.01709044093 6.734558995e-17)
(1.412746325 -0.01684512593 -1.306440708e-16)
(0.9850853297 -0.01062348883 8.647641228e-17)
(1.291012957 -0.007869660875 -9.182991836e-17)
(0.9399207251 -0.006212132342 9.063563398e-17)
(1.206450853 -0.00185628344 -1.06138751e-16)
(0.8515953241 -0.0009894395997 1.141401321e-16)
(2.114534455 0.08828697722 3.038725628e-17)
(1.362845291 0.06348529141 4.65608957e-17)
(1.792917306 0.04892967039 5.980512408e-17)
(1.106978828 0.0316532757 5.589623939e-17)
(1.574753042 0.02826333643 4.240361389e-17)
(1.021897695 0.01836283431 4.482567041e-17)
(1.412891294 0.01488166104 1.832065207e-17)
(0.9848485265 0.012429421 3.81099741e-17)
(1.291267882 0.005239894229 -1.878033144e-17)
(0.9396085523 0.008804885064 3.456747217e-17)
(1.206763136 -0.001462983245 -3.279167474e-17)
(0.8512857788 0.004302039924 3.854735321e-17)
(2.074941242 0.2619248787 -5.092434498e-17)
(1.334880271 0.1859961961 -3.52282249e-17)
(1.770890222 0.1455905625 -8.268622132e-17)
(1.093163237 0.09194900454 -1.675561348e-17)
(1.561940286 0.08471724453 -1.32250115e-16)
(1.013952436 0.05239411688 5.288210344e-17)
(1.406012799 0.04592340991 -1.580565069e-16)
(0.9795702585 0.0340325632 1.011010666e-16)
(1.288578662 0.01880438094 -1.115062365e-16)
(0.9361559815 0.02183023826 1.270351228e-16)
(1.206803935 0.0007452370791 -1.480395252e-16)
(0.8502961527 0.006677130389 1.848150883e-16)
(1.997743582 0.4222471445 4.39034064e-17)
(1.280177523 0.299295941 6.035678427e-17)
(1.72777089 0.2350766138 5.491157888e-17)
(1.066161118 0.1479440709 7.995670571e-17)
(1.53673778 0.1371054882 5.971780051e-17)
(0.9986565591 0.08427221932 6.207877208e-17)
(1.392217578 0.07457835177 6.299553852e-17)
(0.9697957248 0.05472768799 3.202744437e-17)
(1.282656364 0.03068940234 8.499086328e-18)
(0.9301223758 0.03528325334 -3.257642385e-17)
(1.206053855 0.001156443598 4.060491623e-17)
(0.8487861194 0.01136205833 -4.572747209e-17)
(1.886752746 0.5615447215 -1.283169619e-16)
(1.201919694 0.3975386461 -3.838136477e-17)
(1.666012687 0.3126788922 -1.308051347e-16)
(1.027543187 0.1962642461 3.250890623e-17)
(1.500708347 0.1824938688 -2.235741697e-16)
(0.9765858455 0.1114421397 9.637209923e-17)
(1.372655214 0.09968346711 -2.399210198e-16)
(0.9553177714 0.07179556854 1.502671669e-16)
(1.274719531 0.04194239508 -1.914511929e-16)
(0.9207254578 0.0453505497 2.758652661e-16)
(1.205873108 0.003426290174 -2.782547975e-16)
(0.8459652286 0.01290367161 3.467467296e-16)
(1.747602029 0.6725387485 2.033102953e-16)
(1.10342702 0.4758350069 1.974750927e-17)
(1.588305361 0.3746029562 9.747937509e-17)
(0.9789793572 0.234955821 -1.715415559e-17)
(1.45523907 0.2187562936 1.747782576e-16)
(0.9491967149 0.1335095135 1.584083528e-17)
(1.347627908 0.1195034689 1.076760846e-16)
(0.9379954359 0.08620599498 -8.028029958e-17)
(1.263763113 0.05006704749 1.794703765e-16)
(0.9102126794 0.05483347928 -3.099345594e-16)
(1.204200884 0.003506965113 2.539235193e-16)
(0.8435403471 0.01631694128 -2.604406549e-16)
(1.587189417 0.7499027901 -1.300985234e-16)
(0.990359765 0.5303938068 2.035147338e-17)
(1.499007362 0.417785867 -8.162077923e-17)
(0.9231923344 0.2617484271 9.924682976e-17)
(1.403087464 0.2440795604 -2.333217016e-16)
(0.9173705122 0.1484295251 8.482986065e-17)
(1.319218249 0.1336746996 -1.964350062e-16)
(0.9172010668 0.0953243968 1.056384428e-16)
(1.252106579 0.05676273633 -2.339104151e-16)
(0.8967632259 0.05988645846 4.939553305e-16)
(1.203777108 0.005407818539 -5.264752983e-16)
(0.8394965309 0.01664489806 5.124501883e-16)
(1.413624756 0.789570239 -4.214545023e-17)
(0.8676221029 0.5581781453 3.781965667e-17)
(1.402118775 0.4398701997 -1.628214462e-16)
(0.8627149342 0.2754967692 -8.233639705e-17)
(1.346369682 0.2570253186 1.556336655e-16)
(0.8833245248 0.1563797114 -3.57604385e-17)
(1.2879061 0.1407135778 1.419162225e-16)
(0.8957665572 0.1007065925 -1.291472669e-16)
(1.238240119 0.05947328941 2.279659257e-16)
(0.8838887544 0.0636709159 -4.967149451e-16)
(1.201414194 0.005064551582 5.103430042e-16)
(0.8367551449 0.01828571329 -4.329962818e-16)
(1.235567477 0.7896760277 1.375643197e-16)
(0.7421126788 0.5582674893 -8.319474809e-17)
(1.302934722 0.4400709336 4.709139188e-16)
(0.8007839965 0.2754666763 -1.768943253e-16)
(1.288395785 0.2572374556 2.552208785e-16)
(0.8480384495 0.1561147349 -2.139488601e-16)
(1.256267404 0.1410902835 2.361042186e-16)
(0.8727779513 0.1001032426 -6.175302952e-17)
(1.225198338 0.06022534912 -7.04049852e-17)
(0.8690232902 0.06271909695 3.622498763e-16)
(1.200918818 0.006209923567 -3.707204141e-16)
(0.8321398086 0.0172377649 3.066392712e-16)
(1.061949512 0.7501450689 -4.04872092e-17)
(0.6194618666 0.5300551411 -2.624805583e-17)
(1.206077052 0.4179477936 -6.182709424e-16)
(0.7403862391 0.261573528 2.572722219e-16)
(1.231699755 0.2443032078 -4.999497919e-16)
(0.8140627494 0.1484100985 2.875762626e-16)
(1.224918341 0.1339167403 -2.918780165e-16)
(0.8514286484 0.09546047042 5.638615281e-17)
(1.211207413 0.05687387548 1.360638429e-16)
(0.8563134637 0.06019989993 -4.862522434e-16)
(1.198306966 0.005298560301 4.804228693e-16)
(0.8297508787 0.01705635752 -5.515731427e-16)
(0.9015307779 0.6729765924 1.680409434e-16)
(0.5063409793 0.475648991 -5.086088001e-17)
(1.116630824 0.3751101696 8.411077984e-16)
(0.6845446222 0.2347168873 -2.643405583e-16)
(1.179353572 0.219348767 6.720793112e-16)
(0.7822742233 0.1330143599 -5.668890236e-16)
(1.196281302 0.1204366195 5.329842553e-16)
(0.8307722844 0.08525603593 -2.731094387e-16)
(1.199326539 0.05160310226 1.181097924e-16)
(0.8429358135 0.05338265815 -7.231255683e-17)
(1.197830654 0.005619226964 1.23709673e-16)
(0.8253601443 0.014672557 -2.886471777e-17)
(0.7622340252 0.5620658341 3.52264887e-18)
(0.4080737121 0.3970610304 -4.78554055e-17)
(1.038999411 0.3131864584 -5.011293684e-16)
(0.6362055143 0.1959686334 -1.354497081e-16)
(1.133944766 0.1831108557 -1.95923095e-16)
(0.7551096071 0.1112189696 6.85760107e-17)
(1.171171648 0.1004417571 -1.601514686e-16)
(0.8137287287 0.07156691041 -1.940308943e-17)
(1.188085784 0.04275744163 8.932670154e-17)
(0.8328820202 0.0451602128 -6.128129115e-17)
(1.195596621 0.004164665919 1.055837005e-16)
(0.8237832201 0.01284578195 -1.762081524e-16)
(0.6512543584 0.4229209675 -1.694433838e-16)
(0.3297264394 0.2989000101 -2.031638016e-17)
(0.9770153933 0.2357715241 4.507834736e-16)
(0.597472172 0.1475696629 1.451201118e-17)
(1.097595913 0.1379096861 4.235021126e-16)
(0.7330352411 0.083715231 -3.490627953e-16)
(1.151230867 0.07576985158 5.554540035e-16)
(0.7993647578 0.05375840113 -3.77918006e-16)
(1.179781561 0.03252440529 2.302860786e-16)
(0.8234709368 0.03380142923 -2.727443058e-16)
(1.195332942 0.003626203542 3.738247757e-16)
(0.8203318298 0.009596069598 -3.585514661e-16)
(0.5738599136 0.2625918811 1.056489321e-16)