/*--------------------------------*- C++ -*----------------------------------*\
| =========                 |                                                 |
| \\      /  F ield         | foam-extend: Open Source CFD                    |
|  \\    /   O peration     | Version:  3.0                                   |
|   \\  /    A nd           | Web:         http://www.extend-project.de       |
|    \\/     M anipulation  |                                                 |
\*---------------------------------------------------------------------------*/
FoamFile
{
    version     2.0;
    format      ascii;
    class       volScalarField;
    location    "12";
    object      p;
}
// * * * * * * * * * * * * * * * * * * * * * * * * * * * * * * * * * * * * * //

dimensions      [0 0 0 0 0 0 0];

internalField   nonuniform List<scalar> 
576
(
-6.44476
-6.45958
-5.10636
-5.01115
-4.44211
-4.23825
-4.21723
-3.79255
-4.20674
-3.72784
-4.16227
-4.03194
-6.33181
-6.34756
-5.01692
-4.9253
-4.36552
-4.16513
-4.14521
-3.72756
-4.13506
-3.66447
-4.09141
-3.96341
-6.11612
-6.13041
-4.84591
-4.75604
-4.21575
-4.02223
-4.00253
-3.59923
-3.99264
-3.53806
-3.95033
-3.82672
-5.79036
-5.80484
-4.58846
-4.50405
-3.99254
-3.80933
-3.79095
-3.40905
-3.7817
-3.35125
-3.74168
-3.62467
-5.37075
-5.38304
-4.25508
-4.17632
-3.70198
-3.53203
-3.51485
-3.16073
-3.50621
-3.10709
-3.46907
-3.36056
-4.85432
-4.86641
-3.84693
-3.77606
-3.34721
-3.19378
-3.17826
-2.8582
-3.17053
-2.80975
-3.13698
-3.03889
-4.25918
-4.26897
-3.3744
-3.31218
-2.9359
-2.80127
-2.78763
-2.50692
-2.78075
-2.46446
-2.75134
-2.66536
-3.58769
-3.59648
-2.84295
-2.79078
-2.47378
-2.36045
-2.34898
-2.11258
-2.3432
-2.07688
-2.31847
-2.24609
-2.85735
-2.86404
-2.26391
-2.22232
-1.96988
-1.87959
-1.87042
-1.68229
-1.86569
-1.6539
-1.84605
-1.7885
-2.07651
-2.08142
-1.64538
-1.61526
-1.43188
-1.36628
-1.35962
-1.22306
-1.35613
-1.20251
-1.34195
-1.30023
-1.26114
-1.26392
-0.99925
-0.980956
-0.869667
-0.829837
-0.825709
-0.743034
-0.823457
-0.730616
-0.814954
-0.789765
-0.423693
-0.424331
-0.335691
-0.329623
-0.292368
-0.279072
-0.277556
-0.250224
-0.27664
-0.246173
-0.273987
-0.265756
0.420742
0.422291
0.333433
0.327195
0.289844
0.276372
0.275289
0.246821
0.274869
0.24246
0.271643
0.262783
1.25809
1.2618
0.996955
0.978472
0.867168
0.827118
0.823459
0.739668
0.821686
0.726962
0.812631
0.786833
2.07388
2.07966
1.64339
1.61296
1.42964
1.36369
1.35752
1.21985
1.35443
1.19902
1.33971
1.29742
2.85422
2.86195
2.26174
2.21986
1.96768
1.87693
1.86837
1.67917
1.864
1.65057
1.84386
1.7858
3.58573
3.59527
2.84139
2.78876
2.47204
2.35805
2.34724
2.10976
2.34167
2.07388
2.31646
2.24363
4.2559
4.26706
3.37243
3.30994
2.93412
2.79882
2.78595
2.50425
2.77927
2.46171
2.74943
2.66306
4.85325
4.86584
3.84578
3.77449
3.34599
3.19171
3.17699
2.8559
3.16931
2.80742
3.13535
3.03694
5.36757
5.38136
4.25333
4.17444
3.70062
3.52999
3.51367
3.15869
3.50513
3.10509
3.46763
3.35885
5.79005
5.8048
4.58811
4.50298
3.99193
3.80786
3.79022
3.40743
3.78097
3.34964
3.74057
3.62328
6.11346
6.12891
4.84438
4.75446
4.21494
4.02059
4.00193
3.59787
3.99212
3.53687
3.94951
3.82573
6.33227
6.34816
5.01777
4.92459
4.36582
4.16452
4.14516
3.72675
4.13496
3.66359
4.09088
3.96272
6.44273
6.45879
5.1053
5.01046
4.44201
4.2372
4.21747
3.79187
4.20705
3.72763
4.16225
4.0319
6.44296
6.45891
5.10548
5.0106
4.4422
4.23738
4.21762
3.79211
4.20716
3.72788
4.1624
4.0321
6.33295
6.34851
5.01831
4.92501
4.36638
4.16506
4.1456
3.72747
4.13529
3.66436
4.09134
3.96331
6.11458
6.12949
4.84527
4.75516
4.21586
4.02148
4.00266
3.59905
3.99266
3.53814
3.95028
3.82671
5.79159
5.8056
4.58934
4.50394
3.9932
3.80909
3.79123
3.40905
3.78172
3.35138
3.74163
3.62464
5.36952
5.38237
4.25488
4.17566
3.70223
3.53153
3.51494
3.16073
3.50608
3.10728
3.46896
3.36056
4.85557
4.86705
3.84763
3.77594
3.34791
3.19354
3.1785
2.85833
3.17045
2.81002
3.13694
3.03897
4.25855
4.26846
3.37454
3.31161
2.93631
2.80091
2.78769
2.50703
2.78058
2.46468
2.75125
2.66539
3.58866
3.59683
2.84372
2.79063
2.47447
2.36037
2.34918
2.11283
2.34313
2.07718
2.31849
2.24621
2.85738
2.86367
2.26425
2.22189
1.9703
1.87943
1.87048
1.68248
1.86559
1.65413
1.84606
1.78859
2.07721
2.08151
1.64604
1.61514
1.43242
1.36634
1.35977
1.22334
1.35613
1.20277
1.34204
1.30037
1.26152
1.26374
0.999681
0.98076
0.870038
0.82988
0.825805
0.743278
0.823476
0.730844
0.815057
0.789904
0.424209
0.424335
0.336198
0.329581
0.292757
0.279205
0.2777
0.250486
0.276723
0.246405
0.274129
0.265923
-0.420301
-0.422285
-0.332982
-0.327197
-0.289491
-0.276214
-0.275127
-0.246569
-0.274744
-0.242238
-0.271479
-0.262595
-1.25773
-1.26176
-0.996554
-0.978446
-0.86685
-0.826959
-0.823289
-0.73944
-0.821532
-0.726756
-0.812451
-0.786627
-2.07343
-2.07949
-1.64291
-1.61284
-1.42926
-1.36346
-1.35727
-1.21959
-1.3542
-1.1988
-1.33948
-1.29717
-2.85401
-2.86188
-2.26141
-2.2198
-1.96738
-1.87676
-1.86816
-1.67898
-1.86377
-1.6504
-1.84363
-1.78557
-3.58525
-3.59491
-2.84089
-2.78854
-2.47161
-2.35776
-2.34688
-2.10949
-2.34129
-2.07365
-2.31612
-2.24333
-4.25572
-4.26695
-3.37214
-3.30989
-2.93385
-2.79866
-2.78572
-2.50413
-2.77896
-2.46161
-2.74911
-2.66286
-4.85293
-4.86529
-3.84541
-3.77418
-3.34561
-3.19142
-3.17659
-2.85568
-3.16879
-2.80722
-3.13486
-3.03664
-5.36712
-5.38111
-4.25295
-4.17448
-3.70036
-3.52991
-3.51347
-3.15875
-3.50484
-3.10518
-3.46737
-3.35877
-5.79023
-5.80417
-4.58817
-4.50264
-3.99174
-3.80775
-3.78987
-3.40741
-3.78043
-3.34958
-3.74019
-3.62302
-6.1127
-6.12843
-4.84357
-4.75452
-4.21445
-4.0206
-4.00163
-3.59818
-3.99188
-3.53721
-3.94955
-3.82578
-6.33311
-6.34781
-5.01837
-4.92458
-4.36562
-4.1649
-4.14472
-3.72692
-4.13434
-3.66354
-4.09045
-3.96247
-6.4417
-6.45781
-5.10401
-5.01057
-4.44126
-4.23706
-4.21706
-3.79223
-4.20667
-3.72804
-4.16214
-4.032
)
;

boundaryField
{
    out
    {
        type            implicitExtrapolation;
    }
    in
    {
        type            implicitExtrapolation;
    }
    frontAndBack
    {
        type            empty;
    }
}


// ************************************************************************* //
