/*--------------------------------*- C++ -*----------------------------------*\
| =========                 |                                                 |
| \\      /  F ield         | foam-extend: Open Source CFD                    |
|  \\    /   O peration     | Version:  3.0                                   |
|   \\  /    A nd           | Web:         http://www.extend-project.de       |
|    \\/     M anipulation  |                                                 |
\*---------------------------------------------------------------------------*/
FoamFile
{
    version     2.0;
    format      ascii;
    class       volSymmTensorField;
    location    "12";
    object      sigma;
}
// * * * * * * * * * * * * * * * * * * * * * * * * * * * * * * * * * * * * * //

dimensions      [0 0 0 0 0 0 0];

internalField   nonuniform List<symmTensor> 
576
(
(1.9624 -0.0469906 2.49107e-18 -1.76374 2.20466e-18 3.36691e-36)
(1.95719 0.136446 7.53362e-18 -1.75573 -2.70843e-17 -1.38052e-34)
(2.24303 0.21231 1.04374e-18 -2.11533 -1.39413e-17 -1.46988e-35)
(2.04148 0.225936 -8.33443e-19 -1.84853 -5.50984e-18 1.31131e-35)
(1.81238 0.224867 8.26126e-18 -1.73846 -2.18514e-18 2.23481e-35)
(1.66243 0.211863 6.08669e-18 -1.44315 -4.90554e-19 4.89777e-36)
(1.27639 0.186177 -8.9811e-18 -1.23648 -3.59132e-18 -1.53472e-35)
(1.18123 0.173949 -1.34014e-17 -0.985617 2.06473e-17 -1.63731e-34)
(0.845492 0.14417 -2.04239e-17 -0.746861 1.18638e-17 -1.12336e-34)
(0.672292 0.129274 -1.32057e-17 -0.538759 4.98821e-18 -1.01229e-35)
(0.440669 0.103586 1.23134e-19 -0.299064 -1.09873e-17 5.41393e-35)
(0.250694 0.0908307 -1.16804e-17 -0.113668 -1.12463e-17 -5.94078e-36)
(2.10092 -0.108722 -1.54927e-17 -1.90547 -9.25241e-18 -8.08497e-35)
(1.90947 0.402053 -4.03852e-17 -1.71155 2.11898e-17 3.36819e-34)
(2.13503 0.617886 -5.91127e-18 -2.0091 1.11801e-17 2e-34)
(1.90678 0.653463 -3.62089e-19 -1.71726 -1.15299e-17 -1.50333e-35)
(1.67169 0.648334 1.3548e-17 -1.59918 -1.4115e-17 -1.6061e-35)
(1.5222 0.60996 -1.03166e-17 -1.30644 1.35079e-17 0)
(1.14928 0.534613 -2.02834e-17 -1.11017 3.80969e-17 -3.94652e-34)
(1.0565 0.498715 3.94807e-17 -0.8642 7.74094e-18 1.76546e-34)
(0.737644 0.412046 2.5776e-17 -0.640756 1.66422e-17 3.59172e-34)
(0.569791 0.36815 1.62296e-17 -0.438672 -6.52101e-19 -4.24081e-34)
(0.352349 0.293816 -2.70433e-17 -0.213229 1.98139e-18 -2.46709e-34)
(0.165888 0.256245 -2.95947e-17 -0.0312413 2.61151e-17 3.92997e-34)
(2.35006 -0.0704845 2.7707e-18 -2.16173 4.9521e-18 -6.79241e-35)
(1.81674 0.653831 1.84297e-17 -1.62572 8.62907e-18 -4.06768e-35)
(1.93126 0.973743 -1.9578e-17 -1.80947 -1.50019e-17 -2.37637e-34)
(1.65554 1.01377 -4.30039e-17 -1.4724 3.66402e-17 -3.4721e-34)
(1.40913 0.998941 -2.051e-17 -1.33914 7.77144e-18 1.72457e-34)
(1.26146 0.93456 3.41445e-17 -1.05296 1.15165e-17 -9.32748e-35)
(0.913196 0.814396 8.06899e-17 -0.875493 -2.20883e-17 9.52308e-34)
(0.824833 0.755826 6.36621e-18 -0.639157 8.57686e-18 8.6661e-35)
(0.537852 0.61993 7.52544e-17 -0.444312 -8.44181e-18 1.34591e-33)
(0.380102 0.549158 3.14869e-17 -0.2536 3.53474e-18 8.65216e-34)
(0.189403 0.433201 -1.70518e-17 -0.0550813 3.02739e-17 -8.01596e-34)
(0.00993998 0.371637 4.52367e-17 0.120077 3.33778e-17 1.055e-33)
(2.6575 0.115113 2.42943e-18 -2.47856 2.32244e-18 0)
(1.68557 0.881653 -7.37017e-19 -1.50433 -2.26628e-17 0)
(1.65485 1.25386 -3.75287e-17 -1.53956 4.89821e-17 2.94246e-34)
(1.3195 1.27212 7.85865e-17 -1.14606 -3.94386e-17 4.25702e-34)
(1.06041 1.23917 -3.6339e-17 -0.994121 1.29861e-17 -4.10333e-34)
(0.915745 1.1484 4.67641e-17 -0.718404 -3.13482e-17 7.48175e-34)
(0.601756 0.990773 -3.88991e-17 -0.566084 7.27762e-18 -9.79929e-34)
(0.519761 0.911189 9.50516e-17 -0.343989 -5.13455e-17 2.66045e-34)
(0.275883 0.737917 4.00297e-17 -0.187314 -6.48356e-17 -2.02388e-33)
(0.132342 0.643522 1.60028e-17 -0.0125568 -2.06153e-17 -5.95745e-34)
(-0.0225415 0.496682 4.33933e-17 0.149761 8.54073e-19 -4.19207e-34)
(-0.191799 0.412312 1.01573e-16 0.31495 -9.87145e-17 -9.2918e-35)
(2.95295 0.471551 -8.49503e-18 -2.78714 5.36532e-19 0)
(1.52236 1.08019 -3.14641e-17 -1.35444 2.44472e-17 8.03288e-35)
(1.33634 1.44256 4.086e-17 -1.22912 -1.78249e-17 -3.65265e-34)
(0.941199 1.40934 -4.49171e-17 -0.780387 1.92254e-17 -4.47893e-34)
(0.671735 1.34847 7.42908e-17 -0.610182 -5.1334e-17 -6.24188e-34)
(0.532224 1.23089 -8.06491e-17 -0.349235 -1.90093e-18 3.0549e-34)
(0.259091 1.04497 -1.35693e-17 -0.226041 -3.55057e-17 0)
(0.184976 0.946351 -1.15675e-16 -0.0220788 -2.00579e-17 1.48169e-33)
(-0.00944971 0.749856 -1.12034e-16 0.0915064 2.0655e-17 2.52183e-33)
(-0.135838 0.635778 -7.7059e-17 0.246782 -9.83704e-18 2.62425e-35)
(-0.250215 0.470842 1.86032e-17 0.368084 -5.3644e-17 -1.3917e-33)
(-0.406354 0.365385 -1.37699e-16 0.520427 -1.98129e-18 9.2918e-35)
(3.16434 0.992453 3.33389e-18 -3.01416 1.05737e-17 0)
(1.33611 1.24645 2.66203e-17 -1.1841 -1.39959e-17 1.20703e-34)
(1.00865 1.53691 -1.26533e-17 -0.911529 -1.08328e-17 -9.50312e-35)
(0.566447 1.42298 -8.6814e-18 -0.421027 2.04198e-18 0)
(0.293333 1.32497 -5.80554e-17 -0.237631 2.20731e-17 2.45184e-34)
(0.161698 1.18059 2.21482e-17 0.00373946 -1.87802e-17 -2.01693e-34)
(-0.0670953 0.975922 -1.20132e-16 0.0969572 5.99207e-17 7.12365e-34)
(-0.132197 0.860608 1.46257e-16 0.279412 -1.28599e-17 -2.07667e-33)
(-0.276049 0.655417 2.11325e-17 0.350194 -1.7992e-17 -1.84386e-33)
(-0.383571 0.526 -6.5351e-17 0.483804 4.67829e-17 1.23991e-33)
(-0.457546 0.35607 6.29554e-18 0.564068 2.11363e-17 0)
(-0.597949 0.231613 -1.19238e-17 0.701025 4.13915e-17 0)
(3.2233 1.64271 3.39912e-18 -3.09125 4.42123e-18 0)
(1.13502 1.37919 -1.61766e-17 -1.00162 4.49724e-17 -5.54389e-34)
(0.703384 1.54568 9.93107e-17 -0.618059 -3.72827e-17 1.82907e-33)
(0.238443 1.32795 -1.58049e-17 -0.110833 -1.97692e-17 0)
(-0.0278301 1.18575 4.20352e-17 0.0767217 -1.71825e-17 -8.69731e-35)
(-0.148278 1.01543 -5.35833e-17 0.293356 2.02181e-17 7.15375e-35)
(-0.332437 0.800905 1.29465e-16 0.358625 -1.38504e-17 4.78523e-34)
(-0.387823 0.671413 1.08782e-16 0.516821 -2.85615e-17 2.36518e-34)
(-0.484981 0.470494 -1.65796e-16 0.549953 3.45483e-17 -1.52603e-33)
(-0.573133 0.329954 4.33879e-17 0.660924 1.32509e-17 -2.52076e-34)
(-0.611279 0.166653 -1.4279e-17 0.70462 -1.87282e-17 0)
(-0.733679 0.0255581 -1.69745e-17 0.823985 3.36438e-17 0)
(3.08107 2.3629 3.77448e-18 -2.96986 5.51024e-18 0)
(0.926416 1.48062 5.69249e-17 -0.813941 -2.18966e-18 4.08086e-34)
(0.445099 1.48859 -4.06199e-17 -0.373127 -9.5271e-18 -1.56174e-33)
(-0.00940341 1.15389 -5.81167e-17 0.116988 3.09394e-17 8.44112e-36)
(-0.255527 0.964083 1.66555e-17 0.296724 -1.16651e-17 6.5559e-36)
(-0.361085 0.769602 1.67422e-17 0.48329 -4.38938e-17 1.83747e-34)
(-0.502787 0.552505 1.93203e-17 0.524858 1.01121e-17 0)
(-0.548076 0.411415 -7.60601e-17 0.656663 -2.35968e-17 -3.65631e-34)
(-0.606332 0.22453 -1.55665e-16 0.661029 3.07647e-17 2.88808e-33)
(-0.675611 0.0766139 3.64267e-17 0.749476 2.09497e-17 5.54082e-34)
(-0.686023 -0.0714478 -3.61084e-17 0.76458 8.17024e-18 5.59477e-34)
(-0.788568 -0.226606 9.45056e-17 0.864561 -6.54828e-18 -1.0101e-33)
(2.71331 3.07679 2.14866e-17 -2.62444 -1.27529e-18 6.22543e-35)
(0.71615 1.55373 -2.99651e-17 -0.626387 -5.83914e-18 -4.81807e-35)
(0.249058 1.39207 -6.44073e-17 -0.191646 3.75967e-17 -2.14812e-34)
(-0.157584 0.940279 1.5054e-16 0.243328 -4.35624e-17 8.26675e-34)
(-0.369037 0.704081 -1.45745e-16 0.401869 4.3766e-17 -3.81545e-34)
(-0.456026 0.488395 1.2654e-16 0.553268 -9.34778e-18 9.12189e-34)
(-0.559198 0.273703 7.04471e-17 0.576791 -8.60579e-17 -1.78321e-33)
(-0.594282 0.123555 -1.88542e-16 0.680607 -8.29076e-18 2.28819e-33)
(-0.623805 -0.043888 -2.77101e-17 0.6673 3.9002e-17 -1.13192e-33)
(-0.675377 -0.196174 -3.19922e-18 0.734068 9.53968e-19 -4.43865e-35)
(-0.668166 -0.324429 1.13847e-17 0.730605 4.07201e-17 -1.74362e-34)
(-0.749359 -0.490925 7.80028e-17 0.809752 -1.65819e-17 1.0101e-33)
(2.12649 3.70395 6.46002e-18 -2.06185 1.25157e-17 0)
(0.507611 1.60321 2.40362e-17 -0.442265 -7.30295e-18 5.30466e-35)
(0.118416 1.28568 5.54098e-17 -0.076639 1.06718e-18 1.62978e-34)
(-0.203722 0.730386 -1.17058e-16 0.266064 2.66802e-17 -9.84666e-34)
(-0.36655 0.453877 1.16051e-16 0.390397 -1.17013e-17 5.61773e-34)
(-0.431539 0.221036 -4.07789e-17 0.502098 3.59066e-17 -3.10768e-34)
(-0.500758 0.0111676 -8.28883e-17 0.51353 -8.36928e-18 -5.85189e-34)
(-0.525681 -0.1456 5.63366e-17 0.588246 -1.20857e-17 -5.66628e-34)
(-0.537125 -0.292963 6.18289e-17 0.568646 3.02632e-17 -7.90543e-34)
(-0.572465 -0.447477 5.28772e-17 0.614961 5.62322e-18 2.36123e-35)
(-0.558036 -0.555792 1.67978e-16 0.603264 -2.48515e-17 5.994e-35)
(-0.616768 -0.730837 -8.40321e-17 0.660505 -1.54137e-18 3.89716e-35)
(1.357 4.16978 6.6746e-18 -1.3174 -1.7484e-18 0)
(0.302469 1.63311 -4.26846e-17 -0.262484 1.40322e-17 -5.05168e-35)
(0.0450229 1.19675 -4.94723e-17 -0.0194627 -1.2345e-18 -1.02069e-34)
(-0.161982 0.564274 6.37367e-17 0.199922 -9.08582e-18 -3.64141e-35)
(-0.264686 0.258049 -6.08623e-17 0.279206 1.77645e-17 1.59101e-35)
(-0.304944 0.0131279 1.47087e-17 0.347653 -1.60237e-17 0)
(-0.344442 -0.191927 -4.0915e-17 0.352195 2.73908e-17 -3.6016e-34)
(-0.359337 -0.352995 2.47893e-17 0.397094 2.70263e-17 1.88662e-34)
(-0.361971 -0.484083 -1.63288e-17 0.380987 8.7279e-18 -4.46646e-34)
(-0.382483 -0.639507 -2.53234e-18 0.408069 2.18398e-17 -7.86242e-34)
(-0.369794 -0.731858 -9.3752e-18 0.397042 -2.87183e-17 2.46436e-34)
(-0.405297 -0.912601 3.45579e-17 0.431632 -2.89557e-17 5.75994e-34)
(0.466445 4.41805 1.19662e-18 -0.452672 -1.09044e-17 0)
(0.100067 1.64707 4.27456e-18 -0.0862354 -9.24418e-18 -4.89149e-35)
(0.0103202 1.14654 -8.37424e-18 -0.0014688 1.71857e-17 -3.41259e-35)
(-0.0611825 0.472822 -1.10133e-17 0.0740058 9.64623e-19 7.96623e-36)
(-0.0961675 0.15085 3.93686e-17 0.10107 -1.13389e-17 1.7353e-36)
(-0.109883 -0.100331 -1.14385e-17 0.123979 1.0904e-18 9.87369e-36)
(-0.122595 -0.302464 9.61263e-18 0.125158 3.30147e-18 5.92634e-38)
(-0.127572 -0.465629 -1.8339e-17 0.139858 5.60427e-18 -1.88711e-34)
(-0.127666 -0.587668 2.54113e-17 0.133829 -2.45196e-18 -9.84094e-35)
(-0.134346 -0.743339 -1.25769e-17 0.142568 2.13064e-18 -1.82064e-34)
(-0.129423 -0.826865 -3.63105e-18 0.138209 5.09711e-19 -2.51205e-34)
(-0.14125 -1.01045 6.82281e-18 0.149717 -9.25408e-18 4.11752e-35)
(-0.466387 4.41806 2.34315e-18 0.454214 7.95939e-18 1.68555e-35)
(-0.101138 1.64691 2.12336e-17 0.0886598 1.32089e-17 2.55917e-35)
(-0.0106017 1.14646 3.11991e-18 0.00267369 4.38576e-18 3.17836e-35)
(0.0605213 0.47272 -8.40697e-18 -0.0729872 4.43605e-20 -4.46611e-35)
(0.095868 0.15081 -9.72232e-18 -0.100633 -7.58784e-18 8.65934e-35)
(0.109325 -0.100394 9.59753e-18 -0.124052 2.24929e-18 1.54343e-35)
(0.122333 -0.30252 -7.55813e-18 -0.124994 -9.56797e-18 8.80249e-36)
(0.127218 -0.465643 -1.63919e-18 -0.1406 -2.06042e-17 1.28477e-34)
(0.127451 -0.587707 -9.63082e-18 -0.134243 -4.14244e-18 1.82939e-34)
(0.134228 -0.743324 -7.86771e-18 -0.143507 9.3152e-18 1.47326e-34)
(0.129266 -0.826871 -8.57749e-19 -0.139091 1.52943e-17 6.50888e-36)
(0.141256 -1.01044 -7.47937e-19 -0.150802 -2.2773e-18 -1.31556e-35)
(-1.35697 4.16989 1.31447e-17 1.31903 -2.93514e-18 -1.92092e-35)
(-0.303426 1.63269 -4.58125e-17 0.264816 -9.57145e-18 3.65672e-34)
(-0.0452444 1.19657 -4.4312e-17 0.0206577 3.19528e-18 4.69607e-35)
(0.161409 0.563995 -2.40849e-17 -0.198969 1.8536e-17 -2.33251e-34)
(0.264421 0.25794 2.43284e-17 -0.278789 2.61294e-18 8.45729e-35)
(0.30446 0.0129539 9.03328e-18 -0.347763 -3.06581e-17 0)
(0.344229 -0.19208 -7.30105e-17 -0.352084 -2.55006e-17 1.06834e-34)
(0.359021 -0.35303 2.12761e-17 -0.397846 -6.36353e-18 -1.35828e-34)
(0.361806 -0.484189 6.41142e-17 -0.381446 -6.69077e-18 -6.06503e-34)
(0.382379 -0.63946 4.11295e-17 -0.409009 1.84729e-17 -7.15645e-35)
(0.369672 -0.731872 -2.28913e-17 -0.397947 -9.6706e-19 6.03215e-35)
(0.405328 -0.91256 -3.55019e-17 -0.432729 1.27442e-17 1.49969e-34)
(-2.12657 3.704 -8.81542e-18 2.06356 -2.07949e-17 1.55899e-34)
(-0.50847 1.60251 7.30675e-17 0.444409 9.0113e-18 -6.39354e-34)
(-0.118616 1.28535 5.10267e-17 0.077816 2.08304e-18 7.90336e-35)
(0.20323 0.729953 -3.52053e-17 -0.265224 -6.48341e-18 3.58283e-34)
(0.366299 0.453702 -1.05542e-16 -0.390016 5.80098e-18 1.50982e-34)
(0.431147 0.220779 -2.02459e-17 -0.502272 -3.11504e-18 -2.96994e-34)
(0.500603 0.0109448 1.0135e-16 -0.513514 1.15482e-17 9.87548e-35)
(0.525413 -0.145645 -2.85022e-17 -0.589013 -7.66851e-18 1.80659e-34)
(0.537032 -0.293108 4.32109e-17 -0.569181 -6.89489e-19 1.49926e-33)
(0.572375 -0.447394 4.71614e-17 -0.615899 -1.35099e-17 9.75264e-34)
(0.557968 -0.555793 -6.45636e-18 -0.604206 -2.98517e-17 8.52698e-34)
(0.616834 -0.730748 8.13741e-17 -0.66162 2.51978e-17 -9.14224e-34)
(-2.71349 3.07691 1.52938e-18 2.62647 8.32389e-18 0)
(-0.716778 1.55293 -8.78289e-18 0.628353 -1.32372e-17 0)
(-0.249118 1.39167 -6.315e-17 0.192799 -3.45796e-17 1.02648e-33)
(0.157261 0.939778 1.48059e-16 -0.24263 1.61722e-17 -1.46551e-34)
(0.368868 0.703874 4.21031e-18 -0.401535 2.21651e-17 4.71956e-34)
(0.455783 0.48811 -3.44479e-17 -0.55351 4.93763e-17 4.3779e-34)
(0.559136 0.27346 -1.43268e-16 -0.576889 -2.32008e-17 -1.76968e-33)
(0.594098 0.123526 3.44276e-17 -0.681385 3.31767e-17 1.12573e-33)
(0.623818 -0.0440282 -3.2479e-17 -0.667928 1.36239e-17 5.90342e-34)
(0.675325 -0.196047 1.17434e-17 -0.735 -5.74616e-17 3.54671e-34)
(0.66818 -0.32439 -2.44383e-18 -0.731591 -2.17993e-17 2.75771e-34)
(0.749485 -0.490778 8.95987e-17 -0.81089 -3.30909e-17 1.36166e-33)
(-3.08138 2.36279 4.52162e-18 2.97183 -8.91186e-18 0)
(-0.926936 1.47962 -9.45756e-18 0.81566 -2.8187e-17 5.10835e-34)
(-0.445132 1.48806 7.26621e-17 0.374261 5.35906e-17 -6.05501e-34)
(0.00914405 1.15333 -1.33856e-16 -0.116423 -2.17925e-17 -3.95561e-34)
(0.255379 0.963843 1.46246e-16 -0.296437 2.82806e-17 -4.90502e-34)
(0.360937 0.769327 -5.04371e-17 -0.48359 7.66579e-18 -9.80498e-35)
(0.502789 0.552271 3.44119e-17 -0.525079 3.29125e-17 0)
(0.547965 0.411415 -7.34494e-17 -0.657443 3.25449e-17 8.38187e-34)
(0.606437 0.224428 -1.67245e-16 -0.661751 -9.22033e-18 -3.15464e-33)
(0.675592 0.0767902 -1.12247e-16 -0.750396 -9.692e-18 -2.85702e-33)
(0.686107 -0.0713356 3.46733e-17 -0.765604 4.53385e-17 1.37668e-33)
(0.788738 -0.226366 -1.74948e-16 -0.86571 -4.91463e-17 -1.36166e-33)
(-3.22391 1.64252 6.43328e-18 3.09371 -1.21467e-17 0)
(-1.13536 1.37819 3.53004e-17 1.00314 9.50641e-18 -2.79332e-34)
(-0.703308 1.54512 3.33851e-17 0.619095 3.17316e-18 -6.57094e-34)
(-0.238599 1.32737 1.38836e-17 0.111245 2.59596e-17 0)
(0.0277671 1.1855 -6.90374e-17 -0.0765171 -2.34866e-17 1.31895e-34)
(0.148222 1.01518 8.74325e-17 -0.293702 1.26226e-17 -1.08501e-34)
(0.332511 0.800705 -7.19216e-17 -0.358959 -4.77921e-17 1.97833e-33)
(0.387796 0.671459 1.75349e-16 -0.517593 5.20251e-17 -2.49059e-33)
(0.485174 0.47047 6.91515e-17 -0.550747 2.93807e-17 1.06502e-33)
(0.573168 0.330194 -3.84415e-17 -0.661821 3.34682e-18 -1.47066e-34)
(0.611435 0.166872 5.55354e-18 -0.705657 -6.01724e-18 0)
(0.733914 0.0259062 2.80396e-17 -0.825136 5.22178e-17 0)
(-3.16491 0.991882 -3.18737e-18 3.01628 -1.24284e-18 0)
(-1.33635 1.2452 -3.79617e-17 1.18543 -2.96001e-17 3.11452e-35)
(-1.0086 1.53621 6.18057e-17 0.912487 1.97511e-17 6.44041e-34)
(-0.56659 1.42238 7.26548e-18 0.421341 -7.30663e-18 0)
(-0.293368 1.32471 6.57644e-17 0.237758 2.42444e-17 -2.81901e-34)
(-0.161724 1.18041 -4.41694e-17 -0.00409175 -2.57163e-17 2.31888e-34)
(0.0672432 0.9758 5.27313e-17 -0.0973975 4.94127e-17 8.23572e-34)
(0.13226 0.860742 -1.52924e-17 -0.280154 1.75289e-17 4.58569e-33)
(0.276331 0.655518 -1.08505e-16 -0.35104 -7.91906e-17 -2.43391e-33)
(0.383675 0.526335 9.84788e-17 -0.484661 -2.76328e-18 1.95032e-33)
(0.457745 0.356438 -1.06587e-18 -0.565079 1.81666e-17 0)
(0.598214 0.232105 1.10107e-17 -0.702123 1.90257e-17 0)
(-2.95393 0.470585 5.98751e-18 2.78941 -8.25094e-19 0)
(-1.5225 1.07894 -5.03723e-18 1.35546 2.89835e-17 3.95212e-34)
(-1.33617 1.44187 -6.12349e-17 1.22979 -4.31504e-17 -5.78879e-34)
(-0.941242 1.40873 -8.88205e-18 0.780582 -1.02855e-17 7.72211e-34)
(-0.67166 1.34821 -1.03488e-17 0.610139 -2.25563e-17 4.58148e-34)
(-0.532185 1.23077 6.15977e-17 0.348869 5.03106e-17 -1.27443e-34)
(-0.258855 1.04492 -6.94912e-17 0.22551 1.81491e-17 0)
(-0.184834 0.946581 -5.53895e-17 0.0213714 -4.21517e-18 -2.51307e-33)
(0.00977639 0.750097 -6.74189e-17 -0.0923422 -9.1028e-18 2.45256e-36)
(0.13599 0.636217 1.51917e-17 -0.24758 -8.37422e-18 -4.26062e-35)
(0.250407 0.471366 -5.71371e-18 -0.369016 3.5715e-18 1.03585e-33)
(0.406621 0.366032 8.12838e-17 -0.521439 3.26699e-17 1.01711e-33)
(-2.658 0.113853 -8.98707e-19 2.48041 9.52503e-18 7.14219e-35)
(-1.68541 0.880086 -8.50153e-18 1.50512 -1.09488e-17 -5.52748e-35)
(-1.65475 1.25308 -8.18941e-18 1.53993 -1.11956e-17 -6.63721e-34)
(-1.31959 1.27151 8.44965e-17 1.14626 3.13623e-17 -5.50453e-34)
(-1.0603 1.2389 -7.76965e-17 0.993919 -2.56749e-17 1.76268e-34)
(-0.915771 1.14838 8.0927e-17 0.718093 3.87217e-18 -6.28897e-34)
(-0.601497 0.990848 7.60242e-17 0.565532 6.47965e-17 2.16972e-34)
(-0.519594 0.911567 -4.3076e-17 0.343361 1.65715e-17 3.94578e-34)
(-0.275567 0.738345 4.56892e-17 0.186557 1.33318e-17 7.78409e-34)
(-0.132158 0.644085 1.06105e-17 0.0118718 2.21913e-17 5.69753e-34)
(0.0226843 0.497377 -5.82533e-18 -0.150539 1.74331e-17 2.84313e-34)
(0.192027 0.413121 -2.09972e-17 -0.315789 -4.42261e-17 -1.01711e-33)
(-2.35088 -0.0721843 -3.29357e-18 2.16324 -1.02906e-17 0)
(-1.8167 0.652048 8.66098e-18 1.62623 -6.72051e-18 2.67329e-34)
(-1.93115 0.973084 6.40588e-18 1.80984 8.57191e-18 3.70248e-36)
(-1.65558 1.01307 -5.83791e-17 1.47256 -4.92651e-17 7.29052e-35)
(-1.40898 0.998641 6.7733e-17 1.33887 1.93701e-17 -2.43388e-34)
(-1.26149 0.93465 -6.23929e-17 1.05283 -3.65595e-17 4.89602e-34)
(-0.91292 0.814492 2.14171e-17 0.874949 -3.58078e-17 6.80505e-34)
(-0.824659 0.756297 1.13825e-16 0.63867 1.85275e-17 -1.30927e-33)
(-0.53762 0.620455 6.53818e-17 0.443689 -2.10051e-17 -1.8536e-33)
(-0.379926 0.5498 6.21724e-17 0.253002 -5.9108e-18 -1.47485e-33)
(-0.189359 0.434017 1.0092e-16 0.0544468 2.23053e-17 -1.20563e-33)
(-0.00984144 0.372561 -7.72484e-17 -0.120747 -1.52846e-18 -4.22492e-34)
(-2.10127 -0.110603 -2.07587e-17 1.9068 4.37305e-18 0)
(-1.90891 0.400868 -2.49176e-17 1.71152 -1.2669e-17 -3.57482e-34)
(-2.13497 0.617284 1.30044e-18 2.00926 -2.08759e-17 -3.23565e-35)
(-1.9069 0.652962 2.09891e-17 1.71732 2.6256e-17 5.13196e-35)
(-1.67138 0.648245 -3.7783e-17 1.59875 -2.37018e-17 -6.93788e-35)
(-1.52236 0.610233 1.27501e-17 1.30629 1.10915e-17 0)
(-1.14908 0.534899 -3.84773e-17 1.10975 -1.53237e-17 1.05091e-34)
(-1.05634 0.499356 7.79459e-18 0.863778 -3.78459e-17 -5.83307e-35)
(-0.73753 0.41267 -2.69671e-17 0.640285 -2.65205e-17 7.42869e-36)
(-0.569579 0.368848 -1.82855e-17 0.438189 -4.02164e-17 2.17017e-34)
(-0.352376 0.294675 -4.60305e-18 0.212714 -2.52831e-17 6.5355e-34)
(-0.165912 0.257307 2.98102e-17 0.0307309 4.32171e-17 -4.49324e-34)
(-1.96203 -0.0492889 -5.09641e-19 1.76405 7.10292e-18 0)
(-1.95649 0.134814 6.08309e-18 1.75556 2.52754e-17 1.22832e-34)
(-2.24312 0.211401 2.70012e-19 2.11515 4.68358e-18 5.03607e-36)
(-2.04129 0.225331 1.06138e-17 1.84838 -1.07965e-17 -1.79476e-36)
(-1.81215 0.224582 1.4638e-17 1.73823 1.56976e-17 1.50679e-35)
(-1.66251 0.212096 -6.92134e-18 1.44273 -1.58878e-18 1.03007e-35)
(-1.2763 0.186474 1.40357e-17 1.23629 3.70904e-18 -2.13648e-35)
(-1.18123 0.174577 -2.42664e-17 0.985389 -6.46121e-18 7.61738e-35)
(-0.845568 0.14484 -4.84811e-18 0.746673 1.40357e-18 9.71118e-36)
(-0.672236 0.129956 -3.23958e-17 0.538628 -4.28115e-18 1.51862e-35)
(-0.440826 0.104477 -1.99622e-17 0.298805 -4.87465e-18 8.09105e-35)
(-0.250844 0.0919947 2.95562e-18 0.113383 -1.45356e-17 -2.8767e-35)
(-1.96183 0.0472685 2.48991e-18 1.76373 2.21115e-18 -3.36789e-36)
(-1.95647 -0.136371 7.52973e-18 1.75543 -2.70925e-17 1.38111e-34)
(-2.24311 -0.211976 1.04819e-18 2.11507 -1.39435e-17 1.46877e-35)
(-2.04128 -0.225949 -8.31025e-19 1.84834 -5.50941e-18 -1.3107e-35)
(-1.81217 -0.224762 8.25822e-18 1.73822 -2.19161e-18 -2.23371e-35)
(-1.66253 -0.2119 6.08239e-18 1.44279 -4.92871e-19 -4.8979e-36)
(-1.27637 -0.186113 -8.98263e-18 1.23636 -3.59271e-18 1.53264e-35)
(-1.18126 -0.174018 -1.34001e-17 0.985486 2.06459e-17 1.63725e-34)
(-0.845643 -0.144088 -2.04212e-17 0.746789 1.18634e-17 1.12321e-34)
(-0.672263 -0.129294 -1.32049e-17 0.538723 4.9876e-18 1.01136e-35)
(-0.440882 -0.10361 1.23861e-19 0.29893 -1.09878e-17 -5.41408e-35)
(-0.25091 -0.0909358 -1.16799e-17 0.113522 -1.12444e-17 5.93863e-36)
(-2.10071 0.108741 -1.54945e-17 1.90587 -9.25353e-18 8.08513e-35)
(-1.90884 -0.402427 -4.03875e-17 1.71114 2.11899e-17 -3.36924e-34)
(-2.13496 -0.617846 -5.9089e-18 2.00904 1.11874e-17 -1.99972e-34)
(-1.90687 -0.653588 -3.64548e-19 1.71721 -1.15289e-17 1.4967e-35)
(-1.67142 -0.648436 1.35463e-17 1.59872 -1.41125e-17 1.61024e-35)
(-1.52241 -0.610067 -1.03136e-17 1.30648 1.35106e-17 0)
(-1.14927 -0.534588 -2.02805e-17 1.10995 3.80991e-17 3.94614e-34)
(-1.05641 -0.49883 3.9478e-17 0.864062 7.742e-18 -1.76525e-34)
(-0.737744 -0.411976 2.57737e-17 0.640623 1.66402e-17 -3.59128e-34)
(-0.569656 -0.368213 1.62286e-17 0.438469 -6.52792e-19 4.24096e-34)
(-0.352536 -0.293856 -2.70385e-17 0.213083 1.98371e-18 2.46652e-34)
(-0.166105 -0.256299 -2.95951e-17 0.031139 2.61127e-17 -3.92963e-34)
(-2.35003 0.0706193 2.77524e-18 2.16179 4.95038e-18 6.79613e-35)
(-1.81657 -0.653605 1.84287e-17 1.62558 8.63261e-18 4.06618e-35)
(-1.93112 -0.97362 -1.95767e-17 1.80948 -1.50059e-17 2.37635e-34)
(-1.65551 -1.01371 -4.29996e-17 1.47237 3.664e-17 3.47138e-34)
(-1.40903 -0.998853 -2.05084e-17 1.33882 7.77794e-18 -1.72313e-34)
(-1.26155 -0.934541 3.41397e-17 1.05312 1.15138e-17 9.31693e-35)
(-0.913213 -0.814274 8.06853e-17 0.875242 -2.20922e-17 -9.52211e-34)
(-0.824762 -0.755834 6.36753e-18 0.639125 8.57698e-18 -8.66739e-35)
(-0.537944 -0.619872 7.52523e-17 0.444218 -8.44456e-18 -1.34582e-33)
(-0.380044 -0.549219 3.14868e-17 0.253454 3.53519e-18 -8.65166e-34)
(-0.189602 -0.433289 -1.70547e-17 0.055035 3.02723e-17 8.01503e-34)
(-0.0101392 -0.371648 4.52377e-17 -0.120094 3.33758e-17 -1.05494e-33)
(-2.65697 -0.115023 2.42736e-18 2.47855 2.31906e-18 0)
(-1.6852 -0.88163 -7.39643e-19 1.50419 -2.26654e-17 0)
(-1.65472 -1.25358 -3.75259e-17 1.53943 4.89827e-17 -2.94298e-34)
(-1.31947 -1.27216 7.85812e-17 1.14599 -3.94428e-17 -4.25623e-34)
(-1.06036 -1.23914 -3.63385e-17 0.993837 1.29807e-17 4.10365e-34)
(-0.915823 -1.14835 4.67622e-17 0.71846 -3.13492e-17 -7.48158e-34)
(-0.601847 -0.990753 -3.88955e-17 0.565884 7.28121e-18 9.79873e-34)
(-0.519709 -0.911189 9.50468e-17 0.34396 -5.13451e-17 -2.66035e-34)
(-0.275958 -0.737909 4.00275e-17 0.187231 -6.48316e-17 2.02376e-33)
(-0.132301 -0.643578 1.60042e-17 0.0124747 -2.06127e-17 5.95701e-34)
(0.0223893 -0.496772 4.33928e-17 -0.149769 8.52686e-19 4.19227e-34)
(0.191655 -0.412339 1.01574e-16 -0.314928 -9.8709e-17 9.29082e-35)
(-2.95286 -0.471312 -8.49369e-18 2.78731 5.3723e-19 0)
(-1.52217 -1.08044 -3.14678e-17 1.35424 2.44525e-17 -8.03226e-35)
(-1.33613 -1.44233 4.08534e-17 1.22917 -1.78242e-17 3.65362e-34)
(-0.941063 -1.40938 -4.49139e-17 0.780207 1.92303e-17 4.47813e-34)
(-0.671713 -1.34848 7.4287e-17 0.610011 -5.13339e-17 6.24187e-34)
(-0.5322 -1.23082 -8.06479e-17 0.349281 -1.89769e-18 -3.05494e-34)
(-0.259213 -1.04496 -1.35701e-17 0.225872 -3.55031e-17 0)
(-0.184934 -0.946302 -1.1567e-16 0.0220814 -2.00536e-17 -1.48161e-33)
(0.00937075 -0.749826 -1.12028e-16 -0.0915808 2.06574e-17 -2.52178e-33)
(0.13584 -0.635799 -7.70591e-17 -0.246852 -9.83699e-18 -2.62513e-35)
(0.250098 -0.470904 1.86044e-17 -0.36811 -5.36431e-17 1.39166e-33)
(0.406215 -0.365403 -1.37703e-16 -0.520417 -1.98167e-18 -9.29082e-35)
(-3.16395 -0.992175 3.33656e-18 3.01409 1.0575e-17 0)
(-1.33589 -1.24664 2.6619e-17 1.18392 -1.39941e-17 -1.20767e-34)
(-1.00856 -1.53662 -1.26553e-17 0.911765 -1.08342e-17 9.50334e-35)
(-0.566329 -1.42303 -8.68378e-18 0.420851 2.04216e-18 0)
(-0.293392 -1.32499 -5.80529e-17 0.237573 2.20742e-17 -2.45172e-34)
(-0.161673 -1.18054 2.21481e-17 -0.00367038 -1.87785e-17 2.01682e-34)
(0.0669288 -0.975968 -1.20127e-16 -0.0970769 5.99209e-17 -7.12234e-34)
(0.132199 -0.860566 1.4625e-16 -0.279369 -1.28642e-17 2.07647e-33)
(0.275964 -0.655412 2.11312e-17 -0.35025 -1.79962e-17 1.84382e-33)
(0.383539 -0.526012 -6.53474e-17 -0.483837 4.67814e-17 -1.23987e-33)
(0.457461 -0.356122 6.29507e-18 -0.564086 2.11357e-17 0)
(0.597813 -0.231637 -1.19216e-17 -0.70099 4.13904e-17 0)
(-3.22316 -1.64244 3.40038e-18 3.09158 4.42111e-18 0)
(-1.13475 -1.37953 -1.61724e-17 1.00133 4.49736e-17 5.54447e-34)
(-0.70326 -1.54547 9.93132e-17 0.61828 -3.72852e-17 -1.82918e-33)
(-0.238241 -1.32799 -1.58062e-17 0.110631 -1.97714e-17 0)
(0.0277864 -1.18579 4.20343e-17 -0.076768 -1.71848e-17 8.6959e-35)
(0.148365 -1.01538 -5.35823e-17 -0.293304 2.02181e-17 -7.15262e-35)
(0.332284 -0.800975 1.29461e-16 -0.358723 -1.38527e-17 -4.78454e-34)
(0.387799 -0.671378 1.0878e-16 -0.516767 -2.85643e-17 -2.36366e-34)
(0.484893 -0.470506 -1.65795e-16 -0.549983 3.45505e-17 1.52576e-33)
(0.573063 -0.329967 4.33865e-17 -0.660931 1.32501e-17 2.5213e-34)
(0.611212 -0.166693 -1.4279e-17 -0.704624 -1.87262e-17 0)
(0.733556 -0.0255912 -1.69743e-17 -0.823943 3.36441e-17 0)
(-3.08092 -2.36244 3.77584e-18 2.96985 5.51115e-18 0)
(-0.926161 -1.48079 5.69218e-17 0.813583 -2.18974e-18 -4.08094e-34)
(-0.445074 -1.48836 -4.0609e-17 0.373368 -9.53261e-18 1.56194e-33)
(0.00960581 -1.15388 -5.81135e-17 -0.117164 3.0938e-17 -8.42505e-36)
(0.255454 -0.964132 1.6658e-17 -0.296758 -1.16634e-17 -6.51926e-36)
(0.36119 -0.769558 1.67424e-17 -0.483242 -4.38908e-17 -1.83725e-34)
(0.502681 -0.552601 1.93168e-17 -0.524958 1.01098e-17 0)
(0.548049 -0.411412 -7.60592e-17 -0.656609 -2.35928e-17 3.6552e-34)
(0.606275 -0.224569 -1.55659e-16 -0.661056 3.07665e-17 -2.8879e-33)
(0.675533 -0.0766494 3.64237e-17 -0.749467 2.09488e-17 -5.54026e-34)
(0.68597 0.0714019 -3.61075e-17 -0.764572 8.17201e-18 -5.59435e-34)
(0.78845 0.226549 9.45055e-17 -0.8645 -6.54935e-18 1.0101e-33)
(-2.71334 -3.07642 2.1487e-17 2.6247 -1.27637e-18 -6.22607e-35)
(-0.715846 -1.5539 -2.99639e-17 0.626036 -5.844e-18 4.81857e-35)
(-0.249042 -1.39191 -6.44085e-17 0.191838 3.75977e-17 2.14679e-34)
(0.157827 -0.940239 1.50534e-16 -0.243489 -4.35644e-17 -8.26637e-34)
(0.369006 -0.704136 -1.45742e-16 -0.401924 4.37648e-17 3.81458e-34)
(0.456152 -0.488345 1.26538e-16 -0.553228 -9.34822e-18 -9.12125e-34)
(0.559162 -0.273799 7.04478e-17 -0.576894 -8.60546e-17 1.78307e-33)
(0.594271 -0.123577 -1.88538e-16 -0.680564 -8.28968e-18 -2.28802e-33)
(0.62379 0.0438327 -2.77087e-17 -0.667324 3.89997e-17 1.13185e-33)
(0.67532 0.196115 -3.20087e-18 -0.734055 9.5434e-19 4.443e-35)
(0.66814 0.324376 1.13838e-17 -0.730588 4.07194e-17 1.74372e-34)
(0.749283 0.490859 7.80019e-17 -0.809694 -1.65826e-17 -1.0101e-33)
(-2.1267 -3.70348 6.45999e-18 2.06201 1.2514e-17 0)
(-0.507406 -1.60322 2.40349e-17 0.441907 -7.30336e-18 -5.30358e-35)
(-0.118512 -1.28552 5.54067e-17 0.0767956 1.06722e-18 -1.62935e-34)
(0.203886 -0.730285 -1.17052e-16 -0.266182 2.66817e-17 9.84586e-34)
(0.366499 -0.453915 1.16047e-16 -0.390464 -1.17014e-17 -5.61703e-34)
(0.431624 -0.220977 -4.07781e-17 -0.50206 3.59044e-17 3.10774e-34)
(0.500754 -0.0112396 -8.28834e-17 -0.513635 -8.36787e-18 5.85134e-34)
(0.52567 0.145568 5.63377e-17 -0.588219 -1.20829e-17 5.66607e-34)
(0.53713 0.292911 6.18281e-17 -0.568672 3.02622e-17 7.90479e-34)
(0.572422 0.447407 5.28778e-17 -0.614953 5.62444e-18 -2.36534e-35)
(0.558021 0.555734 1.67975e-16 -0.603246 -2.48522e-17 -6.00502e-35)
(0.616716 0.73076 -8.40314e-17 -0.660456 -1.54285e-18 -3.8925e-35)
(-1.35729 -4.16944 6.67497e-18 1.31765 -1.74828e-18 0)
(-0.302264 -1.6331 -4.2684e-17 0.262198 1.40302e-17 5.04978e-35)
(-0.0451008 -1.19665 -4.94707e-17 0.0195849 -1.23441e-18 1.02033e-34)
(0.162131 -0.56417 6.37343e-17 -0.199994 -9.08416e-18 3.64193e-35)
(0.26468 -0.258088 -6.08611e-17 -0.279281 1.77639e-17 -1.59188e-35)
(0.305021 -0.01308 1.4708e-17 -0.34761 -1.60226e-17 0)
(0.344478 0.191874 -4.09157e-17 -0.352288 2.73903e-17 3.60105e-34)
(0.359346 0.352952 2.47899e-17 -0.397082 2.70247e-17 -1.88647e-34)
(0.362001 0.484037 -1.63279e-17 -0.381012 8.72753e-18 4.46623e-34)
(0.382468 0.639432 -2.53135e-18 -0.408069 2.18395e-17 7.86226e-34)
(0.369797 0.731799 -9.37378e-18 -0.397028 -2.87169e-17 -2.46393e-34)
(0.405275 0.91253 3.45575e-17 -0.4316 -2.89552e-17 -5.75985e-34)
(-0.466805 -4.41775 1.19707e-18 0.452924 -1.09044e-17 0)
(-0.099945 -1.647 4.27557e-18 0.0860141 -9.24494e-18 4.89121e-35)
(-0.0104217 -1.14646 -8.37599e-18 0.00155685 1.71845e-17 3.41199e-35)
(0.0612659 -0.472716 -1.10117e-17 -0.0740349 9.64959e-19 -7.96095e-36)
(0.0961717 -0.150875 3.93675e-17 -0.101148 -1.13379e-17 -1.73004e-36)
(0.109931 0.10037 -1.14382e-17 -0.123936 1.09045e-18 -9.87438e-36)
(0.122637 0.302433 9.61298e-18 -0.125234 3.30114e-18 -5.69652e-38)
(0.127588 0.465585 -1.83391e-17 -0.139858 5.60409e-18 1.88694e-34)
(0.127697 0.587631 2.54104e-17 -0.133848 -2.45164e-18 9.84054e-35)
(0.134345 0.743267 -1.25771e-17 -0.142575 2.13031e-18 1.82051e-34)
(0.129431 0.826807 -3.63123e-18 -0.138202 5.10149e-19 2.51196e-34)
(0.141242 1.01038 6.82314e-18 -0.1497 -9.25367e-18 -4.11732e-35)
(0.466057 -4.41786 2.3431e-18 -0.453953 7.9577e-18 -1.68521e-35)
(0.101257 -1.64686 2.12331e-17 -0.0888239 1.32069e-17 -2.558e-35)
(0.0105495 -1.14641 3.12071e-18 -0.00262134 4.38567e-18 -3.17793e-35)
(-0.0604467 -0.472636 -8.40632e-18 0.0729863 4.47387e-20 4.46542e-35)
(-0.095825 -0.150824 -9.72071e-18 0.100553 -7.58703e-18 -8.65832e-35)
(-0.109277 0.100423 9.59723e-18 0.124091 2.24905e-18 -1.54313e-35)
(-0.12228 0.302505 -7.5573e-18 0.124938 -9.56758e-18 -8.80665e-36)
(-0.127188 0.465605 -1.63939e-18 0.14059 -2.06032e-17 -1.28475e-34)
(-0.12742 0.58768 -9.63117e-18 0.134232 -4.14247e-18 -1.82932e-34)
(-0.134215 0.743259 -7.86832e-18 0.143496 9.31493e-18 -1.47322e-34)
(-0.129253 0.826819 -8.58009e-19 0.139091 1.52942e-17 -6.50802e-36)
(-0.141254 1.01038 -7.47773e-19 0.150804 -2.27702e-18 1.31544e-35)
(1.3567 -4.16972 1.31452e-17 -1.31877 -2.93524e-18 1.92097e-35)