/*--------------------------------*- C++ -*----------------------------------*\
| =========                 |                                                 |
| \\      /  F ield         | foam-extend: Open Source CFD                    |
|  \\    /   O peration     | Version:  3.0                                   |
|   \\  /    A nd           | Web:         http://www.extend-project.de       |
|    \\/     M anipulation  |                                                 |
\*---------------------------------------------------------------------------*/
FoamFile
{
    version     2.0;
    format      ascii;
    class       volSymmTensorField;
    location    "28";
    object      sigma;
}
// * * * * * * * * * * * * * * * * * * * * * * * * * * * * * * * * * * * * * //

dimensions      [0 0 0 0 0 0 0];

internalField   nonuniform List<symmTensor> 
672
(
(-0.1684626031 -0.01035029705 -1.22905651e-19 0.1684594377 -2.497058682e-20 3.165402645e-06)
(-0.1551695826 -0.01196112797 -2.840076319e-19 0.155161914 -1.500878025e-20 7.66860781e-06)
(-0.1364637188 -0.01180632494 -1.890468609e-19 0.136452349 -5.761491245e-21 1.136981964e-05)
(-0.11716048 -0.01097548857 -7.991748539e-20 0.1171458949 -7.866366838e-22 1.458510924e-05)
(-0.09898580743 -0.009920373187 -3.094729429e-19 0.09896829754 -3.413379278e-20 1.750989014e-05)
(-0.08246175451 -0.008839563345 -3.008795816e-19 0.08244158051 -1.469472363e-19 2.017399842e-05)
(-0.0677264195 -0.007820508836 -4.645101825e-19 0.06770390395 -1.542790667e-19 2.251554614e-05)
(-0.05480768439 -0.006912726645 -5.710493616e-19 0.05478343998 -4.114769709e-19 2.424441152e-05)
(-0.04369322329 -0.006135300502 -5.927116525e-19 0.0436683378 -2.722174171e-19 2.488549468e-05)
(-0.03449676798 -0.005518255739 -3.319319074e-19 0.03447323602 -1.305338246e-20 2.353195484e-05)
(-0.02731123938 -0.005073557245 -1.002924475e-19 0.02729237055 1.224977037e-19 1.88688275e-05)
(-0.02247568388 -0.004831926402 -3.093746413e-20 0.02246690131 -2.036130235e-19 8.782562989e-06)
(-0.1655646134 -0.0307896425 -1.017162838e-19 0.1655611698 7.834000416e-21 3.443552436e-06)
(-0.1503779495 -0.03523867627 -2.700812291e-19 0.1503695659 6.227409508e-20 8.383590788e-06)
(-0.1311265987 -0.03463226659 -2.204288924e-19 0.1311141592 1.465054215e-19 1.243949864e-05)
(-0.1118482109 -0.03210214209 -4.925518588e-20 0.1118322644 -4.956697372e-20 1.594641425e-05)
(-0.09393641228 -0.02894424996 -2.990543254e-19 0.09391732762 2.25920198e-20 1.908465367e-05)
(-0.07775855766 -0.02572610829 -2.965702287e-19 0.07773667804 -2.433820028e-19 2.18796189e-05)
(-0.06338134924 -0.02269662502 -5.526754362e-19 0.06335708934 -3.688591927e-19 2.425990458e-05)
(-0.05079046171 -0.01999614173 -8.916625924e-19 0.05076453601 -5.616831463e-19 2.592570487e-05)
(-0.03995657414 -0.01767824141 -4.912726614e-19 0.0399301799 -7.320380157e-20 2.639423704e-05)
(-0.03097147494 -0.01582856073 -1.053683224e-19 0.03094672344 -1.07929197e-19 2.47514986e-05)
(-0.02392121883 -0.01448128476 -3.314730762e-19 0.02390153879 -1.355304858e-19 1.968003274e-05)
(-0.01913132233 -0.01372376577 -1.555521394e-19 0.0191222493 -1.660990454e-19 9.07302725e-06)
(-0.1598919163 -0.05045922144 -3.11757617e-20 0.1598882321 -5.01764202e-20 3.684184014e-06)
(-0.1411741573 -0.0566796521 -2.081776417e-19 0.1411651585 1.373237114e-19 8.998805549e-06)
(-0.1209271497 -0.05524645242 -2.753043224e-19 0.1209137873 2.582194799e-19 1.336237302e-05)
(-0.1017234095 -0.05094221424 -2.23767984e-19 0.1017062981 7.84408297e-20 1.711138585e-05)
(-0.08433107164 -0.0457384038 -3.474384763e-19 0.08431065101 5.669993496e-20 2.042063058e-05)
(-0.06882676129 -0.0404916776 -6.917728968e-19 0.06880344999 -1.613689494e-19 2.331129759e-05)
(-0.05514316579 -0.03557510907 -1.005931237e-18 0.05511746197 -4.57651608e-20 2.570381603e-05)
(-0.04318683637 -0.03119758175 -9.402072549e-19 0.04315954625 -7.42708004e-20 2.729011843e-05)
(-0.03289665231 -0.02743810735 -3.314451505e-19 0.03286906928 1.129123348e-20 2.758302772e-05)
(-0.02432316807 -0.02442681816 -5.050208314e-19 0.02429749756 -2.555107917e-19 2.567051269e-05)
(-0.01753950467 -0.02221691443 -3.646716582e-19 0.01751925475 -2.429142888e-19 2.024992117e-05)
(-0.01284567276 -0.02094683478 -6.399627459e-20 0.01283642291 -1.768645186e-19 9.249847438e-06)
(-0.1516810648 -0.06890438365 5.317782073e-20 0.1516771839 -5.154422184e-20 3.880905777e-06)
(-0.1282756263 -0.07525996201 -2.532986486e-20 0.128266123 1.660864081e-19 9.503305759e-06)
(-0.1067605914 -0.07242802098 -1.895792799e-19 0.1067464731 2.654605586e-19 1.411825241e-05)
(-0.08772638077 -0.06623950462 -2.151601616e-19 0.08770831883 1.860416152e-19 1.806194702e-05)
(-0.07109613982 -0.0590817441 -2.609592164e-19 0.07107463869 -3.237287056e-20 2.15011333e-05)
(-0.05655474345 -0.05197777309 -4.748473491e-19 0.05653029244 1.095842827e-19 2.445100544e-05)
(-0.04385468094 -0.04536749191 -6.363668933e-19 0.04382785602 3.623534183e-19 2.68249209e-05)
(-0.03279631098 -0.03949407702 -1.292580676e-18 0.03276800018 3.37429106e-19 2.831079551e-05)
(-0.02327594463 -0.03444804232 -7.143516598e-19 0.02324752146 1.228231619e-19 2.842316624e-05)
(-0.0152884641 -0.03038691019 -8.872426019e-19 0.01526219975 6.070223958e-19 2.626434379e-05)
(-0.008889358441 -0.02737796713 -7.256977367e-19 0.008868795677 2.242859043e-19 2.056276328e-05)
(-0.004343369902 -0.02560218882 -1.868058903e-19 0.004334060115 2.763470916e-19 9.309786585e-06)
(-0.1412597212 -0.08575206264 -2.71636226e-21 0.141255693 1.396372815e-19 4.028202846e-06)
(-0.1126616626 -0.09023253147 6.442572112e-20 0.1126517753 2.283008809e-19 9.887250939e-06)
(-0.08984659903 -0.08530653882 -1.793165339e-19 0.08983190372 3.192858604e-19 1.469531161e-05)
(-0.07113715647 -0.07710806924 -3.148313819e-19 0.0711183721 1.60194636e-19 1.878436993e-05)
(-0.0554919553 -0.0681193034 -4.356093476e-19 0.05546964447 5.527343621e-21 2.231082579e-05)
(-0.04215063347 -0.05937804102 -3.546992495e-19 0.04212535051 2.454014454e-19 2.528296575e-05)
(-0.03066158783 -0.05132024758 -2.010541437e-19 0.03063397969 3.184736077e-19 2.760814351e-05)
(-0.02070528551 -0.04418116373 -1.01234845e-18 0.02067631132 4.659299907e-19 2.897419387e-05)
(-0.01213014919 -0.03804564408 -4.355934361e-19 0.01210124509 4.737649445e-19 2.89040962e-05)
(-0.004867538436 -0.03307746494 3.625179346e-19 0.004841013062 4.235614115e-19 2.652537415e-05)
(0.001047551365 -0.02935187818 -7.274978527e-19 -0.00106816643 4.546658364e-19 2.061506488e-05)
(0.005392374299 -0.02708172328 -2.092655827e-19 -0.005401625978 2.260634198e-19 9.251679279e-06)
(-0.1290173639 -0.1007313206 -3.005384816e-22 0.1290132398 1.778309822e-19 4.124086998e-06)
(-0.09546944138 -0.1011943381 9.5242237e-20 0.09545929564 3.038647538e-19 1.014574448e-05)
(-0.07159708278 -0.09344640014 4.704844159e-20 0.07158199594 2.386220353e-19 1.508684486e-05)
(-0.0534354916 -0.08312120476 -3.566038429e-19 0.05341622095 1.591249676e-19 1.927064496e-05)
(-0.03897423173 -0.07245011017 -2.309851995e-19 0.03895139077 -1.151812344e-19 2.284096472e-05)
(-0.02700886106 -0.06232269118 -2.900360414e-19 0.02698306253 2.3370748e-19 2.579852618e-05)
(-0.01688541966 -0.05309501307 3.887522915e-19 0.01685737411 3.603222887e-20 2.804554714e-05)
(-0.008166135002 -0.04494908976 -4.304403758e-19 0.00813686092 7.537641381e-20 2.927408209e-05)
(-0.0006524916781 -0.037945744 -9.565883245e-19 0.0006234700843 1.18294299e-19 2.902159374e-05)
(0.00578795766 -0.0322322452 -2.308656687e-19 -0.005814410395 4.522700861e-19 2.64527352e-05)
(0.01114145144 -0.0278851775 7.825139801e-19 -0.01116185897 3.184253071e-21 2.040753943e-05)
(0.01523048015 -0.02513751017 -3.728389169e-19 -0.01523955709 2.1865196e-20 9.076934493e-06)
(-0.1153713784 -0.1136833809 4.881823134e-20 0.1153672112 1.062656796e-19 4.167215494e-06)
(-0.0778741159 -0.1081155805 9.047884736e-20 0.07786384074 2.83978411e-19 1.027516508e-05)
(-0.05346383714 -0.09688301624 2.251817935e-19 0.05344854983 7.722497557e-20 1.528731142e-05)
(-0.03613959406 -0.0843493718 -1.901621713e-19 0.03612008018 -1.037973294e-19 1.951387632e-05)
(-0.02303439391 -0.07216448295 -7.17650666e-19 0.02301130989 -9.766114425e-20 2.308402014e-05)
(-0.01255645249 -0.06091421756 -4.711575823e-19 0.01253046203 1.525994245e-19 2.599046021e-05)
(-0.003877231407 -0.05080242585 -1.569298746e-19 0.00384910008 6.164818923e-21 2.813132737e-05)
(0.003542026064 -0.04191487477 2.660220348e-20 -0.003571232691 2.164692843e-19 2.92066266e-05)
(0.009939465896 -0.03427093234 -1.67547988e-19 -0.009968240711 4.472712757e-19 2.877481543e-05)
(0.01550392008 -0.027979598 -5.088182866e-20 -0.01552996819 2.968367448e-19 2.604811396e-05)
(0.0202414402 -0.02311235027 -4.597721956e-19 -0.02026138526 -1.966037093e-19 1.994505455e-05)
(0.02401940664 -0.01991067284 -5.733385793e-20 -0.02402819608 4.728185602e-19 8.789439252e-06)
(-0.1007322489 -0.124560307 2.3839407e-20 0.1007280917 1.157028386e-19 4.157234582e-06)
(-0.06096641272 -0.1113279267 1.167895916e-19 0.06095613881 1.894579485e-19 1.02739112e-05)
(-0.03678310455 -0.09610691395 1.02438009e-19 0.03676781054 4.21755129e-20 1.529401518e-05)
(-0.02064162311 -0.08134291498 -2.680351198e-20 0.0206221124 -7.738150808e-20 1.951071785e-05)
(-0.009036752456 -0.06782665239 -6.494155278e-19 0.009013715874 2.165142556e-19 2.303658147e-05)
(-9.629811259e-05 -0.05571045117 -7.204098992e-19 7.044200241e-05 2.366525723e-19 2.585611019e-05)
(0.007131573994 -0.04498581865 -7.852883482e-19 -0.007159438243 4.877053673e-19 2.786424924e-05)
(0.01325528683 -0.03560662351 -1.41075477e-19 -0.01328405961 4.440313385e-19 2.877277412e-05)
(0.01853957894 -0.0275364092 -2.617386729e-19 -0.01856774533 4.596118759e-19 2.816638814e-05)
(0.02321528339 -0.02082763311 -2.587614994e-19 -0.02324059883 7.127752659e-19 2.531544481e-05)
(0.02730487659 -0.0155411365 4.885391229e-19 -0.02732410662 5.345958808e-19 1.923003252e-05)
(0.03071699248 -0.01191652358 -1.742180331e-19 -0.03072538231 2.426065554e-19 8.389825933e-06)
(-0.08547158096 -0.1334127032 -5.806530131e-20 0.085467487 1.509623001e-19 4.093963143e-06)
(-0.04564133287 -0.1114733546 1.278777475e-19 0.04563119158 1.208053029e-19 1.014128924e-05)
(-0.02263439224 -0.09199766151 1.434795958e-19 0.02261928653 -2.47138836e-20 1.510570763e-05)
(-0.008058348029 -0.07506164714 -1.522736207e-19 0.008039088412 1.872689728e-19 1.925961723e-05)
(0.001929277551 -0.06040474315 6.354042208e-20 -0.001951974901 2.486963824e-19 2.269734937e-05)
(0.00933506018 -0.04765693352 -5.760824322e-19 -0.009360455217 3.929985181e-19 2.539503699e-05)
(0.01516457623 -0.03655664416 -3.188794785e-19 -0.01519182185 4.369266003e-19 2.724561984e-05)
(0.02005368024 -0.02690190689 -3.445877559e-19 -0.0200816564 6.018339681e-19 2.797616473e-05)
(0.0242762275 -0.01859087438 3.564553304e-19 -0.02430343087 9.571358838e-19 2.720337007e-05)
(0.02808523375 -0.01160682419 7.273056848e-19 -0.02810949849 3.982392675e-19 2.42647389e-05)
(0.03151465964 -0.00599590792 3.108438663e-19 -0.03153293426 -1.900572183e-19 1.827462557e-05)
(0.03450810917 -0.001987653155 3.357713594e-19 -0.03451599539 -5.178784005e-20 7.886215413e-06)
(-0.06989638766 -0.1403680508 -1.356276072e-19 0.06989240947 1.245417819e-19 3.978188875e-06)
(-0.03251031278 -0.109419492 -4.867462689e-20 0.03250043407 6.769830474e-20 9.878711783e-06)
(-0.01172928415 -0.08571519175 -2.861688277e-19 0.0117145599 1.548119059e-19 1.472424881e-05)
(0.0008863605888 -0.06675929938 -1.568147108e-19 -0.0009051236097 3.203806224e-19 1.87630209e-05)
(0.009165388175 -0.05115607393 -6.601813604e-21 -0.009187457867 3.824413262e-19 2.206969152e-05)
(0.01507921187 -0.03797625191 2.556693497e-19 -0.01510382401 3.1926443e-19 2.461214484e-05)
(0.01960666457 -0.02668893972 -1.610120565e-19 -0.0196329469 2.201798166e-19 2.628232246e-05)
(0.02336229268 -0.01692714394 9.828724081e-20 -0.02338911864 5.981195104e-19 2.682596467e-05)
(0.02660896387 -0.008520124959 8.248056762e-19 -0.02663486012 3.74053056e-19 2.589624802e-05)
(0.02959876887 -0.001376463521 8.505569054e-19 -0.0296216756 -4.078178353e-19 2.290672149e-05)
(0.03237124616 0.004474514787 -9.724057512e-20 -0.03238833322 -2.349801835e-19 1.708706037e-05)
(0.03489694517 0.008818693379 2.04965192e-19 -0.03490422703 -7.573683787e-20 7.281860391e-06)
(-0.05423230641 -0.1456023011 -9.438944882e-20 0.0542284953 5.065871678e-20 3.811108893e-06)
(-0.02184653819 -0.1061511281 -9.761508863e-20 0.02183704921 5.522566182e-20 9.488973966e-06)
(-0.004342597149 -0.07856083063 -1.612961385e-19 0.004328443469 1.759602594e-19 1.415368064e-05)
(0.005934118578 -0.05783591585 -2.674320231e-20 -0.005952144714 2.380346851e-19 1.802613569e-05)
(0.01243605727 -0.04148070852 -1.499135973e-19 -0.01245721753 3.738267164e-19 2.116025935e-05)
(0.0169247441 -0.02802682476 3.072333001e-19 -0.01694825993 2.548922336e-19 2.351582896e-05)
(0.02026947207 -0.01668469592 6.833318607e-20 -0.02029445716 2.253359665e-19 2.498509536e-05)
(0.02301342461 -0.006929311649 3.34832914e-19 -0.02303876012 2.956890688e-19 2.533551157e-05)
(0.02538786633 0.00147583096 4.023333396e-19 -0.02541212765 -6.904168127e-20 2.426131943e-05)
(0.02762009898 0.008694516312 4.28467888e-20 -0.02764135803 -2.77347636e-19 2.125904891e-05)
(0.0297490512 0.01471428011 -1.331929359e-19 -0.02976473477 -2.687983578e-20 1.568357305e-05)
(0.03176354233 0.01933852898 -1.663589737e-20 -0.03177012794 -2.462860914e-20 6.58561442e-06)
(-0.03861742282 -0.1493081028 7.017591619e-20 0.03861382791 -2.812638661e-20 3.59491608e-06)
(-0.01356938383 -0.1026502012 -7.95031768e-20 0.01356040675 -4.233406669e-22 8.977077251e-06)
(-0.0002934718425 -0.07182375304 -2.3389388e-19 0.0002800705891 1.235051151e-19 1.340125345e-05)
(0.007311651481 -0.04967483399 -2.797722173e-19 -0.007328709742 2.334442721e-19 1.705826115e-05)
(0.01198773366 -0.03275977654 -1.92911095e-19 -0.01200771408 3.568818579e-19 1.998041488e-05)
(0.01512552183 -0.01914702459 1.190169064e-19 -0.01514764162 2.258142856e-19 2.211978383e-05)
(0.01740862168 -0.007825294585 -2.970491073e-19 -0.01743199168 3.271517059e-19 2.337000003e-05)
(0.01926285601 0.001865605562 4.918361521e-19 -0.01928637918 2.892641303e-19 2.352317189e-05)
(0.02086896992 0.01021831857 3.049844471e-19 -0.02089128816 -1.171835264e-19 2.231824389e-05)
(0.02240746875 0.01745898937 -1.194719586e-19 -0.02242681036 -3.071508806e-19 1.934160094e-05)
(0.02391092754 0.02358997105 -6.493679391e-19 -0.02392500888 -2.584193916e-20 1.40813472e-05)
(0.02537822092 0.02843113689 1.593878039e-19 -0.02538402701 1.755517251e-21 5.806083758e-06)
(-0.02310714242 -0.1516633673 5.264817937e-20 0.02310381009 -2.398026542e-20 3.332327347e-06)
(-0.007269522315 -0.09977785988 -7.199021e-20 0.007261172794 -4.217431618e-21 8.349520837e-06)
(0.001021629758 -0.06663017841 -2.10013235e-19 -0.001034106281 1.014431618e-19 1.247652344e-05)
(0.005695377643 -0.04348263085 -1.818689156e-19 -0.005711249253 2.099821641e-19 1.587160938e-05)
(0.008513462796 -0.02619675212 -5.80032381e-20 -0.008532007789 2.955107418e-19 1.854499311e-05)
(0.01036640394 -0.01250218682 -1.604960322e-21 -0.0103868454 2.605008867e-19 2.044145914e-05)
(0.01169088779 -0.001225703486 -2.100507601e-20 -0.01171234514 3.073430067e-19 2.145734479e-05)
(0.01275842081 0.008391507573 2.270308651e-19 -0.0127798326 1.644387376e-19 2.14117817e-05)
(0.01368403469 0.01668298962 -8.858145854e-20 -0.01370412644 -7.924216638e-20 2.009175133e-05)
(0.01458372587 0.02392057681 -1.955954614e-19 -0.01460090418 -1.90129893e-19 1.717830851e-05)
(0.01547906547 0.03011760203 -5.326075642e-19 -0.01549136507 -3.916717352e-20 1.229960515e-05)
(0.0163722843 0.03510657598 -3.875598233e-20 -0.01637723639 -1.941468738e-20 4.952096143e-06)
(-0.007689313393 -0.1528038391 4.746686898e-20 0.007686286573 -9.505330094e-21 3.026820258e-06)
(-0.002271696647 -0.09817192579 -5.742766662e-20 0.002264082087 1.073276702e-20 7.614560274e-06)
(0.0005478856991 -0.06381232175 -2.066570906e-19 -0.0005592772802 8.143507005e-20 1.139158113e-05)
(0.002125040338 -0.04015005057 -7.618317065e-20 -0.002139521939 1.682402432e-19 1.448160111e-05)
(0.003067027317 -0.02267956355 -9.133199874e-20 -0.003083899783 2.49239142e-19 1.687246558e-05)
(0.003680308148 -0.008951699397 -1.580851096e-20 -0.003698810451 2.554069656e-19 1.850230235e-05)
(0.004115024332 0.002292171576 2.693293139e-21 -0.004134295599 2.681679608e-19 1.927126672e-05)
(0.004464450715 0.01186282348 -7.864380561e-20 -0.004483478609 1.623193338e-19 1.902789387e-05)
(0.004768088581 0.02011532524 -1.884059889e-19 -0.004785698393 -1.447552001e-20 1.760981147e-05)
(0.005065949301 0.02734563219 -3.201587971e-19 -0.005080746387 -1.159200299e-19 1.479708638e-05)
(0.005365593063 0.0335728919 -3.697358966e-19 -0.005375955494 -3.932453254e-20 1.036243096e-05)
(0.005668245037 0.03863639228 -1.118655229e-19 -0.005672281022 -3.172531305e-20 4.03598591e-06)
(0.007692365431 -0.1528028245 4.473122589e-20 -0.007695047811 5.652998337e-21 2.682380912e-06)
(0.002272115237 -0.09817134234 -3.617553114e-20 -0.002278897021 2.827443422e-20 6.781783369e-06)
(-0.0005477088029 -0.06381185458 -1.862137241e-19 0.0005375482374 6.023631247e-20 1.016056555e-05)
(-0.002123774144 -0.04014957335 6.27360652e-21 0.002110867874 1.300907931e-19 1.290627031e-05)
(-0.003063670297 -0.02267903475 -5.052769271e-20 0.003048685823 2.115577432e-19 1.498447392e-05)
(-0.003673981422 -0.00895112616 -2.129087772e-20 0.003657654122 2.301055501e-19 1.632729947e-05)
(-0.004104816366 0.002292751027 -3.323111758e-20 0.004087976413 2.627091727e-19 1.683995313e-05)
(-0.004449390745 0.01186333973 -1.603069902e-19 0.004432988683 1.854666101e-19 1.640206208e-05)
(-0.004747125653 0.02011567688 -3.409253105e-19 0.004732221697 2.070843066e-20 1.490395575e-05)
(-0.005037950341 0.02734567705 -4.043081107e-19 0.00502572298 -6.75712722e-20 1.222736127e-05)
(-0.005329351516 0.0335724414 -2.580522116e-19 0.005321058798 -9.907835109e-21 8.292718289e-06)
(-0.005622575897 0.03863510421 -1.677056211e-19 0.005619508103 -5.435533281e-20 3.067794369e-06)
(0.02310956074 -0.1516604391 5.490419543e-20 -0.02311186422 1.539032115e-20 2.303479301e-06)
(0.007269804297 -0.0997761396 -3.938868571e-21 -0.007275666293 3.560666799e-20 5.861995719e-06)
(-0.001021318842 -0.06662875991 -1.255305852e-19 0.001012519463 4.848362306e-20 8.799379261e-06)
(-0.005693801853 -0.04348115008 4.030322495e-20 0.005682635978 9.293731452e-20 1.116587501e-05)
(-0.008509654387 -0.02619508864 5.422765995e-20 0.00849674927 1.820540536e-19 1.290511716e-05)
(-0.01035948274 -0.0125003598 6.828074943e-21 0.0103455387 1.92611934e-19 1.394404787e-05)
(-0.01167991718 -0.001223821007 9.171424214e-20 0.01166572317 2.706251195e-19 1.41940176e-05)
(-0.01274238212 0.008393248312 -3.87499429e-19 0.01272881475 2.014608777e-19 1.356736466e-05)
(-0.01366180471 0.01668429997 -4.168782102e-19 0.01364979622 2.713532397e-20 1.200849739e-05)
(-0.01455406896 0.02392105183 -3.104298298e-19 0.0145445666 -2.109652415e-20 9.502355788e-06)
(-0.01544063687 0.03011670468 -2.008895446e-19 0.01543451886 5.647844227e-20 6.118012915e-06)
(-0.01632363487 0.03510333221 -3.453168173e-19 0.01632157385 -8.910470656e-20 2.061014661e-06)
(0.03861864785 -0.1493035884 6.263639534e-20 -0.0386205429 1.093431227e-20 1.895056908e-06)
(0.01356940884 -0.1026474297 3.84049634e-20 -0.01357427599 1.400024247e-20 4.867142892e-06)
(0.0002940336549 -0.0718213339 4.082204487e-20 -0.0003013593378 6.040920236e-20 7.325682968e-06)
(-0.007309497059 -0.04967220838 -5.112487066e-20 0.007300214119 5.633027918e-20 9.282940281e-06)
(-0.01198308365 -0.03275675698 1.44476988e-19 0.01197242236 1.50131038e-19 1.066129201e-05)
(-0.01511749485 -0.01914363605 -9.272293592e-20 0.01510611153 1.532693637e-19 1.138332043e-05)
(-0.01739623535 -0.007821695691 -6.203557456e-20 0.01738486774 2.459037906e-19 1.136761325e-05)
(-0.01924500319 0.001869121713 -4.699916963e-19 0.01923444299 1.767829901e-19 1.056020508e-05)
(-0.0208443935 0.01022132164 -2.15296817e-19 0.02083543319 7.737645528e-20 8.960306025e-06)
(-0.02237474233 0.01746087404 -4.446351852e-19 0.02236808602 9.544173243e-20 6.656317968e-06)
(-0.02386844867 0.0235899336 -2.945201585e-19 0.02386458348 8.866949944e-20 3.865182637e-06)
(-0.02532404581 0.0284277199 -3.236072781e-19 0.02532301806 -1.165508015e-19 1.027744022e-06)
(0.05423192143 -0.1455967089 -5.425530184e-20 -0.05423338375 -5.970351261e-20 1.462312815e-06)
(0.02184621766 -0.1061474399 1.042712194e-19 -0.02185002759 -5.681624261e-20 3.80993305e-06)
(0.004343495328 -0.07855733844 1.720342007e-19 -0.00434925358 3.162219058e-20 5.758251306e-06)
(-0.005931192192 -0.05783193234 9.852991787e-20 0.005923910806 4.460845275e-20 7.281386108e-06)
(-0.01243029014 -0.04147599757 1.707806332e-19 0.01242200878 7.037055489e-20 8.281355553e-06)
(-0.01691525636 -0.0280214074 2.571914221e-20 0.01690657901 -4.815477264e-20 8.677357332e-06)
(-0.02025522318 -0.01667875177 5.082954932e-19 0.02024682699 1.546788502e-19 8.396190356e-06)
(-0.02299319208 -0.006923180544 -1.039154842e-19 0.02298577375 3.47044528e-19 7.418323081e-06)
(-0.0253602169 0.001481646891 -2.261766452e-19 0.02535441912 1.576425623e-19 5.797776882e-06)
(-0.02758335411 0.008699307127 -1.323243189e-19 0.02757962887 1.878771433e-19 3.725240103e-06)
(-0.02970126697 0.01471710136 -8.962125296e-20 0.02969970416 2.710366552e-19 1.562807985e-06)
(-0.03170211607 0.01933766933 -3.796954019e-19 0.03170213492 -7.683482928e-20 -1.885762402e-08)
(0.06989416576 -0.1403620079 -1.091186133e-19 -0.06989517661 -1.194562294e-19 1.010853055e-06)
(0.03250959976 -0.1094150564 8.995833314e-20 -0.03251230375 -1.524381015e-19 2.703988294e-06)
(0.01173056041 -0.08571054269 2.325207067e-19 -0.01173467768 -6.9749258e-21 4.117269381e-06)
(-0.0008825725124 -0.06675370301 1.001787712e-19 0.0008773855532 5.102276849e-20 5.186959204e-06)
(-0.009158384659 -0.05114926817 -1.702949996e-20 0.009152588715 7.045870364e-21 5.795943702e-06)
(-0.01506812078 -0.03796824205 -3.812030367e-20 0.01506225981 -2.308871923e-19 5.860970916e-06)
(-0.01959038596 -0.0266798898 4.774044046e-19 0.01958506799 -1.278949027e-19 5.317971071e-06)
(-0.02333948048 -0.01691738006 2.241160723e-19 0.02333529844 2.673654435e-19 4.18203734e-06)
(-0.02657799327 -0.008510134724 -1.111380911e-19 0.0265754319 -2.104356124e-20 2.561368156e-06)
(-0.02955768484 -0.001366942953 4.322071402e-19 0.02955693823 -1.577797574e-19 7.46604748e-07)
(-0.03231772793 0.004482636472 3.675587547e-19 0.0323184875 4.138064711e-19 -7.595608206e-07)
(-0.03482765463 0.008823734607 -1.044634949e-19 0.03482871985 9.918093656e-20 -1.065224318e-06)
(0.08546751807 -0.1334068889 2.992859818e-20 -0.08546806443 -8.530165238e-20 5.463627469e-07)
(0.0456402301 -0.1114683606 1.059118394e-19 -0.0456417934 -2.310697682e-19 1.563305693e-06)
(0.02263603949 -0.09199177631 3.929770975e-19 -0.02263846297 -6.549046758e-20 2.423478956e-06)
(0.008062969735 -0.07505417868 1.602621769e-19 -0.008065995829 5.156025484e-20 3.026094584e-06)
(-0.001921096838 -0.0603954281 4.770288619e-20 0.001917860515 -5.30013063e-20 3.236322097e-06)
(-0.009322466364 -0.04764574872 -7.040404412e-20 0.009319496837 -2.82483215e-19 2.969526461e-06)
(-0.01514642153 -0.03654369896 2.939252176e-19 0.01514424999 -5.002610189e-19 2.17153501e-06)
(-0.02002850828 -0.0268874485 3.690926851e-19 0.02002761638 3.537467257e-20 8.919040807e-07)
(-0.02424223707 -0.01857528296 -4.488724213e-20 0.02424294544 3.502185106e-19 -7.083752181e-07)
(-0.02804021073 -0.01159065469 -2.297068844e-19 0.02804245315 -1.916984518e-19 -2.242418637e-06)
(-0.03145592608 -0.005979907184 5.176243883e-19 0.03145899929 -1.854484241e-19 -3.07321409e-06)
(-0.03443161617 -0.001973168914 -3.289056245e-19 0.03443371484 8.351569419e-20 -2.098673311e-06)
(0.100726563 -0.1245553745 -3.248550189e-21 -0.1007266378 -1.579918784e-19 7.482346551e-08)
(0.06096497171 -0.1113225654 1.001962329e-19 -0.06096537421 -2.694898258e-19 4.024955473e-07)
(0.03678506483 -0.09609973419 2.097803893e-19 -0.0367857634 -2.871537574e-19 6.985670928e-07)
(0.02064692978 -0.08133335121 2.048010851e-19 -0.02064775623 1.837547526e-20 8.264435978e-07)
(0.009045869311 -0.06781446375 -2.878861728e-19 -0.009046504586 -1.000069065e-21 6.352745608e-07)
(0.0001100470394 -0.05569557417 -1.20904222e-19 -0.0001100870795 -1.282941515e-19 4.004008019e-08)
(-0.007112021914 -0.0449682708 -3.652787921e-19 0.007113024752 -5.549139466e-19 -1.002838429e-06)
(-0.01322839952 -0.03558651121 2.839323973e-19 0.01323080952 -5.415041441e-19 -2.410006022e-06)
(-0.01850342481 -0.02751391692 5.681138216e-19 0.01850739446 -1.752925408e-19 -3.969650802e-06)
(-0.02316744962 -0.02080305358 6.034518926e-19 0.02317265313 2.987794936e-19 -5.203506715e-06)
(-0.02724240481 -0.01551487476 -3.098661608e-19 0.02724775307 2.974705296e-19 -5.348262703e-06)
(-0.03063525269 -0.01188930304 2.603831453e-19 0.03063835832 1.054819985e-19 -3.105623454e-06)
(0.1153644926 -0.113679885 -4.916924678e-20 -0.1153640947 -2.35730796e-19 -3.978516338e-07)
(0.07787243398 -0.1081100285 8.528385698e-20 -0.07787167017 -2.710373189e-19 -7.63808774e-07)
(0.05346600802 -0.09687451994 -3.206957977e-20 -0.05346497229 -3.960733887e-19 -1.035728071e-06)
(0.03614532951 -0.08433756375 8.614456676e-20 -0.03614394523 -3.623440944e-19 -1.384282342e-06)
(0.02304404318 -0.07214916519 3.393542776e-19 -0.0230420687 1.285928222e-19 -1.974485403e-06)
(0.01257078745 -0.06089527673 1.04481525e-19 -0.0125678968 1.784966398e-19 -2.890651437e-06)
(0.003897410606 -0.050779757 7.422201787e-20 -0.003893245348 1.01971361e-20 -4.165257268e-06)
(-0.003514448993 -0.04188839207 4.115719152e-19 0.003520131173 -4.016241425e-19 -5.682179533e-06)
(-0.009902503113 -0.03424055106 6.188769263e-19 0.009909684599 -1.549812887e-20 -7.181486782e-06)
(-0.01545505893 -0.02794524784 6.099303707e-19 0.01546315849 1.072855181e-19 -8.099558573e-06)
(-0.02017756889 -0.02307396155 9.218703012e-19 0.02018512526 -7.63961729e-20 -7.556372346e-06)
(-0.02393553478 -0.01986810274 2.056351264e-19 0.02393960848 4.313783842e-19 -4.073701937e-06)
(0.129009858 -0.1007296553 -1.609201684e-20 -0.1290089924 -1.765514408e-19 -8.656037175e-07)
(0.09546765018 -0.101188743 3.755519639e-21 -0.09546572945 -3.054264629e-19 -1.920731017e-06)
(0.07159932633 -0.09343661491 -1.398841464e-19 -0.07159656903 -4.564275492e-19 -2.757295627e-06)
(0.05344131576 -0.08310711017 1.237295022e-20 -0.05343773785 -5.864947692e-19 -3.577913866e-06)
(0.03898388346 -0.07243156587 6.216341409e-19 -0.03897932377 -4.151034715e-19 -4.559689414e-06)
(0.02702304216 -0.06229952798 4.541572325e-19 -0.02701725694 1.452140309e-19 -5.785218027e-06)
(0.01690523148 -0.05306698312 4.958040071e-19 -0.01689795603 8.617300484e-21 -7.275453253e-06)
(0.008193084132 -0.04491588034 4.692216497e-19 -0.00818420113 -2.38545694e-19 -8.883001967e-06)
(0.0006885271569 -0.03790695165 1.330752564e-18 -0.0006782241107 -4.187007195e-19 -1.030304619e-05)
(-0.005740351438 -0.03218736857 9.88218982e-19 0.00575124517 1.256379083e-19 -1.089373156e-05)
(-0.011079175 -0.02783358254 -5.002051954e-19 0.01108884439 -3.942828764e-19 -9.669397045e-06)
(-0.0151484774 -0.02507802426 2.176832193e-19 0.0151534679 -3.324413415e-20 -4.990497484e-06)
(0.1412522722 -0.08575241617 1.882966442e-20 -0.1412509496 7.619887263e-21 -1.322573293e-06)
(0.1126599149 -0.0902270009 -1.595352023e-19 -0.1126568612 -1.747307576e-19 -3.053706894e-06)
(0.08984875668 -0.08529554978 -3.112361941e-19 -0.08984431222 -4.038211878e-19 -4.444453677e-06)
(0.07114268007 -0.07709177399 1.032873946e-19 -0.07113695325 -4.422158901e-19 -5.726811962e-06)
(0.05550100622 -0.06809762695 2.15844385e-19 -0.05549391844 -9.166386809e-19 -7.087776199e-06)
(0.0421638222 -0.05935075694 7.0187313e-19 -0.04215521503 -3.739708098e-19 -8.607173478e-06)
(0.03067990962 -0.05128695773 1.647706603e-21 -0.03066961541 -4.5225711e-19 -1.029420853e-05)
(0.02073012308 -0.04414131506 6.988493004e-19 -0.02071815102 -3.838023869e-19 -1.197206251e-05)
(0.01216330546 -0.0379984949 4.410114412e-19 -0.01215001055 -7.329563808e-19 -1.329490305e-05)
(0.004911324003 -0.03302205596 -6.689647743e-19 -0.004897773295 -8.227307384e-19 -1.355070867e-05)
(-0.0009902392072 -0.02928697486 -6.92130814e-19 0.001001899816 -3.789457611e-19 -1.166060864e-05)
(-0.005316750806 -0.02700505779 9.803952754e-21 0.005322595216 -4.122997307e-19 -5.844409942e-06)
(0.1516743696 -0.06890671745 2.072498512e-20 -0.1516726066 1.505619357e-19 -1.762923035e-06)
(0.1282740781 -0.07525455775 -1.587389762e-19 -0.1282699298 -4.482206744e-20 -4.14832921e-06)
(0.1067624992 -0.07241597363 -1.034620231e-19 -0.1067564235 -1.626805036e-19 -6.075763345e-06)
(0.08773120487 -0.06622123151 -6.091831702e-20 -0.08772340118 -4.060371624e-19 -7.803688634e-06)
(0.071103974 -0.05905723578 -8.918145077e-21 -0.07109444736 -6.329856084e-19 -9.52664473e-06)
(0.0565660866 -0.0519467495 1.545471654e-19 -0.05655476588 -8.390243656e-19 -1.132071415e-05)
(0.04387037306 -0.04532941161 1.857269371e-20 -0.04385718983 -7.860092831e-19 -1.31832356e-05)
(0.03281753336 -0.03944815652 3.672655203e-19 -0.03280262314 -4.022727479e-19 -1.49102167e-05)
(0.02330424525 -0.03439321546 -5.848252462e-19 -0.0232881261 -5.022508339e-19 -1.611914803e-05)
(0.01532583194 -0.03032177769 -9.544631287e-19 -0.01530979509 -5.297815464e-19 -1.603684176e-05)
(0.00893829657 -0.02730071723 -2.395026605e-19 -0.008924791762 -5.67694438e-19 -1.350480782e-05)
(0.004408047863 -0.02550950101 1.178181928e-19 -0.004401423222 1.066010005e-21 -6.62464088e-06)
(0.1598866173 -0.05046327337 -5.696513243e-20 -0.1598844361 8.615760448e-20 -2.181141394e-06)
(0.1411729507 -0.05667439049 -2.871629866e-19 -0.1411677598 -3.341886544e-20 -5.190832107e-06)
(0.120928656 -0.05523355015 -3.196221888e-19 -0.1209210253 -1.746380653e-19 -7.630690068e-06)
(0.1017271675 -0.05092231782 -2.644938781e-19 -0.1017173851 -3.145392779e-19 -9.782379371e-06)
(0.0843371254 -0.04571156179 -1.195739853e-20 -0.08432527984 -3.091023804e-19 -1.184556016e-05)
(0.06883547965 -0.04045756521 -1.99682399e-19 -0.06882158804 -5.575303922e-19 -1.389161577e-05)
(0.05515518904 -0.03553306249 -1.517676647e-19 -0.05513928295 -5.398824395e-19 -1.590608854e-05)