/*--------------------------------*- C++ -*----------------------------------*\
| =========                 |                                                 |
| \\      /  F ield         | foam-extend: Open Source CFD                    |
|  \\    /   O peration     | Version:  3.0                                   |
|   \\  /    A nd           | Web:         http://www.extend-project.de       |
|    \\/     M anipulation  |                                                 |
\*---------------------------------------------------------------------------*/
FoamFile
{
    version     2.0;
    format      ascii;
    class       volVectorField;
    location    "23";
    object      s;
}
// * * * * * * * * * * * * * * * * * * * * * * * * * * * * * * * * * * * * * //

dimensions      [0 1 -1 0 0 0 0];

internalField   nonuniform List<vector> 
3012
(
(-2.247 0.121493 0)
(-1.84843 -0.252144 0)
(-2.60027 0.161541 0)
(-1.74771 0.120824 0)
(-3.13206 0.349343 0)
(-2.18918 0.217827 0)
(-3.04142 -0.316777 0)
(-2.88068 0.098276 0)
(-2.01703 0.229349 0)
(-2.22541 -0.400906 0)
(-1.90805 -0.0811341 0)
(-2.23954 0.447674 0)
(-1.28846 -0.137456 0)
(-2.01471 0.075261 0)
(-2.26576 0.0637146 0)
(-1.22852 0.11036 0)
(-3.11727 0.302201 0)
(-2.20791 0.267884 0)
(-2.96831 -0.344418 0)
(-2.89113 0.0929861 0)
(-1.2747 0.41861 0)
(-1.68261 -0.223724 0)
(-1.89488 -0.354657 0)
(-1.22709 0.29701 0)
(-2.68731 0.0287576 0)
(-1.982 -0.14507 0)
(-1.94488 0.259487 0)
(-2.27716 0.044634 0)
(-1.88378 0.32852 0)
(-2.0775 0.411902 0)
(-1.38192 -0.171686 0)
(-1.56169 -0.444973 0)
(-1.31906 -0.150441 0)
(-2.09677 0.371594 0)
(-1.89885 0.304524 0)
(-1.47845 -0.417301 0)
(-2.10407 -0.193845 0)
(-2.73742 0.0479912 0)
(-2.29662 0.0476949 0)
(-2.05563 0.2432 0)
(-1.17721 -0.120993 0)
(-2.17586 0.0590951 0)
(-1.11715 0.104849 0)
(-1.94647 0.0710328 0)
(-1.30144 -0.109826 0)
(-1.44357 -0.376821 0)
(-1.93854 0.27268 0)
(-2.1503 0.327635 0)
(-1.28425 -0.374512 0)
(-2.0268 0.325914 0)
(-1.84251 0.285665 0)
(-1.15604 -0.136505 0)
(-2.23273 0.119456 0)
(-1.78097 -0.236911 0)
(-1.68491 0.123214 0)
(-2.57395 0.151179 0)
(-2.7294 -0.329003 0)
(-2.28136 0.443168 0)
(-3.07195 0.232302 0)
(-2.90327 0.0833635 0)
(-2.71874 -0.358521 0)
(-2.2606 0.360158 0)
(-3.01792 0.256753 0)
(-2.92692 0.0423733 0)
(-1.3149 -0.0883686 0)
(-2.03108 0.0300892 0)
(-2.29384 0.00169694 0)
(-1.27079 0.157237 0)
(-2.14191 -0.151207 0)
(-1.19128 0.267326 0)
(-1.20532 0.083359 0)
(-1.90617 -0.0863314 0)
(-1.79166 0.462698 0)
(-1.5813 -0.494766 0)
(-1.37603 -0.2457 0)
(-1.65086 0.368434 0)
(-1.70323 0.352377 0)
(-1.85402 0.422935 0)
(-1.42775 -0.475443 0)
(-1.25133 -0.234176 0)
(-1.40392 -0.0840855 0)
(-2.07956 0.0232116 0)
(-1.36475 0.179749 0)
(-2.36299 -0.00946797 0)
(-2.12077 -0.0410946 0)
(-1.09843 0.187288 0)
(-1.13779 -0.00808456 0)
(-1.89673 -0.00673033 0)
(-1.22335 -0.186389 0)
(-2.00068 0.384015 0)
(-1.82288 0.324882 0)
(-1.37704 -0.434735 0)
(-2.27807 -0.395894 0)
(-2.02044 0.218223 0)
(-1.94451 -0.0768241 0)
(-2.24253 0.452367 0)
(-2.2226 0.0117713 0)
(-2.30866 0.35966 0)
(-2.15739 -0.0359401 0)
(-2.69742 -0.196058 0)
(-2.11737 -0.167485 0)
(-1.171 0.276294 0)
(-1.1834 0.0995793 0)
(-1.88669 -0.0999701 0)
(-1.75293 0.468727 0)
(-1.36521 -0.253483 0)
(-1.57244 -0.499761 0)
(-1.61823 0.374741 0)
(-1.81355 -0.399637 0)
(-1.25268 0.321589 0)
(-1.61155 -0.251651 0)
(-1.31615 0.436121 0)
(-1.96958 0.220075 0)
(-2.19406 0.254288 0)
(-1.36457 -0.31617 0)
(-1.25054 -0.0529889 0)
(-1.53129 -0.501114 0)
(-1.34146 -0.280656 0)
(-1.52035 0.502179 0)
(-1.41269 0.399584 0)
(-1.76834 -0.181761 0)
(-1.09031 0.207123 0)
(-1.09047 0.315033 0)
(-1.96545 -0.266944 0)
(-2.50096 -0.209759 0)
(-2.33294 0.00226665 0)
(-2.803 0.145571 0)
(-2.30993 0.314568 0)
(-3.06496 0.0417014 0)
(-2.68162 0.674494 0)
(-3.00006 0.0573277 0)
(-2.43824 -0.30766 0)
(-2.57608 -0.213712 0)
(-2.32231 0.00366737 0)
(-2.41592 0.351018 0)
(-2.84612 0.119363 0)
(-3.07103 0.0688181 0)
(-3.05019 0.086905 0)
(-2.60876 0.685815 0)
(-2.49204 -0.363488 0)
(-2.68073 0.0666395 0)
(-1.87056 0.225795 0)
(-2.27461 0.0615494 0)
(-1.92994 -0.175621 0)
(-3.00819 0.186033 0)
(-2.42688 0.490427 0)
(-2.55193 -0.314034 0)
(-2.95662 -0.00981241 0)
(-2.94268 0.209636 0)
(-2.38207 0.484798 0)
(-2.47168 -0.231701 0)
(-2.86012 -0.0507803 0)
(-1.07427 -0.0907442 0)
(-1.83366 0.240575 0)
(-1.1764 -0.314926 0)
(-2.02584 0.266991 0)
(-1.32593 -0.390985 0)
(-2.03989 0.346014 0)
(-1.85301 0.298492 0)
(-1.18861 -0.146357 0)
(-1.75699 -0.424968 0)
(-1.55947 -0.262249 0)
(-1.36349 0.456136 0)
(-1.28879 0.343847 0)
(-2.31269 0.0492159 0)
(-2.37809 -0.196643 0)
(-2.81587 0.027093 0)
(-2.36314 0.293879 0)
(-1.3315 -0.167661 0)
(-2.0719 0.392368 0)
(-1.87955 0.31959 0)
(-1.49975 -0.435278 0)
(-2.88061 0.293881 0)
(-2.80386 -0.0905768 0)
(-2.48629 -0.198629 0)
(-2.25254 0.347201 0)
(-2.4228 -0.0778469 0)
(-2.84819 0.274643 0)
(-2.33834 0.321846 0)
(-2.73867 -0.171757 0)
(-2.30018 0.0526897 0)
(-2.40198 -0.230015 0)
(-2.82663 0.0482383 0)
(-2.36437 0.298131 0)
(-1.6192 0.453174 0)
(-1.85865 -0.201445 0)
(-1.53181 0.265546 0)
(-2.13955 -0.381082 0)
(-1.58438 0.299367 0)
(-2.06684 -0.425844 0)
(-1.69419 0.473136 0)
(-1.79602 -0.219137 0)
(-1.79555 -0.413389 0)
(-1.5927 -0.256124 0)
(-1.35352 0.453568 0)
(-1.2826 0.337671 0)
(-1.66471 -0.442169 0)
(-2.14134 0.412272 0)
(-1.93301 0.316024 0)
(-1.4747 -0.152921 0)
(-1.30455 -0.0621669 0)
(-2.01654 0.0143229 0)
(-1.26565 0.174886 0)
(-2.27577 -0.0197281 0)
(-1.31651 -0.159258 0)
(-2.27988 0.0865318 0)
(-2.02631 0.0914906 0)
(-1.24974 0.0947908 0)
(-1.10972 -0.257319 0)
(-2.01668 0.205632 0)
(-1.03009 -0.0408425 0)
(-1.82212 0.189172 0)
(-1.10806 0.221536 0)
(-1.76926 -0.180489 0)
(-1.97488 -0.269148 0)
(-1.11072 0.342931 0)
(-2.35899 -0.0383966 0)
(-1.37349 0.203265 0)
(-1.40395 -0.0537025 0)
(-2.07355 0.00348101 0)
(-1.56229 -0.514884 0)
(-1.41783 0.396339 0)
(-1.37009 -0.293534 0)
(-1.52557 0.500042 0)
(-1.38575 -0.182418 0)
(-1.85416 0.33292 0)
(-1.56881 -0.451992 0)
(-2.03884 0.418585 0)
(-1.15782 0.215001 0)
(-1.7749 -0.172184 0)
(-1.1698 0.342991 0)
(-1.98493 -0.267609 0)
(-1.41214 -0.274842 0)
(-1.55092 0.482893 0)
(-1.44215 0.378923 0)
(-1.60761 -0.494419 0)
(-2.10786 0.426417 0)
(-1.68862 -0.451861 0)
(-1.4898 -0.165103 0)
(-1.90758 0.324566 0)
(-1.27942 0.412975 0)
(-1.71332 -0.213998 0)
(-1.93017 -0.343149 0)
(-1.23463 0.284986 0)
(-1.25947 0.31338 0)
(-1.86479 -0.381056 0)
(-1.31867 0.434887 0)
(-1.65434 -0.237743 0)
(-1.66198 0.457841 0)
(-1.86558 -0.198592 0)
(-1.56744 0.266726 0)
(-2.15047 -0.386405 0)
(-1.59846 0.284255 0)
(-1.70672 0.467579 0)
(-2.11385 -0.414749 0)
(-1.83345 -0.210552 0)
(-2.55924 -0.295292 0)
(-2.00593 0.102598 0)
(-2.13077 -0.0561361 0)
(-2.16679 0.438581 0)
(-1.15404 -0.202548 0)
(-1.75372 0.332592 0)
(-1.30064 -0.435438 0)
(-1.91188 0.38499 0)
(-1.09953 -0.105086 0)
(-2.09275 0.0570488 0)
(-1.04245 0.102018 0)
(-1.88182 0.0680704 0)
(-1.75859 0.462707 0)
(-1.64412 0.267482 0)
(-1.86421 -0.197135 0)
(-2.15817 -0.406514 0)
(-1.21484 -0.122413 0)
(-2.19118 0.0612925 0)
(-1.15385 0.106143 0)
(-1.95805 0.0730949 0)
(-1.28283 -0.110731 0)
(-2.01276 0.0546921 0)
(-2.26605 0.0371445 0)
(-1.22852 0.131497 0)
(-2.2714 0.079229 0)
(-1.899 -0.235541 0)
(-1.8218 0.1626 0)
(-2.65524 0.0987413 0)
(-1.06059 -0.0758433 0)
(-2.02773 0.250183 0)
(-1.83283 0.225621 0)
(-1.15588 -0.297092 0)
(-2.76344 -0.190078 0)
(-2.28665 0.00682252 0)
(-2.69303 0.40004 0)
(-2.86515 0.0402074 0)
(-2.89538 -0.224379 0)
(-2.8625 0.397757 0)
(-2.27249 0.0480359 0)
(-2.894 0.0460831 0)
(-1.2673 -0.11143 0)
(-1.93068 0.270628 0)
(-1.40428 -0.374802 0)
(-2.14013 0.32109 0)
(-1.80778 0.47314 0)
(-1.68486 0.276323 0)
(-1.86099 -0.192584 0)
(-2.15754 -0.411538 0)
(-1.35388 -0.330489 0)
(-1.94568 0.240131 0)
(-2.16267 0.279317 0)
(-1.23377 -0.0722078 0)
(-2.2642 0.077817 0)
(-1.9058 -0.204462 0)
(-1.83154 0.184675 0)
(-2.64922 0.0985666 0)
(-2.56187 -0.271505 0)
(-1.97106 0.0799566 0)
(-2.13736 -0.0654784 0)
(-2.10361 0.410859 0)
(-1.89345 -0.463869 0)
(-1.6455 0.487032 0)
(-1.53311 0.344518 0)
(-1.65467 -0.24966 0)
(-1.13956 -0.0389126 0)
(-2.13455 -0.0151663 0)
(-1.90942 0.0132161 0)
(-1.09553 0.163857 0)
(-1.38697 0.252504 0)
(-1.8374 -0.196797 0)
(-1.4448 0.422266 0)
(-2.09344 -0.342591 0)
(-2.22146 -0.0283539 0)
(-2.17413 0.35697 0)
(-2.05246 -0.0162523 0)
(-2.67766 -0.211187 0)
(-2.14559 -0.0678959 0)
(-1.16771 0.00320245 0)
(-1.13325 0.202351 0)
(-1.91445 -0.0266335 0)
(-1.86227 0.436674 0)
(-1.71024 0.358992 0)
(-1.47663 -0.476003 0)
(-1.29095 -0.231963 0)
(-1.89008 0.417593 0)
(-1.7341 0.349845 0)
(-1.40701 -0.466401 0)
(-1.23582 -0.224185 0)
(-1.27224 -0.256603 0)
(-1.75867 0.448338 0)
(-1.62256 0.370107 0)
(-1.46391 -0.495786 0)
(-1.11703 0.0576618 0)
(-2.08396 -0.109953 0)
(-1.08998 0.236307 0)
(-1.86368 -0.0606271 0)
(-1.10045 -0.234599 0)
(-2.02539 0.189674 0)
(-1.01941 -0.015126 0)
(-1.83039 0.173327 0)
(-1.05797 -0.1263 0)
(-1.79 0.266011 0)
(-1.96738 0.294271 0)
(-1.16603 -0.343724 0)
(-1.2992 -0.249319 0)
(-1.76869 0.44935 0)
(-1.49402 -0.490311 0)
(-1.632 0.367761 0)
(-1.14327 0.0601616 0)
(-2.09665 -0.11938 0)
(-1.87343 -0.0665918 0)
(-1.11891 0.2398 0)
(-1.86133 0.320375 0)
(-1.90206 -0.462038 0)
(-1.65849 -0.177538 0)
(-2.04641 0.463659 0)
(-1.92059 0.313605 0)
(-1.89732 -0.459358 0)
(-2.12293 0.452341 0)
(-1.66019 -0.161178 0)
(-2.19333 -0.293606 0)
(-1.46035 0.390469 0)
(-1.91938 -0.163623 0)
(-1.41466 0.19617 0)
(-1.6496 -0.23341 0)
(-1.63908 0.345682 0)
(-1.77358 0.491423 0)
(-1.89605 -0.472841 0)
(-1.32262 -0.0965524 0)
(-1.96427 0.259472 0)
(-2.18433 0.313571 0)
(-1.46193 -0.369393 0)
(-1.86036 0.471142 0)
(-1.94523 -0.166093 0)
(-1.73625 0.245142 0)
(-2.26895 -0.382265 0)
(-1.90601 0.455966 0)
(-1.98239 -0.145274 0)
(-1.77768 0.213107 0)
(-2.3243 -0.365496 0)
(-1.67666 -0.244116 0)
(-1.44869 0.456109 0)
(-1.37014 0.320804 0)
(-1.9021 -0.41426 0)
(-1.53204 0.31334 0)
(-1.51579 0.0618671 0)
(-2.06848 -0.0751255 0)
(-2.37764 -0.165038 0)
(-1.31865 -0.211046 0)
(-2.00781 0.132734 0)
(-1.23664 0.0460481 0)
(-2.25164 0.140819 0)
(-2.3235 -0.327034 0)
(-2.30452 0.0902222 0)
(-2.69027 0.260489 0)
(-2.08999 0.126043 0)
(-1.54507 0.295828 0)
(-2.10622 -0.0493535 0)
(-1.54082 0.0289236 0)
(-2.42359 -0.125 0)
(-2.58192 0.440091 0)
(-2.87525 0.11593 0)
(-2.3624 -0.113594 0)
(-2.84487 -0.140548 0)
(-1.4239 -0.261078 0)
(-1.56885 0.379376 0)
(-1.63303 -0.505161 0)
(-1.69597 0.484552 0)
(-1.22711 -0.427316 0)
(-1.74071 0.341212 0)
(-1.08967 -0.200456 0)
(-1.89015 0.387107 0)
(-1.8538 0.0820093 0)
(-2.0584 0.0762104 0)
(-0.986489 0.0701883 0)
(-1.04297 -0.133055 0)
(-1.86716 -0.135996 0)
(-1.20562 0.152992 0)
(-1.20771 0.317842 0)
(-2.09892 -0.221173 0)
(-2.07818 -0.117695 0)
(-1.76095 0.388389 0)
(-2.43361 -0.266041 0)
(-1.68874 0.116877 0)
(-2.10607 -0.0978795 0)
(-1.7547 0.376472 0)
(-2.4656 -0.235654 0)
(-1.69166 0.0938899 0)
(-1.52954 -0.497547 0)
(-1.32105 -0.273792 0)
(-1.55891 0.488095 0)
(-1.4487 0.395478 0)
(-2.53949 -0.220239 0)
(-1.87143 0.374399 0)
(-2.15389 -0.0776154 0)
(-1.79732 0.0626394 0)
(-1.09422 0.301955 0)
(-1.08998 0.176286 0)
(-1.78065 -0.165172 0)
(-1.9818 -0.245988 0)
(-2.2671 0.906949 0)
(-3.12636 -0.911082 0)
(-3.70915 -0.0116997 0)
(-3.10614 0.423237 0)
(-2.17905 -0.283157 0)
(-1.41414 0.384716 0)
(-1.37631 0.195633 0)
(-1.91052 -0.160723 0)
(-1.97682 0.283525 0)
(-1.05033 -0.107737 0)
(-1.15431 -0.323264 0)
(-1.79468 0.256087 0)
(-2.2272 0.190739 0)
(-2.74001 0.268054 0)
(-2.33122 0.0193131 0)
(-2.53712 -0.292396 0)
(-1.79419 0.355416 0)
(-2.52021 -0.203045 0)
(-2.14487 -0.0773099 0)
(-1.73893 0.0546732 0)
(-1.49557 0.469754 0)
(-1.67041 -0.249823 0)
(-1.40787 0.332214 0)
(-1.89997 -0.431663 0)
(-1.61356 -0.245456 0)
(-1.62271 0.353882 0)
(-1.7562 0.490905 0)
(-1.85069 -0.48405 0)
(-1.36512 -0.101545 0)
(-2.05547 0.0419471 0)
(-1.31839 0.154891 0)
(-2.32628 0.0168073 0)
(-2.25592 0.573829 0)
(-3.02411 -0.469499 0)
(-3.36123 0.206277 0)
(-2.9663 0.244992 0)
(-1.85792 -0.471492 0)
(-1.66174 0.491566 0)
(-1.54481 0.353774 0)
(-1.62357 -0.251276 0)
(-1.36024 0.235732 0)
(-1.84716 -0.191776 0)
(-1.41142 0.405433 0)
(-2.10131 -0.328101 0)
(-1.54437 -0.0581468 0)
(-2.34305 0.321539 0)
(-1.70397 -0.380468 0)
(-2.08203 0.24295 0)
(-1.25625 -0.172867 0)
(-2.02046 0.376036 0)
(-1.83873 0.315438 0)
(-1.41197 -0.425259 0)
(-2.23742 0.096924 0)
(-2.82584 0.391922 0)
(-2.79552 -0.211911 0)
(-2.8591 0.0331351 0)
(-1.19561 0.294304 0)
(-1.87738 -0.344015 0)
(-1.23769 0.411351 0)
(-1.67041 -0.21941 0)
(-2.34665 0.343193 0)
(-1.57921 -0.066795 0)
(-1.75266 -0.394785 0)
(-2.08442 0.253062 0)
(-1.33324 0.361971 0)
(-1.69115 -0.467187 0)
(-1.49837 -0.283735 0)
(-1.4225 0.470012 0)
(-1.34811 0.358674 0)
(-1.72472 -0.460392 0)
(-1.52551 -0.276388 0)
(-1.43752 0.471253 0)
(-2.31752 0.198576 0)
(-1.34332 0.0129402 0)
(-2.05943 0.171999 0)
(-1.44397 -0.272228 0)
(-3.33754 0.0245853 0)
(-3.06856 0.730112 0)
(-2.298 -0.26555 0)
(-2.94604 -0.0279298 0)
(-1.80378 0.493704 0)
(-1.78457 -0.489272 0)
(-1.66117 0.366217 0)
(-1.55437 -0.239054 0)
(-2.24553 0.318624 0)
(-1.3922 -0.0812487 0)
(-1.53835 -0.372108 0)
(-2.01076 0.257125 0)
(-1.36984 0.00444211 0)
(-1.47907 -0.28508 0)
(-2.06832 0.183735 0)
(-2.32753 0.218098 0)
(-1.09775 -0.0924889 0)
(-1.84018 0.246006 0)
(-2.03261 0.274511 0)
(-1.20385 -0.319067 0)
(-1.84805 0.487278 0)
(-1.79503 -0.486286 0)
(-1.56424 -0.230523 0)
(-1.69889 0.359264 0)
(-1.34029 0.147248 0)
(-1.36168 0.342636 0)
(-1.93942 -0.138131 0)
(-2.20374 -0.241754 0)
(-1.36444 0.128517 0)
(-1.38244 0.333228 0)
(-1.96264 -0.124084 0)
(-2.23402 -0.223575 0)
(-1.41805 0.0180578 0)
(-2.09072 0.178249 0)
(-1.52916 -0.281412 0)
(-2.35893 0.215829 0)
(-1.59771 -0.503539 0)
(-1.57327 0.37983 0)
(-1.38912 -0.258752 0)
(-1.70052 0.479444 0)
(-2.25418 0.321487 0)
(-1.57658 -0.37946 0)
(-1.42616 -0.0848683 0)
(-2.01759 0.25618 0)
(-1.29898 -0.184641 0)
(-2.00239 0.118299 0)
(-1.2228 0.0669569 0)
(-2.24559 0.121211 0)
(-1.86549 -0.126654 0)
(-1.18368 0.135404 0)
(-1.17919 0.299814 0)
(-2.09303 -0.204219 0)
(-2.02814 -0.339139 0)
(-3.83497 -0.12219 0)
(-3.63097 0.683258 0)
(-2.80575 -0.178323 0)
(-1.43645 0.0420818 0)
(-1.53966 -0.262843 0)
(-2.1152 0.160907 0)
(-2.39425 0.191686 0)
(-2.2388 0.370681 0)
(-1.69057 -0.421596 0)
(-2.00561 0.281412 0)
(-1.51206 -0.115934 0)
(-1.8555 -0.11714 0)
(-2.189 0.463468 0)
(-1.9745 0.264832 0)
(-2.15312 -0.430483 0)
(-3.16745 -0.0812003 0)
(-2.93548 0.584604 0)
(-2.31001 -0.169146 0)
(-2.92245 0.0277247 0)
(-2.31918 0.080391 0)
(-2.56811 -0.189226 0)
(-2.88108 -0.0036732 0)
(-2.61801 0.345326 0)
(-2.0584 0.265976 0)
(-1.84245 -0.419621 0)
(-2.31213 0.377383 0)
(-1.64356 -0.0871111 0)
(-1.33267 -0.131406 0)
(-2.13211 0.359436 0)
(-1.489 -0.40313 0)
(-1.92636 0.294052 0)
(-2.23169 0.166488 0)
(-2.07302 -0.352381 0)
(-1.87772 0.0443516 0)
(-2.56435 0.291235 0)
(-1.15308 -0.274578 0)
(-1.84739 0.208635 0)
(-1.06118 -0.0523139 0)
(-2.0469 0.230465 0)
(-1.22895 -0.409809 0)
(-1.7584 0.335334 0)
(-1.91621 0.381903 0)
(-1.09398 -0.183975 0)
(-2.21941 0.170015 0)
(-2.11605 -0.368163 0)
(-2.55458 0.311466 0)
(-1.90263 0.0393299 0)
(-1.16745 -0.263798 0)
(-2.06493 0.215523 0)
(-1.86326 0.1956 0)
(-1.07743 -0.0374941 0)
(-1.85942 0.0949212 0)
(-0.999901 0.0547253 0)
(-2.06439 0.0923108 0)
(-1.06095 -0.155998 0)
(-2.24172 0.364256 0)
(-1.4851 -0.102379 0)
(-1.65706 -0.403844 0)
(-2.00857 0.280051 0)
(-2.62115 0.324465 0)
(-2.83236 -0.112335 0)
(-2.27098 0.126894 0)
(-2.42314 -0.166235 0)
(-2.041 0.277312 0)
(-1.7963 -0.423419 0)
(-1.6023 -0.0988021 0)
(-2.28702 0.383223 0)
(-2.1745 0.347769 0)
(-2.2775 0.0181731 0)
(-2.13667 -0.0954695 0)
(-2.75725 -0.0656209 0)
(-2.20052 0.511142 0)
(-2.68045 -0.337658 0)
(-3.0811 0.279496 0)
(-2.86484 0.0868542 0)
(-2.74805 0.235524 0)
(-2.20542 0.233371 0)
(-2.47977 -0.260616 0)
(-2.32705 0.0180243 0)
(-2.34629 0.32648 0)
(-2.35755 -0.0115786 0)
(-2.82603 0.181865 0)
(-2.58774 -0.208617 0)
(-2.1157 -0.117144 0)
(-2.12945 0.316374 0)
(-2.74071 -0.0320694 0)
(-2.27969 0.0274665 0)
(-1.13578 -0.174548 0)
(-1.79589 0.319524 0)
(-1.27287 -0.408188 0)
(-1.96567 0.365517 0)
(-1.15629 -0.186445 0)
(-1.96162 0.374944 0)
(-1.79288 0.324464 0)
(-1.29915 -0.423722 0)
(-3.22718 -0.787196 0)
(-2.13316 0.94145 0)
(-3.70117 0.0341922 0)
(-2.96545 0.501702 0)
(-1.92091 0.308295 0)
(-2.12563 0.391448 0)
(-1.42121 -0.152229 0)
(-1.59821 -0.434676 0)
(-2.39427 0.292207 0)
(-2.11944 0.221294 0)
(-1.70476 -0.356946 0)
(-1.55595 -0.0307663 0)
(-1.14589 0.311352 0)
(-1.1458 0.16784 0)
(-1.81764 -0.150139 0)
(-2.03117 -0.232648 0)
(-2.02628 -0.25513 0)
(-1.17126 0.332539 0)
(-1.80979 -0.163691 0)
(-1.16352 0.192147 0)
(-1.61321 0.482631 0)
(-1.57706 -0.503994 0)
(-1.49834 0.384478 0)
(-1.36967 -0.264009 0)
(-3.78069 0.14184 0)
(-2.0419 -0.396142 0)
(-3.51784 0.972173 0)
(-2.82246 -0.17746 0)
(-1.26779 -0.385267 0)
(-2.00053 0.343729 0)
(-1.8218 0.302187 0)
(-1.137 -0.150878 0)
(-1.59633 0.491165 0)
(-1.48291 0.386504 0)
(-1.40724 -0.270062 0)
(-1.60915 -0.504169 0)
(-1.98445 0.221809 0)
(-1.01521 -0.0598245 0)
(-1.10184 -0.267764 0)
(-1.79166 0.201674 0)
(-1.59398 0.481593 0)
(-1.54707 -0.501336 0)
(-1.4824 0.387606 0)
(-1.33526 -0.263281 0)
(-1.11441 0.298191 0)
(-1.80363 -0.154016 0)
(-1.11783 0.161623 0)
(-2.0104 -0.232324 0)
(-1.29574 0.313226 0)
(-1.88832 -0.39088 0)
(-1.36037 0.441072 0)
(-1.67165 -0.239406 0)
(-2.28211 0.0409492 0)
(-2.37547 -0.140195 0)
(-2.81951 -0.0158725 0)
(-2.39252 0.372652 0)
(-1.60922 0.0507043 0)
(-2.48806 0.209475 0)
(-1.72647 -0.290547 0)
(-2.18113 0.160094 0)
(-2.29398 0.0925845 0)
(-2.01754 -0.249148 0)
(-2.68381 0.144497 0)
(-1.91036 0.165425 0)
(-2.02518 -0.0743789 0)
(-1.9933 0.178755 0)
(-2.39761 -0.365256 0)
(-2.19268 0.451934 0)
(-2.09845 -0.239129 0)
(-2.30801 0.0721786 0)
(-2.71835 0.119123 0)
(-1.99831 0.193156 0)
(-2.15282 -0.227665 0)
(-2.31261 0.0598317 0)
(-2.74844 0.0758642 0)
(-2.08872 0.21731 0)
(-1.95104 0.0352695 0)
(-2.1883 -0.378087 0)
(-2.56641 0.315065 0)
(-2.22646 0.150674 0)
(-1.80024 0.473116 0)
(-1.65723 0.370896 0)
(-1.63095 -0.503234 0)
(-1.42099 -0.250491 0)
(-2.27188 -0.278799 0)
(-1.54141 0.386046 0)
(-1.49058 0.168652 0)
(-1.97543 -0.145922 0)
(-2.07749 -0.0601827 0)
(-2.03008 0.14198 0)
(-2.47832 -0.337674 0)
(-2.22176 0.445074 0)
(-1.86935 0.488122 0)
(-1.72022 0.330293 0)
(-1.69811 -0.214605 0)
(-1.95803 -0.467639 0)
(-2.00545 -0.151728 0)
(-1.75072 0.430607 0)
(-2.33714 -0.328307 0)
(-1.66115 0.189854 0)
(-2.16635 -0.171115 0)
(-1.23599 0.102289 0)
(-1.2284 0.290867 0)
(-1.92215 -0.0982075 0)
(-2.50023 0.240594 0)
(-1.64665 0.0331907 0)
(-1.78197 -0.315919 0)
(-2.19103 0.17665 0)
(-2.38896 0.273415 0)
(-1.65519 -0.344529 0)
(-2.11435 0.212694 0)
(-1.51767 -0.0218564 0)
(-1.49754 0.136714 0)
(-1.53956 0.370412 0)
(-2.01746 -0.128184 0)
(-2.32382 -0.250076 0)
(-1.76392 0.282427 0)
(-1.0476 -0.140006 0)
(-1.93384 0.31414 0)
(-1.15939 -0.351983 0)
(-1.07241 -0.220104 0)
(-0.993574 0.00645159 0)
(-2.00862 0.165308 0)
(-1.81416 0.155355 0)
(-1.94822 -0.476006 0)
(-1.76855 0.336129 0)
(-1.68805 -0.210278 0)
(-1.93144 0.493494 0)
(-1.74747 0.441737 0)
(-1.9701 -0.165765 0)
(-2.29089 -0.352625 0)
(-1.65009 0.213715 0)
(-1.37991 -0.0372288 0)
(-2.29864 0.272212 0)
(-1.50846 -0.330537 0)
(-2.04849 0.223377 0)
(-1.99081 0.224953 0)
(-2.22101 0.265456 0)
(-1.41472 -0.320851 0)
(-1.29474 -0.0507882 0)
(-2.30446 0.0818752 0)
(-2.04375 0.0871684 0)
(-1.35658 -0.158952 0)
(-1.29183 0.101503 0)
(-1.71212 0.324272 0)
(-1.99573 -0.467648 0)
(-1.85982 0.490122 0)
(-1.72854 -0.216822 0)
(-1.30059 0.223226 0)
(-1.33691 0.384434 0)
(-2.08132 -0.299588 0)
(-1.83863 -0.179152 0)
(-1.50096 0.377877 0)
(-1.2249 -0.257192 0)
(-1.61113 0.450287 0)
(-1.42697 -0.49036 0)
(-2.73328 0.315654 0)
(-2.35684 -0.0345569 0)
(-2.19644 0.230249 0)
(-2.62217 -0.220176 0)
(-1.55957 -0.258274 0)
(-1.64797 0.487511 0)
(-1.78077 -0.483147 0)
(-1.52981 0.362509 0)
(-2.21615 0.196199 0)
(-2.74154 -0.169272 0)
(-2.69441 0.341908 0)
(-2.38638 -0.0977425 0)
(-2.67905 0.310178 0)
(-2.1487 0.1566 0)
(-2.30691 0.0534178 0)
(-2.47482 -0.297325 0)
(-1.97333 -0.159316 0)
(-1.05035 0.102225 0)
(-1.77632 -0.103911 0)
(-1.03033 0.247744 0)
(-2.51635 0.270463 0)
(-2.33199 0.0263071 0)
(-2.59134 -0.277516 0)
(-2.87298 0.0614676 0)
(-2.75808 0.339584 0)
(-2.25403 0.234375 0)
(-2.3994 -0.0990384 0)
(-2.7614 -0.180997 0)
(-2.20974 0.214741 0)
(-2.67706 0.362293 0)
(-2.75652 -0.14541 0)
(-2.37518 -0.100389 0)
(-2.12639 0.234343 0)
(-1.94715 -0.407175 0)
(-2.40782 0.360574 0)
(-1.73873 -0.0513054 0)
(-1.63318 0.361936 0)
(-1.23065 -0.251837 0)
(-1.77037 0.432704 0)
(-1.41105 -0.484583 0)
(-1.0602 0.210095 0)
(-1.85083 -0.0350006 0)
(-2.06599 -0.0750828 0)
(-1.0938 0.0296355 0)
(-2.31484 0.0815701 0)
(-2.25826 -0.241385 0)
(-2.75019 0.166405 0)
(-2.11936 0.239344 0)
(-2.01999 -0.340898 0)
(-1.35488 0.408343 0)
(-1.78467 -0.206157 0)
(-1.30603 0.259973 0)
(-1.57065 0.485151 0)
(-1.58602 -0.258019 0)
(-1.46643 0.357396 0)
(-1.8071 -0.463638 0)
(-2.33605 0.0594476 0)
(-2.3591 -0.254588 0)
(-2.17471 0.232274 0)
(-2.771 0.189102 0)
(-1.46017 0.0696228 0)
(-2.05612 -0.0784022 0)
(-1.47058 0.313165 0)
(-2.3565 -0.164827 0)
(-2.04039 -0.128567 0)
(-1.68123 0.386477 0)
(-2.37208 -0.275324 0)
(-1.61536 0.13693 0)
(-1.83404 0.338142 0)
(-2.01395 0.472732 0)
(-1.61533 -0.200768 0)
(-1.85105 -0.480472 0)
(-2.06027 -0.326397 0)
(-1.36234 0.396986 0)
(-1.3162 0.240102 0)
(-1.81828 -0.195071 0)
(-1.58689 -0.255665 0)
(-1.81134 -0.470574 0)
(-1.50574 0.361042 0)
(-1.61635 0.491083 0)
(-1.91756 0.40337 0)
(-2.10474 -0.0951728 0)
(-1.82169 0.107144 0)
(-2.49096 -0.270218 0)
(-1.74337 0.479112 0)
(-1.44235 -0.255268 0)
(-1.60921 0.372769 0)
(-1.65338 -0.501467 0)
(-1.16677 -0.0567 0)
(-1.93636 0.0275581 0)
(-2.16777 0.00305483 0)
(-1.11918 0.156099 0)
(-2.37757 0.0643253 0)
(-2.09475 0.0749806 0)
(-1.37201 0.125353 0)
(-1.43268 -0.152676 0)
(-2.00794 -0.14028 0)
(-1.67634 0.403269 0)
(-1.60596 0.166201 0)
(-2.33029 -0.293249 0)
(-1.74367 0.484068 0)
(-1.48295 -0.252598 0)
(-1.6095 0.371111 0)
(-1.69899 -0.498819 0)
(-1.27149 -0.338848 0)
(-1.15513 -0.0977295 0)
(-2.07881 0.288103 0)
(-1.87981 0.254009 0)
(-1.59609 0.312103 0)
(-1.76716 -0.222137 0)
(-2.03571 -0.434211 0)
(-1.70973 0.481431 0)
(-1.14487 -0.112351 0)
(-1.26677 -0.34881 0)
(-2.04705 0.312055 0)
(-1.85595 0.274121 0)
(-1.23627 0.312696 0)
(-1.89254 -0.123433 0)
(-1.23535 0.137561 0)
(-2.13238 -0.206799 0)
(-2.15953 0.21388 0)
(-1.97676 -0.387333 0)
(-1.77246 -0.0186611 0)
(-2.45503 0.337325 0)
(-2.27281 -0.292644 0)
(-1.56688 0.410041 0)
(-1.50974 0.190348 0)
(-1.9695 -0.151222 0)
(-1.47283 -0.183906 0)
(-1.67314 -0.459988 0)
(-2.04706 0.434758 0)
(-1.86054 0.333411 0)
(-1.58317 0.445846 0)
(-1.87759 -0.191581 0)
(-1.50553 0.255256 0)
(-2.15895 -0.359105 0)
(-1.66465 0.365632 0)
(-1.8071 0.435675 0)
(-1.22338 -0.243748 0)
(-1.40061 -0.477375 0)
(-1.96736 -0.469015 0)
(-1.8035 0.324584 0)
(-1.70432 -0.197155 0)
(-1.97347 0.484862 0)
(-1.57031 0.357316 0)
(-2.03899 -0.112845 0)
(-1.53032 0.115185 0)
(-2.35387 -0.231999 0)
(-1.27612 0.329702 0)
(-1.89788 -0.133902 0)
(-1.26611 0.152466 0)
(-2.14333 -0.226418 0)
(-1.93735 0.41042 0)
(-1.42111 -0.463968 0)
(-1.25197 -0.215952 0)
(-1.7718 0.342482 0)
(-1.86888 -0.0217306 0)
(-2.08621 -0.0589149 0)
(-1.06169 0.19002 0)
(-1.09822 0.00252365 0)
(-2.31645 -0.0633428 0)
(-1.34362 0.218198 0)
(-1.36835 -0.0243701 0)
(-2.04199 -0.014973 0)
(-2.58449 -0.251972 0)
(-2.28375 0.0354295 0)
(-2.15945 0.143269 0)
(-2.59935 0.375555 0)
(-2.67038 -0.18519 0)
(-2.23388 0.250504 0)
(-2.34978 -0.0261014 0)
(-2.70711 0.338664 0)
(-2.35186 -0.116676 0)
(-1.42113 0.0148264 0)
(-1.41448 0.261947 0)
(-2.06188 -0.0497235 0)
(-1.27581 -0.300722 0)
(-2.1348 0.243251 0)
(-1.17055 -0.0543301 0)
(-1.92122 0.215747 0)
(-1.40611 0.373833 0)
(-1.46771 -0.283799 0)
(-1.66446 -0.489268 0)
(-1.50859 0.483043 0)
(-1.34847 -0.374458 0)
(-1.87445 0.283879 0)
(-2.06666 0.330649 0)
(-1.21326 -0.126885 0)
(-2.31501 0.0688121 0)
(-2.75096 0.150032 0)
(-2.24996 -0.233173 0)
(-2.11757 0.235988 0)
(-2.50915 -0.223263 0)
(-2.39072 0.321363 0)
(-2.31555 0.0272421 0)
(-2.83238 0.102088 0)
(-1.39622 -0.392675 0)
(-2.08498 0.346054 0)
(-1.25218 -0.13705 0)
(-1.88881 0.292339 0)
(-1.20326 0.371077 0)
(-1.77688 -0.177827 0)
(-1.18201 0.237576 0)
(-1.99477 -0.281253 0)
(-1.74254 -0.193234 0)
(-1.21438 0.381797 0)
(-1.95639 -0.304186 0)
(-1.18604 0.254547 0)
(-1.44213 0.376437 0)
(-1.65198 -0.502794 0)
(-1.55184 0.484524 0)
(-1.45339 -0.284941 0)
(-1.35552 -0.0229001 0)
(-2.29309 0.249514 0)
(-1.47463 -0.3101 0)
(-2.04398 0.208095 0)
(-1.72294 0.348279 0)
(-1.87594 0.410598 0)
(-1.19492 -0.224991 0)
(-1.35762 -0.459896 0)
(-2.49235 0.394298 0)
(-2.82763 -0.185647 0)
(-2.37217 -0.133902 0)
(-2.88175 0.162949 0)
(-1.75826 0.33255 0)
(-1.18299 -0.214242 0)
(-1.91856 0.389245 0)
(-1.33647 -0.453043 0)
(-1.87298 -0.4129 0)
(-1.32946 0.327624 0)
(-1.65445 -0.249168 0)
(-1.40409 0.456194 0)
(-1.83302 0.465009 0)
(-1.68535 0.363097 0)
(-1.64159 -0.49392 0)
(-1.43305 -0.239519 0)
(-1.80273 -0.390377 0)
(-1.21973 0.321319 0)
(-1.27745 0.432478 0)
(-1.60375 -0.250389 0)
(-2.10493 0.00379482 0)
(-1.06 0.14679 0)
(-1.88822 0.0272609 0)
(-1.10763 -0.053851 0)
(-1.06241 0.12475 0)
(-2.11709 0.0434227 0)
(-1.11764 -0.0835375 0)
(-1.89959 0.0584709 0)
(-2.18517 -0.157375 0)
(-1.93672 -0.0865795 0)
(-1.26034 0.0866538 0)
(-1.25121 0.280707 0)
(-1.73227 -0.432548 0)
(-1.53872 -0.271029 0)
(-1.34594 0.45966 0)
(-1.27168 0.350563 0)
(-1.89107 0.101828 0)
(-1.11536 -0.157172 0)
(-1.04796 0.0607952 0)
(-2.10337 0.100108 0)
(-1.11904 -0.134179 0)
(-2.11797 0.0754086 0)
(-1.05734 0.082186 0)
(-1.90195 0.0820167 0)
(-2.38526 0.0948531 0)
(-2.10238 0.095154 0)
(-1.38303 0.109222 0)
(-1.45365 -0.176563 0)
(-1.76908 -0.468172 0)
(-1.54899 -0.186797 0)
(-2.04631 0.461537 0)
(-1.85983 0.341597 0)
(-2.13672 0.171945 0)
(-1.98997 -0.000539093 0)
(-2.32144 -0.365182 0)
(-2.40716 0.41167 0)
(-1.41241 0.298586 0)
(-1.98984 -0.400221 0)
(-1.4905 0.450013 0)
(-1.74731 -0.230158 0)
(-1.69915 0.348861 0)
(-1.84747 0.409258 0)
(-1.33563 -0.465103 0)
(-1.17642 -0.233558 0)
(-1.86848 0.0262847 0)
(-2.08089 0.00306382 0)
(-1.08228 -0.0435629 0)
(-1.0354 0.150583 0)
(-2.17378 0.16727 0)
(-2.47065 0.401411 0)
(-1.99672 0.0197556 0)
(-2.31775 -0.368367 0)
(-1.41675 0.285868 0)
(-2.03659 -0.384822 0)
(-1.49106 0.446119 0)
(-1.78546 -0.219676 0)
(-1.80853 -0.453172 0)
(-1.5949 -0.266 0)
(-1.48142 0.47422 0)
(-1.3901 0.35045 0)
(-2.57471 -0.189683 0)
(-1.91198 0.365595 0)
(-2.17906 -0.053569 0)
(-1.84176 0.0381923 0)
(-2.19671 0.399691 0)
(-1.70373 -0.431308 0)
(-1.97505 0.300956 0)
(-1.51285 -0.131131 0)
(-2.63458 0.325186 0)
(-2.79532 -0.117523 0)
(-2.23715 0.146901 0)
(-2.41304 -0.15278 0)
(-2.12991 0.196289 0)
(-1.21523 -0.251666 0)
(-1.12437 -0.0135664 0)
(-1.91529 0.179243 0)
(-1.42295 0.0406725 0)
(-2.33675 -0.131359 0)
(-1.41968 0.280339 0)
(-2.04683 -0.0604126 0)
(-1.1523 0.0434924 0)
(-1.94975 0.131044 0)
(-1.22998 -0.194964 0)
(-2.17635 0.13641 0)
(-1.78412 -0.474724 0)
(-1.5626 -0.194974 0)
(-2.01781 0.458564 0)
(-1.83675 0.337929 0)
(-1.17919 0.0656917 0)
(-1.97205 0.112352 0)
(-1.25283 -0.174907 0)
(-2.20569 0.113312 0)
(-2.11084 -0.0346073 0)
(-1.51777 0.269025 0)
(-1.52334 -0.000542578 0)
(-2.42382 -0.0995449 0)
(-2.14208 0.444779 0)
(-1.62904 -0.152122 0)
(-1.93462 0.31429 0)
(-1.85658 -0.453712 0)
(-1.41762 -0.410056 0)
(-1.26709 -0.152607 0)
(-2.06662 0.356377 0)
(-1.87496 0.299423 0)
(-2.00698 0.0862459 0)
(-2.61705 0.305548 0)
(-2.2651 -0.342315 0)
(-2.26282 0.119098 0)
(-2.60294 -0.253575 0)
(-2.16107 0.106623 0)
(-2.52688 0.386201 0)
(-2.24546 0.0342065 0)
(-2.20629 0.0829254 0)
(-1.17889 0.0894342 0)
(-1.24487 -0.14658 0)
(-1.97133 0.0900121 0)
(-2.59619 0.325999 0)
(-2.0976 0.0675831 0)
(-2.3994 -0.359142 0)
(-2.2498 0.0962518 0)
(-1.22239 -0.259676 0)
(-1.65567 0.45113 0)
(-1.53775 0.377551 0)
(-1.4155 -0.489579 0)
(-1.0972 -0.130636 0)
(-1.99056 0.313426 0)
(-1.21459 -0.355346 0)
(-1.81067 0.27918 0)
(-1.10689 -0.146286 0)
(-1.98881 0.330363 0)
(-1.81113 0.293294 0)
(-1.23048 -0.375087 0)
(-2.06784 0.170151 0)
(-1.13051 -0.226026 0)
(-1.04912 0.00132758 0)
(-1.86415 0.158641 0)
(-2.08322 0.150188 0)
(-1.04728 0.0183135 0)
(-1.87583 0.142171 0)
(-1.12338 -0.207683 0)
(-1.13472 -0.216713 0)
(-1.74477 0.341797 0)
(-1.2809 -0.449161 0)
(-1.90105 0.394299 0)
(-2.08336 -0.323058 0)
(-2.26285 0.154119 0)
(-2.61254 0.271638 0)
(-1.89777 0.086203 0)
(-1.99898 -0.137693 0)
(-1.05384 0.0799172 0)
(-1.79697 -0.0861582 0)
(-1.03257 0.237303 0)
(-1.01618 0.105453 0)
(-2.09168 0.0559867 0)
(-1.07213 -0.100846 0)
(-1.88178 0.067076 0)
(-1.50303 0.475314 0)
(-1.62955 -0.252514 0)
(-1.41218 0.343869 0)
(-1.85249 -0.439335 0)
(-1.98303 0.421806 0)
(-2.09785 -0.0977196 0)
(-1.86108 0.122937 0)
(-2.49172 -0.300817 0)
(-2.27553 0.0136716 0)
(-2.21023 -0.122182 0)
(-2.33942 0.301696 0)
(-2.77577 -0.164936 0)
(-1.85178 0.050535 0)
(-2.05816 0.0328203 0)
(-1.05026 -0.055388 0)
(-0.997513 0.137689 0)
(-1.84269 0.394759 0)
(-1.13438 -0.239051 0)
(-1.28348 -0.467745 0)
(-1.69448 0.341163 0)
(-2.64427 -0.242944 0)
(-2.17463 0.109626 0)
(-2.53842 0.379268 0)
(-2.25854 -0.000415264 0)
(-2.70251 0.236816 0)
(-2.29068 -0.294556 0)
(-2.30245 0.0847506 0)
(-2.07984 0.164525 0)
(-2.21738 0.362573 0)
(-1.99164 0.28393 0)
(-1.61154 -0.400617 0)
(-1.44411 -0.108255 0)
(-1.39874 0.435008 0)
(-1.73167 -0.227745 0)
(-1.33459 0.293424 0)
(-1.96247 -0.380092 0)
(-2.10014 0.244632 0)
(-1.13169 -0.0598849 0)
(-1.23424 -0.297933 0)
(-1.89296 0.21942 0)
(-2.12324 0.169664 0)
(-1.10137 -0.001599 0)
(-1.18408 -0.237933 0)
(-1.90912 0.158026 0)
(-1.44373 0.449706 0)
(-1.72169 -0.234099 0)
(-1.37016 0.30651 0)
(-1.95569 -0.397574 0)
(-1.7701 -0.207594 0)
(-1.32056 0.406304 0)
(-2.00009 -0.338406 0)
(-1.2754 0.263076 0)
(-2.26965 0.0947415 0)
(-2.84588 -0.0441427 0)
(-2.51294 -0.181397 0)
(-2.6173 0.351571 0)
(-2.05958 0.474276 0)
(-1.85225 -0.147587 0)
(-1.8787 0.273754 0)
(-2.15465 -0.429073 0)
(-2.10004 0.479765 0)
(-1.83244 -0.144321 0)
(-1.9074 0.280712 0)
(-2.13377 -0.436864 0)
(-1.81937 0.31286 0)
(-1.19065 -0.172662 0)