/*--------------------------------*- C++ -*----------------------------------*\
| =========                 |                                                 |
| \\      /  F ield         | foam-extend: Open Source CFD                    |
|  \\    /   O peration     | Version:  3.0                                   |
|   \\  /    A nd           | Web:         http://www.extend-project.de       |
|    \\/     M anipulation  |                                                 |
\*---------------------------------------------------------------------------*/
FoamFile
{
    version     2.0;
    format      ascii;
    class       volScalarField;
    location    "10";
    object      p;
}
// * * * * * * * * * * * * * * * * * * * * * * * * * * * * * * * * * * * * * //

dimensions      [0 0 0 0 0 0 0];

internalField   nonuniform List<scalar> 
3012
(
1.13143
0.982015
0.746946
1.15507
1.09596
1.05051
1.07099
0.785152
1.20678
0.740295
1.08832
0.956878
0.950724
1.21701
0.747767
1.08631
0.987556
1.12818
0.982078
0.876773
1.36193
0.813861
0.607725
1.23674
0.712125
1.04309
1.17134
1.08821
1.20146
0.798374
1.17291
0.832936
1.19641
0.761551
1.18998
0.859779
1.06542
0.717553
1.06652
1.16945
0.922832
0.771436
1.02992
1.27563
1.18572
0.884229
1.19158
0.746546
0.898276
0.709783
1.18446
1.21558
1.12732
0.9849
1.1627
0.740847
0.972948
1.1594
0.926824
0.900953
0.963913
1.1994
0.885071
0.920751
0.989199
1.17219
0.728584
1.11273
0.515681
1.36243
1.22653
0.899596
0.947347
0.722057
1.01933
1.30546
1.10748
0.697454
0.866092
1.33939
1.02044
1.12867
1.14836
0.706599
0.867181
0.874236
0.863234
1.38857
1.25879
0.716907
1.15758
0.87667
0.73616
1.19678
1.08569
0.971511
1.11969
1.02636
1.05927
0.772542
0.480301
1.41905
1.26406
0.841462
0.974684
0.984818
0.703671
1.32952
0.33773
0.461715
4.46034
-1.23153
1.1988
0.736319
0.906306
1.16666
0.700188
1.02117
0.995129
1.27226
0.901654
1.24424
1.30465
0.546441
0.92456
1.15112
0.833435
1.1161
0.733193
0.911213
1.07188
1.27878
1.0012
1.08833
1.1596
0.785689
0.779509
1.03688
0.977299
1.21067
0.713607
1.17181
1.07613
1.05243
1.00596
1.0445
1.12049
0.819178
1.01983
1.01375
1.18776
0.774222
1.19668
1.18824
0.939145
0.684945
0.895816
0.711458
1.17516
1.22648
0.40414
4.17006
-1.08314
0.516593
1.02694
1.1104
0.704197
1.18136
1.20266
0.768298
1.18744
0.849118
0.963656
0.825778
1.10688
1.08409
1.19472
1.00719
1.0202
0.779659
1.02943
1.09369
0.680983
1.21923
0.983181
1.23325
1.18052
0.596816
1.19119
0.614212
0.92693
1.25959
0.398908
3.75509
-0.773858
0.629048
0.817705
0.833159
1.21803
1.13573
0.996504
1.17156
1.10705
0.725818
0.94894
0.746399
1.20912
1.09832
0.970586
0.658361
1.20286
1.17757
1.32696
0.812748
0.41111
1.44878
0.699656
1.15089
1.03502
1.11656
0.662756
1.3622
0.944053
1.02272
1.17254
1.20626
0.818338
0.807897
1.32961
0.735468
1.47185
0.466101
0.871779
1.08722
1.36073
0.66536
0.849121
0.801404
1.12952
1.22333
2.03064
-0.106453
0.638878
1.45417
1.06087
0.545489
0.740047
1.64927
0.99471
1.21119
1.18183
0.605572
1.19567
0.954699
0.614853
1.22618
0.75359
1.10214
1.11355
1.00796
1.24203
1.18455
0.861943
0.718252
0.971657
0.699194
1.09808
1.2309
0.968247
1.18955
1.19384
0.637773
0.934956
0.757317
1.05691
1.25065
0.953904
1.2186
0.75239
1.07532
1.10082
1.01853
1.17169
0.727088
1.20005
0.676772
1.1847
0.947774
1.11696
1.00885
1.23886
0.67048
1.21315
1.3033
0.905643
0.613662
1.18867
1.19161
0.888241
0.740142
0.972599
1.19655
1.1796
0.640481
0.907038
1.19608
0.729572
1.17473
1.10227
1.02245
1.16168
0.728708
0.735216
1.10808
1.10918
1.02503
0.613506
0.916291
1.2568
1.19887
0.89959
0.822951
1.33152
0.942202
1.22768
1.01421
1.2056
0.555445
1.10569
1.03179
1.08164
0.757403
0.742861
0.987499
1.05566
1.21066
0.784274
1.1804
0.817035
1.223
0.714072
1.12851
0.862924
1.30328
1.11718
0.863194
1.2479
0.76876
1.14428
0.581383
1.24655
1.03013
0.98521
0.653086
1.19735
1.17259
1.21206
1.18072
0.682628
0.934972
1.09581
0.882606
0.753915
1.26484
1.15747
0.571241
1.00305
1.27101
1.24684
0.733707
1.08344
0.930973
1.23854
0.757371
0.913138
1.08875
0.566295
1.23004
0.989643
1.21386
1.08387
1.27695
0.971038
0.655491
1.17272
1.19626
0.753817
0.885489
1.01165
1.14219
1.17402
0.660152
1.00678
1.13761
1.16277
0.678611
2.39788
0.161886
0.936026
0.504136
1.19044
1.12997
1.03914
0.639158
0.93334
1.21459
1.11256
0.743941
0.853448
1.18952
0.895482
1.07994
1.1885
1.04861
1.10475
0.657831
1.02311
0.947154
1.20601
0.835656
0.88034
1.38003
0.661206
1.06403
0.88694
1.17633
1.23258
0.714702
1.17574
0.64701
1.16328
1.02
0.688942
1.35544
1.54364
0.418035
1.08654
1.09999
0.664692
1.13816
1.08025
1.11751
0.667844
1.12597
0.679979
0.977296
1.00148
1.33296
0.693572
1.10001
1.08872
1.10681
1.40968
1.30581
0.84182
0.444554
1.03805
1.10367
0.95532
0.84746
0.556603
1.26217
1.22368
0.960509
0.670149
1.21339
0.948983
1.17739
1.01297
0.977532
1.22366
0.799494
1.11034
0.683213
1.08153
1.11463
0.635804
1.68354
1.12121
0.552045
1.0959
1.28165
0.957285
0.651578
0.987285
1.17181
1.11426
0.728756
1.18959
0.893477
0.887739
0.968952
0.628691
0.933273
1.27091
1.15148
1.22496
1.00928
1.21832
0.550056
1.13949
0.804722
0.86947
1.19644
1.2338
0.736332
1.17527
0.862709
1.00999
1.19498
1.11078
0.698678
1.71874
0.770727
2.99393
-1.47556
0.816304
1.13485
0.863315
1.19572
1.90195
0.705207
-1.03974
2.38114
1.40644
0.605939
0.78256
1.18085
0.747068
1.14318
1.19117
0.927068
0.825093
0.994599
1.20829
0.981258
0.983311
0.674699
1.30796
1.02263
0.773755
1.16294
0.877123
1.19547
1.14551
0.925017
1.18783
0.750163
1.20252
1.18415
0.684858
0.937458
0.971103
0.692205
1.0323
1.29393
1.23165
1.3307
0.896192
0.544468
1.21068
1.31045
0.914164
0.566934
1.14696
1.18182
0.928477
0.752442
0.66634
1.37299
0.906554
1.04211
0.777825
0.875872
1.15951
1.196
0.936128
1.21944
1.10439
0.7436
0.731365
1.34798
1.51936
0.408048
1.15795
0.957612
0.999547
0.891371
1.14645
0.939866
1.17334
0.750331
0.820769
0.841129
1.20758
1.13794
1.09272
0.953724
1.21209
0.734406
0.906704
1.07338
1.16132
0.892742
1.03106
1.10916
0.724722
1.1448
1.21212
0.823102
0.855373
1.11664
1.18945
0.763234
0.865287
1.19046
1.18392
0.877516
1.10639
0.847005
0.954269
1.18512
1.19306
0.675997
0.867666
1.19546
0.70889
1.23536
1.19801
0.850076
0.874132
1.09285
0.95012
0.683057
1.1923
1.18236
1.2136
1.13368
0.667761
0.987337
0.807322
1.14624
0.850145
1.20422
0.971938
0.837988
1.13733
1.02391
1.21013
0.82849
1.1201
0.848632
1.13796
1.06578
1.07953
0.716755
1.13392
1.05936
0.925144
0.859174
0.93226
1.04133
0.827248
1.21156
1.06282
1.18695
0.909448
0.860253
1.08253
1.14426
0.715858
1.06362
1.23434
1.18406
0.879535
0.709571
1.24301
0.709534
1.17677
0.879122
1.05472
1.13721
0.999471
0.7982
1.20575
0.806093
1.16374
0.830865
0.786399
1.18234
0.898277
1.14392
1.52144
1.35978
0.722177
0.402249
0.411523
1.54403
0.66866
1.37896
1.05939
0.662633
1.37513
0.889846
0.990077
1.06236
1.18302
0.788417
0.903302
0.702619
1.17773
1.22508
1.09256
1.38007
0.864176
0.64853
0.651644
1.21187
0.977367
1.16948
1.04383
0.661708
1.36703
0.914716
1.53233
0.721892
1.38374
0.366551
0.833344
0.472458
-0.0429878
2.73778
1.03752
1.09549
0.700831
1.17164
1.14939
0.762781
0.941716
1.15977
1.10256
1.00607
0.74518
1.166
1.1176
1.15173
0.732008
0.98245
1.01275
1.09828
0.744191
1.16803
1.0486
1.06995
0.713775
1.18997
1.08129
0.844012
0.888219
1.19946
0.968742
1.31553
0.709185
0.999138
0.598386
1.17867
1.18521
1.03531
1.10378
1.13715
0.746243
0.992753
0.959556
1.25234
1.1024
0.673942
1.12078
1.06046
0.645963
1.16139
0.527748
1.22864
1.37234
0.875611
0.774796
1.1496
0.931696
1.1584
0.779776
0.901268
1.18321
1.14751
1.16597
1.19521
1.02303
0.6133
1.17724
1.22102
0.681262
0.931832
0.998618
1.20545
0.639463
1.16589
0.69638
1.25419
1.08842
0.95199
1.04942
1.13367
0.641234
1.16616
1.15694
0.759516
0.902507
1.19058
1.19783
0.7425
0.905666
1.16172
0.740467
1.198
0.956647
1.10882
1.24005
0.670243
0.948408
1.13039
1.27479
1.37401
0.531365
0.820663
1.26807
1.09613
0.905424
0.728331
1.00019
1.19475
1.02205
0.775993
0.999429
1.02047
0.634916
1.32774
1.09804
0.82136
0.95918
1.09126
0.968214
1.03313
1.21609
0.788166
0.526929
1.20269
0.98826
1.28089
1.24187
0.977631
1.14693
0.670188
0.97684
1.08613
1.1015
0.816647
1.13884
0.956187
0.835944
1.042
1.20482
0.839021
0.859844
1.10623
1.05849
1.41871
0.650138
0.88391
0.729185
1.51701
0.960323
0.784164
1.12501
0.960103
0.786935
1.15545
0.549884
1.24345
0.978095
1.23274
0.951956
1.12223
1.29143
0.61623
1.13931
0.938243
1.12095
0.826556
1.13395
1.02188
1.21374
0.630476
1.08387
1.11867
0.636971
1.15268
1.25409
0.926244
1.08112
0.733421
0.548006
1.47518
1.30913
0.672656
0.943223
0.633514
1.3383
1.06385
1.06536
1.10093
1.12279
0.696568
1.02711
0.938008
1.34802
0.675718
0.90308
1.31634
0.813197
0.964317
0.730657
1.16434
1.12983
0.980246
1.07558
1.12075
1.1644
0.632194
1.03568
0.929472
1.35164
0.669356
0.914222
1.19763
0.707127
1.18908
1.20162
1.27177
0.618042
0.899136
1.20725
0.914516
0.702483
1.18409
1.44518
0.787357
1.29366
0.478635
1.20114
0.842859
1.10426
0.863129
0.603693
1.16187
1.18234
1.04884
1.12191
0.788406
0.85769
1.23386
1.01297
1.21986
1.17359
0.589161
1.08852
0.678661
1.36475
0.877641
0.705261
1.24397
1.09363
0.947819
1.17729
1.03762
1.15784
0.623659
1.45637
0.767487
1.29535
0.486952
0.719996
0.862058
1.28695
1.14041
1.43012
0.892796
0.8281
0.842135
0.684188
1.16578
1.05088
1.10202
0.779619
1.15516
1.0674
0.984563
0.786721
1.06655
1.15141
0.984888
0.653346
1.09589
1.19868
1.05394
0.921574
0.715399
1.1693
1.20019
1.4031
0.598724
0.689025
1.28555
0.889919
1.18665
0.72178
1.20996
1.10224
0.763251
0.999402
1.15986
1.04147
1.18588
1.06714
0.737792
0.880538
0.73302
1.21291
1.18205
1.56182
0.553545
1.33997
0.54573
0.52947
1.57764
0.556985
1.34016
1.3768
0.669371
1.19674
0.736436
1.15386
0.753344
0.908691
1.19311
1.14176
0.712709
1.29275
0.861724
0.969916
0.77507
1.24508
1.02123
1.14677
1.28205
0.712028
0.86848
0.507926
0.97297
2.21786
0.302621
0.951171
1.30137
0.718066
1.02271
0.437834
0.864094
0.0546241
2.6826
0.775505
0.989997
1.30036
0.93159
1.00753
0.770327
0.930958
1.28946
0.54652
0.913586
1.20609
1.33705
0.457075
3.15709
-0.429868
0.794592
1.22508
0.9647
1.11507
0.697145
0.961963
0.709391
1.09213
1.23664
0.732851
1.16325
1.13823
0.972884
0.760499
1.09198
0.897576
1.24861
1.20388
1.06741
0.763033
0.961331
1.08574
0.546312
0.659153
1.70742
1.11753
0.704112
0.871762
1.31731
1.3266
0.805202
0.915088
0.950327
1.207
0.961957
1.05769
0.772671
1.16573
0.560524
0.943443
1.33012
0.555575
1.63233
0.624502
1.17425
0.702738
1.09877
1.08686
1.09857
0.831178
0.825596
1.2129
1.13647
0.972173
0.835495
1.13218
1.02337
0.706627
0.939941
1.15275
1.20594
1.11875
0.639513
1.21316
1.02925
1.11205
1.22483
0.93949
0.726858
0.748952
1.0839
0.911046
1.2526
1.08531
1.23718
0.930521
0.7491
1.06669
1.17913
1.09072
0.664576
0.902191
1.09375
1.23832
0.765081
0.875204
1.21901
0.734764
1.17974
1.06647
0.903564
0.837318
1.20619
0.78513
1.08993
0.976305
1.12913
0.749926
1.07435
0.935484
1.2418
0.95732
1.03551
0.798404
1.21834
0.505929
1.30177
1.66393
0.504631
1.21643
0.691276
0.922802
1.17886
1.21883
0.698102
1.1775
0.914644
0.676839
0.967898
1.16814
1.19371
0.679659
1.15721
1.19492
0.973449
1.24256
1.18016
0.865554
0.720051
0.890113
1.17706
0.839025
1.11205
-0.265658
1.92443
0.0255091
2.34113
1.11148
0.684451
0.988134
1.21636
0.482231
1.86877
1.09489
0.546892
1.03599
1.10988
1.12648
0.709331
1.10852
1.05836
1.02101
0.787457
1.19817
0.676846
1.02293
1.1033
0.742863
1.25006
0.849219
1.16718
0.792918
1.09635
0.981279
1.10511
0.856525
0.888465
1.17789
1.09543
0.797508
1.2022
0.853564
1.15476
0.633022
1.79538
1.05109
0.525438
0.698152
1.18175
0.934249
1.19349
0.705241
1.14407
0.944782
1.21119
0.75795
1.5912
1.10704
0.544858
0.475976
1.61607
0.573463
1.34519
1.10283
0.801399
1.0325
1.0455
0.960246
1.11311
1.20557
0.710098
0.960406
1.09335
1.22083
0.716571
1.17899
1.23784
0.71744
0.873621
1.10174
0.789086
1.2246
0.887723
0.808049
1.10342
1.21728
0.876712
0.941417
0.776658
1.26041
1.01932
0.581558
1.20138
1.23962
0.977381
0.982247
0.967604
1.33115
0.710321
0.728094
1.23368
1.09102
0.940985
0.94855
1.24257
0.765615
1.04178
1.01728
0.618514
1.12363
1.24182
0.988358
0.602239
1.26376
1.14712
1.08648
0.959712
1.26893
0.672918
0.445672
1.28502
1.4454
0.829444
1.16561
0.75142
0.843135
1.24683
1.05963
0.672086
1.13989
1.12806
1.17499
0.842623
1.22918
0.760567
1.26335
1.08572
0.75312
0.894555
0.860336
0.73416
1.25273
1.16181
1.27221
1.06661
0.91367
0.744367
1.20694
0.686327
1.09937
1.01023
1.08838
1.16034
1.06555
0.687839
1.16693
0.693692
1.08681
1.05689
0.888404
0.730075
1.10082
1.29908
0.823932
0.794335
1.21223
1.17142
1.12933
0.99819
0.99344
0.854821
1.07735
1.17332
0.884514
0.894098
0.718637
1.22824
1.09678
0.948418
0.919567
1.15014
1.20567
0.731124
0.922913
1.14137
1.20558
0.736759
1.18499
1.07594
0.667198
1.0733
0.843575
1.43177
1.06208
0.651648
0.204934
1.49118
0.583255
1.73159
1.09893
0.984834
0.77983
1.11105
0.852402
0.791015
1.16325
1.20078
1.10951
0.876137
1.36362
0.626382
1.28347
0.778034
0.79367
1.09147
1.10716
0.724946
0.968651
1.18659
1.14845
0.973473
0.865791
0.971953
1.05585
0.990239
1.10626
0.844424
0.991588
0.956266
0.67963
1.36609
1.3063
0.792612
1.39252
0.506026
0.986478
1.1529
0.663897
1.18415
0.915512
1.19638
0.717916
1.17743
0.765409
0.349434
1.3608
1.53081
0.590229
0.835393
1.30613
1.26336
0.934986
1.069
1.32617
0.658063
0.668914
1.06761
0.970511
1.27823
1.13017
0.983105
1.19605
0.677763
0.905707
1.18273
0.69594
1.22629
1.27703
0.946937
0.578274
1.19933
0.691065
0.96798
1.04726
1.28364
1.1687
1.19146
0.633891
1.01381
1.10786
0.7742
1.24179
0.876289
0.787521
1.14565
1.13914
0.948861
0.732397
1.12303
1.17365
0.97577
1.15645
1.05965
0.653274
1.12625
0.772475
1.1319
1.14953
0.965855
0.777221
1.17502
0.858369
1.19708
1.03015
1.15451
1.1147
0.707172
1.08734
1.75702
0.609105
0.541698
0.979224
1.24179
0.772301
1.01087
0.515092
2.18935
0.265246
1.02743
1.05853
1.35038
0.661967
0.914142
0.748225
1.29731
0.506516
1.45266
1.0892
1.13412
0.600747
1.17657
0.817831
1.20011
0.781752
1.20366
0.923594
1.16636
0.694938
1.22576
1.24621
0.966363
0.777551
1.026
1.17428
1.17623
0.658331
0.99762
0.654406
0.882151
1.37255
1.07644
1.49318
0.724305
0.453672
1.3344
1.24633
0.862935
1.34972
0.543956
0.865308
1.27607
0.576674
1.27611
0.987618
1.07098
0.659873
1.26835
1.22585
1.05265
0.560528
1.16892
1.00232
1.00345
1.31126
0.669851
0.941592
1.07953
0.732769
1.24678
1.14568
1.0042
0.92387
0.917049
1.39601
0.53377
0.713108
1.3274
1.14646
1.06144
0.652934
1.13309
1.41052
1.13937
0.906068
0.546065
0.712387
1.21251
0.859636
1.22114
0.339012
0.625207
1.34822
1.68885
1.19784
0.641435
1.16148
0.998252
1.23214
0.643058
1.18526
0.928278
0.731443
1.17769
1.49485
0.585546
1.21884
0.637462
1.19101
0.942786
1.23362
1.10288
0.935854
0.730365
1.31373
0.811145
1.06466
0.784656
1.07458
1.05763
0.836048
1.03567
0.745196
1.192
1.13476
0.934911
0.812024
0.886573
1.13212
1.18284
0.653858
0.970523
1.15021
1.21384
1.15103
0.984853
0.87633
0.97066
0.886379
1.18237
0.821464
1.12424
1.13555
1.07425
1.10271
0.674713
0.821027
1.43115
1.07698
0.652408
0.156818
1.53995
1.77861
0.536131
1.06498
1.16522
1.10172
0.666389
1.0612
1.15865
1.11228
0.663782
1.21078
0.717551
1.14462
0.932805
0.650223
0.94135
1.18684
1.21052
1.20401
0.719142
0.926483
1.15707
0.797161
1.21621
1.08499
0.907239
1.22365
1.12432
0.95151
0.689619
0.750149
1.2329
0.852293
1.17223
0.655964
1.41038
1.05739
0.862663
0.622659
1.66946
1.45733
0.259568
0.908674
1.1923
1.19092
0.715496
0.718555
1.14069
1.14497
1.00157
0.798179
1.21689
1.0876
0.902173
1.38137
0.828046
0.653469
1.12013
1.54279
0.637481
0.473968
1.34938
1.1844
0.884454
0.707868
1.23167
1.21887
1.11842
0.964928
0.6869
1.20774
1.13385
0.678595
0.982892
0.922221
1.08829
0.754306
1.23307
1.08976
1.22929
0.743347
0.933214
0.932953
1.15128
1.1655
0.76237
0.664952
1.38763
1.0363
0.899075
1.06458
1.10141
0.707308
1.11086
0.685598
1.60242
0.300868
1.41843
0.739997
1.18364
0.954099
1.12814
0.742974
1.18211
0.945329
1.13714
1.09656
1.11293
1.00005
0.764824
0.714677
1.13546
1.14321
1.01126
1.15024
1.16262
0.75027
0.948232
1.08927
0.791984
1.11277
0.979609
1.15517
0.74999
1.14241
0.965801
0.967209
0.743171
1.14786
1.1525
1.19904
0.747067
0.909641
1.1524
1.11979
1.03096
1.01562
0.805221
0.798842
0.941337
0.920645
1.33492
1.12349
0.858459
0.707515
1.32009
1.2693
1.15746
0.720968
0.860351
0.923831
1.00949
0.777088
1.28754
0.827037
1.19704
0.861241
1.12536
1.21172
0.820511
0.799745
1.17143
1.20067
0.844299
0.848156
1.11792
1.14824
0.706565
1.11939
1.02467
1.18612
0.733575
1.19358
0.894852
1.13947
0.901484
0.79262
1.17961
0.912217
1.15313
0.933963
0.999799
0.650556
1.4054
1.07788
0.851263
1.2783
0.596829
1.34876
0.764175
1.05867
1.27658
0.94376
0.714195
0.636555
1.62134
1.41919
0.330458
0.505511
1.24048
0.938507
1.31373
0.81697
1.19854
1.3615
0.611822
0.94014
1.2501
1.04037
0.769292
0.694408
1.09879
1.04814
1.16156
0.535195
0.875025
1.26149
1.32357
1.29819
1.05209
0.640532
0.993629
0.689297
1.28823
0.982587
1.02743
1.02901
1.11447
0.701769
1.13708
1.30511
0.550072
1.24861
0.897656
0.764418
1.14392
0.98497
1.08926
0.801279
1.06139
1.20953
0.936191
1.13739
0.976148
1.18481
0.688982
1.16072
0.761335
0.892028
1.19503
0.723132
0.996558
1.15131
1.13718
0.929023
0.735387
1.21395
1.12673
1.05298
1.06551
1.20071
0.709848
0.998305
1.13189
0.691093
1.1642
0.727391
1.15301
0.994288
1.13382
1.06931
1.02994
1.19684
0.735451
1.06357
1.09454
0.866831
0.975114
1.15258
0.782368
0.881312
1.19391
1.14125
1.17191
0.742719
0.952521
1.17501
1.04789
0.634283
1.14338
0.679593
1.35752
0.877273
1.09359
1.41303
0.858916
0.846335
0.874091
1.23029
0.749598
1.18956
0.838412
2.52603
1.11438
-5.23694
5.60125
1.0615
1.11841
0.732309
1.08766
-0.374778
-0.0269464
-3.91062
8.3597
-0.838675
9.09057
-4.49171
0.27435
1.328
1.53196
0.523687
0.62158
-4.93566
5.09532
0.701672
3.05521
0.956322
0.683506
1.07489
1.27501
1.24766
0.977577
0.580299
1.19457
0.822982
1.12937
0.650534
1.37598
1.08065
1.17198
1.06899
0.680816
0.909178
1.09038
0.775042
1.2262
0.914832
1.08774
0.77517
1.22341
0.936445
1.12315
1.20374
0.74197
0.285269
2.18224
1.48298
0.0215427
1.83558
0.34778
1.06688
0.777081
0.620063
0.876277
1.22317
1.26857
1.10142
0.886043
1.22836
0.786508
1.17659
1.04789
0.566586
1.20927
1.15386
1.06815
0.710604
1.07547
1.07143
1.15348
0.706272
1.07315
1.07168
1.16388
1.0858
0.678376
1.08218
1.15124
0.687772
1.07827
1.42277
0.626682
1.23192
0.692861
1.03855
1.13906
0.857957
0.929541
1.16287
0.828553
0.581997
1.42012
1.05647
0.701121
1.15639
1.09115
1.17988
0.780921
0.823003
1.22209
0.744906
1.08658
1.0371
1.11282
0.739721
1.16807
1.09625
0.979815
0.864299
1.11575
0.80142
1.22246
0.752307
0.975338
1.22058
1.04874
0.85318
1.16328
1.39356
0.583202
0.760171
1.16126
0.9767
1.0872
2.49587
-0.832268
1.57973
0.766707
1.15926
1.22993
0.999376
0.611353
1.06992
0.943533
1.26353
0.715864
1.31528
0.903599
1.10467
0.662973
-0.845464
2.32217
0.571247
1.91085
1.35095
0.547524
0.810993
1.28293
0.684201
1.08927
1.17159
1.05786
1.13145
1.12728
0.799969
0.976536
1.14435
1.16103
0.739814
0.963461
1.05101
0.703146
1.16488
1.08779
1.12929
0.75895
1.10606
0.984787
0.635159
1.15792
1.17266
1.03802
0.729013
1.18257
1.2347
0.863064
1.14966
0.667136
1.11486
1.05608
1.09597
1.04596
0.789689
1.05205
0.999647
1.05176
1.18097
0.784112
1.1767
1.1474
0.920093
0.76714
0.678682
1.15174
1.03328
1.1216
1.02934
1.10903
0.706156
1.16117
0.975646
0.769362
1.06956
1.17707
0.732327
1.12887
1.11345
1.00441
0.764706
1.16752
0.659596
1.38843
0.937607
1.17355
1.19755
0.69846
0.785524
1.16005
0.646738
1.38478
0.740676
0.974284
1.15458
1.14257
0.615907
0.508136
1.33902
1.54002
1.33653
0.558897
1.56732
0.54176
1.00853
1.18701
0.619487
1.17685
0.9986
1.17901
0.632344
1.18007
0.570147
1.55282
0.554104
1.32739
1.30293
0.765001
0.697215
1.17833
0.445603
3.18687
-0.394729
0.765687
1.16091
0.69875
1.10781
1.03739
0.662329
1.17084
0.95841
1.21946
0.699138
1.07841
1.05808
1.17852
0.798488
1.49298
0.934498
0.763146
0.65213
1.41597
1.07049
0.877939
0.849555
1.135
0.785666
1.23148
0.682578
1.10548
1.16013
1.05195
1.05826
1.08717
0.989552
0.842009
1.20078
0.971186
1.11232
0.704013
0.718312
1.10258
0.976479
1.18985
0.970534
1.07434
1.19041
0.756711
0.935996
1.15721
1.14227
0.780634
1.09457
1.05873
0.98162
0.853047
1.16344
0.916285
0.800601
1.13681
1.07934
1.08921
0.698055
1.12736
1.0935
1.07598
1.08638
0.728993
1.37028
0.800849
0.57397
1.26263
1.09586
1.06608
1.08049
0.74176
1.12929
0.842713
0.830084
1.20615
1.18679
1.19314
0.699848
0.927826
1.27467
0.81062
0.521024
1.39799
0.971134
1.02492
0.655922
1.33233
1.20518
0.830233
1.09793
0.877637
1.10727
0.586825
1.18409
1.11856
1.07415
0.594433
1.18473
1.14242
1.17331
0.648735
1.15093
1.01517
0.672605
1.18255
0.948982
1.20583
1.20398
1.05916
0.573259
1.16294
1.18785
0.874347
1.11629
0.835788
1.24492
1.17238
0.637653
0.932132
0.763552
1.17987
0.978002
1.0675
0.725085
0.937004
1.24427
1.08718
0.664669
1.07471
1.18258
1.0783
0.776852
1.12013
0.864742
1.23841
1.08573
1.15356
0.556319
1.20994
1.34564
0.820787
0.588379
1.23025
0.995088
1.22305
0.710717
1.10732
0.857644
1.11702
0.809497
1.22078
1.09099
1.08502
0.701779
1.11354
1.18792
0.637058
1.13769
1.03505
1.17054
0.614495
1.09413
1.11543
1.31243
0.592799
0.482664
1.61098
0.73455
0.473805
1.34764
1.41425
1.22296
0.746783
1.08728
0.939073
0.762108
1.22079
0.932754
1.08308
0.870781
1.23141
1.10994
0.789664
0.701507
1.14719
1.08044
1.07288
0.802088
1.21209
1.06502
0.92876
1.0633
0.79447
0.992231
1.12135
1.10007
0.955422
0.698851
1.23619
0.965007
1.2062
1.05238
0.776852
1.15582
0.632723
1.04841
1.15781
0.784901
1.0678
1.2129
0.937815
1.07617
1.09393
0.686355
1.13873
1.09073
1.01217
1.16854
0.744338
1.06127
1.08883
0.988387
0.878051
0.769424
1.16974
0.871753
1.19736
0.719714
0.900009
1.18939
1.199
0.765424
0.937695
1.21728
1.07856
0.953959
0.757481
1.21195
1.07314
1.15365
0.724234
1.13117
1.00107
1.1632
0.712244
1.02524
1.10753
0.71319
1.1598
1.02958
1.10679
1.16023
0.921397
0.806918
1.12981
0.718401
1.16827
1.02481
1.10037
1.11137
0.545684
0.778853
1.56188
1.51482
0.73594
1.17134
0.565292
0.699415
1.14169
1.08003
1.07718
1.2842
0.850162
0.542537
1.37054
1.1254
1.21853
0.729852
0.930861
0.76813
1.13839
0.84961
1.24397
0.541532
1.25167
1.16498
1.04204
1.09465
0.758496
0.884856
1.26037
1.24675
1.01762
1.13005
0.606834
1.1225
0.774604
1.23961
0.862813
1.06954
1.19306
0.647597
1.09027
0.566635
1.3538
0.266019
1.81121
1.46985
0.187799
0.867356
1.43084
0.667497
1.56752
0.123275
1.60545
1.21023
0.815864
0.898609
1.08411
0.678585
1.13644
1.10405
1.0751
1.13726
0.782271
1.09299
1.0278
0.961328
1.13687
0.762761
1.15651
1.17354
0.805396
1.20843
0.816124
1.10996
1.16
0.715605
1.01333
1.18701
1.0841
1.06362
0.666895
1.19572
1.1679
0.685067
0.957668
1.21257
0.696931
0.958327
1.13613
0.741975
1.19429
0.948711
1.12027
0.810451
1.09889
0.882796
1.21444
0.706743
1.31848
1.48934
0.49096
1.76386
0.581529
1.09645
0.553122
0.653597
0.876754
1.08391
1.3679
0.759921
1.47821
1.17302
0.579049
1.1653
1.25368
0.979859
0.602487
0.837789
1.11415
1.16646
0.901262
0.79835
1.13773
0.945366
1.14093
1.27253
1.05889
0.944895
0.716502
1.23882
0.890216
0.771886
1.09882
0.745728
1.17161
1.06653
1.05873
1.07185
0.74953
1.07391
1.09064
1.07797
0.732114
1.10262
1.07944
1.20782
1.18275
0.925046
0.693126
0.937306
0.578434
1.30193
1.18465
1.15249
0.89204
0.776129
1.18983
1.12713
0.995426
0.730486
1.15805
1.19751
1.14548
0.868414
0.798265
1.1246
1.00069
0.729629
1.15776
0.904033
0.764514
1.1536
1.18808
0.760796
0.917301
1.15035
1.182
0.504012
1.33245
0.780558
1.43839
1.19509
0.894094
0.748971
1.17028
0.908389
0.698574
1.17565
1.2269
1.19179
0.669708
1.15921
0.984667
1.00109
1.12394
1.1514
0.706905
1.14103
1.20597
0.965546
0.675258
0.949621
1.03543
1.28934
0.718653
1.20764
0.540916
1.5969
0.63963
0.692646
1.07379
1.15632
1.07868
0.704732
1.11917
1.22167
0.957279
1.42193
0.655696
1.2683
0.623789
1.17585
0.9668
0.866358
0.997301
1.1961
0.731913
0.650179
1.39658
1.01092
1.16613
1.21479
0.606845
1.25922
0.702614
1.08408
0.945352
1.14392
1.05456
0.617997
1.17588
0.970936
1.08329
1.18666
0.748412
0.718976
1.16174
1.11392
0.988739
0.714994
1.14103
1.00808
1.1175
0.607607
1.20527
0.876624
1.30059
1.18281
1.0309
0.571518
1.21372
1.60582
0.675104
1.4071
0.320242
0.664458
1.04492
1.39438
0.884187
1.03753
0.990965
1.33874
0.609032
1.05147
1.08894
1.15823
0.710208
1.2386
1.09274
0.94182
0.729088
0.723076
1.27308
1.0593
0.937871
0.737372
1.0679
1.26787
0.922279
1.16122
0.602825
1.25861
0.978904
0.61847
1.13845
1.24403
1.00058
0.49442
1.68864
0.151061
1.76035
1.32885
0.647435
1.03316
0.973881
0.701548
1.15914
1.08013
1.06477
0.533128
0.798264
1.27692
1.39599
0.588418
1.17227
0.796888
1.43371
1.00381
0.720922
1.14774
1.13428
0.599955
1.15444
0.972158
1.27525
0.723385
1.09952
1.05573
1.10283
0.927449
1.27885
0.735162
1.05343
0.811876
1.21092
1.07425
0.91211
0.593688
1.34325
0.415515
1.65854
0.612873
1.17073
1.15374
1.05604
0.971931
1.15053
0.737783
1.14981
1.09682
0.723877
1.07204
1.09228
0.56519
1.1431
0.867944
1.42063
1.12603
0.700441
1.03077
1.14413
0.836514
1.22129
0.80152
1.14355
1.17528
0.583238
1.30206
0.93464
0.781439
0.931509
1.21563
1.07392
0.938562
1.18609
1.29909
0.579136
0.952003
1.28955
1.03858
0.711875
1.19494
1.04777
0.770414
0.98126
0.931166
1.12997
0.743206
1.20178
1.07894
0.712555
1.13017
1.07618
1.21231
1.13778
0.705508
0.948554
1.50953
0.779494
0.563302
1.14212
1.14036
0.921474
1.20336
0.741662
1.14794
0.918222
1.19862
0.742871
1.20099
1.03365
0.987283
0.777566
0.809317
1.04995
0.981462
1.12995
1.21337
0.644503
1.10046
1.04358
0.810194
1.05958
0.968526
1.13349
0.720517
1.10621
1.02438
1.16197
1.16985
0.707411
1.08497
1.04842
1.06803
0.764371
1.0616
1.09302
1.07975
1.08
1.11599
0.716645
1.23089
1.13254
0.954166
0.671343
0.7609
1.09201
1.2553
0.890401
0.711338
1.1746
1.11688
0.982275
0.748712
1.07773
0.907957
1.26184
0.625659
1.1263
1.23596
1.01301
0.984991
1.08465
1.19311
0.737171
1.19356
0.822951
1.19592
0.792635
1.08558
1.08371
0.718798
1.10115
0.543119
1.22222
0.882611
1.35574
0.530623
1.24305
1.37566
0.854964
0.701901
1.00178
0.975366
1.3124
0.689979
0.986186
0.993693
1.3197
0.69396
1.17668
0.988499
1.12679
0.978337
1.09569
0.74704
1.16522
1.08963
0.767178
1.074
1.05859
0.974666
1.14227
1.1569
0.733502
)
;

boundaryField
{
    insideCircle
    {
        type            zeroGradient;
    }
    outsideCircle
    {
        type            zeroGradient;
    }
    topAndBottom
    {
        type            empty;
    }
}


// ************************************************************************* //
