/*--------------------------------*- C++ -*----------------------------------*\
| =========                 |                                                 |
| \\      /  F ield         | foam-extend: Open Source CFD                    |
|  \\    /   O peration     | Version:  3.0                                   |
|   \\  /    A nd           | Web:         http://www.extend-project.de       |
|    \\/     M anipulation  |                                                 |
\*---------------------------------------------------------------------------*/
FoamFile
{
    version     2.0;
    format      ascii;
    class       volVectorField;
    location    "10";
    object      u;
}
// * * * * * * * * * * * * * * * * * * * * * * * * * * * * * * * * * * * * * //

dimensions      [0 0 0 0 0 0 0];

internalField   nonuniform List<vector> 
3012
(
(0.608197 0.307057 0.0900081)
(1.22652 -0.295702 0.504302)
(1.36595 -0.076079 -0.0129561)
(1.57941 0.526578 -0.428889)
(-1.83613 2.92309 -2.205)
(1.03746 -1.50085 -0.776512)
(0.357322 1.69331 2.42531)
(2.31602 0.911539 0.843894)
(1.46937 -0.197524 -0.398848)
(1.45992 0.0711553 -0.0346324)
(0.599335 -0.648891 0.0779099)
(0.761199 0.718107 0.523294)
(0.964244 -0.494914 0.256521)
(0.430534 0.216827 0.0234201)
(1.71671 -0.0113064 0.0598428)
(1.15713 0.830367 -0.430657)
(0.561854 -3.84774 -0.0313528)
(1.97284 -2.94663 -0.552318)
(6.08826 3.15788 0.319341)
(-5.4011 2.99379 0.622633)
(8.64069 -34.8843 -3.72472)
(46.5214 9.69247 -0.0167646)
(1.91511 0.00847311 0.0208538)
(-1.43426 10.7206 1.6762)
(2.02886 0.437952 -0.230098)
(0.992176 -0.698755 0.587556)
(0.599446 0.930929 -0.497088)
(0.388751 0.000299928 0.267127)
(1.42056 0.0654948 -0.211526)
(0.782056 0.128266 0.422807)
(0.952832 -0.50323 -0.220958)
(0.974736 0.133547 0.19273)
(0.933939 -0.438793 -0.288372)
(0.900249 -0.0180838 0.363088)
(1.31834 0.0368588 -0.166784)
(0.847661 -0.0264238 0.225343)
(1.86994 -0.685798 0.72146)
(1.70494 -0.12771 -0.204122)
(0.340859 -0.247403 0.263584)
(1.64511 0.766719 -0.610558)
(0.950783 -0.50824 0.50781)
(1.79006 0.177296 0.0469178)
(0.787313 1.08021 -0.900419)
(0.241944 0.0717622 0.0218846)
(1.03519 -0.216657 -0.336454)
(0.938886 -0.0341384 0.280539)
(1.2166 0.0959712 -0.131755)
(0.995596 0.0116784 0.281684)
(0.503858 0.185781 0.302776)
(0.820581 -0.343475 0.317287)
(1.256 0.382849 -0.143756)
(1.21337 -0.223973 -0.37401)
(0.709637 0.228804 0.0917371)
(0.760367 -0.548542 0.39954)
(0.959239 0.403334 -0.30735)
(1.58965 0.0484216 -0.0422173)
(1.81679 0.24553 -2.68958)
(2.24039 -0.24547 0.521349)
(2.36714 0.410816 2.7277)
(2.78648 -1.08156 -0.457863)
(-0.726852 2.34453 -1.51987)
(2.57944 0.56454 0.208168)
(1.29098 -0.318108 1.61789)
(-0.0740882 -1.5294 -0.133916)
(0.722709 -0.558884 0.248546)
(0.383919 0.4723 0.0509214)
(1.78582 -0.355757 0.0161834)
(1.54065 0.857999 -0.353811)
(0.291765 -0.931899 -0.053968)
(2.27011 -0.970331 0.927941)
(0.0836015 0.591121 -0.434559)
(1.78216 1.25453 0.10352)
(0.751227 -0.39102 0.496132)
(0.798238 0.31665 0.0527665)
(1.77679 -0.134789 -0.0667477)
(1.21782 0.499647 -0.266718)
(1.84474 -0.181389 -0.22193)
(0.365 0.0257019 0.452045)
(0.384005 0.243654 -0.056288)
(0.048005 -1.35412 0.0135562)
(0.746386 -0.41555 0.218564)
(0.63779 0.675994 0.0595439)
(1.68957 0.594182 -0.342285)
(1.63635 -0.262423 0.0086214)
(4.08538 0.74118 -0.0625454)
(-0.070414 3.77862 -0.120408)
(1.4787 -2.44088 0.0814242)
(-1.98065 -0.676766 0.107816)
(0.924903 -0.459104 -0.262363)
(0.776678 -0.386925 0.418682)
(1.27948 0.226794 -0.200925)
(0.347179 0.0237756 0.215215)
(1.57743 0.50816 -0.0434792)
(1.22904 -0.34592 -0.411879)
(0.487921 -0.0908965 0.0856667)
(0.696882 0.717438 0.50306)
(0.899243 -0.620137 0.195529)
(1.45656 0.0850298 0.466987)
(1.75278 0.0531506 -0.368263)
(1.10953 -0.317718 -0.142515)
(-0.422467 -0.40621 -0.0750414)
(2.07254 -1.97403 1.79363)
(0.210366 1.09815 -0.824889)
(2.55347 1.45795 0.130942)
(0.69916 -0.81227 0.496773)
(2.24625 0.243072 -0.0298733)
(0.784523 0.407565 0.0161955)
(0.899191 0.526173 -0.309604)
(-1.8753 0.245843 -0.996078)
(3.3967 -4.66848 8.74875)
(-22.1743 -9.20961 1.026)
(-6.11691 15.0987 -5.43862)
(1.02419 0.184633 -0.0650762)
(1.08589 -0.0808793 0.175833)
(0.784025 -0.0982126 0.33023)
(1.0403 0.00790919 -0.431884)
(0.646513 1.50223 0.182757)
(1.21485 -0.45094 -0.170688)
(-0.555449 -0.143578 0.734111)
(1.54761 0.357712 -0.481721)
(1.07819 1.10298 -0.341246)
(-0.545475 -0.486967 -1.23394)
(1.84173 -0.633164 2.82902)
(1.06676 -1.32459 0.348635)
(1.57758 -0.683836 1.06867)
(0.827565 1.1374 0.302024)
(0.964413 -0.288377 -0.285913)
(2.91207 -0.254402 -0.942698)
(2.12909 -0.637607 -0.536504)
(-1.29898 -4.37654 0.671582)
(-0.9917 4.82506 0.746174)
(3.39748 -0.546786 -0.739478)
(0.196975 -0.181887 0.776781)
(1.50176 -0.304885 0.615793)
(0.421103 1.13397 -0.641076)
(2.63759 -0.438955 -0.566749)
(3.58087 2.41664 -0.735607)
(-1.06371 1.44226 1.35939)
(0.856662 1.71604 0.816168)
(-0.569841 -1.3796 -1.37257)
(1.41205 -0.421007 -0.129981)
(1.10869 0.701124 -0.874846)
(0.2473 -0.255378 0.184546)
(0.878836 -0.462036 1.04609)
(-0.0592963 1.29818 2.8255)
(0.165063 -1.09357 0.694147)
(0.946249 -0.724897 -2.92118)
(3.18245 1.10476 -0.653552)
(0.968235 1.51522 2.5654)
(0.118518 -3.14296 0.811054)
(2.53894 0.497699 -2.75802)
(0.641621 -1.51756 -0.731339)
(1.68164 -0.168887 -0.410425)
(1.18693 0.72773 -0.0721012)
(0.289477 0.210745 0.306913)
(0.785854 -0.703 0.189935)
(0.357451 0.262008 0.272437)
(0.705027 -0.551488 0.335733)
(1.1945 0.303623 -0.152201)
(1.20609 -0.203082 -0.34956)
(-0.60988 0.479156 -1.03643)
(-22.6557 -14.9375 0.988809)
(-10.5637 16.3105 -2.578)
(5.15653 -5.69022 3.79544)
(0.375483 -0.387305 0.402139)
(1.63709 -0.67522 1.11354)
(2.18639 0.490715 -0.354034)
(0.780834 1.20254 -0.940578)
(1.13041 -0.579115 -0.199044)
(0.791125 -0.240768 0.399817)
(1.4006 0.116584 -0.186485)
(0.770558 0.0377715 0.156565)
(2.61117 2.53302 2.74719)
(2.02076 -0.034896 -0.677981)
(2.54932 0.671167 -2.86145)
(-0.434542 0.0153707 0.740879)
(0.983433 -1.23633 -1.01405)
(-0.536269 1.23392 1.00828)
(0.414172 0.217917 0.332553)
(2.92335 2.23991 -0.273208)
(-1.067 -0.549245 0.642712)
(1.93867 -1.97493 0.780487)
(3.07901 0.158508 -0.600384)
(1.18013 2.18152 -0.677445)
(-0.0214356 0.82608 0.122513)
(-0.525027 -1.32057 0.129224)
(1.44069 -0.431749 0.0593317)
(0.846633 0.156449 -0.1003)
(1.3172 -0.565855 0.0463012)
(0.958384 0.172995 -0.0873491)
(-0.102755 1.62478 0.185817)
(-1.32607 -1.21343 0.117136)
(-2.51458 -0.661697 -0.65215)
(-40.217 -23.4579 0.632679)
(-15.4771 27.691 -7.33032)
(7.30578 -9.38281 8.10977)
(0.912987 0.0302944 0.176901)
(0.750438 0.00497779 0.461186)
(1.30093 0.00687886 -0.225606)
(0.982579 -0.513666 -0.17895)
(0.734994 -0.71173 0.0921188)
(0.403227 0.643177 0.0749497)
(1.5994 0.82061 -0.188202)
(1.905 -0.224418 0.0145481)
(0.936549 -0.463314 0.289824)
(1.57149 0.0811022 0.0613788)
(0.51632 0.319047 0.0211115)
(1.15427 0.631932 -0.388893)
(0.076748 0.232605 0.249039)
(0.653608 -1.15136 0.0875273)
(2.16444 -0.480105 -0.381378)
(1.36803 0.983932 -0.0296283)
(-0.238096 0.717818 -1.7046)
(1.12813 1.18877 -0.118846)
(0.153697 -1.28387 0.121459)
(2.19344 -0.242035 3.89853)
(1.50873 -0.301966 -0.0013228)
(1.59977 0.321658 -0.203427)
(0.821675 -0.407494 0.16345)
(0.771544 0.465871 0.07574)
(0.0319675 -0.212793 0.237427)
(0.941831 0.99882 -0.728007)
(1.83563 -0.347885 -0.224777)
(0.933828 -0.877009 1.12861)
(1.25133 -0.589572 -0.168088)
(1.43824 0.0892467 -0.241591)
(0.969082 0.246672 0.120022)
(0.620755 -0.143607 0.52922)
(0.754978 0.291504 -0.484651)
(0.671251 1.1776 0.00509375)
(1.58847 0.2523 -0.139249)
(0.645977 0.342843 0.0338529)
(1.32698 -0.255872 -0.215507)
(0.864658 -0.425522 1.94264)
(1.11337 0.137469 -1.09472)
(0.727948 0.0456232 0.240326)
(0.780138 0.0336491 0.523685)
(1.10758 0.275695 0.122462)
(1.30593 -0.376005 -0.137814)
(1.4586 0.154813 -0.253085)
(9.72607 -12.476 -1.46058)
(17.034 10.3618 0.405823)
(1.38624 -0.387145 -0.388367)
(-1.62923 3.46437 -0.202496)
(11.2122 -4.01688 1.63798)
(1.05591 -3.36862 -0.553758)
(-30.4614 9.87985 -3.29025)
(-12.7627 -45.3146 0.550549)
(0.0813077 0.21348 0.168388)
(0.405793 -1.12991 0.119914)
(1.30513 -0.163044 0.0457307)
(0.938624 0.102478 -0.090192)
(1.57458 -0.425667 -0.0202192)
(0.141455 0.766487 0.175982)
(0.99372 0.424737 -0.0977933)
(-0.278808 -0.974141 0.128775)
(1.11079 -0.0846349 -0.0944465)
(1.28244 -0.239502 -0.37174)
(0.414353 -0.472089 0.145637)
(0.956017 0.260743 0.489893)
(1.33201 -0.161279 -0.363725)
(1.19205 0.500852 -0.244422)
(0.340199 0.050037 0.293229)
(0.943615 -0.490004 0.520039)
(0.618092 0.0433415 0.843911)
(1.13824 -0.3491 0.0908275)
(1.18726 0.253696 -1.78632)
(0.970992 0.283521 -0.00730937)
(-0.079119 0.907231 0.365657)
(1.3169 -0.364504 -0.0925571)
(-0.26082 -1.34753 0.114065)
(1.0958 0.0508394 -0.0830054)
(0.75226 -0.471032 0.464982)
(1.75577 0.0349012 0.0926113)
(0.808685 0.918508 -0.794604)
(0.419243 0.155588 -0.0122287)
(0.893492 -0.67051 0.275711)
(0.206332 0.365342 0.037592)
(1.93241 -0.0770152 0.0371833)
(1.31609 1.09403 -0.423655)
(0.519034 0.0616312 0.157074)
(0.831262 -0.564565 0.391791)
(1.04307 0.664888 -0.340179)
(1.69547 -0.116634 -0.0904081)
(1.7901 -0.368669 -0.439247)
(0.689603 -0.747311 0.196055)
(1.27601 0.81561 -0.0761285)
(0.252234 0.183579 0.303268)
(2.0742 -2.38505 3.29062)
(-1.89754 1.73223 1.11284)
(4.47875 2.38955 -3.01804)
(2.9098 -0.846433 -1.12116)
(0.90836 -2.8057 2.67079)
(-0.476674 3.38442 -2.40228)
(-1.87186 -1.11149 1.28137)
(4.95448 0.492771 -1.24924)
(0.991616 -0.15619 -0.340627)
(1.08241 0.187234 -0.125296)
(0.570035 0.0961786 0.288661)
(0.792658 -0.241514 0.252299)
(0.768738 0.650847 0.364142)
(1.3461 -0.338528 -0.117249)
(-0.00622432 -0.23794 0.0822008)
(1.06789 0.324438 -0.0544419)
(0.661415 0.161422 0.389906)
(1.02858 0.115554 -0.0763628)
(0.765783 -0.321878 0.175948)
(1.09237 -0.0631985 -0.518537)
(0.685214 0.222898 0.132451)
(1.23067 -0.825379 0.353397)
(1.5496 0.431413 -0.39987)
(1.82615 -0.102089 -0.00956337)
(1.25508 -0.15733 -0.0974783)
(1.27337 -0.163879 -0.357651)
(0.621725 -0.46602 0.156055)
(0.983887 0.26134 0.488989)
(0.662062 0.629186 -0.0767824)
(1.56197 4.12679 0.595535)
(0.775951 -1.26493 -0.034938)
(-4.77096 1.53678 0.0933699)
(1.91722 -1.08373 0.830692)
(2.31435 1.18191 -0.0273406)
(-0.262721 -1.05322 0.0862662)
(-0.419817 1.52988 -1.87987)
(2.92191 -0.171139 0.171478)
(0.574908 -6.7104 0.147175)
(-3.83123 -0.0963626 -0.189619)
(0.782548 0.030539 -0.120702)
(0.849008 -0.199893 0.175271)
(0.889425 -0.0955308 0.0511081)
(1.0738 0.100095 0.13224)
(0.84557 0.00311705 -0.119085)
(3.04129 -1.24451 -0.0241843)
(-0.260828 -1.72616 0.205833)
(2.82791 2.24328 -0.475448)
(-0.849241 1.82176 0.06994)
(0.116247 -0.318247 0.532478)
(1.92471 0.158933 -0.282489)
(0.858733 0.434613 0.0951888)
(1.38091 -1.4826 -0.124523)
(0.622955 0.215155 0.560205)
(1.38823 -0.362061 -0.271804)
(0.921035 0.306246 0.0943158)
(0.282416 -0.476255 -0.133871)
(3.66574 -1.6081 -0.00455484)
(-0.0322895 -1.1688 -0.0115203)
(1.9439 1.47879 -0.0471929)
(0.725826 0.480091 -0.041886)
(-3.58062 -0.0229262 -0.737717)
(0.864318 -5.42672 -0.151163)
(7.6136 -0.0925773 1.78975)
(0.883614 5.57887 0.191384)
(0.104224 0.294213 0.302942)
(0.648794 -0.888279 0.070769)
(1.86891 -0.415608 -0.474628)
(1.36552 0.922199 -0.0208712)
(1.81738 -0.122501 -0.23292)
(1.20447 0.837051 -0.0899401)
(0.893338 -0.924365 0.185758)
(0.0849562 0.179623 0.1776)
(1.75854 0.0139524 0.124054)
(0.826381 -0.540123 0.316568)
(0.775136 0.251788 -0.173838)
(1.0435 0.36418 -0.213808)
(0.215729 0.294296 -1.47836)
(0.667138 -0.60716 -0.176609)
(1.63896 1.23192 0.233042)
(2.05423 -0.731166 3.27701)
(1.27467 -0.115197 -0.265502)
(1.39076 0.34684 0.0563606)
(1.04659 -0.17325 -0.04391)
(0.734051 0.318956 0.492591)
(1.34595 -0.0051762 -0.277129)
(1.14835 0.335303 0.073384)
(0.767037 0.395978 0.543207)
(0.859881 -0.209343 -0.0575695)
(0.901144 0.0952873 -0.0920957)
(1.14677 -0.760957 -0.00395778)
(1.55118 0.0227725 0.129754)
(1.15732 0.0494321 0.0603359)
(0.75877 0.1614 0.0357198)
(1.16523 -0.137153 -0.241635)
(0.823556 0.536425 0.620335)
(1.35032 0.438619 -0.0200095)
(1.08002 -0.131209 -0.400325)
(1.06088 0.10864 -0.0958283)
(0.91153 -0.193266 0.197204)
(0.776223 -0.0119049 0.327829)
(0.620016 0.344828 0.271871)
(0.303146 -0.441781 0.143641)
(1.31621 -0.335544 -0.0814068)
(1.08421 0.261064 -0.107407)
(0.555199 0.664899 0.321708)
(0.210324 -0.709576 0.160082)
(1.34697 -0.218771 -0.185598)
(1.21993 0.101727 -0.11818)
(-12.2519 -9.36051 0.335794)
(-5.85275 8.67691 -0.55127)
(3.31601 -3.10407 1.06403)
(-0.253459 -0.231301 -0.322634)
(1.27358 -0.24038 0.0780412)
(0.916964 -0.258437 0.0785996)
(1.07973 0.322358 0.128807)
(1.18712 -0.00713348 -0.0738558)
(0.86595 -0.325712 0.289875)
(0.681272 0.256617 -0.00125598)
(1.05939 0.487176 -0.433888)
(1.4454 0.0361981 0.0970578)
(0.869173 0.596477 0.301413)
(1.38638 -0.119651 -0.0560259)
(0.530061 0.20412 0.0931762)
(0.667017 -0.0239917 -0.229693)
(1.36735 -0.23123 -0.114838)
(1.11941 0.147585 0.117536)
(0.951685 -0.228474 0.167409)
(1.18889 -0.242741 -0.060383)
(3.14867 -2.00674 -0.693897)
(-0.134715 0.0995109 -0.251678)
(2.32475 0.653908 0.252123)
(2.5919 0.0817815 0.850186)
(2.11307 0.521353 -0.0386002)
(0.81382 0.313392 -0.605747)
(1.07006 0.462494 0.0412721)
(0.82609 -0.625179 1.05911)
(-0.0261721 0.854571 0.0928677)
(0.944294 0.655901 -0.153525)
(1.42675 -0.0516803 -0.112156)
(0.0446133 -0.798888 0.409833)
(1.05081 0.668667 -0.0953173)
(0.449264 -0.482773 0.138951)
(0.916285 -0.628052 -0.451389)
(-0.174501 -0.0147322 0.300193)
(2.61226 0.676755 0.0976518)
(1.05302 1.05163 -0.841705)
(1.10387 -2.02441 1.59904)
(-0.352106 0.611306 -0.0528855)
(1.14207 -0.495748 0.127271)
(0.861204 -0.125859 0.126963)
(1.10702 -0.00612636 -0.0757171)
(1.33858 0.0743207 -0.0184851)
(0.980806 -0.384356 0.156475)
(0.773526 -0.159897 0.0572871)
(1.01939 0.018719 -0.107894)
(1.17106 -0.0774036 0.0458264)
(0.359762 -0.477962 0.231855)
(1.59996 -0.626901 -0.208181)
(1.22535 -0.962113 1.26873)
(1.2231 0.305276 -0.714)
(1.07835 -0.0708017 -0.119402)
(0.953313 -0.00745323 0.0317174)
(0.962777 -0.52687 0.167081)
(1.35835 0.00426559 0.162508)
(1.57955 1.46789 1.64016)
(0.575406 -0.379666 -0.732483)
(0.303073 0.712501 -0.0997967)
(2.1112 -0.370818 0.13008)
(-4.41294 -2.88807 0.851145)
(6.47997 -0.378058 -1.79402)
(2.95959 2.47828 2.03815)
(-2.11208 0.500187 -0.842448)
(0.774631 -0.0485853 -0.100428)
(2.01848 -2.41946 0.071454)
(0.489031 0.829513 0.0567007)
(3.85064 1.43952 0.13861)
(0.74671 -0.940845 0.152635)
(2.13671 -0.171316 -0.329642)
(0.0996739 0.187331 0.236557)
(1.11666 1.12621 -0.0430096)
(0.232076 -0.417177 -0.0130489)
(0.0859056 0.63578 0.343089)
(1.51812 -0.492412 -0.328168)
(0.999595 0.754919 0.0727226)
(0.918343 -0.0943799 -0.0568849)
(1.01073 0.109 -0.115182)
(0.831865 -0.223806 0.16676)
(1.24402 -0.15737 0.188707)
(1.42407 6.66627 -0.421776)
(-8.69989 1.34186 0.151001)
(0.640346 -2.39148 0.974691)
(0.451411 0.495496 -0.135203)
(1.84165 1.15475 0.0398871)
(0.85717 0.0954424 -0.298093)
(1.44051 -0.240993 0.705114)
(1.34192 0.513113 -0.0236734)
(0.845417 -0.538569 0.217951)
(0.606687 0.353927 0.0464091)
(1.35717 0.699652 -0.25785)
(1.81578 -0.163786 0.0359633)
(0.839883 2.10771 0.545088)
(0.184716 0.496215 -1.56031)
(5.69588 1.44142 1.9151)
(1.69963 -3.76561 -0.471333)
(1.60337 0.859026 -0.0206108)
(2.63618 -0.737887 0.662209)
(0.543132 0.286757 -0.159986)
(2.81476 3.12484 0.0326005)
(0.646722 1.55961 0.145979)
(6.97689 1.49871 0.0990557)
(2.1546 -4.8547 -0.196739)
(0.797393 0.0170798 -0.0699764)
(1.29018 -0.149495 -0.215889)
(0.928011 0.0413001 0.277896)
(1.07917 0.0381278 0.217569)
(1.19064 0.208205 -0.122811)
(0.912318 -0.362396 -0.349418)
(0.85334 -0.246621 0.372526)
(1.4002 0.119767 -0.189712)
(0.555786 0.160547 0.289058)
(-1.40241 -2.07209 0.542024)
(1.55545 0.762414 -2.58477)
(5.06078 -2.59625 2.90051)
(1.64663 1.71742 -0.513514)
(-14.6433 4.09242 -2.80715)
(2.84226 0.139705 -0.747116)
(47.8644 -15.803 -3.15639)
(22.7 61.0972 0.761173)
(0.924145 0.0285391 0.308678)
(0.991002 -0.333639 -0.151744)
(0.934737 -0.060268 0.18116)
(1.26817 0.015312 -0.150362)
(2.95141 15.6281 -8.79528)
(5.63072 -0.239765 -0.398574)
(60.1257 -6.17311 0.388891)
(-2.37515 -37.0086 13.5117)
(-6.3446 6.59882 -0.573345)
(4.29381 3.69203 -0.0992255)
(28.1605 31.0689 0.103153)
(20.1593 -16.2848 2.52082)
(1.34288 -0.0812635 0.152263)
(1.24096 0.243621 -0.280972)
(0.908849 0.229051 -0.0362366)
(0.925689 -0.249403 0.218422)
(3.2452 -0.0444867 -0.283753)
(1.4703 -0.542834 0.484497)
(2.69277 0.982096 1.51835)
(1.6895 1.24944 -1.55993)
(1.07132 0.0209886 0.895535)
(1.14428 0.422322 0.0162711)
(1.02662 0.0607696 -0.392957)
(1.28655 0.470586 -0.00891342)
(0.952635 -0.0283432 0.230555)
(1.04321 -0.100327 -0.244565)
(0.717014 -0.0240843 0.224176)
(1.09151 0.287042 -0.107135)
(1.08288 0.175293 -0.317844)
(0.813474 -0.265893 0.290847)
(0.919895 0.264155 -0.041788)
(1.30471 -0.0118022 0.140641)
(1.33337 -0.206986 -0.454078)
(1.1129 0.477796 -0.103456)
(0.764675 -0.524289 0.243849)
(0.360457 0.120487 0.349051)
(0.897583 -0.0136222 0.793665)
(1.39506 0.348945 0.0111701)
(1.73082 0.072799 -0.00448284)
(1.18267 0.149939 -0.369694)
(0.693238 0.341718 -0.119772)
(1.67441 -1.01905 0.191267)
(2.05577 0.802866 0.125536)
(0.795074 -0.133362 -0.0794917)
(0.550547 0.265073 0.0122096)
(2.50486 -1.09194 0.0126726)
(2.04387 1.43364 0.134271)
(0.799043 -0.406651 -0.0891079)
(1.23724 0.199492 -0.38173)
(0.898175 0.16812 -0.0372891)
(0.994234 -0.239198 0.31944)
(1.28312 -0.0662322 0.145674)
(1.09151 0.237373 0.0638915)
(0.758108 0.380618 -0.435774)
(1.99192 0.855596 -0.070073)
(1.33384 -0.377874 0.823047)
(1.04548 0.0356645 0.270395)
(1.02784 -0.078216 0.245781)
(1.19265 -0.160713 -0.257699)
(1.18466 0.162078 -0.124315)
(0.911157 -0.347258 0.268554)
(0.675205 0.204076 -0.00950701)
(1.18888 0.633149 -0.438714)
(1.60846 -0.0914514 0.12402)
(3.2241 1.00267 0.0936115)
(0.493326 1.63736 -0.851506)
(1.92194 -2.57139 1.64755)
(-0.861192 -0.41468 -0.0491856)
(1.73709 0.400056 1.62806)
(4.84318 -1.7263 4.96623)
(-1.00705 -7.78212 -4.422)
(-3.85063 7.59777 -1.58456)
(1.21743 0.289939 -0.356005)
(0.850709 -0.281545 0.31076)
(0.76538 0.270016 -0.00752733)
(1.27855 -0.0948808 0.102699)
(0.898934 0.0426961 0.37408)
(0.89107 0.0953954 0.150554)
(1.27195 0.12489 -0.178475)
(1.04115 -0.223339 -0.144895)
(0.36241 -0.161162 0.0422021)
(0.643051 0.600373 0.50768)
(1.23876 -0.415662 -0.327808)
(1.33707 0.467587 -0.00570002)
(2.40958 0.634646 0.562558)
(0.852724 1.92926 -0.410861)
(-0.339933 -2.18879 1.80206)
(0.211172 -0.947903 -1.87322)
(0.598762 -0.667124 0.3395)
(0.594012 0.429355 1.53315)
(2.39284 1.00314 -0.290757)
(-0.838202 1.96837 -1.32018)
(1.41234 0.11362 -0.20391)
(1.05058 0.0756775 0.183974)
(0.839151 0.107015 0.349526)
(1.12919 -0.428784 -0.152987)
(1.15582 -0.136655 -0.303439)
(0.767964 -0.298701 0.287312)
(0.753297 0.186463 0.239102)
(1.13413 0.10176 -0.133496)
(1.56179 0.0857587 -0.137399)
(1.12857 0.090718 0.447323)
(1.28938 -0.370863 -0.40111)
(0.967394 -0.0249996 0.247017)
(0.347596 0.234916 0.385437)
(1.16267 0.611929 -0.0445168)
(1.6734 -0.26217 -0.570341)
(0.655312 -0.749647 0.110078)
(0.201699 -0.407828 0.144449)
(1.54541 0.789742 -0.18441)
(1.0199 -1.04022 0.540039)
(2.01009 -0.888785 -0.213808)
(1.36069 0.128543 -0.160029)
(1.40574 0.0893502 0.149479)
(0.675042 0.08773 0.250512)
(1.54397 -0.420967 -0.0993707)
(0.40052 0.143734 0.413065)
(0.825528 -0.413707 0.136783)
(1.11111 0.518517 -0.0563702)
(1.29722 -0.122936 -0.619769)
(0.574847 1.2859 -0.0265315)
(2.54544 1.01829 -1.06027)
(1.62196 -1.24466 0.0944537)
(0.0611572 -0.0970189 0.669964)
(0.85082 0.0437112 0.352554)
(1.30431 -0.353289 -0.203307)
(1.15184 0.0593438 0.190049)
(1.30633 0.134959 -0.157133)
(0.474683 -0.31258 0.633946)
(-0.34316 -0.113647 -0.0673274)
(1.83033 1.19928 0.130826)
(-0.87194 1.88009 -0.517814)
(1.22957 0.0134149 -0.191849)
(0.999355 0.105156 0.157585)
(0.997888 -0.220422 -0.128975)
(0.842723 0.0979705 0.330156)
(0.642882 0.0393261 -0.634168)
(0.128954 -0.482768 0.206553)
(1.53977 -0.864178 0.79943)
(1.04784 0.39286 -0.143412)
(-1.75712 -1.47157 0.826274)
(1.1356 -1.57955 -2.6935)
(0.863925 1.1246 2.78322)
(1.49858 -1.04459 -0.783985)
(0.387738 0.819048 0.18178)
(1.58247 -1.6227 -0.311037)
(2.52268 -0.270368 0.424096)
(2.05567 -0.158772 -0.152484)
(0.525681 -0.211651 -0.223921)
(1.37862 -0.415452 0.272184)
(-0.0168178 0.0480405 -0.249781)
(0.74051 0.814121 0.322965)
(1.90016 -0.317341 0.6795)
(0.951033 0.639866 -0.547801)
(1.73533 0.460683 -0.173935)
(0.749271 -0.413843 0.227805)
(1.37788 -0.428956 -0.274039)
(1.39198 0.577629 -0.253411)
(0.238439 -0.0101678 0.226899)
(0.934524 -0.561101 0.57125)
(1.34284 -0.383034 -0.311265)
(0.904598 -0.554263 0.469254)
(1.3264 0.458119 -0.211262)
(0.315327 0.00873631 0.258281)
(1.95364 -0.830833 -1.43665)
(-0.997343 -5.2297 0.91148)
(-4.63223 6.08802 2.13962)
(6.7064 2.29054 -0.844464)
(1.48796 0.183274 -0.180341)
(0.905789 -0.122181 0.378546)
(1.22032 -0.393956 -0.206005)
(0.870907 0.15734 0.175472)
(1.088 0.00939418 0.227047)
(1.10796 0.168916 -0.0892307)
(0.884792 -0.138009 0.282557)
(1.1119 -0.0736245 -0.252222)
(1.08141 -0.480167 1.62862)
(0.973668 0.494492 -0.929291)
(1.51477 0.789325 0.0534946)
(0.588235 0.648002 -0.00506807)
(0.195467 0.42614 0.00441874)
(0.877438 -1.32719 2.15135)
(2.29408 0.37254 0.0307524)
(1.00738 0.839668 -1.16871)
(0.93593 -0.642482 1.56504)
(0.693647 0.181059 0.173384)
(1.04243 0.159832 -0.870768)
(1.52525 0.0666673 -0.164236)
(5.30206 -0.364634 1.07478)
(-5.77288 -3.19214 1.73244)
(0.832392 6.77052 -0.800737)
(3.17346 0.880493 -1.50088)
(0.118009 0.484615 0.340519)
(0.596218 -0.714998 0.255336)
(1.20614 0.451037 -0.116046)
(1.28208 -0.112946 -0.423273)
(0.776404 -0.914206 1.62812)
(1.19698 0.447305 -0.980469)
(2.09312 0.15186 -0.104395)
(0.71473 0.532629 0.11779)
(0.665167 -0.963458 0.177479)
(1.9964 -0.237128 -0.498998)
(-0.00817141 0.277641 0.326675)
(1.19586 1.09098 -0.0872703)
(0.890721 0.43206 0.441521)
(0.890682 0.550504 0.212643)
(1.0449 -0.563045 -0.294806)
(-0.13359 0.462385 -0.19521)
(-1.10197 -0.712115 3.07981)
(1.5529 -1.50535 -0.0520884)
(1.62272 0.667871 -1.45455)
(0.254428 1.13232 0.105837)
(3.25843 -0.398766 2.2986)
(0.306837 -0.436123 -0.427918)
(-5.76254 0.19382 -1.99315)
(-0.476877 -9.43932 0.443098)
(-0.558828 -0.876066 0.238986)
(2.29433 -1.67709 2.03053)
(1.46492 0.320044 -0.173593)
(1.03715 0.375615 -1.79149)
(1.19793 0.153269 -0.291515)
(1.47898 -0.0438109 0.116713)
(0.877732 -0.429495 0.292601)
(0.995171 0.266488 -0.00355842)
(0.553285 0.372296 0.197968)
(1.07756 -0.641184 0.851602)
(1.31352 0.206203 -0.136358)
(1.23159 0.190798 -0.7275)
(0.476068 -0.264779 0.16168)
(1.02683 -0.232542 -0.443717)
(1.51476 0.171665 -0.119982)
(0.674134 0.721342 0.536974)
(1.61853 -0.767652 0.825048)
(0.461407 -0.014843 0.239887)
(1.68679 -0.394454 -0.193317)
(1.89259 0.570356 -0.7244)
(0.753069 -0.556187 0.558859)
(0.234485 0.39076 0.348436)
(2.3065 0.294262 -0.285412)
(0.879947 1.50228 -0.498635)
(0.565502 -0.713372 -0.0752248)
(1.00875 0.0242124 0.15706)
(0.643604 0.495076 0.230554)
(1.57265 -0.0924617 -0.180167)
(0.942792 -0.415105 0.767143)
(1.0128 0.343825 -0.409159)
(1.02754 0.2234 0.027894)
(1.89447 0.148689 -0.0328074)
(1.06032 -0.0391809 -0.0578659)
(1.14869 -0.971463 0.0788848)
(1.07893 0.144894 -0.0191406)
(2.01814 -0.0187173 0.103207)
(0.157134 -0.715677 0.173402)
(1.4898 -0.319493 -0.438975)
(1.17675 -0.0901599 -0.121518)
(0.94153 0.544545 0.53533)
(1.07349 0.414963 0.538097)
(1.21447 -0.121269 -0.231794)
(0.936325 0.361172 0.0183271)
(1.38368 0.453765 -0.000974525)
(0.734446 -0.93762 0.149917)
(0.354454 -0.00685216 0.145959)
(1.06672 0.011002 -0.105486)
(1.31652 -0.207107 -0.00755976)
(0.443507 -0.302429 -0.070789)
(0.467812 0.52182 -0.534409)
(2.01808 -1.06197 1.09306)
(1.95961 1.21806 0.117126)
(1.17022 0.0474988 0.127984)
(1.19065 0.0590297 -0.282591)
(1.02143 -0.296905 0.31719)
(0.921388 0.178608 -0.00509033)
(1.18029 -0.0205734 0.195915)
(0.925651 -0.139558 0.215189)
(1.10179 0.255252 -0.0680551)
(1.22559 0.0207366 -0.216671)
(1.11492 0.0386893 0.0934335)
(1.02674 -0.322589 0.0257213)
(1.17413 -0.174344 0.173555)
(0.93148 -0.0554535 -0.126887)
(1.48916 1.3538 0.0123536)
(2.2743 -0.366526 -0.144622)
(0.16607 -1.07089 0.018156)
(-0.119134 0.939711 0.0896101)
(-0.191801 0.14789 -0.140294)
(2.27176 -0.567299 0.123602)
(0.546894 -1.3286 0.159497)
(1.2575 1.18958 -0.0704791)
(1.23713 0.284546 -0.0109085)
(1.09341 -0.23563 -0.257437)
(0.4593 -0.0802128 0.034835)
(0.714749 0.615033 0.583375)
(0.507576 0.197524 0.137907)
(0.516491 -0.770819 0.146157)
(1.031 0.13432 -0.105992)
(1.38486 -0.178147 -0.0683121)
(1.03581 0.120546 -0.313056)
(1.05511 -0.118678 0.192549)
(0.745243 -0.0324432 0.273746)
(0.948906 0.168112 -0.0708335)
(1.02665 0.151765 -0.0909499)
(1.06041 -0.0837526 0.221718)
(0.832843 -0.0831766 0.34344)
(1.05794 -0.0101488 -0.420649)
(1.76653 -0.134119 0.0773334)
(0.51752 0.225148 0.0101992)
(0.851484 -0.489375 0.318449)
(1.18959 0.812208 -0.44024)
(1.12707 -0.408742 -0.190476)
(1.16899 0.388262 -0.026462)
(0.925082 1.08377 0.53148)
(-0.34026 0.222755 0.0492752)
(0.724526 0.494484 0.0409423)
(2.50736 -1.85171 -0.29072)
(0.872244 0.141017 -0.0592299)
(3.11674 1.8048 0.0872065)
(1.5466 0.573055 0.0756219)
(0.782565 -0.338091 -0.92948)
(-0.290668 -0.540256 -0.49656)
(-0.236936 1.35864 1.1023)
(0.827123 1.43854 1.59562)
(1.41894 -0.73523 -1.57749)
(-0.994039 -1.31117 0.463166)
(0.982322 -0.731234 -0.371047)
(1.79977 1.68705 -0.00166257)
(1.84765 -0.0736164 0.937921)
(1.396 0.582758 0.0137166)
(0.828144 0.175497 -0.297927)
(-0.173129 -0.256221 0.38045)
(1.63683 -0.231085 -0.319657)
(0.805555 1.04948 1.79726)
(0.702583 -0.299242 -1.75741)
(0.542851 1.06718 0.926949)
(0.32886 -1.33202 -0.046477)
(1.70075 -0.709044 -0.852797)
(1.76376 -0.361138 0.137163)
(0.500413 1.26555 0.0876002)
(1.49899 0.113738 -2.04592)
(0.94939 -0.70046 0.072506)
(-0.641116 -0.410333 4.59497)
(0.620261 1.57209 -1.9245)
(-0.233336 0.253442 0.769071)
(0.385411 -1.61426 2.21913)
(3.06561 0.0469984 -0.716856)
(0.985694 1.05061 1.38683)
(-0.453186 -0.55157 0.587802)
(1.18557 -0.784673 -1.33203)
(2.00484 -0.0182901 -0.529754)
(1.23992 0.416964 0.32275)
(1.74873 0.235475 1.48402)
(1.91217 -0.319436 -0.269677)
(1.07847 -0.215241 -1.48963)
(1.20829 -0.205607 -0.218352)
(1.08253 -0.00397843 0.28055)
(0.835938 0.238026 0.342329)
(0.740539 -0.26561 -0.228748)
(2.60158 -0.759489 -0.21873)
(-0.648642 -2.72125 0.368334)
(-0.628392 0.511083 0.468946)
(0.739274 0.73993 -0.452166)
(-0.24293 6.58809 0.436908)
(-4.64473 -0.762824 0.441269)
(6.06354 0.831068 -0.392758)
(1.45979 -4.33595 -0.197176)
(0.810559 0.0516289 0.148458)
(1.30189 -0.755671 0.696969)
(1.26714 -0.457737 -0.0736958)
(1.78732 -0.0638759 -0.636528)
(1.01265 0.0453878 -0.112906)
(3.40297 -7.77511 -0.794428)
(10.7543 3.08924 0.140155)
(0.264874 2.34562 0.366332)
(3.867 -1.50394 1.18746)
(4.1682 5.2257 0.0889875)
(-0.0211762 0.633369 -0.340187)
(1.77554 1.08782 -0.0776845)
(1.25233 -0.0809513 0.234815)
(0.699719 -0.049385 0.522226)
(0.932267 0.115853 -0.385797)
(1.22867 -0.185883 -0.193824)
(0.773911 0.0608855 0.12167)
(1.54556 0.317801 0.127455)
(1.42106 -0.430437 0.0497879)
(1.15517 -0.303991 -0.0790546)
(0.875722 -0.475545 0.146005)
(0.705339 -0.202687 0.0203899)
(1.06272 -0.00672274 -0.0976744)
(1.14324 -0.262414 -0.0128094)
(1.2985 0.0115183 -0.272593)
(0.894574 0.281208 0.527959)
(0.912879 -0.0590235 -0.0443866)
(1.08936 0.315708 0.059777)
(0.719433 -0.0870551 -0.169172)
(0.768138 -3.34726 -0.372433)
(1.42408 0.857267 0.115796)
(4.65823 -0.876754 0.195383)
(0.518979 2.65895 0.123722)
(1.5461 0.73363 -0.112507)
(0.570338 -0.149645 -0.424946)
(2.37756 1.12697 1.38378)
(0.959572 0.219277 0.189559)
(0.893488 -0.460832 0.172446)
(1.23857 0.0963986 -0.0665501)
(1.18936 -0.134561 -0.120426)
(1.22919 -0.523528 0.725561)
(1.86946 0.415787 -0.0823907)
(1.04313 0.365399 -0.377828)
(0.900166 0.216324 0.0818999)
(1.30598 -1.09733 0.506773)
(-0.347643 -0.32019 0.0516784)
(2.47059 0.458785 0.00738838)
(0.441848 1.78002 -0.969826)
(1.71736 -0.121611 0.0612975)
(0.684175 0.251169 0.028084)
(1.32746 0.603563 -0.287106)
(0.96251 -0.457734 0.240798)
(0.930454 -0.652427 0.15632)
(0.801529 -0.0541085 0.0690347)
(1.41987 0.0742195 -0.0146962)
(0.959292 -0.0252366 -0.105937)
(1.0392 -0.277048 1.01634)
(1.89722 0.522306 -0.025648)
(0.907902 0.24505 -0.481072)
(1.24716 0.37162 0.029695)
(0.508733 0.153591 0.336182)
(1.17607 -0.183762 -0.436419)
(0.812715 -0.342769 0.200169)
(1.17403 0.349049 -0.0871427)
(1.38619 -0.426089 -0.0881997)
(-0.258605 -0.217161 0.0699259)
(1.22174 0.492485 -0.0463969)
(0.601007 1.04408 0.346639)
(1.36401 -0.17358 -0.393634)
(0.441494 0.31959 0.289876)
(0.669813 -0.516617 0.252711)
(1.19358 0.421295 -0.102802)
(1.83706 -1.54837 0.653534)
(2.65798 0.915543 0.07872)
(0.486913 1.0036 -0.379109)
(0.175058 -0.452198 -0.0300581)
(1.08678 -0.171796 -0.176479)
(1.18803 0.112546 0.298388)
(0.988879 -0.121625 -0.256004)
(0.73811 0.102752 0.279452)
(0.953116 0.01651 -0.0672376)
(-0.0530792 -0.163076 0.0887519)
(1.53759 0.0352946 -0.0287992)
(1.01591 -1.5749 0.107941)
(1.1035 -0.365276 -0.164308)
(0.96581 0.247384 0.151234)
(0.694983 -0.0672036 0.526307)
(1.31215 -0.00412856 -0.26163)
(-0.146489 -0.697993 0.0265817)
(1.44194 -1.61126 0.117623)
(1.58316 0.133798 0.0601748)
(0.828212 0.128411 -0.0844872)
(1.42332 -1.21458 -0.169304)
(0.442629 0.916181 0.381344)
(-1.24041 -0.517455 0.018063)
(1.0512 0.510809 -0.0624741)
(1.33997 0.415364 0.00620437)
(1.20677 -0.177442 -0.283373)
(0.887288 0.0413353 0.015337)
(0.818886 0.368621 0.576244)
(1.3161 -0.646947 0.0322246)
(1.37547 0.481771 0.170159)
(0.743629 -0.122854 0.104079)
(0.970606 -0.0278669 -0.116769)
(2.08797 -1.66661 0.7404)
(2.44533 1.36934 0.0999327)
(0.695026 0.722363 -0.446226)
(0.170256 0.0629574 -0.0599571)
(0.630423 -0.0734834 0.469097)
(0.602482 0.206339 0.136626)
(0.620521 -0.73719 -0.166989)
(1.54895 -7.15275e-05 -0.232193)
(-1.95815 -3.26386 0.205817)
(3.8996 3.10149 -0.160026)
(-3.17605 3.37 -2.94848)
(3.39202 -2.60598 1.26823)