/*--------------------------------*- C++ -*----------------------------------*\
| =========                 |                                                 |
| \\      /  F ield         | OpenFOAM: The Open Source CFD Toolbox           |
|  \\    /   O peration     | Version:  2.2.0                                 |
|   \\  /    A nd           | Web:      www.OpenFOAM.org                      |
|    \\/     M anipulation  |                                                 |
\*---------------------------------------------------------------------------*/
FoamFile
{
    version     2.0;
    format      ascii;
    class       volVectorField;
    location    "1";
    object      s;
}
// * * * * * * * * * * * * * * * * * * * * * * * * * * * * * * * * * * * * * //

dimensions      [0 1 -1 0 0 0 0];

internalField   nonuniform List<vector> 
1600
(
(1.93073 0.0758605 0)
(1.62418 0.0638145 0)
(1.39525 0.0548196 0)
(1.21721 0.047824 0)
(1.07432 0.0422101 0)
(0.956704 0.0375888 0)
(0.857876 0.0337058 0)
(0.773419 0.0303875 0)
(0.700223 0.0275117 0)
(0.636036 0.0249898 0)
(0.57919 0.0227563 0)
(0.528426 0.0207618 0)
(0.482777 0.0189682 0)
(0.441488 0.017346 0)
(0.403964 0.0158717 0)
(0.369728 0.0145266 0)
(0.338395 0.0132955 0)
(0.309649 0.0121661 0)
(0.283231 0.0111281 0)
(0.259171 0.0101828 0)
(1.91882 0.227111 0)
(1.61416 0.19105 0)
(1.38665 0.164121 0)
(1.2097 0.143178 0)
(1.0677 0.12637 0)
(0.950806 0.112535 0)
(0.852587 0.10091 0)
(0.768651 0.0909757 0)
(0.695906 0.0823658 0)
(0.632114 0.0748156 0)
(0.575619 0.0681289 0)
(0.525168 0.0621576 0)
(0.4798 0.056788 0)
(0.438766 0.0519313 0)
(0.401473 0.0475174 0)
(0.367448 0.0434903 0)
(0.336309 0.0398047 0)
(0.30774 0.0364234 0)
(0.281484 0.0333158 0)
(0.257573 0.0304858 0)
(1.89508 0.376961 0)
(1.5942 0.317107 0)
(1.3695 0.272411 0)
(1.19474 0.237648 0)
(1.05449 0.209752 0)
(0.939045 0.186788 0)
(0.842041 0.167492 0)
(0.759143 0.151003 0)
(0.687298 0.136712 0)
(0.624296 0.12418 0)
(0.568499 0.113081 0)
(0.518672 0.10317 0)
(0.473866 0.0942577 0)
(0.433339 0.0861964 0)
(0.396508 0.0788702 0)
(0.362903 0.0721859 0)
(0.332149 0.0660685 0)
(0.303934 0.0604562 0)
(0.278003 0.0552981 0)
(0.254387 0.0506007 0)
(1.85966 0.524485 0)
(1.5644 0.441209 0)
(1.3439 0.379021 0)
(1.17241 0.330654 0)
(1.03478 0.29184 0)
(0.921495 0.259889 0)
(0.826304 0.233042 0)
(0.744956 0.210099 0)
(0.674453 0.190215 0)
(0.612628 0.172779 0)
(0.557874 0.157337 0)
(0.508979 0.143547 0)
(0.465009 0.131146 0)
(0.42524 0.11993 0)
(0.389097 0.109737 0)
(0.356121 0.100436 0)
(0.325941 0.091925 0)
(0.298254 0.0841162 0)
(0.272807 0.0769395 0)
(0.249633 0.0704038 0)
(1.81278 0.668775 0)
(1.52496 0.562591 0)
(1.31002 0.483294 0)
(1.14285 0.421621 0)
(1.0087 0.372128 0)
(0.898264 0.331387 0)
(0.805473 0.297155 0)
(0.726175 0.2679 0)
(0.65745 0.242546 0)
(0.597184 0.220313 0)
(0.54381 0.200622 0)
(0.496147 0.183038 0)
(0.453286 0.167226 0)
(0.41452 0.152924 0)
(0.379288 0.139927 0)
(0.347143 0.128068 0)
(0.317724 0.117215 0)
(0.290734 0.107258 0)
(0.265929 0.0981065 0)
(0.24334 0.0897727 0)
(1.75472 0.808941 0)
(1.47612 0.680503 0)
(1.26807 0.584587 0)
(1.10625 0.509988 0)
(0.97639 0.450122 0)
(0.869495 0.400843 0)
(0.779675 0.359435 0)
(0.702917 0.324049 0)
(0.636393 0.293381 0)
(0.578057 0.266488 0)
(0.526393 0.24267 0)
(0.480256 0.221401 0)
(0.438769 0.202275 0)
(0.401244 0.184976 0)
(0.36714 0.169254 0)
(0.336025 0.15491 0)
(0.307548 0.141782 0)
(0.281423 0.129738 0)
(0.257412 0.118669 0)
(0.235546 0.108588 0)
(1.68584 0.94412 0)
(1.41818 0.79422 0)
(1.21829 0.682276 0)
(1.06283 0.595211 0)
(0.938064 0.525341 0)
(0.835364 0.467827 0)
(0.749071 0.4195 0)
(0.675326 0.378201 0)
(0.611413 0.342408 0)
(0.555367 0.31102 0)
(0.505731 0.283223 0)
(0.461405 0.258399 0)
(0.421546 0.236077 0)
(0.385494 0.215887 0)
(0.352729 0.197538 0)
(0.322835 0.180796 0)
(0.295476 0.165475 0)
(0.270376 0.151418 0)
(0.247308 0.138499 0)
(0.2263 0.126734 0)
(1.60657 1.07348 0)
(1.35149 0.90304 0)
(1.161 0.775758 0)
(1.01285 0.676765 0)
(0.893955 0.597322 0)
(0.796084 0.531926 0)
(0.713848 0.476978 0)
(0.643571 0.43002 0)
(0.582663 0.389323 0)
(0.529252 0.353635 0)
(0.48195 0.322029 0)
(0.439709 0.293804 0)
(0.401724 0.268423 0)
(0.367367 0.245467 0)
(0.336143 0.224603 0)
(0.307655 0.205568 0)
(0.281582 0.188147 0)
(0.257662 0.172165 0)
(0.235679 0.157476 0)
(0.215659 0.144099 0)
(1.51739 1.19622 0)
(1.27648 1.00629 0)
(1.09656 0.864458 0)
(0.956629 0.754145 0)
(0.844334 0.665619 0)
(0.751895 0.592747 0)
(0.674224 0.531515 0)
(0.607848 0.479189 0)
(0.550321 0.433838 0)
(0.499875 0.39407 0)
(0.455198 0.358849 0)
(0.415302 0.327397 0)
(0.379425 0.299115 0)
(0.346975 0.273533 0)
(0.317484 0.250284 0)
(0.290577 0.229073 0)
(0.265952 0.20966 0)
(0.24336 0.19185 0)
(0.222597 0.175481 0)
(0.203688 0.160575 0)
(1.41886 1.31158 0)
(1.19359 1.10334 0)
(1.02535 0.947828 0)
(0.89451 0.826877 0)
(0.789507 0.729813 0)
(0.703071 0.649912 0)
(0.630443 0.582776 0)
(0.568377 0.525403 0)
(0.514586 0.475679 0)
(0.467416 0.432075 0)
(0.42564 0.393458 0)
(0.388334 0.358972 0)
(0.354787 0.327962 0)
(0.324445 0.299913 0)
(0.296868 0.274422 0)
(0.271709 0.251165 0)
(0.248683 0.22988 0)
(0.227558 0.210352 0)
(0.208143 0.192405 0)
(0.190462 0.176061 0)
(1.31158 1.41886 0)
(1.10334 1.19359 0)
(0.947828 1.02535 0)
(0.826877 0.89451 0)
(0.729813 0.789507 0)
(0.649912 0.703071 0)
(0.582776 0.630443 0)
(0.525403 0.568377 0)
(0.475679 0.514586 0)
(0.432075 0.467416 0)
(0.393458 0.42564 0)
(0.358972 0.388334 0)
(0.327962 0.354787 0)
(0.299913 0.324444 0)
(0.274422 0.296868 0)
(0.251165 0.271709 0)
(0.22988 0.248683 0)
(0.210352 0.227558 0)
(0.192405 0.208143 0)
(0.176061 0.190462 0)
(1.19622 1.51739 0)
(1.00629 1.27648 0)
(0.864458 1.09656 0)
(0.754145 0.956628 0)
(0.665619 0.844334 0)
(0.592747 0.751895 0)
(0.531515 0.674224 0)
(0.479189 0.607848 0)
(0.433838 0.550321 0)
(0.39407 0.499875 0)
(0.358849 0.455198 0)
(0.327397 0.415302 0)
(0.299115 0.379425 0)
(0.273533 0.346975 0)
(0.250284 0.317484 0)
(0.229073 0.290577 0)
(0.20966 0.265952 0)
(0.19185 0.24336 0)
(0.175481 0.222597 0)
(0.160575 0.203688 0)
(1.07348 1.60657 0)
(0.90304 1.35149 0)
(0.775758 1.161 0)
(0.676764 1.01285 0)
(0.597322 0.893955 0)
(0.531926 0.796084 0)
(0.476978 0.713848 0)
(0.43002 0.643571 0)
(0.389323 0.582663 0)
(0.353635 0.529252 0)
(0.322029 0.48195 0)
(0.293804 0.439709 0)
(0.268423 0.401724 0)
(0.245467 0.367367 0)
(0.224603 0.336143 0)
(0.205568 0.307654 0)
(0.188147 0.281582 0)
(0.172164 0.257662 0)
(0.157476 0.235679 0)
(0.144099 0.215659 0)
(0.94412 1.68584 0)
(0.79422 1.41818 0)
(0.682276 1.21829 0)
(0.595211 1.06283 0)
(0.525341 0.938064 0)
(0.467827 0.835364 0)
(0.4195 0.749071 0)
(0.378201 0.675326 0)
(0.342408 0.611413 0)
(0.31102 0.555367 0)
(0.283223 0.50573 0)
(0.258399 0.461405 0)
(0.236077 0.421545 0)
(0.215887 0.385493 0)
(0.197537 0.352729 0)
(0.180796 0.322835 0)
(0.165474 0.295476 0)
(0.151418 0.270376 0)
(0.138499 0.247308 0)
(0.126734 0.2263 0)
(0.808941 1.75472 0)
(0.680503 1.47612 0)
(0.584587 1.26807 0)
(0.509988 1.10625 0)
(0.450122 0.97639 0)
(0.400843 0.869494 0)
(0.359435 0.779675 0)
(0.324049 0.702917 0)
(0.293381 0.636393 0)
(0.266488 0.578057 0)
(0.24267 0.526393 0)
(0.221401 0.480256 0)
(0.202275 0.438768 0)
(0.184976 0.401243 0)
(0.169254 0.36714 0)
(0.154909 0.336025 0)
(0.141782 0.307548 0)
(0.129738 0.281423 0)
(0.118669 0.257412 0)
(0.108588 0.235546 0)
(0.668775 1.81278 0)
(0.562591 1.52496 0)
(0.483294 1.31002 0)
(0.421621 1.14285 0)
(0.372128 1.0087 0)
(0.331387 0.898264 0)
(0.297154 0.805472 0)
(0.2679 0.726175 0)
(0.242546 0.65745 0)
(0.220312 0.597183 0)
(0.200622 0.54381 0)
(0.183038 0.496147 0)
(0.167226 0.453286 0)
(0.152924 0.414519 0)
(0.139926 0.379288 0)
(0.128068 0.347143 0)
(0.117215 0.317724 0)
(0.107257 0.290734 0)
(0.0981064 0.265929 0)
(0.0897726 0.243339 0)
(0.524485 1.85966 0)
(0.441209 1.5644 0)
(0.379021 1.3439 0)
(0.330654 1.17241 0)
(0.291839 1.03478 0)
(0.259889 0.921495 0)
(0.233042 0.826304 0)
(0.210099 0.744955 0)
(0.190215 0.674453 0)
(0.172779 0.612628 0)
(0.157337 0.557874 0)
(0.143547 0.508978 0)
(0.131146 0.465009 0)
(0.11993 0.42524 0)
(0.109737 0.389097 0)
(0.100436 0.356121 0)
(0.0919248 0.325941 0)
(0.0841161 0.298253 0)
(0.0769394 0.272807 0)
(0.0704037 0.249633 0)
(0.37696 1.89508 0)
(0.317107 1.5942 0)
(0.272411 1.3695 0)
(0.237648 1.19474 0)
(0.209751 1.05449 0)
(0.186788 0.939045 0)
(0.167492 0.842041 0)
(0.151003 0.759143 0)
(0.136712 0.687298 0)
(0.12418 0.624296 0)
(0.113081 0.568499 0)
(0.10317 0.518672 0)
(0.0942575 0.473865 0)
(0.0861963 0.433339 0)
(0.0788701 0.396507 0)
(0.0721858 0.362903 0)
(0.0660684 0.332149 0)
(0.0604561 0.303933 0)
(0.0552981 0.278002 0)
(0.0506007 0.254387 0)
(0.227111 1.91882 0)
(0.19105 1.61416 0)
(0.164121 1.38665 0)
(0.143178 1.2097 0)
(0.12637 1.0677 0)
(0.112535 0.950806 0)
(0.10091 0.852587 0)
(0.0909756 0.768651 0)
(0.0823656 0.695906 0)
(0.0748154 0.632114 0)
(0.0681287 0.575618 0)
(0.0621575 0.525168 0)
(0.0567879 0.4798 0)
(0.0519312 0.438766 0)
(0.0475173 0.401473 0)
(0.0434902 0.367448 0)
(0.0398046 0.336309 0)
(0.0364233 0.30774 0)
(0.0333158 0.281484 0)
(0.0304857 0.257573 0)
(0.0758604 1.93072 0)
(0.0638145 1.62418 0)
(0.0548196 1.39525 0)
(0.047824 1.2172 0)
(0.04221 1.07432 0)
(0.0375888 0.956704 0)
(0.0337058 0.857876 0)
(0.0303875 0.773419 0)
(0.0275116 0.700223 0)
(0.0249896 0.636035 0)
(0.0227562 0.579189 0)
(0.0207616 0.528425 0)
(0.0189681 0.482776 0)
(0.0173459 0.441488 0)
(0.0158716 0.403964 0)
(0.0145265 0.369728 0)
(0.0132954 0.338395 0)
(0.0121661 0.309649 0)
(0.0111281 0.28323 0)
(0.0101828 0.259171 0)
(-0.0758606 1.93072 0)
(-0.0638148 1.62418 0)
(-0.05482 1.39525 0)
(-0.0478245 1.2172 0)
(-0.0422105 1.07432 0)
(-0.0375893 0.956704 0)
(-0.0337064 0.857876 0)
(-0.030388 0.773419 0)
(-0.0275122 0.700223 0)
(-0.0249902 0.636035 0)
(-0.0227567 0.579189 0)
(-0.0207622 0.528425 0)
(-0.0189686 0.482776 0)
(-0.0173463 0.441488 0)
(-0.015872 0.403964 0)
(-0.0145268 0.369728 0)
(-0.0132957 0.338395 0)
(-0.0121662 0.309649 0)
(-0.0111282 0.28323 0)
(-0.0101829 0.259171 0)
(-0.227111 1.91882 0)
(-0.19105 1.61416 0)
(-0.164122 1.38665 0)
(-0.143178 1.2097 0)
(-0.126371 1.0677 0)
(-0.112536 0.950806 0)
(-0.100911 0.852587 0)
(-0.0909762 0.768651 0)
(-0.0823663 0.695906 0)
(-0.074816 0.632114 0)
(-0.0681293 0.575619 0)
(-0.062158 0.525168 0)
(-0.0567883 0.4798 0)
(-0.0519316 0.438766 0)
(-0.0475177 0.401473 0)
(-0.0434905 0.367448 0)
(-0.0398049 0.336309 0)
(-0.0364235 0.30774 0)
(-0.0333159 0.281484 0)
(-0.0304858 0.257573 0)
(-0.376961 1.89508 0)
(-0.317108 1.5942 0)
(-0.272411 1.3695 0)
(-0.237649 1.19474 0)
(-0.209752 1.05449 0)
(-0.186788 0.939045 0)
(-0.167493 0.842041 0)
(-0.151003 0.759143 0)
(-0.136713 0.687298 0)
(-0.12418 0.624296 0)
(-0.113082 0.568499 0)
(-0.103171 0.518672 0)
(-0.094258 0.473865 0)
(-0.0861967 0.433339 0)
(-0.0788704 0.396507 0)
(-0.0721861 0.362903 0)
(-0.0660686 0.332149 0)
(-0.0604562 0.303934 0)
(-0.0552982 0.278002 0)
(-0.0506007 0.254387 0)
(-0.524485 1.85966 0)
(-0.44121 1.5644 0)
(-0.379021 1.3439 0)
(-0.330654 1.17241 0)
(-0.29184 1.03478 0)
(-0.259889 0.921495 0)
(-0.233042 0.826304 0)
(-0.2101 0.744956 0)
(-0.190216 0.674453 0)
(-0.172779 0.612628 0)
(-0.157337 0.557874 0)
(-0.143547 0.508978 0)
(-0.131146 0.465009 0)
(-0.11993 0.42524 0)
(-0.109737 0.389097 0)
(-0.100437 0.356121 0)
(-0.0919251 0.325941 0)
(-0.0841162 0.298253 0)
(-0.0769395 0.272807 0)
(-0.0704037 0.249633 0)
(-0.668775 1.81278 0)
(-0.562591 1.52496 0)
(-0.483294 1.31002 0)
(-0.421621 1.14285 0)
(-0.372129 1.0087 0)
(-0.331388 0.898264 0)
(-0.297155 0.805472 0)
(-0.267901 0.726175 0)
(-0.242547 0.65745 0)
(-0.220313 0.597183 0)
(-0.200622 0.54381 0)
(-0.183039 0.496147 0)
(-0.167226 0.453286 0)
(-0.152925 0.41452 0)
(-0.139927 0.379288 0)
(-0.128068 0.347143 0)
(-0.117215 0.317724 0)
(-0.107258 0.290734 0)
(-0.0981065 0.265929 0)
(-0.0897726 0.243339 0)
(-0.808941 1.75472 0)
(-0.680504 1.47612 0)
(-0.584587 1.26807 0)
(-0.509989 1.10625 0)
(-0.450123 0.97639 0)
(-0.400843 0.869495 0)
(-0.359436 0.779675 0)
(-0.32405 0.702917 0)
(-0.293382 0.636393 0)
(-0.266488 0.578057 0)
(-0.242671 0.526393 0)
(-0.221402 0.480256 0)
(-0.202275 0.438768 0)
(-0.184976 0.401243 0)
(-0.169254 0.36714 0)
(-0.15491 0.336025 0)
(-0.141782 0.307548 0)
(-0.129738 0.281423 0)
(-0.118669 0.257412 0)
(-0.108588 0.235546 0)
(-0.94412 1.68584 0)
(-0.794221 1.41818 0)
(-0.682276 1.21829 0)
(-0.595212 1.06283 0)
(-0.525342 0.938064 0)
(-0.467827 0.835364 0)
(-0.4195 0.749071 0)
(-0.378201 0.675326 0)
(-0.342408 0.611413 0)
(-0.311021 0.555367 0)
(-0.283223 0.50573 0)
(-0.2584 0.461405 0)
(-0.236077 0.421546 0)
(-0.215887 0.385494 0)
(-0.197538 0.352729 0)
(-0.180796 0.322835 0)
(-0.165475 0.295476 0)
(-0.151418 0.270376 0)
(-0.138499 0.247308 0)
(-0.126734 0.2263 0)
(-1.07348 1.60657 0)
(-0.903041 1.35149 0)
(-0.775759 1.161 0)
(-0.676765 1.01285 0)
(-0.597322 0.893955 0)
(-0.531927 0.796084 0)
(-0.476978 0.713848 0)
(-0.430021 0.643571 0)
(-0.389324 0.582663 0)
(-0.353635 0.529252 0)
(-0.322029 0.48195 0)
(-0.293804 0.439709 0)
(-0.268423 0.401724 0)
(-0.245467 0.367367 0)
(-0.224604 0.336143 0)
(-0.205568 0.307655 0)
(-0.188147 0.281582 0)
(-0.172165 0.257663 0)
(-0.157476 0.235679 0)
(-0.144099 0.215659 0)
(-1.19622 1.51739 0)
(-1.00629 1.27648 0)
(-0.864459 1.09656 0)
(-0.754146 0.956629 0)
(-0.66562 0.844334 0)
(-0.592747 0.751896 0)
(-0.531516 0.674224 0)
(-0.479189 0.607848 0)
(-0.433839 0.550321 0)
(-0.39407 0.499875 0)
(-0.35885 0.455198 0)
(-0.327398 0.415302 0)
(-0.299115 0.379425 0)
(-0.273534 0.346975 0)
(-0.250285 0.317484 0)
(-0.229073 0.290577 0)
(-0.20966 0.265952 0)
(-0.19185 0.24336 0)
(-0.175482 0.222597 0)
(-0.160575 0.203688 0)
(-1.31158 1.41886 0)
(-1.10334 1.19359 0)
(-0.947829 1.02535 0)
(-0.826877 0.89451 0)
(-0.729813 0.789507 0)
(-0.649913 0.703071 0)
(-0.582776 0.630444 0)
(-0.525403 0.568377 0)
(-0.475679 0.514586 0)
(-0.432075 0.467416 0)
(-0.393458 0.42564 0)
(-0.358973 0.388334 0)
(-0.327962 0.354787 0)
(-0.299914 0.324445 0)
(-0.274423 0.296869 0)
(-0.251165 0.271709 0)
(-0.22988 0.248683 0)
(-0.210352 0.227558 0)
(-0.192405 0.208143 0)
(-0.176061 0.190462 0)
(-1.41886 1.31158 0)
(-1.19359 1.10334 0)
(-1.02535 0.947828 0)
(-0.894511 0.826877 0)
(-0.789508 0.729813 0)
(-0.703072 0.649913 0)
(-0.630444 0.582776 0)
(-0.568378 0.525403 0)
(-0.514587 0.475679 0)
(-0.467416 0.432075 0)
(-0.42564 0.393458 0)
(-0.388335 0.358973 0)
(-0.354787 0.327962 0)
(-0.324445 0.299914 0)
(-0.296869 0.274423 0)
(-0.271709 0.251165 0)
(-0.248683 0.22988 0)
(-0.227558 0.210352 0)
(-0.208143 0.192405 0)
(-0.190462 0.176061 0)
(-1.51739 1.19622 0)
(-1.27648 1.00629 0)
(-1.09656 0.864458 0)
(-0.956629 0.754146 0)
(-0.844334 0.665619 0)
(-0.751896 0.592747 0)
(-0.674225 0.531516 0)
(-0.607848 0.479189 0)
(-0.550322 0.433838 0)
(-0.499875 0.39407 0)
(-0.455199 0.35885 0)
(-0.415302 0.327398 0)
(-0.379425 0.299115 0)
(-0.346976 0.273533 0)
(-0.317485 0.250285 0)
(-0.290578 0.229073 0)
(-0.265953 0.20966 0)
(-0.24336 0.19185 0)
(-0.222597 0.175482 0)
(-0.203688 0.160575 0)
(-1.60657 1.07348 0)
(-1.35149 0.903041 0)
(-1.161 0.775759 0)
(-1.01285 0.676765 0)
(-0.893955 0.597322 0)
(-0.796085 0.531927 0)
(-0.713848 0.476978 0)
(-0.643571 0.43002 0)
(-0.582664 0.389323 0)
(-0.529253 0.353635 0)
(-0.48195 0.322029 0)
(-0.439709 0.293804 0)
(-0.401724 0.268423 0)
(-0.367367 0.245467 0)
(-0.336143 0.224603 0)
(-0.307655 0.205568 0)
(-0.281582 0.188147 0)
(-0.257663 0.172165 0)
(-0.235679 0.157476 0)
(-0.215659 0.144099 0)
(-1.68584 0.94412 0)
(-1.41818 0.79422 0)
(-1.21829 0.682276 0)
(-1.06283 0.595211 0)
(-0.938065 0.525342 0)
(-0.835365 0.467827 0)
(-0.749071 0.4195 0)
(-0.675326 0.378201 0)
(-0.611414 0.342408 0)
(-0.555367 0.31102 0)
(-0.505731 0.283223 0)
(-0.461405 0.258399 0)
(-0.421546 0.236077 0)
(-0.385494 0.215887 0)
(-0.352729 0.197538 0)
(-0.322835 0.180796 0)
(-0.295476 0.165475 0)
(-0.270376 0.151418 0)
(-0.247308 0.138499 0)
(-0.2263 0.126734 0)
(-1.75472 0.808941 0)
(-1.47612 0.680503 0)
(-1.26807 0.584587 0)
(-1.10625 0.509988 0)
(-0.976391 0.450123 0)
(-0.869495 0.400843 0)
(-0.779676 0.359435 0)
(-0.702918 0.324049 0)
(-0.636394 0.293381 0)
(-0.578058 0.266488 0)
(-0.526393 0.242671 0)
(-0.480257 0.221401 0)
(-0.438769 0.202275 0)
(-0.401244 0.184976 0)
(-0.36714 0.169254 0)
(-0.336025 0.15491 0)
(-0.307548 0.141782 0)
(-0.281423 0.129738 0)
(-0.257412 0.118669 0)
(-0.235546 0.108588 0)
(-1.81278 0.668775 0)
(-1.52496 0.562591 0)
(-1.31002 0.483294 0)
(-1.14285 0.421621 0)
(-1.0087 0.372128 0)
(-0.898265 0.331387 0)
(-0.805473 0.297155 0)
(-0.726176 0.2679 0)
(-0.657451 0.242546 0)
(-0.597184 0.220313 0)
(-0.54381 0.200622 0)
(-0.496147 0.183038 0)
(-0.453287 0.167226 0)
(-0.41452 0.152924 0)
(-0.379288 0.139927 0)
(-0.347143 0.128068 0)
(-0.317724 0.117215 0)
(-0.290734 0.107258 0)
(-0.265929 0.0981065 0)
(-0.24334 0.0897727 0)
(-1.85967 0.524485 0)
(-1.5644 0.441209 0)
(-1.3439 0.379021 0)
(-1.17241 0.330654 0)
(-1.03478 0.29184 0)
(-0.921496 0.259889 0)
(-0.826305 0.233042 0)
(-0.744956 0.210099 0)
(-0.674454 0.190216 0)
(-0.612629 0.172779 0)
(-0.557875 0.157337 0)
(-0.508979 0.143547 0)
(-0.46501 0.131146 0)
(-0.42524 0.11993 0)
(-0.389097 0.109737 0)
(-0.356121 0.100437 0)
(-0.325942 0.091925 0)
(-0.298254 0.0841162 0)
(-0.272807 0.0769395 0)
(-0.249633 0.0704038 0)
(-1.89508 0.376961 0)
(-1.5942 0.317108 0)
(-1.3695 0.272411 0)
(-1.19474 0.237648 0)
(-1.05449 0.209752 0)
(-0.939046 0.186788 0)
(-0.842042 0.167492 0)
(-0.759144 0.151003 0)
(-0.687299 0.136712 0)
(-0.624296 0.12418 0)
(-0.568499 0.113081 0)
(-0.518672 0.10317 0)
(-0.473866 0.0942577 0)
(-0.433339 0.0861965 0)
(-0.396508 0.0788702 0)
(-0.362904 0.072186 0)
(-0.332149 0.0660685 0)
(-0.303934 0.0604562 0)
(-0.278003 0.0552982 0)
(-0.254387 0.0506008 0)
(-1.91882 0.227111 0)
(-1.61416 0.19105 0)
(-1.38665 0.164121 0)
(-1.2097 0.143178 0)
(-1.0677 0.12637 0)
(-0.950806 0.112535 0)
(-0.852587 0.10091 0)
(-0.768651 0.0909758 0)
(-0.695906 0.0823658 0)
(-0.632115 0.0748156 0)
(-0.575619 0.0681289 0)
(-0.525168 0.0621577 0)
(-0.4798 0.056788 0)
(-0.438766 0.0519314 0)
(-0.401473 0.0475175 0)
(-0.367448 0.0434904 0)
(-0.336309 0.0398048 0)
(-0.30774 0.0364234 0)
(-0.281484 0.0333159 0)
(-0.257573 0.0304858 0)
(-1.93073 0.0758605 0)
(-1.62418 0.0638145 0)
(-1.39525 0.0548197 0)
(-1.21721 0.047824 0)
(-1.07432 0.0422101 0)
(-0.956705 0.0375889 0)
(-0.857876 0.0337059 0)
(-0.77342 0.0303876 0)
(-0.700224 0.0275117 0)
(-0.636036 0.0249898 0)
(-0.57919 0.0227563 0)
(-0.528426 0.0207618 0)
(-0.482777 0.0189683 0)
(-0.441488 0.017346 0)
(-0.403964 0.0158717 0)
(-0.369728 0.0145266 0)
(-0.338395 0.0132955 0)
(-0.309649 0.0121661 0)
(-0.283231 0.0111281 0)
(-0.259171 0.0101829 0)
(-1.93073 -0.0758606 0)
(-1.62418 -0.0638148 0)
(-1.39525 -0.05482 0)
(-1.21721 -0.0478244 0)
(-1.07432 -0.0422105 0)
(-0.956705 -0.0375893 0)
(-0.857876 -0.0337063 0)
(-0.77342 -0.030388 0)
(-0.700224 -0.0275121 0)
(-0.636036 -0.0249901 0)
(-0.57919 -0.0227566 0)
(-0.528426 -0.0207621 0)
(-0.482777 -0.0189685 0)
(-0.441488 -0.0173462 0)
(-0.403964 -0.0158719 0)
(-0.369728 -0.0145267 0)
(-0.338395 -0.0132956 0)
(-0.309649 -0.0121662 0)
(-0.283231 -0.0111282 0)
(-0.259171 -0.0101829 0)
(-1.91882 -0.227111 0)
(-1.61416 -0.19105 0)
(-1.38665 -0.164122 0)
(-1.2097 -0.143178 0)
(-1.0677 -0.126371 0)
(-0.950806 -0.112536 0)
(-0.852587 -0.100911 0)
(-0.768651 -0.0909762 0)
(-0.695906 -0.0823662 0)
(-0.632115 -0.0748159 0)
(-0.575619 -0.0681292 0)
(-0.525168 -0.0621579 0)
(-0.4798 -0.0567883 0)
(-0.438766 -0.0519315 0)
(-0.401474 -0.0475176 0)
(-0.367449 -0.0434905 0)
(-0.336309 -0.0398049 0)
(-0.30774 -0.0364235 0)
(-0.281484 -0.0333159 0)
(-0.257573 -0.0304858 0)
(-1.89508 -0.376961 0)
(-1.5942 -0.317108 0)
(-1.3695 -0.272411 0)
(-1.19474 -0.237649 0)
(-1.05449 -0.209752 0)
(-0.939046 -0.186788 0)
(-0.842042 -0.167493 0)
(-0.759144 -0.151003 0)
(-0.687299 -0.136713 0)
(-0.624296 -0.12418 0)
(-0.568499 -0.113082 0)
(-0.518672 -0.103171 0)
(-0.473866 -0.094258 0)
(-0.433339 -0.0861967 0)
(-0.396508 -0.0788704 0)
(-0.362904 -0.0721861 0)
(-0.332149 -0.0660687 0)
(-0.303934 -0.0604563 0)
(-0.278003 -0.0552982 0)
(-0.254387 -0.0506008 0)
(-1.85967 -0.524485 0)
(-1.5644 -0.44121 0)
(-1.3439 -0.379021 0)
(-1.17241 -0.330654 0)
(-1.03478 -0.29184 0)
(-0.921496 -0.259889 0)
(-0.826305 -0.233042 0)
(-0.744956 -0.2101 0)
(-0.674454 -0.190216 0)
(-0.612629 -0.172779 0)
(-0.557875 -0.157337 0)
(-0.508979 -0.143547 0)
(-0.46501 -0.131147 0)
(-0.425241 -0.11993 0)
(-0.389097 -0.109737 0)
(-0.356121 -0.100437 0)
(-0.325942 -0.0919251 0)
(-0.298254 -0.0841163 0)
(-0.272807 -0.0769396 0)
(-0.249633 -0.0704038 0)
(-1.81278 -0.668775 0)
(-1.52496 -0.562591 0)
(-1.31002 -0.483294 0)
(-1.14285 -0.421621 0)
(-1.0087 -0.372129 0)
(-0.898265 -0.331388 0)
(-0.805473 -0.297155 0)
(-0.726176 -0.267901 0)
(-0.657451 -0.242547 0)
(-0.597184 -0.220313 0)
(-0.54381 -0.200622 0)
(-0.496147 -0.183039 0)
(-0.453287 -0.167226 0)
(-0.41452 -0.152925 0)
(-0.379288 -0.139927 0)
(-0.347143 -0.128068 0)
(-0.317724 -0.117215 0)
(-0.290735 -0.107258 0)
(-0.26593 -0.0981066 0)
(-0.24334 -0.0897727 0)
(-1.75472 -0.808942 0)
(-1.47612 -0.680504 0)
(-1.26807 -0.584588 0)
(-1.10625 -0.509989 0)
(-0.976391 -0.450123 0)
(-0.869495 -0.400843 0)
(-0.779676 -0.359436 0)
(-0.702918 -0.32405 0)
(-0.636394 -0.293382 0)
(-0.578058 -0.266488 0)
(-0.526393 -0.242671 0)
(-0.480257 -0.221402 0)
(-0.438769 -0.202275 0)
(-0.401244 -0.184976 0)
(-0.36714 -0.169254 0)
(-0.336025 -0.15491 0)
(-0.307549 -0.141782 0)
(-0.281423 -0.129738 0)
(-0.257412 -0.118669 0)
(-0.235546 -0.108588 0)
(-1.68584 -0.944121 0)
(-1.41818 -0.794221 0)
(-1.21829 -0.682277 0)
(-1.06283 -0.595212 0)
(-0.938065 -0.525342 0)
(-0.835365 -0.467827 0)
(-0.749071 -0.4195 0)
(-0.675326 -0.378201 0)
(-0.611414 -0.342408 0)
(-0.555367 -0.311021 0)
(-0.505731 -0.283223 0)
(-0.461405 -0.2584 0)
(-0.421546 -0.236077 0)
(-0.385494 -0.215887 0)
(-0.352729 -0.197538 0)
(-0.322835 -0.180797 0)
(-0.295476 -0.165475 0)
(-0.270376 -0.151418 0)
(-0.247308 -0.138499 0)
(-0.2263 -0.126734 0)
(-1.60657 -1.07348 0)
(-1.35149 -0.903041 0)
(-1.161 -0.775759 0)
(-1.01285 -0.676765 0)
(-0.893955 -0.597322 0)
(-0.796085 -0.531927 0)
(-0.713849 -0.476979 0)
(-0.643571 -0.430021 0)
(-0.582664 -0.389324 0)
(-0.529253 -0.353636 0)
(-0.481951 -0.322029 0)
(-0.439709 -0.293805 0)
(-0.401724 -0.268424 0)
(-0.367367 -0.245467 0)
(-0.336143 -0.224604 0)
(-0.307655 -0.205569 0)
(-0.281583 -0.188148 0)
(-0.257663 -0.172165 0)
(-0.235679 -0.157476 0)
(-0.215659 -0.144099 0)
(-1.51739 -1.19622 0)
(-1.27648 -1.00629 0)
(-1.09656 -0.864459 0)
(-0.956629 -0.754146 0)
(-0.844334 -0.66562 0)
(-0.751896 -0.592747 0)
(-0.674225 -0.531516 0)
(-0.607848 -0.479189 0)
(-0.550322 -0.433839 0)
(-0.499875 -0.39407 0)
(-0.455199 -0.35885 0)
(-0.415302 -0.327398 0)
(-0.379425 -0.299115 0)
(-0.346976 -0.273534 0)
(-0.317485 -0.250285 0)
(-0.290578 -0.229073 0)
(-0.265953 -0.20966 0)
(-0.243361 -0.19185 0)
(-0.222597 -0.175482 0)
(-0.203689 -0.160575 0)
(-1.41886 -1.31158 0)
(-1.19359 -1.10334 0)
(-1.02536 -0.947829 0)
(-0.894511 -0.826877 0)
(-0.789508 -0.729813 0)
(-0.703072 -0.649913 0)
(-0.630444 -0.582777 0)
(-0.568378 -0.525403 0)
(-0.514587 -0.475679 0)
(-0.467416 -0.432075 0)
(-0.425641 -0.393458 0)
(-0.388335 -0.358973 0)
(-0.354788 -0.327962 0)
(-0.324445 -0.299914 0)
(-0.296869 -0.274423 0)
(-0.271709 -0.251165 0)
(-0.248683 -0.22988 0)
(-0.227558 -0.210353 0)
(-0.208143 -0.192406 0)
(-0.190462 -0.176061 0)
(-1.31158 -1.41886 0)
(-1.10334 -1.19359 0)
(-0.947829 -1.02536 0)
(-0.826877 -0.894511 0)
(-0.729813 -0.789508 0)
(-0.649913 -0.703072 0)
(-0.582777 -0.630444 0)
(-0.525403 -0.568378 0)
(-0.475679 -0.514587 0)
(-0.432075 -0.467416 0)
(-0.393458 -0.425641 0)
(-0.358973 -0.388335 0)
(-0.327962 -0.354788 0)
(-0.299914 -0.324445 0)
(-0.274423 -0.296869 0)
(-0.251165 -0.271709 0)
(-0.22988 -0.248683 0)
(-0.210353 -0.227558 0)
(-0.192406 -0.208143 0)
(-0.176061 -0.190462 0)
(-1.19622 -1.51739 0)
(-1.00629 -1.27648 0)
(-0.864459 -1.09656 0)
(-0.754146 -0.956629 0)
(-0.66562 -0.844334 0)
(-0.592747 -0.751896 0)
(-0.531516 -0.674225 0)
(-0.479189 -0.607848 0)
(-0.433839 -0.550322 0)
(-0.39407 -0.499876 0)
(-0.35885 -0.455199 0)
(-0.327398 -0.415302 0)
(-0.299115 -0.379426 0)
(-0.273534 -0.346976 0)
(-0.250285 -0.317485 0)
(-0.229073 -0.290578 0)
(-0.20966 -0.265953 0)
(-0.19185 -0.243361 0)
(-0.175482 -0.222598 0)
(-0.160575 -0.203689 0)
(-1.07348 -1.60657 0)
(-0.903041 -1.35149 0)
(-0.775759 -1.161 0)
(-0.676765 -1.01285 0)
(-0.597322 -0.893955 0)
(-0.531927 -0.796085 0)
(-0.476979 -0.713849 0)
(-0.430021 -0.643571 0)
(-0.389324 -0.582664 0)
(-0.353636 -0.529253 0)
(-0.322029 -0.481951 0)
(-0.293804 -0.439709 0)
(-0.268424 -0.401724 0)
(-0.245467 -0.367367 0)
(-0.224604 -0.336143 0)
(-0.205568 -0.307655 0)
(-0.188148 -0.281583 0)
(-0.172165 -0.257663 0)
(-0.157476 -0.235679 0)
(-0.144099 -0.215659 0)
(-0.944121 -1.68584 0)
(-0.794221 -1.41818 0)
(-0.682277 -1.21829 0)
(-0.595212 -1.06283 0)
(-0.525342 -0.938065 0)
(-0.467827 -0.835365 0)
(-0.4195 -0.749071 0)
(-0.378201 -0.675326 0)
(-0.342408 -0.611414 0)
(-0.311021 -0.555367 0)
(-0.283223 -0.505731 0)
(-0.2584 -0.461406 0)
(-0.236077 -0.421546 0)
(-0.215887 -0.385494 0)
(-0.197538 -0.352729 0)
(-0.180796 -0.322835 0)
(-0.165475 -0.295477 0)
(-0.151418 -0.270376 0)
(-0.138499 -0.247308 0)
(-0.126734 -0.2263 0)
(-0.808942 -1.75472 0)
(-0.680504 -1.47612 0)
(-0.584588 -1.26807 0)
(-0.509989 -1.10625 0)
(-0.450123 -0.976391 0)
(-0.400843 -0.869495 0)
(-0.359436 -0.779676 0)
(-0.32405 -0.702918 0)
(-0.293382 -0.636394 0)
(-0.266488 -0.578058 0)
(-0.242671 -0.526393 0)
(-0.221402 -0.480257 0)
(-0.202275 -0.438769 0)
(-0.184976 -0.401244 0)
(-0.169254 -0.36714 0)
(-0.15491 -0.336025 0)
(-0.141782 -0.307549 0)
(-0.129738 -0.281423 0)
(-0.118669 -0.257413 0)
(-0.108588 -0.235546 0)
(-0.668775 -1.81278 0)
(-0.562591 -1.52496 0)
(-0.483294 -1.31002 0)
(-0.421621 -1.14285 0)
(-0.372129 -1.0087 0)
(-0.331388 -0.898265 0)
(-0.297155 -0.805473 0)
(-0.267901 -0.726176 0)
(-0.242547 -0.657451 0)
(-0.220313 -0.597184 0)
(-0.200622 -0.54381 0)
(-0.183039 -0.496147 0)
(-0.167226 -0.453287 0)
(-0.152925 -0.41452 0)
(-0.139927 -0.379288 0)
(-0.128068 -0.347143 0)
(-0.117215 -0.317725 0)
(-0.107258 -0.290735 0)
(-0.0981067 -0.26593 0)
(-0.0897728 -0.24334 0)
(-0.524485 -1.85967 0)
(-0.44121 -1.5644 0)
(-0.379021 -1.3439 0)
(-0.330654 -1.17241 0)
(-0.29184 -1.03478 0)
(-0.259889 -0.921496 0)
(-0.233042 -0.826305 0)
(-0.2101 -0.744956 0)
(-0.190216 -0.674454 0)
(-0.172779 -0.612629 0)
(-0.157337 -0.557875 0)
(-0.143547 -0.508979 0)
(-0.131147 -0.46501 0)
(-0.11993 -0.425241 0)
(-0.109737 -0.389097 0)
(-0.100437 -0.356121 0)
(-0.0919252 -0.325942 0)
(-0.0841163 -0.298254 0)
(-0.0769396 -0.272807 0)
(-0.0704038 -0.249633 0)
(-0.376961 -1.89509 0)
(-0.317108 -1.5942 0)
(-0.272411 -1.3695 0)
(-0.237649 -1.19474 0)
(-0.209752 -1.05449 0)
(-0.186788 -0.939046 0)
(-0.167493 -0.842042 0)
(-0.151003 -0.759144 0)
(-0.136713 -0.687299 0)
(-0.124181 -0.624296 0)
(-0.113082 -0.568499 0)
(-0.103171 -0.518672 0)
(-0.094258 -0.473866 0)
(-0.0861968 -0.433339 0)
(-0.0788705 -0.396508 0)
(-0.0721862 -0.362904 0)
(-0.0660687 -0.332149 0)
(-0.0604563 -0.303934 0)
(-0.0552982 -0.278003 0)
(-0.0506008 -0.254387 0)
(-0.227111 -1.91882 0)
(-0.19105 -1.61417 0)
(-0.164122 -1.38665 0)
(-0.143178 -1.2097 0)
(-0.126371 -1.0677 0)
(-0.112536 -0.950807 0)
(-0.100911 -0.852587 0)
(-0.0909762 -0.768652 0)
(-0.0823663 -0.695907 0)
(-0.074816 -0.632115 0)
(-0.0681293 -0.575619 0)
(-0.062158 -0.525168 0)
(-0.0567884 -0.479801 0)
(-0.0519316 -0.438766 0)
(-0.0475177 -0.401474 0)
(-0.0434906 -0.367449 0)
(-0.0398049 -0.336309 0)
(-0.0364236 -0.30774 0)
(-0.0333159 -0.281484 0)
(-0.0304858 -0.257573 0)
(-0.0758606 -1.93073 0)
(-0.0638148 -1.62418 0)
(-0.05482 -1.39525 0)
(-0.0478245 -1.21721 0)
(-0.0422105 -1.07432 0)
(-0.0375893 -0.956705 0)
(-0.0337063 -0.857877 0)
(-0.030388 -0.77342 0)
(-0.0275122 -0.700224 0)
(-0.0249902 -0.636036 0)
(-0.0227567 -0.57919 0)
(-0.0207622 -0.528426 0)
(-0.0189686 -0.482777 0)
(-0.0173463 -0.441488 0)
(-0.015872 -0.403964 0)
(-0.0145268 -0.369728 0)
(-0.0132957 -0.338395 0)
(-0.0121662 -0.309649 0)
(-0.0111282 -0.283231 0)
(-0.0101829 -0.259171 0)
(1.93073 -0.0758606 0)
(1.91882 -0.227111 0)
(1.89508 -0.376961 0)
(1.85966 -0.524485 0)
(1.81278 -0.668775 0)
(1.75472 -0.808941 0)
(1.68584 -0.944121 0)
(1.60657 -1.07348 0)
(1.51739 -1.19622 0)
(1.41886 -1.31158 0)
(1.31158 -1.41886 0)
(1.19622 -1.51739 0)
(1.07348 -1.60657 0)
(0.944121 -1.68584 0)
(0.808942 -1.75472 0)
(0.668775 -1.81278 0)
(0.524485 -1.85967 0)
(0.376961 -1.89508 0)
(0.227111 -1.91882 0)
(0.0758605 -1.93073 0)
(1.62418 -0.0638148 0)
(1.61416 -0.19105 0)
(1.5942 -0.317108 0)
(1.5644 -0.44121 0)
(1.52496 -0.562591 0)
(1.47612 -0.680504 0)
(1.41818 -0.794221 0)
(1.35149 -0.903041 0)
(1.27648 -1.00629 0)
(1.19359 -1.10334 0)
(1.10334 -1.19359 0)
(1.00629 -1.27648 0)
(0.903041 -1.35149 0)
(0.79422 -1.41818 0)
(0.680504 -1.47612 0)
(0.562591 -1.52496 0)
(0.44121 -1.5644 0)
(0.317108 -1.5942 0)
(0.19105 -1.61416 0)
(0.0638145 -1.62418 0)
(1.39525 -0.05482 0)
(1.38665 -0.164122 0)
(1.3695 -0.272411 0)
(1.3439 -0.379021 0)
(1.31002 -0.483294 0)
(1.26807 -0.584587 0)
(1.21829 -0.682276 0)
(1.161 -0.775759 0)
(1.09656 -0.864459 0)
(1.02535 -0.947829 0)
(0.947828 -1.02536 0)
(0.864458 -1.09656 0)
(0.775759 -1.161 0)
(0.682276 -1.21829 0)
(0.584587 -1.26807 0)
(0.483294 -1.31002 0)
(0.379021 -1.3439 0)
(0.272411 -1.3695 0)
(0.164121 -1.38665 0)
(0.0548196 -1.39525 0)
(1.21721 -0.0478244 0)
(1.2097 -0.143178 0)
(1.19474 -0.237649 0)
(1.17241 -0.330654 0)
(1.14285 -0.421621 0)
(1.10625 -0.509989 0)
(1.06283 -0.595212 0)
(1.01285 -0.676765 0)
(0.956629 -0.754146 0)
(0.89451 -0.826877 0)
(0.826877 -0.894511 0)
(0.754145 -0.956629 0)
(0.676765 -1.01285 0)
(0.595211 -1.06283 0)
(0.509988 -1.10625 0)
(0.421621 -1.14285 0)
(0.330654 -1.17241 0)
(0.237648 -1.19474 0)
(0.143178 -1.2097 0)
(0.047824 -1.21721 0)
(1.07432 -0.0422105 0)
(1.0677 -0.126371 0)
(1.05449 -0.209752 0)
(1.03478 -0.29184 0)
(1.0087 -0.372129 0)