/*--------------------------------*- C++ -*----------------------------------*\
| =========                 |                                                 |
| \\      /  F ield         | foam-extend: Open Source CFD                    |
|  \\    /   O peration     | Version:  3.0                                   |
|   \\  /    A nd           | Web:         http://www.extend-project.de       |
|    \\/     M anipulation  |                                                 |
\*---------------------------------------------------------------------------*/
FoamFile
{
    version     2.0;
    format      ascii;
    class       volVectorField;
    location    "19";
    object      u;
}
// * * * * * * * * * * * * * * * * * * * * * * * * * * * * * * * * * * * * * //

dimensions      [0 0 0 0 0 0 0];

internalField   nonuniform List<vector> 
7680
(
(0.0733199 -0.0319956 1.917e-19)
(0.192626 -0.0282368 2.15657e-19)
(0.293692 -0.0250416 9.9506e-20)
(0.379538 -0.022305 1.69968e-19)
(0.453348 -0.019953 7.24633e-20)
(0.516834 -0.0179172 2.04544e-19)
(0.572111 -0.0161497 1.19348e-19)
(0.62015 -0.0146051 2.06705e-19)
(0.66243 -0.0132516 3.36935e-19)
(0.699485 -0.0120584 1.42175e-19)
(0.732402 -0.0110041 8.95167e-20)
(0.761447 -0.0100674 1.01479e-19)
(0.787455 -0.00923358 5.80387e-20)
(0.810524 -0.00848772 -1.12484e-19)
(0.831324 -0.00781925 2.33487e-19)
(0.849843 -0.0072179 3.42463e-19)
(0.866639 -0.00667575 3.09603e-19)
(0.881627 -0.00618577 1.45689e-19)
(0.895288 -0.00574177 1.83034e-19)
(0.907488 -0.00533914 -2.74571e-19)
(0.918653 -0.00497276 7.0935e-20)
(0.928612 -0.00463991 1.28294e-19)
(0.937757 -0.00433609 2.38618e-19)
(0.945886 -0.0040601 1.60445e-19)
(0.953367 -0.00380778 1.9689e-19)
(0.959977 -0.00357921 4.4447e-19)
(0.966067 -0.00337031 6.1381e-19)
(0.971393 -0.00318235 2.10631e-19)
(0.976298 -0.00301112 4.17489e-20)
(0.980522 -0.00285896 1.90274e-19)
(0.9844 -0.00272137 3.60412e-19)
(0.987658 -0.00260165 3.1853e-19)
(0.99063 -0.00249458 8.35768e-20)
(0.993026 -0.00240371 -4.83437e-19)
(0.995181 -0.00232125 -1.35261e-19)
(0.996791 -0.00224652 8.34972e-20)
(0.998194 -0.00215734 6.34072e-19)
(0.999072 -0.00201842 2.11515e-19)
(0.999771 -0.00171367 1.0347e-19)
(0.999967 -0.000964487 1.43899e-19)
(0.0775038 -0.0958253 1.49167e-19)
(0.196318 -0.0845667 -9.72307e-20)
(0.296966 -0.0750038 1.26643e-19)
(0.382455 -0.066817 2.45064e-19)
(0.455958 -0.0597789 2.86557e-20)
(0.519179 -0.0536841 1.03015e-20)
(0.574225 -0.0483877 1.28962e-20)
(0.622063 -0.0437536 1.96756e-19)
(0.664166 -0.0396869 5.4595e-20)
(0.701066 -0.0360954 3.14462e-20)
(0.733844 -0.0329152 1.20208e-19)
(0.762767 -0.0300828 1.96229e-19)
(0.788665 -0.027554 2.53257e-19)
(0.811636 -0.0252842 1.648e-19)
(0.832348 -0.023242 4.36686e-19)
(0.850787 -0.021396 5.91864e-19)
(0.867511 -0.0197229 5.18822e-19)
(0.882433 -0.0182007 -7.06409e-20)
(0.896035 -0.0168114 -1.98717e-19)
(0.908179 -0.0155397 -3.46143e-19)
(0.919294 -0.0143711 2.33185e-19)
(0.929207 -0.0132955 3.03095e-19)
(0.938308 -0.0123004 2.19073e-19)
(0.946397 -0.0113798 4.91905e-20)
(0.953841 -0.0105223 1.02821e-18)
(0.960415 -0.00972539 5.28024e-19)
(0.966471 -0.00897797 2.59372e-19)
(0.971767 -0.00828048 -3.00316e-21)
(0.976642 -0.00762178 1.71931e-19)
(0.980837 -0.00700478 3.05371e-19)
(0.984688 -0.00641791 4.7051e-19)
(0.98792 -0.00586621 9.58832e-19)
(0.990866 -0.00533713 8.23985e-19)
(0.993237 -0.00483701 -5.61747e-19)
(0.995368 -0.00435037 -2.38583e-19)
(0.996954 -0.00388043 -2.97044e-19)
(0.998332 -0.00339762 1.10795e-18)
(0.999185 -0.00287345 2.86446e-19)
(0.999853 -0.00219036 2.82239e-19)
(1.00001 -0.00109529 8.54397e-19)
(0.0858535 -0.159245 2.99958e-19)
(0.203686 -0.140534 -1.5879e-19)
(0.303501 -0.124645 4.37902e-19)
(0.388277 -0.111043 4.32234e-20)
(0.461167 -0.0993491 4.37709e-19)
(0.523858 -0.0892215 6.45664e-20)
(0.578442 -0.0804189 8.59227e-20)
(0.625877 -0.0727153 5.955e-20)
(0.667626 -0.0659528 -8.12431e-19)
(0.704214 -0.0599785 -4.04361e-19)
(0.736716 -0.0546861 4.34609e-19)
(0.765392 -0.0499701 3.2161e-19)
(0.79107 -0.0457572 1.84132e-20)
(0.813844 -0.0419733 2.61113e-19)
(0.834377 -0.0385661 7.95892e-19)
(0.852655 -0.0354834 1.11273e-18)
(0.869232 -0.0326865 -4.78132e-19)
(0.884021 -0.0301387 5.57579e-19)
(0.897501 -0.0278099 -6.27312e-19)
(0.909534 -0.0256748 8.30341e-20)
(0.920546 -0.0237089 1.93521e-19)
(0.930362 -0.0218953 6.88474e-19)
(0.939375 -0.0202131 3.71828e-19)
(0.947382 -0.018652 1.39029e-18)
(0.954748 -0.017193 4.20313e-19)
(0.96125 -0.0158312 7.13816e-19)
(0.967237 -0.0145485 1.29176e-19)
(0.972468 -0.0133445 7.07128e-19)
(0.977281 -0.0122012 4.22294e-19)
(0.981417 -0.0111221 5.15655e-19)
(0.985211 -0.0100885 4.29326e-19)
(0.988388 -0.00910735 1.92571e-19)
(0.991281 -0.00815866 1.03842e-18)
(0.993602 -0.00725161 1.36482e-18)
(0.995681 -0.00636311 2.54506e-20)
(0.997218 -0.0055003 8.57205e-20)
(0.998547 -0.00462626 8.34426e-19)
(0.99935 -0.0037194 -1.44426e-19)
(0.999964 -0.00266084 -1.05046e-19)
(1.00005 -0.00122351 -2.82891e-19)
(0.0983328 -0.221982 3.21273e-19)
(0.214699 -0.1959 -2.4913e-19)
(0.313268 -0.173752 2.66995e-19)
(0.396979 -0.154794 3.71922e-19)
(0.468953 -0.138494 6.04591e-19)
(0.53085 -0.124377 -2.22111e-20)
(0.584746 -0.112106 1.77482e-19)
(0.631578 -0.101366 2.87419e-19)
(0.672797 -0.091937 -1.92865e-19)
(0.708917 -0.0836055 4.78907e-19)
(0.741004 -0.0762236 7.23448e-19)
(0.769311 -0.0696443 6.1601e-19)
(0.794659 -0.0637653 5.73439e-19)
(0.817136 -0.0584835 2.00264e-19)
(0.837402 -0.0537259 -8.32393e-19)
(0.855439 -0.0494198 -2.65223e-19)
(0.871797 -0.0455112 -1.06136e-18)
(0.886385 -0.0419486 -6.00597e-19)
(0.899682 -0.0386905 9.19583e-19)
(0.911545 -0.035701 -2.29962e-19)
(0.922402 -0.0329464 1.05053e-18)
(0.932075 -0.0304025 7.21178e-19)
(0.940954 -0.0280405 6.92412e-19)
(0.948836 -0.0258456 -3.31158e-20)
(0.956085 -0.0237914 1.13234e-19)
(0.962478 -0.0218706 -5.71017e-19)
(0.968361 -0.0200582 -1.09644e-18)
(0.973493 -0.0183529 -9.15614e-20)
(0.978212 -0.01673 5.12038e-19)
(0.98226 -0.0151935 1.25082e-18)
(0.985967 -0.0137178 8.06023e-19)
(0.989062 -0.0123116 -1.76975e-18)
(0.991875 -0.0109476 -3.60172e-19)
(0.994117 -0.00963786 3.44686e-18)
(0.996121 -0.00835173 -1.04049e-18)
(0.997583 -0.00710031 -4.33277e-19)
(0.998838 -0.00583939 4.31295e-19)
(0.999567 -0.00455434 -1.67126e-18)
(1.0001 -0.00312489 -3.18885e-19)
(1.00011 -0.00134984 1.60381e-19)
(0.114889 -0.283769 7.54059e-19)
(0.229309 -0.250427 6.45467e-19)
(0.326227 -0.222116 -5.67844e-20)
(0.408524 -0.197882 1.71154e-18)
(0.479282 -0.177047 5.92474e-19)
(0.540128 -0.159001 1.17486e-19)
(0.593108 -0.143314 3.03367e-19)
(0.63914 -0.129583 2.56613e-19)
(0.679656 -0.117528 -1.16082e-19)
(0.715155 -0.106875 5.16327e-19)
(0.746692 -0.0974351 7.32234e-19)
(0.774508 -0.0890207 9.90958e-19)
(0.799418 -0.0815009 1.42111e-18)
(0.821501 -0.0747438 -4.7923e-19)
(0.841412 -0.0686563 -1.34011e-18)
(0.859126 -0.0631452 -1.94262e-18)
(0.875192 -0.0581416 7.01718e-19)
(0.889514 -0.0535797 -4.38785e-19)
(0.902567 -0.0494062 -7.20085e-20)
(0.914206 -0.0455752 -1.22916e-19)
(0.924856 -0.0420436 1.02881e-18)
(0.934337 -0.0387805 7.82093e-19)
(0.943038 -0.0357488 -5.68776e-19)
(0.950754 -0.0329295 2.93705e-19)
(0.957847 -0.030289 7.69941e-19)
(0.964093 -0.0278175 4.62217e-19)
(0.969838 -0.0254832 -1.7394e-18)
(0.974839 -0.0232841 -7.37785e-19)
(0.979433 -0.0211887 5.33327e-19)
(0.983361 -0.0192016 -1.50464e-18)
(0.986954 -0.0172904 -1.36811e-18)
(0.989938 -0.0154653 -1.13164e-18)
(0.992643 -0.0136923 -2.69195e-18)
(0.994782 -0.011986 6.06556e-19)
(0.996684 -0.0103084 -2.65651e-18)
(0.998048 -0.00867455 -2.14319e-18)
(0.999204 -0.00703302 -1.99246e-18)
(0.999836 -0.00537614 -3.30533e-18)
(1.00027 -0.00358201 -2.03324e-19)
(1.00017 -0.00147477 1.84872e-18)
(0.13545 -0.34434 9.87629e-19)
(0.247454 -0.303881 9.65799e-19)
(0.34232 -0.269528 1.45618e-18)
(0.422862 -0.240122 4.16946e-19)
(0.492111 -0.214841 4.16221e-19)
(0.551649 -0.192944 1.59247e-18)
(0.603494 -0.173908 1.07631e-18)
(0.64853 -0.157246 3.78119e-19)
(0.688174 -0.142616 -5.16824e-19)
(0.722901 -0.129687 -2.81997e-19)
(0.753754 -0.11823 7.69776e-19)
(0.780961 -0.108017 3.33289e-19)
(0.805325 -0.0988882 1.65514e-18)
(0.826918 -0.0906848 4.49414e-19)
(0.846388 -0.0832935 -2.21989e-18)
(0.863702 -0.0766011 -1.75816e-18)
(0.879405 -0.070524 4.93641e-19)
(0.893395 -0.0649822 -1.38814e-18)
(0.906144 -0.0599112 -8.80695e-19)
(0.917505 -0.0552552 -1.08388e-18)
(0.927897 -0.0509618 -2.49578e-18)
(0.93714 -0.0469934 -2.77995e-18)
(0.945619 -0.0433051 9.70004e-19)
(0.953127 -0.0398735 9.09964e-19)
(0.960027 -0.0366581 -2.63059e-18)
(0.96609 -0.0336466 -1.46504e-18)
(0.971663 -0.0308005 -1.15227e-18)
(0.976501 -0.0281172 -2.32867e-18)
(0.980938 -0.0255584 -1.0207e-18)
(0.984717 -0.0231294 -1.67505e-18)
(0.988167 -0.0207911 8.82848e-19)
(0.991014 -0.0185555 1.10712e-18)
(0.993585 -0.0163815 -1.20346e-18)
(0.995595 -0.0142867 1.06109e-19)
(0.99737 -0.0122255 -4.37409e-18)
(0.99861 -0.0102172 5.31386e-19)
(0.999645 -0.00820317 1.62095e-18)
(1.00016 -0.00618262 -2.17156e-18)
(1.00047 -0.00403161 -2.94271e-20)
(1.00024 -0.0015987 1.99145e-18)
(0.159929 -0.403437 1.2479e-18)
(0.269057 -0.356035 -3.59679e-19)
(0.361481 -0.315786 8.90631e-19)
(0.439932 -0.281335 8.70749e-19)
(0.507384 -0.251715 -1.61108e-19)
(0.565366 -0.226061 -3.53351e-19)
(0.615858 -0.203758 -6.0922e-20)
(0.65971 -0.184236 6.36701e-19)
(0.698314 -0.167094 6.2659e-19)
(0.732122 -0.151944 -1.54278e-18)
(0.762161 -0.138519 -1.60786e-18)
(0.788641 -0.12655 -1.22685e-18)
(0.812356 -0.115852 1.37203e-18)
(0.833366 -0.106238 1.41757e-18)
(0.852309 -0.0975745 -9.20989e-19)
(0.869147 -0.0897294 -9.76296e-19)
(0.884416 -0.0826048 -1.47543e-18)
(0.898012 -0.076107 -1.97705e-18)
(0.910399 -0.0701603 -1.50743e-18)
(0.921427 -0.0646992 -1.37239e-18)
(0.931511 -0.0596625 -2.81515e-18)
(0.94047 -0.0550059 -1.17111e-18)
(0.948685 -0.0506769 1.02075e-18)
(0.955947 -0.0466478 3.69742e-19)
(0.962614 -0.0428713 -1.12758e-18)
(0.968461 -0.0393328 -3.27859e-18)
(0.973827 -0.0359873 3.60309e-19)
(0.97847 -0.0328314 -2.41718e-18)
(0.982721 -0.0298204 -1.20864e-18)
(0.986323 -0.0269602 -9.34811e-19)
(0.989602 -0.0242051 5.89745e-18)
(0.992285 -0.0215691 1.89506e-18)
(0.994697 -0.0190039 1.27048e-18)
(0.996552 -0.0165303 1.28831e-18)
(0.998177 -0.0140953 2.10058e-18)
(0.99927 -0.0117224 1.61073e-18)
(1.00016 -0.00934565 1.54083e-18)
(1.00053 -0.00697126 1.47803e-18)
(1.0007 -0.0044727 5.28337e-18)
(1.00032 -0.00172172 1.05509e-18)
(0.188221 -0.460806 1.45854e-18)
(0.294024 -0.406663 1.05438e-19)
(0.383626 -0.360692 7.00741e-19)
(0.459661 -0.321343 -3.49914e-19)
(0.525037 -0.287512 -1.04516e-18)
(0.58122 -0.25821 -4.77779e-19)
(0.630148 -0.232736 6.87782e-19)
(0.672631 -0.210437 2.15039e-19)
(0.710033 -0.190856 7.76352e-19)
(0.742778 -0.173551 -7.44215e-19)
(0.771875 -0.158215 8.46998e-19)
(0.797516 -0.144543 -1.03152e-18)
(0.820481 -0.132321 4.3133e-19)
(0.840815 -0.121337 -2.16659e-19)
(0.85915 -0.111438 1.10601e-18)
(0.875437 -0.102474 -1.37347e-20)
(0.890206 -0.0943327 7.37647e-19)
(0.903344 -0.0869066 -1.33685e-18)
(0.915313 -0.0801097 2.31042e-18)
(0.925956 -0.073867 1.58491e-18)
(0.935685 -0.0681086 -1.6923e-18)
(0.944315 -0.0627837 -6.71825e-19)
(0.952223 -0.0578326 -1.16284e-18)
(0.9592 -0.0532234 9.40253e-19)
(0.9656 -0.048902 9.00708e-19)
(0.971194 -0.0448518 -1.82748e-18)
(0.976322 -0.0410214 3.19182e-18)
(0.98074 -0.0374066 2.88452e-18)
(0.984776 -0.0339565 -6.72309e-18)
(0.988173 -0.0306778 -3.67302e-18)
(0.991253 -0.0275181 -1.66395e-18)
(0.993747 -0.0244934 5.13792e-19)
(0.995974 -0.0215488 3.6761e-18)
(0.997652 -0.0187077 -3.71438e-18)
(0.999101 -0.0159104 2.18902e-19)
(1.00003 -0.0131842 3.16909e-18)
(1.00075 -0.0104563 2.56794e-18)
(1.00095 -0.00773948 9.55176e-19)
(1.00096 -0.00490419 2.34867e-18)
(1.00041 -0.0018438 -1.24679e-18)
(0.220204 -0.516202 1.52372e-18)
(0.322249 -0.45555 5.66975e-19)
(0.40866 -0.404054 4.7489e-19)
(0.481965 -0.359975 -6.75398e-19)
(0.544992 -0.322078 6.32769e-19)
(0.599142 -0.289253 1.14798e-18)
(0.646302 -0.260717 7.09696e-20)
(0.687238 -0.235737 3.89866e-19)
(0.723281 -0.213802 8.90547e-19)
(0.754825 -0.194415 5.87896e-19)
(0.782857 -0.177234 9.32078e-19)
(0.807548 -0.161916 1.53118e-18)
(0.829664 -0.148223 6.83826e-19)
(0.849236 -0.135916 1.30592e-18)
(0.866883 -0.124825 2.69196e-18)
(0.882546 -0.11478 -1.85898e-19)
(0.896749 -0.105657 5.55973e-19)
(0.90937 -0.0973346 -6.25968e-19)
(0.920865 -0.0897166 2.8815e-18)
(0.931073 -0.0827191 2.58629e-18)
(0.9404 -0.0762636 4.94435e-19)
(0.948658 -0.0702935 8.57644e-19)
(0.95622 -0.0647415 -1.3806e-18)
(0.962874 -0.059572 -1.36011e-18)
(0.96897 -0.0547244 1.01247e-18)
(0.97428 -0.05018 1.44139e-18)
(0.979138 -0.0458812 2.23828e-18)
(0.983301 -0.0418232 4.84364e-18)
(0.987093 -0.0379491 -1.40398e-18)
(0.990258 -0.0342662 2.97153e-18)
(0.993114 -0.030716 -3.29126e-19)
(0.995394 -0.0273161 -2.16688e-18)
(0.997412 -0.0240053 -8.38558e-19)
(0.998889 -0.0208099 -2.46688e-18)
(1.00014 -0.0176632 -1.45293e-18)
(1.00087 -0.0145968 -5.01258e-19)
(1.00141 -0.0115306 -4.50533e-18)
(1.00142 -0.00848432 -2.47453e-18)
(1.00124 -0.00532451 8.19296e-18)
(1.00051 -0.00196457 -8.86962e-19)
(0.255742 -0.569387 -9.80135e-20)
(0.353611 -0.502486 -6.81989e-19)
(0.436477 -0.445685 1.0634e-18)
(0.506747 -0.397065 1.21297e-18)
(0.567166 -0.355264 5.67915e-19)
(0.619056 -0.319058 -1.64025e-18)
(0.664252 -0.287581 -9.906e-20)
(0.703468 -0.260028 5.01023e-19)
(0.738 -0.235832 1.44912e-18)
(0.76821 -0.214447 1.72693e-18)
(0.795059 -0.195494 -1.12611e-18)
(0.818695 -0.178597 -1.21691e-18)
(0.839867 -0.163491 1.28571e-19)
(0.858591 -0.149914 -1.77597e-18)
(0.875473 -0.137678 8.95361e-19)
(0.890444 -0.126596 1.78115e-18)
(0.904016 -0.116529 -3.99436e-19)
(0.916063 -0.107346 1.07664e-18)
(0.927032 -0.0989399 2.2093e-18)
(0.936756 -0.0912176 1.26684e-18)
(0.945636 -0.0840929 1.15219e-18)
(0.953481 -0.077503 2.83889e-19)
(0.960657 -0.071374 9.04364e-19)
(0.966952 -0.0656665 -1.73587e-18)
(0.972711 -0.0603136 -1.8488e-18)
(0.977705 -0.0552946 4.98325e-18)
(0.982263 -0.050546 3.36633e-19)
(0.986142 -0.0460625 -2.55658e-18)
(0.989664 -0.0417813 -7.6504e-18)
(0.992571 -0.0377103 -2.35932e-18)
(0.995179 -0.0337851 -6.8153e-19)
(0.99722 -0.0300253 9.15102e-19)
(0.999007 -0.0263631 -2.66126e-18)
(1.00026 -0.022828 5.15582e-18)
(1.00129 -0.0193464 -3.80713e-18)
(1.00181 -0.0159543 2.07337e-18)
(1.00213 -0.0125644 8.6934e-20)
(1.00195 -0.00920283 1.60897e-18)
(1.00156 -0.00573206 1.41817e-18)
(1.00061 -0.00208359 -3.36958e-18)
(0.294682 -0.620134 -1.07128e-18)
(0.387976 -0.547271 -6.18277e-19)
(0.466958 -0.485407 1.04798e-19)
(0.533903 -0.432455 -2.5675e-18)
(0.591463 -0.386929 -1.94358e-18)
(0.640877 -0.347496 1.04175e-18)
(0.68392 -0.313214 1.05944e-18)
(0.721252 -0.283205 3.53135e-18)
(0.754129 -0.256852 2.47739e-18)
(0.782876 -0.23356 -1.51653e-18)
(0.808428 -0.212918 -2.6188e-18)
(0.830908 -0.194512 -8.14674e-19)
(0.851046 -0.178059 -6.78861e-19)
(0.86884 -0.16327 6.63063e-19)
(0.884884 -0.149941 2.31343e-18)
(0.899096 -0.137869 1.93449e-18)
(0.911979 -0.126903 5.67163e-19)
(0.923395 -0.116899 3.31689e-18)
(0.933787 -0.10774 3.68226e-18)
(0.942981 -0.099326 -2.30731e-19)
(0.951372 -0.0915625 -1.73751e-18)
(0.958762 -0.0843813 -1.43771e-18)
(0.965517 -0.0777017 1.71648e-18)
(0.971418 -0.0714807 -3.64856e-20)
(0.976808 -0.0656456 -2.62881e-18)
(0.981454 -0.0601736 1.49592e-18)
(0.985684 -0.0549957 -1.92083e-18)
(0.989253 -0.0501062 1.73826e-18)
(0.992478 -0.0454364 -7.63712e-18)
(0.995102 -0.0409952 -6.50625e-18)
(0.997438 -0.0367124 -1.9547e-18)
(0.999218 -0.0326094 -1.52114e-19)
(1.00075 -0.0286122 1.31882e-18)
(1.00176 -0.0247535 3.53643e-18)
(1.00255 -0.020953 -4.22706e-18)
(1.00284 -0.0172508 3.81543e-18)
(1.00293 -0.013553 5.14017e-19)
(1.00252 -0.00989175 -1.56206e-18)
(1.0019 -0.00612483 2.23077e-18)
(1.00073 -0.00220011 -1.91471e-18)
(0.336858 -0.668225 3.59295e-18)
(0.425196 -0.589712 2.30114e-18)
(0.499971 -0.523052 1.1376e-18)
(0.563315 -0.465994 3.23496e-19)
(0.617779 -0.416937 -1.50719e-18)
(0.664512 -0.374447 8.80595e-19)
(0.705223 -0.337506 1.30406e-18)
(0.740514 -0.305169 3.51667e-19)
(0.771598 -0.276772 -8.19253e-19)
(0.79876 -0.251674 1.9395e-18)
(0.822908 -0.229429 2.50317e-19)
(0.844135 -0.209595 3.06477e-19)
(0.863154 -0.191865 -2.42825e-18)
(0.87994 -0.175927 -1.2676e-18)
(0.895077 -0.161563 9.81797e-19)
(0.908466 -0.148552 -1.20817e-18)
(0.920601 -0.136733 -1.28461e-18)
(0.931336 -0.125951 -1.07377e-18)
(0.941102 -0.116079 4.68708e-19)
(0.949721 -0.10701 1.25364e-18)
(0.957582 -0.0986408 -1.95466e-18)
(0.964481 -0.090899 -1.57306e-18)
(0.970778 -0.0836974 2.62285e-18)
(0.976253 -0.0769897 2.93535e-18)
(0.981243 -0.0706975 -7.08433e-19)
(0.985513 -0.0647962 5.63124e-18)
(0.989388 -0.0592115 -1.48845e-18)
(0.99262 -0.0539371 5.22031e-19)
(0.995523 -0.0488992 -6.83293e-19)
(0.997842 -0.0441072 1.95767e-18)
(0.999882 -0.0394855 -2.19619e-18)
(1.00138 -0.0350574 -1.31998e-18)
(1.00264 -0.0307431 5.58602e-18)
(1.00338 -0.0265781 5.96962e-18)
(1.00391 -0.0224761 -4.60731e-18)
(1.00395 -0.0184809 -2.35213e-19)
(1.00379 -0.0144922 1.16058e-18)
(1.00313 -0.0105479 -2.87405e-18)
(1.00227 -0.00650085 -7.84901e-18)
(1.00086 -0.00231339 -1.85633e-18)
(0.382089 -0.713455 3.46282e-18)
(0.465113 -0.629628 2.41873e-18)
(0.535376 -0.558456 1.17732e-18)
(0.594858 -0.497536 6.79592e-19)
(0.646002 -0.44516 3.03685e-19)
(0.689858 -0.399794 -1.46721e-18)
(0.728069 -0.360353 2.23093e-18)
(0.761171 -0.325827 1.27664e-18)
(0.790333 -0.295507 -2.35233e-20)
(0.815795 -0.268709 1.68424e-18)
(0.838436 -0.244958 2.97966e-19)
(0.85832 -0.223781 -3.15486e-18)
(0.876138 -0.204849 -6.1742e-19)
(0.891844 -0.187831 -2.1676e-18)
(0.906007 -0.172493 -1.7419e-18)
(0.918514 -0.1586 -1.7314e-18)
(0.929847 -0.145979 8.08095e-19)
(0.93985 -0.134464 1.88326e-18)
(0.948946 -0.123921 2.21306e-18)
(0.956948 -0.114235 -2.51289e-18)
(0.96424 -0.105297 -1.04215e-18)
(0.970612 -0.097028 -1.16936e-18)
(0.976419 -0.0893355 -1.98762e-18)
(0.981437 -0.08217 1.26434e-18)
(0.985997 -0.0754477 1.39667e-18)
(0.989865 -0.0691426 5.58612e-18)
(0.993357 -0.0631752 1.62101e-20)
(0.996229 -0.0575387 2.58805e-18)
(0.998788 -0.0521545 2.25945e-18)
(1.00078 -0.0470327 -1.38797e-18)
(1.0025 -0.0420925 1.03525e-18)
(1.0037 -0.0373588 -9.19863e-19)
(1.00466 -0.0327466 -6.99293e-19)
(1.00512 -0.028294 6.00097e-18)
(1.00538 -0.0239088 8.38906e-18)
(1.00514 -0.0196389 -1.10228e-18)
(1.00471 -0.0153775 4.78448e-19)
(1.00379 -0.0111679 -2.98585e-18)
(1.00267 -0.00685787 4.66406e-18)
(1.00099 -0.00242245 -3.63398e-19)
(0.430181 -0.755631 -1.56556e-19)
(0.507555 -0.666847 1.69729e-18)
(0.57302 -0.591469 1.0588e-18)
(0.628397 -0.526948 1.04584e-18)
(0.67601 -0.471476 3.59043e-18)
(0.716808 -0.423428 7.74511e-19)
(0.75236 -0.381656 1.25292e-18)
(0.783134 -0.345089 5.58474e-19)
(0.810252 -0.312976 -2.51289e-18)
(0.833908 -0.284594 -9.38762e-19)
(0.854947 -0.259438 -4.12633e-19)
(0.873402 -0.237008 -1.98417e-19)
(0.889942 -0.216955 -6.76764e-19)
(0.9045 -0.19893 -4.78278e-19)
(0.917628 -0.182684 -5.1094e-19)
(0.929196 -0.167968 3.96916e-18)
(0.939677 -0.154599 -2.45021e-19)
(0.948901 -0.142401 5.84511e-18)
(0.957284 -0.131234 4.36861e-18)
(0.964632 -0.120972 1.89532e-18)
(0.971318 -0.111503 7.55732e-19)
(0.97713 -0.102742 -4.11318e-19)
(0.982416 -0.0945918 -1.86181e-18)
(0.986947 -0.0869992 2.37264e-18)
(0.991051 -0.0798759 2.07509e-19)
(0.99449 -0.0731942 -2.27878e-18)
(0.997577 -0.0668698 3.71599e-18)
(1.00007 -0.0608959 -1.15873e-18)
(1.00226 -0.0551887 3.81595e-19)
(1.0039 -0.0497594 -2.00958e-18)
(1.00529 -0.0445222 -7.32592e-19)
(1.00616 -0.0395038 -3.34968e-18)
(1.00681 -0.0346141 4.71499e-18)
(1.00697 -0.0298937 4.0156e-18)
(1.00693 -0.0252451 2.28014e-18)
(1.00641 -0.0207197 6.78317e-18)
(1.0057 -0.0162047 -3.45963e-18)
(1.0045 -0.0117486 4.60463e-19)
(1.00309 -0.00719378 -6.03027e-18)
(1.00113 -0.00252639 -7.29994e-18)
(0.480929 -0.79457 4.19367e-19)
(0.55234 -0.701211 1.65839e-18)
(0.612744 -0.621949 8.03115e-19)
(0.663787 -0.554104 1.56881e-18)
(0.707675 -0.495774 2.30329e-18)
(0.745246 -0.44525 1.95972e-18)
(0.777993 -0.401325 8.24931e-19)
(0.806311 -0.362873 -9.67888e-19)
(0.831271 -0.329105 -3.44673e-18)
(0.85302 -0.29926 6.05598e-19)
(0.872369 -0.272807 -1.05787e-18)
(0.889317 -0.24922 -8.65941e-19)
(0.904509 -0.228133 -5.37013e-18)
(0.917855 -0.209178 -2.88386e-18)
(0.92989 -0.192093 -2.49896e-18)
(0.940468 -0.176617 -4.9691e-19)
(0.950049 -0.162557 -2.4414e-19)
(0.958452 -0.149729 -7.86785e-19)
(0.966082 -0.137984 -1.06685e-19)
(0.972738 -0.127192 -2.59913e-18)
(0.978786 -0.117232 2.77521e-18)
(0.984007 -0.108017 7.20914e-19)
(0.988742 -0.0994437 1.80246e-18)
(0.99276 -0.0914568 7.18653e-19)
(0.996383 -0.0839631 -1.29216e-19)
(0.99937 -0.0769336 -1.02946e-18)
(1.00203 -0.0702796 6.80468e-19)
(1.00411 -0.0639939 -1.71923e-18)
(1.00592 -0.0579887 3.05017e-18)
(1.00719 -0.0522755 3.00172e-18)
(1.00823 -0.0467642 1.59389e-18)
(1.00876 -0.0414831 6.69426e-21)
(1.00908 -0.0363373 1.79511e-18)
(1.00892 -0.0313702 -4.27502e-18)
(1.00857 -0.0264788 -1.74722e-20)
(1.00775 -0.0217181 -2.07832e-18)
(1.00673 -0.0169697 -6.1692e-18)
(1.00524 -0.0122867 -2.77011e-18)
(1.00354 -0.00750631 -6.37404e-18)
(1.00129 -0.00262417 -1.83572e-18)
(0.534115 -0.830107 3.35421e-18)
(0.599278 -0.732573 2.21051e-18)
(0.654376 -0.649765 1.01296e-19)
(0.700878 -0.578887 2.17329e-18)
(0.740862 -0.517948 1.49594e-18)
(0.775051 -0.465164 3.69413e-18)
(0.804857 -0.419275 2.66402e-18)
(0.830601 -0.379103 1.54134e-18)
(0.8533 -0.343825 -1.22912e-21)
(0.873051 -0.312644 1.03392e-18)
(0.890628 -0.285007 -7.35207e-19)
(0.905996 -0.260364 1.0393e-18)
(0.919775 -0.238334 1.11968e-18)
(0.931851 -0.218529 -5.92851e-19)
(0.94274 -0.200679 -2.08813e-18)
(0.952281 -0.18451 -4.32976e-18)
(0.960918 -0.16982 -3.97343e-18)
(0.968461 -0.156416 -4.51905e-19)
(0.975303 -0.144144 -6.59934e-18)
(0.981233 -0.132867 -1.24066e-18)
(0.986612 -0.122459 2.61508e-18)
(0.991214 -0.11283 -3.71128e-19)
(0.995372 -0.10387 -7.97608e-19)
(0.998852 -0.0955237 -1.02811e-18)
(1.00197 -0.0876919 -6.38931e-19)
(1.00448 -0.0803449 -2.81016e-18)
(1.00669 -0.0733899 1.5441e-18)
(1.00835 -0.0668198 -9.94101e-19)
(1.00976 -0.0605424 2.08463e-18)
(1.01065 -0.0545702 2.0909e-18)
(1.01131 -0.0488088 5.69255e-18)
(1.01149 -0.0432882 5.18257e-19)
(1.01146 -0.037909 -5.89145e-19)
(1.01097 -0.0327169 -7.07948e-18)
(1.01029 -0.0276044 5.00122e-18)
(1.00915 -0.0226295 -8.707e-18)
(1.00782 -0.0176687 -1.65388e-18)
(1.00602 -0.0127794 1.30498e-18)
(1.00401 -0.00779346 -1.16658e-18)
(1.00145 -0.00271489 2.79037e-18)
(0.589512 -0.86209 3.05355e-18)
(0.648166 -0.760798 3.12213e-18)
(0.697738 -0.674799 -9.40653e-19)
(0.739511 -0.60119 2.79907e-18)
(0.775428 -0.537904 1.58148e-18)
(0.806095 -0.483087 1.34414e-18)
(0.832838 -0.435429 1.12181e-18)
(0.8559 -0.39371 6.5457e-19)
(0.876245 -0.357072 -1.39905e-18)
(0.893913 -0.324689 2.93493e-18)
(0.909645 -0.295987 1.57477e-18)
(0.923367 -0.270394 8.02207e-20)
(0.935675 -0.247513 -2.76711e-18)
(0.946428 -0.226945 -6.24104e-18)
(0.956124 -0.208406 -1.41605e-18)
(0.964584 -0.191612 1.3299e-18)
(0.972239 -0.176355 1.3042e-18)
(0.978885 -0.162434 -1.45593e-18)
(0.984906 -0.149686 -2.64471e-18)
(0.990081 -0.137973 6.16616e-19)
(0.994762 -0.127163 7.73145e-21)
(0.998719 -0.11716 -3.43519e-18)
(1.00228 -0.107853 -3.98771e-18)
(1.0052 -0.0991823 -3.9981e-18)
(1.00779 -0.0910461 7.6816e-19)
(1.00981 -0.0834133 -3.17692e-18)
(1.01155 -0.0761875 9.65077e-20)
(1.01277 -0.0693612 3.22282e-18)
(1.01375 -0.0628389 5.09415e-18)
(1.01424 -0.0566337 -1.66738e-18)
(1.01452 -0.0506473 3.86499e-18)
(1.01433 -0.0449112 -1.71664e-18)
(1.01394 -0.039322 4.02826e-18)
(1.0131 -0.0339279 4.19124e-18)
(1.01208 -0.0286166 5.17207e-18)
(1.01061 -0.0234495 -5.86681e-18)
(1.00896 -0.0182981 5.17823e-18)
(1.00684 -0.0132236 -7.51865e-18)
(1.0045 -0.00805313 -5.70195e-18)
(1.00161 -0.00279757 2.26936e-18)
(0.646882 -0.890381 3.65157e-18)
(0.698796 -0.785765 7.70286e-19)
(0.742646 -0.696944 1.57667e-19)
(0.77952 -0.620919 4.19899e-18)
(0.811226 -0.555556 1.47045e-18)
(0.838244 -0.49894 -9.58892e-19)
(0.861816 -0.449719 -2.06912e-18)
(0.882101 -0.40663 5.31463e-19)
(0.900007 -0.368789 1.54665e-18)
(0.915519 -0.335343 4.22462e-19)
(0.92934 -0.305699 2.48512e-18)
(0.941358 -0.279265 3.79096e-20)
(0.952141 -0.255633 1.061e-18)
(0.961524 -0.234389 1.38941e-18)
(0.969985 -0.21524 4.02212e-18)
(0.977325 -0.197894 1.30946e-18)
(0.983963 -0.182135 1.05748e-18)
(0.98968 -0.167756 1.98749e-19)
(0.99485 -0.154588 1.39954e-18)
(0.999244 -0.142489 -2.72403e-18)
(1.0032 -0.131322 -2.92206e-19)
(1.00649 -0.120989 -1.0709e-18)
(1.00943 -0.111375 -3.06596e-19)
(1.01177 -0.102417 -4.54564e-18)
(1.01382 -0.0940115 1.40334e-18)
(1.01533 -0.0861258 -2.75609e-18)
(1.01659 -0.0786603 -2.32491e-18)
(1.01735 -0.0716075 6.72637e-19)
(1.01789 -0.0648685 1.39723e-18)
(1.01797 -0.058457 -5.53013e-19)
(1.01784 -0.0522716 -3.08711e-18)
(1.01727 -0.046345 1.25294e-18)
(1.01651 -0.0405703 -3.33583e-18)
(1.01531 -0.0349976 -1.60901e-18)
(1.01394 -0.0295109 5.01005e-18)
(1.01213 -0.0241742 7.62451e-18)
(1.01014 -0.0188546 7.97698e-18)
(1.00769 -0.0136168 2.06451e-18)
(1.00501 -0.00828356 -4.34059e-18)
(1.00179 -0.00287141 -1.88899e-19)
(0.70598 -0.91486 3.33134e-18)
(0.75095 -0.807367 1.39755e-18)
(0.788905 -0.716104 1.64274e-18)
(0.820734 -0.637989 1.78632e-18)
(0.848101 -0.570829 -2.10302e-18)
(0.871362 -0.512657 -2.01233e-18)
(0.891666 -0.462082 1.49856e-19)
(0.909091 -0.417808 1.03618e-18)
(0.924484 -0.378927 2.81242e-19)
(0.937776 -0.344561 1.87134e-18)
(0.949628 -0.314101 2.41856e-18)
(0.95989 -0.28694 -1.76207e-18)
(0.969103 -0.262658 1.70355e-18)
(0.977074 -0.240829 4.75325e-19)
(0.984262 -0.221153 -1.74959e-18)
(0.990449 -0.203329 -6.89712e-21)
(0.996039 -0.187135 1.52035e-18)
(1.0008 -0.172359 5.73082e-19)
(1.00509 -0.158829 2.10326e-18)
(1.00868 -0.146395 -3.79381e-18)
(1.0119 -0.134919 1.6025e-18)
(1.0145 -0.124301 -3.96446e-20)
(1.01679 -0.11442 -3.07802e-19)
(1.01854 -0.105214 1.33294e-18)
(1.02002 -0.0965753 3.08818e-18)
(1.02101 -0.0884706 1.68422e-18)
(1.02177 -0.0807977 3.32299e-19)
(1.02206 -0.0735487 4.25693e-19)
(1.02216 -0.0666221 1.19334e-18)
(1.0218 -0.0600322 2.0937e-18)
(1.02127 -0.0536746 -1.29087e-18)
(1.0203 -0.0475833 -3.56395e-18)
(1.01916 -0.0416482 -1.32154e-18)
(1.01759 -0.0359212 3.71853e-18)
(1.01586 -0.030283 -9.13601e-18)
(1.01369 -0.0247999 -1.00037e-17)
(1.01135 -0.0193352 5.25539e-18)
(1.00856 -0.0139567 -3.14798e-18)
(1.00554 -0.00848299 -1.07145e-18)
(1.00197 -0.00293557 3.1783e-19)
(0.766553 -0.935421 2.76549e-18)
(0.804407 -0.825512 2.43164e-18)
(0.836319 -0.732198 6.33325e-19)
(0.862976 -0.652327 1.58895e-18)
(0.885897 -0.583657 1.55464e-18)
(0.905306 -0.524178 -5.3535e-19)
(0.922261 -0.472466 -6.78307e-19)
(0.936754 -0.427197 5.72919e-19)
(0.949572 -0.387442 1.51491e-18)
(0.960588 -0.352303 2.26041e-18)
(0.970422 -0.321158 1.57721e-18)
(0.978884 -0.293386 3.09869e-18)
(0.986488 -0.268558 1.62569e-18)
(0.993012 -0.246237 -3.2752e-18)
(0.998896 -0.226118 -3.08398e-18)
(1.0039 -0.207893 -1.53167e-18)
(1.00842 -0.191334 -3.79479e-18)
(1.0122 -0.176225 -6.52944e-19)
(1.01559 -0.162389 1.30756e-18)
(1.01836 -0.149674 1.663e-18)
(1.02081 -0.137939 1.22219e-18)
(1.0227 -0.12708 9.22316e-20)
(1.02434 -0.116976 -2.20013e-18)
(1.02547 -0.107562 -8.14041e-19)
(1.02639 -0.0987267 -7.73749e-20)
(1.02683 -0.090438 -1.47056e-18)
(1.02708 -0.0825905 1.86193e-18)
(1.02689 -0.0751767 -6.8518e-19)
(1.02653 -0.0680925 9.93227e-19)
(1.02574 -0.0613527 -7.51057e-18)
(1.02478 -0.0548504 -1.01133e-18)
(1.02341 -0.0486208 2.56271e-18)
(1.02188 -0.042551 -4.31049e-18)
(1.01993 -0.0366946 -3.85714e-18)
(1.01782 -0.0309293 -5.14964e-18)
(1.0153 -0.0253235 -7.27704e-20)
(1.0126 -0.0197375 -2.81573e-18)
(1.00946 -0.0142411 -3.771e-18)
(1.00608 -0.00865002 2.4e-18)
(1.00215 -0.00298943 3.49438e-18)
(0.828341 -0.951978 -1.26463e-19)
(0.858935 -0.840122 -1.06627e-18)
(0.884685 -0.745156 -3.07897e-19)
(0.906066 -0.663872 1.7358e-18)
(0.924451 -0.593986 -6.80957e-19)
(0.939931 -0.533454 2.45271e-19)
(0.95347 -0.480827 -2.24084e-18)
(0.964972 -0.434756 -1.55297e-18)
(0.975164 -0.394297 1.24426e-18)
(0.983857 -0.358536 3.66344e-18)
(0.991633 -0.326839 3.27679e-18)
(0.998259 -0.298576 -3.81512e-19)
(1.00422 -0.273307 -3.33707e-18)
(1.00927 -0.250591 -3.37505e-18)
(1.01382 -0.230115 -2.28658e-18)
(1.01762 -0.211566 2.82446e-18)
(1.02104 -0.194714 1.31235e-18)
(1.02382 -0.179336 -1.3666e-18)
(1.0263 -0.165254 1.84387e-18)
(1.02822 -0.152313 1.14283e-18)
(1.0299 -0.140369 1.87464e-18)
(1.03107 -0.129316 1.46642e-18)
(1.03204 -0.119032 -8.04688e-18)
(1.03255 -0.109449 -2.87945e-18)
(1.03288 -0.100456 7.03535e-18)
(1.03277 -0.0920191 -1.25854e-18)
(1.0325 -0.0840311 1.59289e-18)
(1.03182 -0.0764844 2.28222e-18)
(1.03099 -0.0692731 -4.80577e-18)
(1.02975 -0.0624125 -2.08497e-18)
(1.02836 -0.0557937 1.02631e-18)
(1.02658 -0.0494527 5.28558e-18)
(1.02465 -0.0432745 1.89584e-18)
(1.02232 -0.037314 7.10807e-18)
(1.01983 -0.0314467 7.43152e-18)
(1.01694 -0.0257424 2.31791e-18)
(1.01388 -0.020059 3.73166e-18)
(1.01037 -0.0144684 1.81386e-18)
(1.00664 -0.0087833 -5.67612e-18)
(1.00234 -0.00303233 2.14413e-18)
(0.89108 -0.964458 -3.13072e-19)
(0.914303 -0.851135 -9.7909e-19)
(0.933795 -0.754923 -5.47395e-20)
(0.94982 -0.672573 2.68828e-20)
(0.963599 -0.601771 -2.43001e-18)
(0.975089 -0.540445 -9.70885e-19)
(0.985159 -0.487128 -3.1426e-19)
(0.993624 -0.440453 -1.55755e-18)
(1.00115 -0.399463 -6.47131e-19)
(1.00748 -0.363234 2.88438e-20)
(1.01317 -0.331121 1.9537e-19)
(1.01793 -0.302486 -4.20986e-18)
(1.02223 -0.276886 -3.59933e-18)
(1.02578 -0.253871 2.37711e-18)
(1.02898 -0.233126 -9.98342e-19)
(1.03155 -0.214334 1.12314e-18)
(1.03386 -0.197259 6.22834e-19)
(1.03563 -0.181679 8.82061e-19)
(1.03718 -0.167411 5.70222e-18)
(1.03824 -0.1543 1.97513e-19)
(1.03913 -0.142198 4.41742e-18)
(1.03957 -0.130999 4.0147e-18)
(1.03986 -0.120578 -5.34451e-18)
(1.03974 -0.110869 -3.73634e-18)
(1.03947 -0.101757 1.08497e-18)
(1.03881 -0.0932075 -3.39281e-18)
(1.03801 -0.0851132 3.76865e-18)
(1.03683 -0.0774662 6.87523e-18)
(1.03552 -0.0701589 -6.1185e-18)