/*--------------------------------*- C++ -*----------------------------------*\
| =========                 |                                                 |
| \\      /  F ield         | OpenFOAM: The Open Source CFD Toolbox           |
|  \\    /   O peration     | Version:  2.2.0                                 |
|   \\  /    A nd           | Web:      www.OpenFOAM.org                      |
|    \\/     M anipulation  |                                                 |
\*---------------------------------------------------------------------------*/
FoamFile
{
    version     2.0;
    format      ascii;
    class       volVectorField;
    location    "2";
    object      s;
}
// * * * * * * * * * * * * * * * * * * * * * * * * * * * * * * * * * * * * * //

dimensions      [0 1 -1 0 0 0 0];

internalField   nonuniform List<vector> 
7920
(
(0.447824 0.392822 0.109765)
(0.419725 0.368307 0.172495)
(0.389035 0.341489 0.238868)
(0.355968 0.312575 0.307788)
(0.320753 0.281844 0.377662)
(0.283608 0.249699 0.446238)
(0.244591 0.216799 0.510256)
(0.20096 0.182426 0.564443)
(0.479605 0.320625 0.151804)
(0.449322 0.300614 0.212749)
(0.416287 0.278711 0.277216)
(0.380655 0.255046 0.344204)
(0.342646 0.229878 0.41232)
(0.302486 0.203634 0.47974)
(0.260178 0.177009 0.544167)
(0.215072 0.151117 0.602871)
(0.494449 0.244021 0.217753)
(0.463257 0.228938 0.27457)
(0.429287 0.212456 0.334671)
(0.392595 0.194642 0.397199)
(0.353435 0.175731 0.461007)
(0.312101 0.156136 0.524682)
(0.26879 0.136556 0.58662)
(0.224006 0.118618 0.645258)
(0.49428 0.167941 0.311669)
(0.463827 0.157876 0.360065)
(0.43052 0.146827 0.411431)
(0.394395 0.134838 0.465147)
(0.355692 0.122075 0.520398)
(0.314736 0.108839 0.576216)
(0.271905 0.0956739 0.631564)
(0.228155 0.0838495 0.68557)
(0.484374 0.0964598 0.418502)
(0.455839 0.0909775 0.454825)
(0.424384 0.0849002 0.493968)
(0.390004 0.0782478 0.535651)
(0.35289 0.071111 0.579465)
(0.313357 0.0636698 0.624898)
(0.271892 0.0562626 0.671397)
(0.229613 0.0496493 0.71855)
(0.474897 0.031157 0.49493)
(0.448066 0.0294409 0.52149)
(0.418262 0.0275187 0.550906)
(0.38544 0.0253978 0.583176)
(0.349747 0.0231106 0.618201)
(0.311471 0.0207204 0.655783)
(0.271138 0.0183454 0.695666)
(0.229907 0.0162356 0.737673)
(0.47485 -0.0312566 0.494975)
(0.448076 -0.0297005 0.521535)
(0.418338 -0.0279232 0.550952)
(0.385574 -0.0259168 0.583223)
(0.349924 -0.023706 0.618248)
(0.311672 -0.0213483 0.655829)
(0.271342 -0.0189597 0.695708)
(0.23009 -0.016794 0.737708)
(0.485833 -0.0967959 0.418715)
(0.457424 -0.0914123 0.455036)
(0.42585 -0.0853765 0.494172)
(0.391353 -0.0787549 0.535843)
(0.354086 -0.0716281 0.579639)
(0.314374 -0.0641764 0.62505)
(0.272716 -0.0567379 0.671524)
(0.230244 -0.0500736 0.718649)
(0.495251 -0.168218 0.311674)
(0.464848 -0.15811 0.36008)
(0.431536 -0.147018 0.411459)
(0.395387 -0.135007 0.465192)
(0.356635 -0.122238 0.520462)
(0.315603 -0.10901 0.576295)
(0.272668 -0.0958548 0.631651)
(0.228795 -0.0840361 0.685654)
(0.495126 -0.244314 0.217812)
(0.464002 -0.229196 0.274639)
(0.430035 -0.212656 0.334751)
(0.393344 -0.194794 0.397288)
(0.354167 -0.175845 0.461104)
(0.312795 -0.156223 0.524782)
(0.269426 -0.136629 0.586718)
(0.224568 -0.118688 0.645348)
(0.479894 -0.320757 0.151841)
(0.449644 -0.300679 0.212798)
(0.416643 -0.278719 0.277277)
(0.381037 -0.255014 0.344276)
(0.34305 -0.229823 0.412402)
(0.302902 -0.203573 0.479827)
(0.260595 -0.176957 0.544255)
(0.215482 -0.151091 0.602954)
(0.447748 -0.392743 0.109786)
(0.419659 -0.368206 0.172526)
(0.38902 -0.341393 0.238909)
(0.356008 -0.312482 0.307839)
(0.320855 -0.281757 0.377722)
(0.28377 -0.24962 0.446305)
(0.244807 -0.216732 0.510327)
(0.201222 -0.182377 0.564515)
(0.19321 0.169449 0.0232507)
(0.195314 0.171311 0.0437399)
(0.196714 0.172585 0.0673548)
(0.19703 0.172976 0.0942408)
(0.195821 0.172184 0.12431)
(0.192527 0.169905 0.157042)
(0.186387 0.165924 0.191089)
(0.175893 0.160115 0.223421)
(0.219565 0.14685 0.0333468)
(0.220967 0.148141 0.0545774)
(0.221465 0.148963 0.0789719)
(0.220633 0.149106 0.106707)
(0.217975 0.148378 0.137788)
(0.212885 0.146631 0.17193)
(0.204572 0.143855 0.208385)
(0.192234 0.140612 0.245713)
(0.245911 0.121409 0.0507901)
(0.24618 0.121963 0.0724953)
(0.245356 0.122165 0.0973657)
(0.243009 0.121889 0.125616)
(0.238648 0.121024 0.157352)
(0.231704 0.119517 0.192503)
(0.221489 0.117456 0.230761)
(0.207575 0.115487 0.27154)
(0.273477 0.0930303 0.0768177)
(0.271934 0.0929664 0.0978943)
(0.268996 0.0925764 0.122056)
(0.264451 0.0918464 0.149565)
(0.257833 0.0907207 0.180626)
(0.248664 0.0892107 0.215353)
(0.236407 0.0874461 0.25376)
(0.220864 0.0859658 0.295815)
(0.297164 0.0592978 0.107129)
(0.293197 0.0588844 0.126334)
(0.288061 0.0583181 0.14852)
(0.281291 0.0575371 0.174016)
(0.272543 0.0565377 0.203139)
(0.261401 0.0553461 0.236171)
(0.247441 0.05407 0.273378)
(0.230575 0.0530566 0.315105)
(0.312672 0.020529 0.128961)
(0.307053 0.0202626 0.146341)
(0.300221 0.0199545 0.166642)
(0.291798 0.0195949 0.190255)
(0.281476 0.0191813 0.217577)
(0.268903 0.0187229 0.249003)
(0.253734 0.0182546 0.284949)
(0.235938 0.0178889 0.325959)
(0.312897 -0.0205606 0.128948)
(0.307266 -0.0203103 0.146325)
(0.300408 -0.0200139 0.166623)
(0.291954 -0.0196601 0.190232)
(0.281597 -0.0192503 0.217551)
(0.268991 -0.018798 0.248978)
(0.253791 -0.0183435 0.284925)
(0.235972 -0.0180039 0.32594)
(0.297485 -0.0593039 0.106982)
(0.293539 -0.0588321 0.126183)
(0.288351 -0.0582167 0.14837)
(0.281538 -0.0574199 0.173875)
(0.272735 -0.0564327 0.203012)
(0.261538 -0.0552799 0.236064)
(0.24753 -0.0540631 0.273294)
(0.23063 -0.053121 0.315045)
(0.272986 -0.0928637 0.0767182)
(0.271309 -0.0927661 0.0977845)
(0.268432 -0.0924119 0.12194)
(0.263946 -0.0917234 0.149449)
(0.257413 -0.0906541 0.180517)
(0.248344 -0.0892105 0.215257)
(0.236192 -0.0875172 0.253682)
(0.220745 -0.0861063 0.295759)
(0.246292 -0.121689 0.0507454)
(0.246472 -0.122322 0.0724433)
(0.245562 -0.122582 0.0973091)
(0.243144 -0.122337 0.125559)
(0.23873 -0.121479 0.157299)
(0.231753 -0.119956 0.192457)
(0.221528 -0.117867 0.230725)
(0.207613 -0.11586 0.271518)
(0.220089 -0.14724 0.0333597)
(0.221478 -0.148588 0.0545926)
(0.221929 -0.14944 0.078989)
(0.221047 -0.149604 0.106726)
(0.218335 -0.148881 0.137808)
(0.213188 -0.14712 0.171951)
(0.20482 -0.144316 0.208406)
(0.192425 -0.141023 0.245738)
(0.193787 -0.169944 0.0232873)
(0.195926 -0.171829 0.0437879)
(0.197299 -0.173082 0.0674125)
(0.19758 -0.173457 0.094305)
(0.196321 -0.172645 0.124378)
(0.192964 -0.17034 0.157109)
(0.186753 -0.166328 0.191153)
(0.176181 -0.160474 0.223482)
(0.0926071 0.0812592 0.00208885)
(0.0943089 0.0828209 0.0109558)
(0.0961005 0.0844684 0.0213236)
(0.097769 0.0860321 0.0333616)
(0.0991676 0.0874286 0.0471794)
(0.100029 0.0885252 0.0627378)
(0.0999294 0.0891944 0.0796578)
(0.0981764 0.0894827 0.096773)
(0.105453 0.0705877 0.00210035)
(0.106999 0.071922 0.0115232)
(0.108551 0.0733462 0.0225485)
(0.109881 0.074755 0.0353855)
(0.1108 0.076096 0.0502196)
(0.111011 0.0773098 0.0671682)
(0.110073 0.0783749 0.0862067)
(0.107506 0.0795399 0.107067)
(0.11855 0.0586116 0.00260795)
(0.119796 0.0595861 0.0127419)
(0.120975 0.0606395 0.0246068)
(0.121844 0.0617002 0.0384533)
(0.122207 0.0627479 0.0545382)
(0.12177 0.0637664 0.0731059)
(0.120131 0.0647824 0.0943685)
(0.116902 0.06603 0.118503)
(0.131864 0.0448829 0.00317702)
(0.132581 0.0454284 0.014005)
(0.133154 0.0460257 0.0266782)
(0.13335 0.0466375 0.041478)
(0.132982 0.0472619 0.0587085)
(0.131779 0.0479064 0.0786958)
(0.129392 0.0486169 0.101795)
(0.12551 0.0495838 0.128436)
(0.143922 0.0286967 0.00353403)
(0.143918 0.028877 0.0149616)
(0.143708 0.0290852 0.0283024)
(0.143084 0.029308 0.0438523)
(0.141877 0.0295518 0.061945)
(0.139848 0.0298317 0.0829572)
(0.136698 0.0301883 0.107333)
(0.132172 0.0307474 0.135654)
(0.151563 0.00993998 0.00345635)
(0.150998 0.00993647 0.015272)
(0.150191 0.00994274 0.02903)
(0.148958 0.00995857 0.0450314)
(0.147143 0.00998875 0.063621)
(0.144532 0.0100411 0.0851975)
(0.140855 0.0101316 0.110246)
(0.13589 0.0103032 0.139425)
(0.151773 -0.0100016 0.00346188)
(0.151222 -0.0100743 0.0152776)
(0.150403 -0.01015 0.0290358)
(0.149156 -0.0102252 0.0450377)
(0.147321 -0.0103032 0.0636276)
(0.144686 -0.0103912 0.0852041)
(0.140982 -0.0105069 0.110252)
(0.135989 -0.0106961 0.139429)
(0.144423 -0.028799 0.00354562)
(0.14446 -0.029006 0.0149747)
(0.144219 -0.0292327 0.0283171)
(0.143561 -0.0294833 0.0438692)
(0.142307 -0.0297608 0.0619636)
(0.140223 -0.0300791 0.082976)
(0.13701 -0.0304764 0.10735)
(0.13242 -0.0310748 0.135668)
(0.13202 -0.0449263 0.00325228)
(0.132746 -0.0454736 0.0140813)
(0.133355 -0.046093 0.0267529)
(0.13357 -0.0467348 0.0415474)
(0.133218 -0.0474014 0.0587697)
(0.132025 -0.0480962 0.078746)
(0.129637 -0.0488607 0.101833)
(0.125742 -0.0498785 0.128461)
(0.118868 -0.0587937 0.00260786)
(0.120108 -0.0598028 0.0127423)
(0.121276 -0.0608876 0.0246087)
(0.122141 -0.0619778 0.0384576)
(0.122501 -0.0630519 0.0545451)
(0.122062 -0.0640927 0.0731143)
(0.120418 -0.0651271 0.0943765)
(0.117173 -0.0663855 0.118509)
(0.106034 -0.0709993 0.00209386)
(0.107569 -0.0723587 0.011515)
(0.109084 -0.07379 0.0225393)
(0.110378 -0.0752001 0.0353763)
(0.111259 -0.0765356 0.0502113)
(0.111429 -0.0777379 0.0671611)
(0.11045 -0.0787877 0.0862008)
(0.107836 -0.0799295 0.107062)
(0.0932262 -0.0817929 0.00207959)
(0.0949407 -0.0833547 0.0109436)
(0.0966919 -0.0849615 0.0213098)
(0.098329 -0.0864991 0.0333475)
(0.0996871 -0.087868 0.0471664)
(0.100503 -0.0889386 0.0627265)
(0.100353 -0.0895818 0.0796484)
(0.098543 -0.0898381 0.0967651)
(0.0440293 0.0386443 -0.00731897)
(0.0449847 0.0395448 -0.00372284)
(0.0460291 0.0405349 0.000535361)
(0.0470866 0.0415587 0.00555706)
(0.0480979 0.0425875 0.0114349)
(0.0489549 0.043576 0.0182194)
(0.0494696 0.044476 0.0258445)
(0.0493457 0.0453405 0.0339465)
(0.0500805 0.0335421 -0.0120017)
(0.0510035 0.0343556 -0.00807084)
(0.0519709 0.035258 -0.00338312)
(0.0529017 0.0362194 0.00219809)
(0.05372 0.0372264 0.00882025)
(0.0543024 0.0382624 0.0166293)
(0.0544557 0.0393243 0.0257476)
(0.0539504 0.040521 0.0362452)
(0.056245 0.0278413 -0.0193998)
(0.0570752 0.0285039 -0.0148287)
(0.0579014 0.0292356 -0.00936135)
(0.058656 0.0300274 -0.00282796)
(0.0592568 0.0308743 0.0049646)
(0.0595823 0.0317743 0.0142303)
(0.0594549 0.0327409 0.0252029)
(0.0586728 0.0338634 0.0381472)
(0.0622382 0.0212611 -0.0304859)
(0.0628648 0.0217492 -0.0248123)
(0.0634544 0.0222776 -0.0180902)
(0.0639554 0.0228409 -0.0101344)
(0.0642878 0.0234401 -0.000733737)
(0.0643398 0.0240823 0.0103516)
(0.063953 0.0247904 0.0233997)
(0.0629506 0.0256411 0.0387565)
(0.0670012 0.0134351 -0.0438336)
(0.0673092 0.0137059 -0.036625)
(0.0676858 0.0140186 -0.0282506)
(0.0679432 0.0143428 -0.0185358)
(0.0680417 0.0146877 -0.00728143)
(0.0678714 0.0150594 0.00574224)
(0.0672881 0.0154776 0.0208135)
(0.0661316 0.0159955 0.0383023)
(0.0701615 0.00462324 -0.053736)
(0.070251 0.00468898 -0.0452701)
(0.0703942 0.00477042 -0.0355857)
(0.0704316 0.00486268 -0.0245272)
(0.070314 0.00496664 -0.0119164)
(0.0699442 0.00508389 0.00245733)
(0.0691884 0.0052195 0.0188605)
(0.0678993 0.0053899 0.0376657)
(0.0703316 -0.00464838 -0.0537389)
(0.0704153 -0.00473123 -0.0452732)
(0.0705386 -0.00482815 -0.0355892)
(0.070552 -0.00493245 -0.024531)
(0.0704079 -0.00504721 -0.0119208)
(0.0700114 -0.00517641 0.00245236)
(0.0692318 -0.00532858 0.0188548)
(0.0679238 -0.00552367 0.0376592)
(0.0672041 -0.0134553 -0.0438454)
(0.0675173 -0.0137061 -0.0366374)
(0.0678544 -0.0140005 -0.0282637)
(0.0680855 -0.0143229 -0.0185494)
(0.0681518 -0.014679 -0.00729594)
(0.0679505 -0.0150759 0.00572649)
(0.0673397 -0.0155318 0.0207962)
(0.0661616 -0.0160971 0.0382831)
(0.0620308 -0.021181 -0.0304697)
(0.0626246 -0.0216545 -0.0247991)
(0.0632389 -0.0221932 -0.0180815)
(0.0637624 -0.0227763 -0.0101322)
(0.0641244 -0.0234077 -0.000739354)
(0.0642107 -0.024093 0.0103376)
(0.0638609 -0.024853 0.0233778)
(0.0628934 -0.0257602 0.0387282)
(0.0561693 -0.027842 -0.0194316)
(0.0569638 -0.0285434 -0.0148664)
(0.0577822 -0.0293212 -0.00940412)
(0.058535 -0.030152 -0.00287448)
(0.0591446 -0.0310323 0.00491562)
(0.0594887 -0.0319603 0.01418)
(0.0593884 -0.0329508 0.0251523)
(0.0586331 -0.034092 0.0380971)
(0.0503072 -0.0337321 -0.0120299)
(0.0512077 -0.034591 -0.00810774)
(0.052139 -0.035525 -0.00342808)
(0.0530375 -0.0365115 0.00214646)
(0.0538266 -0.0375345 0.00876373)
(0.0543848 -0.0385775 0.0165699)
(0.0545209 -0.0396382 0.0256874)
(0.0539981 -0.0408211 0.0361863)
(0.0443453 -0.0389305 -0.00734115)
(0.0453094 -0.03986 -0.00375404)
(0.0463301 -0.0408551 0.000495569)
(0.0473613 -0.0418857 0.00551009)
(0.0483398 -0.0429174 0.0113824)
(0.0491597 -0.0439045 0.0181631)
(0.0496363 -0.044798 0.0257865)
(0.0494698 -0.0456432 0.0338888)
(0.0184327 0.0162465 -0.0116387)
(0.0188462 0.0167564 -0.0104747)
(0.0193567 0.0173571 -0.00904226)
(0.0198788 0.0179743 -0.00728045)
(0.0204067 0.0186098 -0.00512176)
(0.0208961 0.0192436 -0.00250062)
(0.0212731 0.0198588 0.000624478)
(0.0214034 0.0204745 0.00421967)
(0.0208575 0.0140104 -0.0185052)
(0.0212507 0.0144371 -0.0171362)
(0.0217349 0.0149552 -0.0154134)
(0.0222204 0.0155156 -0.0132455)
(0.0226886 0.0161201 -0.0105234)
(0.0230895 0.0167624 -0.00712044)
(0.023344 0.0174415 -0.0028957)
(0.0233385 0.0181909 0.00230489)
(0.0233754 0.0115898 -0.0295634)
(0.0237456 0.0119184 -0.0276239)
(0.0241993 0.0123255 -0.0251963)
(0.0246375 0.0127743 -0.0221626)
(0.0250412 0.0132724 -0.0183831)
(0.0253604 0.0138218 -0.0136954)
(0.0255204 0.0144305 -0.00791209)
(0.025422 0.0151305 -0.000811731)
(0.0258847 0.00882973 -0.0459765)
(0.0262058 0.00904605 -0.0427895)
(0.0265951 0.00931728 -0.0389541)
(0.0269597 0.00962341 -0.0343463)
(0.0272793 0.00997248 -0.0288255)
(0.0275056 0.0103704 -0.0222332)
(0.0275694 0.0108287 -0.0143882)
(0.0273843 0.0113762 -0.0050716)
(0.0281256 0.00561314 -0.0653872)
(0.0283634 0.00571469 -0.0602886)
(0.0286527 0.00584817 -0.054413)
(0.0289137 0.00600638 -0.0476601)
(0.0291256 0.00619582 -0.0399213)
(0.0292437 0.00642271 -0.0310764)
(0.0292044 0.0066968 -0.0209853)
(0.0289299 0.0070386 -0.00946596)
(0.0295791 0.00193 -0.0796116)
(0.0297533 0.00193673 -0.0728989)
(0.0299593 0.00195543 -0.06535)
(0.0301358 0.00198713 -0.0568951)
(0.0302606 0.00203509 -0.0474616)
(0.030292 0.00210246 -0.0369682)
(0.0301704 0.00219284 -0.0253119)
(0.0298234 0.00231246 -0.0123419)
(0.0297708 -0.00197803 -0.079617)
(0.0299529 -0.00203979 -0.0729043)
(0.0301423 -0.00210639 -0.0653554)
(0.0303023 -0.00217587 -0.0569005)
(0.0304068 -0.00224904 -0.0474672)
(0.030415 -0.00232787 -0.0369739)
(0.0302684 -0.00241671 -0.0253176)
(0.0298959 -0.00252498 -0.0123475)
(0.0284559 -0.0056907 -0.0654023)
(0.0287215 -0.00581619 -0.0603039)
(0.0289902 -0.0059608 -0.0544283)
(0.0292314 -0.00612859 -0.0476756)
(0.0294148 -0.00632412 -0.0399369)
(0.0294963 -0.0065547 -0.0310921)
(0.0294132 -0.00683107 -0.0210007)
(0.0290901 -0.00717459 -0.00948086)
(0.0258983 -0.00879789 -0.0459788)
(0.0263165 -0.00900102 -0.0427928)
(0.0267529 -0.00925557 -0.038959)
(0.0271437 -0.009556 -0.0343537)
(0.0274725 -0.0099128 -0.0288359)
(0.0276904 -0.0103307 -0.0222464)
(0.0277325 -0.0108191 -0.0144037)
(0.0275178 -0.0114026 -0.00508881)
(0.0230105 -0.0113859 -0.0295662)
(0.023396 -0.0116901 -0.0276279)
(0.0239105 -0.0121041 -0.0252018)
(0.0244115 -0.0125717 -0.0221701)
(0.0248816 -0.0131033 -0.018393)
(0.0252649 -0.0136983 -0.0137079)
(0.0254817 -0.0143613 -0.00792708)
(0.0254265 -0.0151178 -0.000829062)
(0.0208556 -0.0140313 -0.0185055)
(0.0212157 -0.0144624 -0.0171373)
(0.0216826 -0.0149896 -0.0154157)
(0.0221569 -0.0155536 -0.0132496)
(0.0226239 -0.0161609 -0.0105298)
(0.0230337 -0.0168073 -0.00712967)
(0.0233074 -0.0174957 -0.00290812)
(0.0233233 -0.0182572 0.00228893)
(0.0185956 -0.0164048 -0.0116339)
(0.0189752 -0.0169093 -0.0104697)
(0.0194443 -0.0174976 -0.0090381)
(0.019937 -0.0181093 -0.00727849)
(0.0204403 -0.0187389 -0.00512314)
(0.0209136 -0.0193685 -0.00250623)
(0.0212841 -0.0199821 0.000614113)
(0.021412 -0.0205952 0.00420455)
(0.00683712 0.00606306 -0.0136612)
(0.0069781 0.00631664 -0.0136526)
(0.00717148 0.00662651 -0.013566)
(0.00737357 0.00695489 -0.0133632)
(0.00758107 0.00730158 -0.0129922)
(0.00777728 0.007658 -0.0123864)
(0.00793513 0.00801513 -0.0114614)
(0.00799958 0.00836937 -0.0101035)
(0.00759565 0.00512255 -0.0215319)
(0.007763 0.00534777 -0.0213825)
(0.00797148 0.00562636 -0.0210763)
(0.00817715 0.00593437 -0.0205475)
(0.00837336 0.00627286 -0.0197105)
(0.00854093 0.00663711 -0.0184556)
(0.00865126 0.00702268 -0.0166448)
(0.00865335 0.00742736 -0.0141007)
(0.00846652 0.00421966 -0.034253)
(0.00863838 0.00441449 -0.0335755)
(0.0088328 0.00464788 -0.0326124)
(0.00901839 0.00491001 -0.031275)
(0.00918574 0.00520146 -0.0294554)
(0.00931685 0.00552034 -0.0270248)
(0.00938583 0.00586548 -0.023831)
(0.00934952 0.00623828 -0.0196921)
(0.00922681 0.00320186 -0.05305)
(0.00937451 0.00338468 -0.0510758)
(0.00953153 0.00358719 -0.0486554)
(0.00968317 0.00380155 -0.0456988)
(0.00981857 0.00402801 -0.0421055)
(0.0099219 0.00426652 -0.0377653)
(0.00996954 0.00451988 -0.0325567)
(0.00992297 0.00479554 -0.0263409)
(0.00940787 0.00194274 -0.0751442)
(0.00949375 0.0020838 -0.0711092)
(0.00968571 0.00224762 -0.066496)
(0.00985253 0.00240525 -0.0612441)
(0.0100158 0.00256219 -0.0552945)
(0.0101531 0.0027178 -0.0485891)
(0.0102407 0.00287602 -0.0410672)
(0.0102416 0.00304588 -0.0326562)
(0.00958217 0.000651576 -0.091234)
(0.00962989 0.000702193 -0.0854422)
(0.00979295 0.000761065 -0.0790115)
(0.0099528 0.00082184 -0.0719171)
(0.0101149 0.000883369 -0.064143)
(0.0102608 0.000944427 -0.0556782)
(0.0103648 0.00100454 -0.0465111)
(0.0103908 0.00106562 -0.0366155)
(0.00971932 -0.000655469 -0.0912365)
(0.00974966 -0.000689611 -0.0854449)
(0.00988746 -0.000731118 -0.0790147)
(0.0100184 -0.00077265 -0.0719214)
(0.0101515 -0.000816086 -0.0641487)
(0.0102715 -0.000862929 -0.0556858)
(0.0103556 -0.000915969 -0.0465203)
(0.0103702 -0.000979733 -0.0366262)
(0.00939167 -0.00191283 -0.0751387)
(0.00946452 -0.00201501 -0.0711062)
(0.00962344 -0.00214409 -0.0664968)
(0.00977463 -0.0022813 -0.0612508)
(0.00992229 -0.00242927 -0.0553086)
(0.0100506 -0.00258827 -0.0486108)
(0.0101368 -0.00276085 -0.0410954)
(0.010145 -0.00295375 -0.0326889)
(0.00882082 -0.00305919 -0.0531019)
(0.00893493 -0.00322898 -0.0511317)
(0.00911628 -0.00343846 -0.0487148)
(0.00929276 -0.00366393 -0.045761)
(0.00946355 -0.00390795 -0.04217)
(0.00961141 -0.00416951 -0.0378307)
(0.00971161 -0.00444988 -0.0326213)
(0.00972104 -0.00475379 -0.0264035)
(0.00819059 -0.00412379 -0.0342852)
(0.00833139 -0.00436163 -0.0336158)
(0.00852064 -0.00464267 -0.032661)
(0.00870973 -0.00494301 -0.0313321)
(0.00889332 -0.00526298 -0.0295201)
(0.0090532 -0.0055994 -0.0270953)
(0.00916265 -0.00595148 -0.0239045)
(0.00916995 -0.00631938 -0.0197657)
(0.00765369 -0.00521187 -0.0215627)
(0.00780986 -0.00550202 -0.0214237)
(0.00798656 -0.00582075 -0.0211277)
(0.00816784 -0.00615635 -0.0206084)
(0.00834326 -0.00650507 -0.0197793)
(0.00849532 -0.00686216 -0.0185303)
(0.00859692 -0.00722484 -0.0167224)
(0.00859121 -0.0075891 -0.0141784)
(0.00718178 -0.00635986 -0.0136857)
(0.00735391 -0.00664169 -0.0136878)
(0.00751225 -0.00692819 -0.0136117)
(0.00767565 -0.00723683 -0.0134182)
(0.00783175 -0.00755742 -0.0130551)
(0.00796872 -0.00788205 -0.0124554)
(0.00806479 -0.00820087 -0.0115342)
(0.00807053 -0.00850605 -0.0101776)
(0.00166888 0.00155832 -0.0145742)
(0.00164895 0.00171776 -0.0150915)
(0.00167206 0.00192386 -0.015617)
(0.0016919 0.00213207 -0.016122)
(0.00171839 0.00234894 -0.0165627)
(0.00174742 0.00256878 -0.0168728)
(0.00177678 0.00278841 -0.0169504)
(0.00178099 0.00299314 -0.0166178)
(0.00151346 0.00108126 -0.0228854)
(0.00150788 0.00121856 -0.0232905)
(0.00156359 0.0014104 -0.023628)
(0.00161787 0.00161479 -0.0238435)
(0.00167777 0.00183567 -0.023863)
(0.00173785 0.00206903 -0.0235861)
(0.0017918 0.00231147 -0.0228788)
(0.00180953 0.00254635 -0.0215575)
(0.00153611 0.000803355 -0.0363157)
(0.0015361 0.000901714 -0.0362111)
(0.00160732 0.00105104 -0.0359131)
(0.0016736 0.00121509 -0.0353467)
(0.00174448 0.00140014 -0.0344199)
(0.00181432 0.00160513 -0.0330216)
(0.00187615 0.00182957 -0.0310188)
(0.00190705 0.00206759 -0.0282526)
(0.00158097 0.000565402 -0.0560664)
(0.00159204 0.000633674 -0.0546461)
(0.00167702 0.000739356 -0.0528741)
(0.00175583 0.000857825 -0.0506771)
(0.00183744 0.00099482 -0.0479745)
(0.00191534 0.00115141 -0.0446801)
(0.00198135 0.00132917 -0.0407023)
(0.00201743 0.00152837 -0.0359428)
(0.00167447 0.000346311 -0.0792173)
(0.00168763 0.000381593 -0.0756802)
(0.00177363 0.000439849 -0.0716593)
(0.0018544 0.00050833 -0.0671141)
(0.00193795 0.000591567 -0.0620096)
(0.0020172 0.000691688 -0.0563174)
(0.00208288 0.00081098 -0.0500156)
(0.00211925 0.000951223 -0.0430839)
(0.00176922 0.000111145 -0.0960443)
(0.00178676 0.000110724 -0.0906974)
(0.00187258 0.000120744 -0.084806)
(0.00195432 0.000140134 -0.0783671)
(0.00203749 0.000172097 -0.0713912)
(0.00211379 0.000218642 -0.0639013)
(0.00217269 0.000280481 -0.0559287)
(0.0021993 0.000356299 -0.0475072)
(0.0018592 -0.000154382 -0.096059)
(0.0019057 -0.00019529 -0.0907126)
(0.00199317 -0.00022724 -0.0848217)
(0.00207361 -0.000243292 -0.0783831)
(0.00214679 -0.000244753 -0.0714075)
(0.00220493 -0.000234708 -0.0639171)
(0.00223895 -0.000219183 -0.0559433)
(0.00223705 -0.000206667 -0.0475198)
(0.00207091 -0.000395094 -0.0792585)
(0.0021616 -0.000396372 -0.0757234)
(0.00220299 -0.00039395 -0.0717043)
(0.00223717 -0.000404399 -0.0671604)
(0.00225295 -0.000429274 -0.0620562)
(0.00225031 -0.000473813 -0.0563625)
(0.00222754 -0.000542708 -0.0500564)
(0.00218069 -0.00063984 -0.043118)
(0.00106641 -0.000305284 -0.0561161)
(0.00111987 -0.00026306 -0.0547)
(0.00128298 -0.000288167 -0.0529315)
(0.00141527 -0.000344921 -0.0507368)
(0.00154458 -0.000448255 -0.0480346)
(0.00165901 -0.000597792 -0.0447376)
(0.00175205 -0.000792255 -0.0407535)
(0.00181122 -0.00102579 -0.0359843)
(0.00042831 -0.000222098 -0.0363406)
(0.000456489 -0.000269514 -0.0362412)
(0.000616954 -0.000401658 -0.0359481)
(0.000777682 -0.000556878 -0.0353857)
(0.000952756 -0.000748783 -0.0344612)
(0.00113218 -0.000978085 -0.0330622)
(0.00130532 -0.00124528 -0.0310553)
(0.00144532 -0.00154175 -0.0282816)
(0.000592569 -0.000467044 -0.0229088)
(0.000559017 -0.000585033 -0.0233178)
(0.000640431 -0.000791695 -0.0236568)
(0.000727305 -0.00101223 -0.0238713)
(0.000838251 -0.00125809 -0.0238874)
(0.000969054 -0.00152608 -0.0236056)
(0.00111533 -0.00181488 -0.0228923)
(0.00123839 -0.00210286 -0.0215654)
(0.000906063 -0.000932006 -0.0145338)
(0.000839134 -0.00111464 -0.0150412)
(0.000862719 -0.00137737 -0.0155608)
(0.000896392 -0.00163961 -0.0160652)
(0.000954269 -0.00190838 -0.0165099)
(0.0010338 -0.0021773 -0.0168273)
(0.00113427 -0.00244497 -0.0169139)
(0.00122011 -0.00269424 -0.0165905)
(-0.00017483 -6.95713e-05 -0.0149549)
(-0.000244834 2.63354e-05 -0.0156922)
(-0.0002823 0.000160232 -0.0164731)
(-0.000321724 0.000298295 -0.0172733)
(-0.000356524 0.000444243 -0.0180525)
(-0.000386747 0.000594922 -0.0187455)
(-0.000408952 0.000748066 -0.0192439)
(-0.000437185 0.000885573 -0.0193442)
(-0.000495432 -0.00027626 -0.0234249)
(-0.000546663 -0.000199739 -0.0240576)
(-0.00055043 -7.88426e-05 -0.0246611)
(-0.000558305 5.20641e-05 -0.0251863)
(-0.000562543 0.00019814 -0.0255643)
(-0.000565409 0.000356382 -0.0256995)
(-0.000566832 0.000522881 -0.02546)
(-0.000585739 0.000675918 -0.024661)
(-0.000749755 -0.000356234 -0.0371178)
(-0.000769069 -0.000309974 -0.037248)
(-0.000734961 -0.000215135 -0.0372253)
(-0.000712876 -9.93402e-05 -0.0369811)
(-0.000695101 4.08294e-05 -0.0364306)
(-0.000684889 0.000200744 -0.0354705)
(-0.000682731 0.000373555 -0.0339766)
(-0.000698832 0.000543477 -0.0318004)
(-0.000770141 -0.000225644 -0.0572567)
(-0.000722932 -0.000132053 -0.0560663)
(-0.000712625 -3.66381e-05 -0.0545646)
(-0.000711742 6.77723e-05 -0.0526854)
(-0.000726223 0.000177876 -0.0503572)
(-0.000752554 0.000291507 -0.0475049)
(-0.000785751 0.000405868 -0.044051)
(-0.000827032 0.000515185 -0.0399157)
(-0.00127586 -0.000176631 -0.0808076)
(-0.00131666 -6.11029e-05 -0.0774813)
(-0.00128228 6.29771e-05 -0.0737116)
(-0.00126174 0.000171127 -0.0694662)
(-0.00123341 0.000265525 -0.0647206)
(-0.00120147 0.000344132 -0.0594601)
(-0.00116562 0.000407808 -0.05368)
(-0.00113175 0.000458426 -0.0473845)
(-0.0019469 -8.50937e-05 -0.0978933)
(-0.00198453 -1.18832e-05 -0.0927384)
(-0.00190586 6.61596e-05 -0.0870794)
(-0.00182912 0.000138143 -0.0809224)
(-0.00173793 0.000200826 -0.0742896)
(-0.00163628 0.000250061 -0.0672188)
(-0.00152731 0.000282546 -0.0597609)
(-0.0014174 0.000296906 -0.0519767)
(-0.00201319 0.000136639 -0.0978977)
(-0.00207488 0.000151132 -0.0927418)
(-0.0020175 0.000158807 -0.0870812)
(-0.00196291 0.000165463 -0.0809222)
(-0.00188943 0.000166709 -0.0742869)
(-0.00179766 0.000158608 -0.0672131)
(-0.00168725 0.000136613 -0.0597518)
(-0.00156235 9.69535e-05 -0.0519642)
(-0.00202366 0.000385436 -0.0808106)
(-0.00207769 0.000359889 -0.0774809)
(-0.00201987 0.000306065 -0.0737064)
(-0.00196677 0.000246453 -0.0694551)
(-0.00189704 0.000175888 -0.0647027)
(-0.00180965 9.32821e-05 -0.0594344)
(-0.00170159 -3.00606e-06 -0.0536458)
(-0.00157784 -0.000113083 -0.0473421)
(-0.00187994 0.000597221 -0.0572144)
(-0.00193899 0.000530243 -0.0560174)
(-0.00189321 0.000415405 -0.0545083)
(-0.00185104 0.000289496 -0.0526224)
(-0.00179084 0.000146486 -0.0502881)
(-0.00171012 -1.12998e-05 -0.04743)
(-0.00160406 -0.000180766 -0.0439704)
(-0.00148608 -0.000351532 -0.0398305)
(-0.00151338 0.000683528 -0.0370487)
(-0.00160953 0.000584309 -0.0371649)
(-0.00160243 0.000409115 -0.0371292)
(-0.00159154 0.000212468 -0.0368745)
(-0.00155446 -6.49671e-06 -0.0363161)
(-0.00148857 -0.000235105 -0.0353506)
(-0.00138904 -0.000460073 -0.0338539)
(-0.00128653 -0.000650481 -0.031678)
(-0.00133478 0.000666513 -0.0233641)
(-0.00144127 0.000389454 -0.0239779)
(-0.00141669 5.0696e-05 -0.024563)
(-0.00137087 -0.000253712 -0.025072)
(-0.00129168 -0.000525395 -0.025437)
(-0.00118978 -0.000752909 -0.0255634)
(-0.00107168 -0.000931234 -0.02532)
(-0.00099278 -0.00102266 -0.024523)
(0.000860986 -0.000893073 -0.014902)
(0.000900647 -0.00117265 -0.0156181)
(0.000715044 -0.0012555 -0.0163795)
(0.000534707 -0.00133442 -0.0171633)
(0.000327145 -0.00137437 -0.01793)
(0.000109456 -0.00138186 -0.0186145)
(-9.94998e-05 -0.00136067 -0.0191093)
(-0.000300278 -0.00128558 -0.0192116)
(-0.000784872 -0.000611855 -0.0150937)
(-0.000907407 -0.000581651 -0.0159156)
(-0.000953278 -0.000475831 -0.0167959)
(-0.00100903 -0.000376289 -0.0177122)
(-0.00105442 -0.000267733 -0.0186256)
(-0.00109036 -0.000154841 -0.0194712)
(-0.00111061 -3.78322e-05 -0.0201376)
(-0.00113284 6.64418e-05 -0.0204114)
(-0.000869908 -0.00055564 -0.0236308)
(-0.000971139 -0.00055985 -0.0243536)
(-0.00100672 -0.000507219 -0.0250619)
(-0.00105706 -0.000450235 -0.0257089)
(-0.00110361 -0.000377939 -0.0262279)
(-0.00114593 -0.000293098 -0.0265253)
(-0.00117814 -0.000197049 -0.0264704)
(-0.00121374 -0.00010874 -0.025878)
(-0.000995484 -0.000477134 -0.0374236)
(-0.00108196 -0.000486074 -0.037648)
(-0.0011018 -0.000454533 -0.0377351)
(-0.00113758 -0.000421261 -0.0376187)
(-0.00117173 -0.000376426 -0.0372168)
(-0.00120477 -0.000319509 -0.0364291)
(-0.00123307 -0.000248547 -0.0351354)
(-0.00126112 -0.00016777 -0.0331917)
(-0.00107949 -0.000363199 -0.0577111)
(-0.00115439 -0.000377116 -0.0566136)
(-0.00116559 -0.000365115 -0.0552198)
(-0.00119196 -0.000351975 -0.0534662)
(-0.00121784 -0.000330898 -0.0512851)
(-0.00124456 -0.00030059 -0.0486061)
(-0.00127042 -0.000258481 -0.0453577)
(-0.00129657 -0.00020313 -0.0414685)
(-0.0011396 -0.000230796 -0.0813807)
(-0.00120366 -0.000248514 -0.07814)
(-0.00120894 -0.000253428 -0.0744715)
(-0.00122743 -0.000258205 -0.0703465)
(-0.00124532 -0.000258722 -0.065745)
(-0.00126423 -0.000253251 -0.060658)
(-0.00128365 -0.000238969 -0.0550882)
(-0.00130411 -0.000212652 -0.0490497)
(-0.00115097 -8.63358e-05 -0.0985122)
(-0.00120622 -0.000111165 -0.0934358)
(-0.00120747 -0.000134711 -0.0878729)
(-0.00121849 -0.000159225 -0.0818334)
(-0.00122806 -0.00018209 -0.0753446)
(-0.00123856 -0.00020085 -0.0684503)
(-0.00125099 -0.000212572 -0.061209)
(-0.00126741 -0.000214368 -0.0536919)
(-0.00114523 4.31841e-05 -0.0984899)
(-0.00117376 -5.83157e-06 -0.0934119)
(-0.00115571 -5.59325e-05 -0.0878473)
(-0.00114781 -0.000100446 -0.0818069)
(-0.00114261 -0.00013914 -0.075318)
(-0.00114367 -0.000171258 -0.0684245)
(-0.00115295 -0.000196736 -0.0611852)
(-0.00117376 -0.000215889 -0.0536709)
(-0.000732107 0.000126224 -0.0813099)
(-0.000740602 8.66414e-05 -0.0780638)
(-0.000762992 4.58431e-05 -0.0743917)
(-0.000795188 2.47594e-06 -0.0702659)
(-0.00083732 -4.29031e-05 -0.0656668)
(-0.000888122 -8.97681e-05 -0.0605849)
(-0.000945196 -0.00013736 -0.0550224)
(-0.00100908 -0.000183906 -0.048993)
(-0.0007031 0.000230621 -0.0576343)
(-0.000757008 0.000218201 -0.056528)
(-0.000762034 0.000178027 -0.0551275)
(-0.000782172 0.000129606 -0.0533709)
(-0.00080526 6.92259e-05 -0.0511909)
(-0.00083446 -4.55732e-07 -0.0485166)
(-0.000870114 -7.62358e-05 -0.045276)
(-0.000918024 -0.000151503 -0.0413973)
(-0.000513949 0.000222395 -0.037379)
(-0.000573647 0.000191881 -0.0375942)
(-0.000601174 0.000138598 -0.0376733)
(-0.000636858 8.30784e-05 -0.0375516)
(-0.000672896 2.10408e-05 -0.0371474)
(-0.000710953 -4.62784e-05 -0.0363604)
(-0.00075055 -0.000117728 -0.0350702)
(-0.000801334 -0.000184713 -0.033133)
(-0.000348486 0.000195791 -0.0236042)
(-0.000403255 0.000157907 -0.0243214)
(-0.000438612 9.8337e-05 -0.0250264)
(-0.000481927 3.67406e-05 -0.0256728)
(-0.000527256 -2.96953e-05 -0.026193)
(-0.000574865 -9.8427e-05 -0.0264925)
(-0.000622246 -0.000167124 -0.0264398)
(-0.000682238 -0.000219452 -0.0258498)
(-0.000188383 0.000120546 -0.0151381)
(-0.000238978 7.77986e-05 -0.0159708)
(-0.000280343 1.81387e-05 -0.0168574)
(-0.000328521 -4.25925e-05 -0.0177736)
(-0.000380414 -0.000106006 -0.0186812)
(-0.000435933 -0.000169653 -0.0195161)