/*--------------------------------*- C++ -*----------------------------------*\
| =========                 |                                                 |
| \\      /  F ield         | OpenFOAM: The Open Source CFD Toolbox           |
|  \\    /   O peration     | Version:  2.2.0                                 |
|   \\  /    A nd           | Web:      www.OpenFOAM.org                      |
|    \\/     M anipulation  |                                                 |
\*---------------------------------------------------------------------------*/
FoamFile
{
    version     2.0;
    format      ascii;
    class       volVectorField;
    location    "1.5";
    object      s;
}
// * * * * * * * * * * * * * * * * * * * * * * * * * * * * * * * * * * * * * //

dimensions      [0 1 -1 0 0 0 0];

internalField   nonuniform List<vector> 
1600
(
(1.8237 0.0716553 0)
(1.54377 0.0606554 0)
(1.33563 0.0524771 0)
(1.17504 0.0461675 0)
(1.04727 0.0411473 0)
(0.94306 0.0370529 0)
(0.856349 0.033646 0)
(0.782992 0.0307638 0)
(0.720063 0.0282913 0)
(0.665441 0.0261452 0)
(0.617547 0.0242634 0)
(0.575188 0.0225991 0)
(0.537441 0.021116 0)
(0.503584 0.0197858 0)
(0.473045 0.0185859 0)
(0.445363 0.0174983 0)
(0.420164 0.0165083 0)
(0.397141 0.0156037 0)
(0.376006 0.0147733 0)
(0.356882 0.0140219 0)
(1.81245 0.214522 0)
(1.53426 0.181592 0)
(1.32739 0.157108 0)
(1.1678 0.138218 0)
(1.04081 0.123189 0)
(0.937246 0.11093 0)
(0.851069 0.100731 0)
(0.778165 0.0921018 0)
(0.715624 0.0846996 0)
(0.661338 0.0782745 0)
(0.61374 0.0726408 0)
(0.571641 0.0676582 0)
(0.534127 0.0632181 0)
(0.500479 0.0592356 0)
(0.470128 0.0556433 0)
(0.442617 0.0523871 0)
(0.417573 0.049423 0)
(0.394692 0.0467149 0)
(0.373688 0.0442288 0)
(0.354682 0.0419793 0)
(1.79003 0.356065 0)
(1.51528 0.301409 0)
(1.31098 0.26077 0)
(1.15335 0.229416 0)
(1.02794 0.20447 0)
(0.925653 0.184124 0)
(0.840543 0.167194 0)
(0.768539 0.152872 0)
(0.706772 0.140586 0)
(0.653158 0.129921 0)
(0.606148 0.12057 0)
(0.564571 0.1123 0)
(0.52752 0.10493 0)
(0.494289 0.0983201 0)
(0.464313 0.0923577 0)
(0.437142 0.086953 0)
(0.412408 0.0820331 0)
(0.38981 0.0775381 0)
(0.369065 0.0734117 0)
(0.350295 0.0696779 0)
(1.75658 0.495411 0)
(1.48696 0.419368 0)
(1.28647 0.362824 0)
(1.1318 0.3192 0)
(1.00873 0.284491 0)
(0.908354 0.256182 0)
(0.824834 0.232627 0)
(0.754176 0.2127 0)
(0.693563 0.195605 0)
(0.640951 0.180767 0)
(0.59482 0.167757 0)
(0.554019 0.15625 0)
(0.517661 0.145996 0)
(0.485051 0.136798 0)
(0.455636 0.128503 0)
(0.428972 0.120983 0)
(0.404701 0.114137 0)
(0.382525 0.107883 0)
(0.362168 0.102142 0)
(0.343748 0.0969469 0)
(1.71229 0.631703 0)
(1.44947 0.53474 0)
(1.25404 0.462641 0)
(1.10326 0.407016 0)
(0.983298 0.362758 0)
(0.885454 0.326661 0)
(0.804039 0.296626 0)
(0.735163 0.271216 0)
(0.676078 0.249419 0)
(0.624792 0.230498 0)
(0.579824 0.213908 0)
(0.540052 0.199236 0)
(0.504611 0.186161 0)
(0.472823 0.174433 0)
(0.444149 0.163855 0)
(0.418158 0.154267 0)
(0.394498 0.145538 0)
(0.372882 0.137563 0)
(0.353037 0.130242 0)
(0.335082 0.123618 0)
(1.65745 0.7641 0)
(1.40305 0.646815 0)
(1.21388 0.559606 0)
(1.06793 0.492322 0)
(0.951805 0.438788 0)
(0.857095 0.395126 0)
(0.778287 0.358796 0)
(0.711617 0.32806 0)
(0.654425 0.301694 0)
(0.604782 0.278808 0)
(0.561254 0.258742 0)
(0.522756 0.240994 0)
(0.488449 0.225178 0)
(0.457679 0.210993 0)
(0.429924 0.198198 0)
(0.404765 0.186599 0)
(0.381863 0.176041 0)
(0.360939 0.166395 0)
(0.34173 0.15754 0)
(0.32435 0.149527 0)
(1.59239 0.891785 0)
(1.34797 0.754903 0)
(1.16623 0.65312 0)
(1.02601 0.574593 0)
(0.914444 0.512113 0)
(0.823451 0.461155 0)
(0.747738 0.418753 0)
(0.683684 0.382882 0)
(0.628737 0.35211 0)
(0.581042 0.325399 0)
(0.539223 0.301979 0)
(0.502236 0.281266 0)
(0.469276 0.262807 0)
(0.439714 0.246252 0)
(0.413048 0.231318 0)
(0.388877 0.217782 0)
(0.366874 0.205459 0)
(0.346771 0.194201 0)
(0.328317 0.183866 0)
(0.311618 0.174515 0)
(1.51751 1.01397 0)
(1.28459 0.858336 0)
(1.11139 0.742608 0)
(0.977764 0.653321 0)
(0.871445 0.582281 0)
(0.784731 0.524341 0)
(0.712577 0.476129 0)
(0.651536 0.435343 0)
(0.599173 0.400354 0)
(0.55372 0.369984 0)
(0.513868 0.343355 0)
(0.47862 0.319804 0)
(0.44721 0.298816 0)
(0.419038 0.279992 0)
(0.393626 0.263012 0)
(0.370591 0.247621 0)
(0.349623 0.233611 0)
(0.330465 0.22081 0)
(0.312878 0.209059 0)
(0.296965 0.198426 0)
(1.43328 1.12991 0)
(1.21328 0.956477 0)
(1.0497 0.827517 0)
(0.923491 0.728021 0)
(0.823073 0.648859 0)
(0.741173 0.584293 0)
(0.673024 0.530569 0)
(0.615371 0.485119 0)
(0.565914 0.446131 0)
(0.522985 0.412288 0)
(0.485344 0.382615 0)
(0.452053 0.35637 0)
(0.422387 0.332983 0)
(0.395778 0.312006 0)
(0.371777 0.293085 0)
(0.350021 0.275934 0)
(0.330216 0.260321 0)
(0.312122 0.246057 0)
(0.295511 0.232962 0)
(0.280482 0.221114 0)
(1.34021 1.23888 0)
(1.1345 1.04872 0)
(0.981538 0.907324 0)
(0.863524 0.798233 0)
(0.769627 0.711436 0)
(0.693045 0.640644 0)
(0.629321 0.581739 0)
(0.575412 0.531905 0)
(0.529166 0.489157 0)
(0.489025 0.45205 0)
(0.453828 0.419515 0)
(0.422699 0.390739 0)
(0.394959 0.365096 0)
(0.370078 0.342097 0)
(0.347635 0.321351 0)
(0.327292 0.302546 0)
(0.308774 0.285427 0)
(0.291854 0.269787 0)
(0.276322 0.25543 0)
(0.262269 0.242439 0)
(1.23888 1.34021 0)
(1.04872 1.1345 0)
(0.907324 0.981538 0)
(0.798233 0.863524 0)
(0.711436 0.769627 0)
(0.640644 0.693045 0)
(0.581739 0.629321 0)
(0.531905 0.575412 0)
(0.489156 0.529167 0)
(0.45205 0.489025 0)
(0.419515 0.453828 0)
(0.390739 0.422699 0)
(0.365096 0.394959 0)
(0.342097 0.370078 0)
(0.321351 0.347635 0)
(0.302546 0.327292 0)
(0.285427 0.308774 0)
(0.269787 0.291854 0)
(0.25543 0.276322 0)
(0.242439 0.262269 0)
(1.12991 1.43328 0)
(0.956477 1.21328 0)
(0.827517 1.0497 0)
(0.728021 0.92349 0)
(0.648859 0.823073 0)
(0.584293 0.741172 0)
(0.530569 0.673024 0)
(0.485119 0.615371 0)
(0.446131 0.565914 0)
(0.412288 0.522985 0)
(0.382614 0.485344 0)
(0.35637 0.452053 0)
(0.332983 0.422387 0)
(0.312006 0.395778 0)
(0.293085 0.371777 0)
(0.275934 0.350021 0)
(0.260321 0.330216 0)
(0.246057 0.312122 0)
(0.232962 0.295511 0)
(0.221114 0.280482 0)
(1.01397 1.51751 0)
(0.858336 1.28459 0)
(0.742608 1.11139 0)
(0.653321 0.977764 0)
(0.582281 0.871445 0)
(0.524341 0.784731 0)
(0.476129 0.712577 0)
(0.435342 0.651536 0)
(0.400354 0.599173 0)
(0.369984 0.55372 0)
(0.343355 0.513868 0)
(0.319803 0.47862 0)
(0.298816 0.44721 0)
(0.279992 0.419038 0)
(0.263012 0.393626 0)
(0.247621 0.370591 0)
(0.23361 0.349623 0)
(0.22081 0.330465 0)
(0.209059 0.312878 0)
(0.198426 0.296965 0)
(0.891785 1.59239 0)
(0.754903 1.34797 0)
(0.65312 1.16623 0)
(0.574593 1.02601 0)
(0.512113 0.914444 0)
(0.461155 0.823451 0)
(0.418753 0.747737 0)
(0.382881 0.683684 0)
(0.35211 0.628737 0)
(0.325399 0.581042 0)
(0.301979 0.539223 0)
(0.281265 0.502236 0)
(0.262807 0.469276 0)
(0.246251 0.439714 0)
(0.231318 0.413048 0)
(0.217781 0.388877 0)
(0.205459 0.366874 0)
(0.194201 0.346771 0)
(0.183866 0.328316 0)
(0.174515 0.311618 0)
(0.7641 1.65745 0)
(0.646815 1.40305 0)
(0.559606 1.21388 0)
(0.492322 1.06793 0)
(0.438788 0.951805 0)
(0.395126 0.857094 0)
(0.358795 0.778287 0)
(0.32806 0.711617 0)
(0.301694 0.654425 0)
(0.278808 0.604781 0)
(0.258741 0.561254 0)
(0.240993 0.522756 0)
(0.225178 0.488449 0)
(0.210993 0.457679 0)
(0.198197 0.429924 0)
(0.186599 0.404765 0)
(0.176041 0.381863 0)
(0.166395 0.360939 0)
(0.15754 0.34173 0)
(0.149527 0.32435 0)
(0.631703 1.71229 0)
(0.53474 1.44947 0)
(0.462641 1.25404 0)
(0.407016 1.10326 0)
(0.362758 0.983298 0)
(0.326661 0.885454 0)
(0.296626 0.804039 0)
(0.271216 0.735163 0)
(0.249418 0.676078 0)
(0.230498 0.624792 0)
(0.213908 0.579824 0)
(0.199236 0.540052 0)
(0.186161 0.504611 0)
(0.174433 0.472822 0)
(0.163855 0.444149 0)
(0.154266 0.418158 0)
(0.145538 0.394498 0)
(0.137563 0.372881 0)
(0.130242 0.353037 0)
(0.123618 0.335082 0)
(0.495411 1.75658 0)
(0.419368 1.48696 0)
(0.362824 1.28647 0)
(0.3192 1.1318 0)
(0.284491 1.00873 0)
(0.256182 0.908354 0)
(0.232627 0.824833 0)
(0.2127 0.754176 0)
(0.195605 0.693563 0)
(0.180767 0.640951 0)
(0.167756 0.59482 0)
(0.156249 0.554019 0)
(0.145995 0.517661 0)
(0.136798 0.485051 0)
(0.128502 0.455636 0)
(0.120983 0.428972 0)
(0.114137 0.404701 0)
(0.107883 0.382525 0)
(0.102142 0.362168 0)
(0.0969469 0.343748 0)
(0.356065 1.79003 0)
(0.301409 1.51528 0)
(0.26077 1.31098 0)
(0.229416 1.15335 0)
(0.20447 1.02794 0)
(0.184124 0.925653 0)
(0.167194 0.840542 0)
(0.152872 0.768539 0)
(0.140586 0.706772 0)
(0.129921 0.653158 0)
(0.12057 0.606148 0)
(0.1123 0.564571 0)
(0.10493 0.52752 0)
(0.09832 0.494289 0)
(0.0923576 0.464313 0)
(0.0869529 0.437142 0)
(0.082033 0.412408 0)
(0.0775381 0.38981 0)
(0.0734116 0.369065 0)
(0.0696779 0.350295 0)
(0.214522 1.81245 0)
(0.181592 1.53426 0)
(0.157108 1.32739 0)
(0.138218 1.1678 0)
(0.123188 1.04081 0)
(0.11093 0.937246 0)
(0.100731 0.851069 0)
(0.0921017 0.778164 0)
(0.0846995 0.715624 0)
(0.0782743 0.661338 0)
(0.0726407 0.61374 0)
(0.067658 0.571641 0)
(0.0632179 0.534127 0)
(0.0592355 0.500479 0)
(0.0556432 0.470128 0)
(0.0523871 0.442617 0)
(0.049423 0.417573 0)
(0.0467149 0.394692 0)
(0.0442288 0.373687 0)
(0.0419793 0.354682 0)
(0.0716553 1.8237 0)
(0.0606554 1.54377 0)
(0.052477 1.33563 0)
(0.0461674 1.17504 0)
(0.0411472 1.04727 0)
(0.0370528 0.94306 0)
(0.0336458 0.856349 0)
(0.0307636 0.782992 0)
(0.0282911 0.720063 0)
(0.026145 0.665441 0)
(0.0242633 0.617547 0)
(0.022599 0.575188 0)
(0.0211159 0.53744 0)
(0.0197857 0.503584 0)
(0.0185859 0.473045 0)
(0.0174983 0.445363 0)
(0.0165082 0.420164 0)
(0.0156037 0.397141 0)
(0.0147733 0.376006 0)
(0.0140219 0.356882 0)
(-0.0716554 1.8237 0)
(-0.0606557 1.54377 0)
(-0.0524774 1.33563 0)
(-0.0461678 1.17504 0)
(-0.0411477 1.04727 0)
(-0.0370532 0.94306 0)
(-0.0336463 0.856349 0)
(-0.0307641 0.782992 0)
(-0.0282916 0.720063 0)
(-0.0261455 0.665441 0)
(-0.0242637 0.617547 0)
(-0.0225994 0.575188 0)
(-0.0211163 0.53744 0)
(-0.019786 0.503584 0)
(-0.0185861 0.473045 0)
(-0.0174985 0.445363 0)
(-0.0165084 0.420164 0)
(-0.0156038 0.397141 0)
(-0.0147733 0.376006 0)
(-0.0140219 0.356882 0)
(-0.214522 1.81245 0)
(-0.181593 1.53426 0)
(-0.157108 1.32739 0)
(-0.138218 1.1678 0)
(-0.123189 1.04081 0)
(-0.110931 0.937246 0)
(-0.100731 0.851069 0)
(-0.0921021 0.778164 0)
(-0.0847 0.715624 0)
(-0.0782748 0.661338 0)
(-0.0726411 0.61374 0)
(-0.0676584 0.571641 0)
(-0.0632183 0.534127 0)
(-0.0592358 0.500479 0)
(-0.0556435 0.470129 0)
(-0.0523873 0.442617 0)
(-0.0494232 0.417573 0)
(-0.046715 0.394692 0)
(-0.0442289 0.373688 0)
(-0.0419794 0.354682 0)
(-0.356065 1.79003 0)
(-0.30141 1.51528 0)
(-0.26077 1.31098 0)
(-0.229417 1.15335 0)
(-0.20447 1.02794 0)
(-0.184124 0.925653 0)
(-0.167195 0.840543 0)
(-0.152872 0.768539 0)
(-0.140586 0.706772 0)
(-0.129921 0.653158 0)
(-0.120571 0.606148 0)
(-0.1123 0.564571 0)
(-0.104931 0.52752 0)
(-0.0983203 0.494289 0)
(-0.0923579 0.464314 0)
(-0.0869532 0.437142 0)
(-0.0820333 0.412409 0)
(-0.0775382 0.389811 0)
(-0.0734117 0.369066 0)
(-0.069678 0.350295 0)
(-0.495411 1.75658 0)
(-0.419368 1.48696 0)
(-0.362824 1.28647 0)
(-0.3192 1.1318 0)
(-0.284491 1.00873 0)
(-0.256183 0.908354 0)
(-0.232628 0.824834 0)
(-0.2127 0.754176 0)
(-0.195606 0.693564 0)
(-0.180767 0.640951 0)
(-0.167757 0.59482 0)
(-0.15625 0.55402 0)
(-0.145996 0.517662 0)
(-0.136799 0.485051 0)
(-0.128503 0.455636 0)
(-0.120983 0.428973 0)
(-0.114138 0.404701 0)
(-0.107883 0.382525 0)
(-0.102142 0.362168 0)
(-0.096947 0.343748 0)
(-0.631703 1.71229 0)
(-0.53474 1.44947 0)
(-0.462642 1.25404 0)
(-0.407016 1.10326 0)
(-0.362758 0.983298 0)
(-0.326662 0.885454 0)
(-0.296626 0.804039 0)
(-0.271216 0.735163 0)
(-0.249419 0.676079 0)
(-0.230498 0.624793 0)
(-0.213909 0.579824 0)
(-0.199236 0.540053 0)
(-0.186161 0.504611 0)
(-0.174434 0.472823 0)
(-0.163855 0.444149 0)
(-0.154267 0.418158 0)
(-0.145538 0.394498 0)
(-0.137563 0.372882 0)
(-0.130243 0.353038 0)
(-0.123618 0.335082 0)
(-0.7641 1.65745 0)
(-0.646816 1.40305 0)
(-0.559606 1.21388 0)
(-0.492322 1.06793 0)
(-0.438789 0.951805 0)
(-0.395127 0.857095 0)
(-0.358796 0.778288 0)
(-0.328061 0.711617 0)
(-0.301695 0.654425 0)
(-0.278809 0.604782 0)
(-0.258742 0.561254 0)
(-0.240994 0.522756 0)
(-0.225179 0.48845 0)
(-0.210993 0.457679 0)
(-0.198198 0.429924 0)
(-0.1866 0.404765 0)
(-0.176042 0.381864 0)
(-0.166395 0.360939 0)
(-0.15754 0.341731 0)
(-0.149527 0.32435 0)
(-0.891786 1.59239 0)
(-0.754903 1.34797 0)
(-0.653121 1.16623 0)
(-0.574593 1.02601 0)
(-0.512114 0.914444 0)
(-0.461156 0.823451 0)
(-0.418754 0.747738 0)
(-0.382882 0.683685 0)
(-0.35211 0.628737 0)
(-0.3254 0.581042 0)
(-0.30198 0.539223 0)
(-0.281266 0.502236 0)
(-0.262808 0.469277 0)
(-0.246252 0.439714 0)
(-0.231318 0.413048 0)
(-0.217782 0.388877 0)
(-0.20546 0.366874 0)
(-0.194201 0.346771 0)
(-0.183866 0.328317 0)
(-0.174515 0.311619 0)
(-1.01397 1.51751 0)
(-0.858337 1.28459 0)
(-0.742608 1.11139 0)
(-0.653322 0.977764 0)
(-0.582282 0.871445 0)
(-0.524341 0.784731 0)
(-0.47613 0.712578 0)
(-0.435343 0.651536 0)
(-0.400355 0.599173 0)
(-0.369985 0.553721 0)
(-0.343356 0.513868 0)
(-0.319804 0.47862 0)
(-0.298817 0.44721 0)
(-0.279993 0.419038 0)
(-0.263013 0.393626 0)
(-0.247622 0.370592 0)
(-0.233611 0.349623 0)
(-0.22081 0.330466 0)
(-0.209059 0.312879 0)
(-0.198426 0.296966 0)
(-1.12991 1.43328 0)
(-0.956478 1.21328 0)
(-0.827518 1.0497 0)
(-0.728022 0.923491 0)
(-0.64886 0.823074 0)
(-0.584294 0.741173 0)
(-0.53057 0.673024 0)
(-0.48512 0.615371 0)
(-0.446131 0.565914 0)
(-0.412289 0.522985 0)
(-0.382615 0.485345 0)
(-0.35637 0.452053 0)
(-0.332983 0.422387 0)
(-0.312007 0.395778 0)
(-0.293086 0.371777 0)
(-0.275935 0.350021 0)
(-0.260322 0.330217 0)
(-0.246058 0.312122 0)
(-0.232963 0.295512 0)
(-0.221114 0.280482 0)
(-1.23888 1.34021 0)
(-1.04872 1.1345 0)
(-0.907325 0.981538 0)
(-0.798234 0.863524 0)
(-0.711437 0.769628 0)
(-0.640645 0.693045 0)
(-0.58174 0.629322 0)
(-0.531906 0.575412 0)
(-0.489157 0.529167 0)
(-0.452051 0.489025 0)
(-0.419515 0.453829 0)
(-0.39074 0.422699 0)
(-0.365097 0.394959 0)
(-0.342097 0.370079 0)
(-0.321352 0.347636 0)
(-0.302546 0.327293 0)
(-0.285428 0.308774 0)
(-0.269788 0.291855 0)
(-0.25543 0.276323 0)
(-0.242439 0.262269 0)
(-1.34021 1.23888 0)
(-1.1345 1.04872 0)
(-0.981539 0.907325 0)
(-0.863525 0.798234 0)
(-0.769628 0.711436 0)
(-0.693045 0.640644 0)
(-0.629322 0.581739 0)
(-0.575413 0.531906 0)
(-0.529167 0.489157 0)
(-0.489026 0.45205 0)
(-0.453829 0.419515 0)
(-0.4227 0.390739 0)
(-0.39496 0.365097 0)
(-0.370079 0.342097 0)
(-0.347636 0.321351 0)
(-0.327293 0.302546 0)
(-0.308774 0.285428 0)
(-0.291855 0.269788 0)
(-0.276323 0.25543 0)
(-0.262269 0.242439 0)
(-1.43328 1.12991 0)
(-1.21329 0.956478 0)
(-1.0497 0.827517 0)
(-0.923491 0.728022 0)
(-0.823074 0.648859 0)
(-0.741173 0.584294 0)
(-0.673025 0.53057 0)
(-0.615372 0.48512 0)
(-0.565915 0.446131 0)
(-0.522986 0.412288 0)
(-0.485345 0.382615 0)
(-0.452054 0.35637 0)
(-0.422387 0.332983 0)
(-0.395779 0.312007 0)
(-0.371777 0.293085 0)
(-0.350021 0.275934 0)
(-0.330217 0.260322 0)
(-0.312123 0.246058 0)
(-0.295512 0.232963 0)
(-0.280482 0.221114 0)
(-1.51751 1.01397 0)
(-1.28459 0.858336 0)
(-1.11139 0.742608 0)
(-0.977765 0.653321 0)
(-0.871446 0.582281 0)
(-0.784732 0.524341 0)
(-0.712578 0.476129 0)
(-0.651537 0.435343 0)
(-0.599174 0.400355 0)
(-0.553721 0.369985 0)
(-0.513869 0.343356 0)
(-0.478621 0.319804 0)
(-0.447211 0.298817 0)
(-0.419039 0.279992 0)
(-0.393627 0.263013 0)
(-0.370592 0.247622 0)
(-0.349624 0.233611 0)
(-0.330466 0.22081 0)
(-0.312879 0.209059 0)
(-0.296966 0.198426 0)
(-1.59239 0.891786 0)
(-1.34797 0.754903 0)
(-1.16623 0.65312 0)
(-1.02601 0.574593 0)
(-0.914445 0.512114 0)
(-0.823452 0.461155 0)
(-0.747739 0.418753 0)
(-0.683685 0.382882 0)
(-0.628738 0.35211 0)
(-0.581043 0.3254 0)
(-0.539224 0.30198 0)
(-0.502237 0.281266 0)
(-0.469277 0.262808 0)
(-0.439715 0.246252 0)
(-0.413049 0.231318 0)
(-0.388878 0.217782 0)
(-0.366875 0.20546 0)
(-0.346772 0.194201 0)
(-0.328317 0.183866 0)
(-0.311619 0.174515 0)
(-1.65745 0.7641 0)
(-1.40305 0.646816 0)
(-1.21388 0.559606 0)
(-1.06793 0.492322 0)
(-0.951806 0.438789 0)
(-0.857096 0.395126 0)
(-0.778289 0.358796 0)
(-0.711618 0.32806 0)
(-0.654426 0.301694 0)
(-0.604783 0.278808 0)
(-0.561255 0.258742 0)
(-0.522757 0.240994 0)
(-0.48845 0.225179 0)
(-0.45768 0.210993 0)
(-0.429925 0.198198 0)
(-0.404766 0.1866 0)
(-0.381864 0.176042 0)
(-0.36094 0.166395 0)
(-0.341731 0.15754 0)
(-0.324351 0.149528 0)
(-1.71229 0.631703 0)
(-1.44947 0.53474 0)
(-1.25404 0.462641 0)
(-1.10326 0.407016 0)
(-0.983299 0.362758 0)
(-0.885455 0.326661 0)
(-0.80404 0.296626 0)
(-0.735164 0.271216 0)
(-0.676079 0.249419 0)
(-0.624793 0.230498 0)
(-0.579825 0.213909 0)
(-0.540053 0.199236 0)
(-0.504612 0.186161 0)
(-0.472824 0.174434 0)
(-0.44415 0.163855 0)
(-0.418159 0.154267 0)
(-0.394499 0.145538 0)
(-0.372882 0.137564 0)
(-0.353038 0.130243 0)
(-0.335083 0.123618 0)
(-1.75658 0.495412 0)
(-1.48696 0.419368 0)
(-1.28648 0.362824 0)
(-1.1318 0.3192 0)
(-1.00873 0.284491 0)
(-0.908355 0.256183 0)
(-0.824835 0.232627 0)
(-0.754177 0.2127 0)
(-0.693565 0.195605 0)
(-0.640952 0.180767 0)
(-0.594821 0.167757 0)
(-0.55402 0.15625 0)
(-0.517663 0.145996 0)
(-0.485052 0.136799 0)
(-0.455637 0.128503 0)
(-0.428973 0.120983 0)
(-0.404702 0.114138 0)
(-0.382526 0.107883 0)
(-0.362169 0.102142 0)
(-0.343749 0.0969471 0)
(-1.79004 0.356065 0)
(-1.51528 0.301409 0)
(-1.31098 0.26077 0)
(-1.15335 0.229416 0)
(-1.02794 0.20447 0)
(-0.925655 0.184124 0)
(-0.840544 0.167195 0)
(-0.768541 0.152872 0)
(-0.706774 0.140586 0)
(-0.653159 0.129921 0)
(-0.60615 0.120571 0)
(-0.564572 0.1123 0)
(-0.527521 0.10493 0)
(-0.49429 0.0983203 0)
(-0.464314 0.0923578 0)
(-0.437143 0.0869532 0)
(-0.412409 0.0820333 0)
(-0.389811 0.0775383 0)
(-0.369066 0.0734118 0)
(-0.350295 0.0696781 0)
(-1.81246 0.214522 0)
(-1.53426 0.181592 0)
(-1.3274 0.157108 0)
(-1.1678 0.138218 0)
(-1.04081 0.123189 0)
(-0.937247 0.110931 0)
(-0.851071 0.100731 0)
(-0.778166 0.0921019 0)
(-0.715625 0.0846998 0)
(-0.661339 0.0782746 0)
(-0.613741 0.072641 0)
(-0.571642 0.0676583 0)
(-0.534128 0.0632182 0)
(-0.50048 0.0592357 0)
(-0.47013 0.0556435 0)
(-0.442618 0.0523873 0)
(-0.417574 0.0494232 0)
(-0.394693 0.046715 0)
(-0.373688 0.0442289 0)
(-0.354683 0.0419794 0)
(-1.8237 0.0716554 0)
(-1.54378 0.0606555 0)
(-1.33563 0.0524771 0)
(-1.17504 0.0461675 0)
(-1.04727 0.0411473 0)
(-0.943062 0.0370529 0)
(-0.85635 0.033646 0)
(-0.782993 0.0307638 0)
(-0.720065 0.0282914 0)
(-0.665442 0.0261453 0)
(-0.617548 0.0242635 0)
(-0.575189 0.0225992 0)
(-0.537442 0.0211161 0)
(-0.503585 0.0197859 0)
(-0.473046 0.018586 0)
(-0.445364 0.0174984 0)
(-0.420165 0.0165083 0)
(-0.397142 0.0156037 0)
(-0.376007 0.0147733 0)
(-0.356883 0.014022 0)
(-1.8237 -0.0716555 0)
(-1.54378 -0.0606557 0)
(-1.33563 -0.0524774 0)
(-1.17504 -0.0461677 0)
(-1.04727 -0.0411476 0)
(-0.943062 -0.0370531 0)
(-0.85635 -0.0336462 0)
(-0.782993 -0.0307639 0)
(-0.720065 -0.0282914 0)
(-0.665442 -0.0261453 0)
(-0.617548 -0.0242636 0)
(-0.575189 -0.0225992 0)
(-0.537442 -0.0211161 0)
(-0.503585 -0.0197859 0)
(-0.473046 -0.018586 0)
(-0.445364 -0.0174984 0)
(-0.420165 -0.0165083 0)
(-0.397142 -0.0156037 0)
(-0.376007 -0.0147733 0)
(-0.356883 -0.014022 0)
(-1.81246 -0.214522 0)
(-1.53426 -0.181593 0)
(-1.3274 -0.157108 0)
(-1.1678 -0.138218 0)
(-1.04081 -0.123189 0)
(-0.937247 -0.110931 0)
(-0.851071 -0.100731 0)
(-0.778166 -0.0921021 0)
(-0.715625 -0.0846999 0)
(-0.661339 -0.0782747 0)
(-0.613741 -0.072641 0)
(-0.571643 -0.0676583 0)
(-0.534128 -0.0632182 0)
(-0.50048 -0.0592357 0)
(-0.47013 -0.0556435 0)
(-0.442618 -0.0523873 0)
(-0.417574 -0.0494232 0)
(-0.394693 -0.046715 0)
(-0.373688 -0.0442289 0)
(-0.354683 -0.0419794 0)
(-1.79004 -0.356065 0)
(-1.51528 -0.30141 0)
(-1.31098 -0.26077 0)
(-1.15335 -0.229417 0)
(-1.02794 -0.204471 0)
(-0.925655 -0.184124 0)
(-0.840544 -0.167195 0)
(-0.768541 -0.152872 0)
(-0.706774 -0.140586 0)
(-0.653159 -0.129921 0)
(-0.60615 -0.120571 0)
(-0.564572 -0.1123 0)
(-0.527522 -0.104931 0)
(-0.49429 -0.0983204 0)
(-0.464315 -0.0923579 0)
(-0.437143 -0.0869532 0)
(-0.412409 -0.0820333 0)
(-0.389811 -0.0775383 0)
(-0.369066 -0.0734118 0)
(-0.350296 -0.0696781 0)
(-1.75658 -0.495412 0)
(-1.48696 -0.419368 0)
(-1.28648 -0.362825 0)
(-1.1318 -0.319201 0)
(-1.00873 -0.284492 0)
(-0.908355 -0.256183 0)
(-0.824835 -0.232628 0)
(-0.754177 -0.2127 0)
(-0.693565 -0.195606 0)
(-0.640952 -0.180767 0)
(-0.594821 -0.167757 0)
(-0.554021 -0.15625 0)
(-0.517663 -0.145996 0)
(-0.485052 -0.136799 0)
(-0.455637 -0.128503 0)
(-0.428974 -0.120983 0)
(-0.404702 -0.114138 0)
(-0.382526 -0.107884 0)
(-0.362169 -0.102142 0)
(-0.343749 -0.0969472 0)
(-1.7123 -0.631704 0)
(-1.44947 -0.534741 0)
(-1.25404 -0.462642 0)
(-1.10326 -0.407016 0)
(-0.983299 -0.362759 0)
(-0.885455 -0.326662 0)
(-0.80404 -0.296626 0)
(-0.735164 -0.271216 0)
(-0.67608 -0.249419 0)
(-0.624794 -0.230499 0)
(-0.579826 -0.213909 0)
(-0.540053 -0.199236 0)
(-0.504612 -0.186161 0)
(-0.472824 -0.174434 0)
(-0.44415 -0.163856 0)
(-0.418159 -0.154267 0)
(-0.394499 -0.145538 0)
(-0.372883 -0.137564 0)
(-0.353038 -0.130243 0)
(-0.335083 -0.123619 0)
(-1.65745 -0.764101 0)
(-1.40305 -0.646816 0)
(-1.21388 -0.559607 0)
(-1.06793 -0.492323 0)
(-0.951806 -0.438789 0)
(-0.857096 -0.395127 0)
(-0.778289 -0.358796 0)
(-0.711618 -0.328061 0)
(-0.654426 -0.301695 0)
(-0.604783 -0.278809 0)
(-0.561255 -0.258742 0)
(-0.522757 -0.240994 0)
(-0.488451 -0.225179 0)
(-0.45768 -0.210993 0)
(-0.429925 -0.198198 0)
(-0.404766 -0.1866 0)
(-0.381864 -0.176042 0)
(-0.36094 -0.166396 0)
(-0.341731 -0.15754 0)
(-0.324351 -0.149528 0)
(-1.59239 -0.891786 0)
(-1.34797 -0.754904 0)
(-1.16623 -0.653121 0)
(-1.02601 -0.574594 0)
(-0.914445 -0.512114 0)
(-0.823452 -0.461156 0)
(-0.747739 -0.418754 0)
(-0.683685 -0.382882 0)
(-0.628738 -0.35211 0)
(-0.581043 -0.3254 0)
(-0.539224 -0.30198 0)
(-0.502237 -0.281266 0)
(-0.469277 -0.262808 0)
(-0.439715 -0.246252 0)
(-0.413049 -0.231319 0)
(-0.388878 -0.217782 0)
(-0.366875 -0.20546 0)
(-0.346772 -0.194202 0)
(-0.328317 -0.183867 0)
(-0.311619 -0.174515 0)
(-1.51752 -1.01397 0)
(-1.28459 -0.858337 0)
(-1.11139 -0.742609 0)
(-0.977765 -0.653322 0)
(-0.871446 -0.582282 0)
(-0.784732 -0.524341 0)
(-0.712579 -0.47613 0)
(-0.651537 -0.435343 0)
(-0.599174 -0.400355 0)
(-0.553722 -0.369985 0)
(-0.513869 -0.343356 0)
(-0.478621 -0.319804 0)
(-0.447211 -0.298817 0)
(-0.419039 -0.279993 0)
(-0.393627 -0.263013 0)
(-0.370592 -0.247622 0)
(-0.349624 -0.233611 0)
(-0.330466 -0.22081 0)
(-0.312879 -0.209059 0)
(-0.296966 -0.198426 0)
(-1.43328 -1.12991 0)
(-1.21329 -0.956478 0)
(-1.0497 -0.827518 0)
(-0.923492 -0.728022 0)
(-0.823074 -0.64886 0)
(-0.741174 -0.584294 0)
(-0.673025 -0.53057 0)
(-0.615372 -0.48512 0)
(-0.565915 -0.446132 0)
(-0.522986 -0.412289 0)
(-0.485345 -0.382615 0)
(-0.452054 -0.356371 0)
(-0.422388 -0.332984 0)
(-0.395779 -0.312007 0)
(-0.371778 -0.293086 0)
(-0.350022 -0.275935 0)
(-0.330217 -0.260322 0)
(-0.312123 -0.246058 0)
(-0.295512 -0.232963 0)
(-0.280482 -0.221114 0)
(-1.34021 -1.23888 0)
(-1.1345 -1.04872 0)
(-0.981539 -0.907325 0)
(-0.863525 -0.798234 0)
(-0.769628 -0.711437 0)
(-0.693046 -0.640645 0)
(-0.629323 -0.58174 0)
(-0.575413 -0.531906 0)
(-0.529168 -0.489158 0)
(-0.489026 -0.452051 0)
(-0.45383 -0.419516 0)
(-0.4227 -0.39074 0)
(-0.39496 -0.365097 0)
(-0.370079 -0.342098 0)
(-0.347636 -0.321352 0)
(-0.327293 -0.302547 0)
(-0.308775 -0.285428 0)
(-0.291855 -0.269788 0)
(-0.276323 -0.25543 0)
(-0.262269 -0.242439 0)
(-1.23888 -1.34021 0)
(-1.04872 -1.1345 0)
(-0.907325 -0.981539 0)
(-0.798234 -0.863525 0)
(-0.711437 -0.769628 0)
(-0.640645 -0.693046 0)
(-0.58174 -0.629323 0)
(-0.531906 -0.575413 0)
(-0.489158 -0.529168 0)
(-0.452051 -0.489026 0)
(-0.419516 -0.45383 0)
(-0.39074 -0.4227 0)
(-0.365097 -0.39496 0)
(-0.342098 -0.370079 0)
(-0.321352 -0.347636 0)
(-0.302547 -0.327293 0)
(-0.285428 -0.308775 0)
(-0.269788 -0.291855 0)
(-0.25543 -0.276323 0)
(-0.242439 -0.262269 0)
(-1.12991 -1.43328 0)
(-0.956478 -1.21329 0)
(-0.827518 -1.0497 0)
(-0.728022 -0.923492 0)
(-0.64886 -0.823074 0)
(-0.584294 -0.741174 0)
(-0.53057 -0.673025 0)
(-0.48512 -0.615372 0)
(-0.446132 -0.565915 0)
(-0.412289 -0.522986 0)
(-0.382615 -0.485345 0)
(-0.356371 -0.452054 0)
(-0.332984 -0.422388 0)
(-0.312007 -0.395779 0)
(-0.293086 -0.371778 0)
(-0.275935 -0.350022 0)
(-0.260322 -0.330217 0)
(-0.246058 -0.312123 0)
(-0.232963 -0.295512 0)
(-0.221114 -0.280482 0)
(-1.01397 -1.51752 0)
(-0.858337 -1.28459 0)
(-0.742609 -1.11139 0)
(-0.653322 -0.977765 0)
(-0.582282 -0.871446 0)
(-0.524341 -0.784732 0)
(-0.47613 -0.712579 0)
(-0.435343 -0.651537 0)
(-0.400355 -0.599174 0)
(-0.369985 -0.553722 0)
(-0.343356 -0.513869 0)
(-0.319804 -0.478621 0)
(-0.298817 -0.447211 0)
(-0.279993 -0.419039 0)
(-0.263013 -0.393627 0)
(-0.247622 -0.370592 0)
(-0.233611 -0.349624 0)
(-0.22081 -0.330466 0)
(-0.209059 -0.312879 0)
(-0.198426 -0.296966 0)
(-0.891786 -1.59239 0)
(-0.754904 -1.34797 0)
(-0.653121 -1.16623 0)
(-0.574594 -1.02601 0)
(-0.512114 -0.914445 0)
(-0.461156 -0.823452 0)
(-0.418754 -0.747739 0)
(-0.382882 -0.683685 0)
(-0.35211 -0.628738 0)
(-0.3254 -0.581043 0)
(-0.30198 -0.539224 0)
(-0.281266 -0.502237 0)
(-0.262808 -0.469277 0)
(-0.246252 -0.439715 0)
(-0.231319 -0.413049 0)
(-0.217782 -0.388878 0)
(-0.20546 -0.366875 0)
(-0.194202 -0.346772 0)
(-0.183867 -0.328317 0)
(-0.174515 -0.311619 0)
(-0.764101 -1.65745 0)
(-0.646816 -1.40305 0)
(-0.559607 -1.21388 0)
(-0.492323 -1.06793 0)
(-0.438789 -0.951806 0)
(-0.395127 -0.857096 0)
(-0.358796 -0.778289 0)
(-0.328061 -0.711618 0)
(-0.301695 -0.654426 0)
(-0.278809 -0.604783 0)
(-0.258742 -0.561255 0)
(-0.240994 -0.522757 0)
(-0.225179 -0.48845 0)
(-0.210993 -0.45768 0)
(-0.198198 -0.429925 0)
(-0.1866 -0.404766 0)
(-0.176042 -0.381864 0)
(-0.166396 -0.36094 0)
(-0.15754 -0.341731 0)
(-0.149528 -0.324351 0)
(-0.631704 -1.7123 0)
(-0.534741 -1.44947 0)
(-0.462642 -1.25404 0)
(-0.407016 -1.10326 0)
(-0.362759 -0.983299 0)
(-0.326662 -0.885455 0)
(-0.296626 -0.80404 0)
(-0.271217 -0.735164 0)
(-0.249419 -0.676079 0)
(-0.230499 -0.624793 0)
(-0.213909 -0.579825 0)
(-0.199236 -0.540053 0)
(-0.186161 -0.504612 0)
(-0.174434 -0.472824 0)
(-0.163856 -0.44415 0)
(-0.154267 -0.418159 0)
(-0.145538 -0.394499 0)
(-0.137564 -0.372882 0)
(-0.130243 -0.353038 0)
(-0.123619 -0.335083 0)
(-0.495412 -1.75658 0)
(-0.419368 -1.48696 0)
(-0.362825 -1.28648 0)
(-0.319201 -1.1318 0)
(-0.284492 -1.00873 0)
(-0.256183 -0.908355 0)
(-0.232628 -0.824835 0)
(-0.2127 -0.754177 0)
(-0.195606 -0.693564 0)
(-0.180767 -0.640952 0)
(-0.167757 -0.594821 0)
(-0.15625 -0.55402 0)
(-0.145996 -0.517662 0)
(-0.136799 -0.485052 0)
(-0.128503 -0.455637 0)
(-0.120983 -0.428973 0)
(-0.114138 -0.404702 0)
(-0.107884 -0.382526 0)
(-0.102142 -0.362169 0)
(-0.0969472 -0.343749 0)
(-0.356065 -1.79004 0)
(-0.30141 -1.51528 0)
(-0.26077 -1.31098 0)
(-0.229417 -1.15335 0)
(-0.204471 -1.02794 0)
(-0.184125 -0.925655 0)
(-0.167195 -0.840544 0)
(-0.152872 -0.76854 0)
(-0.140586 -0.706773 0)
(-0.129922 -0.653159 0)
(-0.120571 -0.606149 0)
(-0.1123 -0.564572 0)
(-0.104931 -0.527521 0)
(-0.0983204 -0.49429 0)
(-0.092358 -0.464314 0)
(-0.0869533 -0.437143 0)
(-0.0820334 -0.412409 0)
(-0.0775383 -0.389811 0)
(-0.0734119 -0.369066 0)
(-0.0696781 -0.350295 0)
(-0.214522 -1.81246 0)
(-0.181593 -1.53426 0)
(-0.157108 -1.3274 0)
(-0.138218 -1.1678 0)
(-0.123189 -1.04081 0)
(-0.110931 -0.937247 0)
(-0.100731 -0.85107 0)
(-0.0921022 -0.778165 0)
(-0.0847 -0.715625 0)
(-0.0782748 -0.661339 0)
(-0.0726412 -0.613741 0)
(-0.0676585 -0.571642 0)
(-0.0632183 -0.534128 0)
(-0.0592358 -0.50048 0)
(-0.0556436 -0.470129 0)
(-0.0523874 -0.442618 0)
(-0.0494232 -0.417574 0)
(-0.0467151 -0.394693 0)
(-0.0442289 -0.373688 0)
(-0.0419794 -0.354683 0)
(-0.0716555 -1.8237 0)
(-0.0606557 -1.54378 0)
(-0.0524774 -1.33563 0)
(-0.0461678 -1.17504 0)
(-0.0411477 -1.04727 0)
(-0.0370533 -0.943061 0)
(-0.0336463 -0.85635 0)
(-0.0307641 -0.782993 0)
(-0.0282916 -0.720064 0)
(-0.0261455 -0.665442 0)
(-0.0242637 -0.617548 0)
(-0.0225994 -0.575188 0)
(-0.0211163 -0.537441 0)
(-0.019786 -0.503585 0)
(-0.0185861 -0.473046 0)
(-0.0174985 -0.445364 0)
(-0.0165084 -0.420165 0)
(-0.0156038 -0.397142 0)
(-0.0147734 -0.376007 0)
(-0.014022 -0.356883 0)
(1.8237 -0.0716555 0)
(1.81245 -0.214522 0)
(1.79003 -0.356065 0)
(1.75658 -0.495411 0)
(1.71229 -0.631703 0)
(1.65745 -0.7641 0)
(1.59239 -0.891786 0)
(1.51751 -1.01397 0)
(1.43328 -1.12991 0)
(1.34021 -1.23888 0)
(1.23888 -1.34021 0)
(1.12991 -1.43328 0)
(1.01397 -1.51751 0)
(0.891786 -1.59239 0)
(0.7641 -1.65745 0)
(0.631703 -1.71229 0)
(0.495412 -1.75658 0)
(0.356065 -1.79004 0)
(0.214522 -1.81246 0)
(0.0716554 -1.8237 0)
(1.54377 -0.0606556 0)
(1.53426 -0.181593 0)
(1.51528 -0.30141 0)
(1.48696 -0.419368 0)
(1.44947 -0.53474 0)
(1.40305 -0.646816 0)
(1.34797 -0.754903 0)
(1.28459 -0.858337 0)
(1.21328 -0.956478 0)
(1.1345 -1.04872 0)
(1.04872 -1.1345 0)
(0.956478 -1.21329 0)
(0.858336 -1.28459 0)
(0.754903 -1.34797 0)
(0.646816 -1.40305 0)
(0.53474 -1.44947 0)
(0.419368 -1.48696 0)
(0.301409 -1.51528 0)
(0.181592 -1.53426 0)
(0.0606555 -1.54378 0)
(1.33563 -0.0524773 0)
(1.32739 -0.157108 0)
(1.31098 -0.26077 0)
(1.28647 -0.362824 0)
(1.25404 -0.462642 0)
(1.21388 -0.559606 0)
(1.16623 -0.653121 0)
(1.11139 -0.742608 0)
(1.0497 -0.827518 0)
(0.981538 -0.907325 0)
(0.907325 -0.981538 0)
(0.827517 -1.0497 0)
(0.742608 -1.11139 0)
(0.65312 -1.16623 0)
(0.559606 -1.21388 0)
(0.462641 -1.25404 0)
(0.362824 -1.28647 0)
(0.26077 -1.31098 0)
(0.157108 -1.3274 0)
(0.052477 -1.33563 0)
(1.17504 -0.0461677 0)
(1.1678 -0.138218 0)
(1.15335 -0.229417 0)
(1.1318 -0.3192 0)
(1.10326 -0.407016 0)
(1.06793 -0.492322 0)
(1.02601 -0.574593 0)
(0.977764 -0.653322 0)
(0.923491 -0.728022 0)
(0.863524 -0.798234 0)
(0.798234 -0.863525 0)
(0.728022 -0.923491 0)
(0.653321 -0.977764 0)
(0.574593 -1.02601 0)
(0.492322 -1.06793 0)
(0.407016 -1.10326 0)
(0.3192 -1.1318 0)
(0.229416 -1.15335 0)
(0.138218 -1.1678 0)
(0.0461674 -1.17504 0)
(1.04727 -0.0411476 0)
(1.04081 -0.123189 0)
(1.02794 -0.20447 0)
(1.00873 -0.284491 0)
(0.983298 -0.362758 0)