/*--------------------------------*- C++ -*----------------------------------*\
| =========                 |                                                 |
| \\      /  F ield         | OpenFOAM: The Open Source CFD Toolbox           |
|  \\    /   O peration     | Version:  2.2.0                                 |
|   \\  /    A nd           | Web:      www.OpenFOAM.org                      |
|    \\/     M anipulation  |                                                 |
\*---------------------------------------------------------------------------*/
FoamFile
{
    version     2.0;
    format      ascii;
    class       volVectorField;
    location    "0.9";
    object      s;
}
// * * * * * * * * * * * * * * * * * * * * * * * * * * * * * * * * * * * * * //

dimensions      [0 1 -1 0 0 0 0];

internalField   nonuniform List<vector> 
1600
(
(1.97102 0.0774438 0)
(1.65451 0.0650061 0)
(1.41774 0.055703 0)
(1.23312 0.0484491 0)
(1.08454 0.0426116 0)
(0.961879 0.0377921 0)
(0.85849 0.0337299 0)
(0.769855 0.0302475 0)
(0.692794 0.0272197 0)
(0.625006 0.0245564 0)
(0.564791 0.0221905 0)
(0.510863 0.0200717 0)
(0.46224 0.0181613 0)
(0.418154 0.0164292 0)
(0.378001 0.0148516 0)
(0.341298 0.0134096 0)
(0.307657 0.0120878 0)
(0.276759 0.0108738 0)
(0.248347 0.00975754 0)
(0.222423 0.008739 0)
(1.95887 0.231852 0)
(1.64431 0.194618 0)
(1.40899 0.166766 0)
(1.22551 0.145049 0)
(1.07786 0.127573 0)
(0.955949 0.113144 0)
(0.853197 0.100982 0)
(0.765109 0.0905564 0)
(0.688523 0.0814919 0)
(0.621153 0.0735182 0)
(0.561308 0.0664351 0)
(0.507714 0.0600918 0)
(0.45939 0.0543723 0)
(0.415576 0.0491866 0)
(0.375671 0.0444635 0)
(0.339194 0.0401462 0)
(0.305761 0.0361891 0)
(0.275052 0.0325546 0)
(0.246816 0.0292125 0)
(0.221052 0.0261632 0)
(1.93464 0.384828 0)
(1.62397 0.323029 0)
(1.39157 0.2768 0)
(1.21036 0.240755 0)
(1.06453 0.211747 0)
(0.944125 0.187798 0)
(0.842644 0.167612 0)
(0.755645 0.150307 0)
(0.680006 0.135262 0)
(0.61347 0.122027 0)
(0.554366 0.11027 0)
(0.501434 0.0997413 0)
(0.453708 0.0902481 0)
(0.410436 0.0816407 0)
(0.371024 0.0738012 0)
(0.334999 0.0666354 0)
(0.301979 0.0600673 0)
(0.27165 0.0540346 0)
(0.243763 0.0484874 0)
(0.218317 0.043426 0)
(1.89848 0.535432 0)
(1.59362 0.449448 0)
(1.36556 0.385128 0)
(1.18773 0.334976 0)
(1.04463 0.294616 0)
(0.92648 0.261294 0)
(0.826895 0.233209 0)
(0.741523 0.209131 0)
(0.667298 0.188197 0)
(0.602005 0.169783 0)
(0.544005 0.153425 0)
(0.492062 0.138776 0)
(0.445229 0.125567 0)
(0.402765 0.113591 0)
(0.36409 0.102684 0)
(0.328738 0.0927136 0)
(0.296335 0.0835751 0)
(0.266573 0.0751814 0)
(0.239207 0.0674633 0)
(0.214237 0.0604211 0)
(1.85062 0.682733 0)
(1.55344 0.573096 0)
(1.33113 0.491082 0)
(1.15779 0.427132 0)
(1.01829 0.375669 0)
(0.903123 0.33318 0)
(0.806049 0.297367 0)
(0.722829 0.266666 0)
(0.650475 0.239973 0)
(0.586828 0.216492 0)
(0.53029 0.195634 0)
(0.479657 0.176955 0)
(0.434004 0.160113 0)
(0.392611 0.144842 0)
(0.354911 0.130934 0)
(0.32045 0.11822 0)
(0.288864 0.106568 0)
(0.259853 0.0958648 0)
(0.233176 0.0860233 0)
(0.208836 0.0770437 0)
(1.79134 0.825825 0)
(1.50369 0.693211 0)
(1.2885 0.594007 0)
(1.12071 0.516655 0)
(0.985681 0.454405 0)
(0.874198 0.403011 0)
(0.780233 0.359692 0)
(0.699678 0.322556 0)
(0.629642 0.290269 0)
(0.568033 0.261867 0)
(0.513306 0.236638 0)
(0.464295 0.214043 0)
(0.420104 0.193671 0)
(0.380037 0.175199 0)
(0.343544 0.158376 0)
(0.310187 0.142998 0)
(0.279612 0.128903 0)
(0.25153 0.115957 0)
(0.225708 0.104053 0)
(0.202148 0.0931913 0)
(1.72103 0.963826 0)
(1.44466 0.809051 0)
(1.23792 0.69327 0)
(1.07672 0.602992 0)
(0.94699 0.53034 0)
(0.839883 0.470357 0)
(0.749607 0.4198 0)
(0.672214 0.376458 0)
(0.604926 0.338775 0)
(0.545736 0.305627 0)
(0.493158 0.276182 0)
(0.44607 0.249811 0)
(0.403614 0.226034 0)
(0.365119 0.204477 0)
(0.330059 0.184842 0)
(0.298011 0.166894 0)
(0.268637 0.150444 0)
(0.241657 0.135334 0)
(0.216849 0.121441 0)
(0.194213 0.108764 0)
(1.6401 1.09588 0)
(1.37673 0.919903 0)
(1.17971 0.788259 0)
(1.02609 0.685611 0)
(0.902461 0.603005 0)
(0.80039 0.534804 0)
(0.714359 0.477319 0)
(0.640605 0.428039 0)
(0.576482 0.385193 0)
(0.520075 0.347503 0)
(0.469969 0.314023 0)
(0.425095 0.284039 0)
(0.384635 0.257005 0)
(0.347951 0.232493 0)
(0.314539 0.210168 0)
(0.283998 0.189761 0)
(0.256005 0.171057 0)
(0.230294 0.153877 0)
(0.206652 0.13808 0)
(0.18508 0.123667 0)
(1.54906 1.22119 0)
(1.30031 1.02508 0)
(1.11423 0.878388 0)
(0.969133 0.764003 0)
(0.852367 0.671952 0)
(0.755963 0.595953 0)
(0.674706 0.531896 0)
(0.605047 0.47698 0)
(0.544483 0.429235 0)
(0.491207 0.387236 0)
(0.443882 0.349928 0)
(0.401499 0.316516 0)
(0.363285 0.286391 0)
(0.328637 0.259076 0)
(0.29708 0.234199 0)
(0.268234 0.211459 0)
(0.241795 0.190616 0)
(0.217511 0.171472 0)
(0.195181 0.153868 0)
(0.174807 0.137807 0)
(1.44848 1.33896 0)
(1.21588 1.12394 0)
(1.04188 0.963101 0)
(0.906203 0.837685 0)
(0.797019 0.736757 0)
(0.706874 0.653428 0)
(0.630894 0.583193 0)
(0.565758 0.522981 0)
(0.509127 0.470632 0)
(0.45931 0.424582 0)
(0.415058 0.383676 0)
(0.375428 0.347042 0)
(0.339695 0.314011 0)
(0.307297 0.284062 0)
(0.277789 0.256785 0)
(0.250816 0.231852 0)
(0.226094 0.208999 0)
(0.203387 0.188009 0)
(0.182507 0.168708 0)
(0.163456 0.151097 0)
(1.33896 1.44848 0)
(1.12394 1.21588 0)
(0.963101 1.04188 0)
(0.837685 0.906203 0)
(0.736757 0.797019 0)
(0.653428 0.706874 0)
(0.583193 0.630894 0)
(0.522981 0.565758 0)
(0.470632 0.509127 0)
(0.424582 0.45931 0)
(0.383676 0.415058 0)
(0.347042 0.375428 0)
(0.314011 0.339695 0)
(0.284062 0.307297 0)
(0.256785 0.277789 0)
(0.231852 0.250816 0)
(0.208999 0.226094 0)
(0.188009 0.203387 0)
(0.168708 0.182507 0)
(0.151097 0.163456 0)
(1.22119 1.54906 0)
(1.02508 1.30031 0)
(0.878388 1.11423 0)
(0.764003 0.969133 0)
(0.671952 0.852367 0)
(0.595953 0.755962 0)
(0.531896 0.674706 0)
(0.47698 0.605047 0)
(0.429235 0.544483 0)
(0.387236 0.491207 0)
(0.349928 0.443882 0)
(0.316516 0.401499 0)
(0.286391 0.363285 0)
(0.259076 0.328637 0)
(0.234199 0.297079 0)
(0.211459 0.268234 0)
(0.190616 0.241795 0)
(0.171472 0.217511 0)
(0.153868 0.195181 0)
(0.137807 0.174807 0)
(1.09588 1.6401 0)
(0.919903 1.37673 0)
(0.788259 1.17971 0)
(0.685611 1.02609 0)
(0.603005 0.90246 0)
(0.534804 0.80039 0)
(0.477319 0.714359 0)
(0.428038 0.640605 0)
(0.385193 0.576481 0)
(0.347503 0.520075 0)
(0.314023 0.469968 0)
(0.284039 0.425095 0)
(0.257005 0.384635 0)
(0.232493 0.34795 0)
(0.210168 0.314539 0)
(0.189761 0.283998 0)
(0.171057 0.256005 0)
(0.153877 0.230294 0)
(0.13808 0.206652 0)
(0.123667 0.18508 0)
(0.963826 1.72103 0)
(0.809051 1.44466 0)
(0.69327 1.23792 0)
(0.602992 1.07672 0)
(0.53034 0.94699 0)
(0.470357 0.839883 0)
(0.4198 0.749606 0)
(0.376458 0.672213 0)
(0.338775 0.604926 0)
(0.305627 0.545736 0)
(0.276181 0.493158 0)
(0.249811 0.44607 0)
(0.226034 0.403613 0)
(0.204476 0.365119 0)
(0.184842 0.330059 0)
(0.166894 0.298011 0)
(0.150444 0.268637 0)
(0.135334 0.241657 0)
(0.121441 0.216848 0)
(0.108764 0.194213 0)
(0.825825 1.79134 0)
(0.693211 1.50369 0)
(0.594007 1.2885 0)
(0.516654 1.12071 0)
(0.454405 0.98568 0)
(0.403011 0.874198 0)
(0.359692 0.780233 0)
(0.322556 0.699678 0)
(0.290269 0.629641 0)
(0.261867 0.568033 0)
(0.236637 0.513306 0)
(0.214043 0.464295 0)
(0.19367 0.420104 0)
(0.175199 0.380036 0)
(0.158376 0.343544 0)
(0.142998 0.310187 0)
(0.128903 0.279612 0)
(0.115957 0.25153 0)
(0.104053 0.225708 0)
(0.0931912 0.202147 0)
(0.682733 1.85062 0)
(0.573096 1.55344 0)
(0.491081 1.33113 0)
(0.427132 1.15779 0)
(0.375669 1.01829 0)
(0.33318 0.903123 0)
(0.297367 0.806049 0)
(0.266665 0.722828 0)
(0.239973 0.650475 0)
(0.216492 0.586828 0)
(0.195634 0.53029 0)
(0.176955 0.479657 0)
(0.160112 0.434004 0)
(0.144842 0.392611 0)
(0.130933 0.354911 0)
(0.11822 0.32045 0)
(0.106567 0.288864 0)
(0.0958647 0.259853 0)
(0.0860232 0.233176 0)
(0.0770436 0.208836 0)
(0.535432 1.89848 0)
(0.449448 1.59362 0)
(0.385128 1.36556 0)
(0.334976 1.18773 0)
(0.294616 1.04463 0)
(0.261294 0.92648 0)
(0.233208 0.826895 0)
(0.209131 0.741522 0)
(0.188197 0.667297 0)
(0.169783 0.602005 0)
(0.153425 0.544005 0)
(0.138776 0.492062 0)
(0.125567 0.445228 0)
(0.113591 0.402765 0)
(0.102684 0.364089 0)
(0.0927135 0.328738 0)
(0.0835749 0.296335 0)
(0.0751813 0.266573 0)
(0.0674633 0.239207 0)
(0.0604211 0.214237 0)
(0.384828 1.93464 0)
(0.323029 1.62397 0)
(0.2768 1.39157 0)
(0.240755 1.21035 0)
(0.211747 1.06453 0)
(0.187798 0.944125 0)
(0.167612 0.842643 0)
(0.150307 0.755645 0)
(0.135261 0.680006 0)
(0.122027 0.61347 0)
(0.11027 0.554365 0)
(0.0997411 0.501433 0)
(0.0902479 0.453708 0)
(0.0816405 0.410435 0)
(0.073801 0.371024 0)
(0.0666352 0.334998 0)
(0.0600671 0.301978 0)
(0.0540345 0.27165 0)
(0.0484873 0.243762 0)
(0.043426 0.218317 0)
(0.231851 1.95887 0)
(0.194618 1.64431 0)
(0.166766 1.40899 0)
(0.145049 1.22551 0)
(0.127573 1.07786 0)
(0.113144 0.955949 0)
(0.100982 0.853196 0)
(0.0905563 0.765108 0)
(0.0814918 0.688522 0)
(0.073518 0.621153 0)
(0.066435 0.561308 0)
(0.0600916 0.507713 0)
(0.0543722 0.45939 0)
(0.0491864 0.415576 0)
(0.0444633 0.37567 0)
(0.0401461 0.339194 0)
(0.036189 0.30576 0)
(0.0325545 0.275052 0)
(0.0292125 0.246815 0)
(0.0261631 0.221051 0)
(0.0774438 1.97102 0)
(0.0650061 1.65451 0)
(0.055703 1.41773 0)
(0.0484491 1.23312 0)
(0.0426116 1.08454 0)
(0.0377921 0.961879 0)
(0.0337299 0.858489 0)
(0.0302474 0.769855 0)
(0.0272196 0.692794 0)
(0.0245563 0.625006 0)
(0.0221904 0.56479 0)
(0.0200716 0.510863 0)
(0.0181612 0.46224 0)
(0.0164291 0.418154 0)
(0.0148515 0.378001 0)
(0.0134095 0.341298 0)
(0.0120877 0.307657 0)
(0.0108738 0.276758 0)
(0.00975751 0.248346 0)
(0.00873899 0.222423 0)
(-0.0774439 1.97102 0)
(-0.0650064 1.65451 0)
(-0.0557034 1.41773 0)
(-0.0484496 1.23312 0)
(-0.0426122 1.08454 0)
(-0.0377927 0.961879 0)
(-0.0337305 0.858489 0)
(-0.030248 0.769855 0)
(-0.0272203 0.692794 0)
(-0.0245569 0.625006 0)
(-0.022191 0.56479 0)
(-0.0200722 0.510863 0)
(-0.0181617 0.46224 0)
(-0.0164296 0.418154 0)
(-0.0148519 0.378001 0)
(-0.0134098 0.341298 0)
(-0.012088 0.307657 0)
(-0.010874 0.276758 0)
(-0.00975761 0.248346 0)
(-0.00873902 0.222423 0)
(-0.231852 1.95887 0)
(-0.194618 1.64431 0)
(-0.166766 1.40899 0)
(-0.14505 1.22551 0)
(-0.127573 1.07786 0)
(-0.113144 0.955949 0)
(-0.100983 0.853197 0)
(-0.0905569 0.765108 0)
(-0.0814924 0.688522 0)
(-0.0735187 0.621153 0)
(-0.0664356 0.561308 0)
(-0.0600922 0.507713 0)
(-0.0543727 0.45939 0)
(-0.0491869 0.415576 0)
(-0.0444637 0.37567 0)
(-0.0401464 0.339194 0)
(-0.0361893 0.30576 0)
(-0.0325547 0.275052 0)
(-0.0292126 0.246815 0)
(-0.0261632 0.221051 0)
(-0.384828 1.93464 0)
(-0.323029 1.62397 0)
(-0.276801 1.39157 0)
(-0.240755 1.21035 0)
(-0.211748 1.06453 0)
(-0.187799 0.944125 0)
(-0.167613 0.842643 0)
(-0.150308 0.755645 0)
(-0.135262 0.680006 0)
(-0.122027 0.61347 0)
(-0.110271 0.554365 0)
(-0.0997417 0.501434 0)
(-0.0902484 0.453708 0)
(-0.081641 0.410435 0)
(-0.0738014 0.371024 0)
(-0.0666355 0.334998 0)
(-0.0600674 0.301978 0)
(-0.0540347 0.27165 0)
(-0.0484874 0.243763 0)
(-0.043426 0.218317 0)
(-0.535432 1.89848 0)
(-0.449448 1.59362 0)
(-0.385129 1.36556 0)
(-0.334977 1.18773 0)
(-0.294617 1.04463 0)
(-0.261295 0.92648 0)
(-0.233209 0.826895 0)
(-0.209131 0.741522 0)
(-0.188198 0.667297 0)
(-0.169783 0.602005 0)
(-0.153426 0.544005 0)
(-0.138776 0.492062 0)
(-0.125568 0.445228 0)
(-0.113592 0.402765 0)
(-0.102684 0.36409 0)
(-0.0927138 0.328738 0)
(-0.0835752 0.296335 0)
(-0.0751815 0.266573 0)
(-0.0674634 0.239207 0)
(-0.0604211 0.214237 0)
(-0.682733 1.85062 0)
(-0.573096 1.55344 0)
(-0.491082 1.33113 0)
(-0.427133 1.15779 0)
(-0.375669 1.01829 0)
(-0.33318 0.903123 0)
(-0.297368 0.806049 0)
(-0.266666 0.722828 0)
(-0.239973 0.650475 0)
(-0.216493 0.586828 0)
(-0.195635 0.53029 0)
(-0.176955 0.479657 0)
(-0.160113 0.434004 0)
(-0.144842 0.392611 0)
(-0.130934 0.354911 0)
(-0.11822 0.32045 0)
(-0.106568 0.288864 0)
(-0.0958648 0.259853 0)
(-0.0860233 0.233176 0)
(-0.0770437 0.208836 0)
(-0.825825 1.79134 0)
(-0.693211 1.50369 0)
(-0.594007 1.2885 0)
(-0.516655 1.12071 0)
(-0.454406 0.985681 0)
(-0.403011 0.874198 0)
(-0.359693 0.780233 0)
(-0.322556 0.699678 0)
(-0.290269 0.629641 0)
(-0.261867 0.568033 0)
(-0.236638 0.513306 0)
(-0.214043 0.464295 0)
(-0.193671 0.420104 0)
(-0.1752 0.380037 0)
(-0.158376 0.343544 0)
(-0.142998 0.310187 0)
(-0.128903 0.279612 0)
(-0.115957 0.25153 0)
(-0.104053 0.225708 0)
(-0.0931913 0.202148 0)
(-0.963826 1.72103 0)
(-0.809051 1.44466 0)
(-0.693271 1.23792 0)
(-0.602992 1.07672 0)
(-0.530341 0.94699 0)
(-0.470358 0.839883 0)
(-0.4198 0.749606 0)
(-0.376458 0.672214 0)
(-0.338775 0.604926 0)
(-0.305627 0.545736 0)
(-0.276182 0.493158 0)
(-0.249812 0.44607 0)
(-0.226035 0.403614 0)
(-0.204477 0.365119 0)
(-0.184842 0.330059 0)
(-0.166894 0.298011 0)
(-0.150444 0.268637 0)
(-0.135335 0.241657 0)
(-0.121441 0.216849 0)
(-0.108764 0.194213 0)
(-1.09588 1.6401 0)
(-0.919904 1.37673 0)
(-0.788259 1.17971 0)
(-0.685611 1.02609 0)
(-0.603006 0.902461 0)
(-0.534804 0.80039 0)
(-0.47732 0.714359 0)
(-0.428039 0.640605 0)
(-0.385193 0.576482 0)
(-0.347503 0.520075 0)
(-0.314023 0.469968 0)
(-0.28404 0.425095 0)
(-0.257005 0.384635 0)
(-0.232493 0.347951 0)
(-0.210168 0.314539 0)
(-0.189762 0.283998 0)
(-0.171057 0.256005 0)
(-0.153878 0.230294 0)
(-0.13808 0.206652 0)
(-0.123667 0.18508 0)
(-1.22119 1.54906 0)
(-1.02508 1.30031 0)
(-0.878388 1.11423 0)
(-0.764004 0.969133 0)
(-0.671953 0.852367 0)
(-0.595953 0.755963 0)
(-0.531896 0.674706 0)
(-0.476981 0.605047 0)
(-0.429236 0.544483 0)
(-0.387237 0.491207 0)
(-0.349929 0.443882 0)
(-0.316517 0.401499 0)
(-0.286391 0.363285 0)
(-0.259077 0.328637 0)
(-0.234199 0.29708 0)
(-0.211459 0.268234 0)
(-0.190616 0.241795 0)
(-0.171472 0.217511 0)
(-0.153869 0.195181 0)
(-0.137807 0.174807 0)
(-1.33896 1.44848 0)
(-1.12395 1.21588 0)
(-0.963102 1.04188 0)
(-0.837686 0.906203 0)
(-0.736757 0.797019 0)
(-0.653428 0.706874 0)
(-0.583193 0.630895 0)
(-0.522982 0.565758 0)
(-0.470632 0.509127 0)
(-0.424582 0.45931 0)
(-0.383676 0.415058 0)
(-0.347042 0.375428 0)
(-0.314011 0.339695 0)
(-0.284062 0.307297 0)
(-0.256785 0.277789 0)
(-0.231852 0.250816 0)
(-0.208999 0.226094 0)
(-0.188009 0.203387 0)
(-0.168708 0.182507 0)
(-0.151097 0.163456 0)
(-1.44848 1.33896 0)
(-1.21588 1.12395 0)
(-1.04188 0.963101 0)
(-0.906203 0.837685 0)
(-0.79702 0.736757 0)
(-0.706875 0.653428 0)
(-0.630895 0.583193 0)
(-0.565758 0.522981 0)
(-0.509127 0.470632 0)
(-0.459311 0.424582 0)
(-0.415059 0.383676 0)
(-0.375428 0.347042 0)
(-0.339695 0.314011 0)
(-0.307297 0.284062 0)
(-0.277789 0.256785 0)
(-0.250817 0.231852 0)
(-0.226094 0.208999 0)
(-0.203387 0.188009 0)
(-0.182507 0.168708 0)
(-0.163456 0.151097 0)
(-1.54906 1.22119 0)
(-1.30031 1.02508 0)
(-1.11423 0.878388 0)
(-0.969134 0.764003 0)
(-0.852368 0.671952 0)
(-0.755963 0.595953 0)
(-0.674707 0.531896 0)
(-0.605047 0.47698 0)
(-0.544483 0.429236 0)
(-0.491207 0.387236 0)
(-0.443882 0.349928 0)
(-0.401499 0.316516 0)
(-0.363285 0.286391 0)
(-0.328637 0.259076 0)
(-0.29708 0.234199 0)
(-0.268234 0.211459 0)
(-0.241795 0.190616 0)
(-0.217511 0.171472 0)
(-0.195181 0.153869 0)
(-0.174807 0.137807 0)
(-1.6401 1.09588 0)
(-1.37673 0.919903 0)
(-1.17971 0.788259 0)
(-1.02609 0.685611 0)
(-0.902461 0.603005 0)
(-0.800391 0.534804 0)
(-0.714359 0.477319 0)
(-0.640605 0.428039 0)
(-0.576482 0.385193 0)
(-0.520075 0.347503 0)
(-0.469969 0.314023 0)
(-0.425095 0.284039 0)
(-0.384635 0.257005 0)
(-0.347951 0.232493 0)
(-0.314539 0.210168 0)
(-0.283998 0.189762 0)
(-0.256005 0.171057 0)
(-0.230294 0.153877 0)
(-0.206652 0.13808 0)
(-0.18508 0.123667 0)
(-1.72103 0.963826 0)
(-1.44466 0.809051 0)
(-1.23792 0.69327 0)
(-1.07672 0.602992 0)
(-0.94699 0.53034 0)
(-0.839884 0.470357 0)
(-0.749607 0.4198 0)
(-0.672214 0.376458 0)
(-0.604927 0.338775 0)
(-0.545737 0.305627 0)
(-0.493158 0.276182 0)
(-0.44607 0.249811 0)
(-0.403614 0.226035 0)
(-0.365119 0.204477 0)
(-0.330059 0.184842 0)
(-0.298011 0.166894 0)
(-0.268637 0.150444 0)
(-0.241657 0.135334 0)
(-0.216849 0.121441 0)
(-0.194213 0.108764 0)
(-1.79134 0.825826 0)
(-1.50369 0.693211 0)
(-1.2885 0.594007 0)
(-1.12071 0.516655 0)
(-0.985681 0.454405 0)
(-0.874198 0.403011 0)
(-0.780233 0.359692 0)
(-0.699678 0.322556 0)
(-0.629642 0.290269 0)
(-0.568034 0.261867 0)
(-0.513307 0.236638 0)
(-0.464295 0.214043 0)
(-0.420104 0.193671 0)
(-0.380037 0.175199 0)
(-0.343544 0.158376 0)
(-0.310187 0.142998 0)
(-0.279613 0.128903 0)
(-0.25153 0.115957 0)
(-0.225708 0.104053 0)
(-0.202148 0.0931913 0)
(-1.85062 0.682733 0)
(-1.55344 0.573096 0)
(-1.33113 0.491082 0)
(-1.15779 0.427132 0)
(-1.0183 0.375669 0)
(-0.903123 0.33318 0)
(-0.806049 0.297367 0)
(-0.722829 0.266666 0)
(-0.650475 0.239973 0)
(-0.586828 0.216492 0)
(-0.530291 0.195635 0)
(-0.479658 0.176955 0)
(-0.434004 0.160113 0)
(-0.392611 0.144842 0)
(-0.354911 0.130934 0)
(-0.32045 0.11822 0)
(-0.288864 0.106568 0)
(-0.259853 0.0958648 0)
(-0.233176 0.0860233 0)
(-0.208836 0.0770437 0)
(-1.89848 0.535432 0)
(-1.59362 0.449448 0)
(-1.36556 0.385128 0)
(-1.18773 0.334976 0)
(-1.04463 0.294616 0)
(-0.92648 0.261294 0)
(-0.826896 0.233209 0)
(-0.741523 0.209131 0)
(-0.667298 0.188197 0)
(-0.602005 0.169783 0)
(-0.544005 0.153425 0)
(-0.492063 0.138776 0)
(-0.445229 0.125567 0)
(-0.402765 0.113592 0)
(-0.36409 0.102684 0)
(-0.328738 0.0927137 0)
(-0.296335 0.0835751 0)
(-0.266573 0.0751814 0)
(-0.239207 0.0674633 0)
(-0.214237 0.0604211 0)
(-1.93464 0.384828 0)
(-1.62397 0.323029 0)
(-1.39157 0.276801 0)
(-1.21036 0.240755 0)
(-1.06453 0.211747 0)
(-0.944125 0.187798 0)
(-0.842644 0.167612 0)
(-0.755646 0.150307 0)
(-0.680007 0.135262 0)
(-0.61347 0.122027 0)
(-0.554366 0.11027 0)
(-0.501434 0.0997414 0)
(-0.453708 0.0902481 0)
(-0.410436 0.0816407 0)
(-0.371024 0.0738012 0)
(-0.334999 0.0666354 0)
(-0.301979 0.0600673 0)
(-0.27165 0.0540346 0)
(-0.243763 0.0484874 0)
(-0.218317 0.043426 0)
(-1.95887 0.231852 0)
(-1.64431 0.194618 0)
(-1.40899 0.166766 0)
(-1.22551 0.145049 0)
(-1.07786 0.127573 0)
(-0.955949 0.113144 0)
(-0.853197 0.100982 0)
(-0.765109 0.0905565 0)
(-0.688523 0.081492 0)
(-0.621153 0.0735182 0)
(-0.561309 0.0664352 0)
(-0.507714 0.0600918 0)
(-0.45939 0.0543723 0)
(-0.415576 0.0491866 0)
(-0.375671 0.0444635 0)
(-0.339194 0.0401462 0)
(-0.305761 0.0361891 0)
(-0.275052 0.0325546 0)
(-0.246816 0.0292125 0)
(-0.221052 0.0261632 0)
(-1.97102 0.0774438 0)
(-1.65451 0.0650062 0)
(-1.41774 0.055703 0)
(-1.23312 0.0484492 0)
(-1.08454 0.0426117 0)
(-0.96188 0.0377922 0)
(-0.85849 0.03373 0)
(-0.769856 0.0302475 0)
(-0.692794 0.0272198 0)
(-0.625007 0.0245564 0)
(-0.564791 0.0221905 0)
(-0.510864 0.0200717 0)
(-0.46224 0.0181613 0)
(-0.418154 0.0164292 0)
(-0.378001 0.0148516 0)
(-0.341299 0.0134096 0)
(-0.307657 0.0120878 0)
(-0.276759 0.0108738 0)
(-0.248347 0.00975755 0)
(-0.222423 0.00873901 0)
(-1.97102 -0.077444 0)
(-1.65451 -0.0650064 0)
(-1.41774 -0.0557034 0)
(-1.23312 -0.0484496 0)
(-1.08454 -0.0426122 0)
(-0.96188 -0.0377926 0)
(-0.85849 -0.0337305 0)
(-0.769856 -0.030248 0)
(-0.692794 -0.0272202 0)
(-0.625007 -0.0245568 0)
(-0.564791 -0.0221909 0)
(-0.510864 -0.0200721 0)
(-0.46224 -0.0181616 0)
(-0.418154 -0.0164295 0)
(-0.378001 -0.0148518 0)
(-0.341299 -0.0134097 0)
(-0.307657 -0.012088 0)
(-0.276759 -0.0108739 0)
(-0.248347 -0.00975759 0)
(-0.222423 -0.00873902 0)
(-1.95887 -0.231852 0)
(-1.64431 -0.194618 0)
(-1.40899 -0.166766 0)
(-1.22551 -0.14505 0)
(-1.07786 -0.127573 0)
(-0.955949 -0.113144 0)
(-0.853197 -0.100983 0)
(-0.765109 -0.090557 0)
(-0.688523 -0.0814924 0)
(-0.621153 -0.0735186 0)
(-0.561309 -0.0664355 0)
(-0.507714 -0.0600921 0)
(-0.45939 -0.0543726 0)
(-0.415576 -0.0491868 0)
(-0.375671 -0.0444637 0)
(-0.339194 -0.0401464 0)
(-0.305761 -0.0361892 0)
(-0.275052 -0.0325547 0)
(-0.246816 -0.0292126 0)
(-0.221052 -0.0261632 0)
(-1.93464 -0.384829 0)
(-1.62397 -0.323029 0)
(-1.39157 -0.276801 0)
(-1.21036 -0.240755 0)
(-1.06453 -0.211748 0)
(-0.944125 -0.187799 0)
(-0.842644 -0.167613 0)
(-0.755646 -0.150308 0)
(-0.680007 -0.135262 0)
(-0.61347 -0.122027 0)
(-0.554366 -0.110271 0)
(-0.501434 -0.0997417 0)
(-0.453708 -0.0902484 0)
(-0.410436 -0.081641 0)
(-0.371024 -0.0738014 0)
(-0.334999 -0.0666355 0)
(-0.301979 -0.0600674 0)
(-0.27165 -0.0540347 0)
(-0.243763 -0.0484875 0)
(-0.218317 -0.043426 0)
(-1.89848 -0.535432 0)
(-1.59362 -0.449449 0)
(-1.36556 -0.385129 0)
(-1.18773 -0.334977 0)
(-1.04463 -0.294617 0)
(-0.92648 -0.261295 0)
(-0.826896 -0.233209 0)
(-0.741523 -0.209132 0)
(-0.667298 -0.188198 0)
(-0.602005 -0.169783 0)
(-0.544005 -0.153426 0)
(-0.492063 -0.138776 0)
(-0.445229 -0.125568 0)
(-0.402765 -0.113592 0)
(-0.36409 -0.102684 0)
(-0.328738 -0.0927138 0)
(-0.296335 -0.0835752 0)
(-0.266573 -0.0751816 0)
(-0.239207 -0.0674634 0)
(-0.214237 -0.0604212 0)
(-1.85062 -0.682734 0)
(-1.55344 -0.573097 0)
(-1.33113 -0.491082 0)
(-1.15779 -0.427133 0)
(-1.0183 -0.375669 0)
(-0.903123 -0.33318 0)
(-0.80605 -0.297368 0)
(-0.722829 -0.266666 0)
(-0.650475 -0.239973 0)
(-0.586828 -0.216493 0)
(-0.530291 -0.195635 0)
(-0.479658 -0.176955 0)
(-0.434004 -0.160113 0)
(-0.392611 -0.144842 0)
(-0.354911 -0.130934 0)
(-0.32045 -0.118221 0)
(-0.288864 -0.106568 0)
(-0.259853 -0.0958649 0)
(-0.233177 -0.0860234 0)
(-0.208836 -0.0770438 0)
(-1.79135 -0.825826 0)
(-1.50369 -0.693211 0)
(-1.2885 -0.594008 0)
(-1.12071 -0.516655 0)
(-0.985681 -0.454406 0)
(-0.874198 -0.403011 0)
(-0.780234 -0.359693 0)
(-0.699679 -0.322557 0)
(-0.629642 -0.290269 0)
(-0.568034 -0.261867 0)
(-0.513307 -0.236638 0)
(-0.464295 -0.214043 0)
(-0.420104 -0.193671 0)
(-0.380037 -0.1752 0)
(-0.343544 -0.158376 0)
(-0.310187 -0.142998 0)
(-0.279613 -0.128903 0)
(-0.251531 -0.115957 0)
(-0.225709 -0.104053 0)
(-0.202148 -0.0931914 0)
(-1.72103 -0.963826 0)
(-1.44466 -0.809051 0)
(-1.23792 -0.693271 0)
(-1.07672 -0.602992 0)
(-0.946991 -0.530341 0)
(-0.839884 -0.470358 0)
(-0.749607 -0.419801 0)
(-0.672214 -0.376458 0)
(-0.604927 -0.338776 0)
(-0.545737 -0.305628 0)
(-0.493158 -0.276182 0)
(-0.44607 -0.249812 0)
(-0.403614 -0.226035 0)
(-0.365119 -0.204477 0)
(-0.330059 -0.184842 0)
(-0.298011 -0.166895 0)
(-0.268637 -0.150444 0)
(-0.241657 -0.135335 0)
(-0.216849 -0.121441 0)
(-0.194213 -0.108764 0)
(-1.6401 -1.09588 0)
(-1.37673 -0.919904 0)
(-1.17971 -0.78826 0)
(-1.02609 -0.685612 0)
(-0.902461 -0.603006 0)
(-0.800391 -0.534804 0)
(-0.714359 -0.47732 0)
(-0.640605 -0.428039 0)
(-0.576482 -0.385193 0)
(-0.520075 -0.347503 0)
(-0.469969 -0.314023 0)
(-0.425095 -0.28404 0)
(-0.384635 -0.257005 0)
(-0.347951 -0.232494 0)
(-0.314539 -0.210168 0)
(-0.283998 -0.189762 0)
(-0.256005 -0.171057 0)
(-0.230294 -0.153878 0)
(-0.206652 -0.138081 0)
(-0.185081 -0.123667 0)
(-1.54907 -1.22119 0)
(-1.30031 -1.02508 0)
(-1.11423 -0.878388 0)
(-0.969134 -0.764004 0)
(-0.852368 -0.671953 0)
(-0.755963 -0.595954 0)
(-0.674707 -0.531896 0)
(-0.605047 -0.476981 0)
(-0.544483 -0.429236 0)
(-0.491207 -0.387237 0)
(-0.443882 -0.349929 0)
(-0.401499 -0.316517 0)
(-0.363285 -0.286391 0)
(-0.328637 -0.259077 0)
(-0.29708 -0.234199 0)
(-0.268234 -0.211459 0)
(-0.241795 -0.190616 0)
(-0.217511 -0.171472 0)
(-0.195182 -0.153869 0)
(-0.174807 -0.137807 0)
(-1.44848 -1.33896 0)
(-1.21588 -1.12395 0)
(-1.04188 -0.963102 0)
(-0.906203 -0.837686 0)
(-0.79702 -0.736758 0)
(-0.706875 -0.653429 0)
(-0.630895 -0.583194 0)
(-0.565759 -0.522982 0)
(-0.509127 -0.470633 0)
(-0.459311 -0.424583 0)
(-0.415059 -0.383677 0)
(-0.375428 -0.347042 0)
(-0.339695 -0.314011 0)
(-0.307297 -0.284063 0)
(-0.277789 -0.256786 0)
(-0.250817 -0.231853 0)
(-0.226094 -0.208999 0)
(-0.203387 -0.188009 0)
(-0.182507 -0.168708 0)
(-0.163456 -0.151097 0)
(-1.33896 -1.44848 0)
(-1.12395 -1.21588 0)
(-0.963102 -1.04188 0)
(-0.837686 -0.906204 0)
(-0.736758 -0.79702 0)
(-0.653429 -0.706875 0)
(-0.583194 -0.630895 0)
(-0.522982 -0.565759 0)
(-0.470632 -0.509127 0)
(-0.424583 -0.459311 0)
(-0.383676 -0.415059 0)
(-0.347042 -0.375428 0)
(-0.314011 -0.339696 0)
(-0.284063 -0.307297 0)
(-0.256786 -0.277789 0)
(-0.231853 -0.250817 0)
(-0.208999 -0.226094 0)
(-0.188009 -0.203387 0)
(-0.168708 -0.182508 0)
(-0.151097 -0.163456 0)
(-1.22119 -1.54907 0)
(-1.02508 -1.30031 0)
(-0.878388 -1.11423 0)
(-0.764004 -0.969134 0)
(-0.671953 -0.852368 0)
(-0.595954 -0.755963 0)
(-0.531896 -0.674707 0)
(-0.476981 -0.605047 0)
(-0.429236 -0.544483 0)
(-0.387237 -0.491207 0)
(-0.349929 -0.443882 0)
(-0.316517 -0.4015 0)
(-0.286391 -0.363285 0)
(-0.259077 -0.328637 0)
(-0.234199 -0.29708 0)
(-0.211459 -0.268235 0)
(-0.190616 -0.241795 0)
(-0.171472 -0.217511 0)
(-0.153869 -0.195182 0)
(-0.137807 -0.174807 0)
(-1.09588 -1.6401 0)
(-0.919904 -1.37673 0)
(-0.78826 -1.17971 0)
(-0.685612 -1.02609 0)
(-0.603006 -0.902461 0)
(-0.534804 -0.800391 0)
(-0.47732 -0.714359 0)
(-0.428039 -0.640605 0)
(-0.385193 -0.576482 0)
(-0.347503 -0.520075 0)
(-0.314023 -0.469969 0)
(-0.28404 -0.425096 0)
(-0.257005 -0.384635 0)
(-0.232493 -0.347951 0)
(-0.210168 -0.314539 0)
(-0.189762 -0.283999 0)
(-0.171057 -0.256005 0)
(-0.153878 -0.230294 0)
(-0.138081 -0.206652 0)
(-0.123667 -0.185081 0)
(-0.963826 -1.72103 0)
(-0.809052 -1.44466 0)
(-0.693271 -1.23792 0)
(-0.602992 -1.07672 0)
(-0.530341 -0.946991 0)
(-0.470358 -0.839884 0)
(-0.4198 -0.749607 0)
(-0.376458 -0.672214 0)
(-0.338776 -0.604927 0)
(-0.305627 -0.545737 0)
(-0.276182 -0.493158 0)
(-0.249812 -0.446071 0)
(-0.226035 -0.403614 0)
(-0.204477 -0.36512 0)
(-0.184842 -0.330059 0)
(-0.166895 -0.298012 0)
(-0.150444 -0.268637 0)
(-0.135335 -0.241657 0)
(-0.121441 -0.216849 0)
(-0.108765 -0.194213 0)
(-0.825826 -1.79135 0)
(-0.693211 -1.50369 0)
(-0.594008 -1.2885 0)
(-0.516655 -1.12071 0)
(-0.454406 -0.985681 0)
(-0.403011 -0.874198 0)
(-0.359693 -0.780234 0)
(-0.322556 -0.699679 0)
(-0.290269 -0.629642 0)
(-0.261867 -0.568034 0)
(-0.236638 -0.513307 0)
(-0.214043 -0.464295 0)
(-0.193671 -0.420104 0)
(-0.1752 -0.380037 0)
(-0.158376 -0.343544 0)
(-0.142998 -0.310187 0)
(-0.128903 -0.279613 0)
(-0.115957 -0.251531 0)
(-0.104053 -0.225709 0)
(-0.0931915 -0.202148 0)
(-0.682734 -1.85062 0)
(-0.573097 -1.55344 0)
(-0.491082 -1.33113 0)
(-0.427133 -1.15779 0)
(-0.375669 -1.0183 0)
(-0.33318 -0.903124 0)
(-0.297368 -0.80605 0)
(-0.266666 -0.722829 0)
(-0.239973 -0.650475 0)
(-0.216493 -0.586829 0)
(-0.195635 -0.530291 0)
(-0.176955 -0.479658 0)
(-0.160113 -0.434005 0)
(-0.144842 -0.392612 0)
(-0.130934 -0.354911 0)
(-0.118221 -0.320451 0)
(-0.106568 -0.288864 0)
(-0.095865 -0.259853 0)
(-0.0860235 -0.233177 0)
(-0.0770438 -0.208836 0)
(-0.535432 -1.89848 0)
(-0.449449 -1.59362 0)
(-0.385129 -1.36556 0)
(-0.334977 -1.18774 0)
(-0.294617 -1.04463 0)
(-0.261295 -0.926481 0)
(-0.233209 -0.826896 0)
(-0.209131 -0.741523 0)
(-0.188198 -0.667298 0)
(-0.169783 -0.602005 0)
(-0.153426 -0.544006 0)
(-0.138776 -0.492063 0)
(-0.125568 -0.445229 0)
(-0.113592 -0.402765 0)
(-0.102684 -0.36409 0)
(-0.0927139 -0.328738 0)
(-0.0835753 -0.296335 0)
(-0.0751816 -0.266574 0)
(-0.0674635 -0.239207 0)
(-0.0604212 -0.214237 0)
(-0.384829 -1.93464 0)
(-0.323029 -1.62397 0)
(-0.276801 -1.39157 0)
(-0.240755 -1.21036 0)
(-0.211748 -1.06453 0)
(-0.187799 -0.944125 0)
(-0.167613 -0.842644 0)
(-0.150308 -0.755646 0)
(-0.135262 -0.680007 0)
(-0.122027 -0.613471 0)
(-0.110271 -0.554366 0)
(-0.0997417 -0.501434 0)
(-0.0902484 -0.453708 0)
(-0.081641 -0.410436 0)
(-0.0738015 -0.371024 0)
(-0.0666356 -0.334999 0)
(-0.0600674 -0.301979 0)
(-0.0540347 -0.27165 0)
(-0.0484875 -0.243763 0)
(-0.0434261 -0.218318 0)
(-0.231852 -1.95887 0)
(-0.194618 -1.64431 0)
(-0.166766 -1.409 0)
(-0.14505 -1.22551 0)
(-0.127573 -1.07786 0)
(-0.113144 -0.95595 0)
(-0.100983 -0.853198 0)
(-0.0905569 -0.765109 0)
(-0.0814924 -0.688523 0)
(-0.0735187 -0.621154 0)
(-0.0664356 -0.561309 0)
(-0.0600922 -0.507714 0)
(-0.0543727 -0.459391 0)
(-0.0491869 -0.415576 0)
(-0.0444638 -0.375671 0)
(-0.0401465 -0.339194 0)
(-0.0361893 -0.305761 0)
(-0.0325547 -0.275053 0)
(-0.0292126 -0.246816 0)
(-0.0261632 -0.221052 0)
(-0.077444 -1.97102 0)
(-0.0650065 -1.65451 0)
(-0.0557034 -1.41774 0)
(-0.0484496 -1.23312 0)
(-0.0426122 -1.08454 0)
(-0.0377927 -0.96188 0)
(-0.0337305 -0.85849 0)
(-0.030248 -0.769856 0)
(-0.0272203 -0.692795 0)
(-0.0245569 -0.625007 0)
(-0.022191 -0.564791 0)
(-0.0200722 -0.510864 0)
(-0.0181617 -0.46224 0)
(-0.0164296 -0.418154 0)
(-0.0148519 -0.378001 0)
(-0.0134098 -0.341299 0)
(-0.012088 -0.307658 0)
(-0.010874 -0.276759 0)
(-0.00975763 -0.248347 0)
(-0.00873903 -0.222423 0)
(1.97102 -0.077444 0)
(1.95887 -0.231852 0)
(1.93464 -0.384829 0)
(1.89848 -0.535432 0)
(1.85062 -0.682734 0)
(1.79134 -0.825826 0)
(1.72103 -0.963826 0)
(1.6401 -1.09588 0)
(1.54906 -1.22119 0)
(1.44848 -1.33896 0)
(1.33896 -1.44848 0)
(1.22119 -1.54907 0)
(1.09588 -1.6401 0)
(0.963826 -1.72103 0)
(0.825826 -1.79135 0)
(0.682734 -1.85062 0)
(0.535432 -1.89848 0)
(0.384829 -1.93464 0)
(0.231852 -1.95887 0)
(0.0774438 -1.97102 0)
(1.65451 -0.0650064 0)
(1.64431 -0.194618 0)
(1.62397 -0.323029 0)
(1.59362 -0.449449 0)
(1.55344 -0.573097 0)
(1.50369 -0.693211 0)
(1.44466 -0.809051 0)
(1.37673 -0.919904 0)
(1.30031 -1.02508 0)
(1.21588 -1.12395 0)
(1.12395 -1.21588 0)
(1.02508 -1.30031 0)
(0.919903 -1.37673 0)
(0.809051 -1.44466 0)
(0.693211 -1.50369 0)
(0.573096 -1.55344 0)
(0.449448 -1.59362 0)
(0.323029 -1.62397 0)
(0.194618 -1.64431 0)
(0.0650061 -1.65451 0)
(1.41774 -0.0557034 0)
(1.40899 -0.166766 0)
(1.39157 -0.276801 0)
(1.36556 -0.385129 0)
(1.33113 -0.491082 0)
(1.2885 -0.594007 0)
(1.23792 -0.693271 0)
(1.17971 -0.788259 0)
(1.11423 -0.878388 0)
(1.04188 -0.963102 0)
(0.963101 -1.04188 0)
(0.878388 -1.11423 0)
(0.788259 -1.17971 0)
(0.69327 -1.23792 0)
(0.594007 -1.2885 0)
(0.491082 -1.33113 0)
(0.385128 -1.36556 0)
(0.276801 -1.39157 0)
(0.166766 -1.409 0)
(0.055703 -1.41774 0)
(1.23312 -0.0484496 0)
(1.22551 -0.14505 0)
(1.21036 -0.240755 0)
(1.18773 -0.334977 0)
(1.15779 -0.427133 0)
(1.12071 -0.516655 0)
(1.07672 -0.602992 0)
(1.02609 -0.685611 0)
(0.969133 -0.764004 0)
(0.906203 -0.837686 0)
(0.837685 -0.906203 0)
(0.764003 -0.969134 0)
(0.685611 -1.02609 0)
(0.602992 -1.07672 0)
(0.516655 -1.12071 0)
(0.427132 -1.15779 0)
(0.334976 -1.18774 0)
(0.240755 -1.21036 0)