/*--------------------------------*- C++ -*----------------------------------*\
| =========                 |                                                 |
| \\      /  F ield         | foam-extend: Open Source CFD                    |
|  \\    /   O peration     | Version:  3.0                                   |
|   \\  /    A nd           | Web:         http://www.extend-project.de       |
|    \\/     M anipulation  |                                                 |
\*---------------------------------------------------------------------------*/
FoamFile
{
    version     2.0;
    format      ascii;
    class       volScalarField;
    location    "35";
    object      p;
}
// * * * * * * * * * * * * * * * * * * * * * * * * * * * * * * * * * * * * * //

dimensions      [0 0 0 0 0 0 0];

internalField   nonuniform List<scalar> 
2688
(
-0.23593265
-0.2165627514
-0.2049349705
-0.1918189495
-0.1844182985
-0.1752654426
-0.1705587396
-0.1640790704
-0.161165326
-0.1565556573
-0.1548509502
-0.1515653623
-0.1506539138
-0.148287478
-0.1478425433
-0.1460657435
-0.1458027158
-0.144320268
-0.1439653566
-0.1424870452
-0.1417532404
-0.1399702166
-0.1385359853
-0.136098572
-0.2351915351
-0.2158824484
-0.2042911457
-0.1912162979
-0.1838388681
-0.1747147381
-0.1700228051
-0.1635634553
-0.1606588461
-0.156063629
-0.1543642653
-0.1510889748
-0.15018038
-0.147821357
-0.1473778115
-0.1456065765
-0.1453443665
-0.1438665629
-0.1435127564
-0.1420390787
-0.1413075696
-0.1395301399
-0.1381004067
-0.1356706494
-0.2337080506
-0.2145207847
-0.2030026444
-0.1900102963
-0.1826794353
-0.1736128805
-0.168950566
-0.1625319785
-0.1596457117
-0.1550794984
-0.1533908745
-0.150136261
-0.1492334165
-0.1468892896
-0.1464485599
-0.1446885128
-0.1444279718
-0.1429595025
-0.1426079381
-0.1411435635
-0.1404166779
-0.1386504652
-0.1372297584
-0.1348153277
-0.2314915757
-0.2124862568
-0.2010773277
-0.1882081691
-0.1809468132
-0.1719662179
-0.1673481058
-0.1609903601
-0.1581314492
-0.1536085121
-0.1519358896
-0.1487121177
-0.1478178251
-0.1454959083
-0.1450593494
-0.1433159775
-0.1430578986
-0.141603344
-0.1412551041
-0.1398046082
-0.1390846069
-0.1373351387
-0.1359279001
-0.1335363672
-0.2285444092
-0.2097810833
-0.1985174419
-0.1858121496
-0.1786432726
-0.1697770361
-0.1652177457
-0.1589409621
-0.1561184712
-0.1516531353
-0.1500018285
-0.1468191169
-0.1459362296
-0.1436438899
-0.1432129064
-0.1414917444
-0.1412369655
-0.1398009416
-0.1394571472
-0.138025127
-0.1373143035
-0.1355871136
-0.1341977994
-0.1318367149
-0.2248804893
-0.2064179416
-0.1953348512
-0.1828332142
-0.1757792474
-0.1670551235
-0.162568911
-0.1563927247
-0.1536154671
-0.1492216895
-0.1475968428
-0.1444651304
-0.1435963865
-0.1413407751
-0.1409166921
-0.1392231057
-0.1389724023
-0.1375593879
-0.1372210955
-0.1358120248
-0.1351125897
-0.133413086
-0.1320460419
-0.1297228095
-0.2205066805
-0.2024032525
-0.1915357583
-0.1792772983
-0.1723605595
-0.1638061407
-0.159407211
-0.1533511687
-0.150627951
-0.1463196487
-0.1447264261
-0.1416556413
-0.1408038137
-0.1385920886
-0.1381762708
-0.1365156382
-0.1362698251
-0.1348843051
-0.1345526047
-0.1331709472
-0.1324851269
-0.1308186809
-0.1294782327
-0.1272001861
-0.2154414106
-0.1977538067
-0.1871359296
-0.1751590301
-0.1684011592
-0.160043218
-0.155745322
-0.1498283653
-0.1471676883
-0.1429583255
-0.1414016885
-0.1384014187
-0.1375691482
-0.1354082076
-0.1350019331
-0.1333794302
-0.1331392546
-0.1317855492
-0.1314614572
-0.1301115282
-0.1294414512
-0.1278132791
-0.1265036152
-0.1242778976
-0.2096959446
-0.192480073
-0.1821453923
-0.1704879243
-0.1639103059
-0.1557752822
-0.1515920324
-0.1458328914
-0.1432431944
-0.1391461066
-0.1376310047
-0.1347107639
-0.1339007084
-0.1317974119
-0.131401989
-0.1298227699
-0.1295890144
-0.1282714227
-0.127955988
-0.1266420688
-0.1259898767
-0.1244051313
-0.1231304061
-0.1209640449
-0.2032930357
-0.1866028071
-0.1765836689
-0.1652821247
-0.1589053328
-0.15101868
-0.1469631486
-0.1413798312
-0.1388691948
-0.1348971826
-0.1334283313
-0.1305972343
-0.1298119033
-0.1277728087
-0.1273894512
-0.1258584355
-0.1256318064
-0.1243544315
-0.1240486121
-0.122774797
-0.1221425018
-0.1206061343
-0.11937032
-0.117270106
-0.1962481526
-0.1801363364
-0.1704644347
-0.1595545601
-0.1533987794
-0.1457854542
-0.1418704909
-0.1364806766
-0.134057068
-0.1302227191
-0.1288047917
-0.1260718193
-0.1253137231
-0.1233453058
-0.1229752512
-0.121497306
-0.1212785484
-0.1200454555
-0.1197502535
-0.1185205961
-0.1179102331
-0.1164271177
-0.1152341451
-0.1132067124
-0.1885881392
-0.173105174
-0.1638107711
-0.1533267062
-0.1474111842
-0.1400949985
-0.1363328315
-0.1311533668
-0.1288243437
-0.1251396324
-0.1237770384
-0.1211507166
-0.1204222006
-0.1185305937
-0.1181749728
-0.1167546958
-0.1165444618
-0.1153594807
-0.1150757813
-0.1138941031
-0.1133075469
-0.1118823109
-0.1107358941
-0.1087875966
-0.1803324158
-0.1655272728
-0.1566397813
-0.1466146992
-0.1409581686
-0.1339622839
-0.1303648395
-0.1254121326
-0.1231850907
-0.1196617003
-0.1183587789
-0.1158474439
-0.115150841
-0.113342057
-0.1130020248
-0.1116439394
-0.1114429314
-0.1103098436
-0.1100385867
-0.1089086541
-0.1083477953
-0.1069849606
-0.1058887425
-0.1040257349
-0.1715116441
-0.1574306493
-0.1489778632
-0.1394431204
-0.1340632579
-0.1274095438
-0.1239880513
-0.1192775733
-0.1171594516
-0.1138083782
-0.1125691762
-0.1101806562
-0.1095181156
-0.107797783
-0.1074743698
-0.1061826916
-0.1059914985
-0.1049138159
-0.1046558092
-0.1035811328
-0.103047696
-0.1017515175
-0.1007089163
-0.09893703692
-0.1621488897
-0.1488366021
-0.1408452857
-0.1318310676
-0.1267449203
-0.1204544535
-0.1172197672
-0.1127664507
-0.1107639814
-0.1075958584
-0.1064243278
-0.1041662119
-0.1035398623
-0.101913458
-0.1016077244
-0.1003865767
-0.1002058464
-0.09918701209
-0.09894311176
-0.09792711276
-0.09742281128
-0.09619739539
-0.09521171756
-0.09353656399
-0.1522782976
-0.139776349
-0.1322714776
-0.1238059606
-0.1190294109
-0.1131218415
-0.1100840495
-0.1059017945
-0.1040212096
-0.101045915
-0.09994568759
-0.09782500545
-0.09723677121
-0.09570934647
-0.0954222091
-0.09427537488
-0.09410563032
-0.09314880083
-0.09291973355
-0.09196557317
-0.09149196223
-0.09034113913
-0.08941546124
-0.0878422818
-0.1419262373
-0.1302742176
-0.1232795722
-0.1153895774
-0.1109377741
-0.1054318312
-0.1026005804
-0.09870265743
-0.09694994239
-0.09417692785
-0.09315152036
-0.09117502046
-0.09062680059
-0.08920322853
-0.08893563807
-0.08786678445
-0.08770860475
-0.08681683613
-0.0866033597
-0.08571407128
-0.0852726691
-0.08420008266
-0.08333734065
-0.08187110733
-0.1311299715
-0.1203642868
-0.1139017064
-0.1066118729
-0.1024987026
-0.09741156809
-0.09479567711
-0.09119423863
-0.08957483894
-0.08701273847
-0.08606532079
-0.08423914496
-0.08373261431
-0.08241730671
-0.08217005761
-0.08118249104
-0.08103633088
-0.08021238682
-0.08001513798
-0.07919349028
-0.07878565778
-0.07779465976
-0.07699754359
-0.07564284713
-0.1199187746
-0.1100735533
-0.1041635402
-0.0974969902
-0.09373551452
-0.08908333592
-0.08669112487
-0.083397614
-0.08191669428
-0.07957366045
-0.07870727066
-0.07703724234
-0.07657404581
-0.07537120823
-0.07514512574
-0.07424200772
-0.07410836759
-0.07335487967
-0.07317451146
-0.07242311771
-0.07205016549
-0.07114389744
-0.07041494066
-0.06917606638
-0.1083326156
-0.09943857936
-0.09409956013
-0.08807708326
-0.08467901664
-0.08047628997
-0.07831519548
-0.07533986308
-0.07400201254
-0.07188532585
-0.07110263161
-0.06959392769
-0.06917547093
-0.06808882218
-0.06788457129
-0.06706869158
-0.06694795271
-0.06626725398
-0.0661043014
-0.06542549717
-0.06508856969
-0.0642698582
-0.06361132721
-0.06249214963
-0.0964032547
-0.08848864309
-0.08373758473
-0.07837831583
-0.07535447038
-0.07161456037
-0.06969147216
-0.06704379151
-0.0658532901
-0.06396970212
-0.06327322491
-0.06193066982
-0.06155832117
-0.06059134462
-0.06040961287
-0.05968358805
-0.05957616758
-0.05897043651
-0.05882544411
-0.05822139489
-0.05792158212
-0.05719302977
-0.05660702497
-0.05561108927
-0.08417292169
-0.0772623802
-0.07311406237
-0.06843467766
-0.06579444664
-0.06252897901
-0.06084985723
-0.05853804711
-0.05749856937
-0.05585391497
-0.05524578687
-0.05407352813
-0.05374840787
-0.05290408337
-0.05274539862
-0.05211146488
-0.05201766365
-0.05148876903
-0.0513621599
-0.05083473504
-0.05057294867
-0.04993681969
-0.04942515518
-0.04855557075
-0.07167540059
-0.06579093022
-0.06225857436
-0.05827398302
-0.0560257946
-0.05324518518
-0.05181540368
-0.0498468497
-0.04896173767
-0.04756128295
-0.04704347664
-0.04604527838
-0.0457684599
-0.04504950492
-0.0449144089
-0.04437460781
-0.04429475723
-0.0438444008
-0.04373660672
-0.04328749867
-0.0430645949
-0.0425229204
-0.04208723641
-0.04134676371
-0.05895470932
-0.05411456733
-0.05120911797
-0.04793167111
-0.04608247753
-0.04379533375
-0.04261930002
-0.04100008441
-0.04027205121
-0.03912011164
-0.03869419728
-0.03787312564
-0.03764543026
-0.03705404729
-0.03694292313
-0.03649890633
-0.03643322081
-0.03606278103
-0.03597410665
-0.03560469438
-0.03542134126
-0.03497579528
-0.03461743212
-0.03400837635
-0.04604618024
-0.04226585191
-0.03999662023
-0.03743681572
-0.03599255684
-0.03420621631
-0.033287722
-0.03202305081
-0.03145445894
-0.03055474934
-0.03022212558
-0.02958083739
-0.02940303006
-0.02894113821
-0.02885437643
-0.02850758763
-0.02845631041
-0.02816699235
-0.02809775144
-0.02780923245
-0.02766604021
-0.02731805537
-0.02703817078
-0.02656247288
-0.03299511465
-0.03028623841
-0.02866019472
-0.02682590096
-0.02579099911
-0.02451094115
-0.02385278448
-0.02294652578
-0.02253909239
-0.02189435399
-0.02165600935
-0.02119644998
-0.0210690423
-0.020738037
-0.02067586983
-0.02042735301
-0.02039060844
-0.02018328199
-0.0201336573
-0.01992690365
-0.01982428984
-0.01957493029
-0.01937437533
-0.01903350742
-0.01983789319
-0.01820924891
-0.01723167914
-0.01612885336
-0.01550668685
-0.01473708011
-0.01434142383
-0.01379653994
-0.01355161875
-0.01316396909
-0.0130207109
-0.01274439774
-0.01266783747
-0.01246881757
-0.01243148075
-0.01228206547
-0.01226000603
-0.01213536487
-0.01210554753
-0.01198124603
-0.01191956593
-0.01176964692
-0.0116490814
-0.01144414047
-0.006620593468
-0.006077048355
-0.005750858471
-0.005382784841
-0.005175188883
-0.004918313979
-0.004786310843
-0.004604405692
-0.004522695617
-0.004393266144
-0.004345488129
-0.00425321969
-0.004227701143
-0.004161235301
-0.004148806081
-0.004098914018
-0.004091572016
-0.004049966066
-0.004040014938
-0.003998519926
-0.00397793557
-0.003927898081
-0.003887672987
-0.003819279426
0.006619873799
0.006076352618
0.005749966375
0.005381943986
0.005174193577
0.004917387582
0.004785229908
0.004603473668
0.004521643905
0.00439235817
0.004344449085
0.004252312034
0.004226662468
0.004160307383
0.004147749863
0.004097912401
0.004090476777
0.004048873313
0.004038892015
0.003997412504
0.003976804509
0.003926772066
0.003886502019
0.003818108713
0.01983717869
0.01820855792
0.01723079238
0.01612801746
0.0155056971
0.01473615882
0.0143403486
0.01379561281
0.01355057231
0.01316306555
0.01301967673
0.01274349449
0.0126668039
0.01246789492
0.01243043064
0.01228107063
0.01225891816
0.01213428028
0.01210443299
0.01198014749
0.0119184439
0.01176853018
0.01164791993
0.01144297915
0.03299439981
0.03028554727
0.02865930879
0.02682506558
0.02579001035
0.02451002042
0.02385171033
0.02294559907
0.02253804708
0.02189345129
0.02165497721
0.02119554826
0.02106801135
0.02073711546
0.02067482151
0.02042635775
0.02038952045
0.02018219523
0.02013254054
0.0199258013
0.01982316401
0.01957380903
0.01937320953
0.01903234198
0.04604548065
0.0422651748
0.03999575008
0.03743599498
0.03599158451
0.03420531067
0.03328666479
0.03202213865
0.03145342941
0.03055385994
0.03022110807
0.02957994873
0.02940201415
0.02894023188
0.02885334578
0.0285066117
0.02845524357
0.02816592871
0.02809665834
0.02780815475
0.02766493898
0.02731695891
0.02703702984
0.0265613319
0.05895400937
0.0541138902
0.0512082498
0.04793085177
0.04608150758
0.04379442965
0.04261824537
0.04099917341
0.04027102409
0.03911922394
0.03869318364
0.03787224001
0.03764441957
0.03705314376
0.03694189671
0.03649793093
0.03643215508
0.03606171509
0.03597301133
0.03560361207
0.03542023612
0.03497469423
0.03461628787
0.03400723252
0.07167472526
0.06579027575
0.06225773172
0.05827318734
0.05602485127
0.05324430558
0.05181437665
0.04984596259
0.04896073668
0.04756041741
0.04704248737
0.04604441409
0.04576747344
0.04504862494
0.04491340977
0.04437366153
0.04429372365
0.04384336948
0.04373554683
0.04328645258
0.04306352527
0.04252185442
0.04208612641
0.04134565342
0.08417224658
0.07726172643
0.0731132235
0.06843388493
0.06579350789
0.06252810273
0.06084883508
0.05853716262
0.05749757258
0.05585305226
0.05524480328
0.05407266855
0.05374742943
0.05290320909
0.05274440781
0.05211052296
0.05201663566
0.05148773926
0.05136110196
0.05083368798
0.0505718796
0.04993575363
0.04942404763
0.04855446346
0.09640261248
0.08848801958
0.08373678012
0.07837755482
0.0753535674
0.07161371706
0.06969048741
0.06704293961
0.06585232937
0.06396887029
0.06327227541
0.06192983958
0.06155737538
0.06059050044
0.06040865633
0.05968268133
0.05957517862
0.05896944837
0.05882442909
0.05822039164
0.0579205561
0.0571920062
0.05660595881
0.05561002263
0.1083319749
0.09943795796
0.09409876187
0.08807632764
0.08467812146
0.08047545289
0.07831421916
0.07533901643
0.07400105884
0.07188449881
0.07110169009
0.06959310424
0.06917453638
0.06808798787
0.06788362927
0.06706779662
0.06694697847
0.06626627674
0.0661032984
0.06542450217
0.06508755376
0.06426884327
0.06361027259
0.06249109489
0.1199181737
0.1100729685
0.1041627836
0.09749627319
0.09373466308
0.08908253922
0.08669019467
0.0833968078
0.08191578586
0.07957287269
0.07870637288
0.07703645639
0.07657315229
0.07537040984
0.07514422318
0.07424115102
0.07410743516
0.07335394643
0.07317355424
0.07242217009
0.07204919719
0.07114293054
0.07041393396
0.06917505919
0.1311293742
0.1203637063
0.1139009596
0.1066111647
0.1024978633
0.09741078179
0.09479476032
0.09119344185
0.08957394198
0.08701195889
0.08606443445
0.0842383686
0.08373173552
0.08241652263
0.08216917638
0.08118165536
0.08103542549
0.08021147852
0.08001420848
0.07919256613
0.07878471483
0.0777937154
0.07699656177
0.07564186472
0.141925685
0.1302736787
0.1232788732
0.1153889135
0.1109369854
0.1054310916
0.1025997174
0.09870190799
0.09694909897
0.09417619537
0.09315068717
0.09117429023
0.09062597222
0.08920248756
0.0889348025
0.08786599011
0.08770774257
0.08681597141
0.08660247511
0.08571319389
0.08527177443
0.0841991883
0.0833364105
0.08187017683
0.1522777518
0.1397758172
0.1322707925
0.1238053097
0.1190286397
0.1131211177
0.1100832062
0.1059010603
0.1040203839
0.101045196
0.09994487105
0.09782428886
0.09723596136
0.09570862345
0.09542139969
0.09427460882
0.09410480573
0.09314797506
0.09291889371
0.0919647378
0.09149111221
0.09034028615
0.089414574
0.08784139362
0.1621483926
0.1488361154
0.1408446531
0.1318304655
0.1267442053
0.1204537818
0.1172189842
0.1127657698
0.1107632164
0.1075951934
0.1064235731
0.1041655501
0.1035391134
0.1019127879
0.1016069706
0.1003858593
0.1002050701
0.09918623153
0.09894231616
0.09792632161
0.09742200691
0.09619659004
0.09521088113
0.09353572738
0.1715111566
0.157430173
0.1489772493
0.1394425363
0.1340625666
0.1274088942
0.1239872956
0.1192769147
0.1171587121
0.1138077337
0.1125684452
0.1101800139
0.1095173901
0.1077971341
0.1074736444
0.1061820051
0.1059907638
0.104913082
0.1046550698
0.1035803994
0.1030469552
0.1017507749
0.1007081453
0.09893626525
0.1803319793
0.1655268438
0.1566392232
0.1466141671
0.140957538
0.1339616908
0.1303641497
0.1254115322
0.1231844179
0.1196611153
0.1183581167
0.1158468638
0.1151501864
0.113341472
0.1130013684
0.1116433144
0.1114422574
0.110309164
0.110037897
0.1089079661
0.1083470982
0.106984261
0.1058880168
0.1040250091
0.188587716
0.1731047591
0.1638102365
0.153326197
0.1474105835
0.140094434
0.1363321766
0.1311527961
0.1288237045
0.1251390756
0.123776408
0.1211501631
0.1204215755
0.1185300345
0.1181743465
0.1167541017
0.1165438267
0.1153588462
0.1150751475
0.1138934772
0.1133069226
0.1118816882
0.1107352528
0.1087869554
0.1962477816
0.1801359701
0.170463958
0.1595541049
0.1533982424
0.145784949
0.1418699058
0.1364801676
0.1340564997
0.1302222254
0.1288042346
0.1260713324
0.1253131753
0.123344818
0.1229747051
0.121496787
0.1212779904
0.1200448918
0.1197496844
0.1185200267
0.1179096586
0.1164265398
0.115233546
0.1132061127
0.2032926819
0.1866024585
0.1765832203
0.1652816969
0.1589048313
0.1510182091
0.1469626051
0.1413793582
0.1388686669
0.1348967237
0.1334278127
0.1305967805
0.1298113912
0.1277723519
0.1273889383
0.1258579481
0.1256312836
0.1243539061
0.1240480883
0.1227742782
0.1221419894
0.1206056241
0.1193697997
0.117269586
0.209695644
0.1924797742
0.182145003
0.1704875514
0.1639098696
0.1557748719
0.1515915607
0.1458324813
0.1432427392
0.1391457115
0.1376305608
0.1347103773
0.133900275
0.131797028
0.1314015604
0.1298223639
0.1295885793
0.1282709824
0.1279555471
0.1266416263
0.1259894339
0.1244046844
0.1231299437
0.1209635811
0.2154411314
0.1977535295
0.1871355731
0.1751586884
0.1684007631
0.1600428465
0.1557448971
0.1498279961
0.1471672782
0.1429579696
0.1414012874
0.1384010694
0.1375687547
0.135407859
0.1350015411
0.1333790585
0.1331388545
0.1317851436
0.1314610524
0.1301111213
0.1294410494
0.1278128737
0.1265032015
0.1242774827
0.2205064556
0.2024030269
0.1915354626
0.1792770121
0.1723602295
0.1638058304
0.1594068591
0.1533508625
0.1506276138
0.1463193556
0.144726099
0.1416553573
0.1408034976
0.1385918106
0.1381759617
0.1365153461
0.1362695138
0.1348839882
0.1345522918
0.1331706314
0.1324848163
0.1308183655
0.1294779085
0.1271998599
0.224880289
0.2064177408
0.1953345928
0.1828329626
0.1757789621
0.1670548563
0.1625686102
0.1563924632
0.1536151784
0.1492214385
0.1475965612
0.1444648864
0.143596113
0.141340535
0.1409164224
0.1392228505
0.1389721277
0.1375591066
0.1372208175
0.1358117412
0.1351123127
0.1334128018
0.1320457515
0.1297225174
0.228544263
0.2097809372
0.1985172461
0.1858119545
0.178643054
0.1697768303
0.1652175189
0.1589407631
0.1561182544
0.1516529447
0.1500016186
0.1468189353
0.1459360309
0.1436437172
0.1432127168
0.1414915655
0.141236777
0.1398007466
0.1394569606
0.1380249357
0.1373141226
0.135586927
0.1341976108
0.1318365241
0.2314914547
0.2124861357
0.2010771722
0.1882080109
0.180946643
0.1719660582
0.1673479324
0.1609902075
0.1581312815
0.1536083639
0.151935725
0.1487119757
0.1478176688
0.1454957733
0.1450591993
0.1433158355
0.1430577467
0.1416031848
0.1412549518
0.1398044501
0.1390844605
0.1373349864
0.1359277495
0.1335362159
0.233707984
0.2145207227
0.2030025532
0.1900101975
0.1826793327
0.1736127828
0.1689504674
0.1625318865
0.1596456128
0.1550794057
0.1533907766
0.1501361759
0.14923333
0.146889217
0.1464484852
0.1446884429
0.1444279023
0.1429594261
0.1426078738
0.141143493
0.1404166209
0.138650401
0.1372296971
0.1348152643
0.2351914862
0.2158823993
0.2042910944
0.191216239
0.1838388191
0.174714691
0.1700227608
0.1635634097
0.1606587951
0.1560635777
0.1543642113
0.1510889278
0.1501803337
0.1478213197
0.1473777744
0.1456065423
0.1453443331
0.1438665221
0.1435127244
0.1420390379
0.1413075414
0.1395301047
0.1381003779
0.1356706196
0.2359326849
0.2165627788
0.2049349788
0.1918189459
0.1844183069
0.1752654484
0.1705587605
0.1640790723
0.1611653302
0.1565556487
0.1548509521
0.1515653628
0.1506539292
0.1482874957
0.147842575
0.1460657752
0.1458027592
0.1443203041
0.1439654066
0.1424870852
0.1417532949
0.1399702619
0.1385360366
0.1360986207
0.2359338554
0.2165638225
0.204935943
0.1918198167
0.1844191197
0.1752661891
0.1705594579
0.1640797104
0.161165934
0.1565562041
0.1548514806
0.1515658513
0.1506543961
0.1482879294
0.1478429907
0.1460661643
0.1458031322
0.1443206562
0.143965743
0.142487404
0.1417535998
0.1399705525
0.1385363154
0.136098888
0.2351903865
0.2158814248
0.2042902212
0.1912154536
0.1838381081
0.1747140438
0.170022173
0.1635628637
0.1606582952
0.1560631089
0.1543637826
0.151088523
0.1501799637
0.147820969
0.1473774546
0.1456062416
0.1453440578
0.1438662665
0.1435124868
0.1420388157
0.1413073351
0.1395299118
0.1381002013
0.1356704544
0.2337092253
0.2145218355
0.2030036084
0.1900111535
0.1826802472
0.173613617
0.1689512744
0.1625326167
0.1596463207
0.1550800481
0.1533914054
0.1501367487
0.1492338943
0.1468897345
0.1464489977
0.1446889216
0.1444283744
0.1429598762
0.142608311
0.1411439103
0.1404170262
0.1386507911
0.13723008
0.1348156355
0.2314904249
0.2124852295
0.2010763889
0.1882073098
0.1809460325
0.1719655034
0.1673474528
0.1609897522
0.1581308842
0.1536079805
0.1519353945
0.1487116531
0.1478173938
0.1454955038
0.1450589732
0.1433156211
0.1430575666
0.1416030232
0.1412548103
0.1398043217
0.1390843497
0.1373348882
0.1359276722
0.1335361498
0.2285455743
0.2097821183
0.1985183911
0.1858129946
0.1786440689
0.1697777568
0.1652184341
0.1589415842
0.1561190653
0.1516536732
0.1500023466
0.1468195917
0.145936692
0.143644318
0.1432133256
0.1414921336
0.1412373479
0.1398012946
0.1394574983
0.1380254514
0.1373146286
0.1355874169
0.1341980979
0.1318369992
0.2248793274
0.2064169013
0.1953338973
0.1828323437
0.1757784497
0.1670543915
0.1625682361
0.1563920963
0.1536148809
0.1492211382
0.1475963263
0.1444646437
0.1435959304
0.1413403442
0.1409162873
0.1392227198
0.1389720399
0.137559036
0.1372207691
0.1358117036
0.1351122943
0.1334127952
0.1320457702
0.1297225472
0.2205078349
0.2024042745
0.1915366949
0.1792781342
0.1723613421
0.1638068467
0.1594078797
0.1533517723
0.1506285249
0.146320168
0.1447269237
0.1416560953
0.140804253
0.1385924927
0.1381766645
0.1365160014
0.136270181
0.1348846317
0.1345529277
0.1331712432
0.1324854204
0.1308189528
0.1294784974
0.1272004365
0.2154402355
0.1977527541
0.1871349622
0.1751581488
0.1684003452
0.1600424685
0.1557446245
0.1498277143
0.1471670767
0.1429577492
0.1414011445
0.1384009037
0.1375686609
0.1354077442
0.1350014937
0.1333790086
0.1331388558
0.1317851609
0.1314610939
0.1301111715
0.1294411204
0.1278129558
0.126503313
0.1242776054
0.2096970888
0.1924810857
0.1821463192
0.1704887521
0.1639110759
0.1557759745
0.1515926823
0.1458334761
0.1432437463
0.1391466043
0.1376314781
0.1347111932
0.1339011205
0.1317977877
0.1314023529
0.1298231022
0.1295893383
0.1282717167
0.1279562762
0.1266423294
0.1259901312
0.1244053641
0.1231306291
0.120964254
0.2032918483
0.186601744
0.1765826897
0.1652812325
0.1589045032
0.1510179134
0.1469624289
0.1413791572
0.1388685567
0.1348965793
0.1334277573
0.1305966882
0.1298113821
0.1277723098
0.1273889747
0.1258579758
0.1256313704
0.1243540081
0.1240482164
0.1227744132
0.1221421468
0.1206057918
0.1193700008
0.1172697981
0.1962492883
0.180137342
0.1704653535
0.15955538
0.1533995373
0.145786133
0.1418711226
0.1364812425
0.1340575975
0.1302231939
0.1288052389
0.1260722216
0.1253141054
0.1233456504
0.1229755814
0.1214976028
0.1212788349
0.1200457107
0.1197505002
0.1185208146
0.1179104423
0.1164273051
0.115234321
0.113206875
0.1885869406
0.1731041016
0.1638097809
0.153325803
0.1474103393
0.1400942154
0.1363320908
0.1311526709
0.1288236799
0.1251390026
0.1237764347
0.1211501398
0.1204216463
0.1185300611
0.1181744621
0.1167542029
0.1165439946
0.1153590288
0.115075358
0.1138936929
0.1133071622
0.1118819377
0.1107355393
0.1087872529
0.1803335437
0.165528272
0.1566406924
0.1466155113
0.1409589151
0.1339629504
0.130365455
0.1254126815
0.1231855994
0.1196621537
0.1183592013
0.1158478204
0.1151511941
0.1133423711
0.1130023214
0.1116442012
0.11144318
0.1103100603
0.1100387921
0.1089088315
0.1083479609
0.1069851047
0.1058888737
0.1040258531
0.1715104347
0.1574295677
0.1489768626
0.1394422069
0.1340623995
0.1274087465
0.1239872929
0.1192768592
0.1171587663
0.1138077265
0.1125685478
0.1101800544
0.1095175349
0.1077972246
0.1074738339
0.106182175
0.1059910073
0.1049133397
0.1046553571
0.1035806904
0.1030472714
0.1017511004
0.1007085113
0.0989366421
0.1621500096
0.1488375949
0.1408461895
0.1318318727
0.1267456573
0.1204551101
0.1172203699
0.1127669865
0.1107644741
0.1075962952
0.1064247304
0.1041665675
0.1035401912
0.1019137468
0.1016079925
0.1003868096
0.1002060629
0.09918719721
0.09894328221
0.09792725663
0.09742294067
0.09619750431
0.09521181211
0.09353664538
0.1522770776
0.1397752587
0.1322704677
0.1238050384
0.119028542
0.1131210338
0.1100832783
0.1059010675
0.1040205092
0.1010452481
0.09994504224
0.09782438716
0.09723617329
0.09570877179
0.09542165625
0.09427484103
0.09410511812
0.0931483011
0.09291925089
0.09196509735
0.09149149798
0.09034068066
0.08941501194
0.08784184222
0.1419273492
0.1302752041
0.1232804695
0.1153903767
0.1109385042
0.1054324812
0.1026011747
0.09870318482
0.09695042432
0.09417735347
0.09315190911
0.09117536152
0.09062711203
0.0892034993
0.08893588509
0.08786699632
0.08770879671
0.08681699782
0.08660350324
0.08571418975
0.08527277028
0.08420016437
0.08333740639
0.08187115973
0.1311287416
0.1203631884
0.1139006888
0.106610944
0.1024978263
0.09741075358
0.094794898
0.09119350405
0.08957412962
0.08701206293
0.08606466581
0.0842385174
0.0837320064
0.0824167217
0.08216949208
0.08118194249
0.08103579884
0.08021186503
0.08001462779
0.07919298652
0.07878516255
0.07779417127
0.07699706364
0.07564237705
0.1199198788
0.1100745339
0.1041644319
0.09749778514
0.09373623973
0.08908398191
0.08669171407
0.08339813674
0.08191717001
0.07957407976
0.07870765105
0.07703757462
0.07657434616
0.0753714675
0.07514535854
0.07424220544
0.07410854218
0.07335502471
0.07317463509
0.07242321725
0.07205024513
0.07114395824
0.07041498399
0.06917609625
0.108331377
0.09943747413
0.09409853636
0.08807614941
0.08467813553
0.08047547153
0.07831441207
0.07533912482
0.07400129894
0.07188464632
0.07110197188
0.06959329508
0.06917485652
0.06808822907
0.06788399447
0.06706812961
0.06694740325
0.06626671435
0.06610377077
0.06542497469
0.06508805509
0.06426935236
0.06361083018
0.06249166274
0.09640435204
0.08848961842
0.083738472
0.07837910751
0.07535519247
0.07161520417
0.06969205883
0.06704431232
0.06585376303
0.06397011877
0.06327360129
0.06193099786
0.06155861552
0.06059159748
0.060409837
0.05968377687
0.05957633067
0.05897057023
0.05882555396
0.05822148099
0.0579216464
0.05719307543
0.05660705205
0.05561110286
0.0841716759
0.07726126934
0.07311303387
0.06843374034
0.06579356257
0.06252815858
0.06084907198
0.05853730764
0.05749785427
0.05585323398
0.05524512465
0.05407289198
0.05374778771
0.0529034825
0.0527448111
0.05211089104
0.05201710031
0.0514882166
0.05136161623
0.05083420195
0.05057242426
0.04993630603
0.04942465106
0.04855507707
0.07167649235
0.06579190132
0.06225945818
0.05827477239
0.0560265148
0.05324582801
0.05181598948
0.04984737029
0.04896221008
0.04756169942
0.04704385204
0.04604560533
0.04576875184
0.04504975489
0.04491462847
0.04437479156
0.04429491359
0.04384452757
0.04373670831
0.0432875765
0.04306465005
0.04252295698
0.04208725396
0.04134676782
0.05895345807
0.0541134522
0.05120808609
0.04793073145
0.04608159176
0.04379451246
0.0426185143
0.04099934494
0.04027133588
0.03911943013
0.03869353308
0.0378724861
0.03764480411
0.03705343875
0.0369423256
0.03649832218
0.03643264646
0.03606221901
0.03597355411
0.03560415437
0.03542081096
0.03497527703
0.03461692399
0.03400787892
0.046047268
0.04226681998
0.03999750174
0.03743760362
0.0359932761
0.0342068589
0.03328830793
0.03202357209
0.03145493215
0.03055516695
0.03022250173
0.02958116504
0.02940332175
0.02894138743
0.02885459422
0.02850776898
0.02845646375
0.02816711566
0.02809784946
0.02780930662
0.0276660919
0.02731808862
0.02703818525
0.02656247397
0.03299385975
0.03028512043
0.02865916069
0.02682495983
0.02579011251
0.02451011957
0.0238519989
0.02294578668
0.0225383772
0.02189367216
0.02165534331
0.02119580739
0.02106841061
0.02073742187
0.0206752639
0.02042676052
0.02039002548
0.02018271227
0.02013309777
0.01992635764
0.01982375413
0.01957440719
0.01937386256
0.01903300547
0.01983897873
0.0182102153
0.0172325595
0.01612964057
0.01550740592
0.01473772288
0.0143420104
0.01379706219
0.01355209324
0.0131643882
0.01302108842
0.0127447267
0.01266812985
0.01246906705
0.01243169834
0.01228224594
0.01226015869
0.01213548686
0.01210564497
0.01198131932
0.01191961764
0.01176968022
0.01164909656
0.01144414222
0.00661933676
0.006075928932
0.005749823433
0.005381843001
0.005174302047
0.004917492336
0.004785525596
0.004603666922
0.004521980715
0.004392584259
0.004344821035
0.004252575447
0.004227066125
0.004160616477
0.004148195316
0.004098316726
0.004090984287
0.004049391713
0.004039451438
0.003997970003
0.003977396456
0.003927371535
0.003887156937
0.003818774193
-0.006618788612
-0.006075386466
-0.00574908598
-0.005381156708
-0.00517347404
-0.004916744383
-0.004784642468
-0.004602950616
-0.004521168219
-0.004391937911
-0.004344070333
-0.004251981939
-0.004226369263
-0.004160057394
-0.004147531908
-0.004097732305
-0.004090323919
-0.004048752146
-0.004038794353
-0.003997339858
-0.003976752451
-0.003926738844
-0.003886486329
-0.003818106531
-0.01983843535
-0.01820967736
-0.0172318273
-0.01612895933
-0.01550658368
-0.01473698042
-0.01434113347
-0.01379635141
-0.01355128673
-0.013163747
-0.0130203433
-0.01274413801
-0.01266743848
-0.01246851305
-0.01243104087
-0.01228166754
-0.01225950494
-0.01213485438
-0.0121049952
-0.01198069703
-0.01191898179
-0.01176905617
-0.0116484351
-0.01144348366
-0.03299331311
-0.03028457996
-0.0286584272
-0.02682427751
-0.02578928975
-0.02450937663
-0.02385112192
-0.02294507553
-0.02253757049
-0.0218930305
-0.0216545976
-0.02119521747
-0.02106771742
-0.02073686494
-0.02067460296
-0.02042617782
-0.02038936713
-0.020182075
-0.0201324428
-0.01992573012
-0.01982311258
-0.01957377747
-0.0193731951
-0.0190323412
-0.04604673539
-0.04226629282
-0.03999678374
-0.03743693616
-0.03599247032
-0.03420613212
-0.0332874492
-0.03202287722
-0.03145414311
-0.03055454049
-0.03022177248
-0.02958058921
-0.02940264447
-0.02894084496
-0.02885395016
-0.02850720305
-0.0284558239
-0.02816649777
-0.02809721426
-0.02780869971
-0.02766547114
-0.02731748037
-0.02703753993
-0.02656183161
-0.05895291943
-0.05411292042
-0.05120736593
-0.04793006222
-0.04608078533