/*--------------------------------*- C++ -*----------------------------------*\
| =========                 |                                                 |
| \\      /  F ield         | foam-extend: Open Source CFD                    |
|  \\    /   O peration     | Version:  3.0                                   |
|   \\  /    A nd           | Web:         http://www.extend-project.de       |
|    \\/     M anipulation  |                                                 |
\*---------------------------------------------------------------------------*/
FoamFile
{
    version     2.0;
    format      ascii;
    class       volSymmTensorField;
    location    "35";
    object      sigma;
}
// * * * * * * * * * * * * * * * * * * * * * * * * * * * * * * * * * * * * * //

dimensions      [0 0 0 0 0 0 0];

internalField   nonuniform List<symmTensor> 
2688
(
(-0.1777333027 -0.004861069447 4.306238888e-20 0.177721824 6.399336689e-22 1.147864857e-05)
(-0.174251514 -0.005742311332 6.441794461e-20 0.1742202469 5.979944674e-21 3.126713765e-05)
(-0.1669469334 -0.006133657427 1.145699555e-20 0.1668978801 4.978692054e-20 4.905331184e-05)
(-0.1577498727 -0.006233367503 -6.70186352e-22 0.1576847778 6.294161745e-20 6.509494407e-05)
(-0.1477456358 -0.006158826478 2.175239129e-20 0.147666076 8.014257758e-20 7.955984938e-05)
(-0.1375362611 -0.005980873062 3.818955997e-20 0.1374437208 6.120568383e-20 9.254028222e-05)
(-0.1274663197 -0.005743442257 4.871120534e-20 0.1273622333 7.490938139e-20 0.000104086457)
(-0.1177208428 -0.005474052651 2.240124799e-20 0.117606643 4.131636078e-20 0.0001141998517)
(-0.1084013997 -0.005190236897 -3.008137531e-21 0.1082785395 3.515204364e-20 0.0001228602527)
(-0.09955452168 -0.004903288928 9.001646739e-21 0.09942450834 5.198202654e-21 0.0001300133355)
(-0.09119983012 -0.004620433412 2.362476892e-20 0.09106423785 5.070968509e-20 0.0001355922773)
(-0.08333961165 -0.004346519728 3.350669724e-20 0.08320010861 6.900839709e-20 0.0001395030401)
(-0.07596829521 -0.004084553605 6.32137984e-20 0.07582664927 5.116854308e-20 0.0001416459419)
(-0.06907818891 -0.003836801019 3.501032287e-20 0.06893628936 6.649414545e-20 0.0001418995581)
(-0.06265978632 -0.003604543679 -3.09391931e-20 0.06251964303 8.545958101e-20 0.000140143294)
(-0.05670864218 -0.0033891108 -1.283988125e-21 0.05657240096 9.129443586e-20 0.0001362412153)
(-0.05121974506 -0.003191155046 2.704608265e-20 0.05108967944 7.775394768e-20 0.0001300656141)
(-0.04619747797 -0.003011830003 -7.481399426e-21 0.04607599603 1.186507681e-19 0.0001214819431)
(-0.04164506819 -0.002851680578 3.021950181e-23 0.04153469719 8.705175414e-20 0.0001103709999)
(-0.03757866439 -0.002712081099 3.558648718e-20 0.03748204738 9.839519506e-20 9.661701024e-05)
(-0.03401194642 -0.002593748642 4.312569902e-20 0.03393182 1.497404172e-20 8.012641708e-05)
(-0.03097510036 -0.002498486182 1.795041227e-20 0.03091427902 2.796164301e-20 6.082133167e-05)
(-0.02849444548 -0.002427620273 1.759030594e-21 0.02845579015 -4.889099687e-21 3.865533739e-05)
(-0.02661519241 -0.002381639751 -3.041327143e-21 0.02660157505 -5.570092478e-20 1.361735705e-05)
(-0.1772300669 -0.0145726592 3.761498966e-20 0.1772186236 -1.692800054e-21 1.144327619e-05)
(-0.1733224191 -0.01717674491 7.389646996e-20 0.1732912502 2.776968237e-21 3.116889639e-05)
(-0.1657746974 -0.0183270841 3.650528649e-20 0.1657257961 2.250060739e-20 4.890127882e-05)
(-0.1564468897 -0.01861241578 4.906338285e-21 0.1563819976 4.884981967e-20 6.489211461e-05)
(-0.1463820753 -0.01838124454 1.477544137e-20 0.1463027625 6.837287736e-20 7.931278838e-05)
(-0.1361563504 -0.01784383655 3.602793145e-20 0.1360640985 4.579155627e-20 9.225185386e-05)
(-0.1260979024 -0.01713057028 3.978055445e-20 0.1259941409 7.875199718e-20 0.0001037614585)
(-0.1163812238 -0.01632307322 -4.044646532e-21 0.116267381 2.854732167e-20 0.0001138427763)
(-0.1071010165 -0.01547333677 -3.327869782e-20 0.1069785408 5.692914045e-20 0.0001224757055)
(-0.0982992098 -0.01461483127 1.278087349e-20 0.09816960354 1.248694426e-20 0.0001296062606)
(-0.08999238577 -0.01376895635 5.804615217e-20 0.08985721784 2.972909101e-20 0.0001351679356)
(-0.08218068959 -0.01295006387 3.903034841e-20 0.08204162256 1.859965468e-20 0.0001390670237)
(-0.07485715791 -0.01216704203 5.963653478e-20 0.07471595388 2.922429792e-21 0.0001412040269)
(-0.06801301679 -0.01142658747 7.099643057e-20 0.06787155901 4.190964711e-20 0.0001414577796)
(-0.06163809965 -0.01073248256 3.424121387e-20 0.06149839187 6.96472879e-20 0.0001397077744)
(-0.05572732725 -0.0100886564 2.724315511e-20 0.05559150897 1.325383432e-19 0.0001358182827)
(-0.05027535074 -0.009497036464 8.563191124e-20 0.05014568891 2.343668953e-20 0.0001296618374)
(-0.04528608071 -0.008961042208 3.419162981e-20 0.04516497638 1.691712172e-19 0.0001211043232)
(-0.04076253336 -0.008482288251 2.210660949e-20 0.04065250611 1.803969452e-19 0.0001100272489)
(-0.03672039701 -0.008064854119 3.498108349e-20 0.03662408144 3.950191078e-20 9.631556909e-05)
(-0.03317315866 -0.007710875544 -3.308431004e-20 0.03309328241 3.271795754e-20 7.987624771e-05)
(-0.03015048224 -0.007425724646 1.53698975e-20 0.03008985076 1.375028279e-19 6.063147594e-05)
(-0.02767834437 -0.007213354882 -7.073379627e-20 0.02763980966 9.164869819e-20 3.853471329e-05)
(-0.02580216242 -0.007075251926 3.101970492e-20 0.02578858755 -5.329761208e-20 1.357486431e-05)
(-0.1762235927 -0.02425242857 2.610280364e-20 0.1762122227 2.635005347e-20 1.137005893e-05)
(-0.1714778973 -0.02846167347 6.001338602e-20 0.1714469281 3.223669567e-21 3.096925791e-05)
(-0.1634522034 -0.03030068122 3.955451158e-20 0.1634036159 -3.175726487e-20 4.858754591e-05)
(-0.1538678165 -0.03073070537 2.682100155e-20 0.1538033398 1.434355655e-20 6.447673935e-05)
(-0.143684648 -0.03032055842 1.621951195e-20 0.1436058412 5.938654856e-20 7.880680623e-05)
(-0.1334276347 -0.02941323507 4.153386029e-20 0.1333359698 5.117705752e-20 9.166490711e-05)
(-0.1233927053 -0.02822131664 4.825028008e-20 0.1232896019 8.857863742e-20 0.0001031033694)
(-0.1137335878 -0.02687778617 -5.167426102e-21 0.1136204649 8.646256074e-20 0.0001131228612)
(-0.1045314519 -0.02546728776 -1.28838887e-20 0.1044097488 9.554804086e-20 0.0001217031674)
(-0.09581916125 -0.02404424614 -3.730528268e-20 0.0956903708 9.506806869e-20 0.0001287904553)
(-0.08760731321 -0.02264342231 1.306582073e-20 0.08747299475 1.115296676e-19 0.0001343184694)
(-0.07989183749 -0.02128809081 5.00171433e-21 0.07975364357 3.679731258e-20 0.0001381939218)
(-0.07266303055 -0.01999264093 7.571360917e-20 0.07252271271 -1.494684723e-20 0.000140317843)
(-0.06590998928 -0.01876790182 1.139807665e-19 0.06576941944 9.099258583e-21 0.0001405698393)
(-0.05962124874 -0.0176199717 7.411418503e-20 0.05948241849 7.038505089e-20 0.0001388302482)
(-0.05379048247 -0.01655520478 1.505263682e-20 0.05365551812 9.196063197e-20 0.0001349643577)
(-0.04841167792 -0.01557670845 5.560733769e-20 0.04828283217 6.095034582e-20 0.0001288457553)
(-0.04348781501 -0.014690042 2.707191804e-19 0.04336747365 1.599703968e-20 0.0001203413599)
(-0.03902149305 -0.01389783422 -2.218668959e-20 0.0389121594 6.262236951e-20 0.0001093336486)
(-0.03502749223 -0.01320675505 -1.054613409e-19 0.03493178392 5.204259895e-20 9.570831104e-05)
(-0.03151892063 -0.01262031477 1.734763631e-19 0.03143954785 2.462731155e-20 7.937277497e-05)
(-0.02852441266 -0.01214733031 2.150887602e-19 0.02846416317 -1.992908377e-20 6.024948683e-05)
(-0.02606926586 -0.01179430365 -1.531324891e-19 0.02603097383 1.32429686e-19 3.829202392e-05)
(-0.0241993006 -0.01156380158 -2.733691824e-20 0.02418581117 -5.776442778e-20 1.348942803e-05)
(-0.1747139285 -0.0338788327 -8.372986277e-23 0.1747026678 4.357183028e-20 1.126069752e-05)
(-0.1687449814 -0.03950094362 2.596106105e-20 0.1687143094 -3.577937659e-20 3.067205546e-05)
(-0.1600228036 -0.04191375711 4.184411398e-20 0.1599746822 -8.802940137e-20 4.812138441e-05)
(-0.1500657133 -0.04242166573 5.583764543e-20 0.1500018544 2.146827931e-22 6.385893103e-05)
(-0.1397119078 -0.04179610294 4.378952594e-20 0.1396338544 3.430315637e-20 7.805334376e-05)
(-0.129411473 -0.04050184942 5.162316879e-20 0.1293206829 6.266599022e-20 9.079009481e-05)
(-0.1194131436 -0.03882675399 8.877850712e-20 0.1193110223 7.513435301e-20 0.0001021212971)
(-0.1098402737 -0.03695065426 6.154227301e-21 0.1097282263 1.30713259e-19 0.0001120473616)
(-0.1007542447 -0.03498789596 4.308533646e-21 0.1006336967 5.804743439e-20 0.0001205480285)
(-0.09217467057 -0.03301186052 5.420390048e-20 0.09204710078 4.409243284e-20 0.0001275697916)
(-0.08410340427 -0.031069341 4.263193008e-20 0.08397035745 6.316557276e-20 0.000133046827)
(-0.07653021825 -0.02919158663 -7.001981505e-20 0.07639333166 8.575336233e-21 0.0001368865872)
(-0.06944140785 -0.02739786478 -2.012395435e-20 0.06930241695 6.286556123e-20 0.0001389908987)
(-0.06282296175 -0.02570264953 1.541670874e-19 0.06268372123 1.041621472e-20 0.0001392405243)
(-0.05666152077 -0.02411405307 1.203828562e-19 0.05652400381 1.837548688e-19 0.0001375169558)
(-0.05094893768 -0.02264056924 9.143908467e-20 0.05081525076 -9.692965761e-21 0.0001336869206)
(-0.04567823152 -0.02128633064 2.705202624e-20 0.0455506061 -7.256289766e-20 0.0001276254221)
(-0.04085102134 -0.02005883061 7.685948376e-20 0.04073182052 -1.339292932e-19 0.0001192008182)
(-0.03646929661 -0.01896162119 1.844511891e-19 0.03636099966 -1.039919906e-19 0.00010829695)
(-0.03254650808 -0.01800377418 7.409757316e-21 0.03245170747 -6.535151825e-21 9.480060907e-05)
(-0.02909520935 -0.01719010292 -1.410090749e-19 0.02901658928 1.078006816e-20 7.862006078e-05)
(-0.0261425236 -0.01653266598 2.20619015e-19 0.02608284534 -3.08413738e-20 5.967826224e-05)
(-0.02371274814 -0.01604038577 6.651193671e-20 0.0236748191 1.292715344e-19 3.792903786e-05)
(-0.02185228324 -0.01571704543 -2.032747543e-20 0.02183892168 -2.950343886e-20 1.336156707e-05)
(-0.1727012567 -0.04342985028 -4.485431868e-20 0.1726901408 5.759627626e-20 1.111589473e-05)
(-0.1651633489 -0.05020359254 -5.009765971e-20 0.1651330706 -2.372554661e-20 3.027829998e-05)
(-0.1555500795 -0.05303425179 2.958327844e-20 0.1555025754 -6.053103154e-20 4.750405768e-05)
(-0.1451183645 -0.0535294129 8.995053215e-20 0.1450553241 1.764339909e-20 6.304041574e-05)
(-0.1345496899 -0.0526390806 5.793063123e-20 0.1344726356 3.682596685e-20 7.705436223e-05)
(-0.1241977938 -0.05093494135 7.696736924e-20 0.1241081642 4.3875139e-20 8.962959711e-05)
(-0.1142506774 -0.04877068288 1.35672037e-19 0.1141498597 2.920655758e-20 0.0001008177559)
(-0.1047926214 -0.04636687856 2.544776889e-20 0.1046820023 1.248285587e-19 0.0001106190452)
(-0.09585956019 -0.04386356377 -6.629343786e-20 0.09574054692 3.327701181e-20 0.0001190132693)
(-0.08745407902 -0.04135036174 -2.496717861e-20 0.08732813161 2.436476081e-20 0.0001259474054)
(-0.07956679692 -0.03888429057 4.882462194e-20 0.07943544062 -8.855846917e-21 0.0001313562985)
(-0.07217958076 -0.0365032862 1.023702424e-20 0.07204443235 9.202736964e-21 0.0001351484117)
(-0.06527359143 -0.03423064744 3.272433916e-20 0.06513636474 1.037956177e-19 0.0001372266941)
(-0.05883083041 -0.03208383104 1.836846305e-19 0.05869335704 4.311824005e-20 0.0001374733784)
(-0.05283551068 -0.03007255292 1.778718789e-19 0.05269973921 5.981213208e-20 0.000135771477)
(-0.04727714943 -0.02820705847 -1.444565108e-19 0.04714515992 -2.640492061e-19 0.0001319895014)
(-0.04214752437 -0.02649229552 -8.085019534e-20 0.04202152013 -1.367292492e-19 0.0001260042425)
(-0.03744650548 -0.02493741196 9.900472956e-20 0.03732881957 3.862487769e-20 0.0001176859037)
(-0.03317529752 -0.02354675974 3.967232343e-20 0.03306837748 6.112375672e-20 0.0001069200409)
(-0.02934563784 -0.02233155594 1.050020331e-19 0.02925204284 2.536342456e-20 9.359499558e-05)
(-0.02596936314 -0.02129781926 9.510219434e-20 0.02589174296 1.607475142e-19 7.762017378e-05)
(-0.02307164431 -0.02046057337 2.747091208e-19 0.0230127249 1.658010079e-19 5.891940609e-05)
(-0.02067548265 -0.01983098713 1.177810332e-19 0.02063803583 -1.160826294e-20 3.744682342e-05)
(-0.01882800391 -0.01941424333 -1.249022639e-19 0.01881481218 2.8352643e-19 1.319173149e-05)
(-0.170186022 -0.05288281362 -5.305921943e-20 0.1701750858 1.537468752e-20 1.093625483e-05)
(-0.1607843256 -0.06048571556 -1.069227339e-19 0.1607545361 1.700888531e-20 2.978946583e-05)
(-0.1501161513 -0.06354184724 1.136692338e-20 0.1500694137 -2.952440226e-20 4.673761257e-05)
(-0.1391261804 -0.06391260679 1.015892107e-19 0.1390641564 3.512842169e-20 6.202395258e-05)
(-0.1283087635 -0.06269684355 7.889777532e-20 0.1282329502 7.511409285e-21 7.581322245e-05)
(-0.1179026268 -0.06055475933 5.581502772e-20 0.1178144396 6.362984981e-22 8.818728232e-05)
(-0.1080232985 -0.05789422789 1.76811403e-19 0.1079241014 6.413045306e-21 9.919707291e-05)
(-0.09870845688 -0.05496899815 1.551565937e-19 0.09859961424 -4.766243777e-20 0.000108842642)
(-0.08996370012 -0.05193983879 1.937603392e-20 0.0898465962 -1.615240077e-19 0.0001171039258)
(-0.08177132764 -0.04890926084 -4.687453195e-20 0.08164739905 1.217397132e-19 0.0001239285926)
(-0.0741085834 -0.04594227571 5.180888998e-22 0.07397933105 5.195110599e-20 0.0001292523546)
(-0.06694792963 -0.04308191557 1.666445867e-20 0.06681494462 5.196000402e-20 0.0001329850054)
(-0.06026442393 -0.04035446539 4.653923792e-21 0.06012939305 1.07962477e-19 0.0001350308825)
(-0.05403533059 -0.03777954703 6.936415958e-20 0.05390005652 1.342288545e-19 0.0001352740702)
(-0.04824198127 -0.0353679739 9.162198062e-21 0.04810838187 -1.019903745e-20 0.0001335993994)
(-0.04287111819 -0.03313126408 -2.436720886e-19 0.04274124062 6.920739759e-20 0.0001298775696)
(-0.03791304596 -0.03107492137 5.096222375e-20 0.03778905847 3.143092873e-19 0.0001239874938)
(-0.03336555087 -0.02920940286 1.980404465e-19 0.03324974927 2.119405457e-19 0.0001158016005)
(-0.02922890215 -0.02753970786 1.290688225e-19 0.02912369461 2.054271395e-19 0.0001052075416)
(-0.0255127883 -0.02607888118 3.51341371e-20 0.02542069274 2.267769941e-19 9.209555579e-05)
(-0.02222818422 -0.02483402615 1.515974717e-20 0.02215180765 3.113712213e-19 7.637656821e-05)
(-0.0193979181 -0.02382278979 6.061529842e-20 0.01933994256 4.605847239e-19 5.797554323e-05)
(-0.01704343185 -0.02305837158 3.832729827e-19 0.01700658477 3.489721129e-19 3.684707823e-05)
(-0.01521268314 -0.0225475782 -1.707315508e-20 0.01519970262 4.18232206e-19 1.298051795e-05)
(-0.1671690965 -0.06221427288 -2.338617093e-20 0.1671583741 -2.930653353e-20 1.072238359e-05)
(-0.1556695942 -0.07027215051 -1.142479766e-19 0.155640387 2.629306489e-21 2.920724473e-05)
(-0.1438194952 -0.07333075784 -2.532529985e-20 0.1437736706 -5.195223998e-21 4.582459762e-05)
(-0.1322094812 -0.07344790226 1.375728287e-19 0.1321486683 -4.19877433e-20 6.081289514e-05)
(-0.1211218101 -0.07183672291 1.017591826e-19 0.1210474761 -8.962398311e-20 7.433404088e-05)
(-0.1106649225 -0.06922456303 2.089424307e-20 0.1105784546 7.047537786e-20 8.646789958e-05)
(-0.1008722833 -0.06605994072 9.993856776e-20 0.1007750187 1.902632778e-21 9.726457398e-05)
(-0.09172884023 -0.06262099595 4.874223969e-20 0.09162211628 -2.221784537e-19 0.0001067239581)
(-0.08320588496 -0.05908347284 4.413088194e-20 0.08309105874 -8.088896937e-20 0.0001148262254)
(-0.07526279833 -0.05555887499 2.187133684e-19 0.07514127842 4.397345334e-20 0.0001215199088)
(-0.06786172454 -0.05211761561 -1.001839744e-22 0.06773498271 -1.151650237e-20 0.0001267418319)
(-0.06096452019 -0.04880597659 2.887212149e-20 0.0608341168 1.309222856e-19 0.0001304033921)
(-0.05453936728 -0.04565201595 8.169198698e-20 0.05440695664 2.19433262e-19 0.0001324106372)
(-0.04855819683 -0.04267657193 1.088032363e-19 0.04842554702 1.73986664e-19 0.0001326498112)
(-0.04299910173 -0.03989096821 1.995581328e-19 0.04286809382 6.791889867e-21 0.0001310079125)
(-0.03784569998 -0.0373074398 1.566060493e-20 0.03771834183 2.428902592e-19 0.0001273581559)
(-0.03308664036 -0.03493174584 5.720890531e-20 0.03296505844 7.396258862e-20 0.0001215819223)
(-0.02871735544 -0.03277525164 7.029098823e-20 0.02860380119 -1.707000007e-21 0.0001135542447)
(-0.02473705608 -0.03084342642 2.229715914e-19 0.02463389087 -1.576452195e-20 0.0001031652102)
(-0.02115310453 -0.02915077351 3.502819916e-19 0.02106279716 5.098159699e-20 9.030736956e-05)
(-0.01797549008 -0.02770533985 5.883218144e-19 0.01790059663 -6.846987967e-21 7.489344832e-05)
(-0.01522436892 -0.02652699812 4.41998735e-19 0.01516751908 3.848529281e-19 5.68498384e-05)
(-0.01291939807 -0.02563072691 4.163689414e-19 0.01288326636 2.814284865e-19 3.613170817e-05)
(-0.01110942695 -0.02502521579 -1.10411141e-19 0.0110966984 -4.006312237e-20 1.272855186e-05)
(-0.1636519773 -0.07139989054 -1.138654765e-20 0.1636415023 -5.534257248e-21 1.047495433e-05)
(-0.149889647 -0.07949792366 -8.16522891e-20 0.1498611135 -1.941901895e-20 2.853350016e-05)
(-0.1367723341 -0.08231211796 -3.420967986e-20 0.1367275662 -8.000560715e-20 4.47678692e-05)
(-0.1245052514 -0.08203289895 7.484229553e-20 0.1244458404 -1.043078882e-19 5.941100109e-05)
(-0.1131398132 -0.07994930077 1.805098787e-19 0.1130671918 -6.404894134e-20 7.262139082e-05)
(-0.1026427477 -0.07683206283 1.162372267e-19 0.102558271 9.47111724e-20 8.447673326e-05)
(-0.09295830975 -0.07315530565 -1.487698194e-20 0.09286328361 -1.324249756e-20 9.502614123e-05)
(-0.08401417608 -0.06921180543 1.926580549e-20 0.08390990669 -1.186506175e-19 0.0001042693913)
(-0.07574440519 -0.06518588871 3.158974144e-20 0.07563221822 1.194931947e-19 0.0001121869684)
(-0.06808353519 -0.0611937283 8.113879497e-20 0.06796480671 2.689449633e-20 0.0001187284789)
(-0.06097735851 -0.05730826347 8.936802988e-20 0.06085352644 7.284460337e-20 0.0001238320631)
(-0.05437626325 -0.05357697767 2.383107662e-19 0.05424885221 1.060873152e-19 0.0001274110402)
(-0.04824100652 -0.0500283567 1.113629201e-19 0.04811163308 1.541872537e-19 0.0001293734398)
(-0.04253776492 -0.04668340335 -5.269790118e-20 0.04240815688 5.663924765e-20 0.0001296080409)
(-0.03724114365 -0.04355330083 6.072638766e-20 0.03711313934 5.186318301e-20 0.0001280043102)
(-0.03233138977 -0.04065038499 5.823659934e-20 0.0322069514 4.337599636e-20 0.0001244383613)
(-0.02779536915 -0.03798033722 -6.836137938e-20 0.02767657478 -4.620737911e-20 0.0001187943695)
(-0.0236259635 -0.03555498591 1.236110755e-19 0.02351501318 -8.813964099e-20 0.0001109503184)
(-0.01982123491 -0.03338007315 1.425241388e-19 0.01972043582 -1.230108775e-19 0.0001007990879)
(-0.01638600752 -0.03147114999 1.558351445e-21 0.01629777167 -1.148916041e-19 8.823584832e-05)
(-0.01332918549 -0.02983704986 3.558106802e-19 0.01325601 -2.317158288e-21 7.317548544e-05)
(-0.01066799298 -0.02849942816 8.899779943e-19 0.01061244697 -4.441903049e-20 5.554600974e-05)
(-0.008420119837 -0.02747476186 6.454440571e-19 0.008384816496 -3.290137274e-19 3.530334098e-05)
(-0.006635314638 -0.02677390737 2.986196366e-20 0.006622877669 -1.786384497e-19 1.243696863e-05)
(-0.1596370056 -0.0804143794 4.813540314e-20 0.1596268109 -8.839983662e-20 1.019470539e-05)
(-0.1435220264 -0.08810942068 -7.479713315e-20 0.1434942561 -9.716498493e-20 2.777030972e-05)
(-0.1290976729 -0.09041590253 -2.262029756e-20 0.1290541022 -1.972884231e-19 4.357070977e-05)
(-0.1161634524 -0.08958850976 -4.942739328e-21 0.1161056298 4.800681394e-20 5.782262932e-05)
(-0.1045279548 -0.08695103387 1.78803324e-19 0.1044572742 2.414367928e-20 7.068063197e-05)
(-0.09400896625 -0.08329217516 2.082879584e-19 0.09392674623 2.128182285e-20 8.22200242e-05)
(-0.08445704776 -0.07909554719 -1.114051594e-20 0.08436455896 -4.355153106e-20 9.248880699e-05)
(-0.07573979737 -0.07465811837 -1.65946334e-20 0.07563831073 -1.511057337e-21 0.0001014866484)
(-0.06775225197 -0.07016595495 1.482628355e-19 0.06764305752 9.832242774e-20 0.0001091944487)
(-0.06040295509 -0.06573527318 6.978618577e-20 0.06028739203 1.664095786e-19 0.0001155630588)
(-0.05362061092 -0.06143846257 2.408600207e-20 0.05350007874 4.631138672e-20 0.0001205321765)
(-0.04734364472 -0.0573220184 1.644623963e-19 0.0472196274 7.262753705e-20 0.0001240173146)
(-0.04152508262 -0.0534134166 2.814054862e-19 0.04139915382 1.131354971e-19 0.0001259288042)
(-0.03612511604 -0.04973270074 8.698682088e-20 0.03599895776 7.649612675e-20 0.0001261582735)
(-0.03111473218 -0.04629021872 1.193427417e-19 0.03099013418 1.488998793e-19 0.0001245979956)
(-0.02647067185 -0.04309774913 3.917295591e-20 0.02634954453 1.112022687e-19 0.0001211273134)
(-0.02217795177 -0.04016053989 -1.234917672e-19 0.02206231827 2.868953716e-20 0.0001156334963)
(-0.01822678525 -0.03749040635 -2.447191656e-19 0.01811878742 1.230834395e-19 0.0001079978276)
(-0.01461403013 -0.03509315239 3.635575217e-20 0.01451591388 2.137517204e-19 9.811624754e-05)
(-0.01134183243 -0.03298493634 1.865324884e-19 0.01125594553 2.379516477e-19 8.588690464e-05)
(-0.008417938023 -0.03117520882 9.842148236e-20 0.008346710899 2.34129403e-19 7.122712394e-05)
(-0.005856454788 -0.02968693189 -4.497824724e-20 0.00580238793 -5.63333832e-20 5.406685772e-05)
(-0.003672970046 -0.02853777864 4.289043309e-19 0.003638607016 -2.591928597e-19 3.436302946e-05)
(-0.001918081569 -0.02774107232 2.967423278e-19 0.001905976028 -3.38550312e-19 1.210554079e-05)
(-0.155127608 -0.08923147731 8.85462502e-20 0.1551177254 -7.900527959e-20 9.882506996e-06)
(-0.1366494041 -0.09606524998 -3.325075407e-21 0.1366224841 -1.805272992e-19 2.692006215e-05)
(-0.120926063 -0.09759232806 -7.829809557e-20 0.1208838261 -8.877566574e-21 4.223687292e-05)
(-0.1073429985 -0.09606068148 5.450690451e-20 0.1072869457 1.420652402e-19 5.605276172e-05)
(-0.09546113801 -0.09278615632 9.661524143e-20 0.09539262016 3.356537781e-20 6.851784975e-05)
(-0.08494652287 -0.08854901862 2.438485083e-19 0.08486681802 -4.184649129e-20 7.970484557e-05)
(-0.0755543456 -0.08382566179 4.700395727e-20 0.0754646851 -5.133401755e-20 8.966049514e-05)
(-0.06709114483 -0.07890641545 4.781815976e-21 0.06699276044 2.49493769e-20 9.838439137e-05)
(-0.05941234736 -0.07397199139 1.674802661e-19 0.05930648944 1.074106017e-19 0.0001058579215)
(-0.05240016503 -0.06913385621 1.405414354e-19 0.05228813165 1.317633025e-19 0.0001120333787)
(-0.04596602046 -0.06446066386 -1.44505624e-20 0.04584916824 4.157353735e-20 0.0001168522175)
(-0.04003627052 -0.05999565463 1.924082447e-19 0.03991603807 1.061310683e-19 0.0001202324513)
(-0.0345561603 -0.05576380722 3.17997585e-19 0.03443407332 -3.846567662e-20 0.0001220869849)
(-0.02947986613 -0.05178304375 2.269110624e-19 0.02935755546 -1.731444165e-19 0.0001223106644)
(-0.02477475175 -0.04806215873 2.842441492e-19 0.02465395287 -8.528056867e-20 0.000120798881)
(-0.02041403404 -0.04461169269 1.89002592e-19 0.02029659946 -9.702494624e-20 0.0001174345808)
(-0.01638087816 -0.04143609262 6.385921122e-20 0.0162687697 -4.42493094e-20 0.0001121084605)
(-0.01266279547 -0.03854666742 2.745981326e-19 0.01255809004 -3.717620036e-20 0.0001047054284)
(-0.009255421151 -0.03594906409 -5.95515489e-20 0.009160296333 2.316877611e-19 9.512481869e-05)
(-0.00615815884 -0.03365959032 -8.643888302e-21 0.006074890805 1.796179379e-19 8.326803421e-05)
(-0.003377550862 -0.03168813722 1.687994563e-19 0.003308495735 3.125653497e-19 6.905512737e-05)
(-0.0009244845452 -0.03005847723 -1.707675385e-19 0.000872066346 2.729076899e-19 5.241819923e-05)
(0.001187641143 -0.02878916382 -4.364400847e-19 -0.001220956443 -2.155610041e-19 3.331530016e-05)
(0.00290748938 -0.02789629246 1.686214868e-19 -0.002919225971 -1.105661475e-19 1.17365909e-05)
(-0.150128545 -0.09782397132 3.685728029e-20 0.1501190057 -5.705276402e-21 9.539338947e-06)
(-0.1293575505 -0.103336777 -5.411942527e-21 0.129331565 -5.184865295e-20 2.598543612e-05)
(-0.1123921835 -0.1038126952 -6.396485099e-20 0.112351413 1.7360221e-19 4.077058455e-05)
(-0.09820750736 -0.1014214201 4.992448009e-20 0.09815340035 7.640287e-20 5.410701722e-05)
(-0.08611926004 -0.09742780793 2.592091757e-20 0.0860531201 -3.654911071e-23 6.61399371e-05)
(-0.07564346583 -0.09257709397 2.723749942e-19 0.07556652661 -1.152282923e-19 7.693922801e-05)
(-0.06644114944 -0.08732161662 1.535230419e-19 0.06635459918 -8.919790044e-20 8.655025872e-05)
(-0.05825867905 -0.08193416223 1.624880035e-19 0.0581637065 -1.310670885e-19 9.497255453e-05)
(-0.05091251069 -0.07658294892 3.224982679e-19 0.0508103226 -4.572101273e-20 0.0001021880851)
(-0.04425902058 -0.07136987335 3.555814654e-19 0.04415086983 -9.630014979e-20 0.0001081507461)
(-0.03819271231 -0.06635665165 3.707231387e-20 0.03807990834 -3.858101985e-20 0.0001128039755)
(-0.0326281662 -0.06158099244 3.766813787e-20 0.03251209765 1.081591869e-20 0.0001160685485)
(-0.02750305813 -0.05706388435 9.903598766e-20 0.02738519788 -8.063824139e-20 0.0001178602503)
(-0.02276572468 -0.05281996194 2.953056568e-20 0.02264764723 -9.502926896e-20 0.0001180774525)
(-0.01838002822 -0.04885574662 8.973549362e-20 0.01826340924 1.911523832e-19 0.0001166189821)
(-0.01431576423 -0.04517985798 6.793318469e-20 0.01420239251 1.827945097e-19 0.0001133717213)
(-0.01055430919 -0.04179557365 -9.623855594e-20 0.01044607912 -6.801014616e-20 0.0001082300724)
(-0.007080524767 -0.03871320008 1.158356477e-19 0.006979441819 -2.264053753e-20 0.0001010829481)
(-0.003888842905 -0.03593800716 5.031505328e-19 0.00379700956 3.630940599e-19 9.183334537e-05)
(-0.0009759382857 -0.03348598985 2.5864369e-19 0.000895551978 2.087272164e-19 8.038630768e-05)
(0.001652866749 -0.03136730008 6.259022066e-19 -0.001719531629 6.143239782e-20 6.666488029e-05)
(0.003989927702 -0.02960601779 2.200544099e-19 -0.004040531272 -4.468119981e-19 5.060357043e-05)
(0.006024068643 -0.02822125572 -4.850916707e-19 -0.006056230408 -4.544549479e-19 3.216176438e-05)
(0.007703384839 -0.02723218133 -9.225626783e-20 -0.007714714893 2.541756845e-20 1.133005388e-05)
(-0.1446461619 -0.1061637692 2.123774163e-20 0.1446369956 5.471644013e-20 9.166280926e-06)
(-0.121733252 -0.1099083161 -7.324787848e-21 0.1217082826 7.162264886e-20 2.496938103e-05)
(-0.1036313392 -0.1090696521 -5.115786012e-20 0.1035921627 1.775464283e-19 3.917648128e-05)
(-0.08892094651 -0.1056690949 4.421895758e-20 0.08886895495 7.892439676e-21 5.199155841e-05)
(-0.07668236868 -0.1008783591 -6.200437893e-20 0.07661881425 -5.450786614e-20 6.355442834e-05)
(-0.06628784702 -0.09538161789 1.135531624e-19 0.06621391508 -5.88294666e-20 7.393194261e-05)
(-0.05730829815 -0.08959068395 1.127931595e-19 0.0572251302 -8.762139395e-20 8.316795315e-05)
(-0.04943266784 -0.0837501393 -6.12904704e-20 0.0493414059 -7.323766272e-20 9.126194469e-05)
(-0.0424403011 -0.07800873224 1.454296273e-19 0.04234210456 -1.444626088e-21 9.819653361e-05)
(-0.03616306292 -0.07245408344 3.21938637e-19 0.03605913552 -2.067837506e-22 0.0001039273989)
(-0.03047945264 -0.06713784698 2.944215678e-19 0.03037105249 -2.178720326e-20 0.0001084001475)
(-0.02529296043 -0.06208998089 1.259337161e-19 0.02518142182 8.58822872e-20 0.0001115386056)
(-0.02053416523 -0.05732603002 8.414018159e-20 0.02042090353 8.132022606e-20 0.0001132617052)
(-0.01614594291 -0.05285620652 2.328655915e-19 0.01603247121 8.005890645e-20 0.0001134716984)
(-0.01208890325 -0.04868405924 4.361103745e-19 0.01197683208 2.670257394e-19 0.000112071167)
(-0.008329642223 -0.04481562207 3.257253948e-19 0.008220690943 -1.882606098e-19 0.0001089512799)
(-0.004847875416 -0.04125264537 -8.29888863e-20 0.004743864936 -3.299046557e-19 0.00010401048)
(-0.001625952307 -0.03800394882 1.332075058e-19 0.001528810342 2.971947749e-20 9.714196567e-05)
(0.001342841431 -0.03507421017 5.766995365e-19 -0.001431094139 -1.078383363e-19 8.825270775e-05)
(0.004064469438 -0.03247865814 1.46993175e-19 -0.004141721062 -4.049436733e-19 7.72516235e-05)
(0.006534817197 -0.03022752795 -2.025553922e-21 -0.006598882196 -4.859029294e-19 6.406499845e-05)
(0.00874942358 -0.02834471113 2.038865604e-19 -0.008798053532 -6.235956677e-19 4.862995215e-05)
(0.01069931971 -0.02684956183 -2.550518437e-19 -0.01073022701 -7.854351211e-20 3.090730569e-05)
(0.01233226478 -0.02576460334 4.486599041e-20 -0.01234315289 1.822089697e-19 1.0888108e-05)
(-0.138688634 -0.1142220165 1.47260788e-20 0.1386798695 8.182006827e-20 8.764521263e-06)
(-0.1138622341 -0.1157769766 5.368112856e-20 0.113838359 6.974883017e-20 2.387512735e-05)
(-0.09477596939 -0.1133768721 -4.829197224e-20 0.09473850974 1.425283305e-19 3.745964703e-05)
(-0.07964329587 -0.1088280126 9.591891938e-20 0.07959358272 -1.188062617e-19 4.971314778e-05)
(-0.06732583853 -0.1031689236 -5.158526365e-20 0.06726506891 -7.312929053e-20 6.076961921e-05)
(-0.05706264346 -0.09699800061 2.667964224e-20 0.05699195079 4.654073812e-20 7.06926667e-05)
(-0.04834134079 -0.09067090166 1.661982423e-19 0.04826181628 -1.536318658e-20 7.952450476e-05)
(-0.04079799665 -0.08439389716 4.64298753e-20 0.04071073207 2.072561183e-20 8.726458119e-05)
(-0.03417788376 -0.07828965655 1.477303945e-20 0.03408398752 1.25638518e-19 9.389624176e-05)
(-0.02829047942 -0.07242707145 1.042036143e-19 0.02819110233 1.333284054e-19 9.937709118e-05)
(-0.02299972639 -0.06684478045 2.007796189e-19 0.02289607128 1.951169565e-20 0.0001036551097)
(-0.01819909211 -0.06156289597 2.8614857e-19 0.0180924347 6.963742371e-20 0.000106657409)
(-0.01381278142 -0.0565901484 2.356443103e-19 0.01370447508 -2.107847725e-19 0.0001083063471)
(-0.009778785135 -0.05193125827 -3.694755718e-20 0.009670276791 -5.680819532e-20 0.0001085083444)
(-0.006054831287 -0.04758614383 3.471864978e-19 0.005947661247 -2.125213691e-19 0.0001071700396)
(-0.002604653264 -0.04355762706 1.15555728e-19 0.002500466022 -3.955586326e-19 0.0001041872413)
(0.0005935039643 -0.03984559428 2.862402064e-20 -0.0006929666957 -2.108771271e-19 9.946273136e-05)
(0.003559583265 -0.03645692033 -8.633342136e-20 -0.00365247767 -6.960535275e-20 9.28944052e-05)
(0.006301351869 -0.03339548693 1.409778455e-19 -0.006385745347 4.749725328e-20 8.439347761e-05)
(0.008827246389 -0.03067532474 2.797153723e-19 -0.00890111948 -1.644305926e-19 7.387309074e-05)
(0.01113432011 -0.02830658127 -8.881304626e-20 -0.01119558308 -4.882556749e-22 6.126296673e-05)
(0.01322115657 -0.02631248439 -3.05268019e-20 -0.01326765957 -7.378632902e-22 4.650299777e-05)