/*--------------------------------*- C++ -*----------------------------------*\
| =========                 |                                                 |
| \\      /  F ield         | foam-extend: Open Source CFD                    |
|  \\    /   O peration     | Version:  3.0                                   |
|   \\  /    A nd           | Web:         http://www.extend-project.de       |
|    \\/     M anipulation  |                                                 |
\*---------------------------------------------------------------------------*/
FoamFile
{
    version     2.0;
    format      ascii;
    class       volVectorField;
    location    "35";
    object      u;
}
// * * * * * * * * * * * * * * * * * * * * * * * * * * * * * * * * * * * * * //

dimensions      [0 0 0 0 0 0 0];

internalField   nonuniform List<vector> 
2688
(
(0.1240679826 -0.05249145905 9.472785159e-19)
(0.296523315 -0.04294299815 -4.152501788e-18)
(0.4342952124 -0.03562680974 -1.486680848e-18)
(0.5371283744 -0.02979763787 1.990368501e-18)
(0.6233101655 -0.02520789536 -9.366023789e-19)
(0.6883582041 -0.02144608691 -4.10725956e-19)
(0.7453567128 -0.01840389544 -1.678266289e-18)
(0.7882797815 -0.01585127556 -4.102963166e-18)
(0.8276102856 -0.01373319233 -3.232013536e-18)
(0.8567311359 -0.01192324358 -1.542768792e-18)
(0.8847457682 -0.01038005874 -1.188128286e-18)
(0.9047704433 -0.009044009242 -1.099099271e-18)
(0.9251769914 -0.007868906105 -7.1491435e-19)
(0.9388977713 -0.006843740093 -5.901300054e-18)
(0.9539594482 -0.005907776601 1.538547381e-18)
(0.9630933816 -0.005089829553 3.099971619e-18)
(0.9742399095 -0.004308680428 1.647112351e-18)
(0.9798676291 -0.003629231639 7.431318413e-19)
(0.9880244177 -0.002945294932 3.636152046e-18)
(0.990831664 -0.002356941587 2.323074709e-18)
(0.9966057878 -0.001728926675 -5.756928964e-19)
(0.9970233378 -0.001195794232 -1.680680204e-18)
(1.00080893 -0.0006040536508 -4.250147947e-19)
(0.9991318321 -1.545180861e-05 -2.419351367e-18)
(0.1358224044 -0.1568139996 3.367739009e-18)
(0.3061393551 -0.1282884548 -3.640273095e-19)
(0.4422732184 -0.1064322062 -9.924917992e-18)
(0.5438009119 -0.08901780767 -2.251123819e-18)
(0.6289549612 -0.07530646312 -2.956909261e-18)
(0.6931605229 -0.06406819473 4.932408348e-19)
(0.7494777886 -0.05497991046 -2.242280772e-18)
(0.7918292576 -0.04735415648 -1.279830756e-18)
(0.8306855046 -0.04102655343 4.164911786e-18)
(0.8594010518 -0.03561942995 4.788599308e-18)
(0.8870701404 -0.03100927652 -2.282239672e-18)
(0.9067956223 -0.02701786689 -4.174970736e-18)
(0.9269390474 -0.02350729363 -7.43762754e-20)
(0.9404302505 -0.02044461135 -2.709724297e-18)
(0.9552823599 -0.01764849597 -2.793969287e-18)
(0.9642331254 -0.01520499023 -1.276246407e-19)
(0.9752047498 -0.01287149889 -4.535860125e-18)
(0.980680291 -0.01084175219 -4.639715492e-18)
(0.9886839011 -0.008798460978 6.555790096e-18)
(0.9913593593 -0.007040572442 -1.290123544e-17)
(0.9969929108 -0.005164411242 6.139077645e-18)
(0.9972910937 -0.003571832373 5.127802901e-19)
(1.000944166 -0.001803999397 5.069194096e-18)
(0.999135226 -4.544227079e-05 4.998272242e-18)
(0.159183161 -0.2591645481 6.666098029e-18)
(0.3252508409 -0.2120207653 -2.106454237e-18)
(0.458128712 -0.1758990876 -5.197554234e-18)
(0.5570620627 -0.1471184383 -1.235056653e-18)
(0.640173472 -0.1244578798 -2.996346402e-18)
(0.7027047518 -0.105884493 4.709106621e-18)
(0.7576681068 -0.09086453791 -5.465724124e-18)
(0.7988835827 -0.07826156536 6.084845049e-18)
(0.8367971983 -0.06780402511 -6.109534921e-18)
(0.8647072538 -0.05886770555 8.349141426e-18)
(0.8916895526 -0.05124857475 5.499093115e-18)
(0.9108204521 -0.04465200348 3.208547866e-18)
(0.9304409083 -0.03885012277 4.257445817e-18)
(0.9434758958 -0.03378842603 -6.831548532e-18)
(0.9579114723 -0.0291673017 4.307720193e-18)
(0.9664982459 -0.02512891988 -1.083567343e-17)
(0.9771222224 -0.02127240572 2.097155917e-17)
(0.9822953768 -0.01791789183 -1.766440246e-17)
(0.9899945655 -0.01454101192 -1.390746876e-17)
(0.9924081753 -0.01163575792 1.273869136e-17)
(0.9977622615 -0.008535004321 3.084520704e-18)
(0.9978231924 -0.005902928372 -2.037021025e-17)
(1.001212874 -0.002981258888 -8.334676092e-18)
(0.9991419696 -7.488727172e-05 1.148461447e-17)
(0.1938567658 -0.3582559787 -2.646237168e-19)
(0.3536170979 -0.2930867806 -6.155170994e-18)
(0.4816622303 -0.2431539586 -6.516957356e-18)
(0.5767449833 -0.2033689984 2.278658742e-19)
(0.6568246462 -0.1720442052 -8.131500369e-18)
(0.7168709854 -0.1463692607 4.167862067e-18)
(0.7698248344 -0.1256064709 -7.009489403e-18)
(0.8093541462 -0.1081847816 -1.532053026e-18)
(0.8458686568 -0.09372879946 -3.389114553e-18)
(0.8725831089 -0.08137567518 -6.101882545e-18)
(0.8985460562 -0.07084336803 -1.646427305e-17)
(0.91679439 -0.06172460145 -6.086359407e-18)
(0.9356386292 -0.05370437195 1.189023105e-17)
(0.9479964048 -0.04670733309 1.445655465e-18)
(0.961813741 -0.04031931341 2.304106302e-18)
(0.9698602105 -0.03473685045 -8.975783262e-18)
(0.9799682364 -0.02940579243 -1.325345337e-17)
(0.9846925718 -0.02476868404 5.686631599e-18)
(0.9919399684 -0.02010065799 -3.520925482e-18)
(0.9939648705 -0.01608459196 -1.977735506e-17)
(0.9989041224 -0.01179825635 1.025179278e-17)
(0.9986129076 -0.008159785209 1.900613888e-17)
(1.001611709 -0.004121010199 -1.995149489e-17)
(0.9991519563 -0.0001033766857 2.28802264e-17)
(0.2394070425 -0.4528421165 -6.147037536e-19)
(0.390881514 -0.3704670766 6.330221604e-18)
(0.512577913 -0.3073509924 1.155738225e-17)
(0.6026021941 -0.2570620435 7.107162222e-19)
(0.6786990684 -0.2174669479 -1.131129946e-18)
(0.7354809637 -0.1850133282 9.377280633e-19)
(0.785794938 -0.1587688429 -5.805041407e-18)
(0.8231091824 -0.1367475186 -6.206458459e-18)
(0.8577856835 -0.1184749105 -1.102035593e-18)
(0.8829295126 -0.1028603202 1.469048914e-17)
(0.9075533281 -0.08954730459 -9.406681608e-19)
(0.9246422805 -0.07802100773 6.258944094e-18)
(0.9424667904 -0.0678832994 -5.275511005e-18)
(0.9539349537 -0.05903889519 9.879087031e-18)
(0.9669400853 -0.0509643157 -2.851503314e-17)
(0.974276793 -0.04390795477 -9.265735891e-18)
(0.9837069922 -0.03716939835 2.168325341e-17)
(0.9878417588 -0.03130800276 1.610395278e-18)
(0.9944956296 -0.02540755548 1.123021706e-17)
(0.9960099345 -0.02033118008 9.589226524e-18)
(1.000404186 -0.0149131777 -1.761105656e-18)
(0.9996503738 -0.01031405603 5.768418848e-18)
(1.002135651 -0.005208967819 -3.165958052e-17)
(0.999165087 -0.0001305895447 3.452075502e-17)
(0.2952612623 -0.5417335235 -1.821853028e-17)
(0.4365754494 -0.4431885274 -1.351798261e-19)
(0.5504870012 -0.3676829211 2.565747019e-18)
(0.6343085593 -0.3075223971 -6.340829969e-19)
(0.7055217324 -0.2601549271 -1.196027499e-17)
(0.7583007456 -0.2213307518 1.268034035e-18)
(0.8053776978 -0.1899345793 2.466434442e-18)
(0.8399757876 -0.1635905577 -2.875384633e-17)
(0.8723985216 -0.141731096 -1.813126673e-17)
(0.8956164103 -0.1230514175 2.770566584e-18)
(0.918598187 -0.1071251 -1.647930643e-18)
(0.9342654587 -0.09333623817 2.725901102e-18)
(0.9508395808 -0.08120853126 -5.086524307e-19)
(0.961216852 -0.0706280036 1.577424313e-17)
(0.9732260655 -0.06096840028 -9.942319678e-18)
(0.9796924194 -0.05252689258 3.702770323e-17)
(0.9882914857 -0.04446556508 1.478595827e-17)
(0.9917032888 -0.03745359496 4.062619249e-20)
(0.9976293989 -0.03039491257 -1.008764285e-17)
(0.9985175695 -0.02432206857 1.129056111e-18)
(1.002243559 -0.01784052713 4.388208534e-18)
(1.00092248 -0.01233860752 2.213711211e-17)
(1.002778103 -0.006231392916 1.701501426e-17)
(0.9991811587 -0.0001561399179 -2.973694232e-17)
(0.3607169232 -0.6238123165 -8.784601975e-18)
(0.4901242841 -0.510336614 -7.77631277e-18)
(0.5949127395 -0.4233910079 1.526928949e-17)
(0.6714653211 -0.3541154683 -1.278663593e-17)
(0.7369552535 -0.2995713025 -9.927004317e-18)
(0.7850432797 -0.2548648086 1.11153178e-17)
(0.8283267456 -0.2187117939 6.015450939e-19)
(0.8597417894 -0.1883763588 -7.16302954e-18)
(0.8895233177 -0.1632049592 3.699706609e-17)
(0.9104842184 -0.1416950893 -2.394675405e-17)
(0.9315416719 -0.123355769 -6.668934654e-18)
(0.9455429022 -0.1074777318 1.203053457e-17)
(0.9606516751 -0.09351255192 -3.41785312e-18)
(0.9697505572 -0.08132894134 -1.850797964e-19)
(0.9805926316 -0.07020580053 -1.759437062e-17)
(0.9860390455 -0.06048528795 -1.604995608e-17)
(0.9936640844 -0.05120257647 -2.389274687e-17)
(0.9962286752 -0.04312819877 -4.661567376e-18)
(1.001301902 -0.03500005988 -5.48892988e-18)
(1.001456328 -0.02800710879 -9.475551862e-18)
(1.004399159 -0.02054355146 -2.66961376e-17)
(1.002413314 -0.01420802332 -2.938239272e-17)
(1.003531009 -0.007175496134 -2.040794289e-17)
(0.999200019 -0.0001797622053 -4.357906501e-17)
(0.4349509373 -0.6980463219 -1.912900355e-18)
(0.5508546116 -0.5710669316 -9.868307151e-18)
(0.645296487 -0.4737747151 -7.789628072e-18)
(0.7136052338 -0.3962553398 3.88637237e-18)
(0.7726043941 -0.3352203907 6.992712179e-18)
(0.8153723104 -0.2851937878 -1.683097734e-17)
(0.854353555 -0.2447385542 -2.801401835e-18)
(0.8821586553 -0.210793199 7.395545709e-18)
(0.9089447758 -0.1826263906 1.379053037e-18)
(0.9273459774 -0.1585568436 8.889567853e-18)
(0.9462210475 -0.1380351355 9.836146035e-18)
(0.9583327716 -0.1202676148 -8.2021504e-18)
(0.9717796882 -0.1046405716 -1.658551024e-17)
(0.9794287012 -0.09100711375 3.334514737e-18)
(0.9889471232 -0.07856030604 2.166028927e-17)
(0.9932367773 -0.06768304821 -6.21650592e-18)
(0.9997571778 -0.05729567639 2.242250318e-17)
(1.001360905 -0.04826043964 3.054152996e-18)
(1.005466889 -0.03916503983 2.373933108e-18)
(1.00478914 -0.03133992358 3.595135905e-18)
(1.006843808 -0.02298819584 5.428250404e-17)
(1.004104029 -0.01589874127 -2.326194658e-17)
(1.004384862 -0.008029326671 -1.092236839e-17)
(0.9992213726 -0.0002010920848 -2.47170621e-17)
(0.5170297412 -0.7635019864 -2.261895362e-17)
(0.6180027176 -0.6246157416 -1.822606384e-17)
(0.7010045942 -0.5182004306 3.053831665e-18)
(0.7601983341 -0.4334120731 1.741626938e-17)
(0.8120207795 -0.3666539015 1.290325625e-17)
(0.8489063831 -0.3119363004 -1.517270764e-17)
(0.8831307515 -0.2676876122 -9.18042981e-18)
(0.9069444414 -0.2305592099 1.431121002e-17)
(0.9304186011 -0.1997512235 -4.222179929e-18)
(0.9459896276 -0.1734246745 -4.26829307e-18)
(0.9624516768 -0.150978666 -8.779859922e-18)
(0.9724742455 -0.1315450828 2.236627388e-17)
(0.9840836747 -0.1144527087 -1.63068395e-17)
(0.9901296302 -0.09954083459 -1.631937568e-18)
(0.998184507 -0.08592690004 -9.804887875e-18)
(1.001195189 -0.07402967033 -6.034397965e-18)
(1.006494201 -0.06266828067 -1.437289079e-17)
(1.00703555 -0.05278579509 2.135926043e-17)
(1.010072059 -0.04283752208 1.967154737e-17)
(1.008474216 -0.03427862917 -3.866731034e-18)
(1.009546842 -0.02514376762 -1.22884048e-17)
(1.00597347 -0.01738953349 8.231302696e-18)
(1.005328969 -0.008782206905 3.417879745e-17)
(0.9992450106 -0.000219912882 -5.206715994e-17)
(0.6059211687 -0.8193561801 1.181662375e-17)
(0.6907241689 -0.670309655 -2.508277209e-17)
(0.7613365416 -0.5561094705 4.492548904e-17)
(0.8106587117 -0.4651183965 -1.60562462e-17)
(0.8547087856 -0.3934765097 1.11701269e-17)
(0.885223827 -0.3347560196 -1.34193185e-17)
(0.9142965079 -0.2872703113 -6.461732818e-18)
(0.9337874819 -0.2474257826 2.194739338e-18)
(0.9536747974 -0.2143640311 9.313378561e-18)
(0.9661807212 -0.1861115666 -1.641347316e-17)
(0.9800294778 -0.1620235157 7.791617382e-18)
(0.9877894637 -0.141168276 3.437813375e-18)
(0.9974089026 -0.1228255047 -1.940867789e-17)
(1.001718716 -0.10682276 -1.173481251e-17)
(1.008188582 -0.09221289102 -4.982761469e-18)
(1.009814105 -0.07944532544 -2.407009417e-17)
(1.013790365 -0.06725278548 1.005349183e-17)
(1.013181131 -0.05664734819 -3.622997745e-17)
(1.015059415 -0.04597129689 -4.201342128e-18)
(1.012465089 -0.03678627018 -3.460540037e-19)
(1.012474191 -0.02698314098 2.343322183e-17)
(1.007998029 -0.01866165222 -3.117566862e-17)
(1.006351424 -0.009424646816 3.093245453e-17)
(0.9992705895 -0.0002359738654 2.52056291e-17)
(0.700507327 -0.8649064882 1.213478745e-17)
(0.7681044571 -0.7075740368 9.652555627e-18)
(0.8255335809 -0.5870251271 1.58165691e-17)
(0.8643517782 -0.4909755986 -1.541877243e-17)
(0.9001315344 -0.4153509476 1.02719429e-17)
(0.9238679011 -0.3533660066 -7.465802527e-18)
(0.9474588469 -0.3032404532 -1.416554465e-17)
(0.9623501922 -0.2611808542 -1.159036426e-17)
(0.9784208673 -0.2262811233 -1.327948197e-17)
(0.9876653472 -0.1964580182 -3.087416036e-17)
(0.9987333848 -0.1710308598 -1.424474992e-17)
(1.004085863 -0.1490162113 1.317753063e-17)
(1.011587816 -0.1296537267 -3.035802216e-19)
(1.01405029 -0.1127613339 2.816332083e-17)
(1.018833594 -0.09733927043 2.601644082e-17)
(1.018985245 -0.08386190891 2.004102864e-17)
(1.021553998 -0.07099155982 -6.176386237e-18)
(1.019720489 -0.0597965241 5.761853348e-17)
(1.020366322 -0.04852696181 -1.690004806e-17)
(1.016711683 -0.03883129073 -5.875138767e-18)
(1.015589099 -0.02848317963 -1.948750022e-17)
(1.010152318 -0.01969907054 -7.419924112e-17)
(1.007439378 -0.009948556848 1.88594621e-17)
(0.9992978134 -0.000249051914 -1.00726265e-17)
(0.7995987983 -0.8995800908 9.749643652e-18)
(0.8491704894 -0.7359402598 -3.296472639e-18)
(0.8927884397 -0.610558583 7.741460877e-18)
(0.9206023317 -0.5106584851 -1.652801185e-17)
(0.9477178566 -0.432002078 5.039717117e-18)
(0.9643526566 -0.3675321899 2.137780355e-17)
(0.9822007762 -0.3153971326 -5.837952833e-18)
(0.9922733899 -0.2716513986 3.156871813e-17)
(1.004345643 -0.2353525579 2.964495873e-17)
(1.010173313 -0.2043338718 1.907363485e-17)
(1.01832819 -0.1778873537 -1.067446374e-17)
(1.021158464 -0.1549901626 1.255690587e-18)
(1.02644208 -0.1348514465 -8.154389651e-18)
(1.0269692 -0.1172818591 -1.711205382e-20)
(1.029985617 -0.1012415312 -3.321229185e-17)
(1.028593172 -0.08722388202 -6.269283861e-17)
(1.029687393 -0.07383756813 -1.23584601e-17)
(1.02657128 -0.06219374035 -3.29761453e-18)
(1.025925983 -0.05047238362 -2.854404677e-17)
(1.02116052 -0.04038801529 -3.292004062e-17)
(1.018852375 -0.02962504956 3.760453232e-17)
(1.012409212 -0.02048879864 -1.769024747e-18)
(1.008579174 -0.01034738684 4.118615674e-17)
(0.9993263412 -0.0002590352333 8.221366596e-19)
(0.9019494013 -0.9229409575 7.436475966e-18)
(0.9329028043 -0.7550516094 -1.033678402e-17)
(0.9622553109 -0.6264139336 1.06917138e-18)
(0.9787029755 -0.5239195626 -2.055271074e-17)
(0.9968692866 -0.4432205651 5.446672158e-19)
(1.006168961 -0.3770764676 9.639725089e-18)
(1.018085362 -0.3235875489 -1.071918651e-17)
(1.023180772 -0.2787057932 -1.755505635e-17)
(1.031123088 -0.2414643352 2.317242516e-18)
(1.033421585 -0.2096401275 -2.5409126e-19)
(1.038567482 -0.1825068423 6.864885238e-18)
(1.038792617 -0.1590150324 -3.961522531e-18)
(1.041784928 -0.1383533522 -3.690195671e-17)
(1.04031306 -0.1203274941 3.684839233e-17)
(1.041504468 -0.103870629 -1.35532275e-17)
(1.038517158 -0.0894889492 3.563367004e-17)
(1.038088329 -0.07575502148 8.309469891e-18)
(1.033647435 -0.06380881128 2.931703789e-17)
(1.031668517 -0.05178307471 3.336015883e-17)
(1.025755695 -0.04143681149 1.226754908e-18)
(1.022222967 -0.03039435205 4.248425762e-18)
(1.014740329 -0.02102083967 6.947259596e-18)
(1.00975643 -0.01061607464 -2.389913554e-19)
(0.9993557955 -0.0002657321181 -3.067980621e-17)
(1.006272037 -0.9346953023 9.856325811e-19)
(1.018248414 -0.7646677439 -5.965816021e-18)
(1.033060636 -0.6343917409 -2.039223614e-17)
(1.037923065 -0.5305920303 9.070813183e-18)
(1.046967748 -0.4488652614 8.796330596e-19)
(1.048790954 -0.3818787662 -2.01730996e-18)
(1.054661358 -0.3277086243 3.347917192e-18)
(1.054683652 -0.2822552752 9.916808088e-18)
(1.058416465 -0.2445395182 -5.84243789e-19)
(1.057117775 -0.2123100159 -1.390692994e-17)
(1.059196725 -0.1848311676 -3.550802275e-18)
(1.056766506 -0.1610401836 -9.566020271e-18)
(1.057423374 -0.1401153599 1.265887386e-17)
(1.053913984 -0.1218599402 -1.372072843e-17)
(1.053245232 -0.1051934814 9.698503164e-18)
(1.048632317 -0.09062865186 -1.547756386e-17)
(1.046651117 -0.07671981251 -6.019839032e-18)
(1.040859912 -0.06462146924 -2.989366289e-18)
(1.037521703 -0.0524425739 -3.254767115e-17)
(1.030439409 -0.04196454176 1.254723094e-17)
(1.025658527 -0.03078144348 7.968389103e-19)
(1.017116377 -0.02128855919 1.989569772e-18)
(1.010956399 -0.0107512761 2.021728935e-18)
(0.9993858302 -0.0002691168767 1.025682707e-19)
(1.111254763 -0.934695321 -2.642089654e-18)
(1.10413406 -0.7646677533 -2.449443519e-18)
(1.104313978 -0.6343917382 -2.347733701e-17)
(1.097517876 -0.5305920202 1.188252942e-17)
(1.097383201 -0.4488652569 1.344674994e-18)
(1.091682642 -0.3818787463 4.175986712e-18)
(1.091468785 -0.3277086166 -3.25010232e-18)
(1.086385877 -0.2822552594 8.362554266e-18)
(1.085882545 -0.2445395137 -4.443294664e-18)
(1.080963923 -0.2123099999 -1.570502283e-17)
(1.079956511 -0.1848311626 -1.79374999e-17)
(1.074854156 -0.1610401663 5.645496618e-18)
(1.073160792 -0.1401153519 1.678361375e-17)
(1.067601003 -0.1218599184 -2.118789794e-17)
(1.065060306 -0.1051934677 -1.652975981e-17)
(1.058811507 -0.09062862753 1.456831243e-17)
(1.055268092 -0.07671980076 -2.399565542e-18)
(1.048118036 -0.06462145231 -9.407527188e-19)
(1.043411913 -0.05244256969 -6.656735935e-18)
(1.035152753 -0.04196452423 -1.655721267e-17)
(1.029115801 -0.03078143594 -5.845818389e-18)
(1.019507445 -0.0212885455 -3.085996134e-18)
(1.012163937 -0.01075127026 -2.768284784e-17)
(0.9994160459 -0.0002690992088 2.524264461e-17)
(1.215577419 -0.9229409808 -6.275041692e-18)
(1.189479678 -0.7550516014 6.348651017e-18)
(1.1751193 -0.6264138586 -1.599298502e-17)
(1.156737961 -0.5239194864 -6.418269925e-18)
(1.147481655 -0.443220474 -1.486907458e-18)
(1.134304626 -0.3770763564 -4.770523913e-18)
(1.128044772 -0.3235874438 2.777507184e-18)
(1.117888749 -0.2787056981 -2.03457491e-17)
(1.113175914 -0.2414642476 -2.109379695e-17)
(1.104660107 -0.2096400484 3.486094925e-19)
(1.100585749 -0.1825067717 2.533847699e-17)
(1.092828043 -0.1590149714 9.796632836e-19)
(1.088799238 -0.1383532957 3.663831509e-18)
(1.08120193 -0.1203274448 -2.910245889e-18)
(1.076801077 -0.1038705796 1.040443283e-18)
(1.068926675 -0.0894889106 1.970531237e-17)
(1.063830889 -0.07575499367 4.587407793e-18)
(1.055330522 -0.06380879792 1.715813685e-17)
(1.049265104 -0.0517830697 7.587382424e-18)
(1.039836468 -0.04143679096 2.969314249e-17)
(1.032551356 -0.03039433224 4.115264511e-18)
(1.021883486 -0.0210208259 1.565736127e-17)
(1.013363897 -0.01061605775 -6.147630178e-18)
(0.9994460713 -0.0002657087817 -1.625092266e-17)
(1.317928024 -0.8995801423 -4.556380786e-18)
(1.273211995 -0.735940254 8.3366873e-18)
(1.244586171 -0.6105584979 -6.514022393e-18)
(1.214838606 -0.5106583874 3.292504055e-18)
(1.196633087 -0.4320019796 -6.082809689e-19)
(1.176120928 -0.3675320416 1.569087451e-18)
(1.163929358 -0.3153970149 9.92354295e-18)
(1.148796131 -0.2716512753 1.212589456e-17)
(1.139953361 -0.2353524655 1.709822131e-17)
(1.127908379 -0.2043337659 1.912100768e-17)
(1.120825041 -0.1778872787 5.454806502e-18)
(1.110462191 -0.1549900732 -1.087467173e-17)
(1.10414208 -0.1348513812 1.088245732e-19)
(1.094545778 -0.1172817752 -7.901029769e-18)
(1.088319913 -0.1012414642 -1.932315212e-17)
(1.078850641 -0.08722380524 -1.880490564e-17)
(1.072231811 -0.07383752549 -8.522090419e-18)
(1.062406666 -0.06219369854 -3.191716393e-17)
(1.055007636 -0.05047237126 7.644827264e-18)
(1.044431641 -0.040387957 -2.692055071e-17)
(1.035921955 -0.0296250094 -2.207548568e-18)
(1.024214613 -0.02048875044 2.637135043e-18)
(1.014541166 -0.01034735116 -2.191791246e-17)
(0.9994755325 -0.0002589709733 4.764345736e-17)
(1.417019487 -0.8649065471 -1.571728801e-18)
(1.354278018 -0.7075740237 1.450556969e-17)
(1.31184101 -0.58702498 2.865974203e-18)
(1.27108914 -0.490975445 -3.085041743e-19)
(1.244219386 -0.4153507734 -3.720046658e-18)
(1.216605656 -0.3533657787 -1.545122163e-17)
(1.198671262 -0.3032402504 5.752637999e-18)
(1.178719308 -0.261180664 -9.54971563e-18)
(1.165878119 -0.2262809597 -1.079258213e-17)
(1.150416332 -0.1964578598 -1.12723878e-17)
(1.140419838 -0.1710307289 5.468706178e-18)
(1.12753479 -0.1490160865 -1.1950553e-17)
(1.118996348 -0.1296536202 2.021107394e-18)
(1.107464698 -0.1127612285 -1.03671471e-17)
(1.099471952 -0.09733917261 4.238672428e-17)
(1.088458592 -0.08386182132 1.962039037e-17)
(1.080365232 -0.0709915024 1.670869454e-17)
(1.069257484 -0.05979648519 -1.406056762e-18)
(1.060567318 -0.04852694555 4.446840679e-18)
(1.048880486 -0.03883122683 -4.682124081e-18)
(1.039185228 -0.02848312553 -1.618501253e-17)
(1.026471499 -0.01969902077 -6.440157267e-18)
(1.015680945 -0.009948509133 -4.1817833e-17)
(0.999504042 -0.000248979364 -1.372923456e-19)
(1.511605671 -0.8193562656 -2.924185395e-18)
(1.431658321 -0.6703096513 1.271060372e-18)
(1.376038053 -0.5561093182 1.415189599e-17)
(1.324782211 -0.4651182244 -4.706084397e-18)
(1.28964214 -0.3934763314 -7.751678117e-18)
(1.255249728 -0.3347557614 -4.04405466e-18)
(1.231833605 -0.2872701044 6.617279579e-18)
(1.207282021 -0.2474255742 -3.825160762e-18)
(1.190624198 -0.2143638732 -8.076748018e-18)
(1.17190096 -0.186111393 2.062984524e-17)
(1.159123751 -0.1620233929 -6.496773891e-18)
(1.143831186 -0.1411681377 -1.4686449e-17)
(1.133175259 -0.1228254058 2.100573329e-17)
(1.119796258 -0.1068226398 1.011703609e-18)
(1.110116949 -0.09221279631 -2.09084059e-17)
(1.097629709 -0.0794452211 7.902902228e-18)
(1.088128849 -0.06725273018 -1.640782808e-17)
(1.075796824 -0.05664729072 -2.80158446e-17)
(1.065874218 -0.04597127439 1.8706562e-19)
(1.053127066 -0.03678616536 1.509789733e-18)
(1.042300133 -0.02698305969 1.23977922e-17)
(1.028625786 -0.01866155887 2.256900094e-17)
(1.016768906 -0.009424570956 3.346162095e-18)
(0.9995312665 -0.0002358543759 -1.579206957e-17)
(1.600497114 -0.7635020752 -1.038822379e-17)
(1.504379772 -0.6246157306 2.070312959e-18)
(1.436369974 -0.5182002266 -3.448996749e-18)
(1.375242561 -0.4334118563 6.630814134e-18)
(1.33233011 -0.3666536627 -5.644263941e-18)
(1.29156713 -0.3119359814 1.871882342e-18)
(1.262999323 -0.2676873396 5.608366457e-18)
(1.234125032 -0.2305589536 -7.27535781e-18)
(1.213880371 -0.1997510114 -5.727377037e-19)
(1.192092038 -0.1734244641 4.494757285e-18)
(1.176701543 -0.1509785 -7.008159188e-18)
(1.159146404 -0.1315449203 1.045780141e-18)
(1.146500491 -0.1144525775 2.995951798e-18)
(1.131385358 -0.09954070064 -1.0999626e-17)
(1.120121043 -0.08592678016 3.375627633e-18)
(1.106248653 -0.07402955751 4.41644903e-18)
(1.095425044 -0.0626682063 1.044722397e-17)
(1.081942441 -0.05278572998 6.372094196e-18)
(1.070861603 -0.04283747936 -9.563174349e-18)
(1.057117957 -0.03427850451 -2.185840339e-18)
(1.045227489 -0.02514365894 -1.163492553e-17)
(1.030650349 -0.0173894243 5.447805498e-18)
(1.017791353 -0.008782103183 -7.4060209e-18)
(0.999556833 -0.0002197669638 2.989065803e-18)
(1.682575934 -0.6980464226 1.202220974e-18)
(1.571527886 -0.5710669136 1.42666942e-18)
(1.492078082 -0.4737744984 -4.211063452e-18)
(1.421835662 -0.3962550996 -4.894036639e-19)
(1.371746499 -0.3352201471 -7.734117491e-20)
(1.325101196 -0.2851934441 -4.98497796e-18)
(1.291776524 -0.244738286 2.518794825e-18)
(1.258910822 -0.2107929348 7.177576485e-18)
(1.23535421 -0.1826261942 -7.523444269e-18)
(1.210735696 -0.1585566302 6.778826213e-18)
(1.192932186 -0.1380349889 4.02365356e-18)
(1.17328788 -0.1202674528 -1.134057611e-17)
(1.158804483 -0.1046404613 1.661948897e-18)
(1.142086279 -0.09100698056 9.797422105e-18)
(1.129358421 -0.07856020173 6.692614733e-19)
(1.114207048 -0.06768292855 -1.280183917e-18)
(1.102162059 -0.05729560597 1.06981672e-17)
(1.087617068 -0.04826035224 1.470527823e-18)
(1.07546676 -0.03916498592 2.672194871e-19)
(1.060803 -0.03133976187 -3.32546121e-18)
(1.0479305 -0.02298806881 2.228377367e-17)
(1.032519766 -0.01589859757 1.680241758e-17)
(1.018735446 -0.008029205335 2.592439942e-17)
(0.9995804507 -0.0002009114974 -3.850682066e-18)
(1.756809947 -0.6238124155 3.265682428e-19)
(1.632258202 -0.510336597 2.551741959e-18)
(1.542461789 -0.4233907555 -2.74136062e-18)
(1.463975534 -0.3541151972 -1.499601546e-18)
(1.407395589 -0.2995710163 -3.838269606e-18)
(1.355430167 -0.2548644259 5.5470404e-18)
(1.31780328 -0.2187114811 2.707599987e-18)
(1.281327648 -0.1883760675 4.878424298e-18)
(1.254775637 -0.1632047252 6.31232458e-18)
(1.227597436 -0.1416948535 -2.16677471e-18)
(1.207611548 -0.1233555896 6.268976575e-18)
(1.186077748 -0.107477554 1.399447748e-18)
(1.169932496 -0.09351241521 -9.034542918e-18)
(1.151764432 -0.08132879806 -5.906729642e-19)
(1.137712919 -0.07020567069 -6.079384004e-18)
(1.121404794 -0.06048515315 1.423600322e-18)
(1.108255166 -0.05120247171 -1.715115949e-17)
(1.092749318 -0.04312808201 -1.35602082e-18)
(1.079631762 -0.03499996556 -1.59879921e-18)
(1.064135819 -0.02800691711 -2.267205171e-18)
(1.050375154 -0.02054338796 -7.481622295e-18)
(1.034210491 -0.01420784974 -7.299045649e-18)
(1.019589296 -0.007175329093 -7.049631039e-18)
(0.9996017948 -0.0001795375559 -2.584191402e-18)
(1.822265633 -0.5417336134 -1.320020157e-18)
(1.685807042 -0.443188499 7.065968082e-19)
(1.586887523 -0.3676826553 -4.008406414e-18)
(1.501132293 -0.3075220996 2.338601335e-18)
(1.438829111 -0.2601546357 -3.020866414e-18)
(1.38217269 -0.2213303512 1.753106824e-18)
(1.34075233 -0.1899342815 2.5528305e-18)
(1.301093654 -0.1635902706 -4.469650249e-18)
(1.27190045 -0.1417308879 -6.054725479e-18)
(1.242465253 -0.1230511876 -9.298221398e-19)
(1.220555052 -0.1071249458 2.174700714e-18)
(1.197355195 -0.0933360666 9.791732814e-19)
(1.1797446 -0.08120841754 7.16272449e-18)
(1.160298128 -0.07062786116 -2.411166025e-18)
(1.14507948 -0.06096828013 3.805392879e-18)
(1.1277514 -0.0525267395 4.940923753e-18)
(1.113627754 -0.04446544772 1.308384496e-18)
(1.097274681 -0.03745344156 -1.477462115e-19)
(1.08330425 -0.03039480547 -3.861358636e-18)
(1.067074539 -0.02432185569 -5.651411913e-21)
(1.052530729 -0.01784036648 -3.541432768e-18)
(1.035701294 -0.01233841724 1.646151903e-17)
(1.020342178 -0.006231227019 2.01286272e-18)
(0.9996206201 -0.0001558989575 8.103198272e-18)
(1.878119815 -0.4528421826 2.833038603e-18)
(1.73150095 -0.3704670504 3.627270412e-18)
(1.624796567 -0.3073507108 6.312650788e-19)
(1.532838621 -0.2570617305 1.652717383e-18)
(1.465651728 -0.2174666357 3.176440577e-18)
(1.404992411 -0.1850129164 4.217181555e-19)
(1.360335036 -0.1587685273 -2.332531957e-18)
(1.317960223 -0.1367472301 -7.842027747e-19)
(1.286513261 -0.1184746836 3.111954095e-18)
(1.255152138 -0.1028600822 6.11152104e-19)
(1.2315999 -0.08954712653 4.491326042e-18)
(1.206978374 -0.07802082517 -1.473042531e-18)
(1.188117387 -0.06788316161 -6.932874792e-19)
(1.167580029 -0.05903874143 -4.426300767e-18)
(1.151365453 -0.05096416711 1.170511955e-18)
(1.133167024 -0.04390778013 3.86958593e-18)
(1.118212242 -0.03716923959 2.295827611e-19)
(1.101136214 -0.03130781599 5.584007824e-19)
(1.086438021 -0.02540741173 2.485865271e-18)
(1.069582168 -0.02033094977 2.354451703e-18)
(1.054370097 -0.01491299136 -1.424863705e-18)
(1.036973401 -0.01031383718 -4.478862783e-18)
(1.020984615 -0.00520875883 2.39490456e-18)
(0.9996366714 -0.0001303105867 2.597207667e-18)
(1.92367013 -0.3582560196 2.676447613e-18)
(1.76876535 -0.2930867652 -1.278310005e-18)
(1.655712235 -0.2431536749 -5.794412945e-19)
(1.558695843 -0.2033686648 1.056203906e-18)
(1.487526174 -0.1720438912 2.099952372e-18)
(1.423602409 -0.1463688415 -2.073110009e-18)
(1.376305174 -0.12560619 1.495076932e-19)
(1.331715296 -0.1081845174 -1.511278972e-19)
(1.298430341 -0.09372861337 8.616381299e-19)
(1.265498583 -0.08137545464 -1.721072185e-18)
(1.240607225 -0.07084322144 -1.404340814e-18)
(1.214826297 -0.06172442938 9.340180088e-19)
(1.194945584 -0.05370425475 3.045189599e-19)
(1.173518588 -0.04670717516 -9.521182536e-19)
(1.156491807 -0.04031916424 4.040239106e-18)
(1.137583596 -0.03473664907 -3.065827945e-18)
(1.121951 -0.02940561413 -3.467292462e-18)
(1.104285391 -0.024768464 2.100055838e-18)
(1.088993687 -0.02010050834 2.715971428e-19)
(1.071627204 -0.01608435618 3.828498164e-19)
(1.055870146 -0.01179808203 -1.8254285e-18)
(1.038010838 -0.008159542523 3.6234123e-18)
(1.021508536 -0.004120796721 -3.664893245e-18)
(0.9996497634 -0.0001030762482 -3.336013806e-18)
(1.958343732 -0.2591645541 2.812386822e-18)
(1.797131573 -0.2120207421 -8.521428356e-20)
(1.679245702 -0.1758988212 -3.222719294e-19)
(1.578378739 -0.1471181215 7.174569126e-19)
(1.504177321 -0.1244575766 1.205231879e-18)
(1.437768604 -0.1058840966 2.796309528e-19)
(1.388461871 -0.09086426651 8.867066227e-19)
(1.342185848 -0.07826132493 -5.104912729e-19)
(1.307501789 -0.06780383654 5.664476341e-19)
(1.273374438 -0.05886748712 -6.030775875e-19)
(1.247463725 -0.05124840735 2.189252642e-18)
(1.22080024 -0.04465181724 1.937321842e-19)
(1.2001433 -0.03884997363 1.142953377e-19)
(1.178039093 -0.03378824657 1.873458996e-18)
(1.160394052 -0.02916711753 1.49553653e-18)
(1.140945539 -0.02512869759 -4.083993547e-19)
(1.124796985 -0.02127219429 -8.355160231e-19)
(1.106682575 -0.01791765116 -3.86985109e-19)
(1.090939087 -0.01454082945 9.218762648e-19)
(1.073183899 -0.01163551017 -8.858942394e-19)
(1.057011994 -0.008534803718 -1.550906864e-18)
(1.038800537 -0.005902651341 -1.327390178e-18)
(1.021907343 -0.002981007801 1.145597094e-18)
(0.9996597149 -7.455681708e-05 -2.66923721e-18)
(1.9817046 -0.1568139533 1.60637361e-18)
(1.816242942 -0.128288427 4.020071755e-19)
(1.695101063 -0.1064319539 -6.919893657e-19)
(1.591639836 -0.08901747887 1.573557246e-19)
(1.515395817 -0.07530615221 8.857824953e-19)
(1.447312896 -0.06406779554 3.876209462e-19)
(1.39665229 -0.05497968891 6.556253237e-19)
(1.349240251 -0.04735394849 -1.340949091e-19)
(1.313613563 -0.04102640335 1.078611277e-18)
(1.278680698 -0.03561922471 1.930437007e-20)
(1.252083207 -0.03100913091 5.453397399e-19)
(1.224825111 -0.02701768012 6.738430294e-19)
(1.203645197 -0.0235071451 3.072190581e-19)
(1.18108473 -0.02044440552 3.021252412e-19)
(1.163023143 -0.01764828631 1.0617114e-18)
(1.14321061 -0.01520472723 -7.729534116e-20)
(1.126714435 -0.01287126836 -9.760443734e-19)
(1.108297653 -0.01084149827 -5.34087824e-19)
(1.092249779 -0.008798293777 2.962735081e-19)
(1.074232705 -0.007040326419 -1.408074029e-18)