/*--------------------------------*- C++ -*----------------------------------*\
| =========                 |                                                 |
| \\      /  F ield         | foam-extend: Open Source CFD                    |
|  \\    /   O peration     | Version:  3.0                                   |
|   \\  /    A nd           | Web:         http://www.extend-project.de       |
|    \\/     M anipulation  |                                                 |
\*---------------------------------------------------------------------------*/
FoamFile
{
    version     2.0;
    format      ascii;
    class       volVectorField;
    location    "9.5";
    object      s;
}
// * * * * * * * * * * * * * * * * * * * * * * * * * * * * * * * * * * * * * //

dimensions      [0 0 0 0 0 0 0];

internalField   nonuniform List<vector> 
400
(
(-0.0453137 0.0964389 1.46919e-317)
(-0.0755507 0.136108 2.65737e-317)
(-0.17039 0.139076 3.08165e-317)
(-0.218259 0.113084 3.15406e-317)
(-0.287992 0.0951779 3.06628e-317)
(-0.326805 0.0692836 2.90521e-317)
(-0.369875 0.0522552 2.71584e-317)
(-0.393622 0.0321489 2.5203e-317)
(-0.41325 0.0170893 2.32827e-317)
(-0.420448 -8.87263e-05 2.14667e-317)
(-0.418465 -0.0152427 1.97522e-317)
(-0.408046 -0.0327101 1.81628e-317)
(-0.384231 -0.0494701 1.66683e-317)
(-0.355522 -0.0689856 1.52602e-317)
(-0.308985 -0.0868349 1.38942e-317)
(-0.263929 -0.107718 1.25163e-317)
(-0.195872 -0.12219 1.10278e-317)
(-0.143744 -0.137015 9.276e-318)
(-0.0625836 -0.128394 6.91679e-318)
(-0.030968 -0.0851419 3.30346e-318)
(-0.049299 0.0532894 2.02906e-317)
(-0.113095 0.118628 4.06753e-317)
(-0.216499 0.144883 4.97535e-317)
(-0.290939 0.141127 5.2605e-317)
(-0.377734 0.125086 5.21958e-317)
(-0.438979 0.10051 5.01391e-317)
(-0.498346 0.074841 4.73134e-317)
(-0.536677 0.0475702 4.42278e-317)
(-0.565774 0.021203 4.1092e-317)
(-0.577672 -0.00546924 3.80754e-317)
(-0.575828 -0.0316921 3.51788e-317)
(-0.55986 -0.058003 3.24587e-317)
(-0.526758 -0.0838338 2.98452e-317)
(-0.483218 -0.108405 2.733e-317)
(-0.420156 -0.130148 2.47958e-317)
(-0.353557 -0.146189 2.21455e-317)
(-0.267069 -0.152186 1.91611e-317)
(-0.1908 -0.142073 1.55783e-317)
(-0.0972824 -0.106435 1.09274e-317)
(-0.0375261 -0.040928 4.55001e-318)
(-0.0484195 0.163276 2.027e-317)
(-0.107992 0.285652 4.15732e-317)
(-0.208947 0.321029 5.17096e-317)
(-0.279324 0.299572 5.5379e-317)
(-0.360628 0.26324 5.5518e-317)
(-0.41883 0.210805 5.37898e-317)
(-0.47459 0.159705 5.11344e-317)
(-0.512216 0.104317 4.81128e-317)
(-0.540775 0.0516756 4.49732e-317)
(-0.554177 -0.00284871 4.19067e-317)
(-0.554322 -0.0562596 3.89308e-317)
(-0.541294 -0.11115 3.6106e-317)
(-0.511588 -0.165041 3.3365e-317)
(-0.471274 -0.218259 3.069e-317)
(-0.4116 -0.266054 2.79455e-317)
(-0.347127 -0.306181 2.50021e-317)
(-0.262474 -0.327959 2.15973e-317)
(-0.186212 -0.324915 1.73932e-317)
(-0.0922831 -0.271993 1.1939e-317)
(-0.0333616 -0.14352 4.63214e-318)
(-0.029159 0.154374 1.79941e-317)
(-0.0809789 0.293023 3.70436e-317)
(-0.147626 0.342032 4.64167e-317)
(-0.204217 0.328548 5.01347e-317)
(-0.264499 0.292915 5.07117e-317)
(-0.312689 0.238767 4.95909e-317)
(-0.35779 0.18198 4.75745e-317)
(-0.390958 0.120231 4.51704e-317)
(-0.41666 0.059022 4.25967e-317)
(-0.43115 -0.00428307 4.00351e-317)
(-0.434732 -0.0679175 3.75078e-317)
(-0.427894 -0.132807 3.50777e-317)
(-0.406978 -0.197578 3.26903e-317)
(-0.377 -0.25989 3.0334e-317)
(-0.330559 -0.316301 2.78875e-317)
(-0.278625 -0.359072 2.52221e-317)
(-0.210998 -0.379627 2.20863e-317)
(-0.146466 -0.362001 1.81014e-317)
(-0.0744639 -0.287495 1.27552e-317)
(-0.0211242 -0.130652 5.22371e-318)
(-0.0229865 0.190465 1.44848e-317)
(-0.0586219 0.35446 2.99697e-317)
(-0.108438 0.409071 3.79109e-317)
(-0.148669 0.394208 4.14509e-317)
(-0.193681 0.352473 4.24782e-317)
(-0.229823 0.289838 4.21073e-317)
(-0.265069 0.223283 4.09347e-317)
(-0.292402 0.150417 3.93658e-317)
(-0.314985 0.0774294 3.75759e-317)
(-0.33039 0.00102954 3.57229e-317)
(-0.337606 -0.0766495 3.38389e-317)
(-0.338105 -0.157072 3.19891e-317)
(-0.326447 -0.23851 3.01441e-317)
(-0.308781 -0.318365 2.83093e-317)
(-0.274479 -0.392476 2.63972e-317)
(-0.236906 -0.450787 2.43089e-317)
(-0.179852 -0.483544 2.18142e-317)
(-0.128115 -0.468129 1.85452e-317)
(-0.061145 -0.383794 1.37998e-317)
(-0.0191396 -0.186007 6.37151e-318)
(-0.0112868 0.181166 1.00603e-317)
(-0.0360281 0.346335 2.14424e-317)
(-0.0608627 0.40619 2.78354e-317)
(-0.0865471 0.395786 3.12572e-317)
(-0.113405 0.357466 3.2848e-317)
(-0.13854 0.296951 3.33527e-317)
(-0.163223 0.231249 3.31451e-317)
(-0.185164 0.158222 3.2522e-317)
(-0.204466 0.0837873 3.16127e-317)
(-0.220806 0.0048314 3.05514e-317)
(-0.231725 -0.0770186 2.93771e-317)
(-0.239586 -0.163013 2.81561e-317)
(-0.237935 -0.252115 2.6881e-317)
(-0.233088 -0.340651 2.55677e-317)
(-0.21303 -0.425206 2.41544e-317)
(-0.190851 -0.491779 2.25612e-317)
(-0.14808 -0.531384 2.05738e-317)
(-0.109639 -0.51156 1.78326e-317)
(-0.0519703 -0.414813 1.35638e-317)
(-0.0176509 -0.187354 6.45966e-318)
(-0.00585178 0.183883 5.5261e-318)
(-0.0186075 0.35268 1.2912e-317)
(-0.0285498 0.414225 1.78835e-317)
(-0.0413161 0.406898 2.12738e-317)
(-0.0551168 0.370096 2.34609e-317)
(-0.0702806 0.310932 2.48285e-317)
(-0.0862647 0.245544 2.55462e-317)
(-0.102866 0.172061 2.58122e-317)
(-0.118894 0.096295 2.57176e-317)
(-0.13555 0.0146661 2.53768e-317)
(-0.149207 -0.071155 2.48366e-317)
(-0.163733 -0.163414 2.41631e-317)
(-0.170639 -0.260818 2.33668e-317)
(-0.178576 -0.36089 2.247e-317)
(-0.170631 -0.459044 2.14293e-317)
(-0.164956 -0.541596 2.01802e-317)
(-0.131762 -0.596093 1.85302e-317)
(-0.108404 -0.586941 1.61657e-317)
(-0.048412 -0.488737 1.2354e-317)
(-0.0252473 -0.233848 5.92573e-318)
(0.00120481 0.169888 1.24627e-318)
(-0.00344997 0.329437 5.01845e-318)
(0.00307269 0.391177 8.75961e-318)
(0.00119246 0.38726 1.21579e-317)
(0.00081412 0.355822 1.49043e-317)
(-0.00522854 0.302052 1.70539e-317)
(-0.012149 0.242011 1.86034e-317)
(-0.0231145 0.173248 1.96649e-317)
(-0.0349547 0.101547 2.02973e-317)
(-0.0505829 0.0229078 2.05968e-317)
(-0.0656155 -0.0613053 2.06137e-317)
(-0.0847562 -0.154028 2.0413e-317)
(-0.0991855 -0.254584 2.0014e-317)
(-0.11776 -0.361178 1.94395e-317)
(-0.122591 -0.469821 1.86532e-317)
(-0.131751 -0.565613 1.7599e-317)
(-0.111825 -0.635617 1.61032e-317)
(-0.102033 -0.635873 1.39148e-317)
(-0.0463313 -0.53801 1.04461e-317)
(-0.0298202 -0.254735 4.85197e-318)
(0.00646736 0.159065 -2.19519e-318)
(0.00906401 0.310325 -1.37783e-318)
(0.027595 0.370284 1.32664e-318)
(0.0344673 0.3699 4.67962e-318)
(0.0446294 0.342824 7.83332e-318)
(0.0465096 0.294632 1.05729e-317)
(0.0477083 0.239843 1.27607e-317)
(0.0425416 0.176275 1.44348e-317)
(0.035623 0.109384 1.56279e-317)
(0.0223494 0.0347356 1.64189e-317)
(0.00794475 -0.0462253 1.68582e-317)
(-0.0140047 -0.137984 1.70057e-317)
(-0.033327 -0.239321 1.68847e-317)
(-0.0617091 -0.351691 1.65134e-317)
(-0.0768763 -0.468775 1.58589e-317)
(-0.103167 -0.580984 1.48663e-317)
(-0.0940003 -0.667406 1.33875e-317)
(-0.104491 -0.689795 1.12314e-317)
(-0.0456707 -0.598356 8.02383e-318)
(-0.0455798 -0.300998 3.34607e-318)
(0.0112104 0.140282 -4.6966e-318)
(0.0193158 0.277246 -6.12689e-318)
(0.048763 0.334743 -4.29329e-318)
(0.0634183 0.337386 -1.08638e-318)
(0.0835678 0.316026 2.28627e-318)
(0.0932557 0.274585 5.40584e-318)
(0.102856 0.226927 8.03438e-318)
(0.104431 0.170583 1.01496e-317)
(0.103733 0.110834 1.17579e-317)
(0.0950895 0.0430084 1.29209e-317)
(0.0835936 -0.0317458 1.36841e-317)
(0.0626476 -0.118773 1.41023e-317)
(0.0409867 -0.217518 1.41984e-317)
(0.0080285 -0.331321 1.39877e-317)
(-0.0167433 -0.454706 1.3438e-317)
(-0.0540378 -0.580171 1.24984e-317)
(-0.0607562 -0.686041 1.10472e-317)
(-0.0847598 -0.730611 8.94681e-318)
(-0.0394989 -0.655015 6.02033e-318)
(-0.0451181 -0.341522 2.1653e-318)
(0.0160965 0.12442 -6.23213e-318)
(0.0273425 0.247563 -9.23653e-318)
(0.0655423 0.300802 -8.12288e-318)
(0.085487 0.306199 -5.16519e-318)
(0.113772 0.289244 -1.76129e-318)
(0.129893 0.254268 1.52793e-318)
(0.147205 0.213174 4.39933e-318)
(0.155405 0.164074 6.77701e-318)
(0.161601 0.111765 8.64703e-318)
(0.158705 0.0514901 1.00513e-317)
(0.152307 -0.0154698 1.10296e-317)
(0.134361 -0.0958526 1.1628e-317)
(0.11392 -0.188347 1.18693e-317)
(0.0777093 -0.300423 1.1764e-317)
(0.0473892 -0.42365 1.1287e-317)
(-0.00403317 -0.5599 1.03912e-317)
(-0.0228378 -0.676485 8.98863e-318)
(-0.0730322 -0.747672 6.98159e-318)
(-0.0318457 -0.681569 4.35052e-318)
(-0.0655876 -0.371296 1.21123e-318)
(0.0187009 0.102631 -6.76014e-318)
(0.0332426 0.210719 -1.07274e-317)
(0.0774831 0.260014 -1.02412e-317)
(0.102739 0.26791 -7.65317e-318)
(0.137983 0.255527 -4.40596e-318)
(0.160699 0.226856 -1.14262e-318)
(0.185485 0.192489 1.79007e-318)
(0.201007 0.150896 4.27539e-318)
(0.214824 0.106438 6.27595e-318)
(0.219669 0.0546292 7.81585e-318)
(0.220379 -0.00355138 8.92549e-318)
(0.209767 -0.0751507 9.64475e-318)
(0.193705 -0.159509 9.99471e-318)
(0.162078 -0.265863 9.98728e-318)
(0.128405 -0.387144 9.60426e-318)
(0.0752125 -0.529385 8.81103e-318)
(0.0386874 -0.660804 7.54794e-318)
(-0.0198543 -0.759397 5.75121e-318)
(-0.0119748 -0.723649 3.47944e-318)
(-0.046653 -0.425481 8.86675e-319)
(0.0217354 0.0863807 -6.95486e-318)
(0.0358557 0.179139 -1.14301e-317)
(0.0844004 0.222529 -1.13831e-317)
(0.112092 0.231614 -9.14782e-318)
(0.152534 0.222235 -6.12255e-318)
(0.179941 0.198993 -2.98583e-318)
(0.210889 0.17044 -1.01175e-319)
(0.232542 0.135808 2.38555e-318)
(0.253482 0.0988398 4.42194e-318)
(0.265702 0.0554275 6.01519e-318)
(0.274489 0.00664075 7.18888e-318)
(0.271755 -0.0550197 7.97498e-318)
(0.263294 -0.128226 8.3952e-318)
(0.236633 -0.225061 8.46199e-318)
(0.205535 -0.336129 8.16781e-318)
(0.146203 -0.476674 7.49018e-318)
(0.100828 -0.605223 6.40048e-318)
(0.0145281 -0.721106 4.85776e-318)
(0.00926187 -0.688965 2.94343e-318)
(-0.0691391 -0.409629 7.81108e-319)
(0.0215135 0.0649299 -6.18251e-318)
(0.0366876 0.144582 -1.08071e-317)
(0.0866043 0.182843 -1.11914e-317)
(0.117458 0.193207 -9.41382e-318)
(0.161837 0.18644 -6.74778e-318)
(0.193866 0.168019 -3.87747e-318)
(0.230076 0.144755 -1.17273e-318)
(0.257588 0.116534 1.19805e-318)
(0.285163 0.0864924 3.16743e-318)
(0.305381 0.0511311 4.7285e-318)
(0.322806 0.0113147 5.8959e-318)
(0.331142 -0.039961 6.69701e-318)
(0.332459 -0.101757 7.15309e-318)
(0.319273 -0.186606 7.27974e-318)
(0.293355 -0.286696 7.07805e-318)
(0.246069 -0.421067 6.54113e-318)
(0.186605 -0.55199 5.65876e-318)
(0.106643 -0.689474 4.40914e-318)
(0.0464896 -0.695951 2.84479e-318)
(-0.0175518 -0.470865 9.8657e-319)
(0.0208248 0.0516449 -6.08278e-318)
(0.0327318 0.116454 -1.04945e-317)
(0.0815762 0.147547 -1.09836e-317)
(0.112452 0.15698 -9.45683e-318)
(0.158148 0.151582 -7.06787e-318)
(0.192058 0.137021 -4.44795e-318)
(0.230776 0.118277 -1.94856e-318)
(0.261408 0.0957749 2.63777e-319)
(0.293096 0.071894 2.11885e-318)
(0.318556 0.0438576 3.60258e-318)
(0.343002 0.012414 4.72539e-318)
(0.35969 -0.0286074 5.50992e-318)
(0.371546 -0.0781162 5.97855e-318)
(0.368584 -0.148319 6.14671e-318)
(0.353873 -0.231179 6.02532e-318)
(0.310623 -0.348718 5.61727e-318)
(0.253451 -0.460793 4.93002e-318)
(0.151887 -0.590826 3.95086e-318)
(0.0796551 -0.585572 2.69295e-318)
(-0.0436076 -0.378508 1.09311e-318)
(0.0169045 0.0342753 -4.5997e-318)
(0.0280706 0.088673 -8.78223e-318)
(0.075001 0.113511 -9.5315e-318)
(0.107001 0.12247 -8.43611e-318)
(0.153684 0.118006 -6.45903e-318)
(0.188826 0.106768 -4.21368e-318)
(0.229049 0.0920329 -2.02406e-318)
(0.261492 0.0745227 -6.47671e-320)
(0.295953 0.0561392 1.59209e-318)
(0.325807 0.0345362 2.92581e-318)
(0.356182 0.0106167 3.94248e-318)
(0.382448 -0.0210454 4.66078e-318)
(0.404752 -0.0589976 5.10189e-318)
(0.418971 -0.114819 5.28353e-318)
(0.416328 -0.180922 5.22064e-318)
(0.398204 -0.281716 4.92499e-318)
(0.337573 -0.381091 4.40806e-318)
(0.266807 -0.519403 3.66364e-318)
(0.128329 -0.55029 2.6601e-318)
(0.0549881 -0.445943 1.24741e-318)
(0.0114233 0.026243 -4.74548e-318)
(0.0175715 0.0656117 -8.1397e-318)
(0.0579541 0.0824421 -8.65413e-318)
(0.0870814 0.0886668 -7.63621e-318)
(0.129379 0.0848767 -5.92929e-318)
(0.161778 0.0766181 -4.00522e-318)
(0.198232 0.0655704 -2.1395e-318)
(0.228217 0.0527011 -4.68681e-319)
(0.260328 0.0389035 9.45973e-319)
(0.289177 0.0228825 2.08842e-318)
(0.320281 0.00493049 2.96437e-318)
(0.348606 -0.0183918 3.58972e-318)
(0.377125 -0.0465245 3.98352e-318)
(0.397837 -0.0870512 4.16318e-318)
(0.409121 -0.135543 4.14616e-318)
(0.398866 -0.208294 3.94688e-318)
(0.357412 -0.279913 3.58267e-318)
(0.275989 -0.375866 3.04984e-318)
(0.153852 -0.378163 2.29076e-318)
(0.0110532 -0.252364 1.12824e-318)
(0.0035956 0.0152955 -2.74623e-318)
(0.00980786 0.0463672 -5.81771e-318)
(0.047618 0.0566845 -6.45351e-318)
(0.0750262 0.0612691 -5.83241e-318)
(0.115206 0.0578459 -4.5451e-318)
(0.143675 0.0519546 -3.06146e-318)
(0.177099 0.0443012 -1.59458e-318)
(0.20317 0.0352745 -2.76914e-319)
(0.232731 0.0260524 8.42792e-319)
(0.259743 0.0148678 1.74703e-318)
(0.290547 0.00310283 2.44144e-318)
(0.321741 -0.0130426 2.93767e-318)
(0.354638 -0.0310114 3.25283e-318)
(0.387581 -0.0591932 3.4022e-318)
(0.409831 -0.0898357 3.40173e-318)
(0.428693 -0.14422 3.26621e-318)
(0.395541 -0.192374 3.00966e-318)
(0.37111 -0.289812 2.63131e-318)
(0.193298 -0.313735 2.06659e-318)
(0.167146 -0.340725 1.10699e-318)
(-0.00306174 0.0121724 -2.87286e-318)
(-0.0026437 0.0249365 -4.50471e-318)
(0.0212076 0.0285898 -4.67788e-318)
(0.0394914 0.0303849 -4.09177e-318)
(0.0649324 0.0284588 -3.1985e-318)
(0.0837307 0.0257046 -2.21088e-318)
(0.104022 0.0213747 -1.26638e-318)
(0.120694 0.0165124 -4.25074e-319)
(0.138758 0.0106306 2.84799e-319)
(0.155811 0.0038653 8.58059e-319)
(0.176188 -0.00419913 1.29839e-318)
(0.19617 -0.0140654 1.61498e-318)
(0.221144 -0.0261846 1.81925e-318)
(0.242673 -0.0415523 1.9207e-318)
(0.26656 -0.0606526 1.93215e-318)
(0.276824 -0.0840337 1.86481e-318)
(0.272708 -0.110732 1.73031e-318)
(0.236512 -0.13259 1.52963e-318)
(0.147858 -0.130402 1.20896e-318)
(0.0453529 -0.0341187 6.27814e-319)
(-0.00892546 0.00469269 -6.51613e-319)
(-0.00222116 0.0149801 -1.8518e-318)
(0.0176651 0.0147028 -2.00811e-318)
(0.028997 0.0154382 -1.80372e-318)
(0.04822 0.0138262 -1.35563e-318)
(0.0571715 0.0122025 -8.7338e-319)
(0.0713985 0.0108135 -4.0169e-319)
(0.0792854 0.00870197 1.10275e-320)
(0.0914082 0.00756157 3.57753e-319)
(0.101295 0.00512069 6.3441e-319)
(0.114933 0.00405912 8.45707e-319)
(0.130084 0.000637359 9.96091e-319)
(0.147664 -0.000504823 1.09184e-318)
(0.170776 -0.00679528 1.13831e-318)
(0.189842 -0.00792022 1.14114e-318)
(0.220736 -0.0232681 1.10628e-318)
(0.219169 -0.0229009 1.04206e-318)
(0.252877 -0.0713846 9.55078e-319)
(0.140062 -0.064424 8.29383e-319)
(0.222087 -0.205391 5.69065e-319)
)
;

boundaryField
{
    cavity
    {
        type            myHeatFlux;
        ThetaWall       uniform 0;
        value           nonuniform List<vector> 
60
(
(0.001 0 0)
(0.001 0 0)
(0.001 0 0)
(0.001 0 0)
(0.001 0 0)
(0.001 0 0)
(0.001 0 0)
(0.001 0 0)
(0.001 0 0)
(0.001 0 0)
(0.001 0 0)
(0.001 0 0)
(0.001 0 0)
(0.001 0 0)
(0.001 0 0)
(0.001 0 0)
(0.001 0 0)
(0.001 0 0)
(0.001 0 0)
(0.001 0 0)
(0 -0.001 0)
(0 -0.001 0)
(0 -0.001 0)
(0 -0.001 0)
(0 -0.001 0)
(0 -0.001 0)
(0 -0.001 0)
(0 -0.001 0)
(0 -0.001 0)
(0 -0.001 0)
(0 -0.001 0)
(0 -0.001 0)
(0 -0.001 0)
(0 -0.001 0)
(0 -0.001 0)
(0 -0.001 0)
(0 -0.001 0)
(0 -0.001 0)
(0 -0.001 0)
(0 -0.001 0)
(-0.001 0 0)
(-0.001 0 0)
(-0.001 0 0)
(-0.001 0 0)
(-0.001 0 0)
(-0.001 0 0)
(-0.001 0 0)
(-0.001 0 0)
(-0.001 0 0)
(-0.001 0 0)
(-0.001 0 0)
(-0.001 0 0)
(-0.001 0 0)
(-0.001 0 0)
(-0.001 0 0)
(-0.001 0 0)
(-0.001 0 0)
(-0.001 0 0)
(-0.001 0 0)
(-0.001 0 0)
)
;
    }
    lid
    {
        type            myHeatFlux;
        ThetaWall       uniform 0;
        value           nonuniform List<vector> 
20
(
(0.000135815 0.0009 0)
(0.000135815 0.0009 0)
(0.000135815 0.0009 0)
(0.000135815 0.0009 0)
(0.000135815 0.0009 0)
(0.000135815 0.0009 0)
(0.000135815 0.0009 0)
(0.000135815 0.0009 0)
(0.000135815 0.0009 0)
(0.000135815 0.0009 0)
(0.000135815 0.0009 0)
(0.000135815 0.0009 0)
(0.000135815 0.0009 0)
(0.000135815 0.0009 0)
(0.000135815 0.0009 0)
(0.000135815 0.0009 0)
(0.000135815 0.0009 0)
(0.000135815 0.0009 0)
(0.000135815 0.0009 0)
(0.000135815 0.0009 0)
)
;
    }
    frontAndBack
    {
        type            empty;
    }
}


// ************************************************************************* //
