/*--------------------------------*- C++ -*----------------------------------*\
| =========                 |                                                 |
| \\      /  F ield         | foam-extend: Open Source CFD                    |
|  \\    /   O peration     | Version:  3.0                                   |
|   \\  /    A nd           | Web:         http://www.extend-project.de       |
|    \\/     M anipulation  |                                                 |
\*---------------------------------------------------------------------------*/
FoamFile
{
    version     2.0;
    format      ascii;
    class       volSymmTensorField;
    location    "76";
    object      sigma;
}
// * * * * * * * * * * * * * * * * * * * * * * * * * * * * * * * * * * * * * //

dimensions      [0 0 0 0 0 0 0];

internalField   nonuniform List<symmTensor> 
7680
(
(-0.183977 -0.0031692 -2.01106e-20 0.183836 -3.0646e-20 0.000141747)
(-0.183489 -0.00326411 6.00919e-20 0.183102 1.05224e-19 0.000386786)
(-0.181011 -0.00323756 -1.02681e-21 0.180411 -1.10479e-19 0.00060013)
(-0.177113 -0.00311224 2.13813e-22 0.176329 5.61203e-20 0.00078416)
(-0.172401 -0.00291862 1.17124e-20 0.171462 -4.76197e-20 0.000938898)
(-0.167051 -0.00266501 -8.42009e-21 0.165984 2.12127e-20 0.00106757)
(-0.161444 -0.00236857 2.55242e-20 0.160275 -7.88141e-20 0.00116942)
(-0.155593 -0.00203172 9.62226e-21 0.154345 -1.4746e-20 0.00124818)
(-0.149748 -0.0016642 7.86939e-21 0.148445 -1.01353e-19 0.00130297)
(-0.143862 -0.00126622 1.9449e-20 0.142525 7.74132e-22 0.00133744)
(-0.138104 -0.000843152 -3.86431e-20 0.136753 -1.19895e-19 0.00135126)
(-0.13241 -0.000394325 1.84784e-20 0.131063 6.15007e-20 0.00134741)
(-0.126897 7.75119e-05 1.68417e-22 0.12557 -1.04028e-19 0.0013266)
(-0.121502 0.000573536 -3.47895e-20 0.120211 7.45066e-20 0.00129107)
(-0.116306 0.00109269 -2.5221e-20 0.115063 -1.87834e-20 0.00124255)
(-0.111256 0.00163628 4.5169e-21 0.110073 1.34641e-19 0.00118294)
(-0.106406 0.00220432 -1.32339e-20 0.105292 -1.11179e-19 0.00111448)
(-0.101717 0.00279812 -6.85212e-22 0.100678 2.25341e-19 0.00103893)
(-0.0972218 0.00341851 1.71544e-20 0.0962631 -1.28561e-19 0.00095865)
(-0.0928922 0.00406677 -3.20649e-21 0.0920173 2.06169e-19 0.00087496)
(-0.0887485 0.00474438 -2.9585e-20 0.0879581 -7.23251e-20 0.000790382)
(-0.0847724 0.00545262 -3.14851e-20 0.084067 1.73746e-19 0.000705318)
(-0.0809725 0.00619343 -2.98964e-20 0.0803497 -2.72489e-20 0.000622779)
(-0.0773413 0.00696815 -2.94941e-20 0.0767991 2.06582e-19 0.000542201)
(-0.0738773 0.00777869 6.43557e-21 0.0734106 -1.8764e-20 0.000466751)
(-0.0705831 0.00862671 -6.66546e-20 0.0701878 1.65993e-19 0.000395233)
(-0.0674483 0.00951298 1.6086e-20 0.0671178 1.00634e-19 0.000330477)
(-0.0644838 0.0104403 -1.48823e-20 0.0642135 1.3115e-19 0.000270343)
(-0.0616729 0.0114062 2.24236e-20 0.0614554 1.04938e-19 0.000217472)
(-0.059032 0.0124164 -5.10579e-20 0.0588633 4.73714e-20 0.000168725)
(-0.0565417 0.0134628 -1.60654e-21 0.0564148 6.77965e-20 0.000126859)
(-0.0542185 0.0145557 -4.26776e-20 0.0541303 -5.29065e-21 8.82799e-05)
(-0.0520468 0.0156801 2.75016e-20 0.0519912 3.89421e-20 5.56814e-05)
(-0.050032 0.0168496 -6.48935e-20 0.0500065 -5.48275e-21 2.5414e-05)
(-0.0481745 0.0180445 1.68648e-20 0.0481737 1.31475e-20 7.32961e-07)
(-0.0464466 0.0192804 -8.11054e-20 0.0464678 4.13324e-20 -2.11688e-05)
(-0.0448885 0.0205382 8.73211e-21 0.0449245 -1.20268e-19 -3.60302e-05)
(-0.0434037 0.0218313 1.21267e-21 0.0434489 7.98059e-20 -4.52423e-05)
(-0.0421331 0.0231666 -3.56678e-20 0.0421748 -1.12098e-19 -4.1651e-05)
(-0.0407939 0.0248378 4.01986e-20 0.0408157 5.45096e-21 -2.17805e-05)
(-0.18384 -0.0088168 1.98374e-20 0.1837 3.75015e-20 0.000139195)
(-0.183264 -0.00970185 -3.92609e-20 0.182885 8.65173e-20 0.000379774)
(-0.180727 -0.0101933 -3.49658e-20 0.180138 4.41531e-20 0.000589079)
(-0.176792 -0.0103744 4.85572e-20 0.176023 -8.8316e-21 0.000769417)
(-0.172059 -0.0103477 -1.74195e-20 0.171138 2.23804e-21 0.000920838)
(-0.166701 -0.0101478 4.98925e-21 0.165655 5.50682e-20 0.00104642)
(-0.161095 -0.00983225 -3.60608e-20 0.159949 7.74181e-20 0.00114552)
(-0.155252 -0.00941559 -1.15408e-20 0.15403 2.30158e-20 0.00122164)
(-0.149421 -0.00893056 -7.63157e-21 0.148147 1.48351e-19 0.00127413)
(-0.143554 -0.00838341 8.62581e-21 0.142247 1.15696e-19 0.00130636)
(-0.137818 -0.00779265 5.54913e-20 0.1365 -1.26833e-20 0.00131823)
(-0.13215 -0.00716083 6.87391e-21 0.130838 7.32065e-20 0.00131246)
(-0.126666 -0.00649812 2.73703e-20 0.125376 -7.76625e-20 0.00128999)
(-0.121302 -0.00580536 5.31796e-20 0.120049 6.67107e-20 0.00125281)
(-0.11614 -0.00508763 3.53376e-20 0.114937 -1.55329e-19 0.00120286)
(-0.111125 -0.00434508 -6.3988e-20 0.109983 -1.14512e-20 0.00114183)
(-0.106313 -0.0035796 7.15219e-20 0.105241 -6.74142e-21 0.00107209)
(-0.101662 -0.00279122 -2.07203e-20 0.100667 -5.18684e-20 0.000995308)
(-0.0972076 -0.00197953 -1.02854e-20 0.0962937 8.68302e-20 0.000913861)
(-0.09292 -0.00114473 1.48475e-20 0.0920909 -4.77259e-20 0.000829082)
(-0.0888199 -0.000284663 -6.30267e-20 0.0880765 9.01144e-21 0.000743414)
(-0.0848887 0.000600181 4.47394e-20 0.0842313 -8.62472e-20 0.000657387)
(-0.0811356 0.00151328 -1.4033e-20 0.0805618 3.97808e-20 0.000573836)
(-0.0775523 0.00245387 2.53176e-20 0.0770599 -1.42947e-19 0.000492457)
(-0.0741383 0.00342608 -9.89343e-20 0.0737221 -1.06039e-20 0.000416135)
(-0.0708951 0.00442921 9.09781e-20 0.070551 -9.55123e-20 0.000344049)
(-0.0678137 0.00546658 -4.74283e-20 0.067535 -9.04746e-21 0.000278674)
(-0.0649039 0.00653886 5.67573e-21 0.0646856 -5.91793e-20 0.000218277)
(-0.0621507 0.00764558 -7.17378e-20 0.0619856 -7.45153e-20 0.000165145)
(-0.0595692 0.00879177 -3.78356e-20 0.0594527 9.2935e-21 0.000116557)
(-0.0571427 0.00996824 -3.73746e-20 0.0570677 -3.9873e-20 7.49783e-05)
(-0.0548866 0.0111895 -3.78413e-20 0.0548493 -3.04225e-21 3.72837e-05)
(-0.0527889 0.0124307 3.44039e-20 0.052783 -2.3667e-20 5.98145e-06)
(-0.0508543 0.0137219 1.4758e-20 0.0508765 -5.95855e-20 -2.21557e-05)
(-0.0490881 0.015013 1.98348e-20 0.049132 1.97599e-20 -4.39488e-05)
(-0.0474621 0.0163615 -1.28608e-19 0.0475239 -4.68544e-21 -6.18093e-05)
(-0.0460182 0.0176782 -2.67259e-20 0.0460896 -7.93457e-22 -7.13703e-05)
(-0.0446557 0.019072 4.42923e-21 0.0447292 2.01153e-20 -7.35005e-05)
(-0.0435163 0.020393 -8.24481e-20 0.0435769 -2.42797e-20 -6.06796e-05)
(-0.042311 0.0221263 -1.9087e-20 0.04234 1.8261e-20 -2.89853e-05)
(-0.183551 -0.0144649 1.88648e-20 0.183414 -7.0073e-20 0.000136658)
(-0.182784 -0.0161242 7.18526e-20 0.182411 3.34435e-20 0.000372659)
(-0.180112 -0.0171222 -2.20536e-20 0.179534 -2.36166e-19 0.000577832)
(-0.176088 -0.0176022 -3.0278e-20 0.175333 1.2938e-19 0.000754419)
(-0.171296 -0.017737 6.96237e-20 0.170393 -1.46737e-19 0.000902444)
(-0.165906 -0.0175874 4.45641e-20 0.164881 -1.76042e-20 0.00102489)
(-0.160284 -0.0172507 2.44129e-20 0.159163 -1.26326e-19 0.00112121)
(-0.154442 -0.0167534 5.53581e-20 0.153247 1.61156e-20 0.00119472)
(-0.148621 -0.0161509 8.75107e-20 0.147377 -2.97021e-20 0.0012449)
(-0.142774 -0.0154553 -8.81064e-20 0.141499 -1.00647e-21 0.00127492)
(-0.137065 -0.014698 -5.29503e-20 0.13578 -1.69806e-19 0.00128487)
(-0.131429 -0.0138848 -3.669e-20 0.130152 8.22197e-20 0.00127725)
(-0.125981 -0.0130332 4.4687e-21 0.124728 -6.99364e-20 0.00125316)
(-0.120657 -0.012146 -9.9594e-20 0.119443 6.78382e-20 0.00121445)
(-0.115538 -0.0112323 -8.99157e-20 0.114375 6.37774e-20 0.00116312)
(-0.110569 -0.0102936 1.11052e-19 0.109468 1.10999e-19 0.00110081)
(-0.105805 -0.00933365 -3.53491e-20 0.104775 4.63059e-20 0.00102987)
(-0.101204 -0.00835395 6.21839e-20 0.100252 1.7197e-19 0.000951973)
(-0.0968014 -0.0073544 5.45413e-20 0.095932 -1.56786e-19 0.000869433)
(-0.0925672 -0.00633675 -8.59089e-20 0.0917835 1.41287e-19 0.000783654)
(-0.088522 -0.00529819 -5.23961e-20 0.087825 -4.26557e-20 0.000696952)
(-0.0846471 -0.0042409 -2.16433e-20 0.0840371 1.38678e-19 0.000610019)
(-0.0809516 -0.00316013 -6.87217e-20 0.0804261 -8.57693e-21 0.000525499)
(-0.0774274 -0.00205839 -8.58574e-20 0.0769841 7.01389e-20 0.000443346)
(-0.0740737 -0.00092999 4.30998e-20 0.0737075 1.98647e-19 0.000366195)
(-0.0708925 0.000222862 -6.76339e-20 0.070599 1.05941e-19 0.000293532)
(-0.0678742 0.0014049 5.90728e-20 0.0676466 2.08346e-19 0.000227578)
(-0.0650299 0.00261614 -7.18948e-20 0.064863 4.31945e-20 0.000166894)
(-0.062343 0.00385655 8.66747e-20 0.0622294 1.85783e-19 0.000113574)
(-0.0598315 0.00513247 -3.82707e-21 0.0597664 -4.21143e-21 6.5164e-05)
(-0.0574761 0.00643301 -1.4135e-20 0.0574521 1.09526e-19 2.40286e-05)
(-0.0552974 0.0077771 -2.18041e-20 0.0553101 7.48497e-20 -1.27072e-05)
(-0.0532798 0.00913467 -5.53589e-20 0.0533223 2.01036e-19 -4.25529e-05)
(-0.051434 0.0105438 -1.08723e-21 0.0515025 -2.72374e-19 -6.84906e-05)
(-0.0497645 0.0119435 6.53339e-20 0.0498518 2.18375e-19 -8.73066e-05)
(-0.0482401 0.0134007 -9.25585e-20 0.0483412 -8.99009e-20 -0.000101069)
(-0.0469247 0.014806 2.48167e-20 0.04703 1.04832e-20 -0.00010533)
(-0.0456487 0.016282 -3.75725e-20 0.0457493 1.38779e-19 -0.000100517)
(-0.0447172 0.0176145 -3.49673e-20 0.0447961 -7.18551e-20 -7.88767e-05)
(-0.0434675 0.0193584 2.02747e-20 0.0435035 2.1619e-19 -3.59407e-05)
(-0.183111 -0.0201094 7.08755e-20 0.182977 9.32264e-20 0.000134002)
(-0.182049 -0.0225171 -1.01738e-19 0.181684 5.16085e-20 0.0003653)
(-0.179168 -0.0240027 -1.19487e-20 0.178602 3.133e-19 0.000566223)
(-0.175003 -0.0247683 1.41003e-19 0.174264 -2.24471e-19 0.000738965)
(-0.170117 -0.0250551 -1.20632e-19 0.169233 9.63834e-20 0.000883538)
(-0.164671 -0.0249497 2.23111e-20 0.163668 7.6465e-20 0.0010028)
(-0.159019 -0.0245879 -2.21316e-20 0.157923 9.55693e-20 0.00109631)
(-0.153169 -0.0240078 6.00236e-20 0.152002 -2.69628e-20 0.00116719)
(-0.147356 -0.0232871 1.30521e-20 0.146141 -8.99023e-20 0.00121505)
(-0.141529 -0.0224434 -6.80944e-20 0.140286 -5.03274e-20 0.00124287)
(-0.13585 -0.0215208 1.00909e-19 0.1346 5.93262e-20 0.00125089)
(-0.130252 -0.0205282 7.75982e-20 0.129011 2.10256e-20 0.00124145)
(-0.124848 -0.0194901 3.95681e-20 0.123633 -1.58203e-19 0.00121572)
(-0.119573 -0.0184113 1.49013e-19 0.118398 1.28735e-19 0.00117551)
(-0.114507 -0.0173047 7.14625e-20 0.113384 -1.81366e-20 0.00112278)
(-0.109594 -0.0161733 -1.15265e-19 0.108534 3.27259e-19 0.00105921)
(-0.104888 -0.0150227 1.74845e-19 0.103901 -2.09346e-19 0.000987048)
(-0.100348 -0.0138556 -2.19541e-19 0.0994395 2.32014e-19 0.000908069)
(-0.0960076 -0.0126724 -1.40191e-20 0.0951832 -1.46657e-19 0.000824411)
(-0.0918372 -0.0114762 1.10147e-19 0.0910995 1.46467e-19 0.000737649)
(-0.0878577 -0.0102635 -5.73998e-20 0.0872078 -1.45976e-19 0.000649879)
(-0.0840493 -0.00903846 7.74214e-20 0.0834872 1.66005e-20 0.000562059)
(-0.080422 -0.00779466 -7.28558e-20 0.0799454 3.7418e-21 0.000476541)
(-0.0769667 -0.00653689 1.95025e-19 0.076573 1.63867e-19 0.000393644)
(-0.0736832 -0.00525716 -2.96712e-20 0.0733675 -1.26478e-19 0.000315653)
(-0.0705731 -0.00396026 1.06435e-19 0.0703306 7.91967e-20 0.000242458)
(-0.0676269 -0.00263865 -7.92777e-20 0.0674509 -6.64515e-21 0.00017593)
(-0.0648557 -0.00129484 -2.18591e-20 0.0647407 9.46625e-20 0.000115036)
(-0.0622423 7.37897e-05 -9.18847e-20 0.0621807 -1.5902e-19 6.15514e-05)
(-0.0598067 0.00147249 -1.19944e-19 0.0597932 9.8072e-20 1.3466e-05)
(-0.0575259 0.00289043 6.6138e-20 0.057553 -4.44094e-20 -2.71527e-05)
(-0.0554273 0.00435096 9.48747e-20 0.05549 4.49216e-20 -6.27239e-05)
(-0.0534867 0.00581449 -3.22912e-19 0.0535776 9.05193e-20 -9.09763e-05)
(-0.0517306 0.00734005 -1.42642e-20 0.0518451 -1.40986e-20 -0.000114459)
(-0.0501473 0.0088282 2.47693e-19 0.0502773 8.35395e-20 -0.000130086)
(-0.0487358 0.0104142 -3.61465e-19 0.0488753 4.42284e-20 -0.000139518)
(-0.0475382 0.0118634 2.30568e-19 0.0476765 6.17121e-20 -0.000138232)
(-0.0464203 0.0135204 -6.9698e-20 0.0465466 8.08475e-20 -0.00012632)
(-0.0456364 0.0147872 1.63204e-20 0.0457323 -9.84079e-20 -9.58951e-05)
(-0.0446729 0.0166605 -1.06729e-19 0.0447151 -1.85806e-19 -4.22337e-05)
(-0.182517 -0.0257508 3.82963e-20 0.182386 -1.67652e-19 0.000131297)
(-0.181062 -0.0288691 2.35368e-19 0.180704 -2.62625e-19 0.000357779)
(-0.177901 -0.0308148 -1.21279e-19 0.177346 -3.41682e-19 0.000554358)
(-0.173545 -0.0318466 -1.45245e-19 0.172822 -6.10039e-20 0.000723184)
(-0.168529 -0.0322717 2.54166e-19 0.167665 1.90357e-22 0.000864257)
(-0.163004 -0.0322011 6.83e-20 0.162024 -1.79792e-19 0.000980325)
(-0.157308 -0.0318081 -1.94845e-20 0.156237 -1.75563e-19 0.001071)
(-0.151443 -0.0311418 -7.92583e-20 0.150303 8.41212e-20 0.00113926)
(-0.145635 -0.0303012 7.38095e-20 0.14445 3.79262e-20 0.00118482)
(-0.139829 -0.0293093 -1.76018e-20 0.138619 1.10755e-19 0.0012105)
(-0.134184 -0.0282225 1.46527e-20 0.132968 -2.10716e-19 0.00121661)
(-0.12863 -0.0270523 -2.11058e-19 0.127425 1.23458e-19 0.00120542)
(-0.123277 -0.0258305 8.87789e-20 0.122099 -1.41971e-19 0.00117812)
(-0.118059 -0.0245633 -8.70171e-21 0.116923 1.90988e-19 0.00113649)
(-0.113055 -0.0232676 1.20642e-19 0.111972 -2.61096e-20 0.00108244)
(-0.108207 -0.0219477 -3.46834e-20 0.10719 1.79214e-19 0.0010177)
(-0.103571 -0.0206109 -6.99485e-20 0.102626 -2.7622e-19 0.000944395)
(-0.0991011 -0.019261 1.48982e-19 0.0982367 9.63723e-20 0.000864391)
(-0.0948342 -0.0178991 -7.49444e-20 0.0940545 4.7555e-20 0.000779684)
(-0.0907384 -0.0165295 -4.95836e-20 0.0900464 -5.05231e-20 0.000691966)
(-0.086835 -0.0151483 -2.07405e-19 0.0862318 2.08502e-19 0.000603173)
(-0.0831038 -0.0137611 1.10643e-19 0.0825893 1.6052e-19 0.000514467)
(-0.0795548 -0.0123605 5.45626e-20 0.0791268 1.12342e-19 0.00042798)
(-0.0761788 -0.010953 -1.51593e-19 0.0758345 -1.86153e-19 0.00034433)
(-0.0729754 -0.0095289 -5.92492e-20 0.0727099 2.9798e-19 0.000265528)
(-0.0699465 -0.00809503 9.6288e-20 0.0697547 -5.6504e-20 0.000191777)
(-0.0670816 -0.00664197 1.07467e-19 0.0669569 1.80615e-19 0.000124704)
(-0.0643938 -0.00517393 -1.90564e-19 0.0643302 4.00208e-20 6.35775e-05)
(-0.0618625 -0.00368662 7.04444e-20 0.0618525 3.41926e-19 9.97492e-06)
(-0.0595131 -0.00217577 1.11006e-19 0.0595509 1.86073e-19 -3.77864e-05)
(-0.0573148 -0.000651 -1.05261e-19 0.0573926 3.14184e-19 -7.78e-05)
(-0.0553073 0.000911489 2.1938e-19 0.0554195 -7.19774e-20 -0.000112198)
(-0.053449 0.00247277 -8.05335e-20 0.0535878 2.17907e-19 -0.000138769)
(-0.0517934 0.00409544 -9.33954e-20 0.0519532 1.086e-19 -0.000159787)
(-0.0502921 0.00567756 1.81457e-19 0.0504643 3.12376e-19 -0.000172178)
(-0.0489966 0.00737015 -8.03895e-20 0.0491739 -6.13613e-20 -0.000177285)
(-0.0478986 0.00890218 5.45571e-20 0.0480692 2.49534e-20 -0.000170512)
(-0.0468891 0.0106906 -1.77779e-19 0.0470407 9.84773e-20 -0.000151601)
(-0.0463523 0.0119832 -3.77786e-19 0.0464648 -5.99436e-20 -0.000112553)
(-0.0454661 0.0138286 1.65434e-19 0.0455146 1.85014e-19 -4.84982e-05)
(-0.181771 -0.0313849 2.28328e-20 0.181642 1.0216e-19 0.000128489)
(-0.179826 -0.0351666 -2.18952e-19 0.179476 3.4986e-19 0.000350028)
(-0.176316 -0.0375378 1.70922e-19 0.175773 -2.29398e-20 0.00054216)
(-0.171722 -0.0388112 2.19375e-19 0.171015 3.89489e-19 0.000706984)
(-0.166544 -0.0393569 -1.90337e-19 0.165699 1.46775e-20 0.000844487)
(-0.160918 -0.0393093 -4.47806e-20 0.159961 -6.76055e-20 0.000957314)
(-0.155165 -0.0388771 1.368e-19 0.15412 1.32117e-19 0.00104513)
(-0.149276 -0.0381199 2.12883e-19 0.148166 -8.69383e-20 0.00111076)
(-0.143471 -0.0371572 4.04702e-20 0.142317 -9.3376e-20 0.001154)
(-0.137688 -0.0360167 -2.56155e-19 0.13651 1.42721e-19 0.00117756)
(-0.13208 -0.0347667 9.10737e-20 0.130899 2.29499e-19 0.00118178)
(-0.126575 -0.0334212 1.11503e-19 0.125406 1.19325e-19 0.00116889)
(-0.121281 -0.0320187 4.01633e-20 0.120141 1.28851e-20 0.00114003)
(-0.116128 -0.0305669 2.94126e-19 0.115031 -1.84573e-19 0.00109704)
(-0.111195 -0.0290864 7.32164e-20 0.110153 2.9161e-20 0.0010417)
(-0.106422 -0.0275826 -2.30489e-19 0.105446 -6.55457e-20 0.000975841)
(-0.101864 -0.0260646 1.46201e-20 0.100963 1.73894e-19 0.000901444)
(-0.0974753 -0.0245373 4.69243e-20 0.0966549 2.14861e-19 0.000820465)
(-0.0932918 -0.0230021 -1.11131e-19 0.0925571 3.22783e-20 0.000734758)
(-0.0892804 -0.0214647 2.43159e-19 0.0886343 2.50301e-19 0.000646125)
(-0.0854634 -0.0199207 1.02406e-19 0.0849071 1.88933e-19 0.000556355)
(-0.0818191 -0.0183774 -4.44013e-20 0.0813523 2.08367e-19 0.000466797)
(-0.0783586 -0.0168257 -3.11768e-19 0.0779792 -1.94481e-19 0.000379387)
(-0.0750714 -0.0152746 3.44669e-19 0.0747764 2.59193e-19 0.000295008)
(-0.0719579 -0.0137119 8.38449e-20 0.0717425 5.93991e-20 0.000215445)
(-0.0690196 -0.0121477 -6.63749e-20 0.0688784 2.96496e-19 0.000141154)
(-0.0662457 -0.0105685 1.05284e-19 0.0661721 -1.33722e-19 7.35846e-05)
(-0.0636503 -0.00898327 1.5831e-19 0.0636381 1.27787e-19 1.22443e-05)
(-0.0612104 -0.00738207 5.32961e-20 0.0612518 -1.13624e-19 -4.14223e-05)
(-0.0589561 -0.00576634 -5.57957e-20 0.0590449 -9.90555e-20 -8.88165e-05)
(-0.0568484 -0.00413892 -9.7459e-20 0.0569766 -5.57661e-19 -0.00012815)
(-0.0549405 -0.00248183 -3.97791e-20 0.0551019 2.67242e-20 -0.000161312)
(-0.0531701 -0.000828677 1.46002e-20 0.0533562 -3.28755e-19 -0.000186108)
(-0.0516226 0.000882726 7.00902e-20 0.0518272 6.87834e-20 -0.000204592)
(-0.0502012 0.00254121 1.85954e-19 0.0504148 -3.15534e-19 -0.000213635)
(-0.0490368 0.0043399 -6.47434e-19 0.0492512 -1.3583e-19 -0.000214384)
(-0.0479926 0.00589358 4.63173e-19 0.0481946 -1.8472e-19 -0.000202023)
(-0.0472072 0.00794594 -8.57916e-20 0.0473834 -5.07707e-20 -0.00017616)
(-0.0466744 0.00916165 1.10571e-19 0.046803 -4.79448e-19 -0.000128617)
(-0.0461415 0.0114107 -3.19041e-19 0.046196 7.1855e-20 -5.44413e-05)
(-0.180869 -0.0370118 1.98058e-19 0.180743 -1.40304e-19 0.000125625)
(-0.178345 -0.0413986 1.44863e-19 0.178003 1.24863e-20 0.000342103)
(-0.174421 -0.0441527 -1.91805e-19 0.173891 -4.56711e-20 0.000529692)
(-0.169545 -0.0456376 7.82584e-23 0.168854 -3.44503e-19 0.000690443)
(-0.164173 -0.0462822 -1.76301e-22 0.163349 1.05783e-19 0.000824322)
(-0.158427 -0.0462429 -1.14784e-20 0.157493 4.1326e-19 0.000933885)
(-0.152603 -0.0457616 -7.18858e-20 0.151584 1.53374e-22 0.00101882)
(-0.146685 -0.0449076 -2.37389e-19 0.145604 1.3038e-19 0.00108184)
(-0.14088 -0.0438196 2.94657e-19 0.139757 -2.30096e-20 0.00112279)
(-0.135121 -0.0425297 2.15476e-19 0.133976 8.33233e-20 0.00114427)
(-0.129554 -0.0411174 -4.803e-20 0.128408 -1.73272e-20 0.00114666)
(-0.124104 -0.0395989 -3.65657e-19 0.122972 1.44222e-19 0.00113213)
(-0.118875 -0.038019 -1.70516e-19 0.117773 -1.37308e-20 0.0011018)
(-0.113796 -0.0363867 -5.9458e-20 0.112738 2.88849e-19 0.00105752)
(-0.108942 -0.0347263 3.37444e-19 0.107941 -1.66793e-19 0.00100099)
(-0.104253 -0.0330438 1.03652e-19 0.103319 -2.9438e-20 0.000934101)
(-0.0997832 -0.0313503 1.02845e-19 0.0989245 1.19229e-20 0.000858716)
(-0.0954848 -0.0296515 8.71289e-20 0.094708 -4.36085e-20 0.000776824)
(-0.0913942 -0.0279494 -3.51696e-20 0.090704 -1.13552e-19 0.000690208)
(-0.0874769 -0.0262507 1.1698e-19 0.0868762 -2.33422e-19 0.000600693)
(-0.0837556 -0.0245506 -1.3764e-19 0.0832456 7.5883e-21 0.000510008)
(-0.0802076 -0.0228579 -4.57864e-20 0.079788 -3.39782e-19 0.000419607)
(-0.0768446 -0.0211623 -2.02858e-20 0.0765133 2.01609e-19 0.00033131)
(-0.0736552 -0.0194748 4.46346e-20 0.073409 -1.46336e-19 0.000246188)
(-0.0706404 -0.0177811 1.3222e-19 0.0704745 -1.02776e-19 0.000165872)
(-0.067801 -0.016094 -3.6465e-20 0.06771 -7.5397e-20 9.09972e-05)
(-0.0651262 -0.014397 -9.92261e-20 0.0651033 6.69122e-21 2.28986e-05)
(-0.0626309 -0.0127029 -4.84048e-20 0.0626696 -3.11747e-19 -3.87214e-05)
(-0.0602897 -0.0109966 -1.92335e-19 0.0603822 6.26541e-19 -9.25268e-05)
(-0.0581371 -0.00928621 -2.57711e-19 0.0582767 -5.45114e-20 -0.000139626)
(-0.0561266 -0.00756499 -8.88246e-20 0.056305 3.68548e-19 -0.000178377)
(-0.0543237 -0.00582718 4.11471e-19 0.0545341 1.30201e-19 -0.000210367)
(-0.052647 -0.00408739 -2.11813e-20 0.0528805 -1.60904e-19 -0.000233512)
(-0.051214 -0.00230773 -1.24688e-19 0.0514635 2.26056e-19 -0.000249497)
(-0.0498775 -0.000560374 1.37021e-19 0.0501329 -1.38175e-19 -0.000255364)
(-0.0488598 0.00129792 -1.99975e-20 0.0491116 -3.1009e-20 -0.000251819)
(-0.047852 0.00296238 5.33108e-22 0.0480862 2.87131e-20 -0.000234132)
(-0.0473241 0.00503761 -4.55255e-19 0.0475254 -6.75902e-20 -0.000201345)
(-0.046614 0.00645956 -2.7633e-19 0.0467595 -1.52023e-19 -0.000145543)
(-0.0464221 0.0085476 3.3077e-19 0.0464832 6.30662e-19 -6.11151e-05)
(-0.17981 -0.0426269 8.75749e-20 0.179688 1.78475e-19 0.000122669)
(-0.176624 -0.0475521 -3.18935e-20 0.17629 -3.17246e-20 0.000333958)
(-0.172227 -0.0506403 -2.00428e-20 0.17171 1.39943e-19 0.000516899)
(-0.167027 -0.0523018 1.53215e-19 0.166353 7.60985e-19 0.000673493)
(-0.161433 -0.0530203 2.50106e-19 0.160629 9.65751e-20 0.000803682)
(-0.155548 -0.0529722 2.08348e-20 0.154638 -4.01234e-19 0.000909942)
(-0.149642 -0.0524303 1.93396e-20 0.14865 -4.75809e-20 0.000991977)
(-0.143689 -0.0514726 1.77976e-19 0.142637 -1.3396e-19 0.0010524)
(-0.137882 -0.0502556 -7.95682e-20 0.136791 -1.79619e-20 0.00109107)
(-0.132148 -0.0488152 -1.36305e-19 0.131037 -1.2421e-19 0.00111051)
(-0.126626 -0.0472417 2.89554e-19 0.125515 -9.64365e-20 0.0011111)
(-0.121236 -0.0455525 2.28893e-19 0.120141 -2.11787e-19 0.001095)
(-0.116079 -0.0437989 7.60022e-20 0.115016 1.1053e-19 0.00106326)
(-0.111081 -0.0419907 8.12556e-20 0.110063 4.06491e-21 0.00101778)
(-0.106314 -0.0401556 -1.37581e-19 0.105354 -3.66114e-19 0.000960146)
(-0.101718 -0.0383003 -1.09778e-19 0.100826 1.26027e-19 0.000892297)
(-0.0973453 -0.0364375 1.23031e-19 0.0965293 -3.23937e-19 0.000816015)
(-0.0931462 -0.0345737 -2.85487e-20 0.0924129 1.02904e-19 0.000733285)
(-0.0891577 -0.0327113 -1.76635e-19 0.0885118 -4.87659e-19 0.000645855)
(-0.0853433 -0.0308582 3.54142e-19 0.0847878 1.27893e-19 0.000555526)
(-0.081727 -0.029009 1.05893e-19 0.081263 -1.15839e-19 0.000464022)
(-0.0782841 -0.027174 8.34288e-20 0.0779113 1.06259e-19 0.00037283)
(-0.0750277 -0.0253413 -1.88806e-19 0.0747439 1.30702e-19 0.000283731)
(-0.0719447 -0.0235247 5.28356e-20 0.0717468 1.01498e-19 0.000197902)
(-0.0690375 -0.0217067 1.25357e-19 0.0689206 1.2154e-19 0.000116904)
(-0.0663055 -0.0199042 2.18577e-19 0.0662641 -2.81233e-19 4.14664e-05)
(-0.063739 -0.0180957 -2.50193e-19 0.0637661 2.28351e-19 -2.71016e-05)
(-0.0613525 -0.0163005 9.17348e-19 0.0614414 -5.29916e-19 -8.89794e-05)
(-0.0591197 -0.0144948 2.98961e-19 0.0592626 4.59556e-19 -0.000142867)
(-0.0570779 -0.0126978 -2.14879e-19 0.0572675 -5.52024e-19 -0.00018962)
(-0.0551752 -0.0108876 -2.33691e-19 0.0554029 4.49625e-19 -0.000227709)
(-0.0534863 -0.0090774 -5.7998e-19 0.0537447 -5.18515e-20 -0.000258408)
(-0.0519145 -0.00725543 1.10403e-19 0.0521943 1.59238e-19 -0.000279756)
(-0.0505995 -0.00541709 6.00039e-20 0.0508926 2.73331e-19 -0.000293022)
(-0.0493563 -0.003586 -2.38664e-19 0.0496518 1.17168e-19 -0.000295459)
(-0.0484625 -0.00168282 -4.6889e-19 0.0487499 2.33375e-20 -0.000287324)
(-0.0475019 8.247e-05 4.61912e-19 0.0477658 2.61294e-19 -0.000263929)
(-0.0471395 0.00218857 -2.99593e-19 0.0473634 2.63017e-19 -0.000223921)
(-0.0463723 0.00370515 7.46373e-19 0.0465319 -1.79071e-19 -0.000159615)
(-0.0463625 0.00582832 -6.09842e-19 0.0464282 7.54461e-20 -6.57147e-05)
(-0.178593 -0.0482295 1.15985e-19 0.178473 -1.4487e-19 0.000119649)
(-0.174669 -0.0536168 1.52698e-19 0.174343 -1.20061e-19 0.000325628)
(-0.169743 -0.0569831 2.24534e-19 0.169239 -1.09673e-19 0.000503822)
(-0.164182 -0.0587817 1.20491e-19 0.163525 -7.59198e-19 0.000656188)
(-0.15834 -0.0595456 -4.97191e-19 0.157557 -5.24197e-19 0.000782637)
(-0.152299 -0.0594692 -3.69706e-20 0.151414 1.24683e-19 0.000885572)
(-0.146301 -0.0588534 1.46403e-20 0.145337 2.17733e-19 0.000964701)
(-0.140309 -0.0577838 -1.7259e-19 0.139287 -7.75526e-21 0.00102254)
(-0.134499 -0.0564335 2.62856e-19 0.13344 3.23496e-19 0.00105896)
(-0.128792 -0.0548413 2.56639e-19 0.127715 -4.88202e-19 0.00107642)
(-0.123319 -0.0531072 -2.90521e-19 0.122243 2.95727e-19 0.00107529)
(-0.117994 -0.0512499 -7.16554e-20 0.116937 -3.2845e-19 0.0010577)
(-0.112915 -0.0493266 1.00356e-20 0.111891 6.77619e-20 0.00102465)
(-0.108005 -0.0473474 -2.83565e-19 0.107027 -1.37829e-19 0.000978048)
(-0.103334 -0.0453433 3.33181e-19 0.102415 2.4463e-19 0.000919429)
(-0.0988388 -0.0433214 1.6531e-19 0.0979881 -2.5839e-19 0.000850716)
(-0.0945708 -0.0412962 -9.49235e-20 0.0937972 4.45106e-19 0.000773659)
(-0.0904793 -0.0392745 8.93664e-20 0.0897892 -2.90379e-19 0.000690173)
(-0.0866012 -0.0372592 -2.65363e-19 0.0859991 2.69088e-19 0.000602042)
(-0.082898 -0.0352592 3.30104e-19 0.0823871 -5.14799e-20 0.000510959)
(-0.0793947 -0.0332685 -7.89332e-20 0.078976 -1.83086e-19 0.000418718)
(-0.0760647 -0.0312989 1.83524e-19 0.075738 -8.58918e-20 0.000326765)
(-0.0729224 -0.0293371 8.86111e-20 0.0726855 -1.50091e-19 0.000236905)
(-0.069953 -0.0273989 -4.39498e-20 0.0698027 -3.59147e-20 0.00015035)
(-0.0671605 -0.0254645 -3.61642e-19 0.0670919 1.69451e-19 6.86565e-05)
(-0.0645422 -0.0235541 2.35016e-19 0.0645497 -5.01161e-19 -7.43163e-06)
(-0.0620904 -0.0216418 -5.71773e-19 0.062167 1.22181e-19 -7.65667e-05)
(-0.0598172 -0.0197526 -1.39499e-19 0.0599561 1.92104e-19 -0.000138873)
(-0.0576985 -0.0178546 2.4716e-19 0.0578915 2.56471e-20 -0.000193044)
(-0.0557695 -0.0159779 -1.25484e-19 0.0560092 -2.49191e-19 -0.00023972)
(-0.0539789 -0.0140842 6.40129e-19 0.0542564 1.76744e-19 -0.000277447)
(-0.0524014 -0.0122091 1.5613e-19 0.0527086 -2.49386e-19 -0.000307242)
(-0.0509376 -0.010307 -9.08791e-21 0.0512648 5.85996e-19 -0.000327199)
(-0.0497313 -0.00842094 2.52777e-19 0.0500695 -7.16636e-19 -0.000338209)
(-0.0485873 -0.00650329 -1.42832e-19 0.0489251 5.44292e-19 -0.000337724)
(-0.0478008 -0.00458483 4.65628e-20 0.0481263 -1.79139e-19 -0.000325499)
(-0.0469154 -0.00270574 2.02578e-19 0.0472124 4.87015e-19 -0.00029695)
(-0.0466953 -0.000687718 -8.44092e-19 0.0469454 -3.19145e-19 -0.000250122)
(-0.0459038 0.00100967 -4.3506e-19 0.0460812 1.35692e-19 -0.000177492)
(-0.0462622 0.00287242 5.68598e-19 0.0463352 4.05731e-19 -7.29822e-05)
(-0.177216 -0.0538149 -9.96534e-20 0.177099 6.97616e-19 0.000116545)
(-0.172485 -0.059581 -1.50957e-19 0.172168 3.41465e-19 0.000317085)
(-0.166983 -0.0631642 -3.62588e-19 0.166493 1.27076e-19 0.000490426)
(-0.161027 -0.0650563 1.99081e-20 0.160389 5.62984e-19 0.000638486)
(-0.154915 -0.0658341 5.84117e-19 0.154153 6.99153e-19 0.000761137)
(-0.148704 -0.0657079 2.11364e-19 0.147844 2.95636e-19 0.000860717)
(-0.142605 -0.0650037 -2.01876e-20 0.141669 -7.37771e-20 0.000936928)
(-0.13657 -0.0638133 2.55648e-19 0.135578 -2.62008e-19 0.000992197)
(-0.130756 -0.0623247 -4.05872e-19 0.129729 -2.58195e-19 0.00102641)
(-0.125078 -0.0605791 -1.94714e-19 0.124036 2.47212e-19 0.00104195)
(-0.119657 -0.0586853 3.26394e-19 0.118618 4.99369e-19 0.00103917)
(-0.114403 -0.0566628 -2.05095e-19 0.113383 4.69937e-19 0.00102017)
(-0.109409 -0.0545739 2.0612e-19 0.108423 3.04945e-19 0.000985907)
(-0.104593 -0.052429 4.41624e-20 0.103655 3.49034e-19 0.000938288)
(-0.100025 -0.0502621 -4.32405e-19 0.099146 5.83087e-20 0.00087879)
(-0.0956375 -0.0480804 1.52675e-19 0.0948282 1.91154e-21 0.000809315)
(-0.0914824 -0.0459 7.46815e-20 0.0907508 -2.92082e-20 0.000731594)
(-0.0875062 -0.0437279 -1.03442e-19 0.0868588 -1.82062e-19 0.000647458)
(-0.0837462 -0.0415677 -5.53888e-20 0.0831875 -2.68134e-19 0.00055874)
(-0.0801619 -0.0394287 -2.09264e-19 0.0796949 4.51089e-19 0.00046701)
(-0.0767792 -0.0373047 7.93567e-20 0.076405 -3.06084e-20 0.000374156)
(-0.0735693 -0.0352086 -4.22472e-20 0.0732878 4.05076e-19 0.000281534)
(-0.0705486 -0.0331258 -2.59571e-20 0.0703576 -1.2466e-19 0.000191034)
(-0.0676997 -0.0310744 4.76766e-19 0.0675959 1.52621e-19 0.00010382)
(-0.0650289 -0.0290317 -4.12256e-19 0.0650074 2.11997e-19 2.15365e-05)
(-0.0625308 -0.0270217 1.13418e-19 0.062586 -8.60922e-20 -5.51548e-05)
(-0.0602005 -0.0250136 4.42361e-19 0.0603252 5.48601e-19 -0.000124743)
(-0.0580466 -0.0230392 5.00581e-19 0.0582341 1.70246e-19 -0.000187445)
(-0.0560484 -0.0210572 -1.43259e-19 0.0562901 3.7183e-19 -0.000241761)
(-0.054237 -0.0191106 -4.68365e-19 0.0545253 4.60237e-19 -0.000288331)
(-0.0525648 -0.0171435 -2.07479e-19 0.0528904 4.07136e-20 -0.000325542)
(-0.0511012 -0.0152151 3.04444e-20 0.0514556 -6.94011e-21 -0.000354397)
(-0.0497511 -0.0132478 -2.66104e-19 0.0501238 -4.17006e-20 -0.000372755)
(-0.0486499 -0.011329 8.17782e-20 0.0490314 -1.83039e-19 -0.000381474)
(-0.0476115 -0.00934995 4.56628e-19 0.0479893 2.49111e-19 -0.000377792)
(-0.0469132 -0.00743292 -4.96083e-19 0.0472746 -3.22517e-19 -0.000361397)
(-0.0461241 -0.00547775 7.82064e-19 0.0464515 2.76537e-20 -0.000327382)
(-0.0459825 -0.00354715 -3.41648e-19 0.0462562 -1.26864e-19 -0.000273728)
(-0.0452665 -0.00173191 1.11482e-18 0.0454592 5.17037e-19 -0.000192664)
(-0.045819 1.68961e-05 -7.19139e-19 0.0458972 -3.37478e-19 -7.81994e-05)
(-0.175676 -0.0593815 5.83687e-20 0.175563 -4.67677e-19 0.000113366)
(-0.170079 -0.0654351 1.4145e-20 0.169771 -5.5702e-19 0.000308346)
(-0.163959 -0.0691683 2.04998e-19 0.163483 1.5373e-19 0.000476743)
(-0.15758 -0.0711065 1.11898e-19 0.15696 -8.7695e-20 0.000620428)
(-0.151178 -0.0718638 -7.79041e-19 0.150439 -1.56725e-19 0.000739239)
(-0.144786 -0.0716643 -3.21384e-20 0.143951 -8.74296e-19 0.000835445)
(-0.13858 -0.0708557 -2.8238e-19 0.137671 -6.43064e-20 0.000908744)
(-0.132498 -0.0695347 -1.30671e-19 0.131537 -3.08833e-19 0.000961473)
(-0.126681 -0.0679024 5.65989e-19 0.125687 5.70976e-19 0.00099353)
(-0.121034 -0.0660015 5.54247e-19 0.120026 -5.92304e-20 0.00100721)
(-0.115669 -0.0639488 -9.22669e-21 0.114666 -5.20732e-20 0.00100287)
(-0.110491 -0.0617639 6.121e-20 0.109508 -8.38977e-19 0.000982549)
(-0.105586 -0.0595139 -1.6538e-19 0.104639 1.09357e-19 0.000947201)
(-0.100872 -0.0572088 -6.61631e-20 0.0999729 -7.68074e-19 0.000898672)
(-0.0964129 -0.0548858 1.32602e-19 0.0955745 -9.02925e-20 0.000838433)
(-0.0921407 -0.0525514 -3.25108e-20 0.0913724 -2.37095e-19 0.000768316)
(-0.0881055 -0.0502235 -1.27668e-19 0.0874154 1.77937e-19 0.000690073)
(-0.0842514 -0.0479091 -9.99934e-20 0.083646 -2.52718e-19 0.000605415)