/*--------------------------------*- C++ -*----------------------------------*\
| =========                 |                                                 |
| \\      /  F ield         | foam-extend: Open Source CFD                    |
|  \\    /   O peration     | Version:  3.0                                   |
|   \\  /    A nd           | Web:         http://www.extend-project.de       |
|    \\/     M anipulation  |                                                 |
\*---------------------------------------------------------------------------*/
FoamFile
{
    version     2.0;
    format      ascii;
    class       volSymmTensorField;
    location    "15";
    object      sigma;
}
// * * * * * * * * * * * * * * * * * * * * * * * * * * * * * * * * * * * * * //

dimensions      [0 0 0 0 0 0 0];

internalField   nonuniform List<symmTensor> 
168
(
(-0.143493 -0.0197844 -8.95059e-19 0.143659 -7.71404e-20 -0.00016574)
(-0.112774 -0.0205277 2.06157e-19 0.113144 1.35341e-18 -0.000369717)
(-0.0788049 -0.0171665 6.63985e-19 0.0793181 -1.64165e-19 -0.000513221)
(-0.049333 -0.0132516 -8.47433e-19 0.0499072 3.7187e-18 -0.000574203)
(-0.0261168 -0.00965891 1.31971e-18 0.0266338 6.79086e-19 -0.000516988)
(-0.012753 -0.007388 -3.03032e-19 0.0130078 -2.52037e-18 -0.000254851)
(-0.130335 -0.0564239 3.11223e-19 0.130492 2.19517e-19 -0.0001563)
(-0.0942127 -0.0563831 1.03629e-18 0.0945615 -4.0759e-18 -0.000348893)
(-0.0609921 -0.0464716 2.08534e-18 0.0614771 -2.53174e-18 -0.000485026)
(-0.0336852 -0.0356293 3.52413e-18 0.0342281 -3.99939e-18 -0.000542874)
(-0.0128099 -0.0261012 -4.71257e-18 0.0132991 -2.91912e-19 -0.000489218)
(-0.000520648 -0.0208428 -2.40899e-19 0.000761782 3.71854e-18 -0.000241134)
(-0.107244 -0.0848693 8.32905e-19 0.107384 -6.18476e-18 -0.000139696)
(-0.0635776 -0.0777884 -5.12881e-18 0.0638897 5.04953e-19 -0.000312127)
(-0.032182 -0.0609202 -6.24333e-19 0.032616 -8.01191e-19 -0.00043394)
(-0.00872003 -0.0442476 -4.8076e-19 0.00920576 1.00384e-18 -0.000485727)
(0.00821494 -0.0302313 1.01429e-17 -0.00777759 5.3237e-18 -0.000437348)
(0.0187818 -0.0224523 1.50004e-18 -0.0185665 -5.76501e-18 -0.000215313)
(-0.0794827 -0.102743 1.69574e-18 0.0795986 2.90722e-18 -0.000115931)
(-0.0312814 -0.0816256 3.26346e-18 0.0315407 5.8336e-18 -0.000259264)
(-0.00337652 -0.0575839 4.76503e-19 0.003737 -1.38106e-18 -0.000360484)
(0.0151691 -0.0365517 -2.6651e-19 -0.0147655 3.77198e-18 -0.000403631)
(0.0274883 -0.019867 -4.33446e-18 -0.0271251 -1.06158e-17 -0.000363213)
(0.0359185 -0.0101418 -1.28372e-19 -0.0357399 2.26567e-18 -0.00017862)
(-0.0522113 -0.110964 -4.21671e-18 0.0522975 1.66317e-18 -8.61524e-05)
(-0.00710952 -0.0716353 8.04862e-19 0.00730243 -4.23179e-18 -0.000192911)
(0.0151569 -0.0408565 -1.62301e-18 -0.0148886 1.03866e-18 -0.000268334)
(0.0283334 -0.0169657 2.83197e-18 -0.0280327 -1.29788e-18 -0.000300628)
(0.0362452 0.000778016 6.03253e-19 -0.0359749 3.21884e-18 -0.000270256)
(0.0423206 0.0118312 -3.38615e-18 -0.042188 2.12573e-18 -0.000132643)
(-0.0286354 -0.112906 1.31048e-18 0.0286872 5.37817e-19 -5.18313e-05)
(0.00375919 -0.0565121 -1.04982e-18 -0.00364276 1.48315e-18 -0.000116422)
(0.0182217 -0.0204056 -1.0317e-18 -0.0180595 3.91393e-19 -0.000162261)
(0.0260186 0.00509419 -1.46406e-18 -0.0258364 -6.14896e-19 -0.000182155)
(0.0302616 0.0229067 -1.63627e-18 -0.030098 -1.23461e-18 -0.000163658)
(0.0339125 0.0347939 1.82018e-18 -0.0338324 -2.84212e-19 -8.0096e-05)
(-0.00900432 -0.112555 -2.13734e-20 0.00901904 -3.12826e-19 -1.47234e-05)
(0.00280193 -0.0458423 6.727e-20 -0.00276822 -7.97822e-19 -3.37095e-05)
(0.00782842 -0.00677729 9.55636e-19 -0.00778081 -2.62781e-19 -4.76117e-05)
(0.0104157 0.0194114 -4.18022e-20 -0.0103616 -5.86085e-19 -5.41277e-05)
(0.0117355 0.037025 6.74001e-20 -0.0116871 1.27109e-18 -4.8464e-05)
(0.0130138 0.0492829 -3.66798e-19 -0.0129905 -2.18349e-20 -2.33035e-05)
(0.00898194 -0.112554 -7.20662e-20 -0.00900518 5.09382e-19 2.3245e-05)
(-0.00282244 -0.0458507 1.62489e-19 0.00277152 6.08346e-19 5.09192e-05)
(-0.0078357 -0.00678506 1.65091e-20 0.00776609 -6.83003e-19 6.96112e-05)
(-0.0103843 0.0194015 1.18939e-18 0.0103076 -9.12544e-19 7.66829e-05)
(-0.0116762 0.037005 -2.57898e-19 0.0116072 -1.17575e-18 6.90205e-05)
(-0.0128475 0.0492786 -3.72824e-19 0.012813 -8.15112e-20 3.44586e-05)
(0.0286106 -0.112908 1.34444e-18 -0.0286708 -3.57645e-19 6.01627e-05)
(-0.00378263 -0.0565242 -2.10788e-18 0.00364942 -1.41498e-18 0.000133216)
(-0.0182351 -0.0204186 -1.13887e-18 0.0180515 -6.80507e-19 0.000183602)
(-0.0259919 0.00509242 -2.05899e-18 0.025788 -2.00895e-18 0.000203903)
(-0.0302225 0.0228836 3.36797e-19 0.0300392 2.40391e-18 0.000183314)
(-0.0337739 0.0348447 2.13048e-18 0.0336832 -1.57108e-20 9.06988e-05)
(0.0521812 -0.11097 -4.2378e-18 -0.0522753 -9.17508e-19 9.41245e-05)
(0.00709377 -0.0716534 7.55019e-19 -0.00730271 4.24457e-18 0.000208943)
(-0.0151645 -0.0408776 -1.21874e-18 0.014876 -8.15138e-20 0.000288458)
(-0.028315 -0.0169849 3.87176e-19 0.0279941 6.07269e-19 0.000320868)
(-0.0361842 0.000747612 3.51784e-18 0.035896 -6.41195e-18 0.000288226)
(-0.0422086 0.0118382 -3.5546e-18 0.0420664 -1.16618e-18 0.000142147)
(0.0794549 -0.102752 2.1819e-18 -0.0795784 -2.67579e-18 0.000123447)
(0.0312697 -0.0816465 5.53937e-18 -0.031544 -3.34611e-18 0.000274351)
(0.00337178 -0.0576161 -2.00835e-18 -0.00375084 -4.4699e-19 0.000379052)
(-0.0151531 -0.0365603 2.87817e-18 0.0147312 1.51088e-18 0.000421954)
(-0.0274345 -0.0199417 -1.0617e-17 0.0270555 5.00265e-18 0.000378913)
(-0.0358586 -0.0101741 1.82072e-18 0.035672 -1.93406e-19 0.000186655)
(0.107225 -0.0848909 2.18294e-18 -0.107372 5.79626e-18 0.000146629)
(0.0635702 -0.0778191 -5.33343e-18 -0.0638963 -1.63395e-19 0.000326107)
(0.0321986 -0.060957 8.36271e-19 -0.0326494 3.31092e-18 0.000450747)
(0.00872804 -0.0443013 -2.52675e-18 -0.00922999 -3.07038e-18 0.000501957)
(-0.00816553 -0.030296 4.27547e-18 0.00771492 -8.31485e-19 0.000450611)
(-0.0187537 -0.0225148 2.36089e-18 0.018532 4.2508e-18 0.000221723)
(0.130317 -0.0564472 2.29639e-19 -0.130479 -5.77261e-19 0.000162523)
(0.0942017 -0.0564149 2.11679e-18 -0.0945633 1.92693e-18 0.000361645)
(0.0609963 -0.0465182 1.91569e-18 -0.0614963 3.8228e-18 0.000500023)
(0.0336835 -0.0356848 -2.25014e-18 -0.0342405 3.31829e-18 0.000556981)
(0.0128571 -0.0261904 -2.63643e-19 -0.013357 2.09044e-18 0.000499851)
(0.000624945 -0.0209602 -1.17588e-18 -0.000870684 -1.6427e-18 0.000245739)
(0.143486 -0.0197954 -6.45375e-19 -0.143656 -5.30936e-19 0.000170321)
(0.112774 -0.0205607 -3.35087e-19 -0.113154 -1.92129e-18 0.000379169)
(0.0788307 -0.0171671 6.97767e-19 -0.0793551 -1.53164e-18 0.000524387)
(0.0493382 -0.0133287 -8.72478e-19 -0.0499224 -1.43422e-18 0.000584262)
(0.0261796 -0.00974259 1.56535e-18 -0.0267038 5.65206e-19 0.000524207)
(0.0128465 -0.00759164 -1.05141e-19 -0.0131041 -6.5982e-19 0.000257541)
(0.143459 0.0199296 -8.91743e-19 -0.143628 -7.54247e-20 0.000169619)
(0.112705 0.0208477 2.08961e-19 -0.113083 1.35315e-18 0.000377782)
(0.0786565 0.0178403 6.63127e-19 -0.0791791 -1.59057e-19 0.000522614)
(0.0491176 0.0143218 -8.50163e-19 -0.0497001 3.71839e-18 0.00058248)
(0.0257347 0.0113684 1.30774e-18 -0.0262573 6.83388e-19 0.000522582)
(0.01211 0.0103056 -3.01135e-19 -0.0123666 -2.51822e-18 0.000256663)
(0.130232 0.0565355 3.09487e-19 -0.130392 2.1829e-19 0.000160461)
(0.0939952 0.0566334 1.03456e-18 -0.0943527 -4.07641e-18 0.000357544)
(0.060538 0.0470043 2.09192e-18 -0.0610328 -2.53244e-18 0.000494735)
(0.0329733 0.0364578 3.52378e-18 -0.0335249 -4.00105e-18 0.000551543)
(0.0116931 0.027457 -4.69562e-18 -0.0121878 -2.82531e-19 0.000494712)
(-0.00140275 0.0231434 -2.46284e-19 0.00115988 3.70677e-18 0.000242863)
(0.107105 0.0849208 8.36626e-19 -0.107248 -6.18359e-18 0.000143272)
(0.0632583 0.0779091 -5.12569e-18 -0.0635777 5.04685e-19 0.000319411)
(0.0315203 0.0611787 -6.27019e-19 -0.0319624 -8.04894e-19 0.000442066)
(0.0076856 0.0446871 -4.77265e-19 -0.00817854 1.00311e-18 0.000492945)
(-0.00988105 0.0308991 1.01298e-17 0.00943905 5.31519e-18 0.000442008)
(-0.0215679 0.0236477 1.50153e-18 0.0213511 -5.75885e-18 0.000216819)
(0.0793383 0.102723 1.69272e-18 -0.0794573 2.9036e-18 0.000118945)
(0.0309197 0.0815944 3.26192e-18 -0.031185 5.83037e-18 0.000265332)
(0.0026571 0.0575237 4.78795e-19 -0.00302439 -1.37527e-18 0.000367285)
(-0.0163424 0.0364708 -2.67005e-19 0.0159327 3.7697e-18 0.00040961)
(-0.0293441 0.019727 -4.32126e-18 0.028977 -1.05955e-17 0.000367066)
(-0.0390694 0.0099467 -1.3063e-19 0.0388895 2.25786e-18 0.000179852)
(0.0520956 0.110881 -4.21551e-18 -0.0521843 1.66551e-18 8.86679e-05)
(0.00679421 0.0714354 8.05854e-19 -0.00699218 -4.22898e-18 0.000197973)
(-0.0157924 0.0404706 -1.62407e-18 0.0155184 1.03244e-18 0.000274066)
(-0.0293919 0.0163552 2.83696e-18 0.0290863 -1.29888e-18 0.000305648)
(-0.0378976 -0.00175117 5.94532e-19 0.037624 3.2005e-18 0.000273552)
(-0.0451504 -0.0133498 -3.36898e-18 0.0450167 2.1243e-18 0.000133714)
(0.028561 0.11278 1.30879e-18 -0.028615 5.3589e-19 5.40095e-05)
(-0.00398472 0.056176 -1.05051e-18 0.00386392 1.47997e-18 0.000120802)
(-0.0186582 0.0197672 -1.03362e-18 0.018491 3.9406e-19 0.000167228)
(-0.0267639 -0.00614354 -1.46554e-18 0.0265774 -6.14442e-19 0.000186445)
(-0.0313961 -0.0245487 -1.63154e-18 0.0312297 -1.22399e-18 0.000166389)
(-0.0358693 -0.037449 1.80916e-18 0.0357884 -2.83558e-19 8.09213e-05)
(0.00898661 0.112415 -2.17243e-20 -0.0090033 -3.1069e-19 1.6695e-05)
(-0.00287261 0.0454454 6.61507e-20 0.00283492 -7.94368e-19 3.76877e-05)
(-0.00796959 0.00601012 9.53233e-19 0.00791748 -2.65441e-19 5.21068e-05)
(-0.0106619 -0.020699 -4.1156e-20 0.0106039 -5.87708e-19 5.79541e-05)
(-0.0121054 -0.03901 6.34373e-20 0.0120545 1.25853e-18 5.08703e-05)
(-0.0136786 -0.0525548 -3.60702e-19 0.0136546 -1.88152e-20 2.40456e-05)
(-0.00894473 0.112414 -7.11867e-20 0.00896607 5.07166e-19 -2.13432e-05)
(0.0029251 0.0454414 1.6087e-19 -0.00287801 6.06108e-19 -4.70901e-05)
(0.00802563 0.0060108 1.80578e-20 -0.00796028 -6.82319e-19 -6.53499e-05)
(0.0106911 -0.0207072 1.18516e-18 -0.0106179 -9.13227e-19 -7.31956e-05)
(0.0121607 -0.0390027 -2.56573e-19 -0.0120936 -1.16634e-18 -6.70169e-05)
(0.0135872 -0.0525675 -3.72776e-19 -0.0135532 -8.30136e-20 -3.39591e-05)
(-0.0285281 0.112792 1.34263e-18 0.0285863 -3.55181e-19 -5.81926e-05)
(0.00402354 0.0561899 -2.10749e-18 -0.00389429 -1.41113e-18 -0.00012925)
(0.0187048 0.0197831 -1.13865e-18 -0.0185255 -6.83057e-19 -0.000179233)
(0.0267967 -0.00615207 -2.0612e-18 -0.0265963 -2.00996e-18 -0.000200413)
(0.0314471 -0.0245159 3.42251e-19 -0.0312657 2.387e-18 -0.000181365)
(0.0358448 -0.0374745 2.11891e-18 -0.0357546 -1.38184e-20 -9.01875e-05)
(-0.0520613 0.110895 -4.23587e-18 0.0521533 -9.20304e-19 -9.19491e-05)
(-0.00674307 0.0714539 7.57915e-19 0.00694765 4.24242e-18 -0.000204574)
(0.0158429 0.0405021 -1.21858e-18 -0.0155592 -7.64577e-20 -0.000283677)
(0.0294546 0.0163537 3.93487e-19 -0.0291374 6.10079e-19 -0.000317184)
(0.0379555 -0.00170588 3.5055e-18 -0.0376692 -6.39877e-18 -0.000286321)
(0.0451662 -0.0133923 -3.54467e-18 -0.0450245 -1.16686e-18 -0.000141778)
(-0.0793153 0.102735 2.18021e-18 0.0794362 -2.67147e-18 -0.000120906)
(-0.0308833 0.0816085 5.53695e-18 0.0311525 -3.34509e-18 -0.000269253)
(-0.00261989 0.0575499 -2.00235e-18 0.00299333 -4.47589e-19 -0.00037344)
(0.0164148 0.0364845 2.87159e-18 -0.0159971 1.50882e-18 -0.000417676)
(0.0293974 0.0197745 -1.06002e-17 -0.0290207 4.99462e-18 -0.000376654)
(0.0391213 0.0100192 1.81087e-18 -0.0389351 -1.98979e-19 -0.000186184)
(-0.107088 0.0849334 2.18499e-18 0.107231 5.7948e-18 -0.000143562)
(-0.0632235 0.077938 -5.32934e-18 0.0635435 -1.65729e-19 -0.000320006)
(-0.031504 0.0612134 8.31098e-19 0.031948 3.31293e-18 -0.000443955)
(-0.00760354 0.0447227 -2.52601e-18 0.00810038 -3.07355e-18 -0.000496837)
(0.00993595 0.0309797 4.26271e-18 -0.00948813 -8.17499e-19 -0.000447825)
(0.0216778 0.0237475 2.36167e-18 -0.0214567 4.24098e-18 -0.000221195)
(-0.130222 0.0565473 2.2721e-19 0.130381 -5.76727e-19 -0.000158761)
(-0.0939681 0.0566654 2.11476e-18 0.0943223 1.92585e-18 -0.000354276)
(-0.0605208 0.0470224 1.91734e-18 0.0610126 3.82143e-18 -0.000491773)
(-0.0329145 0.0365379 -2.24939e-18 0.0334652 3.31834e-18 -0.000550747)
(-0.0116131 0.0275259 -2.53023e-19 0.0121094 2.08582e-18 -0.000496286)
(0.00147758 0.0232897 -1.17533e-18 -0.0012325 -1.63471e-18 -0.000245075)
(-0.143452 0.0199409 -6.43906e-19 0.143618 -5.32089e-19 -0.000165629)
(-0.112687 0.0208848 -3.31478e-19 0.113058 -1.9234e-18 -0.000370277)
(-0.0786386 0.017853 6.94361e-19 0.0791533 -1.53315e-18 -0.000514684)
(-0.0490588 0.0143987 -8.71647e-19 0.0496356 -1.43715e-18 -0.000576779)
(-0.0256897 0.0114547 1.55174e-18 0.0262097 5.6909e-19 -0.000520037)
(-0.0120398 0.0104748 -1.00677e-19 0.0122966 -6.64372e-19 -0.000256725)
)
;

boundaryField
{
    out
    {
        type            mySigma;
    }
    in
    {
        type            mySigma;
    }
    frontAndBack
    {
        type            empty;
    }
}


// ************************************************************************* //
