/*--------------------------------*- C++ -*----------------------------------*\
| =========                 |                                                 |
| \\      /  F ield         | foam-extend: Open Source CFD                    |
|  \\    /   O peration     | Version:  3.0                                   |
|   \\  /    A nd           | Web:         http://www.extend-project.de       |
|    \\/     M anipulation  |                                                 |
\*---------------------------------------------------------------------------*/
FoamFile
{
    version     2.0;
    format      ascii;
    class       volScalarField;
    location    "1";
    object      p;
}
// * * * * * * * * * * * * * * * * * * * * * * * * * * * * * * * * * * * * * //

dimensions      [0 0 0 0 0 0 0];

internalField   nonuniform List<scalar> 
400
(
0.58806
0.57412
0.511049
0.403006
0.256819
0.138088
-0.00764592
0.00532758
0.00603259
-0.00110078
-0.898399
0.271394
0.307259
0.351381
0.222537
0.140621
0.0015778
0.0245618
0.026224
0.0209157
0.622985
0.60639
0.548084
0.446968
0.311631
0.201245
0.0662098
0.0781602
0.0788195
0.0722111
0.183519
0.47674
0.464658
0.439983
0.32615
0.248099
0.126439
0.145134
0.146698
0.141795
0.684177
0.682098
0.626938
0.545113
0.432708
0.342386
0.231018
0.241114
0.241647
0.236261
0.554461
0.640929
0.61823
0.581907
0.493843
0.429906
0.336971
0.349643
0.350738
0.346749
0.779752
0.784147
0.74372
0.687956
0.609854
0.548158
0.471411
0.478537
0.478871
0.475219
0.759298
0.796367
0.78134
0.756923
0.704439
0.665258
0.610264
0.617176
0.617739
0.615328
0.905822
0.90654
0.887107
0.861524
0.826111
0.798408
0.763949
0.76713
0.767239
0.765655
0.936846
0.950262
0.950523
0.948189
0.938308
0.931031
0.919896
0.921501
0.92164
0.92124
1.04717
1.03952
1.04345
1.0491
1.06012
1.06851
1.07978
1.07851
1.07839
1.07901
1.10167
1.09674
1.11594
1.13989
1.17505
1.20215
1.23639
1.23308
1.23291
1.23465
1.18849
1.17053
1.19711
1.23235
1.28868
1.33197
1.38786
1.38216
1.38182
1.38458
1.24731
1.22747
1.26589
1.31573
1.39327
1.45284
1.52933
1.52165
1.52124
1.52498
1.3143
1.28622
1.33245
1.39319
1.48923
1.56297
1.65799
1.64838
1.64786
1.65248
1.36439
1.33319
1.38812
1.45981
1.57249
1.65898
1.77031
1.75909
1.7585
1.76389
1.4109
1.37466
1.43576
1.51575
1.64201
1.7389
1.86374
1.85113
1.85048
1.8565
1.44395
1.40525
1.47174
1.55861
1.69552
1.80055
1.93585
1.9222
1.9215
1.92802
1.468
1.42679
1.49663
1.58792
1.73201
1.84253
1.98495
1.97057
1.96985
1.97669
1.47934
1.43726
1.50899
1.60264
1.75041
1.86374
2.00978
1.99504
1.99431
2.00131
1.47957
1.43729
1.50899
1.60259
1.75038
1.8637
2.00976
1.99502
1.99428
2.00128
1.46751
1.42633
1.49633
1.58765
1.73184
1.84238
1.98486
1.97049
1.96978
1.97659
1.44434
1.40506
1.47156
1.55829
1.69531
1.80033
1.93572
1.92206
1.9214
1.92786
1.40975
1.37359
1.43506
1.51513
1.64163
1.73857
1.86354
1.85094
1.85033
1.85628
1.36576
1.33325
1.38802
1.45936
1.57219
1.65863
1.7701
1.75886
1.75832
1.76362
1.31161
1.28415
1.33113
1.39216
1.4886
1.56246
1.65769
1.64809
1.64764
1.65216
1.25166
1.22897
1.26659
1.31552
1.39309
1.45247
1.52911
1.52138
1.52102
1.52464
1.18225
1.16654
1.19459
1.23073
1.28771
1.33128
1.38746
1.38181
1.38157
1.3842
1.11363
1.10264
1.11929
1.14089
1.17558
1.20205
1.23634
1.23287
1.23273
1.23431
1.03323
1.03158
1.0384
1.04643
1.05849
1.06761
1.07927
1.07814
1.07813
1.07863
0.966028
0.967018
0.960808
0.95266
0.940994
0.931883
0.920454
0.92156
0.921649
0.921032
0.876607
0.890799
0.876773
0.856754
0.823052
0.797085
0.763166
0.766743
0.766995
0.765317
0.824677
0.835987
0.807122
0.769397
0.712418
0.66842
0.612369
0.6179
0.618203
0.61545
0.722767
0.75441
0.72311
0.678931
0.603563
0.545796
0.469836
0.477974
0.478519
0.474868
0.705055
0.722868
0.67388
0.60918
0.512441
0.437478
0.342296
0.351606
0.352097
0.34747
0.576975
0.629628
0.587955
0.527934
0.419778
0.337602
0.227474
0.239914
0.240823
0.235645
0.620293
0.638249
0.574413
0.487662
0.360937
0.261754
0.136834
0.148837
0.149481
0.143421
0.421667
0.519247
0.477659
0.415543
0.287145
0.191959
0.0589978
0.0756683
0.0770089
0.071015
0.581516
0.588219
0.517936
0.416354
0.272815
0.158506
0.0162155
0.029529
0.0302688
0.0233444
0.114803
0.412124
0.390232
0.352102
0.217273
0.122935
-0.0197299
0.0011638
0.00283687
-0.0030942
)
;

boundaryField
{
    up
    {
        type            implicitExtrapolation;
    }
    hole
    {
        type            implicitExtrapolation;
    }
    frontAndBack
    {
        type            empty;
    }
}


// ************************************************************************* //
