/*--------------------------------*- C++ -*----------------------------------*\
| =========                 |                                                 |
| \\      /  F ield         | foam-extend: Open Source CFD                    |
|  \\    /   O peration     | Version:  3.0                                   |
|   \\  /    A nd           | Web:         http://www.extend-project.de       |
|    \\/     M anipulation  |                                                 |
\*---------------------------------------------------------------------------*/
FoamFile
{
    version     2.0;
    format      ascii;
    class       volSymmTensorField;
    location    "1";
    object      sigma;
}
// * * * * * * * * * * * * * * * * * * * * * * * * * * * * * * * * * * * * * //

dimensions      [0 0 0 0 0 0 0];

internalField   nonuniform List<symmTensor> 
400
(
(-0.163517 0.00723263 -7.62821e-19 -0.00645037 9.15119e-19 7.38368e-35)
(-0.230423 0.00368742 -4.50086e-20 -0.0193212 -2.57453e-19 9.22371e-35)
(-0.270435 -0.00530428 -4.86874e-20 -0.0323187 -1.24128e-18 7.51195e-35)
(-0.295032 -0.00724336 -1.18411e-18 -0.0399793 5.0458e-19 6.80058e-35)
(-0.30671 -0.00759573 -9.98803e-19 -0.0451663 -1.58767e-18 5.21441e-35)
(-0.303888 -0.00633192 -6.91951e-19 -0.0470847 -1.00075e-18 5.74006e-35)
(-0.293138 -0.00470068 -6.28908e-19 -0.0466809 -3.14015e-19 5.60669e-35)
(-0.278331 -0.00292338 -1.38828e-19 -0.0448088 -1.45396e-18 5.23065e-35)
(-0.267243 -0.00172216 -3.4194e-19 -0.0423961 -1.10308e-19 2.24021e-35)
(-0.266947 -0.00114272 -6.34669e-19 -0.0411275 5.06017e-20 1.38998e-35)
(-0.134959 -0.0315229 -1.32925e-18 0.0111509 -2.76034e-19 6.5702e-35)
(-0.222122 -0.0357982 -1.61138e-18 -0.0202017 -8.3247e-19 1.11471e-34)
(-0.26713 -0.0355061 2.20628e-19 -0.0323191 -5.16865e-19 1.00583e-34)
(-0.289578 -0.0321325 -1.32876e-18 -0.0395241 -1.61131e-19 9.5505e-35)
(-0.302432 -0.0283208 -1.91641e-18 -0.042719 -2.21575e-18 8.58759e-35)
(-0.300902 -0.0228042 1.06115e-18 -0.0427144 -2.06665e-18 1.24047e-34)
(-0.292142 -0.0171425 -2.70002e-18 -0.0403449 4.99332e-19 1.21184e-34)
(-0.279108 -0.0116477 3.0561e-19 -0.0368018 -7.52688e-19 2.03629e-34)
(-0.269342 -0.00800232 -3.86619e-19 -0.0332589 -7.67222e-20 1.5111e-35)
(-0.269736 -0.00634498 -3.56823e-18 -0.0312392 6.5684e-19 4.14576e-35)
(-0.121414 -0.0569233 -7.32989e-19 -0.0340642 -5.41158e-19 -2.25633e-35)
(-0.189276 -0.0631764 -2.02005e-20 -0.0419167 -5.01117e-19 9.36152e-35)
(-0.239422 -0.0571786 -3.04889e-19 -0.0416815 1.69295e-18 9.77253e-35)
(-0.269483 -0.0533173 -1.04688e-18 -0.0417033 -3.39107e-18 7.32695e-35)
(-0.287 -0.0476778 -4.8851e-18 -0.0398116 1.00281e-18 8.68054e-35)
(-0.290555 -0.0401946 3.06718e-18 -0.0353421 1.19653e-18 2.75275e-34)
(-0.286212 -0.0321818 -1.22563e-18 -0.0292504 -1.21737e-20 2.39569e-34)
(-0.277339 -0.0244869 -3.92301e-18 -0.0225788 -1.46815e-18 -1.03413e-34)
(-0.270292 -0.0193426 -1.2871e-18 -0.0170378 1.1717e-18 -5.07442e-35)
(-0.272138 -0.0172127 -7.40765e-18 -0.0136776 1.61829e-18 3.72708e-35)
(-0.109456 -0.052231 3.52006e-19 -0.0566873 -2.85196e-18 -7.5567e-35)
(-0.169043 -0.0675261 6.26866e-19 -0.0515652 -4.8576e-19 9.01399e-35)
(-0.215345 -0.0702319 -1.98855e-18 -0.0471159 -9.20823e-19 1.24304e-34)
(-0.247147 -0.0696592 1.81989e-18 -0.041619 -1.25442e-18 3.5737e-34)
(-0.267847 -0.0661484 -9.36213e-19 -0.0350077 1.52764e-18 3.97185e-34)
(-0.275963 -0.0592128 -5.53138e-18 -0.0256865 2.03698e-18 -2.00121e-34)
(-0.276474 -0.0513163 -2.82791e-18 -0.0153872 -1.03633e-18 3.32061e-35)
(-0.272207 -0.043292 -7.41127e-19 -0.00508491 2.78054e-18 1.25919e-34)
(-0.268344 -0.0379639 2.32393e-19 0.00276506 2.04938e-18 -5.02027e-34)
(-0.271833 -0.0361561 -6.82278e-18 0.00770687 -9.70283e-19 6.10395e-35)
(-0.0886267 -0.0550435 3.59335e-18 -0.0618408 -2.36774e-19 1.79485e-34)
(-0.140507 -0.0712756 2.26572e-18 -0.0568871 2.43469e-18 1.53664e-34)
(-0.18495 -0.0793314 1.15455e-18 -0.048353 -1.29764e-18 1.68068e-34)
(-0.217598 -0.0834446 -1.92888e-18 -0.039346 2.00205e-18 2.79655e-34)
(-0.240965 -0.0836235 4.44114e-18 -0.0285323 1.06901e-18 3.93684e-36)
(-0.25347 -0.0797636 -5.88704e-19 -0.0151714 2.18742e-18 1.16489e-34)
(-0.25882 -0.0741589 -1.79778e-18 -0.00116709 3.40092e-19 1.32591e-34)
(-0.259349 -0.0679408 -5.48036e-18 0.0122105 -1.58052e-18 1.75588e-34)
(-0.258772 -0.0637736 -2.7717e-18 0.0220341 -2.22247e-18 -1.12165e-34)
(-0.263791 -0.0631758 6.91011e-19 0.0283215 -2.58274e-18 -8.47252e-35)
(-0.0698462 -0.0486123 -1.83257e-18 -0.0619582 4.54051e-18 8.42646e-35)
(-0.115469 -0.0704545 -2.17552e-19 -0.0551734 1.88624e-18 1.69118e-34)
(-0.155091 -0.0851378 1.92112e-18 -0.0455943 -3.84087e-19 1.63385e-34)
(-0.185949 -0.0950745 -1.54724e-18 -0.0345397 2.02486e-18 1.35657e-34)
(-0.209472 -0.100623 -1.60534e-18 -0.0215702 1.40504e-18 8.82346e-35)
(-0.224334 -0.101559 8.72306e-19 -0.0057344 6.10713e-19 1.38242e-34)
(-0.232889 -0.100081 2.14626e-19 0.0103383 -1.14091e-18 1.79573e-34)
(-0.236947 -0.0972274 3.11201e-18 0.0255173 8.73408e-19 1.90485e-34)
(-0.238865 -0.0953157 1.12925e-18 0.0363881 -1.26822e-18 2.71316e-34)
(-0.244808 -0.0966002 8.09306e-18 0.0434555 -3.80439e-18 4.87647e-34)
(-0.0486517 -0.042229 -2.73063e-18 -0.057227 -1.2465e-18 4.0099e-34)
(-0.0874306 -0.0683883 -2.05712e-18 -0.0497765 -2.62509e-18 2.13916e-34)
(-0.121568 -0.0890598 -4.43034e-19 -0.0396329 9.60019e-19 2.14761e-34)
(-0.148902 -0.1047 1.18824e-18 -0.0282891 3.4056e-18 -3.34275e-35)
(-0.170844 -0.116065 -8.64642e-20 -0.0148516 1.85582e-18 1.05742e-34)
(-0.186142 -0.122734 4.8408e-19 0.00111602 -1.61362e-18 1.82817e-34)
(-0.196219 -0.126359 4.15014e-18 0.0172003 -6.6705e-19 3.17282e-34)
(-0.202327 -0.127871 -7.33598e-19 0.0321919 -6.67679e-20 4.41827e-34)
(-0.205769 -0.128864 1.21922e-18 0.0428201 -6.70481e-18 -3.71191e-34)
(-0.211825 -0.132417 9.38203e-18 0.0497769 -1.13927e-18 3.36789e-34)
(-0.0322433 -0.0334477 -2.79698e-20 -0.0461979 5.32505e-19 3.12846e-34)
(-0.0619684 -0.0651671 -7.50172e-20 -0.0394758 7.01997e-20 1.67132e-34)
(-0.0881855 -0.0914857 -1.46099e-18 -0.0308225 1.4519e-18 1.49698e-34)
(-0.109553 -0.112551 1.5214e-18 -0.0210348 -4.69116e-19 1.17322e-34)
(-0.12723 -0.129404 8.11874e-19 -0.00948495 -3.09313e-18 -8.52578e-35)
(-0.140334 -0.141633 9.65875e-19 0.00426287 -5.20924e-18 -2.54218e-34)
(-0.149546 -0.15029 5.17526e-18 0.0179745 2.50161e-18 4.84973e-34)
(-0.155694 -0.156157 3.4518e-18 0.0307293 4.19705e-18 1.19813e-35)
(-0.15933 -0.16006 1.7521e-18 0.0396888 -5.36876e-18 -3.89276e-34)
(-0.164536 -0.165831 5.44815e-18 0.0455913 3.71746e-18 -1.86616e-34)
(-0.0171705 -0.0264127 -1.41895e-18 -0.0307249 -2.66402e-18 2.91079e-34)
(-0.0361655 -0.0621118 -5.9003e-19 -0.0259525 -2.30053e-18 1.39351e-34)
(-0.0529402 -0.0926958 -8.26721e-19 -0.019975 -1.42389e-18 1.08443e-34)
(-0.0667701 -0.117829 1.354e-18 -0.0132742 -9.7915e-19 1.507e-34)
(-0.0784231 -0.139003 1.4508e-19 -0.00536558 4.69181e-19 2.18395e-36)
(-0.0873477 -0.155668 -8.01297e-19 0.0039386 -1.29648e-18 -1.67559e-35)
(-0.093837 -0.168399 -1.7049e-18 0.0132019 3.67421e-18 1.30899e-35)
(-0.0983516 -0.177811 -1.11801e-19 0.0217723 -5.16093e-19 -2.15664e-35)
(-0.101073 -0.184081 -9.80063e-19 0.0277744 -2.35625e-18 -2.07071e-34)
(-0.104584 -0.191621 -3.73719e-18 0.0317384 2.68348e-18 -2.39829e-34)
(-0.00572701 -0.0223538 2.32485e-18 -0.011124 1.25879e-19 1.71987e-34)
(-0.012174 -0.0605386 5.88727e-20 -0.00983829 5.56034e-20 1.61306e-34)
(-0.017905 -0.0934341 -5.99955e-19 -0.00790049 -7.90535e-19 1.51744e-34)
(-0.0226777 -0.120775 -1.66691e-18 -0.00548639 -4.70193e-19 1.53167e-34)
(-0.0267481 -0.144234 -4.59553e-19 -0.00258004 -6.20066e-19 1.33766e-34)
(-0.0299032 -0.163307 -7.29446e-19 0.000851157 -8.97003e-19 1.30842e-34)
(-0.0322195 -0.17825 -1.64837e-18 0.00424066 1.33036e-19 1.43602e-34)
(-0.0338463 -0.189609 -5.48461e-20 0.00736413 -2.68937e-19 1.42373e-34)
(-0.0348219 -0.197178 -3.48007e-18 0.00954166 -2.17875e-19 1.16355e-34)
(-0.0360384 -0.205691 -3.65617e-18 0.0109765 -3.4153e-19 1.07825e-34)
(0.00580187 -0.022416 -1.36456e-18 0.00932161 -7.30638e-19 1.38675e-34)
(0.0122496 -0.0605572 2.07737e-19 0.00687203 1.3071e-19 1.8251e-34)
(0.0178443 -0.093418 1.22193e-18 0.00452214 2.30694e-19 1.7633e-34)
(0.0223813 -0.120729 -1.24528e-18 0.00231695 -1.23361e-18 1.92965e-34)
(0.0262547 -0.144195 1.42565e-18 -0.000190452 -1.05557e-18 2.07256e-34)
(0.0293074 -0.163266 1.22518e-19 -0.00317747 -7.39705e-19 2.64758e-34)
(0.0316015 -0.178216 -1.85736e-18 -0.00617124 -9.10357e-19 3.28922e-34)
(0.0332653 -0.189575 2.37021e-19 -0.00897688 4.49856e-19 4.09034e-34)
(0.0343039 -0.19714 -6.13868e-18 -0.0109395 1.43181e-19 4.12774e-34)
(0.0355869 -0.205651 -7.90156e-18 -0.0122516 -1.52253e-18 4.5339e-34)
(0.0178855 -0.0268805 7.95668e-19 0.028422 -9.82415e-19 1.61194e-34)
(0.03697 -0.0625752 1.22034e-18 0.0223607 -1.97923e-18 2.30969e-34)
(0.0534696 -0.0929328 6.14895e-19 0.0160819 4.06568e-19 2.24302e-34)
(0.0668964 -0.117923 -2.64435e-19 0.00971461 -1.31737e-18 2.47248e-34)
(0.0782114 -0.138999 3.03114e-18 0.00233189 -2.78751e-18 2.76829e-34)
(0.0869377 -0.15562 2.39101e-18 -0.00645453 2.40677e-18 4.02465e-34)
(0.0933364 -0.168322 -3.87816e-18 -0.0152591 -5.36824e-18 5.02411e-34)
(0.0978452 -0.177717 -1.78588e-18 -0.0234777 1.89731e-18 9.48745e-34)
(0.100598 -0.183966 -8.54422e-18 -0.0292369 7.22064e-18 6.50452e-34)
(0.104164 -0.1915 -1.71219e-17 -0.0330683 -6.44764e-18 1.05216e-33)
(0.0331257 -0.0342078 1.7465e-18 0.043443 5.40735e-19 5.75138e-35)
(0.0632437 -0.0653681 8.76235e-19 0.0350226 7.67533e-19 2.16611e-34)
(0.0890831 -0.091282 -2.30398e-18 0.0260913 1.64676e-19 2.27815e-34)
(0.109924 -0.112144 4.29347e-18 0.0167981 -1.0413e-18 2.15396e-34)
(0.127184 -0.128983 -1.3695e-18 0.00590666 -8.06674e-18 2.54231e-34)
(0.140031 -0.141242 -1.81339e-18 -0.00716131 5.88288e-18 6.07444e-34)
(0.149118 -0.149949 -1.3704e-18 -0.0203156 2.30297e-18 7.97365e-34)
(0.155231 -0.155852 2.57725e-18 -0.0326282 -5.08024e-18 3.35431e-35)
(0.158876 -0.159764 -9.4505e-18 -0.0412914 1.23361e-17 2.47987e-34)
(0.164122 -0.165539 -1.33336e-17 -0.0470361 -5.20972e-18 1.5332e-33)
(0.05196 -0.0427178 4.57551e-18 0.0527551 2.44062e-18 2.23825e-35)
(0.0910097 -0.0679126 8.39584e-19 0.0435337 1.767e-18 2.16704e-34)
(0.124041 -0.0880546 1.16688e-18 0.0337021 -1.54351e-18 2.63443e-34)
(0.150296 -0.103625 1.82392e-18 0.0232517 3.38404e-18 6.04384e-34)
(0.171401 -0.115105 -2.93436e-18 0.0108323 7.16772e-19 7.08652e-34)
(0.1862 -0.121931 -2.73272e-18 -0.00430398 -8.72186e-18 -2.43507e-34)
(0.195982 -0.125698 4.94081e-18 -0.0196921 -5.83111e-18 2.39106e-34)
(0.201961 -0.12731 -5.42304e-18 -0.0341888 4.39886e-19 4.62848e-34)
(0.205343 -0.128353 -8.43789e-18 -0.0444686 1.92231e-17 -2.18589e-33)
(0.211415 -0.13193 4.97163e-18 -0.051255 2.97894e-18 1.13419e-34)
(0.0745292 -0.0496471 5.37601e-19 0.0558331 4.28487e-18 3.84158e-34)
(0.119911 -0.068401 -2.86975e-18 0.0476539 3.34227e-18 2.96187e-34)
(0.157642 -0.0824448 2.0557e-18 0.0388259 2.053e-18 3.10542e-34)
(0.187013 -0.0924941 -1.867e-18 0.0291001 -2.28395e-18 4.79194e-34)
(0.209636 -0.098495 -1.10325e-18 0.017255 8.60249e-18 4.65373e-35)
(0.224018 -0.0998898 -4.73455e-18 0.00241712 4.20171e-18 2.23075e-34)
(0.232351 -0.0987831 -2.44682e-18 -0.0129252 4.85862e-18 2.443e-34)
(0.236336 -0.0962044 4.29055e-18 -0.0275387 -2.51975e-18 2.53786e-34)
(0.238226 -0.0944485 1.09351e-17 -0.0380369 2.36723e-18 -8.69135e-34)
(0.244193 -0.0958027 1.9164e-17 -0.0449157 1.81757e-17 -1.03305e-33)
(0.0994474 -0.0528253 -7.01136e-18 0.0532423 -2.73397e-18 2.44458e-34)
(0.148702 -0.0654649 -2.44534e-18 0.0476466 2.45769e-19 2.97265e-34)
(0.188772 -0.0739168 6.58272e-19 0.0414834 2.97588e-18 2.7132e-34)
(0.219143 -0.0790463 -2.61862e-18 0.0341406 -1.17946e-18 2.30195e-34)
(0.241181 -0.0803657 -1.16316e-18 0.0247252 -1.52904e-18 1.57162e-34)
(0.253085 -0.0773471 9.84979e-19 0.0122748 3.03013e-18 2.38456e-34)
(0.258137 -0.0723957 6.48096e-18 -0.00100735 1.14722e-18 3.05208e-34)
(0.258568 -0.0665919 3.44357e-18 -0.0139095 7.8566e-18 2.89609e-34)
(0.257944 -0.0626854 9.96772e-18 -0.0233865 3.41318e-18 4.74997e-34)
(0.262991 -0.0621951 1.90163e-17 -0.0295188 2.03794e-17 1.21533e-33)
(0.124499 -0.0504313 1.44756e-18 0.0467835 -1.74576e-18 6.20151e-34)
(0.175562 -0.0580242 3.52452e-18 0.0447492 -2.0499e-18 3.24078e-34)
(0.21611 -0.0621187 -7.68085e-19 0.0422692 -3.52265e-19 2.98223e-34)
(0.245874 -0.0636079 -4.48387e-18 0.038341 2.59699e-18 -4.27573e-35)
(0.265842 -0.0617624 -3.00579e-18 0.0325273 1.50724e-18 1.46646e-34)
(0.273928 -0.056118 2.34421e-18 0.0238143 2.52921e-18 2.9048e-34)
(0.274582 -0.049074 6.26739e-19 0.013913 8.6475e-18 5.92416e-34)
(0.270556 -0.0416537 7.46588e-19 0.00393372 -1.56437e-18 1.01155e-33)
(0.266836 -0.0366746 2.30671e-17 -0.0036924 -4.029e-18 -1.46146e-33)
(0.270429 -0.0350217 1.02885e-17 -0.00851847 6.9683e-18 2.89323e-34)
(0.14687 -0.0418762 -6.59266e-19 0.0387406 3.21299e-19 4.36786e-34)
(0.19835 -0.0458129 1.12416e-19 0.0404511 2.62626e-19 2.2471e-34)
(0.238239 -0.047118 -1.63718e-18 0.0418612 -1.5268e-18 1.6665e-34)
(0.266532 -0.0465658 7.97742e-19 0.0415855 2.63842e-18 7.8264e-35)
(0.283796 -0.0434084 5.36133e-18 0.0396664 1.22445e-18 -2.65049e-34)
(0.287713 -0.0372783 1.11065e-17 0.0350656 -1.50834e-19 -6.59544e-34)
(0.283805 -0.0302191 -2.9645e-19 0.0289397 4.53019e-18 5.82088e-34)
(0.27529 -0.023077 -4.22976e-18 0.0222623 3.54009e-18 -4.54978e-34)
(0.268481 -0.0182935 1.86936e-17 0.016762 -6.36381e-18 -1.64027e-33)
(0.270473 -0.0163007 -4.78217e-18 0.0134214 -6.8822e-18 -9.66998e-34)
(0.16372 -0.0277073 3.74618e-18 0.0316551 -5.52251e-19 3.6449e-34)
(0.214955 -0.0293798 3.16282e-18 0.0364565 -4.67917e-19 1.55651e-34)
(0.253847 -0.0294184 2.19483e-18 0.0410761 -9.39044e-19 8.03837e-35)
(0.280598 -0.0283573 2.2074e-18 0.0438308 1.25807e-18 8.71878e-35)
(0.295429 -0.0256393 5.18275e-19 0.0451587 -6.53106e-19 -1.72874e-34)
(0.295849 -0.0210263 3.50846e-18 0.0440137 -3.2517e-18 -2.87472e-34)
(0.28821 -0.0158878 -4.99688e-18 0.041081 -6.55099e-18 -3.35976e-34)
(0.276075 -0.0107838 2.2548e-18 0.0372105 -3.42419e-18 -5.1481e-34)
(0.266788 -0.00737284 6.71427e-18 0.0335282 -1.02914e-17 -9.4442e-34)
(0.267432 -0.00581297 -5.74939e-18 0.0314541 -1.90297e-17 -1.10441e-33)
(0.172777 -0.00964315 5.35981e-19 0.0275328 2.45053e-18 1.93425e-34)
(0.223715 -0.0100515 3.35755e-19 0.0340983 5.39234e-20 1.58582e-34)
(0.261924 -0.00991716 1.29935e-18 0.040544 -7.97981e-19 1.16445e-34)
(0.287721 -0.00944292 9.85458e-19 0.0450194 -2.56251e-18 7.98745e-35)
(0.30113 -0.00840871 1.19848e-18 0.048187 -1.46929e-18 7.99967e-36)
(0.299571 -0.00672783 1.75003e-18 0.0490018 -2.68913e-18 -4.88157e-35)
(0.289842 -0.0048741 7.94051e-20 0.047883 -4.77669e-18 -8.63329e-35)
(0.275694 -0.00304573 7.83777e-19 0.0456085 -2.3079e-18 -1.45673e-34)
(0.265033 -0.00183388 2.47692e-19 0.0429595 -9.55345e-18 -2.34021e-34)
(0.26491 -0.00125351 -6.5377e-19 0.0416057 -9.95099e-18 -2.75261e-34)
(0.172765 0.00981407 1.05617e-18 0.0275499 -1.49151e-18 1.3771e-34)
(0.223707 0.0102965 2.39493e-19 0.0341586 8.96047e-20 1.67232e-34)
(0.261926 0.010204 -1.66384e-20 0.0406372 1.24522e-18 1.35982e-34)
(0.287731 0.00969298 1.58927e-18 0.045127 -1.82924e-18 1.28661e-34)
(0.301149 0.00859515 1.38895e-18 0.0482953 1.02354e-18 1.17326e-34)
(0.299598 0.00683662 1.06659e-18 0.0490998 -1.00605e-18 1.59741e-34)
(0.289874 0.00491729 1.0526e-18 0.0479668 -3.66997e-18 2.18784e-34)
(0.275731 0.00302784 -1.0922e-18 0.0456755 -8.55253e-19 3.082e-34)
(0.265077 0.00174704 -1.35121e-18 0.0430078 -9.72364e-18 2.94854e-34)
(0.264952 0.00115216 1.26228e-19 0.0416451 -1.19019e-17 3.40553e-34)
(0.163688 0.0278766 2.14184e-18 0.0316905 9.88422e-19 1.51896e-34)
(0.214937 0.0296033 2.73578e-18 0.0366228 1.10432e-18 2.10484e-34)
(0.253859 0.0296728 -6.07553e-20 0.0413423 3.04649e-19 1.82985e-34)
(0.280633 0.028568 1.4692e-18 0.0441406 -3.63535e-19 1.93155e-34)
(0.295491 0.0257873 3.58421e-18 0.0454717 2.7525e-18 2.11237e-34)
(0.295937 0.0211025 -2.83248e-18 0.0442979 2.02216e-18 3.41892e-34)
(0.288313 0.0159055 6.81856e-18 0.0413245 -4.91373e-18 4.60032e-34)
(0.27619 0.0107486 -2.74668e-18 0.0374057 -3.69448e-18 1.09283e-33)
(0.26692 0.007279 -1.27688e-17 0.0336699 -9.58216e-18 6.62635e-34)
(0.26756 0.00570808 5.12945e-18 0.03157 -1.97766e-17 1.19803e-33)
(0.146816 0.0420389 8.12459e-20 0.0388157 7.66516e-19 2.53109e-35)
(0.198335 0.0460009 -3.68001e-19 0.0407241 3.30004e-19 1.82512e-34)
(0.238283 0.0473179 -8.17571e-21 0.0422864 -2.82168e-18 1.79264e-34)
(0.266617 0.0467094 1.21466e-18 0.0420735 4.574e-18 1.5393e-34)
(0.283928 0.0434903 9.58955e-18 0.0401574 -2.16702e-18 1.80426e-34)
(0.287883 0.0372984 -6.63561e-18 0.0355115 -3.2486e-18 5.55139e-34)
(0.283995 0.0301929 -4.5509e-18 0.0293223 -1.36486e-20 8.23392e-34)
(0.275493 0.0230125 5.53959e-18 0.0225705 3.37458e-18 -1.46459e-34)
(0.268706 0.0181885 -1.90971e-17 0.0169886 -8.5557e-18 1.32426e-34)
(0.270689 0.0161906 -5.85838e-19 0.0136082 -6.30973e-18 1.82318e-33)
(0.124436 0.0505983 -1.83398e-18 0.0468709 2.74026e-18 -2.01057e-35)
(0.175577 0.0581716 -1.63274e-18 0.0450876 6.44995e-20 1.71361e-34)
(0.216215 0.0622528 1.51012e-18 0.0428083 1.02055e-18 2.05189e-34)
(0.246044 0.0636702 -3.35158e-18 0.0389591 1.22187e-18 5.55118e-34)
(0.266075 0.0617648 -1.49622e-18 0.0331512 -2.6627e-18 6.55068e-34)
(0.274206 0.0560714 9.44158e-18 0.0243832 -2.93923e-18 -4.42521e-34)
(0.274878 0.0489964 6.16999e-18 0.0144038 6.567e-18 8.16268e-35)
(0.270859 0.0415558 -5.63575e-19 0.00433243 -6.33668e-18 2.89441e-34)
(0.267158 0.0365585 -2.53763e-17 -0.00339299 -6.4081e-18 -2.86028e-33)
(0.270733 0.0349079 -9.71362e-18 -0.0082692 1.49959e-17 -2.14109e-34)
(0.0993779 0.0529751 -5.04517e-18 0.0533887 -1.11496e-18 3.43477e-34)
(0.148765 0.0655731 -3.40459e-18 0.0480713 -3.66628e-18 2.44339e-34)
(0.188968 0.0739942 -2.13043e-18 0.0421306 1.82325e-18 2.4482e-34)
(0.219433 0.0790395 2.53699e-18 0.0348636 -2.46791e-18 4.01436e-34)
(0.241549 0.0803005 -9.15166e-18 0.0254484 -1.15246e-18 -7.77996e-35)
(0.253497 0.0772443 -5.50713e-18 0.0129339 -4.0683e-18 4.81077e-35)
(0.25856 0.0722758 -6.32648e-18 -0.000437016 -1.71682e-18 1.19899e-35)
(0.258986 0.0664681 7.58796e-19 -0.0134415 6.24008e-18 -6.08546e-35)
(0.258366 0.0625649 -3.07898e-18 -0.0230255 1.25694e-17 -1.38993e-33)
(0.263383 0.0620836 -2.03567e-17 -0.0292142 2.41147e-17 -1.61234e-33)
(0.0744539 0.0498367 2.85903e-18 0.0559936 -6.00912e-18 1.89538e-34)
(0.120046 0.0685142 -2.11615e-19 0.0480986 -2.56269e-18 2.36857e-34)
(0.15795 0.0825005 -2.73802e-18 0.0395185 3.21563e-19 1.97737e-34)
(0.187449 0.0924507 9.82421e-19 0.02987 -2.58422e-18 1.40391e-34)
(0.210159 0.0983912 1.25993e-18 0.0180284 -1.32438e-18 2.53258e-35)
(0.224581 0.099756 -3.59764e-18 0.00312721 1.09993e-18 5.0305e-35)
(0.232911 0.0986418 -1.20991e-18 -0.0123049 6.13727e-18 4.01704e-35)
(0.236871 0.0960712 -7.07484e-18 -0.0270218 2.83981e-18 -7.73149e-35)
(0.238744 0.0943346 -2.33022e-18 -0.0376241 8.65022e-18 5.56311e-35)
(0.244668 0.0957023 -1.32289e-17 -0.0445615 1.49159e-17 6.29339e-34)
(0.0519201 0.0428674 3.02116e-18 0.053005 1.73287e-18 5.39509e-34)
(0.0912285 0.0680167 2.16888e-18 0.0440871 3.27668e-18 2.56636e-34)
(0.124474 0.0881124 6.04209e-19 0.0345044 -1.15478e-18 2.18257e-34)
(0.150882 0.103587 -2.60548e-18 0.0241072 -4.15408e-18 -1.17875e-34)
(0.172084 0.115009 -1.79065e-18 0.0116737 -2.45073e-18 2.56893e-35)
(0.186914 0.121807 -2.67366e-18 -0.00353681 2.28006e-18 1.20231e-34)
(0.196677 0.125569 -6.96755e-18 -0.0190216 4.56439e-19 3.38149e-34)
(0.202609 0.127193 1.45426e-18 -0.0336233 7.15899e-19 6.53713e-34)
(0.205948 0.128261 5.59194e-18 -0.0440013 1.73182e-17 -1.47939e-33)
(0.211964 0.131853 1.90473e-18 -0.0508471 3.44086e-18 -1.76119e-34)
(0.0330195 0.0344775 -3.53447e-19 0.0437561 -4.83216e-19 3.70009e-34)
(0.0634957 0.0656056 -2.94578e-19 0.0356157 4.78947e-20 1.62014e-34)
(0.0895927 0.0914456 1.33265e-18 0.0269431 -1.72717e-18 9.73329e-35)
(0.110628 0.112193 -2.72619e-18 0.017696 7.60469e-19 7.09155e-36)
(0.127995 0.128956 -1.20595e-18 0.00678936 4.52264e-18 -3.11675e-34)
(0.140869 0.141176 3.60675e-19 -0.006351 8.33568e-18 -6.36152e-34)
(0.149922 0.149868 -1.96468e-18 -0.0196006 -2.31888e-18 3.70898e-34)
(0.15597 0.155776 -2.51845e-18 -0.0320142 -4.46035e-18 -4.99124e-34)
(0.159547 0.15971 7.90295e-18 -0.0407657 1.1128e-17 -1.4271e-33)
(0.164726 0.165496 1.27551e-17 -0.0465688 -9.03386e-18 -9.78965e-34)
(0.0179244 0.0270885 7.81556e-19 0.0288398 2.85367e-18 2.95573e-34)
(0.0373125 0.0628336 3.02146e-19 0.0231716 2.59315e-18 9.31857e-35)
(0.0540576 0.093161 5.58919e-19 0.0171775 1.70733e-18 1.35326e-35)
(0.0676766 0.118056 -1.26945e-18 0.0108251 1.4981e-18 4.39619e-36)
(0.0791046 0.139062 3.109e-19 0.00338692 1.21211e-19 -2.32413e-34)
(0.0878524 0.155635 2.72529e-18 -0.00550857 2.26308e-18 -3.34133e-34)
(0.0942096 0.168312 5.77678e-18 -0.0144345 -4.62254e-18 -3.72064e-34)
(0.0986391 0.1777 2.21576e-18 -0.02277 8.84628e-19 -5.53094e-34)
(0.101308 0.183958 9.00885e-18 -0.0286202 2.54791e-18 -8.74711e-34)
(0.104797 0.191495 1.54007e-17 -0.0325135 -6.73223e-18 -1.00602e-33)
(0.00551596 0.0228432 -2.83916e-18 0.00998125 -2.05653e-19 1.34397e-34)
(0.0123389 0.0611136 -4.33308e-19 0.00792351 5.43848e-20 8.62413e-35)
(0.0182459 0.0938931 2.37329e-19 0.00584246 1.03807e-18 3.31965e-35)
(0.0230578 0.12107 1.7365e-18 0.0036212 7.48096e-19 -1.7921e-35)
(0.0270926 0.144415 6.59963e-19 0.00102504 9.60517e-19 -1.01247e-34)
(0.0301998 0.163404 1.6562e-18 -0.00209197 1.22643e-18 -1.72333e-34)
(0.0324681 0.178298 3.14681e-18 -0.00522779 -3.13042e-19 -2.27584e-34)
(0.0340589 0.189626 1.15475e-18 -0.00816142 1.27567e-20 -3.01563e-34)
(0.0350107 0.197178 6.00089e-18 -0.0102198 -7.92293e-19 -3.8543e-34)
(0.0362157 0.205683 6.18538e-18 -0.0115977 -2.00035e-18 -4.26754e-34)
(-0.00569372 0.0227977 9.01095e-19 -0.010373 5.47216e-19 7.61118e-35)
(-0.012038 0.0610866 -4.68754e-19 -0.008355 -5.55081e-20 8.35185e-35)
(-0.0175527 0.093907 -1.54606e-18 -0.00604953 -1.07941e-20 3.83947e-35)
(-0.0220901 0.121118 9.3414e-19 -0.00368663 1.38158e-18 5.9146e-36)
(-0.0259913 0.144482 -1.31625e-18 -0.000944911 1.22372e-18 -3.67169e-35)
(-0.0290806 0.163475 3.94435e-20 0.00226078 9.38554e-19 -4.68238e-35)
(-0.0314069 0.178366 1.43655e-18 0.00543764 7.09233e-19 -5.34708e-35)
(-0.0330954 0.189687 -4.11774e-19 0.00837593 -5.55287e-19 -4.80296e-35)
(-0.0341499 0.197229 3.43722e-18 0.0104248 -9.09725e-19 -9.51714e-35)
(-0.0354406 0.205729 4.0173e-18 0.0117784 -8.01417e-19 -9.86455e-35)
(-0.0181623 0.0270395 -1.31398e-18 -0.0292936 6.65538e-19 7.36283e-35)
(-0.0370544 0.0629156 -1.37777e-18 -0.023721 1.93045e-18 1.09472e-34)
(-0.053407 0.0933306 -5.91375e-19 -0.0175117 -1.74463e-19 6.99321e-35)
(-0.0667628 0.1183 -3.02608e-19 -0.0109901 1.31251e-18 4.70039e-35)
(-0.0780619 0.139322 -2.09988e-18 -0.00338264 2.61037e-18 2.31386e-35)
(-0.0867904 0.155885 -1.80003e-18 0.00562387 -1.58938e-18 6.56528e-35)
(-0.0932004 0.168538 1.46116e-18 0.014604 4.08268e-18 8.03855e-35)
(-0.0977198 0.177896 1.10551e-18 0.0229524 -1.21971e-18 3.49384e-34)
(-0.100481 0.184122 9.20876e-19 0.0287934 -5.21409e-18 2.80847e-35)
(-0.104051 0.191644 3.27444e-18 0.0326642 2.20881e-18 1.88105e-34)
(-0.0329319 0.0344565 -1.71414e-18 -0.0445195 -4.57701e-19 -3.92576e-35)
(-0.0629476 0.0657496 -7.99135e-19 -0.0365136 -3.84693e-19 8.03969e-35)
(-0.0887684 0.091737 1.8217e-18 -0.0275544 1.42915e-19 6.21157e-35)
(-0.109659 0.112593 -3.98928e-18 -0.0180547 1.02528e-18 1.84792e-35)
(-0.126975 0.129388 1.65212e-18 -0.00690594 6.30318e-18 1.73769e-35)
(-0.139868 0.141591 2.5265e-18 0.00638195 -3.916e-18 2.26835e-34)
(-0.148989 0.150247 -1.44299e-18 0.0197125 -1.09986e-18 2.67847e-34)
(-0.155125 0.156109 -2.3137e-18 0.0321481 4.3229e-18 -2.81661e-34)
(-0.158784 0.159994 2.37733e-19 0.0408903 -5.5214e-18 -1.64934e-34)
(-0.164036 0.165756 -5.44013e-18 0.0466726 1.57135e-18 3.28654e-34)
(-0.0519269 0.0427962 -3.90894e-18 -0.0540219 -1.81357e-18 -9.41659e-35)
(-0.0907817 0.068398 -6.14657e-19 -0.0453594 -1.01332e-18 6.50824e-35)
(-0.123799 0.0887312 -1.22259e-18 -0.0354862 1.78637e-18 8.17756e-35)
(-0.150117 0.104337 -8.88573e-19 -0.0247407 -1.92809e-18 3.19553e-34)
(-0.171281 0.115749 1.11607e-18 -0.0119993 6.60286e-20 3.52246e-34)
(-0.18612 0.122484 2.14839e-18 0.00342694 6.18292e-18 -3.95805e-34)
(-0.195929 0.126163 -2.71684e-18 0.0190295 3.09782e-18 -1.21472e-34)
(-0.201923 0.127705 3.65746e-18 0.03368 5.59192e-19 -4.50148e-35)
(-0.205313 0.128703 -1.24697e-20 0.0440531 -6.42925e-18 -1.17531e-33)
(-0.21139 0.132258 -1.10296e-17 0.0508846 5.89916e-20 -2.64523e-34)
(-0.0736988 0.0502863 2.0476e-19 -0.0576114 -2.8554e-18 1.73689e-34)
(-0.118928 0.0695143 2.87004e-18 -0.0500366 -2.21241e-18 1.23359e-34)
(-0.156893 0.0836918 -1.34353e-18 -0.0409838 -1.28806e-18 1.20441e-34)
(-0.186556 0.0936584 2.48706e-18 -0.0308328 2.14204e-18 2.13254e-34)
(-0.209403 0.0994879 1.01285e-18 -0.0185395 -5.05451e-18 -1.12319e-34)
(-0.223921 0.100712 1.45659e-18 -0.00336096 -7.68347e-19 -5.32487e-35)
(-0.232337 0.0994569 -4.31831e-19 0.0122425 2.84876e-19 -9.62162e-35)
(-0.236362 0.096769 -3.56128e-18 0.0270251 3.68404e-18 -1.36551e-34)
(-0.238274 0.0949418 -3.88313e-18 0.0376295 2.03178e-18 -6.31251e-34)
(-0.244249 0.0962616 -7.55998e-18 0.0445569 -2.89856e-18 -6.62469e-34)
(-0.09839 0.0534605 6.93245e-18 -0.0557232 3.25373e-18 7.65124e-35)
(-0.147833 0.0672912 2.5825e-18 -0.0505411 3.53703e-19 1.33971e-34)
(-0.188384 0.0759684 6.77528e-20 -0.0439832 -1.73722e-18 1.07163e-34)
(-0.21917 0.0809409 2.00177e-18 -0.0360287 1.29687e-18 5.69349e-35)
(-0.24141 0.081946 1.54637e-18 -0.0261154 1.28483e-18 -3.6286e-35)
(-0.25339 0.0786133 4.78364e-19 -0.0132484 -1.48198e-18 -4.49327e-35)
(-0.258456 0.0734046 -8.15759e-19 0.000315026 -3.08231e-19 -8.20114e-35)
(-0.258869 0.0674073 1.46145e-18 0.0134135 -2.35622e-18 -1.73962e-34)
(-0.258227 0.0633804 3.26902e-20 0.0230033 -6.48649e-20 -1.46022e-34)
(-0.263265 0.0628318 2.79366e-19 0.0291901 -9.58255e-19 -9.65604e-35)
(-0.122093 0.0529968 2.12532e-19 -0.0498332 2.33971e-18 3.70961e-34)
(-0.173864 0.0619413 -1.77969e-18 -0.0479457 1.91987e-18 1.71391e-34)
(-0.21546 0.0657704 1.60278e-18 -0.0446838 6.20848e-19 1.50379e-34)
(-0.245908 0.066619 3.15169e-18 -0.0400772 -1.25684e-18 -9.91544e-35)
(-0.266241 0.0640659 1.32805e-18 -0.0337014 -2.2847e-19 -9.09144e-36)
(-0.274467 0.0578764 -1.5399e-18 -0.0246199 -6.50527e-19 1.68674e-35)
(-0.275157 0.0504006 -4.98453e-19 -0.0144446 -2.48289e-18 6.604e-35)
(-0.27111 0.0426946 -4.32785e-20 -0.00430186 6.12677e-19 8.63148e-35)
(-0.267364 0.0375324 -9.64181e-19 0.00342715 3.36348e-19 -3.87238e-34)
(-0.270938 0.0357938 5.69973e-18 0.00829493 -5.13417e-19 -1.27062e-34)
(-0.143228 0.0453107 1.20836e-18 -0.0433694 2.87068e-19 2.74926e-34)
(-0.197532 0.0514745 4.56858e-19 -0.0433278 4.99652e-20 1.22504e-34)
(-0.239126 0.0520828 1.69395e-18 -0.043673 1.27848e-18 9.17381e-35)
(-0.268218 0.0504404 -3.74611e-19 -0.0425847 -1.60458e-18 5.31213e-35)
(-0.285626 0.0463098 -2.22724e-18 -0.0403026 -7.80411e-19 -1.26921e-34)
(-0.289399 0.0394045 -2.43272e-18 -0.035437 -7.45838e-19 -2.27198e-34)
(-0.285277 0.0318001 4.51103e-18 -0.0291741 -2.59923e-18 2.75802e-34)
(-0.276531 0.024276 4.41438e-18 -0.0223974 -2.42155e-18 -3.02684e-35)
(-0.26957 0.0192656 2.18657e-18 -0.0168428 -2.06949e-19 -1.74548e-34)
(-0.271482 0.0171654 7.95704e-18 -0.0134807 4.3071e-19 -1.97247e-34)
(-0.158315 0.0365304 -2.55897e-18 -0.0343226 5.26445e-19 2.36393e-34)
(-0.214537 0.0393996 -1.8672e-18 -0.0369276 3.95638e-19 8.73673e-35)
(-0.255965 0.0364793 -9.99864e-19 -0.0406156 5.17763e-19 4.81943e-35)
(-0.283371 0.0333413 -3.11478e-19 -0.0431908 -1.27932e-18 7.18917e-35)
(-0.298099 0.0289663 8.34123e-19 -0.0445837 -4.34082e-19 -5.44736e-35)
(-0.298204 0.0233466 -8.10796e-20 -0.0435651 3.14189e-19 -6.13451e-35)
(-0.290196 0.0174781 3.27338e-18 -0.0407361 9.59033e-19 -2.15552e-35)
(-0.277761 0.0119492 8.30636e-19 -0.0369402 -1.07452e-18 -5.86243e-35)
(-0.268258 0.00826893 1.78855e-18 -0.0332977 -2.82785e-19 -1.36444e-34)
(-0.268786 0.00660346 3.64596e-18 -0.0312548 1.2511e-19 -1.40582e-34)
(-0.163893 0.0204484 -3.29234e-19 -0.0307493 -1.64395e-18 1.17143e-34)
(-0.227069 0.0205027 -1.06659e-19 -0.0301963 -1.30614e-19 9.13994e-35)
(-0.268301 0.0164202 -7.46161e-19 -0.0372095 2.12608e-19 7.0178e-35)
(-0.293815 0.0133899 -3.6365e-19 -0.0423896 9.68145e-19 5.64165e-35)
(-0.306376 0.0108836 -4.65224e-19 -0.0463712 -2.61535e-19 2.53853e-35)
(-0.303741 0.00830047 -4.32508e-19 -0.0477582 -2.38533e-19 7.9504e-36)
(-0.293179 0.00592584 4.79157e-19 -0.0470294 6.64293e-20 2.80557e-36)
(-0.278323 0.00376976 4.63895e-19 -0.0449956 -1.06168e-18 -1.31552e-35)
(-0.267233 0.00236744 7.88963e-19 -0.0424813 -4.22471e-20 -3.47529e-35)
(-0.266877 0.00170395 9.74116e-19 -0.0411892 -8.23842e-20 -4.33876e-35)
)
;

boundaryField
{
    up
    {
        type            zeroGradient;
    }
    hole
    {
        type            mySigma;
    }
    frontAndBack
    {
        type            empty;
    }
}


// ************************************************************************* //
